<?xml version="1.0"?>
<VTKFile type="UnstructuredGrid"  version="0.1"  >
<UnstructuredGrid>
<Piece  NumberOfPoints="10201" NumberOfCells="20000">
<Points>
<DataArray  type="Float64"  NumberOfComponents="3"  format="ascii">-5 -5 0  -4.9 -5 0  -4.8 -5 0  -4.7 -5 0  -4.6 -5 0  -4.5 -5 0  -4.4 -5 0  -4.3 -5 0  -4.2 -5 0  -4.1 -5 0  -4 -5 0  -3.9 -5 0  -3.8 -5 0  -3.7 -5 0  -3.6 -5 0  -3.5 -5 0  -3.4 -5 0  -3.3 -5 0  -3.2 -5 0  -3.1 -5 0  -3 -5 0  -2.9 -5 0  -2.8 -5 0  -2.7 -5 0  -2.6 -5 0  -2.5 -5 0  -2.4 -5 0  -2.3 -5 0  -2.2 -5 0  -2.1 -5 0  -2 -5 0  -1.9 -5 0  -1.8 -5 0  -1.7 -5 0  -1.6 -5 0  -1.5 -5 0  -1.4 -5 0  -1.3 -5 0  -1.2 -5 0  -1.1 -5 0  -1 -5 0  -0.9000000000000004 -5 0  -0.7999999999999998 -5 0  -0.7000000000000002 -5 0  -0.5999999999999996 -5 0  -0.5 -5 0  -0.4000000000000004 -5 0  -0.2999999999999998 -5 0  -0.2000000000000002 -5 0  -0.09999999999999964 -5 0  0 -5 0  0.09999999999999964 -5 0  0.2000000000000002 -5 0  0.2999999999999998 -5 0  0.4000000000000004 -5 0  0.5 -5 0  0.5999999999999996 -5 0  0.7000000000000002 -5 0  0.7999999999999998 -5 0  0.9000000000000004 -5 0  1 -5 0  1.1 -5 0  1.2 -5 0  1.3 -5 0  1.4 -5 0  1.5 -5 0  1.6 -5 0  1.7 -5 0  1.8 -5 0  1.9 -5 0  2 -5 0  2.1 -5 0  2.2 -5 0  2.3 -5 0  2.4 -5 0  2.5 -5 0  2.6 -5 0  2.7 -5 0  2.8 -5 0  2.9 -5 0  3 -5 0  3.1 -5 0  3.199999999999999 -5 0  3.300000000000001 -5 0  3.4 -5 0  3.5 -5 0  3.6 -5 0  3.699999999999999 -5 0  3.800000000000001 -5 0  3.9 -5 0  4 -5 0  4.1 -5 0  4.199999999999999 -5 0  4.300000000000001 -5 0  4.4 -5 0  4.5 -5 0  4.6 -5 0  4.699999999999999 -5 0  4.800000000000001 -5 0  4.9 -5 0  5 -5 0  -5 -4.9 0  -4.9 -4.9 0  -4.8 -4.9 0  -4.7 -4.9 0  -4.6 -4.9 0  -4.5 -4.9 0  -4.4 -4.9 0  -4.3 -4.9 0  -4.2 -4.9 0  -4.1 -4.9 0  -4 -4.9 0  -3.9 -4.9 0  -3.8 -4.9 0  -3.7 -4.9 0  -3.6 -4.9 0  -3.5 -4.9 0  -3.4 -4.9 0  -3.3 -4.9 0  -3.2 -4.9 0  -3.1 -4.9 0  -3 -4.9 0  -2.9 -4.9 0  -2.8 -4.9 0  -2.7 -4.9 0  -2.6 -4.9 0  -2.5 -4.9 0  -2.4 -4.9 0  -2.3 -4.9 0  -2.2 -4.9 0  -2.1 -4.9 0  -2 -4.9 0  -1.9 -4.9 0  -1.8 -4.9 0  -1.7 -4.9 0  -1.6 -4.9 0  -1.5 -4.9 0  -1.4 -4.9 0  -1.3 -4.9 0  -1.2 -4.9 0  -1.1 -4.9 0  -1 -4.9 0  -0.9000000000000004 -4.9 0  -0.7999999999999998 -4.9 0  -0.7000000000000002 -4.9 0  -0.5999999999999996 -4.9 0  -0.5 -4.9 0  -0.4000000000000004 -4.9 0  -0.2999999999999998 -4.9 0  -0.2000000000000002 -4.9 0  -0.09999999999999964 -4.9 0  0 -4.9 0  0.09999999999999964 -4.9 0  0.2000000000000002 -4.9 0  0.2999999999999998 -4.9 0  0.4000000000000004 -4.9 0  0.5 -4.9 0  0.5999999999999996 -4.9 0  0.7000000000000002 -4.9 0  0.7999999999999998 -4.9 0  0.9000000000000004 -4.9 0  1 -4.9 0  1.1 -4.9 0  1.2 -4.9 0  1.3 -4.9 0  1.4 -4.9 0  1.5 -4.9 0  1.6 -4.9 0  1.7 -4.9 0  1.8 -4.9 0  1.9 -4.9 0  2 -4.9 0  2.1 -4.9 0  2.2 -4.9 0  2.3 -4.9 0  2.4 -4.9 0  2.5 -4.9 0  2.6 -4.9 0  2.7 -4.9 0  2.8 -4.9 0  2.9 -4.9 0  3 -4.9 0  3.1 -4.9 0  3.199999999999999 -4.9 0  3.300000000000001 -4.9 0  3.4 -4.9 0  3.5 -4.9 0  3.6 -4.9 0  3.699999999999999 -4.9 0  3.800000000000001 -4.9 0  3.9 -4.9 0  4 -4.9 0  4.1 -4.9 0  4.199999999999999 -4.9 0  4.300000000000001 -4.9 0  4.4 -4.9 0  4.5 -4.9 0  4.6 -4.9 0  4.699999999999999 -4.9 0  4.800000000000001 -4.9 0  4.9 -4.9 0  5 -4.9 0  -5 -4.8 0  -4.9 -4.8 0  -4.8 -4.8 0  -4.7 -4.8 0  -4.6 -4.8 0  -4.5 -4.8 0  -4.4 -4.8 0  -4.3 -4.8 0  -4.2 -4.8 0  -4.1 -4.8 0  -4 -4.8 0  -3.9 -4.8 0  -3.8 -4.8 0  -3.7 -4.8 0  -3.6 -4.8 0  -3.5 -4.8 0  -3.4 -4.8 0  -3.3 -4.8 0  -3.2 -4.8 0  -3.1 -4.8 0  -3 -4.8 0  -2.9 -4.8 0  -2.8 -4.8 0  -2.7 -4.8 0  -2.6 -4.8 0  -2.5 -4.8 0  -2.4 -4.8 0  -2.3 -4.8 0  -2.2 -4.8 0  -2.1 -4.8 0  -2 -4.8 0  -1.9 -4.8 0  -1.8 -4.8 0  -1.7 -4.8 0  -1.6 -4.8 0  -1.5 -4.8 0  -1.4 -4.8 0  -1.3 -4.8 0  -1.2 -4.8 0  -1.1 -4.8 0  -1 -4.8 0  -0.9000000000000004 -4.8 0  -0.7999999999999998 -4.8 0  -0.7000000000000002 -4.8 0  -0.5999999999999996 -4.8 0  -0.5 -4.8 0  -0.4000000000000004 -4.8 0  -0.2999999999999998 -4.8 0  -0.2000000000000002 -4.8 0  -0.09999999999999964 -4.8 0  0 -4.8 0  0.09999999999999964 -4.8 0  0.2000000000000002 -4.8 0  0.2999999999999998 -4.8 0  0.4000000000000004 -4.8 0  0.5 -4.8 0  0.5999999999999996 -4.8 0  0.7000000000000002 -4.8 0  0.7999999999999998 -4.8 0  0.9000000000000004 -4.8 0  1 -4.8 0  1.1 -4.8 0  1.2 -4.8 0  1.3 -4.8 0  1.4 -4.8 0  1.5 -4.8 0  1.6 -4.8 0  1.7 -4.8 0  1.8 -4.8 0  1.9 -4.8 0  2 -4.8 0  2.1 -4.8 0  2.2 -4.8 0  2.3 -4.8 0  2.4 -4.8 0  2.5 -4.8 0  2.6 -4.8 0  2.7 -4.8 0  2.8 -4.8 0  2.9 -4.8 0  3 -4.8 0  3.1 -4.8 0  3.199999999999999 -4.8 0  3.300000000000001 -4.8 0  3.4 -4.8 0  3.5 -4.8 0  3.6 -4.8 0  3.699999999999999 -4.8 0  3.800000000000001 -4.8 0  3.9 -4.8 0  4 -4.8 0  4.1 -4.8 0  4.199999999999999 -4.8 0  4.300000000000001 -4.8 0  4.4 -4.8 0  4.5 -4.8 0  4.6 -4.8 0  4.699999999999999 -4.8 0  4.800000000000001 -4.8 0  4.9 -4.8 0  5 -4.8 0  -5 -4.7 0  -4.9 -4.7 0  -4.8 -4.7 0  -4.7 -4.7 0  -4.6 -4.7 0  -4.5 -4.7 0  -4.4 -4.7 0  -4.3 -4.7 0  -4.2 -4.7 0  -4.1 -4.7 0  -4 -4.7 0  -3.9 -4.7 0  -3.8 -4.7 0  -3.7 -4.7 0  -3.6 -4.7 0  -3.5 -4.7 0  -3.4 -4.7 0  -3.3 -4.7 0  -3.2 -4.7 0  -3.1 -4.7 0  -3 -4.7 0  -2.9 -4.7 0  -2.8 -4.7 0  -2.7 -4.7 0  -2.6 -4.7 0  -2.5 -4.7 0  -2.4 -4.7 0  -2.3 -4.7 0  -2.2 -4.7 0  -2.1 -4.7 0  -2 -4.7 0  -1.9 -4.7 0  -1.8 -4.7 0  -1.7 -4.7 0  -1.6 -4.7 0  -1.5 -4.7 0  -1.4 -4.7 0  -1.3 -4.7 0  -1.2 -4.7 0  -1.1 -4.7 0  -1 -4.7 0  -0.9000000000000004 -4.7 0  -0.7999999999999998 -4.7 0  -0.7000000000000002 -4.7 0  -0.5999999999999996 -4.7 0  -0.5 -4.7 0  -0.4000000000000004 -4.7 0  -0.2999999999999998 -4.7 0  -0.2000000000000002 -4.7 0  -0.09999999999999964 -4.7 0  0 -4.7 0  0.09999999999999964 -4.7 0  0.2000000000000002 -4.7 0  0.2999999999999998 -4.7 0  0.4000000000000004 -4.7 0  0.5 -4.7 0  0.5999999999999996 -4.7 0  0.7000000000000002 -4.7 0  0.7999999999999998 -4.7 0  0.9000000000000004 -4.7 0  1 -4.7 0  1.1 -4.7 0  1.2 -4.7 0  1.3 -4.7 0  1.4 -4.7 0  1.5 -4.7 0  1.6 -4.7 0  1.7 -4.7 0  1.8 -4.7 0  1.9 -4.7 0  2 -4.7 0  2.1 -4.7 0  2.2 -4.7 0  2.3 -4.7 0  2.4 -4.7 0  2.5 -4.7 0  2.6 -4.7 0  2.7 -4.7 0  2.8 -4.7 0  2.9 -4.7 0  3 -4.7 0  3.1 -4.7 0  3.199999999999999 -4.7 0  3.300000000000001 -4.7 0  3.4 -4.7 0  3.5 -4.7 0  3.6 -4.7 0  3.699999999999999 -4.7 0  3.800000000000001 -4.7 0  3.9 -4.7 0  4 -4.7 0  4.1 -4.7 0  4.199999999999999 -4.7 0  4.300000000000001 -4.7 0  4.4 -4.7 0  4.5 -4.7 0  4.6 -4.7 0  4.699999999999999 -4.7 0  4.800000000000001 -4.7 0  4.9 -4.7 0  5 -4.7 0  -5 -4.6 0  -4.9 -4.6 0  -4.8 -4.6 0  -4.7 -4.6 0  -4.6 -4.6 0  -4.5 -4.6 0  -4.4 -4.6 0  -4.3 -4.6 0  -4.2 -4.6 0  -4.1 -4.6 0  -4 -4.6 0  -3.9 -4.6 0  -3.8 -4.6 0  -3.7 -4.6 0  -3.6 -4.6 0  -3.5 -4.6 0  -3.4 -4.6 0  -3.3 -4.6 0  -3.2 -4.6 0  -3.1 -4.6 0  -3 -4.6 0  -2.9 -4.6 0  -2.8 -4.6 0  -2.7 -4.6 0  -2.6 -4.6 0  -2.5 -4.6 0  -2.4 -4.6 0  -2.3 -4.6 0  -2.2 -4.6 0  -2.1 -4.6 0  -2 -4.6 0  -1.9 -4.6 0  -1.8 -4.6 0  -1.7 -4.6 0  -1.6 -4.6 0  -1.5 -4.6 0  -1.4 -4.6 0  -1.3 -4.6 0  -1.2 -4.6 0  -1.1 -4.6 0  -1 -4.6 0  -0.9000000000000004 -4.6 0  -0.7999999999999998 -4.6 0  -0.7000000000000002 -4.6 0  -0.5999999999999996 -4.6 0  -0.5 -4.6 0  -0.4000000000000004 -4.6 0  -0.2999999999999998 -4.6 0  -0.2000000000000002 -4.6 0  -0.09999999999999964 -4.6 0  0 -4.6 0  0.09999999999999964 -4.6 0  0.2000000000000002 -4.6 0  0.2999999999999998 -4.6 0  0.4000000000000004 -4.6 0  0.5 -4.6 0  0.5999999999999996 -4.6 0  0.7000000000000002 -4.6 0  0.7999999999999998 -4.6 0  0.9000000000000004 -4.6 0  1 -4.6 0  1.1 -4.6 0  1.2 -4.6 0  1.3 -4.6 0  1.4 -4.6 0  1.5 -4.6 0  1.6 -4.6 0  1.7 -4.6 0  1.8 -4.6 0  1.9 -4.6 0  2 -4.6 0  2.1 -4.6 0  2.2 -4.6 0  2.3 -4.6 0  2.4 -4.6 0  2.5 -4.6 0  2.6 -4.6 0  2.7 -4.6 0  2.8 -4.6 0  2.9 -4.6 0  3 -4.6 0  3.1 -4.6 0  3.199999999999999 -4.6 0  3.300000000000001 -4.6 0  3.4 -4.6 0  3.5 -4.6 0  3.6 -4.6 0  3.699999999999999 -4.6 0  3.800000000000001 -4.6 0  3.9 -4.6 0  4 -4.6 0  4.1 -4.6 0  4.199999999999999 -4.6 0  4.300000000000001 -4.6 0  4.4 -4.6 0  4.5 -4.6 0  4.6 -4.6 0  4.699999999999999 -4.6 0  4.800000000000001 -4.6 0  4.9 -4.6 0  5 -4.6 0  -5 -4.5 0  -4.9 -4.5 0  -4.8 -4.5 0  -4.7 -4.5 0  -4.6 -4.5 0  -4.5 -4.5 0  -4.4 -4.5 0  -4.3 -4.5 0  -4.2 -4.5 0  -4.1 -4.5 0  -4 -4.5 0  -3.9 -4.5 0  -3.8 -4.5 0  -3.7 -4.5 0  -3.6 -4.5 0  -3.5 -4.5 0  -3.4 -4.5 0  -3.3 -4.5 0  -3.2 -4.5 0  -3.1 -4.5 0  -3 -4.5 0  -2.9 -4.5 0  -2.8 -4.5 0  -2.7 -4.5 0  -2.6 -4.5 0  -2.5 -4.5 0  -2.4 -4.5 0  -2.3 -4.5 0  -2.2 -4.5 0  -2.1 -4.5 0  -2 -4.5 0  -1.9 -4.5 0  -1.8 -4.5 0  -1.7 -4.5 0  -1.6 -4.5 0  -1.5 -4.5 0  -1.4 -4.5 0  -1.3 -4.5 0  -1.2 -4.5 0  -1.1 -4.5 0  -1 -4.5 0  -0.9000000000000004 -4.5 0  -0.7999999999999998 -4.5 0  -0.7000000000000002 -4.5 0  -0.5999999999999996 -4.5 0  -0.5 -4.5 0  -0.4000000000000004 -4.5 0  -0.2999999999999998 -4.5 0  -0.2000000000000002 -4.5 0  -0.09999999999999964 -4.5 0  0 -4.5 0  0.09999999999999964 -4.5 0  0.2000000000000002 -4.5 0  0.2999999999999998 -4.5 0  0.4000000000000004 -4.5 0  0.5 -4.5 0  0.5999999999999996 -4.5 0  0.7000000000000002 -4.5 0  0.7999999999999998 -4.5 0  0.9000000000000004 -4.5 0  1 -4.5 0  1.1 -4.5 0  1.2 -4.5 0  1.3 -4.5 0  1.4 -4.5 0  1.5 -4.5 0  1.6 -4.5 0  1.7 -4.5 0  1.8 -4.5 0  1.9 -4.5 0  2 -4.5 0  2.1 -4.5 0  2.2 -4.5 0  2.3 -4.5 0  2.4 -4.5 0  2.5 -4.5 0  2.6 -4.5 0  2.7 -4.5 0  2.8 -4.5 0  2.9 -4.5 0  3 -4.5 0  3.1 -4.5 0  3.199999999999999 -4.5 0  3.300000000000001 -4.5 0  3.4 -4.5 0  3.5 -4.5 0  3.6 -4.5 0  3.699999999999999 -4.5 0  3.800000000000001 -4.5 0  3.9 -4.5 0  4 -4.5 0  4.1 -4.5 0  4.199999999999999 -4.5 0  4.300000000000001 -4.5 0  4.4 -4.5 0  4.5 -4.5 0  4.6 -4.5 0  4.699999999999999 -4.5 0  4.800000000000001 -4.5 0  4.9 -4.5 0  5 -4.5 0  -5 -4.4 0  -4.9 -4.4 0  -4.8 -4.4 0  -4.7 -4.4 0  -4.6 -4.4 0  -4.5 -4.4 0  -4.4 -4.4 0  -4.3 -4.4 0  -4.2 -4.4 0  -4.1 -4.4 0  -4 -4.4 0  -3.9 -4.4 0  -3.8 -4.4 0  -3.7 -4.4 0  -3.6 -4.4 0  -3.5 -4.4 0  -3.4 -4.4 0  -3.3 -4.4 0  -3.2 -4.4 0  -3.1 -4.4 0  -3 -4.4 0  -2.9 -4.4 0  -2.8 -4.4 0  -2.7 -4.4 0  -2.6 -4.4 0  -2.5 -4.4 0  -2.4 -4.4 0  -2.3 -4.4 0  -2.2 -4.4 0  -2.1 -4.4 0  -2 -4.4 0  -1.9 -4.4 0  -1.8 -4.
[...]
<PointData  Scalars="r"> 
<DataArray  type="Float64"  Name="r"  format="ascii">1.0000988197387668e+00  9.9993108252048757e-01  1.0000720469687487e+00  9.9993582176796225e-01  1.0000574091243299e+00  1.0001036429877133e+00  1.0004195896737107e+00  1.0010408668961934e+00  1.0024937270823282e+00  1.0050791690487424e+00  1.0095936925908822e+00  1.0163601042445751e+00  1.0259137835649510e+00  1.0375319584137173e+00  1.0504405863332458e+00  1.0627520938977912e+00  1.0729938686693301e+00  1.0798842661894397e+00  1.0831693713047652e+00  1.0829684998214422e+00  1.0801893781806740e+00  1.0755574943477488e+00  1.0699216543273633e+00  1.0637419876459195e+00  1.0575627162583137e+00  1.0513391905473681e+00  1.0454096503205517e+00  1.0396118714229758e+00  1.0340860858559870e+00  1.0286851635087821e+00  1.0236059458276510e+00  1.0186491172957461e+00  1.0140016402922392e+00  1.0095815996499775e+00  1.0054483990349870e+00  1.0015029107040354e+00  9.9797110380368814e-01  9.9454073169271762e-01  9.9151928335027883e-01  9.8872114955640367e-01  9.8613986133731679e-01  9.8387660883316863e-01  9.8184384992378637e-01  9.7999992432264460e-01  9.7855703477257971e-01  9.7718127917207454e-01  9.7615481937744064e-01  9.7536540579084852e-01  9.7468048425281795e-01  9.7436719392183035e-01  9.7424869493296684e-01  9.7423480362521775e-01  9.7466922631533859e-01  9.7519737079548696e-01  9.7592189615126390e-01  9.7702192387655462e-01  9.7823179588059450e-01  9.7970583231798358e-01  9.8150040189354215e-01  9.8347089829894829e-01  9.8574661332404612e-01  9.8833955112015215e-01  9.9110532739249502e-01  9.9428409877489077e-01  9.9761905057775380e-01  1.0012960869716809e+00  1.0052082020950663e+00  1.0094269881761060e+00  1.0137699753429483e+00  1.0185765379349860e+00  1.0234457868980313e+00  1.0287447172236002e+00  1.0342319900750307e+00  1.0401080501839131e+00  1.0460670942795889e+00  1.0523401134260268e+00  1.0584011050216144e+00  1.0644557631560732e+00  1.0700450076682744e+00  1.0752369675715623e+00  1.0795934168098791e+00  1.0828546488667901e+00  1.0838901328513868e+00  1.0817992176421476e+00  1.0754487234328090e+00  1.0649884638743359e+00  1.0515963936449000e+00  1.0375560603413900e+00  1.0250230518351675e+00  1.0153538342189479e+00  1.0086574163353033e+00  1.0045585606551592e+00  1.0022436645043837e+00  1.0010152127467260e+00  1.0004342829042456e+00  1.0001820298426121e+00  1.0000581464793743e+00  1.0000268127951144e+00  1.0000047099040088e+00  9.9999819873660056e-01  1.0000104394695477e+00  9.9993108252048679e-01  9.9998378938480437e-01  9.9998696518577346e-01  9.9998459943706375e-01  1.0000691650869220e+00  1.0001801612747061e+00  1.0005699946615718e+00  1.0014371696048403e+00  1.0030913026308201e+00  1.0060970494671302e+00  1.0108828740908409e+00  1.0179741964926270e+00  1.0272454997977707e+00  1.0383367276328486e+00  1.0501443608822150e+00  1.0613202170881464e+00  1.0705482949910787e+00  1.0769204356291613e+00  1.0800453874574190e+00  1.0802154128307457e+00  1.0779776102066805e+00  1.0740002810150113e+00  1.0689008092662329e+00  1.0632508374836209e+00  1.0572713080285314e+00  1.0512828450771547e+00  1.0453889660232847e+00  1.0396138653998523e+00  1.0340398789378529e+00  1.0287062029547485e+00  1.0235798901380671e+00  1.0186894142465459e+00  1.0140916305305949e+00  1.0096996438193020e+00  1.0055731362452069e+00  1.0017624209323701e+00  9.9815754796583722e-01  9.9483789267634026e-01  9.9184006975966399e-01  9.8898129017538072e-01  9.8649924827775415e-01  9.8423675656069287e-01  9.8218858466463010e-01  9.8049417741132550e-01  9.7893725726942682e-01  9.7764626142959599e-01  9.7666714584640024e-01  9.7577715173173407e-01  9.7525072334618923e-01  9.7493984875832784e-01  9.7472213695263854e-01  9.7491400528502281e-01  9.7522093725039138e-01  9.7568238258151019e-01  9.7654053047724210e-01  9.7751929045406738e-01  9.7872165858741722e-01  9.8029378385298793e-01  9.8198739273054114e-01  9.8399228186464394e-01  9.8626539900970411e-01  9.8873878649713043e-01  9.9151456483663525e-01  9.9456155841183436e-01  9.9781447194165684e-01  1.0014579893723248e+00  1.0052892562994615e+00  1.0094549427266255e+00  1.0139364851968498e+00  1.0187044102907050e+00  1.0236799278691957e+00  1.0290286541807692e+00  1.0344560435848615e+00  1.0401159779037701e+00  1.0458404048313121e+00  1.0516727478249461e+00  1.0574713096238129e+00  1.0633216403877783e+00  1.0688197848657177e+00  1.0738412807083679e+00  1.0776674179119838e+00  1.0797245097835348e+00  1.0792868709899208e+00  1.0760694158912456e+00  1.0698932138114092e+00  1.0612221083685993e+00  1.0505908814411811e+00  1.0391527042295330e+00  1.0280931310995376e+00  1.0185883123237298e+00  1.0113403130634819e+00  1.0064192287360054e+00  1.0033356141669654e+00  1.0016313510806081e+00  1.0007496418452744e+00  1.0003101035511288e+00  1.0001250675602333e+00  1.0000486824945438e+00  1.0000118216017795e+00  1.0000124131615173e+00  9.9999819873660045e-01  1.0000720469687481e+00  9.9998696518577423e-01  1.0000627727065068e+00  1.0000237039462307e+00  1.0002470890102115e+00  1.0005437444977991e+00  1.0014687072492250e+00  1.0029982830854272e+00  1.0058687223097895e+00  1.0102143930844325e+00  1.0164712867663661e+00  1.0241708589097875e+00  1.0329498523540943e+00  1.0416765874913254e+00  1.0496978805576023e+00  1.0563456981027044e+00  1.0616306421262163e+00  1.0654576753607043e+00  1.0680211683441045e+00  1.0691834052174811e+00  1.0689833058284450e+00  1.0673222160005318e+00  1.0645078178982588e+00  1.0605413769956280e+00  1.0558536615980061e+00  1.0506193983631893e+00  1.0451433779431814e+00  1.0395411872803830e+00  1.0341362037540398e+00  1.0288034294935640e+00  1.0237752860912241e+00  1.0189797102867710e+00  1.0144705266972880e+00  1.0101655233704421e+00  1.0062445061613770e+00  1.0024410408487197e+00  9.9899438489254155e-01  9.9577154519542932e-01  9.9279463552545011e-01  9.9009175954270146e-01  9.8770599075559695e-01  9.8545179015412010e-01  9.8360113577142394e-01  9.8186554937580772e-01  9.8043412702882282e-01  9.7927300805442408e-01  9.7826147176088696e-01  9.7752585450533858e-01  9.7703946058734670e-01  9.7661393643284544e-01  9.7657277106393336e-01  9.7665187284704735e-01  9.7688034606560004e-01  9.7747966830683941e-01  9.7819784166568846e-01  9.7909606843182795e-01  9.8034230753008367e-01  9.8171212667044672e-01  9.8332813128265084e-01  9.8526961179563088e-01  9.8735661380613193e-01  9.8980595556879492e-01  9.9247555981661195e-01  9.9544848118529605e-01  9.9868350571767939e-01  1.0022603845302340e+00  1.0059875255217627e+00  1.0101892159355852e+00  1.0144507620250731e+00  1.0191191989284292e+00  1.0239110962463842e+00  1.0290413338351294e+00  1.0341645146121632e+00  1.0396768746444447e+00  1.0450499838255753e+00  1.0506646732718952e+00  1.0559794441643182e+00  1.0611303038306898e+00  1.0654553425989257e+00  1.0689594891340712e+00  1.0708084958737352e+00  1.0711308805740631e+00  1.0694362975788474e+00  1.0661498870370878e+00  1.0613089286028696e+00  1.0554918827982691e+00  1.0486550289876131e+00  1.0410589465079298e+00  1.0326368970064388e+00  1.0241808571848037e+00  1.0164289670540492e+00  1.0102134832433118e+00  1.0058094268132971e+00  1.0030719999563427e+00  1.0014718330078545e+00  1.0006722487714177e+00  1.0002812422233016e+00  1.0001091224096152e+00  1.0000411995999805e+00  1.0000118216017788e+00  1.0000047099040088e+00  9.9993582176796214e-01  9.9998459943706364e-01  1.0000237039462301e+00  1.0001998261023179e+00  1.0006136297912556e+00  1.0014850295427895e+00  1.0031677288019618e+00  1.0060884082727446e+00  1.0105601072972534e+00  1.0167123729473591e+00  1.0239185623927591e+00  1.0315044265500297e+00  1.0381165281324440e+00  1.0431653488815733e+00  1.0464065803461440e+00  1.0484708138983969e+00  1.0500784835370005e+00  1.0519107234008176e+00  1.0540023358749009e+00  1.0561545488991371e+00  1.0576796861933346e+00  1.0582717860319035e+00  1.0574773190785658e+00  1.0554011358546482e+00  1.0522053015239654e+00  1.0481900575630103e+00  1.0435925687169660e+00  1.0387920234710797e+00  1.0338299817215804e+00  1.0289103245902593e+00  1.0241679321515484e+00  1.0195574064742461e+00  1.0151746003193443e+00  1.0110833493281584e+00  1.0071826717937458e+00  1.0035662720464169e+00  1.0002860853546318e+00  9.9717531697794892e-01  9.9444907494179102e-01  9.9194270003655838e-01  9.8968562520085979e-01  9.8772990168835728e-01  9.8600611710808184e-01  9.8449455384893181e-01  9.8329883989395328e-01  9.8219701908728951e-01  9.8137666841236360e-01  9.8075464165943516e-01  9.8022834918236601e-01  9.8001132498940036e-01  9.7992074017765496e-01  9.7994221444203511e-01  9.8027060033148028e-01  9.8069869313640601e-01  9.8125019201646080e-01  9.8214676788082056e-01  9.8312887429958140e-01  9.8437022046989120e-01  9.8588425472976138e-01  9.8760792502666594e-01  9.8957723946694665e-01  9.9188492729708377e-01  9.9435099923513015e-01  9.9721784190383889e-01  1.0002583683533095e+00  1.0036503002917998e+00  1.0072566283804316e+00  1.0111908265019678e+00  1.0152114650144108e+00  1.0196547589650784e+00  1.0240582133913536e+00  1.0288078097674715e+00  1.0335292507768215e+00  1.0384999885134358e+00  1.0432345516937602e+00  1.0480334272512044e+00  1.0521105003955173e+00  1.0556667709493934e+00  1.0578417842983805e+00  1.0588168907712958e+00  1.0581028936840817e+00  1.0564172412827151e+00  1.0537699181947968e+00  1.0512932980408918e+00  1.0489713393799209e+00  1.0472723126961101e+00  1.0453773413283982e+00  1.0428115962812416e+00  1.0385179394777653e+00  1.0324807070912267e+00  1.0249772608762593e+00  1.0174932587080610e+00  1.0110379292800933e+00  1.0063427055306093e+00  1.0033128706329135e+00  1.0016205107860825e+00  1.0007102887549235e+00  1.0003045618982347e+00  1.0001091224096141e+00  1.0000486824945438e+00  1.0000268127951144e+00  1.0000574091243302e+00  1.0000691650869225e+00  1.0002470890102115e+00  1.0006136297912558e+00  1.0015483947095596e+00  1.0032361604640812e+00  1.0063884725422292e+00  1.0110217518190492e+00  1.0174862829549525e+00  1.0248007378620316e+00  1.0322278791643522e+00  1.0381284107786062e+00  1.0418152652873764e+00  1.0431121461997084e+00  1.0426653826591439e+00  1.0414198701233690e+00  1.0402527594422832e+00  1.0396027393121146e+00  1.0397877253065071e+00  1.0405918956985405e+00  1.0418690403560076e+00  1.0431435632137254e+00  1.0440205447518027e+00  1.0442223794170626e+00  1.0435324687655227e+00  1.0418600228275534e+00  1.0394146095914847e+00  1.0362111725980894e+00  1.0325014454630006e+00  1.0285166708156654e+00  1.0243567935359343e+00  1.0201636544112811e+00  1.0161731325554713e+00  1.0122714344576200e+00  1.0086798027122641e+00  1.0053793658810402e+00  1.0023303771188068e+00  9.9959628952080715e-01  9.9719732892197122e-01  9.9496695380488287e-01  9.9314925811663590e-01  9.9146569509399818e-01  9.9008492080738930e-01  9.8889511533476104e-01  9.8789573410418408e-01  9.8706872080487584e-01  9.8648657558938613e-01  9.8593251116905500e-01  9.8566215315515304e-01  9.8545018581412236e-01  9.8533228914755833e-01  9.8544159714713286e-01  9.8562133754713999e-01  9.8589896930208765e-01  9.8644945129822759e-01  9.8707871997986274e-01  9.8786249503494561e-01  9.8892835590974271e-01  9.9009172701581571e-01  9.9153482318911335e-01  9.9319303943806270e-01  9.9511652615391955e-01  9.9725846027014509e-01  9.9976107498296951e-01  1.0023859737393754e+00  1.0054555297590777e+00  1.0085832820741865e+00  1.0121332540352039e+00  1.0157588643357753e+00  1.0197817054214808e+00  1.0237381351617258e+00  1.0281239633955925e+00  1.0321814933653692e+00  1.0363747392797962e+00  1.0398405934949144e+00  1.0429065182688784e+00  1.0446629251372255e+00  1.0456564106924875e+00  1.0451433743772123e+00  1.0441828987526018e+00  1.0424457647882810e+00  1.0411541349415858e+00  1.0400347906457996e+00  1.0399747117682743e+00  1.0402121857797628e+00  1.0411656809366034e+00  1.0417525251426627e+00  1.0420301194058892e+00  1.0407635920430636e+00  1.0377417907872613e+00  1.0323041983454204e+00  1.0253455067327331e+00  1.0177765605442135e+00  1.0112961843412964e+00  1.0064189774233527e+00  1.0033602157039341e+00  1.0015775788244550e+00  1.0007102887549228e+00  1.0002812422233018e+00  1.0001250675602333e+00  1.0000581464793734e+00  1.0001036429877130e+00  1.0001801612747052e+00  1.0005437444977994e+00  1.0014850295427895e+00  1.0032361604640800e+00  1.0064652350343875e+00  1.0113054489235540e+00  1.0179564298701216e+00  1.0255250140737788e+00  1.0329473392297728e+00  1.0385680349101321e+00  1.0415797349858993e+00  1.0418486130733682e+00  1.0401090821943930e+00  1.0371981905145260e+00  1.0341048795472880e+00  1.0311162032614953e+00  1.0288742372606081e+00  1.0273078693794300e+00  1.0267829534021129e+00  1.0271065082731332e+00  1.0282233369306519e+00  1.0297081713227838e+00  1.0312473501847599e+00  1.0322286034637493e+00  1.0326066573396833e+00  1.0320251837856471e+00  1.0306335755377525e+00  1.0285519027293044e+00  1.0259346771113365e+00  1.0229369579950525e+00  1.0198622924328336e+00  1.0166753426331168e+00  1.0135991006199474e+00  1.0107144134283603e+00  1.0079674471519109e+00  1.0055135532738706e+00  1.0033246967989016e+00  1.0013680171968891e+00  9.9972340081503230e-01  9.9832256498726835e-01  9.9710717915926295e-01  9.9619114004872678e-01  9.9536324171650981e-01  9.9478592116519715e-01  9.9432056605205432e-01  9.9394199266180838e-01  9.9370870331720640e-01  9.9355136790748666e-01  9.9341283015737503e-01  9.9345158061439376e-01  9.9350330322090885e-01  9.9358190714467542e-01  9.9385874703041677e-01  9.9410258538510521e-01  9.9446454935938777e-01  9.9496914502766542e-01  9.9558937710705531e-01  9.9631635555653986e-01  9.9733425637620310e-01  9.9841998013280142e-01  9.9984903679777881e-01  1.0014152451498355e+00  1.0033280856922675e+00  1.0053974330611091e+00  1.0078750232775722e+00  1.0104244878163997e+00  1.0134575745030516e+00  1.0164116858858347e+00  1.0197460918700121e+00  1.0228171454238504e+00  1.0259980372016695e+00  1.0284665520008329e+00  1.0307430422518244e+00  1.0318249051405934e+00  1.0324666126671729e+00  1.0318253935170743e+00  1.0309395677123456e+00  1.0292368458065859e+00  1.0280379494065774e+00  1.0267120494769610e+00  1.0266291432534762e+00  1.0269425719564138e+00  1.0286945296585672e+00  1.0308193413495272e+00  1.0339902218199437e+00  1.0368679386685498e+00  1.0397941492431861e+00  1.0412540638426675e+00  1.0413589796308726e+00  1.0387115413211512e+00  1.0336986281327485e+00  1.0263787409038649e+00  1.0186737310539842e+00  1.0116684130544273e+00  1.0066554070238054e+00  1.0033602157039336e+00  1.0016205107860823e+00  1.0006722487714175e+00  1.0003101035511275e+00  1.0001820298426123e+00  1.0004195896737096e+00  1.0005699946615723e+00  1.0014687072492252e+00  1.0031677288019620e+00  1.0063884725422296e+00  1.0113054489235547e+00  1.0181223161568231e+00  1.0258867744746969e+00  1.0334504128593884e+00  1.0389774741798032e+00  1.0417301709872071e+00  1.0415770848080659e+00  1.0393415334781586e+00  1.0359182374824909e+00  1.0321218591408876e+00  1.0282504611006189e+00  1.0246350995336471e+00  1.0213270346897294e+00  1.0184776180157429e+00  1.0162836314317345e+00  1.0147618692964171e+00  1.0141079628395595e+00  1.0141998202549665e+00  1.0149527785478816e+00  1.0161610516562560e+00  1.0175457805069210e+00  1.0187256585210143e+00  1.0196218787309979e+00  1.0199074765207377e+00  1.0196403522655320e+00  1.0188668796584339e+00  1.0176406057459739e+00  1.0161021229146812e+00  1.0144694231942202e+00  1.0127242867621160e+00  1.0110984515620380e+00  1.0096210803733032e+00  1.0082885612992374e+00  1.0072173311034858e+00  1.0063148799361807e+00  1.0056221925609814e+00  1.0050988769141127e+00  1.0047359082002936e+00  1.0044428094532853e+00  1.0043197029952442e+00  1.0041296587915876e+00  1.0041241816057631e+00  1.0040610373320160e+00  1.0040479042114054e+00  1.0040766507096759e+00  1.0041022065353147e+00  1.0040770977382554e+00  1.0041668565583592e+00  1.0041883785533228e+00  1.0042172610852480e+00  1.0043692699524867e+00  1.0044647118114944e+00  1.0046582699231721e+00  1.0049095060328732e+00  1.0052682263456241e+00  1.0056800895445410e+00  1.0063663750487768e+00  1.0070808291073072e+00  1.0081874804741631e+00  1.0093457636637242e+00  1.0109211899434569e+00  1.0124916337541361e+00  1.0144198514937273e+00  1.0160875209140154e+00  1.0179826626259461e+00  1.0192030049924372e+00  1.0203694943376629e+00  1.0205349088602875e+00  1.0204699988105816e+00  1.0192943934540095e+00  1.0181707837919882e+00  1.0162566394781221e+00  1.0150737989917058e+00  1.0137586161814662e+00  1.0138103407946037e+00  1.0141937653914532e+00  1.0161946199503233e+00  1.0183645549547835e+00  1.0218547173282930e+00  1.0250474938572214e+00  1.0290373773652890e+00  1.0323325340644138e+00  1.0359867217314609e+00  1.0385140653453788e+00  1.0406251026122559e+00  1.0405456738992838e+00  1.0386249655046647e+00  1.0335096595098057e+00  1.0265703815784453e+00  1.0185113678986062e+00  1.0116684130544251e+00  1.0064189774233534e+00  1.0033128706329126e+00  1.0014718330078543e+00  1.0007496418452746e+00  1.0004342829042456e+00  1.0010408668961925e+00  1.0014371696048405e+00  1.0029982830854258e+00  1.0060884082727444e+00  1.0110217518190487e+00  1.0179564298701214e+00  1.0258867744746965e+00  1.0336338601228992e+00  1.0391807581490233e+00  1.0418185270505842e+00  1.0414119318596824e+00  1.0388791481751178e+00  1.0351399810019792e+00  1.0310281116047353e+00  1.0266711707880114e+00  1.0224801617073014e+00  1.0182346050590494e+00  1.0142976050982915e+00  1.0105811033074030e+00  1.0074003338123458e+00  1.0047477368474813e+00  1.0029147062731112e+00  1.0017741398731688e+00  1.0016345518812426e+00  1.0021525612417785e+00  1.0034038115853696e+00  1.0050206460140605e+00  1.0068684064300106e+00  1.0085733545325266e+00  1.0101654730291818e+00  1.0113314273056835e+00  1.0122248891143417e+00  1.0128094267147634e+00  1.0131829122889013e+00  1.0134005592867941e+00  1.0136137625552859e+00  1.0137338118791854e+00  1.0139402919248344e+00  1.0141252861642507e+00  1.0143523433035648e+00  1.0145933512435308e+00  1.0148206185458042e+00  1.0150385993115221e+00  1.0152329104198541e+00  1.0153876168609179e+00  1.0155272308793171e+00  1.0156636561692665e+00  1.0156962976996540e+00  1.0158048225779508e+00  1.0158156001441807e+00  1.0158090712219918e+00  1.0158541698576953e+00  1.0158172563699970e+00  1.0157706152318751e+00  1.0157411779813519e+00  1.0156597492905906e+00  1.0154893259819238e+00  1.0154124793895853e+00  1.0151706145353456e+00  1.0150344980642325e+00  1.0148010657059701e+00  1.0146784457662330e+00  1.0144421420881307e+00  1.0144135181632645e+00  1.0141812646927661e+00  1.0141979225461475e+00  1.0138831404215005e+00  1.0137475854437341e+00  1.0130945652234955e+00  1.0124945872104891e+00  1.0111509987121927e+00  1.0099101594840501e+00  1.0078527836568876e+00  1.0061803253945238e+00  1.0039818278433734e+00  1.0026548685457892e+00  1.0012212378985168e+00  1.0011626911982141e+00  1.0011650320004255e+00  1.0027545907149051e+00  1.0043120218910699e+00  1.0073000876032945e+00  1.0100630835662789e+00  1.0141264264781182e+00  1.0177527109312856e+00  1.0225361189282596e+00  1.0266262329993365e+00  1.0314908946390364e+00  1.0351923075124934e+00  1.0389673317354160e+00  1.0407946962916235e+00  1.0415201485516092e+00  1.0390129483859198e+00  1.0342551139626828e+00  1.0265703815784442e+00  1.0186737310539862e+00  1.0112961843412964e+00  1.0063427055306089e+00  1.0030719999563436e+00  1.0016313510806072e+00  1.0010152127467256e+00  1.0024937270823282e+00  1.0030913026308204e+00  1.0058687223097884e+00  1.0105601072972541e+00  1.0174862829549522e+00  1.0255250140737784e+00  1.0334504128593889e+00  1.0391807581490236e+00  1.0418119437898685e+00  1.0413399676742698e+00  1.0386016400615639e+00  1.0347253208690019e+00  1.0304388610506525e+00  1.0259546461966351e+00  1.0215586586927996e+00  1.0171303829352552e+00  1.0128340873063624e+00  1.0087470324629320e+00  1.0048129297699269e+00  1.0012773804940720e+00  9.9799760425639517e-01  9.9520514702700302e-01  9