<?xml version="1.0"?>
<VTKFile type="UnstructuredGrid"  version="0.1"  >
<UnstructuredGrid>
<Piece  NumberOfPoints="10201" NumberOfCells="20000">
<Points>
<DataArray  type="Float64"  NumberOfComponents="3"  format="ascii">-5 -5 0  -4.9 -5 0  -4.8 -5 0  -4.7 -5 0  -4.6 -5 0  -4.5 -5 0  -4.4 -5 0  -4.3 -5 0  -4.2 -5 0  -4.1 -5 0  -4 -5 0  -3.9 -5 0  -3.8 -5 0  -3.7 -5 0  -3.6 -5 0  -3.5 -5 0  -3.4 -5 0  -3.3 -5 0  -3.2 -5 0  -3.1 -5 0  -3 -5 0  -2.9 -5 0  -2.8 -5 0  -2.7 -5 0  -2.6 -5 0  -2.5 -5 0  -2.4 -5 0  -2.3 -5 0  -2.2 -5 0  -2.1 -5 0  -2 -5 0  -1.9 -5 0  -1.8 -5 0  -1.7 -5 0  -1.6 -5 0  -1.5 -5 0  -1.4 -5 0  -1.3 -5 0  -1.2 -5 0  -1.1 -5 0  -1 -5 0  -0.9000000000000004 -5 0  -0.7999999999999998 -5 0  -0.7000000000000002 -5 0  -0.5999999999999996 -5 0  -0.5 -5 0  -0.4000000000000004 -5 0  -0.2999999999999998 -5 0  -0.2000000000000002 -5 0  -0.09999999999999964 -5 0  0 -5 0  0.09999999999999964 -5 0  0.2000000000000002 -5 0  0.2999999999999998 -5 0  0.4000000000000004 -5 0  0.5 -5 0  0.5999999999999996 -5 0  0.7000000000000002 -5 0  0.7999999999999998 -5 0  0.9000000000000004 -5 0  1 -5 0  1.1 -5 0  1.2 -5 0  1.3 -5 0  1.4 -5 0  1.5 -5 0  1.6 -5 0  1.7 -5 0  1.8 -5 0  1.9 -5 0  2 -5 0  2.1 -5 0  2.2 -5 0  2.3 -5 0  2.4 -5 0  2.5 -5 0  2.6 -5 0  2.7 -5 0  2.8 -5 0  2.9 -5 0  3 -5 0  3.1 -5 0  3.199999999999999 -5 0  3.300000000000001 -5 0  3.4 -5 0  3.5 -5 0  3.6 -5 0  3.699999999999999 -5 0  3.800000000000001 -5 0  3.9 -5 0  4 -5 0  4.1 -5 0  4.199999999999999 -5 0  4.300000000000001 -5 0  4.4 -5 0  4.5 -5 0  4.6 -5 0  4.699999999999999 -5 0  4.800000000000001 -5 0  4.9 -5 0  5 -5 0  -5 -4.9 0  -4.9 -4.9 0  -4.8 -4.9 0  -4.7 -4.9 0  -4.6 -4.9 0  -4.5 -4.9 0  -4.4 -4.9 0  -4.3 -4.9 0  -4.2 -4.9 0  -4.1 -4.9 0  -4 -4.9 0  -3.9 -4.9 0  -3.8 -4.9 0  -3.7 -4.9 0  -3.6 -4.9 0  -3.5 -4.9 0  -3.4 -4.9 0  -3.3 -4.9 0  -3.2 -4.9 0  -3.1 -4.9 0  -3 -4.9 0  -2.9 -4.9 0  -2.8 -4.9 0  -2.7 -4.9 0  -2.6 -4.9 0  -2.5 -4.9 0  -2.4 -4.9 0  -2.3 -4.9 0  -2.2 -4.9 0  -2.1 -4.9 0  -2 -4.9 0  -1.9 -4.9 0  -1.8 -4.9 0  -1.7 -4.9 0  -1.6 -4.9 0  -1.5 -4.9 0  -1.4 -4.9 0  -1.3 -4.9 0  -1.2 -4.9 0  -1.1 -4.9 0  -1 -4.9 0  -0.9000000000000004 -4.9 0  -0.7999999999999998 -4.9 0  -0.7000000000000002 -4.9 0  -0.5999999999999996 -4.9 0  -0.5 -4.9 0  -0.4000000000000004 -4.9 0  -0.2999999999999998 -4.9 0  -0.2000000000000002 -4.9 0  -0.09999999999999964 -4.9 0  0 -4.9 0  0.09999999999999964 -4.9 0  0.2000000000000002 -4.9 0  0.2999999999999998 -4.9 0  0.4000000000000004 -4.9 0  0.5 -4.9 0  0.5999999999999996 -4.9 0  0.7000000000000002 -4.9 0  0.7999999999999998 -4.9 0  0.9000000000000004 -4.9 0  1 -4.9 0  1.1 -4.9 0  1.2 -4.9 0  1.3 -4.9 0  1.4 -4.9 0  1.5 -4.9 0  1.6 -4.9 0  1.7 -4.9 0  1.8 -4.9 0  1.9 -4.9 0  2 -4.9 0  2.1 -4.9 0  2.2 -4.9 0  2.3 -4.9 0  2.4 -4.9 0  2.5 -4.9 0  2.6 -4.9 0  2.7 -4.9 0  2.8 -4.9 0  2.9 -4.9 0  3 -4.9 0  3.1 -4.9 0  3.199999999999999 -4.9 0  3.300000000000001 -4.9 0  3.4 -4.9 0  3.5 -4.9 0  3.6 -4.9 0  3.699999999999999 -4.9 0  3.800000000000001 -4.9 0  3.9 -4.9 0  4 -4.9 0  4.1 -4.9 0  4.199999999999999 -4.9 0  4.300000000000001 -4.9 0  4.4 -4.9 0  4.5 -4.9 0  4.6 -4.9 0  4.699999999999999 -4.9 0  4.800000000000001 -4.9 0  4.9 -4.9 0  5 -4.9 0  -5 -4.8 0  -4.9 -4.8 0  -4.8 -4.8 0  -4.7 -4.8 0  -4.6 -4.8 0  -4.5 -4.8 0  -4.4 -4.8 0  -4.3 -4.8 0  -4.2 -4.8 0  -4.1 -4.8 0  -4 -4.8 0  -3.9 -4.8 0  -3.8 -4.8 0  -3.7 -4.8 0  -3.6 -4.8 0  -3.5 -4.8 0  -3.4 -4.8 0  -3.3 -4.8 0  -3.2 -4.8 0  -3.1 -4.8 0  -3 -4.8 0  -2.9 -4.8 0  -2.8 -4.8 0  -2.7 -4.8 0  -2.6 -4.8 0  -2.5 -4.8 0  -2.4 -4.8 0  -2.3 -4.8 0  -2.2 -4.8 0  -2.1 -4.8 0  -2 -4.8 0  -1.9 -4.8 0  -1.8 -4.8 0  -1.7 -4.8 0  -1.6 -4.8 0  -1.5 -4.8 0  -1.4 -4.8 0  -1.3 -4.8 0  -1.2 -4.8 0  -1.1 -4.8 0  -1 -4.8 0  -0.9000000000000004 -4.8 0  -0.7999999999999998 -4.8 0  -0.7000000000000002 -4.8 0  -0.5999999999999996 -4.8 0  -0.5 -4.8 0  -0.4000000000000004 -4.8 0  -0.2999999999999998 -4.8 0  -0.2000000000000002 -4.8 0  -0.09999999999999964 -4.8 0  0 -4.8 0  0.09999999999999964 -4.8 0  0.2000000000000002 -4.8 0  0.2999999999999998 -4.8 0  0.4000000000000004 -4.8 0  0.5 -4.8 0  0.5999999999999996 -4.8 0  0.7000000000000002 -4.8 0  0.7999999999999998 -4.8 0  0.9000000000000004 -4.8 0  1 -4.8 0  1.1 -4.8 0  1.2 -4.8 0  1.3 -4.8 0  1.4 -4.8 0  1.5 -4.8 0  1.6 -4.8 0  1.7 -4.8 0  1.8 -4.8 0  1.9 -4.8 0  2 -4.8 0  2.1 -4.8 0  2.2 -4.8 0  2.3 -4.8 0  2.4 -4.8 0  2.5 -4.8 0  2.6 -4.8 0  2.7 -4.8 0  2.8 -4.8 0  2.9 -4.8 0  3 -4.8 0  3.1 -4.8 0  3.199999999999999 -4.8 0  3.300000000000001 -4.8 0  3.4 -4.8 0  3.5 -4.8 0  3.6 -4.8 0  3.699999999999999 -4.8 0  3.800000000000001 -4.8 0  3.9 -4.8 0  4 -4.8 0  4.1 -4.8 0  4.199999999999999 -4.8 0  4.300000000000001 -4.8 0  4.4 -4.8 0  4.5 -4.8 0  4.6 -4.8 0  4.699999999999999 -4.8 0  4.800000000000001 -4.8 0  4.9 -4.8 0  5 -4.8 0  -5 -4.7 0  -4.9 -4.7 0  -4.8 -4.7 0  -4.7 -4.7 0  -4.6 -4.7 0  -4.5 -4.7 0  -4.4 -4.7 0  -4.3 -4.7 0  -4.2 -4.7 0  -4.1 -4.7 0  -4 -4.7 0  -3.9 -4.7 0  -3.8 -4.7 0  -3.7 -4.7 0  -3.6 -4.7 0  -3.5 -4.7 0  -3.4 -4.7 0  -3.3 -4.7 0  -3.2 -4.7 0  -3.1 -4.7 0  -3 -4.7 0  -2.9 -4.7 0  -2.8 -4.7 0  -2.7 -4.7 0  -2.6 -4.7 0  -2.5 -4.7 0  -2.4 -4.7 0  -2.3 -4.7 0  -2.2 -4.7 0  -2.1 -4.7 0  -2 -4.7 0  -1.9 -4.7 0  -1.8 -4.7 0  -1.7 -4.7 0  -1.6 -4.7 0  -1.5 -4.7 0  -1.4 -4.7 0  -1.3 -4.7 0  -1.2 -4.7 0  -1.1 -4.7 0  -1 -4.7 0  -0.9000000000000004 -4.7 0  -0.7999999999999998 -4.7 0  -0.7000000000000002 -4.7 0  -0.5999999999999996 -4.7 0  -0.5 -4.7 0  -0.4000000000000004 -4.7 0  -0.2999999999999998 -4.7 0  -0.2000000000000002 -4.7 0  -0.09999999999999964 -4.7 0  0 -4.7 0  0.09999999999999964 -4.7 0  0.2000000000000002 -4.7 0  0.2999999999999998 -4.7 0  0.4000000000000004 -4.7 0  0.5 -4.7 0  0.5999999999999996 -4.7 0  0.7000000000000002 -4.7 0  0.7999999999999998 -4.7 0  0.9000000000000004 -4.7 0  1 -4.7 0  1.1 -4.7 0  1.2 -4.7 0  1.3 -4.7 0  1.4 -4.7 0  1.5 -4.7 0  1.6 -4.7 0  1.7 -4.7 0  1.8 -4.7 0  1.9 -4.7 0  2 -4.7 0  2.1 -4.7 0  2.2 -4.7 0  2.3 -4.7 0  2.4 -4.7 0  2.5 -4.7 0  2.6 -4.7 0  2.7 -4.7 0  2.8 -4.7 0  2.9 -4.7 0  3 -4.7 0  3.1 -4.7 0  3.199999999999999 -4.7 0  3.300000000000001 -4.7 0  3.4 -4.7 0  3.5 -4.7 0  3.6 -4.7 0  3.699999999999999 -4.7 0  3.800000000000001 -4.7 0  3.9 -4.7 0  4 -4.7 0  4.1 -4.7 0  4.199999999999999 -4.7 0  4.300000000000001 -4.7 0  4.4 -4.7 0  4.5 -4.7 0  4.6 -4.7 0  4.699999999999999 -4.7 0  4.800000000000001 -4.7 0  4.9 -4.7 0  5 -4.7 0  -5 -4.6 0  -4.9 -4.6 0  -4.8 -4.6 0  -4.7 -4.6 0  -4.6 -4.6 0  -4.5 -4.6 0  -4.4 -4.6 0  -4.3 -4.6 0  -4.2 -4.6 0  -4.1 -4.6 0  -4 -4.6 0  -3.9 -4.6 0  -3.8 -4.6 0  -3.7 -4.6 0  -3.6 -4.6 0  -3.5 -4.6 0  -3.4 -4.6 0  -3.3 -4.6 0  -3.2 -4.6 0  -3.1 -4.6 0  -3 -4.6 0  -2.9 -4.6 0  -2.8 -4.6 0  -2.7 -4.6 0  -2.6 -4.6 0  -2.5 -4.6 0  -2.4 -4.6 0  -2.3 -4.6 0  -2.2 -4.6 0  -2.1 -4.6 0  -2 -4.6 0  -1.9 -4.6 0  -1.8 -4.6 0  -1.7 -4.6 0  -1.6 -4.6 0  -1.5 -4.6 0  -1.4 -4.6 0  -1.3 -4.6 0  -1.2 -4.6 0  -1.1 -4.6 0  -1 -4.6 0  -0.9000000000000004 -4.6 0  -0.7999999999999998 -4.6 0  -0.7000000000000002 -4.6 0  -0.5999999999999996 -4.6 0  -0.5 -4.6 0  -0.4000000000000004 -4.6 0  -0.2999999999999998 -4.6 0  -0.2000000000000002 -4.6 0  -0.09999999999999964 -4.6 0  0 -4.6 0  0.09999999999999964 -4.6 0  0.2000000000000002 -4.6 0  0.2999999999999998 -4.6 0  0.4000000000000004 -4.6 0  0.5 -4.6 0  0.5999999999999996 -4.6 0  0.7000000000000002 -4.6 0  0.7999999999999998 -4.6 0  0.9000000000000004 -4.6 0  1 -4.6 0  1.1 -4.6 0  1.2 -4.6 0  1.3 -4.6 0  1.4 -4.6 0  1.5 -4.6 0  1.6 -4.6 0  1.7 -4.6 0  1.8 -4.6 0  1.9 -4.6 0  2 -4.6 0  2.1 -4.6 0  2.2 -4.6 0  2.3 -4.6 0  2.4 -4.6 0  2.5 -4.6 0  2.6 -4.6 0  2.7 -4.6 0  2.8 -4.6 0  2.9 -4.6 0  3 -4.6 0  3.1 -4.6 0  3.199999999999999 -4.6 0  3.300000000000001 -4.6 0  3.4 -4.6 0  3.5 -4.6 0  3.6 -4.6 0  3.699999999999999 -4.6 0  3.800000000000001 -4.6 0  3.9 -4.6 0  4 -4.6 0  4.1 -4.6 0  4.199999999999999 -4.6 0  4.300000000000001 -4.6 0  4.4 -4.6 0  4.5 -4.6 0  4.6 -4.6 0  4.699999999999999 -4.6 0  4.800000000000001 -4.6 0  4.9 -4.6 0  5 -4.6 0  -5 -4.5 0  -4.9 -4.5 0  -4.8 -4.5 0  -4.7 -4.5 0  -4.6 -4.5 0  -4.5 -4.5 0  -4.4 -4.5 0  -4.3 -4.5 0  -4.2 -4.5 0  -4.1 -4.5 0  -4 -4.5 0  -3.9 -4.5 0  -3.8 -4.5 0  -3.7 -4.5 0  -3.6 -4.5 0  -3.5 -4.5 0  -3.4 -4.5 0  -3.3 -4.5 0  -3.2 -4.5 0  -3.1 -4.5 0  -3 -4.5 0  -2.9 -4.5 0  -2.8 -4.5 0  -2.7 -4.5 0  -2.6 -4.5 0  -2.5 -4.5 0  -2.4 -4.5 0  -2.3 -4.5 0  -2.2 -4.5 0  -2.1 -4.5 0  -2 -4.5 0  -1.9 -4.5 0  -1.8 -4.5 0  -1.7 -4.5 0  -1.6 -4.5 0  -1.5 -4.5 0  -1.4 -4.5 0  -1.3 -4.5 0  -1.2 -4.5 0  -1.1 -4.5 0  -1 -4.5 0  -0.9000000000000004 -4.5 0  -0.7999999999999998 -4.5 0  -0.7000000000000002 -4.5 0  -0.5999999999999996 -4.5 0  -0.5 -4.5 0  -0.4000000000000004 -4.5 0  -0.2999999999999998 -4.5 0  -0.2000000000000002 -4.5 0  -0.09999999999999964 -4.5 0  0 -4.5 0  0.09999999999999964 -4.5 0  0.2000000000000002 -4.5 0  0.2999999999999998 -4.5 0  0.4000000000000004 -4.5 0  0.5 -4.5 0  0.5999999999999996 -4.5 0  0.7000000000000002 -4.5 0  0.7999999999999998 -4.5 0  0.9000000000000004 -4.5 0  1 -4.5 0  1.1 -4.5 0  1.2 -4.5 0  1.3 -4.5 0  1.4 -4.5 0  1.5 -4.5 0  1.6 -4.5 0  1.7 -4.5 0  1.8 -4.5 0  1.9 -4.5 0  2 -4.5 0  2.1 -4.5 0  2.2 -4.5 0  2.3 -4.5 0  2.4 -4.5 0  2.5 -4.5 0  2.6 -4.5 0  2.7 -4.5 0  2.8 -4.5 0  2.9 -4.5 0  3 -4.5 0  3.1 -4.5 0  3.199999999999999 -4.5 0  3.300000000000001 -4.5 0  3.4 -4.5 0  3.5 -4.5 0  3.6 -4.5 0  3.699999999999999 -4.5 0  3.800000000000001 -4.5 0  3.9 -4.5 0  4 -4.5 0  4.1 -4.5 0  4.199999999999999 -4.5 0  4.300000000000001 -4.5 0  4.4 -4.5 0  4.5 -4.5 0  4.6 -4.5 0  4.699999999999999 -4.5 0  4.800000000000001 -4.5 0  4.9 -4.5 0  5 -4.5 0  -5 -4.4 0  -4.9 -4.4 0  -4.8 -4.4 0  -4.7 -4.4 0  -4.6 -4.4 0  -4.5 -4.4 0  -4.4 -4.4 0  -4.3 -4.4 0  -4.2 -4.4 0  -4.1 -4.4 0  -4 -4.4 0  -3.9 -4.4 0  -3.8 -4.4 0  -3.7 -4.4 0  -3.6 -4.4 0  -3.5 -4.4 0  -3.4 -4.4 0  -3.3 -4.4 0  -3.2 -4.4 0  -3.1 -4.4 0  -3 -4.4 0  -2.9 -4.4 0  -2.8 -4.4 0  -2.7 -4.4 0  -2.6 -4.4 0  -2.5 -4.4 0  -2.4 -4.4 0  -2.3 -4.4 0  -2.2 -4.4 0  -2.1 -4.4 0  -2 -4.4 0  -1.9 -4.4 0  -1.8 -4.
[...]
<PointData  Scalars="r"> 
<DataArray  type="Float64"  Name="r"  format="ascii">1.0000000104584743e+00  1.0000000035417376e+00  1.0000000216716918e+00  1.0000000406543070e+00  1.0000000937093625e+00  1.0000001883412546e+00  1.0000003842129044e+00  1.0000007392191241e+00  1.0000013646786079e+00  1.0000024230502460e+00  1.0000041133518194e+00  1.0000066231872440e+00  1.0000101407510500e+00  1.0000147153823074e+00  1.0000200891924775e+00  1.0000257646110025e+00  1.0000310651345079e+00  1.0000350654121821e+00  1.0000370165016124e+00  1.0000368839692833e+00  1.0000349443084804e+00  1.0000314142811695e+00  1.0000269404498261e+00  1.0000221540793184e+00  1.0000167891374039e+00  1.0000110603016357e+00  1.0000066034797093e+00  1.0000040384365141e+00  1.0000022286444492e+00  1.0000009400214576e+00  1.0000005264718934e+00  1.0000001056399550e+00  9.9999964272694164e-01  1.0000001757666492e+00  1.0000005350393562e+00  9.9999959822371254e-01  9.9999947799750333e-01  1.0000006209565162e+00  1.0000003181634767e+00  9.9999925091338360e-01  9.9999999546628593e-01  1.0000007007322405e+00  9.9999969422372026e-01  9.9999952251528390e-01  1.0000004907189628e+00  1.0000001605718050e+00  9.9999951287560118e-01  1.0000001249017476e+00  1.0000003215483884e+00  9.9999972385093128e-01  9.9999990750264411e-01  1.0000002650326505e+00  9.9999991221250295e-01  9.9999985541237046e-01  1.0000001546747537e+00  1.0000000077360081e+00  9.9999988293735065e-01  1.0000000715207127e+00  1.0000000353833036e+00  9.9999992536122306e-01  1.0000000269953793e+00  1.0000000328739114e+00  9.9999995779716466e-01  1.0000000081598679e+00  1.0000000227418524e+00  9.9999997742097713e-01  1.0000000018523307e+00  1.0000000136976015e+00  9.9999998805344414e-01  1.0000000003905161e+00  1.0000000075628934e+00  9.9999999359625114e-01  1.0000000003267797e+00  1.0000000039038033e+00  9.9999999647734605e-01  1.0000000005104868e+00  1.0000000018003175e+00  9.9999999812415985e-01  1.0000000004792466e+00  1.0000000008047227e+00  9.9999999891734415e-01  1.0000000005410490e+00  1.0000000001171698e+00  9.9999999961865593e-01  1.0000000002155576e+00  1.0000000001070168e+00  9.9999999968620812e-01  1.0000000003135021e+00  9.9999999981858612e-01  1.0000000000424818e+00  1.0000000000276206e+00  9.9999999997151579e-01  1.0000000000035614e+00  1.0000000000063491e+00  1.0000000000181046e+00  9.9999999994362287e-01  1.0000000001134135e+00  9.9999999987754395e-01  1.0000000001820626e+00  9.9999999990399036e-01  1.0000000002433900e+00  1.0000000035417380e+00  9.9999998938496593e-01  9.9999999024386155e-01  9.9999996764104304e-01  9.9999993520102470e-01  9.9999986027748733e-01  9.9999971928737785e-01  9.9999944282468589e-01  9.9999895677756812e-01  9.9999811762744795e-01  9.9999673768049857e-01  9.9999462364991376e-01  9.9999158953175682e-01  9.9998748813869209e-01  9.9998242242849866e-01  9.9997679897481950e-01  9.9997118097313953e-01  9.9996635451581517e-01  9.9996324285900651e-01  9.9996224160559688e-01  9.9996312598392278e-01  9.9996574120451087e-01  9.9996978828764838e-01  9.9997446341844365e-01  9.9997956414628975e-01  9.9998540826812876e-01  9.9999089157527365e-01  9.9999445304062828e-01  9.9999663723831689e-01  9.9999842275551787e-01  9.9999931100735628e-01  9.9999957653792926e-01  1.0000001672960372e+00  1.0000002116062676e+00  9.9999949392949095e-01  9.9999986306000466e-01  1.0000006965727100e+00  9.9999991619429895e-01  9.9999928146167982e-01  1.0000003733479217e+00  1.0000005567735364e+00  9.9999940696700695e-01  9.9999975227714266e-01  1.0000006449066008e+00  9.9999990729160992e-01  9.9999949646196484e-01  1.0000003341309271e+00  1.0000002368125012e+00  9.9999960336109339e-01  1.0000000322671523e+00  1.0000002910789818e+00  9.9999980583763315e-01  9.9999989446523674e-01  1.0000002099014142e+00  9.9999994794741931e-01  9.9999987887210817e-01  1.0000001160861309e+00  1.0000000108205689e+00  9.9999990990292342e-01  1.0000000537706699e+00  1.0000000259635731e+00  9.9999994424437522e-01  1.0000000219657719e+00  1.0000000223188212e+00  9.9999996854231632e-01  1.0000000084301583e+00  1.0000000147909578e+00  9.9999998295747572e-01  1.0000000034599779e+00  1.0000000085483485e+00  9.9999999086949953e-01  1.0000000018047179e+00  1.0000000044826132e+00  9.9999999508207627e-01  1.0000000012636916e+00  1.0000000020684350e+00  9.9999999742734857e-01  1.0000000008976646e+00  1.0000000008792855e+00  9.9999999860111566e-01  1.0000000007606034e+00  1.0000000001280021e+00  9.9999999946635099e-01  1.0000000003525102e+00  1.0000000000698759e+00  9.9999999964123898e-01  1.0000000003757561e+00  9.9999999978627752e-01  1.0000000000405955e+00  1.0000000000395166e+00  9.9999999997495792e-01  9.9999999997477429e-01  1.0000000000537093e+00  9.9999999996056066e-01  9.9999999999318856e-01  1.0000000000512030e+00  9.9999999990936095e-01  1.0000000000795293e+00  9.9999999990042432e-01  1.0000000000072149e+00  9.9999999990399036e-01  1.0000000216716913e+00  9.9999999024386110e-01  1.0000000183935132e+00  1.0000000128439901e+00  1.0000000516060086e+00  1.0000000946182612e+00  1.0000002041336402e+00  1.0000004028046086e+00  1.0000007825556194e+00  1.0000014303260778e+00  1.0000025367889593e+00  1.0000042991232074e+00  1.0000069086067580e+00  1.0000105578054883e+00  1.0000153244593046e+00  1.0000209292915432e+00  1.0000268666193479e+00  1.0000325128928571e+00  1.0000369399078866e+00  1.0000393338121485e+00  1.0000397065763742e+00  1.0000383308303116e+00  1.0000351791327371e+00  1.0000307794306231e+00  1.0000258888967168e+00  1.0000201505452775e+00  1.0000136776731354e+00  1.0000084765449018e+00  1.0000053948358569e+00  1.0000030364941077e+00  1.0000012472790949e+00  1.0000006998690867e+00  1.0000002601719746e+00  9.9999965809914859e-01  1.0000001719781051e+00  1.0000005663901730e+00  9.9999954406595126e-01  9.9999947678748191e-01  1.0000007196322491e+00  1.0000002552307938e+00  9.9999915617636970e-01  1.0000001234634872e+00  1.0000007370166133e+00  9.9999953834032074e-01  9.9999957176120979e-01  1.0000006152588627e+00  1.0000000432054623e+00  9.9999946673487428e-01  1.0000002569577164e+00  1.0000002823833187e+00  9.9999963500600253e-01  9.9999999581013299e-01  1.0000002820863769e+00  9.9999982956689482e-01  9.9999989623267371e-01  1.0000001924498736e+00  9.9999995023321409e-01  9.9999989372310005e-01  1.0000001076496317e+00  1.0000000014448955e+00  9.9999992307460583e-01  1.0000000537289901e+00  1.0000000145683805e+00  9.9999995227682625e-01  1.0000000255783845e+00  1.0000000131168165e+00  9.9999997266085383e-01  1.0000000124481923e+00  1.0000000084345726e+00  9.9999998501196319e-01  1.0000000065437296e+00  1.0000000044987931e+00  9.9999999196625122e-01  1.0000000038578114e+00  1.0000000018757380e+00  9.9999999595239930e-01  1.0000000022581217e+00  1.0000000006749707e+00  9.9999999786391114e-01  1.0000000016150816e+00  9.9999999974182840e-01  9.9999999937115724e-01  1.0000000005850047e+00  1.0000000000181286e+00  9.9999999943032325e-01  1.0000000007317560e+00  9.9999999944755158e-01  1.0000000002743143e+00  9.9999999990291188e-01  1.0000000000692015e+00  9.9999999987846344e-01  1.0000000001597058e+00  9.9999999986702304e-01  1.0000000000483624e+00  1.0000000000556954e+00  9.9999999986396926e-01  1.0000000001846718e+00  9.9999999982522247e-01  1.0000000001786653e+00  9.9999999990042510e-01  1.0000000001820615e+00  1.0000000406543068e+00  9.9999996764104293e-01  1.0000000128439901e+00  9.9999996936095348e-01  9.9999997745639457e-01  9.9999991239437769e-01  9.9999984723747681e-01  9.9999967242346177e-01  9.9999936744994089e-01  9.9999880704297817e-01  9.9999787248819694e-01  9.9999631187372096e-01  9.9999393679617721e-01  9.9999055445782048e-01  9.9998598740972033e-01  9.9998033341863901e-01  9.9997410972548717e-01  9.9996789343419534e-01  9.9996242004101799e-01  9.9995873105656974e-01  9.9995724678690567e-01  9.9995748877655022e-01  9.9995940008406958e-01  9.9996312192314940e-01  9.9996780454002665e-01  9.9997314701213014e-01  9.9997992753725606e-01  9.9998688314312767e-01  9.9999154589293782e-01  9.9999453236817715e-01  9.9999733491620035e-01  9.9999890190902085e-01  9.9999925220734465e-01  1.0000000180715298e+00  1.0000002319223469e+00  9.9999937671466610e-01  9.9999987185689254e-01  1.0000008901366093e+00  9.9999976899254084e-01  9.9999910430728356e-01  1.0000006543110080e+00  1.0000006090298910e+00  9.9999907573342461e-01  9.9999987831292692e-01  1.0000009028521513e+00  9.9999964292007804e-01  9.9999940836219103e-01  1.0000006233486547e+00  1.0000001430991194e+00  9.9999941107983348e-01  1.0000002296239787e+00  1.0000003266796826e+00  9.9999962222630123e-01  9.9999998529331013e-01  1.0000002951332703e+00  9.9999981958834083e-01  9.9999990097980196e-01  1.0000001986419254e+00  9.9999993575537027e-01  9.9999990211953660e-01  1.0000001150068467e+00  9.9999998636157628e-01  9.9999992943925786e-01  1.0000000618029266e+00  1.0000000021701618e+00  9.9999995599245750e-01  1.0000000326080498e+00  1.0000000041527599e+00  9.9999997479177416e-01  1.0000000175266959e+00  1.0000000024697098e+00  9.9999998632545883e-01  1.0000000098932016e+00  1.0000000004784844e+00  9.9999999324306543e-01  1.0000000054426077e+00  9.9999999972200426e-01  9.9999999656818361e-01  1.0000000034854790e+00  9.9999999875972889e-01  9.9999999921676530e-01  1.0000000011936501e+00  9.9999999972216302e-01  9.9999999913323045e-01  1.0000000014103565e+00  9.9999999875926338e-01  1.0000000007438647e+00  9.9999999965248954e-01  1.0000000002302261e+00  9.9999999968757813e-01  1.0000000004134770e+00  9.9999999959488262e-01  1.0000000002703406e+00  9.9999999992717370e-01  9.9999999989354305e-01  1.0000000002140055e+00  9.9999999975168263e-01  1.0000000002091003e+00  9.9999999982522270e-01  1.0000000000795288e+00  9.9999999987754362e-01  1.0000000937093625e+00  9.9999993520102426e-01  1.0000000516060084e+00  9.9999997745639424e-01  1.0000000533593043e+00  1.0000000391221167e+00  1.0000001479417198e+00  1.0000002464085520e+00  1.0000005286411298e+00  1.0000009915120307e+00  1.0000018157944575e+00  1.0000031695629663e+00  1.0000053592826781e+00  1.0000085294881278e+00  1.0000128961271919e+00  1.0000185647734567e+00  1.0000251365273516e+00  1.0000318972992392e+00  1.0000382807057282e+00  1.0000433543138592e+00  1.0000461234252247e+00  1.0000468904084390e+00  1.0000463288686778e+00  1.0000439167758426e+00  1.0000397073722573e+00  1.0000347847909601e+00  1.0000284914945867e+00  1.0000203267317955e+00  1.0000132774261405e+00  1.0000090952612000e+00  1.0000055009083153e+00  1.0000022729425149e+00  1.0000012056371730e+00  1.0000006898089433e+00  9.9999972220861089e-01  1.0000002506990466e+00  1.0000007359201812e+00  9.9999928780075620e-01  9.9999938387148202e-01  1.0000011536468745e+00  1.0000001373036931e+00  9.9999870432382809e-01  1.0000004933104263e+00  1.0000010114666309e+00  9.9999901864105789e-01  9.9999959518974646e-01  1.0000010866383509e+00  9.9999975012781928e-01  9.9999922286814880e-01  1.0000006565085104e+00  1.0000002437422064e+00  9.9999932750628850e-01  1.0000002232639782e+00  1.0000003814039193e+00  9.9999958389159904e-01  9.9999998395719170e-01  1.0000003218328635e+00  9.9999979336754197e-01  9.9999990715688702e-01  1.0000002149758873e+00  9.9999991323044979e-01  9.9999990988288023e-01  1.0000001276040651e+00  9.9999996775725919e-01  9.9999993574114909e-01  1.0000000716948232e+00  9.9999998809635438e-01  9.9999996063191021e-01  1.0000000395558590e+00  9.9999999441600806e-01  9.9999997806845686e-01  1.0000000220879814e+00  9.9999999572954690e-01  9.9999998929892397e-01  1.0000000118174597e+00  9.9999999691307540e-01  9.9999999472702794e-01  1.0000000071306265e+00  9.9999999643619464e-01  9.9999999927166316e-01  1.0000000023007913e+00  9.9999999902760928e-01  9.9999999867346734e-01  1.0000000027349523e+00  9.9999999729660805e-01  1.0000000018302755e+00  9.9999999900255976e-01  1.0000000006803356e+00  9.9999999918927196e-01  1.0000000010433967e+00  9.9999999891471492e-01  1.0000000008571692e+00  9.9999999953643715e-01  1.0000000000693288e+00  1.0000000002054990e+00  9.9999999967466124e-01  1.0000000003250396e+00  9.9999999975168441e-01  1.0000000001846714e+00  9.9999999990936150e-01  1.0000000001134148e+00  1.0000001883412544e+00  9.9999986027748677e-01  1.0000000946182612e+00  9.9999991239437758e-01  1.0000000391221171e+00  9.9999990618588441e-01  9.9999993120237607e-01  9.9999975326735746e-01  9.9999959931042459e-01  9.9999914307114746e-01  9.9999844986736752e-01  9.9999723411231789e-01  9.9999526682995710e-01  9.9999223218541555e-01  9.9998805299986782e-01  9.9998246196801721e-01  9.9997558571742651e-01  9.9996824031970410e-01  9.9996116072590813e-01  9.9995488837210533e-01  9.9995064743815321e-01  9.9994892808145641e-01  9.9994848691919036e-01  9.9994915312947452e-01  9.9995211515830396e-01  9.9995658259696563e-01  9.9996185300534912e-01  9.9996977505235363e-01  9.9997918568355615e-01  9.9998571506003175e-01  9.9999000481533207e-01  9.9999483318584792e-01  9.9999793675972559e-01  9.9999849038312849e-01  9.9999961041652974e-01  1.0000002268592754e+00  9.9999910199911124e-01  9.9999989634877440e-01  1.0000013255960885e+00  9.9999941597327857e-01  9.9999870827513260e-01  1.0000013120841182e+00  1.0000007027431868e+00  9.9999831753468926e-01  1.0000002026008548e+00  1.0000014647737081e+00  9.9999901436580352e-01  9.9999925891189478e-01  1.0000012738070942e+00  9.9999987905506593e-01  9.9999901936284652e-01  1.0000006973345976e+00  1.0000003481234305e+00  9.9999923032384963e-01  1.0000002291689483e+00  1.0000004373279818e+00  9.9999953280672194e-01  9.9999999315402466e-01  1.0000003497988088e+00  9.9999975752388903e-01  9.9999992111971037e-01  1.0000002314803311e+00  9.9999988449961841e-01  9.9999992368215385e-01  1.0000001390528355e+00  9.9999994530015457e-01  9.9999994716924190e-01  1.0000000793731376e+00  9.9999997203959079e-01  9.9999996908238231e-01  1.0000000445312673e+00  9.9999998307768823e-01  9.9999998513540611e-01  1.0000000235088646e+00  9.9999998984979277e-01  9.9999999293318609e-01  1.0000000136634257e+00  9.9999999133590722e-01  1.0000000001921840e+00  1.0000000041096511e+00  9.9999999748369528e-01  9.9999999816172369e-01  1.0000000050838478e+00  9.9999999441564025e-01  1.0000000041481114e+00  9.9999999750896851e-01  1.0000000017330288e+00  9.9999999808628404e-01  1.0000000024083209e+00  9.9999999740771894e-01  1.0000000022326765e+00  9.9999999851480492e-01  1.0000000006691163e+00  9.9999999995718192e-01  9.9999999970568909e-01  1.0000000003827536e+00  9.9999999967466158e-01  1.0000000002140055e+00  9.9999999986396859e-01  1.0000000000512042e+00  9.9999999994362254e-01  1.0000003842129044e+00  9.9999971928737730e-01  1.0000002041336407e+00  9.9999984723747648e-01  1.0000001479417198e+00  9.9999993120237574e-01  1.0000001648343959e+00  1.0000001167781236e+00  1.0000004016357451e+00  1.0000006481334569e+00  1.0000013654625421e+00  1.0000023727004070e+00  1.0000041525576555e+00  1.0000069546114052e+00  1.0000110189895499e+00  1.0000163919759235e+00  1.0000233696194707e+00  1.0000313099012244e+00  1.0000390462905324e+00  1.0000461314404547e+00  1.0000518609172218e+00  1.0000548202287172e+00  1.0000557869243694e+00  1.0000565600654647e+00  1.0000558135175481e+00  1.0000523493123639e+00  1.0000480096493531e+00  1.0000418753177249e+00  1.0000317353767523e+00  1.0000219137270743e+00  1.0000161347728094e+00  1.0000105015312062e+00  1.0000044953049902e+00  1.0000023528035189e+00  1.0000017106462944e+00  9.9999993932990050e-01  1.0000003856920459e+00  1.0000010854123902e+00  9.9999884083470325e-01  9.9999921645557355e-01  1.0000019639707745e+00  9.9999987177409844e-01  9.9999788433468761e-01  1.0000012579052477e+00  1.0000014394391912e+00  9.9999800106999148e-01  9.9999977575753540e-01  1.0000019318425142e+00  9.9999907492563300e-01  9.9999889039760625e-01  1.0000014487897044e+00  1.0000000193285812e+00  9.9999881545382818e-01  1.0000007451945816e+00  1.0000004411219869e+00  9.9999913017686470e-01  1.0000002532432957e+00  1.0000004806849192e+00  9.9999947431375835e-01  1.0000000205668849e+00  1.0000003683661869e+00  9.9999971435869728e-01  9.9999994961426353e-01  1.0000002407416562e+00  9.9999985045489392e-01  9.9999994864359820e-01  1.0000001439255686e+00  9.9999992031567131e-01  9.9999996614524689e-01  1.0000000821431916e+00  9.9999995402831665e-01  9.9999998433820525e-01  1.0000000431763665e+00  9.9999997404106089e-01  9.9999999310863963e-01  1.0000000245086973e+00  9.9999998082139707e-01  1.0000000035632377e+00  1.0000000066662458e+00  9.9999999432975772e-01  9.9999999791585903e-01  1.0000000090401389e+00  9.9999998893086439e-01  1.0000000089348313e+00  9.9999999421088626e-01  1.0000000040894244e+00  9.9999999573876241e-01  1.0000000052474214e+00  9.9999999421780872e-01  1.0000000052723876e+00  9.9999999608877099e-01  1.0000000022872826e+00  9.9999999906527959e-01  1.0000000000985663e+00  1.0000000002526790e+00  9.9999999970568854e-01  1.0000000002054985e+00  9.9999999989354327e-01  1.0000000000556957e+00  9.9999999999318878e-01  1.0000000000181042e+00  1.0000007392191237e+00  9.9999944282468489e-01  1.0000004028046083e+00  9.9999967242346144e-01  1.0000002464085513e+00  9.9999975326735724e-01  1.0000001167781238e+00  9.9999971450679637e-01  9.9999981265038473e-01  9.9999935949632524e-01  9.9999896243604347e-01  9.9999788441509663e-01  9.9999645850409535e-01  9.9999388072082152e-01  9.9999003714068446e-01  9.9998482468018346e-01  9.9997810666724263e-01  9.9996977130908304e-01  9.9996128260105477e-01  9.9995371155521529e-01  9.9994701269915021e-01  9.9994247444414786e-01  9.9994101452811235e-01  9.9993989598139232e-01  9.9993820798145583e-01  9.9993928376428221e-01  9.9994280241073896e-01  9.9994670089179349e-01  9.9995469688599525e-01  9.9996690434569979e-01  9.9997583476306595e-01  9.9998176780909309e-01  9.9998997559977088e-01  9.9999594313463946e-01  9.9999682581567018e-01  9.9999859846963124e-01  1.0000001955027062e+00  9.9999865952145617e-01  9.9999985748855080e-01  1.0000020148932161e+00  9.9999880925437334e-01  9.9999810683707746e-01  1.0000024665665692e+00  1.0000007107089457e+00  9.9999704361054698e-01  1.0000009559310234e+00  1.0000022810744931e+00  9.9999779470690853e-01  9.9999925432613690e-01  1.0000023770219113e+00  9.9999917953445816e-01  9.9999852469415107e-01  1.0000016126128897e+00  1.0000001430324441e+00  9.9999862673915063e-01  1.0000008114629149e+00  1.0000005027653860e+00  9.9999903345950669e-01  1.0000003057114466e+00  1.0000004978831289e+00  9.9999941240696888e-01  1.0000000732152277e+00  1.0000003679436378e+00  9.9999966717593314e-01  9.9999999743996393e-01  1.0000002350207067e+00  9.9999981538167337e-01  9.9999998607140661e-01  1.0000001383517019e+00  9.9999989441049031e-01  9.9999999593255429e-01  1.0000000729405942e+00  9.9999994186683605e-01  1.0000000000151557e+00  1.0000000408758565e+00  9.9999996048242756e-01  1.0000000127494493e+00  1.0000000094562007e+00  9.9999998836019977e-01  9.9999999876135981e-01  1.0000000152959061e+00  9.9999997891475390e-01  1.0000000184059072e+00  9.9999998729890283e-01  1.0000000090732266e+00  9.9999999098918024e-01  1.0000000108704787e+00  9.9999998780325183e-01  1.0000000116048195e+00  9.9999999076324164e-01  1.0000000061307528e+00  9.9999999665364214e-01  1.0000000014472743e+00  9.9999999954234875e-01  1.0000000000985667e+00  9.9999999995718158e-01  1.0000000000693292e+00  9.9999999992717370e-01  1.0000000000483613e+00  9.9999999996056044e-01  1.0000000000063485e+00  1.0000013646786079e+00  9.9999895677756756e-01  1.0000007825556192e+00  9.9999936744994100e-01  1.0000005286411304e+00  9.9999959931042492e-01  1.0000004016357447e+00  9.9999981265038451e-01  1.0000004790161232e+00  1.0000002819715827e+00  1.0000010078226702e+00  1.0000016261218947e+00  1.0000031602889714e+00  1.0000051521574569e+00  1.0000088013565720e+00  1.0000137821784589e+00  1.0000201679660188e+00  1.0000282920726546e+00  1.0000375461610695e+00  1.0000456583231976e+00  1.0000525071342126e+00  1.0000582970377829e+00  1