<?xml version="1.0"?>
<VTKFile type="UnstructuredGrid"  version="0.1"  >
<UnstructuredGrid>
<Piece  NumberOfPoints="10201" NumberOfCells="20000">
<Points>
<DataArray  type="Float64"  NumberOfComponents="3"  format="ascii">-5 -5 0  -4.9 -5 0  -4.8 -5 0  -4.7 -5 0  -4.6 -5 0  -4.5 -5 0  -4.4 -5 0  -4.3 -5 0  -4.2 -5 0  -4.1 -5 0  -4 -5 0  -3.9 -5 0  -3.8 -5 0  -3.7 -5 0  -3.6 -5 0  -3.5 -5 0  -3.4 -5 0  -3.3 -5 0  -3.2 -5 0  -3.1 -5 0  -3 -5 0  -2.9 -5 0  -2.8 -5 0  -2.7 -5 0  -2.6 -5 0  -2.5 -5 0  -2.4 -5 0  -2.3 -5 0  -2.2 -5 0  -2.1 -5 0  -2 -5 0  -1.9 -5 0  -1.8 -5 0  -1.7 -5 0  -1.6 -5 0  -1.5 -5 0  -1.4 -5 0  -1.3 -5 0  -1.2 -5 0  -1.1 -5 0  -1 -5 0  -0.9000000000000004 -5 0  -0.7999999999999998 -5 0  -0.7000000000000002 -5 0  -0.5999999999999996 -5 0  -0.5 -5 0  -0.4000000000000004 -5 0  -0.2999999999999998 -5 0  -0.2000000000000002 -5 0  -0.09999999999999964 -5 0  0 -5 0  0.09999999999999964 -5 0  0.2000000000000002 -5 0  0.2999999999999998 -5 0  0.4000000000000004 -5 0  0.5 -5 0  0.5999999999999996 -5 0  0.7000000000000002 -5 0  0.7999999999999998 -5 0  0.9000000000000004 -5 0  1 -5 0  1.1 -5 0  1.2 -5 0  1.3 -5 0  1.4 -5 0  1.5 -5 0  1.6 -5 0  1.7 -5 0  1.8 -5 0  1.9 -5 0  2 -5 0  2.1 -5 0  2.2 -5 0  2.3 -5 0  2.4 -5 0  2.5 -5 0  2.6 -5 0  2.7 -5 0  2.8 -5 0  2.9 -5 0  3 -5 0  3.1 -5 0  3.199999999999999 -5 0  3.300000000000001 -5 0  3.4 -5 0  3.5 -5 0  3.6 -5 0  3.699999999999999 -5 0  3.800000000000001 -5 0  3.9 -5 0  4 -5 0  4.1 -5 0  4.199999999999999 -5 0  4.300000000000001 -5 0  4.4 -5 0  4.5 -5 0  4.6 -5 0  4.699999999999999 -5 0  4.800000000000001 -5 0  4.9 -5 0  5 -5 0  -5 -4.9 0  -4.9 -4.9 0  -4.8 -4.9 0  -4.7 -4.9 0  -4.6 -4.9 0  -4.5 -4.9 0  -4.4 -4.9 0  -4.3 -4.9 0  -4.2 -4.9 0  -4.1 -4.9 0  -4 -4.9 0  -3.9 -4.9 0  -3.8 -4.9 0  -3.7 -4.9 0  -3.6 -4.9 0  -3.5 -4.9 0  -3.4 -4.9 0  -3.3 -4.9 0  -3.2 -4.9 0  -3.1 -4.9 0  -3 -4.9 0  -2.9 -4.9 0  -2.8 -4.9 0  -2.7 -4.9 0  -2.6 -4.9 0  -2.5 -4.9 0  -2.4 -4.9 0  -2.3 -4.9 0  -2.2 -4.9 0  -2.1 -4.9 0  -2 -4.9 0  -1.9 -4.9 0  -1.8 -4.9 0  -1.7 -4.9 0  -1.6 -4.9 0  -1.5 -4.9 0  -1.4 -4.9 0  -1.3 -4.9 0  -1.2 -4.9 0  -1.1 -4.9 0  -1 -4.9 0  -0.9000000000000004 -4.9 0  -0.7999999999999998 -4.9 0  -0.7000000000000002 -4.9 0  -0.5999999999999996 -4.9 0  -0.5 -4.9 0  -0.4000000000000004 -4.9 0  -0.2999999999999998 -4.9 0  -0.2000000000000002 -4.9 0  -0.09999999999999964 -4.9 0  0 -4.9 0  0.09999999999999964 -4.9 0  0.2000000000000002 -4.9 0  0.2999999999999998 -4.9 0  0.4000000000000004 -4.9 0  0.5 -4.9 0  0.5999999999999996 -4.9 0  0.7000000000000002 -4.9 0  0.7999999999999998 -4.9 0  0.9000000000000004 -4.9 0  1 -4.9 0  1.1 -4.9 0  1.2 -4.9 0  1.3 -4.9 0  1.4 -4.9 0  1.5 -4.9 0  1.6 -4.9 0  1.7 -4.9 0  1.8 -4.9 0  1.9 -4.9 0  2 -4.9 0  2.1 -4.9 0  2.2 -4.9 0  2.3 -4.9 0  2.4 -4.9 0  2.5 -4.9 0  2.6 -4.9 0  2.7 -4.9 0  2.8 -4.9 0  2.9 -4.9 0  3 -4.9 0  3.1 -4.9 0  3.199999999999999 -4.9 0  3.300000000000001 -4.9 0  3.4 -4.9 0  3.5 -4.9 0  3.6 -4.9 0  3.699999999999999 -4.9 0  3.800000000000001 -4.9 0  3.9 -4.9 0  4 -4.9 0  4.1 -4.9 0  4.199999999999999 -4.9 0  4.300000000000001 -4.9 0  4.4 -4.9 0  4.5 -4.9 0  4.6 -4.9 0  4.699999999999999 -4.9 0  4.800000000000001 -4.9 0  4.9 -4.9 0  5 -4.9 0  -5 -4.8 0  -4.9 -4.8 0  -4.8 -4.8 0  -4.7 -4.8 0  -4.6 -4.8 0  -4.5 -4.8 0  -4.4 -4.8 0  -4.3 -4.8 0  -4.2 -4.8 0  -4.1 -4.8 0  -4 -4.8 0  -3.9 -4.8 0  -3.8 -4.8 0  -3.7 -4.8 0  -3.6 -4.8 0  -3.5 -4.8 0  -3.4 -4.8 0  -3.3 -4.8 0  -3.2 -4.8 0  -3.1 -4.8 0  -3 -4.8 0  -2.9 -4.8 0  -2.8 -4.8 0  -2.7 -4.8 0  -2.6 -4.8 0  -2.5 -4.8 0  -2.4 -4.8 0  -2.3 -4.8 0  -2.2 -4.8 0  -2.1 -4.8 0  -2 -4.8 0  -1.9 -4.8 0  -1.8 -4.8 0  -1.7 -4.8 0  -1.6 -4.8 0  -1.5 -4.8 0  -1.4 -4.8 0  -1.3 -4.8 0  -1.2 -4.8 0  -1.1 -4.8 0  -1 -4.8 0  -0.9000000000000004 -4.8 0  -0.7999999999999998 -4.8 0  -0.7000000000000002 -4.8 0  -0.5999999999999996 -4.8 0  -0.5 -4.8 0  -0.4000000000000004 -4.8 0  -0.2999999999999998 -4.8 0  -0.2000000000000002 -4.8 0  -0.09999999999999964 -4.8 0  0 -4.8 0  0.09999999999999964 -4.8 0  0.2000000000000002 -4.8 0  0.2999999999999998 -4.8 0  0.4000000000000004 -4.8 0  0.5 -4.8 0  0.5999999999999996 -4.8 0  0.7000000000000002 -4.8 0  0.7999999999999998 -4.8 0  0.9000000000000004 -4.8 0  1 -4.8 0  1.1 -4.8 0  1.2 -4.8 0  1.3 -4.8 0  1.4 -4.8 0  1.5 -4.8 0  1.6 -4.8 0  1.7 -4.8 0  1.8 -4.8 0  1.9 -4.8 0  2 -4.8 0  2.1 -4.8 0  2.2 -4.8 0  2.3 -4.8 0  2.4 -4.8 0  2.5 -4.8 0  2.6 -4.8 0  2.7 -4.8 0  2.8 -4.8 0  2.9 -4.8 0  3 -4.8 0  3.1 -4.8 0  3.199999999999999 -4.8 0  3.300000000000001 -4.8 0  3.4 -4.8 0  3.5 -4.8 0  3.6 -4.8 0  3.699999999999999 -4.8 0  3.800000000000001 -4.8 0  3.9 -4.8 0  4 -4.8 0  4.1 -4.8 0  4.199999999999999 -4.8 0  4.300000000000001 -4.8 0  4.4 -4.8 0  4.5 -4.8 0  4.6 -4.8 0  4.699999999999999 -4.8 0  4.800000000000001 -4.8 0  4.9 -4.8 0  5 -4.8 0  -5 -4.7 0  -4.9 -4.7 0  -4.8 -4.7 0  -4.7 -4.7 0  -4.6 -4.7 0  -4.5 -4.7 0  -4.4 -4.7 0  -4.3 -4.7 0  -4.2 -4.7 0  -4.1 -4.7 0  -4 -4.7 0  -3.9 -4.7 0  -3.8 -4.7 0  -3.7 -4.7 0  -3.6 -4.7 0  -3.5 -4.7 0  -3.4 -4.7 0  -3.3 -4.7 0  -3.2 -4.7 0  -3.1 -4.7 0  -3 -4.7 0  -2.9 -4.7 0  -2.8 -4.7 0  -2.7 -4.7 0  -2.6 -4.7 0  -2.5 -4.7 0  -2.4 -4.7 0  -2.3 -4.7 0  -2.2 -4.7 0  -2.1 -4.7 0  -2 -4.7 0  -1.9 -4.7 0  -1.8 -4.7 0  -1.7 -4.7 0  -1.6 -4.7 0  -1.5 -4.7 0  -1.4 -4.7 0  -1.3 -4.7 0  -1.2 -4.7 0  -1.1 -4.7 0  -1 -4.7 0  -0.9000000000000004 -4.7 0  -0.7999999999999998 -4.7 0  -0.7000000000000002 -4.7 0  -0.5999999999999996 -4.7 0  -0.5 -4.7 0  -0.4000000000000004 -4.7 0  -0.2999999999999998 -4.7 0  -0.2000000000000002 -4.7 0  -0.09999999999999964 -4.7 0  0 -4.7 0  0.09999999999999964 -4.7 0  0.2000000000000002 -4.7 0  0.2999999999999998 -4.7 0  0.4000000000000004 -4.7 0  0.5 -4.7 0  0.5999999999999996 -4.7 0  0.7000000000000002 -4.7 0  0.7999999999999998 -4.7 0  0.9000000000000004 -4.7 0  1 -4.7 0  1.1 -4.7 0  1.2 -4.7 0  1.3 -4.7 0  1.4 -4.7 0  1.5 -4.7 0  1.6 -4.7 0  1.7 -4.7 0  1.8 -4.7 0  1.9 -4.7 0  2 -4.7 0  2.1 -4.7 0  2.2 -4.7 0  2.3 -4.7 0  2.4 -4.7 0  2.5 -4.7 0  2.6 -4.7 0  2.7 -4.7 0  2.8 -4.7 0  2.9 -4.7 0  3 -4.7 0  3.1 -4.7 0  3.199999999999999 -4.7 0  3.300000000000001 -4.7 0  3.4 -4.7 0  3.5 -4.7 0  3.6 -4.7 0  3.699999999999999 -4.7 0  3.800000000000001 -4.7 0  3.9 -4.7 0  4 -4.7 0  4.1 -4.7 0  4.199999999999999 -4.7 0  4.300000000000001 -4.7 0  4.4 -4.7 0  4.5 -4.7 0  4.6 -4.7 0  4.699999999999999 -4.7 0  4.800000000000001 -4.7 0  4.9 -4.7 0  5 -4.7 0  -5 -4.6 0  -4.9 -4.6 0  -4.8 -4.6 0  -4.7 -4.6 0  -4.6 -4.6 0  -4.5 -4.6 0  -4.4 -4.6 0  -4.3 -4.6 0  -4.2 -4.6 0  -4.1 -4.6 0  -4 -4.6 0  -3.9 -4.6 0  -3.8 -4.6 0  -3.7 -4.6 0  -3.6 -4.6 0  -3.5 -4.6 0  -3.4 -4.6 0  -3.3 -4.6 0  -3.2 -4.6 0  -3.1 -4.6 0  -3 -4.6 0  -2.9 -4.6 0  -2.8 -4.6 0  -2.7 -4.6 0  -2.6 -4.6 0  -2.5 -4.6 0  -2.4 -4.6 0  -2.3 -4.6 0  -2.2 -4.6 0  -2.1 -4.6 0  -2 -4.6 0  -1.9 -4.6 0  -1.8 -4.6 0  -1.7 -4.6 0  -1.6 -4.6 0  -1.5 -4.6 0  -1.4 -4.6 0  -1.3 -4.6 0  -1.2 -4.6 0  -1.1 -4.6 0  -1 -4.6 0  -0.9000000000000004 -4.6 0  -0.7999999999999998 -4.6 0  -0.7000000000000002 -4.6 0  -0.5999999999999996 -4.6 0  -0.5 -4.6 0  -0.4000000000000004 -4.6 0  -0.2999999999999998 -4.6 0  -0.2000000000000002 -4.6 0  -0.09999999999999964 -4.6 0  0 -4.6 0  0.09999999999999964 -4.6 0  0.2000000000000002 -4.6 0  0.2999999999999998 -4.6 0  0.4000000000000004 -4.6 0  0.5 -4.6 0  0.5999999999999996 -4.6 0  0.7000000000000002 -4.6 0  0.7999999999999998 -4.6 0  0.9000000000000004 -4.6 0  1 -4.6 0  1.1 -4.6 0  1.2 -4.6 0  1.3 -4.6 0  1.4 -4.6 0  1.5 -4.6 0  1.6 -4.6 0  1.7 -4.6 0  1.8 -4.6 0  1.9 -4.6 0  2 -4.6 0  2.1 -4.6 0  2.2 -4.6 0  2.3 -4.6 0  2.4 -4.6 0  2.5 -4.6 0  2.6 -4.6 0  2.7 -4.6 0  2.8 -4.6 0  2.9 -4.6 0  3 -4.6 0  3.1 -4.6 0  3.199999999999999 -4.6 0  3.300000000000001 -4.6 0  3.4 -4.6 0  3.5 -4.6 0  3.6 -4.6 0  3.699999999999999 -4.6 0  3.800000000000001 -4.6 0  3.9 -4.6 0  4 -4.6 0  4.1 -4.6 0  4.199999999999999 -4.6 0  4.300000000000001 -4.6 0  4.4 -4.6 0  4.5 -4.6 0  4.6 -4.6 0  4.699999999999999 -4.6 0  4.800000000000001 -4.6 0  4.9 -4.6 0  5 -4.6 0  -5 -4.5 0  -4.9 -4.5 0  -4.8 -4.5 0  -4.7 -4.5 0  -4.6 -4.5 0  -4.5 -4.5 0  -4.4 -4.5 0  -4.3 -4.5 0  -4.2 -4.5 0  -4.1 -4.5 0  -4 -4.5 0  -3.9 -4.5 0  -3.8 -4.5 0  -3.7 -4.5 0  -3.6 -4.5 0  -3.5 -4.5 0  -3.4 -4.5 0  -3.3 -4.5 0  -3.2 -4.5 0  -3.1 -4.5 0  -3 -4.5 0  -2.9 -4.5 0  -2.8 -4.5 0  -2.7 -4.5 0  -2.6 -4.5 0  -2.5 -4.5 0  -2.4 -4.5 0  -2.3 -4.5 0  -2.2 -4.5 0  -2.1 -4.5 0  -2 -4.5 0  -1.9 -4.5 0  -1.8 -4.5 0  -1.7 -4.5 0  -1.6 -4.5 0  -1.5 -4.5 0  -1.4 -4.5 0  -1.3 -4.5 0  -1.2 -4.5 0  -1.1 -4.5 0  -1 -4.5 0  -0.9000000000000004 -4.5 0  -0.7999999999999998 -4.5 0  -0.7000000000000002 -4.5 0  -0.5999999999999996 -4.5 0  -0.5 -4.5 0  -0.4000000000000004 -4.5 0  -0.2999999999999998 -4.5 0  -0.2000000000000002 -4.5 0  -0.09999999999999964 -4.5 0  0 -4.5 0  0.09999999999999964 -4.5 0  0.2000000000000002 -4.5 0  0.2999999999999998 -4.5 0  0.4000000000000004 -4.5 0  0.5 -4.5 0  0.5999999999999996 -4.5 0  0.7000000000000002 -4.5 0  0.7999999999999998 -4.5 0  0.9000000000000004 -4.5 0  1 -4.5 0  1.1 -4.5 0  1.2 -4.5 0  1.3 -4.5 0  1.4 -4.5 0  1.5 -4.5 0  1.6 -4.5 0  1.7 -4.5 0  1.8 -4.5 0  1.9 -4.5 0  2 -4.5 0  2.1 -4.5 0  2.2 -4.5 0  2.3 -4.5 0  2.4 -4.5 0  2.5 -4.5 0  2.6 -4.5 0  2.7 -4.5 0  2.8 -4.5 0  2.9 -4.5 0  3 -4.5 0  3.1 -4.5 0  3.199999999999999 -4.5 0  3.300000000000001 -4.5 0  3.4 -4.5 0  3.5 -4.5 0  3.6 -4.5 0  3.699999999999999 -4.5 0  3.800000000000001 -4.5 0  3.9 -4.5 0  4 -4.5 0  4.1 -4.5 0  4.199999999999999 -4.5 0  4.300000000000001 -4.5 0  4.4 -4.5 0  4.5 -4.5 0  4.6 -4.5 0  4.699999999999999 -4.5 0  4.800000000000001 -4.5 0  4.9 -4.5 0  5 -4.5 0  -5 -4.4 0  -4.9 -4.4 0  -4.8 -4.4 0  -4.7 -4.4 0  -4.6 -4.4 0  -4.5 -4.4 0  -4.4 -4.4 0  -4.3 -4.4 0  -4.2 -4.4 0  -4.1 -4.4 0  -4 -4.4 0  -3.9 -4.4 0  -3.8 -4.4 0  -3.7 -4.4 0  -3.6 -4.4 0  -3.5 -4.4 0  -3.4 -4.4 0  -3.3 -4.4 0  -3.2 -4.4 0  -3.1 -4.4 0  -3 -4.4 0  -2.9 -4.4 0  -2.8 -4.4 0  -2.7 -4.4 0  -2.6 -4.4 0  -2.5 -4.4 0  -2.4 -4.4 0  -2.3 -4.4 0  -2.2 -4.4 0  -2.1 -4.4 0  -2 -4.4 0  -1.9 -4.4 0  -1.8 -4.
[...]
<PointData  Scalars="r"> 
<DataArray  type="Float64"  Name="r"  format="ascii">1.0437589796372189e+00  1.0277623064681198e+00  1.0100647869872212e+00  9.9642995579617866e-01  9.9760337099634666e-01  9.8408953777901931e-01  9.4583411551655461e-01  8.9973204445981403e-01  9.3980962878247820e-01  1.0199095714092585e+00  1.0258158190742195e+00  9.4653267203001290e-01  9.5560613900741864e-01  1.1476447244567116e+00  1.1971053630279398e+00  9.9520972657856710e-01  9.3751519223477708e-01  9.5139852546577564e-01  9.6482019837433775e-01  9.8216902382224713e-01  9.9195048567133848e-01  1.0007984499039027e+00  1.0039769364615339e+00  1.0015771382694807e+00  9.9973023531887606e-01  9.9116974827668236e-01  9.8862204008289989e-01  9.7849135459848036e-01  9.8572376182060428e-01  9.8480537654900757e-01  9.9188773978204581e-01  1.0014919225070393e+00  9.9740643704170695e-01  1.0063095630107246e+00  1.0006385009761487e+00  1.0020391839988267e+00  9.9790550013316093e-01  9.9972268593716829e-01  9.8958916054178059e-01  9.9819416621555013e-01  9.8740265255797555e-01  9.9184997566066080e-01  9.9260965504485843e-01  9.8521308306864797e-01  9.9538858237194594e-01  9.8523872639767396e-01  9.9412675245229853e-01  9.8770428776681252e-01  9.9384770057294847e-01  9.9042361466553608e-01  9.9363343413783622e-01  9.9528765649636630e-01  9.9395042725840299e-01  9.9991196607116295e-01  9.9740553181035474e-01  9.9966971167239482e-01  1.0045339050919788e+00  9.9683809647853572e-01  1.0087623092417843e+00  9.9523123957960180e-01  1.0050954873881228e+00  9.9510973845273598e-01  9.9192268371620518e-01  9.9552738660295714e-01  9.7434949419030148e-01  9.9658235697348585e-01  9.6524779875538591e-01  9.9858058596989818e-01  9.8140555875006918e-01  1.0027867474433598e+00  1.0246798739031473e+00  9.9757363288437062e-01  1.0625808879508347e+00  9.5512410017944838e-01  1.0501917905422133e+00  8.9988106680884761e-01  1.0412023671120703e+00  9.0851300323002093e-01  1.0750840520585521e+00  9.5663637216772601e-01  1.0680032988968176e+00  9.1493288398582995e-01  1.0144381832470464e+00  9.2858765471210536e-01  1.1214701375641924e+00  1.0758677132457561e+00  1.1040052920013159e+00  9.6394181378473742e-01  9.8473293665910899e-01  8.6902900811729855e-01  9.5548347269416811e-01  9.1008173965234362e-01  1.0225888785375370e+00  1.0219885167006375e+00  1.0598783949849839e+00  1.0314643686067904e+00  1.0462975013380036e+00  9.8379191632052465e-01  9.7546843557929441e-01  9.5707333060428823e-01  9.7829713133901830e-01  1.0277623064681212e+00  1.0383112600799755e+00  1.0191958107389161e+00  1.0019132991648558e+00  9.8000983046569445e-01  9.4289132773680706e-01  9.6226848529822262e-01  9.6047658433632677e-01  9.6744514597256592e-01  9.3188864250089665e-01  9.7158021266200179e-01  1.0404131298087123e+00  1.0592243770358420e+00  1.0549148559348025e+00  1.1145803511286416e+00  1.0506030474241628e+00  9.5183687769217928e-01  9.4892704408450490e-01  9.6614018408633440e-01  9.7750984325431378e-01  9.8882291644904896e-01  9.9703001054706875e-01  1.0025207594990058e+00  1.0023516327791000e+00  9.9488468121795204e-01  9.9016526562374629e-01  9.8646638801144482e-01  9.8863490900264650e-01  9.9069306737898244e-01  9.9386149372868893e-01  9.9371867684233173e-01  9.9633588961046626e-01  9.9702506860299223e-01  9.9775153647603598e-01  9.9914306532686292e-01  9.9721527410669997e-01  9.9667854402612444e-01  9.9691776992639591e-01  9.9413006723003061e-01  9.9560327859271425e-01  9.9477753522936552e-01  9.9330547017106308e-01  9.9610508511325468e-01  9.9297221722436524e-01  9.9532651496129920e-01  9.9457994503711089e-01  9.9394881152105352e-01  9.9560779594057991e-01  9.9397175534055238e-01  9.9557542009136790e-01  9.9436801221616311e-01  9.9616297960463185e-01  9.9444784621493953e-01  9.9550796640412220e-01  9.9578872745722735e-01  9.9378455843833047e-01  9.9712195282971772e-01  9.9285250702045047e-01  9.9650958520453758e-01  9.9429940382957593e-01  9.9459626227898557e-01  9.9837762080310732e-01  9.9444584851419460e-01  1.0030902245428197e+00  9.9844872803461837e-01  1.0043357196369100e+00  1.0044613462089163e+00  9.9671734373682053e-01  1.0070974970674460e+00  9.7782056695271058e-01  1.0009669388148796e+00  9.6017679240273901e-01  1.0005800958300453e+00  9.6586557246997051e-01  1.0181416937685122e+00  9.8947136080928133e-01  1.0090107639056463e+00  9.9720794263220180e-01  9.7197053305619541e-01  1.0133178148033093e+00  9.3948599623257523e-01  1.0387744944477488e+00  9.2495281921181449e-01  1.0498403454520233e+00  1.0165169224599369e+00  1.1647213011295707e+00  1.0451291225104737e+00  1.0206998453233844e+00  9.3314941120313799e-01  9.2958372685724366e-01  8.8672629651514512e-01  9.3156818497027261e-01  9.8308165315949037e-01  1.0279744888253097e+00  1.0354384309910472e+00  1.0576725963149918e+00  1.0750933723718958e+00  9.8778495212866768e-01  9.7220291852463148e-01  9.2052911419039907e-01  9.5707333060401933e-01  1.0100647869872239e+00  1.0191958107389207e+00  1.0036366319863343e+00  9.9144873649935561e-01  9.8731549509502647e-01  9.9016202821748311e-01  9.5789335662430075e-01  9.5322199938327012e-01  9.6475369674748168e-01  9.8100802554908662e-01  9.7405296366607419e-01  1.0224836280488976e+00  1.0776309805790014e+00  1.0535116478248703e+00  1.0293918377345697e+00  1.0682397846574372e+00  1.0217118405382992e+00  9.7043796705891006e-01  9.6944725696885659e-01  9.7764155611208414e-01  9.7835221507130288e-01  9.7643454418554543e-01  9.8072005608846291e-01  9.7807307605444194e-01  9.8728925777253573e-01  9.9322198232846148e-01  1.0022436309033627e+00  1.0025973307126943e+00  1.0050328326660130e+00  9.9764707814564080e-01  9.9641352229216040e-01  9.9435007867842518e-01  9.8833323067186540e-01  9.9081736540520815e-01  9.8662103420922742e-01  9.9076470187170185e-01  9.9005920210579668e-01  9.9878809052593642e-01  9.9202825031241071e-01  1.0057389090536126e+00  9.9668542404599192e-01  1.0046361175220275e+00  1.0037738105947001e+00  1.0006455207668437e+00  1.0068032863116436e+00  9.9922691267524810e-01  1.0064298409995316e+00  9.9838137714053321e-01  1.0049281725333685e+00  9.9744354387219780e-01  1.0003833967225313e+00  9.9859560047646134e-01  9.9316609158881930e-01  9.9871613321673525e-01  9.8918552484268496e-01  9.9458366807151932e-01  9.8941980972524723e-01  9.8874292235038830e-01  9.9212762994236492e-01  9.8600786780365235e-01  9.9506157315623911e-01  9.8768217387796986e-01  9.9684593437774982e-01  9.9549465965577788e-01  9.9501480968974343e-01  1.0059781111243555e+00  9.9255455981388441e-01  1.0129244484246407e+00  9.8878657426054661e-01  1.0117816345755180e+00  9.8340156639976595e-01  9.9990107157967267e-01  9.6961867058751883e-01  9.9191638619985212e-01  9.7277076895054360e-01  1.0066483790506859e+00  1.0013508695885727e+00  1.0188356704204862e+00  9.8450167322334914e-01  9.7497670257039715e-01  9.4537642881733674e-01  9.7265203593709504e-01  9.6822781031224647e-01  1.0722561136781483e+00  1.0394229847961320e+00  1.1368545212726229e+00  1.0215629701400222e+00  1.0301086388204426e+00  9.2834778874552215e-01  9.7192984580758202e-01  9.5277909440007735e-01  9.6072502714585650e-01  9.7011920713656419e-01  1.0086902023072615e+00  1.0014497173136685e+00  1.0294988605921094e+00  1.0323160620313936e+00  9.8322191630101652e-01  9.6642660192646690e-01  9.7220291852529495e-01  9.7546843557881446e-01  9.9642995579618387e-01  1.0019132991648572e+00  9.9144873649935317e-01  1.0063216058558202e+00  9.7354681411961108e-01  9.7929526540792267e-01  9.8023653843326708e-01  1.0038701114561730e+00  9.4945490129111254e-01  9.5322383354917362e-01  1.0001590706101715e+00  1.0832611216529509e+00  1.0808870781967428e+00  1.0073669273654842e+00  9.6057821458703430e-01  1.0366144490740870e+00  1.0969472579591444e+00  1.0265604985606027e+00  9.6884411749691279e-01  9.6904870768164353e-01  9.6344247030044283e-01  9.6107905381929781e-01  9.6442638827063665e-01  9.7280257577304385e-01  9.8660244747834636e-01  9.9862282946052827e-01  1.0053519138252534e+00  1.0066547659172704e+00  1.0014759015542491e+00  9.9861825781989133e-01  9.9080168207096153e-01  9.8946512762972538e-01  9.8634544870887753e-01  9.8567337921318821e-01  9.8898666462653706e-01  9.8976239364903695e-01  9.9250092561769288e-01  9.9649737210852252e-01  9.9547551046197935e-01  9.9847614206425395e-01  9.9965413869483954e-01  9.9658384485392137e-01  1.0013768094708515e+00  9.9768869722985831e-01  9.9902523007035537e-01  1.0015373163149455e+00  9.9766326505366043e-01  1.0018420323691957e+00  9.9939604624392953e-01  1.0008029395676654e+00  9.9949663709968561e-01  1.0009058409757565e+00  9.9927894784081461e-01  9.9993939817921240e-01  1.0008336072215680e+00  9.9745732963765610e-01  1.0030419320291670e+00  9.9862470647256985e-01  1.0006676475851537e+00  1.0032533030611839e+00  9.9501028908251354e-01  1.0068524467948987e+00  9.8758664223188086e-01  1.0047129527054020e+00  9.8184209239798648e-01  9.9406454050270165e-01  9.8192136584845124e-01  9.7759183677405326e-01  9.9329080733230146e-01  9.6685877889766081e-01  1.0175237583565280e+00  9.7424961316408232e-01  1.0435257078073850e+00  9.8496876934785849e-01  1.0289088380711491e+00  9.7824177125307321e-01  9.8856674351332063e-01  9.7629614307180712e-01  9.7338850567944302e-01  9.8058566778298095e-01  9.6927778988989388e-01  9.6943133073336263e-01  1.0357320290961995e+00  1.0389135011992330e+00  1.0772709098068116e+00  1.0077661806617364e+00  1.0395940604965981e+00  9.9089049947290797e-01  9.9957467550075130e-01  9.6657649590485795e-01  1.0240510349590077e+00  9.4850113982989515e-01  1.0393138833345010e+00  9.6833176218955697e-01  9.9267434892487594e-01  9.6831833889865471e-01  9.8081601709089572e-01  1.0190090407736998e+00  9.8322191630092615e-01  9.8778495212899553e-01  9.8379191632037111e-01  9.9760337099634566e-01  9.8000983046569567e-01  9.8731549509502869e-01  9.7354681411961363e-01  1.0161145057650520e+00  9.8646949799892425e-01  9.7391322484161857e-01  9.4983527942323642e-01  1.0075118112422912e+00  1.0530894250733402e+00  1.0510571184193345e+00  1.0097162377551931e+00  1.0069371409331200e+00  1.0172741217080199e+00  9.9740950743866452e-01  1.0057967029756922e+00  1.0787294504484517e+00  1.0863761574079629e+00  9.8302038734942998e-01  9.5578374301515090e-01  9.5459135878454826e-01  9.5958080941146950e-01  9.6742422711545384e-01  9.7368750096592660e-01  9.8431602181937194e-01  9.8662949546365852e-01  9.9012826854311731e-01  9.8732887716562612e-01  9.9255023912614160e-01  9.9018353035879980e-01  9.9785235208187562e-01  9.9767018061112922e-01  9.9907450216302562e-01  1.0000156944910179e+00  9.9766560821688921e-01  9.9957115380197104e-01  9.9343248813653884e-01  9.9928697536188027e-01  9.8606921463729502e-01  9.9585031977724525e-01  9.8438438149444718e-01  9.9026579760978439e-01  9.8824296834828806e-01  9.8739006044982469e-01  9.9010804890691351e-01  9.8751261959844150e-01  9.9238541567605310e-01  9.8673595323970020e-01  9.9641479190272342e-01  9.8798288540217438e-01  9.9765880564450871e-01  9.9503147779753975e-01  9.9608371445511790e-01  1.0024233139034926e+00  9.9752246082045648e-01  1.0059269419546009e+00  9.9975277560565379e-01  1.0065641878102505e+00  1.0002357976221092e+00  1.0038511138934991e+00  9.9984595198733661e-01  9.9791635212977392e-01  9.9958423446397615e-01  9.9102558573512445e-01  1.0009128206316322e+00  9.8673958633431735e-01  1.0052897251322683e+00  9.8725721104768660e-01  1.0111187776225625e+00  9.9231726414620613e-01  1.0056391269612164e+00  9.9960118001312781e-01  9.8660721609840574e-01  1.0092534284025840e+00  9.6143962444471298e-01  1.0144449976253835e+00  9.1704370076171582e-01  1.0134216270922038e+00  8.9506055178073585e-01  1.0270794942853667e+00  9.1861360857149688e-01  1.0697582167300377e+00  1.0116993033816968e+00  1.0816441636896492e+00  1.0271683096114630e+00  9.8746006121723129e-01  1.0160216235859523e+00  9.9499220496792362e-01  1.0478926794919938e+00  9.8498867789463274e-01  1.0180284460015789e+00  1.0297567906039116e+00  1.0009311254775455e+00  9.7787682275628118e-01  9.5306146253234547e-01  9.5815622311403814e-01  8.8128225719045683e-01  9.8081601709018729e-01  1.0323160620320664e+00  1.0750933723726457e+00  1.0462975013370908e+00  9.8408953777901631e-01  9.4289132773681006e-01  9.9016202821748345e-01  9.7929526540792267e-01  9.8646949799892381e-01  9.4977485090579916e-01  1.0214486123809685e+00  1.0295993374248937e+00  1.0653847599221293e+00  1.0340979408130007e+00  1.0416609590578201e+00  1.0047490196050450e+00  1.0054298600032729e+00  1.0048431363075858e+00  1.0138995312325010e+00  9.8487919514933620e-01  1.0123246104124362e+00  1.0870452017710368e+00  1.0443931855745465e+00  9.6651518716415830e-01  9.6215419253500967e-01  9.7025147891042418e-01  9.7292698642463904e-01  9.7356753860437895e-01  9.6861393460628997e-01  9.6647864940139050e-01  9.6512410488930489e-01  9.7322934367639491e-01  9.8281028565505579e-01  9.9376365714104387e-01  9.9894312066314839e-01  1.0036259647927919e+00  1.0030118923600417e+00  1.0030356770429967e+00  1.0027565207688203e+00  9.9884553850072511e-01  9.9621764718686046e-01  9.9394888008983140e-01  9.9073337506492998e-01  9.9117530219920535e-01  9.9334956905013083e-01  9.8906314835348685e-01  9.9447276774267301e-01  9.9009716820327454e-01  9.9052141675047023e-01  9.9258790498319660e-01  9.8788272794287169e-01  9.9204471308880637e-01  9.8773989144444474e-01  9.9145704762860276e-01  9.8585551859484477e-01  9.9288323943136891e-01  9.8526848429472524e-01  9.8964381590502326e-01  9.8952046604458233e-01  9.8302739335902856e-01  9.9218207442871431e-01  9.8068700339284465e-01  9.9002222846426802e-01  9.8424019917139760e-01  9.8585876333628519e-01  9.9153172287961944e-01  9.8317574454307033e-01  1.0025083087719207e+00  9.8372459000238210e-01  1.0122577799796948e+00  9.8957105840059612e-01  1.0138815827427172e+00  9.9492977876533373e-01  1.0064977989692387e+00  9.9366563966630539e-01  9.9148258149408119e-01  9.7909864078091668e-01  9.7725560227285091e-01  9.7402102042813643e-01  9.7536162341325128e-01  9.8527042528496467e-01  9.6377622725046275e-01  9.7308628487283211e-01  9.4531657411107639e-01  1.0119913307960218e+00  1.0305285884189714e+00  1.0858832139290047e+00  1.0214396448858969e+00  9.9449787851936833e-01  9.2877405397240387e-01  9.7514675279435670e-01  9.8504019139685417e-01  1.0906491889849363e+00  1.1058315666054725e+00  1.0476159449447133e+00  1.0286573184064582e+00  9.7009371833052627e-01  9.8855191169073076e-01  9.3580238908023938e-01  8.9565548167094489e-01  9.5815622311452764e-01  9.6831833889811036e-01  1.0294988605930153e+00  1.0576725963147975e+00  1.0314643686066780e+00  9.4583411551656049e-01  9.6226848529822262e-01  9.5789335662429831e-01  9.8023653843327030e-01  9.7391322484161758e-01  1.0214486123809670e+00  9.9768681019203787e-01  1.0343314465251732e+00  1.0749615800510106e+00  1.0934708571854590e+00  1.0268255828283497e+00  9.7316985350459773e-01  9.7237154725202102e-01  9.9636694210649690e-01  1.0392394019034579e+00  1.0123826997857501e+00  9.7587631196231006e-01  1.0359306715621013e+00  1.0935618726868210e+00  1.0215690850233394e+00  9.7341860331395802e-01  9.7489967385050658e-01  9.7546554984110712e-01  9.6291772647515839e-01  9.6041741882415632e-01  9.5850585309331793e-01  9.6399228280668170e-01  9.6734056637780041e-01  9.7532162674862022e-01  9.7453269525790254e-01  9.8476294763549477e-01  9.8701682919479650e-01  9.9337903816760931e-01  9.9627521639040784e-01  9.9561452710973486e-01  9.9738319067004311e-01  9.9485868627666818e-01  1.0018766681049158e+00  9.9537441823270190e-01  1.0059135453006094e+00  9.9709306617782967e-01  1.0042413421853349e+00  9.9798594248235151e-01  1.0025493339765945e+00  9.9777140022705069e-01  1.0003803008690997e+00  9.9977796829551890e-01  9.9423787760035287e-01  1.0021503662159645e+00  9.9083131996163476e-01  9.9771102357564334e-01  9.9235672084012527e-01  9.9062399403016987e-01  9.9210898800726421e-01  9.8678260797057260e-01  9.9086796324918314e-01  9.8389103476527673e-01  9.9400795061794289e-01  9.8097439826529720e-01  9.9868162824979478e-01  9.8329283580064775e-01  1.0009790937383680e+00  9.9051285216344032e-01  9.9996518667257517e-01  9.9878908972845304e-01  9.9244389312816339e-01  1.0069582173993528e+00  9.7683864542097310e-01  1.0090665834736938e+00  9.5967214039060800e-01  1.0018437134465570e+00  9.4990640539335891e-01  9.8892291295287194e-01  9.4537248631886295e-01  9.6718874239183861e-01  9.5101943526030164e-01  9.7730367500373594e-01  9.6940344029308079e-01  1.0071474177464170e+00  9.7036483143512842e-01  1.0654082431950891e+00  1.0172824172279271e+00  1.1115140934011580e+00  9.8668583317078173e-01  1.0194142454148014e+00  9.3502951290092473e-01  9.5455838250065550e-01  9.6386378294428676e-01  1.0356162341145143e+00  1.1555216244817408e+00  1.0813398016208613e+00  1.0249327085863029e+00  9.6186144000621188e-01  9.6636633302363950e-01  9.4701416754756862e-01  9.3580238907964641e-01  9.5306146253267210e-01  9.9267434892433593e-01  1.0014497173136838e+00  1.0354384309906421e+00  1.0598783949848398e+00  8.9973204445980970e-01  9.6047658433632721e-01  9.5322199938327135e-01  1.0038701114561690e+00  9.4983527942323887e-01  1.0295993374248933e+00  1.0343314465251758e+00  1.1102435563721584e+00  1.0558618628263732e+00  1.0339901945900589e+00  9.8855066481691167e-01  1.0202085054365466e+00  9.9685378754927478e-01  9.9717311732460201e-01  9.9907706927162576e-01  1.0112918492055845e+00  9.8682570180746154e-01  9.9092600183460333e-01  1.0760303412148662e+00  1.0923227403310893e+00  9.9706118010204337e-01  9.7220982429945557e-01  9.7105154241563207e-01  9.6619321267398039e-01  9.6730376890667302e-01  9.6884561000615999e-01  9.6709292548424708e-01  9.6877271901650175e-01  9.6740756445119958e-01  9.7084078809169916e-01  9.7080490737772851e-01  9.7411063015026533e-01  9.7303867207733796e-01  9.7958244567781860e-01  9.8364418665438091e-01  9.9009179028211125e-01  9.9502175870980325e-01  9.9685850601054504e-01  9.9870168566438089e-01  9.9665598426376922e-01  1.0008026394158598e+00  9.9491103844731266e-01  1.0021579845840243e+00  9.9751144572358730e-01  1.0009099332041225e+00  1.0016291347664319e+00  1.0022636728517893e+00  1.0030412685106653e+00  1.0033788963581882e+00  1.0066921885403868e+00  9.9979172538594163e-01  1.0116076280200614e+00  9.9867421215396068e-01  1.0100155103199651e+00  1.0049803581556886e+00  1.0051043439148624e+00  1.0107613326109890e+00  1.0035268127468771e+00  1.0133606002137978e+00  1.0017418641932918e+00  1.0148298276285999e+00  9.9749762322537772e-01  1.0101407679121466e+00  9.9312910560716083e-01  9.9809090359946362e-01  9.8691022538283646e-01  9.8268487014356953e-01  9.8076507212155883e-01  9.6869099912122181e-01  9.8186181504071124e-01  9.5471312015017773e-01  9.9340104846173627e-01  9.5096315167698675e-01  1.0114394105705509e+00  9.5258219203210037e-01  1.0077961109732001e+00  9.2700421035474578e-01  9.8526231977463863e-01  9.3989366955878650e-01  1.0275566085314269e+00  1.0336339918910169e+00  1.0616586942085446e+00  1.0253139610482207e+00  9.8083776969832659e-01  9.8098036722291038e-01  9.7237443163198423e-01  9.5628901294742641e-01  1.0366490066625875e+00  1.0073149146518030e+00  1.1475463948713223e+00  1.0871714918878204e+00  1.0428219145031639e+00  9.1966518410002362e-01  9.7907728668720828e-01  9.6636633302290231e-01  9.8855191169233358e-01  9.7787682275549392e-01  9.6833176219035477e-01  1.0086902023068698e+00  1.0279744888260887e+00  1.0219885166998974e+00  9.3980962878247676e-01  9.6744514597256825e-01  9.6475369674748279e-01  9.4945490129111554e-01  1.0075118112422865e+00  1.0653847599221331e+00  1.0749615800510037e+00  1.0558618628263723e+00  1.0336441179113063e+00  1.0147101902347728e+00  1.0047759652856687e+00  1.0084229521040762e+00  9.7353769651559752e-01  9.8486273562598381e-01  1.0033233493735181e+00  1.0312306860652807e+00  1.0269256129989668e+00  9.9588735537812101e-01  1.0172515470688908e+00  1.1085346502916136e+00  1.0406743633734514e+00  9.6842415900854228e-01  9