<?xml version="1.0"?>
<VTKFile type="UnstructuredGrid"  version="0.1"  >
<UnstructuredGrid>
<Piece  NumberOfPoints="10201" NumberOfCells="20000">
<Points>
<DataArray  type="Float64"  NumberOfComponents="3"  format="ascii">-5 -5 0  -4.9 -5 0  -4.8 -5 0  -4.7 -5 0  -4.6 -5 0  -4.5 -5 0  -4.4 -5 0  -4.3 -5 0  -4.2 -5 0  -4.1 -5 0  -4 -5 0  -3.9 -5 0  -3.8 -5 0  -3.7 -5 0  -3.6 -5 0  -3.5 -5 0  -3.4 -5 0  -3.3 -5 0  -3.2 -5 0  -3.1 -5 0  -3 -5 0  -2.9 -5 0  -2.8 -5 0  -2.7 -5 0  -2.6 -5 0  -2.5 -5 0  -2.4 -5 0  -2.3 -5 0  -2.2 -5 0  -2.1 -5 0  -2 -5 0  -1.9 -5 0  -1.8 -5 0  -1.7 -5 0  -1.6 -5 0  -1.5 -5 0  -1.4 -5 0  -1.3 -5 0  -1.2 -5 0  -1.1 -5 0  -1 -5 0  -0.9000000000000004 -5 0  -0.7999999999999998 -5 0  -0.7000000000000002 -5 0  -0.5999999999999996 -5 0  -0.5 -5 0  -0.4000000000000004 -5 0  -0.2999999999999998 -5 0  -0.2000000000000002 -5 0  -0.09999999999999964 -5 0  0 -5 0  0.09999999999999964 -5 0  0.2000000000000002 -5 0  0.2999999999999998 -5 0  0.4000000000000004 -5 0  0.5 -5 0  0.5999999999999996 -5 0  0.7000000000000002 -5 0  0.7999999999999998 -5 0  0.9000000000000004 -5 0  1 -5 0  1.1 -5 0  1.2 -5 0  1.3 -5 0  1.4 -5 0  1.5 -5 0  1.6 -5 0  1.7 -5 0  1.8 -5 0  1.9 -5 0  2 -5 0  2.1 -5 0  2.2 -5 0  2.3 -5 0  2.4 -5 0  2.5 -5 0  2.6 -5 0  2.7 -5 0  2.8 -5 0  2.9 -5 0  3 -5 0  3.1 -5 0  3.199999999999999 -5 0  3.300000000000001 -5 0  3.4 -5 0  3.5 -5 0  3.6 -5 0  3.699999999999999 -5 0  3.800000000000001 -5 0  3.9 -5 0  4 -5 0  4.1 -5 0  4.199999999999999 -5 0  4.300000000000001 -5 0  4.4 -5 0  4.5 -5 0  4.6 -5 0  4.699999999999999 -5 0  4.800000000000001 -5 0  4.9 -5 0  5 -5 0  -5 -4.9 0  -4.9 -4.9 0  -4.8 -4.9 0  -4.7 -4.9 0  -4.6 -4.9 0  -4.5 -4.9 0  -4.4 -4.9 0  -4.3 -4.9 0  -4.2 -4.9 0  -4.1 -4.9 0  -4 -4.9 0  -3.9 -4.9 0  -3.8 -4.9 0  -3.7 -4.9 0  -3.6 -4.9 0  -3.5 -4.9 0  -3.4 -4.9 0  -3.3 -4.9 0  -3.2 -4.9 0  -3.1 -4.9 0  -3 -4.9 0  -2.9 -4.9 0  -2.8 -4.9 0  -2.7 -4.9 0  -2.6 -4.9 0  -2.5 -4.9 0  -2.4 -4.9 0  -2.3 -4.9 0  -2.2 -4.9 0  -2.1 -4.9 0  -2 -4.9 0  -1.9 -4.9 0  -1.8 -4.9 0  -1.7 -4.9 0  -1.6 -4.9 0  -1.5 -4.9 0  -1.4 -4.9 0  -1.3 -4.9 0  -1.2 -4.9 0  -1.1 -4.9 0  -1 -4.9 0  -0.9000000000000004 -4.9 0  -0.7999999999999998 -4.9 0  -0.7000000000000002 -4.9 0  -0.5999999999999996 -4.9 0  -0.5 -4.9 0  -0.4000000000000004 -4.9 0  -0.2999999999999998 -4.9 0  -0.2000000000000002 -4.9 0  -0.09999999999999964 -4.9 0  0 -4.9 0  0.09999999999999964 -4.9 0  0.2000000000000002 -4.9 0  0.2999999999999998 -4.9 0  0.4000000000000004 -4.9 0  0.5 -4.9 0  0.5999999999999996 -4.9 0  0.7000000000000002 -4.9 0  0.7999999999999998 -4.9 0  0.9000000000000004 -4.9 0  1 -4.9 0  1.1 -4.9 0  1.2 -4.9 0  1.3 -4.9 0  1.4 -4.9 0  1.5 -4.9 0  1.6 -4.9 0  1.7 -4.9 0  1.8 -4.9 0  1.9 -4.9 0  2 -4.9 0  2.1 -4.9 0  2.2 -4.9 0  2.3 -4.9 0  2.4 -4.9 0  2.5 -4.9 0  2.6 -4.9 0  2.7 -4.9 0  2.8 -4.9 0  2.9 -4.9 0  3 -4.9 0  3.1 -4.9 0  3.199999999999999 -4.9 0  3.300000000000001 -4.9 0  3.4 -4.9 0  3.5 -4.9 0  3.6 -4.9 0  3.699999999999999 -4.9 0  3.800000000000001 -4.9 0  3.9 -4.9 0  4 -4.9 0  4.1 -4.9 0  4.199999999999999 -4.9 0  4.300000000000001 -4.9 0  4.4 -4.9 0  4.5 -4.9 0  4.6 -4.9 0  4.699999999999999 -4.9 0  4.800000000000001 -4.9 0  4.9 -4.9 0  5 -4.9 0  -5 -4.8 0  -4.9 -4.8 0  -4.8 -4.8 0  -4.7 -4.8 0  -4.6 -4.8 0  -4.5 -4.8 0  -4.4 -4.8 0  -4.3 -4.8 0  -4.2 -4.8 0  -4.1 -4.8 0  -4 -4.8 0  -3.9 -4.8 0  -3.8 -4.8 0  -3.7 -4.8 0  -3.6 -4.8 0  -3.5 -4.8 0  -3.4 -4.8 0  -3.3 -4.8 0  -3.2 -4.8 0  -3.1 -4.8 0  -3 -4.8 0  -2.9 -4.8 0  -2.8 -4.8 0  -2.7 -4.8 0  -2.6 -4.8 0  -2.5 -4.8 0  -2.4 -4.8 0  -2.3 -4.8 0  -2.2 -4.8 0  -2.1 -4.8 0  -2 -4.8 0  -1.9 -4.8 0  -1.8 -4.8 0  -1.7 -4.8 0  -1.6 -4.8 0  -1.5 -4.8 0  -1.4 -4.8 0  -1.3 -4.8 0  -1.2 -4.8 0  -1.1 -4.8 0  -1 -4.8 0  -0.9000000000000004 -4.8 0  -0.7999999999999998 -4.8 0  -0.7000000000000002 -4.8 0  -0.5999999999999996 -4.8 0  -0.5 -4.8 0  -0.4000000000000004 -4.8 0  -0.2999999999999998 -4.8 0  -0.2000000000000002 -4.8 0  -0.09999999999999964 -4.8 0  0 -4.8 0  0.09999999999999964 -4.8 0  0.2000000000000002 -4.8 0  0.2999999999999998 -4.8 0  0.4000000000000004 -4.8 0  0.5 -4.8 0  0.5999999999999996 -4.8 0  0.7000000000000002 -4.8 0  0.7999999999999998 -4.8 0  0.9000000000000004 -4.8 0  1 -4.8 0  1.1 -4.8 0  1.2 -4.8 0  1.3 -4.8 0  1.4 -4.8 0  1.5 -4.8 0  1.6 -4.8 0  1.7 -4.8 0  1.8 -4.8 0  1.9 -4.8 0  2 -4.8 0  2.1 -4.8 0  2.2 -4.8 0  2.3 -4.8 0  2.4 -4.8 0  2.5 -4.8 0  2.6 -4.8 0  2.7 -4.8 0  2.8 -4.8 0  2.9 -4.8 0  3 -4.8 0  3.1 -4.8 0  3.199999999999999 -4.8 0  3.300000000000001 -4.8 0  3.4 -4.8 0  3.5 -4.8 0  3.6 -4.8 0  3.699999999999999 -4.8 0  3.800000000000001 -4.8 0  3.9 -4.8 0  4 -4.8 0  4.1 -4.8 0  4.199999999999999 -4.8 0  4.300000000000001 -4.8 0  4.4 -4.8 0  4.5 -4.8 0  4.6 -4.8 0  4.699999999999999 -4.8 0  4.800000000000001 -4.8 0  4.9 -4.8 0  5 -4.8 0  -5 -4.7 0  -4.9 -4.7 0  -4.8 -4.7 0  -4.7 -4.7 0  -4.6 -4.7 0  -4.5 -4.7 0  -4.4 -4.7 0  -4.3 -4.7 0  -4.2 -4.7 0  -4.1 -4.7 0  -4 -4.7 0  -3.9 -4.7 0  -3.8 -4.7 0  -3.7 -4.7 0  -3.6 -4.7 0  -3.5 -4.7 0  -3.4 -4.7 0  -3.3 -4.7 0  -3.2 -4.7 0  -3.1 -4.7 0  -3 -4.7 0  -2.9 -4.7 0  -2.8 -4.7 0  -2.7 -4.7 0  -2.6 -4.7 0  -2.5 -4.7 0  -2.4 -4.7 0  -2.3 -4.7 0  -2.2 -4.7 0  -2.1 -4.7 0  -2 -4.7 0  -1.9 -4.7 0  -1.8 -4.7 0  -1.7 -4.7 0  -1.6 -4.7 0  -1.5 -4.7 0  -1.4 -4.7 0  -1.3 -4.7 0  -1.2 -4.7 0  -1.1 -4.7 0  -1 -4.7 0  -0.9000000000000004 -4.7 0  -0.7999999999999998 -4.7 0  -0.7000000000000002 -4.7 0  -0.5999999999999996 -4.7 0  -0.5 -4.7 0  -0.4000000000000004 -4.7 0  -0.2999999999999998 -4.7 0  -0.2000000000000002 -4.7 0  -0.09999999999999964 -4.7 0  0 -4.7 0  0.09999999999999964 -4.7 0  0.2000000000000002 -4.7 0  0.2999999999999998 -4.7 0  0.4000000000000004 -4.7 0  0.5 -4.7 0  0.5999999999999996 -4.7 0  0.7000000000000002 -4.7 0  0.7999999999999998 -4.7 0  0.9000000000000004 -4.7 0  1 -4.7 0  1.1 -4.7 0  1.2 -4.7 0  1.3 -4.7 0  1.4 -4.7 0  1.5 -4.7 0  1.6 -4.7 0  1.7 -4.7 0  1.8 -4.7 0  1.9 -4.7 0  2 -4.7 0  2.1 -4.7 0  2.2 -4.7 0  2.3 -4.7 0  2.4 -4.7 0  2.5 -4.7 0  2.6 -4.7 0  2.7 -4.7 0  2.8 -4.7 0  2.9 -4.7 0  3 -4.7 0  3.1 -4.7 0  3.199999999999999 -4.7 0  3.300000000000001 -4.7 0  3.4 -4.7 0  3.5 -4.7 0  3.6 -4.7 0  3.699999999999999 -4.7 0  3.800000000000001 -4.7 0  3.9 -4.7 0  4 -4.7 0  4.1 -4.7 0  4.199999999999999 -4.7 0  4.300000000000001 -4.7 0  4.4 -4.7 0  4.5 -4.7 0  4.6 -4.7 0  4.699999999999999 -4.7 0  4.800000000000001 -4.7 0  4.9 -4.7 0  5 -4.7 0  -5 -4.6 0  -4.9 -4.6 0  -4.8 -4.6 0  -4.7 -4.6 0  -4.6 -4.6 0  -4.5 -4.6 0  -4.4 -4.6 0  -4.3 -4.6 0  -4.2 -4.6 0  -4.1 -4.6 0  -4 -4.6 0  -3.9 -4.6 0  -3.8 -4.6 0  -3.7 -4.6 0  -3.6 -4.6 0  -3.5 -4.6 0  -3.4 -4.6 0  -3.3 -4.6 0  -3.2 -4.6 0  -3.1 -4.6 0  -3 -4.6 0  -2.9 -4.6 0  -2.8 -4.6 0  -2.7 -4.6 0  -2.6 -4.6 0  -2.5 -4.6 0  -2.4 -4.6 0  -2.3 -4.6 0  -2.2 -4.6 0  -2.1 -4.6 0  -2 -4.6 0  -1.9 -4.6 0  -1.8 -4.6 0  -1.7 -4.6 0  -1.6 -4.6 0  -1.5 -4.6 0  -1.4 -4.6 0  -1.3 -4.6 0  -1.2 -4.6 0  -1.1 -4.6 0  -1 -4.6 0  -0.9000000000000004 -4.6 0  -0.7999999999999998 -4.6 0  -0.7000000000000002 -4.6 0  -0.5999999999999996 -4.6 0  -0.5 -4.6 0  -0.4000000000000004 -4.6 0  -0.2999999999999998 -4.6 0  -0.2000000000000002 -4.6 0  -0.09999999999999964 -4.6 0  0 -4.6 0  0.09999999999999964 -4.6 0  0.2000000000000002 -4.6 0  0.2999999999999998 -4.6 0  0.4000000000000004 -4.6 0  0.5 -4.6 0  0.5999999999999996 -4.6 0  0.7000000000000002 -4.6 0  0.7999999999999998 -4.6 0  0.9000000000000004 -4.6 0  1 -4.6 0  1.1 -4.6 0  1.2 -4.6 0  1.3 -4.6 0  1.4 -4.6 0  1.5 -4.6 0  1.6 -4.6 0  1.7 -4.6 0  1.8 -4.6 0  1.9 -4.6 0  2 -4.6 0  2.1 -4.6 0  2.2 -4.6 0  2.3 -4.6 0  2.4 -4.6 0  2.5 -4.6 0  2.6 -4.6 0  2.7 -4.6 0  2.8 -4.6 0  2.9 -4.6 0  3 -4.6 0  3.1 -4.6 0  3.199999999999999 -4.6 0  3.300000000000001 -4.6 0  3.4 -4.6 0  3.5 -4.6 0  3.6 -4.6 0  3.699999999999999 -4.6 0  3.800000000000001 -4.6 0  3.9 -4.6 0  4 -4.6 0  4.1 -4.6 0  4.199999999999999 -4.6 0  4.300000000000001 -4.6 0  4.4 -4.6 0  4.5 -4.6 0  4.6 -4.6 0  4.699999999999999 -4.6 0  4.800000000000001 -4.6 0  4.9 -4.6 0  5 -4.6 0  -5 -4.5 0  -4.9 -4.5 0  -4.8 -4.5 0  -4.7 -4.5 0  -4.6 -4.5 0  -4.5 -4.5 0  -4.4 -4.5 0  -4.3 -4.5 0  -4.2 -4.5 0  -4.1 -4.5 0  -4 -4.5 0  -3.9 -4.5 0  -3.8 -4.5 0  -3.7 -4.5 0  -3.6 -4.5 0  -3.5 -4.5 0  -3.4 -4.5 0  -3.3 -4.5 0  -3.2 -4.5 0  -3.1 -4.5 0  -3 -4.5 0  -2.9 -4.5 0  -2.8 -4.5 0  -2.7 -4.5 0  -2.6 -4.5 0  -2.5 -4.5 0  -2.4 -4.5 0  -2.3 -4.5 0  -2.2 -4.5 0  -2.1 -4.5 0  -2 -4.5 0  -1.9 -4.5 0  -1.8 -4.5 0  -1.7 -4.5 0  -1.6 -4.5 0  -1.5 -4.5 0  -1.4 -4.5 0  -1.3 -4.5 0  -1.2 -4.5 0  -1.1 -4.5 0  -1 -4.5 0  -0.9000000000000004 -4.5 0  -0.7999999999999998 -4.5 0  -0.7000000000000002 -4.5 0  -0.5999999999999996 -4.5 0  -0.5 -4.5 0  -0.4000000000000004 -4.5 0  -0.2999999999999998 -4.5 0  -0.2000000000000002 -4.5 0  -0.09999999999999964 -4.5 0  0 -4.5 0  0.09999999999999964 -4.5 0  0.2000000000000002 -4.5 0  0.2999999999999998 -4.5 0  0.4000000000000004 -4.5 0  0.5 -4.5 0  0.5999999999999996 -4.5 0  0.7000000000000002 -4.5 0  0.7999999999999998 -4.5 0  0.9000000000000004 -4.5 0  1 -4.5 0  1.1 -4.5 0  1.2 -4.5 0  1.3 -4.5 0  1.4 -4.5 0  1.5 -4.5 0  1.6 -4.5 0  1.7 -4.5 0  1.8 -4.5 0  1.9 -4.5 0  2 -4.5 0  2.1 -4.5 0  2.2 -4.5 0  2.3 -4.5 0  2.4 -4.5 0  2.5 -4.5 0  2.6 -4.5 0  2.7 -4.5 0  2.8 -4.5 0  2.9 -4.5 0  3 -4.5 0  3.1 -4.5 0  3.199999999999999 -4.5 0  3.300000000000001 -4.5 0  3.4 -4.5 0  3.5 -4.5 0  3.6 -4.5 0  3.699999999999999 -4.5 0  3.800000000000001 -4.5 0  3.9 -4.5 0  4 -4.5 0  4.1 -4.5 0  4.199999999999999 -4.5 0  4.300000000000001 -4.5 0  4.4 -4.5 0  4.5 -4.5 0  4.6 -4.5 0  4.699999999999999 -4.5 0  4.800000000000001 -4.5 0  4.9 -4.5 0  5 -4.5 0  -5 -4.4 0  -4.9 -4.4 0  -4.8 -4.4 0  -4.7 -4.4 0  -4.6 -4.4 0  -4.5 -4.4 0  -4.4 -4.4 0  -4.3 -4.4 0  -4.2 -4.4 0  -4.1 -4.4 0  -4 -4.4 0  -3.9 -4.4 0  -3.8 -4.4 0  -3.7 -4.4 0  -3.6 -4.4 0  -3.5 -4.4 0  -3.4 -4.4 0  -3.3 -4.4 0  -3.2 -4.4 0  -3.1 -4.4 0  -3 -4.4 0  -2.9 -4.4 0  -2.8 -4.4 0  -2.7 -4.4 0  -2.6 -4.4 0  -2.5 -4.4 0  -2.4 -4.4 0  -2.3 -4.4 0  -2.2 -4.4 0  -2.1 -4.4 0  -2 -4.4 0  -1.9 -4.4 0  -1.8 -4.
[...]
<PointData  Scalars="r"> 
<DataArray  type="Float64"  Name="r"  format="ascii">1.0420751699662749e+00  1.0946916853427580e+00  1.1369409125762686e+00  1.2363714783337718e+00  1.1493556558010594e+00  1.0109256258444979e+00  9.7950504893322554e-01  9.8469295964208914e-01  9.9094922025629617e-01  9.9515122963231328e-01  1.0032351450720718e+00  1.0199699181962338e+00  1.0297045805249370e+00  1.0294397242577435e+00  1.0205671068939652e+00  1.0055591581668248e+00  9.9162833134941852e-01  9.8072618803149125e-01  9.7052143586026307e-01  9.6250867199949963e-01  9.6260841476649794e-01  9.5709702793833673e-01  9.5729480653309473e-01  9.5107403799401935e-01  9.4173601525624628e-01  9.4077386156095966e-01  9.3496528995911532e-01  9.3416737622499124e-01  9.3439473370996706e-01  9.3014589492498678e-01  9.3267874061172162e-01  9.3754173253501949e-01  9.4085427606951255e-01  9.5466266735857852e-01  9.5953782539137311e-01  9.7051240864798105e-01  9.7762204376372930e-01  9.8350439359129871e-01  9.8873112055625589e-01  9.9422907022239315e-01  9.9497140352474778e-01  9.9863849419178374e-01  1.0002894194560632e+00  9.9913908232806437e-01  1.0058694421497287e+00  1.0002844651542080e+00  1.0104733084814024e+00  1.0029075283086808e+00  1.0148527618318088e+00  1.0050605889053728e+00  1.0188709511044671e+00  1.0080200307046652e+00  1.0210862023793676e+00  1.0121153435287886e+00  1.0206176592098091e+00  1.0177609709115716e+00  1.0168580513621368e+00  1.0236693005496620e+00  1.0110835050859177e+00  1.0270781119062051e+00  1.0009843050952154e+00  1.0236135525688024e+00  9.8459726746831744e-01  1.0090506081077089e+00  9.6219690702871219e-01  9.8555100854514999e-01  9.4449364313536921e-01  9.6274326995766868e-01  9.4282167453980270e-01  9.4745982120544225e-01  9.5678672828276168e-01  9.3506566293001514e-01  9.7537950901923098e-01  9.2332583811532387e-01  9.9382663648664227e-01  9.1271418973554386e-01  1.0075933828251584e+00  9.0416414857327565e-01  1.0105364941885380e+00  8.9600968775757039e-01  1.0121624166012144e+00  9.0378113178794550e-01  1.0304528283641188e+00  9.3513316053702755e-01  1.0549821184413855e+00  9.4378224380356790e-01  1.0541808379363162e+00  9.4004983497593830e-01  1.0535183355473998e+00  9.2292421969052008e-01  1.0179758988943739e+00  8.6177942237112304e-01  1.0220394150191692e+00  1.0343683917407933e+00  1.3525323013022907e+00  1.3116433226326978e+00  1.1732989239959006e+00  9.9153976757959439e-01  1.0074246688759907e+00  9.7923624449048430e-01  1.0903722940657046e+00  1.0946916853427628e+00  1.1465633700638385e+00  1.1397603983429325e+00  1.1323529037629392e+00  1.1191898313884392e+00  1.0651816778327214e+00  9.9109777197388671e-01  9.8345491570315802e-01  9.8746829586404306e-01  9.9620951379531286e-01  1.0066782641179963e+00  1.0144482346762962e+00  1.0223926927267959e+00  1.0211169538640574e+00  1.0171420744509378e+00  1.0066269703342912e+00  9.9364340338570067e-01  9.7964018632082528e-01  9.7038871892296674e-01  9.6249807202479698e-01  9.5843722630568573e-01  9.5289637846679720e-01  9.4781810764235785e-01  9.4804698310828517e-01  9.4627217376719042e-01  9.4628707491367137e-01  9.4220013833714766e-01  9.3642164863565769e-01  9.3566726530489230e-01  9.3540910025071500e-01  9.4022060013424180e-01  9.4608100450719923e-01  9.5063637930310529e-01  9.5773461649593117e-01  9.6340101974243619e-01  9.6945192910520062e-01  9.7658917155018354e-01  9.8071741230997267e-01  9.8529876542550165e-01  9.8765924802078231e-01  9.8924525473039282e-01  9.9030728172423232e-01  9.9162659521882590e-01  9.9105857970301425e-01  9.9277987181071037e-01  9.9169572825083818e-01  9.9314245693626746e-01  9.9234222003260664e-01  9.9379494896159148e-01  9.9348645932945734e-01  9.9410110096798554e-01  9.9502730678911899e-01  9.9334978501008109e-01  9.9668599211022779e-01  9.9170598674078325e-01  9.9747558461567143e-01  9.9040820760897408e-01  9.9777358908118530e-01  9.8764293507126977e-01  9.9648943689511282e-01  9.8558442063908891e-01  9.9208197451535385e-01  9.8348212725702056e-01  9.8417549434082918e-01  9.8061110143244667e-01  9.6953443775140802e-01  9.7235771998690546e-01  9.4800461500903033e-01  9.6099348219479974e-01  9.2684087181016717e-01  9.5692426288298660e-01  9.1808599419736681e-01  9.6207403271026415e-01  9.2044804066107322e-01  9.6836249060391488e-01  9.2832910992524542e-01  9.7147364413957848e-01  9.4041327633747573e-01  9.7435953500405970e-01  9.5777344340478032e-01  9.7810491963625734e-01  9.7267382465122276e-01  9.7955664021810740e-01  9.8139379569416807e-01  9.8350449545902241e-01  9.9603824457165391e-01  9.9154358022284650e-01  9.8159984605443351e-01  9.6638594203935468e-01  9.5787791896036312e-01  9.7506545829675617e-01  9.8615093053995595e-01  1.0587674777295253e+00  1.0568756175257821e+00  1.1936231906170578e+00  1.2122632564988114e+00  1.2887818278139964e+00  1.0422249074492944e+00  1.0172011057659411e+00  9.1985776656913298e-01  9.7923624448999069e-01  1.1369409125762686e+00  1.1397603983429310e+00  1.1884092386497023e+00  1.1127436606259558e+00  1.0749194423114390e+00  1.0805499207540286e+00  1.0407196667447471e+00  9.8946943191114389e-01  9.9136082289715199e-01  1.0107390879180116e+00  1.0142395486720679e+00  1.0129343753335214e+00  1.0038589243496723e+00  9.9807049311102780e-01  9.9831601962909799e-01  9.9580633595604995e-01  9.9344312792348111e-01  9.9004152618460051e-01  9.8342739391203893e-01  9.7638168497954503e-01  9.6839342350259161e-01  9.5721146600078655e-01  9.5353500012383252e-01  9.4822840121067631e-01  9.4254475052810827e-01  9.4277387871739327e-01  9.3921881146536190e-01  9.4418958160879829e-01  9.5084863402350406e-01  9.5421451221256759e-01  9.5913168917996028e-01  9.6208051593366917e-01  9.6128211907831240e-01  9.6791214975800877e-01  9.6671597609080218e-01  9.7018853783105330e-01  9.7019088409448240e-01  9.7065188428276816e-01  9.7028110448095550e-01  9.7314436516853242e-01  9.7208902323946045e-01  9.7481397385449020e-01  9.7559860247670782e-01  9.7361905423342043e-01  9.7742762884687506e-01  9.7148396124121328e-01  9.7710119632367221e-01  9.6811494959244060e-01  9.7578416256062761e-01  9.6319966428015313e-01  9.7421201673232760e-01  9.5881969754604190e-01  9.7074106048767805e-01  9.5682258984980739e-01  9.6591939995333687e-01  9.5615063721173055e-01  9.5911319095836711e-01  9.5605910476159806e-01  9.5183789257924400e-01  9.5721495523301436e-01  9.4490211202526619e-01  9.6105134467156783e-01  9.4330764946225898e-01  9.6758706155299279e-01  9.4954710020102495e-01  9.7754735539389592e-01  9.6151343127596345e-01  9.8229004395212893e-01  9.6680657975310147e-01  9.7090739730982167e-01  9.5680002861288671e-01  9.4824153080608187e-01  9.4790176330054166e-01  9.3380847148575508e-01  9.4782959557374491e-01  9.3176984452975631e-01  9.5070977411524593e-01  9.3883044551979455e-01  9.5560572659669851e-01  9.5743949206508128e-01  9.6549091829774270e-01  9.8576365122883947e-01  9.7817752217461007e-01  1.0063015360449485e+00  9.7431851769518862e-01  1.0021110203188095e+00  9.5334763713381643e-01  1.0027269421083109e+00  9.5914053900035579e-01  1.0163820483328059e+00  9.6376769523824823e-01  1.0516127222240244e+00  1.0212303765253585e+00  1.1390954453322022e+00  1.0858837563885670e+00  1.1582311336959406e+00  1.1092078345206946e+00  1.1108442339222071e+00  9.9769247243530179e-01  1.0172011057668697e+00  1.0074246688770689e+00  1.2363714783337652e+00  1.1323529037629392e+00  1.1127436606259598e+00  1.0451439461274179e+00  1.0466911959801446e+00  1.0720907049192530e+00  1.1029593932106256e+00  1.0479416589612864e+00  1.0059820180519601e+00  1.0050294692031212e+00  1.0049979270944092e+00  9.9457884957980591e-01  9.8725205625540746e-01  9.8157477804560189e-01  9.8255179326094111e-01  9.8507088638484386e-01  9.9141984743388967e-01  9.9316351195541219e-01  9.9112233700850638e-01  9.8066274591369107e-01  9.7335786974665650e-01  9.6469047594149282e-01  9.5770347129961952e-01  9.5391952263008584e-01  9.4789043952300767e-01  9.4829414155957081e-01  9.5214688460396002e-01  9.5515404647741908e-01  9.6303758378000426e-01  9.6529265018230015e-01  9.6817398026061974e-01  9.7205922523614086e-01  9.7078244626045507e-01  9.7153178602555135e-01  9.6891413902789070e-01  9.6385702415758634e-01  9.6269920840874723e-01  9.5926522263105951e-01  9.5901471254424275e-01  9.6036224981250118e-01  9.6065925562670418e-01  9.6190960705416551e-01  9.6518412509054352e-01  9.6444878410483759e-01  9.6888671670971993e-01  9.6717892442559517e-01  9.6975932207244209e-01  9.6829164877987739e-01  9.6940594658214096e-01  9.6780154618292902e-01  9.6741233895305911e-01  9.6807562694689164e-01  9.6378340299976040e-01  9.6825834555726531e-01  9.5894390139785268e-01  9.6816856623547809e-01  9.5399831688501102e-01  9.6744344814052241e-01  9.4992165596961808e-01  9.6505331989404175e-01  9.4795898640977927e-01  9.6003198162991621e-01  9.4950958394978158e-01  9.5342919606298804e-01  9.5639285818435338e-01  9.4855873112880673e-01  9.7146171552056981e-01  9.5075255674376780e-01  9.9424544184008035e-01  9.5707196799875849e-01  1.0087472752286568e+00  9.5088678628952461e-01  9.9788160685372940e-01  9.3609775340475598e-01  9.8295854058310517e-01  9.3856105756454677e-01  9.7885709731196391e-01  9.5699161568443036e-01  9.7659353668659810e-01  9.7259864307572397e-01  9.6802699074915466e-01  9.7500393379960115e-01  9.5105687402006922e-01  9.7204605855912041e-01  9.5056678871840083e-01  9.8505700053323308e-01  9.7170477816457645e-01  9.9807776598828823e-01  9.7770424303322789e-01  1.0042154595281414e+00  1.0177262731228296e+00  1.0813574406759572e+00  1.1019322590655314e+00  1.1404834878623387e+00  1.0257858321361957e+00  9.8560110926422739e-01  9.7409041289908349e-01  1.1486127191874371e+00  1.1108442339235332e+00  1.0422249074512251e+00  9.9153976757846052e-01  1.1493556558010647e+00  1.1191898313884390e+00  1.0749194423114385e+00  1.0466911959801453e+00  1.0777351382630835e+00  1.0844660690056371e+00  1.1172051074069635e+00  1.1171503992781318e+00  1.0386080308729111e+00  9.8573317479350675e-01  9.8118778337365475e-01  9.8170556699304001e-01  9.8125207975230311e-01  9.8183795372212235e-01  9.8055442628060407e-01  9.8038306464900926e-01  9.7889756816973539e-01  9.8264814292075275e-01  9.7931151412500095e-01  9.8156961490025019e-01  9.7815615631125474e-01  9.7516576683408385e-01  9.7235874925166965e-01  9.6763333798625506e-01  9.6616115126040980e-01  9.6890774815117919e-01  9.7126754481847211e-01  9.7457105036727598e-01  9.7704557748535026e-01  9.7621502163209717e-01  9.7620479128657034e-01  9.7675228862055741e-01  9.7130760374469682e-01  9.7058558752709112e-01  9.6455223622250996e-01  9.6125958090229813e-01  9.5987243410941725e-01  9.5937119544786986e-01  9.5758623890949246e-01  9.6159554640985534e-01  9.5927019314754336e-01  9.6314824293788115e-01  9.6517899669059792e-01  9.6527692745641780e-01  9.7067065389571017e-01  9.6948895175802585e-01  9.7514349178475834e-01  9.7259288397647647e-01  9.8041897488823471e-01  9.7352914608826602e-01  9.8397331620993589e-01  9.7440458791787665e-01  9.8413135587326595e-01  9.7598041393152968e-01  9.8300557621928231e-01  9.7749671581649700e-01  9.8234817254623852e-01  9.7931781155878339e-01  9.8116168917752256e-01  9.8165422760690346e-01  9.8042271921311785e-01  9.8209264157584952e-01  9.7932472824524597e-01  9.7860703358180723e-01  9.7537800898585247e-01  9.7005909286297276e-01  9.6677267575906389e-01  9.6083749771296678e-01  9.6005557451681978e-01  9.6355864328419738e-01  9.6578733586990184e-01  9.8203605264538207e-01  9.7073582929466351e-01  9.9124557508386024e-01  9.5038275279476570e-01  9.8958512242697638e-01  9.3150325304853354e-01  1.0027653526503202e+00  9.2993278494382137e-01  1.0216489120643393e+00  9.3365443262686265e-01  1.0285688006151998e+00  9.3442176207384431e-01  1.0148007813147037e+00  9.1751795704256023e-01  9.8602510255512066e-01  9.2480252722954526e-01  1.0120167203094863e+00  9.9997106599768804e-01  1.0741112507554587e+00  1.0464894535664189e+00  1.0903657499226254e+00  1.0864156870941422e+00  1.0737561941649194e+00  1.0119706158294848e+00  9.7858144493388899e-01  9.0526034218573925e-01  9.7409041289818610e-01  1.1092078345199901e+00  1.2887818278157113e+00  1.1732989239940792e+00  1.0109256258444994e+00  1.0651816778327172e+00  1.0805499207540255e+00  1.0720907049192550e+00  1.0844660690056338e+00  1.0918527108181595e+00  1.0940503408974591e+00  1.1465581726740826e+00  1.0943127384868454e+00  1.0000305247224037e+00  9.7359542401706523e-01  9.7524698473377647e-01  9.7803152835511020e-01  9.7149297415836322e-01  9.6930454546765321e-01  9.6839270631978491e-01  9.6791194830561356e-01  9.6948247254792363e-01  9.7399572449032989e-01  9.8094273401386478e-01  9.8574193227885010e-01  9.8574713516718204e-01  9.8207119050930625e-01  9.8304770140121245e-01  9.8376553245656750e-01  9.8762177755413927e-01  9.9031269208395867e-01  9.8682626182663979e-01  9.8803141748320222e-01  9.8410103615500533e-01  9.7975870283603239e-01  9.7712446599098846e-01  9.6873520002882374e-01  9.6556595721839633e-01  9.6489283935942249e-01  9.6222379424649285e-01  9.6743698482705065e-01  9.6738338574027372e-01  9.6890475072588844e-01  9.7149615679766776e-01  9.7094956033078084e-01  9.7076363571423552e-01  9.7347664630025088e-01  9.6931254365590624e-01  9.7377537111033674e-01  9.7045497764914712e-01  9.7326337990719902e-01  9.7176473962336085e-01  9.7409658464374682e-01  9.7236490964311317e-01  9.7450520349818681e-01  9.7438041806729736e-01  9.7196392115284447e-01  9.7731793742557016e-01  9.6811826227491526e-01  9.7914842480594755e-01  9.6410250149042631e-01  9.8015905130647996e-01  9.6190751928183027e-01  9.8040633255338017e-01  9.6261064048990785e-01  9.7953724988920010e-01  9.6791471202898827e-01  9.7753250557212801e-01  9.7681966177788193e-01  9.7533406124135791e-01  9.8639976725089928e-01  9.7142698124711735e-01  9.8922810732421518e-01  9.6671948798013552e-01  9.8947004476310818e-01  9.7630607601591646e-01  1.0032717843993786e+00  1.0036416591786375e+00  1.0116513834232110e+00  1.0057895054784671e+00  9.7914663091162635e-01  9.7893632530894725e-01  9.4767781592893019e-01  9.6158937777224784e-01  9.4069547187166824e-01  9.5114840678886325e-01  9.5138765577461570e-01  9.5038718132321287e-01  9.8953967993877245e-01  9.7436596048552371e-01  1.0263661696108004e+00  9.7601149752998484e-01  1.0284493046297472e+00  9.9437744957952257e-01  1.1104457315972127e+00  1.1198953309086437e+00  1.1392780656083092e+00  9.9504156534214183e-01  9.5139735802704595e-01  8.5557481314127792e-01  9.7858144493519450e-01  9.8560110926393463e-01  1.1582311336974607e+00  1.2122632564970461e+00  1.3116433226333146e+00  9.7950504893322454e-01  9.9109777197388760e-01  1.0407196667447436e+00  1.1029593932106203e+00  1.1172051074069682e+00  1.0940503408974633e+00  1.0687821870984087e+00  1.1120295061482190e+00  1.1473372332188876e+00  1.0808591273255423e+00  9.8072970789526293e-01  9.6018970263704273e-01  9.5715770495037789e-01  9.5930620151901658e-01  9.6294818404483251e-01  9.6599309739801198e-01  9.6681364539153791e-01  9.7136678679816402e-01  9.7083779437168638e-01  9.7418359444447844e-01  9.7478386417242247e-01  9.8092327553066150e-01  9.9290976459592928e-01  1.0033263453063250e+00  1.0087547663073682e+00  1.0098147268170592e+00  1.0054014000670903e+00  1.0004867541305129e+00  9.9379977604257441e-01  9.8396057522502389e-01  9.7389937419787176e-01  9.6921935560556938e-01  9.6492057520805696e-01  9.6919189177648124e-01  9.7269151165530876e-01  9.7519826811418719e-01  9.7797347368675813e-01  9.7910678128092254e-01  9.7605659157751956e-01  9.7879019261543077e-01  9.7366066668881823e-01  9.7317538611649412e-01  9.7247700987203312e-01  9.6912807668164958e-01  9.6998392999262928e-01  9.6814685623285568e-01  9.6873858279470182e-01  9.6673674230962159e-01  9.7059993125421906e-01  9.6543043731149325e-01  9.7207205198950142e-01  9.6621426305116642e-01  9.7167876192865210e-01  9.6790119752241532e-01  9.7143950157022707e-01  9.6865820836096650e-01  9.7165516097861371e-01  9.6975077749139005e-01  9.7121016456673692e-01  9.6942708105287412e-01  9.7293971975649807e-01  9.6793434592998229e-01  9.7756390308970287e-01  9.6779776087907099e-01  9.8532001247994916e-01  9.7216911636960224e-01  9.9494440923208216e-01  9.8162622315614723e-01  1.0031804325644056e+00  9.8960224328543644e-01  9.9473074837757580e-01  9.8652995424419532e-01  9.7523643999494170e-01  9.9414614711970095e-01  9.8058864610310714e-01  1.0238286300546027e+00  9.9444704658172545e-01  1.0217195071059459e+00  9.7396266597843550e-01  9.8713065048379445e-01  9.6007553143569402e-01  9.5660007816807013e-01  9.6295996971843367e-01  9.2983885463147020e-01  9.7739873783879005e-01  9.3099816750364295e-01  1.0277373134777090e+00  9.8512214327589964e-01  1.0983521345509186e+00  1.0431934824851452e+00  1.1498782013194404e+00  1.0186325145612130e+00  1.0412743574175940e+00  9.1051285277109550e-01  9.8695063181595288e-01  9.5139735802746994e-01  1.0119706158294808e+00  1.0257858321373752e+00  1.0858837563874317e+00  1.1936231906170056e+00  1.3525323013016264e+00  9.8469295964209114e-01  9.8345491570315724e-01  9.8946943191114300e-01  1.0479416589612871e+00  1.1171503992781247e+00  1.1465581726740794e+00  1.1120295061482177e+00  1.0703393159176953e+00  1.0918691758482020e+00  1.1513626719749726e+00  1.0359752624474483e+00  9.5930395999548834e-01  9.5691016973032261e-01  9.6215708416715640e-01  9.6489782930053980e-01  9.6516289035908509e-01  9.6312516264196402e-01  9.6375186450597694e-01  9.6094057762520246e-01  9.6258427621079179e-01  9.7259239668892217e-01  9.8665663017441707e-01  1.0051084544343907e+00  1.0168545016057506e+00  1.0228741071099727e+00  1.0232746523194560e+00  1.0158168751514935e+00  1.0033694311827814e+00  9.9163799041327905e-01  9.8229778581906924e-01  9.8017472598720390e-01  9.8451617760011578e-01  9.8613734126396069e-01  9.8696512755949906e-01  9.8637557254111119e-01  9.8013259547255716e-01  9.7883165153802032e-01  9.7511731435046023e-01  9.7036896479214030e-01  9.7004934413115729e-01  9.6776936376674216e-01  9.6477422248687816e-01  9.6959001463666850e-01  9.6402170944998200e-01  9.6938429269278337e-01  9.6677402832452919e-01  9.6935900086311122e-01  9.6726277963225094e-01  9.7196644885862082e-01  9.6720894883936515e-01  9.7286023555945778e-01  9.7156481662845529e-01  9.7203178884766805e-01  9.7788565575830733e-01  9.7303965811166915e-01  9.8415878969031101e-01  9.7538157373283851e-01  9.9056558856756616e-01  9.7772010559238953e-01  9.9711911608893611e-01  9.8170658641782838e-01  9.9952552154527186e-01  9.8755837535560087e-01  9.9881862820262690e-01  9.9175572647524091e-01  9.9673858190825049e-01  9.9326567581512792e-01  9.9684264238080578e-01  9.9471955836970549e-01  1.0047027194584264e+00  9.9895382306762559e-01  1.0117532711311665e+00  9.8416282758239670e-01  9.9464700441782283e-01  9.5465339541844485e-01  9.8230496314231908e-01  9.5975398067156747e-01  9.9090054782799186e-01  9.7096267357683663e-01  9.6748368123468498e-01  9.6237436031205470e-01  9.4809603269661691e-01  9.9000852755238133e-01  9.7701844523038162e-01  1.0425122708920174e+00  1.0130549896375476e+00  1.0390435172632679e+00  9.8225556588074259e-01  9.9607916762526338e-01  1.0280491244244510e+00  1.0656781540690268e+00  1.0766857857009398e+00  1.0057974075191349e+00  9.6977648809378758e-01  9.1051285277073291e-01  9.9504156534449495e-01  1.0737561941657532e+00  1.1404834878618069e+00  1.1390954453326403e+00  1.0568756175249456e+00  1.0343683917410498e+00  9.9094922025628984e-01  9.8746829586404183e-01  9.9136082289715510e-01  1.0059820180519579e+00  1.0386080308729055e+00  1.0943127384868423e+00  1.1473372332188909e+00  1.0918691758482042e+00  1.0279994561969115e+00  1.1107181614316264e+00  1.1372933856907785e+00  1.0411524701081325e+00  9.7914648612614619e-01  9.6498154209644926e-01  9.5449875657517447e-01  9.4884364543841160e-01  9.5055762365150986e-01  9.5384945551020872e-01  9.6064643965956120e-01  9.7698789177999223e-01  9.9073110770152073e-01  1.0010659785044114e+00  1