<?xml version="1.0"?>
<VTKFile type="UnstructuredGrid"  version="0.1"  >
<UnstructuredGrid>
<Piece  NumberOfPoints="10201" NumberOfCells="20000">
<Points>
<DataArray  type="Float64"  NumberOfComponents="3"  format="ascii">-5 -5 0  -4.9 -5 0  -4.8 -5 0  -4.7 -5 0  -4.6 -5 0  -4.5 -5 0  -4.4 -5 0  -4.3 -5 0  -4.2 -5 0  -4.1 -5 0  -4 -5 0  -3.9 -5 0  -3.8 -5 0  -3.7 -5 0  -3.6 -5 0  -3.5 -5 0  -3.4 -5 0  -3.3 -5 0  -3.2 -5 0  -3.1 -5 0  -3 -5 0  -2.9 -5 0  -2.8 -5 0  -2.7 -5 0  -2.6 -5 0  -2.5 -5 0  -2.4 -5 0  -2.3 -5 0  -2.2 -5 0  -2.1 -5 0  -2 -5 0  -1.9 -5 0  -1.8 -5 0  -1.7 -5 0  -1.6 -5 0  -1.5 -5 0  -1.4 -5 0  -1.3 -5 0  -1.2 -5 0  -1.1 -5 0  -1 -5 0  -0.9000000000000004 -5 0  -0.7999999999999998 -5 0  -0.7000000000000002 -5 0  -0.5999999999999996 -5 0  -0.5 -5 0  -0.4000000000000004 -5 0  -0.2999999999999998 -5 0  -0.2000000000000002 -5 0  -0.09999999999999964 -5 0  0 -5 0  0.09999999999999964 -5 0  0.2000000000000002 -5 0  0.2999999999999998 -5 0  0.4000000000000004 -5 0  0.5 -5 0  0.5999999999999996 -5 0  0.7000000000000002 -5 0  0.7999999999999998 -5 0  0.9000000000000004 -5 0  1 -5 0  1.1 -5 0  1.2 -5 0  1.3 -5 0  1.4 -5 0  1.5 -5 0  1.6 -5 0  1.7 -5 0  1.8 -5 0  1.9 -5 0  2 -5 0  2.1 -5 0  2.2 -5 0  2.3 -5 0  2.4 -5 0  2.5 -5 0  2.6 -5 0  2.7 -5 0  2.8 -5 0  2.9 -5 0  3 -5 0  3.1 -5 0  3.199999999999999 -5 0  3.300000000000001 -5 0  3.4 -5 0  3.5 -5 0  3.6 -5 0  3.699999999999999 -5 0  3.800000000000001 -5 0  3.9 -5 0  4 -5 0  4.1 -5 0  4.199999999999999 -5 0  4.300000000000001 -5 0  4.4 -5 0  4.5 -5 0  4.6 -5 0  4.699999999999999 -5 0  4.800000000000001 -5 0  4.9 -5 0  5 -5 0  -5 -4.9 0  -4.9 -4.9 0  -4.8 -4.9 0  -4.7 -4.9 0  -4.6 -4.9 0  -4.5 -4.9 0  -4.4 -4.9 0  -4.3 -4.9 0  -4.2 -4.9 0  -4.1 -4.9 0  -4 -4.9 0  -3.9 -4.9 0  -3.8 -4.9 0  -3.7 -4.9 0  -3.6 -4.9 0  -3.5 -4.9 0  -3.4 -4.9 0  -3.3 -4.9 0  -3.2 -4.9 0  -3.1 -4.9 0  -3 -4.9 0  -2.9 -4.9 0  -2.8 -4.9 0  -2.7 -4.9 0  -2.6 -4.9 0  -2.5 -4.9 0  -2.4 -4.9 0  -2.3 -4.9 0  -2.2 -4.9 0  -2.1 -4.9 0  -2 -4.9 0  -1.9 -4.9 0  -1.8 -4.9 0  -1.7 -4.9 0  -1.6 -4.9 0  -1.5 -4.9 0  -1.4 -4.9 0  -1.3 -4.9 0  -1.2 -4.9 0  -1.1 -4.9 0  -1 -4.9 0  -0.9000000000000004 -4.9 0  -0.7999999999999998 -4.9 0  -0.7000000000000002 -4.9 0  -0.5999999999999996 -4.9 0  -0.5 -4.9 0  -0.4000000000000004 -4.9 0  -0.2999999999999998 -4.9 0  -0.2000000000000002 -4.9 0  -0.09999999999999964 -4.9 0  0 -4.9 0  0.09999999999999964 -4.9 0  0.2000000000000002 -4.9 0  0.2999999999999998 -4.9 0  0.4000000000000004 -4.9 0  0.5 -4.9 0  0.5999999999999996 -4.9 0  0.7000000000000002 -4.9 0  0.7999999999999998 -4.9 0  0.9000000000000004 -4.9 0  1 -4.9 0  1.1 -4.9 0  1.2 -4.9 0  1.3 -4.9 0  1.4 -4.9 0  1.5 -4.9 0  1.6 -4.9 0  1.7 -4.9 0  1.8 -4.9 0  1.9 -4.9 0  2 -4.9 0  2.1 -4.9 0  2.2 -4.9 0  2.3 -4.9 0  2.4 -4.9 0  2.5 -4.9 0  2.6 -4.9 0  2.7 -4.9 0  2.8 -4.9 0  2.9 -4.9 0  3 -4.9 0  3.1 -4.9 0  3.199999999999999 -4.9 0  3.300000000000001 -4.9 0  3.4 -4.9 0  3.5 -4.9 0  3.6 -4.9 0  3.699999999999999 -4.9 0  3.800000000000001 -4.9 0  3.9 -4.9 0  4 -4.9 0  4.1 -4.9 0  4.199999999999999 -4.9 0  4.300000000000001 -4.9 0  4.4 -4.9 0  4.5 -4.9 0  4.6 -4.9 0  4.699999999999999 -4.9 0  4.800000000000001 -4.9 0  4.9 -4.9 0  5 -4.9 0  -5 -4.8 0  -4.9 -4.8 0  -4.8 -4.8 0  -4.7 -4.8 0  -4.6 -4.8 0  -4.5 -4.8 0  -4.4 -4.8 0  -4.3 -4.8 0  -4.2 -4.8 0  -4.1 -4.8 0  -4 -4.8 0  -3.9 -4.8 0  -3.8 -4.8 0  -3.7 -4.8 0  -3.6 -4.8 0  -3.5 -4.8 0  -3.4 -4.8 0  -3.3 -4.8 0  -3.2 -4.8 0  -3.1 -4.8 0  -3 -4.8 0  -2.9 -4.8 0  -2.8 -4.8 0  -2.7 -4.8 0  -2.6 -4.8 0  -2.5 -4.8 0  -2.4 -4.8 0  -2.3 -4.8 0  -2.2 -4.8 0  -2.1 -4.8 0  -2 -4.8 0  -1.9 -4.8 0  -1.8 -4.8 0  -1.7 -4.8 0  -1.6 -4.8 0  -1.5 -4.8 0  -1.4 -4.8 0  -1.3 -4.8 0  -1.2 -4.8 0  -1.1 -4.8 0  -1 -4.8 0  -0.9000000000000004 -4.8 0  -0.7999999999999998 -4.8 0  -0.7000000000000002 -4.8 0  -0.5999999999999996 -4.8 0  -0.5 -4.8 0  -0.4000000000000004 -4.8 0  -0.2999999999999998 -4.8 0  -0.2000000000000002 -4.8 0  -0.09999999999999964 -4.8 0  0 -4.8 0  0.09999999999999964 -4.8 0  0.2000000000000002 -4.8 0  0.2999999999999998 -4.8 0  0.4000000000000004 -4.8 0  0.5 -4.8 0  0.5999999999999996 -4.8 0  0.7000000000000002 -4.8 0  0.7999999999999998 -4.8 0  0.9000000000000004 -4.8 0  1 -4.8 0  1.1 -4.8 0  1.2 -4.8 0  1.3 -4.8 0  1.4 -4.8 0  1.5 -4.8 0  1.6 -4.8 0  1.7 -4.8 0  1.8 -4.8 0  1.9 -4.8 0  2 -4.8 0  2.1 -4.8 0  2.2 -4.8 0  2.3 -4.8 0  2.4 -4.8 0  2.5 -4.8 0  2.6 -4.8 0  2.7 -4.8 0  2.8 -4.8 0  2.9 -4.8 0  3 -4.8 0  3.1 -4.8 0  3.199999999999999 -4.8 0  3.300000000000001 -4.8 0  3.4 -4.8 0  3.5 -4.8 0  3.6 -4.8 0  3.699999999999999 -4.8 0  3.800000000000001 -4.8 0  3.9 -4.8 0  4 -4.8 0  4.1 -4.8 0  4.199999999999999 -4.8 0  4.300000000000001 -4.8 0  4.4 -4.8 0  4.5 -4.8 0  4.6 -4.8 0  4.699999999999999 -4.8 0  4.800000000000001 -4.8 0  4.9 -4.8 0  5 -4.8 0  -5 -4.7 0  -4.9 -4.7 0  -4.8 -4.7 0  -4.7 -4.7 0  -4.6 -4.7 0  -4.5 -4.7 0  -4.4 -4.7 0  -4.3 -4.7 0  -4.2 -4.7 0  -4.1 -4.7 0  -4 -4.7 0  -3.9 -4.7 0  -3.8 -4.7 0  -3.7 -4.7 0  -3.6 -4.7 0  -3.5 -4.7 0  -3.4 -4.7 0  -3.3 -4.7 0  -3.2 -4.7 0  -3.1 -4.7 0  -3 -4.7 0  -2.9 -4.7 0  -2.8 -4.7 0  -2.7 -4.7 0  -2.6 -4.7 0  -2.5 -4.7 0  -2.4 -4.7 0  -2.3 -4.7 0  -2.2 -4.7 0  -2.1 -4.7 0  -2 -4.7 0  -1.9 -4.7 0  -1.8 -4.7 0  -1.7 -4.7 0  -1.6 -4.7 0  -1.5 -4.7 0  -1.4 -4.7 0  -1.3 -4.7 0  -1.2 -4.7 0  -1.1 -4.7 0  -1 -4.7 0  -0.9000000000000004 -4.7 0  -0.7999999999999998 -4.7 0  -0.7000000000000002 -4.7 0  -0.5999999999999996 -4.7 0  -0.5 -4.7 0  -0.4000000000000004 -4.7 0  -0.2999999999999998 -4.7 0  -0.2000000000000002 -4.7 0  -0.09999999999999964 -4.7 0  0 -4.7 0  0.09999999999999964 -4.7 0  0.2000000000000002 -4.7 0  0.2999999999999998 -4.7 0  0.4000000000000004 -4.7 0  0.5 -4.7 0  0.5999999999999996 -4.7 0  0.7000000000000002 -4.7 0  0.7999999999999998 -4.7 0  0.9000000000000004 -4.7 0  1 -4.7 0  1.1 -4.7 0  1.2 -4.7 0  1.3 -4.7 0  1.4 -4.7 0  1.5 -4.7 0  1.6 -4.7 0  1.7 -4.7 0  1.8 -4.7 0  1.9 -4.7 0  2 -4.7 0  2.1 -4.7 0  2.2 -4.7 0  2.3 -4.7 0  2.4 -4.7 0  2.5 -4.7 0  2.6 -4.7 0  2.7 -4.7 0  2.8 -4.7 0  2.9 -4.7 0  3 -4.7 0  3.1 -4.7 0  3.199999999999999 -4.7 0  3.300000000000001 -4.7 0  3.4 -4.7 0  3.5 -4.7 0  3.6 -4.7 0  3.699999999999999 -4.7 0  3.800000000000001 -4.7 0  3.9 -4.7 0  4 -4.7 0  4.1 -4.7 0  4.199999999999999 -4.7 0  4.300000000000001 -4.7 0  4.4 -4.7 0  4.5 -4.7 0  4.6 -4.7 0  4.699999999999999 -4.7 0  4.800000000000001 -4.7 0  4.9 -4.7 0  5 -4.7 0  -5 -4.6 0  -4.9 -4.6 0  -4.8 -4.6 0  -4.7 -4.6 0  -4.6 -4.6 0  -4.5 -4.6 0  -4.4 -4.6 0  -4.3 -4.6 0  -4.2 -4.6 0  -4.1 -4.6 0  -4 -4.6 0  -3.9 -4.6 0  -3.8 -4.6 0  -3.7 -4.6 0  -3.6 -4.6 0  -3.5 -4.6 0  -3.4 -4.6 0  -3.3 -4.6 0  -3.2 -4.6 0  -3.1 -4.6 0  -3 -4.6 0  -2.9 -4.6 0  -2.8 -4.6 0  -2.7 -4.6 0  -2.6 -4.6 0  -2.5 -4.6 0  -2.4 -4.6 0  -2.3 -4.6 0  -2.2 -4.6 0  -2.1 -4.6 0  -2 -4.6 0  -1.9 -4.6 0  -1.8 -4.6 0  -1.7 -4.6 0  -1.6 -4.6 0  -1.5 -4.6 0  -1.4 -4.6 0  -1.3 -4.6 0  -1.2 -4.6 0  -1.1 -4.6 0  -1 -4.6 0  -0.9000000000000004 -4.6 0  -0.7999999999999998 -4.6 0  -0.7000000000000002 -4.6 0  -0.5999999999999996 -4.6 0  -0.5 -4.6 0  -0.4000000000000004 -4.6 0  -0.2999999999999998 -4.6 0  -0.2000000000000002 -4.6 0  -0.09999999999999964 -4.6 0  0 -4.6 0  0.09999999999999964 -4.6 0  0.2000000000000002 -4.6 0  0.2999999999999998 -4.6 0  0.4000000000000004 -4.6 0  0.5 -4.6 0  0.5999999999999996 -4.6 0  0.7000000000000002 -4.6 0  0.7999999999999998 -4.6 0  0.9000000000000004 -4.6 0  1 -4.6 0  1.1 -4.6 0  1.2 -4.6 0  1.3 -4.6 0  1.4 -4.6 0  1.5 -4.6 0  1.6 -4.6 0  1.7 -4.6 0  1.8 -4.6 0  1.9 -4.6 0  2 -4.6 0  2.1 -4.6 0  2.2 -4.6 0  2.3 -4.6 0  2.4 -4.6 0  2.5 -4.6 0  2.6 -4.6 0  2.7 -4.6 0  2.8 -4.6 0  2.9 -4.6 0  3 -4.6 0  3.1 -4.6 0  3.199999999999999 -4.6 0  3.300000000000001 -4.6 0  3.4 -4.6 0  3.5 -4.6 0  3.6 -4.6 0  3.699999999999999 -4.6 0  3.800000000000001 -4.6 0  3.9 -4.6 0  4 -4.6 0  4.1 -4.6 0  4.199999999999999 -4.6 0  4.300000000000001 -4.6 0  4.4 -4.6 0  4.5 -4.6 0  4.6 -4.6 0  4.699999999999999 -4.6 0  4.800000000000001 -4.6 0  4.9 -4.6 0  5 -4.6 0  -5 -4.5 0  -4.9 -4.5 0  -4.8 -4.5 0  -4.7 -4.5 0  -4.6 -4.5 0  -4.5 -4.5 0  -4.4 -4.5 0  -4.3 -4.5 0  -4.2 -4.5 0  -4.1 -4.5 0  -4 -4.5 0  -3.9 -4.5 0  -3.8 -4.5 0  -3.7 -4.5 0  -3.6 -4.5 0  -3.5 -4.5 0  -3.4 -4.5 0  -3.3 -4.5 0  -3.2 -4.5 0  -3.1 -4.5 0  -3 -4.5 0  -2.9 -4.5 0  -2.8 -4.5 0  -2.7 -4.5 0  -2.6 -4.5 0  -2.5 -4.5 0  -2.4 -4.5 0  -2.3 -4.5 0  -2.2 -4.5 0  -2.1 -4.5 0  -2 -4.5 0  -1.9 -4.5 0  -1.8 -4.5 0  -1.7 -4.5 0  -1.6 -4.5 0  -1.5 -4.5 0  -1.4 -4.5 0  -1.3 -4.5 0  -1.2 -4.5 0  -1.1 -4.5 0  -1 -4.5 0  -0.9000000000000004 -4.5 0  -0.7999999999999998 -4.5 0  -0.7000000000000002 -4.5 0  -0.5999999999999996 -4.5 0  -0.5 -4.5 0  -0.4000000000000004 -4.5 0  -0.2999999999999998 -4.5 0  -0.2000000000000002 -4.5 0  -0.09999999999999964 -4.5 0  0 -4.5 0  0.09999999999999964 -4.5 0  0.2000000000000002 -4.5 0  0.2999999999999998 -4.5 0  0.4000000000000004 -4.5 0  0.5 -4.5 0  0.5999999999999996 -4.5 0  0.7000000000000002 -4.5 0  0.7999999999999998 -4.5 0  0.9000000000000004 -4.5 0  1 -4.5 0  1.1 -4.5 0  1.2 -4.5 0  1.3 -4.5 0  1.4 -4.5 0  1.5 -4.5 0  1.6 -4.5 0  1.7 -4.5 0  1.8 -4.5 0  1.9 -4.5 0  2 -4.5 0  2.1 -4.5 0  2.2 -4.5 0  2.3 -4.5 0  2.4 -4.5 0  2.5 -4.5 0  2.6 -4.5 0  2.7 -4.5 0  2.8 -4.5 0  2.9 -4.5 0  3 -4.5 0  3.1 -4.5 0  3.199999999999999 -4.5 0  3.300000000000001 -4.5 0  3.4 -4.5 0  3.5 -4.5 0  3.6 -4.5 0  3.699999999999999 -4.5 0  3.800000000000001 -4.5 0  3.9 -4.5 0  4 -4.5 0  4.1 -4.5 0  4.199999999999999 -4.5 0  4.300000000000001 -4.5 0  4.4 -4.5 0  4.5 -4.5 0  4.6 -4.5 0  4.699999999999999 -4.5 0  4.800000000000001 -4.5 0  4.9 -4.5 0  5 -4.5 0  -5 -4.4 0  -4.9 -4.4 0  -4.8 -4.4 0  -4.7 -4.4 0  -4.6 -4.4 0  -4.5 -4.4 0  -4.4 -4.4 0  -4.3 -4.4 0  -4.2 -4.4 0  -4.1 -4.4 0  -4 -4.4 0  -3.9 -4.4 0  -3.8 -4.4 0  -3.7 -4.4 0  -3.6 -4.4 0  -3.5 -4.4 0  -3.4 -4.4 0  -3.3 -4.4 0  -3.2 -4.4 0  -3.1 -4.4 0  -3 -4.4 0  -2.9 -4.4 0  -2.8 -4.4 0  -2.7 -4.4 0  -2.6 -4.4 0  -2.5 -4.4 0  -2.4 -4.4 0  -2.3 -4.4 0  -2.2 -4.4 0  -2.1 -4.4 0  -2 -4.4 0  -1.9 -4.4 0  -1.8 -4.
[...]
<PointData  Scalars="r"> 
<DataArray  type="Float64"  Name="r"  format="ascii">9.9999599312501530e-01  9.9999924744132396e-01  9.9999346887181328e-01  9.9999284822390611e-01  9.9998711593429279e-01  9.9998528374945861e-01  9.9998437812100227e-01  9.9999251492443753e-01  1.0000076598025069e+00  1.0000337774140351e+00  1.0000651029457261e+00  1.0000905680183552e+00  1.0000988832168483e+00  1.0000907233891143e+00  1.0000705875658706e+00  1.0000549840999595e+00  1.0000702645138613e+00  1.0001159589232111e+00  1.0001558866225193e+00  1.0001664470650287e+00  1.0001504135424322e+00  1.0001206668764318e+00  1.0001159972488798e+00  1.0001653991886226e+00  1.0002130540518992e+00  1.0001850860330126e+00  1.0001059857426118e+00  1.0000460798559179e+00  1.0000305632484316e+00  1.0000440887147326e+00  1.0000362777694474e+00  9.9997958358071826e-01  9.9995073310293858e-01  1.0000017500091385e+00  1.0000364646821716e+00  9.9999510822602955e-01  9.9996491010977218e-01  9.9999495924574922e-01  1.0000269231573005e+00  1.0000130632726729e+00  9.9997350835588616e-01  9.9997959260796732e-01  1.0000333188603290e+00  1.0000201348278293e+00  9.9995599955303360e-01  9.9999129041518764e-01  1.0000503268516039e+00  9.9998852359487145e-01  9.9995517548318591e-01  1.0000317811476258e+00  1.0000261586306096e+00  9.9995805861773213e-01  9.9999898261754794e-01  1.0000365962934186e+00  9.9998048071421175e-01  9.9998099651931471e-01  1.0000269082511979e+00  9.9999898952794675e-01  9.9997958774230489e-01  1.0000135143434159e+00  1.0000068846579251e+00  9.9998543171361931e-01  1.0000045208493999e+00  1.0000075924658085e+00  9.9999156905714170e-01  1.0000004233496187e+00  1.0000056481013084e+00  9.9999567713669324e-01  9.9999922233439953e-01  1.0000035290472733e+00  9.9999790948943723e-01  9.9999919264675152e-01  1.0000020180662588e+00  9.9999896860160464e-01  9.9999949165985658e-01  1.0000010546643039e+00  9.9999951681396537e-01  9.9999966980064736e-01  1.0000006330710125e+00  9.9999961761776035e-01  1.0000000091246055e+00  1.0000001155113256e+00  1.0000000450815805e+00  9.9999970541073424e-01  1.0000004480154268e+00  9.9999953126245145e-01  1.0000004364325916e+00  9.9999956018888303e-01  1.0000005056271299e+00  9.9999939886270039e-01  1.0000006791993306e+00  9.9999928725983867e-01  1.0000007103444652e+00  9.9999932133604763e-01  1.0000006609187260e+00  9.9999940214980221e-01  1.0000006189969273e+00  9.9999952969099160e-01  1.0000006088946609e+00  9.9999971920886399e-01  1.0000007173286571e+00  9.9999924744132362e-01  1.0000035315592612e+00  1.0000027879624294e+00  1.0000076399398337e+00  1.0000092077836249e+00  1.0000141777872869e+00  1.0000145638071094e+00  1.0000114303511094e+00  9.9999897843460683e-01  9.9997935531053994e-01  9.9995068922481189e-01  9.9992308101630090e-01  9.9990804585296078e-01  9.9990959444965555e-01  9.9992289133220924e-01  9.9994083003562217e-01  9.9994200132528954e-01  9.9991064845478816e-01  9.9986946138391353e-01  9.9985057402296373e-01  9.9985426973433855e-01  9.9987064546818438e-01  9.9988364983205824e-01  9.9985771174767624e-01  9.9980339074138003e-01  9.9979561485911639e-01  9.9985490044250414e-01  9.9991995602094996e-01  9.9995336645645228e-01  9.9995985695115686e-01  9.9995980882886992e-01  9.9999234597627162e-01  1.0000389146400936e+00  1.0000238042321310e+00  9.9997512461709115e-01  9.9998617927827615e-01  1.0000256921021313e+00  1.0000171596840612e+00  9.9998620611171796e-01  9.9998191266331016e-01  1.0000065900638846e+00  1.0000251691844133e+00  9.9999421107163156e-01  9.9996714720202784e-01  1.0000144920106253e+00  1.0000345266045441e+00  9.9997101971673941e-01  9.9997499537578094e-01  1.0000407664369348e+00  1.0000054399807288e+00  9.9995854339853929e-01  1.0000162287517802e+00  1.0000285571892007e+00  9.9997022950842274e-01  9.9999234066261466e-01  1.0000292561936091e+00  9.9998904318150450e-01  9.9998310493683829e-01  1.0000190169405263e+00  1.0000012033566141e+00  9.9998470337368062e-01  1.0000090245194899e+00  1.0000054004802699e+00  9.9998976036111309e-01  1.0000030721277631e+00  1.0000052001100626e+00  9.9999417184014772e-01  1.0000005147185753e+00  1.0000036648623443e+00  9.9999696548225059e-01  9.9999975557084497e-01  1.0000022347112776e+00  9.9999845484513050e-01  9.9999972031176265e-01  1.0000012170660968e+00  9.9999924795908490e-01  9.9999977691894348e-01  1.0000007076414974e+00  9.9999951052868896e-01  1.0000000243921963e+00  1.0000001977291317e+00  9.9999993359234218e-01  9.9999979199509836e-01  1.0000003864680307e+00  9.9999960122358245e-01  1.0000003299485176e+00  9.9999970715902464e-01  1.0000003310621255e+00  9.9999958738971428e-01  1.0000004812670824e+00  9.9999949467027116e-01  1.0000004877556936e+00  9.9999954564352722e-01  1.0000004153714357e+00  9.9999960398791543e-01  1.0000003418748691e+00  9.9999965140382829e-01  1.0000002085526964e+00  9.9999970122145576e-01  9.9999997956911268e-01  9.9999971920886765e-01  9.9999346887181828e-01  1.0000027879624265e+00  9.9999409377479032e-01  9.9999726085839002e-01  9.9998988703085800e-01  9.9999040358351288e-01  9.9998483001360561e-01  9.9998859104081406e-01  9.9999510666555202e-01  1.0000123821830100e+00  1.0000348432017041e+00  1.0000640147786652e+00  1.0000840790203676e+00  1.0000884172074482e+00  1.0000793556250018e+00  1.0000629382741850e+00  1.0000486250860685e+00  1.0000601390777184e+00  1.0000963064300215e+00  1.0001213623613725e+00  1.0001216115131275e+00  1.0001136971339448e+00  1.0001046127599078e+00  1.0001139268894492e+00  1.0001641804495180e+00  1.0002066896370649e+00  1.0001795455542275e+00  1.0001168054462781e+00  1.0000762846282747e+00  1.0000572302637920e+00  1.0000479122267310e+00  1.0000284310807694e+00  9.9998152293722997e-01  9.9996369316619438e-01  1.0000071676568354e+00  1.0000246027925268e+00  9.9998501628788750e-01  9.9997463979050083e-01  1.0000059140315709e+00  1.0000175596215757e+00  1.0000016384936103e+00  9.9998202359036459e-01  9.9999074592651727e-01  1.0000250377273239e+00  1.0000091435385432e+00  9.9996527470755658e-01  1.0000015689036823e+00  1.0000385629084581e+00  9.9998086217911453e-01  9.9996973823141533e-01  1.0000340981942781e+00  1.0000108361480988e+00  9.9996277375876985e-01  1.0000110871074892e+00  1.0000260547030171e+00  9.9997530079110131e-01  9.9999314711653431e-01  1.0000243107163678e+00  9.9999030381885756e-01  9.9998708041730688e-01  1.0000158486137662e+00  9.9999938459097515e-01  9.9998854371581392e-01  1.0000082429269044e+00  1.0000026594180422e+00  9.9999220350285833e-01  1.0000036516973370e+00  1.0000028463076562e+00  9.9999538766423202e-01  1.0000014451936086e+00  1.0000020716384992e+00  9.9999743730016510e-01  1.0000006039713933e+00  1.0000011979685060e+00  9.9999870775435973e-01  1.0000001816704307e+00  1.0000007744886381e+00  9.9999914645342047e-01  1.0000003444984007e+00  1.0000000781655185e+00  9.9999994205940446e-01  9.9999972248649860e-01  1.0000006068709490e+00  9.9999925670161494e-01  1.0000007248754696e+00  9.9999930574023366e-01  1.0000007468580931e+00  9.9999912465649554e-01  1.0000010120868039e+00  9.9999890192958019e-01  1.0000011186327096e+00  9.9999890671521385e-01  1.0000010511494422e+00  9.9999900111279261e-01  1.0000009493031863e+00  9.9999914478091767e-01  1.0000007972588794e+00  9.9999939345843980e-01  1.0000006297841084e+00  9.9999970122145554e-01  1.0000006088946622e+00  9.9999284822389978e-01  1.0000076399398337e+00  9.9999726085838947e-01  1.0000084270656240e+00  1.0000035891630288e+00  1.0000128616167674e+00  1.0000097525071976e+00  1.0000143630719862e+00  1.0000038038701120e+00  9.9999194746111220e-01  9.9996861592353492e-01  9.9994391560334905e-01  9.9991891701058333e-01  9.9991355212910082e-01  9.9992348224735594e-01  9.9993973781083623e-01  9.9995575995210084e-01  9.9995862774529165e-01  9.9993192771510064e-01  9.9990362469585636e-01  9.9990884452740592e-01  9.9992793428384119e-01  9.9993251383308734e-01  9.9992133136843286e-01  9.9987850587311622e-01  9.9981690166289461e-01  9.9980937749226095e-01  9.9986287319089584e-01  9.9990152082362271e-01  9.9991132008145733e-01  9.9992808229281571e-01  9.9995535570124994e-01  9.9999797397947376e-01  1.0000334442329477e+00  1.0000077983132347e+00  9.9997132642995179e-01  1.0000033338904879e+00  1.0000340886236279e+00  1.0000008865840251e+00  9.9997764650969823e-01  9.9999790391326449e-01  1.0000156154545197e+00  1.0000104580158942e+00  9.9998468885641434e-01  9.9998210495989737e-01  1.0000242706228004e+00  1.0000168824557907e+00  9.9996360770947668e-01  9.9999646050187108e-01  1.0000413873814098e+00  9.9998271671711170e-01  9.9996796185300996e-01  1.0000341418295293e+00  1.0000103970664764e+00  9.9996324546724691e-01  1.0000127583124152e+00  1.0000236359044898e+00  9.9997467729652056e-01  9.9999670255598405e-01  1.0000224268107647e+00  9.9998788418708462e-01  9.9999072747093865e-01  1.0000155109488782e+00  9.9999627892379661e-01  9.9999112765197917e-01  1.0000090091611542e+00  9.9999990684541840e-01  9.9999366684654423e-01  1.0000047287578826e+00  1.0000008873875259e+00  9.9999604710103362e-01  1.0000024615839032e+00  1.0000007070208106e+00  9.9999787222540393e-01  1.0000011191749145e+00  1.0000006334840732e+00  9.9999858625656968e-01  1.0000009650470543e+00  9.9999983436240869e-01  9.9999986886363734e-01  9.9999978896458452e-01  1.0000007749687061e+00  9.9999886525884252e-01  1.0000011913839062e+00  9.9999888131318226e-01  1.0000011195849638e+00  9.9999874303386538e-01  1.0000014563098842e+00  9.9999839159186521e-01  1.0000016569143539e+00  9.9999838493137883e-01  1.0000015278611130e+00  9.9999856803957232e-01  1.0000013287760867e+00  9.9999878091028860e-01  1.0000010568803386e+00  9.9999908194451492e-01  1.0000006541407163e+00  9.9999939345843680e-01  1.0000002085526989e+00  9.9999952969099426e-01  9.9998711593429712e-01  1.0000092077836267e+00  9.9998988703085689e-01  1.0000035891630286e+00  9.9998791470205384e-01  9.9999619991002520e-01  9.9998479029847720e-01  9.9999251186814131e-01  9.9999047810651998e-01  1.0000103339808093e+00  1.0000266324948264e+00  1.0000540410171319e+00  1.0000760393941690e+00  1.0000889799310677e+00  1.0000748053575035e+00  1.0000546141214433e+00  1.0000377675065615e+00  1.0000277776583559e+00  1.0000390542550994e+00  1.0000692684728312e+00  1.0000683930190237e+00  1.0000302541674042e+00  1.0000108315794252e+00  1.0000276922771707e+00  1.0000685145738377e+00  1.0001362690759374e+00  1.0001805800042507e+00  1.0001481785111563e+00  1.0001045873958498e+00  1.0001103741773072e+00  1.0001113517211278e+00  1.0000744104465304e+00  1.0000242108783564e+00  9.9997789902503298e-01  9.9998055716063261e-01  1.0000276361673026e+00  1.0000157683230122e+00  9.9996038106705909e-01  9.9998035392243034e-01  1.0000301984801629e+00  1.0000119169446910e+00  9.9997816715539167e-01  9.9998614262484498e-01  1.0000133004782872e+00  1.0000217700667495e+00  9.9998521352473047e-01  9.9997076783136918e-01  1.0000274669010372e+00  1.0000258076099919e+00  9.9995680028774359e-01  9.9999268648048267e-01  1.0000487918530563e+00  9.9998090263156492e-01  9.9996383840220560e-01  1.0000386755999784e+00  1.0000095858857110e+00  9.9996026177449993e-01  1.0000165403384933e+00  1.0000226860065116e+00  9.9997179246852563e-01  1.0000004062494061e+00  1.0000219191004418e+00  9.9998475749141169e-01  9.9999386633961695e-01  1.0000157339629074e+00  9.9999330855695523e-01  9.9999338967290252e-01  1.0000096299972636e+00  9.9999757914146348e-01  9.9999502012314689e-01  1.0000055240217398e+00  9.9999908742349852e-01  9.9999706895049956e-01  1.0000027680629033e+00  9.9999995451415358e-01  9.9999794492275718e-01  1.0000020339623523e+00  9.9999924381087180e-01  9.9999984426661470e-01  9.9999996187361750e-01  1.0000009174678457e+00  9.9999831801362415e-01  1.0000019332540941e+00  9.9999817123609669e-01  1.0000017382092128e+00  9.9999812922831210e-01  1.0000021714746024e+00  9.9999754372497196e-01  1.0000025895911939e+00  9.9999744170298477e-01  1.0000024320289744e+00  9.9999771712864827e-01  1.0000021391329059e+00  9.9999801966448343e-01  1.0000017901853246e+00  9.9999847193751124e-01  1.0000012777526748e+00  9.9999908194451492e-01  1.0000007972588776e+00  9.9999965140383018e-01  1.0000006189969288e+00  9.9998528374945672e-01  1.0000141777872853e+00  9.9999040358351365e-01  1.0000128616167681e+00  9.9999619991002442e-01  1.0000160486123304e+00  1.0000031564482523e+00  1.0000157517248685e+00  1.0000013721009982e+00  9.9999797675623492e-01  9.9996768940010483e-01  9.9994939916616710e-01  9.9992137246358970e-01  9.9990901891366979e-01  9.9991678198111644e-01  9.9995038903152877e-01  9.9997211397338714e-01  9.9998338683908161e-01  9.9998351247332806e-01  9.9996059671979676e-01  9.9994697227923401e-01  9.9999337017709278e-01  1.0000495870006914e+00  1.0000447771274774e+00  9.9999748251217013e-01  9.9993121641430838e-01  9.9986235545539714e-01  9.9985839709446644e-01  9.9990485423474340e-01  9.9989616790764135e-01  9.9985496815143293e-01  9.9987717946255539e-01  9.9994368442432391e-01  1.0000022083537248e+00  1.0000225945609629e+00  9.9998119308484468e-01  9.9996261203455516e-01  1.0000285201274339e+00  1.0000474105790804e+00  9.9997609758244121e-01  9.9996519552941798e-01  1.0000222178554350e+00  1.0000279439746107e+00  9.9998854644952107e-01  9.9997168358178767e-01  1.0000043570053285e+00  1.0000379473711145e+00  9.9998989389851889e-01  9.9995395484023819e-01  1.0000298293903198e+00  1.0000392588870830e+00  9.9994829730716561e-01  9.9998665710231338e-01  1.0000586116607149e+00  9.9997913815789974e-01  9.9995821044450317e-01  1.0000440722053487e+00  1.0000090290129180e+00  9.9995679007150828e-01  1.0000205050916458e+00  1.0000215989049672e+00  9.9996914898656697e-01  1.0000041624726492e+00  1.0000208450536279e+00  9.9998215588815298e-01  9.9999724651170319e-01  1.0000150604523466e+00  9.9999097861349895e-01  9.9999589200604322e-01  1.0000095401568927e+00  9.9999547562379942e-01  9.9999707754237044e-01  1.0000051402837178e+00  9.9999821417544665e-01  9.9999760821088435e-01  1.0000035917586860e+00  9.9999803666797593e-01  1.0000000414719510e+00  1.0000002889229074e+00  1.0000008694008131e+00  9.9999774332982649e-01  1.0000029144284688e+00  9.9999716957220275e-01  1.0000025752543573e+00  9.9999737683798096e-01  1.0000030145541754e+00  9.9999651840606807e-01  1.0000037557478199e+00  9.9999624334760762e-01  1.0000035740631117e+00  9.9999666007282906e-01  1.0000031236147089e+00  9.9999708561444056e-01  1.0000026595164220e+00  9.9999766448423011e-01  1.0000019236848730e+00  9.9999847193751268e-01  1.0000010568803370e+00  9.9999914478092033e-01  1.0000003418748684e+00  9.9999940214980743e-01  9.9998437812100083e-01  1.0000145638071081e+00  9.9998483001360461e-01  1.0000097525071954e+00  9.9998479029847731e-01  1.0000031564482526e+00  9.9998107386185042e-01  9.9999927868296301e-01  9.9998761777012402e-01  1.0000105788894094e+00  1.0000223545823610e+00  1.0000599448320753e+00  1.0000748367565941e+00  1.0000970854950983e+00  1.0000901440303818e+00  1.0000561597307913e+00  1.0000136062247487e+00  1.0000035582274560e+00  1.0000017055585482e+00  1.0000117436512499e+00  1.0000337847501370e+00  1.0000050520756349e+00  9.9991536672500958e-01  9.9987638731183759e-01  9.9992460834283947e-01  9.9999470494045350e-01  1.0000661226798049e+00  1.0001055058351997e+00  1.0000730720802373e+00  1.0000660883336803e+00  1.0001434948341210e+00  1.0001753429783848e+00  1.0001055526494547e+00  1.0000264065527562e+00  9.9998795865103074e-01  1.0000085621859256e+00  1.0000497453260178e+00  1.0000016716139357e+00  9.9993450097407865e-01  9.9999396605235080e-01  1.0000563104251770e+00  9.9999663083383383e-01  9.9995335120681272e-01  9.9999975035597422e-01  1.0000364414736471e+00  1.0000095768194690e+00  9.9996045837006720e-01  9.9998571076680320e-01  1.0000539273076654e+00  1.0000014913836370e+00  9.9993526514897046e-01  1.0000284876496417e+00  1.0000547054023710e+00  9.9994122318153356e-01  9.9997969420810728e-01  1.0000675472849287e+00  9.9997764539990919e-01  9.9995388007400621e-01  1.0000486838677800e+00  1.0000072699515008e+00  9.9995506539533563e-01  1.0000244109222993e+00  1.0000188217528805e+00  9.9996792711880000e-01  1.0000083428027151e+00  1.0000180367786984e+00  9.9998078609289565e-01  1.0000009471223104e+00  1.0000131910800363e+00  9.9998921114009698e-01  9.9999924421413522e-01  1.0000077312357720e+00  9.9999487748551830e-01  9.9999830622601893e-01  1.0000054332457622e+00  9.9999591094994889e-01  1.0000008065990433e+00  1.0000007103444704e+00  1.0000004415122008e+00  9.9999734980413002e-01  1.0000040606763825e+00  9.9999583455836849e-01  1.0000036829618906e+00  9.9999649458761408e-01  1.0000039233025104e+00  9.9999538013430966e-01  1.0000051295478221e+00  9.9999477095266409e-01  1.0000050013817012e+00  9.9999534032352067e-01  1.0000043528458940e+00  9.9999590671697525e-01  1.0000038073539681e+00  9.9999658077253006e-01  1.0000029215669826e+00  9.9999766448423111e-01  1.0000017901853226e+00  9.9999878091029182e-01  1.0000009493031801e+00  9.9999960398791621e-01  1.0000006609187220e+00  9.9999251492443564e-01  1.0000114303511092e+00  9.9998859104081372e-01  1.0000143630719904e+00  9.9999251186814042e-01  1.0000157517248685e+00  9.9999927868296579e-01  1.0000179808989251e+00  9.9999591229738805e-01  1.0000025642974479e+00  9.9997026538435441e-01  9.9994870624823784e-01  9.9991289234006375e-01  9.9990757158320875e-01  9.9989921022600237e-01  9.9993437956151099e-01  9.9999017408497537e-01  1.0000209919479286e+00  1.0000105477641861e+00  1.0000062765216089e+00  9.9999137298909579e-01  9.9999209182369497e-01  1.0000793224274502e+00  1.0001799730251533e+00  1.0001627267583579e+00  1.0000779479939030e+00  1.0000115250274515e+00  9.9996275115673139e-01  9.9996741701177838e-01  9.9999215884076997e-01  9.9991089685793344e-01  9.9980108094911058e-01  9.9983092386885486e-01  9.9993421655775716e-01  9.9999006743140051e-01  9.9998991938433324e-01  9.9994967654086464e-01  9.9996280925671488e-01  1.0000564428500138e+00  1.0000488914685244e+00  9.9994459091856591e-01  9.9996596580478692e-01  1.0000544315872997e+00  1.0000261735222147e+00  9.9995968075455410e-01  9.9997307155461812e-01  1.0000327050181419e+00  1.0000368725758821e+00  9.9995765003966464e-01  9.9996114178768714e-01  1.0000655296012788e+00  1.0000173955283100e+00  9.9991874234075473e-01  1.0000247282212114e+00  1.0000682397508749e+00  9.9993602617451671e-01  9.9997481521030518e-01  1.0000737141560794e+00  9.9997512562043955e-01  9.9995305376967281e-01  1.0000520022628803e+00  1.0000031573206498e+00  9.9995622414907603e-01  1.0000281833222542e+00  1.0000136026778566e+00  9.9996898393964984e-01  1.0000124350743889e+00  1.0000136233757910e+00  9.9998064866358105e-01  1.0000052627953433e+00  1.0000091411955243e+00  9.9998978762415458e-01  1.0000010945008384e+00  1.0000068637980308e+00  9.9999273419320900e-01  1.0000026412484384e+00  1.0000009775366314e+00  9.9999945235132559e-01  9.9999750349526673e-01  1.0000051117675433e+00  9.9999424734673448e-01  1.0000050420607240e+00  9.9999557478102197e-01  1.0000046961872766e+00  9.9999438656611039e-01  1.0000064650153013e+00  9.9999323088116732e-01  1.0000065331952122e+00  9.9999393826834537e-01  1.0000056339409920e+00  9.9999467208808379e-01  1.0000050501148181e+00  9.9999533242040195e-01  1.0000041119875045e+00  9.9999658077253217e-01  1.0000026595164195e+00  9.9999801966448498e-01  1.0000013287760805e+00  9.9999900111279494e-01  1.0000004153714344e+00  9.9999932133605418e-01  1.0000076598025107e+00  9.9999897843460328e-01  9.9999510666555036e-01  1.0000038038701107e+00  9.9999047810651986e-01  1.0000013721009999e+00  9.9998761777012424e-01  9.9999591229738460e-01  9.9999053185097042e-01  1.0000110442415195e+00  1.0000161365582589e+00  1.0000553415881903e+00  1.0000836187375475e+00  1.0001029134285599e+00  1.0000944407784020e+00  1.0000797430399511e+00  1.0000136035448470e+00  9.9995599151532333e-01  9.9996050408853487e-01  9.9998745215904294e-01  9.9998922945433777e-01  9.9999891463672086e-01  9