<?xml version="1.0"?>
<VTKFile type="UnstructuredGrid"  version="0.1"  >
<UnstructuredGrid>
<Piece  NumberOfPoints="10201" NumberOfCells="20000">
<Points>
<DataArray  type="Float64"  NumberOfComponents="3"  format="ascii">-5 -5 0  -4.9 -5 0  -4.8 -5 0  -4.7 -5 0  -4.6 -5 0  -4.5 -5 0  -4.4 -5 0  -4.3 -5 0  -4.2 -5 0  -4.1 -5 0  -4 -5 0  -3.9 -5 0  -3.8 -5 0  -3.7 -5 0  -3.6 -5 0  -3.5 -5 0  -3.4 -5 0  -3.3 -5 0  -3.2 -5 0  -3.1 -5 0  -3 -5 0  -2.9 -5 0  -2.8 -5 0  -2.7 -5 0  -2.6 -5 0  -2.5 -5 0  -2.4 -5 0  -2.3 -5 0  -2.2 -5 0  -2.1 -5 0  -2 -5 0  -1.9 -5 0  -1.8 -5 0  -1.7 -5 0  -1.6 -5 0  -1.5 -5 0  -1.4 -5 0  -1.3 -5 0  -1.2 -5 0  -1.1 -5 0  -1 -5 0  -0.9000000000000004 -5 0  -0.7999999999999998 -5 0  -0.7000000000000002 -5 0  -0.5999999999999996 -5 0  -0.5 -5 0  -0.4000000000000004 -5 0  -0.2999999999999998 -5 0  -0.2000000000000002 -5 0  -0.09999999999999964 -5 0  0 -5 0  0.09999999999999964 -5 0  0.2000000000000002 -5 0  0.2999999999999998 -5 0  0.4000000000000004 -5 0  0.5 -5 0  0.5999999999999996 -5 0  0.7000000000000002 -5 0  0.7999999999999998 -5 0  0.9000000000000004 -5 0  1 -5 0  1.1 -5 0  1.2 -5 0  1.3 -5 0  1.4 -5 0  1.5 -5 0  1.6 -5 0  1.7 -5 0  1.8 -5 0  1.9 -5 0  2 -5 0  2.1 -5 0  2.2 -5 0  2.3 -5 0  2.4 -5 0  2.5 -5 0  2.6 -5 0  2.7 -5 0  2.8 -5 0  2.9 -5 0  3 -5 0  3.1 -5 0  3.199999999999999 -5 0  3.300000000000001 -5 0  3.4 -5 0  3.5 -5 0  3.6 -5 0  3.699999999999999 -5 0  3.800000000000001 -5 0  3.9 -5 0  4 -5 0  4.1 -5 0  4.199999999999999 -5 0  4.300000000000001 -5 0  4.4 -5 0  4.5 -5 0  4.6 -5 0  4.699999999999999 -5 0  4.800000000000001 -5 0  4.9 -5 0  5 -5 0  -5 -4.9 0  -4.9 -4.9 0  -4.8 -4.9 0  -4.7 -4.9 0  -4.6 -4.9 0  -4.5 -4.9 0  -4.4 -4.9 0  -4.3 -4.9 0  -4.2 -4.9 0  -4.1 -4.9 0  -4 -4.9 0  -3.9 -4.9 0  -3.8 -4.9 0  -3.7 -4.9 0  -3.6 -4.9 0  -3.5 -4.9 0  -3.4 -4.9 0  -3.3 -4.9 0  -3.2 -4.9 0  -3.1 -4.9 0  -3 -4.9 0  -2.9 -4.9 0  -2.8 -4.9 0  -2.7 -4.9 0  -2.6 -4.9 0  -2.5 -4.9 0  -2.4 -4.9 0  -2.3 -4.9 0  -2.2 -4.9 0  -2.1 -4.9 0  -2 -4.9 0  -1.9 -4.9 0  -1.8 -4.9 0  -1.7 -4.9 0  -1.6 -4.9 0  -1.5 -4.9 0  -1.4 -4.9 0  -1.3 -4.9 0  -1.2 -4.9 0  -1.1 -4.9 0  -1 -4.9 0  -0.9000000000000004 -4.9 0  -0.7999999999999998 -4.9 0  -0.7000000000000002 -4.9 0  -0.5999999999999996 -4.9 0  -0.5 -4.9 0  -0.4000000000000004 -4.9 0  -0.2999999999999998 -4.9 0  -0.2000000000000002 -4.9 0  -0.09999999999999964 -4.9 0  0 -4.9 0  0.09999999999999964 -4.9 0  0.2000000000000002 -4.9 0  0.2999999999999998 -4.9 0  0.4000000000000004 -4.9 0  0.5 -4.9 0  0.5999999999999996 -4.9 0  0.7000000000000002 -4.9 0  0.7999999999999998 -4.9 0  0.9000000000000004 -4.9 0  1 -4.9 0  1.1 -4.9 0  1.2 -4.9 0  1.3 -4.9 0  1.4 -4.9 0  1.5 -4.9 0  1.6 -4.9 0  1.7 -4.9 0  1.8 -4.9 0  1.9 -4.9 0  2 -4.9 0  2.1 -4.9 0  2.2 -4.9 0  2.3 -4.9 0  2.4 -4.9 0  2.5 -4.9 0  2.6 -4.9 0  2.7 -4.9 0  2.8 -4.9 0  2.9 -4.9 0  3 -4.9 0  3.1 -4.9 0  3.199999999999999 -4.9 0  3.300000000000001 -4.9 0  3.4 -4.9 0  3.5 -4.9 0  3.6 -4.9 0  3.699999999999999 -4.9 0  3.800000000000001 -4.9 0  3.9 -4.9 0  4 -4.9 0  4.1 -4.9 0  4.199999999999999 -4.9 0  4.300000000000001 -4.9 0  4.4 -4.9 0  4.5 -4.9 0  4.6 -4.9 0  4.699999999999999 -4.9 0  4.800000000000001 -4.9 0  4.9 -4.9 0  5 -4.9 0  -5 -4.8 0  -4.9 -4.8 0  -4.8 -4.8 0  -4.7 -4.8 0  -4.6 -4.8 0  -4.5 -4.8 0  -4.4 -4.8 0  -4.3 -4.8 0  -4.2 -4.8 0  -4.1 -4.8 0  -4 -4.8 0  -3.9 -4.8 0  -3.8 -4.8 0  -3.7 -4.8 0  -3.6 -4.8 0  -3.5 -4.8 0  -3.4 -4.8 0  -3.3 -4.8 0  -3.2 -4.8 0  -3.1 -4.8 0  -3 -4.8 0  -2.9 -4.8 0  -2.8 -4.8 0  -2.7 -4.8 0  -2.6 -4.8 0  -2.5 -4.8 0  -2.4 -4.8 0  -2.3 -4.8 0  -2.2 -4.8 0  -2.1 -4.8 0  -2 -4.8 0  -1.9 -4.8 0  -1.8 -4.8 0  -1.7 -4.8 0  -1.6 -4.8 0  -1.5 -4.8 0  -1.4 -4.8 0  -1.3 -4.8 0  -1.2 -4.8 0  -1.1 -4.8 0  -1 -4.8 0  -0.9000000000000004 -4.8 0  -0.7999999999999998 -4.8 0  -0.7000000000000002 -4.8 0  -0.5999999999999996 -4.8 0  -0.5 -4.8 0  -0.4000000000000004 -4.8 0  -0.2999999999999998 -4.8 0  -0.2000000000000002 -4.8 0  -0.09999999999999964 -4.8 0  0 -4.8 0  0.09999999999999964 -4.8 0  0.2000000000000002 -4.8 0  0.2999999999999998 -4.8 0  0.4000000000000004 -4.8 0  0.5 -4.8 0  0.5999999999999996 -4.8 0  0.7000000000000002 -4.8 0  0.7999999999999998 -4.8 0  0.9000000000000004 -4.8 0  1 -4.8 0  1.1 -4.8 0  1.2 -4.8 0  1.3 -4.8 0  1.4 -4.8 0  1.5 -4.8 0  1.6 -4.8 0  1.7 -4.8 0  1.8 -4.8 0  1.9 -4.8 0  2 -4.8 0  2.1 -4.8 0  2.2 -4.8 0  2.3 -4.8 0  2.4 -4.8 0  2.5 -4.8 0  2.6 -4.8 0  2.7 -4.8 0  2.8 -4.8 0  2.9 -4.8 0  3 -4.8 0  3.1 -4.8 0  3.199999999999999 -4.8 0  3.300000000000001 -4.8 0  3.4 -4.8 0  3.5 -4.8 0  3.6 -4.8 0  3.699999999999999 -4.8 0  3.800000000000001 -4.8 0  3.9 -4.8 0  4 -4.8 0  4.1 -4.8 0  4.199999999999999 -4.8 0  4.300000000000001 -4.8 0  4.4 -4.8 0  4.5 -4.8 0  4.6 -4.8 0  4.699999999999999 -4.8 0  4.800000000000001 -4.8 0  4.9 -4.8 0  5 -4.8 0  -5 -4.7 0  -4.9 -4.7 0  -4.8 -4.7 0  -4.7 -4.7 0  -4.6 -4.7 0  -4.5 -4.7 0  -4.4 -4.7 0  -4.3 -4.7 0  -4.2 -4.7 0  -4.1 -4.7 0  -4 -4.7 0  -3.9 -4.7 0  -3.8 -4.7 0  -3.7 -4.7 0  -3.6 -4.7 0  -3.5 -4.7 0  -3.4 -4.7 0  -3.3 -4.7 0  -3.2 -4.7 0  -3.1 -4.7 0  -3 -4.7 0  -2.9 -4.7 0  -2.8 -4.7 0  -2.7 -4.7 0  -2.6 -4.7 0  -2.5 -4.7 0  -2.4 -4.7 0  -2.3 -4.7 0  -2.2 -4.7 0  -2.1 -4.7 0  -2 -4.7 0  -1.9 -4.7 0  -1.8 -4.7 0  -1.7 -4.7 0  -1.6 -4.7 0  -1.5 -4.7 0  -1.4 -4.7 0  -1.3 -4.7 0  -1.2 -4.7 0  -1.1 -4.7 0  -1 -4.7 0  -0.9000000000000004 -4.7 0  -0.7999999999999998 -4.7 0  -0.7000000000000002 -4.7 0  -0.5999999999999996 -4.7 0  -0.5 -4.7 0  -0.4000000000000004 -4.7 0  -0.2999999999999998 -4.7 0  -0.2000000000000002 -4.7 0  -0.09999999999999964 -4.7 0  0 -4.7 0  0.09999999999999964 -4.7 0  0.2000000000000002 -4.7 0  0.2999999999999998 -4.7 0  0.4000000000000004 -4.7 0  0.5 -4.7 0  0.5999999999999996 -4.7 0  0.7000000000000002 -4.7 0  0.7999999999999998 -4.7 0  0.9000000000000004 -4.7 0  1 -4.7 0  1.1 -4.7 0  1.2 -4.7 0  1.3 -4.7 0  1.4 -4.7 0  1.5 -4.7 0  1.6 -4.7 0  1.7 -4.7 0  1.8 -4.7 0  1.9 -4.7 0  2 -4.7 0  2.1 -4.7 0  2.2 -4.7 0  2.3 -4.7 0  2.4 -4.7 0  2.5 -4.7 0  2.6 -4.7 0  2.7 -4.7 0  2.8 -4.7 0  2.9 -4.7 0  3 -4.7 0  3.1 -4.7 0  3.199999999999999 -4.7 0  3.300000000000001 -4.7 0  3.4 -4.7 0  3.5 -4.7 0  3.6 -4.7 0  3.699999999999999 -4.7 0  3.800000000000001 -4.7 0  3.9 -4.7 0  4 -4.7 0  4.1 -4.7 0  4.199999999999999 -4.7 0  4.300000000000001 -4.7 0  4.4 -4.7 0  4.5 -4.7 0  4.6 -4.7 0  4.699999999999999 -4.7 0  4.800000000000001 -4.7 0  4.9 -4.7 0  5 -4.7 0  -5 -4.6 0  -4.9 -4.6 0  -4.8 -4.6 0  -4.7 -4.6 0  -4.6 -4.6 0  -4.5 -4.6 0  -4.4 -4.6 0  -4.3 -4.6 0  -4.2 -4.6 0  -4.1 -4.6 0  -4 -4.6 0  -3.9 -4.6 0  -3.8 -4.6 0  -3.7 -4.6 0  -3.6 -4.6 0  -3.5 -4.6 0  -3.4 -4.6 0  -3.3 -4.6 0  -3.2 -4.6 0  -3.1 -4.6 0  -3 -4.6 0  -2.9 -4.6 0  -2.8 -4.6 0  -2.7 -4.6 0  -2.6 -4.6 0  -2.5 -4.6 0  -2.4 -4.6 0  -2.3 -4.6 0  -2.2 -4.6 0  -2.1 -4.6 0  -2 -4.6 0  -1.9 -4.6 0  -1.8 -4.6 0  -1.7 -4.6 0  -1.6 -4.6 0  -1.5 -4.6 0  -1.4 -4.6 0  -1.3 -4.6 0  -1.2 -4.6 0  -1.1 -4.6 0  -1 -4.6 0  -0.9000000000000004 -4.6 0  -0.7999999999999998 -4.6 0  -0.7000000000000002 -4.6 0  -0.5999999999999996 -4.6 0  -0.5 -4.6 0  -0.4000000000000004 -4.6 0  -0.2999999999999998 -4.6 0  -0.2000000000000002 -4.6 0  -0.09999999999999964 -4.6 0  0 -4.6 0  0.09999999999999964 -4.6 0  0.2000000000000002 -4.6 0  0.2999999999999998 -4.6 0  0.4000000000000004 -4.6 0  0.5 -4.6 0  0.5999999999999996 -4.6 0  0.7000000000000002 -4.6 0  0.7999999999999998 -4.6 0  0.9000000000000004 -4.6 0  1 -4.6 0  1.1 -4.6 0  1.2 -4.6 0  1.3 -4.6 0  1.4 -4.6 0  1.5 -4.6 0  1.6 -4.6 0  1.7 -4.6 0  1.8 -4.6 0  1.9 -4.6 0  2 -4.6 0  2.1 -4.6 0  2.2 -4.6 0  2.3 -4.6 0  2.4 -4.6 0  2.5 -4.6 0  2.6 -4.6 0  2.7 -4.6 0  2.8 -4.6 0  2.9 -4.6 0  3 -4.6 0  3.1 -4.6 0  3.199999999999999 -4.6 0  3.300000000000001 -4.6 0  3.4 -4.6 0  3.5 -4.6 0  3.6 -4.6 0  3.699999999999999 -4.6 0  3.800000000000001 -4.6 0  3.9 -4.6 0  4 -4.6 0  4.1 -4.6 0  4.199999999999999 -4.6 0  4.300000000000001 -4.6 0  4.4 -4.6 0  4.5 -4.6 0  4.6 -4.6 0  4.699999999999999 -4.6 0  4.800000000000001 -4.6 0  4.9 -4.6 0  5 -4.6 0  -5 -4.5 0  -4.9 -4.5 0  -4.8 -4.5 0  -4.7 -4.5 0  -4.6 -4.5 0  -4.5 -4.5 0  -4.4 -4.5 0  -4.3 -4.5 0  -4.2 -4.5 0  -4.1 -4.5 0  -4 -4.5 0  -3.9 -4.5 0  -3.8 -4.5 0  -3.7 -4.5 0  -3.6 -4.5 0  -3.5 -4.5 0  -3.4 -4.5 0  -3.3 -4.5 0  -3.2 -4.5 0  -3.1 -4.5 0  -3 -4.5 0  -2.9 -4.5 0  -2.8 -4.5 0  -2.7 -4.5 0  -2.6 -4.5 0  -2.5 -4.5 0  -2.4 -4.5 0  -2.3 -4.5 0  -2.2 -4.5 0  -2.1 -4.5 0  -2 -4.5 0  -1.9 -4.5 0  -1.8 -4.5 0  -1.7 -4.5 0  -1.6 -4.5 0  -1.5 -4.5 0  -1.4 -4.5 0  -1.3 -4.5 0  -1.2 -4.5 0  -1.1 -4.5 0  -1 -4.5 0  -0.9000000000000004 -4.5 0  -0.7999999999999998 -4.5 0  -0.7000000000000002 -4.5 0  -0.5999999999999996 -4.5 0  -0.5 -4.5 0  -0.4000000000000004 -4.5 0  -0.2999999999999998 -4.5 0  -0.2000000000000002 -4.5 0  -0.09999999999999964 -4.5 0  0 -4.5 0  0.09999999999999964 -4.5 0  0.2000000000000002 -4.5 0  0.2999999999999998 -4.5 0  0.4000000000000004 -4.5 0  0.5 -4.5 0  0.5999999999999996 -4.5 0  0.7000000000000002 -4.5 0  0.7999999999999998 -4.5 0  0.9000000000000004 -4.5 0  1 -4.5 0  1.1 -4.5 0  1.2 -4.5 0  1.3 -4.5 0  1.4 -4.5 0  1.5 -4.5 0  1.6 -4.5 0  1.7 -4.5 0  1.8 -4.5 0  1.9 -4.5 0  2 -4.5 0  2.1 -4.5 0  2.2 -4.5 0  2.3 -4.5 0  2.4 -4.5 0  2.5 -4.5 0  2.6 -4.5 0  2.7 -4.5 0  2.8 -4.5 0  2.9 -4.5 0  3 -4.5 0  3.1 -4.5 0  3.199999999999999 -4.5 0  3.300000000000001 -4.5 0  3.4 -4.5 0  3.5 -4.5 0  3.6 -4.5 0  3.699999999999999 -4.5 0  3.800000000000001 -4.5 0  3.9 -4.5 0  4 -4.5 0  4.1 -4.5 0  4.199999999999999 -4.5 0  4.300000000000001 -4.5 0  4.4 -4.5 0  4.5 -4.5 0  4.6 -4.5 0  4.699999999999999 -4.5 0  4.800000000000001 -4.5 0  4.9 -4.5 0  5 -4.5 0  -5 -4.4 0  -4.9 -4.4 0  -4.8 -4.4 0  -4.7 -4.4 0  -4.6 -4.4 0  -4.5 -4.4 0  -4.4 -4.4 0  -4.3 -4.4 0  -4.2 -4.4 0  -4.1 -4.4 0  -4 -4.4 0  -3.9 -4.4 0  -3.8 -4.4 0  -3.7 -4.4 0  -3.6 -4.4 0  -3.5 -4.4 0  -3.4 -4.4 0  -3.3 -4.4 0  -3.2 -4.4 0  -3.1 -4.4 0  -3 -4.4 0  -2.9 -4.4 0  -2.8 -4.4 0  -2.7 -4.4 0  -2.6 -4.4 0  -2.5 -4.4 0  -2.4 -4.4 0  -2.3 -4.4 0  -2.2 -4.4 0  -2.1 -4.4 0  -2 -4.4 0  -1.9 -4.4 0  -1.8 -4.
[...]
<PointData  Scalars="r"> 
<DataArray  type="Float64"  Name="r"  format="ascii">1.0003575503614701e+00  9.9899548459678444e-01  1.0002790429651269e+00  9.9992988428438678e-01  1.0013535968707497e+00  1.0001497300548672e+00  1.0001514468773915e+00  1.0006808308653021e+00  9.9391805073803874e-01  9.8858445201792478e-01  9.9474668483170248e-01  1.0330903614198477e+00  1.1132346183342969e+00  1.2001474661887952e+00  1.2354857612534336e+00  1.2078907783156989e+00  1.1512822521099360e+00  1.1044539345864872e+00  1.0548516026342600e+00  1.0094502294393954e+00  9.8275575267927984e-01  9.6630903015919944e-01  9.6443037454189606e-01  9.6806178748893479e-01  9.7308135905305471e-01  9.8326029007069904e-01  9.8822898336591503e-01  9.9068233647772064e-01  9.9310263970213886e-01  9.9322887875049160e-01  9.9922014892720279e-01  1.0066525971872951e+00  1.0142143995549993e+00  1.0235742115230753e+00  1.0287795346480635e+00  1.0331647961086277e+00  1.0354675532475963e+00  1.0333893904209897e+00  1.0301248447855302e+00  1.0235831133640003e+00  1.0156690652995588e+00  1.0082674705908512e+00  9.9975727884375576e-01  9.9222087144582305e-01  9.8540683947270713e-01  9.7875692545328929e-01  9.7365073179163975e-01  9.6862967490709417e-01  9.6473779593898412e-01  9.6218474150165134e-01  9.5972103600425462e-01  9.5781165656744549e-01  9.5659124044210542e-01  9.5549550598500910e-01  9.5452310357797321e-01  9.5343453184767601e-01  9.5263965761726410e-01  9.5156329593047284e-01  9.4976441265317835e-01  9.4785564459557115e-01  9.4530299163406417e-01  9.4203435063994345e-01  9.3838611094932278e-01  9.3483340148461991e-01  9.3165887507705958e-01  9.2951330832471690e-01  9.2966807330278334e-01  9.3310993354317751e-01  9.4071795676965253e-01  9.5399719970686159e-01  9.7408300829108785e-01  1.0013285069980506e+00  1.0348497935205734e+00  1.0720313300986293e+00  1.1051479051688931e+00  1.1215656917738104e+00  1.1085596353701337e+00  1.0665288419935568e+00  1.0212429012198918e+00  1.0087054994201796e+00  1.0337158415183336e+00  1.0588196654769486e+00  1.0390679699542438e+00  9.6688816062747873e-01  8.8912523820484501e-01  8.8210896555435914e-01  9.9680745405438065e-01  1.2029921168490856e+00  1.3483551367945821e+00  1.2684495429764544e+00  1.0747705287646050e+00  9.8886036510452735e-01  9.9266363461481155e-01  1.0004219815804012e+00  1.0006451709024164e+00  9.9992415611445684e-01  9.9995216708776757e-01  1.0000755942245878e+00  9.9994199297535125e-01  1.0000774055152943e+00  9.9972797664979962e-01  9.9899548459678322e-01  1.0012581468200119e+00  9.9979852307831985e-01  9.9980909838428123e-01  9.9948284357133621e-01  1.0004705873294466e+00  1.0004022170119915e+00  9.9708838006082412e-01  9.9459752460079465e-01  9.9617473455822447e-01  1.0146025133703971e+00  1.0535264673137728e+00  1.1071722510027571e+00  1.1625553755983653e+00  1.1986265121350950e+00  1.1941945077038147e+00  1.1466888141491340e+00  1.0882043922650482e+00  1.0480067424251562e+00  1.0223995295435189e+00  1.0009339652624454e+00  9.8347188889511616e-01  9.7458797445609557e-01  9.7509117718307425e-01  9.7792121432203238e-01  9.8060156279874244e-01  9.8368519642328889e-01  9.8765279423164154e-01  9.9448215992048605e-01  1.0019575181892497e+00  1.0080100907017120e+00  1.0126012350317337e+00  1.0157094163823583e+00  1.0179772834366780e+00  1.0202998998095363e+00  1.0209455641335081e+00  1.0197367354749973e+00  1.0173140789982644e+00  1.0132252583848018e+00  1.0089676571996573e+00  1.0042742925728354e+00  9.9866378712274184e-01  9.9347311938425553e-01  9.8810907773351953e-01  9.8272099564751236e-01  9.7837442833067068e-01  9.7411445347515280e-01  9.7064131269076726e-01  9.6789057866927264e-01  9.6490582563785265e-01  9.6263748885508571e-01  9.6084076815295727e-01  9.5913932050139594e-01  9.5800745665680442e-01  9.5729998406155470e-01  9.5701901165000081e-01  9.5700976973622798e-01  9.5733757563949073e-01  9.5850343497777080e-01  9.5999083336250468e-01  9.6186772330227366e-01  9.6473266270544622e-01  9.6815730127274779e-01  9.7174598392389833e-01  9.7554885550203974e-01  9.7967180981526392e-01  9.8326164952853568e-01  9.8604519260037715e-01  9.8833185483031172e-01  9.9033080247941374e-01  9.9182388569720592e-01  9.9378095356071372e-01  9.9757519576653320e-01  1.0047464775061543e+00  1.0175277758232057e+00  1.0395683426120681e+00  1.0711334728546726e+00  1.1023182091324590e+00  1.1083969339523583e+00  1.0683232380324330e+00  9.9695890189064174e-01  9.4018258337774097e-01  9.3082925018092622e-01  9.6958072585593047e-01  1.0327472387816621e+00  1.0853475843233382e+00  1.1012838094016264e+00  1.0887919114736999e+00  1.1008368256577419e+00  1.1548818791792781e+00  1.1532419767356672e+00  1.0662968925339205e+00  1.0023159613239805e+00  9.9499172910992117e-01  9.9970105702342915e-01  1.0003765526390074e+00  1.0000448836860625e+00  9.9995306659726113e-01  9.9998116798312819e-01  1.0000251216220806e+00  1.0000774055148489e+00  1.0002790429651247e+00  9.9979852307832084e-01  9.9943489684064701e-01  1.0004688025300192e+00  1.0009379275751638e+00  1.0000993539249634e+00  9.9629343497111023e-01  9.9467180744806449e-01  1.0001452639371637e+00  1.0260478608493542e+00  1.0709498832518844e+00  1.1107098068103447e+00  1.1210867137491025e+00  1.0963914089749818e+00  1.0694749461323581e+00  1.0732337745657348e+00  1.0923258475340225e+00  1.0933559773170327e+00  1.0682434991720369e+00  1.0448928223602583e+00  1.0420790282165318e+00  1.0383218963477550e+00  1.0251488515396627e+00  1.0053544960154335e+00  9.8555150552430193e-01  9.7829440870130102e-01  9.7882202234669335e-01  9.8491207402962500e-01  9.9531425988590749e-01  1.0017233158429812e+00  1.0077254226978787e+00  1.0124640105597587e+00  1.0126240179321295e+00  1.0119801079284747e+00  1.0076166609990920e+00  1.0009086106495095e+00  9.9633996240340184e-01  9.9153392595985956e-01  9.8858080769186296e-01  9.8756953661716984e-01  9.8613599629942283e-01  9.8621106072473419e-01  9.8649036697114567e-01  9.8616203789507095e-01  9.8677087690995224e-01  9.8645099956033888e-01  9.8562535657029782e-01  9.8498103276536131e-01  9.8355616223350106e-01  9.8224109896737311e-01  9.8128862429493524e-01  9.8006358065965982e-01  9.7951890653328266e-01  9.7910790138990578e-01  9.7886924742292769e-01  9.7932160474206242e-01  9.8025902886185934e-01  9.8180858621309086e-01  9.8384582850668656e-01  9.8659321061816796e-01  9.9021534434895986e-01  9.9421429184002741e-01  9.9857171109296672e-01  1.0039904208900765e+00  1.0098984655232557e+00  1.0162214260602165e+00  1.0230270520972493e+00  1.0306050534041074e+00  1.0379617934457279e+00  1.0442463944488956e+00  1.0486308066122731e+00  1.0498416587175923e+00  1.0450489516135582e+00  1.0331605623623341e+00  1.0137690150128671e+00  9.9019106762687437e-01  9.6978543555379959e-01  9.6651518719579943e-01  9.9016320698628713e-01  1.0316314496330279e+00  1.0547629043014926e+00  1.0342468198865549e+00  9.9653151284688901e-01  9.9076185571779396e-01  1.0324723157833537e+00  1.0947296192476330e+00  1.1289895028323733e+00  1.1017073053204156e+00  1.0336418766351640e+00  1.0092298189597284e+00  1.0831271159870814e+00  1.1445037985657904e+00  1.0831986906983879e+00  1.0075257802300195e+00  9.9418007824534804e-01  9.9931762985110240e-01  1.0005185695996488e+00  9.9999654240731339e-01  9.9999305992827092e-01  9.9998116798234304e-01  9.9994199297598951e-01  9.9992988428439067e-01  9.9980909838428100e-01  1.0004688025300195e+00  1.0014354862805541e+00  9.9819766360274098e-01  9.9718281943814524e-01  9.9362141114797875e-01  1.0015714912113525e+00  1.0318127514601556e+00  1.0808952040798900e+00  1.1218726386665610e+00  1.1215840641948622e+00  1.0789958491198799e+00  1.0266021715993285e+00  9.8937259566488600e-01  9.8587061139843224e-01  1.0170597865248825e+00  1.0739347667354149e+00  1.1201840518519413e+00  1.1138948532549007e+00  1.0786383523500505e+00  1.0476590163087600e+00  1.0354999268993914e+00  1.0322267458330796e+00  1.0233234496349415e+00  1.0146793717268963e+00  1.0071471409180806e+00  1.0002706197430273e+00  9.9753242849117463e-01  9.9396046497520663e-01  9.9127992528346387e-01  9.8897748465620905e-01  9.8420967875086751e-01  9.8112562996888197e-01  9.7861707070909953e-01  9.7723525475341877e-01  9.7858603767950625e-01  9.7964746718898787e-01  9.8162753585359119e-01  9.8414915690611915e-01  9.8593622726324759e-01  9.8854260378426551e-01  9.9043774148690500e-01  9.9168951697418117e-01  9.9285387175004491e-01  9.9341880145375261e-01  9.9405508550333443e-01  9.9463530297423419e-01  9.9510823419789152e-01  9.9617237553031934e-01  9.9720001333362585e-01  9.9830477781188942e-01  9.9984304864406226e-01  1.0017081484881996e+00  1.0040163737090120e+00  1.0064306174423496e+00  1.0090575399104655e+00  1.0117642510477773e+00  1.0143613473843685e+00  1.0167869224532557e+00  1.0188074150808739e+00  1.0206683114759920e+00  1.0223089709424775e+00  1.0236152871850399e+00  1.0244254110696518e+00  1.0253607292598332e+00  1.0258112544280968e+00  1.0260372639940425e+00  1.0252702844687294e+00  1.0242167532821760e+00  1.0218636993764432e+00  1.0186801281348932e+00  1.0145847691393437e+00  1.0109178486422421e+00  1.0059475125944779e+00  9.9858145859192260e-01  9.8444219298750579e-01  9.6267261885132682e-01  9.3840480025289663e-01  9.3432224620840210e-01  9.7445520330749369e-01  1.0590640117583781e+00  1.1444101492917778e+00  1.1860961706918720e+00  1.1697372975444342e+00  1.1058443141536674e+00  1.0245309315031492e+00  9.7093599062926073e-01  9.6429697429848515e-01  9.8147641134023011e-01  1.0119407469564812e+00  1.0903190063409394e+00  1.1542115990268214e+00  1.0951277151629530e+00  1.0111196056710938e+00  9.9387593344480407e-01  9.9920968565766444e-01  1.0004521955690497e+00  9.9999654240683455e-01  9.9995306659784855e-01  1.0000755942247901e+00  1.0013535968707512e+00  9.9948284357133588e-01  1.0009379275751689e+00  9.9819766360274365e-01  9.9700768159240716e-01  9.9422114124410199e-01  1.0027175692669157e+00  1.0360662079474263e+00  1.0870874995565460e+00  1.1242636461414273e+00  1.1171727603222863e+00  1.0693948931362516e+00  1.0222170863753033e+00  9.9235394435944468e-01  9.8472632350705958e-01  9.8586187830170591e-01  9.8808073953780196e-01  1.0016863310765243e+00  1.0378735280188296e+00  1.0856070218823328e+00  1.1139828179982416e+00  1.0976804616675939e+00  1.0653722434398682e+00  1.0522333120786571e+00  1.0562049480171594e+00  1.0640772519078359e+00  1.0600347238796990e+00  1.0424800886246683e+00  1.0223877665468033e+00  1.0002240174838055e+00  9.8186591109672916e-01  9.6910823007520264e-01  9.5938872137897002e-01  9.5582208645136013e-01  9.5564577512725701e-01  9.5657774771774073e-01  9.5992331362984684e-01  9.6256161814359320e-01  9.6514004769181683e-01  9.6799114593238367e-01  9.6940312850490706e-01  9.7074647299649974e-01  9.7206768470769267e-01  9.7300833327903280e-01  9.7475730603396316e-01  9.7668802200341065e-01  9.7858556064415148e-01  9.8108831783246531e-01  9.8379183891675259e-01  9.8633789826235763e-01  9.8919595006997507e-01  9.9220108549145980e-01  9.9530202819237767e-01  9.9822954302908518e-01  1.0007977596991608e+00  1.0033452538482601e+00  1.0058116309716660e+00  1.0079377845035860e+00  1.0102065503175790e+00  1.0128453594950708e+00  1.0156250984044368e+00  1.0188318977255462e+00  1.0222124904161010e+00  1.0260492117220157e+00  1.0295739151302055e+00  1.0326449263633934e+00  1.0342240404445349e+00  1.0341756700814979e+00  1.0308016490285385e+00  1.0242693673574916e+00  1.0127414991756054e+00  9.9749029114551935e-01  9.7749421211948173e-01  9.5652916091846762e-01  9.3665262391654003e-01  9.2610912689598734e-01  9.2853349406512053e-01  9.5135514579121339e-01  9.9192814509269456e-01  1.0460115905498337e+00  1.0994730263004857e+00  1.1456739710437684e+00  1.1656754109573568e+00  1.1373357802832658e+00  1.0677597171621993e+00  1.0159128082093534e+00  1.0062900152232896e+00  1.0142347620982195e+00  1.0120896535150454e+00  9.9892911887537139e-01  9.8469700641070657e-01  9.9296190078929036e-01  1.0681397279230767e+00  1.1490591820935623e+00  1.1014483063032336e+00  1.0136620658523943e+00  9.9390134817117426e-01  9.9920968565734891e-01  1.0005185696000807e+00  1.0000448836862157e+00  9.9995216708702539e-01  1.0001497300548656e+00  1.0004705873294468e+00  1.0000993539249610e+00  9.9718281943815001e-01  9.9422114124410033e-01  1.0033053149067388e+00  1.0379771197814163e+00  1.0909519143165456e+00  1.1262362404925930e+00  1.1115282941481135e+00  1.0615177975428987e+00  1.0139354767792830e+00  9.8998244801196922e-01  9.8629220599039291e-01  9.8817293847142584e-01  9.8737466331102675e-01  9.8456158944233052e-01  9.8090304757724367e-01  9.8610825391192303e-01  1.0079167916829861e+00  1.0603912566122835e+00  1.1233051817695248e+00  1.1549141766879161e+00  1.1397087959259085e+00  1.0933300399097168e+00  1.0558899583759065e+00  1.0375147765482227e+00  1.0277043267133190e+00  1.0233097762942438e+00  1.0130521014318794e+00  1.0002507151811892e+00  9.8952171105126763e-01  9.7755712542414230e-01  9.6949431501291350e-01  9.6367978070541382e-01  9.5703690058770630e-01  9.5374406222233987e-01  9.5031897978927982e-01  9.4763955207112038e-01  9.4740832278245157e-01  9.4701157387375723e-01  9.4851960801390822e-01  9.5138752498169199e-01  9.5407589244294311e-01  9.5786744808989777e-01  9.6171080410771514e-01  9.6540116638329943e-01  9.6975658356061489e-01  9.7330207889092724e-01  9.7670486534224388e-01  9.8016647742014784e-01  9.8269569383957778e-01  9.8469947206976427e-01  9.8632398186768211e-01  9.8760732437280774e-01  9.8861506262660603e-01  9.8915960156738003e-01  9.8957040167117438e-01  9.8996854024143266e-01  9.8981444774022065e-01  9.8915256781749739e-01  9.8839852551819563e-01  9.8690938044033094e-01  9.8485619136523028e-01  9.8180474433523934e-01  9.7888897601569969e-01  9.7487764799071119e-01  9.7127770784998735e-01  9.6780430901537029e-01  9.6642779832361336e-01  9.6565213267452477e-01  9.6846897574942115e-01  9.7210629369215773e-01  9.7879715472495066e-01  9.8474389292932296e-01  9.9468509934698912e-01  1.0053780333867615e+00  1.0230097564501228e+00  1.0411656628383510e+00  1.0608615292295467e+00  1.0714039664641859e+00  1.0796513909134287e+00  1.0903077096310505e+00  1.1126322004709397e+00  1.1068427055754082e+00  1.0535067328921632e+00  9.8783580392423720e-01  9.6366688713719606e-01  9.7183042162872069e-01  9.9072883473932172e-01  1.0002538581324449e+00  9.9779111943006660e-01  1.0003788162102938e+00  1.0661810605390820e+00  1.1488074871037310e+00  1.1036022560610996e+00  1.0136620658525912e+00  9.9387593344487923e-01  9.9931762985108585e-01  1.0003765526386779e+00  9.9992415611464380e-01  1.0001514468773953e+00  1.0004022170119931e+00  9.9629343497110778e-01  9.9362141114797964e-01  1.0027175692669172e+00  1.0379771197814152e+00  1.0923047535425774e+00  1.1266715129548595e+00  1.1089912252676701e+00  1.0556280572613614e+00  1.0092790238831464e+00  9.8737564170233105e-01  9.8644298701672084e-01  9.8905226072462937e-01  9.9056164794597423e-01  9.9058570099233512e-01  9.9195093575635462e-01  9.9250775812431258e-01  9.9571633175239549e-01  9.9752211681617253e-01  1.0066895784914427e+00  1.0306539672104449e+00  1.0723521614624842e+00  1.1209489251979843e+00  1.1397868513606075e+00  1.1203204661027522e+00  1.0797148467496305e+00  1.0399887198262985e+00  1.0194252882293908e+00  1.0105670557767970e+00  1.0074579295881865e+00  1.0069514822277903e+00  1.0007463826133518e+00  9.9278495191476090e-01  9.8338864263096548e-01  9.7166723038895886e-01  9.6392953778554546e-01  9.5708617894835968e-01  9.5224467660524226e-01  9.5086503420926283e-01  9.4970172734378189e-01  9.4990538233374910e-01  9.5136191900108991e-01  9.5230664530384235e-01  9.5456840630707684e-01  9.5685311318193111e-01  9.5855665489287056e-01  9.6062321600489531e-01  9.6216321662867121e-01  9.6324695036989816e-01  9.6398604914546226e-01  9.6436110331103164e-01  9.6476301857405145e-01  9.6498919245210302e-01  9.6492167209675817e-01  9.6488608925169628e-01  9.6486516687320678e-01  9.6456627724872890e-01  9.6393303078370618e-01  9.6332687348933399e-01  9.6219778507037157e-01  9.6061808592912368e-01  9.5826589912153903e-01  9.5563758916371144e-01  9.5195513019073552e-01  9.4811204330327858e-01  9.4323908562798153e-01  9.3946392695004022e-01  9.3498279302848764e-01  9.3334334310818212e-01  9.3353564949680212e-01  9.4111618880103809e-01  9.5409199131913103e-01  9.7964251107759537e-01  1.0121204750274007e+00  1.0539981576571631e+00  1.0913863171641784e+00  1.1233023240639626e+00  1.1320707764599429e+00  1.1213234678857771e+00  1.0808886153679054e+00  1.0301903806207062e+00  9.7577649523644383e-01  9.5831039675941299e-01  9.8683958348973044e-01  1.0479853023000272e+00  1.0656218664194232e+00  1.0431820065237574e+00  1.0111537305249123e+00  9.9702132490542783e-01  9.8880822588045481e-01  9.8980008190998803e-01  9.8682089163730402e-01  9.9472520084646476e-01  1.0618813609065492e+00  1.1488074871036613e+00  1.1014483063035738e+00  1.0111196056710976e+00  9.9418007824526466e-01  9.9970105702375767e-01  1.0006451709023612e+00  1.0006808308653032e+00  9.9708838006082445e-01  9.9467180744806716e-01  1.0015714912113536e+00  1.0360662079474261e+00  1.0909519143165456e+00  1.1266715129548599e+00  1.1072869002868115e+00  1.0533556318675792e+00  1.0056121885235425e+00  9.8758295947486052e-01  9.8641893995868823e-01  9.8966968084765305e-01  9.8999154919319243e-01  9.8911140491535088e-01  9.9092380678453318e-01  9.9316633870678106e-01  9.9649363747863051e-01  1.0027626734228785e+00  1.0073881077339495e+00  1.0110698037172459e+00  1.0097976854163744e+00  1.0075048207778838e+00  1.0217155352992526e+00  1.0541245135668542e+00  1.0956969589953154e+00  1.1225925644435248e+00  1.1110832902562375e+00  1.0781800959358137e+00  1.0389571363876930e+00  1.0079735145352622e+00  9.9295270034045446e-01  9.8346287390029097e-01  9.8039832779716785e-01  9.8121030122766861e-01  9.7991700328613340e-01  9.8088576832889751e-01  9.7956394128311686e-01  9.7607562126747593e-01  9.7383803720943785e-01  9.7000489075158003e-01  9.6696450595468575e-01  9.6574429347180479e-01  9.6342487767675811e-01  9.6250322156822932e-01  9.6180158798067505e-01  9.6027972064355949e-01  9.5965842947658242e-01  9.5858253392325088e-01  9.5722007014941313e-01  9.5627931476177008e-01  9.5481706298459157e-01  9.5301458192319033e-01  9.5137671415004721e-01  9.4930589289867184e-01  9.4713980817940080e-01  9.4512262610861331e-01  9.4309261486960705e-01  9.4124544851433856e-01  9.3966680294183524e-01  9.3788363324735013e-01  9.3672721289999328e-01  9.3546052722227924e-01  9.3481229779474795e-01  9.3438413843266876e-01  9.3612823285082947e-01  9.3859811975418539e-01  9.4497982547387571e-01  9.5362797620930828e-01  9.6877349544059310e-01  9.8646205518187347e-01  1.0115091993341341e+00  1.0370433122482923e+00  1.0668212604872260e+00  1.0879963930957299e+00  1.1047935544402923e+00  1.1007310614853847e+00  1.0849023660027193e+00  1.0485199546376469e+00  1.0187991992239596e+00  9.9378949992736210e-01  9.9616560127243459e-01  1.0019881720848927e+00  1.0161861590102210e+00  1.0142428765165357e+00  1.0292534954744861e+00  1.0386628085915299e+00  1.0345769300783816e+00  9.9973160893552360e-01  9.9227841223748914e-01  9.9239204588904106e-01  1.0020085446464737e+00  9.9734387071201513e-01  9.9529190635048503e-01  9.9472520084603122e-01  1.0661810605389486e+00  1.1490591820936242e+00  1.0951277151634193e+00  1.0075257802304234e+00  9.9499172910978528e-01  1.0004219815799571e+00  9.9391805073804740e-01  9.9459752460079320e-01  1.0001452639371622e+00  1.0318127514601447e+00  1.0870874995565434e+00  1.1262362404925987e+00  1.1089912252676686e+00  1.0533556318675756e+00  1.0052831097327535e+00  9.8707547298968901e-01  9.8644302765126812e-01  9.8934120288152760e-01  9.8928997323216794e-01  9.8967302165036131e-01  9.9091407293627720e-01  9.9467798386414075e-01  9.9972754159221955e-01  1.0079043219012891e+00  1.0162585339758849e+00  1.0204975178181803e+00  1.0169668175149174e+00  1.0088618844860795e+00  9