<?xml version="1.0"?>
<VTKFile type="UnstructuredGrid"  version="0.1"  >
<UnstructuredGrid>
<Piece  NumberOfPoints="10201" NumberOfCells="20000">
<Points>
<DataArray  type="Float64"  NumberOfComponents="3"  format="ascii">-5 -5 0  -4.9 -5 0  -4.8 -5 0  -4.7 -5 0  -4.6 -5 0  -4.5 -5 0  -4.4 -5 0  -4.3 -5 0  -4.2 -5 0  -4.1 -5 0  -4 -5 0  -3.9 -5 0  -3.8 -5 0  -3.7 -5 0  -3.6 -5 0  -3.5 -5 0  -3.4 -5 0  -3.3 -5 0  -3.2 -5 0  -3.1 -5 0  -3 -5 0  -2.9 -5 0  -2.8 -5 0  -2.7 -5 0  -2.6 -5 0  -2.5 -5 0  -2.4 -5 0  -2.3 -5 0  -2.2 -5 0  -2.1 -5 0  -2 -5 0  -1.9 -5 0  -1.8 -5 0  -1.7 -5 0  -1.6 -5 0  -1.5 -5 0  -1.4 -5 0  -1.3 -5 0  -1.2 -5 0  -1.1 -5 0  -1 -5 0  -0.9000000000000004 -5 0  -0.7999999999999998 -5 0  -0.7000000000000002 -5 0  -0.5999999999999996 -5 0  -0.5 -5 0  -0.4000000000000004 -5 0  -0.2999999999999998 -5 0  -0.2000000000000002 -5 0  -0.09999999999999964 -5 0  0 -5 0  0.09999999999999964 -5 0  0.2000000000000002 -5 0  0.2999999999999998 -5 0  0.4000000000000004 -5 0  0.5 -5 0  0.5999999999999996 -5 0  0.7000000000000002 -5 0  0.7999999999999998 -5 0  0.9000000000000004 -5 0  1 -5 0  1.1 -5 0  1.2 -5 0  1.3 -5 0  1.4 -5 0  1.5 -5 0  1.6 -5 0  1.7 -5 0  1.8 -5 0  1.9 -5 0  2 -5 0  2.1 -5 0  2.2 -5 0  2.3 -5 0  2.4 -5 0  2.5 -5 0  2.6 -5 0  2.7 -5 0  2.8 -5 0  2.9 -5 0  3 -5 0  3.1 -5 0  3.199999999999999 -5 0  3.300000000000001 -5 0  3.4 -5 0  3.5 -5 0  3.6 -5 0  3.699999999999999 -5 0  3.800000000000001 -5 0  3.9 -5 0  4 -5 0  4.1 -5 0  4.199999999999999 -5 0  4.300000000000001 -5 0  4.4 -5 0  4.5 -5 0  4.6 -5 0  4.699999999999999 -5 0  4.800000000000001 -5 0  4.9 -5 0  5 -5 0  -5 -4.9 0  -4.9 -4.9 0  -4.8 -4.9 0  -4.7 -4.9 0  -4.6 -4.9 0  -4.5 -4.9 0  -4.4 -4.9 0  -4.3 -4.9 0  -4.2 -4.9 0  -4.1 -4.9 0  -4 -4.9 0  -3.9 -4.9 0  -3.8 -4.9 0  -3.7 -4.9 0  -3.6 -4.9 0  -3.5 -4.9 0  -3.4 -4.9 0  -3.3 -4.9 0  -3.2 -4.9 0  -3.1 -4.9 0  -3 -4.9 0  -2.9 -4.9 0  -2.8 -4.9 0  -2.7 -4.9 0  -2.6 -4.9 0  -2.5 -4.9 0  -2.4 -4.9 0  -2.3 -4.9 0  -2.2 -4.9 0  -2.1 -4.9 0  -2 -4.9 0  -1.9 -4.9 0  -1.8 -4.9 0  -1.7 -4.9 0  -1.6 -4.9 0  -1.5 -4.9 0  -1.4 -4.9 0  -1.3 -4.9 0  -1.2 -4.9 0  -1.1 -4.9 0  -1 -4.9 0  -0.9000000000000004 -4.9 0  -0.7999999999999998 -4.9 0  -0.7000000000000002 -4.9 0  -0.5999999999999996 -4.9 0  -0.5 -4.9 0  -0.4000000000000004 -4.9 0  -0.2999999999999998 -4.9 0  -0.2000000000000002 -4.9 0  -0.09999999999999964 -4.9 0  0 -4.9 0  0.09999999999999964 -4.9 0  0.2000000000000002 -4.9 0  0.2999999999999998 -4.9 0  0.4000000000000004 -4.9 0  0.5 -4.9 0  0.5999999999999996 -4.9 0  0.7000000000000002 -4.9 0  0.7999999999999998 -4.9 0  0.9000000000000004 -4.9 0  1 -4.9 0  1.1 -4.9 0  1.2 -4.9 0  1.3 -4.9 0  1.4 -4.9 0  1.5 -4.9 0  1.6 -4.9 0  1.7 -4.9 0  1.8 -4.9 0  1.9 -4.9 0  2 -4.9 0  2.1 -4.9 0  2.2 -4.9 0  2.3 -4.9 0  2.4 -4.9 0  2.5 -4.9 0  2.6 -4.9 0  2.7 -4.9 0  2.8 -4.9 0  2.9 -4.9 0  3 -4.9 0  3.1 -4.9 0  3.199999999999999 -4.9 0  3.300000000000001 -4.9 0  3.4 -4.9 0  3.5 -4.9 0  3.6 -4.9 0  3.699999999999999 -4.9 0  3.800000000000001 -4.9 0  3.9 -4.9 0  4 -4.9 0  4.1 -4.9 0  4.199999999999999 -4.9 0  4.300000000000001 -4.9 0  4.4 -4.9 0  4.5 -4.9 0  4.6 -4.9 0  4.699999999999999 -4.9 0  4.800000000000001 -4.9 0  4.9 -4.9 0  5 -4.9 0  -5 -4.8 0  -4.9 -4.8 0  -4.8 -4.8 0  -4.7 -4.8 0  -4.6 -4.8 0  -4.5 -4.8 0  -4.4 -4.8 0  -4.3 -4.8 0  -4.2 -4.8 0  -4.1 -4.8 0  -4 -4.8 0  -3.9 -4.8 0  -3.8 -4.8 0  -3.7 -4.8 0  -3.6 -4.8 0  -3.5 -4.8 0  -3.4 -4.8 0  -3.3 -4.8 0  -3.2 -4.8 0  -3.1 -4.8 0  -3 -4.8 0  -2.9 -4.8 0  -2.8 -4.8 0  -2.7 -4.8 0  -2.6 -4.8 0  -2.5 -4.8 0  -2.4 -4.8 0  -2.3 -4.8 0  -2.2 -4.8 0  -2.1 -4.8 0  -2 -4.8 0  -1.9 -4.8 0  -1.8 -4.8 0  -1.7 -4.8 0  -1.6 -4.8 0  -1.5 -4.8 0  -1.4 -4.8 0  -1.3 -4.8 0  -1.2 -4.8 0  -1.1 -4.8 0  -1 -4.8 0  -0.9000000000000004 -4.8 0  -0.7999999999999998 -4.8 0  -0.7000000000000002 -4.8 0  -0.5999999999999996 -4.8 0  -0.5 -4.8 0  -0.4000000000000004 -4.8 0  -0.2999999999999998 -4.8 0  -0.2000000000000002 -4.8 0  -0.09999999999999964 -4.8 0  0 -4.8 0  0.09999999999999964 -4.8 0  0.2000000000000002 -4.8 0  0.2999999999999998 -4.8 0  0.4000000000000004 -4.8 0  0.5 -4.8 0  0.5999999999999996 -4.8 0  0.7000000000000002 -4.8 0  0.7999999999999998 -4.8 0  0.9000000000000004 -4.8 0  1 -4.8 0  1.1 -4.8 0  1.2 -4.8 0  1.3 -4.8 0  1.4 -4.8 0  1.5 -4.8 0  1.6 -4.8 0  1.7 -4.8 0  1.8 -4.8 0  1.9 -4.8 0  2 -4.8 0  2.1 -4.8 0  2.2 -4.8 0  2.3 -4.8 0  2.4 -4.8 0  2.5 -4.8 0  2.6 -4.8 0  2.7 -4.8 0  2.8 -4.8 0  2.9 -4.8 0  3 -4.8 0  3.1 -4.8 0  3.199999999999999 -4.8 0  3.300000000000001 -4.8 0  3.4 -4.8 0  3.5 -4.8 0  3.6 -4.8 0  3.699999999999999 -4.8 0  3.800000000000001 -4.8 0  3.9 -4.8 0  4 -4.8 0  4.1 -4.8 0  4.199999999999999 -4.8 0  4.300000000000001 -4.8 0  4.4 -4.8 0  4.5 -4.8 0  4.6 -4.8 0  4.699999999999999 -4.8 0  4.800000000000001 -4.8 0  4.9 -4.8 0  5 -4.8 0  -5 -4.7 0  -4.9 -4.7 0  -4.8 -4.7 0  -4.7 -4.7 0  -4.6 -4.7 0  -4.5 -4.7 0  -4.4 -4.7 0  -4.3 -4.7 0  -4.2 -4.7 0  -4.1 -4.7 0  -4 -4.7 0  -3.9 -4.7 0  -3.8 -4.7 0  -3.7 -4.7 0  -3.6 -4.7 0  -3.5 -4.7 0  -3.4 -4.7 0  -3.3 -4.7 0  -3.2 -4.7 0  -3.1 -4.7 0  -3 -4.7 0  -2.9 -4.7 0  -2.8 -4.7 0  -2.7 -4.7 0  -2.6 -4.7 0  -2.5 -4.7 0  -2.4 -4.7 0  -2.3 -4.7 0  -2.2 -4.7 0  -2.1 -4.7 0  -2 -4.7 0  -1.9 -4.7 0  -1.8 -4.7 0  -1.7 -4.7 0  -1.6 -4.7 0  -1.5 -4.7 0  -1.4 -4.7 0  -1.3 -4.7 0  -1.2 -4.7 0  -1.1 -4.7 0  -1 -4.7 0  -0.9000000000000004 -4.7 0  -0.7999999999999998 -4.7 0  -0.7000000000000002 -4.7 0  -0.5999999999999996 -4.7 0  -0.5 -4.7 0  -0.4000000000000004 -4.7 0  -0.2999999999999998 -4.7 0  -0.2000000000000002 -4.7 0  -0.09999999999999964 -4.7 0  0 -4.7 0  0.09999999999999964 -4.7 0  0.2000000000000002 -4.7 0  0.2999999999999998 -4.7 0  0.4000000000000004 -4.7 0  0.5 -4.7 0  0.5999999999999996 -4.7 0  0.7000000000000002 -4.7 0  0.7999999999999998 -4.7 0  0.9000000000000004 -4.7 0  1 -4.7 0  1.1 -4.7 0  1.2 -4.7 0  1.3 -4.7 0  1.4 -4.7 0  1.5 -4.7 0  1.6 -4.7 0  1.7 -4.7 0  1.8 -4.7 0  1.9 -4.7 0  2 -4.7 0  2.1 -4.7 0  2.2 -4.7 0  2.3 -4.7 0  2.4 -4.7 0  2.5 -4.7 0  2.6 -4.7 0  2.7 -4.7 0  2.8 -4.7 0  2.9 -4.7 0  3 -4.7 0  3.1 -4.7 0  3.199999999999999 -4.7 0  3.300000000000001 -4.7 0  3.4 -4.7 0  3.5 -4.7 0  3.6 -4.7 0  3.699999999999999 -4.7 0  3.800000000000001 -4.7 0  3.9 -4.7 0  4 -4.7 0  4.1 -4.7 0  4.199999999999999 -4.7 0  4.300000000000001 -4.7 0  4.4 -4.7 0  4.5 -4.7 0  4.6 -4.7 0  4.699999999999999 -4.7 0  4.800000000000001 -4.7 0  4.9 -4.7 0  5 -4.7 0  -5 -4.6 0  -4.9 -4.6 0  -4.8 -4.6 0  -4.7 -4.6 0  -4.6 -4.6 0  -4.5 -4.6 0  -4.4 -4.6 0  -4.3 -4.6 0  -4.2 -4.6 0  -4.1 -4.6 0  -4 -4.6 0  -3.9 -4.6 0  -3.8 -4.6 0  -3.7 -4.6 0  -3.6 -4.6 0  -3.5 -4.6 0  -3.4 -4.6 0  -3.3 -4.6 0  -3.2 -4.6 0  -3.1 -4.6 0  -3 -4.6 0  -2.9 -4.6 0  -2.8 -4.6 0  -2.7 -4.6 0  -2.6 -4.6 0  -2.5 -4.6 0  -2.4 -4.6 0  -2.3 -4.6 0  -2.2 -4.6 0  -2.1 -4.6 0  -2 -4.6 0  -1.9 -4.6 0  -1.8 -4.6 0  -1.7 -4.6 0  -1.6 -4.6 0  -1.5 -4.6 0  -1.4 -4.6 0  -1.3 -4.6 0  -1.2 -4.6 0  -1.1 -4.6 0  -1 -4.6 0  -0.9000000000000004 -4.6 0  -0.7999999999999998 -4.6 0  -0.7000000000000002 -4.6 0  -0.5999999999999996 -4.6 0  -0.5 -4.6 0  -0.4000000000000004 -4.6 0  -0.2999999999999998 -4.6 0  -0.2000000000000002 -4.6 0  -0.09999999999999964 -4.6 0  0 -4.6 0  0.09999999999999964 -4.6 0  0.2000000000000002 -4.6 0  0.2999999999999998 -4.6 0  0.4000000000000004 -4.6 0  0.5 -4.6 0  0.5999999999999996 -4.6 0  0.7000000000000002 -4.6 0  0.7999999999999998 -4.6 0  0.9000000000000004 -4.6 0  1 -4.6 0  1.1 -4.6 0  1.2 -4.6 0  1.3 -4.6 0  1.4 -4.6 0  1.5 -4.6 0  1.6 -4.6 0  1.7 -4.6 0  1.8 -4.6 0  1.9 -4.6 0  2 -4.6 0  2.1 -4.6 0  2.2 -4.6 0  2.3 -4.6 0  2.4 -4.6 0  2.5 -4.6 0  2.6 -4.6 0  2.7 -4.6 0  2.8 -4.6 0  2.9 -4.6 0  3 -4.6 0  3.1 -4.6 0  3.199999999999999 -4.6 0  3.300000000000001 -4.6 0  3.4 -4.6 0  3.5 -4.6 0  3.6 -4.6 0  3.699999999999999 -4.6 0  3.800000000000001 -4.6 0  3.9 -4.6 0  4 -4.6 0  4.1 -4.6 0  4.199999999999999 -4.6 0  4.300000000000001 -4.6 0  4.4 -4.6 0  4.5 -4.6 0  4.6 -4.6 0  4.699999999999999 -4.6 0  4.800000000000001 -4.6 0  4.9 -4.6 0  5 -4.6 0  -5 -4.5 0  -4.9 -4.5 0  -4.8 -4.5 0  -4.7 -4.5 0  -4.6 -4.5 0  -4.5 -4.5 0  -4.4 -4.5 0  -4.3 -4.5 0  -4.2 -4.5 0  -4.1 -4.5 0  -4 -4.5 0  -3.9 -4.5 0  -3.8 -4.5 0  -3.7 -4.5 0  -3.6 -4.5 0  -3.5 -4.5 0  -3.4 -4.5 0  -3.3 -4.5 0  -3.2 -4.5 0  -3.1 -4.5 0  -3 -4.5 0  -2.9 -4.5 0  -2.8 -4.5 0  -2.7 -4.5 0  -2.6 -4.5 0  -2.5 -4.5 0  -2.4 -4.5 0  -2.3 -4.5 0  -2.2 -4.5 0  -2.1 -4.5 0  -2 -4.5 0  -1.9 -4.5 0  -1.8 -4.5 0  -1.7 -4.5 0  -1.6 -4.5 0  -1.5 -4.5 0  -1.4 -4.5 0  -1.3 -4.5 0  -1.2 -4.5 0  -1.1 -4.5 0  -1 -4.5 0  -0.9000000000000004 -4.5 0  -0.7999999999999998 -4.5 0  -0.7000000000000002 -4.5 0  -0.5999999999999996 -4.5 0  -0.5 -4.5 0  -0.4000000000000004 -4.5 0  -0.2999999999999998 -4.5 0  -0.2000000000000002 -4.5 0  -0.09999999999999964 -4.5 0  0 -4.5 0  0.09999999999999964 -4.5 0  0.2000000000000002 -4.5 0  0.2999999999999998 -4.5 0  0.4000000000000004 -4.5 0  0.5 -4.5 0  0.5999999999999996 -4.5 0  0.7000000000000002 -4.5 0  0.7999999999999998 -4.5 0  0.9000000000000004 -4.5 0  1 -4.5 0  1.1 -4.5 0  1.2 -4.5 0  1.3 -4.5 0  1.4 -4.5 0  1.5 -4.5 0  1.6 -4.5 0  1.7 -4.5 0  1.8 -4.5 0  1.9 -4.5 0  2 -4.5 0  2.1 -4.5 0  2.2 -4.5 0  2.3 -4.5 0  2.4 -4.5 0  2.5 -4.5 0  2.6 -4.5 0  2.7 -4.5 0  2.8 -4.5 0  2.9 -4.5 0  3 -4.5 0  3.1 -4.5 0  3.199999999999999 -4.5 0  3.300000000000001 -4.5 0  3.4 -4.5 0  3.5 -4.5 0  3.6 -4.5 0  3.699999999999999 -4.5 0  3.800000000000001 -4.5 0  3.9 -4.5 0  4 -4.5 0  4.1 -4.5 0  4.199999999999999 -4.5 0  4.300000000000001 -4.5 0  4.4 -4.5 0  4.5 -4.5 0  4.6 -4.5 0  4.699999999999999 -4.5 0  4.800000000000001 -4.5 0  4.9 -4.5 0  5 -4.5 0  -5 -4.4 0  -4.9 -4.4 0  -4.8 -4.4 0  -4.7 -4.4 0  -4.6 -4.4 0  -4.5 -4.4 0  -4.4 -4.4 0  -4.3 -4.4 0  -4.2 -4.4 0  -4.1 -4.4 0  -4 -4.4 0  -3.9 -4.4 0  -3.8 -4.4 0  -3.7 -4.4 0  -3.6 -4.4 0  -3.5 -4.4 0  -3.4 -4.4 0  -3.3 -4.4 0  -3.2 -4.4 0  -3.1 -4.4 0  -3 -4.4 0  -2.9 -4.4 0  -2.8 -4.4 0  -2.7 -4.4 0  -2.6 -4.4 0  -2.5 -4.4 0  -2.4 -4.4 0  -2.3 -4.4 0  -2.2 -4.4 0  -2.1 -4.4 0  -2 -4.4 0  -1.9 -4.4 0  -1.8 -4.
[...]
<PointData  Scalars="r"> 
<DataArray  type="Float64"  Name="r"  format="ascii">1.0001283407945478e+00  1.0000268385558657e+00  1.0001552026601144e+00  1.0001081679224773e+00  1.0001176398320122e+00  1.0000415600063735e+00  9.9990115225029486e-01  9.9974882342335214e-01  9.9969645683971420e-01  9.9969109087998986e-01  9.9975458580187093e-01  9.9993580798622506e-01  1.0000221561678111e+00  9.9989937331339440e-01  9.9979499007780315e-01  9.9979993758208952e-01  9.9984590572872833e-01  1.0000632881627023e+00  1.0003218978018336e+00  1.0002222816008817e+00  9.9988433639071406e-01  9.9969421914304879e-01  9.9967078340982840e-01  9.9977188412690032e-01  9.9988077524106933e-01  9.9969427146740197e-01  9.9943266108912621e-01  9.9959263528867826e-01  9.9998508868478897e-01  1.0001932243307607e+00  1.0001846178150413e+00  1.0000544946010845e+00  1.0000586299699041e+00  1.0002844391614762e+00  1.0002614557554621e+00  9.9993085300934115e-01  9.9987129860847002e-01  1.0000866969007776e+00  1.0001323143227705e+00  9.9997680262700073e-01  9.9985287172656701e-01  9.9997454444877054e-01  1.0001798937577278e+00  1.0000191645758028e+00  9.9978999607525720e-01  1.0000217962714153e+00  1.0002001220260381e+00  9.9993677629691491e-01  9.9983784723092972e-01  1.0000762518691813e+00  1.0001330522868344e+00  9.9992359849099710e-01  9.9986843601924946e-01  1.0001036498075411e+00  1.0001274101653375e+00  9.9983143155146237e-01  9.9993111515666588e-01  1.0002229477422273e+00  9.9994634205953292e-01  9.9980295929670482e-01  1.0001778929845686e+00  1.0000734510087677e+00  9.9978470337411174e-01  1.0000807644719465e+00  1.0001340323800139e+00  9.9983534694533527e-01  1.0000053409462109e+00  1.0001319875891390e+00  9.9989843042516102e-01  9.9997093198527431e-01  1.0001011736134440e+00  9.9994498287743327e-01  9.9996653104339750e-01  1.0000661346171955e+00  9.9997340903863152e-01  9.9997256625235542e-01  1.0000417141561320e+00  9.9998444638488593e-01  9.9998536061197818e-01  1.0000206857845158e+00  9.9999485573220526e-01  9.9998852046888265e-01  1.0000148188845290e+00  9.9999329020227923e-01  9.9999778504962622e-01  1.0000047046915717e+00  9.9999871899775861e-01  9.9999748209017636e-01  1.0000038976169610e+00  9.9999897346866784e-01  1.0000001202788746e+00  1.0000035538063790e+00  1.0000022282304737e+00  1.0000025869907574e+00  1.0000101040371896e+00  1.0000012738831114e+00  1.0000178113559026e+00  9.9999964419772314e-01  1.0000228044247996e+00  9.9999454530739218e-01  1.0000207369400582e+00  1.0000268385558704e+00  9.9990134862703717e-01  9.9992764951804314e-01  9.9986617737073957e-01  9.9991840853825253e-01  9.9991915890710836e-01  1.0000278647691196e+00  1.0001597154764392e+00  1.0002504760689666e+00  1.0002513851615429e+00  1.0002526652086827e+00  1.0001519879828675e+00  1.0000084978642867e+00  1.0000414895098955e+00  1.0001658877278474e+00  1.0001641200949567e+00  1.0001307410294953e+00  1.0000614311795633e+00  9.9983732935360370e-01  9.9974199578721223e-01  9.9996214634215752e-01  1.0001738938483031e+00  1.0002419043677790e+00  1.0002697401730622e+00  1.0002105727787991e+00  1.0002259374417475e+00  1.0004488322178227e+00  1.0004916177316447e+00  1.0002099401722828e+00  9.9996035268609273e-01  9.9984861594000796e-01  9.9983715368681736e-01  9.9991198033088413e-01  9.9984548671682372e-01  9.9972945836187632e-01  9.9989605837196516e-01  1.0000853645782020e+00  1.0000069337608326e+00  9.9991843554695858e-01  9.9995698985863213e-01  1.0000442318675280e+00  1.0000937019092391e+00  9.9995950150624258e-01  9.9987665433893902e-01  1.0000781933686600e+00  1.0001175717980597e+00  9.9989063552367841e-01  9.9992105137676379e-01  1.0001094676599065e+00  1.0000474700881861e+00  9.9990967057628766e-01  9.9995426343755867e-01  1.0000913487832324e+00  1.0000508474297687e+00  9.9987165229358266e-01  9.9998390395606940e-01  1.0001641264305732e+00  9.9992819599390159e-01  9.9986134233633528e-01  1.0001630503023324e+00  1.0000346699868572e+00  9.9981718997582891e-01  1.0000920888302767e+00  1.0001037895540512e+00  9.9984463221279574e-01  1.0000207610959380e+00  1.0001169144422737e+00  9.9989719674075483e-01  9.9998109033669991e-01  1.0000958451464628e+00  9.9994269478737696e-01  9.9996996279364847e-01  1.0000662404761311e+00  9.9997104059114450e-01  9.9997439171655245e-01  1.0000405772485288e+00  9.9998648585564054e-01  9.9998194928098993e-01  1.0000243734819563e+00  9.9999172148691418e-01  9.9999169660354359e-01  1.0000104049172447e+00  9.9999929900891016e-01  9.9999088350458276e-01  1.0000115367400957e+00  9.9999196725933437e-01  1.0000042624665597e+00  9.9999573323473279e-01  1.0000068077230648e+00  9.9998951672614289e-01  1.0000104445092330e+00  9.9998812819579475e-01  1.0000067429009820e+00  9.9998862586678827e-01  1.0000022413944156e+00  9.9998646380051204e-01  9.9999816578952594e-01  9.9998496064725484e-01  9.9999483828588220e-01  9.9998790093385037e-01  9.9999454530743226e-01  1.0001552026601122e+00  9.9992764951804414e-01  1.0001184094575237e+00  1.0000547597905467e+00  1.0001069454238540e+00  1.0000572427938903e+00  1.0000540172009524e+00  9.9993568595601545e-01  9.9983656499019269e-01  9.9980841344471949e-01  9.9980723710593511e-01  9.9980666925419737e-01  9.9993186836864345e-01  1.0000113998884708e+00  9.9990796567968077e-01  9.9984571115488297e-01  9.9988933429645577e-01  9.9988727656872178e-01  9.9998565544212770e-01  1.0001946173452796e+00  1.0001699895667711e+00  9.9996695724275386e-01  9.9987291334724326e-01  9.9981273081295841e-01  9.9978034094801349e-01  9.9982681442541155e-01  9.9971049405621037e-01  9.9951808639369344e-01  9.9962236987122877e-01  9.9987460654013260e-01  1.0000273602239909e+00  1.0001352472974030e+00  1.0001405256224027e+00  1.0001123249984201e+00  1.0002194143037675e+00  1.0002063284434097e+00  1.0000026592354039e+00  9.9996753169727293e-01  1.0000542446123688e+00  1.0000398160484025e+00  1.0000001189119736e+00  9.9995126585901639e-01  9.9996009499668659e-01  1.0000783233327739e+00  1.0000309422611002e+00  9.9989326015577373e-01  1.0000046577057262e+00  1.0000968622593343e+00  9.9996564729749404e-01  9.9993661944414580e-01  1.0000312747431788e+00  1.0000439637444505e+00  9.9998718891800864e-01  9.9994168143326645e-01  1.0000197799178627e+00  1.0000798393628505e+00  9.9993319802451497e-01  9.9993855876425519e-01  1.0001172866325441e+00  9.9999018733937650e-01  9.9988380814088662e-01  1.0000904683011054e+00  1.0000479597020266e+00  9.9988206161472415e-01  1.0000416566937842e+00  1.0000726171963061e+00  9.9991153042841530e-01  1.0000052829064732e+00  1.0000672740607068e+00  9.9994575984080325e-01  9.9998879589246847e-01  1.0000493841135190e+00  9.9997089598139044e-01  9.9998628394062183e-01  1.0000312420131803e+00  9.9998561115924467e-01  9.9998959354446837e-01  1.0000178169867175e+00  9.9999294260073035e-01  9.9999425320684832e-01  1.0000081880273628e+00  9.9999859556351511e-01  9.9999409968789499e-01  1.0000079213720374e+00  9.9999435970629180e-01  1.0000033717144119e+00  9.9999634352041300e-01  1.0000060940810120e+00  9.9999188337144906e-01  1.0000093345523444e+00  9.9999223988463515e-01  1.0000080205687325e+00  9.9999630922162053e-01  1.0000065800528484e+00  1.0000024260083071e+00  1.0000047090299871e+00  1.0000110672794187e+00  1.0000009859620824e+00  1.0000199394517184e+00  9.9999483828581992e-01  1.0000228044247872e+00  1.0001081679224784e+00  9.9986617737073935e-01  1.0000547597905469e+00  9.9986834530608648e-01  9.9996404112290327e-01  9.9992417268011047e-01  9.9998650604119554e-01  9.9999112485385788e-01  1.0001205111359710e+00  1.0001379790646927e+00  1.0001084737611596e+00  1.0001010174309295e+00  1.0000850487834818e+00  9.9997299840636855e-01  1.0000180675789048e+00  1.0001513220341203e+00  1.0001169581105800e+00  1.0000421101879089e+00  1.0000467470228080e+00  9.9993578366397595e-01  9.9985408040551782e-01  9.9999198926696231e-01  1.0000758209769953e+00  1.0000388385841914e+00  1.0000921096126596e+00  1.0001362926615882e+00  1.0001786270343771e+00  1.0003544755542579e+00  1.0003947247500879e+00  1.0002084557338187e+00  1.0000969705776945e+00  1.0000200050190042e+00  9.9988617669987201e-01  9.9985034265346728e-01  9.9982702988357475e-01  9.9979429738043335e-01  9.9992065391212892e-01  1.0000046382967367e+00  9.9993573679010972e-01  9.9996391723789990e-01  1.0000264095158138e+00  1.0000020801329577e+00  1.0000138530196152e+00  9.9999668768896455e-01  9.9996286303571968e-01  1.0000392786880541e+00  1.0000292312543895e+00  9.9993820398930289e-01  1.0000063717848524e+00  1.0000502686613817e+00  9.9997045026687414e-01  9.9998199676998667e-01  1.0000193540368729e+00  1.0000024601174782e+00  1.0000049857795870e+00  9.9998050153045726e-01  9.9999388061003114e-01  1.0000435010881767e+00  9.9997416180266152e-01  9.9996318246408666e-01  1.0000598045873386e+00  9.9999364078104769e-01  9.9994346562995540e-01  1.0000496696105305e+00  1.0000146718183733e+00  9.9994406348398568e-01  1.0000305980804551e+00  1.0000227641859765e+00  9.9995812412209018e-01  1.0000141549207071e+00  1.0000211887236654e+00  9.9997280784157783e-01  1.0000063788911100e+00  1.0000132351982594e+00  9.9998648605154306e-01  1.0000004169428200e+00  1.0000099840478833e+00  9.9998984146252246e-01  1.0000048108407158e+00  9.9999820270005868e-01  1.0000038120029870e+00  9.9999178353676010e-01  1.0000117154711663e+00  9.9998649774265136e-01  1.0000146995190959e+00  9.9998361113456102e-01  1.0000185393351586e+00  9.9997924946083139e-01  1.0000222225195392e+00  9.9997641372887891e-01  1.0000231524815295e+00  9.9997601760700217e-01  1.0000202695441094e+00  9.9997785417755625e-01  1.0000139082272503e+00  9.9997968720450636e-01  1.0000069492478800e+00  9.9998143263047767e-01  1.0000009859621819e+00  9.9998496064723363e-01  9.9999964419782950e-01  1.0001176398320091e+00  9.9991840853825553e-01  1.0001069454238534e+00  9.9996404112290238e-01  1.0000983578172218e+00  1.0000095415031720e+00  1.0000167347128393e+00  9.9999103890987928e-01  9.9997447335956213e-01  9.9989057146160676e-01  9.9996565103907675e-01  1.0000145289362186e+00  9.9999265642478952e-01  1.0000140648260516e+00  1.0000712619939964e+00  9.9993138558554207e-01  9.9986468333864298e-01  9.9998606268577983e-01  1.0000161005748436e+00  9.9997936103346807e-01  1.0000561180500027e+00  1.0000215934141157e+00  9.9991700782869519e-01  9.9999711610732167e-01  1.0000549478017862e+00  9.9996062827136123e-01  9.9990561839494996e-01  9.9980091421489448e-01  9.9966718046479175e-01  9.9975014961709208e-01  9.9986258327347954e-01  9.9985459889455275e-01  9.9996700379886605e-01  1.0001292414361360e+00  1.0001734848983874e+00  1.0001938852756984e+00  1.0001271102032221e+00  1.0000150458858348e+00  1.0000693319746101e+00  1.0000907727420436e+00  9.9996494865894026e-01  9.9996159037466659e-01  1.0000285764580092e+00  1.0000096166602315e+00  1.0000004316746172e+00  9.9997898895312110e-01  9.9997554076438699e-01  1.0000507441889348e+00  1.0000095702854992e+00  9.9993060170580894e-01  1.0000266417957353e+00  1.0000536473218329e+00  9.9995003258799298e-01  9.9998050363954505e-01  1.0000434188908149e+00  9.9999853172405329e-01  9.9997512711935310e-01  9.9999998650641331e-01  1.0000200418687915e+00  1.0000040395964924e+00  9.9996983897895508e-01  1.0000102887603228e+00  1.0000304125956974e+00  9.9996696290825049e-01  9.9999217063445867e-01  1.0000391640177662e+00  9.9997647218594587e-01  9.9998381164956873e-01  1.0000327003053799e+00  9.9998763947365843e-01  9.9998324798969485e-01  1.0000240284904791e+00  9.9999180784609021e-01  9.9999049883391000e-01  1.0000122470710648e+00  9.9999818688208131e-01  9.9999067620702797e-01  1.0000126446520048e+00  9.9999071248058224e-01  1.0000053725718943e+00  9.9999480863010937e-01  1.0000087071406769e+00  9.9998664042412166e-01  1.0000168509238962e+00  9.9998149380911605e-01  1.0000190589502722e+00  9.9998043882993415e-01  1.0000207074518852e+00  9.9997808970050794e-01  1.0000229251508705e+00  9.9997833276261705e-01  1.0000206125622599e+00  9.9998456407749137e-01  1.0000154077282453e+00  9.9999281109150751e-01  1.0000119571936903e+00  1.0000013410140249e+00  1.0000069492477865e+00  1.0000110672793998e+00  9.9999816578946443e-01  1.0000178113558709e+00  1.0000415600063814e+00  9.9991915890710481e-01  1.0000572427938907e+00  9.9992417268011125e-01  1.0000095415031756e+00  9.9993073367267959e-01  1.0000252495022863e+00  1.0000134429449068e+00  1.0000121067728283e+00  1.0000308506685913e+00  1.0000524529107215e+00  9.9989451623276726e-01  9.9988860382319311e-01  9.9993408769523440e-01  9.9991041795126367e-01  9.9993590828081114e-01  1.0001233685364606e+00  1.0000730531522011e+00  9.9992759023724265e-01  9.9997563587759242e-01  1.0000270185254969e+00  1.0000072045759230e+00  1.0001037277863796e+00  1.0000753878888988e+00  9.9988375069679547e-01  9.9987958634874541e-01  9.9999081247445820e-01  1.0000510735420935e+00  1.0001799656715311e+00  1.0002227862521207e+00  1.0001284532889281e+00  1.0001694890846373e+00  1.0001976108694033e+00  1.0000059018049139e+00  9.9985032834921461e-01  9.9981954672062767e-01  9.9984702928318359e-01  9.9995399711885280e-01  9.9995321015541583e-01  9.9986595820049196e-01  9.9997065937616425e-01  1.0000800586695822e+00  9.9999389095588476e-01  9.9994968472986878e-01  9.9999953442258327e-01  1.0000311286340113e+00  1.0000322704795748e+00  9.9996080002192889e-01  9.9995399576919786e-01  1.0000702374900632e+00  1.0000276354617550e+00  9.9991180718419104e-01  1.0000101719638579e+00  1.0000775127670338e+00  9.9996144155863598e-01  9.9994819843499649e-01  1.0000481508940600e+00  1.0000301831864438e+00  9.9994928461929045e-01  9.9998635136640801e-01  1.0000560002216918e+00  9.9998831409508415e-01  9.9994939714810560e-01  1.0000414200168302e+00  1.0000229922103216e+00  9.9994469298586452e-01  1.0000191930937741e+00  1.0000337915781592e+00  9.9995891645052837e-01  1.0000029843174325e+00  1.0000314770581265e+00  9.9997136702847844e-01  1.0000010329174154e+00  1.0000179823534716e+00  9.9998721171350713e-01  9.9999457199879938e-01  1.0000178140353893e+00  9.9998277229743182e-01  1.0000101095590859e+00  9.9999402526170378e-01  1.0000085131896381e+00  9.9998501049468091e-01  1.0000208591372988e+00  9.9997622144450826e-01  1.0000243512563680e+00  9.9997543848031212e-01  1.0000258100734447e+00  9.9997182222496406e-01  1.0000302760469402e+00  9.9996869282616641e-01  1.0000296534431605e+00  9.9997197399644333e-01  1.0000233832129768e+00  9.9997594166888870e-01  1.0000179576368751e+00  9.9997662518986996e-01  1.0000119571937898e+00  9.9997968720451036e-01  1.0000047090301025e+00  9.9998646380048561e-01  1.0000012738832391e+00  9.9990115225029708e-01  1.0000278647691183e+00  1.0000540172009535e+00  9.9998650604119865e-01  1.0000167347128424e+00  1.0000252495022866e+00  1.0000104185262988e+00  9.9994950456907139e-01  9.9998309000155594e-01  1.0000109450440349e+00  9.9999745359227421e-01  1.0000637568734954e+00  1.0002496835076062e+00  1.0001555629182040e+00  1.0001076827619562e+00  1.0001237142686474e+00  1.0000162405485877e+00  9.9987129798216690e-01  1.0000449592508169e+00  1.0001179165544385e+00  9.9997534272437405e-01  9.9991618714007791e-01  9.9988229196416711e-01  9.9982662500446140e-01  1.0000185638756931e+00  1.0002025678754716e+00  1.0001256387880926e+00  1.0000509143437264e+00  1.0000069215611871e+00  9.9990404478929718e-01  9.9991579881425574e-01  9.9989831561637010e-01  9.9975387424706208e-01  9.9981488505064953e-01  1.0000454778165939e+00  1.0001462175658768e+00  1.0001490316923862e+00  1.0000869260203111e+00  1.0000337268954924e+00  1.0001199651955803e+00  1.0001138517889068e+00  9.9994949739176786e-01  9.9994895618990065e-01  1.0000536557768214e+00  1.0000334388466021e+00  9.9997347742764642e-01  9.9995640073459391e-01  1.0000070577849973e+00  1.0000654397135611e+00  9.9997817641816056e-01  9.9992313098843155e-01  1.0000527672406270e+00  1.0000608681051677e+00  9.9992478656461525e-01  9.9996978189366004e-01  1.0000799789594621e+00  1.0000006004697291e+00  9.9992577271905903e-01  1.0000254943269442e+00  1.0000628373916605e+00  9.9994591148024536e-01  9.9996572973770781e-01  1.0000717491235438e+00  9.9998970848080271e-01  9.9993905284815887e-01  1.0000514565218654e+00  1.0000163795188379e+00  9.9994531034914202e-01  1.0000262017250765e+00  1.0000248048463427e+00  9.9995926733346696e-01  1.0000151487815376e+00  1.0000151692182639e+00  9.9998013696624488e-01  1.0000020337762610e+00  1.0000162400210708e+00  9.9997929131896679e-01  1.0000142900602558e+00  9.9999238387996681e-01  1.0000071471826752e+00  9.9998802332231995e-01  1.0000177870453675e+00  9.9997863641566043e-01  1.0000221821623383e+00  9.9997839250766785e-01  1.0000214096571438e+00  9.9997752906515402e-01  1.0000244040566042e+00  9.9997438131230587e-01  1.0000252782280219e+00  9.9997764219541008e-01  1.0000198158171991e+00  9.9998438083123120e-01  1.0000170125305710e+00  9.9998741524876733e-01  1.0000179576367867e+00  9.9999281109148974e-01  1.0000139082271631e+00  1.0000024260082629e+00  1.0000022413943634e+00  1.0000101040371432e+00  9.9974882342335303e-01  1.0001597154764401e+00  9.9993568595601645e-01  9.9999112485385788e-01  9.9999103890987762e-01  1.0000134429449035e+00  9.9994950456907350e-01  1.0000373835000218e+00  1.0000543002711944e+00  9.9996448906364876e-01  9.9995714583988105e-01  9.9993992254960795e-01  9.9980087545403151e-01  9.9967208713231215e-01  9.9987601265512804e-01  9.9987038587647314e-01  9.9987612243272916e-01  1.0000362799625850e+00  1.0000685849097593e+00  9.9984645735855082e-01  9.9992362527803125e-01  1.0001119947232096e+00  1.0001563370948154e+00  1.0002095881763715e+00  1.0001513374850759e+00  9.9987102953382101e-01  9.9979357471795849e-01  9.9989093590707756e-01  9.9988118116181168e-01  9.9990890864958792e-01  9.9998176758366764e-01  1.0000038889695866e+00  1.0001611265950967e+00  1.0002841549885100e+00  1.0001197725963522e+00  9.9993437985921851e-01  9.9989363343241566e-01  9.9990128676820134e-01  9.9994635027119805e-01  9.9991714978478896e-01  9.9985343865920084e-01  9.9996579891719151e-01  1.0000683097555247e+00  9.9998699133185132e-01  9.9994477927805847e-01  1.0000020848102800e+00  1.0000384779240397e+00  1.0000226226933733e+00  9.9995747756682496e-01  9.9996882844926138e-01  1.0000640440546220e+00  1.0000176702220749e+00  9.9992348949169707e-01  1.0000087794137471e+00  1.0000734917959968e+00  9.9996564945210475e-01  9.9994051631303682e-01  1.0000553079484737e+00  1.0000378950834696e+00  9.9992668092527626e-01  9.9999922513702311e-01  1.0000723707209960e+00  9.9995837815166988e-01  9.9995755875681769e-01  1.0000668705153160e+00  9.9999029799549044e-01  9.9995115111667920e-01  1.0000425010433396e+00  1.0000080388211210e+00  9.9996019627547361e-01  1.0000266451080577e+00  1.0000048125862779e+00  9.9998103257014470e-01  1.0000086273269608e+00  1.0000092291454876e+00  9.9998153009518709e-01  1.0000170140890010e+00  9.9998834257998415e-01  1.0000083827230086e+00  9.9999118619907057e-01  1.0000118132044442e+00  9.9998460798278521e-01  1.0000176092106843e+00  9.9998249279914164e-01  1.0000159292988522e+00  9.9998504326606075e-01  1.0000159646355147e+00  9.9998165760015689e-01  1.0000198427133549e+00  9.9998073058100168e-01  1.0000163565736204e+00  9.9998526627654671e-01  1.0000133078697255e+00  9.9998216300939735e-01  1.0000170125306280e+00  9.9997594166892578e-01  1.0000154077283265e+00  9.9997785417759077e-01  1.0000065800529543e+00  9.9998862586678183e-01  1.0000025869908735e+00  9.9969645683971053e-01  1.0002504760689723e+00  9.9983656499019213e-01  1.0001205111359708e+00  9.9997447335956158e-01  1.0000121067728269e+00  9.9998309000155405e-01  1.0000543002711906e+00  9.9992958435259816e-01  9.9997886504070432e-01  1.0001151964143951e+00  1.0000563204041568e+00  1.0001378339085991e+00  1.0003036683922595e+00  1.0002924993248568e+00  1.0000463365427585e+00  1.0001474976313425e+00  1.0000918146770199e+00  9.9993522613172536e-01  1.0000387531581643e+00  1.0001959679349413e+00  9.9996559149458952e-01  9