<?xml version="1.0"?>
<VTKFile type="UnstructuredGrid"  version="0.1"  >
<UnstructuredGrid>
<Piece  NumberOfPoints="10201" NumberOfCells="20000">
<Points>
<DataArray  type="Float64"  NumberOfComponents="3"  format="ascii">-5 -5 0  -4.9 -5 0  -4.8 -5 0  -4.7 -5 0  -4.6 -5 0  -4.5 -5 0  -4.4 -5 0  -4.3 -5 0  -4.2 -5 0  -4.1 -5 0  -4 -5 0  -3.9 -5 0  -3.8 -5 0  -3.7 -5 0  -3.6 -5 0  -3.5 -5 0  -3.4 -5 0  -3.3 -5 0  -3.2 -5 0  -3.1 -5 0  -3 -5 0  -2.9 -5 0  -2.8 -5 0  -2.7 -5 0  -2.6 -5 0  -2.5 -5 0  -2.4 -5 0  -2.3 -5 0  -2.2 -5 0  -2.1 -5 0  -2 -5 0  -1.9 -5 0  -1.8 -5 0  -1.7 -5 0  -1.6 -5 0  -1.5 -5 0  -1.4 -5 0  -1.3 -5 0  -1.2 -5 0  -1.1 -5 0  -1 -5 0  -0.9000000000000004 -5 0  -0.7999999999999998 -5 0  -0.7000000000000002 -5 0  -0.5999999999999996 -5 0  -0.5 -5 0  -0.4000000000000004 -5 0  -0.2999999999999998 -5 0  -0.2000000000000002 -5 0  -0.09999999999999964 -5 0  0 -5 0  0.09999999999999964 -5 0  0.2000000000000002 -5 0  0.2999999999999998 -5 0  0.4000000000000004 -5 0  0.5 -5 0  0.5999999999999996 -5 0  0.7000000000000002 -5 0  0.7999999999999998 -5 0  0.9000000000000004 -5 0  1 -5 0  1.1 -5 0  1.2 -5 0  1.3 -5 0  1.4 -5 0  1.5 -5 0  1.6 -5 0  1.7 -5 0  1.8 -5 0  1.9 -5 0  2 -5 0  2.1 -5 0  2.2 -5 0  2.3 -5 0  2.4 -5 0  2.5 -5 0  2.6 -5 0  2.7 -5 0  2.8 -5 0  2.9 -5 0  3 -5 0  3.1 -5 0  3.199999999999999 -5 0  3.300000000000001 -5 0  3.4 -5 0  3.5 -5 0  3.6 -5 0  3.699999999999999 -5 0  3.800000000000001 -5 0  3.9 -5 0  4 -5 0  4.1 -5 0  4.199999999999999 -5 0  4.300000000000001 -5 0  4.4 -5 0  4.5 -5 0  4.6 -5 0  4.699999999999999 -5 0  4.800000000000001 -5 0  4.9 -5 0  5 -5 0  -5 -4.9 0  -4.9 -4.9 0  -4.8 -4.9 0  -4.7 -4.9 0  -4.6 -4.9 0  -4.5 -4.9 0  -4.4 -4.9 0  -4.3 -4.9 0  -4.2 -4.9 0  -4.1 -4.9 0  -4 -4.9 0  -3.9 -4.9 0  -3.8 -4.9 0  -3.7 -4.9 0  -3.6 -4.9 0  -3.5 -4.9 0  -3.4 -4.9 0  -3.3 -4.9 0  -3.2 -4.9 0  -3.1 -4.9 0  -3 -4.9 0  -2.9 -4.9 0  -2.8 -4.9 0  -2.7 -4.9 0  -2.6 -4.9 0  -2.5 -4.9 0  -2.4 -4.9 0  -2.3 -4.9 0  -2.2 -4.9 0  -2.1 -4.9 0  -2 -4.9 0  -1.9 -4.9 0  -1.8 -4.9 0  -1.7 -4.9 0  -1.6 -4.9 0  -1.5 -4.9 0  -1.4 -4.9 0  -1.3 -4.9 0  -1.2 -4.9 0  -1.1 -4.9 0  -1 -4.9 0  -0.9000000000000004 -4.9 0  -0.7999999999999998 -4.9 0  -0.7000000000000002 -4.9 0  -0.5999999999999996 -4.9 0  -0.5 -4.9 0  -0.4000000000000004 -4.9 0  -0.2999999999999998 -4.9 0  -0.2000000000000002 -4.9 0  -0.09999999999999964 -4.9 0  0 -4.9 0  0.09999999999999964 -4.9 0  0.2000000000000002 -4.9 0  0.2999999999999998 -4.9 0  0.4000000000000004 -4.9 0  0.5 -4.9 0  0.5999999999999996 -4.9 0  0.7000000000000002 -4.9 0  0.7999999999999998 -4.9 0  0.9000000000000004 -4.9 0  1 -4.9 0  1.1 -4.9 0  1.2 -4.9 0  1.3 -4.9 0  1.4 -4.9 0  1.5 -4.9 0  1.6 -4.9 0  1.7 -4.9 0  1.8 -4.9 0  1.9 -4.9 0  2 -4.9 0  2.1 -4.9 0  2.2 -4.9 0  2.3 -4.9 0  2.4 -4.9 0  2.5 -4.9 0  2.6 -4.9 0  2.7 -4.9 0  2.8 -4.9 0  2.9 -4.9 0  3 -4.9 0  3.1 -4.9 0  3.199999999999999 -4.9 0  3.300000000000001 -4.9 0  3.4 -4.9 0  3.5 -4.9 0  3.6 -4.9 0  3.699999999999999 -4.9 0  3.800000000000001 -4.9 0  3.9 -4.9 0  4 -4.9 0  4.1 -4.9 0  4.199999999999999 -4.9 0  4.300000000000001 -4.9 0  4.4 -4.9 0  4.5 -4.9 0  4.6 -4.9 0  4.699999999999999 -4.9 0  4.800000000000001 -4.9 0  4.9 -4.9 0  5 -4.9 0  -5 -4.8 0  -4.9 -4.8 0  -4.8 -4.8 0  -4.7 -4.8 0  -4.6 -4.8 0  -4.5 -4.8 0  -4.4 -4.8 0  -4.3 -4.8 0  -4.2 -4.8 0  -4.1 -4.8 0  -4 -4.8 0  -3.9 -4.8 0  -3.8 -4.8 0  -3.7 -4.8 0  -3.6 -4.8 0  -3.5 -4.8 0  -3.4 -4.8 0  -3.3 -4.8 0  -3.2 -4.8 0  -3.1 -4.8 0  -3 -4.8 0  -2.9 -4.8 0  -2.8 -4.8 0  -2.7 -4.8 0  -2.6 -4.8 0  -2.5 -4.8 0  -2.4 -4.8 0  -2.3 -4.8 0  -2.2 -4.8 0  -2.1 -4.8 0  -2 -4.8 0  -1.9 -4.8 0  -1.8 -4.8 0  -1.7 -4.8 0  -1.6 -4.8 0  -1.5 -4.8 0  -1.4 -4.8 0  -1.3 -4.8 0  -1.2 -4.8 0  -1.1 -4.8 0  -1 -4.8 0  -0.9000000000000004 -4.8 0  -0.7999999999999998 -4.8 0  -0.7000000000000002 -4.8 0  -0.5999999999999996 -4.8 0  -0.5 -4.8 0  -0.4000000000000004 -4.8 0  -0.2999999999999998 -4.8 0  -0.2000000000000002 -4.8 0  -0.09999999999999964 -4.8 0  0 -4.8 0  0.09999999999999964 -4.8 0  0.2000000000000002 -4.8 0  0.2999999999999998 -4.8 0  0.4000000000000004 -4.8 0  0.5 -4.8 0  0.5999999999999996 -4.8 0  0.7000000000000002 -4.8 0  0.7999999999999998 -4.8 0  0.9000000000000004 -4.8 0  1 -4.8 0  1.1 -4.8 0  1.2 -4.8 0  1.3 -4.8 0  1.4 -4.8 0  1.5 -4.8 0  1.6 -4.8 0  1.7 -4.8 0  1.8 -4.8 0  1.9 -4.8 0  2 -4.8 0  2.1 -4.8 0  2.2 -4.8 0  2.3 -4.8 0  2.4 -4.8 0  2.5 -4.8 0  2.6 -4.8 0  2.7 -4.8 0  2.8 -4.8 0  2.9 -4.8 0  3 -4.8 0  3.1 -4.8 0  3.199999999999999 -4.8 0  3.300000000000001 -4.8 0  3.4 -4.8 0  3.5 -4.8 0  3.6 -4.8 0  3.699999999999999 -4.8 0  3.800000000000001 -4.8 0  3.9 -4.8 0  4 -4.8 0  4.1 -4.8 0  4.199999999999999 -4.8 0  4.300000000000001 -4.8 0  4.4 -4.8 0  4.5 -4.8 0  4.6 -4.8 0  4.699999999999999 -4.8 0  4.800000000000001 -4.8 0  4.9 -4.8 0  5 -4.8 0  -5 -4.7 0  -4.9 -4.7 0  -4.8 -4.7 0  -4.7 -4.7 0  -4.6 -4.7 0  -4.5 -4.7 0  -4.4 -4.7 0  -4.3 -4.7 0  -4.2 -4.7 0  -4.1 -4.7 0  -4 -4.7 0  -3.9 -4.7 0  -3.8 -4.7 0  -3.7 -4.7 0  -3.6 -4.7 0  -3.5 -4.7 0  -3.4 -4.7 0  -3.3 -4.7 0  -3.2 -4.7 0  -3.1 -4.7 0  -3 -4.7 0  -2.9 -4.7 0  -2.8 -4.7 0  -2.7 -4.7 0  -2.6 -4.7 0  -2.5 -4.7 0  -2.4 -4.7 0  -2.3 -4.7 0  -2.2 -4.7 0  -2.1 -4.7 0  -2 -4.7 0  -1.9 -4.7 0  -1.8 -4.7 0  -1.7 -4.7 0  -1.6 -4.7 0  -1.5 -4.7 0  -1.4 -4.7 0  -1.3 -4.7 0  -1.2 -4.7 0  -1.1 -4.7 0  -1 -4.7 0  -0.9000000000000004 -4.7 0  -0.7999999999999998 -4.7 0  -0.7000000000000002 -4.7 0  -0.5999999999999996 -4.7 0  -0.5 -4.7 0  -0.4000000000000004 -4.7 0  -0.2999999999999998 -4.7 0  -0.2000000000000002 -4.7 0  -0.09999999999999964 -4.7 0  0 -4.7 0  0.09999999999999964 -4.7 0  0.2000000000000002 -4.7 0  0.2999999999999998 -4.7 0  0.4000000000000004 -4.7 0  0.5 -4.7 0  0.5999999999999996 -4.7 0  0.7000000000000002 -4.7 0  0.7999999999999998 -4.7 0  0.9000000000000004 -4.7 0  1 -4.7 0  1.1 -4.7 0  1.2 -4.7 0  1.3 -4.7 0  1.4 -4.7 0  1.5 -4.7 0  1.6 -4.7 0  1.7 -4.7 0  1.8 -4.7 0  1.9 -4.7 0  2 -4.7 0  2.1 -4.7 0  2.2 -4.7 0  2.3 -4.7 0  2.4 -4.7 0  2.5 -4.7 0  2.6 -4.7 0  2.7 -4.7 0  2.8 -4.7 0  2.9 -4.7 0  3 -4.7 0  3.1 -4.7 0  3.199999999999999 -4.7 0  3.300000000000001 -4.7 0  3.4 -4.7 0  3.5 -4.7 0  3.6 -4.7 0  3.699999999999999 -4.7 0  3.800000000000001 -4.7 0  3.9 -4.7 0  4 -4.7 0  4.1 -4.7 0  4.199999999999999 -4.7 0  4.300000000000001 -4.7 0  4.4 -4.7 0  4.5 -4.7 0  4.6 -4.7 0  4.699999999999999 -4.7 0  4.800000000000001 -4.7 0  4.9 -4.7 0  5 -4.7 0  -5 -4.6 0  -4.9 -4.6 0  -4.8 -4.6 0  -4.7 -4.6 0  -4.6 -4.6 0  -4.5 -4.6 0  -4.4 -4.6 0  -4.3 -4.6 0  -4.2 -4.6 0  -4.1 -4.6 0  -4 -4.6 0  -3.9 -4.6 0  -3.8 -4.6 0  -3.7 -4.6 0  -3.6 -4.6 0  -3.5 -4.6 0  -3.4 -4.6 0  -3.3 -4.6 0  -3.2 -4.6 0  -3.1 -4.6 0  -3 -4.6 0  -2.9 -4.6 0  -2.8 -4.6 0  -2.7 -4.6 0  -2.6 -4.6 0  -2.5 -4.6 0  -2.4 -4.6 0  -2.3 -4.6 0  -2.2 -4.6 0  -2.1 -4.6 0  -2 -4.6 0  -1.9 -4.6 0  -1.8 -4.6 0  -1.7 -4.6 0  -1.6 -4.6 0  -1.5 -4.6 0  -1.4 -4.6 0  -1.3 -4.6 0  -1.2 -4.6 0  -1.1 -4.6 0  -1 -4.6 0  -0.9000000000000004 -4.6 0  -0.7999999999999998 -4.6 0  -0.7000000000000002 -4.6 0  -0.5999999999999996 -4.6 0  -0.5 -4.6 0  -0.4000000000000004 -4.6 0  -0.2999999999999998 -4.6 0  -0.2000000000000002 -4.6 0  -0.09999999999999964 -4.6 0  0 -4.6 0  0.09999999999999964 -4.6 0  0.2000000000000002 -4.6 0  0.2999999999999998 -4.6 0  0.4000000000000004 -4.6 0  0.5 -4.6 0  0.5999999999999996 -4.6 0  0.7000000000000002 -4.6 0  0.7999999999999998 -4.6 0  0.9000000000000004 -4.6 0  1 -4.6 0  1.1 -4.6 0  1.2 -4.6 0  1.3 -4.6 0  1.4 -4.6 0  1.5 -4.6 0  1.6 -4.6 0  1.7 -4.6 0  1.8 -4.6 0  1.9 -4.6 0  2 -4.6 0  2.1 -4.6 0  2.2 -4.6 0  2.3 -4.6 0  2.4 -4.6 0  2.5 -4.6 0  2.6 -4.6 0  2.7 -4.6 0  2.8 -4.6 0  2.9 -4.6 0  3 -4.6 0  3.1 -4.6 0  3.199999999999999 -4.6 0  3.300000000000001 -4.6 0  3.4 -4.6 0  3.5 -4.6 0  3.6 -4.6 0  3.699999999999999 -4.6 0  3.800000000000001 -4.6 0  3.9 -4.6 0  4 -4.6 0  4.1 -4.6 0  4.199999999999999 -4.6 0  4.300000000000001 -4.6 0  4.4 -4.6 0  4.5 -4.6 0  4.6 -4.6 0  4.699999999999999 -4.6 0  4.800000000000001 -4.6 0  4.9 -4.6 0  5 -4.6 0  -5 -4.5 0  -4.9 -4.5 0  -4.8 -4.5 0  -4.7 -4.5 0  -4.6 -4.5 0  -4.5 -4.5 0  -4.4 -4.5 0  -4.3 -4.5 0  -4.2 -4.5 0  -4.1 -4.5 0  -4 -4.5 0  -3.9 -4.5 0  -3.8 -4.5 0  -3.7 -4.5 0  -3.6 -4.5 0  -3.5 -4.5 0  -3.4 -4.5 0  -3.3 -4.5 0  -3.2 -4.5 0  -3.1 -4.5 0  -3 -4.5 0  -2.9 -4.5 0  -2.8 -4.5 0  -2.7 -4.5 0  -2.6 -4.5 0  -2.5 -4.5 0  -2.4 -4.5 0  -2.3 -4.5 0  -2.2 -4.5 0  -2.1 -4.5 0  -2 -4.5 0  -1.9 -4.5 0  -1.8 -4.5 0  -1.7 -4.5 0  -1.6 -4.5 0  -1.5 -4.5 0  -1.4 -4.5 0  -1.3 -4.5 0  -1.2 -4.5 0  -1.1 -4.5 0  -1 -4.5 0  -0.9000000000000004 -4.5 0  -0.7999999999999998 -4.5 0  -0.7000000000000002 -4.5 0  -0.5999999999999996 -4.5 0  -0.5 -4.5 0  -0.4000000000000004 -4.5 0  -0.2999999999999998 -4.5 0  -0.2000000000000002 -4.5 0  -0.09999999999999964 -4.5 0  0 -4.5 0  0.09999999999999964 -4.5 0  0.2000000000000002 -4.5 0  0.2999999999999998 -4.5 0  0.4000000000000004 -4.5 0  0.5 -4.5 0  0.5999999999999996 -4.5 0  0.7000000000000002 -4.5 0  0.7999999999999998 -4.5 0  0.9000000000000004 -4.5 0  1 -4.5 0  1.1 -4.5 0  1.2 -4.5 0  1.3 -4.5 0  1.4 -4.5 0  1.5 -4.5 0  1.6 -4.5 0  1.7 -4.5 0  1.8 -4.5 0  1.9 -4.5 0  2 -4.5 0  2.1 -4.5 0  2.2 -4.5 0  2.3 -4.5 0  2.4 -4.5 0  2.5 -4.5 0  2.6 -4.5 0  2.7 -4.5 0  2.8 -4.5 0  2.9 -4.5 0  3 -4.5 0  3.1 -4.5 0  3.199999999999999 -4.5 0  3.300000000000001 -4.5 0  3.4 -4.5 0  3.5 -4.5 0  3.6 -4.5 0  3.699999999999999 -4.5 0  3.800000000000001 -4.5 0  3.9 -4.5 0  4 -4.5 0  4.1 -4.5 0  4.199999999999999 -4.5 0  4.300000000000001 -4.5 0  4.4 -4.5 0  4.5 -4.5 0  4.6 -4.5 0  4.699999999999999 -4.5 0  4.800000000000001 -4.5 0  4.9 -4.5 0  5 -4.5 0  -5 -4.4 0  -4.9 -4.4 0  -4.8 -4.4 0  -4.7 -4.4 0  -4.6 -4.4 0  -4.5 -4.4 0  -4.4 -4.4 0  -4.3 -4.4 0  -4.2 -4.4 0  -4.1 -4.4 0  -4 -4.4 0  -3.9 -4.4 0  -3.8 -4.4 0  -3.7 -4.4 0  -3.6 -4.4 0  -3.5 -4.4 0  -3.4 -4.4 0  -3.3 -4.4 0  -3.2 -4.4 0  -3.1 -4.4 0  -3 -4.4 0  -2.9 -4.4 0  -2.8 -4.4 0  -2.7 -4.4 0  -2.6 -4.4 0  -2.5 -4.4 0  -2.4 -4.4 0  -2.3 -4.4 0  -2.2 -4.4 0  -2.1 -4.4 0  -2 -4.4 0  -1.9 -4.4 0  -1.8 -4.
[...]
<PointData  Scalars="r"> 
<DataArray  type="Float64"  Name="r"  format="ascii">1.0001928962747759e+00  1.0005917183589264e+00  9.9977094916633924e-01  9.9989915812555008e-01  1.0001815401943053e+00  9.9990891681495420e-01  9.9948975302414955e-01  1.0001411020010464e+00  1.0003880008980814e+00  1.0000621648172467e+00  1.0001188513778800e+00  1.0003573479496266e+00  1.0000988373819291e+00  9.9995316142615420e-01  1.0003570750709752e+00  9.9998239332241523e-01  9.9986699395282863e-01  9.9989449392106533e-01  9.9954208302301095e-01  9.9951574028284385e-01  1.0002000903332875e+00  1.0003370979504462e+00  1.0002502100501645e+00  1.0002659144000721e+00  1.0000807612591496e+00  9.9990005885892164e-01  1.0000646431625169e+00  9.9987688261048491e-01  9.9952384234411296e-01  9.9958926584641261e-01  9.9985095198189855e-01  1.0001746344692628e+00  1.0005912872882696e+00  1.0005052580038218e+00  1.0000610473576668e+00  9.9988415496993477e-01  9.9980621368506850e-01  9.9970669146627733e-01  9.9978845624495405e-01  9.9985338942801272e-01  9.9991994409988605e-01  1.0000927687285124e+00  1.0001073657011805e+00  1.0000598260449054e+00  1.0001297637894002e+00  1.0000738363105837e+00  9.9995671308181400e-01  1.0000189631682970e+00  1.0000877589624959e+00  1.0000127951284938e+00  9.9992010274314658e-01  9.9997939169955119e-01  1.0000866536424364e+00  1.0000184726675656e+00  9.9990641745103837e-01  9.9998781416936311e-01  1.0000887345386993e+00  1.0000105321940267e+00  9.9989188724400457e-01  1.0000145369230635e+00  1.0001288822479608e+00  9.9992185800426203e-01  9.9989081131753466e-01  1.0001572536720089e+00  1.0000079211894040e+00  9.9984293076440178e-01  1.0000981264255249e+00  1.0000720868835313e+00  9.9986458598564687e-01  1.0000442217757792e+00  1.0000618962960610e+00  9.9993187449682563e-01  1.0000055049075001e+00  1.0000355962700136e+00  9.9997585974598968e-01  9.9999610792454796e-01  1.0000207557254657e+00  9.9997705886612542e-01  1.0000272822247118e+00  9.9997929660382567e-01  1.0000158940283455e+00  9.9999388346034568e-01  1.0000113214958137e+00  9.9997569972362477e-01  1.0000061568161254e+00  9.9998173693501846e-01  9.9996159062653367e-01  9.9998760289801270e-01  9.9995555757320709e-01  1.0000169896642119e+00  9.9995634140053014e-01  1.0000817243344799e+00  1.0000107306118808e+00  1.0000800932115139e+00  1.0000585389629353e+00  1.0000250846645002e+00  1.0000024799464666e+00  9.9997309331791784e-01  9.9999994061708297e-01  9.9994522523926554e-01  1.0001200255022185e+00  1.0005917183589248e+00  9.9944566839001459e-01  9.9969350852455052e-01  1.0005688607439003e+00  9.9990316130350676e-01  9.9991106674618124e-01  1.0002591899593047e+00  1.0002222629123960e+00  9.9963089127053772e-01  9.9971117143808175e-01  1.0000559861164562e+00  9.9977172360154209e-01  9.9972927985670879e-01  1.0000460773064366e+00  9.9973592876246942e-01  9.9969745012281686e-01  1.0001376146236192e+00  1.0001206184575147e+00  1.0002642632143990e+00  1.0005805369643315e+00  1.0001329285380203e+00  9.9963724619160244e-01  9.9977874176723025e-01  9.9981453093502226e-01  9.9977787148509045e-01  9.9993696527583253e-01  9.9992223291630977e-01  9.9998895482258454e-01  1.0004552567955360e+00  1.0005556090997410e+00  1.0002025865376882e+00  9.9995268404268878e-01  9.9968443265478635e-01  9.9947072238314916e-01  9.9966045802906867e-01  9.9991234081761338e-01  1.0001115408832648e+00  1.0003609678639747e+00  1.0003069096966539e+00  1.0000976620849760e+00  1.0001322444313936e+00  1.0000886459665248e+00  9.9988455944728794e-01  9.9985383977708542e-01  9.9992255898784732e-01  9.9996090935545945e-01  9.9997654623479371e-01  9.9994606336432923e-01  9.9997707237855438e-01  1.0000304032290508e+00  9.9999273368043262e-01  9.9999159273383798e-01  1.0000333921436408e+00  9.9999317093749673e-01  9.9996620473619247e-01  1.0000324575315631e+00  1.0000430413793744e+00  9.9993784039608835e-01  9.9996913902335915e-01  1.0001003658777996e+00  9.9997555841571661e-01  9.9989403267420007e-01  1.0001018229783807e+00  1.0000402834844770e+00  9.9986990511210883e-01  1.0000546448606227e+00  1.0000757340350857e+00  9.9990214904534369e-01  1.0000105474389134e+00  1.0000592149521781e+00  9.9995641198658458e-01  9.9999604140447573e-01  1.0000166372837063e+00  9.9999777553230507e-01  9.9999944633496396e-01  9.9999143306497829e-01  9.9999836681359600e-01  1.0000266382769394e+00  9.9996306241469513e-01  1.0000066368859382e+00  1.0000244081516705e+00  9.9996700360584456e-01  1.0000066810616470e+00  1.0000139197355233e+00  1.0000042536585245e+00  9.9999133936937146e-01  1.0000491969437195e+00  1.0000063864793503e+00  1.0000312212418896e+00  1.0000160173664283e+00  1.0000111687628093e+00  9.9998855934591280e-01  9.9995724552492826e-01  9.9996725651008556e-01  9.9993161202870684e-01  9.9996580268821178e-01  9.9997450084813866e-01  1.0000323129577036e+00  9.9996979771117578e-01  1.0000601906495361e+00  9.9994522523951757e-01  9.9977094916633769e-01  9.9969350852455130e-01  1.0004784121494390e+00  9.9979182894235685e-01  9.9949922322960216e-01  1.0002503086377776e+00  9.9989340917937453e-01  9.9980058788345727e-01  1.0001133331532619e+00  1.0004086348645274e+00  1.0000767580358503e+00  9.9982963849946893e-01  1.0003118490851062e+00  1.0000950230556933e+00  1.0001634835576378e+00  1.0004220283552963e+00  1.0001063415869400e+00  9.9978476290353002e-01  9.9995895410125146e-01  9.9966442502981723e-01  9.9961372880187382e-01  1.0000391104839592e+00  1.0001777738345592e+00  1.0000706768689678e+00  1.0002988011437601e+00  1.0002433554146326e+00  1.0000442638157474e+00  1.0000411723607447e+00  9.9986665442626721e-01  9.9954342693408860e-01  9.9964023077837916e-01  9.9982289667077828e-01  1.0000318755375321e+00  1.0004272069007321e+00  1.0005069286741686e+00  1.0002019097186574e+00  1.0000332676286174e+00  9.9986335065642851e-01  9.9967447388378061e-01  9.9974437486306644e-01  9.9984969875984331e-01  9.9989956698951399e-01  1.0000397241781089e+00  1.0000803071644964e+00  1.0000549398988654e+00  1.0001069666024782e+00  1.0000541099025431e+00  9.9996790398088908e-01  1.0000152550484585e+00  1.0000355424513789e+00  9.9997537408724879e-01  9.9996713357209011e-01  9.9999887171713209e-01  1.0000156772658710e+00  1.0000053037318910e+00  9.9999653351757822e-01  9.9998612150678201e-01  1.0000115544031432e+00  1.0000396879378677e+00  9.9997424867729834e-01  9.9995664010011309e-01  1.0000692295305802e+00  1.0000009051086185e+00  9.9992325451771680e-01  1.0000519772894432e+00  1.0000372727148474e+00  9.9992519726870466e-01  1.0000270886942886e+00  1.0000308791683021e+00  9.9996447319253234e-01  1.0000063946346489e+00  1.0000115053574468e+00  9.9998601545220878e-01  1.0000174074660031e+00  9.9998691111748639e-01  9.9998561577664102e-01  1.0000475116447844e+00  9.9995645121937549e-01  1.0000024539159513e+00  1.0000358257829240e+00  9.9997912218702878e-01  9.9997983230582399e-01  1.0000479853693351e+00  9.9997485007098541e-01  9.9998219018695533e-01  1.0000210736515982e+00  9.9997783208275026e-01  9.9997023729260504e-01  9.9997725860690734e-01  1.0000016751396512e+00  9.9994142196588987e-01  1.0000338239922029e+00  9.9998799336625055e-01  1.0000395010880034e+00  1.0000429230216756e+00  1.0000383073367567e+00  1.0000574288202371e+00  9.9997862777864466e-01  1.0000299034473124e+00  9.9996979771065064e-01  9.9999994061718300e-01  9.9989915812554442e-01  1.0005688607439036e+00  9.9979182894235485e-01  9.9987942808389474e-01  1.0004004487360190e+00  1.0002302638429172e+00  9.9976073249707398e-01  1.0001313748645375e+00  1.0001637467926927e+00  9.9980189671436537e-01  9.9975624933157670e-01  1.0001119328859234e+00  9.9999773370314282e-01  9.9980849240199776e-01  1.0000577994046109e+00  9.9984799437233873e-01  9.9963695313644985e-01  9.9996717281193792e-01  9.9994593175246327e-01  9.9999805406577413e-01  1.0004093096563209e+00  1.0002454404629637e+00  9.9982753263954116e-01  9.9985968750741594e-01  9.9993624664655256e-01  9.9984782950326367e-01  9.9996019005984749e-01  9.9990777365410333e-01  9.9988843048921128e-01  1.0002614460922310e+00  1.0004711889958611e+00  1.0002003218491409e+00  1.0000115406749870e+00  9.9982428271387180e-01  9.9962261260894603e-01  9.9971249236551185e-01  9.9985725862857555e-01  9.9995399630148329e-01  1.0002187790708932e+00  1.0003050588167903e+00  1.0001431421123170e+00  1.0000788835186725e+00  9.9999825142121490e-01  9.9985731785707377e-01  9.9986805802994239e-01  9.9987269989451655e-01  9.9982858671710584e-01  9.9989381906097319e-01  9.9994740296119444e-01  9.9990971189732136e-01  9.9990769122962309e-01  9.9993997409296098e-01  9.9995594516032404e-01  9.9994024820479233e-01  9.9991935765715367e-01  9.9995213778265823e-01  1.0000132121321390e+00  9.9999872709441529e-01  9.9994669205317999e-01  1.0000076373448665e+00  1.0000729588521098e+00  9.9996093287860133e-01  9.9994873474337531e-01  1.0000778003847932e+00  1.0000041993737347e+00  9.9992178378265340e-01  1.0000476970262653e+00  1.0000341149590064e+00  9.9993977337281026e-01  1.0000138173946942e+00  1.0000337762588907e+00  9.9996769197934787e-01  1.0000004027633462e+00  1.0000243529168480e+00  9.9996758840832178e-01  1.0000290671292216e+00  9.9998469032388115e-01  9.9999365964020137e-01  1.0000138324154983e+00  1.0000005294929235e+00  9.9997413322684037e-01  1.0000203622949926e+00  1.0000109169302733e+00  9.9995314307611372e-01  1.0000487113928354e+00  9.9998541009997743e-01  1.0000110845806884e+00  9.9999798935911965e-01  1.0000627290243269e+00  9.9997496881627534e-01  1.0000353120130785e+00  1.0000227903520269e+00  9.9996879291245067e-01  1.0000061880865294e+00  9.9996704931062386e-01  9.9996636478676804e-01  9.9996406607717780e-01  9.9999859563839744e-01  9.9997862777856861e-01  1.0000323129578050e+00  9.9997309331829565e-01  1.0001815401943037e+00  9.9990316130350987e-01  9.9949922322960061e-01  1.0004004487360192e+00  9.9982459933412138e-01  9.9969402599234580e-01  9.9999636516540280e-01  9.9996094558745952e-01  9.9992285107010659e-01  9.9982669132482749e-01  1.0003620722045821e+00  1.0000164463827494e+00  9.9978450204649150e-01  9.9993944458364836e-01  9.9997630038028040e-01  9.9992958052649172e-01  1.0002937861152048e+00  1.0002479047856334e+00  1.0000018252833338e+00  1.0001139474375900e+00  1.0000168290237736e+00  9.9974329206747314e-01  9.9998086690921850e-01  1.0001081977636403e+00  1.0000133082605887e+00  1.0001057472859698e+00  1.0001546072156713e+00  9.9995905243677641e-01  1.0000317378408035e+00  9.9997458888836965e-01  9.9970626440701460e-01  9.9969235091316522e-01  9.9988859932644947e-01  1.0000285494116763e+00  1.0002947091351337e+00  1.0003395300478233e+00  1.0000971754989563e+00  1.0000203015029150e+00  9.9995488700290958e-01  9.9970482601684263e-01  9.9966371223309713e-01  9.9982530237793332e-01  1.0000092748512202e+00  1.0002138591162386e+00  1.0002687809623656e+00  1.0002607362054532e+00  1.0004201078652681e+00  1.0004862570362991e+00  1.0003425205661824e+00  1.0003157735879216e+00  1.0003907861827568e+00  1.0003405137276020e+00  1.0002101283650140e+00  1.0001432350260628e+00  1.0001339679425625e+00  1.0000820112502793e+00  9.9994229528920964e-01  9.9988233870389631e-01  9.9998325472458605e-01  1.0000040813337814e+00  9.9988565000825191e-01  9.9997299443773902e-01  1.0001007931624522e+00  9.9997679166709319e-01  9.9992182337500923e-01  1.0000693975357076e+00  1.0000361533872433e+00  9.9992194509802557e-01  1.0000064314107870e+00  1.0000676885003235e+00  9.9995191532327110e-01  9.9997408124299658e-01  1.0000565306964277e+00  9.9997946345689093e-01  9.9997758469524312e-01  1.0000231462759226e+00  1.0000069189363230e+00  9.9997227082652540e-01  1.0000247284667494e+00  9.9999576898038078e-01  9.9998513121123533e-01  1.0000305310966211e+00  9.9997283034596074e-01  1.0000114580994546e+00  1.0000099103389917e+00  9.9998387060677685e-01  9.9998641292745682e-01  1.0000208900312917e+00  9.9996268580405157e-01  9.9997957722218789e-01  1.0000092837413705e+00  9.9997461765837981e-01  9.9998447214977426e-01  1.0000317208380605e+00  9.9998345647605480e-01  1.0000052198284552e+00  1.0000525958138000e+00  9.9996406607677579e-01  1.0000574288206368e+00  9.9997450084795625e-01  1.0000024799464691e+00  9.9990891681495064e-01  9.9991106674618235e-01  1.0002503086377750e+00  1.0002302638429164e+00  9.9969402599234336e-01  1.0003123011224833e+00  1.0002122060178305e+00  9.9979593130856548e-01  9.9997812207879888e-01  1.0000265635903696e+00  1.0001708419674999e+00  9.9985462868140706e-01  1.0001378307603239e+00  1.0002736661170510e+00  9.9990263504705912e-01  1.0001740538123283e+00  1.0001039586899496e+00  9.9985806693320289e-01  9.9991703379397767e-01  9.9985291929677500e-01  9.9970221444864849e-01  9.9999602210690819e-01  1.0002465687338591e+00  1.0000202442712929e+00  9.9992429610740086e-01  9.9994923830423632e-01  9.9988791434210300e-01  9.9998984252498535e-01  1.0000971806117920e+00  9.9990168688140946e-01  1.0000421333998766e+00  1.0002707463576814e+00  1.0001830350036300e+00  1.0000148699484728e+00  9.9984127776537501e-01  9.9963432433502553e-01  9.9977545794953515e-01  1.0000091464746153e+00  1.0000925361955586e+00  1.0003544811773168e+00  1.0007229441439314e+00  1.0008242455595779e+00  1.0007738826395380e+00  1.0006328173054218e+00  1.0005019343522539e+00  1.0005482690229759e+00  1.0004908446583354e+00  1.0002530753687582e+00  1.0002645928689351e+00  1.0004313459737022e+00  1.0004125302457727e+00  1.0003748173610640e+00  1.0005155694616146e+00  1.0006722178221463e+00  1.0006973412207114e+00  1.0006141932000274e+00  1.0005695049646841e+00  1.0005602291946603e+00  1.0003391534825563e+00  1.0000314462196498e+00  1.0000295084343696e+00  1.0000432855070749e+00  9.9987561552247695e-01  9.9990682872572378e-01  1.0000711485990288e+00  1.0000276651693534e+00  9.9992496049346258e-01  1.0000099317760649e+00  1.0000714580575623e+00  9.9995692117023749e-01  9.9995398861851892e-01  1.0000683273389481e+00  9.9999699547151544e-01  9.9994668325346292e-01  1.0000287243193162e+00  1.0000382183385015e+00  9.9993370155924965e-01  1.0000321865747692e+00  1.0000168393554363e+00  9.9996332635741092e-01  1.0000215757896282e+00  9.9999720137379078e-01  9.9999188936211536e-01  1.0000027798302842e+00  1.0000098296884319e+00  9.9997319750649794e-01  1.0000443043352429e+00  9.9997652555081729e-01  1.0000130027937308e+00  1.0000235044911023e+00  1.0000121828924213e+00  9.9998978263629223e-01  1.0000339522150323e+00  9.9998059821437579e-01  1.0000015272896838e+00  1.0000052650475824e+00  1.0000052198279812e+00  9.9996636478712486e-01  1.0000383073366605e+00  9.9996580268804902e-01  1.0000250846645766e+00  9.9948975302414966e-01  1.0002591899593045e+00  9.9989340917937564e-01  9.9976073249707342e-01  9.9999636516540225e-01  1.0002122060178311e+00  1.0001630216759465e+00  9.9982523118606026e-01  1.0004072492772498e+00  9.9990467548367568e-01  9.9985171989530441e-01  9.9988361588704966e-01  1.0000502710487935e+00  9.9982312392426131e-01  9.9969385424789858e-01  9.9998028529254368e-01  9.9962735192632179e-01  9.9983185099487060e-01  1.0001480441425865e+00  1.0000104418703466e+00  1.0002556341228122e+00  1.0003334444012768e+00  9.9998177345623307e-01  9.9985108253292865e-01  9.9997750874483060e-01  9.9996018043796830e-01  1.0000138651080153e+00  1.0000563876493342e+00  9.9991258268532923e-01  9.9988504199995576e-01  1.0000854897100546e+00  9.9991473440614775e-01  9.9978926368713350e-01  9.9990583382943388e-01  1.0000665946385494e+00  1.0004014632326819e+00  1.0007063526428659e+00  1.0006421043726155e+00  1.0006423712017871e+00  1.0006024145335637e+00  1.0001533718542310e+00  9.9954979868790217e-01  9.9900596905729744e-01  9.9842319657832534e-01  9.9784182702886559e-01  9.9712828220038752e-01  9.9634145150633036e-01  9.9589606439539491e-01  9.9563586210209221e-01  9.9525454758299692e-01  9.9509356006887062e-01  9.9533512333523555e-01  9.9569601026904320e-01  9.9616847722535740e-01  9.9687389710711749e-01  9.9779432935627332e-01  9.9881442574223989e-01  9.9962177019676068e-01  1.0001789717862426e+00  1.0006805524216118e+00  1.0007557351977452e+00  1.0004326231777187e+00  1.0002370318272942e+00  1.0001252148109334e+00  9.9995462831074422e-01  9.9989262162231318e-01  9.9998714057331883e-01  1.0000483432731853e+00  9.9998238994887378e-01  9.9995845664119420e-01  1.0000422704061125e+00  1.0000259988107347e+00  9.9993761208926091e-01  1.0000142410752557e+00  1.0000551188513478e+00  9.9993857344485415e-01  1.0000061643519995e+00  1.0000418547899115e+00  9.9996207794084779e-01  1.0000073950102364e+00  1.0000078726568629e+00  1.0000053855357856e+00  9.9998096725747476e-01  1.0000216644078352e+00  9.9998315533093440e-01  1.0000143734159026e+00  9.9998670293217706e-01  9.9998921943027985e-01  1.0000133267162705e+00  9.9997841799596165e-01  9.9998822341138827e-01  1.0000071568645699e+00  9.9998223387381757e-01  1.0000126760740184e+00  9.9999408607422324e-01  1.0000015272894456e+00  9.9998345647672704e-01  9.9996704931032099e-01  1.0000429230219015e+00  9.9993161202851322e-01  1.0000585389633274e+00  1.0001411020010458e+00  1.0002222629123954e+00  9.9980058788345361e-01  1.0001313748645362e+00  9.9996094558745663e-01  9.9979593130856770e-01  9.9982523118606059e-01  9.9968255854872989e-01  1.0001822661468753e+00  9.9950928490861379e-01  1.0000131487196835e+00  1.0004482845711458e+00  9.9986161132734341e-01  1.0002566589821209e+00  1.0001882959429578e+00  1.0002460080993689e+00  1.0001316865511927e+00  1.0004215358501838e+00  1.0002591776538980e+00  9.9992645564241200e-01  1.0000537532440898e+00  9.9963624920338223e-01  9.9961009026880854e-01  1.0000908177445125e+00  1.0000891110538230e+00  1.0000528650288598e+00  1.0001193051789004e+00  9.9996637604414018e-01  1.0000123627103243e+00  1.0001083676317051e+00  9.9997936254222120e-01  9.9990192220020446e-01  1.0002133972620308e+00  1.0004643952365151e+00  1.0006032806933423e+00  1.0006056075543812e+00  1.0002106166175901e+00  9.9957577015048882e-01  9.9877150371649537e-01  9.9736202461568169e-01  9.9583252912762799e-01  9.9452699277442524e-01  9.9336034162109310e-01  9.9263236167656588e-01  9.9250864564460239e-01  9.9293994233247684e-01  9.9403817846540088e-01  9.9540132368983225e-01  9.9651983543319911e-01  9.9745784704104390e-01  9.9807917518624545e-01  9.9790563570071567e-01  9.9705570778225583e-01  9.9578339548661177e-01  9.9421332430559084e-01  9.9278159447437886e-01  9.9181922950935097e-01  9.9167627940004477e-01  9.9277415213379827e-01  9.9467551169723090e-01  9.9687138790489849e-01  9.9898000053681235e-01  1.0002884495933086e+00  1.0006581178513292e+00  1.0005138967304277e+00  1.0002390981376952e+00  1.0000317779323842e+00  9.9996574606962219e-01  9.9992643311605978e-01  9.9999524274287399e-01  1.0000626259075855e+00  9.9995385287622485e-01  9.9997433185370677e-01  1.0000721298320987e+00  9.9996230543148013e-01  9.9997119297988191e-01  1.0000459377159152e+00  9.9999457530102587e-01  9.9996859808406324e-01  1.0000176150080522e+00  1.0000217053471432e+00  9.9996275869492202e-01  1.0000122321636362e+00  1.0000140644650926e+00  9.9998722679270191e-01  9.9999468851655160e-01  1.0000131212032077e+00  1.0000055932667105e+00  9.9999703948028884e-01  1.0000030168439047e+00  1.0000194717338042e+00  9.9998716377014629e-01  1.0000219762251188e+00  9.9998121897516501e-01  1.0000126760737580e+00  9.9998059821478558e-01  1.0000317208375238e+00  1.0000061880863711e+00  1.0000395010880538e+00  9.9996725651006202e-01  1.0000800932115423e+00  1.0003880008980812e+00  9.9963089127053473e-01  1.0001133331532619e+00  1.0001637467926923e+00  9.9992285107010459e-01  9.9997812207879688e-01  1.0004072492772524e+00  1.0001822661468749e+00  1.0003515069276419e+00  9.9987072029465374e-01  1.0004317101685918e+00  9.9991716970288924e-01  9.9938077270202308e-01  1.0004781305210879e+00  9.9960180589053149e-01  9.9985179416345227e-01  9.9993600853432574e-01  9.9953915607096644e-01  9.9964857792211037e-01  9.9971100014140757e-01  9.9999553694889198e-01  9.9995738791598310e-01  1