<?xml version="1.0"?>
<VTKFile type="UnstructuredGrid"  version="0.1"  >
<UnstructuredGrid>
<Piece  NumberOfPoints="10201" NumberOfCells="20000">
<Points>
<DataArray  type="Float64"  NumberOfComponents="3"  format="ascii">-5 -5 0  -4.9 -5 0  -4.8 -5 0  -4.7 -5 0  -4.6 -5 0  -4.5 -5 0  -4.4 -5 0  -4.3 -5 0  -4.2 -5 0  -4.1 -5 0  -4 -5 0  -3.9 -5 0  -3.8 -5 0  -3.7 -5 0  -3.6 -5 0  -3.5 -5 0  -3.4 -5 0  -3.3 -5 0  -3.2 -5 0  -3.1 -5 0  -3 -5 0  -2.9 -5 0  -2.8 -5 0  -2.7 -5 0  -2.6 -5 0  -2.5 -5 0  -2.4 -5 0  -2.3 -5 0  -2.2 -5 0  -2.1 -5 0  -2 -5 0  -1.9 -5 0  -1.8 -5 0  -1.7 -5 0  -1.6 -5 0  -1.5 -5 0  -1.4 -5 0  -1.3 -5 0  -1.2 -5 0  -1.1 -5 0  -1 -5 0  -0.9000000000000004 -5 0  -0.7999999999999998 -5 0  -0.7000000000000002 -5 0  -0.5999999999999996 -5 0  -0.5 -5 0  -0.4000000000000004 -5 0  -0.2999999999999998 -5 0  -0.2000000000000002 -5 0  -0.09999999999999964 -5 0  0 -5 0  0.09999999999999964 -5 0  0.2000000000000002 -5 0  0.2999999999999998 -5 0  0.4000000000000004 -5 0  0.5 -5 0  0.5999999999999996 -5 0  0.7000000000000002 -5 0  0.7999999999999998 -5 0  0.9000000000000004 -5 0  1 -5 0  1.1 -5 0  1.2 -5 0  1.3 -5 0  1.4 -5 0  1.5 -5 0  1.6 -5 0  1.7 -5 0  1.8 -5 0  1.9 -5 0  2 -5 0  2.1 -5 0  2.2 -5 0  2.3 -5 0  2.4 -5 0  2.5 -5 0  2.6 -5 0  2.7 -5 0  2.8 -5 0  2.9 -5 0  3 -5 0  3.1 -5 0  3.199999999999999 -5 0  3.300000000000001 -5 0  3.4 -5 0  3.5 -5 0  3.6 -5 0  3.699999999999999 -5 0  3.800000000000001 -5 0  3.9 -5 0  4 -5 0  4.1 -5 0  4.199999999999999 -5 0  4.300000000000001 -5 0  4.4 -5 0  4.5 -5 0  4.6 -5 0  4.699999999999999 -5 0  4.800000000000001 -5 0  4.9 -5 0  5 -5 0  -5 -4.9 0  -4.9 -4.9 0  -4.8 -4.9 0  -4.7 -4.9 0  -4.6 -4.9 0  -4.5 -4.9 0  -4.4 -4.9 0  -4.3 -4.9 0  -4.2 -4.9 0  -4.1 -4.9 0  -4 -4.9 0  -3.9 -4.9 0  -3.8 -4.9 0  -3.7 -4.9 0  -3.6 -4.9 0  -3.5 -4.9 0  -3.4 -4.9 0  -3.3 -4.9 0  -3.2 -4.9 0  -3.1 -4.9 0  -3 -4.9 0  -2.9 -4.9 0  -2.8 -4.9 0  -2.7 -4.9 0  -2.6 -4.9 0  -2.5 -4.9 0  -2.4 -4.9 0  -2.3 -4.9 0  -2.2 -4.9 0  -2.1 -4.9 0  -2 -4.9 0  -1.9 -4.9 0  -1.8 -4.9 0  -1.7 -4.9 0  -1.6 -4.9 0  -1.5 -4.9 0  -1.4 -4.9 0  -1.3 -4.9 0  -1.2 -4.9 0  -1.1 -4.9 0  -1 -4.9 0  -0.9000000000000004 -4.9 0  -0.7999999999999998 -4.9 0  -0.7000000000000002 -4.9 0  -0.5999999999999996 -4.9 0  -0.5 -4.9 0  -0.4000000000000004 -4.9 0  -0.2999999999999998 -4.9 0  -0.2000000000000002 -4.9 0  -0.09999999999999964 -4.9 0  0 -4.9 0  0.09999999999999964 -4.9 0  0.2000000000000002 -4.9 0  0.2999999999999998 -4.9 0  0.4000000000000004 -4.9 0  0.5 -4.9 0  0.5999999999999996 -4.9 0  0.7000000000000002 -4.9 0  0.7999999999999998 -4.9 0  0.9000000000000004 -4.9 0  1 -4.9 0  1.1 -4.9 0  1.2 -4.9 0  1.3 -4.9 0  1.4 -4.9 0  1.5 -4.9 0  1.6 -4.9 0  1.7 -4.9 0  1.8 -4.9 0  1.9 -4.9 0  2 -4.9 0  2.1 -4.9 0  2.2 -4.9 0  2.3 -4.9 0  2.4 -4.9 0  2.5 -4.9 0  2.6 -4.9 0  2.7 -4.9 0  2.8 -4.9 0  2.9 -4.9 0  3 -4.9 0  3.1 -4.9 0  3.199999999999999 -4.9 0  3.300000000000001 -4.9 0  3.4 -4.9 0  3.5 -4.9 0  3.6 -4.9 0  3.699999999999999 -4.9 0  3.800000000000001 -4.9 0  3.9 -4.9 0  4 -4.9 0  4.1 -4.9 0  4.199999999999999 -4.9 0  4.300000000000001 -4.9 0  4.4 -4.9 0  4.5 -4.9 0  4.6 -4.9 0  4.699999999999999 -4.9 0  4.800000000000001 -4.9 0  4.9 -4.9 0  5 -4.9 0  -5 -4.8 0  -4.9 -4.8 0  -4.8 -4.8 0  -4.7 -4.8 0  -4.6 -4.8 0  -4.5 -4.8 0  -4.4 -4.8 0  -4.3 -4.8 0  -4.2 -4.8 0  -4.1 -4.8 0  -4 -4.8 0  -3.9 -4.8 0  -3.8 -4.8 0  -3.7 -4.8 0  -3.6 -4.8 0  -3.5 -4.8 0  -3.4 -4.8 0  -3.3 -4.8 0  -3.2 -4.8 0  -3.1 -4.8 0  -3 -4.8 0  -2.9 -4.8 0  -2.8 -4.8 0  -2.7 -4.8 0  -2.6 -4.8 0  -2.5 -4.8 0  -2.4 -4.8 0  -2.3 -4.8 0  -2.2 -4.8 0  -2.1 -4.8 0  -2 -4.8 0  -1.9 -4.8 0  -1.8 -4.8 0  -1.7 -4.8 0  -1.6 -4.8 0  -1.5 -4.8 0  -1.4 -4.8 0  -1.3 -4.8 0  -1.2 -4.8 0  -1.1 -4.8 0  -1 -4.8 0  -0.9000000000000004 -4.8 0  -0.7999999999999998 -4.8 0  -0.7000000000000002 -4.8 0  -0.5999999999999996 -4.8 0  -0.5 -4.8 0  -0.4000000000000004 -4.8 0  -0.2999999999999998 -4.8 0  -0.2000000000000002 -4.8 0  -0.09999999999999964 -4.8 0  0 -4.8 0  0.09999999999999964 -4.8 0  0.2000000000000002 -4.8 0  0.2999999999999998 -4.8 0  0.4000000000000004 -4.8 0  0.5 -4.8 0  0.5999999999999996 -4.8 0  0.7000000000000002 -4.8 0  0.7999999999999998 -4.8 0  0.9000000000000004 -4.8 0  1 -4.8 0  1.1 -4.8 0  1.2 -4.8 0  1.3 -4.8 0  1.4 -4.8 0  1.5 -4.8 0  1.6 -4.8 0  1.7 -4.8 0  1.8 -4.8 0  1.9 -4.8 0  2 -4.8 0  2.1 -4.8 0  2.2 -4.8 0  2.3 -4.8 0  2.4 -4.8 0  2.5 -4.8 0  2.6 -4.8 0  2.7 -4.8 0  2.8 -4.8 0  2.9 -4.8 0  3 -4.8 0  3.1 -4.8 0  3.199999999999999 -4.8 0  3.300000000000001 -4.8 0  3.4 -4.8 0  3.5 -4.8 0  3.6 -4.8 0  3.699999999999999 -4.8 0  3.800000000000001 -4.8 0  3.9 -4.8 0  4 -4.8 0  4.1 -4.8 0  4.199999999999999 -4.8 0  4.300000000000001 -4.8 0  4.4 -4.8 0  4.5 -4.8 0  4.6 -4.8 0  4.699999999999999 -4.8 0  4.800000000000001 -4.8 0  4.9 -4.8 0  5 -4.8 0  -5 -4.7 0  -4.9 -4.7 0  -4.8 -4.7 0  -4.7 -4.7 0  -4.6 -4.7 0  -4.5 -4.7 0  -4.4 -4.7 0  -4.3 -4.7 0  -4.2 -4.7 0  -4.1 -4.7 0  -4 -4.7 0  -3.9 -4.7 0  -3.8 -4.7 0  -3.7 -4.7 0  -3.6 -4.7 0  -3.5 -4.7 0  -3.4 -4.7 0  -3.3 -4.7 0  -3.2 -4.7 0  -3.1 -4.7 0  -3 -4.7 0  -2.9 -4.7 0  -2.8 -4.7 0  -2.7 -4.7 0  -2.6 -4.7 0  -2.5 -4.7 0  -2.4 -4.7 0  -2.3 -4.7 0  -2.2 -4.7 0  -2.1 -4.7 0  -2 -4.7 0  -1.9 -4.7 0  -1.8 -4.7 0  -1.7 -4.7 0  -1.6 -4.7 0  -1.5 -4.7 0  -1.4 -4.7 0  -1.3 -4.7 0  -1.2 -4.7 0  -1.1 -4.7 0  -1 -4.7 0  -0.9000000000000004 -4.7 0  -0.7999999999999998 -4.7 0  -0.7000000000000002 -4.7 0  -0.5999999999999996 -4.7 0  -0.5 -4.7 0  -0.4000000000000004 -4.7 0  -0.2999999999999998 -4.7 0  -0.2000000000000002 -4.7 0  -0.09999999999999964 -4.7 0  0 -4.7 0  0.09999999999999964 -4.7 0  0.2000000000000002 -4.7 0  0.2999999999999998 -4.7 0  0.4000000000000004 -4.7 0  0.5 -4.7 0  0.5999999999999996 -4.7 0  0.7000000000000002 -4.7 0  0.7999999999999998 -4.7 0  0.9000000000000004 -4.7 0  1 -4.7 0  1.1 -4.7 0  1.2 -4.7 0  1.3 -4.7 0  1.4 -4.7 0  1.5 -4.7 0  1.6 -4.7 0  1.7 -4.7 0  1.8 -4.7 0  1.9 -4.7 0  2 -4.7 0  2.1 -4.7 0  2.2 -4.7 0  2.3 -4.7 0  2.4 -4.7 0  2.5 -4.7 0  2.6 -4.7 0  2.7 -4.7 0  2.8 -4.7 0  2.9 -4.7 0  3 -4.7 0  3.1 -4.7 0  3.199999999999999 -4.7 0  3.300000000000001 -4.7 0  3.4 -4.7 0  3.5 -4.7 0  3.6 -4.7 0  3.699999999999999 -4.7 0  3.800000000000001 -4.7 0  3.9 -4.7 0  4 -4.7 0  4.1 -4.7 0  4.199999999999999 -4.7 0  4.300000000000001 -4.7 0  4.4 -4.7 0  4.5 -4.7 0  4.6 -4.7 0  4.699999999999999 -4.7 0  4.800000000000001 -4.7 0  4.9 -4.7 0  5 -4.7 0  -5 -4.6 0  -4.9 -4.6 0  -4.8 -4.6 0  -4.7 -4.6 0  -4.6 -4.6 0  -4.5 -4.6 0  -4.4 -4.6 0  -4.3 -4.6 0  -4.2 -4.6 0  -4.1 -4.6 0  -4 -4.6 0  -3.9 -4.6 0  -3.8 -4.6 0  -3.7 -4.6 0  -3.6 -4.6 0  -3.5 -4.6 0  -3.4 -4.6 0  -3.3 -4.6 0  -3.2 -4.6 0  -3.1 -4.6 0  -3 -4.6 0  -2.9 -4.6 0  -2.8 -4.6 0  -2.7 -4.6 0  -2.6 -4.6 0  -2.5 -4.6 0  -2.4 -4.6 0  -2.3 -4.6 0  -2.2 -4.6 0  -2.1 -4.6 0  -2 -4.6 0  -1.9 -4.6 0  -1.8 -4.6 0  -1.7 -4.6 0  -1.6 -4.6 0  -1.5 -4.6 0  -1.4 -4.6 0  -1.3 -4.6 0  -1.2 -4.6 0  -1.1 -4.6 0  -1 -4.6 0  -0.9000000000000004 -4.6 0  -0.7999999999999998 -4.6 0  -0.7000000000000002 -4.6 0  -0.5999999999999996 -4.6 0  -0.5 -4.6 0  -0.4000000000000004 -4.6 0  -0.2999999999999998 -4.6 0  -0.2000000000000002 -4.6 0  -0.09999999999999964 -4.6 0  0 -4.6 0  0.09999999999999964 -4.6 0  0.2000000000000002 -4.6 0  0.2999999999999998 -4.6 0  0.4000000000000004 -4.6 0  0.5 -4.6 0  0.5999999999999996 -4.6 0  0.7000000000000002 -4.6 0  0.7999999999999998 -4.6 0  0.9000000000000004 -4.6 0  1 -4.6 0  1.1 -4.6 0  1.2 -4.6 0  1.3 -4.6 0  1.4 -4.6 0  1.5 -4.6 0  1.6 -4.6 0  1.7 -4.6 0  1.8 -4.6 0  1.9 -4.6 0  2 -4.6 0  2.1 -4.6 0  2.2 -4.6 0  2.3 -4.6 0  2.4 -4.6 0  2.5 -4.6 0  2.6 -4.6 0  2.7 -4.6 0  2.8 -4.6 0  2.9 -4.6 0  3 -4.6 0  3.1 -4.6 0  3.199999999999999 -4.6 0  3.300000000000001 -4.6 0  3.4 -4.6 0  3.5 -4.6 0  3.6 -4.6 0  3.699999999999999 -4.6 0  3.800000000000001 -4.6 0  3.9 -4.6 0  4 -4.6 0  4.1 -4.6 0  4.199999999999999 -4.6 0  4.300000000000001 -4.6 0  4.4 -4.6 0  4.5 -4.6 0  4.6 -4.6 0  4.699999999999999 -4.6 0  4.800000000000001 -4.6 0  4.9 -4.6 0  5 -4.6 0  -5 -4.5 0  -4.9 -4.5 0  -4.8 -4.5 0  -4.7 -4.5 0  -4.6 -4.5 0  -4.5 -4.5 0  -4.4 -4.5 0  -4.3 -4.5 0  -4.2 -4.5 0  -4.1 -4.5 0  -4 -4.5 0  -3.9 -4.5 0  -3.8 -4.5 0  -3.7 -4.5 0  -3.6 -4.5 0  -3.5 -4.5 0  -3.4 -4.5 0  -3.3 -4.5 0  -3.2 -4.5 0  -3.1 -4.5 0  -3 -4.5 0  -2.9 -4.5 0  -2.8 -4.5 0  -2.7 -4.5 0  -2.6 -4.5 0  -2.5 -4.5 0  -2.4 -4.5 0  -2.3 -4.5 0  -2.2 -4.5 0  -2.1 -4.5 0  -2 -4.5 0  -1.9 -4.5 0  -1.8 -4.5 0  -1.7 -4.5 0  -1.6 -4.5 0  -1.5 -4.5 0  -1.4 -4.5 0  -1.3 -4.5 0  -1.2 -4.5 0  -1.1 -4.5 0  -1 -4.5 0  -0.9000000000000004 -4.5 0  -0.7999999999999998 -4.5 0  -0.7000000000000002 -4.5 0  -0.5999999999999996 -4.5 0  -0.5 -4.5 0  -0.4000000000000004 -4.5 0  -0.2999999999999998 -4.5 0  -0.2000000000000002 -4.5 0  -0.09999999999999964 -4.5 0  0 -4.5 0  0.09999999999999964 -4.5 0  0.2000000000000002 -4.5 0  0.2999999999999998 -4.5 0  0.4000000000000004 -4.5 0  0.5 -4.5 0  0.5999999999999996 -4.5 0  0.7000000000000002 -4.5 0  0.7999999999999998 -4.5 0  0.9000000000000004 -4.5 0  1 -4.5 0  1.1 -4.5 0  1.2 -4.5 0  1.3 -4.5 0  1.4 -4.5 0  1.5 -4.5 0  1.6 -4.5 0  1.7 -4.5 0  1.8 -4.5 0  1.9 -4.5 0  2 -4.5 0  2.1 -4.5 0  2.2 -4.5 0  2.3 -4.5 0  2.4 -4.5 0  2.5 -4.5 0  2.6 -4.5 0  2.7 -4.5 0  2.8 -4.5 0  2.9 -4.5 0  3 -4.5 0  3.1 -4.5 0  3.199999999999999 -4.5 0  3.300000000000001 -4.5 0  3.4 -4.5 0  3.5 -4.5 0  3.6 -4.5 0  3.699999999999999 -4.5 0  3.800000000000001 -4.5 0  3.9 -4.5 0  4 -4.5 0  4.1 -4.5 0  4.199999999999999 -4.5 0  4.300000000000001 -4.5 0  4.4 -4.5 0  4.5 -4.5 0  4.6 -4.5 0  4.699999999999999 -4.5 0  4.800000000000001 -4.5 0  4.9 -4.5 0  5 -4.5 0  -5 -4.4 0  -4.9 -4.4 0  -4.8 -4.4 0  -4.7 -4.4 0  -4.6 -4.4 0  -4.5 -4.4 0  -4.4 -4.4 0  -4.3 -4.4 0  -4.2 -4.4 0  -4.1 -4.4 0  -4 -4.4 0  -3.9 -4.4 0  -3.8 -4.4 0  -3.7 -4.4 0  -3.6 -4.4 0  -3.5 -4.4 0  -3.4 -4.4 0  -3.3 -4.4 0  -3.2 -4.4 0  -3.1 -4.4 0  -3 -4.4 0  -2.9 -4.4 0  -2.8 -4.4 0  -2.7 -4.4 0  -2.6 -4.4 0  -2.5 -4.4 0  -2.4 -4.4 0  -2.3 -4.4 0  -2.2 -4.4 0  -2.1 -4.4 0  -2 -4.4 0  -1.9 -4.4 0  -1.8 -4.
[...]
<PointData  Scalars="r"> 
<DataArray  type="Float64"  Name="r"  format="ascii">9.9713051542299458e-01  1.0017373104895591e+00  9.9945450697392002e-01  9.9964630198262638e-01  1.0009754374942819e+00  9.9938961345507338e-01  1.0012433627766073e+00  9.9944994124955755e-01  1.0000477938615762e+00  1.0013099978625706e+00  9.9922262669516448e-01  1.0009440653975776e+00  9.9957784673634931e-01  9.9956958169087284e-01  1.0007063402464247e+00  9.9928301761265881e-01  1.0000814841755974e+00  1.0004660109537875e+00  9.9978518629101687e-01  1.0005396816024574e+00  1.0001239983940660e+00  9.9979354862700376e-01  1.0004643695204511e+00  1.0004354378907423e+00  1.0005840298523359e+00  9.9968813770380249e-01  9.9679942021008128e-01  9.9262808196312158e-01  9.8831490319695847e-01  9.8767085968599511e-01  9.9590719466477462e-01  1.0177209521420816e+00  1.0549657680966014e+00  1.1044483103168123e+00  1.1592182056264606e+00  1.2098834205001292e+00  1.2491435663422430e+00  1.2728906100464166e+00  1.2804223806619319e+00  1.2738577803916808e+00  1.2570701662189603e+00  1.2341741385126648e+00  1.2087674890132685e+00  1.1830291487486193e+00  1.1585051537261570e+00  1.1362789164664413e+00  1.1170896936325398e+00  1.1007590024852523e+00  1.0870019627297995e+00  1.0762087761345280e+00  1.0681269386681442e+00  1.0625100811364561e+00  1.0596531902781379e+00  1.0595824489181858e+00  1.0630518919539806e+00  1.0704671483082162e+00  1.0819129590475651e+00  1.0987513798616706e+00  1.1215596714687732e+00  1.1502284326343630e+00  1.1847075144728325e+00  1.2237175873227515e+00  1.2646397807016700e+00  1.3027233379229306e+00  1.3310998298556271e+00  1.3416073380556253e+00  1.3260554860464366e+00  1.2785860902312371e+00  1.2021619866617099e+00  1.1134521508341868e+00  1.0379236126752818e+00  9.9575899932067080e-01  9.8699055908364397e-01  9.9363286801071393e-01  9.9929735879431714e-01  1.0008311133478773e+00  1.0005110140709788e+00  1.0001005125824640e+00  9.9991437800609428e-01  9.9992595288530828e-01  1.0001211369413971e+00  9.9992707149846727e-01  1.0000488131622260e+00  1.0000461448771854e+00  9.9988793152000088e-01  1.0000348709823330e+00  1.0000182595000775e+00  9.9996426590801202e-01  1.0000274514491065e+00  1.0000200268480495e+00  1.0000192280064173e+00  9.9999789273544171e-01  1.0001198550700126e+00  9.9991982818137282e-01  1.0000405799787722e+00  9.9993783607101971e-01  1.0000021318617467e+00  9.9996495363752613e-01  1.0000236971001359e+00  1.0000035100638300e+00  1.0000375529188541e+00  1.0017373104895579e+00  9.9962451181690326e-01  1.0000646412712844e+00  1.0000398746417778e+00  1.0001220152204331e+00  9.9978840349938192e-01  9.9994886817769746e-01  9.9978674341686768e-01  9.9991300231493596e-01  9.9963513598601039e-01  9.9955077431194872e-01  1.0001299896647777e+00  9.9952839847025532e-01  1.0003687277985613e+00  1.0001534868245388e+00  9.9969416432174940e-01  1.0007068052235331e+00  9.9962639453063840e-01  9.9960610073714207e-01  1.0000742397930533e+00  9.9938349071969890e-01  1.0005249678413772e+00  1.0008649158250393e+00  1.0002687206598573e+00  9.9973747680746006e-01  9.9702136637007577e-01  9.9444745824667247e-01  9.9408055180125432e-01  9.9817479572089984e-01  1.0109054037190319e+00  1.0319450257903058e+00  1.0590427706495451e+00  1.0881652302630034e+00  1.1142433435466639e+00  1.1353446126411026e+00  1.1508975817097553e+00  1.1615462731454402e+00  1.1686527668813294e+00  1.1725707034773576e+00  1.1739484515538110e+00  1.1727728305596887e+00  1.1687466781234563e+00  1.1626052822632094e+00  1.1548981413262034e+00  1.1463178489000876e+00  1.1377351229198711e+00  1.1294125299054565e+00  1.1217610129105977e+00  1.1154101662983549e+00  1.1102935890174557e+00  1.1064623145433514e+00  1.1042187667225478e+00  1.1033272059668724e+00  1.1037727043468311e+00  1.1054400114975120e+00  1.1077688220950659e+00  1.1107422970028993e+00  1.1139913524470713e+00  1.1165930536590327e+00  1.1183151939368541e+00  1.1188576104834496e+00  1.1178381996508830e+00  1.1156799640830788e+00  1.1132831163066479e+00  1.1124616225421264e+00  1.1157678047188613e+00  1.1248971765377553e+00  1.1400905936046137e+00  1.1574716304088963e+00  1.1654058192463315e+00  1.1490586137724474e+00  1.1042472702972363e+00  1.0478784296460253e+00  1.0070443250650969e+00  9.9335344992043684e-01  9.9563926718416551e-01  9.9940238112997681e-01  1.0004460478699975e+00  1.0002132256488998e+00  1.0000452110945079e+00  9.9995606099343670e-01  9.9995073849765770e-01  1.0000116323774235e+00  9.9996639576812940e-01  1.0000246959320238e+00  1.0000273019553869e+00  9.9999686563690149e-01  9.9998743552131664e-01  1.0000111828409912e+00  9.9998898010140369e-01  9.9997630109730462e-01  1.0000054049171652e+00  9.9992796328241917e-01  9.9999496010089850e-01  9.9998946086858997e-01  1.0000534308292053e+00  9.9998816067072771e-01  1.0000371890494681e+00  1.0000115900215694e+00  9.9997365078970357e-01  1.0000035100644009e+00  9.9945450697392335e-01  1.0000646412712859e+00  1.0002337971846444e+00  9.9969712070493644e-01  1.0000195958664717e+00  9.9926212259364500e-01  1.0004030228496588e+00  1.0001395685131291e+00  9.9976118155176619e-01  1.0005064542163600e+00  1.0000428432765469e+00  1.0001946137591911e+00  1.0001378789266346e+00  9.9989866714943398e-01  1.0000742510264096e+00  9.9995369230478071e-01  9.9971543713586497e-01  9.9957944595314729e-01  1.0003055715958133e+00  1.0006894670814328e+00  1.0007432338367799e+00  1.0007621403306848e+00  9.9883897938662891e-01  9.9654779656055448e-01  9.9396587339935438e-01  9.9336796997658994e-01  1.0008025298191507e+00  1.0183521963122182e+00  1.0464959355200023e+00  1.0803878509514828e+00  1.1103823738944756e+00  1.1294241473051385e+00  1.1329893733370957e+00  1.1214437409473481e+00  1.1003212782942671e+00  1.0748054394610396e+00  1.0505786014546776e+00  1.0317507734513136e+00  1.0201953844754936e+00  1.0165224274782025e+00  1.0196657261633124e+00  1.0278837039397666e+00  1.0394760940665109e+00  1.0521357148824637e+00  1.0646353050155539e+00  1.0760430009123667e+00  1.0857443882145332e+00  1.0938456768492753e+00  1.1002895911155595e+00  1.1052084880837136e+00  1.1089065555534776e+00  1.1112509178791508e+00  1.1124136836669096e+00  1.1124493686015671e+00  1.1109602961463931e+00  1.1078676769472340e+00  1.1031613385669223e+00  1.0962257344176396e+00  1.0868074808466330e+00  1.0750152720014665e+00  1.0606898291205948e+00  1.0440892830846031e+00  1.0259193840507130e+00  1.0073989194880297e+00  9.9058300624245654e-01  9.7761771210401638e-01  9.7196897696283724e-01  9.7816107029726673e-01  9.9995897406486400e-01  1.0401874921185756e+00  1.0964625423415786e+00  1.1511076931890314e+00  1.1713574981959920e+00  1.1356598489448513e+00  1.0658369511492365e+00  1.0110033681216739e+00  9.9305152776538996e-01  9.9590526286415737e-01  9.9977390949944178e-01  1.0004663171480723e+00  1.0002158429690347e+00  9.9991940643831090e-01  1.0000356096837149e+00  1.0000174496407048e+00  9.9997618145482781e-01  1.0000214469532995e+00  9.9994478310821977e-01  1.0000213480068643e+00  1.0000008716136235e+00  9.9999071206624501e-01  1.0000147549886484e+00  9.9999222340774996e-01  1.0000385382859041e+00  1.0000212129971209e+00  1.0000429998715676e+00  9.9996011731222023e-01  9.9996178082741183e-01  1.0000232173985897e+00  9.9992382093025356e-01  1.0000115900218878e+00  1.0000236970998275e+00  9.9964630198262694e-01  1.0000398746417802e+00  9.9969712070493888e-01  9.9973122152233596e-01  1.0005707039551397e+00  9.9984651311823303e-01  1.0003307729156450e+00  9.9999049667229800e-01  9.9942934290421359e-01  1.0007369547913563e+00  9.9950898241785435e-01  1.0001556864314234e+00  1.0002809019148771e+00  9.9933521163971772e-01  1.0007502157937505e+00  9.9944314638494758e-01  1.0001669968642257e+00  1.0007668341201361e+00  1.0001596205438459e+00  1.0006646506671435e+00  9.9930543106441916e-01  9.9728152526886682e-01  9.9481381849369888e-01  9.9342039605220600e-01  9.9952472603702536e-01  1.0176126754407968e+00  1.0484057284392279e+00  1.0859778784828802e+00  1.1182314789341152e+00  1.1354102081815476e+00  1.1328167355902545e+00  1.1133599424739129e+00  1.0845418340643700e+00  1.0533789499340611e+00  1.0258228081832881e+00  1.0046365616301971e+00  9.9000324294168174e-01  9.8152725882388125e-01  9.7756909321885888e-01  9.7668907130240379e-01  9.7816233347810566e-01  9.8121691024755342e-01  9.8561654082095063e-01  9.9102045394008875e-01  9.9706900295895440e-01  1.0035166803731490e+00  1.0100223166943672e+00  1.0158929628882443e+00  1.0207274040682590e+00  1.0244892753101396e+00  1.0269068221440669e+00  1.0277311439432864e+00  1.0270975773550244e+00  1.0250019863325563e+00  1.0215147232574628e+00  1.0168453897172358e+00  1.0110827501996953e+00  1.0047445676521480e+00  9.9828403172427804e-01  9.9218312998171376e-01  9.8719145965976385e-01  9.8387452612858017e-01  9.8269625745626132e-01  9.8389751097745293e-01  9.8681969633597910e-01  9.9033059447424798e-01  9.9326918469475423e-01  9.9387197548169748e-01  9.9140639113721329e-01  9.8844194781702732e-01  9.9127067046310358e-01  1.0114546304496561e+00  1.0609208271440451e+00  1.1303944157733301e+00  1.1732546071029224e+00  1.1435851180127974e+00  1.0653701288445445e+00  1.0071568961627160e+00  9.9278183882442250e-01  9.9732104211388717e-01  1.0002274077987015e+00  1.0004201590014645e+00  1.0000479909485314e+00  9.9987907852153690e-01  1.0000470325545328e+00  9.9995550601656891e-01  1.0000377955560740e+00  1.0000353817018417e+00  9.9996876197439799e-01  1.0000115405068157e+00  1.0000062223655692e+00  9.9997910123273315e-01  9.9999468506210398e-01  1.0000071250425302e+00  9.9993571101496348e-01  1.0000293422718953e+00  1.0000548929907995e+00  9.9999841612604679e-01  1.0000232173988128e+00  1.0000371890489896e+00  9.9996495363743487e-01  1.0009754374942839e+00  1.0001220152204358e+00  1.0000195958664699e+00  1.0005707039551397e+00  1.0001052834628126e+00  1.0000545044636118e+00  9.9972007843404742e-01  1.0001264966854782e+00  9.9995558205136337e-01  1.0002718451955865e+00  9.9933167933136957e-01  1.0002821947030722e+00  1.0000212039471352e+00  9.9941239543005356e-01  1.0003431111820411e+00  9.9932022581740465e-01  1.0007106651715938e+00  1.0004690538910874e+00  9.9954618627011027e-01  9.9924417598966664e-01  9.9558302640371699e-01  9.9381020317678603e-01  9.9701666260909705e-01  1.0120234415412046e+00  1.0439365837329313e+00  1.0836125112612638e+00  1.1192462871940247e+00  1.1367699484270446e+00  1.1292380332834322e+00  1.1037195328623681e+00  1.0694614934081159e+00  1.0365054517313765e+00  1.0118585181593542e+00  9.9563785587511144e-01  9.8795390754667145e-01  9.8602446540747224e-01  9.8637698553874664e-01  9.8800385960227965e-01  9.8907946664033686e-01  9.8923159179996667e-01  9.8908502962026112e-01  9.8823610888384106e-01  9.8752673726947682e-01  9.8712673473954271e-01  9.8689328131492216e-01  9.8723658205174247e-01  9.8802574131691068e-01  9.8908827624361084e-01  9.9062748344414742e-01  9.9244882387460698e-01  9.9437702902795078e-01  9.9622117667072518e-01  9.9783285424796353e-01  9.9923220478773944e-01  1.0002715019582635e+00  1.0006689301259135e+00  1.0006971157598883e+00  1.0003520955045466e+00  9.9936370379613115e-01  9.9776116045130125e-01  9.9568278449213488e-01  9.9309565978464753e-01  9.8996626096881002e-01  9.8665518691813903e-01  9.8381976201429766e-01  9.8208061062188723e-01  9.8167344015110236e-01  9.8253428047945235e-01  9.8433895294431928e-01  9.8563983292445867e-01  9.8490636644696472e-01  9.8190386548163466e-01  9.8017921963424681e-01  9.9324377122906793e-01  1.0425462779304766e+00  1.1240967518450971e+00  1.1741585089954922e+00  1.1335173541566208e+00  1.0473099225640390e+00  9.9836696413033643e-01  9.9399065394014274e-01  9.9910401475307542e-01  1.0005102033007676e+00  1.0002263142526480e+00  9.9996161040637288e-01  9.9998566650624210e-01  1.0000124239950734e+00  9.9995624875127465e-01  9.9998949977938700e-01  1.0000305386064050e+00  9.9996587749456256e-01  1.0000330431374123e+00  1.0000021428722954e+00  9.9998587401427996e-01  9.9999898383255414e-01  1.0000586007656591e+00  9.9987896055075531e-01  1.0000548929910467e+00  9.9996178082733422e-01  9.9998816067047991e-01  1.0000021318627066e+00  9.9938961345507060e-01  9.9978840349938602e-01  9.9926212259364600e-01  9.9984651311823158e-01  1.0000545044636160e+00  9.9960596186834116e-01  9.9995503845135747e-01  1.0004726291369725e+00  9.9955780423313656e-01  9.9998240424390450e-01  9.9993748261814164e-01  1.0003726164074969e+00  1.0002244816092707e+00  9.9970479914249366e-01  1.0008028077759421e+00  1.0001850023194430e+00  1.0007115349229450e+00  9.9991785110713760e-01  9.9741771807883806e-01  9.9517211494368396e-01  9.9380784172120362e-01  1.0044144505078516e+00  1.0321127222260604e+00  1.0734510043265837e+00  1.1150483514095770e+00  1.1363540372445184e+00  1.1301150068439154e+00  1.1014512311348978e+00  1.0627437840953193e+00  1.0285013733914330e+00  1.0038154699307071e+00  9.9006726270285994e-01  9.8533846681993698e-01  9.8470761096587800e-01  9.8638182229775329e-01  9.8808538757755404e-01  9.8857320298746687e-01  9.8902164964966710e-01  9.8909145240810858e-01  9.8961131973894523e-01  9.9098176365565993e-01  9.9232854767028611e-01  9.9444779438274544e-01  9.9717398026230319e-01  1.0000177491609636e+00  1.0031511586861097e+00  1.0064426996325291e+00  1.0098596675349787e+00  1.0133599748082525e+00  1.0164341033853816e+00  1.0192660853103801e+00  1.0220252418991420e+00  1.0245111225928807e+00  1.0267347596615348e+00  1.0288715111893185e+00  1.0310068122242151e+00  1.0330807153296351e+00  1.0349162113057198e+00  1.0364460012275372e+00  1.0376797849336514e+00  1.0381044802278681e+00  1.0372735595928786e+00  1.0349186548984342e+00  1.0307184002610688e+00  1.0243285404344622e+00  1.0158563910145404e+00  1.0066524792474909e+00  9.9854740634226391e-01  9.9288036329392160e-01  9.9021196773669162e-01  9.8997559361971343e-01  9.9020386628285262e-01  9.8884442636271130e-01  9.8451189944086470e-01  9.7954724104415991e-01  9.9045956078047170e-01  1.0473147747034177e+00  1.1377009171401038e+00  1.1707458880028569e+00  1.1020345698373033e+00  1.0193284074507902e+00  9.9286606048133774e-01  9.9703040649532926e-01  1.0002930075622689e+00  1.0003898802834590e+00  9.9995686657580662e-01  9.9994475943697336e-01  1.0000466406016923e+00  9.9999792650727093e-01  1.0000145232215087e+00  1.0000102720557842e+00  9.9999048399348300e-01  9.9998137768655371e-01  1.0000181675813082e+00  1.0000225618602432e+00  9.9993115959447121e-01  1.0000586007659489e+00  1.0000293422718105e+00  9.9996011731192314e-01  1.0000534308296498e+00  9.9993783607060627e-01  1.0012433627766077e+00  9.9994886817769990e-01  1.0004030228496605e+00  1.0003307729156470e+00  9.9972007843405086e-01  9.9995503845135580e-01  1.0003101039139077e+00  9.9999630248173066e-01  9.9971008443797993e-01  1.0005695428037737e+00  1.0000896583988310e+00  9.9930858978499082e-01  9.9996192656918781e-01  9.9974285137221264e-01  1.0006827147577486e+00  1.0001413807082193e+00  9.9901393302621699e-01  9.9678467513172109e-01  9.9307578159554410e-01  9.9747405285950697e-01  1.0162939088901144e+00  1.0554170913833785e+00  1.1022984880184172e+00  1.1331698380753614e+00  1.1350429969906184e+00  1.1065752988812827e+00  1.0647861008671822e+00  1.0274352081339484e+00  1.0008918615708016e+00  9.8782623337604369e-01  9.8409276054740336e-01  9.8425740364687464e-01  9.8678755704091525e-01  9.8829895116329736e-01  9.8879116851618032e-01  9.8941568176346995e-01  9.8994664052843229e-01  9.9177846817124393e-01  9.9445423924575971e-01  9.9759072982647368e-01  1.0016453686039708e+00  1.0057990120906772e+00  1.0102230140479853e+00  1.0145590354711289e+00  1.0182850530843393e+00  1.0216951707799049e+00  1.0244341997127893e+00  1.0262926484180930e+00  1.0275795693454621e+00  1.0282838383537269e+00  1.0288605521706242e+00  1.0293207726721625e+00  1.0296241006694005e+00  1.0301719896620418e+00  1.0310365100332715e+00  1.0320393316232315e+00  1.0333499356810929e+00  1.0350883582972108e+00  1.0372983270234932e+00  1.0398428283199266e+00  1.0427420510925201e+00  1.0460048917974014e+00  1.0493723105391668e+00  1.0522368002844642e+00  1.0537753414569433e+00  1.0529765175397956e+00  1.0481415770669842e+00  1.0380747702536355e+00  1.0235239408129058e+00  1.0079769409929951e+00  9.9603988686504996e-01  9.9017575870172914e-01  9.8945134731608775e-01  9.9064949917607437e-01  9.9037151097797704e-01  9.8622408213648960e-01  9.8118099704968753e-01  1.0006096107268250e+00  1.0769996218258089e+00  1.1620446262462352e+00  1.1463703872134945e+00  1.0529547443671401e+00  9.9757806086630385e-01  9.9464128690928433e-01  9.9975092771321650e-01  1.0004595417475675e+00  1.0001365940461509e+00  9.9991475367468952e-01  9.9998000439896118e-01  9.9999858553800058e-01  9.9996665605119806e-01  9.9998712288986491e-01  1.0000452371363406e+00  9.9999192984521201e-01  9.9998769959047940e-01  1.0000225618605583e+00  9.9999898383248564e-01  9.9993571101450784e-01  1.0000429998722764e+00  9.9998946086811347e-01  1.0000405799786543e+00  9.9944994124955400e-01  9.9978674341686979e-01  1.0001395685131256e+00  9.9999049667229678e-01  1.0001264966854762e+00  1.0004726291369710e+00  9.9999630248172910e-01  9.9938634395266834e-01  1.0002787964083664e+00  1.0001537609096389e+00  9.9951248757040656e-01  9.9997121838176706e-01  1.0010305186513744e+00  1.0001064034721634e+00  1.0007489126919684e+00  9.9880197183055797e-01  9.9526377266290522e-01  9.9414972838970783e-01  1.0014065152015217e+00  1.0320488503298042e+00  1.0791075788124760e+00  1.1233450514385683e+00  1.1396740754537871e+00  1.1178761756414679e+00  1.0760207509688924e+00  1.0324131200323337e+00  1.0016414516352423e+00  9.8765946939841764e-01  9.8262418566765652e-01  9.8456825979123097e-01  9.8771094982469687e-01  9.8852936617552833e-01  9.8998299141537571e-01  9.8983563844151801e-01  9.9026731986417627e-01  9.9325862083043448e-01  9.9618075309408882e-01  1.0006113028091117e+00  1.0054707065830097e+00  1.0095895496708098e+00  1.0142512933847172e+00  1.0178728659982534e+00  1.0203097688430056e+00  1.0220626662818564e+00  1.0224251125978319e+00  1.0218558602079597e+00  1.0206441795678478e+00  1.0188061733759917e+00  1.0170099339836680e+00  1.0151566397800642e+00  1.0133034216540711e+00  1.0116325019044985e+00  1.0102177003935888e+00  1.0090616262234458e+00  1.0081595797502054e+00  1.0077059662579655e+00  1.0077568875402618e+00  1.0082496489455586e+00  1.0093963625395568e+00  1.0112812234204160e+00  1.0139605644373946e+00  1.0177376560989460e+00  1.0226848202798917e+00  1.0290600488068682e+00  1.0371304787063180e+00  1.0467670148096002e+00  1.0574275547746048e+00  1.0671845478064470e+00  1.0722718206768580e+00  1.0676761358946083e+00  1.0505928152200685e+00  1.0257557359247278e+00  1.0040439325956263e+00  9.9258814806884554e-01  9.9021917899415646e-01  9.9144660794277906e-01  9.9136017930202136e-01  9.8646440950999104e-01  9.8597708304464016e-01  1.0304119527654847e+00  1.1272347936450418e+00  1.1670969915133325e+00  1.0891191237808011e+00  1.0086998877139379e+00  9.9298770989629936e-01  9.9884261466334268e-01  1.0005477112501189e+00  1.0001105423500460e+00  9.9994214331304021e-01  1.0000371201201304e+00  9.9999252479111522e-01  1.0000548510300489e+00  9.9994897267676897e-01  1.0000149700328225e+00  9.9999192984541196e-01  1.0000181675812374e+00  9.9998587401382510e-01  1.0000071250431406e+00  1.0000212129969697e+00  9.9999496010048683e-01  9.9991982818211744e-01  1.0000477938615815e+00  9.9991300231493718e-01  9.9976118155176641e-01  9.9942934290421159e-01  9.9995558205136503e-01  9.9955780423313845e-01  9.9971008443798159e-01  1.0002787964083704e+00  1.0004439716513935e+00  9.9933670990349743e-01  1.0002974870667911e+00  1.0005592908471064e+00  1.0003086172683004e+00  9.9962115130197926e-01  9.9822335550221653e-01  9.9442789617147154e-01  9.9407724758398297e-01  1.0096900690104731e+00  1.0471192955168966e+00  1.1004559774472826e+00  1.1360904756111143e+00  1.1324422182684717e+00  1