<?xml version="1.0"?>
<VTKFile type="UnstructuredGrid"  version="0.1"  >
<UnstructuredGrid>
<Piece  NumberOfPoints="10201" NumberOfCells="20000">
<Points>
<DataArray  type="Float64"  NumberOfComponents="3"  format="ascii">-5 -5 0  -4.9 -5 0  -4.8 -5 0  -4.7 -5 0  -4.6 -5 0  -4.5 -5 0  -4.4 -5 0  -4.3 -5 0  -4.2 -5 0  -4.1 -5 0  -4 -5 0  -3.9 -5 0  -3.8 -5 0  -3.7 -5 0  -3.6 -5 0  -3.5 -5 0  -3.4 -5 0  -3.3 -5 0  -3.2 -5 0  -3.1 -5 0  -3 -5 0  -2.9 -5 0  -2.8 -5 0  -2.7 -5 0  -2.6 -5 0  -2.5 -5 0  -2.4 -5 0  -2.3 -5 0  -2.2 -5 0  -2.1 -5 0  -2 -5 0  -1.9 -5 0  -1.8 -5 0  -1.7 -5 0  -1.6 -5 0  -1.5 -5 0  -1.4 -5 0  -1.3 -5 0  -1.2 -5 0  -1.1 -5 0  -1 -5 0  -0.9000000000000004 -5 0  -0.7999999999999998 -5 0  -0.7000000000000002 -5 0  -0.5999999999999996 -5 0  -0.5 -5 0  -0.4000000000000004 -5 0  -0.2999999999999998 -5 0  -0.2000000000000002 -5 0  -0.09999999999999964 -5 0  0 -5 0  0.09999999999999964 -5 0  0.2000000000000002 -5 0  0.2999999999999998 -5 0  0.4000000000000004 -5 0  0.5 -5 0  0.5999999999999996 -5 0  0.7000000000000002 -5 0  0.7999999999999998 -5 0  0.9000000000000004 -5 0  1 -5 0  1.1 -5 0  1.2 -5 0  1.3 -5 0  1.4 -5 0  1.5 -5 0  1.6 -5 0  1.7 -5 0  1.8 -5 0  1.9 -5 0  2 -5 0  2.1 -5 0  2.2 -5 0  2.3 -5 0  2.4 -5 0  2.5 -5 0  2.6 -5 0  2.7 -5 0  2.8 -5 0  2.9 -5 0  3 -5 0  3.1 -5 0  3.199999999999999 -5 0  3.300000000000001 -5 0  3.4 -5 0  3.5 -5 0  3.6 -5 0  3.699999999999999 -5 0  3.800000000000001 -5 0  3.9 -5 0  4 -5 0  4.1 -5 0  4.199999999999999 -5 0  4.300000000000001 -5 0  4.4 -5 0  4.5 -5 0  4.6 -5 0  4.699999999999999 -5 0  4.800000000000001 -5 0  4.9 -5 0  5 -5 0  -5 -4.9 0  -4.9 -4.9 0  -4.8 -4.9 0  -4.7 -4.9 0  -4.6 -4.9 0  -4.5 -4.9 0  -4.4 -4.9 0  -4.3 -4.9 0  -4.2 -4.9 0  -4.1 -4.9 0  -4 -4.9 0  -3.9 -4.9 0  -3.8 -4.9 0  -3.7 -4.9 0  -3.6 -4.9 0  -3.5 -4.9 0  -3.4 -4.9 0  -3.3 -4.9 0  -3.2 -4.9 0  -3.1 -4.9 0  -3 -4.9 0  -2.9 -4.9 0  -2.8 -4.9 0  -2.7 -4.9 0  -2.6 -4.9 0  -2.5 -4.9 0  -2.4 -4.9 0  -2.3 -4.9 0  -2.2 -4.9 0  -2.1 -4.9 0  -2 -4.9 0  -1.9 -4.9 0  -1.8 -4.9 0  -1.7 -4.9 0  -1.6 -4.9 0  -1.5 -4.9 0  -1.4 -4.9 0  -1.3 -4.9 0  -1.2 -4.9 0  -1.1 -4.9 0  -1 -4.9 0  -0.9000000000000004 -4.9 0  -0.7999999999999998 -4.9 0  -0.7000000000000002 -4.9 0  -0.5999999999999996 -4.9 0  -0.5 -4.9 0  -0.4000000000000004 -4.9 0  -0.2999999999999998 -4.9 0  -0.2000000000000002 -4.9 0  -0.09999999999999964 -4.9 0  0 -4.9 0  0.09999999999999964 -4.9 0  0.2000000000000002 -4.9 0  0.2999999999999998 -4.9 0  0.4000000000000004 -4.9 0  0.5 -4.9 0  0.5999999999999996 -4.9 0  0.7000000000000002 -4.9 0  0.7999999999999998 -4.9 0  0.9000000000000004 -4.9 0  1 -4.9 0  1.1 -4.9 0  1.2 -4.9 0  1.3 -4.9 0  1.4 -4.9 0  1.5 -4.9 0  1.6 -4.9 0  1.7 -4.9 0  1.8 -4.9 0  1.9 -4.9 0  2 -4.9 0  2.1 -4.9 0  2.2 -4.9 0  2.3 -4.9 0  2.4 -4.9 0  2.5 -4.9 0  2.6 -4.9 0  2.7 -4.9 0  2.8 -4.9 0  2.9 -4.9 0  3 -4.9 0  3.1 -4.9 0  3.199999999999999 -4.9 0  3.300000000000001 -4.9 0  3.4 -4.9 0  3.5 -4.9 0  3.6 -4.9 0  3.699999999999999 -4.9 0  3.800000000000001 -4.9 0  3.9 -4.9 0  4 -4.9 0  4.1 -4.9 0  4.199999999999999 -4.9 0  4.300000000000001 -4.9 0  4.4 -4.9 0  4.5 -4.9 0  4.6 -4.9 0  4.699999999999999 -4.9 0  4.800000000000001 -4.9 0  4.9 -4.9 0  5 -4.9 0  -5 -4.8 0  -4.9 -4.8 0  -4.8 -4.8 0  -4.7 -4.8 0  -4.6 -4.8 0  -4.5 -4.8 0  -4.4 -4.8 0  -4.3 -4.8 0  -4.2 -4.8 0  -4.1 -4.8 0  -4 -4.8 0  -3.9 -4.8 0  -3.8 -4.8 0  -3.7 -4.8 0  -3.6 -4.8 0  -3.5 -4.8 0  -3.4 -4.8 0  -3.3 -4.8 0  -3.2 -4.8 0  -3.1 -4.8 0  -3 -4.8 0  -2.9 -4.8 0  -2.8 -4.8 0  -2.7 -4.8 0  -2.6 -4.8 0  -2.5 -4.8 0  -2.4 -4.8 0  -2.3 -4.8 0  -2.2 -4.8 0  -2.1 -4.8 0  -2 -4.8 0  -1.9 -4.8 0  -1.8 -4.8 0  -1.7 -4.8 0  -1.6 -4.8 0  -1.5 -4.8 0  -1.4 -4.8 0  -1.3 -4.8 0  -1.2 -4.8 0  -1.1 -4.8 0  -1 -4.8 0  -0.9000000000000004 -4.8 0  -0.7999999999999998 -4.8 0  -0.7000000000000002 -4.8 0  -0.5999999999999996 -4.8 0  -0.5 -4.8 0  -0.4000000000000004 -4.8 0  -0.2999999999999998 -4.8 0  -0.2000000000000002 -4.8 0  -0.09999999999999964 -4.8 0  0 -4.8 0  0.09999999999999964 -4.8 0  0.2000000000000002 -4.8 0  0.2999999999999998 -4.8 0  0.4000000000000004 -4.8 0  0.5 -4.8 0  0.5999999999999996 -4.8 0  0.7000000000000002 -4.8 0  0.7999999999999998 -4.8 0  0.9000000000000004 -4.8 0  1 -4.8 0  1.1 -4.8 0  1.2 -4.8 0  1.3 -4.8 0  1.4 -4.8 0  1.5 -4.8 0  1.6 -4.8 0  1.7 -4.8 0  1.8 -4.8 0  1.9 -4.8 0  2 -4.8 0  2.1 -4.8 0  2.2 -4.8 0  2.3 -4.8 0  2.4 -4.8 0  2.5 -4.8 0  2.6 -4.8 0  2.7 -4.8 0  2.8 -4.8 0  2.9 -4.8 0  3 -4.8 0  3.1 -4.8 0  3.199999999999999 -4.8 0  3.300000000000001 -4.8 0  3.4 -4.8 0  3.5 -4.8 0  3.6 -4.8 0  3.699999999999999 -4.8 0  3.800000000000001 -4.8 0  3.9 -4.8 0  4 -4.8 0  4.1 -4.8 0  4.199999999999999 -4.8 0  4.300000000000001 -4.8 0  4.4 -4.8 0  4.5 -4.8 0  4.6 -4.8 0  4.699999999999999 -4.8 0  4.800000000000001 -4.8 0  4.9 -4.8 0  5 -4.8 0  -5 -4.7 0  -4.9 -4.7 0  -4.8 -4.7 0  -4.7 -4.7 0  -4.6 -4.7 0  -4.5 -4.7 0  -4.4 -4.7 0  -4.3 -4.7 0  -4.2 -4.7 0  -4.1 -4.7 0  -4 -4.7 0  -3.9 -4.7 0  -3.8 -4.7 0  -3.7 -4.7 0  -3.6 -4.7 0  -3.5 -4.7 0  -3.4 -4.7 0  -3.3 -4.7 0  -3.2 -4.7 0  -3.1 -4.7 0  -3 -4.7 0  -2.9 -4.7 0  -2.8 -4.7 0  -2.7 -4.7 0  -2.6 -4.7 0  -2.5 -4.7 0  -2.4 -4.7 0  -2.3 -4.7 0  -2.2 -4.7 0  -2.1 -4.7 0  -2 -4.7 0  -1.9 -4.7 0  -1.8 -4.7 0  -1.7 -4.7 0  -1.6 -4.7 0  -1.5 -4.7 0  -1.4 -4.7 0  -1.3 -4.7 0  -1.2 -4.7 0  -1.1 -4.7 0  -1 -4.7 0  -0.9000000000000004 -4.7 0  -0.7999999999999998 -4.7 0  -0.7000000000000002 -4.7 0  -0.5999999999999996 -4.7 0  -0.5 -4.7 0  -0.4000000000000004 -4.7 0  -0.2999999999999998 -4.7 0  -0.2000000000000002 -4.7 0  -0.09999999999999964 -4.7 0  0 -4.7 0  0.09999999999999964 -4.7 0  0.2000000000000002 -4.7 0  0.2999999999999998 -4.7 0  0.4000000000000004 -4.7 0  0.5 -4.7 0  0.5999999999999996 -4.7 0  0.7000000000000002 -4.7 0  0.7999999999999998 -4.7 0  0.9000000000000004 -4.7 0  1 -4.7 0  1.1 -4.7 0  1.2 -4.7 0  1.3 -4.7 0  1.4 -4.7 0  1.5 -4.7 0  1.6 -4.7 0  1.7 -4.7 0  1.8 -4.7 0  1.9 -4.7 0  2 -4.7 0  2.1 -4.7 0  2.2 -4.7 0  2.3 -4.7 0  2.4 -4.7 0  2.5 -4.7 0  2.6 -4.7 0  2.7 -4.7 0  2.8 -4.7 0  2.9 -4.7 0  3 -4.7 0  3.1 -4.7 0  3.199999999999999 -4.7 0  3.300000000000001 -4.7 0  3.4 -4.7 0  3.5 -4.7 0  3.6 -4.7 0  3.699999999999999 -4.7 0  3.800000000000001 -4.7 0  3.9 -4.7 0  4 -4.7 0  4.1 -4.7 0  4.199999999999999 -4.7 0  4.300000000000001 -4.7 0  4.4 -4.7 0  4.5 -4.7 0  4.6 -4.7 0  4.699999999999999 -4.7 0  4.800000000000001 -4.7 0  4.9 -4.7 0  5 -4.7 0  -5 -4.6 0  -4.9 -4.6 0  -4.8 -4.6 0  -4.7 -4.6 0  -4.6 -4.6 0  -4.5 -4.6 0  -4.4 -4.6 0  -4.3 -4.6 0  -4.2 -4.6 0  -4.1 -4.6 0  -4 -4.6 0  -3.9 -4.6 0  -3.8 -4.6 0  -3.7 -4.6 0  -3.6 -4.6 0  -3.5 -4.6 0  -3.4 -4.6 0  -3.3 -4.6 0  -3.2 -4.6 0  -3.1 -4.6 0  -3 -4.6 0  -2.9 -4.6 0  -2.8 -4.6 0  -2.7 -4.6 0  -2.6 -4.6 0  -2.5 -4.6 0  -2.4 -4.6 0  -2.3 -4.6 0  -2.2 -4.6 0  -2.1 -4.6 0  -2 -4.6 0  -1.9 -4.6 0  -1.8 -4.6 0  -1.7 -4.6 0  -1.6 -4.6 0  -1.5 -4.6 0  -1.4 -4.6 0  -1.3 -4.6 0  -1.2 -4.6 0  -1.1 -4.6 0  -1 -4.6 0  -0.9000000000000004 -4.6 0  -0.7999999999999998 -4.6 0  -0.7000000000000002 -4.6 0  -0.5999999999999996 -4.6 0  -0.5 -4.6 0  -0.4000000000000004 -4.6 0  -0.2999999999999998 -4.6 0  -0.2000000000000002 -4.6 0  -0.09999999999999964 -4.6 0  0 -4.6 0  0.09999999999999964 -4.6 0  0.2000000000000002 -4.6 0  0.2999999999999998 -4.6 0  0.4000000000000004 -4.6 0  0.5 -4.6 0  0.5999999999999996 -4.6 0  0.7000000000000002 -4.6 0  0.7999999999999998 -4.6 0  0.9000000000000004 -4.6 0  1 -4.6 0  1.1 -4.6 0  1.2 -4.6 0  1.3 -4.6 0  1.4 -4.6 0  1.5 -4.6 0  1.6 -4.6 0  1.7 -4.6 0  1.8 -4.6 0  1.9 -4.6 0  2 -4.6 0  2.1 -4.6 0  2.2 -4.6 0  2.3 -4.6 0  2.4 -4.6 0  2.5 -4.6 0  2.6 -4.6 0  2.7 -4.6 0  2.8 -4.6 0  2.9 -4.6 0  3 -4.6 0  3.1 -4.6 0  3.199999999999999 -4.6 0  3.300000000000001 -4.6 0  3.4 -4.6 0  3.5 -4.6 0  3.6 -4.6 0  3.699999999999999 -4.6 0  3.800000000000001 -4.6 0  3.9 -4.6 0  4 -4.6 0  4.1 -4.6 0  4.199999999999999 -4.6 0  4.300000000000001 -4.6 0  4.4 -4.6 0  4.5 -4.6 0  4.6 -4.6 0  4.699999999999999 -4.6 0  4.800000000000001 -4.6 0  4.9 -4.6 0  5 -4.6 0  -5 -4.5 0  -4.9 -4.5 0  -4.8 -4.5 0  -4.7 -4.5 0  -4.6 -4.5 0  -4.5 -4.5 0  -4.4 -4.5 0  -4.3 -4.5 0  -4.2 -4.5 0  -4.1 -4.5 0  -4 -4.5 0  -3.9 -4.5 0  -3.8 -4.5 0  -3.7 -4.5 0  -3.6 -4.5 0  -3.5 -4.5 0  -3.4 -4.5 0  -3.3 -4.5 0  -3.2 -4.5 0  -3.1 -4.5 0  -3 -4.5 0  -2.9 -4.5 0  -2.8 -4.5 0  -2.7 -4.5 0  -2.6 -4.5 0  -2.5 -4.5 0  -2.4 -4.5 0  -2.3 -4.5 0  -2.2 -4.5 0  -2.1 -4.5 0  -2 -4.5 0  -1.9 -4.5 0  -1.8 -4.5 0  -1.7 -4.5 0  -1.6 -4.5 0  -1.5 -4.5 0  -1.4 -4.5 0  -1.3 -4.5 0  -1.2 -4.5 0  -1.1 -4.5 0  -1 -4.5 0  -0.9000000000000004 -4.5 0  -0.7999999999999998 -4.5 0  -0.7000000000000002 -4.5 0  -0.5999999999999996 -4.5 0  -0.5 -4.5 0  -0.4000000000000004 -4.5 0  -0.2999999999999998 -4.5 0  -0.2000000000000002 -4.5 0  -0.09999999999999964 -4.5 0  0 -4.5 0  0.09999999999999964 -4.5 0  0.2000000000000002 -4.5 0  0.2999999999999998 -4.5 0  0.4000000000000004 -4.5 0  0.5 -4.5 0  0.5999999999999996 -4.5 0  0.7000000000000002 -4.5 0  0.7999999999999998 -4.5 0  0.9000000000000004 -4.5 0  1 -4.5 0  1.1 -4.5 0  1.2 -4.5 0  1.3 -4.5 0  1.4 -4.5 0  1.5 -4.5 0  1.6 -4.5 0  1.7 -4.5 0  1.8 -4.5 0  1.9 -4.5 0  2 -4.5 0  2.1 -4.5 0  2.2 -4.5 0  2.3 -4.5 0  2.4 -4.5 0  2.5 -4.5 0  2.6 -4.5 0  2.7 -4.5 0  2.8 -4.5 0  2.9 -4.5 0  3 -4.5 0  3.1 -4.5 0  3.199999999999999 -4.5 0  3.300000000000001 -4.5 0  3.4 -4.5 0  3.5 -4.5 0  3.6 -4.5 0  3.699999999999999 -4.5 0  3.800000000000001 -4.5 0  3.9 -4.5 0  4 -4.5 0  4.1 -4.5 0  4.199999999999999 -4.5 0  4.300000000000001 -4.5 0  4.4 -4.5 0  4.5 -4.5 0  4.6 -4.5 0  4.699999999999999 -4.5 0  4.800000000000001 -4.5 0  4.9 -4.5 0  5 -4.5 0  -5 -4.4 0  -4.9 -4.4 0  -4.8 -4.4 0  -4.7 -4.4 0  -4.6 -4.4 0  -4.5 -4.4 0  -4.4 -4.4 0  -4.3 -4.4 0  -4.2 -4.4 0  -4.1 -4.4 0  -4 -4.4 0  -3.9 -4.4 0  -3.8 -4.4 0  -3.7 -4.4 0  -3.6 -4.4 0  -3.5 -4.4 0  -3.4 -4.4 0  -3.3 -4.4 0  -3.2 -4.4 0  -3.1 -4.4 0  -3 -4.4 0  -2.9 -4.4 0  -2.8 -4.4 0  -2.7 -4.4 0  -2.6 -4.4 0  -2.5 -4.4 0  -2.4 -4.4 0  -2.3 -4.4 0  -2.2 -4.4 0  -2.1 -4.4 0  -2 -4.4 0  -1.9 -4.4 0  -1.8 -4.
[...]
<PointData  Scalars="r"> 
<DataArray  type="Float64"  Name="r"  format="ascii">1.0000341917058733e+00  1.0004364999481374e+00  9.9965180515627483e-01  1.0002418684604300e+00  1.0004379129641960e+00  9.9998108075916947e-01  1.0000117188648106e+00  1.0003792482578704e+00  1.0002959611458706e+00  9.9991426800288985e-01  1.0003348394259919e+00  1.0003633877016118e+00  9.9996758080947501e-01  9.9996821137344216e-01  1.0001067919433648e+00  9.9974279029800484e-01  9.9991619686508015e-01  9.9996770871189722e-01  9.9976093972937818e-01  9.9995551308633346e-01  1.0003350252591496e+00  1.0002023611359263e+00  1.0002187566017269e+00  1.0002563395726201e+00  9.9994199182532850e-01  9.9963898173316357e-01  9.9959550402134167e-01  9.9955943275657488e-01  9.9980875814847636e-01  1.0002353147448249e+00  1.0003501113996744e+00  1.0003063426506789e+00  1.0003526750133283e+00  1.0002020193329626e+00  9.9990573708062380e-01  9.9970525185018433e-01  9.9960125066910432e-01  9.9971197414864832e-01  9.9997526636953349e-01  1.0000352250843729e+00  1.0000186622734313e+00  1.0001280059192599e+00  1.0001267266569225e+00  1.0000309766720274e+00  1.0000489555870764e+00  1.0000765593174892e+00  1.0000234223754156e+00  9.9995227836848599e-01  9.9996507544007351e-01  1.0000778995225905e+00  1.0000449340195339e+00  9.9989488113191460e-01  9.9996648779280961e-01  1.0001159391806229e+00  1.0000145620957677e+00  9.9988245071839765e-01  9.9999809277517593e-01  1.0001362476545974e+00  9.9996053715646582e-01  9.9985566371624945e-01  1.0001141784229399e+00  1.0000998180983891e+00  9.9981729454424340e-01  1.0000155836411875e+00  1.0001623731082541e+00  9.9988234072452764e-01  9.9993588521569798e-01  1.0001391818312952e+00  9.9995543240277107e-01  9.9993531134108748e-01  1.0000611005108808e+00  1.0000093428440959e+00  9.9996152885062406e-01  1.0000103877818631e+00  1.0000115139292698e+00  1.0000041158783577e+00  9.9998039254646176e-01  1.0000028685675588e+00  1.0000304021405582e+00  9.9996699750180651e-01  1.0000126253288979e+00  1.0000114684381010e+00  1.0000061926079127e+00  9.9996892475137700e-01  1.0000503438195913e+00  9.9995196937140429e-01  1.0000095257994825e+00  9.9996901056450782e-01  9.9997193272308882e-01  9.9997501170938019e-01  9.9993026118819439e-01  1.0000423547088246e+00  9.9992683652178616e-01  1.0000999885835757e+00  1.0000057414727279e+00  1.0000765625485208e+00  1.0000683400292614e+00  1.0000241785936079e+00  1.0000231590253954e+00  9.9999798608098256e-01  9.9997362347217433e-01  1.0004364999481390e+00  9.9941375690904799e-01  1.0001001923037243e+00  1.0001464238522255e+00  9.9955210547947837e-01  9.9980752482320934e-01  1.0001951739987700e+00  9.9996628726237624e-01  9.9959779360608536e-01  9.9994021784731102e-01  9.9988064282950517e-01  9.9951481451449431e-01  9.9982931021244259e-01  1.0001752757507729e+00  9.9995317997457023e-01  1.0000674543477337e+00  1.0001642217178701e+00  9.9992129453655831e-01  1.0001505806920956e+00  1.0003145626294281e+00  9.9988844022853296e-01  9.9964863947273674e-01  9.9972398414910857e-01  9.9968701595299292e-01  9.9993571176143980e-01  1.0003241185246268e+00  1.0003487000948463e+00  1.0003007345129731e+00  1.0003569243732291e+00  1.0001329996209367e+00  9.9979792886666885e-01  9.9961027419337645e-01  9.9949950055082626e-01  9.9965572109942225e-01  1.0000553852636720e+00  1.0002276343561869e+00  1.0002447923342808e+00  1.0003443443024933e+00  1.0002729458563597e+00  1.0000308314003934e+00  9.9990412678793439e-01  9.9988603751047644e-01  9.9993248215643793e-01  9.9996072520968993e-01  9.9987633422760480e-01  9.9989695265272183e-01  1.0000401083116082e+00  1.0000261342429348e+00  9.9995141071960658e-01  9.9998261032688529e-01  1.0000146265824761e+00  1.0000127806871344e+00  1.0000024006185648e+00  9.9998671047495036e-01  9.9999055236036138e-01  1.0000043270145402e+00  1.0000277414260506e+00  9.9998987986744026e-01  9.9994840332263113e-01  1.0000498399165372e+00  1.0000414130061239e+00  9.9990381119197735e-01  1.0000221718673619e+00  1.0000890040493793e+00  9.9991127374052902e-01  9.9998185684974550e-01  1.0000912250748200e+00  9.9994683439442200e-01  9.9997288782820282e-01  1.0000537816352089e+00  9.9997643850629347e-01  9.9999328575108071e-01  1.0000130423258908e+00  9.9998561664138963e-01  1.0000170975291873e+00  9.9999697191936421e-01  9.9997083678080323e-01  1.0000440379409372e+00  9.9997968583337449e-01  9.9997680709440828e-01  1.0000322886247388e+00  9.9999284816946954e-01  9.9996622334767216e-01  1.0000322040573000e+00  9.9999368984815418e-01  9.9997832095776851e-01  1.0000360957397345e+00  1.0000042390790784e+00  1.0000257754075939e+00  1.0000178020180805e+00  1.0000627098060275e+00  9.9998939216676686e-01  1.0000361378596028e+00  9.9997516086514704e-01  9.9996609171418127e-01  9.9994863005235335e-01  9.9995688889874779e-01  9.9993997315613170e-01  9.9998562435550031e-01  9.9998834925368185e-01  9.9999798608130852e-01  9.9965180515627583e-01  1.0001001923037265e+00  1.0004366873242092e+00  9.9972649595862373e-01  9.9997490300345526e-01  1.0002528080708977e+00  9.9977183346541343e-01  9.9970083075897165e-01  1.0001965457071269e+00  1.0003012192301262e+00  1.0000607544775946e+00  1.0002501461610085e+00  1.0003940682879628e+00  9.9984536643787592e-01  9.9995090054061486e-01  1.0001313903419355e+00  9.9999239054941458e-01  9.9998551129537461e-01  9.9998712980860249e-01  9.9958544205019606e-01  9.9979991292378712e-01  1.0002888861862502e+00  1.0003400142394083e+00  1.0002097199267899e+00  1.0001885775392549e+00  9.9992533419580643e-01  9.9978887705463271e-01  9.9979606734609228e-01  9.9963888443735571e-01  9.9961251721633171e-01  9.9998022120476371e-01  1.0002672630607452e+00  1.0003947685144261e+00  1.0004490476058556e+00  1.0002306607978830e+00  9.9990654419630931e-01  9.9977779557745461e-01  9.9969002601016144e-01  9.9968222817631680e-01  9.9985942836649044e-01  9.9998749292007261e-01  1.0000522916936725e+00  1.0001391562077864e+00  1.0000960769625173e+00  1.0000391609559849e+00  1.0001049950770202e+00  1.0000839384039850e+00  9.9998276601881975e-01  9.9997938722134527e-01  1.0000327801878959e+00  1.0000429960132478e+00  9.9998749175097390e-01  9.9995429495172683e-01  1.0000236519015973e+00  1.0000433076377495e+00  9.9997689892286390e-01  9.9996237603299032e-01  1.0000192447284888e+00  1.0000412767413793e+00  9.9997303815743221e-01  9.9994693571493687e-01  1.0000647499956432e+00  1.0000258622480536e+00  9.9990928048620342e-01  1.0000335525767903e+00  1.0000700261225475e+00  9.9991293300458861e-01  1.0000073011780957e+00  1.0000639759571475e+00  9.9994629233247811e-01  9.9999297646945273e-01  1.0000485472967635e+00  9.9995723637181799e-01  1.0000076343551780e+00  1.0000281487211491e+00  9.9995796523856983e-01  1.0000238032207236e+00  1.0000149650011840e+00  9.9996275655062117e-01  1.0000207701848389e+00  1.0000249377927903e+00  9.9995208000565883e-01  1.0000372241825743e+00  1.0000026986882564e+00  9.9998609422470974e-01  9.9999730498657691e-01  1.0000281456828275e+00  9.9995280764877004e-01  9.9999380300652152e-01  1.0000030132559183e+00  9.9992524199543542e-01  1.0000163925062326e+00  9.9994069441086331e-01  1.0000292515579334e+00  9.9998867365864474e-01  1.0000404972596826e+00  1.0000611307212497e+00  9.9999713970639093e-01  1.0000916306036922e+00  9.9998562435505700e-01  1.0000231590253210e+00  1.0002418684604257e+00  1.0001464238522244e+00  9.9972649595862373e-01  9.9993124381530218e-01  1.0003533650963763e+00  9.9995663333273288e-01  9.9985831278972348e-01  1.0004782515585633e+00  1.0001437815801528e+00  9.9988245119718921e-01  9.9990412398546769e-01  1.0000451694160142e+00  9.9966549940525085e-01  9.9977747903033798e-01  1.0001256453271208e+00  9.9993242507478741e-01  9.9996374693227585e-01  1.0000590525801458e+00  9.9987200461263481e-01  1.0000326153331676e+00  1.0003727477120135e+00  1.0001185301715541e+00  9.9983655323511222e-01  9.9979880893081730e-01  9.9976612318435021e-01  9.9988684583288234e-01  1.0002201087062053e+00  1.0002065807305345e+00  1.0000981495342207e+00  1.0002149177130142e+00  1.0002251969402209e+00  1.0000031236450662e+00  9.9978926675943258e-01  9.9956034637454261e-01  9.9958285771646127e-01  9.9996374544832523e-01  1.0002098300247877e+00  1.0002102943753595e+00  1.0002680426706507e+00  1.0002548233264135e+00  1.0001113662371581e+00  1.0000046992892020e+00  9.9990386072624005e-01  9.9986665363540428e-01  9.9994491790554518e-01  9.9993553753343467e-01  9.9988861670583729e-01  9.9996054555694447e-01  1.0000205165752876e+00  9.9999375399507440e-01  9.9996764898873136e-01  9.9997930210177877e-01  1.0000310979958644e+00  1.0000347225651944e+00  9.9997114466780901e-01  9.9997071875819032e-01  1.0000451186368098e+00  1.0000374601852984e+00  9.9994697389705312e-01  9.9997010836089939e-01  1.0000788026881782e+00  9.9999722088458631e-01  9.9991066855118094e-01  1.0000540778427307e+00  1.0000599224022457e+00  9.9990756469231246e-01  1.0000058662632361e+00  1.0000761714115078e+00  9.9994652064286982e-01  9.9997232438304817e-01  1.0000615976211775e+00  9.9997827010439733e-01  9.9996785549495737e-01  1.0000460057876972e+00  9.9997649304843961e-01  9.9999698033815310e-01  1.0000129264869844e+00  9.9999490570900806e-01  9.9998522572291282e-01  1.0000302484046451e+00  9.9997017187150583e-01  1.0000049755473233e+00  1.0000152167107095e+00  9.9997799237624607e-01  9.9999989070974926e-01  1.0000135804039592e+00  9.9999615040307743e-01  9.9998162242894351e-01  1.0000656114228004e+00  9.9996006182492791e-01  1.0000652555162257e+00  9.9999536962537117e-01  1.0000469323802110e+00  9.9998657215818709e-01  1.0000057757605378e+00  9.9998752680327507e-01  9.9995275246110993e-01  9.9997866530253021e-01  9.9999713970645332e-01  9.9993997315610661e-01  1.0000241785942370e+00  1.0004379129641965e+00  9.9955210547948237e-01  9.9997490300345626e-01  1.0003533650963732e+00  9.9986740862532109e-01  9.9982598403122003e-01  9.9999170230134737e-01  9.9987271927643551e-01  9.9944650382145350e-01  9.9981887397784874e-01  1.0000979976389661e+00  9.9988654245275232e-01  1.0000696315257247e+00  1.0001993858380267e+00  9.9998092035684538e-01  9.9981357769830881e-01  1.0001093230562350e+00  1.0000561780100101e+00  1.0001080668868687e+00  1.0001691204305048e+00  9.9983780279966472e-01  9.9966786566957977e-01  1.0000237545543655e+00  1.0001434366664477e+00  1.0001025286373024e+00  1.0000864948490085e+00  9.9995389679248159e-01  9.9979574029036311e-01  9.9992000133637204e-01  9.9990542477082933e-01  9.9979602302708537e-01  9.9990811453924999e-01  1.0000923237399983e+00  1.0002220979873824e+00  1.0004147182259731e+00  1.0003158477029481e+00  9.9994814998030268e-01  9.9976151949976311e-01  9.9974306204992347e-01  9.9975265900749666e-01  9.9984097897623125e-01  9.9987737157268186e-01  9.9992218245048170e-01  1.0000883313942379e+00  1.0001097011926372e+00  9.9997162090317537e-01  9.9997082000679893e-01  1.0000349534284951e+00  9.9998278877365820e-01  9.9991276496098336e-01  9.9992000507128953e-01  9.9997802173718153e-01  9.9998191425699656e-01  9.9991641542339993e-01  9.9993164909992815e-01  1.0000431427037184e+00  1.0000280957000258e+00  9.9992525626503614e-01  9.9998812244566626e-01  1.0000981341953961e+00  9.9998028153885810e-01  9.9991637503216058e-01  1.0000609760734482e+00  1.0000539576805345e+00  9.9991426138666140e-01  9.9999552317764484e-01  1.0000735225601167e+00  9.9997353306825043e-01  9.9994349240750335e-01  1.0000561515147777e+00  1.0000169867694275e+00  9.9994176730701778e-01  1.0000231604904475e+00  1.0000277876378310e+00  9.9997176704133961e-01  9.9998883433022945e-01  1.0000358190348229e+00  9.9997785702867259e-01  9.9999527128570975e-01  1.0000181436605280e+00  9.9998694105528207e-01  1.0000072168711036e+00  9.9999996624095355e-01  9.9999966640131677e-01  1.0000052048999377e+00  1.0000011012173913e+00  9.9998937575457070e-01  1.0000125451018071e+00  9.9998105327796438e-01  9.9998727246560903e-01  9.9998677791361834e-01  9.9999380256177084e-01  9.9996180210054197e-01  1.0000021421396974e+00  1.0000100248799957e+00  9.9996483503001077e-01  1.0000728246128241e+00  9.9995275246104653e-01  1.0000611307213594e+00  9.9995688889880374e-01  1.0000683400289412e+00  9.9998108075916792e-01  9.9980752482321222e-01  1.0002528080708950e+00  9.9995663333272955e-01  9.9982598403122014e-01  1.0004257587753318e+00  1.0000354630244745e+00  1.0001855553099355e+00  1.0001442440380761e+00  1.0004967302872927e+00  1.0000850278428555e+00  9.9998379239750512e-01  1.0003318588099379e+00  1.0000254570094107e+00  9.9995156659755513e-01  1.0000772224864707e+00  9.9998942276929181e-01  9.9988472289408903e-01  1.0000049839699472e+00  9.9991009455340829e-01  9.9983627647044404e-01  1.0001222668212886e+00  1.0002026844915781e+00  9.9999393030550499e-01  1.0000195359364394e+00  9.9997075876708841e-01  9.9990360502849018e-01  1.0000599749143992e+00  1.0001581663142662e+00  1.0000113062169864e+00  1.0000682648532186e+00  1.0001193256379106e+00  1.0000303270366437e+00  9.9995502950311910e-01  9.9980156068776782e-01  9.9960664413672540e-01  9.9979014520872400e-01  1.0000979597048572e+00  1.0001755159028338e+00  1.0001608246777529e+00  1.0001063365701757e+00  1.0000473228202669e+00  1.0001024059314569e+00  1.0000411155363464e+00  9.9988278565582767e-01  9.9996812017071102e-01  1.0001513789440255e+00  1.0001292959989994e+00  1.0000712976779931e+00  1.0001262944891092e+00  1.0001863798347868e+00  1.0001427340810249e+00  1.0000249931364980e+00  9.9998897339925885e-01  1.0000506164896197e+00  9.9997490780110299e-01  9.9983660153629206e-01  9.9993293531105099e-01  1.0000560348360406e+00  9.9993231251169601e-01  9.9991718417150766e-01  1.0000765072202942e+00  1.0000438804846357e+00  9.9992775094943309e-01  9.9999309989163387e-01  1.0000633220372925e+00  9.9999458433552890e-01  9.9993237813018865e-01  1.0000369560443443e+00  1.0000520037555813e+00  9.9993032466693055e-01  9.9999490359253862e-01  1.0000637131827930e+00  9.9997295845445799e-01  9.9994649519825229e-01  1.0000773240431193e+00  9.9997501745842909e-01  9.9996576096301792e-01  1.0000386568065742e+00  9.9999819747746876e-01  9.9997321358149149e-01  1.0000184971902735e+00  1.0000028720898055e+00  9.9998263521588315e-01  1.0000102452578528e+00  9.9999533169379828e-01  1.0000036737884928e+00  9.9999609099075593e-01  1.0000136576397920e+00  9.9999544412300856e-01  1.0000404607248299e+00  9.9997232245302237e-01  1.0000435288022482e+00  1.0000052398322021e+00  9.9997862931487902e-01  1.0000380479968454e+00  9.9996483502984546e-01  9.9998752680336134e-01  1.0000404972596648e+00  9.9994863005200874e-01  1.0000765625487991e+00  1.0000117188648103e+00  1.0001951739987698e+00  9.9977183346541421e-01  9.9985831278972104e-01  9.9999170230134893e-01  1.0000354630244759e+00  9.9962592362039315e-01  9.9995651912053118e-01  9.9997404268018364e-01  9.9981259676412293e-01  9.9970877725301477e-01  9.9986103568177820e-01  9.9996290698084311e-01  9.9952263920750928e-01  9.9999797402235224e-01  9.9997599119386604e-01  9.9985178553182552e-01  1.0000720416468063e+00  1.0000504529211844e+00  9.9999504119253757e-01  1.0001722729603715e+00  1.0001493379463271e+00  9.9985261396467229e-01  9.9982594970753402e-01  9.9994642599461714e-01  9.9985401059716694e-01  9.9997393067983942e-01  1.0000702930460574e+00  9.9994985664694647e-01  9.9996546501986228e-01  1.0000895699031691e+00  9.9996508442368892e-01  9.9998051112556952e-01  1.0000031627539332e+00  9.9995649102149653e-01  1.0001042197996401e+00  1.0002326725806425e+00  1.0000256205508864e+00  9.9987654026380635e-01  9.9994499887834032e-01  1.0000907795252243e+00  1.0003004955029684e+00  1.0004190167426761e+00  1.0004495463447542e+00  1.0006762131922622e+00  1.0008596772541765e+00  1.0007203267918539e+00  1.0006164135818143e+00  1.0007082668567919e+00  1.0007413179006770e+00  1.0006737826373040e+00  1.0006307825977814e+00  1.0006649793116003e+00  1.0007305658256245e+00  1.0006320066884145e+00  1.0004358673112803e+00  1.0004073037889427e+00  1.0003309859116625e+00  1.0000242867240823e+00  9.9992734223969171e-01  1.0000150840441895e+00  9.9995037646051999e-01  9.9990945391679831e-01  9.9999844327667264e-01  1.0000421102754491e+00  1.0000120613267718e+00  9.9994481060585172e-01  1.0000143573413747e+00  1.0000617176907232e+00  9.9994604071872906e-01  9.9996600403706370e-01  1.0000784439150592e+00  9.9998537801886545e-01  9.9992267088892872e-01  1.0000854200758773e+00  9.9999191593013081e-01  9.9994169777880471e-01  1.0000479397813395e+00  1.0000071200085348e+00  9.9996649552093320e-01  1.0000097666933563e+00  1.0000287126030747e+00  9.9996367633612149e-01  1.0000180996236134e+00  1.0000041788359122e+00  9.9999516074704353e-01  9.9999718097672341e-01  1.0000016121389133e+00  9.9999657715408341e-01  9.9999670013080844e-01  9.9997409344540134e-01  1.0000114438000924e+00  9.9998694138361266e-01  9.9998312306266712e-01  1.0000254460434177e+00  9.9997862931453907e-01  1.0000100248802553e+00  1.0000057757604648e+00  9.9998867365864141e-01  9.9996609171436346e-01  1.0000057414730308e+00  1.0003792482578611e+00  9.9996628726237402e-01  9.9970083075896388e-01  1.0004782515585642e+00  9.9987271927643828e-01  1.0001855553099341e+00  9.9995651912052985e-01  1.0002786550751335e+00  9.9995024347770622e-01  9.9977039022406067e-01  1.0002369534452420e+00  1.0000851763523044e+00  1.0000865270789632e+00  1.0002225196406460e+00  1.0005385627492285e+00  1.0000996166525460e+00  1.0000639433147027e+00  1.0001703675197571e+00  9.9982861868754891e-01  1.0000251651185859e+00  1.0000463045624777e+00  9.9973909778103298e-01  9.9986554553302176e-01  1.0001451853001051e+00  1.0001384371176285e+00  1.0001747392722595e+00  1.0002290319383371e+00  9.9999272845491538e-01  9.9994397461222373e-01  1.0000385841974799e+00  9.9993465495463230e-01  9.9983788412917285e-01  9.9994648792169472e-01  9.9987862065675925e-01  9.9997649883567907e-01  1.0001302077863319e+00  1.0000890179448141e+00  1.0002492312883571e+00  1.0006319023575565e+00  1.0007777906873148e+00  1.0007527523309117e+00  1.0005542550510080e+00  1.0001608301691960e+00  9.9977187705157355e-01  9.9927128874015658e-01  9.9853524392398052e-01  9.9800238296279997e-01  9.9773855875370510e-01  9.9742542169493076e-01  9.9718826633109570e-01  9.9722640379642458e-01  9.9744138896151058e-01  9.9782370980866275e-01  9.9830488155471486e-01  9.9883739402563232e-01  9.9954758799453269e-01  1.0001764307525824e+00  1.0004546463336237e+00  1.0006785650263201e+00  1.0007352240987268e+00  1.0004567405644627e+00  1.0002070636023515e+00  1.0000545702480801e+00  9.9994837336632691e-01  9.9996592638169579e-01  9.9995066644484232e-01  9.9997837837062309e-01  1.0000635777758118e+00  9.9998525331520227e-01  9.9993947580155973e-01  1.0000665366161892e+00  1.0000166661729788e+00  9.9990918768397108e-01  1.0000694206091048e+00  1.0000136159822601e+00  9.9994166521784500e-01  1.0000254853647370e+00  1.0000285444573014e+00  9.9996428206708077e-01  9.9999539858653563e-01  1.0000375119186931e+00  9.9997033131820323e-01  9.9999557150785268e-01  1.0000218407990593e+00  9.9998503187062526e-01  9.9999922535765495e-01  9.9999794442098222e-01  1.0000193512278435e+00  9.9998353841291054e-01  1.0000037155379213e+00  1.0000313443731150e+00  9.9998313688131535e-01  1.0000135846395932e+00  1.0000069138928913e+00  9.9998312306243831e-01  1.0000052398327588e+00  1.0000021421394141e+00  9.9998657215830600e-01  1.0000292515578275e+00  9.9997516086517646e-01  1.0000999885831259e+00  1.0002959611458733e+00  9.9959779360608536e-01  1.0001965457071298e+00  1.0001437815801519e+00  9.9944650382145528e-01  1.0001442440380750e+00  9.9997404268018442e-01  9.9995024347770711e-01  9.9997411761798427e-01  1.0001429132976354e+00  1.0005304289671744e+00  9.9963763042284992e-01  1.0001021439469504e+00  9.9992799332785287e-01  9.9950013529934989e-01  9.9964885907479484e-01  9.9986162228214803e-01  9.9990663102031507e-01  9.9984390099680509e-01  1.0001247194272542e+00  9.9990160040536424e-01  9.9997768302052870e-01  1