<?xml version="1.0"?>
<VTKFile type="UnstructuredGrid"  version="0.1"  >
<UnstructuredGrid>
<Piece  NumberOfPoints="10201" NumberOfCells="20000">
<Points>
<DataArray  type="Float64"  NumberOfComponents="3"  format="ascii">-5 -5 0  -4.9 -5 0  -4.8 -5 0  -4.7 -5 0  -4.6 -5 0  -4.5 -5 0  -4.4 -5 0  -4.3 -5 0  -4.2 -5 0  -4.1 -5 0  -4 -5 0  -3.9 -5 0  -3.8 -5 0  -3.7 -5 0  -3.6 -5 0  -3.5 -5 0  -3.4 -5 0  -3.3 -5 0  -3.2 -5 0  -3.1 -5 0  -3 -5 0  -2.9 -5 0  -2.8 -5 0  -2.7 -5 0  -2.6 -5 0  -2.5 -5 0  -2.4 -5 0  -2.3 -5 0  -2.2 -5 0  -2.1 -5 0  -2 -5 0  -1.9 -5 0  -1.8 -5 0  -1.7 -5 0  -1.6 -5 0  -1.5 -5 0  -1.4 -5 0  -1.3 -5 0  -1.2 -5 0  -1.1 -5 0  -1 -5 0  -0.9000000000000004 -5 0  -0.7999999999999998 -5 0  -0.7000000000000002 -5 0  -0.5999999999999996 -5 0  -0.5 -5 0  -0.4000000000000004 -5 0  -0.2999999999999998 -5 0  -0.2000000000000002 -5 0  -0.09999999999999964 -5 0  0 -5 0  0.09999999999999964 -5 0  0.2000000000000002 -5 0  0.2999999999999998 -5 0  0.4000000000000004 -5 0  0.5 -5 0  0.5999999999999996 -5 0  0.7000000000000002 -5 0  0.7999999999999998 -5 0  0.9000000000000004 -5 0  1 -5 0  1.1 -5 0  1.2 -5 0  1.3 -5 0  1.4 -5 0  1.5 -5 0  1.6 -5 0  1.7 -5 0  1.8 -5 0  1.9 -5 0  2 -5 0  2.1 -5 0  2.2 -5 0  2.3 -5 0  2.4 -5 0  2.5 -5 0  2.6 -5 0  2.7 -5 0  2.8 -5 0  2.9 -5 0  3 -5 0  3.1 -5 0  3.199999999999999 -5 0  3.300000000000001 -5 0  3.4 -5 0  3.5 -5 0  3.6 -5 0  3.699999999999999 -5 0  3.800000000000001 -5 0  3.9 -5 0  4 -5 0  4.1 -5 0  4.199999999999999 -5 0  4.300000000000001 -5 0  4.4 -5 0  4.5 -5 0  4.6 -5 0  4.699999999999999 -5 0  4.800000000000001 -5 0  4.9 -5 0  5 -5 0  -5 -4.9 0  -4.9 -4.9 0  -4.8 -4.9 0  -4.7 -4.9 0  -4.6 -4.9 0  -4.5 -4.9 0  -4.4 -4.9 0  -4.3 -4.9 0  -4.2 -4.9 0  -4.1 -4.9 0  -4 -4.9 0  -3.9 -4.9 0  -3.8 -4.9 0  -3.7 -4.9 0  -3.6 -4.9 0  -3.5 -4.9 0  -3.4 -4.9 0  -3.3 -4.9 0  -3.2 -4.9 0  -3.1 -4.9 0  -3 -4.9 0  -2.9 -4.9 0  -2.8 -4.9 0  -2.7 -4.9 0  -2.6 -4.9 0  -2.5 -4.9 0  -2.4 -4.9 0  -2.3 -4.9 0  -2.2 -4.9 0  -2.1 -4.9 0  -2 -4.9 0  -1.9 -4.9 0  -1.8 -4.9 0  -1.7 -4.9 0  -1.6 -4.9 0  -1.5 -4.9 0  -1.4 -4.9 0  -1.3 -4.9 0  -1.2 -4.9 0  -1.1 -4.9 0  -1 -4.9 0  -0.9000000000000004 -4.9 0  -0.7999999999999998 -4.9 0  -0.7000000000000002 -4.9 0  -0.5999999999999996 -4.9 0  -0.5 -4.9 0  -0.4000000000000004 -4.9 0  -0.2999999999999998 -4.9 0  -0.2000000000000002 -4.9 0  -0.09999999999999964 -4.9 0  0 -4.9 0  0.09999999999999964 -4.9 0  0.2000000000000002 -4.9 0  0.2999999999999998 -4.9 0  0.4000000000000004 -4.9 0  0.5 -4.9 0  0.5999999999999996 -4.9 0  0.7000000000000002 -4.9 0  0.7999999999999998 -4.9 0  0.9000000000000004 -4.9 0  1 -4.9 0  1.1 -4.9 0  1.2 -4.9 0  1.3 -4.9 0  1.4 -4.9 0  1.5 -4.9 0  1.6 -4.9 0  1.7 -4.9 0  1.8 -4.9 0  1.9 -4.9 0  2 -4.9 0  2.1 -4.9 0  2.2 -4.9 0  2.3 -4.9 0  2.4 -4.9 0  2.5 -4.9 0  2.6 -4.9 0  2.7 -4.9 0  2.8 -4.9 0  2.9 -4.9 0  3 -4.9 0  3.1 -4.9 0  3.199999999999999 -4.9 0  3.300000000000001 -4.9 0  3.4 -4.9 0  3.5 -4.9 0  3.6 -4.9 0  3.699999999999999 -4.9 0  3.800000000000001 -4.9 0  3.9 -4.9 0  4 -4.9 0  4.1 -4.9 0  4.199999999999999 -4.9 0  4.300000000000001 -4.9 0  4.4 -4.9 0  4.5 -4.9 0  4.6 -4.9 0  4.699999999999999 -4.9 0  4.800000000000001 -4.9 0  4.9 -4.9 0  5 -4.9 0  -5 -4.8 0  -4.9 -4.8 0  -4.8 -4.8 0  -4.7 -4.8 0  -4.6 -4.8 0  -4.5 -4.8 0  -4.4 -4.8 0  -4.3 -4.8 0  -4.2 -4.8 0  -4.1 -4.8 0  -4 -4.8 0  -3.9 -4.8 0  -3.8 -4.8 0  -3.7 -4.8 0  -3.6 -4.8 0  -3.5 -4.8 0  -3.4 -4.8 0  -3.3 -4.8 0  -3.2 -4.8 0  -3.1 -4.8 0  -3 -4.8 0  -2.9 -4.8 0  -2.8 -4.8 0  -2.7 -4.8 0  -2.6 -4.8 0  -2.5 -4.8 0  -2.4 -4.8 0  -2.3 -4.8 0  -2.2 -4.8 0  -2.1 -4.8 0  -2 -4.8 0  -1.9 -4.8 0  -1.8 -4.8 0  -1.7 -4.8 0  -1.6 -4.8 0  -1.5 -4.8 0  -1.4 -4.8 0  -1.3 -4.8 0  -1.2 -4.8 0  -1.1 -4.8 0  -1 -4.8 0  -0.9000000000000004 -4.8 0  -0.7999999999999998 -4.8 0  -0.7000000000000002 -4.8 0  -0.5999999999999996 -4.8 0  -0.5 -4.8 0  -0.4000000000000004 -4.8 0  -0.2999999999999998 -4.8 0  -0.2000000000000002 -4.8 0  -0.09999999999999964 -4.8 0  0 -4.8 0  0.09999999999999964 -4.8 0  0.2000000000000002 -4.8 0  0.2999999999999998 -4.8 0  0.4000000000000004 -4.8 0  0.5 -4.8 0  0.5999999999999996 -4.8 0  0.7000000000000002 -4.8 0  0.7999999999999998 -4.8 0  0.9000000000000004 -4.8 0  1 -4.8 0  1.1 -4.8 0  1.2 -4.8 0  1.3 -4.8 0  1.4 -4.8 0  1.5 -4.8 0  1.6 -4.8 0  1.7 -4.8 0  1.8 -4.8 0  1.9 -4.8 0  2 -4.8 0  2.1 -4.8 0  2.2 -4.8 0  2.3 -4.8 0  2.4 -4.8 0  2.5 -4.8 0  2.6 -4.8 0  2.7 -4.8 0  2.8 -4.8 0  2.9 -4.8 0  3 -4.8 0  3.1 -4.8 0  3.199999999999999 -4.8 0  3.300000000000001 -4.8 0  3.4 -4.8 0  3.5 -4.8 0  3.6 -4.8 0  3.699999999999999 -4.8 0  3.800000000000001 -4.8 0  3.9 -4.8 0  4 -4.8 0  4.1 -4.8 0  4.199999999999999 -4.8 0  4.300000000000001 -4.8 0  4.4 -4.8 0  4.5 -4.8 0  4.6 -4.8 0  4.699999999999999 -4.8 0  4.800000000000001 -4.8 0  4.9 -4.8 0  5 -4.8 0  -5 -4.7 0  -4.9 -4.7 0  -4.8 -4.7 0  -4.7 -4.7 0  -4.6 -4.7 0  -4.5 -4.7 0  -4.4 -4.7 0  -4.3 -4.7 0  -4.2 -4.7 0  -4.1 -4.7 0  -4 -4.7 0  -3.9 -4.7 0  -3.8 -4.7 0  -3.7 -4.7 0  -3.6 -4.7 0  -3.5 -4.7 0  -3.4 -4.7 0  -3.3 -4.7 0  -3.2 -4.7 0  -3.1 -4.7 0  -3 -4.7 0  -2.9 -4.7 0  -2.8 -4.7 0  -2.7 -4.7 0  -2.6 -4.7 0  -2.5 -4.7 0  -2.4 -4.7 0  -2.3 -4.7 0  -2.2 -4.7 0  -2.1 -4.7 0  -2 -4.7 0  -1.9 -4.7 0  -1.8 -4.7 0  -1.7 -4.7 0  -1.6 -4.7 0  -1.5 -4.7 0  -1.4 -4.7 0  -1.3 -4.7 0  -1.2 -4.7 0  -1.1 -4.7 0  -1 -4.7 0  -0.9000000000000004 -4.7 0  -0.7999999999999998 -4.7 0  -0.7000000000000002 -4.7 0  -0.5999999999999996 -4.7 0  -0.5 -4.7 0  -0.4000000000000004 -4.7 0  -0.2999999999999998 -4.7 0  -0.2000000000000002 -4.7 0  -0.09999999999999964 -4.7 0  0 -4.7 0  0.09999999999999964 -4.7 0  0.2000000000000002 -4.7 0  0.2999999999999998 -4.7 0  0.4000000000000004 -4.7 0  0.5 -4.7 0  0.5999999999999996 -4.7 0  0.7000000000000002 -4.7 0  0.7999999999999998 -4.7 0  0.9000000000000004 -4.7 0  1 -4.7 0  1.1 -4.7 0  1.2 -4.7 0  1.3 -4.7 0  1.4 -4.7 0  1.5 -4.7 0  1.6 -4.7 0  1.7 -4.7 0  1.8 -4.7 0  1.9 -4.7 0  2 -4.7 0  2.1 -4.7 0  2.2 -4.7 0  2.3 -4.7 0  2.4 -4.7 0  2.5 -4.7 0  2.6 -4.7 0  2.7 -4.7 0  2.8 -4.7 0  2.9 -4.7 0  3 -4.7 0  3.1 -4.7 0  3.199999999999999 -4.7 0  3.300000000000001 -4.7 0  3.4 -4.7 0  3.5 -4.7 0  3.6 -4.7 0  3.699999999999999 -4.7 0  3.800000000000001 -4.7 0  3.9 -4.7 0  4 -4.7 0  4.1 -4.7 0  4.199999999999999 -4.7 0  4.300000000000001 -4.7 0  4.4 -4.7 0  4.5 -4.7 0  4.6 -4.7 0  4.699999999999999 -4.7 0  4.800000000000001 -4.7 0  4.9 -4.7 0  5 -4.7 0  -5 -4.6 0  -4.9 -4.6 0  -4.8 -4.6 0  -4.7 -4.6 0  -4.6 -4.6 0  -4.5 -4.6 0  -4.4 -4.6 0  -4.3 -4.6 0  -4.2 -4.6 0  -4.1 -4.6 0  -4 -4.6 0  -3.9 -4.6 0  -3.8 -4.6 0  -3.7 -4.6 0  -3.6 -4.6 0  -3.5 -4.6 0  -3.4 -4.6 0  -3.3 -4.6 0  -3.2 -4.6 0  -3.1 -4.6 0  -3 -4.6 0  -2.9 -4.6 0  -2.8 -4.6 0  -2.7 -4.6 0  -2.6 -4.6 0  -2.5 -4.6 0  -2.4 -4.6 0  -2.3 -4.6 0  -2.2 -4.6 0  -2.1 -4.6 0  -2 -4.6 0  -1.9 -4.6 0  -1.8 -4.6 0  -1.7 -4.6 0  -1.6 -4.6 0  -1.5 -4.6 0  -1.4 -4.6 0  -1.3 -4.6 0  -1.2 -4.6 0  -1.1 -4.6 0  -1 -4.6 0  -0.9000000000000004 -4.6 0  -0.7999999999999998 -4.6 0  -0.7000000000000002 -4.6 0  -0.5999999999999996 -4.6 0  -0.5 -4.6 0  -0.4000000000000004 -4.6 0  -0.2999999999999998 -4.6 0  -0.2000000000000002 -4.6 0  -0.09999999999999964 -4.6 0  0 -4.6 0  0.09999999999999964 -4.6 0  0.2000000000000002 -4.6 0  0.2999999999999998 -4.6 0  0.4000000000000004 -4.6 0  0.5 -4.6 0  0.5999999999999996 -4.6 0  0.7000000000000002 -4.6 0  0.7999999999999998 -4.6 0  0.9000000000000004 -4.6 0  1 -4.6 0  1.1 -4.6 0  1.2 -4.6 0  1.3 -4.6 0  1.4 -4.6 0  1.5 -4.6 0  1.6 -4.6 0  1.7 -4.6 0  1.8 -4.6 0  1.9 -4.6 0  2 -4.6 0  2.1 -4.6 0  2.2 -4.6 0  2.3 -4.6 0  2.4 -4.6 0  2.5 -4.6 0  2.6 -4.6 0  2.7 -4.6 0  2.8 -4.6 0  2.9 -4.6 0  3 -4.6 0  3.1 -4.6 0  3.199999999999999 -4.6 0  3.300000000000001 -4.6 0  3.4 -4.6 0  3.5 -4.6 0  3.6 -4.6 0  3.699999999999999 -4.6 0  3.800000000000001 -4.6 0  3.9 -4.6 0  4 -4.6 0  4.1 -4.6 0  4.199999999999999 -4.6 0  4.300000000000001 -4.6 0  4.4 -4.6 0  4.5 -4.6 0  4.6 -4.6 0  4.699999999999999 -4.6 0  4.800000000000001 -4.6 0  4.9 -4.6 0  5 -4.6 0  -5 -4.5 0  -4.9 -4.5 0  -4.8 -4.5 0  -4.7 -4.5 0  -4.6 -4.5 0  -4.5 -4.5 0  -4.4 -4.5 0  -4.3 -4.5 0  -4.2 -4.5 0  -4.1 -4.5 0  -4 -4.5 0  -3.9 -4.5 0  -3.8 -4.5 0  -3.7 -4.5 0  -3.6 -4.5 0  -3.5 -4.5 0  -3.4 -4.5 0  -3.3 -4.5 0  -3.2 -4.5 0  -3.1 -4.5 0  -3 -4.5 0  -2.9 -4.5 0  -2.8 -4.5 0  -2.7 -4.5 0  -2.6 -4.5 0  -2.5 -4.5 0  -2.4 -4.5 0  -2.3 -4.5 0  -2.2 -4.5 0  -2.1 -4.5 0  -2 -4.5 0  -1.9 -4.5 0  -1.8 -4.5 0  -1.7 -4.5 0  -1.6 -4.5 0  -1.5 -4.5 0  -1.4 -4.5 0  -1.3 -4.5 0  -1.2 -4.5 0  -1.1 -4.5 0  -1 -4.5 0  -0.9000000000000004 -4.5 0  -0.7999999999999998 -4.5 0  -0.7000000000000002 -4.5 0  -0.5999999999999996 -4.5 0  -0.5 -4.5 0  -0.4000000000000004 -4.5 0  -0.2999999999999998 -4.5 0  -0.2000000000000002 -4.5 0  -0.09999999999999964 -4.5 0  0 -4.5 0  0.09999999999999964 -4.5 0  0.2000000000000002 -4.5 0  0.2999999999999998 -4.5 0  0.4000000000000004 -4.5 0  0.5 -4.5 0  0.5999999999999996 -4.5 0  0.7000000000000002 -4.5 0  0.7999999999999998 -4.5 0  0.9000000000000004 -4.5 0  1 -4.5 0  1.1 -4.5 0  1.2 -4.5 0  1.3 -4.5 0  1.4 -4.5 0  1.5 -4.5 0  1.6 -4.5 0  1.7 -4.5 0  1.8 -4.5 0  1.9 -4.5 0  2 -4.5 0  2.1 -4.5 0  2.2 -4.5 0  2.3 -4.5 0  2.4 -4.5 0  2.5 -4.5 0  2.6 -4.5 0  2.7 -4.5 0  2.8 -4.5 0  2.9 -4.5 0  3 -4.5 0  3.1 -4.5 0  3.199999999999999 -4.5 0  3.300000000000001 -4.5 0  3.4 -4.5 0  3.5 -4.5 0  3.6 -4.5 0  3.699999999999999 -4.5 0  3.800000000000001 -4.5 0  3.9 -4.5 0  4 -4.5 0  4.1 -4.5 0  4.199999999999999 -4.5 0  4.300000000000001 -4.5 0  4.4 -4.5 0  4.5 -4.5 0  4.6 -4.5 0  4.699999999999999 -4.5 0  4.800000000000001 -4.5 0  4.9 -4.5 0  5 -4.5 0  -5 -4.4 0  -4.9 -4.4 0  -4.8 -4.4 0  -4.7 -4.4 0  -4.6 -4.4 0  -4.5 -4.4 0  -4.4 -4.4 0  -4.3 -4.4 0  -4.2 -4.4 0  -4.1 -4.4 0  -4 -4.4 0  -3.9 -4.4 0  -3.8 -4.4 0  -3.7 -4.4 0  -3.6 -4.4 0  -3.5 -4.4 0  -3.4 -4.4 0  -3.3 -4.4 0  -3.2 -4.4 0  -3.1 -4.4 0  -3 -4.4 0  -2.9 -4.4 0  -2.8 -4.4 0  -2.7 -4.4 0  -2.6 -4.4 0  -2.5 -4.4 0  -2.4 -4.4 0  -2.3 -4.4 0  -2.2 -4.4 0  -2.1 -4.4 0  -2 -4.4 0  -1.9 -4.4 0  -1.8 -4.
[...]
<PointData  Scalars="r"> 
<DataArray  type="Float64"  Name="r"  format="ascii">9.9999998891775910e-01  9.9999998929151013e-01  9.9999995456196622e-01  9.9999989760474550e-01  9.9999974453112195e-01  9.9999947069216077e-01  9.9999902676028740e-01  9.9999840588636979e-01  9.9999780697784846e-01  9.9999779730399596e-01  9.9999922413952325e-01  1.0000032130960039e+00  1.0000108512167358e+00  1.0000219736341329e+00  1.0000344505587697e+00  1.0000450531180101e+00  1.0000505180711807e+00  1.0000492190538182e+00  1.0000441978476791e+00  1.0000419505906719e+00  1.0000450095818760e+00  1.0000487975607490e+00  1.0000465418235744e+00  1.0000335875102113e+00  1.0000119525215567e+00  9.9999465670047638e-01  9.9999343542883423e-01  1.0000003496962797e+00  9.9999932218277821e-01  9.9999164227986237e-01  9.9998987478469792e-01  9.9999660211561570e-01  1.0000039915455572e+00  1.0000032935133110e+00  9.9999506609409050e-01  9.9999408897039355e-01  1.0000048637959986e+00  1.0000064139839715e+00  9.9999406778074740e-01  9.9999433210982880e-01  1.0000070818127789e+00  1.0000036136163897e+00  9.9999240968338587e-01  9.9999918657931208e-01  1.0000068986751736e+00  9.9999812949541844e-01  9.9999501222025988e-01  1.0000035886892207e+00  1.0000024079850833e+00  9.9999610593078414e-01  9.9999998820155156e-01  1.0000029445582588e+00  9.9999852222600649e-01  9.9999861252048705e-01  1.0000018115187626e+00  9.9999999206457058e-01  9.9999872759851705e-01  1.0000007426307007e+00  1.0000004368059519e+00  9.9999922834459076e-01  1.0000001828585856e+00  1.0000004011087806e+00  9.9999961989728803e-01  9.9999998577743798e-01  1.0000002578297387e+00  9.9999983350922317e-01  9.9999994941758097e-01  1.0000001421417248e+00  9.9999993032208667e-01  9.9999996090308885e-01  1.0000000726550329e+00  9.9999996995761231e-01  9.9999997766959314e-01  1.0000000358295611e+00  9.9999998573325355e-01  9.9999998931322975e-01  1.0000000173189272e+00  9.9999999240655868e-01  9.9999999576740728e-01  1.0000000080500180e+00  9.9999999592598976e-01  9.9999999835150510e-01  1.0000000042796866e+00  9.9999999669495776e-01  1.0000000011029073e+00  9.9999999998792222e-01  1.0000000006797116e+00  9.9999999769457837e-01  1.0000000037805434e+00  9.9999999545193097e-01  1.0000000047244602e+00  9.9999999527675587e-01  1.0000000048453950e+00  9.9999999490282832e-01  1.0000000053288480e+00  9.9999999477249790e-01  1.0000000050171309e+00  9.9999999599400047e-01  1.0000000041304611e+00  9.9999999802757500e-01  1.0000000045344577e+00  9.9999998929150735e-01  1.0000000181909248e+00  1.0000000249793666e+00  1.0000000807179938e+00  1.0000001840423620e+00  1.0000004218218808e+00  1.0000008036161379e+00  1.0000013828290548e+00  1.0000020746020930e+00  1.0000024721657392e+00  1.0000018222102927e+00  9.9999915684316831e-01  9.9999331646157474e-01  9.9998375400337358e-01  9.9997177095364309e-01  9.9996020485731973e-01  9.9995210693207792e-01  9.9994983655347247e-01  9.9995276817678103e-01  9.9995564341813414e-01  9.9995376719484419e-01  9.9994946352919178e-01  9.9994921177723106e-01  9.9995772263224147e-01  9.9997592358147036e-01  9.9999651141758372e-01  1.0000057812417324e+00  1.0000018782852578e+00  9.9999960567900825e-01  1.0000059349374253e+00  1.0000104393556364e+00  1.0000063379020989e+00  9.9999911110201134e-01  9.9999623486695788e-01  1.0000011119025698e+00  1.0000063586417589e+00  1.0000003583700581e+00  9.9999271932934219e-01  1.0000002269351900e+00  1.0000078427120804e+00  9.9999817644341182e-01  9.9999272142435525e-01  1.0000038199492478e+00  1.0000054706125678e+00  9.9999470288474734e-01  9.9999722762704613e-01  1.0000055654900015e+00  9.9999997483554826e-01  9.9999551978821855e-01  1.0000020534789240e+00  1.0000025088247475e+00  9.9999720761674971e-01  9.9999952776571610e-01  1.0000023094741395e+00  9.9999910598501507e-01  9.9999883273476720e-01  1.0000012940814085e+00  1.0000000688413935e+00  9.9999906219309997e-01  1.0000005212465892e+00  1.0000003138210793e+00  9.9999945125109602e-01  1.0000001446286906e+00  1.0000002673894683e+00  9.9999972640844803e-01  1.0000000125037520e+00  1.0000001678228663e+00  9.9999987382701394e-01  9.9999998349342001e-01  1.0000000917689011e+00  9.9999994267346881e-01  9.9999998555978331e-01  1.0000000466145744e+00  9.9999997303046628e-01  9.9999999233800141e-01  1.0000000226288646e+00  9.9999998649675115e-01  9.9999999725873001e-01  1.0000000103251971e+00  9.9999999327806766e-01  9.9999999909033499e-01  1.0000000053168190e+00  9.9999999529296402e-01  1.0000000017951438e+00  1.0000000000905169e+00  1.0000000003197509e+00  9.9999999781321636e-01  1.0000000040175123e+00  9.9999999505464876e-01  1.0000000050331628e+00  9.9999999517693106e-01  1.0000000047611246e+00  9.9999999507117610e-01  1.0000000051131555e+00  9.9999999492431058e-01  1.0000000046081758e+00  9.9999999601998391e-01  1.0000000027647202e+00  9.9999999747846091e-01  1.0000000003540122e+00  9.9999999802757522e-01  9.9999995456197011e-01  1.0000000249793695e+00  9.9999995629455829e-01  9.9999995632559791e-01  9.9999984333538494e-01  9.9999966986346966e-01  9.9999929063274207e-01  9.9999874561645641e-01  9.9999795875049813e-01  9.9999719467818793e-01  9.9999709103538681e-01  9.9999856161509615e-01  1.0000026793548773e+00  1.0000105158308896e+00  1.0000217604601582e+00  1.0000339926345823e+00  1.0000441803516935e+00  1.0000498562300273e+00  1.0000499404737271e+00  1.0000475879197364e+00  1.0000489778854853e+00  1.0000548827012732e+00  1.0000585797424586e+00  1.0000540844844914e+00  1.0000396907022946e+00  1.0000182609363697e+00  1.0000012858796397e+00  9.9999888212132904e-01  1.0000022100875037e+00  9.9999709512067980e-01  9.9998912820524466e-01  9.9999056847700918e-01  9.9999825737284165e-01  1.0000029785544731e+00  1.0000009552260773e+00  9.9999489745927228e-01  9.9999598664789591e-01  1.0000054875793682e+00  1.0000044834438322e+00  9.9999309029848549e-01  9.9999645893372602e-01  1.0000079916447069e+00  1.0000011951562702e+00  9.9999201408098004e-01  1.0000017089695643e+00  1.0000064676254998e+00  9.9999592785465519e-01  9.9999626270362618e-01  1.0000050085383836e+00  1.0000007030820961e+00  9.9999570650225478e-01  1.0000015847125081e+00  1.0000024587665040e+00  9.9999751383369317e-01  9.9999953631645855e-01  1.0000020673182086e+00  9.9999914930998990e-01  9.9999903410278257e-01  1.0000011751118760e+00  9.9999994772560974e-01  9.9999922815372611e-01  1.0000005287795048e+00  1.0000001734645967e+00  9.9999953313237477e-01  1.0000002012799807e+00  1.0000001668100311e+00  9.9999975268963082e-01  1.0000000684682697e+00  1.0000001086772090e+00  9.9999987676416013e-01  1.0000000231775141e+00  1.0000000598257226e+00  9.9999993968875700e-01  1.0000000096878385e+00  1.0000000297140750e+00  9.9999997019602627e-01  1.0000000060937182e+00  1.0000000128724922e+00  9.9999998616174057e-01  1.0000000029697866e+00  1.0000000070493378e+00  9.9999999052084454e-01  1.0000000061362315e+00  9.9999999753175317e-01  1.0000000020468240e+00  9.9999999523722305e-01  1.0000000084026821e+00  9.9999998898445608e-01  1.0000000120842172e+00  9.9999998777316790e-01  1.0000000122688042e+00  9.9999998743046414e-01  1.0000000129341726e+00  9.9999998708087068e-01  1.0000000122160984e+00  9.9999998926036149e-01  1.0000000089018557e+00  9.9999999342971413e-01  1.0000000052888871e+00  9.9999999747846058e-01  1.0000000041304593e+00  9.9999989760474650e-01  1.0000000807179925e+00  9.9999995632559513e-01  1.0000001013443371e+00  1.0000000855382696e+00  1.0000003286685939e+00  1.0000006298646356e+00  1.0000012641420495e+00  1.0000020715751865e+00  1.0000031383015553e+00  1.0000038079020166e+00  1.0000031615796119e+00  1.0000001146952269e+00  9.9999355755694275e-01  9.9998296208333659e-01  9.9997026295817293e-01  9.9995902855676588e-01  9.9995175490455368e-01  9.9994949655733401e-01  9.9995077816443845e-01  9.9994937866055977e-01  9.9994093339690426e-01  9.9993186743785867e-01  9.9993218196245315e-01  9.9994406465070351e-01  9.9996434703288750e-01  9.9998542509068045e-01  9.9999485114728681e-01  9.9999304831232905e-01  9.9999725356118541e-01  1.0000099839778638e+00  1.0000133953900112e+00  1.0000042666286386e+00  9.9999725343871226e-01  9.9999855760571532e-01  1.0000041850730130e+00  1.0000058443496380e+00  9.9999731832713090e-01  9.9999257041868461e-01  1.0000038746263002e+00  1.0000081115774688e+00  9.9999396788285000e-01  9.9999320148009219e-01  1.0000081608016667e+00  1.0000036736267468e+00  9.9999106715488373e-01  1.0000003000014190e+00  1.0000076463007723e+00  9.9999633934472698e-01  9.9999537612985145e-01  1.0000051961559719e+00  1.0000010637784040e+00  9.9999540907444395e-01  1.0000016350552290e+00  1.0000025527073482e+00  9.9999735195786843e-01  9.9999966902253778e-01  1.0000021006148032e+00  9.9999896264101273e-01  9.9999916860158600e-01  1.0000012450792712e+00  9.9999976727541351e-01  9.9999930752037358e-01  1.0000006204497083e+00  1.0000000382691423e+00  9.9999956355984398e-01  1.0000002829264487e+00  1.0000000807994873e+00  9.9999975856038592e-01  1.0000001268331551e+00  1.0000000584575370e+00  9.9999987528890144e-01  1.0000000594326481e+00  1.0000000317021549e+00  9.9999993750430438e-01  1.0000000311298844e+00  1.0000000123793806e+00  9.9999997195647350e-01  1.0000000138893739e+00  1.0000000081212310e+00  9.9999998092899955e-01  1.0000000163392808e+00  9.9999999115836113e-01  1.0000000056233669e+00  9.9999999084394775e-01  1.0000000162013996e+00  9.9999997764856441e-01  1.0000000254585690e+00  9.9999997393561357e-01  1.0000000258328987e+00  9.9999997410436359e-01  1.0000000262399158e+00  9.9999997389240591e-01  1.0000000247444718e+00  9.9999997807059660e-01  1.0000000179693449e+00  9.9999998630192644e-01  1.0000000093610737e+00  9.9999999342971257e-01  1.0000000027647180e+00  9.9999999599399692e-01  9.9999974453111995e-01  1.0000001840423591e+00  9.9999984333538572e-01  1.0000000855382691e+00  9.9999977172152954e-01  9.9999983110048984e-01  9.9999931581773716e-01  9.9999882480922309e-01  9.9999778195149525e-01  9.9999663287311324e-01  9.9999530664495473e-01  9.9999514005435330e-01  9.9999718213324085e-01  1.0000026042594750e+00  1.0000122972171721e+00  1.0000254805164466e+00  1.0000380951123682e+00  1.0000464970404805e+00  1.0000500916136768e+00  1.0000499597509156e+00  1.0000508379228832e+00  1.0000603370298360e+00  1.0000760607828083e+00  1.0000833846228849e+00  1.0000746772274869e+00  1.0000554470246470e+00  1.0000330646332769e+00  1.0000174329585583e+00  1.0000153821951876e+00  1.0000128624894347e+00  9.9999602557096368e-01  9.9998271401632588e-01  9.9999050541660728e-01  1.0000030081961320e+00  1.0000028525060922e+00  9.9999579455020993e-01  9.9999248474867031e-01  9.9999950356778322e-01  1.0000089165230217e+00  1.0000009947557464e+00  9.9998870355146441e-01  1.0000007350003637e+00  1.0000122515832766e+00  9.9999559301471830e-01  9.9998922308480431e-01  1.0000082182817907e+00  1.0000067212721306e+00  9.9998978585283804e-01  9.9999868434236339e-01  1.0000092789890027e+00  9.9999659680897879e-01  9.9999419580845672e-01  1.0000057125069304e+00  1.0000014564669268e+00  9.9999483170489856e-01  1.0000018322382607e+00  1.0000027598123400e+00  9.9999702130697754e-01  9.9999982905412277e-01  1.0000022214001925e+00  9.9999870775897204e-01  9.9999929777798113e-01  1.0000013506942840e+00  9.9999956693414571e-01  9.9999938886326822e-01  1.0000007148295760e+00  9.9999989651516219e-01  9.9999960644047958e-01  1.0000003554217125e+00  9.9999998957980574e-01  9.9999978039182735e-01  1.0000001743067966e+00  1.0000000042229016e+00  9.9999988622482383e-01  1.0000000892875274e+00  9.9999999680588925e-01  9.9999995022812405e-01  1.0000000388622543e+00  1.0000000040299961e+00  9.9999996479785791e-01  1.0000000380285941e+00  9.9999997540990038e-01  1.0000000147287302e+00  9.9999998195837225e-01  1.0000000309324497e+00  9.9999995559561561e-01  1.0000000523941313e+00  9.9999994544613080e-01  1.0000000539497695e+00  9.9999994657388558e-01  1.0000000536431188e+00  9.9999994661064018e-01  1.0000000510484039e+00  9.9999995415122089e-01  1.0000000382461407e+00  9.9999997052525891e-01  1.0000000210781395e+00  9.9999998630192777e-01  1.0000000089018577e+00  9.9999999601997880e-01  1.0000000050171325e+00  9.9999947069215978e-01  1.0000004218218810e+00  9.9999966986347266e-01  1.0000003286685957e+00  9.9999983110049118e-01  1.0000004923805472e+00  1.0000003308167755e+00  1.0000013760086868e+00  1.0000020897698516e+00  1.0000037475396735e+00  1.0000052223052740e+00  1.0000065381391317e+00  1.0000053555990713e+00  1.0000009640433927e+00  9.9999216378781719e-01  9.9997890421004254e-01  9.9996439902846113e-01  9.9995454403420436e-01  9.9995081863978419e-01  9.9995075835297320e-01  9.9995077367998531e-01  9.9994281506367855e-01  9.9992226586670552e-01  9.9990351333271554e-01  9.9990501032120749e-01  9.9992354256522908e-01  9.9994570382128556e-01  9.9996398338984582e-01  9.9997100668822403e-01  9.9997236755602348e-01  9.9998966040074055e-01  1.0000159659112722e+00  1.0000177013875442e+00  9.9999901180912654e-01  9.9999353375030087e-01  1.0000036294939787e+00  1.0000099502658144e+00  1.0000042369264193e+00  9.9999157490538149e-01  9.9999295948257172e-01  1.0000109668350656e+00  1.0000077846823772e+00  9.9998573724213458e-01  9.9999528428266737e-01  1.0000164191552134e+00  9.9999881859224538e-01  9.9998471256741783e-01  1.0000074919901676e+00  1.0000103763671329e+00  9.9998866396843844e-01  9.9999670485475700e-01  1.0000110262518476e+00  9.9999692076578073e-01  9.9999292832054498e-01  1.0000063045039438e+00  1.0000018065842191e+00  9.9999421735327099e-01  1.0000021245379400e+00  1.0000029072267160e+00  9.9999665644843672e-01  1.0000000766008617e+00  1.0000022899579357e+00  9.9999842532930694e-01  9.9999949893546858e-01  1.0000014116589684e+00  9.9999934658154710e-01  9.9999952759350985e-01  1.0000007725691897e+00  9.9999974019419324e-01  9.9999969372260156e-01  1.0000003982656867e+00  9.9999989107001086e-01  9.9999983007614457e-01  1.0000002057220305e+00  9.9999993781487695e-01  9.9999992830919116e-01  1.0000000883134537e+00  9.9999998356695385e-01  9.9999994279683568e-01  1.0000000800412396e+00  9.9999993934474884e-01  1.0000000371174522e+00  9.9999996393405433e-01  1.0000000573497869e+00  9.9999991529810395e-01  1.0000001035266963e+00  9.9999988995394251e-01  1.0000001091005890e+00  9.9999989300718406e-01  1.0000001063554442e+00  9.9999989436350545e-01  1.0000001016545299e+00  9.9999990762354618e-01  1.0000000781264899e+00  9.9999993888328098e-01  1.0000000441196810e+00  9.9999997052525769e-01  1.0000000179693449e+00  9.9999998926035916e-01  1.0000000046081736e+00  9.9999999477249790e-01  9.9999902676028884e-01  1.0000008036161352e+00  9.9999929063274096e-01  1.0000006298646342e+00  9.9999931581773394e-01  1.0000003308167766e+00  9.9999898573996193e-01  9.9999936513357723e-01  9.9999737467067540e-01  9.9999651703638315e-01  9.9999399059300909e-01  9.9999248561750165e-01  9.9999189769016539e-01  9.9999573416376442e-01  1.0000034910974498e+00  1.0000164569769965e+00  1.0000325501496214e+00  1.0000452520335148e+00  1.0000490569056451e+00  1.0000476378179393e+00  1.0000463504044745e+00  1.0000511044598097e+00  1.0000713455373804e+00  1.0001012420526820e+00  1.0001134089424524e+00  1.0000977230964863e+00  1.0000744152388785e+00  1.0000575946733634e+00  1.0000486363629097e+00  1.0000468564209375e+00  1.0000331504344551e+00  9.9999675347370554e-01  9.9997557339419851e-01  9.9999373311606832e-01  1.0000109999483886e+00  1.0000001408905694e+00  9.9998695684895367e-01  9.9999099179816486e-01  1.0000058923924675e+00  1.0000121774812922e+00  9.9999419944644907e-01  9.9998375027130115e-01  1.0000091442228032e+00  1.0000167022853885e+00  9.9998502165513181e-01  9.9998777096607772e-01  1.0000195885699630e+00  1.0000035773308129e+00  9.9998036188289363e-01  1.0000059192254438e+00  1.0000141525017989e+00  9.9998786228154457e-01  9.9999468775326172e-01  1.0000126442070034e+00  9.9999715760194297e-01  9.9999184066621838e-01  1.0000069492994352e+00  1.0000019199469448e+00  9.9999370400995946e-01  1.0000025689024910e+00  1.0000028529929588e+00  9.9999631606718808e-01  1.0000004717273854e+00  1.0000022186473370e+00  9.9999814157526756e-01  9.9999981195084897e-01  1.0000013769694682e+00  9.9999912186809570e-01  9.9999974631621180e-01  1.0000007598757876e+00  9.9999958866170502e-01  9.9999982593113734e-01  1.0000004041612574e+00  9.9999978092271746e-01  9.9999993465816750e-01  1.0000001717317608e+00  9.9999992449762098e-01  9.9999992337107568e-01  1.0000001535050831e+00  9.9999986324754186e-01  1.0000000890659202e+00  9.9999992706672047e-01  1.0000001031801589e+00  9.9999984531154296e-01  1.0000001960632203e+00  9.9999978625303509e-01  1.0000002135072061e+00  9.9999979205041312e-01  1.0000002046251231e+00  9.9999979744238821e-01  1.0000001960369975e+00  9.9999981969840590e-01  1.0000001548101158e+00  9.9999987694724968e-01  1.0000000902894857e+00  9.9999993888328009e-01  1.0000000382461409e+00  9.9999997807059737e-01  1.0000000122161015e+00  9.9999999492430913e-01  1.0000000053288476e+00  9.9999840588637245e-01  1.0000013828290517e+00  9.9999874561645841e-01  1.0000012641420479e+00  9.9999882480922520e-01  1.0000013760086826e+00  9.9999936513357779e-01  1.0000019997918346e+00  1.0000011720875761e+00  1.0000046953765311e+00  1.0000053801353215e+00  1.0000090309949969e+00  1.0000096575099020e+00  1.0000081942421144e+00  1.0000001133743257e+00  9.9998824812702292e-01  9.9997107322131062e-01  9.9995496393947358e-01  9.9994892572483474e-01  9.9995340329889670e-01  9.9995787333093200e-01  9.9995641159525495e-01  9.9994125784204935e-01  9.9990675107144134e-01  9.9987678074628128e-01  9.9988241070771333e-01  9.9990922507300906e-01  9.9992496766216166e-01  9.9992861863489590e-01  9.9992906994590491e-01  9.9993768073613665e-01  9.9997596069969208e-01  1.0000208468919234e+00  1.0000179625985879e+00  9.9998765786543242e-01  9.9999082992843091e-01  1.0000145842315178e+00  1.0000159816457701e+00  9.9999821541220435e-01  9.9998517052394287e-01  9.9999748813687372e-01  1.0000199493761364e+00  1.0000030423987711e+00  9.9997511852684717e-01  1.0000030283449313e+00  1.0000261849175138e+00  9.9998712491657704e-01  9.9997930134387469e-01  1.0000213258384829e+00  1.0000091273297487e+00  9.9997659943580852e-01  1.0000039682642843e+00  1.0000175934588997e+00  9.9998719272467451e-01  9.9999304846071824e-01  1.0000140657793064e+00  9.9999705224463264e-01  9.9999113235384418e-01  1.0000076880993825e+00  1.0000016335465090e+00  9.9999338949855077e-01  1.0000031961022628e+00  1.0000025003689770e+00  9.9999606830246845e-01  1.0000010218875652e+00  1.0000019468992529e+00  9.9999790967978575e-01  1.0000002359402629e+00  1.0000011989520463e+00  9.9999894835252201e-01  1.0000000179584727e+00  1.0000006748411527e+00  9.9999944088339798e-01  1.0000000421095459e+00  1.0000002829973356e+00  9.9999979093578406e-01  9.9999993299272893e-01  1.0000002662165912e+00  9.9999971603559801e-01  1.0000002018382248e+00  9.9999985166480154e-01  1.0000001807896999e+00  9.9999973012710042e-01  1.0000003548052787e+00  9.9999960144869071e-01  1.0000004031220922e+00  9.9999960884003825e-01  1.0000003810379618e+00  9.9999962466262027e-01  1.0000003649400309e+00  9.9999966029157283e-01  1.0000002963293815e+00  9.9999976040907324e-01  1.0000001787984176e+00  9.9999987694724846e-01  1.0000000781264917e+00  9.9999995415122067e-01  1.0000000247444738e+00  9.9999998708086824e-01  1.0000000051131570e+00  9.9999999490283009e-01  9.9999780697784957e-01  1.0000020746020939e+00  9.9999795875049569e-01  1.0000020715751872e+00  9.9999778195149558e-01  1.0000020897698481e+00  9.9999737467067940e-01  1.0000011720875761e+00  9.9999622761643447e-01  9.9999797197978346e-01  9.9999220010266332e-01  9.9999239630674475e-01  9.9998752518280176e-01  9.9998973471351182e-01  9.9999504121767724e-01  1.0000087151859678e+00  1.0000246269374451e+00  1.0000443721511305e+00  1.0000548252313370e+00  1.0000491242623357e+00  1.0000375507758830e+00  1.0000348931566858e+00  1