<?xml version="1.0"?>
<VTKFile type="UnstructuredGrid"  version="0.1"  >
<UnstructuredGrid>
<Piece  NumberOfPoints="10201" NumberOfCells="20000">
<Points>
<DataArray  type="Float64"  NumberOfComponents="3"  format="ascii">-5 -5 0  -4.9 -5 0  -4.8 -5 0  -4.7 -5 0  -4.6 -5 0  -4.5 -5 0  -4.4 -5 0  -4.3 -5 0  -4.2 -5 0  -4.1 -5 0  -4 -5 0  -3.9 -5 0  -3.8 -5 0  -3.7 -5 0  -3.6 -5 0  -3.5 -5 0  -3.4 -5 0  -3.3 -5 0  -3.2 -5 0  -3.1 -5 0  -3 -5 0  -2.9 -5 0  -2.8 -5 0  -2.7 -5 0  -2.6 -5 0  -2.5 -5 0  -2.4 -5 0  -2.3 -5 0  -2.2 -5 0  -2.1 -5 0  -2 -5 0  -1.9 -5 0  -1.8 -5 0  -1.7 -5 0  -1.6 -5 0  -1.5 -5 0  -1.4 -5 0  -1.3 -5 0  -1.2 -5 0  -1.1 -5 0  -1 -5 0  -0.9000000000000004 -5 0  -0.7999999999999998 -5 0  -0.7000000000000002 -5 0  -0.5999999999999996 -5 0  -0.5 -5 0  -0.4000000000000004 -5 0  -0.2999999999999998 -5 0  -0.2000000000000002 -5 0  -0.09999999999999964 -5 0  0 -5 0  0.09999999999999964 -5 0  0.2000000000000002 -5 0  0.2999999999999998 -5 0  0.4000000000000004 -5 0  0.5 -5 0  0.5999999999999996 -5 0  0.7000000000000002 -5 0  0.7999999999999998 -5 0  0.9000000000000004 -5 0  1 -5 0  1.1 -5 0  1.2 -5 0  1.3 -5 0  1.4 -5 0  1.5 -5 0  1.6 -5 0  1.7 -5 0  1.8 -5 0  1.9 -5 0  2 -5 0  2.1 -5 0  2.2 -5 0  2.3 -5 0  2.4 -5 0  2.5 -5 0  2.6 -5 0  2.7 -5 0  2.8 -5 0  2.9 -5 0  3 -5 0  3.1 -5 0  3.199999999999999 -5 0  3.300000000000001 -5 0  3.4 -5 0  3.5 -5 0  3.6 -5 0  3.699999999999999 -5 0  3.800000000000001 -5 0  3.9 -5 0  4 -5 0  4.1 -5 0  4.199999999999999 -5 0  4.300000000000001 -5 0  4.4 -5 0  4.5 -5 0  4.6 -5 0  4.699999999999999 -5 0  4.800000000000001 -5 0  4.9 -5 0  5 -5 0  -5 -4.9 0  -4.9 -4.9 0  -4.8 -4.9 0  -4.7 -4.9 0  -4.6 -4.9 0  -4.5 -4.9 0  -4.4 -4.9 0  -4.3 -4.9 0  -4.2 -4.9 0  -4.1 -4.9 0  -4 -4.9 0  -3.9 -4.9 0  -3.8 -4.9 0  -3.7 -4.9 0  -3.6 -4.9 0  -3.5 -4.9 0  -3.4 -4.9 0  -3.3 -4.9 0  -3.2 -4.9 0  -3.1 -4.9 0  -3 -4.9 0  -2.9 -4.9 0  -2.8 -4.9 0  -2.7 -4.9 0  -2.6 -4.9 0  -2.5 -4.9 0  -2.4 -4.9 0  -2.3 -4.9 0  -2.2 -4.9 0  -2.1 -4.9 0  -2 -4.9 0  -1.9 -4.9 0  -1.8 -4.9 0  -1.7 -4.9 0  -1.6 -4.9 0  -1.5 -4.9 0  -1.4 -4.9 0  -1.3 -4.9 0  -1.2 -4.9 0  -1.1 -4.9 0  -1 -4.9 0  -0.9000000000000004 -4.9 0  -0.7999999999999998 -4.9 0  -0.7000000000000002 -4.9 0  -0.5999999999999996 -4.9 0  -0.5 -4.9 0  -0.4000000000000004 -4.9 0  -0.2999999999999998 -4.9 0  -0.2000000000000002 -4.9 0  -0.09999999999999964 -4.9 0  0 -4.9 0  0.09999999999999964 -4.9 0  0.2000000000000002 -4.9 0  0.2999999999999998 -4.9 0  0.4000000000000004 -4.9 0  0.5 -4.9 0  0.5999999999999996 -4.9 0  0.7000000000000002 -4.9 0  0.7999999999999998 -4.9 0  0.9000000000000004 -4.9 0  1 -4.9 0  1.1 -4.9 0  1.2 -4.9 0  1.3 -4.9 0  1.4 -4.9 0  1.5 -4.9 0  1.6 -4.9 0  1.7 -4.9 0  1.8 -4.9 0  1.9 -4.9 0  2 -4.9 0  2.1 -4.9 0  2.2 -4.9 0  2.3 -4.9 0  2.4 -4.9 0  2.5 -4.9 0  2.6 -4.9 0  2.7 -4.9 0  2.8 -4.9 0  2.9 -4.9 0  3 -4.9 0  3.1 -4.9 0  3.199999999999999 -4.9 0  3.300000000000001 -4.9 0  3.4 -4.9 0  3.5 -4.9 0  3.6 -4.9 0  3.699999999999999 -4.9 0  3.800000000000001 -4.9 0  3.9 -4.9 0  4 -4.9 0  4.1 -4.9 0  4.199999999999999 -4.9 0  4.300000000000001 -4.9 0  4.4 -4.9 0  4.5 -4.9 0  4.6 -4.9 0  4.699999999999999 -4.9 0  4.800000000000001 -4.9 0  4.9 -4.9 0  5 -4.9 0  -5 -4.8 0  -4.9 -4.8 0  -4.8 -4.8 0  -4.7 -4.8 0  -4.6 -4.8 0  -4.5 -4.8 0  -4.4 -4.8 0  -4.3 -4.8 0  -4.2 -4.8 0  -4.1 -4.8 0  -4 -4.8 0  -3.9 -4.8 0  -3.8 -4.8 0  -3.7 -4.8 0  -3.6 -4.8 0  -3.5 -4.8 0  -3.4 -4.8 0  -3.3 -4.8 0  -3.2 -4.8 0  -3.1 -4.8 0  -3 -4.8 0  -2.9 -4.8 0  -2.8 -4.8 0  -2.7 -4.8 0  -2.6 -4.8 0  -2.5 -4.8 0  -2.4 -4.8 0  -2.3 -4.8 0  -2.2 -4.8 0  -2.1 -4.8 0  -2 -4.8 0  -1.9 -4.8 0  -1.8 -4.8 0  -1.7 -4.8 0  -1.6 -4.8 0  -1.5 -4.8 0  -1.4 -4.8 0  -1.3 -4.8 0  -1.2 -4.8 0  -1.1 -4.8 0  -1 -4.8 0  -0.9000000000000004 -4.8 0  -0.7999999999999998 -4.8 0  -0.7000000000000002 -4.8 0  -0.5999999999999996 -4.8 0  -0.5 -4.8 0  -0.4000000000000004 -4.8 0  -0.2999999999999998 -4.8 0  -0.2000000000000002 -4.8 0  -0.09999999999999964 -4.8 0  0 -4.8 0  0.09999999999999964 -4.8 0  0.2000000000000002 -4.8 0  0.2999999999999998 -4.8 0  0.4000000000000004 -4.8 0  0.5 -4.8 0  0.5999999999999996 -4.8 0  0.7000000000000002 -4.8 0  0.7999999999999998 -4.8 0  0.9000000000000004 -4.8 0  1 -4.8 0  1.1 -4.8 0  1.2 -4.8 0  1.3 -4.8 0  1.4 -4.8 0  1.5 -4.8 0  1.6 -4.8 0  1.7 -4.8 0  1.8 -4.8 0  1.9 -4.8 0  2 -4.8 0  2.1 -4.8 0  2.2 -4.8 0  2.3 -4.8 0  2.4 -4.8 0  2.5 -4.8 0  2.6 -4.8 0  2.7 -4.8 0  2.8 -4.8 0  2.9 -4.8 0  3 -4.8 0  3.1 -4.8 0  3.199999999999999 -4.8 0  3.300000000000001 -4.8 0  3.4 -4.8 0  3.5 -4.8 0  3.6 -4.8 0  3.699999999999999 -4.8 0  3.800000000000001 -4.8 0  3.9 -4.8 0  4 -4.8 0  4.1 -4.8 0  4.199999999999999 -4.8 0  4.300000000000001 -4.8 0  4.4 -4.8 0  4.5 -4.8 0  4.6 -4.8 0  4.699999999999999 -4.8 0  4.800000000000001 -4.8 0  4.9 -4.8 0  5 -4.8 0  -5 -4.7 0  -4.9 -4.7 0  -4.8 -4.7 0  -4.7 -4.7 0  -4.6 -4.7 0  -4.5 -4.7 0  -4.4 -4.7 0  -4.3 -4.7 0  -4.2 -4.7 0  -4.1 -4.7 0  -4 -4.7 0  -3.9 -4.7 0  -3.8 -4.7 0  -3.7 -4.7 0  -3.6 -4.7 0  -3.5 -4.7 0  -3.4 -4.7 0  -3.3 -4.7 0  -3.2 -4.7 0  -3.1 -4.7 0  -3 -4.7 0  -2.9 -4.7 0  -2.8 -4.7 0  -2.7 -4.7 0  -2.6 -4.7 0  -2.5 -4.7 0  -2.4 -4.7 0  -2.3 -4.7 0  -2.2 -4.7 0  -2.1 -4.7 0  -2 -4.7 0  -1.9 -4.7 0  -1.8 -4.7 0  -1.7 -4.7 0  -1.6 -4.7 0  -1.5 -4.7 0  -1.4 -4.7 0  -1.3 -4.7 0  -1.2 -4.7 0  -1.1 -4.7 0  -1 -4.7 0  -0.9000000000000004 -4.7 0  -0.7999999999999998 -4.7 0  -0.7000000000000002 -4.7 0  -0.5999999999999996 -4.7 0  -0.5 -4.7 0  -0.4000000000000004 -4.7 0  -0.2999999999999998 -4.7 0  -0.2000000000000002 -4.7 0  -0.09999999999999964 -4.7 0  0 -4.7 0  0.09999999999999964 -4.7 0  0.2000000000000002 -4.7 0  0.2999999999999998 -4.7 0  0.4000000000000004 -4.7 0  0.5 -4.7 0  0.5999999999999996 -4.7 0  0.7000000000000002 -4.7 0  0.7999999999999998 -4.7 0  0.9000000000000004 -4.7 0  1 -4.7 0  1.1 -4.7 0  1.2 -4.7 0  1.3 -4.7 0  1.4 -4.7 0  1.5 -4.7 0  1.6 -4.7 0  1.7 -4.7 0  1.8 -4.7 0  1.9 -4.7 0  2 -4.7 0  2.1 -4.7 0  2.2 -4.7 0  2.3 -4.7 0  2.4 -4.7 0  2.5 -4.7 0  2.6 -4.7 0  2.7 -4.7 0  2.8 -4.7 0  2.9 -4.7 0  3 -4.7 0  3.1 -4.7 0  3.199999999999999 -4.7 0  3.300000000000001 -4.7 0  3.4 -4.7 0  3.5 -4.7 0  3.6 -4.7 0  3.699999999999999 -4.7 0  3.800000000000001 -4.7 0  3.9 -4.7 0  4 -4.7 0  4.1 -4.7 0  4.199999999999999 -4.7 0  4.300000000000001 -4.7 0  4.4 -4.7 0  4.5 -4.7 0  4.6 -4.7 0  4.699999999999999 -4.7 0  4.800000000000001 -4.7 0  4.9 -4.7 0  5 -4.7 0  -5 -4.6 0  -4.9 -4.6 0  -4.8 -4.6 0  -4.7 -4.6 0  -4.6 -4.6 0  -4.5 -4.6 0  -4.4 -4.6 0  -4.3 -4.6 0  -4.2 -4.6 0  -4.1 -4.6 0  -4 -4.6 0  -3.9 -4.6 0  -3.8 -4.6 0  -3.7 -4.6 0  -3.6 -4.6 0  -3.5 -4.6 0  -3.4 -4.6 0  -3.3 -4.6 0  -3.2 -4.6 0  -3.1 -4.6 0  -3 -4.6 0  -2.9 -4.6 0  -2.8 -4.6 0  -2.7 -4.6 0  -2.6 -4.6 0  -2.5 -4.6 0  -2.4 -4.6 0  -2.3 -4.6 0  -2.2 -4.6 0  -2.1 -4.6 0  -2 -4.6 0  -1.9 -4.6 0  -1.8 -4.6 0  -1.7 -4.6 0  -1.6 -4.6 0  -1.5 -4.6 0  -1.4 -4.6 0  -1.3 -4.6 0  -1.2 -4.6 0  -1.1 -4.6 0  -1 -4.6 0  -0.9000000000000004 -4.6 0  -0.7999999999999998 -4.6 0  -0.7000000000000002 -4.6 0  -0.5999999999999996 -4.6 0  -0.5 -4.6 0  -0.4000000000000004 -4.6 0  -0.2999999999999998 -4.6 0  -0.2000000000000002 -4.6 0  -0.09999999999999964 -4.6 0  0 -4.6 0  0.09999999999999964 -4.6 0  0.2000000000000002 -4.6 0  0.2999999999999998 -4.6 0  0.4000000000000004 -4.6 0  0.5 -4.6 0  0.5999999999999996 -4.6 0  0.7000000000000002 -4.6 0  0.7999999999999998 -4.6 0  0.9000000000000004 -4.6 0  1 -4.6 0  1.1 -4.6 0  1.2 -4.6 0  1.3 -4.6 0  1.4 -4.6 0  1.5 -4.6 0  1.6 -4.6 0  1.7 -4.6 0  1.8 -4.6 0  1.9 -4.6 0  2 -4.6 0  2.1 -4.6 0  2.2 -4.6 0  2.3 -4.6 0  2.4 -4.6 0  2.5 -4.6 0  2.6 -4.6 0  2.7 -4.6 0  2.8 -4.6 0  2.9 -4.6 0  3 -4.6 0  3.1 -4.6 0  3.199999999999999 -4.6 0  3.300000000000001 -4.6 0  3.4 -4.6 0  3.5 -4.6 0  3.6 -4.6 0  3.699999999999999 -4.6 0  3.800000000000001 -4.6 0  3.9 -4.6 0  4 -4.6 0  4.1 -4.6 0  4.199999999999999 -4.6 0  4.300000000000001 -4.6 0  4.4 -4.6 0  4.5 -4.6 0  4.6 -4.6 0  4.699999999999999 -4.6 0  4.800000000000001 -4.6 0  4.9 -4.6 0  5 -4.6 0  -5 -4.5 0  -4.9 -4.5 0  -4.8 -4.5 0  -4.7 -4.5 0  -4.6 -4.5 0  -4.5 -4.5 0  -4.4 -4.5 0  -4.3 -4.5 0  -4.2 -4.5 0  -4.1 -4.5 0  -4 -4.5 0  -3.9 -4.5 0  -3.8 -4.5 0  -3.7 -4.5 0  -3.6 -4.5 0  -3.5 -4.5 0  -3.4 -4.5 0  -3.3 -4.5 0  -3.2 -4.5 0  -3.1 -4.5 0  -3 -4.5 0  -2.9 -4.5 0  -2.8 -4.5 0  -2.7 -4.5 0  -2.6 -4.5 0  -2.5 -4.5 0  -2.4 -4.5 0  -2.3 -4.5 0  -2.2 -4.5 0  -2.1 -4.5 0  -2 -4.5 0  -1.9 -4.5 0  -1.8 -4.5 0  -1.7 -4.5 0  -1.6 -4.5 0  -1.5 -4.5 0  -1.4 -4.5 0  -1.3 -4.5 0  -1.2 -4.5 0  -1.1 -4.5 0  -1 -4.5 0  -0.9000000000000004 -4.5 0  -0.7999999999999998 -4.5 0  -0.7000000000000002 -4.5 0  -0.5999999999999996 -4.5 0  -0.5 -4.5 0  -0.4000000000000004 -4.5 0  -0.2999999999999998 -4.5 0  -0.2000000000000002 -4.5 0  -0.09999999999999964 -4.5 0  0 -4.5 0  0.09999999999999964 -4.5 0  0.2000000000000002 -4.5 0  0.2999999999999998 -4.5 0  0.4000000000000004 -4.5 0  0.5 -4.5 0  0.5999999999999996 -4.5 0  0.7000000000000002 -4.5 0  0.7999999999999998 -4.5 0  0.9000000000000004 -4.5 0  1 -4.5 0  1.1 -4.5 0  1.2 -4.5 0  1.3 -4.5 0  1.4 -4.5 0  1.5 -4.5 0  1.6 -4.5 0  1.7 -4.5 0  1.8 -4.5 0  1.9 -4.5 0  2 -4.5 0  2.1 -4.5 0  2.2 -4.5 0  2.3 -4.5 0  2.4 -4.5 0  2.5 -4.5 0  2.6 -4.5 0  2.7 -4.5 0  2.8 -4.5 0  2.9 -4.5 0  3 -4.5 0  3.1 -4.5 0  3.199999999999999 -4.5 0  3.300000000000001 -4.5 0  3.4 -4.5 0  3.5 -4.5 0  3.6 -4.5 0  3.699999999999999 -4.5 0  3.800000000000001 -4.5 0  3.9 -4.5 0  4 -4.5 0  4.1 -4.5 0  4.199999999999999 -4.5 0  4.300000000000001 -4.5 0  4.4 -4.5 0  4.5 -4.5 0  4.6 -4.5 0  4.699999999999999 -4.5 0  4.800000000000001 -4.5 0  4.9 -4.5 0  5 -4.5 0  -5 -4.4 0  -4.9 -4.4 0  -4.8 -4.4 0  -4.7 -4.4 0  -4.6 -4.4 0  -4.5 -4.4 0  -4.4 -4.4 0  -4.3 -4.4 0  -4.2 -4.4 0  -4.1 -4.4 0  -4 -4.4 0  -3.9 -4.4 0  -3.8 -4.4 0  -3.7 -4.4 0  -3.6 -4.4 0  -3.5 -4.4 0  -3.4 -4.4 0  -3.3 -4.4 0  -3.2 -4.4 0  -3.1 -4.4 0  -3 -4.4 0  -2.9 -4.4 0  -2.8 -4.4 0  -2.7 -4.4 0  -2.6 -4.4 0  -2.5 -4.4 0  -2.4 -4.4 0  -2.3 -4.4 0  -2.2 -4.4 0  -2.1 -4.4 0  -2 -4.4 0  -1.9 -4.4 0  -1.8 -4.
[...]
<PointData  Scalars="r"> 
<DataArray  type="Float64"  Name="r"  format="ascii">9.9999999999971534e-01  1.0000000000000939e+00  1.0000000000003504e+00  9.9999999999943356e-01  9.9999999999964517e-01  1.0000000000007998e+00  9.9999999999478595e-01  9.9999999997926203e-01  9.9999999994326172e-01  9.9999999982793653e-01  9.9999999959929764e-01  9.9999999941713380e-01  9.9999999991315680e-01  1.0000000031467031e+00  1.0000000142341807e+00  1.0000000419581923e+00  1.0000000967959519e+00  1.0000001848616553e+00  1.0000002947892463e+00  1.0000003830204880e+00  1.0000003796910599e+00  1.0000002295523067e+00  9.9999994727875374e-01  9.9999964737098079e-01  9.9999950569611262e-01  9.9999962355137484e-01  9.9999988530945227e-01  1.0000000336432173e+00  9.9999997307363298e-01  9.9999989177079374e-01  9.9999995898060134e-01  1.0000000622100527e+00  1.0000000348541762e+00  9.9999995486074877e-01  9.9999997255649997e-01  1.0000000326652598e+00  1.0000000175681318e+00  9.9999997570597210e-01  9.9999999111272952e-01  1.0000000177555317e+00  1.0000000024807738e+00  9.9999998785710464e-01  1.0000000014176293e+00  1.0000000073399617e+00  9.9999999691002883e-01  9.9999999643219661e-01  1.0000000031373333e+00  1.0000000010207124e+00  9.9999999770764580e-01  1.0000000003274447e+00  1.0000000012209556e+00  9.9999999925969196e-01  9.9999999963123298e-01  1.0000000006089800e+00  9.9999999990695898e-01  9.9999999969885101e-01  1.0000000002145955e+00  1.0000000000523457e+00  9.9999999984901777e-01  1.0000000000588103e+00  1.0000000000492493e+00  9.9999999993691069e-01  1.0000000000123863e+00  1.0000000000269473e+00  9.9999999997539080e-01  1.0000000000017488e+00  1.0000000000123135e+00  9.9999999999039468e-01  1.0000000000001430e+00  1.0000000000051439e+00  9.9999999999609346e-01  1.0000000000001563e+00  1.0000000000020102e+00  9.9999999999833256e-01  1.0000000000002358e+00  1.0000000000007203e+00  9.9999999999927713e-01  1.0000000000002192e+00  1.0000000000002105e+00  9.9999999999969358e-01  1.0000000000001530e+00  1.0000000000000295e+00  9.9999999999988431e-01  1.0000000000000919e+00  9.9999999999997924e-01  9.9999999999996936e-01  1.0000000000000460e+00  9.9999999999997402e-01  9.9999999999999822e-01  1.0000000000000187e+00  9.9999999999997602e-01  1.0000000000000169e+00  9.9999999999999190e-01  9.9999999999999389e-01  1.0000000000000115e+00  9.9999999999998912e-01  1.0000000000000082e+00  9.9999999999998967e-01  1.0000000000000095e+00  9.9999999999999589e-01  1.0000000000000064e+00  1.0000000000000966e+00  1.0000000000002394e+00  9.9999999999957756e-01  9.9999999999999167e-01  1.0000000000009917e+00  9.9999999999941647e-01  1.0000000000010549e+00  1.0000000000148979e+00  1.0000000000424070e+00  1.0000000001238094e+00  1.0000000003358855e+00  1.0000000006195795e+00  1.0000000005464111e+00  9.9999999869881462e-01  9.9999999106118365e-01  9.9999996955212189e-01  9.9999992300488760e-01  9.9999984177429668e-01  9.9999972835620166e-01  9.9999961428624651e-01  9.9999956649540889e-01  9.9999965808521551e-01  9.9999990989754606e-01  1.0000002439550804e+00  1.0000004908991462e+00  1.0000004888841361e+00  1.0000002512261748e+00  1.0000000133923150e+00  9.9999998961547465e-01  1.0000000961278681e+00  1.0000000921914434e+00  9.9999996878210962e-01  9.9999993304328716e-01  1.0000000202593156e+00  1.0000000517532015e+00  9.9999998549685010e-01  9.9999996365714772e-01  1.0000000132180282e+00  1.0000000235382196e+00  9.9999998741161134e-01  9.9999998657379163e-01  1.0000000111834184e+00  1.0000000060177581e+00  9.9999999119991712e-01  9.9999999877812829e-01  1.0000000059047138e+00  9.9999999873754997e-01  9.9999999683749330e-01  1.0000000019866573e+00  1.0000000010965866e+00  9.9999999834701125e-01  1.0000000000873035e+00  1.0000000009304870e+00  9.9999999950019491e-01  9.9999999971096887e-01  1.0000000004372378e+00  9.9999999993176691e-01  9.9999999978879983e-01  1.0000000001583587e+00  1.0000000000266720e+00  9.9999999989524757e-01  1.0000000000493889e+00  1.0000000000272160e+00  9.9999999995511313e-01  1.0000000000145113e+00  1.0000000000149631e+00  9.9999999998174860e-01  1.0000000000045992e+00  1.0000000000066962e+00  9.9999999999260436e-01  1.0000000000018443e+00  1.0000000000026357e+00  9.9999999999696354e-01  1.0000000000009510e+00  1.0000000000008982e+00  9.9999999999875211e-01  1.0000000000005389e+00  1.0000000000002249e+00  9.9999999999950651e-01  1.0000000000003066e+00  1.0000000000000009e+00  9.9999999999983025e-01  1.0000000000001574e+00  9.9999999999994782e-01  9.9999999999995892e-01  1.0000000000000719e+00  9.9999999999995548e-01  1.0000000000000051e+00  1.0000000000000293e+00  9.9999999999996592e-01  1.0000000000000222e+00  9.9999999999999711e-01  9.9999999999999045e-01  1.0000000000000207e+00  9.9999999999997891e-01  1.0000000000000171e+00  9.9999999999998501e-01  1.0000000000000104e+00  9.9999999999999534e-01  1.0000000000000038e+00  1.0000000000000016e+00  1.0000000000003526e+00  9.9999999999957556e-01  1.0000000000000102e+00  1.0000000000007965e+00  9.9999999999914213e-01  9.9999999999893074e-01  1.0000000000017761e+00  9.9999999999183931e-01  9.9999999996201450e-01  9.9999999989900523e-01  9.9999999970188691e-01  9.9999999930176431e-01  9.9999999898368841e-01  9.9999999980089704e-01  1.0000000049862734e+00  1.0000000224534231e+00  1.0000000653395482e+00  1.0000001480824205e+00  1.0000002770830940e+00  1.0000004324101728e+00  1.0000005484592900e+00  1.0000005271148200e+00  1.0000003015084309e+00  9.9999990924464377e-01  9.9999951604361437e-01  9.9999934993955675e-01  9.9999952305453566e-01  9.9999985995451734e-01  1.0000000236824371e+00  9.9999992676589866e-01  9.9999984601232450e-01  9.9999996941794567e-01  1.0000000956530917e+00  1.0000000266713067e+00  9.9999992584234942e-01  9.9999997863589596e-01  1.0000000548709165e+00  1.0000000110135241e+00  9.9999996003001468e-01  9.9999999839434450e-01  1.0000000275233796e+00  9.9999999518857485e-01  9.9999998298271553e-01  1.0000000077285547e+00  1.0000000086559830e+00  9.9999999231799808e-01  9.9999999720928712e-01  1.0000000057924316e+00  9.9999999946551754e-01  9.9999999669389450e-01  1.0000000017421082e+00  1.0000000011942560e+00  9.9999999840799392e-01  1.0000000000715079e+00  1.0000000008942511e+00  9.9999999949184237e-01  9.9999999975799259e-01  1.0000000004258849e+00  9.9999999989446242e-01  9.9999999982037335e-01  1.0000000001680460e+00  9.9999999999697431e-01  9.9999999990780353e-01  1.0000000000615590e+00  1.0000000000103910e+00  9.9999999995881350e-01  1.0000000000228053e+00  1.0000000000065887e+00  9.9999999998268529e-01  1.0000000000091211e+00  1.0000000000026665e+00  9.9999999999295841e-01  1.0000000000040203e+00  1.0000000000006806e+00  9.9999999999724465e-01  1.0000000000018900e+00  9.9999999999993860e-01  9.9999999999900746e-01  1.0000000000008935e+00  9.9999999999976419e-01  9.9999999999971256e-01  1.0000000000003968e+00  9.9999999999979394e-01  9.9999999999996758e-01  1.0000000000001525e+00  9.9999999999987543e-01  1.0000000000000335e+00  1.0000000000000517e+00  9.9999999999991485e-01  1.0000000000000639e+00  9.9999999999997935e-01  9.9999999999997602e-01  1.0000000000000511e+00  9.9999999999993772e-01  1.0000000000000573e+00  9.9999999999995315e-01  1.0000000000000335e+00  9.9999999999997902e-01  1.0000000000000142e+00  9.9999999999999722e-01  1.0000000000000084e+00  9.9999999999943545e-01  9.9999999999999156e-01  1.0000000000007985e+00  9.9999999999917932e-01  9.9999999999911271e-01  1.0000000000028113e+00  9.9999999999955369e-01  9.9999999999901068e-01  1.0000000000323539e+00  1.0000000001003122e+00  1.0000000002746834e+00  1.0000000007645420e+00  1.0000000014981898e+00  1.0000000015771509e+00  9.9999999827480013e-01  9.9999998388430422e-01  9.9999994260446412e-01  9.9999985335571251e-01  9.9999969981490688e-01  9.9999948926176807e-01  9.9999928247686398e-01  9.9999920428792033e-01  9.9999938292100143e-01  9.9999983811965498e-01  1.0000004142598136e+00  1.0000008200137511e+00  1.0000007990330351e+00  1.0000003972410005e+00  1.0000000275978960e+00  1.0000000323678779e+00  1.0000002129805834e+00  1.0000001495922193e+00  9.9999990741472833e-01  9.9999988795965755e-01  1.0000000719982327e+00  1.0000000901893120e+00  9.9999994423195793e-01  9.9999993767118744e-01  1.0000000470754304e+00  1.0000000372734625e+00  9.9999996059287133e-01  9.9999998283891223e-01  1.0000000306324288e+00  1.0000000031440284e+00  9.9999997906225802e-01  1.0000000046782875e+00  1.0000000117191477e+00  9.9999999275146156e-01  9.9999999552931107e-01  1.0000000063012324e+00  1.0000000000097771e+00  9.9999999618629476e-01  1.0000000017880362e+00  1.0000000013932704e+00  9.9999999823801378e-01  1.0000000001083775e+00  1.0000000009671106e+00  9.9999999939660755e-01  9.9999999979086052e-01  1.0000000004690839e+00  9.9999999983407328e-01  9.9999999983748500e-01  1.0000000001974443e+00  9.9999999996232525e-01  9.9999999991454169e-01  1.0000000000794429e+00  9.9999999999216893e-01  9.9999999996142652e-01  1.0000000000323741e+00  9.9999999999738098e-01  9.9999999998407274e-01  1.0000000000137008e+00  9.9999999999806821e-01  9.9999999999396649e-01  1.0000000000059686e+00  9.9999999999841005e-01  9.9999999999802158e-01  1.0000000000025788e+00  9.9999999999885547e-01  9.9999999999956535e-01  1.0000000000010418e+00  9.9999999999929245e-01  1.0000000000000688e+00  1.0000000000003444e+00  9.9999999999963418e-01  1.0000000000001472e+00  1.0000000000000944e+00  9.9999999999979272e-01  1.0000000000001756e+00  9.9999999999994382e-01  9.9999999999992717e-01  1.0000000000001659e+00  9.9999999999980071e-01  1.0000000000001898e+00  9.9999999999984823e-01  1.0000000000001097e+00  9.9999999999993139e-01  1.0000000000000404e+00  9.9999999999998279e-01  1.0000000000000073e+00  9.9999999999999312e-01  9.9999999999964184e-01  1.0000000000009908e+00  9.9999999999914302e-01  9.9999999999911204e-01  1.0000000000028284e+00  9.9999999999906219e-01  9.9999999999460321e-01  1.0000000000057325e+00  9.9999999998671207e-01  9.9999999989696009e-01  9.9999999973017417e-01  9.9999999923168914e-01  9.9999999809644602e-01  9.9999999695522146e-01  9.9999999824186270e-01  1.0000000089174479e+00  1.0000000465221879e+00  1.0000001403957373e+00  1.0000003205200927e+00  1.0000005965536378e+00  1.0000009222388180e+00  1.0000011559910462e+00  1.0000010929465459e+00  1.0000006129508892e+00  9.9999982776257379e-01  9.9999908347200350e-01  9.9999879908033928e-01  9.9999914773427456e-01  9.9999976246745859e-01  1.0000000025739202e+00  9.9999976912075117e-01  9.9999966521359485e-01  9.9999999075988033e-01  1.0000002226001425e+00  1.0000000076314888e+00  9.9999981665624038e-01  9.9999999416868846e-01  1.0000001380463805e+00  9.9999999020575758e-01  9.9999990149528595e-01  1.0000000240980909e+00  1.0000000635997024e+00  9.9999996840582372e-01  9.9999996558198823e-01  1.0000000310532247e+00  1.0000000125953219e+00  9.9999997563235743e-01  1.0000000009221586e+00  1.0000000149891324e+00  9.9999999325857969e-01  9.9999999367129400e-01  1.0000000069807167e+00  1.0000000005357697e+00  9.9999999554743380e-01  1.0000000019486657e+00  1.0000000016042883e+00  9.9999999798242245e-01  1.0000000001977036e+00  1.0000000010551868e+00  9.9999999925852046e-01  9.9999999984774157e-01  1.0000000005185399e+00  9.9999999975366571e-01  9.9999999986843746e-01  1.0000000002273139e+00  9.9999999991778887e-01  9.9999999993030964e-01  1.0000000000958513e+00  9.9999999996885358e-01  9.9999999996982880e-01  1.0000000000402205e+00  9.9999999998566624e-01  9.9999999998893974e-01  1.0000000000168332e+00  9.9999999999241507e-01  9.9999999999692224e-01  1.0000000000068443e+00  9.9999999999583622e-01  9.9999999999979661e-01  1.0000000000025437e+00  9.9999999999780342e-01  1.0000000000005815e+00  1.0000000000007130e+00  9.9999999999899902e-01  1.0000000000005216e+00  1.0000000000001312e+00  9.9999999999950284e-01  1.0000000000004596e+00  9.9999999999985323e-01  9.9999999999978084e-01  1.0000000000004885e+00  9.9999999999939992e-01  1.0000000000005733e+00  9.9999999999953437e-01  1.0000000000003368e+00  9.9999999999978284e-01  1.0000000000001268e+00  9.9999999999993183e-01  1.0000000000000320e+00  9.9999999999998745e-01  1.0000000000000113e+00  1.0000000000007976e+00  9.9999999999941536e-01  9.9999999999893097e-01  1.0000000000028122e+00  9.9999999999906530e-01  9.9999999999439493e-01  1.0000000000080327e+00  1.0000000000039351e+00  9.9999999998793532e-01  1.0000000000780103e+00  1.0000000002909082e+00  1.0000000007457908e+00  1.0000000021039988e+00  1.0000000044578470e+00  1.0000000056164362e+00  9.9999999943254103e-01  9.9999996877662156e-01  9.9999987689761616e-01  9.9999967545511248e-01  9.9999933138864971e-01  9.9999886588796927e-01  9.9999841511439758e-01  9.9999825477161952e-01  9.9999865598084547e-01  9.9999962393266872e-01  1.0000007910647815e+00  1.0000015725545091e+00  1.0000015081109210e+00  1.0000007313129302e+00  1.0000000756662444e+00  1.0000001792437045e+00  1.0000005356809609e+00  1.0000002839257540e+00  9.9999973076629245e-01  9.9999978720643212e-01  1.0000002293191330e+00  1.0000001766851216e+00  9.9999981621233991e-01  9.9999988396115391e-01  1.0000001513426382e+00  1.0000000584803841e+00  9.9999988076574509e-01  9.9999998719217642e-01  1.0000000849981179e+00  9.9999998383460853e-01  9.9999994876051146e-01  1.0000000281562615e+00  1.0000000227279571e+00  9.9999997318911038e-01  9.9999999673180262e-01  1.0000000181226236e+00  9.9999999379195947e-01  9.9999999186832578e-01  1.0000000077659004e+00  1.0000000009113228e+00  9.9999999489072844e-01  1.0000000022565381e+00  1.0000000017277533e+00  9.9999999767868131e-01  1.0000000003848595e+00  1.0000000011033714e+00  9.9999999908425474e-01  9.9999999996030009e-01  1.0000000005473551e+00  9.9999999965266961e-01  9.9999999993065281e-01  1.0000000002445224e+00  9.9999999986292487e-01  9.9999999996362243e-01  1.0000000001039173e+00  9.9999999994103972e-01  9.9999999998780797e-01  1.0000000000425622e+00  9.9999999997250599e-01  9.9999999999875733e-01  1.0000000000164391e+00  9.9999999998672151e-01  1.0000000000022151e+00  1.0000000000055846e+00  9.9999999999371014e-01  1.0000000000025713e+00  1.0000000000012024e+00  9.9999999999742595e-01  1.0000000000016898e+00  9.9999999999998146e-01  9.9999999999891087e-01  1.0000000000011293e+00  9.9999999999963640e-01  9.9999999999935685e-01  1.0000000000014182e+00  9.9999999999823441e-01  1.0000000000017140e+00  9.9999999999858902e-01  1.0000000000010312e+00  9.9999999999932521e-01  1.0000000000004008e+00  9.9999999999978328e-01  1.0000000000001081e+00  9.9999999999995404e-01  1.0000000000000178e+00  9.9999999999999056e-01  9.9999999999478417e-01  1.0000000000010567e+00  1.0000000000017788e+00  9.9999999999955314e-01  9.9999999999460454e-01  1.0000000000080318e+00  1.0000000000043263e+00  9.9999999997753430e-01  1.0000000000130174e+00  9.9999999999007572e-01  9.9999999971319664e-01  9.9999999921979443e-01  9.9999999790200933e-01  9.9999999452683042e-01  9.9999999031240661e-01  9.9999999109601878e-01  1.0000000119867432e+00  1.0000000925969155e+00  1.0000003018107326e+00  1.0000007063105238e+00  1.0000013204397489e+00  1.0000020383393045e+00  1.0000025493060558e+00  1.0000024050749772e+00  1.0000013722186505e+00  9.9999975283312970e-01  9.9999828746859998e-01  9.9999775370772148e-01  9.9999842026563690e-01  9.9999954386192913e-01  9.9999988204799406e-01  9.9999934649042577e-01  9.9999925757959951e-01  1.0000000844790968e+00  1.0000005085431103e+00  9.9999990791367321e-01  9.9999956000941581e-01  1.0000000816518084e+00  1.0000003322899742e+00  9.9999989618210072e-01  9.9999977104465942e-01  1.0000001205326630e+00  1.0000001346083376e+00  9.9999988087128011e-01  9.9999994244013168e-01  1.0000000984559683e+00  1.0000000044184256e+00  9.9999993401484188e-01  1.0000000229227275e+00  1.0000000325756484e+00  9.9999997140746233e-01  9.9999999272290596e-01  1.0000000210939997e+00  9.9999999400830386e-01  9.9999999030390474e-01  1.0000000087567993e+00  1.0000000009637575e+00  9.9999999427192543e-01  1.0000000027801141e+00  1.0000000016752972e+00  9.9999999735157274e-01  1.0000000007090555e+00  1.0000000010623198e+00  9.9999999888860869e-01  1.0000000001496949e+00  1.0000000005271361e+00  9.9999999954141194e-01  1.0000000000344373e+00  1.0000000002327929e+00  9.9999999980540311e-01  1.0000000000186133e+00  1.0000000000946005e+00  9.9999999991428423e-01  1.0000000000163634e+00  1.0000000000346621e+00  9.9999999996169320e-01  1.0000000000131306e+00  1.0000000000103568e+00  9.9999999998326450e-01  1.0000000000092597e+00  1.0000000000010356e+00  9.9999999999379785e-01  1.0000000000051121e+00  9.9999999999890732e-01  9.9999999999792344e-01  1.0000000000025946e+00  9.9999999999918998e-01  9.9999999999815148e-01  1.0000000000040439e+00  9.9999999999490119e-01  1.0000000000050238e+00  9.9999999999579592e-01  1.0000000000031022e+00  9.9999999999794664e-01  1.0000000000012341e+00  9.9999999999932665e-01  1.0000000000003353e+00  9.9999999999984979e-01  1.0000000000000582e+00  9.9999999999997924e-01  1.0000000000000138e+00  9.9999999997925848e-01  1.0000000000148990e+00  9.9999999999184064e-01  9.9999999999901112e-01  1.0000000000057321e+00  1.0000000000039340e+00  9.9999999997753575e-01  1.0000000000141367e+00  1.0000000000344147e+00  9.9999999994750688e-01  1.0000000001705154e+00  1.0000000008555505e+00  1.0000000020980773e+00  1.0000000058258096e+00  1.0000000133073694e+00  1.0000000194001528e+00  1.0000000103274498e+00  9.9999994966315775e-01  9.9999975362704840e-01  9.9999931059891745e-01  9.9999855409214322e-01  9.9999754094981208e-01  9.9999656361401612e-01  9.9999621436144648e-01  9.9999706516731313e-01  9.9999905642313047e-01  1.0000013439261148e+00  1.0000028060456092e+00  1.0000026917925369e+00  1.0000013173103954e+00  1.0000002499346932e+00  1.0000006257332699e+00  1.0000012736057238e+00  1.0000005052592784e+00  9.9999930527133185e-01  9.9999964613186787e-01  1.0000006377978596e+00  1.0000002989111481e+00  9.9999947718792714e-01  9.9999983112688773e-01  1.0000004228267263e+00  1.0000000430534972e+00  9.9999968420293839e-01  1.0000000512937848e+00  1.0000002050083996e+00  9.9999990008394923e-01  9.9999989627738983e-01  1.0000001043262818e+00  1.0000000269527756e+00  9.9999992157165796e-01  1.0000000170235082e+00  1.0000000415985000e+00  9.9999996953891113e-01  9.9999998948885394e-01  1.0000000240340907e+00  9.9999999351498836e-01  9.9999998914769905e-01  1.0000000100548903e+00  1.0000000005170064e+00  9.9999999377482451e-01  1.0000000035614538e+00  1.0000000013503463e+00  9.9999999705960840e-01  1.0000000011873176e+00  1.0000000008734815e+00  9.9999999871223533e-01  1.0000000004216694e+00  1.0000000004234051e+00  9.9999999944704954e-01  1.0000000001794842e+00  1.0000000001733602e+00  9.9999999976266629e-01  1.0000000000922136e+00  1.0000000000586837e+00  9.9999999989932475e-01  1.0000000000516494e+00  1.0000000000129854e+00  9.9999999995892797e-01  1.0000000000294322e+00  9.9999999999670097e-01  9.9999999998625355e-01  1.0000000000145721e+00  9.9999999999434042e-01  9.9999999999702494e-01  1.0000000000054132e+00  9.9999999999846167e-01  9.9999999999473943e-01  1.0000000000112834e+00  9.9999999998558586e-01  1.0000000000144222e+00  9.9999999998775180e-01  1.0000000000091540e+00  9.9999999999386813e-01  1.0000000000037215e+00  9.9999999999794731e-01  1.0000000000010287e+00  9.9999999999953304e-01  1.0000000000001894e+00  9.9999999999993550e-01  1.0000000000000211e+00  9.9999999999999378e-01  9.9999999994326150e-01  1.0000000000424059e+00  9.9999999996201561e-01  1.0000000000323539e+00  9.9999999998671218e-01  9.9999999998793521e-01  1.0000000000130198e+00  1.0000000000344127e+00  9.9999999993249788e-01  9.9999999999411826e-01  1.0000000000573959e+00  9.9999999923070326e-01  9.9999999770014891e-01  9.9999999423350994e-01  9.9999998452752881e-01  9.9999996995507912e-01  9.9999996450941142e-01  9.9999999950028040e-01  1.0000001591965502e+00  1.0000006009633255e+00  1.0000014713825116e+00  1.0000027828271214e+00  1