<?xml version="1.0"?>
<VTKFile type="UnstructuredGrid"  version="0.1"  >
<UnstructuredGrid>
<Piece  NumberOfPoints="10201" NumberOfCells="20000">
<Points>
<DataArray  type="Float64"  NumberOfComponents="3"  format="ascii">-5 -5 0  -4.9 -5 0  -4.8 -5 0  -4.7 -5 0  -4.6 -5 0  -4.5 -5 0  -4.4 -5 0  -4.3 -5 0  -4.2 -5 0  -4.1 -5 0  -4 -5 0  -3.9 -5 0  -3.8 -5 0  -3.7 -5 0  -3.6 -5 0  -3.5 -5 0  -3.4 -5 0  -3.3 -5 0  -3.2 -5 0  -3.1 -5 0  -3 -5 0  -2.9 -5 0  -2.8 -5 0  -2.7 -5 0  -2.6 -5 0  -2.5 -5 0  -2.4 -5 0  -2.3 -5 0  -2.2 -5 0  -2.1 -5 0  -2 -5 0  -1.9 -5 0  -1.8 -5 0  -1.7 -5 0  -1.6 -5 0  -1.5 -5 0  -1.4 -5 0  -1.3 -5 0  -1.2 -5 0  -1.1 -5 0  -1 -5 0  -0.9000000000000004 -5 0  -0.7999999999999998 -5 0  -0.7000000000000002 -5 0  -0.5999999999999996 -5 0  -0.5 -5 0  -0.4000000000000004 -5 0  -0.2999999999999998 -5 0  -0.2000000000000002 -5 0  -0.09999999999999964 -5 0  0 -5 0  0.09999999999999964 -5 0  0.2000000000000002 -5 0  0.2999999999999998 -5 0  0.4000000000000004 -5 0  0.5 -5 0  0.5999999999999996 -5 0  0.7000000000000002 -5 0  0.7999999999999998 -5 0  0.9000000000000004 -5 0  1 -5 0  1.1 -5 0  1.2 -5 0  1.3 -5 0  1.4 -5 0  1.5 -5 0  1.6 -5 0  1.7 -5 0  1.8 -5 0  1.9 -5 0  2 -5 0  2.1 -5 0  2.2 -5 0  2.3 -5 0  2.4 -5 0  2.5 -5 0  2.6 -5 0  2.7 -5 0  2.8 -5 0  2.9 -5 0  3 -5 0  3.1 -5 0  3.199999999999999 -5 0  3.300000000000001 -5 0  3.4 -5 0  3.5 -5 0  3.6 -5 0  3.699999999999999 -5 0  3.800000000000001 -5 0  3.9 -5 0  4 -5 0  4.1 -5 0  4.199999999999999 -5 0  4.300000000000001 -5 0  4.4 -5 0  4.5 -5 0  4.6 -5 0  4.699999999999999 -5 0  4.800000000000001 -5 0  4.9 -5 0  5 -5 0  -5 -4.9 0  -4.9 -4.9 0  -4.8 -4.9 0  -4.7 -4.9 0  -4.6 -4.9 0  -4.5 -4.9 0  -4.4 -4.9 0  -4.3 -4.9 0  -4.2 -4.9 0  -4.1 -4.9 0  -4 -4.9 0  -3.9 -4.9 0  -3.8 -4.9 0  -3.7 -4.9 0  -3.6 -4.9 0  -3.5 -4.9 0  -3.4 -4.9 0  -3.3 -4.9 0  -3.2 -4.9 0  -3.1 -4.9 0  -3 -4.9 0  -2.9 -4.9 0  -2.8 -4.9 0  -2.7 -4.9 0  -2.6 -4.9 0  -2.5 -4.9 0  -2.4 -4.9 0  -2.3 -4.9 0  -2.2 -4.9 0  -2.1 -4.9 0  -2 -4.9 0  -1.9 -4.9 0  -1.8 -4.9 0  -1.7 -4.9 0  -1.6 -4.9 0  -1.5 -4.9 0  -1.4 -4.9 0  -1.3 -4.9 0  -1.2 -4.9 0  -1.1 -4.9 0  -1 -4.9 0  -0.9000000000000004 -4.9 0  -0.7999999999999998 -4.9 0  -0.7000000000000002 -4.9 0  -0.5999999999999996 -4.9 0  -0.5 -4.9 0  -0.4000000000000004 -4.9 0  -0.2999999999999998 -4.9 0  -0.2000000000000002 -4.9 0  -0.09999999999999964 -4.9 0  0 -4.9 0  0.09999999999999964 -4.9 0  0.2000000000000002 -4.9 0  0.2999999999999998 -4.9 0  0.4000000000000004 -4.9 0  0.5 -4.9 0  0.5999999999999996 -4.9 0  0.7000000000000002 -4.9 0  0.7999999999999998 -4.9 0  0.9000000000000004 -4.9 0  1 -4.9 0  1.1 -4.9 0  1.2 -4.9 0  1.3 -4.9 0  1.4 -4.9 0  1.5 -4.9 0  1.6 -4.9 0  1.7 -4.9 0  1.8 -4.9 0  1.9 -4.9 0  2 -4.9 0  2.1 -4.9 0  2.2 -4.9 0  2.3 -4.9 0  2.4 -4.9 0  2.5 -4.9 0  2.6 -4.9 0  2.7 -4.9 0  2.8 -4.9 0  2.9 -4.9 0  3 -4.9 0  3.1 -4.9 0  3.199999999999999 -4.9 0  3.300000000000001 -4.9 0  3.4 -4.9 0  3.5 -4.9 0  3.6 -4.9 0  3.699999999999999 -4.9 0  3.800000000000001 -4.9 0  3.9 -4.9 0  4 -4.9 0  4.1 -4.9 0  4.199999999999999 -4.9 0  4.300000000000001 -4.9 0  4.4 -4.9 0  4.5 -4.9 0  4.6 -4.9 0  4.699999999999999 -4.9 0  4.800000000000001 -4.9 0  4.9 -4.9 0  5 -4.9 0  -5 -4.8 0  -4.9 -4.8 0  -4.8 -4.8 0  -4.7 -4.8 0  -4.6 -4.8 0  -4.5 -4.8 0  -4.4 -4.8 0  -4.3 -4.8 0  -4.2 -4.8 0  -4.1 -4.8 0  -4 -4.8 0  -3.9 -4.8 0  -3.8 -4.8 0  -3.7 -4.8 0  -3.6 -4.8 0  -3.5 -4.8 0  -3.4 -4.8 0  -3.3 -4.8 0  -3.2 -4.8 0  -3.1 -4.8 0  -3 -4.8 0  -2.9 -4.8 0  -2.8 -4.8 0  -2.7 -4.8 0  -2.6 -4.8 0  -2.5 -4.8 0  -2.4 -4.8 0  -2.3 -4.8 0  -2.2 -4.8 0  -2.1 -4.8 0  -2 -4.8 0  -1.9 -4.8 0  -1.8 -4.8 0  -1.7 -4.8 0  -1.6 -4.8 0  -1.5 -4.8 0  -1.4 -4.8 0  -1.3 -4.8 0  -1.2 -4.8 0  -1.1 -4.8 0  -1 -4.8 0  -0.9000000000000004 -4.8 0  -0.7999999999999998 -4.8 0  -0.7000000000000002 -4.8 0  -0.5999999999999996 -4.8 0  -0.5 -4.8 0  -0.4000000000000004 -4.8 0  -0.2999999999999998 -4.8 0  -0.2000000000000002 -4.8 0  -0.09999999999999964 -4.8 0  0 -4.8 0  0.09999999999999964 -4.8 0  0.2000000000000002 -4.8 0  0.2999999999999998 -4.8 0  0.4000000000000004 -4.8 0  0.5 -4.8 0  0.5999999999999996 -4.8 0  0.7000000000000002 -4.8 0  0.7999999999999998 -4.8 0  0.9000000000000004 -4.8 0  1 -4.8 0  1.1 -4.8 0  1.2 -4.8 0  1.3 -4.8 0  1.4 -4.8 0  1.5 -4.8 0  1.6 -4.8 0  1.7 -4.8 0  1.8 -4.8 0  1.9 -4.8 0  2 -4.8 0  2.1 -4.8 0  2.2 -4.8 0  2.3 -4.8 0  2.4 -4.8 0  2.5 -4.8 0  2.6 -4.8 0  2.7 -4.8 0  2.8 -4.8 0  2.9 -4.8 0  3 -4.8 0  3.1 -4.8 0  3.199999999999999 -4.8 0  3.300000000000001 -4.8 0  3.4 -4.8 0  3.5 -4.8 0  3.6 -4.8 0  3.699999999999999 -4.8 0  3.800000000000001 -4.8 0  3.9 -4.8 0  4 -4.8 0  4.1 -4.8 0  4.199999999999999 -4.8 0  4.300000000000001 -4.8 0  4.4 -4.8 0  4.5 -4.8 0  4.6 -4.8 0  4.699999999999999 -4.8 0  4.800000000000001 -4.8 0  4.9 -4.8 0  5 -4.8 0  -5 -4.7 0  -4.9 -4.7 0  -4.8 -4.7 0  -4.7 -4.7 0  -4.6 -4.7 0  -4.5 -4.7 0  -4.4 -4.7 0  -4.3 -4.7 0  -4.2 -4.7 0  -4.1 -4.7 0  -4 -4.7 0  -3.9 -4.7 0  -3.8 -4.7 0  -3.7 -4.7 0  -3.6 -4.7 0  -3.5 -4.7 0  -3.4 -4.7 0  -3.3 -4.7 0  -3.2 -4.7 0  -3.1 -4.7 0  -3 -4.7 0  -2.9 -4.7 0  -2.8 -4.7 0  -2.7 -4.7 0  -2.6 -4.7 0  -2.5 -4.7 0  -2.4 -4.7 0  -2.3 -4.7 0  -2.2 -4.7 0  -2.1 -4.7 0  -2 -4.7 0  -1.9 -4.7 0  -1.8 -4.7 0  -1.7 -4.7 0  -1.6 -4.7 0  -1.5 -4.7 0  -1.4 -4.7 0  -1.3 -4.7 0  -1.2 -4.7 0  -1.1 -4.7 0  -1 -4.7 0  -0.9000000000000004 -4.7 0  -0.7999999999999998 -4.7 0  -0.7000000000000002 -4.7 0  -0.5999999999999996 -4.7 0  -0.5 -4.7 0  -0.4000000000000004 -4.7 0  -0.2999999999999998 -4.7 0  -0.2000000000000002 -4.7 0  -0.09999999999999964 -4.7 0  0 -4.7 0  0.09999999999999964 -4.7 0  0.2000000000000002 -4.7 0  0.2999999999999998 -4.7 0  0.4000000000000004 -4.7 0  0.5 -4.7 0  0.5999999999999996 -4.7 0  0.7000000000000002 -4.7 0  0.7999999999999998 -4.7 0  0.9000000000000004 -4.7 0  1 -4.7 0  1.1 -4.7 0  1.2 -4.7 0  1.3 -4.7 0  1.4 -4.7 0  1.5 -4.7 0  1.6 -4.7 0  1.7 -4.7 0  1.8 -4.7 0  1.9 -4.7 0  2 -4.7 0  2.1 -4.7 0  2.2 -4.7 0  2.3 -4.7 0  2.4 -4.7 0  2.5 -4.7 0  2.6 -4.7 0  2.7 -4.7 0  2.8 -4.7 0  2.9 -4.7 0  3 -4.7 0  3.1 -4.7 0  3.199999999999999 -4.7 0  3.300000000000001 -4.7 0  3.4 -4.7 0  3.5 -4.7 0  3.6 -4.7 0  3.699999999999999 -4.7 0  3.800000000000001 -4.7 0  3.9 -4.7 0  4 -4.7 0  4.1 -4.7 0  4.199999999999999 -4.7 0  4.300000000000001 -4.7 0  4.4 -4.7 0  4.5 -4.7 0  4.6 -4.7 0  4.699999999999999 -4.7 0  4.800000000000001 -4.7 0  4.9 -4.7 0  5 -4.7 0  -5 -4.6 0  -4.9 -4.6 0  -4.8 -4.6 0  -4.7 -4.6 0  -4.6 -4.6 0  -4.5 -4.6 0  -4.4 -4.6 0  -4.3 -4.6 0  -4.2 -4.6 0  -4.1 -4.6 0  -4 -4.6 0  -3.9 -4.6 0  -3.8 -4.6 0  -3.7 -4.6 0  -3.6 -4.6 0  -3.5 -4.6 0  -3.4 -4.6 0  -3.3 -4.6 0  -3.2 -4.6 0  -3.1 -4.6 0  -3 -4.6 0  -2.9 -4.6 0  -2.8 -4.6 0  -2.7 -4.6 0  -2.6 -4.6 0  -2.5 -4.6 0  -2.4 -4.6 0  -2.3 -4.6 0  -2.2 -4.6 0  -2.1 -4.6 0  -2 -4.6 0  -1.9 -4.6 0  -1.8 -4.6 0  -1.7 -4.6 0  -1.6 -4.6 0  -1.5 -4.6 0  -1.4 -4.6 0  -1.3 -4.6 0  -1.2 -4.6 0  -1.1 -4.6 0  -1 -4.6 0  -0.9000000000000004 -4.6 0  -0.7999999999999998 -4.6 0  -0.7000000000000002 -4.6 0  -0.5999999999999996 -4.6 0  -0.5 -4.6 0  -0.4000000000000004 -4.6 0  -0.2999999999999998 -4.6 0  -0.2000000000000002 -4.6 0  -0.09999999999999964 -4.6 0  0 -4.6 0  0.09999999999999964 -4.6 0  0.2000000000000002 -4.6 0  0.2999999999999998 -4.6 0  0.4000000000000004 -4.6 0  0.5 -4.6 0  0.5999999999999996 -4.6 0  0.7000000000000002 -4.6 0  0.7999999999999998 -4.6 0  0.9000000000000004 -4.6 0  1 -4.6 0  1.1 -4.6 0  1.2 -4.6 0  1.3 -4.6 0  1.4 -4.6 0  1.5 -4.6 0  1.6 -4.6 0  1.7 -4.6 0  1.8 -4.6 0  1.9 -4.6 0  2 -4.6 0  2.1 -4.6 0  2.2 -4.6 0  2.3 -4.6 0  2.4 -4.6 0  2.5 -4.6 0  2.6 -4.6 0  2.7 -4.6 0  2.8 -4.6 0  2.9 -4.6 0  3 -4.6 0  3.1 -4.6 0  3.199999999999999 -4.6 0  3.300000000000001 -4.6 0  3.4 -4.6 0  3.5 -4.6 0  3.6 -4.6 0  3.699999999999999 -4.6 0  3.800000000000001 -4.6 0  3.9 -4.6 0  4 -4.6 0  4.1 -4.6 0  4.199999999999999 -4.6 0  4.300000000000001 -4.6 0  4.4 -4.6 0  4.5 -4.6 0  4.6 -4.6 0  4.699999999999999 -4.6 0  4.800000000000001 -4.6 0  4.9 -4.6 0  5 -4.6 0  -5 -4.5 0  -4.9 -4.5 0  -4.8 -4.5 0  -4.7 -4.5 0  -4.6 -4.5 0  -4.5 -4.5 0  -4.4 -4.5 0  -4.3 -4.5 0  -4.2 -4.5 0  -4.1 -4.5 0  -4 -4.5 0  -3.9 -4.5 0  -3.8 -4.5 0  -3.7 -4.5 0  -3.6 -4.5 0  -3.5 -4.5 0  -3.4 -4.5 0  -3.3 -4.5 0  -3.2 -4.5 0  -3.1 -4.5 0  -3 -4.5 0  -2.9 -4.5 0  -2.8 -4.5 0  -2.7 -4.5 0  -2.6 -4.5 0  -2.5 -4.5 0  -2.4 -4.5 0  -2.3 -4.5 0  -2.2 -4.5 0  -2.1 -4.5 0  -2 -4.5 0  -1.9 -4.5 0  -1.8 -4.5 0  -1.7 -4.5 0  -1.6 -4.5 0  -1.5 -4.5 0  -1.4 -4.5 0  -1.3 -4.5 0  -1.2 -4.5 0  -1.1 -4.5 0  -1 -4.5 0  -0.9000000000000004 -4.5 0  -0.7999999999999998 -4.5 0  -0.7000000000000002 -4.5 0  -0.5999999999999996 -4.5 0  -0.5 -4.5 0  -0.4000000000000004 -4.5 0  -0.2999999999999998 -4.5 0  -0.2000000000000002 -4.5 0  -0.09999999999999964 -4.5 0  0 -4.5 0  0.09999999999999964 -4.5 0  0.2000000000000002 -4.5 0  0.2999999999999998 -4.5 0  0.4000000000000004 -4.5 0  0.5 -4.5 0  0.5999999999999996 -4.5 0  0.7000000000000002 -4.5 0  0.7999999999999998 -4.5 0  0.9000000000000004 -4.5 0  1 -4.5 0  1.1 -4.5 0  1.2 -4.5 0  1.3 -4.5 0  1.4 -4.5 0  1.5 -4.5 0  1.6 -4.5 0  1.7 -4.5 0  1.8 -4.5 0  1.9 -4.5 0  2 -4.5 0  2.1 -4.5 0  2.2 -4.5 0  2.3 -4.5 0  2.4 -4.5 0  2.5 -4.5 0  2.6 -4.5 0  2.7 -4.5 0  2.8 -4.5 0  2.9 -4.5 0  3 -4.5 0  3.1 -4.5 0  3.199999999999999 -4.5 0  3.300000000000001 -4.5 0  3.4 -4.5 0  3.5 -4.5 0  3.6 -4.5 0  3.699999999999999 -4.5 0  3.800000000000001 -4.5 0  3.9 -4.5 0  4 -4.5 0  4.1 -4.5 0  4.199999999999999 -4.5 0  4.300000000000001 -4.5 0  4.4 -4.5 0  4.5 -4.5 0  4.6 -4.5 0  4.699999999999999 -4.5 0  4.800000000000001 -4.5 0  4.9 -4.5 0  5 -4.5 0  -5 -4.4 0  -4.9 -4.4 0  -4.8 -4.4 0  -4.7 -4.4 0  -4.6 -4.4 0  -4.5 -4.4 0  -4.4 -4.4 0  -4.3 -4.4 0  -4.2 -4.4 0  -4.1 -4.4 0  -4 -4.4 0  -3.9 -4.4 0  -3.8 -4.4 0  -3.7 -4.4 0  -3.6 -4.4 0  -3.5 -4.4 0  -3.4 -4.4 0  -3.3 -4.4 0  -3.2 -4.4 0  -3.1 -4.4 0  -3 -4.4 0  -2.9 -4.4 0  -2.8 -4.4 0  -2.7 -4.4 0  -2.6 -4.4 0  -2.5 -4.4 0  -2.4 -4.4 0  -2.3 -4.4 0  -2.2 -4.4 0  -2.1 -4.4 0  -2 -4.4 0  -1.9 -4.4 0  -1.8 -4.
[...]
<PointData  Scalars="r"> 
<DataArray  type="Float64"  Name="r"  format="ascii">1.2911451344284006e+00  1.2579943199765113e+00  1.1888180190690731e+00  1.1277689692409629e+00  1.0763943381984631e+00  1.0203450853077782e+00  9.8221267109170174e-01  9.6895852647302194e-01  9.6977375090740303e-01  9.7961959276463861e-01  9.8547616199133681e-01  9.9153556679968891e-01  9.8972123302410431e-01  9.9347267629232361e-01  9.9379971544888834e-01  1.0080405593594075e+00  1.0161398675951503e+00  1.0270965495267790e+00  1.0318077932993215e+00  1.0222079190087940e+00  1.0136645081497813e+00  9.9680473729553010e-01  9.8274722408142778e-01  9.7598447059169557e-01  9.6211473041875595e-01  9.5653421861252830e-01  9.5070088004209985e-01  9.4520928383938430e-01  9.4809299201688146e-01  9.4638200242266901e-01  9.4482749543684486e-01  9.4434170990716704e-01  9.3801173173645169e-01  9.3627400605674127e-01  9.3347431908778045e-01  9.3156200675336165e-01  9.3195747239220494e-01  9.3312539587651377e-01  9.3388989098293895e-01  9.3861826605198961e-01  9.4039909931919952e-01  9.4591192736512031e-01  9.4810555751656478e-01  9.5315506659638927e-01  9.5281124214027657e-01  9.5713629064896388e-01  9.5395953882660967e-01  9.5638198467291202e-01  9.5182461757638104e-01  9.5246333719199938e-01  9.4740669783133236e-01  9.4650586668998471e-01  9.4147884493411782e-01  9.3845292410605496e-01  9.3597484157722544e-01  9.2952796531323034e-01  9.3158262663819635e-01  9.2107896064184747e-01  9.2845699186108488e-01  9.1454579444973882e-01  9.2759200160764321e-01  9.0946452180163551e-01  9.2950793105015161e-01  9.0774446399227493e-01  9.3297057723703591e-01  9.0953970033120646e-01  9.3823964787857228e-01  9.1621837948988938e-01  9.4391935164596785e-01  9.2825930747102769e-01  9.5059443592206505e-01  9.4372938682652097e-01  9.5622114393321522e-01  9.6238791734813445e-01  9.6190822294749123e-01  9.8351755952628361e-01  9.7211359810783959e-01  1.0064580233528284e+00  9.7955202252748974e-01  1.0139491488299432e+00  9.6976259200030590e-01  1.0063359815923640e+00  9.6730627598892904e-01  1.0166029110912111e+00  9.7062386878701068e-01  9.8588267698637300e-01  9.2149803523044727e-01  9.6170257766426825e-01  9.9193641335669713e-01  1.1136731874089310e+00  1.1395251544722045e+00  1.0806282214643539e+00  1.0008576050833846e+00  9.4495137668053764e-01  1.0181606180682221e+00  1.0134557824467298e+00  1.0535600785716197e+00  9.1209327077966951e-01  1.0997654301996342e+00  1.2712962340307050e+00  1.4673687626856653e+00  1.2579943199765058e+00  1.2874082830946476e+00  1.2173419181865268e+00  1.1249049708318004e+00  1.0615554886868597e+00  1.0256250332909358e+00  9.9844591685153361e-01  9.7947505340244323e-01  9.7577345325833009e-01  9.7946962925805003e-01  9.8178919483726468e-01  9.8465541945890955e-01  9.8831077830007741e-01  9.9278512341925873e-01  9.9971554770568283e-01  1.0066000571014193e+00  1.0161454001258072e+00  1.0214946085553935e+00  1.0229751692551192e+00  1.0178875311742293e+00  1.0101121492431677e+00  1.0007355534100166e+00  9.8857102829741139e-01  9.7728433978805773e-01  9.6758027535233038e-01  9.6110713272136183e-01  9.5935092216743478e-01  9.5613958222595941e-01  9.5239119579192688e-01  9.4801936675936194e-01  9.4239954551826244e-01  9.4011099608510174e-01  9.3801025246654024e-01  9.3617352447565672e-01  9.3599486600949688e-01  9.3458306480942355e-01  9.3479473601082663e-01  9.3652414414946428e-01  9.3724738051949041e-01  9.4093384720512041e-01  9.4324213136448465e-01  9.4594302418553433e-01  9.4908273305931812e-01  9.5078596818581806e-01  9.5291835392172619e-01  9.5454790196070971e-01  9.5481344543309132e-01  9.5556538163894622e-01  9.5580697796155223e-01  9.5411062789103629e-01  9.5433691362824236e-01  9.5114487092451494e-01  9.5181110576637262e-01  9.4775557992230153e-01  9.4863880343332874e-01  9.4370298934308738e-01  9.4589752026604101e-01  9.3912416908471597e-01  9.4313381830337828e-01  9.3605474249076082e-01  9.4132347772999503e-01  9.3563760424554199e-01  9.4149265200452326e-01  9.3872525459249001e-01  9.4335576552382050e-01  9.4378439183533547e-01  9.4474205920218834e-01  9.4907059987520703e-01  9.4333306085081670e-01  9.5323880139062911e-01  9.3947566978513852e-01  9.5807799441823538e-01  9.3633447099761113e-01  9.6547289788378543e-01  9.3734626185960546e-01  9.7811116338893489e-01  9.4411369482787333e-01  9.9613177798568586e-01  9.5979914071578520e-01  1.0209443116588433e+00  9.7800938080104183e-01  1.0316529159205750e+00  9.6138998821021371e-01  9.9848690097398840e-01  9.2720051142600945e-01  1.0008093598531016e+00  9.6760795534262756e-01  1.0614690100744137e+00  1.0010168878896586e+00  1.0609064059777162e+00  9.9547831558971411e-01  1.0910941487854282e+00  1.0403512680005669e+00  1.0739233472973486e+00  9.6344620954344129e-01  9.6436426141649845e-01  9.1871793069990859e-01  1.0586357590586912e+00  1.1873338690046527e+00  1.3275003424624952e+00  1.2712962340331269e+00  1.1888180190690647e+00  1.2173419181865315e+00  1.1825105033569683e+00  1.1153753469378596e+00  1.0609776820098475e+00  1.0368200296895620e+00  1.0340095327161325e+00  1.0263344175378712e+00  1.0028405415509054e+00  9.8436126020590153e-01  9.7728395417371039e-01  9.7959243518380779e-01  9.8816863534696697e-01  9.9928652343125934e-01  1.0093683706733350e+00  1.0171423094448786e+00  1.0130310014625084e+00  1.0050590625202418e+00  9.9757492112161283e-01  9.9155840876399048e-01  9.9187616413118596e-01  9.9015660408118467e-01  9.8636073857964313e-01  9.8596333334423214e-01  9.8025807482741900e-01  9.7701452255817567e-01  9.6967195519241756e-01  9.5788922592266601e-01  9.5114998311659271e-01  9.4423503398921504e-01  9.4030901103121489e-01  9.4121391795923526e-01  9.3838555862595474e-01  9.3996396089727163e-01  9.4169917272640469e-01  9.4308416951100804e-01  9.4744174941484238e-01  9.5072199682942515e-01  9.5235912319420202e-01  9.5659122713938105e-01  9.5583867574961823e-01  9.5917131643031273e-01  9.5889919561942050e-01  9.6163444750028426e-01  9.6109709063438320e-01  9.6521944585817365e-01  9.6430308970916612e-01  9.6960703683406257e-01  9.6839782951585973e-01  9.7383788385398096e-01  9.7387059498753115e-01  9.7773772189978869e-01  9.7836830536501995e-01  9.7986310310215574e-01  9.8198791412561170e-01  9.7918873788554872e-01  9.8316137239291235e-01  9.7618031094166324e-01  9.8239000361838869e-01  9.6895065552974435e-01  9.7815978024035999e-01  9.5917473936891962e-01  9.7072234913043154e-01  9.4828210707573779e-01  9.6382869561892193e-01  9.4299299929442948e-01  9.6124871589234984e-01  9.4534109378449105e-01  9.6426533165564110e-01  9.5464165796934486e-01  9.6876925389042967e-01  9.6747824795330428e-01  9.7350587948752654e-01  9.8054135643720730e-01  9.7563389303752968e-01  9.8916990631598534e-01  9.7173169966284911e-01  9.8806538712612790e-01  9.6024879928926055e-01  9.8077155845071262e-01  9.5427790552270808e-01  9.8824382157788904e-01  9.7449981424533239e-01  1.0131747229173167e+00  9.8841558217662517e-01  1.0090766243936400e+00  9.7985698903945384e-01  1.0168272054539436e+00  1.0071860190841575e+00  1.0452778500877007e+00  1.0162571012813588e+00  1.0461250457418618e+00  1.0103405284399529e+00  1.0409456387112064e+00  9.8028676426447414e-01  1.0236657294668288e+00  1.0107664792025504e+00  1.1517369801044175e+00  1.1729373792475541e+00  1.1873338690014956e+00  1.0997654301983655e+00  1.1277689692409671e+00  1.1249049708318006e+00  1.1153753469378584e+00  1.1195680242312018e+00  1.1118989200563920e+00  1.0902693532917926e+00  1.0585630302295197e+00  1.0404146456659051e+00  1.0246961827447114e+00  1.0013232565827994e+00  9.8471252211682214e-01  9.8756170878720217e-01  9.9682016757416159e-01  1.0062206433183607e+00  1.0082867850002135e+00  9.9980795281875212e-01  9.9301550590382393e-01  9.8194405344853386e-01  9.8098089767605556e-01  9.8015446079965129e-01  9.8397303608291808e-01  9.9014851486165378e-01  9.9122731693120036e-01  9.9283798898319975e-01  9.8724903523118690e-01  9.7699817178964554e-01  9.6968869380242784e-01  9.5974739681484367e-01  9.5550241921222956e-01  9.5456095097647331e-01  9.5107857156140196e-01  9.5352953439691113e-01  9.5307549297131944e-01  9.5480631441595931e-01  9.5950353723256798e-01  9.6208679497888905e-01  9.6577864651192502e-01  9.6916085721942324e-01  9.6921798090409461e-01  9.7159774953692524e-01  9.7169584281996357e-01  9.7176347084682646e-01  9.7272173775273918e-01  9.7267050202359695e-01  9.7296863551366319e-01  9.7433044026015991e-01  9.7495906916731301e-01  9.7630213277390276e-01  9.7898443327240381e-01  9.7910814430737914e-01  9.8290652791517374e-01  9.8205268872444862e-01  9.8663891960659833e-01  9.8405172487453663e-01  9.9054063576607954e-01  9.8541386397751907e-01  9.9395841749971869e-01  9.8594562133805663e-01  9.9515881176325405e-01  9.8566067375077449e-01  9.9356574173642775e-01  9.8216335658323861e-01  9.8661153961122572e-01  9.7500551249764900e-01  9.7210694151361088e-01  9.6412339006054015e-01  9.5454549468599903e-01  9.5859857800770920e-01  9.4314624082611997e-01  9.6425721975238055e-01  9.4212626954160394e-01  9.7814163457489556e-01  9.4566694582495736e-01  9.9307877844685233e-01  9.5133306472719925e-01  1.0042504512485300e+00  9.5611014853258558e-01  1.0095772204831286e+00  9.5743151520536651e-01  1.0044431031914089e+00  9.4983520076837469e-01  9.8605627963149045e-01  9.3908450473426019e-01  9.8544889651751011e-01  9.7763679309196794e-01  1.0503137185541955e+00  1.0477142679197238e+00  1.0728136584700911e+00  1.0040751269157482e+00  9.9163690588817999e-01  9.4738590253019395e-01  9.9507647152507483e-01  1.0049152373804060e+00  1.0472753118880116e+00  9.8847557140354858e-01  1.0518091520337873e+00  1.1312101740071523e+00  1.2983048712142136e+00  1.1517369801037223e+00  1.0586357590591022e+00  9.1209327077654279e-01  1.0763943381984646e+00  1.0615554886868561e+00  1.0609776820098540e+00  1.1118989200563907e+00  1.1098451240021967e+00  1.0994988025509733e+00  1.0881432428881623e+00  1.0462209517608785e+00  1.0307752229233109e+00  1.0412481614946816e+00  1.0405544429910294e+00  1.0225993100665480e+00  1.0095217851692626e+00  9.9498170210076753e-01  9.8733345470585143e-01  9.7962416964354160e-01  9.7408484020627661e-01  9.7554316075013570e-01  9.7871548828072841e-01  9.7835240330740270e-01  9.7935579115428983e-01  9.7725302119752155e-01  9.7691133055828605e-01  9.7949061920932756e-01  9.7826207605446358e-01  9.7731006271725140e-01  9.7709736432478211e-01  9.7353610683925862e-01  9.7393150802837891e-01  9.7198611887718289e-01  9.6815487523818644e-01  9.6884607434527281e-01  9.6678657489457853e-01  9.6890795147948139e-01  9.7219919495763463e-01  9.7295712679712509e-01  9.7472940405441855e-01  9.7607880713666118e-01  9.7390476863097386e-01  9.7633029148872796e-01  9.7394714293944995e-01  9.7441621434717463e-01  9.7301321600313273e-01  9.7293373487203882e-01  9.7043833734090179e-01  9.7207943865179569e-01  9.6811885109925755e-01  9.7005582752538277e-01  9.6662593211531311e-01  9.6737419555998916e-01  9.6499086685944113e-01  9.6537815832875684e-01  9.6426265094638974e-01  9.6409969302476428e-01  9.6515052036333437e-01  9.6333209496973482e-01  9.6786447182418489e-01  9.6493243766417514e-01  9.7331033474574435e-01  9.7014533524553148e-01  9.8207284148572283e-01  9.8002124300893578e-01  9.9347175597353088e-01  9.9209185806612410e-01  1.0029002356771395e+00  1.0003169942808443e+00  1.0013309417879239e+00  9.9581917406167697e-01  9.8633311491646669e-01  9.8429058656168456e-01  9.6963321414461401e-01  9.7558212414144529e-01  9.5861713588296515e-01  9.6762825587759338e-01  9.4923378950911630e-01  9.5658874366408231e-01  9.4471719690832701e-01  9.4573184727862525e-01  9.4934481502230728e-01  9.4462524890645905e-01  9.7355436871775580e-01  9.7082954835735591e-01  1.0297680140724164e+00  1.0178015694251719e+00  1.0658502178099396e+00  1.0059623959174098e+00  1.0251710271171821e+00  9.6810180750696284e-01  1.0275244239935615e+00  9.9385240902998195e-01  1.0230872879154524e+00  9.2810316186745034e-01  9.3875325097703533e-01  9.4012307340267665e-01  1.1358876686380999e+00  1.2646810822882446e+00  1.3050090158412422e+00  1.1312101740053382e+00  1.0107664792029807e+00  9.1871793069751706e-01  1.0535600785765340e+00  1.0203450853077798e+00  1.0256250332909380e+00  1.0368200296895611e+00  1.0902693532917940e+00  1.0994988025509738e+00  1.0702297209547575e+00  1.0923798184077693e+00  1.1109581065773158e+00  1.0835438285029058e+00  1.0570264980842785e+00  1.0560671242760722e+00  1.0485859089905933e+00  1.0212147880415179e+00  9.9339336669112555e-01  9.7601441128386945e-01  9.7113748406624845e-01  9.7370870584542890e-01  9.7365376850676522e-01  9.7182495940768687e-01  9.6680980636425951e-01  9.6281901383932311e-01  9.6281553704118850e-01  9.6152680154346337e-01  9.6467747800923720e-01  9.6965143598592551e-01  9.7668268573256545e-01  9.8800293834794561e-01  9.9166375779768168e-01  9.9315756254419518e-01  9.9285595284817929e-01  9.8900577101487119e-01  9.9213102646959062e-01  9.9311396099816474e-01  9.9247304015611648e-01  9.9303511622371599e-01  9.8798114985760599e-01  9.8361153597034667e-01  9.8128741112740281e-01  9.7488428950493633e-01  9.7315500136258570e-01  9.6941441356031288e-01  9.6629830737332767e-01  9.6503095012160400e-01  9.6346753265185192e-01  9.6161508001143192e-01  9.6208641840734044e-01  9.6088443730225737e-01  9.6042342533948877e-01  9.6160864398315371e-01  9.6004089487818967e-01  9.6293098259689158e-01  9.6088825769737785e-01  9.6530913182692846e-01  9.6163716864239823e-01  9.6906460856684251e-01  9.6291762844794537e-01  9.7329216972280552e-01  9.6503134891184161e-01  9.7637232190004752e-01  9.6766139059556011e-01  9.7861394223214238e-01  9.7128989241102903e-01  9.8012818733936879e-01  9.7879193442680046e-01  9.8338915922703019e-01  9.9049838228798892e-01  9.8764469997261040e-01  1.0004778002466026e+00  9.8249598544938410e-01  9.9413961957936736e-01  9.6263021734661014e-01  9.7864453284719566e-01  9.4926355814396746e-01  9.7321942768347725e-01  9.5277230833403848e-01  9.7179964996777690e-01  9.5964219416693375e-01  9.6285102059447314e-01  9.6628829017767570e-01  9.5132175474645886e-01  9.8018737014166823e-01  9.5325051800774074e-01  1.0083669832604614e+00  9.7927348054683339e-01  1.0626976522343075e+00  1.0276916100149187e+00  1.0952121182973491e+00  9.9111730582651525e-01  1.0017715229694122e+00  8.8318389915893480e-01  9.5621065631403912e-01  9.2375025217128426e-01  1.0552313007085992e+00  1.0400281442495085e+00  1.2111518497449487e+00  1.2152906517003368e+00  1.2646810822872536e+00  1.0518091520330470e+00  1.0236657294658382e+00  9.6436426141759612e-01  1.0134557824461130e+00  9.8221267109170607e-01  9.9844591685153106e-01  1.0340095327161307e+00  1.0585630302295179e+00  1.0881432428881659e+00  1.0923798184077724e+00  1.0516752527632298e+00  1.0822738675473014e+00  1.1294458703974464e+00  1.1006835387023228e+00  1.0545049345783977e+00  1.0432150979414254e+00  1.0476517300018915e+00  1.0278657144646690e+00  1.0032787548492892e+00  9.7763984598774134e-01  9.6298990873773982e-01  9.5572239394236314e-01  9.5170817535177965e-01  9.5546942424477632e-01  9.6206073824293747e-01  9.6627165466198817e-01  9.6862567249678366e-01  9.7059445568179681e-01  9.7180622064235089e-01  9.7233373677645507e-01  9.7450247354048536e-01  9.7782741971367260e-01  9.8779945452943629e-01  1.0027472937800623e+00  1.0132148487224937e+00  1.0216751642730775e+00  1.0208195398579443e+00  1.0135922907993737e+00  1.0083100410687089e+00  9.9840113534723618e-01  9.9063946533480185e-01  9.8600401307570085e-01  9.7700884837416180e-01  9.7520201410933560e-01  9.7129016729583328e-01  9.6956575683091584e-01  9.6937690211202010e-01  9.7014813785013188e-01  9.6821075286586245e-01  9.7220093930721418e-01  9.6978061671070281e-01  9.7273304257665882e-01  9.7296836439316503e-01  9.7407533790566714e-01  9.7516249231253682e-01  9.7651687138347520e-01  9.7805183530299300e-01  9.7861075308296930e-01  9.8229532768029681e-01  9.8003263529946816e-01  9.8526389373927248e-01  9.8105769889617733e-01  9.8595220649738635e-01  9.8089411651489278e-01  9.8346250912180955e-01  9.7895832631824542e-01  9.7731946696988947e-01  9.7563552759407368e-01  9.6829871242039767e-01  9.7414075842388814e-01  9.6358790689577134e-01  9.8062784740713704e-01  9.6944310022846403e-01  9.9163305642114163e-01  9.7111625478852837e-01  9.8104739216572634e-01  9.5127930781788017e-01  9.5090004144397977e-01  9.3792785280615920e-01  9.3636578647932178e-01  9.5288129216566020e-01  9.4582853510262677e-01  9.9322266111206425e-01  9.7967489860934842e-01  1.0496104432340441e+00  1.0182023112669965e+00  1.0793356090103254e+00  1.0066711947434015e+00  1.0281582936294356e+00  9.3489113130283275e-01  9.6689712682212103e-01  9.3132842947839400e-01  1.0035924696470921e+00  9.8450328168376844e-01  1.0126284220078852e+00  9.7340721416947318e-01  1.0328567684234673e+00  1.1143908322000089e+00  1.2338901208410553e+00  1.2111518497438638e+00  1.1358876686357877e+00  9.8847557140290809e-01  9.8028676426476880e-01  9.6344620954379989e-01  1.0181606180676450e+00  9.6895852647301972e-01  9.7947505340244345e-01  1.0263344175378737e+00  1.0404146456659034e+00  1.0462209517608765e+00  1.1109581065773166e+00  1.0822738675473043e+00  1.0271434825899348e+00  1.0765736140051692e+00  1.1390462262640311e+00  1.1292835331022475e+00  1.0640236577328870e+00  1.0235043349857098e+00  1.0196614016576278e+00  1.0167867094936911e+00  9.9849133037098425e-01  9.7438995147481589e-01  9.5883758722372892e-01  9.5762652492153577e-01  9.5839555937791676e-01  9.5791045358714333e-01  9.5727572929010563e-01  9.5600061688927218e-01  9.5970821077886093e-01  9.6283515134922570e-01  9.6749072738081143e-01  9.7965968697161399e-01  9.9301752037692637e-01  1.0065726979026957e+00  1.0168651125249495e+00  1.0157460627270467e+00  1.0149572628959733e+00  1.0117079066691217e+00  1.0063359148817650e+00  1.0058346464437236e+00  1.0008095766309868e+00  9.9674923967403595e-01  9.9693509668263014e-01  9.9302230396470426e-01  9.9440948243398963e-01  9.9432389989299463e-01  9.9189695716888870e-01  9.9169659045338410e-01  9.8997159141510382e-01  9.8631652009744586e-01  9.8665280862903237e-01  9.8324516398328166e-01  9.8204599216395561e-01  9.8199192901906929e-01  9.7888052350241983e-01  9.8070820817457605e-01  9.7768208664638334e-01  9.8040499122247382e-01  9.7536742056979631e-01  9.8102967353410808e-01  9.7289553311737909e-01  9.8102301236452227e-01  9.7186372822172651e-01  9.8057774427452971e-01  9.7190067753193643e-01  9.7988097237295735e-01  9.7328066189534279e-01  9.7792595399730586e-01  9.7573130975524913e-01  9.7397799740212843e-01  9.7692399779549377e-01  9.6768331885569603e-01  9.7599513509607838e-01  9.6573552841597243e-01  9.8361852896252810e-01  9.8138803273213226e-01  1.0003234889361508e+00  9.9645567948236113e-01  9.9239947428488973e-01  9.8560445292461130e-01  9.6540340339641351e-01  9.8736240972419231e-01  9.6541548335703620e-01  1.0141977790173460e+00  9.7999849320329901e-01  1.0291280286737217e+00  9.7864096906618503e-01  1.0139608571191505e+00  9.6998796590144687e-01  1.0026220049945866e+00  9.8544029836961899e-01  9.8952243922007044e-01  9.7160324336096537e-01  9.4091695912385376e-01  9.6713162015318810e-01  9.9181051785455077e-01  1.1059320991500101e+00  1.1583588490949157e+00  1.2289278744189758e+00  1.1143908321971094e+00  1.0400281442487860e+00  9.4012307340201273e-01  1.0472753118891407e+00  1.0409456387113551e+00  1.0739233472970355e+00  9.4495137668015450e-01  9.6977375090740470e-01  9.7577345325832887e-01  1.0028405415509047e+00  1.0246961827447139e+00  1.0307752229233123e+00  1.0835438285029046e+00  1.1294458703974450e+00  1.0765736140051696e+00  1.0192749482327348e+00  1.0438178400202427e+00  1.1012730193049887e+00  1.1115098013132965e+00  1.0619736788236500e+00  1.0108969464442732e+00  1.0037079665355215e+00  1.0169851486026793e+00  1.0207070620597321e+00  1.0076279904388068e+00  9.8257728526071619e-01  9.5970249089086768e-01  9.4828647389099263e-01  9.4387708416095306e-01  9