<?xml version="1.0"?>
<VTKFile type="UnstructuredGrid"  version="0.1"  >
<UnstructuredGrid>
<Piece  NumberOfPoints="10201" NumberOfCells="20000">
<Points>
<DataArray  type="Float64"  NumberOfComponents="3"  format="ascii">-5 -5 0  -4.9 -5 0  -4.8 -5 0  -4.7 -5 0  -4.6 -5 0  -4.5 -5 0  -4.4 -5 0  -4.3 -5 0  -4.2 -5 0  -4.1 -5 0  -4 -5 0  -3.9 -5 0  -3.8 -5 0  -3.7 -5 0  -3.6 -5 0  -3.5 -5 0  -3.4 -5 0  -3.3 -5 0  -3.2 -5 0  -3.1 -5 0  -3 -5 0  -2.9 -5 0  -2.8 -5 0  -2.7 -5 0  -2.6 -5 0  -2.5 -5 0  -2.4 -5 0  -2.3 -5 0  -2.2 -5 0  -2.1 -5 0  -2 -5 0  -1.9 -5 0  -1.8 -5 0  -1.7 -5 0  -1.6 -5 0  -1.5 -5 0  -1.4 -5 0  -1.3 -5 0  -1.2 -5 0  -1.1 -5 0  -1 -5 0  -0.9000000000000004 -5 0  -0.7999999999999998 -5 0  -0.7000000000000002 -5 0  -0.5999999999999996 -5 0  -0.5 -5 0  -0.4000000000000004 -5 0  -0.2999999999999998 -5 0  -0.2000000000000002 -5 0  -0.09999999999999964 -5 0  0 -5 0  0.09999999999999964 -5 0  0.2000000000000002 -5 0  0.2999999999999998 -5 0  0.4000000000000004 -5 0  0.5 -5 0  0.5999999999999996 -5 0  0.7000000000000002 -5 0  0.7999999999999998 -5 0  0.9000000000000004 -5 0  1 -5 0  1.1 -5 0  1.2 -5 0  1.3 -5 0  1.4 -5 0  1.5 -5 0  1.6 -5 0  1.7 -5 0  1.8 -5 0  1.9 -5 0  2 -5 0  2.1 -5 0  2.2 -5 0  2.3 -5 0  2.4 -5 0  2.5 -5 0  2.6 -5 0  2.7 -5 0  2.8 -5 0  2.9 -5 0  3 -5 0  3.1 -5 0  3.199999999999999 -5 0  3.300000000000001 -5 0  3.4 -5 0  3.5 -5 0  3.6 -5 0  3.699999999999999 -5 0  3.800000000000001 -5 0  3.9 -5 0  4 -5 0  4.1 -5 0  4.199999999999999 -5 0  4.300000000000001 -5 0  4.4 -5 0  4.5 -5 0  4.6 -5 0  4.699999999999999 -5 0  4.800000000000001 -5 0  4.9 -5 0  5 -5 0  -5 -4.9 0  -4.9 -4.9 0  -4.8 -4.9 0  -4.7 -4.9 0  -4.6 -4.9 0  -4.5 -4.9 0  -4.4 -4.9 0  -4.3 -4.9 0  -4.2 -4.9 0  -4.1 -4.9 0  -4 -4.9 0  -3.9 -4.9 0  -3.8 -4.9 0  -3.7 -4.9 0  -3.6 -4.9 0  -3.5 -4.9 0  -3.4 -4.9 0  -3.3 -4.9 0  -3.2 -4.9 0  -3.1 -4.9 0  -3 -4.9 0  -2.9 -4.9 0  -2.8 -4.9 0  -2.7 -4.9 0  -2.6 -4.9 0  -2.5 -4.9 0  -2.4 -4.9 0  -2.3 -4.9 0  -2.2 -4.9 0  -2.1 -4.9 0  -2 -4.9 0  -1.9 -4.9 0  -1.8 -4.9 0  -1.7 -4.9 0  -1.6 -4.9 0  -1.5 -4.9 0  -1.4 -4.9 0  -1.3 -4.9 0  -1.2 -4.9 0  -1.1 -4.9 0  -1 -4.9 0  -0.9000000000000004 -4.9 0  -0.7999999999999998 -4.9 0  -0.7000000000000002 -4.9 0  -0.5999999999999996 -4.9 0  -0.5 -4.9 0  -0.4000000000000004 -4.9 0  -0.2999999999999998 -4.9 0  -0.2000000000000002 -4.9 0  -0.09999999999999964 -4.9 0  0 -4.9 0  0.09999999999999964 -4.9 0  0.2000000000000002 -4.9 0  0.2999999999999998 -4.9 0  0.4000000000000004 -4.9 0  0.5 -4.9 0  0.5999999999999996 -4.9 0  0.7000000000000002 -4.9 0  0.7999999999999998 -4.9 0  0.9000000000000004 -4.9 0  1 -4.9 0  1.1 -4.9 0  1.2 -4.9 0  1.3 -4.9 0  1.4 -4.9 0  1.5 -4.9 0  1.6 -4.9 0  1.7 -4.9 0  1.8 -4.9 0  1.9 -4.9 0  2 -4.9 0  2.1 -4.9 0  2.2 -4.9 0  2.3 -4.9 0  2.4 -4.9 0  2.5 -4.9 0  2.6 -4.9 0  2.7 -4.9 0  2.8 -4.9 0  2.9 -4.9 0  3 -4.9 0  3.1 -4.9 0  3.199999999999999 -4.9 0  3.300000000000001 -4.9 0  3.4 -4.9 0  3.5 -4.9 0  3.6 -4.9 0  3.699999999999999 -4.9 0  3.800000000000001 -4.9 0  3.9 -4.9 0  4 -4.9 0  4.1 -4.9 0  4.199999999999999 -4.9 0  4.300000000000001 -4.9 0  4.4 -4.9 0  4.5 -4.9 0  4.6 -4.9 0  4.699999999999999 -4.9 0  4.800000000000001 -4.9 0  4.9 -4.9 0  5 -4.9 0  -5 -4.8 0  -4.9 -4.8 0  -4.8 -4.8 0  -4.7 -4.8 0  -4.6 -4.8 0  -4.5 -4.8 0  -4.4 -4.8 0  -4.3 -4.8 0  -4.2 -4.8 0  -4.1 -4.8 0  -4 -4.8 0  -3.9 -4.8 0  -3.8 -4.8 0  -3.7 -4.8 0  -3.6 -4.8 0  -3.5 -4.8 0  -3.4 -4.8 0  -3.3 -4.8 0  -3.2 -4.8 0  -3.1 -4.8 0  -3 -4.8 0  -2.9 -4.8 0  -2.8 -4.8 0  -2.7 -4.8 0  -2.6 -4.8 0  -2.5 -4.8 0  -2.4 -4.8 0  -2.3 -4.8 0  -2.2 -4.8 0  -2.1 -4.8 0  -2 -4.8 0  -1.9 -4.8 0  -1.8 -4.8 0  -1.7 -4.8 0  -1.6 -4.8 0  -1.5 -4.8 0  -1.4 -4.8 0  -1.3 -4.8 0  -1.2 -4.8 0  -1.1 -4.8 0  -1 -4.8 0  -0.9000000000000004 -4.8 0  -0.7999999999999998 -4.8 0  -0.7000000000000002 -4.8 0  -0.5999999999999996 -4.8 0  -0.5 -4.8 0  -0.4000000000000004 -4.8 0  -0.2999999999999998 -4.8 0  -0.2000000000000002 -4.8 0  -0.09999999999999964 -4.8 0  0 -4.8 0  0.09999999999999964 -4.8 0  0.2000000000000002 -4.8 0  0.2999999999999998 -4.8 0  0.4000000000000004 -4.8 0  0.5 -4.8 0  0.5999999999999996 -4.8 0  0.7000000000000002 -4.8 0  0.7999999999999998 -4.8 0  0.9000000000000004 -4.8 0  1 -4.8 0  1.1 -4.8 0  1.2 -4.8 0  1.3 -4.8 0  1.4 -4.8 0  1.5 -4.8 0  1.6 -4.8 0  1.7 -4.8 0  1.8 -4.8 0  1.9 -4.8 0  2 -4.8 0  2.1 -4.8 0  2.2 -4.8 0  2.3 -4.8 0  2.4 -4.8 0  2.5 -4.8 0  2.6 -4.8 0  2.7 -4.8 0  2.8 -4.8 0  2.9 -4.8 0  3 -4.8 0  3.1 -4.8 0  3.199999999999999 -4.8 0  3.300000000000001 -4.8 0  3.4 -4.8 0  3.5 -4.8 0  3.6 -4.8 0  3.699999999999999 -4.8 0  3.800000000000001 -4.8 0  3.9 -4.8 0  4 -4.8 0  4.1 -4.8 0  4.199999999999999 -4.8 0  4.300000000000001 -4.8 0  4.4 -4.8 0  4.5 -4.8 0  4.6 -4.8 0  4.699999999999999 -4.8 0  4.800000000000001 -4.8 0  4.9 -4.8 0  5 -4.8 0  -5 -4.7 0  -4.9 -4.7 0  -4.8 -4.7 0  -4.7 -4.7 0  -4.6 -4.7 0  -4.5 -4.7 0  -4.4 -4.7 0  -4.3 -4.7 0  -4.2 -4.7 0  -4.1 -4.7 0  -4 -4.7 0  -3.9 -4.7 0  -3.8 -4.7 0  -3.7 -4.7 0  -3.6 -4.7 0  -3.5 -4.7 0  -3.4 -4.7 0  -3.3 -4.7 0  -3.2 -4.7 0  -3.1 -4.7 0  -3 -4.7 0  -2.9 -4.7 0  -2.8 -4.7 0  -2.7 -4.7 0  -2.6 -4.7 0  -2.5 -4.7 0  -2.4 -4.7 0  -2.3 -4.7 0  -2.2 -4.7 0  -2.1 -4.7 0  -2 -4.7 0  -1.9 -4.7 0  -1.8 -4.7 0  -1.7 -4.7 0  -1.6 -4.7 0  -1.5 -4.7 0  -1.4 -4.7 0  -1.3 -4.7 0  -1.2 -4.7 0  -1.1 -4.7 0  -1 -4.7 0  -0.9000000000000004 -4.7 0  -0.7999999999999998 -4.7 0  -0.7000000000000002 -4.7 0  -0.5999999999999996 -4.7 0  -0.5 -4.7 0  -0.4000000000000004 -4.7 0  -0.2999999999999998 -4.7 0  -0.2000000000000002 -4.7 0  -0.09999999999999964 -4.7 0  0 -4.7 0  0.09999999999999964 -4.7 0  0.2000000000000002 -4.7 0  0.2999999999999998 -4.7 0  0.4000000000000004 -4.7 0  0.5 -4.7 0  0.5999999999999996 -4.7 0  0.7000000000000002 -4.7 0  0.7999999999999998 -4.7 0  0.9000000000000004 -4.7 0  1 -4.7 0  1.1 -4.7 0  1.2 -4.7 0  1.3 -4.7 0  1.4 -4.7 0  1.5 -4.7 0  1.6 -4.7 0  1.7 -4.7 0  1.8 -4.7 0  1.9 -4.7 0  2 -4.7 0  2.1 -4.7 0  2.2 -4.7 0  2.3 -4.7 0  2.4 -4.7 0  2.5 -4.7 0  2.6 -4.7 0  2.7 -4.7 0  2.8 -4.7 0  2.9 -4.7 0  3 -4.7 0  3.1 -4.7 0  3.199999999999999 -4.7 0  3.300000000000001 -4.7 0  3.4 -4.7 0  3.5 -4.7 0  3.6 -4.7 0  3.699999999999999 -4.7 0  3.800000000000001 -4.7 0  3.9 -4.7 0  4 -4.7 0  4.1 -4.7 0  4.199999999999999 -4.7 0  4.300000000000001 -4.7 0  4.4 -4.7 0  4.5 -4.7 0  4.6 -4.7 0  4.699999999999999 -4.7 0  4.800000000000001 -4.7 0  4.9 -4.7 0  5 -4.7 0  -5 -4.6 0  -4.9 -4.6 0  -4.8 -4.6 0  -4.7 -4.6 0  -4.6 -4.6 0  -4.5 -4.6 0  -4.4 -4.6 0  -4.3 -4.6 0  -4.2 -4.6 0  -4.1 -4.6 0  -4 -4.6 0  -3.9 -4.6 0  -3.8 -4.6 0  -3.7 -4.6 0  -3.6 -4.6 0  -3.5 -4.6 0  -3.4 -4.6 0  -3.3 -4.6 0  -3.2 -4.6 0  -3.1 -4.6 0  -3 -4.6 0  -2.9 -4.6 0  -2.8 -4.6 0  -2.7 -4.6 0  -2.6 -4.6 0  -2.5 -4.6 0  -2.4 -4.6 0  -2.3 -4.6 0  -2.2 -4.6 0  -2.1 -4.6 0  -2 -4.6 0  -1.9 -4.6 0  -1.8 -4.6 0  -1.7 -4.6 0  -1.6 -4.6 0  -1.5 -4.6 0  -1.4 -4.6 0  -1.3 -4.6 0  -1.2 -4.6 0  -1.1 -4.6 0  -1 -4.6 0  -0.9000000000000004 -4.6 0  -0.7999999999999998 -4.6 0  -0.7000000000000002 -4.6 0  -0.5999999999999996 -4.6 0  -0.5 -4.6 0  -0.4000000000000004 -4.6 0  -0.2999999999999998 -4.6 0  -0.2000000000000002 -4.6 0  -0.09999999999999964 -4.6 0  0 -4.6 0  0.09999999999999964 -4.6 0  0.2000000000000002 -4.6 0  0.2999999999999998 -4.6 0  0.4000000000000004 -4.6 0  0.5 -4.6 0  0.5999999999999996 -4.6 0  0.7000000000000002 -4.6 0  0.7999999999999998 -4.6 0  0.9000000000000004 -4.6 0  1 -4.6 0  1.1 -4.6 0  1.2 -4.6 0  1.3 -4.6 0  1.4 -4.6 0  1.5 -4.6 0  1.6 -4.6 0  1.7 -4.6 0  1.8 -4.6 0  1.9 -4.6 0  2 -4.6 0  2.1 -4.6 0  2.2 -4.6 0  2.3 -4.6 0  2.4 -4.6 0  2.5 -4.6 0  2.6 -4.6 0  2.7 -4.6 0  2.8 -4.6 0  2.9 -4.6 0  3 -4.6 0  3.1 -4.6 0  3.199999999999999 -4.6 0  3.300000000000001 -4.6 0  3.4 -4.6 0  3.5 -4.6 0  3.6 -4.6 0  3.699999999999999 -4.6 0  3.800000000000001 -4.6 0  3.9 -4.6 0  4 -4.6 0  4.1 -4.6 0  4.199999999999999 -4.6 0  4.300000000000001 -4.6 0  4.4 -4.6 0  4.5 -4.6 0  4.6 -4.6 0  4.699999999999999 -4.6 0  4.800000000000001 -4.6 0  4.9 -4.6 0  5 -4.6 0  -5 -4.5 0  -4.9 -4.5 0  -4.8 -4.5 0  -4.7 -4.5 0  -4.6 -4.5 0  -4.5 -4.5 0  -4.4 -4.5 0  -4.3 -4.5 0  -4.2 -4.5 0  -4.1 -4.5 0  -4 -4.5 0  -3.9 -4.5 0  -3.8 -4.5 0  -3.7 -4.5 0  -3.6 -4.5 0  -3.5 -4.5 0  -3.4 -4.5 0  -3.3 -4.5 0  -3.2 -4.5 0  -3.1 -4.5 0  -3 -4.5 0  -2.9 -4.5 0  -2.8 -4.5 0  -2.7 -4.5 0  -2.6 -4.5 0  -2.5 -4.5 0  -2.4 -4.5 0  -2.3 -4.5 0  -2.2 -4.5 0  -2.1 -4.5 0  -2 -4.5 0  -1.9 -4.5 0  -1.8 -4.5 0  -1.7 -4.5 0  -1.6 -4.5 0  -1.5 -4.5 0  -1.4 -4.5 0  -1.3 -4.5 0  -1.2 -4.5 0  -1.1 -4.5 0  -1 -4.5 0  -0.9000000000000004 -4.5 0  -0.7999999999999998 -4.5 0  -0.7000000000000002 -4.5 0  -0.5999999999999996 -4.5 0  -0.5 -4.5 0  -0.4000000000000004 -4.5 0  -0.2999999999999998 -4.5 0  -0.2000000000000002 -4.5 0  -0.09999999999999964 -4.5 0  0 -4.5 0  0.09999999999999964 -4.5 0  0.2000000000000002 -4.5 0  0.2999999999999998 -4.5 0  0.4000000000000004 -4.5 0  0.5 -4.5 0  0.5999999999999996 -4.5 0  0.7000000000000002 -4.5 0  0.7999999999999998 -4.5 0  0.9000000000000004 -4.5 0  1 -4.5 0  1.1 -4.5 0  1.2 -4.5 0  1.3 -4.5 0  1.4 -4.5 0  1.5 -4.5 0  1.6 -4.5 0  1.7 -4.5 0  1.8 -4.5 0  1.9 -4.5 0  2 -4.5 0  2.1 -4.5 0  2.2 -4.5 0  2.3 -4.5 0  2.4 -4.5 0  2.5 -4.5 0  2.6 -4.5 0  2.7 -4.5 0  2.8 -4.5 0  2.9 -4.5 0  3 -4.5 0  3.1 -4.5 0  3.199999999999999 -4.5 0  3.300000000000001 -4.5 0  3.4 -4.5 0  3.5 -4.5 0  3.6 -4.5 0  3.699999999999999 -4.5 0  3.800000000000001 -4.5 0  3.9 -4.5 0  4 -4.5 0  4.1 -4.5 0  4.199999999999999 -4.5 0  4.300000000000001 -4.5 0  4.4 -4.5 0  4.5 -4.5 0  4.6 -4.5 0  4.699999999999999 -4.5 0  4.800000000000001 -4.5 0  4.9 -4.5 0  5 -4.5 0  -5 -4.4 0  -4.9 -4.4 0  -4.8 -4.4 0  -4.7 -4.4 0  -4.6 -4.4 0  -4.5 -4.4 0  -4.4 -4.4 0  -4.3 -4.4 0  -4.2 -4.4 0  -4.1 -4.4 0  -4 -4.4 0  -3.9 -4.4 0  -3.8 -4.4 0  -3.7 -4.4 0  -3.6 -4.4 0  -3.5 -4.4 0  -3.4 -4.4 0  -3.3 -4.4 0  -3.2 -4.4 0  -3.1 -4.4 0  -3 -4.4 0  -2.9 -4.4 0  -2.8 -4.4 0  -2.7 -4.4 0  -2.6 -4.4 0  -2.5 -4.4 0  -2.4 -4.4 0  -2.3 -4.4 0  -2.2 -4.4 0  -2.1 -4.4 0  -2 -4.4 0  -1.9 -4.4 0  -1.8 -4.
[...]
<PointData  Scalars="r"> 
<DataArray  type="Float64"  Name="r"  format="ascii">1.3846371290737547e+00  1.3725998797377383e+00  1.2572384219941590e+00  1.0590358872605958e+00  9.6347443442038971e-01  9.6456924298897995e-01  9.7489370108219631e-01  9.8815719741509001e-01  9.8981093224729688e-01  9.8849434271965253e-01  9.8936076987634303e-01  9.9303678020231512e-01  1.0056608686091781e+00  1.0176032921854365e+00  1.0308046405900719e+00  1.0294230807913252e+00  1.0250341639459386e+00  1.0099828908720567e+00  9.9295487241245117e-01  9.8324769038883975e-01  9.6838661569131479e-01  9.6353129334576926e-01  9.5671267642881153e-01  9.5114496494640599e-01  9.5400542506462849e-01  9.5261531863776572e-01  9.4989423427514053e-01  9.4821129486931632e-01  9.3775008415950989e-01  9.3478283553531449e-01  9.3139886496654190e-01  9.2916617595546103e-01  9.3159604945631558e-01  9.3349244662820763e-01  9.3501595262588200e-01  9.4353749532306630e-01  9.4612321857409643e-01  9.5554806601285791e-01  9.6081391503388469e-01  9.6721660721273339e-01  9.7109311758937755e-01  9.7644371880569281e-01  9.7625397848657602e-01  9.8108945130244618e-01  9.8092759708018640e-01  9.8240132456145168e-01  9.8548617067425770e-01  9.8306477459931529e-01  9.8970622378805440e-01  9.8512665090589802e-01  9.9507140443010578e-01  9.8679052866294714e-01  1.0012902635414473e+00  9.8782750546543086e-01  1.0054549154134005e+00  9.8707301406643710e-01  1.0048997633538843e+00  9.8486710194174287e-01  9.9771064255145669e-01  9.7876467455006677e-01  9.8417828462757273e-01  9.7080714273399582e-01  9.6508861534260160e-01  9.6476457313581965e-01  9.4732581607368294e-01  9.6462919253366919e-01  9.3403466810860325e-01  9.6992574611876869e-01  9.2537944987572396e-01  9.7427408032160545e-01  9.1997763101102870e-01  9.7624201073352257e-01  9.1827919080534615e-01  9.7488371893845749e-01  9.2238969281277228e-01  9.6960152198284733e-01  9.2984843529015182e-01  9.6487452263926266e-01  9.4694395496355044e-01  9.7403121892889033e-01  9.8006395083429754e-01  9.9824781575321875e-01  1.0035181812106466e+00  1.0017710399444344e+00  9.9186112485332811e-01  9.9325870070954081e-01  9.8884756846866351e-01  9.8997695476976733e-01  9.4840116655417805e-01  9.4800367947162967e-01  9.4137684357895546e-01  1.0466913953846464e+00  1.0899290655739056e+00  1.1670324516049206e+00  1.0204979863597512e+00  1.0918495319879378e+00  1.1133242224111681e+00  1.2903252739470439e+00  1.0376778826257023e+00  1.0216216212175431e+00  9.0649211365960247e-01  1.3725998797377374e+00  1.2454587302206175e+00  1.1950868463595499e+00  1.1076779656454421e+00  1.0141708857271574e+00  9.6941089973046224e-01  9.7612149482688759e-01  9.8250306115461383e-01  9.8581249171634489e-01  9.8855841763410268e-01  9.9348552436922677e-01  9.9948164944964701e-01  1.0072211108029192e+00  1.0165814681757044e+00  1.0221236611087159e+00  1.0228641032517001e+00  1.0145041609336487e+00  1.0051582249530324e+00  9.9246958642520600e-01  9.8154156636254841e-01  9.7167222128983211e-01  9.6243936264005348e-01  9.6012395247417881e-01  9.5689151463246491e-01  9.5335582683479880e-01  9.4894947728580936e-01  9.4163495007887321e-01  9.4009163005401175e-01  9.3854422986567565e-01  9.3825911759128622e-01  9.3879069474108479e-01  9.3663773438133457e-01  9.3762683323694795e-01  9.4009991720653741e-01  9.4312309160130858e-01  9.4961839631673284e-01  9.5398789013084551e-01  9.5980482015663626e-01  9.6530061041892656e-01  9.6890964472504038e-01  9.7354439529395942e-01  9.7634723516408839e-01  9.7922647928879103e-01  9.8108014954755962e-01  9.8258088810451194e-01  9.8280345484984322e-01  9.8464155177356383e-01  9.8367205838351746e-01  9.8599828493245467e-01  9.8433758560886198e-01  9.8652657276004585e-01  9.8449796750083951e-01  9.8579321208583270e-01  9.8418583631992507e-01  9.8382085889156012e-01  9.8313877151678719e-01  9.8041377894854609e-01  9.8094346511506425e-01  9.7436000991164895e-01  9.7728840490641511e-01  9.6542889635388618e-01  9.7113554704615312e-01  9.5418674738657794e-01  9.6185320939965580e-01  9.4177117323010751e-01  9.5191243484446264e-01  9.3335813327739281e-01  9.4573637015897594e-01  9.3481647562328163e-01  9.4575405486527908e-01  9.4475445636724376e-01  9.4599155187914719e-01  9.5867510869916017e-01  9.4395373335198285e-01  9.7155050577735269e-01  9.4048253111978874e-01  9.8539641111393772e-01  9.3700131022972288e-01  9.9797736542168902e-01  9.3407275389555011e-01  1.0083630284543561e+00  9.3519738166545996e-01  1.0262087465311867e+00  9.5160791019635327e-01  1.0415102664787943e+00  9.4637109328498970e-01  1.0147288698176335e+00  9.1351398614149137e-01  1.0191063130492948e+00  9.5625641847688025e-01  1.0730929241118483e+00  9.9085754993210196e-01  1.0696391185626368e+00  9.9609984526687467e-01  1.1001691336511163e+00  1.1231678386472452e+00  1.2153022053604989e+00  1.1702396833638855e+00  1.0399815388594040e+00  9.8529902477628506e-01  1.0216216212159006e+00  1.2572384219941672e+00  1.1950868463595485e+00  1.1209653165794295e+00  1.1376763600285471e+00  1.1190658909592768e+00  1.0267879436435319e+00  9.8322250521931953e-01  9.7411948231847922e-01  9.7944161744420399e-01  9.8788260489535906e-01  9.9788096035491458e-01  1.0101558720766488e+00  1.0138635559569436e+00  1.0119229350552523e+00  1.0036966391214983e+00  9.9536917440465289e-01  9.9500406880260173e-01  9.9546723669466330e-01  9.9448568243733293e-01  9.9299808484259411e-01  9.8513038190511459e-01  9.8052969548341240e-01  9.7264195416206756e-01  9.5982534064320535e-01  9.5217109007848255e-01  9.4347157866980935e-01  9.4054121805230073e-01  9.4343952778704077e-01  9.4024916242080447e-01  9.4254245419219951e-01  9.4342578925399245e-01  9.4540735229085149e-01  9.5184359637870630e-01  9.5646000590420477e-01  9.5862787491399126e-01  9.6452611321355386e-01  9.6300889210888152e-01  9.6715237605417026e-01  9.6683964774754239e-01  9.6928114911814567e-01  9.6935099852709339e-01  9.7272427405029205e-01  9.7137751936063832e-01  9.7504670620352962e-01  9.7463769643060560e-01  9.7559424389551541e-01  9.7675662002764885e-01  9.7436559126584521e-01  9.7618332193247581e-01  9.7002817909921568e-01  9.7397898508737890e-01  9.6366795966189123e-01  9.7142085990508875e-01  9.5673617778140951e-01  9.6797423822655038e-01  9.5237250877390456e-01  9.6481933581319235e-01  9.5038704329532109e-01  9.6391246670301778e-01  9.5367751739976714e-01  9.6444904786212216e-01  9.6097602828853468e-01  9.6542655419120993e-01  9.6909865060728639e-01  9.6151900259075496e-01  9.7031635619660250e-01  9.4897907198532416e-01  9.6213650676703522e-01  9.3131165857993581e-01  9.5307657830777570e-01  9.2269687350819829e-01  9.5143794278001315e-01  9.2681024062093398e-01  9.5434275753608777e-01  9.4091276478712238e-01  9.6065156894589721e-01  9.6103035681960336e-01  9.7219778415948799e-01  9.8412363088499322e-01  9.8362320236222966e-01  9.9871831285048596e-01  9.8272007448642640e-01  9.9112499911440044e-01  9.6438624954690177e-01  9.8069130903874591e-01  9.6673296975170731e-01  9.9793409028276292e-01  9.8724203219379070e-01  1.0121658450000270e+00  9.8997582315741206e-01  1.0245509838109601e+00  1.0016864672276726e+00  1.0386028250543893e+00  1.0219489833881932e+00  1.1491615628889893e+00  1.1085207294969526e+00  1.1405437256625139e+00  1.0549810160451498e+00  1.1120838713925609e+00  1.0399815388601001e+00  1.0376778826250823e+00  1.0590358872605936e+00  1.1076779656454454e+00  1.1376763600285438e+00  1.1557325525775692e+00  1.1561057041695537e+00  1.1195498076048374e+00  1.0165966237827695e+00  9.7491052822937552e-01  9.8326437477935846e-01  9.9358458084114221e-01  1.0070752788857500e+00  1.0071822340919303e+00  1.0032728491320186e+00  9.9429686823754049e-01  9.8439037546329755e-01  9.8257731455491848e-01  9.8160432192930980e-01  9.8773183364944883e-01  9.8949599787595643e-01  9.9227736112508136e-01  9.8942981344492531e-01  9.8066260517703441e-01  9.7412241182359405e-01  9.6359440496266746e-01  9.5917599179837942e-01  9.5732439509495115e-01  9.5294944636298695e-01  9.5370097342260474e-01  9.5235839054285221e-01  9.5323138006416275e-01  9.5983548011501518e-01  9.6259509382949138e-01  9.6833905156817057e-01  9.7161398562153212e-01  9.7048660464036929e-01  9.7203178908212740e-01  9.6957058826617748e-01  9.6773072430519991e-01  9.6700829708966229e-01  9.6382909045193532e-01  9.6276091153222076e-01  9.6191199852815346e-01  9.6070650048848649e-01  9.6079994848359174e-01  9.6198708862620985e-01  9.5988634215767354e-01  9.6291848090047660e-01  9.5888006762001798e-01  9.6234792080580578e-01  9.5803973382562979e-01  9.6092790840779851e-01  9.5554203538568161e-01  9.5865293389246931e-01  9.5356690267340982e-01  9.5539163672495953e-01  9.5303435916354895e-01  9.5213305406007298e-01  9.5582182831321605e-01  9.4949737341905016e-01  9.6075192684195931e-01  9.4921352382969593e-01  9.6904720197285965e-01  9.5246817150475616e-01  9.7993334184667569e-01  9.6136387964162506e-01  9.9103341733563832e-01  9.7108526912399173e-01  9.9248155411547911e-01  9.7173130465758317e-01  9.7493615812543089e-01  9.6263533107541399e-01  9.5109085752576250e-01  9.6243923523824781e-01  9.3787295449818542e-01  9.7506546192793653e-01  9.3274578835679867e-01  9.8924046435605195e-01  9.3028142830216709e-01  9.9635966608038318e-01  9.3030989786592333e-01  9.9801080558046873e-01  9.3842439511503739e-01  1.0039659962066261e+00  9.5727909225747543e-01  1.0059597489590077e+00  9.6112269499213565e-01  9.9709433191405750e-01  9.8009922629328616e-01  1.0325833029253209e+00  1.0391690243454799e+00  1.0511175579403851e+00  1.0055266947572017e+00  9.8957431411553343e-01  1.0287291618083849e+00  1.0826809112112072e+00  1.1193769039247696e+00  1.0868736851838314e+00  9.6644979862979452e-01  1.0549810160463513e+00  1.1702396833638817e+00  1.2903252739495341e+00  9.6347443442039149e-01  1.0141708857271619e+00  1.1190658909592737e+00  1.1561057041695544e+00  1.1146420099734573e+00  1.1558387274293531e+00  1.1082549488224165e+00  1.0413119044295394e+00  1.0144110764670708e+00  1.0061565376503854e+00  9.9794884138438489e-01  9.9291640011316062e-01  9.8213274205651291e-01  9.8102533008286141e-01  9.7932351532868034e-01  9.8096603023323248e-01  9.8267425806758890e-01  9.7835985184157126e-01  9.7694588397838977e-01  9.7756251718286313e-01  9.7767708843331480e-01  9.7940863157346492e-01  9.7797188211643571e-01  9.7492636727520354e-01  9.7476526049305912e-01  9.7172340349573394e-01  9.6878518583174122e-01  9.6841348820635997e-01  9.6684272903460389e-01  9.7046906775494868e-01  9.7513734342448954e-01  9.7666888370983573e-01  9.7878908861281577e-01  9.7840735414353652e-01  9.7410344056142506e-01  9.7462703078744972e-01  9.6974187468695294e-01  9.6839371177440869e-01  9.6568055370888939e-01  9.6380806692798016e-01  9.6073902357810059e-01  9.6283435286887886e-01  9.5920611665843891e-01  9.6237638580829166e-01  9.6102156651079274e-01  9.6239977728445059e-01  9.6423211437654488e-01  9.6493600860922313e-01  9.6840035044503769e-01  9.6759626451039871e-01  9.7371942543916279e-01  9.6994022002953328e-01  9.7893749632112814e-01  9.7231492782954609e-01  9.8220517688537456e-01  9.7429211884801070e-01  9.8285129006523875e-01  9.7398311562160633e-01  9.8009836636201020e-01  9.7219048638422678e-01  9.7386906380903493e-01  9.6852244935523912e-01  9.6658990220399188e-01  9.6419831616533569e-01  9.6233300489503293e-01  9.6319099805003772e-01  9.6823376893752533e-01  9.7124924871731966e-01  9.8547144632112049e-01  9.8119575067161369e-01  9.9850927740649753e-01  9.7439948186128555e-01  9.9571611117192660e-01  9.6155541385947774e-01  9.9566485680854466e-01  9.6092347402149469e-01  9.9989124140623220e-01  9.6367362462109929e-01  9.9394067145460319e-01  9.6176048389094737e-01  9.7309949222445080e-01  9.5241832090344913e-01  9.4287455668508202e-01  9.5060351468513349e-01  9.4667381671808182e-01  1.0073183953977571e+00  1.0176277843658024e+00  1.0717914295005433e+00  1.0276590254055846e+00  1.0211568899755505e+00  9.6423752442148347e-01  1.0140202125029516e+00  1.0426221555226796e+00  1.1044747766198744e+00  1.0391115369154564e+00  1.0051997004756392e+00  9.5879190546910997e-01  1.0868736851840908e+00  1.1405437256628475e+00  1.2153022053580413e+00  1.1133242224091882e+00  9.6456924298897684e-01  9.6941089973045913e-01  1.0267879436435341e+00  1.1195498076048376e+00  1.1558387274293525e+00  1.1902664689358842e+00  1.1751646326326279e+00  1.1164795503320180e+00  1.0453481459450580e+00  1.0137393269729116e+00  9.9404391786055957e-01  9.7703372745893469e-01  9.7468451153686630e-01  9.7251284067390675e-01  9.7334168836395230e-01  9.7003286750100370e-01  9.6524518213396415e-01  9.6339810323200248e-01  9.6584608137581773e-01  9.6980618946538177e-01  9.7590441334709188e-01  9.8014878104583381e-01  9.8754396908964026e-01  9.8864307408280327e-01  9.8747001511627341e-01  9.8430571178774262e-01  9.8001757062925166e-01  9.8381377039667761e-01  9.8865140162187015e-01  9.9086566297678436e-01  9.9384314291497300e-01  9.8756974531876873e-01  9.8223625352271049e-01  9.7870775219605133e-01  9.7112563466871671e-01  9.7059218568719552e-01  9.6751419251345405e-01  9.6443489448420117e-01  9.6658833010692091e-01  9.6509244139225558e-01  9.6676368670632540e-01  9.6909045154263984e-01  9.6890617960947911e-01  9.7026546909751477e-01  9.7315924861964942e-01  9.7066506099057936e-01  9.7631576222643035e-01  9.7308490203816500e-01  9.7838320746844287e-01  9.7576890467778210e-01  9.8233969655515296e-01  9.7794100196735922e-01  9.8582704201089244e-01  9.8124755791124529e-01  9.8682513592087173e-01  9.8573791654871701e-01  9.8598354285012713e-01  9.9052957565470601e-01  9.8473978319053257e-01  9.9526732809396268e-01  9.8225051750113135e-01  9.9961369840347103e-01  9.7923013371443735e-01  1.0010096958763348e+00  9.7676866153806763e-01  9.9808511628085028e-01  9.7598438934510801e-01  9.9344168063057781e-01  9.8332832792533298e-01  9.9659017725334365e-01  1.0017211884496411e+00  1.0014053522574882e+00  1.0066526632738466e+00  9.8066104598438841e-01  9.8053776674471227e-01  9.5371173392895259e-01  9.5860396270006631e-01  9.5351099871968081e-01  9.5192516125361015e-01  9.7076037978363361e-01  9.4877053230282327e-01  9.9558776041078356e-01  9.5232024503962920e-01  1.0228673080632742e+00  9.5331613609325749e-01  1.0330105488753356e+00  9.5072596949914590e-01  1.0564314192217468e+00  9.9204550070615116e-01  1.0930966113468703e+00  9.8680813675170320e-01  1.0585129457380094e+00  9.5996863217069739e-01  1.0628527216530415e+00  9.7906708035989698e-01  1.0801832607478266e+00  1.0051997004750766e+00  1.1193769039263990e+00  1.1085207294971942e+00  1.1231678386468584e+00  1.0918495319892365e+00  9.7489370108220186e-01  9.7612149482689059e-01  9.8322250521932397e-01  1.0165966237827697e+00  1.1082549488224105e+00  1.1751646326326242e+00  1.1947634508249230e+00  1.1783619347429342e+00  1.0842528472865500e+00  1.0409243129900514e+00  1.0230173786190937e+00  9.9689928380784198e-01  9.7301405153312048e-01  9.6718178509728192e-01  9.5885190207034732e-01  9.5846034844943351e-01  9.6270336556935487e-01  9.6642647014264371e-01  9.7140885251873510e-01  9.6920213679583123e-01  9.6738669589431181e-01  9.6791527975093805e-01  9.7121341886395129e-01  9.7601264249277342e-01  9.8723772203889237e-01  1.0001795600976104e+00  1.0130094981768132e+00  1.0200235949845053e+00  1.0173326772677886e+00  1.0067500324931260e+00  9.9702702979015423e-01  9.8542076405363377e-01  9.7826706938878749e-01  9.7463253588171950e-01  9.6760367721238350e-01  9.6856049371766184e-01  9.6690671688359098e-01  9.6834196647516657e-01  9.7149591117998202e-01  9.7350739376365503e-01  9.7315208450838131e-01  9.7732298658694317e-01  9.7363356484253460e-01  9.7647680458479313e-01  9.7487497076094554e-01  9.7418897499512047e-01  9.7443489513332782e-01  9.7357500655719997e-01  9.7380136989360433e-01  9.7310759767179955e-01  9.7466442902476769e-01  9.7167285502960465e-01  9.7605730954399239e-01  9.7203558602795026e-01  9.7655057167551551e-01  9.7460684436074230e-01  9.7768825510526780e-01  9.7829555364314280e-01  9.7986223716131815e-01  9.8361092952655582e-01  9.8394443346206450e-01  9.9003069959329748e-01  9.9080362778619002e-01  9.9570760307924544e-01  9.9914332993922206e-01  9.9682496399260134e-01  1.0050814866485589e+00  9.8829838137153680e-01  1.0034153742459699e+00  9.7308811909887449e-01  1.0035991639842370e+00  9.7372344694960877e-01  1.0203697447352347e+00  9.8945656014874361e-01  1.0237004786567052e+00  9.7561956800652561e-01  9.8502826416570577e-01  9.4900899550457429e-01  9.4575906288341838e-01  9.4330629168272440e-01  9.2702295876699214e-01  9.5714174931147833e-01  9.3973548032582876e-01  1.0019398698199813e+00  9.9814964147135044e-01  1.0640940657337254e+00  1.0442049311333568e+00  1.0489892356491415e+00  9.8044950987712431e-01  9.5818644325606539e-01  9.6264570520000781e-01  1.0312040854766915e+00  1.0884141053012786e+00  1.0851949471211044e+00  1.0433328807014397e+00  9.7906708035881951e-01  1.0391115369180384e+00  1.0826809112100277e+00  1.1491615628891712e+00  1.1001691336504769e+00  1.0204979863593953e+00  9.8815719741509123e-01  9.8250306115460939e-01  9.7411948231847523e-01  9.7491052822937074e-01  1.0413119044295385e+00  1.1164795503320144e+00  1.1783619347429328e+00  1.2602085642012177e+00  1.1687296735062835e+00  1.0472966020034180e+00  1.0218110502727880e+00  1.0125036738915207e+00  9.9254653928476955e-01  9.6603525122079759e-01  9.5767770534366159e-01  9.5760771233665665e-01  9.6250792511914351e-01  9.6186728049909609e-01  9.5852710638719762e-01  9.5857220465403037e-01  9.6043852100014460e-01  9.6497551194516140e-01  9.7348967372598838e-01  9.8420946905248230e-01  1.0017185429514928e+00  1.0149847512624952e+00  1.0207558793056304e+00  1.0200733847960834e+00  1.0144932808067939e+00  1.0071417209302327e+00  1.0037188869309381e+00  9.9608903110608860e-01  9.9091927183571027e-01  9.8925912891834245e-01  9.8559135436838718e-01  9.8778993772753099e-01  9.8874338202168022e-01  9.8522846960107802e-01  9.8524013351698780e-01  9.8045676177142915e-01  9.7592593134439254e-01  9.7542634051892363e-01  9.7118573624905657e-01  9.6889557689908934e-01  9.7063567731458533e-01  9.6548770789904337e-01  9.6958257832208328e-01  9.6588827356095308e-01  9.6918021108758157e-01  9.6505020131941144e-01  9.7098595802570697e-01  9.6418856197907588e-01  9.7240075548316762e-01  9.6602830126941996e-01  9.7217538575942897e-01  9.6985997825904202e-01  9.7196016954144404e-01  9.7416978744424720e-01  9.7162651283130030e-01  9.7945562090299276e-01  9.7034653633561907e-01  9.8401917117552451e-01  9.6999107940500728e-01  9.8578390134483229e-01  9.7223950784418633e-01  9.8638076757373372e-01  9.7744665236170847e-01  9.8698688822062608e-01  9.8261584662931500e-01  9.7948614197287598e-01  9.7393491469307070e-01  9.6225663173003417e-01  9.6149856652662880e-01  9.6757622365053275e-01  9.7356652872019933e-01  9.9678075048636872e-01  9.7618705388318472e-01  9.9703164079736750e-01  9.5189846915113074e-01  9.9934019788309691e-01  9.5692674727191895e-01  1.0283130083055114e+00  9.8796720981284492e-01  1.0395498525018236e+00  9.9064140370640164e-01  9.9340875059349920e-01  9.6508231914711073e-01  9.5455281273742609e-01  9.9723787613519610e-01  9.9377287400259984e-01  1.0705383805588877e+00  1.0282236988732494e+00  1.0845105405781978e+00  1.0121882345770572e+00  1.0851949471217890e+00  1.0628527216535377e+00  1.1044747766181287e+00  1.0287291618080137e+00  1.0219489833870712e+00  9.9609984526695039e-01  1.1670324516065000e+00  9.8981093224729866e-01  9.8581249171634433e-01  9.7944161744420444e-01  9.8326437477935225e-01  1.0144110764670733e+00  1.0453481459450580e+00  1.0842528472865456e+00  1.1687296735062804e+00  1.2454067559862434e+00  1.1318181273087087e+00  1.0076873992458351e+00  1.0032845562836057e+00  1.0191539321374803e+00  1.0137419930111142e+00  9.8994281023553277e-01  9.6931071554955572e-01  9.5496964248850291e-01  9.4488187587877437e-01  9.4838226657954627e-01  9.5365378762423481e-01  9.6248599483492170e-01  9.7692211850355426e-01  9