<?xml version="1.0"?>
<VTKFile type="UnstructuredGrid"  version="0.1"  >
<UnstructuredGrid>
<Piece  NumberOfPoints="10201" NumberOfCells="20000">
<Points>
<DataArray  type="Float64"  NumberOfComponents="3"  format="ascii">-5 -5 0  -4.9 -5 0  -4.8 -5 0  -4.7 -5 0  -4.6 -5 0  -4.5 -5 0  -4.4 -5 0  -4.3 -5 0  -4.2 -5 0  -4.1 -5 0  -4 -5 0  -3.9 -5 0  -3.8 -5 0  -3.7 -5 0  -3.6 -5 0  -3.5 -5 0  -3.4 -5 0  -3.3 -5 0  -3.2 -5 0  -3.1 -5 0  -3 -5 0  -2.9 -5 0  -2.8 -5 0  -2.7 -5 0  -2.6 -5 0  -2.5 -5 0  -2.4 -5 0  -2.3 -5 0  -2.2 -5 0  -2.1 -5 0  -2 -5 0  -1.9 -5 0  -1.8 -5 0  -1.7 -5 0  -1.6 -5 0  -1.5 -5 0  -1.4 -5 0  -1.3 -5 0  -1.2 -5 0  -1.1 -5 0  -1 -5 0  -0.9000000000000004 -5 0  -0.7999999999999998 -5 0  -0.7000000000000002 -5 0  -0.5999999999999996 -5 0  -0.5 -5 0  -0.4000000000000004 -5 0  -0.2999999999999998 -5 0  -0.2000000000000002 -5 0  -0.09999999999999964 -5 0  0 -5 0  0.09999999999999964 -5 0  0.2000000000000002 -5 0  0.2999999999999998 -5 0  0.4000000000000004 -5 0  0.5 -5 0  0.5999999999999996 -5 0  0.7000000000000002 -5 0  0.7999999999999998 -5 0  0.9000000000000004 -5 0  1 -5 0  1.1 -5 0  1.2 -5 0  1.3 -5 0  1.4 -5 0  1.5 -5 0  1.6 -5 0  1.7 -5 0  1.8 -5 0  1.9 -5 0  2 -5 0  2.1 -5 0  2.2 -5 0  2.3 -5 0  2.4 -5 0  2.5 -5 0  2.6 -5 0  2.7 -5 0  2.8 -5 0  2.9 -5 0  3 -5 0  3.1 -5 0  3.199999999999999 -5 0  3.300000000000001 -5 0  3.4 -5 0  3.5 -5 0  3.6 -5 0  3.699999999999999 -5 0  3.800000000000001 -5 0  3.9 -5 0  4 -5 0  4.1 -5 0  4.199999999999999 -5 0  4.300000000000001 -5 0  4.4 -5 0  4.5 -5 0  4.6 -5 0  4.699999999999999 -5 0  4.800000000000001 -5 0  4.9 -5 0  5 -5 0  -5 -4.9 0  -4.9 -4.9 0  -4.8 -4.9 0  -4.7 -4.9 0  -4.6 -4.9 0  -4.5 -4.9 0  -4.4 -4.9 0  -4.3 -4.9 0  -4.2 -4.9 0  -4.1 -4.9 0  -4 -4.9 0  -3.9 -4.9 0  -3.8 -4.9 0  -3.7 -4.9 0  -3.6 -4.9 0  -3.5 -4.9 0  -3.4 -4.9 0  -3.3 -4.9 0  -3.2 -4.9 0  -3.1 -4.9 0  -3 -4.9 0  -2.9 -4.9 0  -2.8 -4.9 0  -2.7 -4.9 0  -2.6 -4.9 0  -2.5 -4.9 0  -2.4 -4.9 0  -2.3 -4.9 0  -2.2 -4.9 0  -2.1 -4.9 0  -2 -4.9 0  -1.9 -4.9 0  -1.8 -4.9 0  -1.7 -4.9 0  -1.6 -4.9 0  -1.5 -4.9 0  -1.4 -4.9 0  -1.3 -4.9 0  -1.2 -4.9 0  -1.1 -4.9 0  -1 -4.9 0  -0.9000000000000004 -4.9 0  -0.7999999999999998 -4.9 0  -0.7000000000000002 -4.9 0  -0.5999999999999996 -4.9 0  -0.5 -4.9 0  -0.4000000000000004 -4.9 0  -0.2999999999999998 -4.9 0  -0.2000000000000002 -4.9 0  -0.09999999999999964 -4.9 0  0 -4.9 0  0.09999999999999964 -4.9 0  0.2000000000000002 -4.9 0  0.2999999999999998 -4.9 0  0.4000000000000004 -4.9 0  0.5 -4.9 0  0.5999999999999996 -4.9 0  0.7000000000000002 -4.9 0  0.7999999999999998 -4.9 0  0.9000000000000004 -4.9 0  1 -4.9 0  1.1 -4.9 0  1.2 -4.9 0  1.3 -4.9 0  1.4 -4.9 0  1.5 -4.9 0  1.6 -4.9 0  1.7 -4.9 0  1.8 -4.9 0  1.9 -4.9 0  2 -4.9 0  2.1 -4.9 0  2.2 -4.9 0  2.3 -4.9 0  2.4 -4.9 0  2.5 -4.9 0  2.6 -4.9 0  2.7 -4.9 0  2.8 -4.9 0  2.9 -4.9 0  3 -4.9 0  3.1 -4.9 0  3.199999999999999 -4.9 0  3.300000000000001 -4.9 0  3.4 -4.9 0  3.5 -4.9 0  3.6 -4.9 0  3.699999999999999 -4.9 0  3.800000000000001 -4.9 0  3.9 -4.9 0  4 -4.9 0  4.1 -4.9 0  4.199999999999999 -4.9 0  4.300000000000001 -4.9 0  4.4 -4.9 0  4.5 -4.9 0  4.6 -4.9 0  4.699999999999999 -4.9 0  4.800000000000001 -4.9 0  4.9 -4.9 0  5 -4.9 0  -5 -4.8 0  -4.9 -4.8 0  -4.8 -4.8 0  -4.7 -4.8 0  -4.6 -4.8 0  -4.5 -4.8 0  -4.4 -4.8 0  -4.3 -4.8 0  -4.2 -4.8 0  -4.1 -4.8 0  -4 -4.8 0  -3.9 -4.8 0  -3.8 -4.8 0  -3.7 -4.8 0  -3.6 -4.8 0  -3.5 -4.8 0  -3.4 -4.8 0  -3.3 -4.8 0  -3.2 -4.8 0  -3.1 -4.8 0  -3 -4.8 0  -2.9 -4.8 0  -2.8 -4.8 0  -2.7 -4.8 0  -2.6 -4.8 0  -2.5 -4.8 0  -2.4 -4.8 0  -2.3 -4.8 0  -2.2 -4.8 0  -2.1 -4.8 0  -2 -4.8 0  -1.9 -4.8 0  -1.8 -4.8 0  -1.7 -4.8 0  -1.6 -4.8 0  -1.5 -4.8 0  -1.4 -4.8 0  -1.3 -4.8 0  -1.2 -4.8 0  -1.1 -4.8 0  -1 -4.8 0  -0.9000000000000004 -4.8 0  -0.7999999999999998 -4.8 0  -0.7000000000000002 -4.8 0  -0.5999999999999996 -4.8 0  -0.5 -4.8 0  -0.4000000000000004 -4.8 0  -0.2999999999999998 -4.8 0  -0.2000000000000002 -4.8 0  -0.09999999999999964 -4.8 0  0 -4.8 0  0.09999999999999964 -4.8 0  0.2000000000000002 -4.8 0  0.2999999999999998 -4.8 0  0.4000000000000004 -4.8 0  0.5 -4.8 0  0.5999999999999996 -4.8 0  0.7000000000000002 -4.8 0  0.7999999999999998 -4.8 0  0.9000000000000004 -4.8 0  1 -4.8 0  1.1 -4.8 0  1.2 -4.8 0  1.3 -4.8 0  1.4 -4.8 0  1.5 -4.8 0  1.6 -4.8 0  1.7 -4.8 0  1.8 -4.8 0  1.9 -4.8 0  2 -4.8 0  2.1 -4.8 0  2.2 -4.8 0  2.3 -4.8 0  2.4 -4.8 0  2.5 -4.8 0  2.6 -4.8 0  2.7 -4.8 0  2.8 -4.8 0  2.9 -4.8 0  3 -4.8 0  3.1 -4.8 0  3.199999999999999 -4.8 0  3.300000000000001 -4.8 0  3.4 -4.8 0  3.5 -4.8 0  3.6 -4.8 0  3.699999999999999 -4.8 0  3.800000000000001 -4.8 0  3.9 -4.8 0  4 -4.8 0  4.1 -4.8 0  4.199999999999999 -4.8 0  4.300000000000001 -4.8 0  4.4 -4.8 0  4.5 -4.8 0  4.6 -4.8 0  4.699999999999999 -4.8 0  4.800000000000001 -4.8 0  4.9 -4.8 0  5 -4.8 0  -5 -4.7 0  -4.9 -4.7 0  -4.8 -4.7 0  -4.7 -4.7 0  -4.6 -4.7 0  -4.5 -4.7 0  -4.4 -4.7 0  -4.3 -4.7 0  -4.2 -4.7 0  -4.1 -4.7 0  -4 -4.7 0  -3.9 -4.7 0  -3.8 -4.7 0  -3.7 -4.7 0  -3.6 -4.7 0  -3.5 -4.7 0  -3.4 -4.7 0  -3.3 -4.7 0  -3.2 -4.7 0  -3.1 -4.7 0  -3 -4.7 0  -2.9 -4.7 0  -2.8 -4.7 0  -2.7 -4.7 0  -2.6 -4.7 0  -2.5 -4.7 0  -2.4 -4.7 0  -2.3 -4.7 0  -2.2 -4.7 0  -2.1 -4.7 0  -2 -4.7 0  -1.9 -4.7 0  -1.8 -4.7 0  -1.7 -4.7 0  -1.6 -4.7 0  -1.5 -4.7 0  -1.4 -4.7 0  -1.3 -4.7 0  -1.2 -4.7 0  -1.1 -4.7 0  -1 -4.7 0  -0.9000000000000004 -4.7 0  -0.7999999999999998 -4.7 0  -0.7000000000000002 -4.7 0  -0.5999999999999996 -4.7 0  -0.5 -4.7 0  -0.4000000000000004 -4.7 0  -0.2999999999999998 -4.7 0  -0.2000000000000002 -4.7 0  -0.09999999999999964 -4.7 0  0 -4.7 0  0.09999999999999964 -4.7 0  0.2000000000000002 -4.7 0  0.2999999999999998 -4.7 0  0.4000000000000004 -4.7 0  0.5 -4.7 0  0.5999999999999996 -4.7 0  0.7000000000000002 -4.7 0  0.7999999999999998 -4.7 0  0.9000000000000004 -4.7 0  1 -4.7 0  1.1 -4.7 0  1.2 -4.7 0  1.3 -4.7 0  1.4 -4.7 0  1.5 -4.7 0  1.6 -4.7 0  1.7 -4.7 0  1.8 -4.7 0  1.9 -4.7 0  2 -4.7 0  2.1 -4.7 0  2.2 -4.7 0  2.3 -4.7 0  2.4 -4.7 0  2.5 -4.7 0  2.6 -4.7 0  2.7 -4.7 0  2.8 -4.7 0  2.9 -4.7 0  3 -4.7 0  3.1 -4.7 0  3.199999999999999 -4.7 0  3.300000000000001 -4.7 0  3.4 -4.7 0  3.5 -4.7 0  3.6 -4.7 0  3.699999999999999 -4.7 0  3.800000000000001 -4.7 0  3.9 -4.7 0  4 -4.7 0  4.1 -4.7 0  4.199999999999999 -4.7 0  4.300000000000001 -4.7 0  4.4 -4.7 0  4.5 -4.7 0  4.6 -4.7 0  4.699999999999999 -4.7 0  4.800000000000001 -4.7 0  4.9 -4.7 0  5 -4.7 0  -5 -4.6 0  -4.9 -4.6 0  -4.8 -4.6 0  -4.7 -4.6 0  -4.6 -4.6 0  -4.5 -4.6 0  -4.4 -4.6 0  -4.3 -4.6 0  -4.2 -4.6 0  -4.1 -4.6 0  -4 -4.6 0  -3.9 -4.6 0  -3.8 -4.6 0  -3.7 -4.6 0  -3.6 -4.6 0  -3.5 -4.6 0  -3.4 -4.6 0  -3.3 -4.6 0  -3.2 -4.6 0  -3.1 -4.6 0  -3 -4.6 0  -2.9 -4.6 0  -2.8 -4.6 0  -2.7 -4.6 0  -2.6 -4.6 0  -2.5 -4.6 0  -2.4 -4.6 0  -2.3 -4.6 0  -2.2 -4.6 0  -2.1 -4.6 0  -2 -4.6 0  -1.9 -4.6 0  -1.8 -4.6 0  -1.7 -4.6 0  -1.6 -4.6 0  -1.5 -4.6 0  -1.4 -4.6 0  -1.3 -4.6 0  -1.2 -4.6 0  -1.1 -4.6 0  -1 -4.6 0  -0.9000000000000004 -4.6 0  -0.7999999999999998 -4.6 0  -0.7000000000000002 -4.6 0  -0.5999999999999996 -4.6 0  -0.5 -4.6 0  -0.4000000000000004 -4.6 0  -0.2999999999999998 -4.6 0  -0.2000000000000002 -4.6 0  -0.09999999999999964 -4.6 0  0 -4.6 0  0.09999999999999964 -4.6 0  0.2000000000000002 -4.6 0  0.2999999999999998 -4.6 0  0.4000000000000004 -4.6 0  0.5 -4.6 0  0.5999999999999996 -4.6 0  0.7000000000000002 -4.6 0  0.7999999999999998 -4.6 0  0.9000000000000004 -4.6 0  1 -4.6 0  1.1 -4.6 0  1.2 -4.6 0  1.3 -4.6 0  1.4 -4.6 0  1.5 -4.6 0  1.6 -4.6 0  1.7 -4.6 0  1.8 -4.6 0  1.9 -4.6 0  2 -4.6 0  2.1 -4.6 0  2.2 -4.6 0  2.3 -4.6 0  2.4 -4.6 0  2.5 -4.6 0  2.6 -4.6 0  2.7 -4.6 0  2.8 -4.6 0  2.9 -4.6 0  3 -4.6 0  3.1 -4.6 0  3.199999999999999 -4.6 0  3.300000000000001 -4.6 0  3.4 -4.6 0  3.5 -4.6 0  3.6 -4.6 0  3.699999999999999 -4.6 0  3.800000000000001 -4.6 0  3.9 -4.6 0  4 -4.6 0  4.1 -4.6 0  4.199999999999999 -4.6 0  4.300000000000001 -4.6 0  4.4 -4.6 0  4.5 -4.6 0  4.6 -4.6 0  4.699999999999999 -4.6 0  4.800000000000001 -4.6 0  4.9 -4.6 0  5 -4.6 0  -5 -4.5 0  -4.9 -4.5 0  -4.8 -4.5 0  -4.7 -4.5 0  -4.6 -4.5 0  -4.5 -4.5 0  -4.4 -4.5 0  -4.3 -4.5 0  -4.2 -4.5 0  -4.1 -4.5 0  -4 -4.5 0  -3.9 -4.5 0  -3.8 -4.5 0  -3.7 -4.5 0  -3.6 -4.5 0  -3.5 -4.5 0  -3.4 -4.5 0  -3.3 -4.5 0  -3.2 -4.5 0  -3.1 -4.5 0  -3 -4.5 0  -2.9 -4.5 0  -2.8 -4.5 0  -2.7 -4.5 0  -2.6 -4.5 0  -2.5 -4.5 0  -2.4 -4.5 0  -2.3 -4.5 0  -2.2 -4.5 0  -2.1 -4.5 0  -2 -4.5 0  -1.9 -4.5 0  -1.8 -4.5 0  -1.7 -4.5 0  -1.6 -4.5 0  -1.5 -4.5 0  -1.4 -4.5 0  -1.3 -4.5 0  -1.2 -4.5 0  -1.1 -4.5 0  -1 -4.5 0  -0.9000000000000004 -4.5 0  -0.7999999999999998 -4.5 0  -0.7000000000000002 -4.5 0  -0.5999999999999996 -4.5 0  -0.5 -4.5 0  -0.4000000000000004 -4.5 0  -0.2999999999999998 -4.5 0  -0.2000000000000002 -4.5 0  -0.09999999999999964 -4.5 0  0 -4.5 0  0.09999999999999964 -4.5 0  0.2000000000000002 -4.5 0  0.2999999999999998 -4.5 0  0.4000000000000004 -4.5 0  0.5 -4.5 0  0.5999999999999996 -4.5 0  0.7000000000000002 -4.5 0  0.7999999999999998 -4.5 0  0.9000000000000004 -4.5 0  1 -4.5 0  1.1 -4.5 0  1.2 -4.5 0  1.3 -4.5 0  1.4 -4.5 0  1.5 -4.5 0  1.6 -4.5 0  1.7 -4.5 0  1.8 -4.5 0  1.9 -4.5 0  2 -4.5 0  2.1 -4.5 0  2.2 -4.5 0  2.3 -4.5 0  2.4 -4.5 0  2.5 -4.5 0  2.6 -4.5 0  2.7 -4.5 0  2.8 -4.5 0  2.9 -4.5 0  3 -4.5 0  3.1 -4.5 0  3.199999999999999 -4.5 0  3.300000000000001 -4.5 0  3.4 -4.5 0  3.5 -4.5 0  3.6 -4.5 0  3.699999999999999 -4.5 0  3.800000000000001 -4.5 0  3.9 -4.5 0  4 -4.5 0  4.1 -4.5 0  4.199999999999999 -4.5 0  4.300000000000001 -4.5 0  4.4 -4.5 0  4.5 -4.5 0  4.6 -4.5 0  4.699999999999999 -4.5 0  4.800000000000001 -4.5 0  4.9 -4.5 0  5 -4.5 0  -5 -4.4 0  -4.9 -4.4 0  -4.8 -4.4 0  -4.7 -4.4 0  -4.6 -4.4 0  -4.5 -4.4 0  -4.4 -4.4 0  -4.3 -4.4 0  -4.2 -4.4 0  -4.1 -4.4 0  -4 -4.4 0  -3.9 -4.4 0  -3.8 -4.4 0  -3.7 -4.4 0  -3.6 -4.4 0  -3.5 -4.4 0  -3.4 -4.4 0  -3.3 -4.4 0  -3.2 -4.4 0  -3.1 -4.4 0  -3 -4.4 0  -2.9 -4.4 0  -2.8 -4.4 0  -2.7 -4.4 0  -2.6 -4.4 0  -2.5 -4.4 0  -2.4 -4.4 0  -2.3 -4.4 0  -2.2 -4.4 0  -2.1 -4.4 0  -2 -4.4 0  -1.9 -4.4 0  -1.8 -4.
[...]
<PointData  Scalars="r"> 
<DataArray  type="Float64"  Name="r"  format="ascii">9.5783505295109173e-01  9.7621933644497427e-01  1.0100656211521586e+00  1.0136816297017643e+00  1.0532755705182286e+00  1.1950446858641943e+00  1.2602415683758164e+00  1.1218321777703819e+00  1.0139847882851551e+00  1.0177148887388170e+00  1.0298433018073427e+00  1.0187953810305679e+00  1.0043294064892416e+00  9.9119737843182132e-01  9.7718591277224021e-01  9.6922392055687423e-01  9.6027811725424250e-01  9.5672696592899742e-01  9.5305325661406426e-01  9.5290048638558944e-01  9.4379894285123433e-01  9.4367102835879335e-01  9.3869500278910278e-01  9.3792320495489034e-01  9.4089113461875584e-01  9.3520487539015917e-01  9.3793539447618712e-01  9.4355671981054268e-01  9.4848378068124528e-01  9.6667513013645989e-01  9.7368471658039291e-01  9.8520386604823074e-01  9.9451281258363489e-01  9.9685574721687109e-01  1.0029300733305988e+00  1.0040697748324743e+00  1.0025165534988802e+00  1.0020140854772834e+00  1.0005654373625936e+00  9.9388238536940188e-01  9.9903311792202942e-01  9.8806148625572454e-01  9.9587110591323602e-01  9.8524771356030771e-01  9.9173330917427238e-01  9.8240805129988107e-01  9.8770434131211660e-01  9.8033219416521056e-01  9.8176562087472841e-01  9.8016538446135437e-01  9.7337081413638182e-01  9.8062523868978335e-01  9.6647020902170933e-01  9.8047005267328857e-01  9.6171791309677124e-01  9.7937256263827821e-01  9.6073071066244820e-01  9.7595386388564709e-01  9.6552628064322932e-01  9.7133034665967766e-01  9.7825666818264834e-01  9.6982719541310947e-01  9.9732320708565458e-01  9.7503814275294998e-01  1.0187560216042739e+00  9.8330504454049372e-01  1.0283963465813377e+00  9.8172496831829947e-01  1.0093373407215276e+00  9.6105910620876900e-01  9.6339627353807289e-01  9.4345071234741207e-01  9.2216153952495161e-01  9.5002519430844456e-01  9.0062286587597906e-01  9.7163115711905201e-01  8.8871743345384813e-01  9.9460062552635164e-01  8.8878802257995515e-01  1.0118810505008105e+00  8.9986272889352548e-01  1.0209968109940251e+00  9.0750731064556189e-01  1.0196402827100197e+00  9.1923068691111476e-01  1.0266223510585566e+00  9.3357025391417758e-01  1.0474495980962104e+00  9.2914838423643498e-01  1.0339350073864924e+00  9.4957272585340735e-01  1.1476303905723020e+00  1.1019196205542194e+00  1.1644891668456696e+00  9.7985145382574090e-01  1.0482776517561507e+00  1.0275279146747853e+00  1.1116030779958166e+00  1.0641978654269828e+00  1.0182541584954654e+00  9.0737658576820546e-01  9.7621933644497039e-01  9.3846094241071243e-01  9.9384537224342950e-01  1.0646823354041735e+00  1.1403151249629642e+00  1.1290945906249983e+00  1.1566139034653109e+00  1.1444781204517158e+00  1.0658695418544621e+00  1.0180799776370555e+00  1.0188649958063196e+00  1.0152916236960170e+00  1.0012896316415347e+00  9.9072854989301318e-01  9.7587659419378814e-01  9.6853933353193788e-01  9.6335536317895132e-01  9.6055942803329830e-01  9.5742398560646569e-01  9.5273229949812765e-01  9.4989216211156902e-01  9.4684570347007757e-01  9.4401352617604994e-01  9.3708297317820610e-01  9.3444499088424826e-01  9.3443208298690505e-01  9.4073785571490320e-01  9.4934236640305625e-01  9.5563982175772100e-01  9.6302946548889867e-01  9.7028166815414763e-01  9.7724168659101351e-01  9.8632531883040786e-01  9.9092695638747696e-01  9.9466536142990225e-01  9.9637408371821712e-01  9.9567115962407449e-01  9.9531525116183917e-01  9.9547757439240259e-01  9.9357183616463063e-01  9.9440729328324917e-01  9.9339718729209092e-01  9.9277008969293901e-01  9.9340043806084388e-01  9.9218460817788268e-01  9.9338390135616106e-01  9.9199582437672196e-01  9.9345995501541451e-01  9.9033800569770136e-01  9.9387308922320106e-01  9.8920061135816439e-01  9.9378163147347165e-01  9.8896410077349151e-01  9.9242454929845003e-01  9.9050938154725054e-01  9.9025873554376609e-01  9.9265315600873560e-01  9.8882685961189531e-01  9.9578934727825408e-01  9.8728375770888721e-01  9.9811906229755887e-01  9.8605858070914076e-01  9.9744902968215843e-01  9.8532349301589750e-01  9.9238510890148990e-01  9.8752464228238324e-01  9.8458710852091047e-01  9.9450015373607692e-01  9.7709044833861058e-01  1.0021018304049891e+00  9.6295723568861769e-01  9.9709028903022390e-01  9.3645641321034512e-01  9.8253593131205352e-01  9.1786223490405816e-01  9.7517748636134871e-01  9.2102339666250155e-01  9.7104750935056738e-01  9.3149932525758972e-01  9.6364716609185830e-01  9.4393970511582803e-01  9.5367255415320362e-01  9.6311937076653831e-01  9.5648629048903366e-01  9.8440150504997648e-01  9.6452140461657832e-01  1.0076475151355544e+00  9.7491918971600999e-01  1.0060649653370335e+00  9.8669191037348303e-01  1.0076039806929027e+00  1.0440927333608547e+00  1.1127476919832016e+00  1.1927587868215648e+00  1.0708474474428678e+00  1.0671573866871640e+00  9.6210562260898069e-01  1.0282034305060364e+00  1.0552160657774909e+00  1.0399125587991569e+00  1.0182541584962412e+00  1.0100656211521559e+00  9.9384537224342928e-01  1.0079964708004399e+00  1.0433988400248888e+00  1.1118874707756106e+00  1.1289511968078205e+00  1.0854943309678662e+00  1.1140746016386813e+00  1.1155004796782899e+00  1.0331169435019465e+00  9.9814630556226891e-01  9.9341339955409513e-01  9.9985499650983534e-01  9.9388674300903934e-01  9.8495653150014328e-01  9.8247247011100591e-01  9.7194817274790379e-01  9.6405719868857942e-01  9.5512641279989496e-01  9.5012054876950591e-01  9.4597088270136642e-01  9.4696391079140796e-01  9.4347072891010819e-01  9.4565841988368760e-01  9.5174342863329742e-01  9.5441167917728797e-01  9.6024989762831670e-01  9.6229410870465937e-01  9.6120637327430314e-01  9.6820368372255450e-01  9.6856261218081663e-01  9.7173203280733333e-01  9.7304656747239737e-01  9.7109592192633476e-01  9.7239897551035526e-01  9.7559190617451619e-01  9.7696424247794300e-01  9.8135757573790849e-01  9.8587538107981842e-01  9.8409650443889274e-01  9.9335326224376086e-01  9.8742913385335562e-01  9.9754344732224864e-01  9.9192149859416856e-01  1.0015601430275007e+00  9.9519348597616375e-01  1.0055208721824600e+00  1.0003507160406233e+00  1.0079297786826427e+00  1.0085352585009262e+00  1.0083142379708323e+00  1.0173302258950445e+00  1.0086163424927952e+00  1.0246086719571885e+00  1.0092432459005982e+00  1.0296291135011642e+00  1.0108556150968282e+00  1.0294101673906428e+00  1.0129931167246466e+00  1.0236112216966702e+00  1.0132665423017795e+00  1.0108763838829118e+00  1.0092740417773369e+00  9.9183470236729587e-01  9.9756856370992664e-01  9.6835820999269351e-01  9.8171068382073057e-01  9.4975462293207003e-01  9.7112158565191142e-01  9.5107018698667045e-01  9.7817751585495250e-01  9.6904077195373106e-01  9.8598159372484218e-01  9.7329250338674411e-01  9.7081102175616962e-01  9.5773246875280560e-01  9.5603596228918986e-01  9.4876868702614603e-01  9.5976761029582824e-01  9.4400383130614851e-01  9.6851352678447544e-01  9.3880361500448517e-01  9.7875906307510296e-01  9.3421915680606959e-01  9.9364921082580826e-01  9.4503395010324343e-01  1.0147284902525691e+00  9.4369714744914190e-01  1.0311125450907759e+00  9.5480932398069418e-01  1.0879818502055594e+00  1.0232743238975024e+00  1.1489114041557773e+00  1.0784156647228447e+00  1.1112418562216886e+00  1.0181290289525868e+00  1.0341475650858059e+00  1.0189194678347879e+00  1.0694860499802923e+00  1.0552160657765048e+00  1.0641978654259663e+00  1.0136816297017734e+00  1.0646823354041708e+00  1.0433988400248879e+00  1.1008756853971662e+00  1.0741273141568464e+00  1.0674750810880977e+00  1.0219165098028338e+00  1.0463252796227285e+00  1.1027809723640589e+00  1.0923446988988301e+00  1.0024566113752997e+00  9.8104640580689362e-01  9.8902828051026004e-01  9.9663946598276754e-01  9.9535373781913761e-01  9.8830064217772184e-01  9.7714080904882739e-01  9.6647700259858293e-01  9.5822067731018523e-01  9.5415871703451494e-01  9.5041067441174265e-01  9.4855513857107354e-01  9.5226891139556469e-01  9.5593617263537256e-01  9.6375666279705507e-01  9.6865567450535162e-01  9.7072292057412013e-01  9.7411600275161425e-01  9.7315878740352446e-01  9.7109896073641833e-01  9.6876738255365991e-01  9.6058340325588643e-01  9.5991491080438063e-01  9.5730127967126444e-01  9.5928896968564115e-01  9.6486403436987400e-01  9.6842992850120480e-01  9.7370112007183596e-01  9.8030223649920312e-01  9.8166129149996406e-01  9.8808762273154016e-01  9.8937322192443800e-01  9.9044938641370606e-01  9.9340576026359473e-01  9.9135224654771947e-01  9.9454125145916605e-01  9.9260259166387643e-01  9.9627382710775980e-01  9.9223315460575168e-01  9.9897367494482303e-01  9.9187710635764414e-01  9.9975308257718143e-01  9.9361831842857073e-01  9.9794252687218699e-01  9.9521562742280245e-01  9.9368864883691232e-01  9.9625270751793793e-01  9.8707376396400448e-01  9.9674240267748015e-01  9.7869631422714010e-01  9.9583278212118154e-01  9.7206290107852011e-01  9.9063717199439560e-01  9.6988950075315006e-01  9.8207329312978453e-01  9.7302660626853787e-01  9.6906456363573923e-01  9.7798707053070455e-01  9.5116367236596955e-01  9.8029475741071315e-01  9.3523239256879653e-01  9.8925323763612416e-01  9.4009772881702958e-01  1.0054116185692332e+00  9.5184459107019126e-01  9.9642867149321923e-01  9.4004200754809852e-01  9.6369019294683322e-01  9.3762973953131656e-01  9.4978048831321660e-01  9.6154810184180006e-01  9.5962476211061054e-01  9.8908565455008046e-01  9.7706024515816770e-01  1.0000034602519710e+00  9.7253739919389737e-01  9.6944733315513987e-01  9.5946102858758375e-01  9.7057002291258299e-01  1.0204805127887082e+00  1.0770575857720635e+00  1.0808144195776976e+00  1.0788534015970928e+00  1.0138647893626196e+00  1.1195687209589582e+00  1.0955249605572317e+00  1.0533744015678115e+00  9.9796608758012473e-01  1.0189194678319162e+00  1.0282034305058476e+00  1.1116030779977528e+00  1.0532755705182204e+00  1.1403151249629613e+00  1.1118874707756090e+00  1.0741273141568419e+00  1.0132217052015442e+00  1.0161767906046835e+00  1.0345889040057417e+00  1.0287192836218400e+00  1.0301894520640011e+00  1.1051828880853327e+00  1.0622266171708801e+00  9.8633083009895772e-01  9.7318219306934683e-01  9.7840698109256974e-01  9.8114609978970457e-01  9.8330503061223429e-01  9.8093254761590820e-01  9.7730608452554057e-01  9.7586823687551916e-01  9.6947835371960178e-01  9.6639295166931649e-01  9.6484451865904353e-01  9.6415971698689840e-01  9.6984368207776406e-01  9.7312167002266314e-01  9.7580391815742851e-01  9.7652887104103658e-01  9.7715885510835809e-01  9.7149474073038178e-01  9.7002795835073274e-01  9.6319038263864587e-01  9.5932550392922267e-01  9.5897840173637117e-01  9.5941872725471267e-01  9.6096031833128259e-01  9.6689812230685623e-01  9.6674969899779628e-01  9.7056921256965789e-01  9.7501060916711701e-01  9.7216900820458396e-01  9.8041489266423576e-01  9.7510088139460360e-01  9.8172654437601414e-01  9.7624501924748053e-01  9.8252656024722795e-01  9.7404821293224098e-01  9.8185691673893138e-01  9.7131827704250873e-01  9.7650817201263818e-01  9.7029594485982906e-01  9.6945143192763228e-01  9.6834545359280177e-01  9.6230976256913592e-01  9.6553413483504613e-01  9.5571424550825579e-01  9.6263029080084794e-01  9.4993680160790983e-01  9.5951907142742976e-01  9.4617294019677556e-01  9.5618285694177729e-01  9.4456518279799462e-01  9.5504772884934908e-01  9.4576687796659509e-01  9.5862960931324515e-01  9.5064798118817473e-01  9.6703448362746969e-01  9.5934678198172707e-01  9.7768124785585375e-01  9.6883402340420577e-01  9.8024800288425740e-01  9.7127068066736411e-01  9.6504499535748622e-01  9.7247818672828357e-01  9.5241068964154851e-01  9.9707308320918764e-01  9.5707855640919171e-01  1.0243609833618030e+00  9.4166825354821793e-01  1.0163483440336178e+00  9.1248599706884770e-01  1.0086426260811754e+00  9.0683072872087134e-01  1.0059434480325355e+00  9.1893821191368219e-01  9.9955110843288786e-01  9.3753659566068770e-01  9.9465123801838906e-01  9.5905062278323439e-01  1.0092841075974888e+00  1.0506720458227785e+00  1.0819839184748392e+00  1.1002619807195342e+00  1.0249886210655503e+00  1.0227766995900458e+00  9.9771877850188728e-01  1.0721715316476248e+00  1.1364631584173024e+00  1.0533744015676838e+00  1.0341475650860970e+00  9.6210562261037391e-01  1.0275279146762120e+00  1.1950446858641917e+00  1.1290945906249985e+00  1.1289511968078232e+00  1.0674750810880946e+00  1.0161767906046839e+00  9.6523918945617015e-01  1.0008781581890924e+00  1.0039973965967046e+00  1.0033067511039919e+00  1.0492406612348462e+00  1.0940281927122599e+00  1.0263971100756553e+00  9.6418205192146089e-01  9.6967813312421025e-01  9.7445453364397483e-01  9.8055946823044715e-01  9.8710469197486805e-01  9.8820741050735406e-01  9.8585563457474257e-01  9.7966237709298354e-01  9.7744598854588904e-01  9.8036751716403792e-01  9.8606990397975913e-01  9.8648780685445892e-01  9.8732173683462976e-01  9.8294026000902168e-01  9.7762309114378676e-01  9.7371033942897522e-01  9.6552813445993468e-01  9.6139011951833964e-01  9.6101482038834418e-01  9.6035286299402478e-01  9.6702709757140248e-01  9.6921416181843845e-01  9.7031282781309169e-01  9.7175751818573242e-01  9.6865421811202401e-01  9.6651527710315821e-01  9.6781705855735123e-01  9.6319276101268092e-01  9.6607126977197011e-01  9.6516547341532077e-01  9.6479262032972468e-01  9.6810909647792343e-01  9.6677035862959460e-01  9.6933690038099918e-01  9.6742738288970054e-01  9.7185974829725641e-01  9.6445384048790261e-01  9.7386434293984891e-01  9.6091064613526311e-01  9.7266062001203157e-01  9.6032953639784668e-01  9.6960333784769515e-01  9.6106378738006615e-01  9.6620999073337399e-01  9.6395394561115555e-01  9.6078107067896823e-01  9.6949661965648004e-01  9.5533837129970189e-01  9.7443566805676041e-01  9.5245302192694692e-01  9.7590054197600806e-01  9.5256636244229598e-01  9.7322867096788812e-01  9.5539811508774330e-01  9.6827709716050092e-01  9.6130072052828031e-01  9.6629799030929187e-01  9.7158037927474428e-01  9.7089232569005479e-01  9.7608255759726925e-01  9.6913880160900812e-01  9.6064998027502879e-01  9.6573735084653312e-01  9.5908896544573929e-01  9.9494207733878937e-01  9.8686048469176391e-01  1.0220756921653635e+00  9.8898380729919988e-01  1.0012398936714757e+00  9.7784022087605504e-01  9.7602439656249751e-01  9.7603473107291761e-01  9.3961778954531172e-01  9.6404260567950295e-01  9.1225131251787273e-01  1.0001152785700000e+00  1.0114463112182004e+00  1.1254540032458318e+00  1.0705631848274342e+00  1.0686583198563311e+00  9.8229798842409721e-01  1.0019591863183215e+00  9.7647200243507049e-01  1.0627753592473621e+00  1.0721715316476677e+00  1.0955249605580093e+00  1.0181290289529510e+00  1.0671573866869082e+00  1.0482776517556163e+00  1.2602415683758093e+00  1.1566139034653082e+00  1.0854943309678624e+00  1.0219165098028344e+00  1.0345889040057379e+00  1.0008781581890898e+00  1.0276378891971980e+00  9.9964081516063452e-01  1.0056437912313287e+00  9.8651628717530959e-01  1.0479002860420978e+00  1.0816415713479333e+00  1.0028477016175930e+00  9.6669671365532850e-01  9.7090879505108507e-01  9.7419899615145500e-01  9.7324551759684863e-01  9.7594872828454404e-01  9.8154917669015973e-01  9.9047573397559929e-01  1.0013761653213840e+00  1.0094697032419326e+00  1.0065954692450394e+00  1.0046173205418945e+00  9.9512419148814946e-01  9.8539962465356967e-01  9.7602500201226727e-01  9.6767832316367686e-01  9.6441916144211071e-01  9.6974973560707334e-01  9.7379372502045003e-01  9.7992433266776258e-01  9.7990071471051354e-01  9.7884732449936562e-01  9.7215800917696638e-01  9.7112296755746241e-01  9.6536936680765928e-01  9.6285010053414111e-01  9.6372267837486303e-01  9.5866075433391784e-01  9.6319875286570145e-01  9.6098419256565082e-01  9.6471124799480290e-01  9.6344745499255402e-01  9.7067905666674614e-01  9.6441690699669436e-01  9.7593348523940548e-01  9.6834326898417711e-01  9.7643954932058885e-01  9.7355928712679551e-01  9.7705755020683049e-01  9.7627720965587206e-01  9.7875849925243674e-01  9.7721633341519643e-01  9.7903774168124769e-01  9.7876751396784789e-01  9.7848184015727535e-01  9.7969253941798728e-01  9.7905194138162133e-01  9.8027625135530816e-01  9.7794512889792307e-01  9.8284857580622209e-01  9.7330194007868287e-01  9.8666582186297136e-01  9.6589865790071894e-01  9.8976094650370638e-01  9.5764997815115060e-01  9.8971663223553863e-01  9.5211283115080958e-01  9.8730095159450826e-01  9.5997589314914578e-01  9.9409072609647509e-01  9.8484139341180421e-01  1.0016862998904066e+00  9.9236905602981695e-01  9.8206568191708510e-01  9.7872590565587925e-01  9.7739286216184418e-01  9.8680518088851565e-01  1.0008031114656386e+00  9.7693400854653212e-01  9.9779587583829543e-01  9.3698744573925663e-01  1.0024531613501835e+00  9.2393674783358293e-01  1.0238973377472458e+00  9.3689933637261591e-01  1.0840807420687384e+00  1.0142241809636405e+00  1.1202772322745072e+00  9.9381862837547386e-01  1.0470794713368474e+00  9.7372085420584154e-01  1.0314521199523119e+00  9.6576779226871912e-01  9.7647200243486909e-01  9.9771877850109525e-01  1.1195687209578440e+00  1.1112418562222297e+00  1.0708474474437670e+00  9.7985145382648187e-01  1.1218321777703757e+00  1.1444781204517176e+00  1.1140746016386822e+00  1.0463252796227303e+00  1.0287192836218444e+00  1.0039973965967035e+00  9.9964081516063663e-01  9.7230303928693573e-01  1.0079651971513652e+00  9.8427109767654142e-01  1.0019993574361363e+00  1.0822502532529015e+00  1.0589145945054546e+00  9.7141904048747030e-01  9.5696105961351430e-01  9.6084643230661082e-01  9.6693991621894249e-01  9.7595872832003772e-01  9.9635575028674983e-01  1.0140367011108578e+00  1.0235474138212743e+00  1.0224695230639962e+00  1.0118440962084978e+00  9.9945689415157746e-01  9.8690492307002831e-01  9.7810868854266597e-01  9.7646677353718847e-01  9.8130087535132482e-01  9.8689019310104031e-01  9.8966343783070665e-01  9.8761369237720742e-01  9.8005288566057069e-01  9.7517320618389014e-01  9.7089316968733086e-01  9.6758397973779875e-01  9.6794091231977863e-01  9.6744808132586169e-01  9.6597398341192342e-01  9.7142452291888837e-01  9.6818357824676793e-01  9.7231906400569246e-01  9.7261268996820183e-01  9.7111640713707836e-01  9.7332839338982324e-01  9.7252907544688827e-01  9.7277253344227721e-01  9.7286551777273367e-01  9.7675740961754420e-01  9.7049205806280803e-01  9.8284706371013475e-01  9.7030933674753472e-01  9.8461484570061986e-01  9.7213360810563343e-01  9.8464947529255442e-01  9.7269483077855856e-01  9.8283449141887858e-01  9.7415446873872413e-01  9.7701973700290223e-01  9.7683164136562428e-01  9.6990492752619240e-01  9.7897971294422836e-01  9.6558770131606919e-01  9.8034360784912655e-01  9.6493513401423969e-01  9.8308294631314197e-01  9.6707569625002598e-01  9.8727033039104073e-01  9.7159267485608081e-01  9.9301471427240584e-01  9.7131354211312415e-01  9.9594246192223168e-01  9.6344916511627432e-01  1.0056154152527228e+00  9.7346310038732453e-01  1.0321149790388771e+00  9.9195713796335028e-01  1.0305631425166608e+00  9.8194727701028850e-01  1.0052454900718821e+00  9.9174907827696945e-01  1.0006031910964439e+00  1.0009827085927003e+00  9.6164030699351266e-01  9.6394233048572375e-01  9.1818614866514592e-01  9.5228579321640305e-01  9.8579856186688075e-01  1.0759131722756197e+00  1.1271161969824357e+00  1.0950483686210071e+00  1.0425201216763085e+00  9.4349902760628557e-01  9.6359808079070597e-01  9.1349342548555745e-01  1.0314521199537543e+00  1.0019591863170749e+00  1.0227766995909002e+00  1.0138647893630568e+00  1.0784156647234322e+00  1.1927587868213274e+00  1.1644891668455999e+00  1.0139847882851611e+00  1.0658695418544601e+00  1.1155004796782830e+00  1.1027809723640627e+00  1.0301894520640065e+00  1.0033067511039930e+00  1.0056437912313243e+00  1.0079651971513659e+00  1.0380751350691633e+00  1.0119471746901134e+00  9.7795473899195218e-01  1.0099628368415250e+00  1.0720074800128399e+00  1.0148579046681807e+00  9.5648511343651976e-01  9.6460267053693849e-01  9.7790870110347716e-01  9.9380597690864592e-01  1.0024705180546210e+00  1.0069290158529614e+00  1.0061742195791312e+00  1.0064368275646660e+00  1