<?xml version="1.0"?>
<VTKFile type="UnstructuredGrid"  version="0.1"  >
<UnstructuredGrid>
<Piece  NumberOfPoints="10201" NumberOfCells="20000">
<Points>
<DataArray  type="Float64"  NumberOfComponents="3"  format="ascii">-5 -5 0  -4.9 -5 0  -4.8 -5 0  -4.7 -5 0  -4.6 -5 0  -4.5 -5 0  -4.4 -5 0  -4.3 -5 0  -4.2 -5 0  -4.1 -5 0  -4 -5 0  -3.9 -5 0  -3.8 -5 0  -3.7 -5 0  -3.6 -5 0  -3.5 -5 0  -3.4 -5 0  -3.3 -5 0  -3.2 -5 0  -3.1 -5 0  -3 -5 0  -2.9 -5 0  -2.8 -5 0  -2.7 -5 0  -2.6 -5 0  -2.5 -5 0  -2.4 -5 0  -2.3 -5 0  -2.2 -5 0  -2.1 -5 0  -2 -5 0  -1.9 -5 0  -1.8 -5 0  -1.7 -5 0  -1.6 -5 0  -1.5 -5 0  -1.4 -5 0  -1.3 -5 0  -1.2 -5 0  -1.1 -5 0  -1 -5 0  -0.9000000000000004 -5 0  -0.7999999999999998 -5 0  -0.7000000000000002 -5 0  -0.5999999999999996 -5 0  -0.5 -5 0  -0.4000000000000004 -5 0  -0.2999999999999998 -5 0  -0.2000000000000002 -5 0  -0.09999999999999964 -5 0  0 -5 0  0.09999999999999964 -5 0  0.2000000000000002 -5 0  0.2999999999999998 -5 0  0.4000000000000004 -5 0  0.5 -5 0  0.5999999999999996 -5 0  0.7000000000000002 -5 0  0.7999999999999998 -5 0  0.9000000000000004 -5 0  1 -5 0  1.1 -5 0  1.2 -5 0  1.3 -5 0  1.4 -5 0  1.5 -5 0  1.6 -5 0  1.7 -5 0  1.8 -5 0  1.9 -5 0  2 -5 0  2.1 -5 0  2.2 -5 0  2.3 -5 0  2.4 -5 0  2.5 -5 0  2.6 -5 0  2.7 -5 0  2.8 -5 0  2.9 -5 0  3 -5 0  3.1 -5 0  3.199999999999999 -5 0  3.300000000000001 -5 0  3.4 -5 0  3.5 -5 0  3.6 -5 0  3.699999999999999 -5 0  3.800000000000001 -5 0  3.9 -5 0  4 -5 0  4.1 -5 0  4.199999999999999 -5 0  4.300000000000001 -5 0  4.4 -5 0  4.5 -5 0  4.6 -5 0  4.699999999999999 -5 0  4.800000000000001 -5 0  4.9 -5 0  5 -5 0  -5 -4.9 0  -4.9 -4.9 0  -4.8 -4.9 0  -4.7 -4.9 0  -4.6 -4.9 0  -4.5 -4.9 0  -4.4 -4.9 0  -4.3 -4.9 0  -4.2 -4.9 0  -4.1 -4.9 0  -4 -4.9 0  -3.9 -4.9 0  -3.8 -4.9 0  -3.7 -4.9 0  -3.6 -4.9 0  -3.5 -4.9 0  -3.4 -4.9 0  -3.3 -4.9 0  -3.2 -4.9 0  -3.1 -4.9 0  -3 -4.9 0  -2.9 -4.9 0  -2.8 -4.9 0  -2.7 -4.9 0  -2.6 -4.9 0  -2.5 -4.9 0  -2.4 -4.9 0  -2.3 -4.9 0  -2.2 -4.9 0  -2.1 -4.9 0  -2 -4.9 0  -1.9 -4.9 0  -1.8 -4.9 0  -1.7 -4.9 0  -1.6 -4.9 0  -1.5 -4.9 0  -1.4 -4.9 0  -1.3 -4.9 0  -1.2 -4.9 0  -1.1 -4.9 0  -1 -4.9 0  -0.9000000000000004 -4.9 0  -0.7999999999999998 -4.9 0  -0.7000000000000002 -4.9 0  -0.5999999999999996 -4.9 0  -0.5 -4.9 0  -0.4000000000000004 -4.9 0  -0.2999999999999998 -4.9 0  -0.2000000000000002 -4.9 0  -0.09999999999999964 -4.9 0  0 -4.9 0  0.09999999999999964 -4.9 0  0.2000000000000002 -4.9 0  0.2999999999999998 -4.9 0  0.4000000000000004 -4.9 0  0.5 -4.9 0  0.5999999999999996 -4.9 0  0.7000000000000002 -4.9 0  0.7999999999999998 -4.9 0  0.9000000000000004 -4.9 0  1 -4.9 0  1.1 -4.9 0  1.2 -4.9 0  1.3 -4.9 0  1.4 -4.9 0  1.5 -4.9 0  1.6 -4.9 0  1.7 -4.9 0  1.8 -4.9 0  1.9 -4.9 0  2 -4.9 0  2.1 -4.9 0  2.2 -4.9 0  2.3 -4.9 0  2.4 -4.9 0  2.5 -4.9 0  2.6 -4.9 0  2.7 -4.9 0  2.8 -4.9 0  2.9 -4.9 0  3 -4.9 0  3.1 -4.9 0  3.199999999999999 -4.9 0  3.300000000000001 -4.9 0  3.4 -4.9 0  3.5 -4.9 0  3.6 -4.9 0  3.699999999999999 -4.9 0  3.800000000000001 -4.9 0  3.9 -4.9 0  4 -4.9 0  4.1 -4.9 0  4.199999999999999 -4.9 0  4.300000000000001 -4.9 0  4.4 -4.9 0  4.5 -4.9 0  4.6 -4.9 0  4.699999999999999 -4.9 0  4.800000000000001 -4.9 0  4.9 -4.9 0  5 -4.9 0  -5 -4.8 0  -4.9 -4.8 0  -4.8 -4.8 0  -4.7 -4.8 0  -4.6 -4.8 0  -4.5 -4.8 0  -4.4 -4.8 0  -4.3 -4.8 0  -4.2 -4.8 0  -4.1 -4.8 0  -4 -4.8 0  -3.9 -4.8 0  -3.8 -4.8 0  -3.7 -4.8 0  -3.6 -4.8 0  -3.5 -4.8 0  -3.4 -4.8 0  -3.3 -4.8 0  -3.2 -4.8 0  -3.1 -4.8 0  -3 -4.8 0  -2.9 -4.8 0  -2.8 -4.8 0  -2.7 -4.8 0  -2.6 -4.8 0  -2.5 -4.8 0  -2.4 -4.8 0  -2.3 -4.8 0  -2.2 -4.8 0  -2.1 -4.8 0  -2 -4.8 0  -1.9 -4.8 0  -1.8 -4.8 0  -1.7 -4.8 0  -1.6 -4.8 0  -1.5 -4.8 0  -1.4 -4.8 0  -1.3 -4.8 0  -1.2 -4.8 0  -1.1 -4.8 0  -1 -4.8 0  -0.9000000000000004 -4.8 0  -0.7999999999999998 -4.8 0  -0.7000000000000002 -4.8 0  -0.5999999999999996 -4.8 0  -0.5 -4.8 0  -0.4000000000000004 -4.8 0  -0.2999999999999998 -4.8 0  -0.2000000000000002 -4.8 0  -0.09999999999999964 -4.8 0  0 -4.8 0  0.09999999999999964 -4.8 0  0.2000000000000002 -4.8 0  0.2999999999999998 -4.8 0  0.4000000000000004 -4.8 0  0.5 -4.8 0  0.5999999999999996 -4.8 0  0.7000000000000002 -4.8 0  0.7999999999999998 -4.8 0  0.9000000000000004 -4.8 0  1 -4.8 0  1.1 -4.8 0  1.2 -4.8 0  1.3 -4.8 0  1.4 -4.8 0  1.5 -4.8 0  1.6 -4.8 0  1.7 -4.8 0  1.8 -4.8 0  1.9 -4.8 0  2 -4.8 0  2.1 -4.8 0  2.2 -4.8 0  2.3 -4.8 0  2.4 -4.8 0  2.5 -4.8 0  2.6 -4.8 0  2.7 -4.8 0  2.8 -4.8 0  2.9 -4.8 0  3 -4.8 0  3.1 -4.8 0  3.199999999999999 -4.8 0  3.300000000000001 -4.8 0  3.4 -4.8 0  3.5 -4.8 0  3.6 -4.8 0  3.699999999999999 -4.8 0  3.800000000000001 -4.8 0  3.9 -4.8 0  4 -4.8 0  4.1 -4.8 0  4.199999999999999 -4.8 0  4.300000000000001 -4.8 0  4.4 -4.8 0  4.5 -4.8 0  4.6 -4.8 0  4.699999999999999 -4.8 0  4.800000000000001 -4.8 0  4.9 -4.8 0  5 -4.8 0  -5 -4.7 0  -4.9 -4.7 0  -4.8 -4.7 0  -4.7 -4.7 0  -4.6 -4.7 0  -4.5 -4.7 0  -4.4 -4.7 0  -4.3 -4.7 0  -4.2 -4.7 0  -4.1 -4.7 0  -4 -4.7 0  -3.9 -4.7 0  -3.8 -4.7 0  -3.7 -4.7 0  -3.6 -4.7 0  -3.5 -4.7 0  -3.4 -4.7 0  -3.3 -4.7 0  -3.2 -4.7 0  -3.1 -4.7 0  -3 -4.7 0  -2.9 -4.7 0  -2.8 -4.7 0  -2.7 -4.7 0  -2.6 -4.7 0  -2.5 -4.7 0  -2.4 -4.7 0  -2.3 -4.7 0  -2.2 -4.7 0  -2.1 -4.7 0  -2 -4.7 0  -1.9 -4.7 0  -1.8 -4.7 0  -1.7 -4.7 0  -1.6 -4.7 0  -1.5 -4.7 0  -1.4 -4.7 0  -1.3 -4.7 0  -1.2 -4.7 0  -1.1 -4.7 0  -1 -4.7 0  -0.9000000000000004 -4.7 0  -0.7999999999999998 -4.7 0  -0.7000000000000002 -4.7 0  -0.5999999999999996 -4.7 0  -0.5 -4.7 0  -0.4000000000000004 -4.7 0  -0.2999999999999998 -4.7 0  -0.2000000000000002 -4.7 0  -0.09999999999999964 -4.7 0  0 -4.7 0  0.09999999999999964 -4.7 0  0.2000000000000002 -4.7 0  0.2999999999999998 -4.7 0  0.4000000000000004 -4.7 0  0.5 -4.7 0  0.5999999999999996 -4.7 0  0.7000000000000002 -4.7 0  0.7999999999999998 -4.7 0  0.9000000000000004 -4.7 0  1 -4.7 0  1.1 -4.7 0  1.2 -4.7 0  1.3 -4.7 0  1.4 -4.7 0  1.5 -4.7 0  1.6 -4.7 0  1.7 -4.7 0  1.8 -4.7 0  1.9 -4.7 0  2 -4.7 0  2.1 -4.7 0  2.2 -4.7 0  2.3 -4.7 0  2.4 -4.7 0  2.5 -4.7 0  2.6 -4.7 0  2.7 -4.7 0  2.8 -4.7 0  2.9 -4.7 0  3 -4.7 0  3.1 -4.7 0  3.199999999999999 -4.7 0  3.300000000000001 -4.7 0  3.4 -4.7 0  3.5 -4.7 0  3.6 -4.7 0  3.699999999999999 -4.7 0  3.800000000000001 -4.7 0  3.9 -4.7 0  4 -4.7 0  4.1 -4.7 0  4.199999999999999 -4.7 0  4.300000000000001 -4.7 0  4.4 -4.7 0  4.5 -4.7 0  4.6 -4.7 0  4.699999999999999 -4.7 0  4.800000000000001 -4.7 0  4.9 -4.7 0  5 -4.7 0  -5 -4.6 0  -4.9 -4.6 0  -4.8 -4.6 0  -4.7 -4.6 0  -4.6 -4.6 0  -4.5 -4.6 0  -4.4 -4.6 0  -4.3 -4.6 0  -4.2 -4.6 0  -4.1 -4.6 0  -4 -4.6 0  -3.9 -4.6 0  -3.8 -4.6 0  -3.7 -4.6 0  -3.6 -4.6 0  -3.5 -4.6 0  -3.4 -4.6 0  -3.3 -4.6 0  -3.2 -4.6 0  -3.1 -4.6 0  -3 -4.6 0  -2.9 -4.6 0  -2.8 -4.6 0  -2.7 -4.6 0  -2.6 -4.6 0  -2.5 -4.6 0  -2.4 -4.6 0  -2.3 -4.6 0  -2.2 -4.6 0  -2.1 -4.6 0  -2 -4.6 0  -1.9 -4.6 0  -1.8 -4.6 0  -1.7 -4.6 0  -1.6 -4.6 0  -1.5 -4.6 0  -1.4 -4.6 0  -1.3 -4.6 0  -1.2 -4.6 0  -1.1 -4.6 0  -1 -4.6 0  -0.9000000000000004 -4.6 0  -0.7999999999999998 -4.6 0  -0.7000000000000002 -4.6 0  -0.5999999999999996 -4.6 0  -0.5 -4.6 0  -0.4000000000000004 -4.6 0  -0.2999999999999998 -4.6 0  -0.2000000000000002 -4.6 0  -0.09999999999999964 -4.6 0  0 -4.6 0  0.09999999999999964 -4.6 0  0.2000000000000002 -4.6 0  0.2999999999999998 -4.6 0  0.4000000000000004 -4.6 0  0.5 -4.6 0  0.5999999999999996 -4.6 0  0.7000000000000002 -4.6 0  0.7999999999999998 -4.6 0  0.9000000000000004 -4.6 0  1 -4.6 0  1.1 -4.6 0  1.2 -4.6 0  1.3 -4.6 0  1.4 -4.6 0  1.5 -4.6 0  1.6 -4.6 0  1.7 -4.6 0  1.8 -4.6 0  1.9 -4.6 0  2 -4.6 0  2.1 -4.6 0  2.2 -4.6 0  2.3 -4.6 0  2.4 -4.6 0  2.5 -4.6 0  2.6 -4.6 0  2.7 -4.6 0  2.8 -4.6 0  2.9 -4.6 0  3 -4.6 0  3.1 -4.6 0  3.199999999999999 -4.6 0  3.300000000000001 -4.6 0  3.4 -4.6 0  3.5 -4.6 0  3.6 -4.6 0  3.699999999999999 -4.6 0  3.800000000000001 -4.6 0  3.9 -4.6 0  4 -4.6 0  4.1 -4.6 0  4.199999999999999 -4.6 0  4.300000000000001 -4.6 0  4.4 -4.6 0  4.5 -4.6 0  4.6 -4.6 0  4.699999999999999 -4.6 0  4.800000000000001 -4.6 0  4.9 -4.6 0  5 -4.6 0  -5 -4.5 0  -4.9 -4.5 0  -4.8 -4.5 0  -4.7 -4.5 0  -4.6 -4.5 0  -4.5 -4.5 0  -4.4 -4.5 0  -4.3 -4.5 0  -4.2 -4.5 0  -4.1 -4.5 0  -4 -4.5 0  -3.9 -4.5 0  -3.8 -4.5 0  -3.7 -4.5 0  -3.6 -4.5 0  -3.5 -4.5 0  -3.4 -4.5 0  -3.3 -4.5 0  -3.2 -4.5 0  -3.1 -4.5 0  -3 -4.5 0  -2.9 -4.5 0  -2.8 -4.5 0  -2.7 -4.5 0  -2.6 -4.5 0  -2.5 -4.5 0  -2.4 -4.5 0  -2.3 -4.5 0  -2.2 -4.5 0  -2.1 -4.5 0  -2 -4.5 0  -1.9 -4.5 0  -1.8 -4.5 0  -1.7 -4.5 0  -1.6 -4.5 0  -1.5 -4.5 0  -1.4 -4.5 0  -1.3 -4.5 0  -1.2 -4.5 0  -1.1 -4.5 0  -1 -4.5 0  -0.9000000000000004 -4.5 0  -0.7999999999999998 -4.5 0  -0.7000000000000002 -4.5 0  -0.5999999999999996 -4.5 0  -0.5 -4.5 0  -0.4000000000000004 -4.5 0  -0.2999999999999998 -4.5 0  -0.2000000000000002 -4.5 0  -0.09999999999999964 -4.5 0  0 -4.5 0  0.09999999999999964 -4.5 0  0.2000000000000002 -4.5 0  0.2999999999999998 -4.5 0  0.4000000000000004 -4.5 0  0.5 -4.5 0  0.5999999999999996 -4.5 0  0.7000000000000002 -4.5 0  0.7999999999999998 -4.5 0  0.9000000000000004 -4.5 0  1 -4.5 0  1.1 -4.5 0  1.2 -4.5 0  1.3 -4.5 0  1.4 -4.5 0  1.5 -4.5 0  1.6 -4.5 0  1.7 -4.5 0  1.8 -4.5 0  1.9 -4.5 0  2 -4.5 0  2.1 -4.5 0  2.2 -4.5 0  2.3 -4.5 0  2.4 -4.5 0  2.5 -4.5 0  2.6 -4.5 0  2.7 -4.5 0  2.8 -4.5 0  2.9 -4.5 0  3 -4.5 0  3.1 -4.5 0  3.199999999999999 -4.5 0  3.300000000000001 -4.5 0  3.4 -4.5 0  3.5 -4.5 0  3.6 -4.5 0  3.699999999999999 -4.5 0  3.800000000000001 -4.5 0  3.9 -4.5 0  4 -4.5 0  4.1 -4.5 0  4.199999999999999 -4.5 0  4.300000000000001 -4.5 0  4.4 -4.5 0  4.5 -4.5 0  4.6 -4.5 0  4.699999999999999 -4.5 0  4.800000000000001 -4.5 0  4.9 -4.5 0  5 -4.5 0  -5 -4.4 0  -4.9 -4.4 0  -4.8 -4.4 0  -4.7 -4.4 0  -4.6 -4.4 0  -4.5 -4.4 0  -4.4 -4.4 0  -4.3 -4.4 0  -4.2 -4.4 0  -4.1 -4.4 0  -4 -4.4 0  -3.9 -4.4 0  -3.8 -4.4 0  -3.7 -4.4 0  -3.6 -4.4 0  -3.5 -4.4 0  -3.4 -4.4 0  -3.3 -4.4 0  -3.2 -4.4 0  -3.1 -4.4 0  -3 -4.4 0  -2.9 -4.4 0  -2.8 -4.4 0  -2.7 -4.4 0  -2.6 -4.4 0  -2.5 -4.4 0  -2.4 -4.4 0  -2.3 -4.4 0  -2.2 -4.4 0  -2.1 -4.4 0  -2 -4.4 0  -1.9 -4.4 0  -1.8 -4.
[...]
<PointData  Scalars="r"> 
<DataArray  type="Float64"  Name="r"  format="ascii">9.9999327080157363e-01  1.0002279019120492e+00  9.9949109567013172e-01  1.0001671742359837e+00  1.0001929578769844e+00  9.9980322230488172e-01  1.0000749636077417e+00  1.0003185436633264e+00  1.0001417774317407e+00  9.9983668211082855e-01  1.0003131338602875e+00  1.0000952587068821e+00  9.9977995894089644e-01  9.9995400303465354e-01  1.0000683254158211e+00  9.9981415822689468e-01  1.0000728279417521e+00  1.0000709476822143e+00  9.9994197512854599e-01  1.0001956955731817e+00  1.0003402210047758e+00  1.0000288965291824e+00  9.9999263481628242e-01  9.9998059587121046e-01  9.9976807200259887e-01  9.9967771048912812e-01  9.9967044951613371e-01  9.9963817585715387e-01  9.9998146558489676e-01  1.0004705127296960e+00  1.0005803982514299e+00  1.0003718099501342e+00  1.0000844797414139e+00  9.9982018175886422e-01  9.9974798310961888e-01  9.9976050359970037e-01  9.9969260376937263e-01  9.9976142578759097e-01  1.0000200235408807e+00  1.0001372453346840e+00  1.0000939963592896e+00  1.0000940225468227e+00  1.0000987899775082e+00  1.0000573825395354e+00  1.0000171318038269e+00  1.0000097880895229e+00  1.0000470068251390e+00  1.0000145217432248e+00  9.9992434210896741e-01  9.9999943326926355e-01  1.0000961039095297e+00  9.9997861736714211e-01  9.9990056697000729e-01  1.0000377866932768e+00  1.0000972098505430e+00  9.9994578380701238e-01  9.9989760276152739e-01  1.0000981100191859e+00  1.0000792285415305e+00  9.9984932788647696e-01  9.9999412992475678e-01  1.0001641507870263e+00  9.9990211495054804e-01  9.9990831175850270e-01  1.0001449824072983e+00  9.9998631755079703e-01  9.9989160754029782e-01  1.0000795783920542e+00  1.0000229628226238e+00  9.9994407127480300e-01  1.0000079837173053e+00  1.0000268653615416e+00  9.9999311199427809e-01  9.9998553131282641e-01  9.9999164470387469e-01  1.0000419606320641e+00  9.9997033093365872e-01  9.9997997915135972e-01  1.0000488472957922e+00  9.9997907039329270e-01  9.9997968132860238e-01  1.0000318005911506e+00  1.0000124118153417e+00  9.9995097489566342e-01  1.0000662663690962e+00  9.9995943558864631e-01  1.0000134510031689e+00  9.9997502839812935e-01  1.0000000532702822e+00  9.9994820819359898e-01  9.9995761364720570e-01  9.9999479578489758e-01  9.9991872061256493e-01  1.0000425155140116e+00  9.9998192296685284e-01  1.0000475544239151e+00  1.0000695604950438e+00  1.0000376792232974e+00  1.0000563781724059e+00  1.0000114508260483e+00  9.9997197604037347e-01  1.0002279019120481e+00  9.9965922790792883e-01  1.0002742206246802e+00  1.0001163335847567e+00  9.9962859996188635e-01  9.9997323566470586e-01  1.0002102997233335e+00  9.9986641409320898e-01  9.9977007631185177e-01  1.0001572109109633e+00  9.9994374670668007e-01  9.9963398502163325e-01  1.0000341776940387e+00  1.0002025702602519e+00  1.0000003128072337e+00  1.0001860286957256e+00  1.0001334288076547e+00  9.9979843471452379e-01  9.9994385462155133e-01  9.9997951424683551e-01  9.9975209725560454e-01  9.9985850657825204e-01  9.9997877465477936e-01  9.9985421627653803e-01  1.0000663257741520e+00  1.0004053266845374e+00  1.0004369114299270e+00  1.0003437571173053e+00  1.0001368217470088e+00  9.9975143284373513e-01  9.9955564310257405e-01  9.9957766548940274e-01  9.9963471551298932e-01  9.9989079478922693e-01  1.0002701748061857e+00  1.0003818220701641e+00  1.0002773599526993e+00  1.0001986330655757e+00  1.0001216017217136e+00  1.0000164403421339e+00  9.9989839831259708e-01  9.9980318495736142e-01  9.9988103455247324e-01  1.0000213965096725e+00  9.9996290945841970e-01  9.9988340185105162e-01  9.9998321124666090e-01  1.0000578973865386e+00  1.0000095047487401e+00  9.9996035740820888e-01  9.9997781961991505e-01  1.0000327033062157e+00  1.0000242715790826e+00  9.9997232882685771e-01  9.9998335617044209e-01  1.0000122966491292e+00  1.0000253406161366e+00  9.9999548675808703e-01  9.9994913531596363e-01  1.0000313279742550e+00  1.0000572567712027e+00  9.9991879140553375e-01  9.9998965797947759e-01  1.0000966098939732e+00  9.9993916208454325e-01  9.9995439390989527e-01  1.0000875181306030e+00  9.9996995803270039e-01  9.9995921591797876e-01  1.0000512103934207e+00  9.9998292152346324e-01  9.9998791531681652e-01  1.0000224002287728e+00  9.9997544302006147e-01  1.0000151638217325e+00  1.0000132632234797e+00  9.9995829426120142e-01  1.0000358959190987e+00  1.0000031544835202e+00  9.9996331255355742e-01  1.0000227833476230e+00  1.0000169643566625e+00  9.9995029609889174e-01  1.0000302367765546e+00  9.9999980981203174e-01  9.9997262245678031e-01  1.0000201811578029e+00  1.0000066819617668e+00  1.0000123098480889e+00  1.0000079943099525e+00  1.0000736768823777e+00  9.9998713538434514e-01  1.0000699959255175e+00  9.9999436269688813e-01  1.0000129015911303e+00  9.9996055912749704e-01  9.9998302497207625e-01  9.9991587251192149e-01  9.9999036038080835e-01  9.9994671369535748e-01  1.0000114508261708e+00  9.9949109567013772e-01  1.0002742206246771e+00  1.0002036339975302e+00  9.9974122511222752e-01  1.0001790918794524e+00  1.0002629412451856e+00  9.9982227239166954e-01  9.9972793534485871e-01  1.0001619337804259e+00  9.9996476735892703e-01  9.9989893528028417e-01  1.0002882529310966e+00  1.0003109937608019e+00  9.9975347985202445e-01  9.9984474402223766e-01  9.9988181858614256e-01  9.9983458520502033e-01  1.0000957522585265e+00  1.0001856266948879e+00  9.9984574301854978e-01  1.0000017727567805e+00  1.0002177900600928e+00  1.0001619858736934e+00  1.0001526567983057e+00  1.0001009079805800e+00  9.9974435078981505e-01  9.9961787324424178e-01  9.9970080438285125e-01  9.9973150466467620e-01  9.9990778744754227e-01  1.0002506086028973e+00  1.0004143103866401e+00  1.0004305435185679e+00  1.0003094313214218e+00  9.9997728325635815e-01  9.9970567346976236e-01  9.9968287828241598e-01  9.9971991869589205e-01  9.9979818196660108e-01  9.9994856245597630e-01  1.0000354838038956e+00  1.0000971119738808e+00  1.0001659579654749e+00  1.0000965855268156e+00  1.0000013125536171e+00  1.0000461197989985e+00  1.0000801120735352e+00  1.0000142856921632e+00  9.9995279840961016e-01  9.9997897294948856e-01  1.0000551792897201e+00  1.0000282044930553e+00  9.9993146591015181e-01  9.9997969115353058e-01  1.0000663238235972e+00  1.0000105749610881e+00  9.9993422339836502e-01  9.9999388878419360e-01  1.0000740144993112e+00  9.9999237504709992e-01  9.9990837181645831e-01  1.0000559185924960e+00  1.0000731505268954e+00  9.9989459817517867e-01  9.9999112363863751e-01  1.0001125285068830e+00  9.9992631730080783e-01  9.9995620861666923e-01  1.0000909229757236e+00  9.9997062338827880e-01  9.9994942094944272e-01  1.0000647381374554e+00  9.9997969738280090e-01  9.9997482178468267e-01  1.0000366951280752e+00  9.9998192565608335e-01  9.9998932310716249e-01  1.0000301011371455e+00  9.9997577140904226e-01  9.9999631349820672e-01  1.0000343952904602e+00  9.9996396667967413e-01  1.0000176746584446e+00  1.0000085574882935e+00  1.0000003856638000e+00  9.9998125642098212e-01  1.0000416034723845e+00  9.9996176461121278e-01  9.9999998861704598e-01  1.0000016926681330e+00  9.9994746959123526e-01  9.9999237625183024e-01  9.9994811400843975e-01  9.9999882225276793e-01  9.9996373685182061e-01  1.0000196798836785e+00  1.0000300356331071e+00  1.0000043254651325e+00  1.0000917966402649e+00  9.9999036038056999e-01  1.0000563781723744e+00  1.0001671742359854e+00  1.0001163335847554e+00  9.9974122511222951e-01  9.9997805046200228e-01  1.0001700596259460e+00  9.9972291106831657e-01  9.9987107565197242e-01  1.0003694967310912e+00  1.0000686412887256e+00  9.9993716412564249e-01  1.0001367568257704e+00  1.0000870128621795e+00  9.9964535098470619e-01  9.9988668074126108e-01  1.0001360005131121e+00  1.0000056329641640e+00  1.0001761837778511e+00  1.0001828717941170e+00  9.9990586290428896e-01  9.9996832416768755e-01  1.0001340458229344e+00  9.9994066914774782e-01  9.9994313756276176e-01  9.9997195314055787e-01  9.9982178483333262e-01  9.9989311642870071e-01  1.0002421966239048e+00  1.0003311562209651e+00  1.0002536761795988e+00  1.0001219656254090e+00  9.9989241761526737e-01  9.9975388904513729e-01  9.9975205381538634e-01  9.9966858907757550e-01  9.9973349149024560e-01  1.0000880984835891e+00  1.0003429436030451e+00  1.0003209799378709e+00  1.0002189686412661e+00  1.0001033030489146e+00  1.0000279392768534e+00  9.9998627424186926e-01  9.9987528002266290e-01  9.9983729303045332e-01  9.9996207508815482e-01  1.0000032605520484e+00  9.9993191131740655e-01  9.9994439106761090e-01  1.0000240767062230e+00  1.0000486113925704e+00  9.9999315454963167e-01  9.9994764786533674e-01  1.0000156574382788e+00  1.0000678330862289e+00  9.9998645458346702e-01  9.9993227569406040e-01  1.0000240311426858e+00  1.0000719474482145e+00  9.9995750736149913e-01  9.9992560798046259e-01  1.0000783948870964e+00  1.0000477604770428e+00  9.9988975489890675e-01  1.0000106666771094e+00  1.0001054938423204e+00  9.9992481853344084e-01  9.9995109511303992e-01  1.0000945531633165e+00  9.9998427212061014e-01  9.9993078010489589e-01  1.0000578061362104e+00  1.0000156959039654e+00  9.9994477145146432e-01  1.0000300670424815e+00  1.0000120123386806e+00  9.9997662997220271e-01  1.0000045830232400e+00  1.0000172311070643e+00  9.9997301034180497e-01  1.0000237585474703e+00  9.9998486695999333e-01  1.0000024942483023e+00  9.9999816253139440e-01  1.0000063873461735e+00  9.9997680891399576e-01  1.0000190511124740e+00  9.9999412823042133e-01  9.9997967418776401e-01  1.0000478089811544e+00  9.9996447390940835e-01  1.0000617620634760e+00  9.9998254780729190e-01  1.0000734736823671e+00  9.9997827062213285e-01  1.0000417773361818e+00  9.9999193374760986e-01  9.9998317500469092e-01  9.9997137633700406e-01  1.0000043254651467e+00  9.9991587251192782e-01  1.0000376792236889e+00  1.0001929578769868e+00  9.9962859996188591e-01  1.0001790918794546e+00  1.0001700596259457e+00  9.9998148289840305e-01  9.9996739201842466e-01  1.0002912952054439e+00  9.9997397976895996e-01  9.9964126653786411e-01  9.9994394128923381e-01  9.9993571064391162e-01  9.9976220028276752e-01  1.0001119726346959e+00  1.0003252399477078e+00  1.0000213266500766e+00  9.9986677216579156e-01  9.9994157963850994e-01  9.9977829999512402e-01  9.9998213568870786e-01  1.0001248837560330e+00  9.9989295338910378e-01  9.9979961528943961e-01  1.0000136655900900e+00  1.0000082997451378e+00  1.0000628809589229e+00  1.0001213342494293e+00  9.9995186252418522e-01  9.9975223927912793e-01  9.9982455714600760e-01  9.9987454611320759e-01  9.9995978512957362e-01  1.0001498633942607e+00  1.0002275851407680e+00  1.0002168025479536e+00  1.0002759767556881e+00  1.0001480128041074e+00  9.9985282709303080e-01  9.9969151922749133e-01  9.9969005353451823e-01  9.9980264754382653e-01  9.9998357349187017e-01  1.0000218007006980e+00  9.9999955831605769e-01  1.0001064202614822e+00  1.0001497155213424e+00  1.0000395888260656e+00  9.9998873572616653e-01  1.0000298415529283e+00  1.0000361378231943e+00  9.9998538535870762e-01  9.9994817304922901e-01  1.0000026942222915e+00  1.0000538202325848e+00  9.9998667403037456e-01  9.9993709764016070e-01  1.0000364220091065e+00  1.0000736787398907e+00  9.9994999512306837e-01  9.9994039753926078e-01  1.0000830377472294e+00  1.0000285010610472e+00  9.9990478728612264e-01  1.0000139303770996e+00  1.0000840233732635e+00  9.9994512826300030e-01  9.9995453628528574e-01  1.0000641230715175e+00  1.0000156770983286e+00  9.9993179086487460e-01  1.0000223450141947e+00  1.0000476162645058e+00  9.9995426402230958e-01  9.9998640255345506e-01  1.0000439408444333e+00  9.9998862112193443e-01  9.9996657890888996e-01  1.0000359132853851e+00  9.9999685455649445e-01  9.9997998320787573e-01  1.0000139538777957e+00  1.0000056225971863e+00  9.9998730378683320e-01  1.0000105706443565e+00  9.9999783715022450e-01  1.0000039719857470e+00  1.0000012851882727e+00  9.9999744954339087e-01  1.0000088613620786e+00  9.9998501675446139e-01  1.0000023212252305e+00  9.9997594178695326e-01  1.0000012396936806e+00  9.9996075545815455e-01  9.9998888083978932e-01  1.0000039228800990e+00  9.9996728510415611e-01  1.0000400858014182e+00  9.9998317500476752e-01  1.0000300356330549e+00  9.9998302497221547e-01  1.0000695604946928e+00  9.9980322230488183e-01  9.9997323566470731e-01  1.0002629412451820e+00  9.9972291106831768e-01  9.9996739201842400e-01  1.0001174613640769e+00  9.9984314773608174e-01  1.0000056742271641e+00  1.0000989895941228e+00  1.0004241463395442e+00  9.9993253211104072e-01  1.0001023914708211e+00  1.0002210831583760e+00  9.9986695461075459e-01  9.9987090035584081e-01  1.0000383975794642e+00  9.9998510523904649e-01  9.9997679626053249e-01  1.0001461940092999e+00  1.0000212267175852e+00  1.0000229380859071e+00  1.0002042708139269e+00  1.0001255724797413e+00  9.9996016604446036e-01  1.0000580890097353e+00  9.9998444641240780e-01  9.9991070176726526e-01  1.0000348792236515e+00  1.0001309432373089e+00  1.0000693651450381e+00  1.0000886745387580e+00  9.9999190659140702e-01  9.9985076378549131e-01  9.9986857416188146e-01  9.9986064792337648e-01  9.9977321357546867e-01  9.9992554820010793e-01  1.0001690434789583e+00  1.0002769996085317e+00  1.0002643545532968e+00  1.0000935138945790e+00  9.9991221816471354e-01  9.9994316935294225e-01  9.9995207809138376e-01  9.9981060491704377e-01  9.9978173876809595e-01  9.9989655144029921e-01  9.9994400179097742e-01  9.9990637725219689e-01  9.9987791696065942e-01  9.9992616723398386e-01  9.9998459091979908e-01  9.9993052500409807e-01  9.9987353645835664e-01  9.9998164043542404e-01  1.0000412146113311e+00  9.9992820297371343e-01  9.9994134765537579e-01  1.0000873245550612e+00  1.0000231318124579e+00  9.9992176831963531e-01  1.0000176276605877e+00  1.0000622111312822e+00  9.9996865692771209e-01  9.9995869018806782e-01  1.0000300251262921e+00  1.0000421058437259e+00  9.9994664519174925e-01  9.9997898522790540e-01  1.0000717932231880e+00  9.9997628178540676e-01  9.9994493199597700e-01  1.0000549913097141e+00  1.0000234135357444e+00  9.9992101696961522e-01  1.0000482510617541e+00  1.0000220157940554e+00  9.9995197040939043e-01  1.0000114631742600e+00  1.0000333246461286e+00  9.9996120533022681e-01  1.0000094106823505e+00  1.0000117946903417e+00  9.9998947729038212e-01  9.9999104912717351e-01  1.0000133655860957e+00  9.9999209715623705e-01  9.9999299997674107e-01  1.0000182970670330e+00  9.9998587559703866e-01  1.0000355841647988e+00  9.9998226357979925e-01  1.0000346760023153e+00  1.0000179322886800e+00  9.9998192267098607e-01  1.0000368901633931e+00  9.9996728510411537e-01  9.9999193374764372e-01  1.0000196798836904e+00  9.9996055912725790e-01  1.0000475544241685e+00  1.0000749636077442e+00  1.0002102997233315e+00  9.9982227239166621e-01  9.9987107565197053e-01  1.0002912952054452e+00  9.9984314773608218e-01  9.9974866636116011e-01  1.0001002543664936e+00  9.9988408783555738e-01  9.9987090323503303e-01  9.9972790496598474e-01  1.0000818027388525e+00  9.9990093721039608e-01  9.9972533851589751e-01  1.0002090940106059e+00  1.0000445300209728e+00  1.0000212951996645e+00  1.0001241270021315e+00  1.0000170192401050e+00  9.9989930869700239e-01  9.9999136175859415e-01  9.9988970921975273e-01  9.9973055739793004e-01  9.9988672270968304e-01  1.0000132762956708e+00  9.9988693703227349e-01  1.0000064568967837e+00  1.0000761360151629e+00  1.0000106028933844e+00  1.0000440637210484e+00  1.0000632561683069e+00  9.9994153819280740e-01  1.0000379296180486e+00  1.0001091319689523e+00  1.0000353745102157e+00  1.0000734079755424e+00  1.0001241119258673e+00  9.9994705998786104e-01  9.9977085760914153e-01  9.9967988620607118e-01  9.9971565650948113e-01  9.9995891317298713e-01  1.0001157622225467e+00  1.0000685517798120e+00  1.0001678279735708e+00  1.0003791954915624e+00  1.0003938632782330e+00  1.0003034365952654e+00  1.0002919590522712e+00  1.0003370820321460e+00  1.0003444369673191e+00  1.0002379738131630e+00  1.0001208599997014e+00  1.0001512402205675e+00  1.0001222037746473e+00  9.9992755883823248e-01  9.9989672394258866e-01  1.0000125154974047e+00  9.9993778474136308e-01  9.9989059151212800e-01  1.0000114255888390e+00  1.0000411972999013e+00  9.9998638349677971e-01  9.9997595147133223e-01  1.0000029312898668e+00  1.0000548139320657e+00  9.9996491364625961e-01  9.9995055783905706e-01  1.0000752527485444e+00  1.0000034591656322e+00  9.9991679561971558e-01  1.0000538633907685e+00  1.0000506701815577e+00  9.9989862643249505e-01  1.0000428086908006e+00  1.0000470071441978e+00  9.9993403203926468e-01  1.0000091597145018e+00  1.0000444425346944e+00  9.9996364904686352e-01  9.9998934836411568e-01  1.0000401190007966e+00  9.9997442645731716e-01  9.9999753979938311e-01  1.0000162390575924e+00  9.9999835811600568e-01  9.9998668722663231e-01  1.0000182943657159e+00  9.9998487046127116e-01  1.0000075502079515e+00  9.9997298846431981e-01  1.0000090383397062e+00  9.9998934085324831e-01  9.9996939918317695e-01  1.0000256099865141e+00  9.9998192267082708e-01  1.0000039228800039e+00  1.0000417773363275e+00  9.9996373685152218e-01  1.0000129015914969e+00  9.9998192296684429e-01  1.0003185436633177e+00  9.9986641409320831e-01  9.9972793534485715e-01  1.0003694967310914e+00  9.9997397976896174e-01  1.0000056742271612e+00  1.0001002543664932e+00  1.0004012107976707e+00  9.9980717710360556e-01  1.0001684941075160e+00  1.0001808182046947e+00  1.0000287997299089e+00  9.9990022192199568e-01  1.0000900817098981e+00  1.0003104608492628e+00  9.9982420150938489e-01  1.0000515702960671e+00  9.9993662129343952e-01  9.9971001528585757e-01  9.9998007056097760e-01  1.0000501913319060e+00  1.0000082226254672e+00  1.0002013110400927e+00  1.0002555914441256e+00  1.0000440976044711e+00  1.0000490150146601e+00  1.0001764780206974e+00  9.9997797358085483e-01  9.9991204614273876e-01  9.9991777433427831e-01  9.9983061339200996e-01  9.9990948384612455e-01  1.0000526471903624e+00  9.9991044236953053e-01  9.9991945708819885e-01  9.9997021252212404e-01  9.9986753031357467e-01  9.9991848547244178e-01  1.0001754336145914e+00  1.0003991371580341e+00  1.0006199582442712e+00  1.0006847056851296e+00  1.0005764565657491e+00  1.0006181755901262e+00  1.0007128146804132e+00  1.0005598529081523e+00  1.0004207723180905e+00  1.0004648920561878e+00  1.0005062685980242e+00  1.0005016848775043e+00  1.0004987918746278e+00  1.0005270608903774e+00  1.0006686118255934e+00  1.0007502842680778e+00  1.0006483515235705e+00  1.0006233263747542e+00  1.0006241273456544e+00  1.0003717482005381e+00  1.0001575257351432e+00  1.0000864673990255e+00  9.9996447962726953e-01  9.9992341813651930e-01  9.9994965750259346e-01  9.9996084416289821e-01  1.0000531868818159e+00  9.9999889126254704e-01  9.9993559231753504e-01  1.0000595972615225e+00  1.0000318677065412e+00  9.9990965240198171e-01  1.0000334138615818e+00  1.0000725115448130e+00  9.9989797691715798e-01  1.0000282103355800e+00  1.0000545211762533e+00  9.9994401816708778e-01  9.9999269126595591e-01  1.0000500631040306e+00  9.9997214102259524e-01  9.9997735233795104e-01  1.0000410249033604e+00  9.9998343573985005e-01  9.9998328386334456e-01  1.0000219428912167e+00  9.9999239217138658e-01  9.9999301879003066e-01  1.0000001536514038e+00  1.0000124071094980e+00  9.9998913124791367e-01  9.9999938820328116e-01  1.0000250195265556e+00  9.9999924063637369e-01  9.9999171580366608e-01  1.0000388641079019e+00  9.9996939918294292e-01  1.0000179322890508e+00  9.9998888083977944e-01  9.9997827062227818e-01  9.9999882225272896e-01  9.9999436269702957e-01  1.0000425155135031e+00  1.0001417774317440e+00  9.9977007631185055e-01  1.0001619337804251e+00  1.0000686412887281e+00  9.9964126653786545e-01  1.0000989895941261e+00  9.9988408783555582e-01  9.9980717710360711e-01  9.9957520538458067e-01  1.0002500339418796e+00  9.9995949036247656e-01  9.9974364436986962e-01  1.0003293180765274e+00  9.9994451031677634e-01  9.9979922200129145e-01  9.9972337930757715e-01  1.0001002003013941e+00  9.9997300942178491e-01  1.0001381089769221e+00  1.0003692694856599e+00  9.9994777754799713e-01  1.0000109477613646e+00  1