<?xml version="1.0"?>
<VTKFile type="UnstructuredGrid"  version="0.1"  >
<UnstructuredGrid>
<Piece  NumberOfPoints="10201" NumberOfCells="20000">
<Points>
<DataArray  type="Float64"  NumberOfComponents="3"  format="ascii">-5 -5 0  -4.9 -5 0  -4.8 -5 0  -4.7 -5 0  -4.6 -5 0  -4.5 -5 0  -4.4 -5 0  -4.3 -5 0  -4.2 -5 0  -4.1 -5 0  -4 -5 0  -3.9 -5 0  -3.8 -5 0  -3.7 -5 0  -3.6 -5 0  -3.5 -5 0  -3.4 -5 0  -3.3 -5 0  -3.2 -5 0  -3.1 -5 0  -3 -5 0  -2.9 -5 0  -2.8 -5 0  -2.7 -5 0  -2.6 -5 0  -2.5 -5 0  -2.4 -5 0  -2.3 -5 0  -2.2 -5 0  -2.1 -5 0  -2 -5 0  -1.9 -5 0  -1.8 -5 0  -1.7 -5 0  -1.6 -5 0  -1.5 -5 0  -1.4 -5 0  -1.3 -5 0  -1.2 -5 0  -1.1 -5 0  -1 -5 0  -0.9000000000000004 -5 0  -0.7999999999999998 -5 0  -0.7000000000000002 -5 0  -0.5999999999999996 -5 0  -0.5 -5 0  -0.4000000000000004 -5 0  -0.2999999999999998 -5 0  -0.2000000000000002 -5 0  -0.09999999999999964 -5 0  0 -5 0  0.09999999999999964 -5 0  0.2000000000000002 -5 0  0.2999999999999998 -5 0  0.4000000000000004 -5 0  0.5 -5 0  0.5999999999999996 -5 0  0.7000000000000002 -5 0  0.7999999999999998 -5 0  0.9000000000000004 -5 0  1 -5 0  1.1 -5 0  1.2 -5 0  1.3 -5 0  1.4 -5 0  1.5 -5 0  1.6 -5 0  1.7 -5 0  1.8 -5 0  1.9 -5 0  2 -5 0  2.1 -5 0  2.2 -5 0  2.3 -5 0  2.4 -5 0  2.5 -5 0  2.6 -5 0  2.7 -5 0  2.8 -5 0  2.9 -5 0  3 -5 0  3.1 -5 0  3.199999999999999 -5 0  3.300000000000001 -5 0  3.4 -5 0  3.5 -5 0  3.6 -5 0  3.699999999999999 -5 0  3.800000000000001 -5 0  3.9 -5 0  4 -5 0  4.1 -5 0  4.199999999999999 -5 0  4.300000000000001 -5 0  4.4 -5 0  4.5 -5 0  4.6 -5 0  4.699999999999999 -5 0  4.800000000000001 -5 0  4.9 -5 0  5 -5 0  -5 -4.9 0  -4.9 -4.9 0  -4.8 -4.9 0  -4.7 -4.9 0  -4.6 -4.9 0  -4.5 -4.9 0  -4.4 -4.9 0  -4.3 -4.9 0  -4.2 -4.9 0  -4.1 -4.9 0  -4 -4.9 0  -3.9 -4.9 0  -3.8 -4.9 0  -3.7 -4.9 0  -3.6 -4.9 0  -3.5 -4.9 0  -3.4 -4.9 0  -3.3 -4.9 0  -3.2 -4.9 0  -3.1 -4.9 0  -3 -4.9 0  -2.9 -4.9 0  -2.8 -4.9 0  -2.7 -4.9 0  -2.6 -4.9 0  -2.5 -4.9 0  -2.4 -4.9 0  -2.3 -4.9 0  -2.2 -4.9 0  -2.1 -4.9 0  -2 -4.9 0  -1.9 -4.9 0  -1.8 -4.9 0  -1.7 -4.9 0  -1.6 -4.9 0  -1.5 -4.9 0  -1.4 -4.9 0  -1.3 -4.9 0  -1.2 -4.9 0  -1.1 -4.9 0  -1 -4.9 0  -0.9000000000000004 -4.9 0  -0.7999999999999998 -4.9 0  -0.7000000000000002 -4.9 0  -0.5999999999999996 -4.9 0  -0.5 -4.9 0  -0.4000000000000004 -4.9 0  -0.2999999999999998 -4.9 0  -0.2000000000000002 -4.9 0  -0.09999999999999964 -4.9 0  0 -4.9 0  0.09999999999999964 -4.9 0  0.2000000000000002 -4.9 0  0.2999999999999998 -4.9 0  0.4000000000000004 -4.9 0  0.5 -4.9 0  0.5999999999999996 -4.9 0  0.7000000000000002 -4.9 0  0.7999999999999998 -4.9 0  0.9000000000000004 -4.9 0  1 -4.9 0  1.1 -4.9 0  1.2 -4.9 0  1.3 -4.9 0  1.4 -4.9 0  1.5 -4.9 0  1.6 -4.9 0  1.7 -4.9 0  1.8 -4.9 0  1.9 -4.9 0  2 -4.9 0  2.1 -4.9 0  2.2 -4.9 0  2.3 -4.9 0  2.4 -4.9 0  2.5 -4.9 0  2.6 -4.9 0  2.7 -4.9 0  2.8 -4.9 0  2.9 -4.9 0  3 -4.9 0  3.1 -4.9 0  3.199999999999999 -4.9 0  3.300000000000001 -4.9 0  3.4 -4.9 0  3.5 -4.9 0  3.6 -4.9 0  3.699999999999999 -4.9 0  3.800000000000001 -4.9 0  3.9 -4.9 0  4 -4.9 0  4.1 -4.9 0  4.199999999999999 -4.9 0  4.300000000000001 -4.9 0  4.4 -4.9 0  4.5 -4.9 0  4.6 -4.9 0  4.699999999999999 -4.9 0  4.800000000000001 -4.9 0  4.9 -4.9 0  5 -4.9 0  -5 -4.8 0  -4.9 -4.8 0  -4.8 -4.8 0  -4.7 -4.8 0  -4.6 -4.8 0  -4.5 -4.8 0  -4.4 -4.8 0  -4.3 -4.8 0  -4.2 -4.8 0  -4.1 -4.8 0  -4 -4.8 0  -3.9 -4.8 0  -3.8 -4.8 0  -3.7 -4.8 0  -3.6 -4.8 0  -3.5 -4.8 0  -3.4 -4.8 0  -3.3 -4.8 0  -3.2 -4.8 0  -3.1 -4.8 0  -3 -4.8 0  -2.9 -4.8 0  -2.8 -4.8 0  -2.7 -4.8 0  -2.6 -4.8 0  -2.5 -4.8 0  -2.4 -4.8 0  -2.3 -4.8 0  -2.2 -4.8 0  -2.1 -4.8 0  -2 -4.8 0  -1.9 -4.8 0  -1.8 -4.8 0  -1.7 -4.8 0  -1.6 -4.8 0  -1.5 -4.8 0  -1.4 -4.8 0  -1.3 -4.8 0  -1.2 -4.8 0  -1.1 -4.8 0  -1 -4.8 0  -0.9000000000000004 -4.8 0  -0.7999999999999998 -4.8 0  -0.7000000000000002 -4.8 0  -0.5999999999999996 -4.8 0  -0.5 -4.8 0  -0.4000000000000004 -4.8 0  -0.2999999999999998 -4.8 0  -0.2000000000000002 -4.8 0  -0.09999999999999964 -4.8 0  0 -4.8 0  0.09999999999999964 -4.8 0  0.2000000000000002 -4.8 0  0.2999999999999998 -4.8 0  0.4000000000000004 -4.8 0  0.5 -4.8 0  0.5999999999999996 -4.8 0  0.7000000000000002 -4.8 0  0.7999999999999998 -4.8 0  0.9000000000000004 -4.8 0  1 -4.8 0  1.1 -4.8 0  1.2 -4.8 0  1.3 -4.8 0  1.4 -4.8 0  1.5 -4.8 0  1.6 -4.8 0  1.7 -4.8 0  1.8 -4.8 0  1.9 -4.8 0  2 -4.8 0  2.1 -4.8 0  2.2 -4.8 0  2.3 -4.8 0  2.4 -4.8 0  2.5 -4.8 0  2.6 -4.8 0  2.7 -4.8 0  2.8 -4.8 0  2.9 -4.8 0  3 -4.8 0  3.1 -4.8 0  3.199999999999999 -4.8 0  3.300000000000001 -4.8 0  3.4 -4.8 0  3.5 -4.8 0  3.6 -4.8 0  3.699999999999999 -4.8 0  3.800000000000001 -4.8 0  3.9 -4.8 0  4 -4.8 0  4.1 -4.8 0  4.199999999999999 -4.8 0  4.300000000000001 -4.8 0  4.4 -4.8 0  4.5 -4.8 0  4.6 -4.8 0  4.699999999999999 -4.8 0  4.800000000000001 -4.8 0  4.9 -4.8 0  5 -4.8 0  -5 -4.7 0  -4.9 -4.7 0  -4.8 -4.7 0  -4.7 -4.7 0  -4.6 -4.7 0  -4.5 -4.7 0  -4.4 -4.7 0  -4.3 -4.7 0  -4.2 -4.7 0  -4.1 -4.7 0  -4 -4.7 0  -3.9 -4.7 0  -3.8 -4.7 0  -3.7 -4.7 0  -3.6 -4.7 0  -3.5 -4.7 0  -3.4 -4.7 0  -3.3 -4.7 0  -3.2 -4.7 0  -3.1 -4.7 0  -3 -4.7 0  -2.9 -4.7 0  -2.8 -4.7 0  -2.7 -4.7 0  -2.6 -4.7 0  -2.5 -4.7 0  -2.4 -4.7 0  -2.3 -4.7 0  -2.2 -4.7 0  -2.1 -4.7 0  -2 -4.7 0  -1.9 -4.7 0  -1.8 -4.7 0  -1.7 -4.7 0  -1.6 -4.7 0  -1.5 -4.7 0  -1.4 -4.7 0  -1.3 -4.7 0  -1.2 -4.7 0  -1.1 -4.7 0  -1 -4.7 0  -0.9000000000000004 -4.7 0  -0.7999999999999998 -4.7 0  -0.7000000000000002 -4.7 0  -0.5999999999999996 -4.7 0  -0.5 -4.7 0  -0.4000000000000004 -4.7 0  -0.2999999999999998 -4.7 0  -0.2000000000000002 -4.7 0  -0.09999999999999964 -4.7 0  0 -4.7 0  0.09999999999999964 -4.7 0  0.2000000000000002 -4.7 0  0.2999999999999998 -4.7 0  0.4000000000000004 -4.7 0  0.5 -4.7 0  0.5999999999999996 -4.7 0  0.7000000000000002 -4.7 0  0.7999999999999998 -4.7 0  0.9000000000000004 -4.7 0  1 -4.7 0  1.1 -4.7 0  1.2 -4.7 0  1.3 -4.7 0  1.4 -4.7 0  1.5 -4.7 0  1.6 -4.7 0  1.7 -4.7 0  1.8 -4.7 0  1.9 -4.7 0  2 -4.7 0  2.1 -4.7 0  2.2 -4.7 0  2.3 -4.7 0  2.4 -4.7 0  2.5 -4.7 0  2.6 -4.7 0  2.7 -4.7 0  2.8 -4.7 0  2.9 -4.7 0  3 -4.7 0  3.1 -4.7 0  3.199999999999999 -4.7 0  3.300000000000001 -4.7 0  3.4 -4.7 0  3.5 -4.7 0  3.6 -4.7 0  3.699999999999999 -4.7 0  3.800000000000001 -4.7 0  3.9 -4.7 0  4 -4.7 0  4.1 -4.7 0  4.199999999999999 -4.7 0  4.300000000000001 -4.7 0  4.4 -4.7 0  4.5 -4.7 0  4.6 -4.7 0  4.699999999999999 -4.7 0  4.800000000000001 -4.7 0  4.9 -4.7 0  5 -4.7 0  -5 -4.6 0  -4.9 -4.6 0  -4.8 -4.6 0  -4.7 -4.6 0  -4.6 -4.6 0  -4.5 -4.6 0  -4.4 -4.6 0  -4.3 -4.6 0  -4.2 -4.6 0  -4.1 -4.6 0  -4 -4.6 0  -3.9 -4.6 0  -3.8 -4.6 0  -3.7 -4.6 0  -3.6 -4.6 0  -3.5 -4.6 0  -3.4 -4.6 0  -3.3 -4.6 0  -3.2 -4.6 0  -3.1 -4.6 0  -3 -4.6 0  -2.9 -4.6 0  -2.8 -4.6 0  -2.7 -4.6 0  -2.6 -4.6 0  -2.5 -4.6 0  -2.4 -4.6 0  -2.3 -4.6 0  -2.2 -4.6 0  -2.1 -4.6 0  -2 -4.6 0  -1.9 -4.6 0  -1.8 -4.6 0  -1.7 -4.6 0  -1.6 -4.6 0  -1.5 -4.6 0  -1.4 -4.6 0  -1.3 -4.6 0  -1.2 -4.6 0  -1.1 -4.6 0  -1 -4.6 0  -0.9000000000000004 -4.6 0  -0.7999999999999998 -4.6 0  -0.7000000000000002 -4.6 0  -0.5999999999999996 -4.6 0  -0.5 -4.6 0  -0.4000000000000004 -4.6 0  -0.2999999999999998 -4.6 0  -0.2000000000000002 -4.6 0  -0.09999999999999964 -4.6 0  0 -4.6 0  0.09999999999999964 -4.6 0  0.2000000000000002 -4.6 0  0.2999999999999998 -4.6 0  0.4000000000000004 -4.6 0  0.5 -4.6 0  0.5999999999999996 -4.6 0  0.7000000000000002 -4.6 0  0.7999999999999998 -4.6 0  0.9000000000000004 -4.6 0  1 -4.6 0  1.1 -4.6 0  1.2 -4.6 0  1.3 -4.6 0  1.4 -4.6 0  1.5 -4.6 0  1.6 -4.6 0  1.7 -4.6 0  1.8 -4.6 0  1.9 -4.6 0  2 -4.6 0  2.1 -4.6 0  2.2 -4.6 0  2.3 -4.6 0  2.4 -4.6 0  2.5 -4.6 0  2.6 -4.6 0  2.7 -4.6 0  2.8 -4.6 0  2.9 -4.6 0  3 -4.6 0  3.1 -4.6 0  3.199999999999999 -4.6 0  3.300000000000001 -4.6 0  3.4 -4.6 0  3.5 -4.6 0  3.6 -4.6 0  3.699999999999999 -4.6 0  3.800000000000001 -4.6 0  3.9 -4.6 0  4 -4.6 0  4.1 -4.6 0  4.199999999999999 -4.6 0  4.300000000000001 -4.6 0  4.4 -4.6 0  4.5 -4.6 0  4.6 -4.6 0  4.699999999999999 -4.6 0  4.800000000000001 -4.6 0  4.9 -4.6 0  5 -4.6 0  -5 -4.5 0  -4.9 -4.5 0  -4.8 -4.5 0  -4.7 -4.5 0  -4.6 -4.5 0  -4.5 -4.5 0  -4.4 -4.5 0  -4.3 -4.5 0  -4.2 -4.5 0  -4.1 -4.5 0  -4 -4.5 0  -3.9 -4.5 0  -3.8 -4.5 0  -3.7 -4.5 0  -3.6 -4.5 0  -3.5 -4.5 0  -3.4 -4.5 0  -3.3 -4.5 0  -3.2 -4.5 0  -3.1 -4.5 0  -3 -4.5 0  -2.9 -4.5 0  -2.8 -4.5 0  -2.7 -4.5 0  -2.6 -4.5 0  -2.5 -4.5 0  -2.4 -4.5 0  -2.3 -4.5 0  -2.2 -4.5 0  -2.1 -4.5 0  -2 -4.5 0  -1.9 -4.5 0  -1.8 -4.5 0  -1.7 -4.5 0  -1.6 -4.5 0  -1.5 -4.5 0  -1.4 -4.5 0  -1.3 -4.5 0  -1.2 -4.5 0  -1.1 -4.5 0  -1 -4.5 0  -0.9000000000000004 -4.5 0  -0.7999999999999998 -4.5 0  -0.7000000000000002 -4.5 0  -0.5999999999999996 -4.5 0  -0.5 -4.5 0  -0.4000000000000004 -4.5 0  -0.2999999999999998 -4.5 0  -0.2000000000000002 -4.5 0  -0.09999999999999964 -4.5 0  0 -4.5 0  0.09999999999999964 -4.5 0  0.2000000000000002 -4.5 0  0.2999999999999998 -4.5 0  0.4000000000000004 -4.5 0  0.5 -4.5 0  0.5999999999999996 -4.5 0  0.7000000000000002 -4.5 0  0.7999999999999998 -4.5 0  0.9000000000000004 -4.5 0  1 -4.5 0  1.1 -4.5 0  1.2 -4.5 0  1.3 -4.5 0  1.4 -4.5 0  1.5 -4.5 0  1.6 -4.5 0  1.7 -4.5 0  1.8 -4.5 0  1.9 -4.5 0  2 -4.5 0  2.1 -4.5 0  2.2 -4.5 0  2.3 -4.5 0  2.4 -4.5 0  2.5 -4.5 0  2.6 -4.5 0  2.7 -4.5 0  2.8 -4.5 0  2.9 -4.5 0  3 -4.5 0  3.1 -4.5 0  3.199999999999999 -4.5 0  3.300000000000001 -4.5 0  3.4 -4.5 0  3.5 -4.5 0  3.6 -4.5 0  3.699999999999999 -4.5 0  3.800000000000001 -4.5 0  3.9 -4.5 0  4 -4.5 0  4.1 -4.5 0  4.199999999999999 -4.5 0  4.300000000000001 -4.5 0  4.4 -4.5 0  4.5 -4.5 0  4.6 -4.5 0  4.699999999999999 -4.5 0  4.800000000000001 -4.5 0  4.9 -4.5 0  5 -4.5 0  -5 -4.4 0  -4.9 -4.4 0  -4.8 -4.4 0  -4.7 -4.4 0  -4.6 -4.4 0  -4.5 -4.4 0  -4.4 -4.4 0  -4.3 -4.4 0  -4.2 -4.4 0  -4.1 -4.4 0  -4 -4.4 0  -3.9 -4.4 0  -3.8 -4.4 0  -3.7 -4.4 0  -3.6 -4.4 0  -3.5 -4.4 0  -3.4 -4.4 0  -3.3 -4.4 0  -3.2 -4.4 0  -3.1 -4.4 0  -3 -4.4 0  -2.9 -4.4 0  -2.8 -4.4 0  -2.7 -4.4 0  -2.6 -4.4 0  -2.5 -4.4 0  -2.4 -4.4 0  -2.3 -4.4 0  -2.2 -4.4 0  -2.1 -4.4 0  -2 -4.4 0  -1.9 -4.4 0  -1.8 -4.
[...]
<PointData  Scalars="r"> 
<DataArray  type="Float64"  Name="r"  format="ascii">9.9998840449644955e-01  9.9999908002021132e-01  9.9998477683946829e-01  9.9998818137422230e-01  9.9998028218691737e-01  9.9998685814172861e-01  9.9999511811182273e-01  1.0000227638495174e+00  1.0000546240658370e+00  1.0000922079726076e+00  1.0001197645702522e+00  1.0001232327310756e+00  1.0000936547948251e+00  1.0000558269638944e+00  1.0000308668527680e+00  1.0000307744963992e+00  1.0000656675301847e+00  1.0001099235353941e+00  1.0001023135410643e+00  1.0000449779692415e+00  1.0000098308494134e+00  1.0000340349805479e+00  1.0001108939150105e+00  1.0002111843393655e+00  1.0002487001571250e+00  1.0001808015270330e+00  1.0001119904712763e+00  1.0001220340823822e+00  1.0001401200361508e+00  1.0000992899944807e+00  1.0000187335850710e+00  9.9995510502186402e-01  9.9997803335656466e-01  1.0000483670681455e+00  1.0000240442062276e+00  9.9994167964125458e-01  9.9996660399632464e-01  1.0000452057830762e+00  1.0000278527039113e+00  9.9996540276177159e-01  9.9996885846530326e-01  1.0000243297395661e+00  1.0000400255604196e+00  9.9997442823884086e-01  9.9995126364251075e-01  1.0000407370393711e+00  1.0000455807915221e+00  9.9993772393389702e-01  9.9997644133161601e-01  1.0000749823323485e+00  9.9998759633761669e-01  9.9993399715065445e-01  1.0000462185984891e+00  1.0000348582757894e+00  9.9993954316570322e-01  1.0000046527591102e+00  1.0000484154772711e+00  9.9996691543330429e-01  9.9998100328404049e-01  1.0000383979434777e+00  9.9999032860442050e-01  9.9997658500282494e-01  1.0000229169671933e+00  1.0000021544588362e+00  9.9998151243110411e-01  1.0000112781610797e+00  1.0000054357633132e+00  9.9998802770642381e-01  1.0000048412325260e+00  1.0000048264426085e+00  9.9999305917525361e-01  1.0000018929632881e+00  1.0000033144497633e+00  9.9999612268836680e-01  1.0000008620898657e+00  1.0000018194334219e+00  9.9999808555248326e-01  1.0000002097792386e+00  1.0000012606909741e+00  9.9999858798903141e-01  1.0000006662906344e+00  9.9999996369523025e-01  1.0000000753524274e+00  9.9999939214938272e-01  1.0000011477253425e+00  9.9999860421186704e-01  1.0000013939804853e+00  9.9999864410776840e-01  1.0000014349452142e+00  9.9999837287621984e-01  1.0000018339691954e+00  9.9999804913797707e-01  1.0000019750802911e+00  9.9999812133694821e-01  1.0000018399298984e+00  9.9999838326514079e-01  1.0000017455621679e+00  9.9999872476701224e-01  1.0000018057334330e+00  9.9999918761639428e-01  1.0000021468322053e+00  9.9999908002021265e-01  1.0000087338101300e+00  1.0000060261119650e+00  1.0000150428257057e+00  1.0000135589363928e+00  1.0000166731255737e+00  1.0000071479995523e+00  9.9999084030342011e-01  9.9995967620736814e-01  9.9992800493324363e-01  9.9989641264907836e-01  9.9988189953288031e-01  9.9989637852880742e-01  9.9993131515506850e-01  9.9995883705820499e-01  9.9997025141154261e-01  9.9995770679046081e-01  9.9992076852119949e-01  9.9990433009042934e-01  9.9994340012399696e-01  9.9998749332608394e-01  9.9998001113462909e-01  9.9992712537338546e-01  9.9984478912578845e-01  9.9977364858832829e-01  9.9978628907152978e-01  9.9985339609882651e-01  9.9987137772341628e-01  9.9985416121340032e-01  9.9987997988849542e-01  9.9994424899199019e-01  1.0000095463094580e+00  1.0000332943441588e+00  9.9998682724807608e-01  9.9996032866758022e-01  1.0000221964205807e+00  1.0000502836278407e+00  9.9998636064386304e-01  9.9996223795551142e-01  1.0000103350565772e+00  1.0000310074134913e+00  1.0000012736113086e+00  9.9996911209777384e-01  9.9998956503337955e-01  1.0000413513363058e+00  1.0000082492447526e+00  9.9994539997281218e-01  1.0000097529917029e+00  1.0000576347165524e+00  9.9996316579490963e-01  9.9995863113944028e-01  1.0000576764117708e+00  1.0000088382560159e+00  9.9994164900851246e-01  1.0000251097142043e+00  1.0000366616739511e+00  9.9995663353624886e-01  9.9999559801549831e-01  1.0000384058816678e+00  9.9997926985181274e-01  9.9998288380397093e-01  1.0000273791173875e+00  9.9999492244652011e-01  9.9998271430539154e-01  1.0000156509975069e+00  1.0000018343257095e+00  9.9998731869244128e-01  1.0000077646148420e+00  1.0000033705930604e+00  9.9999207766882681e-01  1.0000035330854982e+00  1.0000028171590145e+00  9.9999541490482446e-01  1.0000016685429931e+00  1.0000017169511652e+00  9.9999761509415708e-01  1.0000006648396234e+00  1.0000011567789178e+00  9.9999846307608098e-01  1.0000007209679815e+00  1.0000001320458038e+00  9.9999974387831492e-01  9.9999975566416421e-01  1.0000008113674330e+00  9.9999895005511108e-01  1.0000009714991986e+00  9.9999917643692871e-01  1.0000008055793943e+00  9.9999906520495285e-01  1.0000011002905587e+00  9.9999880610100178e-01  1.0000011752442957e+00  9.9999890176104600e-01  1.0000009742448370e+00  9.9999906737986810e-01  1.0000007617280948e+00  9.9999913791846540e-01  1.0000004394075090e+00  9.9999917657980097e-01  9.9999986162344001e-01  9.9999918761639917e-01  9.9998477683947273e-01  1.0000060261119641e+00  9.9998648352198272e-01  9.9999569203031435e-01  9.9998233377407386e-01  9.9999022038439189e-01  9.9998696833816947e-01  1.0000045736400665e+00  1.0000246621060418e+00  1.0000583641732703e+00  1.0000851170778140e+00  1.0001096600319301e+00  1.0001084514768963e+00  1.0000810480855902e+00  1.0000481616931403e+00  1.0000310699460473e+00  1.0000263626236410e+00  1.0000444893556821e+00  1.0000719831829243e+00  1.0000565475456196e+00  1.0000043173486595e+00  9.9998854817015137e-01  1.0000261424168748e+00  1.0000893525495547e+00  1.0001669859009059e+00  1.0002065238919724e+00  1.0001694536354104e+00  1.0001364577556457e+00  1.0001566128532586e+00  1.0001519732630846e+00  1.0000925889466090e+00  1.0000272454457573e+00  9.9998268971070370e-01  9.9999160709763757e-01  1.0000334967570526e+00  1.0000077700119472e+00  9.9995144352806353e-01  9.9998560058467401e-01  1.0000377076924944e+00  1.0000061350167753e+00  9.9997116937520336e-01  9.9999067805710418e-01  1.0000185114620230e+00  1.0000187371827489e+00  9.9998089248200694e-01  9.9997194334468831e-01  1.0000322813476026e+00  1.0000255719330127e+00  9.9995037133029552e-01  9.9999400169511210e-01  1.0000564864505881e+00  9.9997646343280200e-01  9.9995703895188792e-01  1.0000467138855138e+00  1.0000125741824950e+00  9.9995059474623738e-01  1.0000190347744284e+00  1.0000303633614764e+00  9.9996492254192160e-01  9.9999773439071971e-01  1.0000296235674491e+00  9.9998208775797726e-01  9.9998914584080401e-01  1.0000210950555415e+00  9.9999349116110914e-01  9.9998896058634923e-01  1.0000126512467755e+00  9.9999879261637581e-01  9.9999189022040258e-01  1.0000068405244493e+00  1.0000005486956336e+00  9.9999481870936602e-01  1.0000036773309453e+00  1.0000005440441830e+00  9.9999724875817508e-01  1.0000016389417572e+00  1.0000007338489398e+00  9.9999803280307187e-01  1.0000015168295144e+00  9.9999953192730506e-01  1.0000000161257681e+00  9.9999956097368037e-01  1.0000012216356702e+00  9.9999822882924994e-01  1.0000019108556255e+00  9.9999815014566895e-01  1.0000018657904208e+00  9.9999793878363641e-01  1.0000023485899605e+00  9.9999741936749298e-01  1.0000026754511457e+00  9.9999736180889987e-01  1.0000025400051249e+00  9.9999760260697923e-01  1.0000023000901761e+00  9.9999793183939800e-01  1.0000020310701241e+00  9.9999847166990641e-01  1.0000017645557626e+00  9.9999917657979742e-01  1.0000018057334363e+00  9.9998818137422174e-01  1.0000150428257084e+00  9.9999569203031491e-01  1.0000158483716910e+00  1.0000049303263974e+00  1.0000174605830436e+00  1.0000039522718800e+00  1.0000030752243980e+00  9.9997558403233311e-01  9.9995093468110663e-01  9.9991892796746473e-01  9.9990176829479405e-01  9.9989274650181659e-01  9.9991675301872252e-01  9.9995356235017852e-01  9.9997421650561069e-01  9.9997560094293669e-01  9.9997170173698424e-01  9.9995440270492286e-01  9.9995686323380262e-01  1.0000123071425304e+00  1.0000565680105313e+00  1.0000258768018173e+00  9.9996131934410193e-01  9.9989969302587822e-01  9.9984853577030319e-01  9.9984990081953884e-01  9.9987631850462988e-01  9.9984657592614823e-01  9.9981522284275737e-01  9.9986789746590121e-01  9.9994662693757141e-01  9.9999029641819936e-01  1.0000008476417872e+00  9.9997651577296420e-01  9.9997858252869110e-01  1.0000367870117541e+00  1.0000342713838295e+00  9.9996721646571818e-01  9.9997865614854675e-01  1.0000323949427268e+00  1.0000150239599239e+00  9.9997977247699799e-01  9.9998505227831092e-01  1.0000105045608445e+00  1.0000248464015637e+00  9.9998742511979954e-01  9.9996543853145481e-01  1.0000288552368297e+00  1.0000307915291473e+00  9.9995121582243596e-01  9.9999173790397788e-01  1.0000556397675382e+00  9.9997642699854394e-01  9.9996022249559213e-01  1.0000460336301440e+00  1.0000075290731067e+00  9.9995474216995950e-01  1.0000226136191595e+00  1.0000231711755800e+00  9.9996603656117466e-01  1.0000042863973149e+00  1.0000238860538759e+00  9.9998006997548583e-01  9.9999580332352611e-01  1.0000179983573916e+00  9.9999005929296192e-01  9.9999416306371602e-01  1.0000114640643658e+00  9.9999559861342724e-01  9.9999520367329131e-01  1.0000068493971253e+00  9.9999784003050074e-01  9.9999722090589360e-01  1.0000034079629228e+00  9.9999945570297477e-01  9.9999776291783193e-01  1.0000027145197254e+00  9.9999856002846788e-01  1.0000002526183935e+00  9.9999973404360165e-01  1.0000012236326017e+00  9.9999777784419441e-01  1.0000026729254365e+00  9.9999736313883469e-01  1.0000025184231500e+00  9.9999738539381178e-01  1.0000029230478185e+00  9.9999675022982260e-01  1.0000034158855871e+00  9.9999662349882490e-01  1.0000031946658485e+00  9.9999702702069060e-01  1.0000027343897500e+00  9.9999745997310363e-01  1.0000022139156000e+00  9.9999795379076351e-01  1.0000014304294096e+00  9.9999847166990763e-01  1.0000004394075102e+00  9.9999872476701501e-01  9.9998028218691803e-01  1.0000135589363910e+00  9.9998233377407042e-01  1.0000049303263998e+00  9.9998141453673361e-01  9.9999697426651091e-01  9.9998644430581241e-01  1.0000073126783477e+00  1.0000135686520601e+00  1.0000505235394217e+00  1.0000733487929043e+00  1.0000955845256154e+00  1.0000971996210344e+00  1.0000857970134438e+00  1.0000424442166347e+00  1.0000120854139916e+00  1.0000134283648408e+00  1.0000212708369511e+00  1.0000225370357896e+00  1.0000234425556553e+00  9.9997978748042338e-01  9.9990667455617577e-01  9.9990663351218134e-01  9.9998204518794742e-01  1.0000443735963629e+00  1.0000823366580383e+00  1.0000999009927203e+00  1.0000871487044845e+00  1.0001173937574728e+00  1.0001948336836863e+00  1.0001854450361460e+00  1.0000883462457120e+00  1.0000287373124439e+00  1.0000199143473740e+00  1.0000284226379068e+00  1.0000306584070950e+00  9.9997932659091993e-01  9.9994838778175565e-01  1.0000172867855466e+00  1.0000447417605718e+00  9.9997170217874265e-01  9.9996284787405665e-01  1.0000242604874963e+00  1.0000257345495625e+00  9.9998623745988047e-01  9.9997421357499372e-01  1.0000053750849549e+00  1.0000365615598819e+00  9.9998830398745930e-01  9.9995439686011656e-01  1.0000336286952984e+00  1.0000372159014510e+00  9.9994319979916502e-01  9.9999253681732003e-01  1.0000614789979319e+00  9.9997035213389562e-01  9.9996078621015372e-01  1.0000515792773221e+00  1.0000013847974607e+00  9.9995478733019205e-01  1.0000289906588564e+00  1.0000174578280809e+00  9.9996467308893455e-01  1.0000108852868488e+00  1.0000196990360779e+00  9.9997752832381237e-01  1.0000015983972750e+00  1.0000153884897380e+00  9.9998743179608429e-01  9.9999831317470034e-01  1.0000103508817144e+00  9.9999300742617492e-01  9.9999853385456916e-01  1.0000056046139163e+00  9.9999698655928526e-01  9.9999807896581960e-01  1.0000042893761631e+00  9.9999685352581857e-01  1.0000009021255352e+00  9.9999994789713920e-01  1.0000010574294855e+00  9.9999728145914468e-01  1.0000037664853390e+00  9.9999610493815261e-01  1.0000036246273987e+00  9.9999643054832754e-01  1.0000039182979443e+00  9.9999555819488861e-01  1.0000048111898041e+00  9.9999513232071791e-01  1.0000046697143474e+00  9.9999563311378636e-01  1.0000040786233797e+00  9.9999620165187009e-01  1.0000035354633037e+00  9.9999689125577773e-01  1.0000027931103963e+00  9.9999795379076151e-01  1.0000020310701203e+00  9.9999913791846884e-01  1.0000017455621657e+00  9.9998685814172827e-01  1.0000166731255729e+00  9.9999022038438956e-01  1.0000174605830441e+00  9.9999697426651157e-01  1.0000184755676271e+00  9.9999919646748969e-01  1.0000032401440386e+00  9.9997638758433294e-01  9.9996190407837593e-01  9.9992021741535353e-01  9.9990775735481585e-01  9.9990307954227020e-01  9.9992028730289617e-01  9.9995464304873738e-01  1.0000059545047388e+00  1.0000111543677834e+00  9.9998710880527408e-01  9.9998288121042211e-01  9.9999356916176840e-01  1.0000213853237974e+00  1.0001032224177335e+00  1.0001567346716820e+00  1.0000932954118693e+00  1.0000050267810230e+00  9.9997862608467869e-01  9.9997401115300399e-01  9.9997637691589758e-01  9.9995355491315718e-01  9.9984793241367720e-01  9.9977726087817076e-01  9.9985666680201724e-01  9.9995333132984587e-01  9.9996251868921504e-01  9.9995041342228019e-01  9.9995549644111004e-01  9.9999912181661443e-01  1.0000573591557642e+00  1.0000136989360062e+00  9.9993927743174649e-01  1.0000001701957462e+00  1.0000631267009179e+00  9.9999331734619379e-01  9.9995122996146146e-01  1.0000066598858015e+00  1.0000377368527549e+00  1.0000028975790225e+00  9.9995983956414636e-01  9.9999271336232287e-01  1.0000544854319020e+00  9.9999273574526093e-01  9.9993664882625077e-01  1.0000390204577747e+00  1.0000483605254742e+00  9.9993221829509693e-01  9.9999168162444740e-01  1.0000700876765338e+00  9.9996390626482745e-01  9.9996004434553531e-01  1.0000576986595953e+00  9.9999564977520938e-01  9.9995488928843512e-01  1.0000345944992881e+00  1.0000118662768098e+00  9.9996444264220641e-01  1.0000164799543709e+00  1.0000148402747169e+00  9.9997686704262390e-01  1.0000062612490654e+00  1.0000121714978705e+00  9.9998599737571681e-01  1.0000025701046065e+00  1.0000072918769320e+00  9.9999306323883397e-01  9.9999982912081309e-01  1.0000057248456897e+00  9.9999432653297216e-01  1.0000022737649816e+00  1.0000001259838931e+00  1.0000004497004218e+00  9.9999718164126206e-01  1.0000047849885092e+00  9.9999470295390125e-01  1.0000048419050334e+00  9.9999553939901986e-01  1.0000047105009395e+00  9.9999459300880800e-01  1.0000060316541142e+00  9.9999376697628795e-01  1.0000060138939522e+00  9.9999440267831452e-01  1.0000051904836020e+00  9.9999513400269380e-01  1.0000045440106002e+00  9.9999582064279890e-01  1.0000036058188428e+00  9.9999689125577684e-01  1.0000022139155971e+00  9.9999793183940555e-01  1.0000007617280935e+00  9.9999838326514745e-01  9.9999511811182151e-01  1.0000071479995503e+00  9.9998696833816925e-01  1.0000039522718802e+00  9.9998644430581207e-01  9.9999919646748614e-01  9.9998705349729800e-01  1.0000079529757733e+00  1.0000149579010935e+00  1.0000436038816543e+00  1.0000677346374609e+00  1.0001017531012344e+00  1.0000928344244737e+00  1.0000751504869934e+00  1.0000398241385464e+00  9.9998769053707082e-01  9.9995224764002077e-01  9.9998735143681905e-01  1.0000187365009312e+00  1.0000023002582081e+00  9.9997384124316957e-01  9.9991341748460227e-01  9.9982099791229040e-01  9.9983043338557487e-01  9.9994117371015379e-01  9.9998748655728342e-01  9.9995900239745905e-01  9.9994297189784020e-01  9.9995665883407792e-01  1.0000545967869112e+00  1.0002008991129911e+00  1.0002001194092076e+00  1.0000786338509047e+00  1.0000432846638387e+00  1.0000761592835921e+00  1.0000705598139765e+00  1.0000258452739057e+00  9.9995572022175949e-01  9.9995379848431765e-01  1.0000502413674741e+00  1.0000434937393303e+00  9.9993405034646821e-01  9.9996450321028585e-01  1.0000608679618199e+00  1.0000215892342161e+00  9.9995181411726874e-01  9.9997872174875502e-01  1.0000399549619470e+00  1.0000297346375664e+00  9.9995020188100714e-01  9.9997116912848016e-01  1.0000717687513148e+00  1.0000029906045678e+00  9.9991776096140761e-01  1.0000415415248918e+00  1.0000602231083895e+00  9.9992299780748162e-01  9.9999073813709805e-01  1.0000765114725321e+00  9.9995830394214191e-01  9.9996154739400156e-01  1.0000612556618371e+00  9.9998948216772165e-01  9.9995792030868280e-01  1.0000382712763116e+00  1.0000049779567219e+00  9.9996732390317933e-01  1.0000202881568019e+00  1.0000090862241164e+00  9.9997813825265613e-01  1.0000106053566225e+00  1.0000066987043805e+00  9.9998807069287976e-01  1.0000039360928052e+00  1.0000060507090014e+00  9.9999115560390361e-01  1.0000047967990624e+00  9.9999989455642135e-01  9.9999934416375258e-01  9.9999784219655685e-01  1.0000053771843767e+00  9.9999332221031223e-01  1.0000061378421619e+00  9.9999475324485709e-01  1.0000051742486458e+00  9.9999403371328033e-01  1.0000069236676514e+00  9.9999260100694787e-01  1.0000072479354671e+00  9.9999325647397808e-01  1.0000062335688895e+00  9.9999412074483018e-01  1.0000056314521975e+00  9.9999467782003659e-01  1.0000048781428834e+00  9.9999582064280279e-01  1.0000035354632990e+00  9.9999745997310807e-01  1.0000023000901679e+00  9.9999906737986977e-01  1.0000018399298922e+00  1.0000227638495160e+00  9.9999084030342023e-01  1.0000045736400656e+00  1.0000030752243989e+00  1.0000073126783475e+00  1.0000032401440384e+00  1.0000079529757717e+00  9.9999822257662407e-01  9.9998192958103094e-01  9.9995970988313565e-01  9.9993641739919992e-01  9.9990405665358750e-01  9.9989689014028249e-01  9.9993311788633443e-01  9.9996986751125838e-01  1.0000178597783100e+00  1.0000725936832586e+00  1.0000637541450244e+00  9.9999288930655361e-01  9.9998428938547723e-01  1.0000284810171112e+00  1.0000700941721421e+00  1.0001518940602097e+00  1.0002098108921544e+00  1.0001219062340405e+00  1.0000259261190234e+00  1.0000675942501027e+00  1.0001340464323212e+00  1.0001383051771582e+00  1.0000693014237390e+00  9.9989845745231987e-01  9.9978726925713024e-01  9.9987501718241223e-01  9.9995732744064214e-01  9.9991000746356296e-01  9.9988875226748508e-01  9.9994316316216381e-01  1.0000181604150395e+00  1.0000594164047185e+00  9.9998441757031420e-01  9.9992515635946222e-01  1.0000328746340053e+00  1.0000796908913561e+00  9.9995863118420725e-01  9.9993861829603170e-01  1.0000410588407636e+00  1.0000477166831432e+00  9.9996982028524628e-01  9.9995066044452841e-01  1.0000292978383096e+00  1.0000592994104571e+00  9.9994879622147448e-01  9.9994676292001894e-01  1.0000841627442707e+00  1.0000148986953841e+00  9.9990293242459682e-01  1.0000426129682212e+00  1.0000678136785157e+00  9.9991695962485927e-01  9.9999281073795310e-01  1.0000777885146903e+00  9.9995327128578859e-01  9.9996741827840863e-01  1.0000610159486720e+00  9.9998238682849738e-01  9.9996519032657105e-01  1.0000388485318255e+00  9.9999756063595069e-01  9.9997285291058025e-01  1.0000227459077167e+00  1.0000014557538723e+00  9.9998355814230999e-01  1.0000109141563789e+00  1.0000038201455965e+00  9.9998814804158420e-01  1.0000086991195121e+00  9.9999868733161767e-01  9.9999789127964933e-01  9.9999966546878460e-01  1.0000049351392719e+00  9.9999243625768397e-01  1.0000072242346232e+00  9.9999433777342239e-01  1.0000049087603418e+00  9.9999444342368093e-01  1.0000068373484496e+00  9.9999228567104537e-01  1.0000077514150398e+00  9.9999279558605181e-01  1.0000065855040154e+00  9.9999377764190667e-01  1.0000061114679708e+00  9.9999395148281656e-01  1.0000058057901755e+00  9.9999467782003792e-01  1.0000045440105942e+00  9.9999620165187542e-01  1.0000027343897420e+00  9.9999760260699089e-01  1.0000009742448321e+00  9.9999812133695853e-01  1.0000546240658397e+00  9.9995967620736692e-01  1.0000246621060405e+00  9.9997558403233322e-01  1.0000135686520581e+00  9.9997638758433327e-01  1.0000149579010953e+00  9.9998192958103194e-01  1.0000285367827124e+00  1.0000286447858613e+00  1.0000684587540447e+00  1.0000773536104688e+00  1.0001100775640335e+00  1.0000695707731315e+00  1.0000125500094190e+00  9.9996800937089425e-01  9.9991669654565674e-01  9.9988570812663424e-01  9.9995779225826098e-01  1.0000318867881739e+00  9.9998999383682163e-01  9.9993273066197352e-01  9