<?xml version="1.0"?>
<VTKFile type="UnstructuredGrid"  version="0.1"  >
<UnstructuredGrid>
<Piece  NumberOfPoints="10201" NumberOfCells="20000">
<Points>
<DataArray  type="Float64"  NumberOfComponents="3"  format="ascii">-5 -5 0  -4.9 -5 0  -4.8 -5 0  -4.7 -5 0  -4.6 -5 0  -4.5 -5 0  -4.4 -5 0  -4.3 -5 0  -4.2 -5 0  -4.1 -5 0  -4 -5 0  -3.9 -5 0  -3.8 -5 0  -3.7 -5 0  -3.6 -5 0  -3.5 -5 0  -3.4 -5 0  -3.3 -5 0  -3.2 -5 0  -3.1 -5 0  -3 -5 0  -2.9 -5 0  -2.8 -5 0  -2.7 -5 0  -2.6 -5 0  -2.5 -5 0  -2.4 -5 0  -2.3 -5 0  -2.2 -5 0  -2.1 -5 0  -2 -5 0  -1.9 -5 0  -1.8 -5 0  -1.7 -5 0  -1.6 -5 0  -1.5 -5 0  -1.4 -5 0  -1.3 -5 0  -1.2 -5 0  -1.1 -5 0  -1 -5 0  -0.9000000000000004 -5 0  -0.7999999999999998 -5 0  -0.7000000000000002 -5 0  -0.5999999999999996 -5 0  -0.5 -5 0  -0.4000000000000004 -5 0  -0.2999999999999998 -5 0  -0.2000000000000002 -5 0  -0.09999999999999964 -5 0  0 -5 0  0.09999999999999964 -5 0  0.2000000000000002 -5 0  0.2999999999999998 -5 0  0.4000000000000004 -5 0  0.5 -5 0  0.5999999999999996 -5 0  0.7000000000000002 -5 0  0.7999999999999998 -5 0  0.9000000000000004 -5 0  1 -5 0  1.1 -5 0  1.2 -5 0  1.3 -5 0  1.4 -5 0  1.5 -5 0  1.6 -5 0  1.7 -5 0  1.8 -5 0  1.9 -5 0  2 -5 0  2.1 -5 0  2.2 -5 0  2.3 -5 0  2.4 -5 0  2.5 -5 0  2.6 -5 0  2.7 -5 0  2.8 -5 0  2.9 -5 0  3 -5 0  3.1 -5 0  3.199999999999999 -5 0  3.300000000000001 -5 0  3.4 -5 0  3.5 -5 0  3.6 -5 0  3.699999999999999 -5 0  3.800000000000001 -5 0  3.9 -5 0  4 -5 0  4.1 -5 0  4.199999999999999 -5 0  4.300000000000001 -5 0  4.4 -5 0  4.5 -5 0  4.6 -5 0  4.699999999999999 -5 0  4.800000000000001 -5 0  4.9 -5 0  5 -5 0  -5 -4.9 0  -4.9 -4.9 0  -4.8 -4.9 0  -4.7 -4.9 0  -4.6 -4.9 0  -4.5 -4.9 0  -4.4 -4.9 0  -4.3 -4.9 0  -4.2 -4.9 0  -4.1 -4.9 0  -4 -4.9 0  -3.9 -4.9 0  -3.8 -4.9 0  -3.7 -4.9 0  -3.6 -4.9 0  -3.5 -4.9 0  -3.4 -4.9 0  -3.3 -4.9 0  -3.2 -4.9 0  -3.1 -4.9 0  -3 -4.9 0  -2.9 -4.9 0  -2.8 -4.9 0  -2.7 -4.9 0  -2.6 -4.9 0  -2.5 -4.9 0  -2.4 -4.9 0  -2.3 -4.9 0  -2.2 -4.9 0  -2.1 -4.9 0  -2 -4.9 0  -1.9 -4.9 0  -1.8 -4.9 0  -1.7 -4.9 0  -1.6 -4.9 0  -1.5 -4.9 0  -1.4 -4.9 0  -1.3 -4.9 0  -1.2 -4.9 0  -1.1 -4.9 0  -1 -4.9 0  -0.9000000000000004 -4.9 0  -0.7999999999999998 -4.9 0  -0.7000000000000002 -4.9 0  -0.5999999999999996 -4.9 0  -0.5 -4.9 0  -0.4000000000000004 -4.9 0  -0.2999999999999998 -4.9 0  -0.2000000000000002 -4.9 0  -0.09999999999999964 -4.9 0  0 -4.9 0  0.09999999999999964 -4.9 0  0.2000000000000002 -4.9 0  0.2999999999999998 -4.9 0  0.4000000000000004 -4.9 0  0.5 -4.9 0  0.5999999999999996 -4.9 0  0.7000000000000002 -4.9 0  0.7999999999999998 -4.9 0  0.9000000000000004 -4.9 0  1 -4.9 0  1.1 -4.9 0  1.2 -4.9 0  1.3 -4.9 0  1.4 -4.9 0  1.5 -4.9 0  1.6 -4.9 0  1.7 -4.9 0  1.8 -4.9 0  1.9 -4.9 0  2 -4.9 0  2.1 -4.9 0  2.2 -4.9 0  2.3 -4.9 0  2.4 -4.9 0  2.5 -4.9 0  2.6 -4.9 0  2.7 -4.9 0  2.8 -4.9 0  2.9 -4.9 0  3 -4.9 0  3.1 -4.9 0  3.199999999999999 -4.9 0  3.300000000000001 -4.9 0  3.4 -4.9 0  3.5 -4.9 0  3.6 -4.9 0  3.699999999999999 -4.9 0  3.800000000000001 -4.9 0  3.9 -4.9 0  4 -4.9 0  4.1 -4.9 0  4.199999999999999 -4.9 0  4.300000000000001 -4.9 0  4.4 -4.9 0  4.5 -4.9 0  4.6 -4.9 0  4.699999999999999 -4.9 0  4.800000000000001 -4.9 0  4.9 -4.9 0  5 -4.9 0  -5 -4.8 0  -4.9 -4.8 0  -4.8 -4.8 0  -4.7 -4.8 0  -4.6 -4.8 0  -4.5 -4.8 0  -4.4 -4.8 0  -4.3 -4.8 0  -4.2 -4.8 0  -4.1 -4.8 0  -4 -4.8 0  -3.9 -4.8 0  -3.8 -4.8 0  -3.7 -4.8 0  -3.6 -4.8 0  -3.5 -4.8 0  -3.4 -4.8 0  -3.3 -4.8 0  -3.2 -4.8 0  -3.1 -4.8 0  -3 -4.8 0  -2.9 -4.8 0  -2.8 -4.8 0  -2.7 -4.8 0  -2.6 -4.8 0  -2.5 -4.8 0  -2.4 -4.8 0  -2.3 -4.8 0  -2.2 -4.8 0  -2.1 -4.8 0  -2 -4.8 0  -1.9 -4.8 0  -1.8 -4.8 0  -1.7 -4.8 0  -1.6 -4.8 0  -1.5 -4.8 0  -1.4 -4.8 0  -1.3 -4.8 0  -1.2 -4.8 0  -1.1 -4.8 0  -1 -4.8 0  -0.9000000000000004 -4.8 0  -0.7999999999999998 -4.8 0  -0.7000000000000002 -4.8 0  -0.5999999999999996 -4.8 0  -0.5 -4.8 0  -0.4000000000000004 -4.8 0  -0.2999999999999998 -4.8 0  -0.2000000000000002 -4.8 0  -0.09999999999999964 -4.8 0  0 -4.8 0  0.09999999999999964 -4.8 0  0.2000000000000002 -4.8 0  0.2999999999999998 -4.8 0  0.4000000000000004 -4.8 0  0.5 -4.8 0  0.5999999999999996 -4.8 0  0.7000000000000002 -4.8 0  0.7999999999999998 -4.8 0  0.9000000000000004 -4.8 0  1 -4.8 0  1.1 -4.8 0  1.2 -4.8 0  1.3 -4.8 0  1.4 -4.8 0  1.5 -4.8 0  1.6 -4.8 0  1.7 -4.8 0  1.8 -4.8 0  1.9 -4.8 0  2 -4.8 0  2.1 -4.8 0  2.2 -4.8 0  2.3 -4.8 0  2.4 -4.8 0  2.5 -4.8 0  2.6 -4.8 0  2.7 -4.8 0  2.8 -4.8 0  2.9 -4.8 0  3 -4.8 0  3.1 -4.8 0  3.199999999999999 -4.8 0  3.300000000000001 -4.8 0  3.4 -4.8 0  3.5 -4.8 0  3.6 -4.8 0  3.699999999999999 -4.8 0  3.800000000000001 -4.8 0  3.9 -4.8 0  4 -4.8 0  4.1 -4.8 0  4.199999999999999 -4.8 0  4.300000000000001 -4.8 0  4.4 -4.8 0  4.5 -4.8 0  4.6 -4.8 0  4.699999999999999 -4.8 0  4.800000000000001 -4.8 0  4.9 -4.8 0  5 -4.8 0  -5 -4.7 0  -4.9 -4.7 0  -4.8 -4.7 0  -4.7 -4.7 0  -4.6 -4.7 0  -4.5 -4.7 0  -4.4 -4.7 0  -4.3 -4.7 0  -4.2 -4.7 0  -4.1 -4.7 0  -4 -4.7 0  -3.9 -4.7 0  -3.8 -4.7 0  -3.7 -4.7 0  -3.6 -4.7 0  -3.5 -4.7 0  -3.4 -4.7 0  -3.3 -4.7 0  -3.2 -4.7 0  -3.1 -4.7 0  -3 -4.7 0  -2.9 -4.7 0  -2.8 -4.7 0  -2.7 -4.7 0  -2.6 -4.7 0  -2.5 -4.7 0  -2.4 -4.7 0  -2.3 -4.7 0  -2.2 -4.7 0  -2.1 -4.7 0  -2 -4.7 0  -1.9 -4.7 0  -1.8 -4.7 0  -1.7 -4.7 0  -1.6 -4.7 0  -1.5 -4.7 0  -1.4 -4.7 0  -1.3 -4.7 0  -1.2 -4.7 0  -1.1 -4.7 0  -1 -4.7 0  -0.9000000000000004 -4.7 0  -0.7999999999999998 -4.7 0  -0.7000000000000002 -4.7 0  -0.5999999999999996 -4.7 0  -0.5 -4.7 0  -0.4000000000000004 -4.7 0  -0.2999999999999998 -4.7 0  -0.2000000000000002 -4.7 0  -0.09999999999999964 -4.7 0  0 -4.7 0  0.09999999999999964 -4.7 0  0.2000000000000002 -4.7 0  0.2999999999999998 -4.7 0  0.4000000000000004 -4.7 0  0.5 -4.7 0  0.5999999999999996 -4.7 0  0.7000000000000002 -4.7 0  0.7999999999999998 -4.7 0  0.9000000000000004 -4.7 0  1 -4.7 0  1.1 -4.7 0  1.2 -4.7 0  1.3 -4.7 0  1.4 -4.7 0  1.5 -4.7 0  1.6 -4.7 0  1.7 -4.7 0  1.8 -4.7 0  1.9 -4.7 0  2 -4.7 0  2.1 -4.7 0  2.2 -4.7 0  2.3 -4.7 0  2.4 -4.7 0  2.5 -4.7 0  2.6 -4.7 0  2.7 -4.7 0  2.8 -4.7 0  2.9 -4.7 0  3 -4.7 0  3.1 -4.7 0  3.199999999999999 -4.7 0  3.300000000000001 -4.7 0  3.4 -4.7 0  3.5 -4.7 0  3.6 -4.7 0  3.699999999999999 -4.7 0  3.800000000000001 -4.7 0  3.9 -4.7 0  4 -4.7 0  4.1 -4.7 0  4.199999999999999 -4.7 0  4.300000000000001 -4.7 0  4.4 -4.7 0  4.5 -4.7 0  4.6 -4.7 0  4.699999999999999 -4.7 0  4.800000000000001 -4.7 0  4.9 -4.7 0  5 -4.7 0  -5 -4.6 0  -4.9 -4.6 0  -4.8 -4.6 0  -4.7 -4.6 0  -4.6 -4.6 0  -4.5 -4.6 0  -4.4 -4.6 0  -4.3 -4.6 0  -4.2 -4.6 0  -4.1 -4.6 0  -4 -4.6 0  -3.9 -4.6 0  -3.8 -4.6 0  -3.7 -4.6 0  -3.6 -4.6 0  -3.5 -4.6 0  -3.4 -4.6 0  -3.3 -4.6 0  -3.2 -4.6 0  -3.1 -4.6 0  -3 -4.6 0  -2.9 -4.6 0  -2.8 -4.6 0  -2.7 -4.6 0  -2.6 -4.6 0  -2.5 -4.6 0  -2.4 -4.6 0  -2.3 -4.6 0  -2.2 -4.6 0  -2.1 -4.6 0  -2 -4.6 0  -1.9 -4.6 0  -1.8 -4.6 0  -1.7 -4.6 0  -1.6 -4.6 0  -1.5 -4.6 0  -1.4 -4.6 0  -1.3 -4.6 0  -1.2 -4.6 0  -1.1 -4.6 0  -1 -4.6 0  -0.9000000000000004 -4.6 0  -0.7999999999999998 -4.6 0  -0.7000000000000002 -4.6 0  -0.5999999999999996 -4.6 0  -0.5 -4.6 0  -0.4000000000000004 -4.6 0  -0.2999999999999998 -4.6 0  -0.2000000000000002 -4.6 0  -0.09999999999999964 -4.6 0  0 -4.6 0  0.09999999999999964 -4.6 0  0.2000000000000002 -4.6 0  0.2999999999999998 -4.6 0  0.4000000000000004 -4.6 0  0.5 -4.6 0  0.5999999999999996 -4.6 0  0.7000000000000002 -4.6 0  0.7999999999999998 -4.6 0  0.9000000000000004 -4.6 0  1 -4.6 0  1.1 -4.6 0  1.2 -4.6 0  1.3 -4.6 0  1.4 -4.6 0  1.5 -4.6 0  1.6 -4.6 0  1.7 -4.6 0  1.8 -4.6 0  1.9 -4.6 0  2 -4.6 0  2.1 -4.6 0  2.2 -4.6 0  2.3 -4.6 0  2.4 -4.6 0  2.5 -4.6 0  2.6 -4.6 0  2.7 -4.6 0  2.8 -4.6 0  2.9 -4.6 0  3 -4.6 0  3.1 -4.6 0  3.199999999999999 -4.6 0  3.300000000000001 -4.6 0  3.4 -4.6 0  3.5 -4.6 0  3.6 -4.6 0  3.699999999999999 -4.6 0  3.800000000000001 -4.6 0  3.9 -4.6 0  4 -4.6 0  4.1 -4.6 0  4.199999999999999 -4.6 0  4.300000000000001 -4.6 0  4.4 -4.6 0  4.5 -4.6 0  4.6 -4.6 0  4.699999999999999 -4.6 0  4.800000000000001 -4.6 0  4.9 -4.6 0  5 -4.6 0  -5 -4.5 0  -4.9 -4.5 0  -4.8 -4.5 0  -4.7 -4.5 0  -4.6 -4.5 0  -4.5 -4.5 0  -4.4 -4.5 0  -4.3 -4.5 0  -4.2 -4.5 0  -4.1 -4.5 0  -4 -4.5 0  -3.9 -4.5 0  -3.8 -4.5 0  -3.7 -4.5 0  -3.6 -4.5 0  -3.5 -4.5 0  -3.4 -4.5 0  -3.3 -4.5 0  -3.2 -4.5 0  -3.1 -4.5 0  -3 -4.5 0  -2.9 -4.5 0  -2.8 -4.5 0  -2.7 -4.5 0  -2.6 -4.5 0  -2.5 -4.5 0  -2.4 -4.5 0  -2.3 -4.5 0  -2.2 -4.5 0  -2.1 -4.5 0  -2 -4.5 0  -1.9 -4.5 0  -1.8 -4.5 0  -1.7 -4.5 0  -1.6 -4.5 0  -1.5 -4.5 0  -1.4 -4.5 0  -1.3 -4.5 0  -1.2 -4.5 0  -1.1 -4.5 0  -1 -4.5 0  -0.9000000000000004 -4.5 0  -0.7999999999999998 -4.5 0  -0.7000000000000002 -4.5 0  -0.5999999999999996 -4.5 0  -0.5 -4.5 0  -0.4000000000000004 -4.5 0  -0.2999999999999998 -4.5 0  -0.2000000000000002 -4.5 0  -0.09999999999999964 -4.5 0  0 -4.5 0  0.09999999999999964 -4.5 0  0.2000000000000002 -4.5 0  0.2999999999999998 -4.5 0  0.4000000000000004 -4.5 0  0.5 -4.5 0  0.5999999999999996 -4.5 0  0.7000000000000002 -4.5 0  0.7999999999999998 -4.5 0  0.9000000000000004 -4.5 0  1 -4.5 0  1.1 -4.5 0  1.2 -4.5 0  1.3 -4.5 0  1.4 -4.5 0  1.5 -4.5 0  1.6 -4.5 0  1.7 -4.5 0  1.8 -4.5 0  1.9 -4.5 0  2 -4.5 0  2.1 -4.5 0  2.2 -4.5 0  2.3 -4.5 0  2.4 -4.5 0  2.5 -4.5 0  2.6 -4.5 0  2.7 -4.5 0  2.8 -4.5 0  2.9 -4.5 0  3 -4.5 0  3.1 -4.5 0  3.199999999999999 -4.5 0  3.300000000000001 -4.5 0  3.4 -4.5 0  3.5 -4.5 0  3.6 -4.5 0  3.699999999999999 -4.5 0  3.800000000000001 -4.5 0  3.9 -4.5 0  4 -4.5 0  4.1 -4.5 0  4.199999999999999 -4.5 0  4.300000000000001 -4.5 0  4.4 -4.5 0  4.5 -4.5 0  4.6 -4.5 0  4.699999999999999 -4.5 0  4.800000000000001 -4.5 0  4.9 -4.5 0  5 -4.5 0  -5 -4.4 0  -4.9 -4.4 0  -4.8 -4.4 0  -4.7 -4.4 0  -4.6 -4.4 0  -4.5 -4.4 0  -4.4 -4.4 0  -4.3 -4.4 0  -4.2 -4.4 0  -4.1 -4.4 0  -4 -4.4 0  -3.9 -4.4 0  -3.8 -4.4 0  -3.7 -4.4 0  -3.6 -4.4 0  -3.5 -4.4 0  -3.4 -4.4 0  -3.3 -4.4 0  -3.2 -4.4 0  -3.1 -4.4 0  -3 -4.4 0  -2.9 -4.4 0  -2.8 -4.4 0  -2.7 -4.4 0  -2.6 -4.4 0  -2.5 -4.4 0  -2.4 -4.4 0  -2.3 -4.4 0  -2.2 -4.4 0  -2.1 -4.4 0  -2 -4.4 0  -1.9 -4.4 0  -1.8 -4.
[...]
<PointData  Scalars="r"> 
<DataArray  type="Float64"  Name="r"  format="ascii">9.9999996692606330e-01  9.9999997577256372e-01  9.9999988742873636e-01  9.9999977006016183e-01  9.9999945975237381e-01  9.9999894916190257e-01  9.9999817787335177e-01  9.9999721884356518e-01  9.9999645828986217e-01  9.9999687420033867e-01  9.9999969954059087e-01  1.0000062322468444e+00  1.0000173672815680e+00  1.0000319993851861e+00  1.0000464175929435e+00  1.0000565344716861e+00  1.0000599660496676e+00  1.0000572385796875e+00  1.0000540097060353e+00  1.0000579474080407e+00  1.0000682783646229e+00  1.0000742094228499e+00  1.0000668098125383e+00  1.0000457928706468e+00  1.0000189821802965e+00  1.0000017354242270e+00  1.0000024996777397e+00  1.0000065530320517e+00  9.9999724711054416e-01  9.9998520433441074e-01  9.9998809540364930e-01  1.0000001622798356e+00  1.0000054753811223e+00  9.9999967016028235e-01  9.9999178221769014e-01  9.9999624796233977e-01  1.0000086357621052e+00  1.0000046003273328e+00  9.9998983128467156e-01  9.9999636690018123e-01  1.0000112730279327e+00  1.0000008502516093e+00  9.9998891299510262e-01  1.0000027383737926e+00  1.0000090505025223e+00  9.9999422157261686e-01  9.9999455286303951e-01  1.0000071018821415e+00  1.0000013391241820e+00  9.9999370232909091e-01  1.0000019381847634e+00  1.0000039084297405e+00  9.9999654174330399e-01  9.9999888908999102e-01  1.0000031480299687e+00  9.9999906430559538e-01  9.9999827162620714e-01  1.0000016695904741e+00  1.0000002176009912e+00  9.9999870940217483e-01  1.0000006530040861e+00  1.0000004632655657e+00  9.9999926041355081e-01  1.0000001780271810e+00  1.0000003703712244e+00  9.9999963012858106e-01  1.0000000152885731e+00  1.0000002287250991e+00  9.9999982614629424e-01  9.9999998042517402e-01  1.0000001249035047e+00  9.9999991869720750e-01  9.9999998336449358e-01  1.0000000636572195e+00  9.9999996059884488e-01  9.9999999173962695e-01  1.0000000310052852e+00  9.9999997977288846e-01  9.9999999783245030e-01  1.0000000138351381e+00  9.9999999020010177e-01  9.9999999912264714e-01  1.0000000078720543e+00  9.9999999208211243e-01  1.0000000043064794e+00  9.9999999824266739e-01  1.0000000024194251e+00  9.9999999460920508e-01  1.0000000085703413e+00  9.9999998945497026e-01  1.0000000112100642e+00  9.9999998874834273e-01  1.0000000113391390e+00  9.9999998838444215e-01  1.0000000119216792e+00  9.9999998843371507e-01  1.0000000111817171e+00  9.9999999108640480e-01  1.0000000094446557e+00  9.9999999549606944e-01  1.0000000105033460e+00  9.9999997577255972e-01  1.0000000473796806e+00  1.0000000590368106e+00  1.0000001889112864e+00  1.0000003919551468e+00  1.0000008502135518e+00  1.0000015229871606e+00  1.0000024572842399e+00  1.0000034226844154e+00  1.0000037137110185e+00  1.0000021356425000e+00  9.9999748453241999e-01  9.9998864001135357e-01  9.9997559769986666e-01  9.9996098063069094e-01  9.9994890947658932e-01  9.9994220145095458e-01  9.9994149337530791e-01  9.9994394101990669e-01  9.9994249856148432e-01  9.9993356296323754e-01  9.9992467432815857e-01  9.9992656366711297e-01  9.9994181855010500e-01  9.9996586875037707e-01  9.9998834722975460e-01  9.9999663680268025e-01  9.9999373317314610e-01  9.9999795638973044e-01  1.0000109938125565e+00  1.0000144356875680e+00  1.0000046258896227e+00  9.9999657177072465e-01  9.9999805043777323e-01  1.0000048157893087e+00  1.0000064879255355e+00  9.9999694439113196e-01  9.9999191599024850e-01  1.0000039701353358e+00  1.0000088569141417e+00  9.9999407586884737e-01  9.9999224898766437e-01  1.0000080736861114e+00  1.0000048539024431e+00  9.9999085024119960e-01  9.9999906707018538e-01  1.0000083462167602e+00  9.9999729591019693e-01  9.9999426165442962e-01  1.0000048230368188e+00  1.0000022718048394e+00  9.9999511422711862e-01  1.0000007429461519e+00  1.0000032990011889e+00  9.9999766748234353e-01  9.9999887485445249e-01  1.0000023260014428e+00  9.9999944908860450e-01  9.9999868757057742e-01  1.0000011831006783e+00  1.0000001699468335e+00  9.9999908438873419e-01  1.0000004770344515e+00  1.0000002992900103e+00  9.9999948248217263e-01  1.0000001559215588e+00  1.0000002300362751e+00  9.9999973667036501e-01  1.0000000404602878e+00  1.0000001390254047e+00  9.9999987166530646e-01  1.0000000082655078e+00  1.0000000743419937e+00  9.9999993762059403e-01  1.0000000023893902e+00  1.0000000368283015e+00  9.9999996886622111e-01  1.0000000028980922e+00  1.0000000162553613e+00  9.9999998536775270e-01  1.0000000014660486e+00  1.0000000089574734e+00  9.9999998964081838e-01  1.0000000058755543e+00  9.9999999819849583e-01  1.0000000016578552e+00  9.9999999521281169e-01  1.0000000085176919e+00  9.9999998918865185e-01  1.0000000113470429e+00  9.9999998901831400e-01  1.0000000106550597e+00  9.9999998928899902e-01  1.0000000108617118e+00  9.9999998930061429e-01  1.0000000097030532e+00  9.9999999148609731e-01  1.0000000058857614e+00  9.9999999439601339e-01  1.0000000006705960e+00  9.9999999549606899e-01  9.9999988742873802e-01  1.0000000590368123e+00  9.9999989314776006e-01  9.9999990269915140e-01  9.9999965449779771e-01  9.9999934156339332e-01  9.9999864592228571e-01  9.9999776436936483e-01  9.9999659958395737e-01  9.9999569464658156e-01  9.9999606401523078e-01  9.9999902035962029e-01  1.0000056412338356e+00  1.0000167281442178e+00  1.0000310335046541e+00  1.0000446331718378e+00  1.0000539541100208e+00  1.0000579159167864e+00  1.0000575436472414e+00  1.0000578278168317e+00  1.0000654573446270e+00  1.0000778149790983e+00  1.0000825588906235e+00  1.0000730323154960e+00  1.0000528508842523e+00  1.0000289976270733e+00  1.0000124711258509e+00  1.0000098459233175e+00  1.0000080859761085e+00  9.9999470283999636e-01  9.9998399694961593e-01  9.9999041299395752e-01  1.0000013458959676e+00  1.0000025592270672e+00  9.9999707237912916e-01  9.9999324087889396e-01  9.9999863348280882e-01  1.0000077354748209e+00  1.0000019309294166e+00  9.9999024647977841e-01  9.9999932215345522e-01  1.0000107810695866e+00  9.9999766802741863e-01  9.9999001983037317e-01  1.0000057479476794e+00  1.0000070415177313e+00  9.9999200233254470e-01  9.9999727807158101e-01  1.0000080036372576e+00  9.9999852850789850e-01  9.9999422191507503e-01  1.0000040611752745e+00  1.0000024070447249e+00  9.9999560711963265e-01  1.0000005900198634e+00  1.0000029290378736e+00  9.9999788125419331e-01  9.9999913554965048e-01  1.0000020310660311e+00  9.9999935692627651e-01  9.9999899099401579e-01  1.0000010900977596e+00  9.9999997474523028e-01  9.9999928120718751e-01  1.0000005041115230e+00  1.0000001287977229e+00  9.9999957838266940e-01  1.0000002163311630e+00  1.0000001163677066e+00  9.9999977552094721e-01  1.0000000930236683e+00  1.0000000720230220e+00  9.9999988623123226e-01  1.0000000430679428e+00  1.0000000373312914e+00  9.9999994306267570e-01  1.0000000235783566e+00  1.0000000147479666e+00  9.9999997486583470e-01  1.0000000098111248e+00  1.0000000100967079e+00  9.9999998126091205e-01  1.0000000154432178e+00  9.9999999107205839e-01  1.0000000069549717e+00  9.9999998895983722e-01  1.0000000178754485e+00  9.9999997645898742e-01  1.0000000263504094e+00  9.9999997303304922e-01  1.0000000268962219e+00  9.9999997294089638e-01  1.0000000273542466e+00  9.9999997294115961e-01  1.0000000255823402e+00  9.9999997738894786e-01  1.0000000190044738e+00  9.9999998585925987e-01  1.0000000117211518e+00  9.9999999439601239e-01  1.0000000094446566e+00  9.9999977006016327e-01  1.0000001889112864e+00  9.9999990269915018e-01  1.0000002327996433e+00  1.0000001806409144e+00  1.0000006787721236e+00  1.0000011783205136e+00  1.0000022716012471e+00  1.0000034345139521e+00  1.0000048341395498e+00  1.0000052775775432e+00  1.0000034662472235e+00  9.9999810325290062e-01  9.9998848322536260e-01  9.9997473115006530e-01  9.9996023334012785e-01  9.9994977575065935e-01  9.9994483812337476e-01  9.9994377412142998e-01  9.9994318341015309e-01  9.9993623684632649e-01  9.9992049816920225e-01  9.9990803908385650e-01  9.9991222073660890e-01  9.9993023574191009e-01  9.9995226185447483e-01  9.9997117530459034e-01  9.9997960732514490e-01  9.9998225987513489e-01  9.9999597185418709e-01  1.0000149978957689e+00  1.0000149690532347e+00  1.0000004764121133e+00  9.9999616983976103e-01  1.0000029680064213e+00  1.0000073266614768e+00  1.0000035740382103e+00  9.9999409867614908e-01  9.9999419621165164e-01  1.0000078098763705e+00  1.0000066778295382e+00  9.9998961073353676e-01  9.9999530948599002e-01  1.0000123715049796e+00  1.0000004259644626e+00  9.9998790271413296e-01  1.0000045009112219e+00  1.0000089755508337e+00  9.9999202143518806e-01  9.9999609379652166e-01  1.0000085459009256e+00  9.9999886074354316e-01  9.9999378121696736e-01  1.0000042344249436e+00  1.0000024374934535e+00  9.9999541661184499e-01  1.0000008527515707e+00  1.0000028531336007e+00  9.9999764537021230e-01  9.9999942791402630e-01  1.0000020242883296e+00  9.9999908777215230e-01  9.9999920583582413e-01  1.0000011565721665e+00  9.9999974573637584e-01  9.9999940222679740e-01  1.0000005915606294e+00  9.9999996855811046e-01  9.9999963648560675e-01  1.0000002896557767e+00  1.0000000162641718e+00  9.9999980261136068e-01  1.0000001417215876e+00  1.0000000144458721e+00  9.9999989844421489e-01  1.0000000741070119e+00  1.0000000006075722e+00  9.9999995697542043e-01  1.0000000306296952e+00  1.0000000072888602e+00  9.9999996622999987e-01  1.0000000358988768e+00  9.9999997521996364e-01  1.0000000173276344e+00  9.9999997868666524e-01  1.0000000333114689e+00  9.9999995448807633e-01  1.0000000527583142e+00  9.9999994519768454e-01  1.0000000542812006e+00  9.9999994638319656e-01  1.0000000533629156e+00  9.9999994750860322e-01  1.0000000496378842e+00  9.9999995576620571e-01  1.0000000366012789e+00  9.9999997166508581e-01  1.0000000195639702e+00  9.9999998585925931e-01  1.0000000058857597e+00  9.9999999108640014e-01  9.9999945975236937e-01  1.0000003919551443e+00  9.9999965449779882e-01  1.0000001806409158e+00  9.9999950404037208e-01  9.9999966665346174e-01  9.9999867662187092e-01  9.9999794063678304e-01  9.9999627026549220e-01  9.9999485654426723e-01  9.9999339822452438e-01  9.9999417184519046e-01  9.9999833453437303e-01  1.0000068755622695e+00  1.0000197498939525e+00  1.0000351377554442e+00  1.0000472428033571e+00  1.0000524831362654e+00  1.0000534291685881e+00  1.0000542699822552e+00  1.0000601385367187e+00  1.0000771633892234e+00  1.0000983994901751e+00  1.0001035996045302e+00  1.0000876636121985e+00  1.0000659613872267e+00  1.0000485613712633e+00  1.0000376362442638e+00  1.0000328396304978e+00  1.0000198193628556e+00  9.9999264719013981e-01  9.9997960454703327e-01  9.9999481320146844e-01  1.0000069717754769e+00  9.9999856012635158e-01  9.9998997498098152e-01  9.9999386214881802e-01  1.0000043576276789e+00  1.0000085362623283e+00  9.9999583056797348e-01  9.9998817158622055e-01  1.0000063819052984e+00  1.0000125663638337e+00  9.9998939836866130e-01  9.9999021608263983e-01  1.0000142676858601e+00  1.0000037864969782e+00  9.9998508335066061e-01  1.0000032627313289e+00  1.0000115474714548e+00  9.9999157509054881e-01  9.9999464910296276e-01  1.0000096628635602e+00  9.9999905207857953e-01  9.9999296579951313e-01  1.0000047402054701e+00  1.0000025446673466e+00  9.9999494920133314e-01  1.0000012272118473e+00  1.0000028849443381e+00  9.9999728157705559e-01  9.9999973603540437e-01  1.0000020700670447e+00  9.9999878304979395e-01  9.9999942443544476e-01  1.0000012247250796e+00  9.9999951475301341e-01  9.9999953771877637e-01  1.0000006583774474e+00  9.9999981152711559e-01  9.9999971633720552e-01  1.0000003373256305e+00  9.9999992116515835e-01  9.9999984538985209e-01  1.0000001763187329e+00  9.9999994993363051e-01  9.9999993788846075e-01  1.0000000723206113e+00  9.9999999180054899e-01  9.9999994423362670e-01  1.0000000757337308e+00  9.9999994006328541e-01  1.0000000411357373e+00  9.9999995811032227e-01  1.0000000617695939e+00  9.9999991338213223e-01  1.0000001037714095e+00  9.9999989010479928e-01  1.0000001091182869e+00  9.9999989310750170e-01  1.0000001055489147e+00  9.9999989618562990e-01  1.0000000989994493e+00  9.9999991059942817e-01  1.0000000754142233e+00  9.9999994104317935e-01  1.0000000429386509e+00  9.9999997166508625e-01  1.0000000190044744e+00  9.9999999148609409e-01  1.0000000111817191e+00  9.9999894916190257e-01  1.0000008502135529e+00  9.9999934156339387e-01  1.0000006787721232e+00  9.9999966665346396e-01  1.0000010111676747e+00  1.0000006042441374e+00  1.0000024971465453e+00  1.0000034183745719e+00  1.0000058517093178e+00  1.0000072548904568e+00  1.0000081924104554e+00  1.0000048487489215e+00  9.9999722970112126e-01  9.9998484202098181e-01  9.9996912105843860e-01  9.9995459259364716e-01  9.9994851244138649e-01  9.9994968828884456e-01  9.9995063591873612e-01  9.9994622288642554e-01  9.9993076585396778e-01  9.9990337995725143e-01  9.9988441507797943e-01  9.9989385640518957e-01  9.9991788663021397e-01  9.9993361718255891e-01  9.9994088806703829e-01  9.9994583858700581e-01  9.9995731459726467e-01  9.9998878933361168e-01  1.0000199064644411e+00  1.0000138496115885e+00  9.9999111012046293e-01  9.9999529447541147e-01  1.0000125972910272e+00  1.0000114923167811e+00  9.9999761473565574e-01  9.9998933793364497e-01  9.9999902863837342e-01  1.0000145630604391e+00  1.0000018467797709e+00  9.9998168734056347e-01  1.0000021149467480e+00  1.0000196682080631e+00  9.9999090660439460e-01  9.9998375418013774e-01  1.0000155678371618e+00  1.0000082037954805e+00  9.9998214301106225e-01  1.0000015367491044e+00  1.0000144280551748e+00  9.9999115249483539e-01  9.9999306792406051e-01  1.0000109044886778e+00  9.9999916645484987e-01  9.9999212926938463e-01  1.0000053630467363e+00  1.0000025418987644e+00  9.9999447955745657e-01  1.0000017090172042e+00  1.0000028120075986e+00  9.9999692285400466e-01  1.0000001348418641e+00  1.0000020222448671e+00  9.9999848762889121e-01  9.9999971731843784e-01  1.0000012147788706e+00  9.9999929173044011e-01  9.9999973379540963e-01  1.0000006603300402e+00  9.9999966805615015e-01  9.9999982997125014e-01  1.0000003527724062e+00  9.9999981557919149e-01  9.9999994163821915e-01  1.0000001429992114e+00  9.9999994526695724e-01  9.9999992144153782e-01  1.0000001456629020e+00  9.9999986744338598e-01  1.0000000937374769e+00  9.9999991735996441e-01  1.0000001115033286e+00  9.9999984169071732e-01  1.0000001957457092e+00  9.9999978805836365e-01  1.0000002117911584e+00  9.9999979378281667e-01  1.0000002018669862e+00  9.9999980196519855e-01  1.0000001898959294e+00  9.9999982656362385e-01  1.0000001483205647e+00  9.9999988221800262e-01  1.0000000864996434e+00  9.9999994104317613e-01  1.0000000366012773e+00  9.9999997738894797e-01  1.0000000097030524e+00  9.9999998843371152e-01  9.9999817787335232e-01  1.0000015229871611e+00  9.9999864592228305e-01  1.0000011783205147e+00  9.9999867662186970e-01  1.0000006042441387e+00  9.9999804017824478e-01  9.9999893382446947e-01  9.9999552799261326e-01  9.9999473438559183e-01  9.9999138779433150e-01  9.9999072736772032e-01  9.9999149551143030e-01  9.9999919147996852e-01  1.0000109490433233e+00  1.0000270547718730e+00  1.0000435418869014e+00  1.0000527131939256e+00  1.0000494112195792e+00  1.0000435611761336e+00  1.0000452108910738e+00  1.0000576278243212e+00  1.0000850714655463e+00  1.0001169722456960e+00  1.0001218073190332e+00  1.0000964843918643e+00  1.0000771842283473e+00  1.0000777013413982e+00  1.0000798899110368e+00  1.0000715725148945e+00  1.0000411762843582e+00  9.9999409937728456e-01  9.9997820688580386e-01  1.0000052669832953e+00  1.0000149703275787e+00  9.9998979766265250e-01  9.9998000686750499e-01  9.9999780679248096e-01  1.0000123973770993e+00  1.0000066809040138e+00  9.9998667063428293e-01  9.9998799293708196e-01  1.0000174083410072e+00  1.0000119437308419e+00  9.9997654057184771e-01  9.9999447057017021e-01  1.0000266321169471e+00  9.9999461005345369e-01  9.9997677725337153e-01  1.0000158023374288e+00  1.0000131329549251e+00  9.9997956164441615e-01  9.9999961486842204e-01  1.0000171306816905e+00  9.9999071919609961e-01  9.9999175934551943e-01  1.0000120835321182e+00  9.9999898646218544e-01  9.9999155038031340e-01  1.0000060911110276e+00  1.0000022262857773e+00  9.9999415793445789e-01  1.0000023382738179e+00  1.0000024959136122e+00  9.9999664802716015e-01  1.0000006573814377e+00  1.0000018005733680e+00  9.9999824502059953e-01  1.0000001045416209e+00  1.0000010728009570e+00  9.9999912229110699e-01  9.9999997187800194e-01  1.0000006006966498e+00  9.9999952234648382e-01  1.0000000298396803e+00  1.0000002383283166e+00  9.9999983751463806e-01  9.9999991872844929e-01  1.0000002545656086e+00  9.9999972855070385e-01  1.0000002041604856e+00  9.9999983705506512e-01  1.0000001959715832e+00  9.9999972293129524e-01  1.0000003534045692e+00  9.9999960717684844e-01  1.0000003969489082e+00  9.9999961464694931e-01  1.0000003740737444e+00  9.9999963441738970e-01  1.0000003522291689e+00  9.9999967454423333e-01  1.0000002826283574e+00  9.9999977181826827e-01  1.0000001705259687e+00  9.9999988221800240e-01  1.0000000754142242e+00  9.9999995576620571e-01  1.0000000255823422e+00  9.9999998930061307e-01  1.0000000119216794e+00  9.9999721884356574e-01  1.0000024572842374e+00  9.9999776436936727e-01  1.0000022716012449e+00  9.9999794063678127e-01  1.0000024971465435e+00  9.9999893382446770e-01  1.0000036100935559e+00  1.0000018083872040e+00  1.0000074853391978e+00  1.0000073696729126e+00  1.0000116697448544e+00  1.0000100116098878e+00  1.0000056716654906e+00  9.9999193790065066e-01  9.9997642304979539e-01  9.9995802535980027e-01  9.9994518416464762e-01  9.9994706846991643e-01  9.9996030844659445e-01  9.9996534960997197e-01  9.9995616080080596e-01  9.9993319391041335e-01  9.9989649457957608e-01  9.9987290974272103e-01  9.9989129697686641e-01  9.9992047147379748e-01  9.9991663684226217e-01  9.9989716879443491e-01  9.9989538637074626e-01  9.9992064443696160e-01  9.9997470150456902e-01  1.0000188886275081e+00  1.0000040626715052e+00  9.9997560584632406e-01  9.9999832979639913e-01  1.0000279832278689e+00  1.0000124419307810e+00  9.9998674271161203e-01  9.9998742477087954e-01  1.0000088932277635e+00  1.0000198408132692e+00  9.9999159362153800e-01  9.9997483116614705e-01  1.0000154762586089e+00  1.0000247482907108e+00  9.9997427200514588e-01  9.9998447950735003e-01  1.0000323679629084e+00  9.9999986365605076e-01  9.9997019599872849e-01  1.0000152882685140e+00  1.0000177825472552e+00  9.9997737016265986e-01  9.9999808164492743e-01  1.0000193528347461e+00  9.9999001723383341e-01  9.9999108834562478e-01  1.0000131416717735e+00  9.9999830551727475e-01  9.9999142423542942e-01  1.0000069075639770e+00  1.0000014749849231e+00  9.9999411127589866e-01  1.0000030833470539e+00  1.0000018709429930e+00  9.9999654533442184e-01  1.0000012748101876e+00  1.0000013496635967e+00  9.9999815267753533e-01  1.0000005084709043e+00  1.0000008334423953e+00  9.9999898090408657e-01  1.0000003279112992e+00  1.0000003135614730e+00  9.9999963174120010e-01  9.9999998426939263e-01  1.0000003971710112e+00  9.9999948542102501e-01  1.0000004219095928e+00  9.9999968121728067e-01  1.0000003364087433e+00  9.9999953671275876e-01  1.0000006084293203e+00  9.9999930282451643e-01  1.0000007158988826e+00  9.9999930480496735e-01  1.0000006694555075e+00  9.9999934919304179e-01  1.0000006292275896e+00  9.9999941190119745e-01  1.0000005189588492e+00  9.9999957349531543e-01  1.0000003244959392e+00  9.9999977181826705e-01  1.0000001483205676e+00  9.9999991059942828e-01  1.0000000496378858e+00  9.9999997294115850e-01  1.0000000108617133e+00  9.9999998838444215e-01  9.9999645828986106e-01  1.0000034226844143e+00  9.9999659958395348e-01  1.0000034345139528e+00  9.9999627026549298e-01  1.0000034183745685e+00  9.9999552799261793e-01  1.0000018083872035e+00  9.9999368427351654e-01  9.9999712270963348e-01  9.9998846496110916e-01  9.9999091273786433e-01  9.9998590627597228e-01  9.9999268201375058e-01  1.0000026963976758e+00  1.0000229641904639e+00  1.0000401393249010e+00  1.0000574725522871e+00  1.0000597230209731e+00  1.0000424317913219e+00  1.0000242957909353e+00  1.0000278453215505e+00  1