<?xml version="1.0"?>
<VTKFile type="UnstructuredGrid"  version="0.1"  >
<UnstructuredGrid>
<Piece  NumberOfPoints="10201" NumberOfCells="20000">
<Points>
<DataArray  type="Float64"  NumberOfComponents="3"  format="ascii">-5 -5 0  -4.9 -5 0  -4.8 -5 0  -4.7 -5 0  -4.6 -5 0  -4.5 -5 0  -4.4 -5 0  -4.3 -5 0  -4.2 -5 0  -4.1 -5 0  -4 -5 0  -3.9 -5 0  -3.8 -5 0  -3.7 -5 0  -3.6 -5 0  -3.5 -5 0  -3.4 -5 0  -3.3 -5 0  -3.2 -5 0  -3.1 -5 0  -3 -5 0  -2.9 -5 0  -2.8 -5 0  -2.7 -5 0  -2.6 -5 0  -2.5 -5 0  -2.4 -5 0  -2.3 -5 0  -2.2 -5 0  -2.1 -5 0  -2 -5 0  -1.9 -5 0  -1.8 -5 0  -1.7 -5 0  -1.6 -5 0  -1.5 -5 0  -1.4 -5 0  -1.3 -5 0  -1.2 -5 0  -1.1 -5 0  -1 -5 0  -0.9000000000000004 -5 0  -0.7999999999999998 -5 0  -0.7000000000000002 -5 0  -0.5999999999999996 -5 0  -0.5 -5 0  -0.4000000000000004 -5 0  -0.2999999999999998 -5 0  -0.2000000000000002 -5 0  -0.09999999999999964 -5 0  0 -5 0  0.09999999999999964 -5 0  0.2000000000000002 -5 0  0.2999999999999998 -5 0  0.4000000000000004 -5 0  0.5 -5 0  0.5999999999999996 -5 0  0.7000000000000002 -5 0  0.7999999999999998 -5 0  0.9000000000000004 -5 0  1 -5 0  1.1 -5 0  1.2 -5 0  1.3 -5 0  1.4 -5 0  1.5 -5 0  1.6 -5 0  1.7 -5 0  1.8 -5 0  1.9 -5 0  2 -5 0  2.1 -5 0  2.2 -5 0  2.3 -5 0  2.4 -5 0  2.5 -5 0  2.6 -5 0  2.7 -5 0  2.8 -5 0  2.9 -5 0  3 -5 0  3.1 -5 0  3.199999999999999 -5 0  3.300000000000001 -5 0  3.4 -5 0  3.5 -5 0  3.6 -5 0  3.699999999999999 -5 0  3.800000000000001 -5 0  3.9 -5 0  4 -5 0  4.1 -5 0  4.199999999999999 -5 0  4.300000000000001 -5 0  4.4 -5 0  4.5 -5 0  4.6 -5 0  4.699999999999999 -5 0  4.800000000000001 -5 0  4.9 -5 0  5 -5 0  -5 -4.9 0  -4.9 -4.9 0  -4.8 -4.9 0  -4.7 -4.9 0  -4.6 -4.9 0  -4.5 -4.9 0  -4.4 -4.9 0  -4.3 -4.9 0  -4.2 -4.9 0  -4.1 -4.9 0  -4 -4.9 0  -3.9 -4.9 0  -3.8 -4.9 0  -3.7 -4.9 0  -3.6 -4.9 0  -3.5 -4.9 0  -3.4 -4.9 0  -3.3 -4.9 0  -3.2 -4.9 0  -3.1 -4.9 0  -3 -4.9 0  -2.9 -4.9 0  -2.8 -4.9 0  -2.7 -4.9 0  -2.6 -4.9 0  -2.5 -4.9 0  -2.4 -4.9 0  -2.3 -4.9 0  -2.2 -4.9 0  -2.1 -4.9 0  -2 -4.9 0  -1.9 -4.9 0  -1.8 -4.9 0  -1.7 -4.9 0  -1.6 -4.9 0  -1.5 -4.9 0  -1.4 -4.9 0  -1.3 -4.9 0  -1.2 -4.9 0  -1.1 -4.9 0  -1 -4.9 0  -0.9000000000000004 -4.9 0  -0.7999999999999998 -4.9 0  -0.7000000000000002 -4.9 0  -0.5999999999999996 -4.9 0  -0.5 -4.9 0  -0.4000000000000004 -4.9 0  -0.2999999999999998 -4.9 0  -0.2000000000000002 -4.9 0  -0.09999999999999964 -4.9 0  0 -4.9 0  0.09999999999999964 -4.9 0  0.2000000000000002 -4.9 0  0.2999999999999998 -4.9 0  0.4000000000000004 -4.9 0  0.5 -4.9 0  0.5999999999999996 -4.9 0  0.7000000000000002 -4.9 0  0.7999999999999998 -4.9 0  0.9000000000000004 -4.9 0  1 -4.9 0  1.1 -4.9 0  1.2 -4.9 0  1.3 -4.9 0  1.4 -4.9 0  1.5 -4.9 0  1.6 -4.9 0  1.7 -4.9 0  1.8 -4.9 0  1.9 -4.9 0  2 -4.9 0  2.1 -4.9 0  2.2 -4.9 0  2.3 -4.9 0  2.4 -4.9 0  2.5 -4.9 0  2.6 -4.9 0  2.7 -4.9 0  2.8 -4.9 0  2.9 -4.9 0  3 -4.9 0  3.1 -4.9 0  3.199999999999999 -4.9 0  3.300000000000001 -4.9 0  3.4 -4.9 0  3.5 -4.9 0  3.6 -4.9 0  3.699999999999999 -4.9 0  3.800000000000001 -4.9 0  3.9 -4.9 0  4 -4.9 0  4.1 -4.9 0  4.199999999999999 -4.9 0  4.300000000000001 -4.9 0  4.4 -4.9 0  4.5 -4.9 0  4.6 -4.9 0  4.699999999999999 -4.9 0  4.800000000000001 -4.9 0  4.9 -4.9 0  5 -4.9 0  -5 -4.8 0  -4.9 -4.8 0  -4.8 -4.8 0  -4.7 -4.8 0  -4.6 -4.8 0  -4.5 -4.8 0  -4.4 -4.8 0  -4.3 -4.8 0  -4.2 -4.8 0  -4.1 -4.8 0  -4 -4.8 0  -3.9 -4.8 0  -3.8 -4.8 0  -3.7 -4.8 0  -3.6 -4.8 0  -3.5 -4.8 0  -3.4 -4.8 0  -3.3 -4.8 0  -3.2 -4.8 0  -3.1 -4.8 0  -3 -4.8 0  -2.9 -4.8 0  -2.8 -4.8 0  -2.7 -4.8 0  -2.6 -4.8 0  -2.5 -4.8 0  -2.4 -4.8 0  -2.3 -4.8 0  -2.2 -4.8 0  -2.1 -4.8 0  -2 -4.8 0  -1.9 -4.8 0  -1.8 -4.8 0  -1.7 -4.8 0  -1.6 -4.8 0  -1.5 -4.8 0  -1.4 -4.8 0  -1.3 -4.8 0  -1.2 -4.8 0  -1.1 -4.8 0  -1 -4.8 0  -0.9000000000000004 -4.8 0  -0.7999999999999998 -4.8 0  -0.7000000000000002 -4.8 0  -0.5999999999999996 -4.8 0  -0.5 -4.8 0  -0.4000000000000004 -4.8 0  -0.2999999999999998 -4.8 0  -0.2000000000000002 -4.8 0  -0.09999999999999964 -4.8 0  0 -4.8 0  0.09999999999999964 -4.8 0  0.2000000000000002 -4.8 0  0.2999999999999998 -4.8 0  0.4000000000000004 -4.8 0  0.5 -4.8 0  0.5999999999999996 -4.8 0  0.7000000000000002 -4.8 0  0.7999999999999998 -4.8 0  0.9000000000000004 -4.8 0  1 -4.8 0  1.1 -4.8 0  1.2 -4.8 0  1.3 -4.8 0  1.4 -4.8 0  1.5 -4.8 0  1.6 -4.8 0  1.7 -4.8 0  1.8 -4.8 0  1.9 -4.8 0  2 -4.8 0  2.1 -4.8 0  2.2 -4.8 0  2.3 -4.8 0  2.4 -4.8 0  2.5 -4.8 0  2.6 -4.8 0  2.7 -4.8 0  2.8 -4.8 0  2.9 -4.8 0  3 -4.8 0  3.1 -4.8 0  3.199999999999999 -4.8 0  3.300000000000001 -4.8 0  3.4 -4.8 0  3.5 -4.8 0  3.6 -4.8 0  3.699999999999999 -4.8 0  3.800000000000001 -4.8 0  3.9 -4.8 0  4 -4.8 0  4.1 -4.8 0  4.199999999999999 -4.8 0  4.300000000000001 -4.8 0  4.4 -4.8 0  4.5 -4.8 0  4.6 -4.8 0  4.699999999999999 -4.8 0  4.800000000000001 -4.8 0  4.9 -4.8 0  5 -4.8 0  -5 -4.7 0  -4.9 -4.7 0  -4.8 -4.7 0  -4.7 -4.7 0  -4.6 -4.7 0  -4.5 -4.7 0  -4.4 -4.7 0  -4.3 -4.7 0  -4.2 -4.7 0  -4.1 -4.7 0  -4 -4.7 0  -3.9 -4.7 0  -3.8 -4.7 0  -3.7 -4.7 0  -3.6 -4.7 0  -3.5 -4.7 0  -3.4 -4.7 0  -3.3 -4.7 0  -3.2 -4.7 0  -3.1 -4.7 0  -3 -4.7 0  -2.9 -4.7 0  -2.8 -4.7 0  -2.7 -4.7 0  -2.6 -4.7 0  -2.5 -4.7 0  -2.4 -4.7 0  -2.3 -4.7 0  -2.2 -4.7 0  -2.1 -4.7 0  -2 -4.7 0  -1.9 -4.7 0  -1.8 -4.7 0  -1.7 -4.7 0  -1.6 -4.7 0  -1.5 -4.7 0  -1.4 -4.7 0  -1.3 -4.7 0  -1.2 -4.7 0  -1.1 -4.7 0  -1 -4.7 0  -0.9000000000000004 -4.7 0  -0.7999999999999998 -4.7 0  -0.7000000000000002 -4.7 0  -0.5999999999999996 -4.7 0  -0.5 -4.7 0  -0.4000000000000004 -4.7 0  -0.2999999999999998 -4.7 0  -0.2000000000000002 -4.7 0  -0.09999999999999964 -4.7 0  0 -4.7 0  0.09999999999999964 -4.7 0  0.2000000000000002 -4.7 0  0.2999999999999998 -4.7 0  0.4000000000000004 -4.7 0  0.5 -4.7 0  0.5999999999999996 -4.7 0  0.7000000000000002 -4.7 0  0.7999999999999998 -4.7 0  0.9000000000000004 -4.7 0  1 -4.7 0  1.1 -4.7 0  1.2 -4.7 0  1.3 -4.7 0  1.4 -4.7 0  1.5 -4.7 0  1.6 -4.7 0  1.7 -4.7 0  1.8 -4.7 0  1.9 -4.7 0  2 -4.7 0  2.1 -4.7 0  2.2 -4.7 0  2.3 -4.7 0  2.4 -4.7 0  2.5 -4.7 0  2.6 -4.7 0  2.7 -4.7 0  2.8 -4.7 0  2.9 -4.7 0  3 -4.7 0  3.1 -4.7 0  3.199999999999999 -4.7 0  3.300000000000001 -4.7 0  3.4 -4.7 0  3.5 -4.7 0  3.6 -4.7 0  3.699999999999999 -4.7 0  3.800000000000001 -4.7 0  3.9 -4.7 0  4 -4.7 0  4.1 -4.7 0  4.199999999999999 -4.7 0  4.300000000000001 -4.7 0  4.4 -4.7 0  4.5 -4.7 0  4.6 -4.7 0  4.699999999999999 -4.7 0  4.800000000000001 -4.7 0  4.9 -4.7 0  5 -4.7 0  -5 -4.6 0  -4.9 -4.6 0  -4.8 -4.6 0  -4.7 -4.6 0  -4.6 -4.6 0  -4.5 -4.6 0  -4.4 -4.6 0  -4.3 -4.6 0  -4.2 -4.6 0  -4.1 -4.6 0  -4 -4.6 0  -3.9 -4.6 0  -3.8 -4.6 0  -3.7 -4.6 0  -3.6 -4.6 0  -3.5 -4.6 0  -3.4 -4.6 0  -3.3 -4.6 0  -3.2 -4.6 0  -3.1 -4.6 0  -3 -4.6 0  -2.9 -4.6 0  -2.8 -4.6 0  -2.7 -4.6 0  -2.6 -4.6 0  -2.5 -4.6 0  -2.4 -4.6 0  -2.3 -4.6 0  -2.2 -4.6 0  -2.1 -4.6 0  -2 -4.6 0  -1.9 -4.6 0  -1.8 -4.6 0  -1.7 -4.6 0  -1.6 -4.6 0  -1.5 -4.6 0  -1.4 -4.6 0  -1.3 -4.6 0  -1.2 -4.6 0  -1.1 -4.6 0  -1 -4.6 0  -0.9000000000000004 -4.6 0  -0.7999999999999998 -4.6 0  -0.7000000000000002 -4.6 0  -0.5999999999999996 -4.6 0  -0.5 -4.6 0  -0.4000000000000004 -4.6 0  -0.2999999999999998 -4.6 0  -0.2000000000000002 -4.6 0  -0.09999999999999964 -4.6 0  0 -4.6 0  0.09999999999999964 -4.6 0  0.2000000000000002 -4.6 0  0.2999999999999998 -4.6 0  0.4000000000000004 -4.6 0  0.5 -4.6 0  0.5999999999999996 -4.6 0  0.7000000000000002 -4.6 0  0.7999999999999998 -4.6 0  0.9000000000000004 -4.6 0  1 -4.6 0  1.1 -4.6 0  1.2 -4.6 0  1.3 -4.6 0  1.4 -4.6 0  1.5 -4.6 0  1.6 -4.6 0  1.7 -4.6 0  1.8 -4.6 0  1.9 -4.6 0  2 -4.6 0  2.1 -4.6 0  2.2 -4.6 0  2.3 -4.6 0  2.4 -4.6 0  2.5 -4.6 0  2.6 -4.6 0  2.7 -4.6 0  2.8 -4.6 0  2.9 -4.6 0  3 -4.6 0  3.1 -4.6 0  3.199999999999999 -4.6 0  3.300000000000001 -4.6 0  3.4 -4.6 0  3.5 -4.6 0  3.6 -4.6 0  3.699999999999999 -4.6 0  3.800000000000001 -4.6 0  3.9 -4.6 0  4 -4.6 0  4.1 -4.6 0  4.199999999999999 -4.6 0  4.300000000000001 -4.6 0  4.4 -4.6 0  4.5 -4.6 0  4.6 -4.6 0  4.699999999999999 -4.6 0  4.800000000000001 -4.6 0  4.9 -4.6 0  5 -4.6 0  -5 -4.5 0  -4.9 -4.5 0  -4.8 -4.5 0  -4.7 -4.5 0  -4.6 -4.5 0  -4.5 -4.5 0  -4.4 -4.5 0  -4.3 -4.5 0  -4.2 -4.5 0  -4.1 -4.5 0  -4 -4.5 0  -3.9 -4.5 0  -3.8 -4.5 0  -3.7 -4.5 0  -3.6 -4.5 0  -3.5 -4.5 0  -3.4 -4.5 0  -3.3 -4.5 0  -3.2 -4.5 0  -3.1 -4.5 0  -3 -4.5 0  -2.9 -4.5 0  -2.8 -4.5 0  -2.7 -4.5 0  -2.6 -4.5 0  -2.5 -4.5 0  -2.4 -4.5 0  -2.3 -4.5 0  -2.2 -4.5 0  -2.1 -4.5 0  -2 -4.5 0  -1.9 -4.5 0  -1.8 -4.5 0  -1.7 -4.5 0  -1.6 -4.5 0  -1.5 -4.5 0  -1.4 -4.5 0  -1.3 -4.5 0  -1.2 -4.5 0  -1.1 -4.5 0  -1 -4.5 0  -0.9000000000000004 -4.5 0  -0.7999999999999998 -4.5 0  -0.7000000000000002 -4.5 0  -0.5999999999999996 -4.5 0  -0.5 -4.5 0  -0.4000000000000004 -4.5 0  -0.2999999999999998 -4.5 0  -0.2000000000000002 -4.5 0  -0.09999999999999964 -4.5 0  0 -4.5 0  0.09999999999999964 -4.5 0  0.2000000000000002 -4.5 0  0.2999999999999998 -4.5 0  0.4000000000000004 -4.5 0  0.5 -4.5 0  0.5999999999999996 -4.5 0  0.7000000000000002 -4.5 0  0.7999999999999998 -4.5 0  0.9000000000000004 -4.5 0  1 -4.5 0  1.1 -4.5 0  1.2 -4.5 0  1.3 -4.5 0  1.4 -4.5 0  1.5 -4.5 0  1.6 -4.5 0  1.7 -4.5 0  1.8 -4.5 0  1.9 -4.5 0  2 -4.5 0  2.1 -4.5 0  2.2 -4.5 0  2.3 -4.5 0  2.4 -4.5 0  2.5 -4.5 0  2.6 -4.5 0  2.7 -4.5 0  2.8 -4.5 0  2.9 -4.5 0  3 -4.5 0  3.1 -4.5 0  3.199999999999999 -4.5 0  3.300000000000001 -4.5 0  3.4 -4.5 0  3.5 -4.5 0  3.6 -4.5 0  3.699999999999999 -4.5 0  3.800000000000001 -4.5 0  3.9 -4.5 0  4 -4.5 0  4.1 -4.5 0  4.199999999999999 -4.5 0  4.300000000000001 -4.5 0  4.4 -4.5 0  4.5 -4.5 0  4.6 -4.5 0  4.699999999999999 -4.5 0  4.800000000000001 -4.5 0  4.9 -4.5 0  5 -4.5 0  -5 -4.4 0  -4.9 -4.4 0  -4.8 -4.4 0  -4.7 -4.4 0  -4.6 -4.4 0  -4.5 -4.4 0  -4.4 -4.4 0  -4.3 -4.4 0  -4.2 -4.4 0  -4.1 -4.4 0  -4 -4.4 0  -3.9 -4.4 0  -3.8 -4.4 0  -3.7 -4.4 0  -3.6 -4.4 0  -3.5 -4.4 0  -3.4 -4.4 0  -3.3 -4.4 0  -3.2 -4.4 0  -3.1 -4.4 0  -3 -4.4 0  -2.9 -4.4 0  -2.8 -4.4 0  -2.7 -4.4 0  -2.6 -4.4 0  -2.5 -4.4 0  -2.4 -4.4 0  -2.3 -4.4 0  -2.2 -4.4 0  -2.1 -4.4 0  -2 -4.4 0  -1.9 -4.4 0  -1.8 -4.
[...]
<PointData  Scalars="r"> 
<DataArray  type="Float64"  Name="r"  format="ascii">1.0018694808386139e+00  1.0007552477806980e+00  9.9991115081342408e-01  9.9665589660559295e-01  9.9061472314007426e-01  9.9266830583173904e-01  1.0215453624743454e+00  1.1015421092678341e+00  1.1932981036859753e+00  1.2322584470374853e+00  1.1921712370024284e+00  1.1324119682008915e+00  1.0806295691259407e+00  1.0267192143766453e+00  9.9121833646343660e-01  9.7022214352056924e-01  9.6446151265840241e-01  9.7011100106035797e-01  9.7487769473874164e-01  9.8385266935409588e-01  9.8858708792462902e-01  9.9034997755933996e-01  9.9754546112692410e-01  1.0018310628288869e+00  1.0092165020757990e+00  1.0174120755076947e+00  1.0214443461663214e+00  1.0277661468863852e+00  1.0300186452722109e+00  1.0261083908101680e+00  1.0207345872794795e+00  1.0082508920021969e+00  9.9617050942517360e-01  9.8616843013437661e-01  9.7542003275335287e-01  9.6790583162492250e-01  9.6178795597726774e-01  9.5566240664378521e-01  9.5270464669755106e-01  9.5040585204932992e-01  9.4835514117969200e-01  9.4829824253412498e-01  9.4739640167510297e-01  9.4706562392364813e-01  9.4773852599235520e-01  9.4743357817339935e-01  9.4780116631653355e-01  9.4832399232404907e-01  9.4794025662988002e-01  9.4872447606002441e-01  9.4905693981033268e-01  9.4939611381658651e-01  9.5036365709393955e-01  9.5158858754820108e-01  9.5223025138255346e-01  9.5377661752162057e-01  9.5414779267234062e-01  9.5659166852614619e-01  9.5719124972957459e-01  9.5973203285611774e-01  9.6134503263686233e-01  9.6624430591493771e-01  9.6800052033712647e-01  9.7485183119730312e-01  9.7841193728542553e-01  9.8759086587602096e-01  9.9068435957276268e-01  1.0009970032302642e+00  1.0028671746892786e+00  1.0110558540841197e+00  1.0069595404996192e+00  1.0094986740989749e+00  9.9650546065052514e-01  9.8962701753797944e-01  9.6602922815926617e-01  9.5147568828163820e-01  9.2621852448199093e-01  9.2562726119602834e-01  9.3701183568808399e-01  9.9476243041909063e-01  1.0637057451890803e+00  1.1346323045700870e+00  1.1315921466130014e+00  1.0696482149945297e+00  9.8794976534366030e-01  9.8223156470451767e-01  1.0229256475923481e+00  1.0560998720956378e+00  1.0131757837648967e+00  9.2750231734252830e-01  8.8156131493722356e-01  9.7154715343494369e-01  1.1810534569820619e+00  1.3419798469533348e+00  1.2446080248881919e+00  1.0480044140709097e+00  9.8583366783353787e-01  9.9612703178391859e-01  1.0009474065466668e+00  1.0003737189408100e+00  9.9959664778429502e-01  1.0007552477806991e+00  9.9980253889959037e-01  9.9905441939330886e-01  9.9592898802020535e-01  9.9468720666620081e-01  1.0055813807873315e+00  1.0410592760677313e+00  1.0986006989888859e+00  1.1639177617464280e+00  1.2026986997571358e+00  1.1872078389985270e+00  1.1242946112598531e+00  1.0690799946115483e+00  1.0309262521178801e+00  1.0044935959325527e+00  9.8425712573138036e-01  9.7486603309218001e-01  9.7655228237708058e-01  9.8017192209366977e-01  9.8198772271082158e-01  9.8656552761175553e-01  9.8943301057010047e-01  9.9438786900328413e-01  9.9863471189087571e-01  1.0029494124700959e+00  1.0115968989558850e+00  1.0180192532019956e+00  1.0233966290991088e+00  1.0237027675107104e+00  1.0183695427115509e+00  1.0129948415436778e+00  1.0050585030628425e+00  9.9736228694588314e-01  9.8973790231532377e-01  9.8012684346616630e-01  9.7257059086167419e-01  9.6583508215566161e-01  9.5962305121949265e-01  9.5638011480320850e-01  9.5221929742825706e-01  9.4912926095623995e-01  9.4726122959629633e-01  9.4480400077268267e-01  9.4391675248311135e-01  9.4263736475573123e-01  9.4136450240530600e-01  9.4140847276218520e-01  9.4103624758934945e-01  9.4139307126607241e-01  9.4267748890527603e-01  9.4379134023054090e-01  9.4607472745141696e-01  9.4819052263790782e-01  9.5061876018619218e-01  9.5374037427550873e-01  9.5708548772681012e-01  9.6041166656545784e-01  9.6441604975666717e-01  9.6753972986180270e-01  9.7172822292887073e-01  9.7434215080098940e-01  9.7718724349664499e-01  9.7864194818855399e-01  9.8066932338542701e-01  9.7977897909170353e-01  9.8006487126631747e-01  9.7744699306380434e-01  9.7679669743991093e-01  9.7250752592893674e-01  9.7189247444533022e-01  9.6823780949677629e-01  9.6965442402571411e-01  9.6816049175258112e-01  9.7386626181492686e-01  9.7708643133630557e-01  9.8911408993033345e-01  9.9723034613218453e-01  1.0099729955301089e+00  1.0107548847614549e+00  1.0100692621736893e+00  1.0006383958889591e+00  1.0100929518772854e+00  1.0396752656483010e+00  1.0908481128193539e+00  1.0994055140174719e+00  1.0524987394856897e+00  9.7228413590323925e-01  9.3082471603759231e-01  9.4047493209540067e-01  1.0040827813538460e+00  1.0696600035055399e+00  1.1026327778605096e+00  1.0937469314060462e+00  1.1145776912221661e+00  1.1652264992291523e+00  1.1333335297639149e+00  1.0379576149222505e+00  9.9566031327699600e-01  9.9730651488847943e-01  1.0002424082178376e+00  1.0003737189406159e+00  9.9991115081341631e-01  9.9905441939330775e-01  9.9620243385657092e-01  9.9532108280175169e-01  1.0117636424702952e+00  1.0509008994366957e+00  1.0983189058689529e+00  1.1198352263703024e+00  1.1011735052625717e+00  1.0832335193600078e+00  1.0890800651802313e+00  1.0974442436455212e+00  1.0766156444990105e+00  1.0456927560669831e+00  1.0407832024156312e+00  1.0366615052735419e+00  1.0207159673927659e+00  9.9888154960502218e-01  9.8116549753021709e-01  9.7866632840706536e-01  9.8249987103771341e-01  9.8780402236201115e-01  9.9978325538984503e-01  1.0066255076220538e+00  1.0136539274436174e+00  1.0155667268947173e+00  1.0080237258966993e+00  1.0010148092559561e+00  9.9360536463008320e-01  9.8961333327897871e-01  9.9113290187247793e-01  9.9132282594929944e-01  9.9209615389586492e-01  9.9157625257807669e-01  9.8911180551866063e-01  9.8714125883145809e-01  9.8334841354152491e-01  9.7840380826298501e-01  9.7313692637534555e-01  9.6696188837297725e-01  9.6196887839557976e-01  9.5709620357901715e-01  9.5271300201891351e-01  9.4949536654535927e-01  9.4697919187299240e-01  9.4577215025496919e-01  9.4502579957387911e-01  9.4523641210362541e-01  9.4616981979695802e-01  9.4711277511559810e-01  9.4824022670373043e-01  9.4983681985364599e-01  9.5097402957663668e-01  9.5285707408231834e-01  9.5360236156328304e-01  9.5529311145463303e-01  9.5578939860279732e-01  9.5693435564560980e-01  9.5671530560303619e-01  9.5841816691766402e-01  9.5739881355227763e-01  9.5958464820861722e-01  9.5857342885665386e-01  9.6151084289562294e-01  9.6012311391272498e-01  9.6404362205057703e-01  9.6232949278492319e-01  9.6715332902704021e-01  9.6436950089334195e-01  9.6982709763516939e-01  9.6599789876274178e-01  9.7177181044745964e-01  9.6705395625428603e-01  9.7411366204461591e-01  9.7158476478509670e-01  9.8497293017516352e-01  9.9242281444493019e-01  1.0204707728270743e+00  1.0396321544201303e+00  1.0656934750040257e+00  1.0594055714078487e+00  1.0415171506267125e+00  9.9804329338474873e-01  9.8611968773286029e-01  9.9921888768782841e-01  1.0396951691781720e+00  1.0348326314235758e+00  1.0118186028948233e+00  9.8560458334059042e-01  1.0133807147778793e+00  1.0664320236033358e+00  1.1210005531233327e+00  1.1027232963680045e+00  1.0431945886588188e+00  1.0284893899440906e+00  1.1107919971677489e+00  1.1274353313937895e+00  1.0435630215336060e+00  9.9590605459789305e-01  9.9730651488834010e-01  1.0009474065466919e+00  9.9665589660559950e-01  9.9592898802020602e-01  9.9532108280175235e-01  1.0123038201370034e+00  1.0546648489043129e+00  1.1060369669984105e+00  1.1236428306063002e+00  1.0904678852607905e+00  1.0360729050502953e+00  9.9489413429460039e-01  9.9739651424457065e-01  1.0426003853623125e+00  1.1030724322881413e+00  1.1151272135785921e+00  1.0810428269153047e+00  1.0499150834720883e+00  1.0358613515522694e+00  1.0254998819356811e+00  1.0077483198555672e+00  9.9378049660187462e-01  9.9328042827465868e-01  9.9619475393268475e-01  1.0028633538073328e+00  1.0044200824080129e+00  9.9938392942170340e-01  9.9338186452481125e-01  9.8454426747374690e-01  9.7891001402778921e-01  9.7746777074517510e-01  9.7496737780013532e-01  9.7652529826025436e-01  9.7750703001210626e-01  9.7853880238246238e-01  9.8264123624979016e-01  9.8382374868585964e-01  9.8427807057238381e-01  9.8406681881782543e-01  9.8032611103785949e-01  9.7772220662027554e-01  9.7404969579737077e-01  9.6947431177097021e-01  9.6652926339099832e-01  9.6342965628691268e-01  9.6102265500080430e-01  9.5980017278305152e-01  9.5813859204338214e-01  9.5719242373543389e-01  9.5662900123552996e-01  9.5513721378008731e-01  9.5455789588088613e-01  9.5354547234292186e-01  9.5220826221392862e-01  9.5062757668501774e-01  9.4917060461881975e-01  9.4684015494084439e-01  9.4532965577920181e-01  9.4253003350150577e-01  9.4150159098289166e-01  9.3918393077630202e-01  9.3828136383570682e-01  9.3610772408334264e-01  9.3704018425571101e-01  9.3513838936100291e-01  9.3752537118224666e-01  9.3732691917544730e-01  9.4276998288720193e-01  9.4445063210298275e-01  9.5311344428362044e-01  9.5804767418346870e-01  9.7107887540584170e-01  9.7890249874078794e-01  9.9652111216649941e-01  1.0084120044976079e+00  1.0295906340898211e+00  1.0412244813994294e+00  1.0569334381292013e+00  1.0544852498440234e+00  1.0475663576369714e+00  1.0205404073736253e+00  9.9949155917137145e-01  9.7956851283057111e-01  9.8484826810606374e-01  9.9135327681832330e-01  9.9978060410940028e-01  9.8518345394561635e-01  9.8445274415173278e-01  9.9925784191952483e-01  1.0535920906902065e+00  1.1106772885376202e+00  1.1627328943980431e+00  1.1351526084667343e+00  1.0632451691034146e+00  9.8257676592152521e-01  9.6788197706244239e-01  9.7531171504071845e-01  1.0347003777849348e+00  1.1232200043806313e+00  1.1398160056885467e+00  1.0435630215336460e+00  9.9566031327727023e-01  9.9612703178380368e-01  9.9061472314007459e-01  9.9468720666620036e-01  1.0117636424702936e+00  1.0546648489043124e+00  1.1067548491584707e+00  1.1215311065957230e+00  1.0913262864304525e+00  1.0354834681243585e+00  9.9859391535417530e-01  9.8406873191691635e-01  9.8463727328469774e-01  9.9541099430949043e-01  1.0277487133423118e+00  1.0806360530923975e+00  1.1077904363527769e+00  1.0834128208149645e+00  1.0477989371232250e+00  1.0441735825589658e+00  1.0568141699031184e+00  1.0595236782647011e+00  1.0434450052949975e+00  1.0181079803203299e+00  9.9729734237142420e-01  9.7956056688068904e-01  9.6801666588913349e-01  9.6453582531234494e-01  9.6390576597125366e-01  9.6929542984071759e-01  9.7487171306655473e-01  9.7633983024578075e-01  9.7881156145317694e-01  9.7688474254275559e-01  9.7462920654580731e-01  9.7383350652462042e-01  9.7115652412732401e-01  9.7127316889980264e-01  9.7212255242195700e-01  9.7223635452454160e-01  9.7471565020006412e-01  9.7597829892814492e-01  9.7739528607964576e-01  9.7940515615466262e-01  9.7980446609379623e-01  9.7991286030389446e-01  9.7938939832557259e-01  9.7767737756504047e-01  9.7602559247840237e-01  9.7367481090711272e-01  9.7065031121335477e-01  9.6791290236644623e-01  9.6407281535920508e-01  9.6086718753049594e-01  9.5722404533366490e-01  9.5440118430632714e-01  9.5125881277261048e-01  9.4998672197644696e-01  9.4793551455489478e-01  9.4840840582872077e-01  9.4726076444680207e-01  9.4988510950138361e-01  9.5020633528321419e-01  9.5412593554398450e-01  9.5471700930559045e-01  9.6037985933784153e-01  9.6039982112327305e-01  9.6601863522418985e-01  9.6503289897398259e-01  9.7145002413720605e-01  9.7008690399909447e-01  9.7742274760273995e-01  9.7858580488067437e-01  9.8986930215007984e-01  9.9539299488178845e-01  1.0111574996087660e+00  1.0217037711302781e+00  1.0387109028057384e+00  1.0471732605389212e+00  1.0547440453460832e+00  1.0479635974403279e+00  1.0307539952849143e+00  9.9663689966433178e-01  9.5501143533351240e-01  9.1857046041151624e-01  9.0802335421280367e-01  9.4278758347590086e-01  1.0218841299207919e+00  1.1285097176426375e+00  1.1997923477226664e+00  1.1704437653132278e+00  1.0771464230221977e+00  1.0050025496522368e+00  1.0004427645620668e+00  1.0065197144494427e+00  1.0181846087346469e+00  9.9647737115302992e-01  9.9261992196991922e-01  1.0145065840149943e+00  1.1232200043803717e+00  1.1274353313941157e+00  1.0379576149225376e+00  9.8583366783315496e-01  9.9266830583174137e-01  1.0055813807873324e+00  1.0509008994366955e+00  1.1060369669984107e+00  1.1215311065957223e+00  1.0904531031982574e+00  1.0329979430960918e+00  9.9844176904662396e-01  9.8694963659868429e-01  9.8704900903587256e-01  9.8764531914858644e-01  9.8263154277793674e-01  9.8412278417795396e-01  1.0025854520851769e+00  1.0556117060402872e+00  1.1214144646472064e+00  1.1376732238442728e+00  1.1057104149833739e+00  1.0674242468292929e+00  1.0526571272590668e+00  1.0492362447435368e+00  1.0326404054732925e+00  1.0092029332345331e+00  9.8681050822442506e-01  9.6938239193352094e-01  9.6557693906006681e-01  9.6234506336581960e-01  9.6037077745134258e-01  9.5965006312805312e-01  9.5520766069519936e-01  9.5614861377207960e-01  9.5801154573685010e-01  9.5954162628728346e-01  9.6437046868274634e-01  9.6661925813298444e-01  9.6939141538422824e-01  9.7376249872540899e-01  9.7592928808231327e-01  9.8030722160471817e-01  9.8400235201842934e-01  9.8619064520364208e-01  9.8893056523373335e-01  9.8988605398234719e-01  9.9010025693366510e-01  9.9064283908958561e-01  9.8959819243852942e-01  9.8827462994675364e-01  9.8688577818643775e-01  9.8434258843725420e-01  9.8248294019704641e-01  9.8027739517403434e-01  9.7844755247950599e-01  9.7633224549350717e-01  9.7542792875949058e-01  9.7334593671691372e-01  9.7293295206052455e-01  9.7098335221510068e-01  9.7152791634088875e-01  9.7022270144651801e-01  9.7231362653254672e-01  9.7153292472100139e-01  9.7583822557349331e-01  9.7642228975838685e-01  9.8234439670036089e-01  9.8394622689402444e-01  9.9239893466643192e-01  9.9550396254880469e-01  1.0060152987664530e+00  1.0107780915557085e+00  1.0230116797853759e+00  1.0274893295942751e+00  1.0356362388464977e+00  1.0347100459117922e+00  1.0319150369457524e+00  1.0198909936892666e+00  1.0026297739474213e+00  9.8457259203488545e-01  9.6240285561328964e-01  9.5238727704071335e-01  9.4199393949129162e-01  9.5571350850290526e-01  9.6829035799269858e-01  1.0049988920710851e+00  1.0223033412757849e+00  1.0504229799536395e+00  1.0463745494093744e+00  1.0665807833861896e+00  1.0850112332953850e+00  1.1380555468476228e+00  1.1212645340002543e+00  1.0613002654283141e+00  9.9051967300517885e-01  9.6809524104389633e-01  9.7106024453767692e-01  9.8634346844129717e-01  9.9880929821697051e-01  9.9261992196976045e-01  1.0347003777846486e+00  1.1107919971673557e+00  1.1333335297641383e+00  1.0480044140721489e+00  1.0215453624743456e+00  1.0410592760677351e+00  1.0983189058689504e+00  1.1236428306063013e+00  1.0913262864304507e+00  1.0329979430960887e+00  9.9761430854141930e-01  9.8596686853271498e-01  9.8870537737983777e-01  9.9062153190597035e-01  9.9067601219814239e-01  9.9173925062256696e-01  9.8986597962727763e-01  9.9046953142606109e-01  1.0013831801929793e+00  1.0377441418148150e+00  1.0982965217632885e+00  1.1416401691950142e+00  1.1245975339391836e+00  1.0725056472774157e+00  1.0356478602155541e+00  1.0267476243403391e+00  1.0304328811875556e+00  1.0273418539799761e+00  1.0116645385426863e+00  9.9277522327210987e-01  9.6989431993440167e-01  9.5316746952874121e-01  9.4516225510550711e-01  9.4096052187097623e-01  9.4398832239390085e-01  9.4713417256838417e-01  9.4861355848065898e-01  9.5396698803532476e-01  9.5704473183058503e-01  9.6219402697390655e-01  9.6936649147595177e-01  9.7346894316038179e-01  9.7966640193966481e-01  9.8489038164997167e-01  9.8881711083796453e-01  9.9461382037247525e-01  9.9895796500757783e-01  1.0026763762982465e+00  1.0070533486065509e+00  1.0091532737301154e+00  1.0116642413762986e+00  1.0142446412776294e+00  1.0155782949898451e+00  1.0177953760291809e+00  1.0188230948034989e+00  1.0199643065889825e+00  1.0205492388090103e+00  1.0212368158283442e+00  1.0199327555954349e+00  1.0204467255551231e+00  1.0179327288675555e+00  1.0170668175153246e+00  1.0126836927939831e+00  1.0112895414465821e+00  1.0056877172177672e+00  1.0048691581771247e+00  9.9980691421043166e-01  1.0020006792570459e+00  9.9960437618711617e-01  1.0044210508087794e+00  1.0038935332995400e+00  1.0094431429661357e+00  1.0080505731978133e+00  1.0104464565792037e+00  1.0065649318493788e+00  1.0036188516965916e+00  9.9728518478230443e-01  9.8847809478308346e-01  9.8335892121529245e-01  9.7209916098162930e-01  9.7317178843137830e-01  9.6234461632375135e-01  9.7300361841215788e-01  9.6158476443746799e-01  9.7979000215901757e-01  9.7311798592691290e-01  1.0161216035273009e+00  1.0387081981605391e+00  1.1071596724374480e+00  1.1114875661079231e+00  1.1216903207352813e+00  1.0462628560509177e+00  1.0276575059036188e+00  9.9531064735905905e-01  1.0341690686636831e+00  1.0090489808605172e+00  1.0283244356092607e+00  1.0022076063177154e+00  1.0140874437943657e+00  9.8634346844081333e-01  9.9647737115342727e-01  9.7531171504050262e-01  1.0284893899440319e+00  1.1652264992296006e+00  1.2446080248900340e+00  1.1015421092678341e+00  1.0986006989888837e+00  1.1198352263703031e+00  1.0904678852607905e+00  1.0354834681243636e+00  9.9844176904662230e-01  9.8596686853271642e-01  9.8875205110601871e-01  9.8925028954591077e-01  9.9113422458254341e-01  9.9078707534095734e-01  9.9148635221904680e-01  9.9304614703912053e-01  9.9855912991554829e-01  1.0030413941909069e+00  1.0080423814730008e+00  1.0190671118716663e+00  1.0579366746645309e+00  1.1118378007911240e+00  1.1376092803241900e+00  1.1074434931962591e+00  1.0493036312443753e+00  1.0100850475482084e+00  1.0002604065767184e+00  9.9920793728065893e-01  1.0003349529951939e+00  9.9384294794530026e-01  9.8513666966325109e-01  9.7893053461667912e-01  9.6688307623847791e-01  9.5796558941844201e-01  9.5089935090036215e-01  9.4493958214542806e-01  9.4759244980676893e-01  9.4971051106696902e-01  9.5391790659679021e-01  9.6135749343354671e-01  9.6653014293785500e-01  9.7500438233197917e-01  9.8394092360168073e-01  9.9038378964991713e-01  9.9846860258931647e-01  1.0038383213714368e+00  1.0075288231526263e+00  1.0121474685898679e+00  1.0147347317507902e+00  1.0175836339004354e+00  1.0204815928193687e+00  1.0218757147196200e+00  1.0242754880067393e+00  1.0260789757237629e+00  1.0279577781431604e+00  1.0295166193368630e+00  1.0319834034298134e+00  1.0329525366623593e+00  1.0355809496745136e+00  1.0354476121351166e+00  1.0377758623452495e+00  1.0364438218568945e+00  1.0376912700517069e+00  1.0335790878515485e+00  1.0330204458926282e+00  1.0256598933231491e+00  1.0226832655400875e+00  1.0133659790236325e+00  1.0104470288854841e+00  1.0019485459580009e+00  9.9857795580693676e-01  9.8994071854957366e-01  9.8273833010795897e-01  9.7201669446537020e-01  9.5921255131797289e-01  9.4971962806774757e-01  9.3410305164117469e-01  9.3152730675632978e-01  9.1774955867213559e-01  9.3044584660436847e-01  9.2770250921339914e-01  9.6807886612777583e-01  9.8964691848851249e-01  1.0633847222591835e+00  1.0913407591909998e+00  1.1448279232531475e+00  1.1057312013548490e+00  1.0871183646903380e+00  9.9848580286849575e-01  9.9025977254409381e-01  9.5251421823870164e-01  1.0124820431990513e+00  1.0201846707640367e+00  1.0927022615243775e+00  1.0447187272536584e+00  1.0317983633974719e+00  9.5793127523051158e-01  1.0022076063185696e+00  9.7106024453748496e-01  1.0181846087347659e+00  9.6788197706231327e-01  1.0431945886597096e+00  1.1145776912217291e+00  1.3419798469526762e+00  1.1932981036859733e+00  1.1639177617464302e+00  1.1011735052625709e+00  1.0360729050502999e+00  9.9859391535417341e-01  9.8694963659868795e-01  9.8870537737983799e-01  9.8925028954590921e-01  9.9128988193286582e-01  9.9105409709037506e-01  9.9111458725408585e-01  9.9625575191648541e-01  1.0039995327938456e+00  1.0133197527149960e+00  1.0179106011113364e+00  1.0151178562879353e+00  1.0065583148541195e+00  9.9678162211393595e-01  9.9876223781445361e-01  1.0301719310465720e+00  1.0792546553238327e+00  1.1053408266969953e+00  1