<?xml version="1.0"?>
<VTKFile type="UnstructuredGrid"  version="0.1"  >
<UnstructuredGrid>
<Piece  NumberOfPoints="10201" NumberOfCells="20000">
<Points>
<DataArray  type="Float64"  NumberOfComponents="3"  format="ascii">-5 -5 0  -4.9 -5 0  -4.8 -5 0  -4.7 -5 0  -4.6 -5 0  -4.5 -5 0  -4.4 -5 0  -4.3 -5 0  -4.2 -5 0  -4.1 -5 0  -4 -5 0  -3.9 -5 0  -3.8 -5 0  -3.7 -5 0  -3.6 -5 0  -3.5 -5 0  -3.4 -5 0  -3.3 -5 0  -3.2 -5 0  -3.1 -5 0  -3 -5 0  -2.9 -5 0  -2.8 -5 0  -2.7 -5 0  -2.6 -5 0  -2.5 -5 0  -2.4 -5 0  -2.3 -5 0  -2.2 -5 0  -2.1 -5 0  -2 -5 0  -1.9 -5 0  -1.8 -5 0  -1.7 -5 0  -1.6 -5 0  -1.5 -5 0  -1.4 -5 0  -1.3 -5 0  -1.2 -5 0  -1.1 -5 0  -1 -5 0  -0.9000000000000004 -5 0  -0.7999999999999998 -5 0  -0.7000000000000002 -5 0  -0.5999999999999996 -5 0  -0.5 -5 0  -0.4000000000000004 -5 0  -0.2999999999999998 -5 0  -0.2000000000000002 -5 0  -0.09999999999999964 -5 0  0 -5 0  0.09999999999999964 -5 0  0.2000000000000002 -5 0  0.2999999999999998 -5 0  0.4000000000000004 -5 0  0.5 -5 0  0.5999999999999996 -5 0  0.7000000000000002 -5 0  0.7999999999999998 -5 0  0.9000000000000004 -5 0  1 -5 0  1.1 -5 0  1.2 -5 0  1.3 -5 0  1.4 -5 0  1.5 -5 0  1.6 -5 0  1.7 -5 0  1.8 -5 0  1.9 -5 0  2 -5 0  2.1 -5 0  2.2 -5 0  2.3 -5 0  2.4 -5 0  2.5 -5 0  2.6 -5 0  2.7 -5 0  2.8 -5 0  2.9 -5 0  3 -5 0  3.1 -5 0  3.199999999999999 -5 0  3.300000000000001 -5 0  3.4 -5 0  3.5 -5 0  3.6 -5 0  3.699999999999999 -5 0  3.800000000000001 -5 0  3.9 -5 0  4 -5 0  4.1 -5 0  4.199999999999999 -5 0  4.300000000000001 -5 0  4.4 -5 0  4.5 -5 0  4.6 -5 0  4.699999999999999 -5 0  4.800000000000001 -5 0  4.9 -5 0  5 -5 0  -5 -4.9 0  -4.9 -4.9 0  -4.8 -4.9 0  -4.7 -4.9 0  -4.6 -4.9 0  -4.5 -4.9 0  -4.4 -4.9 0  -4.3 -4.9 0  -4.2 -4.9 0  -4.1 -4.9 0  -4 -4.9 0  -3.9 -4.9 0  -3.8 -4.9 0  -3.7 -4.9 0  -3.6 -4.9 0  -3.5 -4.9 0  -3.4 -4.9 0  -3.3 -4.9 0  -3.2 -4.9 0  -3.1 -4.9 0  -3 -4.9 0  -2.9 -4.9 0  -2.8 -4.9 0  -2.7 -4.9 0  -2.6 -4.9 0  -2.5 -4.9 0  -2.4 -4.9 0  -2.3 -4.9 0  -2.2 -4.9 0  -2.1 -4.9 0  -2 -4.9 0  -1.9 -4.9 0  -1.8 -4.9 0  -1.7 -4.9 0  -1.6 -4.9 0  -1.5 -4.9 0  -1.4 -4.9 0  -1.3 -4.9 0  -1.2 -4.9 0  -1.1 -4.9 0  -1 -4.9 0  -0.9000000000000004 -4.9 0  -0.7999999999999998 -4.9 0  -0.7000000000000002 -4.9 0  -0.5999999999999996 -4.9 0  -0.5 -4.9 0  -0.4000000000000004 -4.9 0  -0.2999999999999998 -4.9 0  -0.2000000000000002 -4.9 0  -0.09999999999999964 -4.9 0  0 -4.9 0  0.09999999999999964 -4.9 0  0.2000000000000002 -4.9 0  0.2999999999999998 -4.9 0  0.4000000000000004 -4.9 0  0.5 -4.9 0  0.5999999999999996 -4.9 0  0.7000000000000002 -4.9 0  0.7999999999999998 -4.9 0  0.9000000000000004 -4.9 0  1 -4.9 0  1.1 -4.9 0  1.2 -4.9 0  1.3 -4.9 0  1.4 -4.9 0  1.5 -4.9 0  1.6 -4.9 0  1.7 -4.9 0  1.8 -4.9 0  1.9 -4.9 0  2 -4.9 0  2.1 -4.9 0  2.2 -4.9 0  2.3 -4.9 0  2.4 -4.9 0  2.5 -4.9 0  2.6 -4.9 0  2.7 -4.9 0  2.8 -4.9 0  2.9 -4.9 0  3 -4.9 0  3.1 -4.9 0  3.199999999999999 -4.9 0  3.300000000000001 -4.9 0  3.4 -4.9 0  3.5 -4.9 0  3.6 -4.9 0  3.699999999999999 -4.9 0  3.800000000000001 -4.9 0  3.9 -4.9 0  4 -4.9 0  4.1 -4.9 0  4.199999999999999 -4.9 0  4.300000000000001 -4.9 0  4.4 -4.9 0  4.5 -4.9 0  4.6 -4.9 0  4.699999999999999 -4.9 0  4.800000000000001 -4.9 0  4.9 -4.9 0  5 -4.9 0  -5 -4.8 0  -4.9 -4.8 0  -4.8 -4.8 0  -4.7 -4.8 0  -4.6 -4.8 0  -4.5 -4.8 0  -4.4 -4.8 0  -4.3 -4.8 0  -4.2 -4.8 0  -4.1 -4.8 0  -4 -4.8 0  -3.9 -4.8 0  -3.8 -4.8 0  -3.7 -4.8 0  -3.6 -4.8 0  -3.5 -4.8 0  -3.4 -4.8 0  -3.3 -4.8 0  -3.2 -4.8 0  -3.1 -4.8 0  -3 -4.8 0  -2.9 -4.8 0  -2.8 -4.8 0  -2.7 -4.8 0  -2.6 -4.8 0  -2.5 -4.8 0  -2.4 -4.8 0  -2.3 -4.8 0  -2.2 -4.8 0  -2.1 -4.8 0  -2 -4.8 0  -1.9 -4.8 0  -1.8 -4.8 0  -1.7 -4.8 0  -1.6 -4.8 0  -1.5 -4.8 0  -1.4 -4.8 0  -1.3 -4.8 0  -1.2 -4.8 0  -1.1 -4.8 0  -1 -4.8 0  -0.9000000000000004 -4.8 0  -0.7999999999999998 -4.8 0  -0.7000000000000002 -4.8 0  -0.5999999999999996 -4.8 0  -0.5 -4.8 0  -0.4000000000000004 -4.8 0  -0.2999999999999998 -4.8 0  -0.2000000000000002 -4.8 0  -0.09999999999999964 -4.8 0  0 -4.8 0  0.09999999999999964 -4.8 0  0.2000000000000002 -4.8 0  0.2999999999999998 -4.8 0  0.4000000000000004 -4.8 0  0.5 -4.8 0  0.5999999999999996 -4.8 0  0.7000000000000002 -4.8 0  0.7999999999999998 -4.8 0  0.9000000000000004 -4.8 0  1 -4.8 0  1.1 -4.8 0  1.2 -4.8 0  1.3 -4.8 0  1.4 -4.8 0  1.5 -4.8 0  1.6 -4.8 0  1.7 -4.8 0  1.8 -4.8 0  1.9 -4.8 0  2 -4.8 0  2.1 -4.8 0  2.2 -4.8 0  2.3 -4.8 0  2.4 -4.8 0  2.5 -4.8 0  2.6 -4.8 0  2.7 -4.8 0  2.8 -4.8 0  2.9 -4.8 0  3 -4.8 0  3.1 -4.8 0  3.199999999999999 -4.8 0  3.300000000000001 -4.8 0  3.4 -4.8 0  3.5 -4.8 0  3.6 -4.8 0  3.699999999999999 -4.8 0  3.800000000000001 -4.8 0  3.9 -4.8 0  4 -4.8 0  4.1 -4.8 0  4.199999999999999 -4.8 0  4.300000000000001 -4.8 0  4.4 -4.8 0  4.5 -4.8 0  4.6 -4.8 0  4.699999999999999 -4.8 0  4.800000000000001 -4.8 0  4.9 -4.8 0  5 -4.8 0  -5 -4.7 0  -4.9 -4.7 0  -4.8 -4.7 0  -4.7 -4.7 0  -4.6 -4.7 0  -4.5 -4.7 0  -4.4 -4.7 0  -4.3 -4.7 0  -4.2 -4.7 0  -4.1 -4.7 0  -4 -4.7 0  -3.9 -4.7 0  -3.8 -4.7 0  -3.7 -4.7 0  -3.6 -4.7 0  -3.5 -4.7 0  -3.4 -4.7 0  -3.3 -4.7 0  -3.2 -4.7 0  -3.1 -4.7 0  -3 -4.7 0  -2.9 -4.7 0  -2.8 -4.7 0  -2.7 -4.7 0  -2.6 -4.7 0  -2.5 -4.7 0  -2.4 -4.7 0  -2.3 -4.7 0  -2.2 -4.7 0  -2.1 -4.7 0  -2 -4.7 0  -1.9 -4.7 0  -1.8 -4.7 0  -1.7 -4.7 0  -1.6 -4.7 0  -1.5 -4.7 0  -1.4 -4.7 0  -1.3 -4.7 0  -1.2 -4.7 0  -1.1 -4.7 0  -1 -4.7 0  -0.9000000000000004 -4.7 0  -0.7999999999999998 -4.7 0  -0.7000000000000002 -4.7 0  -0.5999999999999996 -4.7 0  -0.5 -4.7 0  -0.4000000000000004 -4.7 0  -0.2999999999999998 -4.7 0  -0.2000000000000002 -4.7 0  -0.09999999999999964 -4.7 0  0 -4.7 0  0.09999999999999964 -4.7 0  0.2000000000000002 -4.7 0  0.2999999999999998 -4.7 0  0.4000000000000004 -4.7 0  0.5 -4.7 0  0.5999999999999996 -4.7 0  0.7000000000000002 -4.7 0  0.7999999999999998 -4.7 0  0.9000000000000004 -4.7 0  1 -4.7 0  1.1 -4.7 0  1.2 -4.7 0  1.3 -4.7 0  1.4 -4.7 0  1.5 -4.7 0  1.6 -4.7 0  1.7 -4.7 0  1.8 -4.7 0  1.9 -4.7 0  2 -4.7 0  2.1 -4.7 0  2.2 -4.7 0  2.3 -4.7 0  2.4 -4.7 0  2.5 -4.7 0  2.6 -4.7 0  2.7 -4.7 0  2.8 -4.7 0  2.9 -4.7 0  3 -4.7 0  3.1 -4.7 0  3.199999999999999 -4.7 0  3.300000000000001 -4.7 0  3.4 -4.7 0  3.5 -4.7 0  3.6 -4.7 0  3.699999999999999 -4.7 0  3.800000000000001 -4.7 0  3.9 -4.7 0  4 -4.7 0  4.1 -4.7 0  4.199999999999999 -4.7 0  4.300000000000001 -4.7 0  4.4 -4.7 0  4.5 -4.7 0  4.6 -4.7 0  4.699999999999999 -4.7 0  4.800000000000001 -4.7 0  4.9 -4.7 0  5 -4.7 0  -5 -4.6 0  -4.9 -4.6 0  -4.8 -4.6 0  -4.7 -4.6 0  -4.6 -4.6 0  -4.5 -4.6 0  -4.4 -4.6 0  -4.3 -4.6 0  -4.2 -4.6 0  -4.1 -4.6 0  -4 -4.6 0  -3.9 -4.6 0  -3.8 -4.6 0  -3.7 -4.6 0  -3.6 -4.6 0  -3.5 -4.6 0  -3.4 -4.6 0  -3.3 -4.6 0  -3.2 -4.6 0  -3.1 -4.6 0  -3 -4.6 0  -2.9 -4.6 0  -2.8 -4.6 0  -2.7 -4.6 0  -2.6 -4.6 0  -2.5 -4.6 0  -2.4 -4.6 0  -2.3 -4.6 0  -2.2 -4.6 0  -2.1 -4.6 0  -2 -4.6 0  -1.9 -4.6 0  -1.8 -4.6 0  -1.7 -4.6 0  -1.6 -4.6 0  -1.5 -4.6 0  -1.4 -4.6 0  -1.3 -4.6 0  -1.2 -4.6 0  -1.1 -4.6 0  -1 -4.6 0  -0.9000000000000004 -4.6 0  -0.7999999999999998 -4.6 0  -0.7000000000000002 -4.6 0  -0.5999999999999996 -4.6 0  -0.5 -4.6 0  -0.4000000000000004 -4.6 0  -0.2999999999999998 -4.6 0  -0.2000000000000002 -4.6 0  -0.09999999999999964 -4.6 0  0 -4.6 0  0.09999999999999964 -4.6 0  0.2000000000000002 -4.6 0  0.2999999999999998 -4.6 0  0.4000000000000004 -4.6 0  0.5 -4.6 0  0.5999999999999996 -4.6 0  0.7000000000000002 -4.6 0  0.7999999999999998 -4.6 0  0.9000000000000004 -4.6 0  1 -4.6 0  1.1 -4.6 0  1.2 -4.6 0  1.3 -4.6 0  1.4 -4.6 0  1.5 -4.6 0  1.6 -4.6 0  1.7 -4.6 0  1.8 -4.6 0  1.9 -4.6 0  2 -4.6 0  2.1 -4.6 0  2.2 -4.6 0  2.3 -4.6 0  2.4 -4.6 0  2.5 -4.6 0  2.6 -4.6 0  2.7 -4.6 0  2.8 -4.6 0  2.9 -4.6 0  3 -4.6 0  3.1 -4.6 0  3.199999999999999 -4.6 0  3.300000000000001 -4.6 0  3.4 -4.6 0  3.5 -4.6 0  3.6 -4.6 0  3.699999999999999 -4.6 0  3.800000000000001 -4.6 0  3.9 -4.6 0  4 -4.6 0  4.1 -4.6 0  4.199999999999999 -4.6 0  4.300000000000001 -4.6 0  4.4 -4.6 0  4.5 -4.6 0  4.6 -4.6 0  4.699999999999999 -4.6 0  4.800000000000001 -4.6 0  4.9 -4.6 0  5 -4.6 0  -5 -4.5 0  -4.9 -4.5 0  -4.8 -4.5 0  -4.7 -4.5 0  -4.6 -4.5 0  -4.5 -4.5 0  -4.4 -4.5 0  -4.3 -4.5 0  -4.2 -4.5 0  -4.1 -4.5 0  -4 -4.5 0  -3.9 -4.5 0  -3.8 -4.5 0  -3.7 -4.5 0  -3.6 -4.5 0  -3.5 -4.5 0  -3.4 -4.5 0  -3.3 -4.5 0  -3.2 -4.5 0  -3.1 -4.5 0  -3 -4.5 0  -2.9 -4.5 0  -2.8 -4.5 0  -2.7 -4.5 0  -2.6 -4.5 0  -2.5 -4.5 0  -2.4 -4.5 0  -2.3 -4.5 0  -2.2 -4.5 0  -2.1 -4.5 0  -2 -4.5 0  -1.9 -4.5 0  -1.8 -4.5 0  -1.7 -4.5 0  -1.6 -4.5 0  -1.5 -4.5 0  -1.4 -4.5 0  -1.3 -4.5 0  -1.2 -4.5 0  -1.1 -4.5 0  -1 -4.5 0  -0.9000000000000004 -4.5 0  -0.7999999999999998 -4.5 0  -0.7000000000000002 -4.5 0  -0.5999999999999996 -4.5 0  -0.5 -4.5 0  -0.4000000000000004 -4.5 0  -0.2999999999999998 -4.5 0  -0.2000000000000002 -4.5 0  -0.09999999999999964 -4.5 0  0 -4.5 0  0.09999999999999964 -4.5 0  0.2000000000000002 -4.5 0  0.2999999999999998 -4.5 0  0.4000000000000004 -4.5 0  0.5 -4.5 0  0.5999999999999996 -4.5 0  0.7000000000000002 -4.5 0  0.7999999999999998 -4.5 0  0.9000000000000004 -4.5 0  1 -4.5 0  1.1 -4.5 0  1.2 -4.5 0  1.3 -4.5 0  1.4 -4.5 0  1.5 -4.5 0  1.6 -4.5 0  1.7 -4.5 0  1.8 -4.5 0  1.9 -4.5 0  2 -4.5 0  2.1 -4.5 0  2.2 -4.5 0  2.3 -4.5 0  2.4 -4.5 0  2.5 -4.5 0  2.6 -4.5 0  2.7 -4.5 0  2.8 -4.5 0  2.9 -4.5 0  3 -4.5 0  3.1 -4.5 0  3.199999999999999 -4.5 0  3.300000000000001 -4.5 0  3.4 -4.5 0  3.5 -4.5 0  3.6 -4.5 0  3.699999999999999 -4.5 0  3.800000000000001 -4.5 0  3.9 -4.5 0  4 -4.5 0  4.1 -4.5 0  4.199999999999999 -4.5 0  4.300000000000001 -4.5 0  4.4 -4.5 0  4.5 -4.5 0  4.6 -4.5 0  4.699999999999999 -4.5 0  4.800000000000001 -4.5 0  4.9 -4.5 0  5 -4.5 0  -5 -4.4 0  -4.9 -4.4 0  -4.8 -4.4 0  -4.7 -4.4 0  -4.6 -4.4 0  -4.5 -4.4 0  -4.4 -4.4 0  -4.3 -4.4 0  -4.2 -4.4 0  -4.1 -4.4 0  -4 -4.4 0  -3.9 -4.4 0  -3.8 -4.4 0  -3.7 -4.4 0  -3.6 -4.4 0  -3.5 -4.4 0  -3.4 -4.4 0  -3.3 -4.4 0  -3.2 -4.4 0  -3.1 -4.4 0  -3 -4.4 0  -2.9 -4.4 0  -2.8 -4.4 0  -2.7 -4.4 0  -2.6 -4.4 0  -2.5 -4.4 0  -2.4 -4.4 0  -2.3 -4.4 0  -2.2 -4.4 0  -2.1 -4.4 0  -2 -4.4 0  -1.9 -4.4 0  -1.8 -4.
[...]
<PointData  Scalars="r"> 
<DataArray  type="Float64"  Name="r"  format="ascii">9.9740673670558344e-01  1.0018009152421121e+00  9.9866020029289615e-01  9.9972079871027208e-01  1.0010839874400119e+00  9.9940746306393935e-01  1.0016417911478910e+00  9.9902504201737397e-01  1.0007674892745144e+00  1.0005937828080642e+00  9.9932720105312900e-01  1.0009299919672734e+00  9.9924328997510292e-01  9.9997382127560719e-01  1.0002832141348248e+00  9.9931220358135842e-01  1.0002610329371473e+00  1.0003925655795796e+00  9.9994948094534475e-01  1.0004279695474951e+00  9.9986120488670704e-01  9.9948592682926818e-01  9.9992162484313829e-01  1.0001215404502826e+00  1.0009026338451934e+00  1.0012754735342169e+00  1.0001921073448794e+00  9.9741190111000011e-01  9.9301904685540932e-01  9.8829678144784683e-01  9.8651194076556803e-01  9.9202698937023936e-01  1.0088186068166056e+00  1.0389778626278583e+00  1.0810807410858407e+00  1.1299309671690740e+00  1.1794450070299047e+00  1.2231511850823007e+00  1.2565482028098107e+00  1.2772886452389360e+00  1.2852754733592593e+00  1.2825034757678375e+00  1.2720351136175130e+00  1.2565651742280961e+00  1.2384597505492763e+00  1.2197435445271529e+00  1.2021996692724890e+00  1.1866653153755695e+00  1.1733656612766519e+00  1.1629546706938358e+00  1.1557497040996967e+00  1.1517794963929533e+00  1.1513316091573893e+00  1.1544198490978215e+00  1.1617218330148396e+00  1.1735984722626789e+00  1.1894809837575635e+00  1.2097961954286798e+00  1.2342485707986062e+00  1.2613027050647601e+00  1.2889595635992310e+00  1.3139278236147378e+00  1.3319149095425900e+00  1.3372336585887021e+00  1.3236784636594923e+00  1.2869514549457828e+00  1.2272044961284347e+00  1.1512453098971347e+00  1.0747157644356571e+00  1.0174305971287583e+00  9.9033401210582317e-01  9.8775865512452843e-01  9.9471281789884325e-01  9.9982379957167844e-01  1.0008587603669583e+00  1.0004648360087369e+00  1.0000020686602846e+00  1.0000003592906230e+00  9.9996462123970098e-01  9.9992435573736549e-01  1.0001382721088505e+00  9.9994269750419018e-01  1.0000242293774180e+00  1.0000475015227399e+00  9.9992749709936957e-01  9.9999975170288435e-01  1.0000303927293344e+00  9.9996095923739048e-01  9.9999480659946394e-01  1.0000126025990388e+00  1.0000579377485701e+00  9.9997191559798360e-01  1.0001136188474133e+00  9.9996217178143909e-01  9.9998930696783850e-01  9.9998964364001808e-01  9.9999457370959655e-01  9.9996304788675416e-01  1.0000113870929268e+00  1.0000078546870548e+00  1.0000123039215221e+00  1.0018009152421126e+00  9.9943833638326796e-01  1.0004996939781252e+00  9.9993482564403546e-01  1.0001154875941280e+00  9.9955736418142160e-01  9.9996220535223690e-01  9.9957635783655807e-01  9.9999678857623631e-01  9.9953879228298570e-01  9.9970763505361859e-01  1.0001727278773127e+00  9.9958065534593044e-01  1.0006582071157402e+00  9.9998153010001345e-01  9.9987581716351215e-01  1.0006424742672653e+00  9.9941069220241252e-01  9.9980582201800483e-01  9.9996525975462569e-01  9.9937713829187125e-01  1.0005882318545987e+00  1.0007749284748209e+00  1.0007549521293588e+00  1.0007584122688511e+00  9.9876945129721373e-01  9.9658695184211465e-01  9.9441296958196479e-01  9.9357996294371087e-01  9.9775677943052221e-01  1.0084306985087732e+00  1.0266951409797582e+00  1.0509845119256336e+00  1.0775329175995281e+00  1.1032288809731525e+00  1.1252684994739295e+00  1.1424595052177220e+00  1.1547038341765208e+00  1.1624647015847278e+00  1.1671476750769374e+00  1.1694718706119152e+00  1.1698311601657174e+00  1.1686649567014937e+00  1.1660637217844976e+00  1.1624720054935433e+00  1.1582809105411327e+00  1.1535508243818768e+00  1.1486190036718575e+00  1.1440515699147531e+00  1.1400007771700464e+00  1.1365393320945971e+00  1.1338852985621777e+00  1.1319585973208717e+00  1.1307737043692727e+00  1.1301482747635583e+00  1.1295150400080627e+00  1.1289246221895453e+00  1.1282525717936061e+00  1.1268491801887812e+00  1.1248481206200511e+00  1.1226774078047739e+00  1.1208243306959367e+00  1.1203670840357962e+00  1.1225651086854447e+00  1.1288311067062087e+00  1.1397135288977092e+00  1.1527749358290873e+00  1.1620708518172080e+00  1.1582543892280350e+00  1.1321005783394427e+00  1.0851969520262548e+00  1.0351277189638917e+00  1.0026122605256345e+00  9.9309524843023844e-01  9.9596501668761905e-01  9.9948020188538655e-01  1.0004829110941513e+00  1.0002835701906405e+00  9.9995596915054219e-01  1.0000050041256887e+00  9.9998292429959379e-01  9.9996048113566338e-01  1.0000041061724223e+00  9.9996855439330901e-01  1.0000204597666784e+00  1.0000240012770276e+00  9.9998460090931884e-01  1.0000075996995206e+00  1.0000144483732152e+00  1.0000099388596471e+00  9.9996156516471979e-01  1.0000062361695528e+00  9.9992138671370856e-01  1.0000079483816497e+00  9.9997473780366841e-01  1.0000643435640888e+00  9.9996197795218233e-01  1.0000414182069017e+00  1.0000071919377580e+00  9.9998386746802936e-01  1.0000078546874194e+00  9.9866020029289870e-01  1.0004996939781234e+00  1.0002212640902373e+00  9.9980410399414110e-01  1.0001106867554954e+00  9.9944171685308347e-01  1.0006089174280177e+00  9.9980947878688675e-01  1.0001154949032622e+00  1.0004709967958609e+00  1.0001011660766019e+00  1.0002231423448353e+00  9.9984584607816707e-01  9.9995822517727317e-01  9.9988484063376215e-01  1.0000438207027580e+00  9.9976942030958194e-01  9.9957413668268269e-01  1.0003671479333027e+00  1.0002838953012059e+00  1.0006596121282374e+00  1.0009606894198302e+00  9.9971652117490084e-01  9.9873733911754259e-01  9.9631139326802931e-01  9.9356496694418062e-01  9.9423110032570083e-01  1.0003959094324866e+00  1.0165881615881023e+00  1.0426425053913917e+00  1.0737743420375101e+00  1.1041788098027052e+00  1.1258592046608196e+00  1.1341553239616515e+00  1.1290091949579006e+00  1.1122960684830590e+00  1.0892441665502777e+00  1.0647808161569059e+00  1.0430140398375867e+00  1.0267829098673484e+00  1.0167686490073164e+00  1.0128240676503004e+00  1.0141746570702852e+00  1.0190615789886632e+00  1.0262297466667853e+00  1.0343890432353502e+00  1.0426086942614132e+00  1.0504131457211023e+00  1.0571316570642142e+00  1.0625365425936590e+00  1.0666303961956289e+00  1.0690376091478444e+00  1.0697516521565809e+00  1.0688141940524769e+00  1.0659609309124591e+00  1.0611580948148818e+00  1.0545383263333696e+00  1.0459547476241857e+00  1.0354950665236768e+00  1.0236551006505048e+00  1.0109410994263464e+00  9.9821277193578517e-01  9.8676627269064976e-01  9.7841020827209224e-01  9.7569750870906324e-01  9.8098866667125750e-01  9.9724746887929838e-01  1.0274512712500277e+00  1.0712449760470972e+00  1.1219132396865152e+00  1.1623194183160417e+00  1.1666418578529509e+00  1.1233522689878033e+00  1.0569521127488544e+00  1.0082258449483701e+00  9.9304697176233458e-01  9.9583224877907750e-01  9.9966305760692309e-01  1.0005386577966704e+00  1.0001682205714444e+00  1.0000080762624046e+00  9.9993752064974151e-01  1.0000497046869870e+00  1.0000242444350258e+00  9.9998680049588284e-01  1.0000054800153637e+00  9.9996288501193098e-01  1.0000343131753708e+00  9.9997484379398827e-01  9.9997909073530600e-01  1.0000319985586406e+00  9.9996462540705622e-01  1.0000640211642928e+00  1.0000180282868019e+00  1.0000260680910937e+00  9.9997874853009305e-01  9.9997118276955066e-01  1.0000213011190100e+00  9.9994069613415626e-01  1.0000071919382616e+00  1.0000113870928746e+00  9.9972079871027075e-01  9.9993482564403935e-01  9.9980410399414066e-01  9.9928583268635174e-01  1.0007235394366900e+00  9.9956844305239545e-01  1.0005219134643342e+00  9.9979842786448347e-01  9.9956701055046748e-01  1.0006672084294945e+00  9.9919737691635091e-01  1.0005319622043765e+00  9.9988754632240373e-01  9.9977299192548463e-01  1.0005951182262662e+00  9.9933982948406330e-01  1.0003650316354484e+00  1.0002999839356197e+00  1.0000688028022677e+00  1.0005713136594632e+00  9.9994599391433925e-01  9.9930125274417658e-01  9.9740826242072045e-01  9.9453784393893963e-01  9.9386507181858241e-01  9.9986911285602553e-01  1.0174586870134372e+00  1.0469906689163186e+00  1.0827319931668429e+00  1.1151154571364348e+00  1.1342622251475221e+00  1.1358743648923140e+00  1.1208446550919444e+00  1.0946507281482398e+00  1.0647952844425099e+00  1.0367336563778351e+00  1.0140760749422932e+00  9.9798902446833226e-01  9.8752123416336191e-01  9.8148647836097946e-01  9.7850860373724324e-01  9.7753235062747423e-01  9.7810254203225744e-01  9.7967803089139427e-01  9.8201380866047627e-01  9.8490432893246149e-01  9.8817850575934563e-01  9.9135584538134724e-01  9.9400985134146669e-01  9.9611318201965005e-01  9.9754964377563782e-01  9.9804218601494321e-01  9.9765556223037677e-01  9.9650048350066778e-01  9.9467862559162823e-01  9.9240321341986881e-01  9.8980109659244697e-01  9.8735335728874130e-01  9.8544655048623320e-01  9.8424261870473029e-01  9.8414028353981453e-01  9.8522411109527241e-01  9.8718427471883374e-01  9.8966504125488008e-01  9.9169349780774030e-01  9.9231704520928987e-01  9.9139028288260833e-01  9.8958494954482967e-01  9.8984995308818557e-01  9.9920867194752860e-01  1.0271555725127284e+00  1.0793103051138095e+00  1.1422308628000439e+00  1.1738414208601424e+00  1.1393724268554872e+00  1.0636368561181200e+00  1.0074810240585321e+00  9.9291818129325027e-01  9.9688631477224654e-01  1.0001574593738773e+00  1.0004157753447933e+00  1.0000900172010503e+00  9.9997093692341177e-01  9.9989569677243206e-01  1.0000594709439756e+00  9.9995445662046956e-01  1.0000350882331903e+00  1.0000188828923018e+00  9.9996512300170171e-01  1.0000432917987176e+00  9.9998913242279408e-01  1.0000033069903396e+00  9.9998251694561957e-01  1.0000007725022899e+00  9.9992808605476902e-01  1.0000464374228617e+00  1.0000205466373184e+00  1.0000213121896264e+00  1.0000213011192307e+00  1.0000414182065678e+00  9.9996304788615764e-01  1.0010839874400119e+00  1.0001154875941305e+00  1.0001106867554954e+00  1.0007235394366902e+00  1.0001415474345685e+00  9.9998445933324420e-01  9.9984988000245534e-01  1.0000635268504547e+00  9.9990833665811707e-01  1.0002366171443609e+00  9.9925136071566056e-01  1.0007023428618063e+00  9.9957582673405798e-01  9.9976333841550935e-01  1.0001381802492211e+00  9.9930499147924201e-01  1.0008089611019828e+00  9.9994826257222824e-01  1.0002389213440466e+00  1.0005235812966917e+00  9.9809839288718327e-01  9.9605562971198092e-01  9.9341946265235159e-01  9.9722300661044461e-01  1.0144531221212789e+00  1.0446767893426774e+00  1.0841952212499408e+00  1.1189495222525307e+00  1.1363660034743344e+00  1.1323350416209725e+00  1.1088206598352128e+00  1.0760287343161590e+00  1.0435858843665708e+00  1.0168886549389562e+00  9.9973821302024546e-01  9.9056336940652157e-01  9.8685765197482400e-01  9.8657430338344909e-01  9.8715004844551268e-01  9.8801907176061665e-01  9.8883784594274837e-01  9.8898709383120420e-01  9.8908904584018797e-01  9.8897549894474057e-01  9.8863584430729179e-01  9.8833222633987272e-01  9.8804573686941055e-01  9.8788970410130506e-01  9.8802171975962583e-01  9.8839410713936748e-01  9.8903088575107012e-01  9.8976628942698008e-01  9.9045110224996058e-01  9.9111331056359764e-01  9.9169292962438760e-01  9.9186538649810574e-01  9.9174265157265085e-01  9.9139001815211725e-01  9.9058429638777801e-01  9.8930172533825400e-01  9.8772743246570727e-01  9.8605863261524362e-01  9.8441626856798181e-01  9.8308523274685422e-01  9.8258767645610046e-01  9.8313448953932869e-01  9.8430320052337861e-01  9.8537455497399173e-01  9.8572526752949752e-01  9.8427702226584080e-01  9.8139323593376260e-01  9.8224170282672141e-01  1.0000644041633349e+00  1.0517090290490188e+00  1.1293341770012391e+00  1.1752859334449359e+00  1.1366478961542321e+00  1.0523186038967565e+00  1.0004211472656310e+00  9.9339608540939028e-01  9.9866983241002982e-01  1.0004890329339948e+00  1.0002344097536160e+00  1.0000175953684625e+00  9.9998490420354613e-01  1.0000027107765064e+00  1.0000060550826615e+00  9.9997524373800373e-01  9.9998368477170951e-01  1.0000358827536677e+00  9.9995506291461456e-01  1.0000252340513267e+00  1.0000067487604118e+00  9.9998719800980806e-01  1.0000179344972502e+00  1.0000400294007754e+00  9.9989918861487415e-01  1.0000205466372973e+00  9.9997118276983255e-01  9.9996197795162667e-01  9.9999457371080602e-01  9.9940746306393646e-01  9.9955736418142649e-01  9.9944171685308436e-01  9.9956844305239367e-01  9.9998445933324753e-01  9.9938548963063478e-01  1.0002021538359258e+00  1.0004531574065088e+00  9.9960258505143340e-01  1.0002184445035880e+00  9.9983589364118930e-01  1.0005980483577355e+00  9.9981906459511882e-01  1.0000223467307483e+00  1.0006623621095345e+00  9.9978901857370805e-01  1.0008381324943596e+00  1.0001071400014210e+00  9.9958359150545606e-01  9.9771054380612967e-01  9.9344944733887441e-01  9.9478366939016993e-01  1.0066714914718473e+00  1.0359102894409180e+00  1.0777830451086547e+00  1.1162404464200510e+00  1.1373012051077034e+00  1.1314028427050822e+00  1.1034258559805425e+00  1.0667046205298474e+00  1.0313857617171072e+00  1.0062158171820146e+00  9.9215998094382740e-01  9.8597787345524157e-01  9.8538326130264597e-01  9.8621002142529013e-01  9.8710236885091374e-01  9.8809888932602163e-01  9.8832758482529814e-01  9.8899209950179168e-01  9.8998736046295521e-01  9.9068104287461367e-01  9.9193022707586542e-01  9.9348110684968105e-01  9.9543444444786999e-01  9.9786177413523147e-01  1.0004636315643882e+00  1.0034396359761943e+00  1.0066974011665284e+00  1.0097079454804783e+00  1.0125511639630898e+00  1.0152883183340142e+00  1.0178408761891864e+00  1.0200984021199018e+00  1.0220315307710670e+00  1.0237577226492829e+00  1.0251876835574607e+00  1.0260772438666588e+00  1.0262488359540325e+00  1.0257295893843670e+00  1.0242265469429772e+00  1.0213239975920723e+00  1.0169670848625902e+00  1.0114477040907774e+00  1.0050948465485821e+00  9.9850394116391206e-01  9.9304960717132329e-01  9.8996825944282429e-01  9.8901362028298834e-01  9.8914236663278454e-01  9.8929680150995458e-01  9.8778290537952773e-01  9.8326943526402188e-01  9.7895683299270153e-01  9.9153458846836562e-01  1.0469968822799314e+00  1.1349563522450488e+00  1.1739107373071573e+00  1.1129257475634353e+00  1.0273883022958386e+00  9.9362486453990162e-01  9.9599998847480453e-01  1.0001007238448771e+00  1.0004140480937067e+00  1.0000594110792529e+00  9.9991410065532160e-01  9.9998770723134511e-01  1.0000277320409234e+00  1.0000152183126589e+00  9.9998271778907344e-01  1.0000207131672405e+00  9.9999400348346612e-01  9.9998906889512462e-01  1.0000098966364814e+00  1.0000251531696762e+00  9.9993576316344446e-01  1.0000400294007852e+00  1.0000464374228637e+00  9.9997874852988022e-01  1.0000643435643206e+00  9.9998964363971687e-01  1.0016417911478925e+00  9.9996220535223856e-01  1.0006089174280210e+00  1.0005219134643373e+00  9.9984988000245845e-01  1.0002021538359249e+00  1.0000624096202126e+00  9.9986166712822733e-01  9.9953323472534816e-01  1.0006198338954349e+00  9.9969246609468854e-01  9.9954681712853399e-01  9.9985006092695605e-01  9.9966159477673655e-01  1.0004473988658484e+00  9.9992674756603694e-01  1.0005683698757584e+00  9.9891131867357086e-01  9.9545254506116909e-01  9.9356234891452044e-01  9.9846211854045464e-01  1.0222548965187344e+00  1.0624173319427954e+00  1.1067250897358762e+00  1.1361502758193851e+00  1.1342238156573663e+00  1.1059730867064217e+00  1.0652290583867681e+00  1.0268895079187563e+00  1.0014688708854829e+00  9.8838730739436709e-01  9.8439209312418019e-01  9.8538758107363189e-01  9.8665008962672307e-01  9.8775799781543872e-01  9.8828711434728589e-01  9.8863214887940210e-01  9.8990701004919757e-01  9.9136282752982141e-01  9.9340419896587195e-01  9.9610411523617581e-01  9.9911606109120366e-01  1.0030561041793982e+00  1.0071864311158742e+00  1.0112559974798128e+00  1.0153465738357170e+00  1.0189483222212230e+00  1.0220778950662228e+00  1.0247152909831512e+00  1.0266944172756520e+00  1.0285700626833263e+00  1.0302601603649988e+00  1.0316297818193196e+00  1.0330256470697261e+00  1.0345420121432756e+00  1.0360838957746819e+00  1.0377064203129569e+00  1.0394219240904687e+00  1.0413825077737440e+00  1.0433547118473863e+00  1.0450898445174499e+00  1.0464778726098056e+00  1.0471366983415951e+00  1.0462325624584863e+00  1.0427763285434066e+00  1.0362738601931358e+00  1.0263961539341047e+00  1.0139160966703462e+00  1.0015911583500974e+00  9.9287167504390827e-01  9.8922254540839916e-01  9.8906335556886593e-01  9.8995218240080818e-01  9.8959317988375761e-01  9.8532332428138258e-01  9.7998048784089609e-01  9.9663975291015006e-01  1.0673375253343516e+00  1.1566055142950036e+00  1.1577177776633902e+00  1.0687610597207866e+00  1.0025814348913689e+00  9.9340099301912199e-01  9.9910249567145715e-01  1.0005564959094499e+00  1.0001147645018160e+00  1.0000240776752576e+00  9.9996720466344990e-01  9.9996905575911710e-01  1.0000144353513074e+00  9.9997274717508744e-01  9.9999076276548271e-01  1.0000221597864627e+00  1.0000013642204186e+00  9.9998498060628727e-01  1.0000251531699509e+00  1.0000179344970794e+00  9.9992808605460470e-01  1.0000260680916797e+00  9.9997473780320845e-01  9.9998930696790500e-01  9.9902504201737363e-01  9.9957635783655707e-01  9.9980947878688364e-01  9.9979842786448314e-01  1.0000635268504530e+00  1.0004531574065076e+00  9.9986166712822644e-01  9.9982239707571863e-01  1.0004456347394470e+00  1.0001820599546916e+00  9.9946157270052016e-01  1.0003592667158918e+00  1.0007927027790944e+00  9.9987708078038962e-01  1.0011613530413590e+00  9.9978014157935080e-01  9.9835775555228334e-01  9.9467320412305804e-01  9.9317251395622941e-01  1.0070306512236311e+00  1.0398993072237732e+00  1.0886161748535499e+00  1.1285888689422963e+00  1.1384233555674963e+00  1.1157172361281995e+00  1.0716617290915738e+00  1.0295747538469879e+00  1.0011020965937432e+00  9.8653330522050875e-01  9.8459693239767898e-01  9.8591705167495280e-01  9.8719490809498789e-01  9.8879071128581808e-01  9.8828902777103211e-01  9.8891025842170954e-01  9.9076751462556534e-01  9.9253998221670114e-01  9.9602885234827532e-01  9.9960242063637783e-01  1.0034859111115733e+00  1.0083873616317829e+00  1.0127424260375393e+00  1.0167800019969473e+00  1.0200533245243499e+00  1.0221979866193902e+00  1.0236592089212448e+00  1.0242096760233610e+00  1.0240655583054454e+00  1.0237167211432945e+00  1.0230530017850208e+00  1.0222840436400578e+00  1.0214342986827261e+00  1.0207189558975511e+00  1.0202891758967367e+00  1.0200584473615182e+00  1.0202476583786158e+00  1.0210162422297442e+00  1.0223336319864342e+00  1.0243216894822997e+00  1.0271008585115744e+00  1.0307254443511116e+00  1.0354008589765404e+00  1.0410487733148834e+00  1.0475906730420761e+00  1.0549004514367879e+00  1.0619289829093626e+00  1.0668857155018994e+00  1.0669571907377930e+00  1.0589152624519704e+00  1.0419203032775883e+00  1.0200665744880384e+00  1.0014654704276009e+00  9.9190567717769329e-01  9.8991853334002800e-01  9.9085461286642584e-01  9.9068995584090014e-01  9.8613842411400643e-01  9.8350162682988207e-01  1.0186549422197622e+00  1.1115996818634724e+00  1.1711371463763178e+00  1.1104273768917172e+00  1.0202781730586876e+00  9.9266713779433657e-01  9.9766221775402542e-01  1.0004792863888050e+00  1.0002409088558930e+00  9.9994647967926620e-01  9.9997240973796242e-01  1.0000470518618927e+00  9.9999333206378693e-01  1.0000338287474562e+00  9.9996000835669885e-01  1.0000039704473791e+00  1.0000013642207999e+00  1.0000098966363098e+00  9.9998719800958191e-01  1.0000007725028013e+00  1.0000180282865774e+00  1.0000079483812809e+00  9.9996217178219304e-01  1.0007674892745206e+00  9.9999678857623808e-01  1.0001154949032622e+00  9.9956701055046882e-01  9.9990833665811896e-01  9.9960258505143385e-01  9.9953323472535172e-01  1.0004456347394493e+00  1.0000413815297686e+00  9.9936177364353640e-01  1.0002948413680539e+00  1.0001485026601451e+00  9.9992113133945804e-01  9.9995419875011426e-01  1.0001527017476117e+00  9.9681939461091318e-01  9.9377259720957023e-01  9.9619878005766538e-01  1.0158988881401143e+00  1.0602885587753392e+00  1.1092778132611036e+00  1.1387352584069050e+00  1