<?xml version="1.0"?>
<VTKFile type="UnstructuredGrid"  version="0.1"  >
<UnstructuredGrid>
<Piece  NumberOfPoints="10201" NumberOfCells="20000">
<Points>
<DataArray  type="Float64"  NumberOfComponents="3"  format="ascii">-5 -5 0  -4.9 -5 0  -4.8 -5 0  -4.7 -5 0  -4.6 -5 0  -4.5 -5 0  -4.4 -5 0  -4.3 -5 0  -4.2 -5 0  -4.1 -5 0  -4 -5 0  -3.9 -5 0  -3.8 -5 0  -3.7 -5 0  -3.6 -5 0  -3.5 -5 0  -3.4 -5 0  -3.3 -5 0  -3.2 -5 0  -3.1 -5 0  -3 -5 0  -2.9 -5 0  -2.8 -5 0  -2.7 -5 0  -2.6 -5 0  -2.5 -5 0  -2.4 -5 0  -2.3 -5 0  -2.2 -5 0  -2.1 -5 0  -2 -5 0  -1.9 -5 0  -1.8 -5 0  -1.7 -5 0  -1.6 -5 0  -1.5 -5 0  -1.4 -5 0  -1.3 -5 0  -1.2 -5 0  -1.1 -5 0  -1 -5 0  -0.9000000000000004 -5 0  -0.7999999999999998 -5 0  -0.7000000000000002 -5 0  -0.5999999999999996 -5 0  -0.5 -5 0  -0.4000000000000004 -5 0  -0.2999999999999998 -5 0  -0.2000000000000002 -5 0  -0.09999999999999964 -5 0  0 -5 0  0.09999999999999964 -5 0  0.2000000000000002 -5 0  0.2999999999999998 -5 0  0.4000000000000004 -5 0  0.5 -5 0  0.5999999999999996 -5 0  0.7000000000000002 -5 0  0.7999999999999998 -5 0  0.9000000000000004 -5 0  1 -5 0  1.1 -5 0  1.2 -5 0  1.3 -5 0  1.4 -5 0  1.5 -5 0  1.6 -5 0  1.7 -5 0  1.8 -5 0  1.9 -5 0  2 -5 0  2.1 -5 0  2.2 -5 0  2.3 -5 0  2.4 -5 0  2.5 -5 0  2.6 -5 0  2.7 -5 0  2.8 -5 0  2.9 -5 0  3 -5 0  3.1 -5 0  3.199999999999999 -5 0  3.300000000000001 -5 0  3.4 -5 0  3.5 -5 0  3.6 -5 0  3.699999999999999 -5 0  3.800000000000001 -5 0  3.9 -5 0  4 -5 0  4.1 -5 0  4.199999999999999 -5 0  4.300000000000001 -5 0  4.4 -5 0  4.5 -5 0  4.6 -5 0  4.699999999999999 -5 0  4.800000000000001 -5 0  4.9 -5 0  5 -5 0  -5 -4.9 0  -4.9 -4.9 0  -4.8 -4.9 0  -4.7 -4.9 0  -4.6 -4.9 0  -4.5 -4.9 0  -4.4 -4.9 0  -4.3 -4.9 0  -4.2 -4.9 0  -4.1 -4.9 0  -4 -4.9 0  -3.9 -4.9 0  -3.8 -4.9 0  -3.7 -4.9 0  -3.6 -4.9 0  -3.5 -4.9 0  -3.4 -4.9 0  -3.3 -4.9 0  -3.2 -4.9 0  -3.1 -4.9 0  -3 -4.9 0  -2.9 -4.9 0  -2.8 -4.9 0  -2.7 -4.9 0  -2.6 -4.9 0  -2.5 -4.9 0  -2.4 -4.9 0  -2.3 -4.9 0  -2.2 -4.9 0  -2.1 -4.9 0  -2 -4.9 0  -1.9 -4.9 0  -1.8 -4.9 0  -1.7 -4.9 0  -1.6 -4.9 0  -1.5 -4.9 0  -1.4 -4.9 0  -1.3 -4.9 0  -1.2 -4.9 0  -1.1 -4.9 0  -1 -4.9 0  -0.9000000000000004 -4.9 0  -0.7999999999999998 -4.9 0  -0.7000000000000002 -4.9 0  -0.5999999999999996 -4.9 0  -0.5 -4.9 0  -0.4000000000000004 -4.9 0  -0.2999999999999998 -4.9 0  -0.2000000000000002 -4.9 0  -0.09999999999999964 -4.9 0  0 -4.9 0  0.09999999999999964 -4.9 0  0.2000000000000002 -4.9 0  0.2999999999999998 -4.9 0  0.4000000000000004 -4.9 0  0.5 -4.9 0  0.5999999999999996 -4.9 0  0.7000000000000002 -4.9 0  0.7999999999999998 -4.9 0  0.9000000000000004 -4.9 0  1 -4.9 0  1.1 -4.9 0  1.2 -4.9 0  1.3 -4.9 0  1.4 -4.9 0  1.5 -4.9 0  1.6 -4.9 0  1.7 -4.9 0  1.8 -4.9 0  1.9 -4.9 0  2 -4.9 0  2.1 -4.9 0  2.2 -4.9 0  2.3 -4.9 0  2.4 -4.9 0  2.5 -4.9 0  2.6 -4.9 0  2.7 -4.9 0  2.8 -4.9 0  2.9 -4.9 0  3 -4.9 0  3.1 -4.9 0  3.199999999999999 -4.9 0  3.300000000000001 -4.9 0  3.4 -4.9 0  3.5 -4.9 0  3.6 -4.9 0  3.699999999999999 -4.9 0  3.800000000000001 -4.9 0  3.9 -4.9 0  4 -4.9 0  4.1 -4.9 0  4.199999999999999 -4.9 0  4.300000000000001 -4.9 0  4.4 -4.9 0  4.5 -4.9 0  4.6 -4.9 0  4.699999999999999 -4.9 0  4.800000000000001 -4.9 0  4.9 -4.9 0  5 -4.9 0  -5 -4.8 0  -4.9 -4.8 0  -4.8 -4.8 0  -4.7 -4.8 0  -4.6 -4.8 0  -4.5 -4.8 0  -4.4 -4.8 0  -4.3 -4.8 0  -4.2 -4.8 0  -4.1 -4.8 0  -4 -4.8 0  -3.9 -4.8 0  -3.8 -4.8 0  -3.7 -4.8 0  -3.6 -4.8 0  -3.5 -4.8 0  -3.4 -4.8 0  -3.3 -4.8 0  -3.2 -4.8 0  -3.1 -4.8 0  -3 -4.8 0  -2.9 -4.8 0  -2.8 -4.8 0  -2.7 -4.8 0  -2.6 -4.8 0  -2.5 -4.8 0  -2.4 -4.8 0  -2.3 -4.8 0  -2.2 -4.8 0  -2.1 -4.8 0  -2 -4.8 0  -1.9 -4.8 0  -1.8 -4.8 0  -1.7 -4.8 0  -1.6 -4.8 0  -1.5 -4.8 0  -1.4 -4.8 0  -1.3 -4.8 0  -1.2 -4.8 0  -1.1 -4.8 0  -1 -4.8 0  -0.9000000000000004 -4.8 0  -0.7999999999999998 -4.8 0  -0.7000000000000002 -4.8 0  -0.5999999999999996 -4.8 0  -0.5 -4.8 0  -0.4000000000000004 -4.8 0  -0.2999999999999998 -4.8 0  -0.2000000000000002 -4.8 0  -0.09999999999999964 -4.8 0  0 -4.8 0  0.09999999999999964 -4.8 0  0.2000000000000002 -4.8 0  0.2999999999999998 -4.8 0  0.4000000000000004 -4.8 0  0.5 -4.8 0  0.5999999999999996 -4.8 0  0.7000000000000002 -4.8 0  0.7999999999999998 -4.8 0  0.9000000000000004 -4.8 0  1 -4.8 0  1.1 -4.8 0  1.2 -4.8 0  1.3 -4.8 0  1.4 -4.8 0  1.5 -4.8 0  1.6 -4.8 0  1.7 -4.8 0  1.8 -4.8 0  1.9 -4.8 0  2 -4.8 0  2.1 -4.8 0  2.2 -4.8 0  2.3 -4.8 0  2.4 -4.8 0  2.5 -4.8 0  2.6 -4.8 0  2.7 -4.8 0  2.8 -4.8 0  2.9 -4.8 0  3 -4.8 0  3.1 -4.8 0  3.199999999999999 -4.8 0  3.300000000000001 -4.8 0  3.4 -4.8 0  3.5 -4.8 0  3.6 -4.8 0  3.699999999999999 -4.8 0  3.800000000000001 -4.8 0  3.9 -4.8 0  4 -4.8 0  4.1 -4.8 0  4.199999999999999 -4.8 0  4.300000000000001 -4.8 0  4.4 -4.8 0  4.5 -4.8 0  4.6 -4.8 0  4.699999999999999 -4.8 0  4.800000000000001 -4.8 0  4.9 -4.8 0  5 -4.8 0  -5 -4.7 0  -4.9 -4.7 0  -4.8 -4.7 0  -4.7 -4.7 0  -4.6 -4.7 0  -4.5 -4.7 0  -4.4 -4.7 0  -4.3 -4.7 0  -4.2 -4.7 0  -4.1 -4.7 0  -4 -4.7 0  -3.9 -4.7 0  -3.8 -4.7 0  -3.7 -4.7 0  -3.6 -4.7 0  -3.5 -4.7 0  -3.4 -4.7 0  -3.3 -4.7 0  -3.2 -4.7 0  -3.1 -4.7 0  -3 -4.7 0  -2.9 -4.7 0  -2.8 -4.7 0  -2.7 -4.7 0  -2.6 -4.7 0  -2.5 -4.7 0  -2.4 -4.7 0  -2.3 -4.7 0  -2.2 -4.7 0  -2.1 -4.7 0  -2 -4.7 0  -1.9 -4.7 0  -1.8 -4.7 0  -1.7 -4.7 0  -1.6 -4.7 0  -1.5 -4.7 0  -1.4 -4.7 0  -1.3 -4.7 0  -1.2 -4.7 0  -1.1 -4.7 0  -1 -4.7 0  -0.9000000000000004 -4.7 0  -0.7999999999999998 -4.7 0  -0.7000000000000002 -4.7 0  -0.5999999999999996 -4.7 0  -0.5 -4.7 0  -0.4000000000000004 -4.7 0  -0.2999999999999998 -4.7 0  -0.2000000000000002 -4.7 0  -0.09999999999999964 -4.7 0  0 -4.7 0  0.09999999999999964 -4.7 0  0.2000000000000002 -4.7 0  0.2999999999999998 -4.7 0  0.4000000000000004 -4.7 0  0.5 -4.7 0  0.5999999999999996 -4.7 0  0.7000000000000002 -4.7 0  0.7999999999999998 -4.7 0  0.9000000000000004 -4.7 0  1 -4.7 0  1.1 -4.7 0  1.2 -4.7 0  1.3 -4.7 0  1.4 -4.7 0  1.5 -4.7 0  1.6 -4.7 0  1.7 -4.7 0  1.8 -4.7 0  1.9 -4.7 0  2 -4.7 0  2.1 -4.7 0  2.2 -4.7 0  2.3 -4.7 0  2.4 -4.7 0  2.5 -4.7 0  2.6 -4.7 0  2.7 -4.7 0  2.8 -4.7 0  2.9 -4.7 0  3 -4.7 0  3.1 -4.7 0  3.199999999999999 -4.7 0  3.300000000000001 -4.7 0  3.4 -4.7 0  3.5 -4.7 0  3.6 -4.7 0  3.699999999999999 -4.7 0  3.800000000000001 -4.7 0  3.9 -4.7 0  4 -4.7 0  4.1 -4.7 0  4.199999999999999 -4.7 0  4.300000000000001 -4.7 0  4.4 -4.7 0  4.5 -4.7 0  4.6 -4.7 0  4.699999999999999 -4.7 0  4.800000000000001 -4.7 0  4.9 -4.7 0  5 -4.7 0  -5 -4.6 0  -4.9 -4.6 0  -4.8 -4.6 0  -4.7 -4.6 0  -4.6 -4.6 0  -4.5 -4.6 0  -4.4 -4.6 0  -4.3 -4.6 0  -4.2 -4.6 0  -4.1 -4.6 0  -4 -4.6 0  -3.9 -4.6 0  -3.8 -4.6 0  -3.7 -4.6 0  -3.6 -4.6 0  -3.5 -4.6 0  -3.4 -4.6 0  -3.3 -4.6 0  -3.2 -4.6 0  -3.1 -4.6 0  -3 -4.6 0  -2.9 -4.6 0  -2.8 -4.6 0  -2.7 -4.6 0  -2.6 -4.6 0  -2.5 -4.6 0  -2.4 -4.6 0  -2.3 -4.6 0  -2.2 -4.6 0  -2.1 -4.6 0  -2 -4.6 0  -1.9 -4.6 0  -1.8 -4.6 0  -1.7 -4.6 0  -1.6 -4.6 0  -1.5 -4.6 0  -1.4 -4.6 0  -1.3 -4.6 0  -1.2 -4.6 0  -1.1 -4.6 0  -1 -4.6 0  -0.9000000000000004 -4.6 0  -0.7999999999999998 -4.6 0  -0.7000000000000002 -4.6 0  -0.5999999999999996 -4.6 0  -0.5 -4.6 0  -0.4000000000000004 -4.6 0  -0.2999999999999998 -4.6 0  -0.2000000000000002 -4.6 0  -0.09999999999999964 -4.6 0  0 -4.6 0  0.09999999999999964 -4.6 0  0.2000000000000002 -4.6 0  0.2999999999999998 -4.6 0  0.4000000000000004 -4.6 0  0.5 -4.6 0  0.5999999999999996 -4.6 0  0.7000000000000002 -4.6 0  0.7999999999999998 -4.6 0  0.9000000000000004 -4.6 0  1 -4.6 0  1.1 -4.6 0  1.2 -4.6 0  1.3 -4.6 0  1.4 -4.6 0  1.5 -4.6 0  1.6 -4.6 0  1.7 -4.6 0  1.8 -4.6 0  1.9 -4.6 0  2 -4.6 0  2.1 -4.6 0  2.2 -4.6 0  2.3 -4.6 0  2.4 -4.6 0  2.5 -4.6 0  2.6 -4.6 0  2.7 -4.6 0  2.8 -4.6 0  2.9 -4.6 0  3 -4.6 0  3.1 -4.6 0  3.199999999999999 -4.6 0  3.300000000000001 -4.6 0  3.4 -4.6 0  3.5 -4.6 0  3.6 -4.6 0  3.699999999999999 -4.6 0  3.800000000000001 -4.6 0  3.9 -4.6 0  4 -4.6 0  4.1 -4.6 0  4.199999999999999 -4.6 0  4.300000000000001 -4.6 0  4.4 -4.6 0  4.5 -4.6 0  4.6 -4.6 0  4.699999999999999 -4.6 0  4.800000000000001 -4.6 0  4.9 -4.6 0  5 -4.6 0  -5 -4.5 0  -4.9 -4.5 0  -4.8 -4.5 0  -4.7 -4.5 0  -4.6 -4.5 0  -4.5 -4.5 0  -4.4 -4.5 0  -4.3 -4.5 0  -4.2 -4.5 0  -4.1 -4.5 0  -4 -4.5 0  -3.9 -4.5 0  -3.8 -4.5 0  -3.7 -4.5 0  -3.6 -4.5 0  -3.5 -4.5 0  -3.4 -4.5 0  -3.3 -4.5 0  -3.2 -4.5 0  -3.1 -4.5 0  -3 -4.5 0  -2.9 -4.5 0  -2.8 -4.5 0  -2.7 -4.5 0  -2.6 -4.5 0  -2.5 -4.5 0  -2.4 -4.5 0  -2.3 -4.5 0  -2.2 -4.5 0  -2.1 -4.5 0  -2 -4.5 0  -1.9 -4.5 0  -1.8 -4.5 0  -1.7 -4.5 0  -1.6 -4.5 0  -1.5 -4.5 0  -1.4 -4.5 0  -1.3 -4.5 0  -1.2 -4.5 0  -1.1 -4.5 0  -1 -4.5 0  -0.9000000000000004 -4.5 0  -0.7999999999999998 -4.5 0  -0.7000000000000002 -4.5 0  -0.5999999999999996 -4.5 0  -0.5 -4.5 0  -0.4000000000000004 -4.5 0  -0.2999999999999998 -4.5 0  -0.2000000000000002 -4.5 0  -0.09999999999999964 -4.5 0  0 -4.5 0  0.09999999999999964 -4.5 0  0.2000000000000002 -4.5 0  0.2999999999999998 -4.5 0  0.4000000000000004 -4.5 0  0.5 -4.5 0  0.5999999999999996 -4.5 0  0.7000000000000002 -4.5 0  0.7999999999999998 -4.5 0  0.9000000000000004 -4.5 0  1 -4.5 0  1.1 -4.5 0  1.2 -4.5 0  1.3 -4.5 0  1.4 -4.5 0  1.5 -4.5 0  1.6 -4.5 0  1.7 -4.5 0  1.8 -4.5 0  1.9 -4.5 0  2 -4.5 0  2.1 -4.5 0  2.2 -4.5 0  2.3 -4.5 0  2.4 -4.5 0  2.5 -4.5 0  2.6 -4.5 0  2.7 -4.5 0  2.8 -4.5 0  2.9 -4.5 0  3 -4.5 0  3.1 -4.5 0  3.199999999999999 -4.5 0  3.300000000000001 -4.5 0  3.4 -4.5 0  3.5 -4.5 0  3.6 -4.5 0  3.699999999999999 -4.5 0  3.800000000000001 -4.5 0  3.9 -4.5 0  4 -4.5 0  4.1 -4.5 0  4.199999999999999 -4.5 0  4.300000000000001 -4.5 0  4.4 -4.5 0  4.5 -4.5 0  4.6 -4.5 0  4.699999999999999 -4.5 0  4.800000000000001 -4.5 0  4.9 -4.5 0  5 -4.5 0  -5 -4.4 0  -4.9 -4.4 0  -4.8 -4.4 0  -4.7 -4.4 0  -4.6 -4.4 0  -4.5 -4.4 0  -4.4 -4.4 0  -4.3 -4.4 0  -4.2 -4.4 0  -4.1 -4.4 0  -4 -4.4 0  -3.9 -4.4 0  -3.8 -4.4 0  -3.7 -4.4 0  -3.6 -4.4 0  -3.5 -4.4 0  -3.4 -4.4 0  -3.3 -4.4 0  -3.2 -4.4 0  -3.1 -4.4 0  -3 -4.4 0  -2.9 -4.4 0  -2.8 -4.4 0  -2.7 -4.4 0  -2.6 -4.4 0  -2.5 -4.4 0  -2.4 -4.4 0  -2.3 -4.4 0  -2.2 -4.4 0  -2.1 -4.4 0  -2 -4.4 0  -1.9 -4.4 0  -1.8 -4.
[...]
<PointData  Scalars="r"> 
<DataArray  type="Float64"  Name="r"  format="ascii">9.9860586454928402e-01  1.0000205991728288e+00  1.0002789041491038e+00  1.0001621999590999e+00  1.0008301650509335e+00  9.9903246699875026e-01  1.0011040661004293e+00  9.9924470727980641e-01  1.0002276251537661e+00  1.0002494209862860e+00  9.9922218121585860e-01  1.0006094630073517e+00  9.9946985739996963e-01  1.0003026607907095e+00  9.9989363517282936e-01  1.0007588701051586e+00  1.0018130620814969e+00  9.9963465853875144e-01  9.9816271847423066e-01  9.9231113761515299e-01  9.8744485469245724e-01  9.9123643344669887e-01  1.0116938235887760e+00  1.0619030174085220e+00  1.1335199857396570e+00  1.2049607981547752e+00  1.2507474051731873e+00  1.2524638435330315e+00  1.2208810456247108e+00  1.1765184723128597e+00  1.1335651666811861e+00  1.0997380888559043e+00  1.0708464976434673e+00  1.0444694622080701e+00  1.0215617311866954e+00  1.0010473388936354e+00  9.8545354407796737e-01  9.7430023453064962e-01  9.6657389566880436e-01  9.6256927467546172e-01  9.6087097874660365e-01  9.6109060380376665e-01  9.6299310040821418e-01  9.6548070947385445e-01  9.6871205042489483e-01  9.7206940253799423e-01  9.7513558821700619e-01  9.7790152590659851e-01  9.8033366627278551e-01  9.8251924989251938e-01  9.8441748005393526e-01  9.8601662119263522e-01  9.8751893007991476e-01  9.8899961710623541e-01  9.9050885201444405e-01  9.9201819558963422e-01  9.9379921272693905e-01  9.9608639622158124e-01  9.9862406595670516e-01  1.0013546646419953e+00  1.0044830736291770e+00  1.0073278809931385e+00  1.0089079722949033e+00  1.0082487505101356e+00  1.0041062657356725e+00  9.9450834774750385e-01  9.7796312350658732e-01  9.5479550987122797e-01  9.2733753992865608e-01  9.0154109821126316e-01  8.8772053555746977e-01  8.9980381512314644e-01  9.5015409451882304e-01  1.0445602427376581e+00  1.1733361897502688e+00  1.3003716758372657e+00  1.3627510325959216e+00  1.3062276601055638e+00  1.1596647121977159e+00  1.0321223063585383e+00  9.8775274029177529e-01  9.9272562470778880e-01  9.9983342954719556e-01  1.0008686394887945e+00  1.0002435218361210e+00  9.9988489203756115e-01  9.9999899720476237e-01  9.9996178101564392e-01  9.9999264410593058e-01  9.9999109415854426e-01  1.0000340221064949e+00  9.9991623960446874e-01  1.0000456532438862e+00  9.9999456621531990e-01  1.0000690530571905e+00  1.0000858417603589e+00  1.0000684280818632e+00  9.9996618968255657e-01  9.9999357579416459e-01  9.9998202795183455e-01  1.0000333653422846e+00  1.0000205991728277e+00  9.9992716949559157e-01  1.0010803697723165e+00  9.9856891230760658e-01  1.0003992189518014e+00  9.9924506530631108e-01  1.0008727783332640e+00  9.9958289966846015e-01  9.9948731512181188e-01  1.0008134609383468e+00  9.9943513762606406e-01  1.0006335875667829e+00  9.9977872807515811e-01  9.9970063091098782e-01  1.0010959562467741e+00  9.9985080829402573e-01  9.9965026079530417e-01  9.9885967334093217e-01  9.9578956587937484e-01  9.9467083246191113e-01  9.9858894219725292e-01  1.0142236172962817e+00  1.0447417715476488e+00  1.0831513227100307e+00  1.1214516164400052e+00  1.1530078542081579e+00  1.1755827172126754e+00  1.1891469027054933e+00  1.1892098165035594e+00  1.1715259036185159e+00  1.1384329535619226e+00  1.0988526340502043e+00  1.0630481760568491e+00  1.0365068309966290e+00  1.0188644235189175e+00  1.0077244916766794e+00  1.0000045094665495e+00  9.9431573955069863e-01  9.9038858461382373e-01  9.8758645400892464e-01  9.8589985947523584e-01  9.8515991106132561e-01  9.8514116190179590e-01  9.8583244764151934e-01  9.8676635194094053e-01  9.8800341054103202e-01  9.8980324561952637e-01  9.9205358445339453e-01  9.9457513689794752e-01  9.9709534735732863e-01  9.9970723248041593e-01  1.0023005327965624e+00  1.0044751457018577e+00  1.0061570999274838e+00  1.0073603402086193e+00  1.0079101350384465e+00  1.0075028082201869e+00  1.0058745843134429e+00  1.0030070356460328e+00  9.9891663122156582e-01  9.9328567722894967e-01  9.8619570223641728e-01  9.7856858658802437e-01  9.7110974321689902e-01  9.6481595007462728e-01  9.6161224249830735e-01  9.6373719626005627e-01  9.7275947123356277e-01  9.8923382239693780e-01  1.0124851756208753e+00  1.0395796010889540e+00  1.0651395536475834e+00  1.0831938911076164e+00  1.0891811909611482e+00  1.0830580107940941e+00  1.0748183451947240e+00  1.0851579611602007e+00  1.1276452761765901e+00  1.1708103884689951e+00  1.1513621017837952e+00  1.0723275259478344e+00  1.0086360912884689e+00  9.9328290768628014e-01  9.9786681142656275e-01  1.0003182266473665e+00  1.0002688675006413e+00  1.0000400749444560e+00  9.9996676865917677e-01  1.0000009930452798e+00  1.0000382176363523e+00  9.9998825280435100e-01  9.9998364989415689e-01  1.0000513739553623e+00  9.9998933792342615e-01  9.9994358952443907e-01  9.9998003415056835e-01  9.9990052472993307e-01  9.9999162596073554e-01  1.0000108738465578e+00  1.0000151114343592e+00  9.9998202795287383e-01  1.0002789041490994e+00  1.0010803697723183e+00  9.9912461571523792e-01  1.0003232867007770e+00  1.0002307900566771e+00  9.9982646651889917e-01  1.0005507318107927e+00  9.9902581527842538e-01  1.0010225612960020e+00  9.9977668529118502e-01  9.9946681482970168e-01  1.0004155519044768e+00  9.9928904003738916e-01  1.0011527361885597e+00  1.0004486891217677e+00  9.9851048819470467e-01  9.9816417802118151e-01  9.9391514350961785e-01  9.9568792979861687e-01  1.0095502158221461e+00  1.0380598238316536e+00  1.0804209465727144e+00  1.1152421504271641e+00  1.1285251208943134e+00  1.1164665966096479e+00  1.0855145150532699e+00  1.0558123230231495e+00  1.0398725144161156e+00  1.0428250204371339e+00  1.0630729014848677e+00  1.0867831236337995e+00  1.1026314906092323e+00  1.1044930833029016e+00  1.0925136817368943e+00  1.0752618508700504e+00  1.0581456271219689e+00  1.0442628436853112e+00  1.0348837022488788e+00  1.0280138089035609e+00  1.0229180639661768e+00  1.0191511436298208e+00  1.0155485970247491e+00  1.0127559544752323e+00  1.0105970939167253e+00  1.0091715942755730e+00  1.0087164308609959e+00  1.0087245931993478e+00  1.0090297908627797e+00  1.0096231232506847e+00  1.0102378655272075e+00  1.0109637980273540e+00  1.0115623903439981e+00  1.0120961148907603e+00  1.0125966274162461e+00  1.0128022888383832e+00  1.0127473966897380e+00  1.0124155394174434e+00  1.0117159673533787e+00  1.0108698794401925e+00  1.0096681335655506e+00  1.0083353201120768e+00  1.0073902995702730e+00  1.0070387990956244e+00  1.0077055401743673e+00  1.0104158623257109e+00  1.0161755363761329e+00  1.0258415019661591e+00  1.0404065764632044e+00  1.0605983577573379e+00  1.0858124160564711e+00  1.1123577955113555e+00  1.1338007602640015e+00  1.1414679134847874e+00  1.1279884070841422e+00  1.0915965357187474e+00  1.0392623184327461e+00  9.8827037286722075e-01  9.6489085848462663e-01  1.0004333890354009e+00  1.0934242682507307e+00  1.1627937955291456e+00  1.1271953885140789e+00  1.0400413820954133e+00  9.9613369690740639e-01  9.9510756674735557e-01  9.9974023512143084e-01  1.0005339736535455e+00  1.0000392960741145e+00  9.9995232414914637e-01  9.9999949418922462e-01  9.9995781663836947e-01  1.0000372775892838e+00  9.9998473233971774e-01  9.9996421190757601e-01  1.0000096939135372e+00  1.0000240254180366e+00  1.0000255776780473e+00  1.0000573541335460e+00  9.9998813026719968e-01  1.0000108738473910e+00  9.9999357579338244e-01  1.0001621999590962e+00  9.9856891230760536e-01  1.0003232867007754e+00  9.9958135565833328e-01  1.0010085786294753e+00  9.9893362102479721e-01  1.0001617082171310e+00  1.0006156337364547e+00  9.9943013371739642e-01  1.0003777565138772e+00  9.9956423985042708e-01  1.0006928596554390e+00  1.0007211376774323e+00  9.9969509049751171e-01  9.9908781679014302e-01  9.9559821354787104e-01  9.9418257656565778e-01  9.9919929416504649e-01  1.0222422997361753e+00  1.0628808448238776e+00  1.1061358789858871e+00  1.1327128666073576e+00  1.1265601665754910e+00  1.0945444010314078e+00  1.0528844065118290e+00  1.0144983755779156e+00  9.8928408090324216e-01  9.7672115438530638e-01  9.7622491026201197e-01  9.8947163585337705e-01  1.0139980283821279e+00  1.0485545974387447e+00  1.0855082071321196e+00  1.1145361719501043e+00  1.1309943999043057e+00  1.1319405498507258e+00  1.1208122596008796e+00  1.1039111042843641e+00  1.0849349540414104e+00  1.0683551155825108e+00  1.0553880713522836e+00  1.0456190803936509e+00  1.0393258798159140e+00  1.0351059741614097e+00  1.0320842635040124e+00  1.0298350216576166e+00  1.0277007340043294e+00  1.0257290312614713e+00  1.0238986510067145e+00  1.0220600603838523e+00  1.0203723293567137e+00  1.0188497258425906e+00  1.0176519152198735e+00  1.0170008603059044e+00  1.0171475323609394e+00  1.0184271351078324e+00  1.0212617841817391e+00  1.0263600988879040e+00  1.0340301131415210e+00  1.0447723295739353e+00  1.0595091284905678e+00  1.0782959795841776e+00  1.1009061168792276e+00  1.1268586634444664e+00  1.1545935020645273e+00  1.1809420465052038e+00  1.2017772765280990e+00  1.2119946004941917e+00  1.2061049582430823e+00  1.1802747661141118e+00  1.1358578249322897e+00  1.0807157840591883e+00  1.0273962062128996e+00  9.8844222528913261e-01  9.7049443488996201e-01  9.7292387192587593e-01  9.8675087782293891e-01  9.9771081302976650e-01  9.9649894596421185e-01  9.9942363989462846e-01  1.0494892789580494e+00  1.1367862391184946e+00  1.1574665908236070e+00  1.0792245702604502e+00  1.0074751867280041e+00  9.9330979063792901e-01  9.9862376843720280e-01  1.0004501723753925e+00  1.0002139482802417e+00  9.9993923163365439e-01  1.0000332677463222e+00  9.9996995580962822e-01  1.0000101591088761e+00  1.0000240558041538e+00  1.0000048798027359e+00  1.0000085108718533e+00  1.0000245868570345e+00  9.9993831446037473e-01  1.0000573541342144e+00  9.9999162595982527e-01  9.9996618968278694e-01  1.0008301650509315e+00  1.0003992189517990e+00  1.0002307900566738e+00  1.0010085786294736e+00  9.9908728536899660e-01  1.0004566808239643e+00  1.0000257287223562e+00  1.0000351266683243e+00  9.9951533170133233e-01  1.0001557091969733e+00  1.0000649048792520e+00  1.0009421695510283e+00  9.9958256246041344e-01  9.9783545546863117e-01  9.9539521423189004e-01  9.9394934748417363e-01  1.0068235988017276e+00  1.0388176075468472e+00  1.0853285345687838e+00  1.1247694053513577e+00  1.1320061715914231e+00  1.1072079820864771e+00  1.0643389774006433e+00  1.0242228525008565e+00  9.9926978516380072e-01  9.8703912453484655e-01  9.8496051513225946e-01  9.8702664571975818e-01  9.8812890220303362e-01  9.8846834418296969e-01  9.8723719590785852e-01  9.8834474991215560e-01  9.9712776935460845e-01  1.0151065439897728e+00  1.0425730199695475e+00  1.0745825733779986e+00  1.1050917193987642e+00  1.1301216766311348e+00  1.1463541664919807e+00  1.1539675852282305e+00  1.1543865276895304e+00  1.1490493605072429e+00  1.1404529192027870e+00  1.1297024152565251e+00  1.1180845604112466e+00  1.1069239759806873e+00  1.0965184169370097e+00  1.0870347835453407e+00  1.0789185300292625e+00  1.0721146501629792e+00  1.0668694497394346e+00  1.0632219634990103e+00  1.0613388532358072e+00  1.0613948277742919e+00  1.0633334513650261e+00  1.0670932447103272e+00  1.0728680691380870e+00  1.0803518439624771e+00  1.0890926411248085e+00  1.0989871187149283e+00  1.1095021839993808e+00  1.1193350705530862e+00  1.1278553601153782e+00  1.1342752583541416e+00  1.1374454653344790e+00  1.1369969776630868e+00  1.1333669740540988e+00  1.1277190991947899e+00  1.1209953247707496e+00  1.1138127195918590e+00  1.1047729897038372e+00  1.0897818970429638e+00  1.0661462809775204e+00  1.0376310994526250e+00  1.0127124396392626e+00  9.9630801922670209e-01  9.8737694994495839e-01  9.8362359283030487e-01  9.8329484676853574e-01  9.8283148795117581e-01  9.8242796888060013e-01  1.0101422047015474e+00  1.0945747878971488e+00  1.1622899959680522e+00  1.1153510230110621e+00  1.0257735268988195e+00  9.9343368490778428e-01  9.9722920828804229e-01  1.0003908381911557e+00  1.0003298132102363e+00  9.9991338068015767e-01  1.0000227744891146e+00  9.9998194625671477e-01  1.0000149043864226e+00  9.9993538593272280e-01  1.0000365557015369e+00  9.9990194530335808e-01  1.0000245868580964e+00  1.0000255776774334e+00  9.9990052473005231e-01  1.0000684280825651e+00  9.9903246699875170e-01  9.9924506530631207e-01  9.9982646651890072e-01  9.9893362102479810e-01  1.0004566808239643e+00  9.9993413682194565e-01  9.9988681363953802e-01  1.0002114847026677e+00  9.9961974907900952e-01  1.0011763096536734e+00  1.0000536566307197e+00  9.9991624973280657e-01  9.9770720530824542e-01  9.9392756282109052e-01  9.9658489799966110e-01  1.0141744820819036e+00  1.0558036667749200e+00  1.1047740869192200e+00  1.1326161304478968e+00  1.1236825034201900e+00  1.0822688775911571e+00  1.0371355958666584e+00  1.0044186031348594e+00  9.8760224012945097e-01  9.8528636630697719e-01  9.8615099414968888e-01  9.8887267255523059e-01  9.9050595095166971e-01  9.8783703908811848e-01  9.8653894938932052e-01  9.8505951363190125e-01  9.8535171067141480e-01  9.8986747902619343e-01  9.9517910290803824e-01  1.0046088390562697e+00  1.0188940913260287e+00  1.0364339156986606e+00  1.0584982297590337e+00  1.0809001745147322e+00  1.1011223806464834e+00  1.1180601134403170e+00  1.1291346534118929e+00  1.1354037722833947e+00  1.1377710295938124e+00  1.1363802975182677e+00  1.1330422152085589e+00  1.1285695546684962e+00  1.1235786909487995e+00  1.1190202073012185e+00  1.1150855544969511e+00  1.1122805821776112e+00  1.1104491349394947e+00  1.1093732170643915e+00  1.1091291195407740e+00  1.1094558206008898e+00  1.1098601687187837e+00  1.1099702320643945e+00  1.1094280556649747e+00  1.1078005661188284e+00  1.1043531564953371e+00  1.0984568800613952e+00  1.0900289679726354e+00  1.0789262044127841e+00  1.0649473883645568e+00  1.0489906169986760e+00  1.0323271545884232e+00  1.0164847593337143e+00  1.0032190156462293e+00  9.9510620417742002e-01  9.9467959710115028e-01  1.0037851586000097e+00  1.0219599546884701e+00  1.0432173155625577e+00  1.0553060070701639e+00  1.0478917610176772e+00  1.0268294533142968e+00  1.0085832270836304e+00  1.0011744962601614e+00  1.0000083170750937e+00  9.9887048049884142e-01  9.9550800077726787e-01  9.8851651459773038e-01  9.9456370121442794e-01  1.0573615146710860e+00  1.1483698766569874e+00  1.1408729671856650e+00  1.0470501700053214e+00  9.9590939129490053e-01  9.9587963807470681e-01  1.0000907679364008e+00  1.0003848959487520e+00  9.9997609822960787e-01  9.9995311905220596e-01  1.0000208776687505e+00  1.0000166270820054e+00  1.0000187149333912e+00  1.0000365557020028e+00  1.0000085108709975e+00  1.0000240254180390e+00  9.9998003415069658e-01  1.0000858417599416e+00  1.0011040661004293e+00  1.0008727783332627e+00  1.0005507318107905e+00  1.0001617082171277e+00  1.0000257287223582e+00  9.9988681363953547e-01  9.9943096138343390e-01  1.0001686619292101e+00  1.0004133276475644e+00  1.0004859334104990e+00  9.9894115766508296e-01  9.9706881421157834e-01  9.9398744057963928e-01  9.9818602729889094e-01  1.0239853007592827e+00  1.0703306308277878e+00  1.1185553884129844e+00  1.1345495002846124e+00  1.1071963942143421e+00  1.0603860175977313e+00  1.0162824868365754e+00  9.9290314997444795e-01  9.8534349244384956e-01  9.8498480223199769e-01  9.8900721172336170e-01  9.8960260814803269e-01  9.8957189293481862e-01  9.8955423645254326e-01  9.8959421915616408e-01  9.9465085487360283e-01  1.0003125076042685e+00  1.0060622657716451e+00  1.0120765583424600e+00  1.0138368989601358e+00  1.0146378964593121e+00  1.0133744038199894e+00  1.0093666968937960e+00  1.0063463915153501e+00  1.0033232695986285e+00  1.0026021704716086e+00  1.0059502108489333e+00  1.0111913605328831e+00  1.0190311843356648e+00  1.0283744145856177e+00  1.0373191737085508e+00  1.0461475390536905e+00  1.0538216867177339e+00  1.0599672243288620e+00  1.0651146518837225e+00  1.0684314851704277e+00  1.0701000436661388e+00  1.0704777017951004e+00  1.0694902691620936e+00  1.0671122652503899e+00  1.0634739351265687e+00  1.0584969000347093e+00  1.0523412250251998e+00  1.0449719610809505e+00  1.0362746086287511e+00  1.0265672973062450e+00  1.0164471701334419e+00  1.0061372716893822e+00  9.9612564362961031e-01  9.8743796250494642e-01  9.8082257555612584e-01  9.7650032428543643e-01  9.7473966000148304e-01  9.7598535031200795e-01  9.7961987346815926e-01  9.8487741699219211e-01  9.9185526687627179e-01  1.0018869531971633e+00  1.0180293954313513e+00  1.0420037793298180e+00  1.0666145523569177e+00  1.0725295762620299e+00  1.0483241673162573e+00  1.0117505189426004e+00  9.8920898795949908e-01  9.8581161418835417e-01  9.9018609771199828e-01  9.9317233567601149e-01  9.9071254819125876e-01  9.8924832929114459e-01  1.0313598721801136e+00  1.1276780402860216e+00  1.1548745331921773e+00  1.0669930578977027e+00  9.9999206256095674e-01  9.9484467151272749e-01  9.9996903595210218e-01  1.0003863865868279e+00  1.0000491250480565e+00  9.9995224877331268e-01  1.0000059590499144e+00  1.0000166270823430e+00  9.9993538593184261e-01  1.0000048798032153e+00  1.0000096939140701e+00  9.9994358952411677e-01  1.0000690530573322e+00  9.9924470727979875e-01  9.9958289966846103e-01  9.9902581527842671e-01  1.0006156337364542e+00  1.0000351266683274e+00  1.0002114847026655e+00  1.0001686619292076e+00  1.0009716973531770e+00  1.0002380085653773e+00  9.9947449333222915e-01  9.9697939259852053e-01  9.9380258955693856e-01  1.0009126993857023e+00  1.0309482391800682e+00  1.0834816946096686e+00  1.1269034151939326e+00  1.1306499536305541e+00  1.0919734724652743e+00  1.0396651483825701e+00  1.0042128506899304e+00  9.8676102187747339e-01  9.8465388203020598e-01  9.8730646399435384e-01  9.8776400514040119e-01  9.8950497873295262e-01  9.8834676410297195e-01  9.8874257987777714e-01  9.9360204894245030e-01  9.9832323763072228e-01  1.0055664888181319e+00  1.0106545585868689e+00  1.0128221830242645e+00  1.0154050726318380e+00  1.0148552208993995e+00  1.0132659823455321e+00  1.0103976839451674e+00  1.0045708682477121e+00  9.9914390153453947e-01  9.9315919281069742e-01  9.8720226146922085e-01  9.8290695339714951e-01  9.7893950955346831e-01  9.7634911595394325e-01  9.7537464448997591e-01  9.7491251062029483e-01  9.7583148922377239e-01  9.7738722091909302e-01  9.7895720189107771e-01  9.8069446361099744e-01  9.8187598035026125e-01  9.8284548078995559e-01  9.8361993314580387e-01  9.8359495951344467e-01  9.8301298585240859e-01  9.8222103553254991e-01  9.8092565329083825e-01  9.7920334325342573e-01  9.7735515237850934e-01  9.7564138103428044e-01  9.7416888422260473e-01  9.7298511497949114e-01  9.7216489511598625e-01  9.7196971874307714e-01  9.7212955060123241e-01  9.7220318283400564e-01  9.7216550907530241e-01  9.7193311883873479e-01  9.7098490691300920e-01  9.6949962972577064e-01  9.6800584560347624e-01  9.6692349890319429e-01  9.6655991558239940e-01  9.6814785590407360e-01  9.7548650556843242e-01  9.9530166918642460e-01  1.0315875203416383e+00  1.0690204850411311e+00  1.0757194915707196e+00  1.0447153424086444e+00  1.0087722087495301e+00  9.9285393393386623e-01  9.9183588068148298e-01  9.9392443907037109e-01  9.9252303498004801e-01  9.8810965386876726e-01  1.0148092804862565e+00  1.1074479185039841e+00  1.1604538668420075e+00  1.0829096025690572e+00  1.0043088137976997e+00  9.9416043235126550e-01  9.9969490619739598e-01  1.0003927231627230e+00  1.0000074056381110e+00  9.9995224877408739e-01  1.0000208776681445e+00  1.0000149043868654e+00  1.0000240558046134e+00  9.9996421190703155e-01  9.9998933792321010e-01  9.9999456621570482e-01  1.0002276251537681e+00  9.9948731512180866e-01  1.0010225612960062e+00  9.9943013371739198e-01  9.9951533170133566e-01  9.9961974907901308e-01  1.0004133276475657e+00  1.0002380085653775e+00  9.9878846751005990e-01  9.9682107772589534e-01  9.9352546044546119e-01  1.0023105603291198e+00  1.0378280123395907e+00  1.0923850942025286e+00  1.1328175825951077e+00  1.1244751947654161e+00  1.0769751030531156e+00  1.0259722419214501e+00  9.9422885176246101e-01  9.8490715173630594e-01  9.8410998697554575e-01  9.8709906096604016e-01  9