<?xml version="1.0"?>
<VTKFile type="UnstructuredGrid"  version="0.1"  >
<UnstructuredGrid>
<Piece  NumberOfPoints="10201" NumberOfCells="20000">
<Points>
<DataArray  type="Float64"  NumberOfComponents="3"  format="ascii">-5 -5 0  -4.9 -5 0  -4.8 -5 0  -4.7 -5 0  -4.6 -5 0  -4.5 -5 0  -4.4 -5 0  -4.3 -5 0  -4.2 -5 0  -4.1 -5 0  -4 -5 0  -3.9 -5 0  -3.8 -5 0  -3.7 -5 0  -3.6 -5 0  -3.5 -5 0  -3.4 -5 0  -3.3 -5 0  -3.2 -5 0  -3.1 -5 0  -3 -5 0  -2.9 -5 0  -2.8 -5 0  -2.7 -5 0  -2.6 -5 0  -2.5 -5 0  -2.4 -5 0  -2.3 -5 0  -2.2 -5 0  -2.1 -5 0  -2 -5 0  -1.9 -5 0  -1.8 -5 0  -1.7 -5 0  -1.6 -5 0  -1.5 -5 0  -1.4 -5 0  -1.3 -5 0  -1.2 -5 0  -1.1 -5 0  -1 -5 0  -0.9000000000000004 -5 0  -0.7999999999999998 -5 0  -0.7000000000000002 -5 0  -0.5999999999999996 -5 0  -0.5 -5 0  -0.4000000000000004 -5 0  -0.2999999999999998 -5 0  -0.2000000000000002 -5 0  -0.09999999999999964 -5 0  0 -5 0  0.09999999999999964 -5 0  0.2000000000000002 -5 0  0.2999999999999998 -5 0  0.4000000000000004 -5 0  0.5 -5 0  0.5999999999999996 -5 0  0.7000000000000002 -5 0  0.7999999999999998 -5 0  0.9000000000000004 -5 0  1 -5 0  1.1 -5 0  1.2 -5 0  1.3 -5 0  1.4 -5 0  1.5 -5 0  1.6 -5 0  1.7 -5 0  1.8 -5 0  1.9 -5 0  2 -5 0  2.1 -5 0  2.2 -5 0  2.3 -5 0  2.4 -5 0  2.5 -5 0  2.6 -5 0  2.7 -5 0  2.8 -5 0  2.9 -5 0  3 -5 0  3.1 -5 0  3.199999999999999 -5 0  3.300000000000001 -5 0  3.4 -5 0  3.5 -5 0  3.6 -5 0  3.699999999999999 -5 0  3.800000000000001 -5 0  3.9 -5 0  4 -5 0  4.1 -5 0  4.199999999999999 -5 0  4.300000000000001 -5 0  4.4 -5 0  4.5 -5 0  4.6 -5 0  4.699999999999999 -5 0  4.800000000000001 -5 0  4.9 -5 0  5 -5 0  -5 -4.9 0  -4.9 -4.9 0  -4.8 -4.9 0  -4.7 -4.9 0  -4.6 -4.9 0  -4.5 -4.9 0  -4.4 -4.9 0  -4.3 -4.9 0  -4.2 -4.9 0  -4.1 -4.9 0  -4 -4.9 0  -3.9 -4.9 0  -3.8 -4.9 0  -3.7 -4.9 0  -3.6 -4.9 0  -3.5 -4.9 0  -3.4 -4.9 0  -3.3 -4.9 0  -3.2 -4.9 0  -3.1 -4.9 0  -3 -4.9 0  -2.9 -4.9 0  -2.8 -4.9 0  -2.7 -4.9 0  -2.6 -4.9 0  -2.5 -4.9 0  -2.4 -4.9 0  -2.3 -4.9 0  -2.2 -4.9 0  -2.1 -4.9 0  -2 -4.9 0  -1.9 -4.9 0  -1.8 -4.9 0  -1.7 -4.9 0  -1.6 -4.9 0  -1.5 -4.9 0  -1.4 -4.9 0  -1.3 -4.9 0  -1.2 -4.9 0  -1.1 -4.9 0  -1 -4.9 0  -0.9000000000000004 -4.9 0  -0.7999999999999998 -4.9 0  -0.7000000000000002 -4.9 0  -0.5999999999999996 -4.9 0  -0.5 -4.9 0  -0.4000000000000004 -4.9 0  -0.2999999999999998 -4.9 0  -0.2000000000000002 -4.9 0  -0.09999999999999964 -4.9 0  0 -4.9 0  0.09999999999999964 -4.9 0  0.2000000000000002 -4.9 0  0.2999999999999998 -4.9 0  0.4000000000000004 -4.9 0  0.5 -4.9 0  0.5999999999999996 -4.9 0  0.7000000000000002 -4.9 0  0.7999999999999998 -4.9 0  0.9000000000000004 -4.9 0  1 -4.9 0  1.1 -4.9 0  1.2 -4.9 0  1.3 -4.9 0  1.4 -4.9 0  1.5 -4.9 0  1.6 -4.9 0  1.7 -4.9 0  1.8 -4.9 0  1.9 -4.9 0  2 -4.9 0  2.1 -4.9 0  2.2 -4.9 0  2.3 -4.9 0  2.4 -4.9 0  2.5 -4.9 0  2.6 -4.9 0  2.7 -4.9 0  2.8 -4.9 0  2.9 -4.9 0  3 -4.9 0  3.1 -4.9 0  3.199999999999999 -4.9 0  3.300000000000001 -4.9 0  3.4 -4.9 0  3.5 -4.9 0  3.6 -4.9 0  3.699999999999999 -4.9 0  3.800000000000001 -4.9 0  3.9 -4.9 0  4 -4.9 0  4.1 -4.9 0  4.199999999999999 -4.9 0  4.300000000000001 -4.9 0  4.4 -4.9 0  4.5 -4.9 0  4.6 -4.9 0  4.699999999999999 -4.9 0  4.800000000000001 -4.9 0  4.9 -4.9 0  5 -4.9 0  -5 -4.8 0  -4.9 -4.8 0  -4.8 -4.8 0  -4.7 -4.8 0  -4.6 -4.8 0  -4.5 -4.8 0  -4.4 -4.8 0  -4.3 -4.8 0  -4.2 -4.8 0  -4.1 -4.8 0  -4 -4.8 0  -3.9 -4.8 0  -3.8 -4.8 0  -3.7 -4.8 0  -3.6 -4.8 0  -3.5 -4.8 0  -3.4 -4.8 0  -3.3 -4.8 0  -3.2 -4.8 0  -3.1 -4.8 0  -3 -4.8 0  -2.9 -4.8 0  -2.8 -4.8 0  -2.7 -4.8 0  -2.6 -4.8 0  -2.5 -4.8 0  -2.4 -4.8 0  -2.3 -4.8 0  -2.2 -4.8 0  -2.1 -4.8 0  -2 -4.8 0  -1.9 -4.8 0  -1.8 -4.8 0  -1.7 -4.8 0  -1.6 -4.8 0  -1.5 -4.8 0  -1.4 -4.8 0  -1.3 -4.8 0  -1.2 -4.8 0  -1.1 -4.8 0  -1 -4.8 0  -0.9000000000000004 -4.8 0  -0.7999999999999998 -4.8 0  -0.7000000000000002 -4.8 0  -0.5999999999999996 -4.8 0  -0.5 -4.8 0  -0.4000000000000004 -4.8 0  -0.2999999999999998 -4.8 0  -0.2000000000000002 -4.8 0  -0.09999999999999964 -4.8 0  0 -4.8 0  0.09999999999999964 -4.8 0  0.2000000000000002 -4.8 0  0.2999999999999998 -4.8 0  0.4000000000000004 -4.8 0  0.5 -4.8 0  0.5999999999999996 -4.8 0  0.7000000000000002 -4.8 0  0.7999999999999998 -4.8 0  0.9000000000000004 -4.8 0  1 -4.8 0  1.1 -4.8 0  1.2 -4.8 0  1.3 -4.8 0  1.4 -4.8 0  1.5 -4.8 0  1.6 -4.8 0  1.7 -4.8 0  1.8 -4.8 0  1.9 -4.8 0  2 -4.8 0  2.1 -4.8 0  2.2 -4.8 0  2.3 -4.8 0  2.4 -4.8 0  2.5 -4.8 0  2.6 -4.8 0  2.7 -4.8 0  2.8 -4.8 0  2.9 -4.8 0  3 -4.8 0  3.1 -4.8 0  3.199999999999999 -4.8 0  3.300000000000001 -4.8 0  3.4 -4.8 0  3.5 -4.8 0  3.6 -4.8 0  3.699999999999999 -4.8 0  3.800000000000001 -4.8 0  3.9 -4.8 0  4 -4.8 0  4.1 -4.8 0  4.199999999999999 -4.8 0  4.300000000000001 -4.8 0  4.4 -4.8 0  4.5 -4.8 0  4.6 -4.8 0  4.699999999999999 -4.8 0  4.800000000000001 -4.8 0  4.9 -4.8 0  5 -4.8 0  -5 -4.7 0  -4.9 -4.7 0  -4.8 -4.7 0  -4.7 -4.7 0  -4.6 -4.7 0  -4.5 -4.7 0  -4.4 -4.7 0  -4.3 -4.7 0  -4.2 -4.7 0  -4.1 -4.7 0  -4 -4.7 0  -3.9 -4.7 0  -3.8 -4.7 0  -3.7 -4.7 0  -3.6 -4.7 0  -3.5 -4.7 0  -3.4 -4.7 0  -3.3 -4.7 0  -3.2 -4.7 0  -3.1 -4.7 0  -3 -4.7 0  -2.9 -4.7 0  -2.8 -4.7 0  -2.7 -4.7 0  -2.6 -4.7 0  -2.5 -4.7 0  -2.4 -4.7 0  -2.3 -4.7 0  -2.2 -4.7 0  -2.1 -4.7 0  -2 -4.7 0  -1.9 -4.7 0  -1.8 -4.7 0  -1.7 -4.7 0  -1.6 -4.7 0  -1.5 -4.7 0  -1.4 -4.7 0  -1.3 -4.7 0  -1.2 -4.7 0  -1.1 -4.7 0  -1 -4.7 0  -0.9000000000000004 -4.7 0  -0.7999999999999998 -4.7 0  -0.7000000000000002 -4.7 0  -0.5999999999999996 -4.7 0  -0.5 -4.7 0  -0.4000000000000004 -4.7 0  -0.2999999999999998 -4.7 0  -0.2000000000000002 -4.7 0  -0.09999999999999964 -4.7 0  0 -4.7 0  0.09999999999999964 -4.7 0  0.2000000000000002 -4.7 0  0.2999999999999998 -4.7 0  0.4000000000000004 -4.7 0  0.5 -4.7 0  0.5999999999999996 -4.7 0  0.7000000000000002 -4.7 0  0.7999999999999998 -4.7 0  0.9000000000000004 -4.7 0  1 -4.7 0  1.1 -4.7 0  1.2 -4.7 0  1.3 -4.7 0  1.4 -4.7 0  1.5 -4.7 0  1.6 -4.7 0  1.7 -4.7 0  1.8 -4.7 0  1.9 -4.7 0  2 -4.7 0  2.1 -4.7 0  2.2 -4.7 0  2.3 -4.7 0  2.4 -4.7 0  2.5 -4.7 0  2.6 -4.7 0  2.7 -4.7 0  2.8 -4.7 0  2.9 -4.7 0  3 -4.7 0  3.1 -4.7 0  3.199999999999999 -4.7 0  3.300000000000001 -4.7 0  3.4 -4.7 0  3.5 -4.7 0  3.6 -4.7 0  3.699999999999999 -4.7 0  3.800000000000001 -4.7 0  3.9 -4.7 0  4 -4.7 0  4.1 -4.7 0  4.199999999999999 -4.7 0  4.300000000000001 -4.7 0  4.4 -4.7 0  4.5 -4.7 0  4.6 -4.7 0  4.699999999999999 -4.7 0  4.800000000000001 -4.7 0  4.9 -4.7 0  5 -4.7 0  -5 -4.6 0  -4.9 -4.6 0  -4.8 -4.6 0  -4.7 -4.6 0  -4.6 -4.6 0  -4.5 -4.6 0  -4.4 -4.6 0  -4.3 -4.6 0  -4.2 -4.6 0  -4.1 -4.6 0  -4 -4.6 0  -3.9 -4.6 0  -3.8 -4.6 0  -3.7 -4.6 0  -3.6 -4.6 0  -3.5 -4.6 0  -3.4 -4.6 0  -3.3 -4.6 0  -3.2 -4.6 0  -3.1 -4.6 0  -3 -4.6 0  -2.9 -4.6 0  -2.8 -4.6 0  -2.7 -4.6 0  -2.6 -4.6 0  -2.5 -4.6 0  -2.4 -4.6 0  -2.3 -4.6 0  -2.2 -4.6 0  -2.1 -4.6 0  -2 -4.6 0  -1.9 -4.6 0  -1.8 -4.6 0  -1.7 -4.6 0  -1.6 -4.6 0  -1.5 -4.6 0  -1.4 -4.6 0  -1.3 -4.6 0  -1.2 -4.6 0  -1.1 -4.6 0  -1 -4.6 0  -0.9000000000000004 -4.6 0  -0.7999999999999998 -4.6 0  -0.7000000000000002 -4.6 0  -0.5999999999999996 -4.6 0  -0.5 -4.6 0  -0.4000000000000004 -4.6 0  -0.2999999999999998 -4.6 0  -0.2000000000000002 -4.6 0  -0.09999999999999964 -4.6 0  0 -4.6 0  0.09999999999999964 -4.6 0  0.2000000000000002 -4.6 0  0.2999999999999998 -4.6 0  0.4000000000000004 -4.6 0  0.5 -4.6 0  0.5999999999999996 -4.6 0  0.7000000000000002 -4.6 0  0.7999999999999998 -4.6 0  0.9000000000000004 -4.6 0  1 -4.6 0  1.1 -4.6 0  1.2 -4.6 0  1.3 -4.6 0  1.4 -4.6 0  1.5 -4.6 0  1.6 -4.6 0  1.7 -4.6 0  1.8 -4.6 0  1.9 -4.6 0  2 -4.6 0  2.1 -4.6 0  2.2 -4.6 0  2.3 -4.6 0  2.4 -4.6 0  2.5 -4.6 0  2.6 -4.6 0  2.7 -4.6 0  2.8 -4.6 0  2.9 -4.6 0  3 -4.6 0  3.1 -4.6 0  3.199999999999999 -4.6 0  3.300000000000001 -4.6 0  3.4 -4.6 0  3.5 -4.6 0  3.6 -4.6 0  3.699999999999999 -4.6 0  3.800000000000001 -4.6 0  3.9 -4.6 0  4 -4.6 0  4.1 -4.6 0  4.199999999999999 -4.6 0  4.300000000000001 -4.6 0  4.4 -4.6 0  4.5 -4.6 0  4.6 -4.6 0  4.699999999999999 -4.6 0  4.800000000000001 -4.6 0  4.9 -4.6 0  5 -4.6 0  -5 -4.5 0  -4.9 -4.5 0  -4.8 -4.5 0  -4.7 -4.5 0  -4.6 -4.5 0  -4.5 -4.5 0  -4.4 -4.5 0  -4.3 -4.5 0  -4.2 -4.5 0  -4.1 -4.5 0  -4 -4.5 0  -3.9 -4.5 0  -3.8 -4.5 0  -3.7 -4.5 0  -3.6 -4.5 0  -3.5 -4.5 0  -3.4 -4.5 0  -3.3 -4.5 0  -3.2 -4.5 0  -3.1 -4.5 0  -3 -4.5 0  -2.9 -4.5 0  -2.8 -4.5 0  -2.7 -4.5 0  -2.6 -4.5 0  -2.5 -4.5 0  -2.4 -4.5 0  -2.3 -4.5 0  -2.2 -4.5 0  -2.1 -4.5 0  -2 -4.5 0  -1.9 -4.5 0  -1.8 -4.5 0  -1.7 -4.5 0  -1.6 -4.5 0  -1.5 -4.5 0  -1.4 -4.5 0  -1.3 -4.5 0  -1.2 -4.5 0  -1.1 -4.5 0  -1 -4.5 0  -0.9000000000000004 -4.5 0  -0.7999999999999998 -4.5 0  -0.7000000000000002 -4.5 0  -0.5999999999999996 -4.5 0  -0.5 -4.5 0  -0.4000000000000004 -4.5 0  -0.2999999999999998 -4.5 0  -0.2000000000000002 -4.5 0  -0.09999999999999964 -4.5 0  0 -4.5 0  0.09999999999999964 -4.5 0  0.2000000000000002 -4.5 0  0.2999999999999998 -4.5 0  0.4000000000000004 -4.5 0  0.5 -4.5 0  0.5999999999999996 -4.5 0  0.7000000000000002 -4.5 0  0.7999999999999998 -4.5 0  0.9000000000000004 -4.5 0  1 -4.5 0  1.1 -4.5 0  1.2 -4.5 0  1.3 -4.5 0  1.4 -4.5 0  1.5 -4.5 0  1.6 -4.5 0  1.7 -4.5 0  1.8 -4.5 0  1.9 -4.5 0  2 -4.5 0  2.1 -4.5 0  2.2 -4.5 0  2.3 -4.5 0  2.4 -4.5 0  2.5 -4.5 0  2.6 -4.5 0  2.7 -4.5 0  2.8 -4.5 0  2.9 -4.5 0  3 -4.5 0  3.1 -4.5 0  3.199999999999999 -4.5 0  3.300000000000001 -4.5 0  3.4 -4.5 0  3.5 -4.5 0  3.6 -4.5 0  3.699999999999999 -4.5 0  3.800000000000001 -4.5 0  3.9 -4.5 0  4 -4.5 0  4.1 -4.5 0  4.199999999999999 -4.5 0  4.300000000000001 -4.5 0  4.4 -4.5 0  4.5 -4.5 0  4.6 -4.5 0  4.699999999999999 -4.5 0  4.800000000000001 -4.5 0  4.9 -4.5 0  5 -4.5 0  -5 -4.4 0  -4.9 -4.4 0  -4.8 -4.4 0  -4.7 -4.4 0  -4.6 -4.4 0  -4.5 -4.4 0  -4.4 -4.4 0  -4.3 -4.4 0  -4.2 -4.4 0  -4.1 -4.4 0  -4 -4.4 0  -3.9 -4.4 0  -3.8 -4.4 0  -3.7 -4.4 0  -3.6 -4.4 0  -3.5 -4.4 0  -3.4 -4.4 0  -3.3 -4.4 0  -3.2 -4.4 0  -3.1 -4.4 0  -3 -4.4 0  -2.9 -4.4 0  -2.8 -4.4 0  -2.7 -4.4 0  -2.6 -4.4 0  -2.5 -4.4 0  -2.4 -4.4 0  -2.3 -4.4 0  -2.2 -4.4 0  -2.1 -4.4 0  -2 -4.4 0  -1.9 -4.4 0  -1.8 -4.
[...]
<PointData  Scalars="r"> 
<DataArray  type="Float64"  Name="r"  format="ascii">9.7349448425354901e-01  9.7185539280891908e-01  1.0077371039102694e+00  1.0209417502535774e+00  1.1073243313222514e+00  1.2450154383074015e+00  1.2125544289306951e+00  1.0453455434300309e+00  9.9991656147517416e-01  1.0192495984159942e+00  1.0327877946224764e+00  1.0250910123730788e+00  1.0107889028304053e+00  9.9999089947255915e-01  9.8240750914139952e-01  9.7354814452277405e-01  9.6226465209764744e-01  9.5715600490902675e-01  9.5562123011818167e-01  9.5311063125942908e-01  9.4656508107689097e-01  9.4644369786139759e-01  9.4058174367259684e-01  9.4065295595095477e-01  9.3997984631534159e-01  9.3253680506563996e-01  9.3535420555983328e-01  9.3769417056117088e-01  9.4377211902466129e-01  9.5998490096238520e-01  9.6482776568719975e-01  9.7850019507293196e-01  9.8670527567705579e-01  9.9222896264318272e-01  1.0007156352774729e+00  1.0027524006924466e+00  1.0033178189867664e+00  1.0043559436507534e+00  1.0021587393568234e+00  9.9837114237990632e-01  1.0019875710525388e+00  9.9233837915148926e-01  1.0002973673094149e+00  9.8911505560623392e-01  9.9676372448809425e-01  9.8638757933058585e-01  9.9328162740001524e-01  9.8364597115859564e-01  9.8806571775547647e-01  9.8235543509684142e-01  9.7968579938206524e-01  9.8223629168807025e-01  9.7153532845114154e-01  9.8248425579255627e-01  9.6504058145987048e-01  9.8263576867079816e-01  9.6217930919185557e-01  9.8207650918157119e-01  9.6600342160277852e-01  9.8081233782471844e-01  9.7917673023378149e-01  9.8161357324670862e-01  9.9927141604143011e-01  9.8429216064251157e-01  1.0197871042886490e+00  9.8265999895430711e-01  1.0247386233699223e+00  9.6539569081778331e-01  1.0031958998891162e+00  9.3503370141403652e-01  9.6566026822872630e-01  9.2018971483128731e-01  9.3812031297738196e-01  9.3186007799466963e-01  9.2208837547827627e-01  9.5759334153967990e-01  9.0914981882975099e-01  9.8686147269453273e-01  9.0395435321714601e-01  1.0112165062718912e+00  9.0487216485783495e-01  1.0235929664345969e+00  9.0179809598482785e-01  1.0266468513881246e+00  9.0998789350457798e-01  1.0402506153849891e+00  9.2690244988313897e-01  1.0597516321773750e+00  9.2516648963644721e-01  1.0443785213843759e+00  9.4113601383849421e-01  1.1014275338955597e+00  1.0590834703905432e+00  1.1586502409417225e+00  1.0292289434822872e+00  1.1074825861871758e+00  1.0884099158755984e+00  1.1032950715067724e+00  1.0463240301037333e+00  9.9842685865698788e-01  8.6067302397433942e-01  9.7185539280891842e-01  9.4454888375818680e-01  1.0170314840479000e+00  1.1035121731546245e+00  1.1408243468282324e+00  1.1296761022795543e+00  1.1567098047970590e+00  1.1036377209225920e+00  1.0316576706467127e+00  1.0121731217865140e+00  1.0213880204284682e+00  1.0194153712804483e+00  1.0081540064557246e+00  9.9557426694171536e-01  9.8050878127251517e-01  9.7177286736759694e-01  9.6689385143115369e-01  9.6286533461944335e-01  9.5903853243449755e-01  9.5442277774326667e-01  9.5169764096658371e-01  9.4885657070112150e-01  9.4472637765048995e-01  9.3718297361944836e-01  9.3470251846743946e-01  9.3404898925666091e-01  9.4000245641310376e-01  9.4576296276984007e-01  9.5012019576649709e-01  9.5665238630461047e-01  9.6336509210735310e-01  9.7182017654778696e-01  9.8155757354259288e-01  9.8679053370310021e-01  9.9200932472825432e-01  9.9411510293545924e-01  9.9456545796741269e-01  9.9531576344711536e-01  9.9537401296029704e-01  9.9416445332532399e-01  9.9490811102546362e-01  9.9344906243445941e-01  9.9339507816201145e-01  9.9343291311057391e-01  9.9261801523812587e-01  9.9344995365338207e-01  9.9251330555042416e-01  9.9344472823385577e-01  9.9117469731850505e-01  9.9388515484568773e-01  9.8999196815598689e-01  9.9439794629453981e-01  9.8932082813457600e-01  9.9349050012295170e-01  9.9050073770143388e-01  9.9179044097706481e-01  9.9238707522758385e-01  9.9034893261401979e-01  9.9545596601124542e-01  9.8819994629202501e-01  9.9812284398966644e-01  9.8521540196990887e-01  9.9896548290225540e-01  9.8260038109247860e-01  9.9641979217176335e-01  9.8355249537045220e-01  9.9178708804031002e-01  9.8913551156846713e-01  9.8354837862153166e-01  9.9266425577177131e-01  9.6306335149900080e-01  9.8453873758005550e-01  9.3215835849915085e-01  9.7708127878151207e-01  9.1280491759178350e-01  9.8015292092410877e-01  9.1083704302522772e-01  9.8386794247213705e-01  9.1375920729318871e-01  9.8355151969241561e-01  9.2188565554606661e-01  9.8179277937207754e-01  9.4050292252550594e-01  9.9048428627403884e-01  9.5937578155722580e-01  9.9904452513588771e-01  9.7803368011332870e-01  1.0088170689353351e+00  9.7184141443501304e-01  1.0102298341598974e+00  9.5003350745150827e-01  1.0433922620587175e+00  1.0631072031039606e+00  1.2492996288928411e+00  1.1108204474641672e+00  1.1114203101382722e+00  9.5119125263378479e-01  1.0450689076119881e+00  1.0378024396838406e+00  1.0384167667587458e+00  9.9842685865814562e-01  1.0077371039102647e+00  1.0170314840478976e+00  1.0190989298342454e+00  1.0745491179388467e+00  1.1126337302996212e+00  1.1053850874208240e+00  1.0781569968189586e+00  1.1272257753317929e+00  1.0925596852908475e+00  1.0145534274117791e+00  9.9883891379725254e-01  9.9581190383782636e-01  1.0001775413622158e+00  9.9636607832729573e-01  9.8898401691406290e-01  9.8750727660591542e-01  9.7575391769395492e-01  9.6741445048159935e-01  9.5864617316175360e-01  9.5150661144116888e-01  9.4755010363584669e-01  9.4642983657035362e-01  9.4255453545290491e-01  9.4637173825359711e-01  9.5100057500812341e-01  9.5296947257107856e-01  9.5792031640585040e-01  9.5796397705396452e-01  9.5917277123362410e-01  9.6710106495750292e-01  9.6749212104271498e-01  9.7216538758793769e-01  9.7176664684923564e-01  9.6975105282054908e-01  9.7116138528845286e-01  9.7308794040069146e-01  9.7418810905454634e-01  9.7874802226873769e-01  9.8104486061519258e-01  9.8107169440148589e-01  9.8855285356579814e-01  9.8351625996862158e-01  9.9327149286477678e-01  9.8739245992783575e-01  9.9710327374509078e-01  9.9040903220794396e-01  1.0012637259429025e+00  9.9461637094180155e-01  1.0048402371453029e+00  1.0021352612421366e+00  1.0060826877052382e+00  1.0112700341184557e+00  1.0068021283719297e+00  1.0198191659825002e+00  1.0069916035760131e+00  1.0261681121351804e+00  1.0071567422054919e+00  1.0269979310613129e+00  1.0061851813236571e+00  1.0212509217366512e+00  1.0030587327947809e+00  1.0070873331138601e+00  9.9625032459865059e-01  9.8641049935951797e-01  9.8505265628474403e-01  9.6306715167981360e-01  9.7506189609964022e-01  9.4914505794769044e-01  9.7511443948291610e-01  9.5566802368212322e-01  9.8804102308118491e-01  9.7022127283909454e-01  9.8918682262722801e-01  9.6540041753738226e-01  9.6899827299128549e-01  9.5166827894875516e-01  9.5585209177221453e-01  9.4769513347734047e-01  9.5808677908896711e-01  9.4417172240313341e-01  9.6410396564544443e-01  9.3996787200554488e-01  9.7536561098001417e-01  9.3780489573471981e-01  9.9725386749190958e-01  9.5046868886418978e-01  1.0205329270723222e+00  9.4626254156118195e-01  1.0286395321889672e+00  9.4427793504687407e-01  1.0659490580855937e+00  1.0214071248480183e+00  1.1371928786574999e+00  1.0924013682187295e+00  1.1281269149251689e+00  1.0595964932400359e+00  1.0184228973786238e+00  1.0220941814160156e+00  1.0778816846575574e+00  1.0378024396832559e+00  1.0463240301033818e+00  1.0209417502535851e+00  1.1035121731546220e+00  1.0745491179388444e+00  1.0904346602249975e+00  1.0499454079259407e+00  1.0452338873473641e+00  1.0208814731521487e+00  1.0791484233398347e+00  1.1218774336309085e+00  1.0646608209405437e+00  9.8472748675333244e-01  9.8102753076086391e-01  9.8625568420787701e-01  9.9406144115372630e-01  9.9712875125602451e-01  9.9155957434183351e-01  9.8288374193790617e-01  9.7057921583763274e-01  9.6262846713525241e-01  9.5679729905100319e-01  9.5125385657282435e-01  9.4884965444601466e-01  9.5064767700913277e-01  9.5288358429862829e-01  9.5997649562670295e-01  9.6346897212354832e-01  9.6775469258704661e-01  9.7313464504926639e-01  9.7384024065365160e-01  9.7445493730224608e-01  9.7103810620755659e-01  9.6338018148377957e-01  9.6196331761555665e-01  9.5723204416814267e-01  9.5901309275987268e-01  9.6202139701685851e-01  9.6415278906011115e-01  9.6941742710296674e-01  9.7468194130297170e-01  9.7691272577156396e-01  9.8397380334123674e-01  9.8463193703928498e-01  9.8767561563923856e-01  9.8984768455785277e-01  9.8875653149966358e-01  9.9190086468911642e-01  9.9035165364450062e-01  9.9346137858888539e-01  9.9008858594050664e-01  9.9624458758585488e-01  9.8910366833745278e-01  9.9787207430529923e-01  9.8951772041688923e-01  9.9681659805849621e-01  9.9020126788241947e-01  9.9270451587123498e-01  9.9044120517224210e-01  9.8612557724460859e-01  9.9104159748558995e-01  9.7676233400610868e-01  9.9158080523647962e-01  9.6829134738229861e-01  9.8918288488891781e-01  9.6307677163884342e-01  9.8337511085166940e-01  9.6259552913007240e-01  9.7136204888580546e-01  9.6428453263193403e-01  9.5381833395734883e-01  9.6945434026518562e-01  9.4093022697006523e-01  9.8805872041030574e-01  9.4566297455798076e-01  1.0079255953520403e+00  9.4439269733660158e-01  9.9626399274021538e-01  9.2604383869098184e-01  9.7267525243267816e-01  9.3032740673745240e-01  9.6753106598090222e-01  9.6045763677355656e-01  9.7502093831118219e-01  9.9010771857675228e-01  9.7933889150931552e-01  9.9687450076614947e-01  9.5850401938512098e-01  9.7305291425633078e-01  9.4447255494219096e-01  9.8075626413056416e-01  9.9196556862009166e-01  1.0911528630864542e+00  1.0780149149310485e+00  1.1250424413976390e+00  1.0019392587640530e+00  1.1117341479019511e+00  1.0648973681698786e+00  1.0766687258078025e+00  1.0015182215013319e+00  1.0220941814126601e+00  1.0450689076116590e+00  1.1032950715083538e+00  1.1073243313222418e+00  1.1408243468282315e+00  1.1126337302996199e+00  1.0499454079259380e+00  1.0300533183966336e+00  1.0271816862011767e+00  1.0376702437267851e+00  1.0280328479458722e+00  1.0606728835236656e+00  1.1052370625376360e+00  1.0293992543305666e+00  9.7637741844528869e-01  9.7591623157311747e-01  9.7864048613355892e-01  9.7845177639657710e-01  9.8192540808807727e-01  9.8039144397064282e-01  9.8019472480576275e-01  9.7927928205969050e-01  9.7258160056763443e-01  9.7011379523336660e-01  9.6620425115809516e-01  9.6454084470540535e-01  9.6808307183546560e-01  9.6954175855700031e-01  9.7305719776409871e-01  9.7608832776193222e-01  9.7828901574116944e-01  9.7457202131560161e-01  9.7337638175730112e-01  9.6496531737724545e-01  9.6124606213045360e-01  9.5929446255060191e-01  9.5815776852345658e-01  9.5965329519849774e-01  9.6400460294601675e-01  9.6319991429375607e-01  9.6851677170898176e-01  9.7098894287515247e-01  9.7052333716592287e-01  9.7798205595463994e-01  9.7326754576992558e-01  9.8048154127139697e-01  9.7543508601281115e-01  9.8145577808114670e-01  9.7387980090961668e-01  9.8153645397146938e-01  9.7029700678243003e-01  9.7726612744238017e-01  9.6794691875018279e-01  9.6993485522045808e-01  9.6526736044291883e-01  9.6175999382971444e-01  9.6149158896377884e-01  9.5435895725469089e-01  9.5822453370489080e-01  9.4803235426535970e-01  9.5579638412410950e-01  9.4435167606780990e-01  9.5434551156867686e-01  9.4425330896233584e-01  9.5562224567795284e-01  9.4790197966925260e-01  9.6213168340636990e-01  9.5446870524615102e-01  9.7294088374520649e-01  9.6204321091860534e-01  9.8424025629299849e-01  9.6506141769521037e-01  9.8503208531670083e-01  9.5920682926317602e-01  9.7311913394578342e-01  9.6020087742899463e-01  9.7102389108581355e-01  9.8618261051792666e-01  9.7507220686978280e-01  1.0030110980662856e+00  9.4797420846281222e-01  9.9530755100727641e-01  9.1746963546110349e-01  1.0008520698138632e+00  9.0887673155415527e-01  1.0103727291366602e+00  9.1629512250919831e-01  1.0154241772290260e+00  9.3283009465325217e-01  1.0091604503916765e+00  9.3733171928777403e-01  1.0059249681751903e+00  1.0256374448283112e+00  1.1131162160323820e+00  1.1140100700208526e+00  1.0671873686619004e+00  9.9972375252877355e-01  9.7655720528782319e-01  1.0145844387622869e+00  1.1602187407749387e+00  1.0766687258075196e+00  1.0184228973794760e+00  9.5119125263514892e-01  1.0884099158770941e+00  1.2450154383073999e+00  1.1296761022795541e+00  1.1053850874208246e+00  1.0452338873473601e+00  1.0271816862011791e+00  9.7649001140305347e-01  1.0173613106108923e+00  1.0038766555734238e+00  1.0138476414159272e+00  1.0801590327760833e+00  1.0813692429825479e+00  9.9713703942520548e-01  9.6245860700004937e-01  9.7017503433093910e-01  9.7278042775223961e-01  9.7739878841259742e-01  9.8591771891714974e-01  9.8839164881011188e-01  9.8705189820793249e-01  9.8075666221722102e-01  9.7681447888777273e-01  9.7883549848058338e-01  9.8279073182868804e-01  9.8510336267969123e-01  9.8918283496525838e-01  9.8714381571749732e-01  9.8416268299025755e-01  9.7871358065592129e-01  9.6796215743375003e-01  9.6263912881485358e-01  9.5978821604294551e-01  9.5904604145751582e-01  9.6594311745831851e-01  9.6696588639068215e-01  9.6991537416034568e-01  9.7152128778572366e-01  9.6883656043670530e-01  9.6862637675692254e-01  9.6867033233726041e-01  9.6426875365604969e-01  9.6731151112370650e-01  9.6409646981533503e-01  9.6479350179561640e-01  9.6653013407549548e-01  9.6540564215692426e-01  9.6760485039946798e-01  9.6633735491377426e-01  9.6930487494311557e-01  9.6396940430295930e-01  9.7157021841241220e-01  9.5964000091230706e-01  9.7161957488224149e-01  9.5781293881268947e-01  9.6961474975350292e-01  9.5761594049076615e-01  9.6704022706875148e-01  9.5945922812415207e-01  9.6243687153253865e-01  9.6454598252256052e-01  9.5654267326547748e-01  9.7035381277008104e-01  9.5173329574189025e-01  9.7383124090959217e-01  9.4941136913687885e-01  9.7385072118649330e-01  9.5076061597552020e-01  9.7210368170749439e-01  9.5740414530637441e-01  9.7268404622440918e-01  9.6909638510181328e-01  9.7459485909138910e-01  9.7086901609468423e-01  9.6824099808426933e-01  9.5832993332790795e-01  9.7372691703682401e-01  9.6766060220095262e-01  1.0134624641435308e+00  9.8792530360746245e-01  1.0331329821329549e+00  9.7016319780729199e-01  1.0131236321823576e+00  9.5043737397910399e-01  9.9297633061025525e-01  9.4043928374387009e-01  9.5886218058160133e-01  9.3252528274745428e-01  9.3872744178546685e-01  9.7618141296150851e-01  1.0310357533785948e+00  1.1143110141846835e+00  1.1037637708725681e+00  1.0779260646494115e+00  1.0015081114176665e+00  9.9896956101985934e-01  9.8413393917719949e-01  1.0131804273023644e+00  1.0145844387624050e+00  1.0648973681697895e+00  1.0595964932410487e+00  1.1114203101382674e+00  1.1074825861868949e+00  1.2125544289306871e+00  1.1567098047970548e+00  1.0781569968189568e+00  1.0208814731521474e+00  1.0376702437267828e+00  1.0173613106108901e+00  1.0531890696359651e+00  1.0155380545439945e+00  9.9719503936083165e-01  1.0039227561801729e+00  1.0742214826664764e+00  1.0502983357436877e+00  9.7856599534747535e-01  9.6444363266033906e-01  9.7154902297841839e-01  9.7453318539356559e-01  9.7112157459298809e-01  9.7291963588025132e-01  9.7690973684614357e-01  9.8650846320023944e-01  9.9877670495093995e-01  1.0074508669306499e+00  1.0077566209012772e+00  1.0093159363409836e+00  1.0007899297901033e+00  9.9150487193050163e-01  9.7932296108913830e-01  9.6880645011012212e-01  9.6478967517744751e-01  9.6905442491693072e-01  9.7279248034682075e-01  9.7880201108522025e-01  9.7975405481609779e-01  9.7925700649074876e-01  9.7482846614166119e-01  9.7460257158845487e-01  9.6822091370224583e-01  9.6704286241183579e-01  9.6534913959936131e-01  9.6035373477455277e-01  9.6398223710950048e-01  9.6053459385657980e-01  9.6389259132683425e-01  9.6306029222649159e-01  9.6824760537955790e-01  9.6372578125426522e-01  9.7422311842917775e-01  9.6645076452043632e-01  9.7615101416778949e-01  9.7197383681498262e-01  9.7710281458890014e-01  9.7599783060131118e-01  9.7941946954425430e-01  9.7755519598807294e-01  9.8091001229423225e-01  9.7939987084560942e-01  9.8107974200568415e-01  9.8068391622456508e-01  9.8182187107346852e-01  9.8034146597685456e-01  9.8128601667258830e-01  9.8082164638668790e-01  9.7647200261694433e-01  9.8301307608466459e-01  9.6793939448744881e-01  9.8605196183553945e-01  9.5791667555021975e-01  9.8883453312522795e-01  9.5146465876023734e-01  9.9398170077106185e-01  9.6046502966580460e-01  1.0072070977675698e+00  9.7969740717980569e-01  1.0071244073524408e+00  9.7744870026754593e-01  9.8169405876862970e-01  9.7330087892505923e-01  9.8311566770464631e-01  9.9315834198362551e-01  9.9787818858376209e-01  9.8020636915235859e-01  9.8856358101493125e-01  9.4682090269530106e-01  1.0011244392883722e+00  9.3390180853633586e-01  1.0208761362498295e+00  9.2247254982496252e-01  1.0650943946255487e+00  9.9727096968149209e-01  1.1450713644313548e+00  1.0191280547934787e+00  1.0833648203629840e+00  9.6042584322386038e-01  1.0231753719689551e+00  9.1679909962000183e-01  9.8413393917731462e-01  9.7655720528704870e-01  1.1117341479008696e+00  1.1281269149251738e+00  1.1108204474649579e+00  1.0292289434827784e+00  1.0453455434300272e+00  1.1036377209225932e+00  1.1272257753317907e+00  1.0791484233398374e+00  1.0280328479458785e+00  1.0038766555734220e+00  1.0155380545439963e+00  1.0025406671052854e+00  1.0147108726610330e+00  9.8420186390734010e-01  1.0235417841778951e+00  1.0933103024496356e+00  1.0221858401034900e+00  9.6075578072410872e-01  9.6112629858822562e-01  9.6015355385729595e-01  9.6330995040694978e-01  9.6998198456088147e-01  9.8806888662881742e-01  1.0062259341916082e+00  1.0188837131787318e+00  1.0244858048389938e+00  1.0183381670164344e+00  1.0080864821966486e+00  9.9262135339145252e-01  9.8110056226381037e-01  9.7721075225052156e-01  9.8062527619077777e-01  9.8554334670429977e-01  9.8877355719597471e-01  9.8740202866624671e-01  9.8185207879331693e-01  9.7898410567777883e-01  9.7430688291761480e-01  9.7091659730937718e-01  9.6988209420580174e-01  9.6701555856968202e-01  9.6600718534415497e-01  9.7019568880648166e-01  9.6661464324594493e-01  9.7266157082070792e-01  9.7114232617921381e-01  9.7172366275601119e-01  9.7357440946395135e-01  9.7273243621493477e-01  9.7298437816009198e-01  9.7414004829601475e-01  9.7546367304428838e-01  9.7230614286166339e-01  9.8193728604233532e-01  9.7101776930662231e-01  9.8547252667326446e-01  9.7245365604142364e-01  9.8667500700565991e-01  9.7343325943710834e-01  9.8640881340227993e-01  9.7452642392831823e-01  9.8256831585697346e-01  9.7716611708160195e-01  9.7647753865749976e-01  9.8066530284740971e-01  9.7237199531071239e-01  9.8384876967625468e-01  9.7199633138467201e-01  9.8759560248251499e-01  9.7441567343354374e-01  9.9152386368284395e-01  9.7865801530004104e-01  9.9467431592675315e-01  9.7719959702036252e-01  9.9656232045653070e-01  9.7285339248970759e-01  1.0134689152756964e+00  9.8557547630693487e-01  1.0395242484804419e+00  9.8883180961539874e-01  1.0289623415045517e+00  9.6908903580650385e-01  1.0109481582008069e+00  9.8122140504640698e-01  1.0029422924029252e+00  9.8042207107963708e-01  9.5153467038947415e-01  9.5584864939809888e-01  9.1363242859006333e-01  9.6879512948148672e-01  9.7657130340242149e-01  1.1053203105590121e+00  1.1188153528096410e+00  1.1384917772118912e+00  1.0099632278537991e+00  9.5789998242820118e-01  9.3008173712121367e-01  9.3945634434119107e-01  1.0231753719707484e+00  9.9896956101826073e-01  9.9972375253009771e-01  1.0019392587645402e+00  1.0924013682195788e+00  1.2492996288922997e+00  1.1586502409414066e+00  9.9991656147517838e-01  1.0316576706467107e+00  1.0925596852908421e+00  1.1218774336309116e+00  1.0606728835236692e+00  1.0138476414159274e+00  9.9719503936082832e-01  1.0147108726610343e+00  1.0523183625085508e+00  1.0245114839163811e+00  9.8373622045824505e-01  1.0469230937269769e+00  1.0665348492251467e+00  9.8003865609072693e-01  9.5043508676754351e-01  9.6170527280434137e-01  9.7163080333815965e-01  9.8912692159572257e-01  9.9751267953659828e-01  1.0043039934172282e+00  1.0057450390305076e+00  1.0061474563359043e+00  1