<?xml version="1.0"?>
<VTKFile type="UnstructuredGrid"  version="0.1"  >
<UnstructuredGrid>
<Piece  NumberOfPoints="10201" NumberOfCells="20000">
<Points>
<DataArray  type="Float64"  NumberOfComponents="3"  format="ascii">-5 -5 0  -4.9 -5 0  -4.8 -5 0  -4.7 -5 0  -4.6 -5 0  -4.5 -5 0  -4.4 -5 0  -4.3 -5 0  -4.2 -5 0  -4.1 -5 0  -4 -5 0  -3.9 -5 0  -3.8 -5 0  -3.7 -5 0  -3.6 -5 0  -3.5 -5 0  -3.4 -5 0  -3.3 -5 0  -3.2 -5 0  -3.1 -5 0  -3 -5 0  -2.9 -5 0  -2.8 -5 0  -2.7 -5 0  -2.6 -5 0  -2.5 -5 0  -2.4 -5 0  -2.3 -5 0  -2.2 -5 0  -2.1 -5 0  -2 -5 0  -1.9 -5 0  -1.8 -5 0  -1.7 -5 0  -1.6 -5 0  -1.5 -5 0  -1.4 -5 0  -1.3 -5 0  -1.2 -5 0  -1.1 -5 0  -1 -5 0  -0.9000000000000004 -5 0  -0.7999999999999998 -5 0  -0.7000000000000002 -5 0  -0.5999999999999996 -5 0  -0.5 -5 0  -0.4000000000000004 -5 0  -0.2999999999999998 -5 0  -0.2000000000000002 -5 0  -0.09999999999999964 -5 0  0 -5 0  0.09999999999999964 -5 0  0.2000000000000002 -5 0  0.2999999999999998 -5 0  0.4000000000000004 -5 0  0.5 -5 0  0.5999999999999996 -5 0  0.7000000000000002 -5 0  0.7999999999999998 -5 0  0.9000000000000004 -5 0  1 -5 0  1.1 -5 0  1.2 -5 0  1.3 -5 0  1.4 -5 0  1.5 -5 0  1.6 -5 0  1.7 -5 0  1.8 -5 0  1.9 -5 0  2 -5 0  2.1 -5 0  2.2 -5 0  2.3 -5 0  2.4 -5 0  2.5 -5 0  2.6 -5 0  2.7 -5 0  2.8 -5 0  2.9 -5 0  3 -5 0  3.1 -5 0  3.199999999999999 -5 0  3.300000000000001 -5 0  3.4 -5 0  3.5 -5 0  3.6 -5 0  3.699999999999999 -5 0  3.800000000000001 -5 0  3.9 -5 0  4 -5 0  4.1 -5 0  4.199999999999999 -5 0  4.300000000000001 -5 0  4.4 -5 0  4.5 -5 0  4.6 -5 0  4.699999999999999 -5 0  4.800000000000001 -5 0  4.9 -5 0  5 -5 0  -5 -4.9 0  -4.9 -4.9 0  -4.8 -4.9 0  -4.7 -4.9 0  -4.6 -4.9 0  -4.5 -4.9 0  -4.4 -4.9 0  -4.3 -4.9 0  -4.2 -4.9 0  -4.1 -4.9 0  -4 -4.9 0  -3.9 -4.9 0  -3.8 -4.9 0  -3.7 -4.9 0  -3.6 -4.9 0  -3.5 -4.9 0  -3.4 -4.9 0  -3.3 -4.9 0  -3.2 -4.9 0  -3.1 -4.9 0  -3 -4.9 0  -2.9 -4.9 0  -2.8 -4.9 0  -2.7 -4.9 0  -2.6 -4.9 0  -2.5 -4.9 0  -2.4 -4.9 0  -2.3 -4.9 0  -2.2 -4.9 0  -2.1 -4.9 0  -2 -4.9 0  -1.9 -4.9 0  -1.8 -4.9 0  -1.7 -4.9 0  -1.6 -4.9 0  -1.5 -4.9 0  -1.4 -4.9 0  -1.3 -4.9 0  -1.2 -4.9 0  -1.1 -4.9 0  -1 -4.9 0  -0.9000000000000004 -4.9 0  -0.7999999999999998 -4.9 0  -0.7000000000000002 -4.9 0  -0.5999999999999996 -4.9 0  -0.5 -4.9 0  -0.4000000000000004 -4.9 0  -0.2999999999999998 -4.9 0  -0.2000000000000002 -4.9 0  -0.09999999999999964 -4.9 0  0 -4.9 0  0.09999999999999964 -4.9 0  0.2000000000000002 -4.9 0  0.2999999999999998 -4.9 0  0.4000000000000004 -4.9 0  0.5 -4.9 0  0.5999999999999996 -4.9 0  0.7000000000000002 -4.9 0  0.7999999999999998 -4.9 0  0.9000000000000004 -4.9 0  1 -4.9 0  1.1 -4.9 0  1.2 -4.9 0  1.3 -4.9 0  1.4 -4.9 0  1.5 -4.9 0  1.6 -4.9 0  1.7 -4.9 0  1.8 -4.9 0  1.9 -4.9 0  2 -4.9 0  2.1 -4.9 0  2.2 -4.9 0  2.3 -4.9 0  2.4 -4.9 0  2.5 -4.9 0  2.6 -4.9 0  2.7 -4.9 0  2.8 -4.9 0  2.9 -4.9 0  3 -4.9 0  3.1 -4.9 0  3.199999999999999 -4.9 0  3.300000000000001 -4.9 0  3.4 -4.9 0  3.5 -4.9 0  3.6 -4.9 0  3.699999999999999 -4.9 0  3.800000000000001 -4.9 0  3.9 -4.9 0  4 -4.9 0  4.1 -4.9 0  4.199999999999999 -4.9 0  4.300000000000001 -4.9 0  4.4 -4.9 0  4.5 -4.9 0  4.6 -4.9 0  4.699999999999999 -4.9 0  4.800000000000001 -4.9 0  4.9 -4.9 0  5 -4.9 0  -5 -4.8 0  -4.9 -4.8 0  -4.8 -4.8 0  -4.7 -4.8 0  -4.6 -4.8 0  -4.5 -4.8 0  -4.4 -4.8 0  -4.3 -4.8 0  -4.2 -4.8 0  -4.1 -4.8 0  -4 -4.8 0  -3.9 -4.8 0  -3.8 -4.8 0  -3.7 -4.8 0  -3.6 -4.8 0  -3.5 -4.8 0  -3.4 -4.8 0  -3.3 -4.8 0  -3.2 -4.8 0  -3.1 -4.8 0  -3 -4.8 0  -2.9 -4.8 0  -2.8 -4.8 0  -2.7 -4.8 0  -2.6 -4.8 0  -2.5 -4.8 0  -2.4 -4.8 0  -2.3 -4.8 0  -2.2 -4.8 0  -2.1 -4.8 0  -2 -4.8 0  -1.9 -4.8 0  -1.8 -4.8 0  -1.7 -4.8 0  -1.6 -4.8 0  -1.5 -4.8 0  -1.4 -4.8 0  -1.3 -4.8 0  -1.2 -4.8 0  -1.1 -4.8 0  -1 -4.8 0  -0.9000000000000004 -4.8 0  -0.7999999999999998 -4.8 0  -0.7000000000000002 -4.8 0  -0.5999999999999996 -4.8 0  -0.5 -4.8 0  -0.4000000000000004 -4.8 0  -0.2999999999999998 -4.8 0  -0.2000000000000002 -4.8 0  -0.09999999999999964 -4.8 0  0 -4.8 0  0.09999999999999964 -4.8 0  0.2000000000000002 -4.8 0  0.2999999999999998 -4.8 0  0.4000000000000004 -4.8 0  0.5 -4.8 0  0.5999999999999996 -4.8 0  0.7000000000000002 -4.8 0  0.7999999999999998 -4.8 0  0.9000000000000004 -4.8 0  1 -4.8 0  1.1 -4.8 0  1.2 -4.8 0  1.3 -4.8 0  1.4 -4.8 0  1.5 -4.8 0  1.6 -4.8 0  1.7 -4.8 0  1.8 -4.8 0  1.9 -4.8 0  2 -4.8 0  2.1 -4.8 0  2.2 -4.8 0  2.3 -4.8 0  2.4 -4.8 0  2.5 -4.8 0  2.6 -4.8 0  2.7 -4.8 0  2.8 -4.8 0  2.9 -4.8 0  3 -4.8 0  3.1 -4.8 0  3.199999999999999 -4.8 0  3.300000000000001 -4.8 0  3.4 -4.8 0  3.5 -4.8 0  3.6 -4.8 0  3.699999999999999 -4.8 0  3.800000000000001 -4.8 0  3.9 -4.8 0  4 -4.8 0  4.1 -4.8 0  4.199999999999999 -4.8 0  4.300000000000001 -4.8 0  4.4 -4.8 0  4.5 -4.8 0  4.6 -4.8 0  4.699999999999999 -4.8 0  4.800000000000001 -4.8 0  4.9 -4.8 0  5 -4.8 0  -5 -4.7 0  -4.9 -4.7 0  -4.8 -4.7 0  -4.7 -4.7 0  -4.6 -4.7 0  -4.5 -4.7 0  -4.4 -4.7 0  -4.3 -4.7 0  -4.2 -4.7 0  -4.1 -4.7 0  -4 -4.7 0  -3.9 -4.7 0  -3.8 -4.7 0  -3.7 -4.7 0  -3.6 -4.7 0  -3.5 -4.7 0  -3.4 -4.7 0  -3.3 -4.7 0  -3.2 -4.7 0  -3.1 -4.7 0  -3 -4.7 0  -2.9 -4.7 0  -2.8 -4.7 0  -2.7 -4.7 0  -2.6 -4.7 0  -2.5 -4.7 0  -2.4 -4.7 0  -2.3 -4.7 0  -2.2 -4.7 0  -2.1 -4.7 0  -2 -4.7 0  -1.9 -4.7 0  -1.8 -4.7 0  -1.7 -4.7 0  -1.6 -4.7 0  -1.5 -4.7 0  -1.4 -4.7 0  -1.3 -4.7 0  -1.2 -4.7 0  -1.1 -4.7 0  -1 -4.7 0  -0.9000000000000004 -4.7 0  -0.7999999999999998 -4.7 0  -0.7000000000000002 -4.7 0  -0.5999999999999996 -4.7 0  -0.5 -4.7 0  -0.4000000000000004 -4.7 0  -0.2999999999999998 -4.7 0  -0.2000000000000002 -4.7 0  -0.09999999999999964 -4.7 0  0 -4.7 0  0.09999999999999964 -4.7 0  0.2000000000000002 -4.7 0  0.2999999999999998 -4.7 0  0.4000000000000004 -4.7 0  0.5 -4.7 0  0.5999999999999996 -4.7 0  0.7000000000000002 -4.7 0  0.7999999999999998 -4.7 0  0.9000000000000004 -4.7 0  1 -4.7 0  1.1 -4.7 0  1.2 -4.7 0  1.3 -4.7 0  1.4 -4.7 0  1.5 -4.7 0  1.6 -4.7 0  1.7 -4.7 0  1.8 -4.7 0  1.9 -4.7 0  2 -4.7 0  2.1 -4.7 0  2.2 -4.7 0  2.3 -4.7 0  2.4 -4.7 0  2.5 -4.7 0  2.6 -4.7 0  2.7 -4.7 0  2.8 -4.7 0  2.9 -4.7 0  3 -4.7 0  3.1 -4.7 0  3.199999999999999 -4.7 0  3.300000000000001 -4.7 0  3.4 -4.7 0  3.5 -4.7 0  3.6 -4.7 0  3.699999999999999 -4.7 0  3.800000000000001 -4.7 0  3.9 -4.7 0  4 -4.7 0  4.1 -4.7 0  4.199999999999999 -4.7 0  4.300000000000001 -4.7 0  4.4 -4.7 0  4.5 -4.7 0  4.6 -4.7 0  4.699999999999999 -4.7 0  4.800000000000001 -4.7 0  4.9 -4.7 0  5 -4.7 0  -5 -4.6 0  -4.9 -4.6 0  -4.8 -4.6 0  -4.7 -4.6 0  -4.6 -4.6 0  -4.5 -4.6 0  -4.4 -4.6 0  -4.3 -4.6 0  -4.2 -4.6 0  -4.1 -4.6 0  -4 -4.6 0  -3.9 -4.6 0  -3.8 -4.6 0  -3.7 -4.6 0  -3.6 -4.6 0  -3.5 -4.6 0  -3.4 -4.6 0  -3.3 -4.6 0  -3.2 -4.6 0  -3.1 -4.6 0  -3 -4.6 0  -2.9 -4.6 0  -2.8 -4.6 0  -2.7 -4.6 0  -2.6 -4.6 0  -2.5 -4.6 0  -2.4 -4.6 0  -2.3 -4.6 0  -2.2 -4.6 0  -2.1 -4.6 0  -2 -4.6 0  -1.9 -4.6 0  -1.8 -4.6 0  -1.7 -4.6 0  -1.6 -4.6 0  -1.5 -4.6 0  -1.4 -4.6 0  -1.3 -4.6 0  -1.2 -4.6 0  -1.1 -4.6 0  -1 -4.6 0  -0.9000000000000004 -4.6 0  -0.7999999999999998 -4.6 0  -0.7000000000000002 -4.6 0  -0.5999999999999996 -4.6 0  -0.5 -4.6 0  -0.4000000000000004 -4.6 0  -0.2999999999999998 -4.6 0  -0.2000000000000002 -4.6 0  -0.09999999999999964 -4.6 0  0 -4.6 0  0.09999999999999964 -4.6 0  0.2000000000000002 -4.6 0  0.2999999999999998 -4.6 0  0.4000000000000004 -4.6 0  0.5 -4.6 0  0.5999999999999996 -4.6 0  0.7000000000000002 -4.6 0  0.7999999999999998 -4.6 0  0.9000000000000004 -4.6 0  1 -4.6 0  1.1 -4.6 0  1.2 -4.6 0  1.3 -4.6 0  1.4 -4.6 0  1.5 -4.6 0  1.6 -4.6 0  1.7 -4.6 0  1.8 -4.6 0  1.9 -4.6 0  2 -4.6 0  2.1 -4.6 0  2.2 -4.6 0  2.3 -4.6 0  2.4 -4.6 0  2.5 -4.6 0  2.6 -4.6 0  2.7 -4.6 0  2.8 -4.6 0  2.9 -4.6 0  3 -4.6 0  3.1 -4.6 0  3.199999999999999 -4.6 0  3.300000000000001 -4.6 0  3.4 -4.6 0  3.5 -4.6 0  3.6 -4.6 0  3.699999999999999 -4.6 0  3.800000000000001 -4.6 0  3.9 -4.6 0  4 -4.6 0  4.1 -4.6 0  4.199999999999999 -4.6 0  4.300000000000001 -4.6 0  4.4 -4.6 0  4.5 -4.6 0  4.6 -4.6 0  4.699999999999999 -4.6 0  4.800000000000001 -4.6 0  4.9 -4.6 0  5 -4.6 0  -5 -4.5 0  -4.9 -4.5 0  -4.8 -4.5 0  -4.7 -4.5 0  -4.6 -4.5 0  -4.5 -4.5 0  -4.4 -4.5 0  -4.3 -4.5 0  -4.2 -4.5 0  -4.1 -4.5 0  -4 -4.5 0  -3.9 -4.5 0  -3.8 -4.5 0  -3.7 -4.5 0  -3.6 -4.5 0  -3.5 -4.5 0  -3.4 -4.5 0  -3.3 -4.5 0  -3.2 -4.5 0  -3.1 -4.5 0  -3 -4.5 0  -2.9 -4.5 0  -2.8 -4.5 0  -2.7 -4.5 0  -2.6 -4.5 0  -2.5 -4.5 0  -2.4 -4.5 0  -2.3 -4.5 0  -2.2 -4.5 0  -2.1 -4.5 0  -2 -4.5 0  -1.9 -4.5 0  -1.8 -4.5 0  -1.7 -4.5 0  -1.6 -4.5 0  -1.5 -4.5 0  -1.4 -4.5 0  -1.3 -4.5 0  -1.2 -4.5 0  -1.1 -4.5 0  -1 -4.5 0  -0.9000000000000004 -4.5 0  -0.7999999999999998 -4.5 0  -0.7000000000000002 -4.5 0  -0.5999999999999996 -4.5 0  -0.5 -4.5 0  -0.4000000000000004 -4.5 0  -0.2999999999999998 -4.5 0  -0.2000000000000002 -4.5 0  -0.09999999999999964 -4.5 0  0 -4.5 0  0.09999999999999964 -4.5 0  0.2000000000000002 -4.5 0  0.2999999999999998 -4.5 0  0.4000000000000004 -4.5 0  0.5 -4.5 0  0.5999999999999996 -4.5 0  0.7000000000000002 -4.5 0  0.7999999999999998 -4.5 0  0.9000000000000004 -4.5 0  1 -4.5 0  1.1 -4.5 0  1.2 -4.5 0  1.3 -4.5 0  1.4 -4.5 0  1.5 -4.5 0  1.6 -4.5 0  1.7 -4.5 0  1.8 -4.5 0  1.9 -4.5 0  2 -4.5 0  2.1 -4.5 0  2.2 -4.5 0  2.3 -4.5 0  2.4 -4.5 0  2.5 -4.5 0  2.6 -4.5 0  2.7 -4.5 0  2.8 -4.5 0  2.9 -4.5 0  3 -4.5 0  3.1 -4.5 0  3.199999999999999 -4.5 0  3.300000000000001 -4.5 0  3.4 -4.5 0  3.5 -4.5 0  3.6 -4.5 0  3.699999999999999 -4.5 0  3.800000000000001 -4.5 0  3.9 -4.5 0  4 -4.5 0  4.1 -4.5 0  4.199999999999999 -4.5 0  4.300000000000001 -4.5 0  4.4 -4.5 0  4.5 -4.5 0  4.6 -4.5 0  4.699999999999999 -4.5 0  4.800000000000001 -4.5 0  4.9 -4.5 0  5 -4.5 0  -5 -4.4 0  -4.9 -4.4 0  -4.8 -4.4 0  -4.7 -4.4 0  -4.6 -4.4 0  -4.5 -4.4 0  -4.4 -4.4 0  -4.3 -4.4 0  -4.2 -4.4 0  -4.1 -4.4 0  -4 -4.4 0  -3.9 -4.4 0  -3.8 -4.4 0  -3.7 -4.4 0  -3.6 -4.4 0  -3.5 -4.4 0  -3.4 -4.4 0  -3.3 -4.4 0  -3.2 -4.4 0  -3.1 -4.4 0  -3 -4.4 0  -2.9 -4.4 0  -2.8 -4.4 0  -2.7 -4.4 0  -2.6 -4.4 0  -2.5 -4.4 0  -2.4 -4.4 0  -2.3 -4.4 0  -2.2 -4.4 0  -2.1 -4.4 0  -2 -4.4 0  -1.9 -4.4 0  -1.8 -4.
[...]
<PointData  Scalars="r"> 
<DataArray  type="Float64"  Name="r"  format="ascii">9.9998213160660609e-01  9.9999957207827739e-01  9.9997918101211325e-01  9.9998777637120517e-01  9.9998047159823711e-01  9.9999624661946207e-01  1.0000123414719067e+00  1.0000527674997148e+00  1.0000905540227987e+00  1.0001257665567207e+00  1.0001391435652245e+00  1.0001213771477282e+00  1.0000688832166846e+00  1.0000229636683158e+00  1.0000090632759442e+00  1.0000226332433158e+00  1.0000551011526242e+00  1.0000750687224822e+00  1.0000255525079715e+00  9.9993707824499434e-01  9.9991805908655262e-01  9.9999407969913501e-01  1.0001056107758048e+00  1.0001990215708512e+00  1.0002118176724892e+00  1.0001436916540747e+00  1.0001218525680446e+00  1.0001862680172506e+00  1.0001998983297360e+00  1.0001075513164825e+00  1.0000045516611700e+00  9.9996874448965400e-01  1.0000152010393895e+00  1.0000611111783546e+00  9.9999492198395101e-01  9.9992044905427191e-01  9.9999199810679174e-01  1.0000691568922861e+00  1.0000033649746138e+00  9.9994028280333680e-01  9.9999084607688360e-01  1.0000483677613445e+00  1.0000196661723761e+00  9.9995083592185130e-01  9.9997212165851834e-01  1.0000636725918606e+00  1.0000205758519400e+00  9.9991849650766551e-01  1.0000078142158373e+00  1.0000846396664640e+00  9.9995228749599496e-01  9.9993918092776513e-01  1.0000778239569146e+00  1.0000147583558512e+00  9.9992083659723308e-01  1.0000325639378753e+00  1.0000493721161376e+00  9.9994246909428564e-01  9.9999455942640902e-01  1.0000503614845362e+00  9.9997196761466900e-01  9.9997866198766827e-01  1.0000359573206234e+00  9.9999198020530966e-01  9.9997840979757113e-01  1.0000210177386029e+00  1.0000009947702453e+00  9.9998402684700682e-01  1.0000109080279416e+00  1.0000032845243352e+00  9.9998991889558275e-01  1.0000052865251745e+00  1.0000029563042243e+00  9.9999403862862724e-01  1.0000027556041318e+00  1.0000016855974005e+00  9.9999700702548122e-01  1.0000010550487384e+00  1.0000014191423261e+00  9.9999774399195973e-01  1.0000014601214600e+00  9.9999960002573263e-01  1.0000001711669844e+00  9.9999918833905355e-01  1.0000016726497085e+00  9.9999781127840737e-01  1.0000022789648564e+00  9.9999778590357635e-01  1.0000022691805561e+00  9.9999749537882532e-01  1.0000028080065309e+00  9.9999699733985603e-01  1.0000030724123692e+00  9.9999707981478325e-01  1.0000028846691358e+00  9.9999750888257832e-01  1.0000027655764343e+00  9.9999803338350579e-01  1.0000029334245351e+00  9.9999870137310354e-01  1.0000034941533591e+00  9.9999957207828072e-01  1.0000122716525606e+00  1.0000078461740300e+00  1.0000183534885685e+00  1.0000128284162433e+00  1.0000117895705243e+00  9.9999344124552825e-01  9.9996794659049038e-01  9.9992734178405862e-01  9.9989526633694026e-01  9.9987242165132173e-01  9.9987480806905948e-01  9.9990988610232090e-01  9.9995977996108787e-01  9.9998435849786971e-01  9.9998325356633788e-01  9.9996817022363649e-01  9.9994610258550953e-01  9.9995976560602595e-01  1.0000326963144548e+00  1.0000833538593279e+00  1.0000419255420505e+00  9.9995083219691194e-01  9.9986159624458948e-01  9.9980544829727491e-01  9.9982432321272396e-01  9.9986487495556164e-01  9.9983227270501518e-01  9.9979243819113461e-01  9.9984849497788197e-01  9.9994622699613767e-01  1.0000047874044120e+00  1.0000064756896576e+00  9.9996455354409342e-01  9.9996967779958279e-01  1.0000466276720770e+00  1.0000467235766015e+00  9.9996091711962443e-01  9.9996481525227132e-01  1.0000365355585468e+00  1.0000298286010425e+00  9.9997717185208546e-01  9.9996957682180454e-01  1.0000124381281690e+00  1.0000415286128554e+00  9.9998463787056846e-01  9.9994702321746165e-01  1.0000352439390177e+00  1.0000498894117213e+00  9.9993820585083470e-01  9.9997579805676984e-01  1.0000760526428494e+00  9.9998357132129834e-01  9.9993615183058460e-01  1.0000515822423832e+00  1.0000275519406554e+00  9.9993810591178889e-01  1.0000141439235142e+00  1.0000432461150939e+00  9.9996086380621796e-01  9.9999032912884167e-01  1.0000374605858100e+00  9.9998252461512349e-01  9.9998303907415409e-01  1.0000249235985110e+00  9.9999527452055048e-01  9.9998495707069834e-01  1.0000142434910586e+00  1.0000004595631300e+00  9.9998954914591720e-01  1.0000074342481415e+00  1.0000017089045643e+00  9.9999352525305463e-01  1.0000038901465538e+00  1.0000012576152386e+00  9.9999652410955708e-01  1.0000017680294506e+00  1.0000010777554023e+00  9.9999771014129979e-01  1.0000014950504645e+00  9.9999984970342015e-01  9.9999964164340405e-01  9.9999983210186538e-01  1.0000010282426954e+00  9.9999847536153130e-01  1.0000015079276634e+00  9.9999872274119816e-01  1.0000011716759150e+00  9.9999870576034078e-01  1.0000015198256407e+00  9.9999832043756387e-01  1.0000016751980163e+00  9.9999842243643045e-01  1.0000013752217987e+00  9.9999867054984559e-01  1.0000010356725815e+00  9.9999873186753263e-01  1.0000005617186003e+00  9.9999871391042361e-01  9.9999970574137387e-01  9.9999870137310720e-01  9.9997918101211292e-01  1.0000078461740316e+00  9.9998166210363482e-01  9.9999571626325456e-01  9.9997992880981035e-01  9.9999479709960803e-01  9.9999551509965012e-01  1.0000228461930210e+00  1.0000503013705078e+00  1.0000894317767548e+00  1.0001100321865477e+00  1.0001224121445573e+00  1.0001037108027966e+00  1.0000592919132190e+00  1.0000204647968247e+00  1.0000135531290637e+00  1.0000170538884410e+00  1.0000279881555947e+00  1.0000355205630140e+00  9.9999174822264802e-01  9.9991832917617318e-01  9.9991431780578099e-01  9.9998587248026338e-01  1.0000646026691939e+00  1.0001317375770169e+00  1.0001613074713203e+00  1.0001374907061193e+00  1.0001461638345137e+00  1.0002059706813442e+00  1.0001963107012499e+00  1.0001043367136482e+00  1.0000317229480724e+00  1.0000050640260880e+00  1.0000177429188055e+00  1.0000371055361117e+00  9.9998898899454125e-01  9.9994318030280671e-01  1.0000041530388726e+00  1.0000473769227740e+00  9.9998618914658499e-01  9.9996085502598120e-01  1.0000090984800607e+00  1.0000275140036283e+00  1.0000019497101875e+00  9.9997210296500538e-01  9.9998817561698006e-01  1.0000410451465764e+00  1.0000072157434599e+00  9.9994394863177749e-01  1.0000158880466388e+00  1.0000561015150569e+00  9.9995356612516684e-01  9.9996754913749808e-01  1.0000643700139420e+00  9.9999343352025150e-01  9.9994437447202955e-01  1.0000399369956088e+00  1.0000237673277028e+00  9.9995075612916795e-01  1.0000120034961637e+00  1.0000324185294429e+00  9.9996869414761946e-01  9.9999567514082044e-01  1.0000272438758473e+00  9.9998429537653555e-01  9.9999062316688103e-01  1.0000183661878077e+00  9.9999350543381216e-01  9.9999155454150557e-01  1.0000108577132731e+00  9.9999784470747233e-01  9.9999399794758892e-01  1.0000062103354892e+00  9.9999910958613036e-01  9.9999672271559636e-01  1.0000029081559678e+00  1.0000002111848827e+00  9.9999745244835248e-01  1.0000025258561076e+00  9.9999884089740187e-01  1.0000002328583888e+00  9.9999946853274024e-01  1.0000015741489736e+00  9.9999751698718220e-01  1.0000028281546034e+00  9.9999721651835416e-01  1.0000027489934493e+00  9.9999705135338557e-01  1.0000033217131250e+00  9.9999633311726954e-01  1.0000038397667035e+00  9.9999618776579047e-01  1.0000036858067307e+00  9.9999652978098119e-01  1.0000033571678830e+00  9.9999699354317395e-01  1.0000030521453138e+00  9.9999773083752086e-01  1.0000027900525694e+00  9.9999871391042006e-01  1.0000029334245364e+00  9.9998777637120828e-01  1.0000183534885703e+00  9.9999571626325534e-01  1.0000188494199136e+00  1.0000045344463508e+00  1.0000158541270945e+00  9.9999479498238986e-01  9.9998838923258737e-01  9.9995267035065460e-01  9.9992387592451271e-01  9.9989492552692794e-01  9.9989163822866767e-01  9.9989780862338562e-01  9.9993678021977117e-01  9.9998148594456160e-01  9.9999446552458870e-01  9.9998178770304680e-01  9.9998097045618994e-01  9.9998325842377089e-01  1.0000078584524035e+00  1.0000806970379645e+00  1.0001224003756413e+00  1.0000646405361870e+00  9.9998376553729063e-01  9.9993893536462486e-01  9.9990764753568273e-01  9.9990043262329165e-01  9.9988962868036080e-01  9.9981717847465368e-01  9.9977557789873683e-01  9.9985287659664479e-01  9.9994136894784935e-01  9.9996485374979149e-01  9.9996853926164586e-01  9.9996779981087325e-01  9.9999325875430245e-01  1.0000463144076528e+00  1.0000201258865182e+00  9.9995398351033182e-01  9.9999409242314052e-01  1.0000478218125244e+00  9.9999980126080912e-01  9.9996615746516038e-01  1.0000000016631250e+00  1.0000223831372099e+00  1.0000109767499261e+00  9.9997634043802275e-01  9.9997972555174663e-01  1.0000392743201358e+00  1.0000134694842171e+00  9.9994422256913751e-01  1.0000128425712327e+00  1.0000546447304224e+00  9.9995514830235821e-01  9.9997167283738042e-01  1.0000606398726994e+00  9.9998867929194513e-01  9.9995224112592529e-01  1.0000409092311624e+00  1.0000140992146767e+00  9.9995621208264018e-01  1.0000181772437007e+00  1.0000227250308746e+00  9.9996975446177438e-01  1.0000037709636769e+00  1.0000204141527751e+00  9.9998229725639753e-01  9.9999794320006219e-01  1.0000144041267567e+00  9.9999071561919450e-01  9.9999671066864204e-01  1.0000092081708911e+00  9.9999491799044826e-01  9.9999794373013506e-01  1.0000047193721056e+00  9.9999807787262418e-01  9.9999780663013027e-01  1.0000038106154379e+00  9.9999737345064599e-01  1.0000008325082108e+00  9.9999964513619088e-01  1.0000013575104865e+00  9.9999723434484766e-01  1.0000035909598726e+00  9.9999632851895937e-01  1.0000034706594823e+00  9.9999653092179874e-01  1.0000037817719827e+00  9.9999579839407637e-01  1.0000044637903069e+00  9.9999554331618412e-01  1.0000042289096558e+00  9.9999606918486739e-01  1.0000035947403412e+00  9.9999662992421701e-01  1.0000029300839508e+00  9.9999717208006678e-01  1.0000019287298108e+00  9.9999773083752541e-01  1.0000005617185996e+00  9.9999803338351101e-01  9.9998047159823544e-01  1.0000128284162413e+00  9.9997992880980813e-01  1.0000045344463533e+00  9.9998097266942576e-01  9.9999918754751460e-01  9.9999393697920458e-01  1.0000215675734920e+00  1.0000332898107522e+00  1.0000740682916840e+00  1.0000945837982258e+00  1.0001033072439549e+00  1.0000867735512062e+00  1.0000629495851410e+00  1.0000127667984737e+00  9.9998721618585218e-01  1.0000060386278435e+00  1.0000208419589620e+00  1.0000032583609586e+00  9.9998084243642515e-01  9.9992653108933460e-01  9.9985669113339659e-01  9.9987806632840137e-01  9.9997258383225640e-01  1.0000161586463263e+00  1.0000162387372089e+00  1.0000280148293639e+00  1.0000496263226342e+00  1.0001249877971241e+00  1.0002231147420311e+00  1.0001967639111271e+00  1.0000861003792461e+00  1.0000515561698544e+00  1.0000640367294320e+00  1.0000485333430851e+00  1.0000163911190330e+00  9.9996606402543886e-01  9.9996206965827616e-01  1.0000366174977000e+00  1.0000331345089455e+00  9.9994820375040805e-01  9.9997373648032228e-01  1.0000472798818201e+00  1.0000132791837446e+00  9.9996515013194265e-01  9.9998724322678489e-01  1.0000241000628807e+00  1.0000228462091176e+00  9.9997110175030490e-01  9.9997073407833048e-01  1.0000484032249550e+00  1.0000159401617492e+00  9.9993489215992581e-01  1.0000178578771060e+00  1.0000584486529860e+00  9.9994692738931767e-01  9.9997605770133735e-01  1.0000649050078483e+00  9.9997976520188192e-01  9.9995603241836573e-01  1.0000469100071627e+00  1.0000049456886482e+00  9.9995804440103009e-01  1.0000254597342695e+00  1.0000150346987080e+00  9.9996937613033832e-01  1.0000109513716191e+00  1.0000148124993229e+00  9.9998092892320645e-01  1.0000034955134864e+00  1.0000112212012271e+00  9.9998858858699957e-01  1.0000014028635507e+00  1.0000063224089395e+00  9.9999461731997563e-01  9.9999926934676808e-01  1.0000051664445471e+00  9.9999506876510369e-01  1.0000021195917574e+00  9.9999971079384631e-01  1.0000009281036517e+00  9.9999702102183563e-01  1.0000046443509465e+00  9.9999489802469765e-01  1.0000047761827515e+00  9.9999548168647545e-01  1.0000047731716222e+00  9.9999461861646333e-01  1.0000059156322185e+00  9.9999391413211269e-01  1.0000058959374551e+00  9.9999447785019757e-01  1.0000051594827932e+00  9.9999518170723933e-01  1.0000045702368130e+00  9.9999592351892919e-01  1.0000038417367423e+00  9.9999717208006356e-01  1.0000030521453109e+00  9.9999873186753374e-01  1.0000027655764281e+00  9.9999624661945896e-01  1.0000117895705209e+00  9.9999479709960837e-01  1.0000158541270940e+00  9.9999918754751549e-01  1.0000138749364857e+00  9.9999507791298747e-01  9.9998786419007113e-01  9.9995894381576378e-01  9.9994005181983669e-01  9.9990262231170457e-01  9.9990103766943328e-01  9.9991961193466516e-01  9.9995239405459002e-01  9.9999055505423751e-01  1.0000366260931279e+00  1.0000240250374930e+00  9.9998070928735250e-01  9.9998598211955669e-01  1.0000268963591410e+00  1.0000673765966661e+00  1.0001379901510150e+00  1.0001681278429781e+00  1.0000815585385854e+00  1.0000052601805232e+00  1.0000318842753646e+00  1.0000609824244249e+00  1.0000398971502904e+00  9.9996907896730869e-01  9.9983581285608480e-01  9.9977546369663672e-01  9.9987335395726440e-01  9.9994606434861955e-01  9.9991248823794798e-01  9.9991007020572797e-01  9.9996351964730179e-01  1.0000204633706080e+00  1.0000472411957639e+00  9.9998557706373847e-01  9.9994146610384071e-01  1.0000313415656810e+00  1.0000644348903232e+00  9.9996129701214853e-01  9.9995163791512864e-01  1.0000385708580057e+00  1.0000348066870908e+00  9.9997291343438333e-01  9.9996560426801062e-01  1.0000210764127113e+00  1.0000447448231968e+00  9.9996580656111145e-01  9.9995328484726809e-01  1.0000616919541923e+00  1.0000229955561928e+00  9.9992005816111384e-01  1.0000223800441856e+00  1.0000662561916831e+00  9.9993715049364651e-01  9.9997872818866207e-01  1.0000705461760249e+00  9.9997148319637719e-01  9.9995920346564782e-01  1.0000519451633296e+00  9.9999683031213471e-01  9.9996073999909296e-01  1.0000308607496158e+00  1.0000075645694946e+00  9.9997118986604572e-01  1.0000157738945237e+00  1.0000093817504705e+00  9.9998113911648356e-01  1.0000083120099816e+00  1.0000062041287847e+00  9.9999006833852067e-01  1.0000027333726076e+00  1.0000056733838061e+00  9.9999217449283062e-01  1.0000043301189196e+00  9.9999953031688671e-01  9.9999998485219921e-01  9.9999752616341042e-01  1.0000052494048708e+00  9.9999361743164894e-01  1.0000059612244647e+00  9.9999475822215145e-01  1.0000052049604495e+00  9.9999411188433585e-01  1.0000067014198077e+00  9.9999290470598801e-01  1.0000069419698827e+00  9.9999352795785679e-01  1.0000059774534857e+00  9.9999438052022571e-01  1.0000053166421370e+00  9.9999495562481489e-01  1.0000044676024606e+00  9.9999592351893152e-01  1.0000029300839492e+00  9.9999699354318239e-01  1.0000010356725781e+00  9.9999750888258887e-01  1.0000123414719060e+00  9.9999344124552836e-01  9.9999551509964923e-01  9.9999479498239163e-01  9.9999393697920491e-01  9.9999507791298470e-01  9.9999870843863248e-01  1.0000141522528032e+00  1.0000380332160081e+00  1.0000592281999556e+00  1.0000851088994602e+00  1.0001035450462210e+00  1.0000750853557987e+00  1.0000308452084437e+00  9.9999259280370589e-01  9.9994988839064591e-01  9.9993204034639571e-01  9.9999199045940745e-01  1.0000313113056301e+00  9.9998546654198661e-01  9.9993140383538381e-01  9.9988597132132773e-01  9.9982867184667179e-01  9.9986725802133514e-01  9.9997743232212022e-01  9.9997049546089090e-01  9.9987905362988705e-01  9.9986082151363143e-01  9.9992071929381421e-01  1.0000507654624748e+00  1.0001895341063076e+00  1.0001656285655076e+00  1.0000592295388155e+00  1.0000823477750509e+00  1.0001357950382139e+00  1.0000804989109036e+00  9.9999862347110979e-01  9.9995566638547495e-01  9.9998815801246521e-01  1.0000634340386554e+00  1.0000119150176670e+00  9.9991514233635748e-01  9.9999604043269907e-01  1.0000798119526386e+00  9.9998814137334657e-01  9.9993540105262613e-01  1.0000126715470838e+00  1.0000520233343013e+00  9.9999533787790795e-01  9.9994342120941337e-01  1.0000068181232735e+00  1.0000703351656985e+00  9.9996699827399427e-01  9.9993169272369398e-01  1.0000721830890063e+00  1.0000326997515285e+00  9.9990685369480514e-01  1.0000252333157986e+00  1.0000721899867668e+00  9.9992980002731446e-01  9.9998261346120809e-01  1.0000725120872413e+00  9.9996456394920497e-01  9.9996514356897226e-01  1.0000534247296049e+00  9.9998883712374353e-01  9.9996694592691671e-01  1.0000327963597062e+00  1.0000003275328195e+00  9.9997536525691832e-01  1.0000190452562263e+00  1.0000022322033408e+00  9.9998566312864623e-01  1.0000087610503214e+00  1.0000040626656894e+00  9.9998933086830610e-01  1.0000077231765165e+00  9.9999858021973231e-01  9.9999868011384985e-01  9.9999905579770054e-01  1.0000049613880164e+00  9.9999277012425336e-01  1.0000069502421534e+00  9.9999436353566717e-01  1.0000050200556090e+00  9.9999440114334415e-01  1.0000067120537000e+00  9.9999252931600691e-01  1.0000074981095683e+00  9.9999298989931329e-01  1.0000064480261528e+00  9.9999390706244262e-01  1.0000059611898888e+00  9.9999415933751956e-01  1.0000056329273577e+00  9.9999495562481844e-01  1.0000045702368054e+00  9.9999662992422178e-01  1.0000033571678733e+00  9.9999867054984770e-01  1.0000028846691273e+00  1.0000527674997144e+00  9.9996794659049049e-01  1.0000228461930192e+00  9.9998838923258671e-01  1.0000215675734940e+00  9.9998786419007057e-01  1.0000141522528021e+00  9.9997845325348911e-01  9.9997444627627985e-01  9.9993290336163621e-01  9.9993046856579504e-01  9.9989985846914275e-01  9.9992027795965999e-01  9.9998035769602722e-01  1.0000347921865562e+00  1.0000651219659196e+00  1.0000986412981310e+00  1.0000653244809634e+00  9.9997364166437108e-01  9.9997879671410717e-01  1.0000615664818626e+00  1.0001009094541611e+00  1.0001335984163977e+00  1.0001472160447245e+00  1.0000490470736432e+00  9.9999434649488650e-01  1.0001138093095885e+00  1.0002165749841965e+00  1.0001864137697429e+00  1.0000809022049331e+00  9.9992027278068940e-01  9.9984090089108579e-01  9.9992668296089027e-01  9.9994752576500390e-01  9.9984564831004952e-01  9.9985395030845003e-01  9.9996668519343279e-01  1.0000322798950076e+00  1.0000255340109059e+00  9.9995399537084650e-01  9.9994762215629074e-01  1.0000670361649271e+00  1.0000601420859809e+00  9.9992273697535683e-01  9.9996021028482307e-01  1.0000764792398205e+00  1.0000233362309492e+00  9.9993794296428684e-01  9.9997854274834141e-01  1.0000564717391478e+00  1.0000266671906615e+00  9.9992867131851637e-01  9.9998543955804142e-01  1.0000918954162081e+00  9.9997294523481306e-01  9.9991341522549160e-01  1.0000784639191016e+00  1.0000393587963983e+00  9.9989925668370416e-01  1.0000288006370754e+00  1.0000718178004506e+00  9.9992590996189612e-01  9.9999002721853780e-01  1.0000686648262469e+00  9.9995900013515615e-01  9.9997523865855209e-01  1.0000499229326361e+00  9.9998201033469514e-01  9.9997588120136538e-01  1.0000318985337806e+00  9.9999245900562639e-01  9.9998386702202846e-01  1.0000169458859114e+00  9.9999894531767564e-01  9.9998790524158621e-01  1.0000120618990895e+00  9.9999630725270150e-01  9.9999742432545458e-01  1.0000018281980829e+00  1.0000031248598145e+00  9.9999302160788284e-01  1.0000072750314621e+00  9.9999466333966969e-01  1.0000037569799924e+00  9.9999614568231721e-01  1.0000051272186126e+00  9.9999367135993456e-01  1.0000066815946727e+00  9.9999372896340477e-01  1.0000056642429702e+00  9.9999465296620904e-01  1.0000054289159777e+00  9.9999427988033818e-01  1.0000058995450605e+00  9.9999415933752378e-01  1.0000053166421261e+00  9.9999518170725010e-01  1.0000035947403303e+00  9.9999652978099995e-01  1.0000013752217918e+00  9.9999707981479835e-01  1.0000905540227978e+00  9.9992734178406006e-01  1.0000503013705098e+00  9.9995267035065549e-01  1.0000332898107498e+00  9.9995894381576556e-01  1.0000380332160086e+00  9.9997444627628396e-01  1.0000549076492682e+00  1.0000352808784756e+00  1.0000899501626634e+00  1.0000650215174605e+00  1.0000925176256408e+00  1.0000162030118620e+00  9.9994069934099938e-01  9.9990160009284446e-01  9.9988814196756892e-01  9.9988138782469238e-01  9.9997515501220324e-01  1.0000540497267887e+00  9.9997720159249481e-01  9.9989651320318751e-01  9