<?xml version="1.0"?>
<VTKFile type="UnstructuredGrid"  version="0.1"  >
<UnstructuredGrid>
<Piece  NumberOfPoints="10201" NumberOfCells="20000">
<Points>
<DataArray  type="Float64"  NumberOfComponents="3"  format="ascii">-5 -5 0  -4.9 -5 0  -4.8 -5 0  -4.7 -5 0  -4.6 -5 0  -4.5 -5 0  -4.4 -5 0  -4.3 -5 0  -4.2 -5 0  -4.1 -5 0  -4 -5 0  -3.9 -5 0  -3.8 -5 0  -3.7 -5 0  -3.6 -5 0  -3.5 -5 0  -3.4 -5 0  -3.3 -5 0  -3.2 -5 0  -3.1 -5 0  -3 -5 0  -2.9 -5 0  -2.8 -5 0  -2.7 -5 0  -2.6 -5 0  -2.5 -5 0  -2.4 -5 0  -2.3 -5 0  -2.2 -5 0  -2.1 -5 0  -2 -5 0  -1.9 -5 0  -1.8 -5 0  -1.7 -5 0  -1.6 -5 0  -1.5 -5 0  -1.4 -5 0  -1.3 -5 0  -1.2 -5 0  -1.1 -5 0  -1 -5 0  -0.9000000000000004 -5 0  -0.7999999999999998 -5 0  -0.7000000000000002 -5 0  -0.5999999999999996 -5 0  -0.5 -5 0  -0.4000000000000004 -5 0  -0.2999999999999998 -5 0  -0.2000000000000002 -5 0  -0.09999999999999964 -5 0  0 -5 0  0.09999999999999964 -5 0  0.2000000000000002 -5 0  0.2999999999999998 -5 0  0.4000000000000004 -5 0  0.5 -5 0  0.5999999999999996 -5 0  0.7000000000000002 -5 0  0.7999999999999998 -5 0  0.9000000000000004 -5 0  1 -5 0  1.1 -5 0  1.2 -5 0  1.3 -5 0  1.4 -5 0  1.5 -5 0  1.6 -5 0  1.7 -5 0  1.8 -5 0  1.9 -5 0  2 -5 0  2.1 -5 0  2.2 -5 0  2.3 -5 0  2.4 -5 0  2.5 -5 0  2.6 -5 0  2.7 -5 0  2.8 -5 0  2.9 -5 0  3 -5 0  3.1 -5 0  3.199999999999999 -5 0  3.300000000000001 -5 0  3.4 -5 0  3.5 -5 0  3.6 -5 0  3.699999999999999 -5 0  3.800000000000001 -5 0  3.9 -5 0  4 -5 0  4.1 -5 0  4.199999999999999 -5 0  4.300000000000001 -5 0  4.4 -5 0  4.5 -5 0  4.6 -5 0  4.699999999999999 -5 0  4.800000000000001 -5 0  4.9 -5 0  5 -5 0  -5 -4.9 0  -4.9 -4.9 0  -4.8 -4.9 0  -4.7 -4.9 0  -4.6 -4.9 0  -4.5 -4.9 0  -4.4 -4.9 0  -4.3 -4.9 0  -4.2 -4.9 0  -4.1 -4.9 0  -4 -4.9 0  -3.9 -4.9 0  -3.8 -4.9 0  -3.7 -4.9 0  -3.6 -4.9 0  -3.5 -4.9 0  -3.4 -4.9 0  -3.3 -4.9 0  -3.2 -4.9 0  -3.1 -4.9 0  -3 -4.9 0  -2.9 -4.9 0  -2.8 -4.9 0  -2.7 -4.9 0  -2.6 -4.9 0  -2.5 -4.9 0  -2.4 -4.9 0  -2.3 -4.9 0  -2.2 -4.9 0  -2.1 -4.9 0  -2 -4.9 0  -1.9 -4.9 0  -1.8 -4.9 0  -1.7 -4.9 0  -1.6 -4.9 0  -1.5 -4.9 0  -1.4 -4.9 0  -1.3 -4.9 0  -1.2 -4.9 0  -1.1 -4.9 0  -1 -4.9 0  -0.9000000000000004 -4.9 0  -0.7999999999999998 -4.9 0  -0.7000000000000002 -4.9 0  -0.5999999999999996 -4.9 0  -0.5 -4.9 0  -0.4000000000000004 -4.9 0  -0.2999999999999998 -4.9 0  -0.2000000000000002 -4.9 0  -0.09999999999999964 -4.9 0  0 -4.9 0  0.09999999999999964 -4.9 0  0.2000000000000002 -4.9 0  0.2999999999999998 -4.9 0  0.4000000000000004 -4.9 0  0.5 -4.9 0  0.5999999999999996 -4.9 0  0.7000000000000002 -4.9 0  0.7999999999999998 -4.9 0  0.9000000000000004 -4.9 0  1 -4.9 0  1.1 -4.9 0  1.2 -4.9 0  1.3 -4.9 0  1.4 -4.9 0  1.5 -4.9 0  1.6 -4.9 0  1.7 -4.9 0  1.8 -4.9 0  1.9 -4.9 0  2 -4.9 0  2.1 -4.9 0  2.2 -4.9 0  2.3 -4.9 0  2.4 -4.9 0  2.5 -4.9 0  2.6 -4.9 0  2.7 -4.9 0  2.8 -4.9 0  2.9 -4.9 0  3 -4.9 0  3.1 -4.9 0  3.199999999999999 -4.9 0  3.300000000000001 -4.9 0  3.4 -4.9 0  3.5 -4.9 0  3.6 -4.9 0  3.699999999999999 -4.9 0  3.800000000000001 -4.9 0  3.9 -4.9 0  4 -4.9 0  4.1 -4.9 0  4.199999999999999 -4.9 0  4.300000000000001 -4.9 0  4.4 -4.9 0  4.5 -4.9 0  4.6 -4.9 0  4.699999999999999 -4.9 0  4.800000000000001 -4.9 0  4.9 -4.9 0  5 -4.9 0  -5 -4.8 0  -4.9 -4.8 0  -4.8 -4.8 0  -4.7 -4.8 0  -4.6 -4.8 0  -4.5 -4.8 0  -4.4 -4.8 0  -4.3 -4.8 0  -4.2 -4.8 0  -4.1 -4.8 0  -4 -4.8 0  -3.9 -4.8 0  -3.8 -4.8 0  -3.7 -4.8 0  -3.6 -4.8 0  -3.5 -4.8 0  -3.4 -4.8 0  -3.3 -4.8 0  -3.2 -4.8 0  -3.1 -4.8 0  -3 -4.8 0  -2.9 -4.8 0  -2.8 -4.8 0  -2.7 -4.8 0  -2.6 -4.8 0  -2.5 -4.8 0  -2.4 -4.8 0  -2.3 -4.8 0  -2.2 -4.8 0  -2.1 -4.8 0  -2 -4.8 0  -1.9 -4.8 0  -1.8 -4.8 0  -1.7 -4.8 0  -1.6 -4.8 0  -1.5 -4.8 0  -1.4 -4.8 0  -1.3 -4.8 0  -1.2 -4.8 0  -1.1 -4.8 0  -1 -4.8 0  -0.9000000000000004 -4.8 0  -0.7999999999999998 -4.8 0  -0.7000000000000002 -4.8 0  -0.5999999999999996 -4.8 0  -0.5 -4.8 0  -0.4000000000000004 -4.8 0  -0.2999999999999998 -4.8 0  -0.2000000000000002 -4.8 0  -0.09999999999999964 -4.8 0  0 -4.8 0  0.09999999999999964 -4.8 0  0.2000000000000002 -4.8 0  0.2999999999999998 -4.8 0  0.4000000000000004 -4.8 0  0.5 -4.8 0  0.5999999999999996 -4.8 0  0.7000000000000002 -4.8 0  0.7999999999999998 -4.8 0  0.9000000000000004 -4.8 0  1 -4.8 0  1.1 -4.8 0  1.2 -4.8 0  1.3 -4.8 0  1.4 -4.8 0  1.5 -4.8 0  1.6 -4.8 0  1.7 -4.8 0  1.8 -4.8 0  1.9 -4.8 0  2 -4.8 0  2.1 -4.8 0  2.2 -4.8 0  2.3 -4.8 0  2.4 -4.8 0  2.5 -4.8 0  2.6 -4.8 0  2.7 -4.8 0  2.8 -4.8 0  2.9 -4.8 0  3 -4.8 0  3.1 -4.8 0  3.199999999999999 -4.8 0  3.300000000000001 -4.8 0  3.4 -4.8 0  3.5 -4.8 0  3.6 -4.8 0  3.699999999999999 -4.8 0  3.800000000000001 -4.8 0  3.9 -4.8 0  4 -4.8 0  4.1 -4.8 0  4.199999999999999 -4.8 0  4.300000000000001 -4.8 0  4.4 -4.8 0  4.5 -4.8 0  4.6 -4.8 0  4.699999999999999 -4.8 0  4.800000000000001 -4.8 0  4.9 -4.8 0  5 -4.8 0  -5 -4.7 0  -4.9 -4.7 0  -4.8 -4.7 0  -4.7 -4.7 0  -4.6 -4.7 0  -4.5 -4.7 0  -4.4 -4.7 0  -4.3 -4.7 0  -4.2 -4.7 0  -4.1 -4.7 0  -4 -4.7 0  -3.9 -4.7 0  -3.8 -4.7 0  -3.7 -4.7 0  -3.6 -4.7 0  -3.5 -4.7 0  -3.4 -4.7 0  -3.3 -4.7 0  -3.2 -4.7 0  -3.1 -4.7 0  -3 -4.7 0  -2.9 -4.7 0  -2.8 -4.7 0  -2.7 -4.7 0  -2.6 -4.7 0  -2.5 -4.7 0  -2.4 -4.7 0  -2.3 -4.7 0  -2.2 -4.7 0  -2.1 -4.7 0  -2 -4.7 0  -1.9 -4.7 0  -1.8 -4.7 0  -1.7 -4.7 0  -1.6 -4.7 0  -1.5 -4.7 0  -1.4 -4.7 0  -1.3 -4.7 0  -1.2 -4.7 0  -1.1 -4.7 0  -1 -4.7 0  -0.9000000000000004 -4.7 0  -0.7999999999999998 -4.7 0  -0.7000000000000002 -4.7 0  -0.5999999999999996 -4.7 0  -0.5 -4.7 0  -0.4000000000000004 -4.7 0  -0.2999999999999998 -4.7 0  -0.2000000000000002 -4.7 0  -0.09999999999999964 -4.7 0  0 -4.7 0  0.09999999999999964 -4.7 0  0.2000000000000002 -4.7 0  0.2999999999999998 -4.7 0  0.4000000000000004 -4.7 0  0.5 -4.7 0  0.5999999999999996 -4.7 0  0.7000000000000002 -4.7 0  0.7999999999999998 -4.7 0  0.9000000000000004 -4.7 0  1 -4.7 0  1.1 -4.7 0  1.2 -4.7 0  1.3 -4.7 0  1.4 -4.7 0  1.5 -4.7 0  1.6 -4.7 0  1.7 -4.7 0  1.8 -4.7 0  1.9 -4.7 0  2 -4.7 0  2.1 -4.7 0  2.2 -4.7 0  2.3 -4.7 0  2.4 -4.7 0  2.5 -4.7 0  2.6 -4.7 0  2.7 -4.7 0  2.8 -4.7 0  2.9 -4.7 0  3 -4.7 0  3.1 -4.7 0  3.199999999999999 -4.7 0  3.300000000000001 -4.7 0  3.4 -4.7 0  3.5 -4.7 0  3.6 -4.7 0  3.699999999999999 -4.7 0  3.800000000000001 -4.7 0  3.9 -4.7 0  4 -4.7 0  4.1 -4.7 0  4.199999999999999 -4.7 0  4.300000000000001 -4.7 0  4.4 -4.7 0  4.5 -4.7 0  4.6 -4.7 0  4.699999999999999 -4.7 0  4.800000000000001 -4.7 0  4.9 -4.7 0  5 -4.7 0  -5 -4.6 0  -4.9 -4.6 0  -4.8 -4.6 0  -4.7 -4.6 0  -4.6 -4.6 0  -4.5 -4.6 0  -4.4 -4.6 0  -4.3 -4.6 0  -4.2 -4.6 0  -4.1 -4.6 0  -4 -4.6 0  -3.9 -4.6 0  -3.8 -4.6 0  -3.7 -4.6 0  -3.6 -4.6 0  -3.5 -4.6 0  -3.4 -4.6 0  -3.3 -4.6 0  -3.2 -4.6 0  -3.1 -4.6 0  -3 -4.6 0  -2.9 -4.6 0  -2.8 -4.6 0  -2.7 -4.6 0  -2.6 -4.6 0  -2.5 -4.6 0  -2.4 -4.6 0  -2.3 -4.6 0  -2.2 -4.6 0  -2.1 -4.6 0  -2 -4.6 0  -1.9 -4.6 0  -1.8 -4.6 0  -1.7 -4.6 0  -1.6 -4.6 0  -1.5 -4.6 0  -1.4 -4.6 0  -1.3 -4.6 0  -1.2 -4.6 0  -1.1 -4.6 0  -1 -4.6 0  -0.9000000000000004 -4.6 0  -0.7999999999999998 -4.6 0  -0.7000000000000002 -4.6 0  -0.5999999999999996 -4.6 0  -0.5 -4.6 0  -0.4000000000000004 -4.6 0  -0.2999999999999998 -4.6 0  -0.2000000000000002 -4.6 0  -0.09999999999999964 -4.6 0  0 -4.6 0  0.09999999999999964 -4.6 0  0.2000000000000002 -4.6 0  0.2999999999999998 -4.6 0  0.4000000000000004 -4.6 0  0.5 -4.6 0  0.5999999999999996 -4.6 0  0.7000000000000002 -4.6 0  0.7999999999999998 -4.6 0  0.9000000000000004 -4.6 0  1 -4.6 0  1.1 -4.6 0  1.2 -4.6 0  1.3 -4.6 0  1.4 -4.6 0  1.5 -4.6 0  1.6 -4.6 0  1.7 -4.6 0  1.8 -4.6 0  1.9 -4.6 0  2 -4.6 0  2.1 -4.6 0  2.2 -4.6 0  2.3 -4.6 0  2.4 -4.6 0  2.5 -4.6 0  2.6 -4.6 0  2.7 -4.6 0  2.8 -4.6 0  2.9 -4.6 0  3 -4.6 0  3.1 -4.6 0  3.199999999999999 -4.6 0  3.300000000000001 -4.6 0  3.4 -4.6 0  3.5 -4.6 0  3.6 -4.6 0  3.699999999999999 -4.6 0  3.800000000000001 -4.6 0  3.9 -4.6 0  4 -4.6 0  4.1 -4.6 0  4.199999999999999 -4.6 0  4.300000000000001 -4.6 0  4.4 -4.6 0  4.5 -4.6 0  4.6 -4.6 0  4.699999999999999 -4.6 0  4.800000000000001 -4.6 0  4.9 -4.6 0  5 -4.6 0  -5 -4.5 0  -4.9 -4.5 0  -4.8 -4.5 0  -4.7 -4.5 0  -4.6 -4.5 0  -4.5 -4.5 0  -4.4 -4.5 0  -4.3 -4.5 0  -4.2 -4.5 0  -4.1 -4.5 0  -4 -4.5 0  -3.9 -4.5 0  -3.8 -4.5 0  -3.7 -4.5 0  -3.6 -4.5 0  -3.5 -4.5 0  -3.4 -4.5 0  -3.3 -4.5 0  -3.2 -4.5 0  -3.1 -4.5 0  -3 -4.5 0  -2.9 -4.5 0  -2.8 -4.5 0  -2.7 -4.5 0  -2.6 -4.5 0  -2.5 -4.5 0  -2.4 -4.5 0  -2.3 -4.5 0  -2.2 -4.5 0  -2.1 -4.5 0  -2 -4.5 0  -1.9 -4.5 0  -1.8 -4.5 0  -1.7 -4.5 0  -1.6 -4.5 0  -1.5 -4.5 0  -1.4 -4.5 0  -1.3 -4.5 0  -1.2 -4.5 0  -1.1 -4.5 0  -1 -4.5 0  -0.9000000000000004 -4.5 0  -0.7999999999999998 -4.5 0  -0.7000000000000002 -4.5 0  -0.5999999999999996 -4.5 0  -0.5 -4.5 0  -0.4000000000000004 -4.5 0  -0.2999999999999998 -4.5 0  -0.2000000000000002 -4.5 0  -0.09999999999999964 -4.5 0  0 -4.5 0  0.09999999999999964 -4.5 0  0.2000000000000002 -4.5 0  0.2999999999999998 -4.5 0  0.4000000000000004 -4.5 0  0.5 -4.5 0  0.5999999999999996 -4.5 0  0.7000000000000002 -4.5 0  0.7999999999999998 -4.5 0  0.9000000000000004 -4.5 0  1 -4.5 0  1.1 -4.5 0  1.2 -4.5 0  1.3 -4.5 0  1.4 -4.5 0  1.5 -4.5 0  1.6 -4.5 0  1.7 -4.5 0  1.8 -4.5 0  1.9 -4.5 0  2 -4.5 0  2.1 -4.5 0  2.2 -4.5 0  2.3 -4.5 0  2.4 -4.5 0  2.5 -4.5 0  2.6 -4.5 0  2.7 -4.5 0  2.8 -4.5 0  2.9 -4.5 0  3 -4.5 0  3.1 -4.5 0  3.199999999999999 -4.5 0  3.300000000000001 -4.5 0  3.4 -4.5 0  3.5 -4.5 0  3.6 -4.5 0  3.699999999999999 -4.5 0  3.800000000000001 -4.5 0  3.9 -4.5 0  4 -4.5 0  4.1 -4.5 0  4.199999999999999 -4.5 0  4.300000000000001 -4.5 0  4.4 -4.5 0  4.5 -4.5 0  4.6 -4.5 0  4.699999999999999 -4.5 0  4.800000000000001 -4.5 0  4.9 -4.5 0  5 -4.5 0  -5 -4.4 0  -4.9 -4.4 0  -4.8 -4.4 0  -4.7 -4.4 0  -4.6 -4.4 0  -4.5 -4.4 0  -4.4 -4.4 0  -4.3 -4.4 0  -4.2 -4.4 0  -4.1 -4.4 0  -4 -4.4 0  -3.9 -4.4 0  -3.8 -4.4 0  -3.7 -4.4 0  -3.6 -4.4 0  -3.5 -4.4 0  -3.4 -4.4 0  -3.3 -4.4 0  -3.2 -4.4 0  -3.1 -4.4 0  -3 -4.4 0  -2.9 -4.4 0  -2.8 -4.4 0  -2.7 -4.4 0  -2.6 -4.4 0  -2.5 -4.4 0  -2.4 -4.4 0  -2.3 -4.4 0  -2.2 -4.4 0  -2.1 -4.4 0  -2 -4.4 0  -1.9 -4.4 0  -1.8 -4.
[...]
<PointData  Scalars="r"> 
<DataArray  type="Float64"  Name="r"  format="ascii">1.0008408668670989e+00  9.9970012648076112e-01  1.0000593425821644e+00  1.0008899338076236e+00  9.9966984780246904e-01  1.0005565062797477e+00  9.9920771520583118e-01  1.0016672624183467e+00  9.9910941394997088e-01  1.0010041852877851e+00  9.9944767924699340e-01  9.9947993975191896e-01  1.0008288843637654e+00  9.9972115796255945e-01  1.0014967608667751e+00  1.0006018918177868e+00  9.9956411967185421e-01  9.9469330855731108e-01  9.8865085600011482e-01  9.8938619559718155e-01  1.0072103795959073e+00  1.0557036419311621e+00  1.1286421603440047e+00  1.2035902818710549e+00  1.2489642141039259e+00  1.2456617918480484e+00  1.2084249351685294e+00  1.1611534606502680e+00  1.1184236487948327e+00  1.0846838057421007e+00  1.0540730666203337e+00  1.0263523850611320e+00  1.0028056833262482e+00  9.8289752333829961e-01  9.6951510924049933e-01  9.6153641819577496e-01  9.5843953096768641e-01  9.5975908876304017e-01  9.6310908402500206e-01  9.6808012369899021e-01  9.7372218144154143e-01  9.7874189082123075e-01  9.8386412321560701e-01  9.8860852934755017e-01  9.9309165159934865e-01  9.9734325842493576e-01  1.0009113074298750e+00  1.0040298643652352e+00  1.0069195611772188e+00  1.0091527259224231e+00  1.0109168263383530e+00  1.0123262610224946e+00  1.0132986420485466e+00  1.0138252772377407e+00  1.0138282636654341e+00  1.0132762089167415e+00  1.0124662347019253e+00  1.0113442310027978e+00  1.0100185560570087e+00  1.0088647571733083e+00  1.0083773747965226e+00  1.0087002387568820e+00  1.0099161998060071e+00  1.0124835182732537e+00  1.0163564049809866e+00  1.0204184716251214e+00  1.0229951394806427e+00  1.0220391992608950e+00  1.0137575180450109e+00  9.9424245178327741e-01  9.6267760800169833e-01  9.2359084242739975e-01  8.8811788073418396e-01  8.7485328809803020e-01  9.0477982207456387e-01  9.9182713214444462e-01  1.1306243270414000e+00  1.2807053062234699e+00  1.3622262520510642e+00  1.3037935705822357e+00  1.1445620243116708e+00  1.0194372217639014e+00  9.8659178567947492e-01  9.9505241608787498e-01  1.0006260159254039e+00  1.0007601510322501e+00  1.0000192893797062e+00  9.9989224194279291e-01  9.9999532594004770e-01  9.9994979257710792e-01  1.0000237025499927e+00  1.0000517987848534e+00  9.9997866838459937e-01  1.0000265358396427e+00  1.0000712446949140e+00  9.9996927633945831e-01  9.9999531419201171e-01  9.9994901683744042e-01  1.0000333339887959e+00  9.9996491072894800e-01  1.0001681065284918e+00  9.9970012648076023e-01  9.9937930693175747e-01  1.0006139100283535e+00  9.9986158789016255e-01  9.9990237082464362e-01  9.9957140063057648e-01  1.0002184518737907e+00  1.0000695968631392e+00  9.9905452715933607e-01  1.0000719247834025e+00  9.9995885545592045e-01  1.0000789601285758e+00  1.0005964383014019e+00  9.9947901416130480e-01  1.0010129958341438e+00  9.9951122361165090e-01  9.9604328663139430e-01  9.9448738254053481e-01  9.9561995188840358e-01  1.0094338280801527e+00  1.0384327256708312e+00  1.0772188804384164e+00  1.1200118285865084e+00  1.1553810731758278e+00  1.1803961689623450e+00  1.1928716832232711e+00  1.1856401964553129e+00  1.1587173318216928e+00  1.1185436980431824e+00  1.0775827317792275e+00  1.0461399258522872e+00  1.0244007755564941e+00  1.0100506473736597e+00  1.0008524527335991e+00  9.9370543689361635e-01  9.8874411426618114e-01  9.8518272637354964e-01  9.8222010704800089e-01  9.8075361829490326e-01  9.7999650932350713e-01  9.8017763469185304e-01  9.8195115258116283e-01  9.8444470068560486e-01  9.8749857342207970e-01  9.9087874925025776e-01  9.9433648926084883e-01  9.9821115311185504e-01  1.0022164135746010e+00  1.0061270788949277e+00  1.0102133731376226e+00  1.0143825821023851e+00  1.0183568676649342e+00  1.0221379044367018e+00  1.0258381181224114e+00  1.0294091324260151e+00  1.0326640471486603e+00  1.0355692073300107e+00  1.0379716101942495e+00  1.0395678389293626e+00  1.0400888000239956e+00  1.0389468158798894e+00  1.0356888720399569e+00  1.0300395031903133e+00  1.0215757947830650e+00  1.0101399747306121e+00  9.9617409514922817e-01  9.8131860302277196e-01  9.6771130731860044e-01  9.5829571597066687e-01  9.5734171453308392e-01  9.6782672657643121e-01  9.8968693499649918e-01  1.0196864045133927e+00  1.0516741259165496e+00  1.0771662405064906e+00  1.0885323896399404e+00  1.0836233905643844e+00  1.0732392468074303e+00  1.0832714435304436e+00  1.1300999908835025e+00  1.1718035377076890e+00  1.1385634626051537e+00  1.0535099695102772e+00  1.0004906394779061e+00  9.9416217173105903e-01  9.9908010571956274e-01  1.0004574304781164e+00  1.0001494716354271e+00  9.9999820815285489e-01  1.0000207079023604e+00  1.0000167157149884e+00  9.9992975215838031e-01  1.0000533016990938e+00  9.9994224539914833e-01  1.0000166666024948e+00  9.9997285261144209e-01  1.0000028670781946e+00  1.0000215544256790e+00  1.0000103762591555e+00  9.9998409449684977e-01  9.9996491072990823e-01  1.0000593425821613e+00  1.0006139100283526e+00  9.9950121886159005e-01  9.9936334880444488e-01  1.0001662408109320e+00  9.9992426327948425e-01  1.0003058628458248e+00  9.9979858164194757e-01  9.9987684464784921e-01  1.0007280724855658e+00  9.9969927211065956e-01  1.0004687665449372e+00  1.0002968415525126e+00  9.9979376170496770e-01  9.9900699343902810e-01  9.9414519929605238e-01  9.9443464880526222e-01  1.0037198343701215e+00  1.0282347449094047e+00  1.0699870774842790e+00  1.1079546746616729e+00  1.1274864224740937e+00  1.1184397482412469e+00  1.0861694945976601e+00  1.0558457257212595e+00  1.0420206943955925e+00  1.0515696073106282e+00  1.0776035560645945e+00  1.0979774010804069e+00  1.1024114064992341e+00  1.0901288647601490e+00  1.0696324632362075e+00  1.0530397980993358e+00  1.0413960542476619e+00  1.0341425557361184e+00  1.0297022004620979e+00  1.0245616692430868e+00  1.0199098829904141e+00  1.0158141047501807e+00  1.0117314125348988e+00  1.0092372216401495e+00  1.0072308605461779e+00  1.0059087335302697e+00  1.0058365495100232e+00  1.0062696816092340e+00  1.0073539196123644e+00  1.0089949556367230e+00  1.0104299160877113e+00  1.0119141686822803e+00  1.0132321944877090e+00  1.0142511335011875e+00  1.0151590516474236e+00  1.0159717880289771e+00  1.0166368170860240e+00  1.0173218360885004e+00  1.0180193503372468e+00  1.0186314565861794e+00  1.0191919406604690e+00  1.0198537638158636e+00  1.0203632084649024e+00  1.0207215799083598e+00  1.0209926388227224e+00  1.0211476318845976e+00  1.0208557615707174e+00  1.0200509980609229e+00  1.0190714224516815e+00  1.0177628999359998e+00  1.0163486390798939e+00  1.0162501154031747e+00  1.0197769715392453e+00  1.0296132128431217e+00  1.0493053193395609e+00  1.0794217195136837e+00  1.1133367519790165e+00  1.1380533932289674e+00  1.1395389050333060e+00  1.1108390763384335e+00  1.0568943196398128e+00  9.9811636185303765e-01  9.7011838763410463e-01  1.0119396447635094e+00  1.1106741016848742e+00  1.1605466444887584e+00  1.0993347278959658e+00  1.0182974291699050e+00  9.9325395610361067e-01  9.9746347165522753e-01  1.0003446103329596e+00  1.0003470604143547e+00  9.9992643151042260e-01  9.9992070918427323e-01  1.0000604763626371e+00  9.9997085880508385e-01  9.9997970845373541e-01  1.0000319070876882e+00  9.9996586950942035e-01  1.0000185216867452e+00  1.0000313997302166e+00  9.9994944308612366e-01  1.0000103762602526e+00  1.0000333339877114e+00  1.0008899338076194e+00  9.9986158789016255e-01  9.9936334880444366e-01  1.0005528967852562e+00  1.0004289238617889e+00  9.9990875133612600e-01  9.9972879504439049e-01  1.0001101298125199e+00  1.0005407531923314e+00  9.9956363879493659e-01  1.0007160748903758e+00  9.9973693518730611e-01  1.0009080824199597e+00  9.9693155123417854e-01  9.9403854803526459e-01  9.9590944539276693e-01  1.0112062110872195e+00  1.0473462079752585e+00  1.0923065056812378e+00  1.1270112885670838e+00  1.1300283138723510e+00  1.1008958480431492e+00  1.0569402957617131e+00  1.0155457831697918e+00  9.8919484895516041e-01  9.7799098082597147e-01  9.8037236882870760e-01  9.9825485302868711e-01  1.0303596599959861e+00  1.0723634605132848e+00  1.1108778053747774e+00  1.1310786794192655e+00  1.1295472306472745e+00  1.1107077115474100e+00  1.0854703413483524e+00  1.0628006457270813e+00  1.0453923150812228e+00  1.0349193322255306e+00  1.0293860736861571e+00  1.0266701740824864e+00  1.0259249715261125e+00  1.0254489422430608e+00  1.0250626581482354e+00  1.0243932991448279e+00  1.0226468152961250e+00  1.0202312875046582e+00  1.0170440982786741e+00  1.0131969230251729e+00  1.0093199506405148e+00  1.0053146047387183e+00  1.0012905046947020e+00  9.9743763556613829e-01  9.9370223670264646e-01  9.9004674723285280e-01  9.8643563773673348e-01  9.8288985248373950e-01  9.7965131535261207e-01  9.7691072337501750e-01  9.7474156518357413e-01  9.7372408447780301e-01  9.7484929126117381e-01  9.7875958738378765e-01  9.8641287614011663e-01  9.9938570206928334e-01  1.0191943644248358e+00  1.0463159200470056e+00  1.0807849273438919e+00  1.1213603728606196e+00  1.1640310196131343e+00  1.2011865225899945e+00  1.2228285836667585e+00  1.2187565516274461e+00  1.1834648650579027e+00  1.1234756988450971e+00  1.0562651533729028e+00  1.0015119848296121e+00  9.7131434484759738e-01  9.6773617350650465e-01  9.8230413865495370e-01  9.9638178253746224e-01  9.9772305981925791e-01  1.0098405101189254e+00  1.0763180564085952e+00  1.1546463408116354e+00  1.1338564118385033e+00  1.0434503915376743e+00  9.9603184415788915e-01  9.9562893954741516e-01  9.9999059569349436e-01  1.0003998144512862e+00  1.0000756079295603e+00  9.9994418201317492e-01  1.0000120454315984e+00  1.0000237347609291e+00  1.0000217118259702e+00  9.9998966169339998e-01  1.0000543216360387e+00  9.9992879611477803e-01  1.0000313997309784e+00  1.0000215544249020e+00  9.9994901683737403e-01  9.9966984780246460e-01  9.9990237082464251e-01  1.0001662408109333e+00  1.0004289238617861e+00  1.0001728889558172e+00  9.9923196991503482e-01  1.0006201755601192e+00  9.9958733357830243e-01  1.0001552927474691e+00  9.9994224120747233e-01  1.0005079357442470e+00  9.9939982277760431e-01  9.9675847011076146e-01  9.9282925812471490e-01  9.9899868100125533e-01  1.0220556202889426e+00  1.0648917731697243e+00  1.1115781377886742e+00  1.1319259616858364e+00  1.1173082044781804e+00  1.0754575959252233e+00  1.0307386987742007e+00  1.0022980596523938e+00  9.8855659377630811e-01  9.8632675814369963e-01  9.8741697694856578e-01  9.8627362616888048e-01  9.8661585557388265e-01  9.8765594230174780e-01  9.9439410233971370e-01  1.0128066797391695e+00  1.0411743939567677e+00  1.0771234650746171e+00  1.1110081036476429e+00  1.1336710137649288e+00  1.1435897012193610e+00  1.1408144110276561e+00  1.1297738048962194e+00  1.1152350859736371e+00  1.0990134494186132e+00  1.0834538272684169e+00  1.0689218164269720e+00  1.0550579242307827e+00  1.0423435035429829e+00  1.0307060144746183e+00  1.0201470429875623e+00  1.0110680732087545e+00  1.0031788882911206e+00  9.9649976974991294e-01  9.9085597240873646e-01  9.8615146239230422e-01  9.8245835512316149e-01  9.7976596851215858e-01  9.7798685800074769e-01  9.7746633019000562e-01  9.7830193061178339e-01  9.8063648533631631e-01  9.8460014831296072e-01  9.9046872344434644e-01  9.9879622431481563e-01  1.0094367813745189e+00  1.0221592812435731e+00  1.0373617074721426e+00  1.0543307054619244e+00  1.0715792295535629e+00  1.0879309680333575e+00  1.1021058301713387e+00  1.1124294983674587e+00  1.1176454609300870e+00  1.1189102683842462e+00  1.1183612621257952e+00  1.1172358537805938e+00  1.1139841456182253e+00  1.1026860030316559e+00  1.0782962988662568e+00  1.0458068219170886e+00  1.0180506586077758e+00  1.0010550987061679e+00  9.9125558216094578e-01  9.8548844993321871e-01  9.8332095341228687e-01  9.8168741677047255e-01  9.8663826164399493e-01  1.0361679818911198e+00  1.1301275571461533e+00  1.1541961090460853e+00  1.0706302328526429e+00  1.0024432978392970e+00  9.9424967281516474e-01  9.9951110460333026e-01  1.0004607780460160e+00  1.0000620503972468e+00  9.9994682312156946e-01  9.9997968826098005e-01  9.9996157484253112e-01  9.9999051459899069e-01  9.9995731050454228e-01  1.0000543216364373e+00  1.0000185216862496e+00  1.0000028670781496e+00  9.9999531419276355e-01  1.0005565062797461e+00  9.9957140063057537e-01  9.9992426327947848e-01  9.9990875133612833e-01  9.9923196991503860e-01  1.0005528604863365e+00  9.9971556719102883e-01  1.0001859239143873e+00  1.0001752010465343e+00  1.0006596774781240e+00  9.9973244354356572e-01  9.9531451180588293e-01  9.9419204260031835e-01  1.0023290779362679e+00  1.0332936548822398e+00  1.0821202132269367e+00  1.1230447493795466e+00  1.1316425016653964e+00  1.0991296859601449e+00  1.0512197207306329e+00  1.0117866577407555e+00  9.9027174710924371e-01  9.8636816151804929e-01  9.8610213557625681e-01  9.8744776626247122e-01  9.8800735430579845e-01  9.8608095253570727e-01  9.8681074519429135e-01  9.8577250409554262e-01  9.8581341942626222e-01  9.9036245183438509e-01  9.9807377291290555e-01  1.0153376995627506e+00  1.0409001445402839e+00  1.0707913250108034e+00  1.1032011627868423e+00  1.1291235299992288e+00  1.1457647835941212e+00  1.1528736830489863e+00  1.1489258289920612e+00  1.1384703997199590e+00  1.1241964659509831e+00  1.1076538089201622e+00  1.0921704278537669e+00  1.0780563844519924e+00  1.0658608189067647e+00  1.0561614099910606e+00  1.0480235467197998e+00  1.0418966259536788e+00  1.0378966046114186e+00  1.0353783998429786e+00  1.0343672316918302e+00  1.0351204098849167e+00  1.0374567231646667e+00  1.0411381916614630e+00  1.0461765959272631e+00  1.0527544856447877e+00  1.0606569372890526e+00  1.0695705551854722e+00  1.0790932849002022e+00  1.0886533989407399e+00  1.0974096245909208e+00  1.1042155539488911e+00  1.1076577778548180e+00  1.1068011245363440e+00  1.1007815947269775e+00  1.0891152514183664e+00  1.0721738159361491e+00  1.0517773375853419e+00  1.0304546354814970e+00  1.0113266683485109e+00  9.9902114071828307e-01  9.9890202964467545e-01  1.0134539434966252e+00  1.0353503324012920e+00  1.0472857055511369e+00  1.0368090704910213e+00  1.0144370476404396e+00  1.0005769771200139e+00  9.9920264094883182e-01  1.0013081764530938e+00  1.0003418493335301e+00  9.9490248605597476e-01  9.8855766659571354e-01  1.0139783848567292e+00  1.1021739684882454e+00  1.1602665741229554e+00  1.0943934869744687e+00  1.0110535411479122e+00  9.9330487016369906e-01  9.9896667921922500e-01  1.0004965617251469e+00  1.0000629635576783e+00  1.0000248006347534e+00  9.9995839176816637e-01  1.0000794168459772e+00  9.9999051459903288e-01  9.9998966169307857e-01  9.9996586950953270e-01  9.9997285261169933e-01  9.9996927633909616e-01  9.9920771520582941e-01  1.0002184518737895e+00  1.0003058628458266e+00  9.9972879504439482e-01  1.0006201755601218e+00  9.9971556719103027e-01  1.0007426246403555e+00  9.9980458855797250e-01  1.0007250944959660e+00  9.9900865043455767e-01  9.9469493254046881e-01  9.9399717853446790e-01  1.0065412198968926e+00  1.0431336046607287e+00  1.0950281853959813e+00  1.1308609788921542e+00  1.1233605629793668e+00  1.0817636322945179e+00  1.0305002696179029e+00  9.9805977962214087e-01  9.8611632923790926e-01  9.8417917319953252e-01  9.8774180629275810e-01  9.8816011889407407e-01  9.8926187403737476e-01  9.9164753096867719e-01  9.9268023016655405e-01  9.9628096431932001e-01  9.9926454988883229e-01  1.0031085804265660e+00  1.0090393945371425e+00  1.0118292672578462e+00  1.0132010090706616e+00  1.0116718033788403e+00  1.0085055758494219e+00  1.0095218461081050e+00  1.0144076324868756e+00  1.0247444180044938e+00  1.0402138294802867e+00  1.0564126285222029e+00  1.0727716144594521e+00  1.0868854013368359e+00  1.0972035560299511e+00  1.1049181420386518e+00  1.1089117637382768e+00  1.1100887835522455e+00  1.1101454819507699e+00  1.1088810822678081e+00  1.1072876916312115e+00  1.1057319325461181e+00  1.1042348901858476e+00  1.1033204080416930e+00  1.1029460058234339e+00  1.1026694495625873e+00  1.1029106594636906e+00  1.1033671424336917e+00  1.1033868258879582e+00  1.1026195807279244e+00  1.1006090501229595e+00  1.0966960808550352e+00  1.0903567417866855e+00  1.0811938372704604e+00  1.0691538640752440e+00  1.0545788700200072e+00  1.0380997093518836e+00  1.0207884137566441e+00  1.0042256506498819e+00  9.9009898285581621e-01  9.7976039020472916e-01  9.7426786092549467e-01  9.7378797528721817e-01  9.7758968069788943e-01  9.8494910913906941e-01  9.9657384326245513e-01  1.0165513059797997e+00  1.0471659058230482e+00  1.0751536887591837e+00  1.0739638425050297e+00  1.0385551202519376e+00  1.0001076747763693e+00  9.8399909449947909e-01  9.8533109498457161e-01  9.9091479448895137e-01  9.9270032563611188e-01  9.8854266521453005e-01  1.0014383709262282e+00  1.0781708392131180e+00  1.1578563606751866e+00  1.1123204870675851e+00  1.0196677282336808e+00  9.9318760219830271e-01  9.9850451214258518e-01  1.0005579862972285e+00  1.0000796296640850e+00  9.9997645603967655e-01  9.9995839176851442e-01  9.9996157484212278e-01  1.0000217118264290e+00  1.0000319070878674e+00  1.0000166666019352e+00  1.0000712446952311e+00  1.0016672624183454e+00  1.0000695968631377e+00  9.9979858164194535e-01  1.0001101298125186e+00  9.9958733357830021e-01  1.0001859239143900e+00  9.9980458855797594e-01  1.0007353802370711e+00  9.9899927429430424e-01  9.9486661470298188e-01  9.9462423352857421e-01  1.0101962949388934e+00  1.0511659244742058e+00  1.1048918961685597e+00  1.1332590107930658e+00  1.1153011076347836e+00  1.0638063915082017e+00  1.0165400340737982e+00  9.9001338157407925e-01  9.8477730628320848e-01  9.8753317465506352e-01  9.8805205595659218e-01  9.9014605875162953e-01  9.8969932642652247e-01  9.9052997471264403e-01  9.9377730169433487e-01  9.9490916637371440e-01  1.0007220446314531e+00  1.0074615293916458e+00  1.0127689095751464e+00  1.0178979759740583e+00  1.0164114590733675e+00  1.0122123534351435e+00  1.0071252833365782e+00  9.9955132329751373e-01  9.9412559984581828e-01  9.8885119331677462e-01  9.8392036163944940e-01  9.8245501794842993e-01  9.8281534538431958e-01  9.8654840356815010e-01  9.9362001538727629e-01  1.0015056672180043e+00  1.0108393279576249e+00  1.0200573091802982e+00  1.0284373717548296e+00  1.0363795474939694e+00  1.0426338859398252e+00  1.0474201971284927e+00  1.0512987236171061e+00  1.0538964491248464e+00  1.0553939943695785e+00  1.0559516382598853e+00  1.0555219469836303e+00  1.0543003699751230e+00  1.0516907775145174e+00  1.0478675200622238e+00  1.0431835055843244e+00  1.0372430543811544e+00  1.0302718372469495e+00  1.0229312945274347e+00  1.0153447803377840e+00  1.0079812970955251e+00  1.0013050784513786e+00  9.9582756837159603e-01  9.9152918941370050e-01  9.8829220891752045e-01  9.8576729360449633e-01  9.8336459708937363e-01  9.8049967742362665e-01  9.7703259099132223e-01  9.7331676330049188e-01  9.6942625863945975e-01  9.6583173909148667e-01  9.6448778915540245e-01  9.7081135557293752e-01  9.9462046948037430e-01  1.0374262372721303e+00  1.0719465744176460e+00  1.0642871524388513e+00  1.0268843475980067e+00  9.9964876961637217e-01  9.9266815268327246e-01  9.9380199148939796e-01  9.9432500238349186e-01  9.9003662889521016e-01  9.9487077107836908e-01  1.0600755198551521e+00  1.1519788715203045e+00  1.1242236045437504e+00  1.0264097468148647e+00  9.9316743310033351e-01  9.9825922006285117e-01  1.0005023819640648e+00  1.0000796296647521e+00  1.0000248006342158e+00  9.9997968826113148e-01  1.0000237347612488e+00  9.9997970845301287e-01  9.9994224539943855e-01  1.0000265358398268e+00  9.9910941394997399e-01  9.9905452715933329e-01  9.9987684464785032e-01  1.0005407531923300e+00  1.0001552927474697e+00  1.0001752010465383e+00  1.0007250944959631e+00  9.9899927429430690e-01  9.9441424192476591e-01  9.9475423512689842e-01  1.0121750245612280e+00  1.0569583682743109e+00  1.1111158663581426e+00  1.1340380156911083e+00  1.1058025613260429e+00  1.0516183631269367e+00  1.0059479665847972e+00  9.8740460903199678e-01  9.8529244312963393e-01  9.8784263750740020e-01  9.8941836590821175e-01  9.8788941147218690e-01  9