<?xml version="1.0"?>
<VTKFile type="UnstructuredGrid"  version="0.1"  >
<UnstructuredGrid>
<Piece  NumberOfPoints="10201" NumberOfCells="20000">
<Points>
<DataArray  type="Float64"  NumberOfComponents="3"  format="ascii">-5 -5 0  -4.9 -5 0  -4.8 -5 0  -4.7 -5 0  -4.6 -5 0  -4.5 -5 0  -4.4 -5 0  -4.3 -5 0  -4.2 -5 0  -4.1 -5 0  -4 -5 0  -3.9 -5 0  -3.8 -5 0  -3.7 -5 0  -3.6 -5 0  -3.5 -5 0  -3.4 -5 0  -3.3 -5 0  -3.2 -5 0  -3.1 -5 0  -3 -5 0  -2.9 -5 0  -2.8 -5 0  -2.7 -5 0  -2.6 -5 0  -2.5 -5 0  -2.4 -5 0  -2.3 -5 0  -2.2 -5 0  -2.1 -5 0  -2 -5 0  -1.9 -5 0  -1.8 -5 0  -1.7 -5 0  -1.6 -5 0  -1.5 -5 0  -1.4 -5 0  -1.3 -5 0  -1.2 -5 0  -1.1 -5 0  -1 -5 0  -0.9000000000000004 -5 0  -0.7999999999999998 -5 0  -0.7000000000000002 -5 0  -0.5999999999999996 -5 0  -0.5 -5 0  -0.4000000000000004 -5 0  -0.2999999999999998 -5 0  -0.2000000000000002 -5 0  -0.09999999999999964 -5 0  0 -5 0  0.09999999999999964 -5 0  0.2000000000000002 -5 0  0.2999999999999998 -5 0  0.4000000000000004 -5 0  0.5 -5 0  0.5999999999999996 -5 0  0.7000000000000002 -5 0  0.7999999999999998 -5 0  0.9000000000000004 -5 0  1 -5 0  1.1 -5 0  1.2 -5 0  1.3 -5 0  1.4 -5 0  1.5 -5 0  1.6 -5 0  1.7 -5 0  1.8 -5 0  1.9 -5 0  2 -5 0  2.1 -5 0  2.2 -5 0  2.3 -5 0  2.4 -5 0  2.5 -5 0  2.6 -5 0  2.7 -5 0  2.8 -5 0  2.9 -5 0  3 -5 0  3.1 -5 0  3.199999999999999 -5 0  3.300000000000001 -5 0  3.4 -5 0  3.5 -5 0  3.6 -5 0  3.699999999999999 -5 0  3.800000000000001 -5 0  3.9 -5 0  4 -5 0  4.1 -5 0  4.199999999999999 -5 0  4.300000000000001 -5 0  4.4 -5 0  4.5 -5 0  4.6 -5 0  4.699999999999999 -5 0  4.800000000000001 -5 0  4.9 -5 0  5 -5 0  -5 -4.9 0  -4.9 -4.9 0  -4.8 -4.9 0  -4.7 -4.9 0  -4.6 -4.9 0  -4.5 -4.9 0  -4.4 -4.9 0  -4.3 -4.9 0  -4.2 -4.9 0  -4.1 -4.9 0  -4 -4.9 0  -3.9 -4.9 0  -3.8 -4.9 0  -3.7 -4.9 0  -3.6 -4.9 0  -3.5 -4.9 0  -3.4 -4.9 0  -3.3 -4.9 0  -3.2 -4.9 0  -3.1 -4.9 0  -3 -4.9 0  -2.9 -4.9 0  -2.8 -4.9 0  -2.7 -4.9 0  -2.6 -4.9 0  -2.5 -4.9 0  -2.4 -4.9 0  -2.3 -4.9 0  -2.2 -4.9 0  -2.1 -4.9 0  -2 -4.9 0  -1.9 -4.9 0  -1.8 -4.9 0  -1.7 -4.9 0  -1.6 -4.9 0  -1.5 -4.9 0  -1.4 -4.9 0  -1.3 -4.9 0  -1.2 -4.9 0  -1.1 -4.9 0  -1 -4.9 0  -0.9000000000000004 -4.9 0  -0.7999999999999998 -4.9 0  -0.7000000000000002 -4.9 0  -0.5999999999999996 -4.9 0  -0.5 -4.9 0  -0.4000000000000004 -4.9 0  -0.2999999999999998 -4.9 0  -0.2000000000000002 -4.9 0  -0.09999999999999964 -4.9 0  0 -4.9 0  0.09999999999999964 -4.9 0  0.2000000000000002 -4.9 0  0.2999999999999998 -4.9 0  0.4000000000000004 -4.9 0  0.5 -4.9 0  0.5999999999999996 -4.9 0  0.7000000000000002 -4.9 0  0.7999999999999998 -4.9 0  0.9000000000000004 -4.9 0  1 -4.9 0  1.1 -4.9 0  1.2 -4.9 0  1.3 -4.9 0  1.4 -4.9 0  1.5 -4.9 0  1.6 -4.9 0  1.7 -4.9 0  1.8 -4.9 0  1.9 -4.9 0  2 -4.9 0  2.1 -4.9 0  2.2 -4.9 0  2.3 -4.9 0  2.4 -4.9 0  2.5 -4.9 0  2.6 -4.9 0  2.7 -4.9 0  2.8 -4.9 0  2.9 -4.9 0  3 -4.9 0  3.1 -4.9 0  3.199999999999999 -4.9 0  3.300000000000001 -4.9 0  3.4 -4.9 0  3.5 -4.9 0  3.6 -4.9 0  3.699999999999999 -4.9 0  3.800000000000001 -4.9 0  3.9 -4.9 0  4 -4.9 0  4.1 -4.9 0  4.199999999999999 -4.9 0  4.300000000000001 -4.9 0  4.4 -4.9 0  4.5 -4.9 0  4.6 -4.9 0  4.699999999999999 -4.9 0  4.800000000000001 -4.9 0  4.9 -4.9 0  5 -4.9 0  -5 -4.8 0  -4.9 -4.8 0  -4.8 -4.8 0  -4.7 -4.8 0  -4.6 -4.8 0  -4.5 -4.8 0  -4.4 -4.8 0  -4.3 -4.8 0  -4.2 -4.8 0  -4.1 -4.8 0  -4 -4.8 0  -3.9 -4.8 0  -3.8 -4.8 0  -3.7 -4.8 0  -3.6 -4.8 0  -3.5 -4.8 0  -3.4 -4.8 0  -3.3 -4.8 0  -3.2 -4.8 0  -3.1 -4.8 0  -3 -4.8 0  -2.9 -4.8 0  -2.8 -4.8 0  -2.7 -4.8 0  -2.6 -4.8 0  -2.5 -4.8 0  -2.4 -4.8 0  -2.3 -4.8 0  -2.2 -4.8 0  -2.1 -4.8 0  -2 -4.8 0  -1.9 -4.8 0  -1.8 -4.8 0  -1.7 -4.8 0  -1.6 -4.8 0  -1.5 -4.8 0  -1.4 -4.8 0  -1.3 -4.8 0  -1.2 -4.8 0  -1.1 -4.8 0  -1 -4.8 0  -0.9000000000000004 -4.8 0  -0.7999999999999998 -4.8 0  -0.7000000000000002 -4.8 0  -0.5999999999999996 -4.8 0  -0.5 -4.8 0  -0.4000000000000004 -4.8 0  -0.2999999999999998 -4.8 0  -0.2000000000000002 -4.8 0  -0.09999999999999964 -4.8 0  0 -4.8 0  0.09999999999999964 -4.8 0  0.2000000000000002 -4.8 0  0.2999999999999998 -4.8 0  0.4000000000000004 -4.8 0  0.5 -4.8 0  0.5999999999999996 -4.8 0  0.7000000000000002 -4.8 0  0.7999999999999998 -4.8 0  0.9000000000000004 -4.8 0  1 -4.8 0  1.1 -4.8 0  1.2 -4.8 0  1.3 -4.8 0  1.4 -4.8 0  1.5 -4.8 0  1.6 -4.8 0  1.7 -4.8 0  1.8 -4.8 0  1.9 -4.8 0  2 -4.8 0  2.1 -4.8 0  2.2 -4.8 0  2.3 -4.8 0  2.4 -4.8 0  2.5 -4.8 0  2.6 -4.8 0  2.7 -4.8 0  2.8 -4.8 0  2.9 -4.8 0  3 -4.8 0  3.1 -4.8 0  3.199999999999999 -4.8 0  3.300000000000001 -4.8 0  3.4 -4.8 0  3.5 -4.8 0  3.6 -4.8 0  3.699999999999999 -4.8 0  3.800000000000001 -4.8 0  3.9 -4.8 0  4 -4.8 0  4.1 -4.8 0  4.199999999999999 -4.8 0  4.300000000000001 -4.8 0  4.4 -4.8 0  4.5 -4.8 0  4.6 -4.8 0  4.699999999999999 -4.8 0  4.800000000000001 -4.8 0  4.9 -4.8 0  5 -4.8 0  -5 -4.7 0  -4.9 -4.7 0  -4.8 -4.7 0  -4.7 -4.7 0  -4.6 -4.7 0  -4.5 -4.7 0  -4.4 -4.7 0  -4.3 -4.7 0  -4.2 -4.7 0  -4.1 -4.7 0  -4 -4.7 0  -3.9 -4.7 0  -3.8 -4.7 0  -3.7 -4.7 0  -3.6 -4.7 0  -3.5 -4.7 0  -3.4 -4.7 0  -3.3 -4.7 0  -3.2 -4.7 0  -3.1 -4.7 0  -3 -4.7 0  -2.9 -4.7 0  -2.8 -4.7 0  -2.7 -4.7 0  -2.6 -4.7 0  -2.5 -4.7 0  -2.4 -4.7 0  -2.3 -4.7 0  -2.2 -4.7 0  -2.1 -4.7 0  -2 -4.7 0  -1.9 -4.7 0  -1.8 -4.7 0  -1.7 -4.7 0  -1.6 -4.7 0  -1.5 -4.7 0  -1.4 -4.7 0  -1.3 -4.7 0  -1.2 -4.7 0  -1.1 -4.7 0  -1 -4.7 0  -0.9000000000000004 -4.7 0  -0.7999999999999998 -4.7 0  -0.7000000000000002 -4.7 0  -0.5999999999999996 -4.7 0  -0.5 -4.7 0  -0.4000000000000004 -4.7 0  -0.2999999999999998 -4.7 0  -0.2000000000000002 -4.7 0  -0.09999999999999964 -4.7 0  0 -4.7 0  0.09999999999999964 -4.7 0  0.2000000000000002 -4.7 0  0.2999999999999998 -4.7 0  0.4000000000000004 -4.7 0  0.5 -4.7 0  0.5999999999999996 -4.7 0  0.7000000000000002 -4.7 0  0.7999999999999998 -4.7 0  0.9000000000000004 -4.7 0  1 -4.7 0  1.1 -4.7 0  1.2 -4.7 0  1.3 -4.7 0  1.4 -4.7 0  1.5 -4.7 0  1.6 -4.7 0  1.7 -4.7 0  1.8 -4.7 0  1.9 -4.7 0  2 -4.7 0  2.1 -4.7 0  2.2 -4.7 0  2.3 -4.7 0  2.4 -4.7 0  2.5 -4.7 0  2.6 -4.7 0  2.7 -4.7 0  2.8 -4.7 0  2.9 -4.7 0  3 -4.7 0  3.1 -4.7 0  3.199999999999999 -4.7 0  3.300000000000001 -4.7 0  3.4 -4.7 0  3.5 -4.7 0  3.6 -4.7 0  3.699999999999999 -4.7 0  3.800000000000001 -4.7 0  3.9 -4.7 0  4 -4.7 0  4.1 -4.7 0  4.199999999999999 -4.7 0  4.300000000000001 -4.7 0  4.4 -4.7 0  4.5 -4.7 0  4.6 -4.7 0  4.699999999999999 -4.7 0  4.800000000000001 -4.7 0  4.9 -4.7 0  5 -4.7 0  -5 -4.6 0  -4.9 -4.6 0  -4.8 -4.6 0  -4.7 -4.6 0  -4.6 -4.6 0  -4.5 -4.6 0  -4.4 -4.6 0  -4.3 -4.6 0  -4.2 -4.6 0  -4.1 -4.6 0  -4 -4.6 0  -3.9 -4.6 0  -3.8 -4.6 0  -3.7 -4.6 0  -3.6 -4.6 0  -3.5 -4.6 0  -3.4 -4.6 0  -3.3 -4.6 0  -3.2 -4.6 0  -3.1 -4.6 0  -3 -4.6 0  -2.9 -4.6 0  -2.8 -4.6 0  -2.7 -4.6 0  -2.6 -4.6 0  -2.5 -4.6 0  -2.4 -4.6 0  -2.3 -4.6 0  -2.2 -4.6 0  -2.1 -4.6 0  -2 -4.6 0  -1.9 -4.6 0  -1.8 -4.6 0  -1.7 -4.6 0  -1.6 -4.6 0  -1.5 -4.6 0  -1.4 -4.6 0  -1.3 -4.6 0  -1.2 -4.6 0  -1.1 -4.6 0  -1 -4.6 0  -0.9000000000000004 -4.6 0  -0.7999999999999998 -4.6 0  -0.7000000000000002 -4.6 0  -0.5999999999999996 -4.6 0  -0.5 -4.6 0  -0.4000000000000004 -4.6 0  -0.2999999999999998 -4.6 0  -0.2000000000000002 -4.6 0  -0.09999999999999964 -4.6 0  0 -4.6 0  0.09999999999999964 -4.6 0  0.2000000000000002 -4.6 0  0.2999999999999998 -4.6 0  0.4000000000000004 -4.6 0  0.5 -4.6 0  0.5999999999999996 -4.6 0  0.7000000000000002 -4.6 0  0.7999999999999998 -4.6 0  0.9000000000000004 -4.6 0  1 -4.6 0  1.1 -4.6 0  1.2 -4.6 0  1.3 -4.6 0  1.4 -4.6 0  1.5 -4.6 0  1.6 -4.6 0  1.7 -4.6 0  1.8 -4.6 0  1.9 -4.6 0  2 -4.6 0  2.1 -4.6 0  2.2 -4.6 0  2.3 -4.6 0  2.4 -4.6 0  2.5 -4.6 0  2.6 -4.6 0  2.7 -4.6 0  2.8 -4.6 0  2.9 -4.6 0  3 -4.6 0  3.1 -4.6 0  3.199999999999999 -4.6 0  3.300000000000001 -4.6 0  3.4 -4.6 0  3.5 -4.6 0  3.6 -4.6 0  3.699999999999999 -4.6 0  3.800000000000001 -4.6 0  3.9 -4.6 0  4 -4.6 0  4.1 -4.6 0  4.199999999999999 -4.6 0  4.300000000000001 -4.6 0  4.4 -4.6 0  4.5 -4.6 0  4.6 -4.6 0  4.699999999999999 -4.6 0  4.800000000000001 -4.6 0  4.9 -4.6 0  5 -4.6 0  -5 -4.5 0  -4.9 -4.5 0  -4.8 -4.5 0  -4.7 -4.5 0  -4.6 -4.5 0  -4.5 -4.5 0  -4.4 -4.5 0  -4.3 -4.5 0  -4.2 -4.5 0  -4.1 -4.5 0  -4 -4.5 0  -3.9 -4.5 0  -3.8 -4.5 0  -3.7 -4.5 0  -3.6 -4.5 0  -3.5 -4.5 0  -3.4 -4.5 0  -3.3 -4.5 0  -3.2 -4.5 0  -3.1 -4.5 0  -3 -4.5 0  -2.9 -4.5 0  -2.8 -4.5 0  -2.7 -4.5 0  -2.6 -4.5 0  -2.5 -4.5 0  -2.4 -4.5 0  -2.3 -4.5 0  -2.2 -4.5 0  -2.1 -4.5 0  -2 -4.5 0  -1.9 -4.5 0  -1.8 -4.5 0  -1.7 -4.5 0  -1.6 -4.5 0  -1.5 -4.5 0  -1.4 -4.5 0  -1.3 -4.5 0  -1.2 -4.5 0  -1.1 -4.5 0  -1 -4.5 0  -0.9000000000000004 -4.5 0  -0.7999999999999998 -4.5 0  -0.7000000000000002 -4.5 0  -0.5999999999999996 -4.5 0  -0.5 -4.5 0  -0.4000000000000004 -4.5 0  -0.2999999999999998 -4.5 0  -0.2000000000000002 -4.5 0  -0.09999999999999964 -4.5 0  0 -4.5 0  0.09999999999999964 -4.5 0  0.2000000000000002 -4.5 0  0.2999999999999998 -4.5 0  0.4000000000000004 -4.5 0  0.5 -4.5 0  0.5999999999999996 -4.5 0  0.7000000000000002 -4.5 0  0.7999999999999998 -4.5 0  0.9000000000000004 -4.5 0  1 -4.5 0  1.1 -4.5 0  1.2 -4.5 0  1.3 -4.5 0  1.4 -4.5 0  1.5 -4.5 0  1.6 -4.5 0  1.7 -4.5 0  1.8 -4.5 0  1.9 -4.5 0  2 -4.5 0  2.1 -4.5 0  2.2 -4.5 0  2.3 -4.5 0  2.4 -4.5 0  2.5 -4.5 0  2.6 -4.5 0  2.7 -4.5 0  2.8 -4.5 0  2.9 -4.5 0  3 -4.5 0  3.1 -4.5 0  3.199999999999999 -4.5 0  3.300000000000001 -4.5 0  3.4 -4.5 0  3.5 -4.5 0  3.6 -4.5 0  3.699999999999999 -4.5 0  3.800000000000001 -4.5 0  3.9 -4.5 0  4 -4.5 0  4.1 -4.5 0  4.199999999999999 -4.5 0  4.300000000000001 -4.5 0  4.4 -4.5 0  4.5 -4.5 0  4.6 -4.5 0  4.699999999999999 -4.5 0  4.800000000000001 -4.5 0  4.9 -4.5 0  5 -4.5 0  -5 -4.4 0  -4.9 -4.4 0  -4.8 -4.4 0  -4.7 -4.4 0  -4.6 -4.4 0  -4.5 -4.4 0  -4.4 -4.4 0  -4.3 -4.4 0  -4.2 -4.4 0  -4.1 -4.4 0  -4 -4.4 0  -3.9 -4.4 0  -3.8 -4.4 0  -3.7 -4.4 0  -3.6 -4.4 0  -3.5 -4.4 0  -3.4 -4.4 0  -3.3 -4.4 0  -3.2 -4.4 0  -3.1 -4.4 0  -3 -4.4 0  -2.9 -4.4 0  -2.8 -4.4 0  -2.7 -4.4 0  -2.6 -4.4 0  -2.5 -4.4 0  -2.4 -4.4 0  -2.3 -4.4 0  -2.2 -4.4 0  -2.1 -4.4 0  -2 -4.4 0  -1.9 -4.4 0  -1.8 -4.
[...]
<PointData  Scalars="r"> 
<DataArray  type="Float64"  Name="r"  format="ascii">1.0009326385035078e+00  1.0003016966222835e+00  1.0006929501969395e+00  9.9954127099283641e-01  9.9450943103958900e-01  9.9027200987313735e-01  9.9614295705734413e-01  1.0412727640540138e+00  1.1285489853551733e+00  1.2148869472985919e+00  1.2274606177788492e+00  1.1763841744011498e+00  1.1222269515315209e+00  1.0673159569130526e+00  1.0209105382120160e+00  9.8144893240541708e-01  9.6730593224035977e-01  9.6606538436547296e-01  9.6910690055696047e-01  9.7827394734636286e-01  9.8263048256247876e-01  9.8860376001750483e-01  9.9534794836239260e-01  9.9701344434446959e-01  1.0026300322692030e+00  1.0074821921896067e+00  1.0137021295610562e+00  1.0243731661718978e+00  1.0302866755266109e+00  1.0323550712760261e+00  1.0297611157466087e+00  1.0194493245182501e+00  1.0094666723365204e+00  9.9850169973492442e-01  9.8724827965917450e-01  9.7818745649287930e-01  9.6926060543593451e-01  9.6151900151873326e-01  9.5650949830573784e-01  9.5229559396298658e-01  9.4923364913050934e-01  9.4781544259017947e-01  9.4623205354248108e-01  9.4572631449389666e-01  9.4597416131689804e-01  9.4565638303592059e-01  9.4616124032365534e-01  9.4641915090163142e-01  9.4601044455834893e-01  9.4658711905234838e-01  9.4680087410188862e-01  9.4692550779833851e-01  9.4763009215144467e-01  9.4850912378207286e-01  9.4941035124072670e-01  9.5078271577948426e-01  9.5172506761083642e-01  9.5462447994517041e-01  9.5661713271947457e-01  9.6003439717197403e-01  9.6359999643354122e-01  9.6952385529634644e-01  9.7361035988561584e-01  9.8078081187199873e-01  9.8586395003549598e-01  9.9387388823850353e-01  9.9689020405882633e-01  1.0031785462685892e+00  1.0025426947794789e+00  1.0038828178563139e+00  9.9529113910044953e-01  9.8927170428213440e-01  9.7240007540473927e-01  9.5940387971743246e-01  9.3780824330099077e-01  9.2776670441315634e-01  9.2156154208891450e-01  9.4505786352193188e-01  9.8884829325801693e-01  1.0631951505779160e+00  1.1224623957643953e+00  1.1391431590421697e+00  1.0785499017362150e+00  1.0049453762131837e+00  9.7813581945213390e-01  1.0185566794670633e+00  1.0533196373119960e+00  1.0293929200282936e+00  9.4431816027600957e-01  8.8234849731335752e-01  9.3355569554811613e-01  1.1222492530366190e+00  1.3196219871678487e+00  1.2981128792811221e+00  1.0963225446472649e+00  9.9076540537438162e-01  9.9212383431785844e-01  1.0005664722311567e+00  1.0006389343965070e+00  1.0000012066224828e+00  9.9988151921846413e-01  1.0003016966222871e+00  9.9999251033828918e-01  1.0001908391083894e+00  9.9836858515362570e-01  9.9503122260944799e-01  9.9555538285793499e-01  1.0139740781375650e+00  1.0571298335703205e+00  1.1185224339586688e+00  1.1765569388909261e+00  1.2049759773808157e+00  1.1738652561274989e+00  1.1119716297064577e+00  1.0572501622059192e+00  1.0257348593882905e+00  1.0012904759622294e+00  9.8313722757899746e-01  9.7646727129850375e-01  9.7594182413683872e-01  9.7903722889487821e-01  9.8395805407517756e-01  9.8594434489072702e-01  9.8967226994142665e-01  9.9216697004382592e-01  9.9775154900532925e-01  1.0068668675702159e+00  1.0138152723404117e+00  1.0203579669560479e+00  1.0213962775545593e+00  1.0196794949129013e+00  1.0181193401436130e+00  1.0132757575572173e+00  1.0084346746400721e+00  1.0011914327138098e+00  9.9137006170866115e-01  9.8353850270885246e-01  9.7539345663068100e-01  9.6841112064681667e-01  9.6395794351234743e-01  9.5844203707165188e-01  9.5483228206584247e-01  9.5202805011525082e-01  9.4897935538986233e-01  9.4778790209357022e-01  9.4592525784145653e-01  9.4436964830886716e-01  9.4399120353581634e-01  9.4323066636344377e-01  9.4356233989857274e-01  9.4440181536129408e-01  9.4509845566401107e-01  9.4712190544614427e-01  9.4899973426290130e-01  9.5103554094346621e-01  9.5377151038060104e-01  9.5679683348491407e-01  9.5986387293574849e-01  9.6299397748750504e-01  9.6547430811257196e-01  9.6869003591779657e-01  9.7030557099491410e-01  9.7162629397432110e-01  9.7196408286915015e-01  9.7265227413110611e-01  9.7093171502855469e-01  9.7025775551681248e-01  9.6799539583978489e-01  9.6780184863312380e-01  9.6536301176040740e-01  9.6674407709726906e-01  9.6665482842180661e-01  9.7122721889832386e-01  9.7381701803393783e-01  9.8235152319793884e-01  9.8823287848709440e-01  9.9938672312134846e-01  1.0040853035224311e+00  1.0091636534729036e+00  1.0036352598230767e+00  1.0019054441565285e+00  1.0055495838703996e+00  1.0387313259260151e+00  1.0833514289774167e+00  1.1077552448600134e+00  1.0639330150980741e+00  9.8916213776392514e-01  9.3209679076232621e-01  9.3533563019312471e-01  9.8650157834787211e-01  1.0581541629803701e+00  1.0984580940433675e+00  1.0974232534714174e+00  1.1006102556730637e+00  1.1532874624215794e+00  1.1553068903151640e+00  1.0659661994866612e+00  1.0017571909651157e+00  9.9546453059398965e-01  9.9985313198234549e-01  1.0002455424079284e+00  1.0000012066221453e+00  1.0006929501969342e+00  1.0001908391083891e+00  9.9807237500261470e-01  9.9416699450009238e-01  9.9859471170561509e-01  1.0219683066179579e+00  1.0679019594009922e+00  1.1098981248929312e+00  1.1161820403483100e+00  1.0946483847042003e+00  1.0799582295744308e+00  1.0919691955278878e+00  1.0954065230438992e+00  1.0686362883310740e+00  1.0464467959515136e+00  1.0395986120664711e+00  1.0356623769594977e+00  1.0168672572289759e+00  9.9372364632619403e-01  9.8298649979990249e-01  9.7819204641594559e-01  9.8121060442855923e-01  9.9134335026123555e-01  9.9953997904829495e-01  1.0114855604308515e+00  1.0152020667895925e+00  1.0114544965202266e+00  1.0065746915470637e+00  9.9852127613041197e-01  9.9435712862689152e-01  9.9266493827118829e-01  9.9006162219762217e-01  9.9038423523005381e-01  9.8979005436433654e-01  9.8970870986935999e-01  9.9025576400898596e-01  9.8818849864221048e-01  9.8566551664451107e-01  9.8153692962141526e-01  9.7618372181341906e-01  9.7190029682875012e-01  9.6679658691970005e-01  9.6212567854693731e-01  9.5812741699194826e-01  9.5450132702808010e-01  9.5237573300232592e-01  9.5057842710506268e-01  9.4958516629239653e-01  9.4956019664679270e-01  9.4963450608326239e-01  9.5030694058967291e-01  9.5130778231984814e-01  9.5222661661906449e-01  9.5392243169578261e-01  9.5484131631306879e-01  9.5617775572853247e-01  9.5682451192215101e-01  9.5785310484836128e-01  9.5800046088974367e-01  9.5909133082382647e-01  9.5859245441671137e-01  9.6036620333998379e-01  9.5983009987834955e-01  9.6179913976429554e-01  9.6118645508152312e-01  9.6412462049637360e-01  9.6295805816088964e-01  9.6636070475191649e-01  9.6461088497660996e-01  9.6893495748973990e-01  9.6662331896720421e-01  9.7251232312578628e-01  9.7170423895936764e-01  9.8174644367282216e-01  9.8686554832539763e-01  1.0069141536043777e+00  1.0224925037492161e+00  1.0505127271083536e+00  1.0615846062989596e+00  1.0657401670318032e+00  1.0359123905395595e+00  1.0044670853261306e+00  9.7603788439678774e-01  9.9691960491689358e-01  1.0292560089481930e+00  1.0472353898977349e+00  1.0149437333296918e+00  9.9205681386033640e-01  9.9909146942752070e-01  1.0564532635047510e+00  1.1101284446942927e+00  1.1175310118877442e+00  1.0567634541702051e+00  1.0204477503803258e+00  1.0812566672568784e+00  1.1391221136620431e+00  1.0735536069724345e+00  1.0031628094490597e+00  9.9509761617841630e-01  9.9985313198209169e-01  1.0006389343966351e+00  9.9954127099284162e-01  9.9836858515362292e-01  9.9416699450009338e-01  9.9851337178822275e-01  1.0243157723729734e+00  1.0732150765407598e+00  1.1176616986366583e+00  1.1175736561995564e+00  1.0760200008267837e+00  1.0194321562189321e+00  9.9091865266646928e-01  1.0015957457247311e+00  1.0573265711823121e+00  1.1103029318174777e+00  1.1123727358319575e+00  1.0744416814833506e+00  1.0447775419562513e+00  1.0368949558647453e+00  1.0238091507157447e+00  1.0078066549586542e+00  9.9608310055528515e-01  9.9247573864427907e-01  9.9909192079543785e-01  1.0021025824077217e+00  1.0013782270837983e+00  9.9769761249607569e-01  9.9015022098640837e-01  9.8608487706500947e-01  9.8248356555395611e-01  9.7802203034735535e-01  9.7729013624219108e-01  9.7527888345738267e-01  9.7613629222420684e-01  9.7941021555432384e-01  9.8085116457716370e-01  9.8316929690561217e-01  9.8388894643556535e-01  9.8214857694268642e-01  9.8126917127143787e-01  9.7830139716257314e-01  9.7470866516161014e-01  9.7171244560991543e-01  9.6814904357899390e-01  9.6566623591734868e-01  9.6370018496075316e-01  9.6141317072484012e-01  9.6015092550884051e-01  9.5916407219723199e-01  9.5775037722025169e-01  9.5719218095356429e-01  9.5633681256291858e-01  9.5536013239815643e-01  9.5421949771044612e-01  9.5289430643320350e-01  9.5119265090241301e-01  9.5000133183858060e-01  9.4793798459830880e-01  9.4720810122750809e-01  9.4582076550999084e-01  9.4565059293888054e-01  9.4490194746630463e-01  9.4667828691881339e-01  9.4693237443629874e-01  9.5089603052156191e-01  9.5314614468858816e-01  9.6019340793049313e-01  9.6459897156325947e-01  9.7484128700813855e-01  9.8166442017879485e-01  9.9551218133282593e-01  1.0041339595041883e+00  1.0209699005678612e+00  1.0301952003889467e+00  1.0465181042359084e+00  1.0491139203080726e+00  1.0534957141008452e+00  1.0379148002547114e+00  1.0240508367491838e+00  9.9750491598276980e-01  9.8986533008809330e-01  9.8453726540476438e-01  9.9847420583362667e-01  9.9351290046067642e-01  9.8669700085553214e-01  9.7046834517453862e-01  9.9642894486710198e-01  1.0408375848569662e+00  1.1118059969131531e+00  1.1544524518428150e+00  1.1532434247634156e+00  1.0756776910231114e+00  1.0019458143288482e+00  9.6180793765303230e-01  9.7521591341497360e-01  1.0071291729414253e+00  1.0982228927971225e+00  1.1500094156636105e+00  1.0775259606801593e+00  1.0031628094488956e+00  9.9546453059428341e-01  1.0005664722311431e+00  9.9450943103958800e-01  9.9503122260944987e-01  9.9859471170561276e-01  1.0243157723729701e+00  1.0742131846600962e+00  1.1170000184883613e+00  1.1185186482354093e+00  1.0721577302194880e+00  1.0218714334073422e+00  9.9144963054572355e-01  9.8307348959679874e-01  9.8642816433514047e-01  9.9898733340166201e-01  1.0373399232403144e+00  1.0876375394314675e+00  1.1079947690627650e+00  1.0794455366927205e+00  1.0486280339383471e+00  1.0460870717791912e+00  1.0599492669370576e+00  1.0597180109476458e+00  1.0424246793884726e+00  1.0189777954349735e+00  9.9384261568363719e-01  9.7695262296126961e-01  9.6713274131883598e-01  9.6224011980357038e-01  9.6546667345636161e-01  9.6821189616648928e-01  9.7136603627870743e-01  9.7595935600975670e-01  9.7606297334868708e-01  9.7731143702852952e-01  9.7692628056697328e-01  9.7415942815321277e-01  9.7390641031641778e-01  9.7268010800862392e-01  9.7203632410074270e-01  9.7380391332698080e-01  9.7428630777569314e-01  9.7637141786946635e-01  9.7867811498917279e-01  9.7976349515416516e-01  9.8119716964823822e-01  9.8156009842760172e-01  9.8124534422456022e-01  9.8106748847580594e-01  9.7977660031794733e-01  9.7810732380855692e-01  9.7634235443098627e-01  9.7342195212209959e-01  9.7096564710291755e-01  9.6816525074105686e-01  9.6581276349257816e-01  9.6347198175273074e-01  9.6226033523608723e-01  9.6080725204122031e-01  9.6110232208555679e-01  9.6026315993222999e-01  9.6203341099207818e-01  9.6231627625215954e-01  9.6497776469917251e-01  9.6512517191149705e-01  9.6900778176071600e-01  9.6880529598178233e-01  9.7314314412574676e-01  9.7255725749578481e-01  9.7890108037075729e-01  9.7957468591620334e-01  9.8890528430628111e-01  9.9292478597588407e-01  1.0074369661324225e+00  1.0150116490619436e+00  1.0327344423727485e+00  1.0404834838379295e+00  1.0548487944846341e+00  1.0522347884229526e+00  1.0493028153038158e+00  1.0232799016693568e+00  9.9472697933446375e-01  9.4941823153715799e-01  9.2063931174810054e-01  9.0713392295424577e-01  9.4195192409849104e-01  1.0091505721228766e+00  1.1113642944048372e+00  1.1858882296055500e+00  1.1886283230516952e+00  1.0959922066138528e+00  1.0228711463339635e+00  9.9253914993564030e-01  1.0116272528104491e+00  1.0106359106268867e+00  1.0101193379448870e+00  9.8480648433487927e-01  1.0035051091626792e+00  1.0797222171929217e+00  1.1500094156635037e+00  1.0735536069728553e+00  1.0017571909652874e+00  9.9212383431737450e-01  9.9027200987313979e-01  9.9555538285793477e-01  1.0219683066179599e+00  1.0732150765407606e+00  1.1170000184883582e+00  1.1177545107243234e+00  1.0686836199082081e+00  1.0194608830330023e+00  9.9157795678130367e-01  9.8655555723922472e-01  9.8810342884712143e-01  9.8596240062567242e-01  9.8411693207392970e-01  9.8405919893089777e-01  1.0079671972960000e+00  1.0677023829502448e+00  1.1272142178609772e+00  1.1402380702093067e+00  1.1002948527032423e+00  1.0640177382529477e+00  1.0522908419690591e+00  1.0449553778705458e+00  1.0326442710413393e+00  1.0094303512684901e+00  9.8802117041801374e-01  9.7649230464114356e-01  9.6617009061525461e-01  9.6171405717498304e-01  9.5747522281852238e-01  9.5296185581535631e-01  9.5436323201222739e-01  9.5457237256669125e-01  9.5653936845036591e-01  9.6001704368974405e-01  9.6120015261652125e-01  9.6496460138105877e-01  9.6877170417378189e-01  9.7170879091968387e-01  9.7694144322882193e-01  9.8034770177261266e-01  9.8382063148543331e-01  9.8725364029240104e-01  9.8885536544233976e-01  9.9063056117173054e-01  9.9189655956305278e-01  9.9168779009823949e-01  9.9132647373713190e-01  9.9016022115845448e-01  9.8813134386769097e-01  9.8647770927503065e-01  9.8433261845456543e-01  9.8258257828553686e-01  9.8056395357641246e-01  9.7930552885743238e-01  9.7759256855172194e-01  9.7712639694806780e-01  9.7582513701303686e-01  9.7649838488933172e-01  9.7635983496204926e-01  9.7885934440711087e-01  9.7939171994457719e-01  9.8389401748916250e-01  9.8575420788451740e-01  9.9189150422363459e-01  9.9426689496445531e-01  1.0026017493813493e+00  1.0059306573262217e+00  1.0155429040516601e+00  1.0179273881811315e+00  1.0270078694907891e+00  1.0254131444637251e+00  1.0277199347459225e+00  1.0171692785639646e+00  1.0095638543027499e+00  9.9015739360942068e-01  9.7616940858440771e-01  9.5867613527210704e-01  9.5182329841372471e-01  9.4890573876108431e-01  9.5875294371176489e-01  9.7561165940929273e-01  9.9982790038559977e-01  1.0234729616871567e+00  1.0403527031964199e+00  1.0506340829403404e+00  1.0564512741248646e+00  1.0806667290280292e+00  1.1218894627465306e+00  1.1339426248745503e+00  1.0804546615824513e+00  1.0040800024203107e+00  9.7141253318908394e-01  9.6466704288596516e-01  9.8693550126487106e-01  9.9113100001789145e-01  1.0013905088345758e+00  1.0035051091623302e+00  1.0982228927969711e+00  1.1391221136619059e+00  1.0659661994867775e+00  9.9076540537498270e-01  9.9614295705734146e-01  1.0139740781375712e+00  1.0679019594009884e+00  1.1176616986366625e+00  1.1185186482354081e+00  1.0686836199082062e+00  1.0188584955668756e+00  9.9012321754946997e-01  9.8666324368768010e-01  9.8913643802410611e-01  9.9036272677807746e-01  9.9257338450909860e-01  9.8920921354807723e-01  9.8977722101858734e-01  9.9249017103386350e-01  1.0059517242622849e+00  1.0434872911810753e+00  1.1040216617847192e+00  1.1428307334384393e+00  1.1253481414784312e+00  1.0729657695839370e+00  1.0331948899142307e+00  1.0257212430546843e+00  1.0287155735583093e+00  1.0259113632640879e+00  1.0128151141949400e+00  9.8945735346021113e-01  9.7099103592746250e-01  9.5780832173710428e-01  9.4910284723161997e-01  9.4716105811888407e-01  9.4376485501201823e-01  9.4286116731614866e-01  9.4602973150893466e-01  9.4811121648356889e-01  9.5439750915383970e-01  9.6039468605430089e-01  9.6454165328383068e-01  9.7099326566523969e-01  9.7515465670480306e-01  9.7969233902839647e-01  9.8530050351531961e-01  9.8915989818833994e-01  9.9345821418849090e-01  9.9749079625018111e-01  9.9974836657631871e-01  1.0028349514597081e+00  1.0050993164853730e+00  1.0067184065943138e+00  1.0089907193164720e+00  1.0096883305219166e+00  1.0104851892262710e+00  1.0108630188971579e+00  1.0110000625578424e+00  1.0097517913681135e+00  1.0095592061179890e+00  1.0073155061322356e+00  1.0064798825043624e+00  1.0030654997196022e+00  1.0021754552167230e+00  9.9892591634833805e-01  9.9970021959442779e-01  9.9729096455059352e-01  1.0008191166444127e+00  1.0001418016419952e+00  1.0050486744305989e+00  1.0036282669101697e+00  1.0079658605903727e+00  1.0040322363941236e+00  1.0051339377317861e+00  9.9741716374472866e-01  9.9505386750453595e-01  9.8524360027333424e-01  9.7988618233203750e-01  9.7110015223249357e-01  9.6578567508110513e-01  9.6173688853729000e-01  9.5829120003620694e-01  9.6317162453339444e-01  9.6525522465682545e-01  9.8584796106358052e-01  1.0068879981183916e+00  1.0573965254801596e+00  1.0933312422660229e+00  1.1302597676940203e+00  1.1064275462744531e+00  1.0701757690281160e+00  1.0046539941924171e+00  1.0059713588889299e+00  1.0137991926697374e+00  1.0337835498878678e+00  1.0181280956088687e+00  1.0180182412008365e+00  1.0036833470026210e+00  9.9711365475828317e-01  9.9113100001754306e-01  9.8480648433521645e-01  1.0071291729412435e+00  1.0812566672562105e+00  1.1553068903160968e+00  1.0963225446488627e+00  1.0412727640540123e+00  1.0571298335703194e+00  1.1098981248929318e+00  1.1175736561995564e+00  1.0721577302194929e+00  1.0194608830329979e+00  9.9012321754946919e-01  9.8690103004018093e-01  9.8765620899005357e-01  9.9146580718513144e-01  9.9033384256795898e-01  9.9055376017523677e-01  9.9149939660493502e-01  9.9651804762065899e-01  1.0015693206359126e+00  1.0051488812748808e+00  1.0078382747907064e+00  1.0226048458201606e+00  1.0598921526778149e+00  1.1107382355533322e+00  1.1341856014688059e+00  1.1047776067689972e+00  1.0520923554758683e+00  1.0111728716976600e+00  9.9473781400996564e-01  9.9721424360630750e-01  9.9852022515705807e-01  9.9837977757452467e-01  9.9233184274045927e-01  9.7825109965930235e-01  9.6822953751073559e-01  9.5770229558954312e-01  9.5179775023530533e-01  9.5168643393078933e-01  9.4900306914499855e-01  9.5033299770008450e-01  9.5276646966189249e-01  9.5510996909084944e-01  9.6251005410326529e-01  9.6915929173622339e-01  9.7585659917125334e-01  9.8399594418102576e-01  9.8923877764132517e-01  9.9462420049262878e-01  9.9983000635373409e-01  1.0030809728842940e+00  1.0073385359480980e+00  1.0105515938863427e+00  1.0127270550190062e+00  1.0157841648256023e+00  1.0179624050967273e+00  1.0205296509049122e+00  1.0226646013664207e+00  1.0249743828337987e+00  1.0263866906665740e+00  1.0285537519981498e+00  1.0280745921203451e+00  1.0291780023334374e+00  1.0269075553612184e+00  1.0262226189236245e+00  1.0208235358446152e+00  1.0181668556382317e+00  1.0100608571975540e+00  1.0064546522636573e+00  9.9719767050663921e-01  9.9408179326100621e-01  9.8466517661285347e-01  9.8062920764670891e-01  9.6911326219830263e-01  9.6241565743299173e-01  9.4980116225884514e-01  9.4155478844848495e-01  9.3181589050750258e-01  9.2601656530083942e-01  9.2565150931187135e-01  9.2703982843666222e-01  9.4549203307871421e-01  9.6402368350049361e-01  1.0113991169431669e+00  1.0488116839340047e+00  1.1097805952193875e+00  1.1203933110166278e+00  1.1284924352747112e+00  1.0646931844020384e+00  1.0302071876360934e+00  9.6665781103039772e-01  9.8328533033378895e-01  9.7736628770282052e-01  1.0408220278169540e+00  1.0481942853409711e+00  1.0842973098693005e+00  1.0145514680291872e+00  9.9913066459591560e-01  9.6507284020390993e-01  1.0036833470037136e+00  9.8693550126444052e-01  1.0101193379450839e+00  9.7521591341451108e-01  1.0204477503807869e+00  1.1532874624211913e+00  1.2981128792825640e+00  1.1285489853551693e+00  1.1185224339586701e+00  1.1161820403483129e+00  1.0760200008267866e+00  1.0218714334073415e+00  9.9157795678130256e-01  9.8666324368768199e-01  9.8765620899005280e-01  9.9174269036655160e-01  9.9066086763446493e-01  9.9009025909477122e-01  9.9329301423722471e-01  9.9907368124223506e-01  1.0074950835912140e+00  1.0145978127624433e+00  1.0169470892169834e+00  1.0146322467278261e+00  1.0037768005670267e+00  9.9166553463501150e-01  9.9470933638961501e-01  1.0282469599127713e+00  1.0782183086891168e+00  1