<?xml version="1.0"?>
<VTKFile type="UnstructuredGrid"  version="0.1"  >
<UnstructuredGrid>
<Piece  NumberOfPoints="10201" NumberOfCells="20000">
<Points>
<DataArray  type="Float64"  NumberOfComponents="3"  format="ascii">-5 -5 0  -4.9 -5 0  -4.8 -5 0  -4.7 -5 0  -4.6 -5 0  -4.5 -5 0  -4.4 -5 0  -4.3 -5 0  -4.2 -5 0  -4.1 -5 0  -4 -5 0  -3.9 -5 0  -3.8 -5 0  -3.7 -5 0  -3.6 -5 0  -3.5 -5 0  -3.4 -5 0  -3.3 -5 0  -3.2 -5 0  -3.1 -5 0  -3 -5 0  -2.9 -5 0  -2.8 -5 0  -2.7 -5 0  -2.6 -5 0  -2.5 -5 0  -2.4 -5 0  -2.3 -5 0  -2.2 -5 0  -2.1 -5 0  -2 -5 0  -1.9 -5 0  -1.8 -5 0  -1.7 -5 0  -1.6 -5 0  -1.5 -5 0  -1.4 -5 0  -1.3 -5 0  -1.2 -5 0  -1.1 -5 0  -1 -5 0  -0.9000000000000004 -5 0  -0.7999999999999998 -5 0  -0.7000000000000002 -5 0  -0.5999999999999996 -5 0  -0.5 -5 0  -0.4000000000000004 -5 0  -0.2999999999999998 -5 0  -0.2000000000000002 -5 0  -0.09999999999999964 -5 0  0 -5 0  0.09999999999999964 -5 0  0.2000000000000002 -5 0  0.2999999999999998 -5 0  0.4000000000000004 -5 0  0.5 -5 0  0.5999999999999996 -5 0  0.7000000000000002 -5 0  0.7999999999999998 -5 0  0.9000000000000004 -5 0  1 -5 0  1.1 -5 0  1.2 -5 0  1.3 -5 0  1.4 -5 0  1.5 -5 0  1.6 -5 0  1.7 -5 0  1.8 -5 0  1.9 -5 0  2 -5 0  2.1 -5 0  2.2 -5 0  2.3 -5 0  2.4 -5 0  2.5 -5 0  2.6 -5 0  2.7 -5 0  2.8 -5 0  2.9 -5 0  3 -5 0  3.1 -5 0  3.199999999999999 -5 0  3.300000000000001 -5 0  3.4 -5 0  3.5 -5 0  3.6 -5 0  3.699999999999999 -5 0  3.800000000000001 -5 0  3.9 -5 0  4 -5 0  4.1 -5 0  4.199999999999999 -5 0  4.300000000000001 -5 0  4.4 -5 0  4.5 -5 0  4.6 -5 0  4.699999999999999 -5 0  4.800000000000001 -5 0  4.9 -5 0  5 -5 0  -5 -4.9 0  -4.9 -4.9 0  -4.8 -4.9 0  -4.7 -4.9 0  -4.6 -4.9 0  -4.5 -4.9 0  -4.4 -4.9 0  -4.3 -4.9 0  -4.2 -4.9 0  -4.1 -4.9 0  -4 -4.9 0  -3.9 -4.9 0  -3.8 -4.9 0  -3.7 -4.9 0  -3.6 -4.9 0  -3.5 -4.9 0  -3.4 -4.9 0  -3.3 -4.9 0  -3.2 -4.9 0  -3.1 -4.9 0  -3 -4.9 0  -2.9 -4.9 0  -2.8 -4.9 0  -2.7 -4.9 0  -2.6 -4.9 0  -2.5 -4.9 0  -2.4 -4.9 0  -2.3 -4.9 0  -2.2 -4.9 0  -2.1 -4.9 0  -2 -4.9 0  -1.9 -4.9 0  -1.8 -4.9 0  -1.7 -4.9 0  -1.6 -4.9 0  -1.5 -4.9 0  -1.4 -4.9 0  -1.3 -4.9 0  -1.2 -4.9 0  -1.1 -4.9 0  -1 -4.9 0  -0.9000000000000004 -4.9 0  -0.7999999999999998 -4.9 0  -0.7000000000000002 -4.9 0  -0.5999999999999996 -4.9 0  -0.5 -4.9 0  -0.4000000000000004 -4.9 0  -0.2999999999999998 -4.9 0  -0.2000000000000002 -4.9 0  -0.09999999999999964 -4.9 0  0 -4.9 0  0.09999999999999964 -4.9 0  0.2000000000000002 -4.9 0  0.2999999999999998 -4.9 0  0.4000000000000004 -4.9 0  0.5 -4.9 0  0.5999999999999996 -4.9 0  0.7000000000000002 -4.9 0  0.7999999999999998 -4.9 0  0.9000000000000004 -4.9 0  1 -4.9 0  1.1 -4.9 0  1.2 -4.9 0  1.3 -4.9 0  1.4 -4.9 0  1.5 -4.9 0  1.6 -4.9 0  1.7 -4.9 0  1.8 -4.9 0  1.9 -4.9 0  2 -4.9 0  2.1 -4.9 0  2.2 -4.9 0  2.3 -4.9 0  2.4 -4.9 0  2.5 -4.9 0  2.6 -4.9 0  2.7 -4.9 0  2.8 -4.9 0  2.9 -4.9 0  3 -4.9 0  3.1 -4.9 0  3.199999999999999 -4.9 0  3.300000000000001 -4.9 0  3.4 -4.9 0  3.5 -4.9 0  3.6 -4.9 0  3.699999999999999 -4.9 0  3.800000000000001 -4.9 0  3.9 -4.9 0  4 -4.9 0  4.1 -4.9 0  4.199999999999999 -4.9 0  4.300000000000001 -4.9 0  4.4 -4.9 0  4.5 -4.9 0  4.6 -4.9 0  4.699999999999999 -4.9 0  4.800000000000001 -4.9 0  4.9 -4.9 0  5 -4.9 0  -5 -4.8 0  -4.9 -4.8 0  -4.8 -4.8 0  -4.7 -4.8 0  -4.6 -4.8 0  -4.5 -4.8 0  -4.4 -4.8 0  -4.3 -4.8 0  -4.2 -4.8 0  -4.1 -4.8 0  -4 -4.8 0  -3.9 -4.8 0  -3.8 -4.8 0  -3.7 -4.8 0  -3.6 -4.8 0  -3.5 -4.8 0  -3.4 -4.8 0  -3.3 -4.8 0  -3.2 -4.8 0  -3.1 -4.8 0  -3 -4.8 0  -2.9 -4.8 0  -2.8 -4.8 0  -2.7 -4.8 0  -2.6 -4.8 0  -2.5 -4.8 0  -2.4 -4.8 0  -2.3 -4.8 0  -2.2 -4.8 0  -2.1 -4.8 0  -2 -4.8 0  -1.9 -4.8 0  -1.8 -4.8 0  -1.7 -4.8 0  -1.6 -4.8 0  -1.5 -4.8 0  -1.4 -4.8 0  -1.3 -4.8 0  -1.2 -4.8 0  -1.1 -4.8 0  -1 -4.8 0  -0.9000000000000004 -4.8 0  -0.7999999999999998 -4.8 0  -0.7000000000000002 -4.8 0  -0.5999999999999996 -4.8 0  -0.5 -4.8 0  -0.4000000000000004 -4.8 0  -0.2999999999999998 -4.8 0  -0.2000000000000002 -4.8 0  -0.09999999999999964 -4.8 0  0 -4.8 0  0.09999999999999964 -4.8 0  0.2000000000000002 -4.8 0  0.2999999999999998 -4.8 0  0.4000000000000004 -4.8 0  0.5 -4.8 0  0.5999999999999996 -4.8 0  0.7000000000000002 -4.8 0  0.7999999999999998 -4.8 0  0.9000000000000004 -4.8 0  1 -4.8 0  1.1 -4.8 0  1.2 -4.8 0  1.3 -4.8 0  1.4 -4.8 0  1.5 -4.8 0  1.6 -4.8 0  1.7 -4.8 0  1.8 -4.8 0  1.9 -4.8 0  2 -4.8 0  2.1 -4.8 0  2.2 -4.8 0  2.3 -4.8 0  2.4 -4.8 0  2.5 -4.8 0  2.6 -4.8 0  2.7 -4.8 0  2.8 -4.8 0  2.9 -4.8 0  3 -4.8 0  3.1 -4.8 0  3.199999999999999 -4.8 0  3.300000000000001 -4.8 0  3.4 -4.8 0  3.5 -4.8 0  3.6 -4.8 0  3.699999999999999 -4.8 0  3.800000000000001 -4.8 0  3.9 -4.8 0  4 -4.8 0  4.1 -4.8 0  4.199999999999999 -4.8 0  4.300000000000001 -4.8 0  4.4 -4.8 0  4.5 -4.8 0  4.6 -4.8 0  4.699999999999999 -4.8 0  4.800000000000001 -4.8 0  4.9 -4.8 0  5 -4.8 0  -5 -4.7 0  -4.9 -4.7 0  -4.8 -4.7 0  -4.7 -4.7 0  -4.6 -4.7 0  -4.5 -4.7 0  -4.4 -4.7 0  -4.3 -4.7 0  -4.2 -4.7 0  -4.1 -4.7 0  -4 -4.7 0  -3.9 -4.7 0  -3.8 -4.7 0  -3.7 -4.7 0  -3.6 -4.7 0  -3.5 -4.7 0  -3.4 -4.7 0  -3.3 -4.7 0  -3.2 -4.7 0  -3.1 -4.7 0  -3 -4.7 0  -2.9 -4.7 0  -2.8 -4.7 0  -2.7 -4.7 0  -2.6 -4.7 0  -2.5 -4.7 0  -2.4 -4.7 0  -2.3 -4.7 0  -2.2 -4.7 0  -2.1 -4.7 0  -2 -4.7 0  -1.9 -4.7 0  -1.8 -4.7 0  -1.7 -4.7 0  -1.6 -4.7 0  -1.5 -4.7 0  -1.4 -4.7 0  -1.3 -4.7 0  -1.2 -4.7 0  -1.1 -4.7 0  -1 -4.7 0  -0.9000000000000004 -4.7 0  -0.7999999999999998 -4.7 0  -0.7000000000000002 -4.7 0  -0.5999999999999996 -4.7 0  -0.5 -4.7 0  -0.4000000000000004 -4.7 0  -0.2999999999999998 -4.7 0  -0.2000000000000002 -4.7 0  -0.09999999999999964 -4.7 0  0 -4.7 0  0.09999999999999964 -4.7 0  0.2000000000000002 -4.7 0  0.2999999999999998 -4.7 0  0.4000000000000004 -4.7 0  0.5 -4.7 0  0.5999999999999996 -4.7 0  0.7000000000000002 -4.7 0  0.7999999999999998 -4.7 0  0.9000000000000004 -4.7 0  1 -4.7 0  1.1 -4.7 0  1.2 -4.7 0  1.3 -4.7 0  1.4 -4.7 0  1.5 -4.7 0  1.6 -4.7 0  1.7 -4.7 0  1.8 -4.7 0  1.9 -4.7 0  2 -4.7 0  2.1 -4.7 0  2.2 -4.7 0  2.3 -4.7 0  2.4 -4.7 0  2.5 -4.7 0  2.6 -4.7 0  2.7 -4.7 0  2.8 -4.7 0  2.9 -4.7 0  3 -4.7 0  3.1 -4.7 0  3.199999999999999 -4.7 0  3.300000000000001 -4.7 0  3.4 -4.7 0  3.5 -4.7 0  3.6 -4.7 0  3.699999999999999 -4.7 0  3.800000000000001 -4.7 0  3.9 -4.7 0  4 -4.7 0  4.1 -4.7 0  4.199999999999999 -4.7 0  4.300000000000001 -4.7 0  4.4 -4.7 0  4.5 -4.7 0  4.6 -4.7 0  4.699999999999999 -4.7 0  4.800000000000001 -4.7 0  4.9 -4.7 0  5 -4.7 0  -5 -4.6 0  -4.9 -4.6 0  -4.8 -4.6 0  -4.7 -4.6 0  -4.6 -4.6 0  -4.5 -4.6 0  -4.4 -4.6 0  -4.3 -4.6 0  -4.2 -4.6 0  -4.1 -4.6 0  -4 -4.6 0  -3.9 -4.6 0  -3.8 -4.6 0  -3.7 -4.6 0  -3.6 -4.6 0  -3.5 -4.6 0  -3.4 -4.6 0  -3.3 -4.6 0  -3.2 -4.6 0  -3.1 -4.6 0  -3 -4.6 0  -2.9 -4.6 0  -2.8 -4.6 0  -2.7 -4.6 0  -2.6 -4.6 0  -2.5 -4.6 0  -2.4 -4.6 0  -2.3 -4.6 0  -2.2 -4.6 0  -2.1 -4.6 0  -2 -4.6 0  -1.9 -4.6 0  -1.8 -4.6 0  -1.7 -4.6 0  -1.6 -4.6 0  -1.5 -4.6 0  -1.4 -4.6 0  -1.3 -4.6 0  -1.2 -4.6 0  -1.1 -4.6 0  -1 -4.6 0  -0.9000000000000004 -4.6 0  -0.7999999999999998 -4.6 0  -0.7000000000000002 -4.6 0  -0.5999999999999996 -4.6 0  -0.5 -4.6 0  -0.4000000000000004 -4.6 0  -0.2999999999999998 -4.6 0  -0.2000000000000002 -4.6 0  -0.09999999999999964 -4.6 0  0 -4.6 0  0.09999999999999964 -4.6 0  0.2000000000000002 -4.6 0  0.2999999999999998 -4.6 0  0.4000000000000004 -4.6 0  0.5 -4.6 0  0.5999999999999996 -4.6 0  0.7000000000000002 -4.6 0  0.7999999999999998 -4.6 0  0.9000000000000004 -4.6 0  1 -4.6 0  1.1 -4.6 0  1.2 -4.6 0  1.3 -4.6 0  1.4 -4.6 0  1.5 -4.6 0  1.6 -4.6 0  1.7 -4.6 0  1.8 -4.6 0  1.9 -4.6 0  2 -4.6 0  2.1 -4.6 0  2.2 -4.6 0  2.3 -4.6 0  2.4 -4.6 0  2.5 -4.6 0  2.6 -4.6 0  2.7 -4.6 0  2.8 -4.6 0  2.9 -4.6 0  3 -4.6 0  3.1 -4.6 0  3.199999999999999 -4.6 0  3.300000000000001 -4.6 0  3.4 -4.6 0  3.5 -4.6 0  3.6 -4.6 0  3.699999999999999 -4.6 0  3.800000000000001 -4.6 0  3.9 -4.6 0  4 -4.6 0  4.1 -4.6 0  4.199999999999999 -4.6 0  4.300000000000001 -4.6 0  4.4 -4.6 0  4.5 -4.6 0  4.6 -4.6 0  4.699999999999999 -4.6 0  4.800000000000001 -4.6 0  4.9 -4.6 0  5 -4.6 0  -5 -4.5 0  -4.9 -4.5 0  -4.8 -4.5 0  -4.7 -4.5 0  -4.6 -4.5 0  -4.5 -4.5 0  -4.4 -4.5 0  -4.3 -4.5 0  -4.2 -4.5 0  -4.1 -4.5 0  -4 -4.5 0  -3.9 -4.5 0  -3.8 -4.5 0  -3.7 -4.5 0  -3.6 -4.5 0  -3.5 -4.5 0  -3.4 -4.5 0  -3.3 -4.5 0  -3.2 -4.5 0  -3.1 -4.5 0  -3 -4.5 0  -2.9 -4.5 0  -2.8 -4.5 0  -2.7 -4.5 0  -2.6 -4.5 0  -2.5 -4.5 0  -2.4 -4.5 0  -2.3 -4.5 0  -2.2 -4.5 0  -2.1 -4.5 0  -2 -4.5 0  -1.9 -4.5 0  -1.8 -4.5 0  -1.7 -4.5 0  -1.6 -4.5 0  -1.5 -4.5 0  -1.4 -4.5 0  -1.3 -4.5 0  -1.2 -4.5 0  -1.1 -4.5 0  -1 -4.5 0  -0.9000000000000004 -4.5 0  -0.7999999999999998 -4.5 0  -0.7000000000000002 -4.5 0  -0.5999999999999996 -4.5 0  -0.5 -4.5 0  -0.4000000000000004 -4.5 0  -0.2999999999999998 -4.5 0  -0.2000000000000002 -4.5 0  -0.09999999999999964 -4.5 0  0 -4.5 0  0.09999999999999964 -4.5 0  0.2000000000000002 -4.5 0  0.2999999999999998 -4.5 0  0.4000000000000004 -4.5 0  0.5 -4.5 0  0.5999999999999996 -4.5 0  0.7000000000000002 -4.5 0  0.7999999999999998 -4.5 0  0.9000000000000004 -4.5 0  1 -4.5 0  1.1 -4.5 0  1.2 -4.5 0  1.3 -4.5 0  1.4 -4.5 0  1.5 -4.5 0  1.6 -4.5 0  1.7 -4.5 0  1.8 -4.5 0  1.9 -4.5 0  2 -4.5 0  2.1 -4.5 0  2.2 -4.5 0  2.3 -4.5 0  2.4 -4.5 0  2.5 -4.5 0  2.6 -4.5 0  2.7 -4.5 0  2.8 -4.5 0  2.9 -4.5 0  3 -4.5 0  3.1 -4.5 0  3.199999999999999 -4.5 0  3.300000000000001 -4.5 0  3.4 -4.5 0  3.5 -4.5 0  3.6 -4.5 0  3.699999999999999 -4.5 0  3.800000000000001 -4.5 0  3.9 -4.5 0  4 -4.5 0  4.1 -4.5 0  4.199999999999999 -4.5 0  4.300000000000001 -4.5 0  4.4 -4.5 0  4.5 -4.5 0  4.6 -4.5 0  4.699999999999999 -4.5 0  4.800000000000001 -4.5 0  4.9 -4.5 0  5 -4.5 0  -5 -4.4 0  -4.9 -4.4 0  -4.8 -4.4 0  -4.7 -4.4 0  -4.6 -4.4 0  -4.5 -4.4 0  -4.4 -4.4 0  -4.3 -4.4 0  -4.2 -4.4 0  -4.1 -4.4 0  -4 -4.4 0  -3.9 -4.4 0  -3.8 -4.4 0  -3.7 -4.4 0  -3.6 -4.4 0  -3.5 -4.4 0  -3.4 -4.4 0  -3.3 -4.4 0  -3.2 -4.4 0  -3.1 -4.4 0  -3 -4.4 0  -2.9 -4.4 0  -2.8 -4.4 0  -2.7 -4.4 0  -2.6 -4.4 0  -2.5 -4.4 0  -2.4 -4.4 0  -2.3 -4.4 0  -2.2 -4.4 0  -2.1 -4.4 0  -2 -4.4 0  -1.9 -4.4 0  -1.8 -4.
[...]
<PointData  Vectors="f_23"> 
<DataArray  type="Float64"  Name="f_23"  NumberOfComponents="3" format="ascii">1.4999999999981714e-01 0.0000000000000000e+00 0.0000000000000000e+00  1.5000000000064972e-01 2.4190850077230461e-27 0.0000000000000000e+00  1.5000000000188060e-01 8.4791349246242972e-24 0.0000000000000000e+00  1.5000000001295058e-01 1.7137889016559173e-22 0.0000000000000000e+00  1.5000000006069378e-01 2.4934214248161768e-21 0.0000000000000000e+00  1.5000000022286114e-01 2.9511851993119016e-20 0.0000000000000000e+00  1.5000000072017344e-01 2.5475986942205133e-19 0.0000000000000000e+00  1.5000000206918479e-01 1.6516838658516897e-18 0.0000000000000000e+00  1.5000000525035995e-01 8.4024147831796139e-18 0.0000000000000000e+00  1.5000001186023548e-01 3.2948166916063010e-17 0.0000000000000000e+00  1.5000002390178058e-01 9.6502793603692229e-17 0.0000000000000000e+00  1.5000004261985767e-01 2.0538637671608415e-16 0.0000000000000000e+00  1.5000006648843683e-01 2.9720908153045678e-16 0.0000000000000000e+00  1.5000008924487562e-01 2.3627744992677629e-16 0.0000000000000000e+00  1.5000009895904176e-01 3.0670203426463024e-17 0.0000000000000000e+00  1.5000007998189810e-01 2.0492854297258534e-16 0.0000000000000000e+00  1.5000001875818550e-01 2.1651660842092872e-15 0.0000000000000000e+00  1.4999990901224941e-01 8.9413012587535810e-15 0.0000000000000000e+00  1.4999975396319160e-01 2.3493724647137842e-14 0.0000000000000000e+00  1.4999957793394744e-01 3.6080060817891237e-14 0.0000000000000000e+00  1.4999945131450540e-01 2.0493186605578970e-14 0.0000000000000000e+00  1.4999948667696844e-01 7.8721555125133122e-16 0.0000000000000000e+00  1.4999975595269385e-01 7.0006028858236266e-14 0.0000000000000000e+00  1.5000017163971635e-01 1.5834436324723808e-13 0.0000000000000000e+00  1.5000048142659769e-01 8.5425118492914691e-14 0.0000000000000000e+00  1.5000047124205812e-01 3.6311473784625864e-16 0.0000000000000000e+00  1.5000020790619772e-01 3.6487926085300601e-14 0.0000000000000000e+00  1.4999997779122359e-01 4.3746097891681451e-14 0.0000000000000000e+00  1.4999992834843048e-01 1.3333836754323558e-14 0.0000000000000000e+00  1.4999994988916618e-01 1.1703238688589110e-16 0.0000000000000000e+00  1.4999998952739607e-01 8.5364951439199231e-15 0.0000000000000000e+00  1.5000012942426322e-01 1.6437710766772670e-14 0.0000000000000000e+00  1.5000021655902498e-01 1.2554421711448655e-17 0.0000000000000000e+00  1.4999998537283701e-01 2.9009437942007327e-14 0.0000000000000000e+00  1.4999971310287355e-01 1.0127440621857974e-14 0.0000000000000000e+00  1.4999991522447517e-01 1.7288575971486416e-14 0.0000000000000000e+00  1.5000029083522887e-01 2.1411791230614309e-14 0.0000000000000000e+00  1.5000013566693443e-01 6.8754683612888756e-15 0.0000000000000000e+00  1.4999973589234741e-01 2.2445097745625219e-14 0.0000000000000000e+00  1.4999986606474941e-01 2.3856967001855889e-15 0.0000000000000000e+00  1.5000023119190858e-01 1.7202962669759833e-14 0.0000000000000000e+00  1.5000009776821907e-01 1.1088933768878169e-15 0.0000000000000000e+00  1.4999980261543089e-01 1.1024698009311739e-14 0.0000000000000000e+00  1.4999995238982253e-01 9.2964120216937640e-16 0.0000000000000000e+00  1.5000016043512043e-01 6.1084333064703026e-15 0.0000000000000000e+00  1.5000000030955146e-01 1.0880106021155068e-15 0.0000000000000000e+00  1.4999988133439074e-01 2.8067029595361264e-15 0.0000000000000000e+00  1.5000003313374996e-01 1.2247883246743050e-15 0.0000000000000000e+00  1.5000007474215157e-01 9.2840651693729750e-16 0.0000000000000000e+00  1.4999995194260532e-01 1.1103609043162629e-15 0.0000000000000000e+00  1.4999996517415234e-01 1.4149290011804056e-16 0.0000000000000000e+00  1.5000004584381654e-01 7.4401596025122089e-16 0.0000000000000000e+00  1.5000000523424512e-01 1.5802260455911052e-18 0.0000000000000000e+00  1.4999996748914496e-01 3.3228600446330075e-16 0.0000000000000000e+00  1.5000001079708705e-01 6.6190965149641091e-17 0.0000000000000000e+00  1.5000001597370108e-01 7.6280205591070184e-17 0.0000000000000000e+00  1.4999998552710067e-01 8.6121755672430249e-17 0.0000000000000000e+00  1.4999999716759077e-01 1.7737526692491491e-18 0.0000000000000000e+00  1.5000001043285932e-01 4.4148931293869894e-17 0.0000000000000000e+00  1.4999999615923051e-01 6.6147355195548568e-18 0.0000000000000000e+00  1.4999999579159673e-01 7.9454030976320751e-18 0.0000000000000000e+00  1.5000000471624078e-01 1.0119485448860463e-17 0.0000000000000000e+00  1.4999999972517958e-01 8.2971098206253449e-21 0.0000000000000000e+00  1.4999999737939138e-01 3.6151855682925668e-18 0.0000000000000000e+00  1.5000000180212622e-01 1.5159725743962053e-18 0.0000000000000000e+00  1.5000000036537878e-01 1.3341068860825475e-19 0.0000000000000000e+00  1.4999999871596403e-01 9.6050219745093008e-19 0.0000000000000000e+00  1.5000000066232769e-01 1.9816173444689861e-19 0.0000000000000000e+00  1.5000000027207488e-01 7.3824195402353639e-20 0.0000000000000000e+00  1.4999999942912706e-01 2.0868442619583860e-19 0.0000000000000000e+00  1.5000000026414836e-01 3.0890070500786061e-20 0.0000000000000000e+00  1.5000000012337647e-01 1.8101444756462648e-20 0.0000000000000000e+00  1.4999999975704750e-01 4.2483869967624051e-20 0.0000000000000000e+00  1.5000000012202067e-01 7.2449660950013328e-21 0.0000000000000000e+00  1.5000000003728337e-01 2.5087466548762437e-21 0.0000000000000000e+00  1.4999999990143401e-01 8.2185158086335960e-21 0.0000000000000000e+00  1.5000000006232150e-01 2.3337202163110949e-21 0.0000000000000000e+00  1.5000000000094263e-01 9.9254074873531204e-23 0.0000000000000000e+00  1.4999999996467461e-01 1.3349567750578925e-21 0.0000000000000000e+00  1.5000000003125444e-01 7.5718524107314330e-22 0.0000000000000000e+00  1.4999999999087302e-01 2.0896324341966102e-23 0.0000000000000000e+00  1.4999999999112007e-01 1.3535887196880189e-22 0.0000000000000000e+00  1.5000000001377845e-01 2.0100457256431021e-22 0.0000000000000000e+00  1.4999999999129271e-01 5.6634069158892798e-23 0.0000000000000000e+00  1.5000000000100808e-01 4.1314774753130529e-25 0.0000000000000000e+00  1.5000000000407557e-01 2.8984330836693356e-23 0.0000000000000000e+00  1.4999999999479824e-01 3.4221999596555010e-23 0.0000000000000000e+00  1.5000000000365010e-01 1.3711799876142753e-23 0.0000000000000000e+00  1.4999999999866975e-01 1.0584546458096014e-24 0.0000000000000000e+00  1.4999999999954672e-01 7.5048885362442242e-25 0.0000000000000000e+00  1.5000000000128252e-01 2.7062226699115598e-24 0.0000000000000000e+00  1.4999999999866773e-01 2.4910266483789936e-24 0.0000000000000000e+00  1.5000000000098099e-01 1.2312548886434983e-24 0.0000000000000000e+00  1.4999999999945149e-01 3.4865714878968505e-25 0.0000000000000000e+00  1.5000000000020766e-01 4.0947339551186504e-26 0.0000000000000000e+00  1.4999999999999628e-01 3.7204994045529468e-28 0.0000000000000000e+00  1.4999999999992206e-01 1.1408606398740921e-26 0.0000000000000000e+00  1.5000000000009822e-01 1.2551044468746959e-26 0.0000000000000000e+00  1.4999999999991437e-01 8.0257780024368289e-27 0.0000000000000000e+00  1.5000000000004485e-01 2.3158849191765694e-27 0.0000000000000000e+00  1.4999999999991276e-01 0.0000000000000000e+00 0.0000000000000000e+00  1.5000000000064981e-01 0.0000000000000000e+00 2.3532672226829111e-27  1.4999999999966684e-01 3.1429833871681448e-28 3.1529352589691828e-28  1.4999999999870722e-01 9.8544805564991056e-25 6.6459265629862055e-25  1.4999999999344171e-01 6.9083176311497193e-23 2.5640702058634212e-23  1.4999999996271460e-01 1.0404813965498416e-21 7.5196131285663610e-22  1.4999999985066351e-01 1.3741938300261802e-20 1.2754679778718476e-20  1.4999999949362661e-01 1.3826933343692641e-19 1.5087507513287657e-19  1.4999999846955855e-01 1.0149235740290614e-18 1.3942599244662891e-18  1.4999999590804938e-01 5.7373977685300529e-18 1.0019693710521151e-17  1.4999999030747457e-01 2.5319798516967980e-17 5.6299246495347745e-17  1.4999997952119770e-01 8.4360507985068363e-17 2.4923726810482595e-16  1.4999996156440365e-01 2.0550801552671606e-16 8.6059454407811813e-16  1.4999993663098421e-01 3.4987835810191495e-16 2.2621629048900603e-15  1.4999990950919931e-01 3.6255050720621814e-16 4.3651430109549824e-15  1.4999989117632648e-01 1.3000314433731342e-16 5.7376029327768695e-15  1.4999989805156816e-01 4.7226882583438138e-17 4.1510537392989547e-15  1.4999994666291944e-01 1.3640022225844524e-15 4.9371679361736551e-16  1.5000004580902615e-01 6.5658489845078425e-15 2.7448290345028640e-15  1.5000019317595351e-01 1.9328403220042588e-14 2.2861084143518986e-14  1.5000037171852965e-01 3.6436081791087808e-14 6.5393449363111012e-14  1.5000053077110095e-01 3.3401501234200455e-14 1.0686512801637696e-13  1.5000057069801892e-01 3.0154523197235813e-15 9.0273898249127571e-14  1.5000038999701237e-01 3.2640549776934542e-14 1.6491581623915678e-14  1.5000000195685856e-01 1.4916503510844119e-13 1.9957410699105432e-14  1.4999960569016879e-01 1.4568908571114149e-13 1.1946913469958120e-13  1.4999946783918466e-01 2.0503388383530042e-14 1.0989338367423143e-13  1.4999965718503699e-01 1.6649822772525594e-14 1.7045963227413940e-14  1.4999994156821053e-01 5.2119269514889464e-14 2.6651482797106141e-15  1.5000006492820175e-01 2.7168859734429414e-14 6.4869877331362236e-15  1.5000004982362836e-01 3.6140414918339978e-15 1.0583072867976530e-15  1.5000002547534091e-01 2.7713917185352091e-15 3.5076971702936425e-17  1.4999993533274705e-01 1.9318939649333880e-14 7.3977705718648335e-15  1.4999978671692610e-01 4.5403928484209694e-15 2.5552537072398372e-14  1.4999987808697612e-01 1.7618353551968706e-14 6.6707512049343730e-16  1.5000021753946552e-01 2.7723964661882516e-14 4.3031273126864464e-14  1.5000024032108339e-01 3.2787288243267180e-15 1.5114249468769129e-14  1.4999982174166160e-01 3.4011744537105559e-14 3.9946487069163144e-14  1.4999971089063710e-01 1.3957560438740529e-18 2.9947055468928938e-14  1.5000013974466866e-01 2.6794771322283463e-14 3.0650868991262465e-14  1.5000027820978601e-01 9.0375619206768530e-16 3.0356915899050848e-14  1.4999987675724280e-01 1.7268132041699548e-14 2.4078959933731204e-14  1.4999976847256480e-01 1.2081351697275427e-15 2.0319290014517124e-14  1.5000012314940669e-01 1.0375712860916844e-14 2.0102488077972960e-14  1.5000016770485786e-01 6.7815276571876369e-16 8.9673459938622693e-15  1.4999987445737317e-01 6.1616873804646957e-15 1.6417389298887328e-14  1.4999989940275943e-01 1.5419224251574972e-16 1.9867988436147063e-15  1.5000011864913110e-01 3.5819607967372478e-15 1.1618368497496842e-14  1.5000004093132158e-01 7.5513441580055663e-19 6.6185852971721159e-18  1.4999990180630357e-01 1.8965475608853785e-15 6.3168734047647418e-15  1.5000000315589707e-01 1.1902088119560116e-16 6.0928593577758318e-16  1.5000006763972604e-01 8.0519529374640961e-16 2.2459239017477869e-15  1.4999997259238121e-01 2.6283403135286424e-16 1.2309431097446357e-15  1.4999996493289183e-01 2.1559585980381717e-16 3.3880951716520370e-16  1.5000003283456761e-01 2.7187386751295750e-16 9.8223576319566442e-16  1.5000000878243552e-01 1.4507864291307469e-17 2.6020980875134112e-18  1.4999997472410764e-01 1.6273785805031526e-16 3.8855492077721729e-16  1.5000000637946787e-01 8.8093503424923791e-18 1.1068280713410578e-16  1.5000001280052175e-01 5.0479017431810470e-17 5.2535144760485391e-17  1.4999998945204368e-01 2.8841410413033281e-17 1.0759043297102378e-16  1.4999999772426717e-01 3.5901625764614242e-18 1.2272288971157323e-18  1.5000000768667157e-01 1.9773454918965267e-17 3.2969486895192555e-17  1.4999999699544403e-01 1.5452553089793243e-18 1.5936543950603800e-17  1.4999999716936513e-01 4.3522314906029278e-18 1.1452785434118833e-18  1.5000000349691253e-01 4.0477204540658101e-18 9.2280892097843538e-18  1.4999999948164075e-01 2.9024979840585522e-21 1.6704958007666652e-18  1.4999999829267843e-01 1.6046704018727958e-18 8.8176947948984783e-19  1.5000000142677228e-01 6.3373465344038717e-19 1.9090766784099221e-18  1.5000000001555383e-01 5.1860453213463669e-20 1.6612824138171587e-19  1.4999999917344706e-01 4.0328760137490773e-19 2.5638458744130283e-19  1.5000000058042540e-01 1.0068569524705412e-19 3.5944190945137069e-19  1.5000000004329700e-01 2.0591397096813088e-20 2.4672265119880708e-20  1.4999999964092997e-01 8.6899322900738080e-20 4.8310802521229033e-20  1.5000000025098537e-01 2.0550049535304261e-20 6.7410602328585711e-20  1.5000000000350067e-01 3.4362531547471857e-21 6.9872830039323996e-21  1.4999999985750670e-01 1.7139534832537684e-20 5.9397247359322302e-21  1.5000000011522510e-01 5.6078210727538711e-21 1.2320035490104488e-20  1.4999999998192468e-01 1.3991334267278917e-22 2.6952151773580655e-21  1.4999999995193802e-01 2.8505620826244798e-21 2.6653191883246602e-22  1.5000000005220382e-01 1.6577639079898334e-21 1.8856762415636396e-21  1.4999999997961816e-01 4.0013998117743933e-23 9.3788242109486018e-22  1.4999999998983271e-01 3.1277126330073974e-22 1.9842236403268374e-23  1.5000000002096389e-01 4.2866658555738601e-22 1.6667430341700657e-22  1.4999999998537739e-01 1.0133632867652241e-22 2.3387884171474034e-22  1.5000000000266739e-01 4.5761359989170768e-24 6.7621177380699548e-23  1.5000000000577010e-01 7.3023291304493476e-23 2.7425439183710329e-26  1.4999999999208830e-01 7.0193627887483491e-23 2.4888702059834408e-23  1.5000000000560465e-01 2.1282649309996456e-23 3.0974915580859106e-23  1.4999999999803218e-01 3.0975862713317995e-25 1.3022791169715357e-23  1.4999999999918343e-01 3.8405795637661600e-24 1.2994312694886583e-24  1.5000000000204949e-01 7.1892938009448271e-24 3.7716439282622368e-25  1.4999999999796162e-01 4.9286521644834628e-24 1.8273787703570121e-24  1.5000000000142005e-01 1.7748899506380638e-24 1.7538806779521068e-24  1.4999999999928396e-01 2.8022505049993564e-25 8.7360526653325920e-25  1.5000000000019631e-01 2.7060986410625282e-28 2.4608641065006151e-25  1.5000000000008554e-01 4.5448568123904309e-26 2.7559582294097994e-26  1.4999999999981575e-01 6.5397367381634609e-26 4.8303136019347672e-28  1.5000000000017347e-01 4.2536479401392943e-26 8.3331165070200955e-27  1.4999999999986693e-01 1.8065998927998992e-26 1.0709396557425676e-26  1.5000000000008137e-01 6.3594386388533246e-27 6.2735422253074724e-27  1.4999999999997154e-01 1.2972025426888671e-27 1.3184312103306367e-27  1.5000000000004576e-01 0.0000000000000000e+00 2.2997619555853425e-27  1.5000000000188010e-01 0.0000000000000000e+00 8.4856170370955173e-24  1.4999999999870739e-01 6.6480823506833172e-25 9.8543941351489968e-25  1.5000000000140082e-01 1.8587310481399578e-26 1.8558053461299477e-26  1.5000000000375074e-01 2.1689062293350591e-23 1.2994207528667784e-23  1.5000000002223324e-01 5.9535535332019217e-22 4.8467824649314834e-22  1.5000000010714679e-01 7.7938812217217641e-21 1.1751656798424102e-20  1.5000000038893646e-01 9.2855163995362331e-20 1.6903763649401029e-19  1.5000000124512763e-01 8.0185255905478278e-19 1.8179295945506425e-18  1.5000000354974630e-01 5.1564194229932522e-18 1.5359352751617978e-17  1.5000000893693816e-01 2.5852698187065448e-17 1.0052133469423413e-16  1.5000001998383145e-01 9.9695208848519862e-17 5.1574506835276027e-16  1.5000003979315238e-01 2.8351310744684273e-16 2.0793658057974264e-15  1.5000006990105164e-01 5.7109054950800745e-16 6.4653882056615177e-15  1.5000010680254597e-01 7.4453709903957752e-16 1.5049205764156278e-14  1.5000013904504539e-01 4.5597616910938922e-16 2.5020205153688335e-14  1.5000014682120716e-01 1.8064494682228781e-18 2.6596002964137464e-14  1.5000010702039993e-01 1.1086500525098475e-15 1.2485803473545462e-14  1.5000000513514331e-01 6.5373963313348047e-15 6.3746447721191851e-17  1.4999984460695956e-01 1.9988909091483599e-14 3.4273090463153983e-14  1.4999964498193585e-01 4.2559147004174961e-14 1.5353887303020650e-13  1.4999944672011786e-01 5.4615306855118902e-14 3.3854752621518531e-13  1.4999933557142692e-01 2.2302193307390071e-14 4.3995281938507218e-13  1.4999943411848066e-01 7.4073140559143940e-15 2.5802330033043748e-13  1.4999979929518822e-01 1.4359399451811157e-13 5.1946807446448194e-15  1.5000029305758542e-01 2.5860707651990946e-13 2.0994985225090581e-13  1.5000060838716009e-01 1.0672568876052244e-13 5.2648327368545094e-13  1.5000052966842978e-01 9.8795939132268199e-16 2.8372464807389095e-13  1.5000019319651861e-01 6.7806704519936813e-14 1.1635483975082546e-14  1.4999995532252336e-01 5.9365849178687357e-14 1.7112005239228747e-14  1.4999994360407282e-01 1.5430067151293498e-14 9.4614838669122447e-15  1.4999998040105361e-01 6.2793548478979765e-18 7.3531427820904576e-16  1.5000002285828623e-01 1.7736824057737606e-14 2.7258917975686533e-15  1.5000019155640765e-01 2.5010278100974268e-14 6.7573819236610671e-14  1.5000025656891211e-01 3.3109603758324277e-15 8.0240622298110822e-14  1.4999990941028354e-01 6.2753691311860882e-14 2.9820488267947581e-14  1.4999961545159562e-01 5.3011463245203265e-15 2.1448501394156548e-13  1.4999998479274526e-01 5.1444511789919937e-14 2.4328643982223779e-15  1.5000042457672899e-01 1.9835172335494603e-14 2.7487117765565492e-13  1.5000007751341946e-01 3.0191521446671327e-14 9.0721532529949048e-16  1.4999959465063661e-01 2.4275238912435904e-14 2.5356438318863286e-13  1.4999992247949734e-01 1.5787637329724661e-14 1.4291612079439683e-15  1.5000035842954243e-01 1.9072903315258544e-14 1.9505334309678790e-13  1.5000003405372755e-01 8.8772215805839993e-15 3.7568078312004852e-17  1.4999970369707882e-01 1.1480283943320746e-14 1.2813268150292707e-13  1.5000002510653154e-01 5.9057676722371892e-15 4.6524786009932087e-15  1.5000022360593657e-01 5.4809665310378856e-15 6.8473468664222313e-14  1.4999992503957357e-01 4.4602580037348328e-15 1.3928583483318820e-14  1.4999985441297772e-01 1.9086264293891565e-15 2.6129399043391470e-14  1.5000010009941739e-01 3.3590644024699276e-15 1.8896905246395831e-14  1.5000007176581248e-01 3.3077373278920131e-16 4.9845364227110295e-15  1.4999990308881037e-01 2.2000350709365876e-15 1.5272854391362435e-14  1.4999998645427057e-01 9.1575736481679023e-19 5.1056473726098915e-18  1.5000007220705316e-01 1.0929416249683833e-15 7.4376199928948359e-15  1.4999997886415836e-01 1.5479776693006269e-16 1.2265607543876310e-15  1.4999996110196503e-01 3.3213885873722496e-16 1.7705750842233767e-15  1.5000003178012344e-01 2.5634129140982234e-16 1.8130126453237301e-15  1.5000000996366650e-01 2.9154955579922483e-17 4.4412595591609735e-17  1.4999997471636750e-01 1.7475727967597339e-16 9.3566876238986703e-16  1.5000000682159778e-01 8.0149466493489385e-18 1.3957201168477719e-16  1.5000001209347621e-01 5.2101551720692640e-17 1.6024196348559173e-16  1.4999998906444198e-01 3.2175908691132571e-17 2.0747691554897596e-16  1.4999999891657412e-01 2.1934602350720612e-18 4.2560501920481637e-19  1.5000000724708884e-01 1.9828531582472475e-17 6.9046162508321123e-17  1.4999999620999682e-01 3.0045135231525064e-18 3.0617457145272782e-17  1.4999999809173414e-01 2.8871822624001825e-18 1.9693267992593935e-18  1.5000000346840997e-01 4.6589233114122735e-18 1.7447687421043401e-17  1.4999999880082654e-01 1.4909538904266301e-19 3.9832169761571228e-18  1.4999999881004059e-01 1.1002255418023389e-18 1.0846565557716049e-18  1.5000000152778734e-01 9.3868357911627943e-19 3.5730458611606926e-18  1.4999999957973639e-01 4.8969677622094427e-21 6.0945138414379650e-19  1.4999999944017831e-01 2.7641337474465356e-19 2.4411644352646228e-19  1.5000000066257715e-01 1.9524578304499374e-19 6.7392532550319123e-19  1.4999999980180606e-01 1.2253944779754437e-21 1.3297098470048346e-19  1.4999999978466949e-01 5.3737781302619642e-20 2.8570517423752637e-20  1.5000000028666480e-01 4.4697466934395062e-20 1.1793856599979796e-19  1.4999999988131077e-01 1.8670919475878432e-21 3.7827812553313776e-20  1.4999999994141061e-01 7.3130308374716258e-21 5.7871071580630654e-22  1.5000000011717526e-01 1.0115193342692446e-20 1.6762829491314706e-20  1.4999999992809274e-01 1.7031812683425434e-21 1.0660381199715201e-20  1.5000000000026584e-01 4.1488958590870486e-22 5.2919533724286907e-22  1.5000000004005837e-01 1.8983589886482856e-21 1.3055071761695299e-21  1.4999999996144334e-01 9.2857618727147449e-22 2.3184794489171929e-21  1.5000000001