<?xml version="1.0"?>
<VTKFile type="UnstructuredGrid"  version="0.1"  >
<UnstructuredGrid>
<Piece  NumberOfPoints="10201" NumberOfCells="20000">
<Points>
<DataArray  type="Float64"  NumberOfComponents="3"  format="ascii">-5 -5 0  -4.9 -5 0  -4.8 -5 0  -4.7 -5 0  -4.6 -5 0  -4.5 -5 0  -4.4 -5 0  -4.3 -5 0  -4.2 -5 0  -4.1 -5 0  -4 -5 0  -3.9 -5 0  -3.8 -5 0  -3.7 -5 0  -3.6 -5 0  -3.5 -5 0  -3.4 -5 0  -3.3 -5 0  -3.2 -5 0  -3.1 -5 0  -3 -5 0  -2.9 -5 0  -2.8 -5 0  -2.7 -5 0  -2.6 -5 0  -2.5 -5 0  -2.4 -5 0  -2.3 -5 0  -2.2 -5 0  -2.1 -5 0  -2 -5 0  -1.9 -5 0  -1.8 -5 0  -1.7 -5 0  -1.6 -5 0  -1.5 -5 0  -1.4 -5 0  -1.3 -5 0  -1.2 -5 0  -1.1 -5 0  -1 -5 0  -0.9000000000000004 -5 0  -0.7999999999999998 -5 0  -0.7000000000000002 -5 0  -0.5999999999999996 -5 0  -0.5 -5 0  -0.4000000000000004 -5 0  -0.2999999999999998 -5 0  -0.2000000000000002 -5 0  -0.09999999999999964 -5 0  0 -5 0  0.09999999999999964 -5 0  0.2000000000000002 -5 0  0.2999999999999998 -5 0  0.4000000000000004 -5 0  0.5 -5 0  0.5999999999999996 -5 0  0.7000000000000002 -5 0  0.7999999999999998 -5 0  0.9000000000000004 -5 0  1 -5 0  1.1 -5 0  1.2 -5 0  1.3 -5 0  1.4 -5 0  1.5 -5 0  1.6 -5 0  1.7 -5 0  1.8 -5 0  1.9 -5 0  2 -5 0  2.1 -5 0  2.2 -5 0  2.3 -5 0  2.4 -5 0  2.5 -5 0  2.6 -5 0  2.7 -5 0  2.8 -5 0  2.9 -5 0  3 -5 0  3.1 -5 0  3.199999999999999 -5 0  3.300000000000001 -5 0  3.4 -5 0  3.5 -5 0  3.6 -5 0  3.699999999999999 -5 0  3.800000000000001 -5 0  3.9 -5 0  4 -5 0  4.1 -5 0  4.199999999999999 -5 0  4.300000000000001 -5 0  4.4 -5 0  4.5 -5 0  4.6 -5 0  4.699999999999999 -5 0  4.800000000000001 -5 0  4.9 -5 0  5 -5 0  -5 -4.9 0  -4.9 -4.9 0  -4.8 -4.9 0  -4.7 -4.9 0  -4.6 -4.9 0  -4.5 -4.9 0  -4.4 -4.9 0  -4.3 -4.9 0  -4.2 -4.9 0  -4.1 -4.9 0  -4 -4.9 0  -3.9 -4.9 0  -3.8 -4.9 0  -3.7 -4.9 0  -3.6 -4.9 0  -3.5 -4.9 0  -3.4 -4.9 0  -3.3 -4.9 0  -3.2 -4.9 0  -3.1 -4.9 0  -3 -4.9 0  -2.9 -4.9 0  -2.8 -4.9 0  -2.7 -4.9 0  -2.6 -4.9 0  -2.5 -4.9 0  -2.4 -4.9 0  -2.3 -4.9 0  -2.2 -4.9 0  -2.1 -4.9 0  -2 -4.9 0  -1.9 -4.9 0  -1.8 -4.9 0  -1.7 -4.9 0  -1.6 -4.9 0  -1.5 -4.9 0  -1.4 -4.9 0  -1.3 -4.9 0  -1.2 -4.9 0  -1.1 -4.9 0  -1 -4.9 0  -0.9000000000000004 -4.9 0  -0.7999999999999998 -4.9 0  -0.7000000000000002 -4.9 0  -0.5999999999999996 -4.9 0  -0.5 -4.9 0  -0.4000000000000004 -4.9 0  -0.2999999999999998 -4.9 0  -0.2000000000000002 -4.9 0  -0.09999999999999964 -4.9 0  0 -4.9 0  0.09999999999999964 -4.9 0  0.2000000000000002 -4.9 0  0.2999999999999998 -4.9 0  0.4000000000000004 -4.9 0  0.5 -4.9 0  0.5999999999999996 -4.9 0  0.7000000000000002 -4.9 0  0.7999999999999998 -4.9 0  0.9000000000000004 -4.9 0  1 -4.9 0  1.1 -4.9 0  1.2 -4.9 0  1.3 -4.9 0  1.4 -4.9 0  1.5 -4.9 0  1.6 -4.9 0  1.7 -4.9 0  1.8 -4.9 0  1.9 -4.9 0  2 -4.9 0  2.1 -4.9 0  2.2 -4.9 0  2.3 -4.9 0  2.4 -4.9 0  2.5 -4.9 0  2.6 -4.9 0  2.7 -4.9 0  2.8 -4.9 0  2.9 -4.9 0  3 -4.9 0  3.1 -4.9 0  3.199999999999999 -4.9 0  3.300000000000001 -4.9 0  3.4 -4.9 0  3.5 -4.9 0  3.6 -4.9 0  3.699999999999999 -4.9 0  3.800000000000001 -4.9 0  3.9 -4.9 0  4 -4.9 0  4.1 -4.9 0  4.199999999999999 -4.9 0  4.300000000000001 -4.9 0  4.4 -4.9 0  4.5 -4.9 0  4.6 -4.9 0  4.699999999999999 -4.9 0  4.800000000000001 -4.9 0  4.9 -4.9 0  5 -4.9 0  -5 -4.8 0  -4.9 -4.8 0  -4.8 -4.8 0  -4.7 -4.8 0  -4.6 -4.8 0  -4.5 -4.8 0  -4.4 -4.8 0  -4.3 -4.8 0  -4.2 -4.8 0  -4.1 -4.8 0  -4 -4.8 0  -3.9 -4.8 0  -3.8 -4.8 0  -3.7 -4.8 0  -3.6 -4.8 0  -3.5 -4.8 0  -3.4 -4.8 0  -3.3 -4.8 0  -3.2 -4.8 0  -3.1 -4.8 0  -3 -4.8 0  -2.9 -4.8 0  -2.8 -4.8 0  -2.7 -4.8 0  -2.6 -4.8 0  -2.5 -4.8 0  -2.4 -4.8 0  -2.3 -4.8 0  -2.2 -4.8 0  -2.1 -4.8 0  -2 -4.8 0  -1.9 -4.8 0  -1.8 -4.8 0  -1.7 -4.8 0  -1.6 -4.8 0  -1.5 -4.8 0  -1.4 -4.8 0  -1.3 -4.8 0  -1.2 -4.8 0  -1.1 -4.8 0  -1 -4.8 0  -0.9000000000000004 -4.8 0  -0.7999999999999998 -4.8 0  -0.7000000000000002 -4.8 0  -0.5999999999999996 -4.8 0  -0.5 -4.8 0  -0.4000000000000004 -4.8 0  -0.2999999999999998 -4.8 0  -0.2000000000000002 -4.8 0  -0.09999999999999964 -4.8 0  0 -4.8 0  0.09999999999999964 -4.8 0  0.2000000000000002 -4.8 0  0.2999999999999998 -4.8 0  0.4000000000000004 -4.8 0  0.5 -4.8 0  0.5999999999999996 -4.8 0  0.7000000000000002 -4.8 0  0.7999999999999998 -4.8 0  0.9000000000000004 -4.8 0  1 -4.8 0  1.1 -4.8 0  1.2 -4.8 0  1.3 -4.8 0  1.4 -4.8 0  1.5 -4.8 0  1.6 -4.8 0  1.7 -4.8 0  1.8 -4.8 0  1.9 -4.8 0  2 -4.8 0  2.1 -4.8 0  2.2 -4.8 0  2.3 -4.8 0  2.4 -4.8 0  2.5 -4.8 0  2.6 -4.8 0  2.7 -4.8 0  2.8 -4.8 0  2.9 -4.8 0  3 -4.8 0  3.1 -4.8 0  3.199999999999999 -4.8 0  3.300000000000001 -4.8 0  3.4 -4.8 0  3.5 -4.8 0  3.6 -4.8 0  3.699999999999999 -4.8 0  3.800000000000001 -4.8 0  3.9 -4.8 0  4 -4.8 0  4.1 -4.8 0  4.199999999999999 -4.8 0  4.300000000000001 -4.8 0  4.4 -4.8 0  4.5 -4.8 0  4.6 -4.8 0  4.699999999999999 -4.8 0  4.800000000000001 -4.8 0  4.9 -4.8 0  5 -4.8 0  -5 -4.7 0  -4.9 -4.7 0  -4.8 -4.7 0  -4.7 -4.7 0  -4.6 -4.7 0  -4.5 -4.7 0  -4.4 -4.7 0  -4.3 -4.7 0  -4.2 -4.7 0  -4.1 -4.7 0  -4 -4.7 0  -3.9 -4.7 0  -3.8 -4.7 0  -3.7 -4.7 0  -3.6 -4.7 0  -3.5 -4.7 0  -3.4 -4.7 0  -3.3 -4.7 0  -3.2 -4.7 0  -3.1 -4.7 0  -3 -4.7 0  -2.9 -4.7 0  -2.8 -4.7 0  -2.7 -4.7 0  -2.6 -4.7 0  -2.5 -4.7 0  -2.4 -4.7 0  -2.3 -4.7 0  -2.2 -4.7 0  -2.1 -4.7 0  -2 -4.7 0  -1.9 -4.7 0  -1.8 -4.7 0  -1.7 -4.7 0  -1.6 -4.7 0  -1.5 -4.7 0  -1.4 -4.7 0  -1.3 -4.7 0  -1.2 -4.7 0  -1.1 -4.7 0  -1 -4.7 0  -0.9000000000000004 -4.7 0  -0.7999999999999998 -4.7 0  -0.7000000000000002 -4.7 0  -0.5999999999999996 -4.7 0  -0.5 -4.7 0  -0.4000000000000004 -4.7 0  -0.2999999999999998 -4.7 0  -0.2000000000000002 -4.7 0  -0.09999999999999964 -4.7 0  0 -4.7 0  0.09999999999999964 -4.7 0  0.2000000000000002 -4.7 0  0.2999999999999998 -4.7 0  0.4000000000000004 -4.7 0  0.5 -4.7 0  0.5999999999999996 -4.7 0  0.7000000000000002 -4.7 0  0.7999999999999998 -4.7 0  0.9000000000000004 -4.7 0  1 -4.7 0  1.1 -4.7 0  1.2 -4.7 0  1.3 -4.7 0  1.4 -4.7 0  1.5 -4.7 0  1.6 -4.7 0  1.7 -4.7 0  1.8 -4.7 0  1.9 -4.7 0  2 -4.7 0  2.1 -4.7 0  2.2 -4.7 0  2.3 -4.7 0  2.4 -4.7 0  2.5 -4.7 0  2.6 -4.7 0  2.7 -4.7 0  2.8 -4.7 0  2.9 -4.7 0  3 -4.7 0  3.1 -4.7 0  3.199999999999999 -4.7 0  3.300000000000001 -4.7 0  3.4 -4.7 0  3.5 -4.7 0  3.6 -4.7 0  3.699999999999999 -4.7 0  3.800000000000001 -4.7 0  3.9 -4.7 0  4 -4.7 0  4.1 -4.7 0  4.199999999999999 -4.7 0  4.300000000000001 -4.7 0  4.4 -4.7 0  4.5 -4.7 0  4.6 -4.7 0  4.699999999999999 -4.7 0  4.800000000000001 -4.7 0  4.9 -4.7 0  5 -4.7 0  -5 -4.6 0  -4.9 -4.6 0  -4.8 -4.6 0  -4.7 -4.6 0  -4.6 -4.6 0  -4.5 -4.6 0  -4.4 -4.6 0  -4.3 -4.6 0  -4.2 -4.6 0  -4.1 -4.6 0  -4 -4.6 0  -3.9 -4.6 0  -3.8 -4.6 0  -3.7 -4.6 0  -3.6 -4.6 0  -3.5 -4.6 0  -3.4 -4.6 0  -3.3 -4.6 0  -3.2 -4.6 0  -3.1 -4.6 0  -3 -4.6 0  -2.9 -4.6 0  -2.8 -4.6 0  -2.7 -4.6 0  -2.6 -4.6 0  -2.5 -4.6 0  -2.4 -4.6 0  -2.3 -4.6 0  -2.2 -4.6 0  -2.1 -4.6 0  -2 -4.6 0  -1.9 -4.6 0  -1.8 -4.6 0  -1.7 -4.6 0  -1.6 -4.6 0  -1.5 -4.6 0  -1.4 -4.6 0  -1.3 -4.6 0  -1.2 -4.6 0  -1.1 -4.6 0  -1 -4.6 0  -0.9000000000000004 -4.6 0  -0.7999999999999998 -4.6 0  -0.7000000000000002 -4.6 0  -0.5999999999999996 -4.6 0  -0.5 -4.6 0  -0.4000000000000004 -4.6 0  -0.2999999999999998 -4.6 0  -0.2000000000000002 -4.6 0  -0.09999999999999964 -4.6 0  0 -4.6 0  0.09999999999999964 -4.6 0  0.2000000000000002 -4.6 0  0.2999999999999998 -4.6 0  0.4000000000000004 -4.6 0  0.5 -4.6 0  0.5999999999999996 -4.6 0  0.7000000000000002 -4.6 0  0.7999999999999998 -4.6 0  0.9000000000000004 -4.6 0  1 -4.6 0  1.1 -4.6 0  1.2 -4.6 0  1.3 -4.6 0  1.4 -4.6 0  1.5 -4.6 0  1.6 -4.6 0  1.7 -4.6 0  1.8 -4.6 0  1.9 -4.6 0  2 -4.6 0  2.1 -4.6 0  2.2 -4.6 0  2.3 -4.6 0  2.4 -4.6 0  2.5 -4.6 0  2.6 -4.6 0  2.7 -4.6 0  2.8 -4.6 0  2.9 -4.6 0  3 -4.6 0  3.1 -4.6 0  3.199999999999999 -4.6 0  3.300000000000001 -4.6 0  3.4 -4.6 0  3.5 -4.6 0  3.6 -4.6 0  3.699999999999999 -4.6 0  3.800000000000001 -4.6 0  3.9 -4.6 0  4 -4.6 0  4.1 -4.6 0  4.199999999999999 -4.6 0  4.300000000000001 -4.6 0  4.4 -4.6 0  4.5 -4.6 0  4.6 -4.6 0  4.699999999999999 -4.6 0  4.800000000000001 -4.6 0  4.9 -4.6 0  5 -4.6 0  -5 -4.5 0  -4.9 -4.5 0  -4.8 -4.5 0  -4.7 -4.5 0  -4.6 -4.5 0  -4.5 -4.5 0  -4.4 -4.5 0  -4.3 -4.5 0  -4.2 -4.5 0  -4.1 -4.5 0  -4 -4.5 0  -3.9 -4.5 0  -3.8 -4.5 0  -3.7 -4.5 0  -3.6 -4.5 0  -3.5 -4.5 0  -3.4 -4.5 0  -3.3 -4.5 0  -3.2 -4.5 0  -3.1 -4.5 0  -3 -4.5 0  -2.9 -4.5 0  -2.8 -4.5 0  -2.7 -4.5 0  -2.6 -4.5 0  -2.5 -4.5 0  -2.4 -4.5 0  -2.3 -4.5 0  -2.2 -4.5 0  -2.1 -4.5 0  -2 -4.5 0  -1.9 -4.5 0  -1.8 -4.5 0  -1.7 -4.5 0  -1.6 -4.5 0  -1.5 -4.5 0  -1.4 -4.5 0  -1.3 -4.5 0  -1.2 -4.5 0  -1.1 -4.5 0  -1 -4.5 0  -0.9000000000000004 -4.5 0  -0.7999999999999998 -4.5 0  -0.7000000000000002 -4.5 0  -0.5999999999999996 -4.5 0  -0.5 -4.5 0  -0.4000000000000004 -4.5 0  -0.2999999999999998 -4.5 0  -0.2000000000000002 -4.5 0  -0.09999999999999964 -4.5 0  0 -4.5 0  0.09999999999999964 -4.5 0  0.2000000000000002 -4.5 0  0.2999999999999998 -4.5 0  0.4000000000000004 -4.5 0  0.5 -4.5 0  0.5999999999999996 -4.5 0  0.7000000000000002 -4.5 0  0.7999999999999998 -4.5 0  0.9000000000000004 -4.5 0  1 -4.5 0  1.1 -4.5 0  1.2 -4.5 0  1.3 -4.5 0  1.4 -4.5 0  1.5 -4.5 0  1.6 -4.5 0  1.7 -4.5 0  1.8 -4.5 0  1.9 -4.5 0  2 -4.5 0  2.1 -4.5 0  2.2 -4.5 0  2.3 -4.5 0  2.4 -4.5 0  2.5 -4.5 0  2.6 -4.5 0  2.7 -4.5 0  2.8 -4.5 0  2.9 -4.5 0  3 -4.5 0  3.1 -4.5 0  3.199999999999999 -4.5 0  3.300000000000001 -4.5 0  3.4 -4.5 0  3.5 -4.5 0  3.6 -4.5 0  3.699999999999999 -4.5 0  3.800000000000001 -4.5 0  3.9 -4.5 0  4 -4.5 0  4.1 -4.5 0  4.199999999999999 -4.5 0  4.300000000000001 -4.5 0  4.4 -4.5 0  4.5 -4.5 0  4.6 -4.5 0  4.699999999999999 -4.5 0  4.800000000000001 -4.5 0  4.9 -4.5 0  5 -4.5 0  -5 -4.4 0  -4.9 -4.4 0  -4.8 -4.4 0  -4.7 -4.4 0  -4.6 -4.4 0  -4.5 -4.4 0  -4.4 -4.4 0  -4.3 -4.4 0  -4.2 -4.4 0  -4.1 -4.4 0  -4 -4.4 0  -3.9 -4.4 0  -3.8 -4.4 0  -3.7 -4.4 0  -3.6 -4.4 0  -3.5 -4.4 0  -3.4 -4.4 0  -3.3 -4.4 0  -3.2 -4.4 0  -3.1 -4.4 0  -3 -4.4 0  -2.9 -4.4 0  -2.8 -4.4 0  -2.7 -4.4 0  -2.6 -4.4 0  -2.5 -4.4 0  -2.4 -4.4 0  -2.3 -4.4 0  -2.2 -4.4 0  -2.1 -4.4 0  -2 -4.4 0  -1.9 -4.4 0  -1.8 -4.
[...]
<PointData  Vectors="f_23"> 
<DataArray  type="Float64"  Name="f_23"  NumberOfComponents="3" format="ascii">1.4490878791899478e-01 0.0000000000000000e+00 0.0000000000000000e+00  1.5382161160697963e-01 5.1684378508634978e-06 0.0000000000000000e+00  1.5012935440896677e-01 1.5601570350549841e-06 0.0000000000000000e+00  1.5727507588486625e-01 1.9464372871492450e-05 0.0000000000000000e+00  1.5620802269241194e-01 1.4280488542504241e-06 0.0000000000000000e+00  1.5725227051393023e-01 1.3616197432020820e-05 0.0000000000000000e+00  1.5669170882856490e-01 9.5845612769855210e-07 0.0000000000000000e+00  1.5301441605553334e-01 2.4525594662130029e-09 0.0000000000000000e+00  1.5253971736604457e-01 1.4123728982613738e-06 0.0000000000000000e+00  1.4888417804262266e-01 3.5755321618614507e-06 0.0000000000000000e+00  1.4983497311777597e-01 7.1012008778994516e-07 0.0000000000000000e+00  1.4892604514225211e-01 3.9201502038473424e-08 0.0000000000000000e+00  1.5052554744499491e-01 1.0321333233192544e-06 0.0000000000000000e+00  1.5004920724026136e-01 7.8184811677629344e-07 0.0000000000000000e+00  1.5001481957267146e-01 6.1874009858492716e-08 0.0000000000000000e+00  1.4884702242397332e-01 9.6600666398864147e-07 0.0000000000000000e+00  1.4816213612491724e-01 1.8741384654127558e-06 0.0000000000000000e+00  1.4847522281126138e-01 1.4057534443173708e-06 0.0000000000000000e+00  1.4963544274265794e-01 8.4516221188337321e-08 0.0000000000000000e+00  1.5117215843665080e-01 2.3216958491017302e-06 0.0000000000000000e+00  1.5230998168230123e-01 2.7343619487804058e-06 0.0000000000000000e+00  1.5186930109185803e-01 1.1323040253396916e-06 0.0000000000000000e+00  1.5105239237782794e-01 3.8885710272040155e-07 0.0000000000000000e+00  1.4990615737964819e-01 1.6813386851621818e-06 0.0000000000000000e+00  1.4977371989587465e-01 2.4949531077888177e-06 0.0000000000000000e+00  1.4961673396591293e-01 1.1331494545374199e-07 0.0000000000000000e+00  1.5081285375005507e-01 1.8294307719099986e-07 0.0000000000000000e+00  1.5054742691311265e-01 1.5436778119311870e-08 0.0000000000000000e+00  1.4975480329743593e-01 3.8215229506575193e-08 0.0000000000000000e+00  1.4958204257048968e-01 1.7235310104268946e-07 0.0000000000000000e+00  1.5062525857204584e-01 3.8236566652184604e-07 0.0000000000000000e+00  1.5182554279326529e-01 2.3924576645608184e-07 0.0000000000000000e+00  1.5461719372062355e-01 3.8896065983902469e-07 0.0000000000000000e+00  1.5487750392022628e-01 9.3393253221383265e-07 0.0000000000000000e+00  1.5018632088647541e-01 2.3441851592459805e-06 0.0000000000000000e+00  1.4247954697198090e-01 1.2481560515238275e-06 0.0000000000000000e+00  1.3424779225908312e-01 4.4343537793176725e-06 0.0000000000000000e+00  1.2742073343777843e-01 3.4751519621400839e-05 0.0000000000000000e+00  1.2792613450751794e-01 8.7258064410114934e-05 0.0000000000000000e+00  1.3904254015697759e-01 9.9786298323852935e-05 0.0000000000000000e+00  1.6014217903117600e-01 1.4832925161631547e-05 0.0000000000000000e+00  1.9315233614169824e-01 5.6701462164042928e-05 0.0000000000000000e+00  2.3728061535686362e-01 3.9391524695090243e-04 0.0000000000000000e+00  2.8327033234336607e-01 1.0675543659886399e-03 0.0000000000000000e+00  3.3064714884904878e-01 1.9008693641687888e-03 0.0000000000000000e+00  3.8342378263054605e-01 2.7645727216300824e-03 0.0000000000000000e+00  4.2928949924073245e-01 3.3960068710048624e-03 0.0000000000000000e+00  4.6249513323397418e-01 3.1429647402799964e-03 0.0000000000000000e+00  4.9336006859719650e-01 2.7253397233115038e-03 0.0000000000000000e+00  5.1798443718228393e-01 2.4441392419636923e-03 0.0000000000000000e+00  5.3279844089540385e-01 1.6342140320204650e-03 0.0000000000000000e+00  5.4470012505414755e-01 8.1929356708037779e-04 0.0000000000000000e+00  5.5036056440422065e-01 3.9543622349277142e-04 0.0000000000000000e+00  5.5250038202095397e-01 8.7161350041813556e-05 0.0000000000000000e+00  5.5952180914869787e-01 1.6583435581654710e-06 0.0000000000000000e+00  5.5715471089032953e-01 1.6852020898213381e-04 0.0000000000000000e+00  5.4836483768670496e-01 6.4238673945528032e-04 0.0000000000000000e+00  5.4854772775143557e-01 1.1277781609640542e-03 0.0000000000000000e+00  5.3991619985156247e-01 1.7847920655783365e-03 0.0000000000000000e+00  5.1542660624220948e-01 2.9223683740202265e-03 0.0000000000000000e+00  4.9530894357835903e-01 3.3622036167872643e-03 0.0000000000000000e+00  4.6653884276668861e-01 3.5019613208982512e-03 0.0000000000000000e+00  4.1804026621101648e-01 3.6870518820961398e-03 0.0000000000000000e+00  3.6845045220102629e-01 2.9200289829908999e-03 0.0000000000000000e+00  3.1674318891486963e-01 1.6648838258871402e-03 0.0000000000000000e+00  2.5526652641656195e-01 7.7443526197383777e-04 0.0000000000000000e+00  2.0305204416213679e-01 1.2150783270004096e-04 0.0000000000000000e+00  1.6506790340927174e-01 2.3725564515632449e-05 0.0000000000000000e+00  1.3709250470304082e-01 1.1481428571022854e-04 0.0000000000000000e+00  1.2679742188411983e-01 7.4027641019429148e-05 0.0000000000000000e+00  1.3408691583058610e-01 1.7707473100481783e-05 0.0000000000000000e+00  1.4510750672859862e-01 2.5281567860642148e-06 0.0000000000000000e+00  1.5294788317092037e-01 9.2175666991143927e-06 0.0000000000000000e+00  1.5525652651161237e-01 9.1303211798190789e-09 0.0000000000000000e+00  1.5092285740854711e-01 1.5829827681538767e-07 0.0000000000000000e+00  1.4833397017091163e-01 1.2069924331464486e-07 0.0000000000000000e+00  1.4989744481434772e-01 2.2706632325371614e-08 0.0000000000000000e+00  1.5057214679367145e-01 2.1100593390932828e-07 0.0000000000000000e+00  1.4949348305934601e-01 3.7341065416624069e-07 0.0000000000000000e+00  1.5026894405099886e-01 1.2110784450268662e-07 0.0000000000000000e+00  1.4994770461904841e-01 1.8841317021714068e-08 0.0000000000000000e+00  1.5005481890315639e-01 2.9067431638686347e-08 0.0000000000000000e+00  1.4977032932886891e-01 1.2889711952984558e-07 0.0000000000000000e+00  1.5037298759121798e-01 2.5806024569798438e-07 0.0000000000000000e+00  1.4961909349765903e-01 2.7175721559883393e-07 0.0000000000000000e+00  1.5027557762810642e-01 1.7925835196870511e-07 0.0000000000000000e+00  1.4979879434106103e-01 1.1554954524295061e-07 0.0000000000000000e+00  1.5017797878859884e-01 9.1111803958598624e-08 0.0000000000000000e+00  1.4975592606570934e-01 1.0787607214886791e-07 0.0000000000000000e+00  1.5023187186873782e-01 8.5334542617627966e-08 0.0000000000000000e+00  1.4976895177216204e-01 6.0099318888044155e-08 0.0000000000000000e+00  1.5007609334250635e-01 5.9903383209658758e-09 0.0000000000000000e+00  1.4993359102791301e-01 6.9432914092843955e-11 0.0000000000000000e+00  1.4992639756920198e-01 1.8889330806229908e-08 0.0000000000000000e+00  1.4997445056096315e-01 1.2795758644446795e-08 0.0000000000000000e+00  1.4993341244597011e-01 3.3716208216533639e-08 0.0000000000000000e+00  1.5000958768092085e-01 3.0820758076863420e-08 0.0000000000000000e+00  1.4992704156855935e-01 2.3949762876105225e-08 0.0000000000000000e+00  1.5019531931287311e-01 4.5376985360983057e-08 0.0000000000000000e+00  1.4989164242869774e-01 1.2834509457000648e-09 0.0000000000000000e+00  1.5034048487330437e-01 0.0000000000000000e+00 0.0000000000000000e+00  1.5382161160697880e-01 0.0000000000000000e+00 5.1684378508673035e-06  1.4809992205972686e-01 1.4174718130402529e-05 1.4174718130397667e-05  1.4975936984682087e-01 2.2722432439913177e-05 2.8441216451763409e-06  1.4458332485992323e-01 2.9349551298030360e-06 2.3925180866223256e-05  1.4593514289702697e-01 3.0961937061299036e-05 8.0224699961467365e-06  1.4192416101558955e-01 2.5180139081550017e-09 7.3533293563286561e-06  1.4528479812610864e-01 1.3526017559233990e-05 3.0908555540606711e-06  1.4421794647541478e-01 5.9244213358487073e-07 7.6736227486248683e-08  1.4850201088193496e-01 9.0532522091125135e-08 9.3575280913410769e-09  1.4851987504567155e-01 4.2426537212930507e-06 1.6649358827377683e-06  1.5115466141415621e-01 5.8053514902286069e-07 3.8765384397490979e-12  1.5017934342920267e-01 5.6145060928619922e-07 1.4301903364248519e-07  1.5046020184152967e-01 4.0911777428803776e-07 2.9779432652883771e-07  1.4964176933402945e-01 6.7724972944724793e-07 3.8998339150887448e-09  1.5004268079498007e-01 3.4995650813978365e-07 9.5001958126393485e-10  1.5062043228135749e-01 8.9106025151358397e-08 3.8935330731647709e-07  1.5136867980718235e-01 1.5202869495062297e-06 3.4884263786494545e-07  1.5173573190713535e-01 1.0752902983671744e-06 1.6148226164277771e-07  1.5072375501160001e-01 3.4364613562758306e-07 6.5572896544648982e-08  1.4974398638137207e-01 1.0902760795874225e-06 4.0087740069114116e-07  1.4833123804270426e-01 2.0098268671705263e-06 3.5584294775739969e-07  1.4810345481400930e-01 1.6444960728317807e-06 5.5144694618946735e-10  1.4871578203457955e-01 5.2966351740954857e-08 1.8721265348954882e-07  1.4956003012809369e-01 8.3434569762760796e-07 6.3378944777195186e-07  1.5014781583860318e-01 2.0998920274138285e-06 4.0005419024744558e-07  1.5038509129977756e-01 6.7801618064618422e-07 7.5227797568512061e-07  1.4959804268897658e-01 1.5804040308796825e-07 9.0614388197728153e-08  1.4874351043914336e-01 4.1135902528247208e-08 4.0904900782493044e-09  1.4969949686809889e-01 3.3386272922651640e-09 6.3983806386573004e-07  1.5132111670594720e-01 2.5842593388418179e-08 1.6789449017013469e-06  1.5166880950844258e-01 1.6004605621322316e-06 4.7147085002199701e-06  1.5053973327538900e-01 1.3131724982452190e-06 3.4657707927801663e-06  1.4660685223463257e-01 1.4104609318614039e-11 6.9976909342403228e-07  1.4096049142440067e-01 2.0130970314721088e-06 6.1218916297537854e-05  1.3949761505609279e-01 1.9137439146803320e-05 2.9475747207891902e-04  1.4386581237474372e-01 4.2658323195155606e-05 4.5350963822340381e-04  1.5411567716220001e-01 1.2389963167991896e-05 8.6466380545982769e-05  1.7260989439921728e-01 1.8955056356272426e-05 5.0694824967374621e-04  1.9825605761230933e-01 2.6584041858114602e-04 5.0575562508173161e-03  2.2530305191517025e-01 9.3893840003321191e-04 1.6624907897078881e-02  2.5200587750906323e-01 1.7821214673504459e-03 3.4259576833163483e-02  2.7504566041846690e-01 2.3488396165611577e-03 5.3518539970427915e-02  2.8713704390169476e-01 2.5809254715398098e-03 7.0919578199013816e-02  2.9246080353286208e-01 2.4421051779534081e-03 8.1605368343205628e-02  2.9633990717803937e-01 2.0077919480276322e-03 8.3439135519752183e-02  2.9021547451452107e-01 1.4710808285558850e-03 7.9818975340657877e-02  2.7754902089220623e-01 8.9635128151954041e-04 7.1159475400877067e-02  2.7215805539697230e-01 5.4545229663266015e-04 5.7515561523967626e-02  2.6607944025930663e-01 3.9674024092023377e-04 4.4519292536392509e-02  2.5537715444598175e-01 1.9167223149702781e-04 3.3644469729089931e-02  2.5031533572750009e-01 5.7356048329140343e-05 2.3798114732805725e-02  2.4612114213386088e-01 4.5692756087852635e-05 1.6679512767715392e-02  2.4115660636415462e-01 2.3146427143031935e-05 1.2156678836278242e-02  2.4129214648567143e-01 3.7752509544310958e-07 9.3567998090630534e-03  2.3667590161383462e-01 1.6288333018754138e-06 8.3436889442413051e-03  2.3204549973007113e-01 9.0050151202531239e-06 8.3320032982457954e-03  2.3760036910432403e-01 1.6815547050659405e-05 9.3945765079783555e-03  2.3701422012244694e-01 3.4185305067996999e-05 1.2985691495618212e-02  2.3280001315528276e-01 1.0251338488693790e-04 1.8488609599484826e-02  2.4259434028906135e-01 1.3234021801751148e-04 2.5639292965821601e-02  2.5098544148815866e-01 1.8016996781237767e-04 3.7248991420082513e-02  2.5381276832081601e-01 4.4876566619803538e-04 5.2683654189339624e-02  2.6973379979421264e-01 7.3589326906460734e-04 6.7980308310298013e-02  2.8768086917545238e-01 1.0799815042572081e-03 8.4165129750800260e-02  2.9658480296116613e-01 1.9921122401553352e-03 9.8581063450015091e-02  3.0898496901339922e-01 2.8634061089835251e-03 1.0245112699188906e-01  3.1530148895581139e-01 3.2915070738053676e-03 9.4702414087299888e-02  3.0004338189616930e-01 3.5254944542183388e-03 7.5942561567814981e-02  2.7201905248859959e-01 2.6278106084194051e-03 4.6244929214242871e-02  2.3466996507858409e-01 1.0492278140053323e-03 1.7977485174886697e-02  1.8943302105987320e-01 1.5192029253594693e-04 2.7100871170960147e-03  1.5433848800611774e-01 7.6718101200885406e-06 6.9352525486775685e-05  1.3959245983781352e-01 7.6244282700387389e-05 7.0533638740716536e-04  1.3905850429522248e-01 1.2936182525991686e-05 1.4380073597439709e-04  1.4678988846791075e-01 2.1744736997204173e-06 3.9948374250228665e-06  1.5306173298729242e-01 8.6726119483332498e-07 6.6127177716306054e-06  1.5170097028867308e-01 7.2359672747489803e-08 3.0219367069865581e-07  1.4892980760330954e-01 2.6422261990133659e-07 1.0657522331338637e-09  1.5013434622412536e-01 1.5588639624582696e-07 1.0721517620990833e-07  1.5011821658618857e-01 5.2255569205602556e-11 2.3496169210070166e-09  1.4986155974819126e-01 5.7258648089718476e-09 3.7207453844616500e-08  1.4997435889004862e-01 1.3322624594766520e-08 8.6734883717355010e-09  1.5022811354639479e-01 8.5200907424094696e-08 2.9203927717094951e-09  1.4972057585862444e-01 9.5469590472690722e-08 1.4804266734186105e-08  1.5018402739180575e-01 4.1351231971417540e-08 8.1022285324113770e-09  1.4994894250090926e-01 6.5261986672790209e-09 3.5853444284386859e-10  1.5001695961053255e-01 1.5251952360549045e-09 3.7436545302748931e-14  1.4995336009502627e-01 2.4057230520290492e-09 1.8526914087636144e-09  1.5012166423319495e-01 7.0065524241135266e-09 1.5399646449229481e-08  1.4990347012764244e-01 2.0990152318976207e-09 2.5977566057582190e-08  1.5007940880405421e-01 1.7789782463311172e-10 2.4866996909983108e-08  1.5003848419536278e-01 6.2274662902082485e-09 9.0951927662292166e-09  1.4999612696606407e-01 2.9209053779637842e-09 3.2986938758455113e-09  1.5008110642909925e-01 9.4254030702754362e-09 3.3838249465012320e-10  1.5003740499204338e-01 6.9168394067596588e-11 7.1693265780411598e-10  1.5004981319387314e-01 2.2495827761736109e-09 1.1102390021212333e-09  1.5002173803566610e-01 6.0836952209759696e-11 6.0286424338684676e-10  1.5004491795197128e-01 1.2455993540568384e-11 2.4701586160666351e-09  1.4992586529479779e-01 2.5773704340410100e-09 8.4229464876938916e-11  1.4997900923308469e-01 2.2784197036759910e-09 2.2784197036778100e-09  1.4989164242869796e-01 0.0000000000000000e+00 1.2834509457208802e-09  1.5012935440896694e-01 0.0000000000000000e+00 1.5601570350556672e-06  1.4975936984682089e-01 2.8441216451752622e-06 2.2722432439909379e-05  1.5022013747829077e-01 1.3443738114199774e-05 1.3443738114197211e-05  1.5338405014928941e-01 3.2038149027857458e-05 4.7956824932648998e-05  1.5482664814574748e-01 6.1585402010973114e-06 2.3059274768541772e-05  1.5459622708773155e-01 3.2751686594509185e-05 4.4446647108447618e-05  1.5742849357703062e-01 6.8972450437103663e-07 8.4485431011035498e-06  1.5323503994404655e-01 8.2821326271674302e-06 9.8362196127673487e-06  1.5505121115110473e-01 1.9724306839847478e-06 9.9094553613710993e-08  1.5009034804447038e-01 1.6867562493918175e-07 1.9240576811880320e-09  1.5145995201518311e-01 3.4670545181410710e-06 1.6548555366890201e-06  1.4851274162364411e-01 4.0607869217865101e-07 4.2886431537374754e-08  1.5052924722058555e-01 7.5897788054378927e-08 3.8470229798876985e-09  1.4956295995618726e-01 6.4523684532835043e-07 3.9216236909190525e-07  1.5055435017062135e-01 4.8844885437743739e-07 1.1641266882536869e-08  1.4959769637070716e-01 3.2294364689690722e-08 1.4449978383343548e-07  1.4915814470634498e-01 4.0581533018583899e-07 9.4604606759427361e-07  1.4854439939804245e-01 1.6000131520455151e-06 1.0594132017302264e-06  1.4877635553087926e-01 5.9979953447541753e-07 1.0822953707475848e-07  1.4978569316712911e-01 4.2477460649449181e-09 1.6532552356807048e-07  1.5087267858682921e-01 1.5199194980553018e-06 1.0236082519415406e-06  1.5157496607127249e-01 2.1597718545954496e-06 2.6002218611153890e-07  1.5161906374000808e-01 3.3871442023921252e-07 4.3658832240356610e-08  1.5042032722378987e-01 6.1416783726726818e-10 6.3154653658129271e-07  1.5002250053921887e-01 2.4218211618614230e-06 1.2709622444502019e-06  1.4906136750592447e-01 1.1929296231727130e-06 1.5363305987422629e-06  1.5018951384685492e-01 3.1250131551545690e-07 2.5087216527383929e-06  1.5256613449362821e-01 3.7491830507530253e-09 1.0398695257083051e-06  1.5325232971516264e-01 5.8247095604707695e-07 1.8984732314766402e-06  1.4946509693102400e-01 9.6123503258077177e-07 4.6344624429133329e-07  1.4404223670371158e-01 1.7219689364991071e-06 2.2003939057822858e-05  1.3978638160270856e-01 2.6936693494449716e-05 2.1292373097354713e-04  1.4118051051220690e-01 5.0163011475472232e-05 3.8417596114614233e-04  1.5277994399849723e-01 1.3189790004374681e-05 4.1044141816931654e-05  1.7611218769404427e-01 5.6577596700042144e-05 1.1602154690403374e-03  2.0759960472941977e-01 7.6340761917031812e-04 9.2114546224037145e-03  2.4656116714887402e-01 2.3306124704289832e-03 2.6289833745927329e-02  2.8415551711545978e-01 4.1334819367772318e-03 4.6327138238629668e-02  3.0659208258259374e-01 5.4213951841982503e-03 6.2351178357537576e-02  3.1291379872901065e-01 5.1385620648348044e-03 6.7688103343517339e-02  3.0564892306369718e-01 3.8347290631118428e-03 6.0660766367098731e-02  2.8292346492228609e-01 2.5561135978538073e-03 4.7355272326778552e-02  2.5676386038741977e-01 1.3920784275211805e-03 3.1547460358638549e-02  2.3363742807965940e-01 5.6191582971054817e-04 1.7029675831071456e-02  2.0499303767045909e-01 1.6164621456101353e-04 8.2305192782761959e-03  1.8066805518567872e-01 2.4751037003566756e-05 3.0276188481689788e-03  1.7014222972796211e-01 2.5440765608400547e-06 3.5327568836607406e-04  1.5603603508483943e-01 1.3621800965525887e-06 9.9905492301578420e-07  1.3990638653209014e-01 2.7952650558466265e-05 8.7744856548154594e-05  1.3601171649510183e-01 3.8027005914568355e-05 5.1217142374514440e-04  1.3219298146649097e-01 1.2728269016913645e-05 8.0448318242279599e-04  1.2531445503476299e-01 1.5274339994482207e-05 6.8503298307353981e-04  1.2451847578927355e-01 3.8292922177850574e-05 7.7522756437538396e-04  1.2096466106101483e-01 2.7294758487008918e-05 7.4313692182325036e-04  1.1906212117905364e-01 6.2761353764553576e-06 8.2084899924945835e-04  1.2334117146698000e-01 6.5247605323043001e-06 1.0938849804322506e-03  1.1867676495855732e-01 1.6166969977322218e-05 8.7626245256943716e-04  1.1531767656913842e-01 9.6075025695109923e-06 1.0645782709450377e-03  1.2366844942948613e-01 3.8424010665161633e-09 1.9063424808858655e-03  1.2230297631130646e-01 4.8773719380112157e-07 1.7538725493279458e-03  1.1890723806698028e-01 4.9275015761479356e-06 1.7140624769875275e-03  1.2994377340401997e-01 2.8931386377537001e-07 2.4785439978871299e-03  1.3648249182024991e-01 2.2083413057788946e-06 1.7943885559233413e-03  1.3933508820993462e-01 6.9987457835503166e-06 6.2615110034511300e-04  1.5844887211266639e-01 1.1541153095311437e-05 6.9694936509164218e-05  1.8018017912633652e-01 4.4815139770784035e-05 8.1545860776353299e-04  2.0071444417013892e-01 3.4532403831222442e-04 7.1877283202993036e-03  2.3743707566066671e-01 1.0531413770565982e-03 2.0801914050440729e-02  2.8079702585102573e-01 2.3648275322160762e-03 4.4111030637209656e-02  3.1362969159384585e-01 5.0200938327665517e-03 7.4068738781560298e-02  3.3388713972537093e-01 7.4316661106940711e-03 9.0322846534448442e-02  3.2371534604735780e-01 6.9018278539370835e-03 7.7957201681881513e-02  2.7034833243392759e-01 3.7827355171309524e-03 4.0854937196457393e-02  2.0294642375242197e-01 6.6402377728658766e-04 7.3185287273692112e-03  1.5495310230359025e-01 1.7152320906028887e-05 5.1730344412255837e-05  1.3747356157205606e-01 9.4405532454001356e-05 5.9432144665465790e-04  1.4257903976198946e-01 2.4835121767897244e-07 1.2785681939950195e-05  1.5247500816096640e-01 9.6015582797355923e-07 6.5142751662637410e-06  1.5148631752900205e-01 1.9322879048401101e-07 7.1228193014327015e-07  1.4938049524599328e-01 1.2781222731232366e-09 3.6146378804939793e-09  1.4985297844223935e-01 8.7223301205165339e-09 7.6501288245927523e-08  1.5043931391266993e-01 2.3344411185966717e-07 1.7189001794671517e-08  1.4944755078