<?xml version="1.0"?>
<VTKFile type="UnstructuredGrid"  version="0.1"  >
<UnstructuredGrid>
<Piece  NumberOfPoints="10201" NumberOfCells="20000">
<Points>
<DataArray  type="Float64"  NumberOfComponents="3"  format="ascii">-5 -5 0  -4.9 -5 0  -4.8 -5 0  -4.7 -5 0  -4.6 -5 0  -4.5 -5 0  -4.4 -5 0  -4.3 -5 0  -4.2 -5 0  -4.1 -5 0  -4 -5 0  -3.9 -5 0  -3.8 -5 0  -3.7 -5 0  -3.6 -5 0  -3.5 -5 0  -3.4 -5 0  -3.3 -5 0  -3.2 -5 0  -3.1 -5 0  -3 -5 0  -2.9 -5 0  -2.8 -5 0  -2.7 -5 0  -2.6 -5 0  -2.5 -5 0  -2.4 -5 0  -2.3 -5 0  -2.2 -5 0  -2.1 -5 0  -2 -5 0  -1.9 -5 0  -1.8 -5 0  -1.7 -5 0  -1.6 -5 0  -1.5 -5 0  -1.4 -5 0  -1.3 -5 0  -1.2 -5 0  -1.1 -5 0  -1 -5 0  -0.9000000000000004 -5 0  -0.7999999999999998 -5 0  -0.7000000000000002 -5 0  -0.5999999999999996 -5 0  -0.5 -5 0  -0.4000000000000004 -5 0  -0.2999999999999998 -5 0  -0.2000000000000002 -5 0  -0.09999999999999964 -5 0  0 -5 0  0.09999999999999964 -5 0  0.2000000000000002 -5 0  0.2999999999999998 -5 0  0.4000000000000004 -5 0  0.5 -5 0  0.5999999999999996 -5 0  0.7000000000000002 -5 0  0.7999999999999998 -5 0  0.9000000000000004 -5 0  1 -5 0  1.1 -5 0  1.2 -5 0  1.3 -5 0  1.4 -5 0  1.5 -5 0  1.6 -5 0  1.7 -5 0  1.8 -5 0  1.9 -5 0  2 -5 0  2.1 -5 0  2.2 -5 0  2.3 -5 0  2.4 -5 0  2.5 -5 0  2.6 -5 0  2.7 -5 0  2.8 -5 0  2.9 -5 0  3 -5 0  3.1 -5 0  3.199999999999999 -5 0  3.300000000000001 -5 0  3.4 -5 0  3.5 -5 0  3.6 -5 0  3.699999999999999 -5 0  3.800000000000001 -5 0  3.9 -5 0  4 -5 0  4.1 -5 0  4.199999999999999 -5 0  4.300000000000001 -5 0  4.4 -5 0  4.5 -5 0  4.6 -5 0  4.699999999999999 -5 0  4.800000000000001 -5 0  4.9 -5 0  5 -5 0  -5 -4.9 0  -4.9 -4.9 0  -4.8 -4.9 0  -4.7 -4.9 0  -4.6 -4.9 0  -4.5 -4.9 0  -4.4 -4.9 0  -4.3 -4.9 0  -4.2 -4.9 0  -4.1 -4.9 0  -4 -4.9 0  -3.9 -4.9 0  -3.8 -4.9 0  -3.7 -4.9 0  -3.6 -4.9 0  -3.5 -4.9 0  -3.4 -4.9 0  -3.3 -4.9 0  -3.2 -4.9 0  -3.1 -4.9 0  -3 -4.9 0  -2.9 -4.9 0  -2.8 -4.9 0  -2.7 -4.9 0  -2.6 -4.9 0  -2.5 -4.9 0  -2.4 -4.9 0  -2.3 -4.9 0  -2.2 -4.9 0  -2.1 -4.9 0  -2 -4.9 0  -1.9 -4.9 0  -1.8 -4.9 0  -1.7 -4.9 0  -1.6 -4.9 0  -1.5 -4.9 0  -1.4 -4.9 0  -1.3 -4.9 0  -1.2 -4.9 0  -1.1 -4.9 0  -1 -4.9 0  -0.9000000000000004 -4.9 0  -0.7999999999999998 -4.9 0  -0.7000000000000002 -4.9 0  -0.5999999999999996 -4.9 0  -0.5 -4.9 0  -0.4000000000000004 -4.9 0  -0.2999999999999998 -4.9 0  -0.2000000000000002 -4.9 0  -0.09999999999999964 -4.9 0  0 -4.9 0  0.09999999999999964 -4.9 0  0.2000000000000002 -4.9 0  0.2999999999999998 -4.9 0  0.4000000000000004 -4.9 0  0.5 -4.9 0  0.5999999999999996 -4.9 0  0.7000000000000002 -4.9 0  0.7999999999999998 -4.9 0  0.9000000000000004 -4.9 0  1 -4.9 0  1.1 -4.9 0  1.2 -4.9 0  1.3 -4.9 0  1.4 -4.9 0  1.5 -4.9 0  1.6 -4.9 0  1.7 -4.9 0  1.8 -4.9 0  1.9 -4.9 0  2 -4.9 0  2.1 -4.9 0  2.2 -4.9 0  2.3 -4.9 0  2.4 -4.9 0  2.5 -4.9 0  2.6 -4.9 0  2.7 -4.9 0  2.8 -4.9 0  2.9 -4.9 0  3 -4.9 0  3.1 -4.9 0  3.199999999999999 -4.9 0  3.300000000000001 -4.9 0  3.4 -4.9 0  3.5 -4.9 0  3.6 -4.9 0  3.699999999999999 -4.9 0  3.800000000000001 -4.9 0  3.9 -4.9 0  4 -4.9 0  4.1 -4.9 0  4.199999999999999 -4.9 0  4.300000000000001 -4.9 0  4.4 -4.9 0  4.5 -4.9 0  4.6 -4.9 0  4.699999999999999 -4.9 0  4.800000000000001 -4.9 0  4.9 -4.9 0  5 -4.9 0  -5 -4.8 0  -4.9 -4.8 0  -4.8 -4.8 0  -4.7 -4.8 0  -4.6 -4.8 0  -4.5 -4.8 0  -4.4 -4.8 0  -4.3 -4.8 0  -4.2 -4.8 0  -4.1 -4.8 0  -4 -4.8 0  -3.9 -4.8 0  -3.8 -4.8 0  -3.7 -4.8 0  -3.6 -4.8 0  -3.5 -4.8 0  -3.4 -4.8 0  -3.3 -4.8 0  -3.2 -4.8 0  -3.1 -4.8 0  -3 -4.8 0  -2.9 -4.8 0  -2.8 -4.8 0  -2.7 -4.8 0  -2.6 -4.8 0  -2.5 -4.8 0  -2.4 -4.8 0  -2.3 -4.8 0  -2.2 -4.8 0  -2.1 -4.8 0  -2 -4.8 0  -1.9 -4.8 0  -1.8 -4.8 0  -1.7 -4.8 0  -1.6 -4.8 0  -1.5 -4.8 0  -1.4 -4.8 0  -1.3 -4.8 0  -1.2 -4.8 0  -1.1 -4.8 0  -1 -4.8 0  -0.9000000000000004 -4.8 0  -0.7999999999999998 -4.8 0  -0.7000000000000002 -4.8 0  -0.5999999999999996 -4.8 0  -0.5 -4.8 0  -0.4000000000000004 -4.8 0  -0.2999999999999998 -4.8 0  -0.2000000000000002 -4.8 0  -0.09999999999999964 -4.8 0  0 -4.8 0  0.09999999999999964 -4.8 0  0.2000000000000002 -4.8 0  0.2999999999999998 -4.8 0  0.4000000000000004 -4.8 0  0.5 -4.8 0  0.5999999999999996 -4.8 0  0.7000000000000002 -4.8 0  0.7999999999999998 -4.8 0  0.9000000000000004 -4.8 0  1 -4.8 0  1.1 -4.8 0  1.2 -4.8 0  1.3 -4.8 0  1.4 -4.8 0  1.5 -4.8 0  1.6 -4.8 0  1.7 -4.8 0  1.8 -4.8 0  1.9 -4.8 0  2 -4.8 0  2.1 -4.8 0  2.2 -4.8 0  2.3 -4.8 0  2.4 -4.8 0  2.5 -4.8 0  2.6 -4.8 0  2.7 -4.8 0  2.8 -4.8 0  2.9 -4.8 0  3 -4.8 0  3.1 -4.8 0  3.199999999999999 -4.8 0  3.300000000000001 -4.8 0  3.4 -4.8 0  3.5 -4.8 0  3.6 -4.8 0  3.699999999999999 -4.8 0  3.800000000000001 -4.8 0  3.9 -4.8 0  4 -4.8 0  4.1 -4.8 0  4.199999999999999 -4.8 0  4.300000000000001 -4.8 0  4.4 -4.8 0  4.5 -4.8 0  4.6 -4.8 0  4.699999999999999 -4.8 0  4.800000000000001 -4.8 0  4.9 -4.8 0  5 -4.8 0  -5 -4.7 0  -4.9 -4.7 0  -4.8 -4.7 0  -4.7 -4.7 0  -4.6 -4.7 0  -4.5 -4.7 0  -4.4 -4.7 0  -4.3 -4.7 0  -4.2 -4.7 0  -4.1 -4.7 0  -4 -4.7 0  -3.9 -4.7 0  -3.8 -4.7 0  -3.7 -4.7 0  -3.6 -4.7 0  -3.5 -4.7 0  -3.4 -4.7 0  -3.3 -4.7 0  -3.2 -4.7 0  -3.1 -4.7 0  -3 -4.7 0  -2.9 -4.7 0  -2.8 -4.7 0  -2.7 -4.7 0  -2.6 -4.7 0  -2.5 -4.7 0  -2.4 -4.7 0  -2.3 -4.7 0  -2.2 -4.7 0  -2.1 -4.7 0  -2 -4.7 0  -1.9 -4.7 0  -1.8 -4.7 0  -1.7 -4.7 0  -1.6 -4.7 0  -1.5 -4.7 0  -1.4 -4.7 0  -1.3 -4.7 0  -1.2 -4.7 0  -1.1 -4.7 0  -1 -4.7 0  -0.9000000000000004 -4.7 0  -0.7999999999999998 -4.7 0  -0.7000000000000002 -4.7 0  -0.5999999999999996 -4.7 0  -0.5 -4.7 0  -0.4000000000000004 -4.7 0  -0.2999999999999998 -4.7 0  -0.2000000000000002 -4.7 0  -0.09999999999999964 -4.7 0  0 -4.7 0  0.09999999999999964 -4.7 0  0.2000000000000002 -4.7 0  0.2999999999999998 -4.7 0  0.4000000000000004 -4.7 0  0.5 -4.7 0  0.5999999999999996 -4.7 0  0.7000000000000002 -4.7 0  0.7999999999999998 -4.7 0  0.9000000000000004 -4.7 0  1 -4.7 0  1.1 -4.7 0  1.2 -4.7 0  1.3 -4.7 0  1.4 -4.7 0  1.5 -4.7 0  1.6 -4.7 0  1.7 -4.7 0  1.8 -4.7 0  1.9 -4.7 0  2 -4.7 0  2.1 -4.7 0  2.2 -4.7 0  2.3 -4.7 0  2.4 -4.7 0  2.5 -4.7 0  2.6 -4.7 0  2.7 -4.7 0  2.8 -4.7 0  2.9 -4.7 0  3 -4.7 0  3.1 -4.7 0  3.199999999999999 -4.7 0  3.300000000000001 -4.7 0  3.4 -4.7 0  3.5 -4.7 0  3.6 -4.7 0  3.699999999999999 -4.7 0  3.800000000000001 -4.7 0  3.9 -4.7 0  4 -4.7 0  4.1 -4.7 0  4.199999999999999 -4.7 0  4.300000000000001 -4.7 0  4.4 -4.7 0  4.5 -4.7 0  4.6 -4.7 0  4.699999999999999 -4.7 0  4.800000000000001 -4.7 0  4.9 -4.7 0  5 -4.7 0  -5 -4.6 0  -4.9 -4.6 0  -4.8 -4.6 0  -4.7 -4.6 0  -4.6 -4.6 0  -4.5 -4.6 0  -4.4 -4.6 0  -4.3 -4.6 0  -4.2 -4.6 0  -4.1 -4.6 0  -4 -4.6 0  -3.9 -4.6 0  -3.8 -4.6 0  -3.7 -4.6 0  -3.6 -4.6 0  -3.5 -4.6 0  -3.4 -4.6 0  -3.3 -4.6 0  -3.2 -4.6 0  -3.1 -4.6 0  -3 -4.6 0  -2.9 -4.6 0  -2.8 -4.6 0  -2.7 -4.6 0  -2.6 -4.6 0  -2.5 -4.6 0  -2.4 -4.6 0  -2.3 -4.6 0  -2.2 -4.6 0  -2.1 -4.6 0  -2 -4.6 0  -1.9 -4.6 0  -1.8 -4.6 0  -1.7 -4.6 0  -1.6 -4.6 0  -1.5 -4.6 0  -1.4 -4.6 0  -1.3 -4.6 0  -1.2 -4.6 0  -1.1 -4.6 0  -1 -4.6 0  -0.9000000000000004 -4.6 0  -0.7999999999999998 -4.6 0  -0.7000000000000002 -4.6 0  -0.5999999999999996 -4.6 0  -0.5 -4.6 0  -0.4000000000000004 -4.6 0  -0.2999999999999998 -4.6 0  -0.2000000000000002 -4.6 0  -0.09999999999999964 -4.6 0  0 -4.6 0  0.09999999999999964 -4.6 0  0.2000000000000002 -4.6 0  0.2999999999999998 -4.6 0  0.4000000000000004 -4.6 0  0.5 -4.6 0  0.5999999999999996 -4.6 0  0.7000000000000002 -4.6 0  0.7999999999999998 -4.6 0  0.9000000000000004 -4.6 0  1 -4.6 0  1.1 -4.6 0  1.2 -4.6 0  1.3 -4.6 0  1.4 -4.6 0  1.5 -4.6 0  1.6 -4.6 0  1.7 -4.6 0  1.8 -4.6 0  1.9 -4.6 0  2 -4.6 0  2.1 -4.6 0  2.2 -4.6 0  2.3 -4.6 0  2.4 -4.6 0  2.5 -4.6 0  2.6 -4.6 0  2.7 -4.6 0  2.8 -4.6 0  2.9 -4.6 0  3 -4.6 0  3.1 -4.6 0  3.199999999999999 -4.6 0  3.300000000000001 -4.6 0  3.4 -4.6 0  3.5 -4.6 0  3.6 -4.6 0  3.699999999999999 -4.6 0  3.800000000000001 -4.6 0  3.9 -4.6 0  4 -4.6 0  4.1 -4.6 0  4.199999999999999 -4.6 0  4.300000000000001 -4.6 0  4.4 -4.6 0  4.5 -4.6 0  4.6 -4.6 0  4.699999999999999 -4.6 0  4.800000000000001 -4.6 0  4.9 -4.6 0  5 -4.6 0  -5 -4.5 0  -4.9 -4.5 0  -4.8 -4.5 0  -4.7 -4.5 0  -4.6 -4.5 0  -4.5 -4.5 0  -4.4 -4.5 0  -4.3 -4.5 0  -4.2 -4.5 0  -4.1 -4.5 0  -4 -4.5 0  -3.9 -4.5 0  -3.8 -4.5 0  -3.7 -4.5 0  -3.6 -4.5 0  -3.5 -4.5 0  -3.4 -4.5 0  -3.3 -4.5 0  -3.2 -4.5 0  -3.1 -4.5 0  -3 -4.5 0  -2.9 -4.5 0  -2.8 -4.5 0  -2.7 -4.5 0  -2.6 -4.5 0  -2.5 -4.5 0  -2.4 -4.5 0  -2.3 -4.5 0  -2.2 -4.5 0  -2.1 -4.5 0  -2 -4.5 0  -1.9 -4.5 0  -1.8 -4.5 0  -1.7 -4.5 0  -1.6 -4.5 0  -1.5 -4.5 0  -1.4 -4.5 0  -1.3 -4.5 0  -1.2 -4.5 0  -1.1 -4.5 0  -1 -4.5 0  -0.9000000000000004 -4.5 0  -0.7999999999999998 -4.5 0  -0.7000000000000002 -4.5 0  -0.5999999999999996 -4.5 0  -0.5 -4.5 0  -0.4000000000000004 -4.5 0  -0.2999999999999998 -4.5 0  -0.2000000000000002 -4.5 0  -0.09999999999999964 -4.5 0  0 -4.5 0  0.09999999999999964 -4.5 0  0.2000000000000002 -4.5 0  0.2999999999999998 -4.5 0  0.4000000000000004 -4.5 0  0.5 -4.5 0  0.5999999999999996 -4.5 0  0.7000000000000002 -4.5 0  0.7999999999999998 -4.5 0  0.9000000000000004 -4.5 0  1 -4.5 0  1.1 -4.5 0  1.2 -4.5 0  1.3 -4.5 0  1.4 -4.5 0  1.5 -4.5 0  1.6 -4.5 0  1.7 -4.5 0  1.8 -4.5 0  1.9 -4.5 0  2 -4.5 0  2.1 -4.5 0  2.2 -4.5 0  2.3 -4.5 0  2.4 -4.5 0  2.5 -4.5 0  2.6 -4.5 0  2.7 -4.5 0  2.8 -4.5 0  2.9 -4.5 0  3 -4.5 0  3.1 -4.5 0  3.199999999999999 -4.5 0  3.300000000000001 -4.5 0  3.4 -4.5 0  3.5 -4.5 0  3.6 -4.5 0  3.699999999999999 -4.5 0  3.800000000000001 -4.5 0  3.9 -4.5 0  4 -4.5 0  4.1 -4.5 0  4.199999999999999 -4.5 0  4.300000000000001 -4.5 0  4.4 -4.5 0  4.5 -4.5 0  4.6 -4.5 0  4.699999999999999 -4.5 0  4.800000000000001 -4.5 0  4.9 -4.5 0  5 -4.5 0  -5 -4.4 0  -4.9 -4.4 0  -4.8 -4.4 0  -4.7 -4.4 0  -4.6 -4.4 0  -4.5 -4.4 0  -4.4 -4.4 0  -4.3 -4.4 0  -4.2 -4.4 0  -4.1 -4.4 0  -4 -4.4 0  -3.9 -4.4 0  -3.8 -4.4 0  -3.7 -4.4 0  -3.6 -4.4 0  -3.5 -4.4 0  -3.4 -4.4 0  -3.3 -4.4 0  -3.2 -4.4 0  -3.1 -4.4 0  -3 -4.4 0  -2.9 -4.4 0  -2.8 -4.4 0  -2.7 -4.4 0  -2.6 -4.4 0  -2.5 -4.4 0  -2.4 -4.4 0  -2.3 -4.4 0  -2.2 -4.4 0  -2.1 -4.4 0  -2 -4.4 0  -1.9 -4.4 0  -1.8 -4.
[...]
<PointData  Vectors="f_23"> 
<DataArray  type="Float64"  Name="f_23"  NumberOfComponents="3" format="ascii">1.5126286845984074e-01 0.0000000000000000e+00 0.0000000000000000e+00  1.4884919228100729e-01 5.0773920393193830e-07 0.0000000000000000e+00  1.5004078608920679e-01 8.7964925640510472e-08 0.0000000000000000e+00  1.4755515839628625e-01 1.8337084179499340e-06 0.0000000000000000e+00  1.4842613574645749e-01 5.1522291314896112e-08 0.0000000000000000e+00  1.4725906664360533e-01 1.1543099758801521e-06 0.0000000000000000e+00  1.4824365439323811e-01 1.1060807663803624e-09 0.0000000000000000e+00  1.4846671490397700e-01 1.9198921167407698e-08 0.0000000000000000e+00  1.4957778854858469e-01 5.1644641598259016e-07 0.0000000000000000e+00  1.4999579572547625e-01 8.6070420238405106e-07 0.0000000000000000e+00  1.5057146508286776e-01 2.1895935853887709e-07 0.0000000000000000e+00  1.5033268507646549e-01 1.7031355309187646e-07 0.0000000000000000e+00  1.5046553643873445e-01 1.9506908947505042e-07 0.0000000000000000e+00  1.5010310468654764e-01 3.6314831595365319e-09 0.0000000000000000e+00  1.5063564148814698e-01 3.1864771424565425e-07 0.0000000000000000e+00  1.5048063532049150e-01 7.7844178470032071e-08 0.0000000000000000e+00  1.5108097782553476e-01 7.2148761825436664e-08 0.0000000000000000e+00  1.5063127109339558e-01 2.4727631672464396e-08 0.0000000000000000e+00  1.5070668735049872e-01 5.7213464327221583e-07 0.0000000000000000e+00  1.4992522857891694e-01 2.9765477555886263e-07 0.0000000000000000e+00  1.5007366162424093e-01 1.2558509903823452e-06 0.0000000000000000e+00  1.4978530731386083e-01 1.4030695626362470e-07 0.0000000000000000e+00  1.5038085862064862e-01 6.1421681497026665e-08 0.0000000000000000e+00  1.5052873922168408e-01 1.6546361009879837e-07 0.0000000000000000e+00  1.5079473898580667e-01 3.9336450818431795e-08 0.0000000000000000e+00  1.5031896513618648e-01 3.2705816133707158e-08 0.0000000000000000e+00  1.5016780635085852e-01 1.1829663241977430e-07 0.0000000000000000e+00  1.4986905270997036e-01 2.7564241877685070e-08 0.0000000000000000e+00  1.5005601778716932e-01 4.7891053774429257e-09 0.0000000000000000e+00  1.5021311116557357e-01 8.7865957914555559e-08 0.0000000000000000e+00  1.5011804747301968e-01 7.9498473697272238e-09 0.0000000000000000e+00  1.4964030677321155e-01 3.5520121116408630e-09 0.0000000000000000e+00  1.4973985229503253e-01 3.0539709306439528e-09 0.0000000000000000e+00  1.5000203213468008e-01 5.9699610469419932e-10 0.0000000000000000e+00  1.5012575601873085e-01 8.0529201537366788e-08 0.0000000000000000e+00  1.5034272810265970e-01 1.0340502550284823e-07 0.0000000000000000e+00  1.5037494372762675e-01 1.5479781446727631e-08 0.0000000000000000e+00  1.4979102879017062e-01 1.2352258888587507e-07 0.0000000000000000e+00  1.4975263210785772e-01 2.3798812807668484e-08 0.0000000000000000e+00  1.5042478993143427e-01 1.3820854902863862e-08 0.0000000000000000e+00  1.5044538162609639e-01 3.0877532314053436e-08 0.0000000000000000e+00  1.4989458744128720e-01 1.5858302651579052e-08 0.0000000000000000e+00  1.4984685301147849e-01 2.0969242193489214e-07 0.0000000000000000e+00  1.5008773727428060e-01 1.5074364165828751e-10 0.0000000000000000e+00  1.5020140268525883e-01 2.8030007401787117e-07 0.0000000000000000e+00  1.5000695320082971e-01 1.1018887172848387e-09 0.0000000000000000e+00  1.4933014182472432e-01 3.2137949852955670e-07 0.0000000000000000e+00  1.4924473314729936e-01 4.2390351750855460e-08 0.0000000000000000e+00  1.4985462302559296e-01 2.5427707326241308e-07 0.0000000000000000e+00  1.4943361455059948e-01 8.8006811798595531e-08 0.0000000000000000e+00  1.4854446445290398e-01 1.1870713418880739e-07 0.0000000000000000e+00  1.4921993362897540e-01 1.4946701952004486e-07 0.0000000000000000e+00  1.4965869142957680e-01 6.2321740500136287e-09 0.0000000000000000e+00  1.4877581681176499e-01 8.9229821162295534e-08 0.0000000000000000e+00  1.4888747741077363e-01 6.5025184526899474e-09 0.0000000000000000e+00  1.4977794387645432e-01 3.7278254497554452e-08 0.0000000000000000e+00  1.4925380316801337e-01 6.8067443806698763e-08 0.0000000000000000e+00  1.4924218757427463e-01 4.4870808975014555e-11 0.0000000000000000e+00  1.5022333958453440e-01 3.7493811897739113e-08 0.0000000000000000e+00  1.5000164197122792e-01 3.0333313264405942e-08 0.0000000000000000e+00  1.4966990671919123e-01 3.0617684743837807e-08 0.0000000000000000e+00  1.5057761842299208e-01 9.8710269336584011e-08 0.0000000000000000e+00  1.5031814964706405e-01 4.3750571071656329e-10 0.0000000000000000e+00  1.4959708777290937e-01 5.6266010699479741e-08 0.0000000000000000e+00  1.5017708915242400e-01 2.9462261936890460e-08 0.0000000000000000e+00  1.5026078791597647e-01 1.8197647680484040e-08 0.0000000000000000e+00  1.4961756952953079e-01 7.5250875471646209e-08 0.0000000000000000e+00  1.5004942587954526e-01 4.1102226356724310e-09 0.0000000000000000e+00  1.5025295398028099e-01 2.6381019962092823e-08 0.0000000000000000e+00  1.4977355116860122e-01 2.2510398543362019e-08 0.0000000000000000e+00  1.4999054160651820e-01 2.4108736355223994e-10 0.0000000000000000e+00  1.5017257543822540e-01 1.7710460701246297e-08 0.0000000000000000e+00  1.4985668969413671e-01 1.1361917209168096e-08 0.0000000000000000e+00  1.5000131752647380e-01 2.1958440028164733e-11 0.0000000000000000e+00  1.5010845965460526e-01 6.7556368618858057e-09 0.0000000000000000e+00  1.4989763830336020e-01 4.2749251471422369e-09 0.0000000000000000e+00  1.5000925677643448e-01 1.8438421940675637e-10 0.0000000000000000e+00  1.5007680496913142e-01 5.9936141643691579e-09 0.0000000000000000e+00  1.4991211879030092e-01 6.0675277429118341e-09 0.0000000000000000e+00  1.5003435009931299e-01 9.8290535590146821e-10 0.0000000000000000e+00  1.5002089867929772e-01 5.8116613083105290e-11 0.0000000000000000e+00  1.4997225314663998e-01 1.9477697843054949e-12 0.0000000000000000e+00  1.4998816191442538e-01 1.7438406758857312e-09 0.0000000000000000e+00  1.5005865123615714e-01 7.1845844972306359e-09 0.0000000000000000e+00  1.4992122286715404e-01 9.9783471579790726e-09 0.0000000000000000e+00  1.5006847563529663e-01 7.8250776506916352e-09 0.0000000000000000e+00  1.4995106847490464e-01 5.2417972137395260e-09 0.0000000000000000e+00  1.5003890036122444e-01 4.7158315259896591e-09 0.0000000000000000e+00  1.4995386239756414e-01 6.5045967967419315e-09 0.0000000000000000e+00  1.5005711996902701e-01 8.9471425244506894e-09 0.0000000000000000e+00  1.4993045764490151e-01 1.0953637227949852e-08 0.0000000000000000e+00  1.5006497543430519e-01 9.7322772337800840e-09 0.0000000000000000e+00  1.4993129784534681e-01 8.9995460960053500e-09 0.0000000000000000e+00  1.5004843413024066e-01 5.6491058661753842e-09 0.0000000000000000e+00  1.4993440223970023e-01 6.3077038646211296e-09 0.0000000000000000e+00  1.5003421563460184e-01 2.8264892246596892e-09 0.0000000000000000e+00  1.4991981300562796e-01 4.7486906702436539e-09 0.0000000000000000e+00  1.5003146396858211e-01 8.1530775565972170e-10 0.0000000000000000e+00  1.4989356904170534e-01 2.3396392083250564e-09 0.0000000000000000e+00  1.5003612858947366e-01 8.3894035695608596e-12 0.0000000000000000e+00  1.4988256473510270e-01 0.0000000000000000e+00 0.0000000000000000e+00  1.4884919228100713e-01 0.0000000000000000e+00 5.0773920393199029e-07  1.5068605030453919e-01 1.0473110541919961e-06 1.0473110541930439e-06  1.5002805450366241e-01 2.2265617894949571e-06 2.3178422263338248e-07  1.5184339786529299e-01 3.9505290558224281e-07 2.5240075197461329e-06  1.5127877167622975e-01 3.4844866327428420e-06 5.6204412631650684e-07  1.5272178904903544e-01 1.2243873288016129e-07 1.4199293015019225e-06  1.5153185967799035e-01 1.6252776501596339e-06 1.5780374661353384e-07  1.5207030685306161e-01 7.4542714472285515e-07 7.2299847753281719e-08  1.5043320997678250e-01 1.8411213447691178e-08 4.7446319988029277e-08  1.5057096965213582e-01 1.7831175752180479e-06 6.4469448261901969e-08  1.4942517004187256e-01 7.6363862027431278e-08 7.0525249320554306e-08  1.4982987559319244e-01 5.7947296135091610e-07 5.7231584520794374e-10  1.4945539606498665e-01 8.3847625474330589e-08 1.0086002887674029e-09  1.4988470504582335e-01 4.1640894434399735e-10 4.1673551055263281e-08  1.4954808851236134e-01 2.2354232521629126e-07 1.1756336917348568e-09  1.4950490462835564e-01 2.2090231388046704e-10 1.3256177992316724e-09  1.4921148683771707e-01 7.0595377569200705e-09 5.0663933712008145e-08  1.4915799439747399e-01 4.4701842678720028e-11 1.7189986297188397e-09  1.4934589291023598e-01 1.2378291654916084e-07 5.8591436866484885e-09  1.4967356620520603e-01 3.6452481951414026e-07 7.6214210680523718e-08  1.5000829180618622e-01 7.2296073913095594e-07 1.6992049998944505e-09  1.4999482408240816e-01 5.2853905668269851e-07 1.2646146708322168e-08  1.4991882020883160e-01 9.5998497275999849e-08 9.0959062167960348e-08  1.4949357976756664e-01 5.6587885006481101e-09 6.9968731330356653e-08  1.4934654598029951e-01 6.2956989645298511e-08 1.6703251793731240e-07  1.4943402835757086e-01 3.3701253120502318e-08 1.1361731961118640e-08  1.4977182661047375e-01 5.1456551399824039e-09 9.4892010751016793e-09  1.4992478874870277e-01 7.0681062610780009e-08 3.3706487321586130e-10  1.5007341120571038e-01 1.9329366220149280e-09 1.4488747806496138e-08  1.4987699218669184e-01 2.8810141678198618e-08 4.2842875684994299e-09  1.4982724619577553e-01 2.0309722665988782e-08 2.2377979594980686e-11  1.5014061049891375e-01 5.7202670119680511e-09 4.3437816453344020e-08  1.5034722949929782e-01 4.9937953402315181e-09 1.0518083968003554e-08  1.5005454016825373e-01 8.2882311591385811e-11 7.1374991952107450e-09  1.4994695020267407e-01 1.6830750069868346e-08 3.7137175123274200e-08  1.4987505804944598e-01 9.8855454582898084e-08 2.6063028064522208e-08  1.4965527703259840e-01 6.4526346684174560e-09 5.8750581789144813e-09  1.4991162865170352e-01 6.1033593284534125e-08 5.1263695771057474e-08  1.5032201116634777e-01 3.3214031535008795e-08 1.3677829472485534e-07  1.4984743856656738e-01 1.0868791269985602e-09 4.2596870156009333e-08  1.4933101591051912e-01 2.9940226142595374e-09 3.7747435419788473e-08  1.4956776359436461e-01 7.0974071639756695e-09 1.5898188065151215e-07  1.4973619910146016e-01 3.8179545516624525e-08 5.7736822392922781e-08  1.4958264567427026e-01 7.2684083171321838e-08 4.1934261951345840e-08  1.4961913638232191e-01 7.6386594868127394e-08 2.2139382403071651e-07  1.4977726754781101e-01 1.4874463375172103e-07 2.4272082988245998e-07  1.5039461540670510e-01 9.9882966870640514e-08 2.3316229564444113e-07  1.5119387729772418e-01 4.8646849018544443e-08 5.1543659694025957e-07  1.5110581765174930e-01 1.9811801313251589e-07 1.2020730209632428e-06  1.5102057038058334e-01 1.2486556089186167e-08 1.1325544205229920e-06  1.5208385290713347e-01 1.8767435193163451e-07 7.0617256962686455e-07  1.5232276786721735e-01 5.8029323937885658e-09 1.3359889543845942e-06  1.5147005479148859e-01 8.6198765362936688e-08 2.1437236218992652e-06  1.5184588894372184e-01 3.4937772262424080e-08 1.1456757127266108e-06  1.5241709944512960e-01 1.7733323743489735e-08 7.9943242911595079e-07  1.5139821155016522e-01 4.7894703572864867e-08 1.3672131647331762e-06  1.5100975103269204e-01 3.3734723240385761e-09 7.4319620801720254e-07  1.5140197614269585e-01 4.6460620350876403e-08 1.4759154431356493e-07  1.5035959143736013e-01 8.7350685144202864e-09 2.5124952628542348e-07  1.4955732343766182e-01 6.7278021036167148e-12 6.2941459315874923e-08  1.5000209940048637e-01 7.5393397024964459e-08 4.7011164791842989e-08  1.4949351779432282e-01 9.7771145522447867e-11 6.8446707893175633e-09  1.4896647572802169e-01 3.8959703486126602e-08 1.2487972642628267e-08  1.4994830870260220e-01 2.6531415465277773e-08 2.4332006168289516e-07  1.5013783097381023e-01 3.3772661006321259e-09 3.7442050243542805e-08  1.4968737895925652e-01 4.1544655366096532e-08 1.8540690828055909e-09  1.5019416581724573e-01 3.3463903294082835e-09 1.3527996158986806e-08  1.5030817606904412e-01 3.0404410342570131e-08 2.2920605162067539e-09  1.4970460871858102e-01 3.0847653705749736e-08 4.0350927323160568e-08  1.5001378617444505e-01 1.5235603156558052e-10 8.3600362694109123e-09  1.5017587668922305e-01 1.4745848683768660e-08 1.5549271130906453e-09  1.4985600527640844e-01 4.4435936543630447e-09 4.0349364947510219e-09  1.4998265326842361e-01 2.5266683183273017e-09 1.6719014256185839e-09  1.5013036928964402e-01 1.1382936747744395e-08 1.5747101541093994e-10  1.4988387686784221e-01 4.4498609660154852e-09 3.0635501235564212e-09  1.5001943286867320e-01 1.8620628324951769e-10 2.8261022436722130e-09  1.5006350682929670e-01 3.4070742775349529e-09 2.2067980561057736e-10  1.4992952527649478e-01 1.5836009828682444e-09 5.3432896108907734e-10  1.5001525792372664e-01 1.0917137292488393e-10 9.2565222715082943e-10  1.5004022741058848e-01 1.6244801103608210e-09 4.7203767429187054e-11  1.4995206605197209e-01 6.4036832694553936e-10 4.9965649354225083e-10  1.5001094311236365e-01 2.5756656405599519e-10 1.0511994010737769e-09  1.5003164247832448e-01 2.1824760639329087e-09 3.7255241578429081e-10  1.4995370835935506e-01 2.1543237588274399e-09 3.5476078268967946e-12  1.5003131526864355e-01 6.1554965557096423e-10 1.9588992886890708e-10  1.4999201363028400e-01 2.9718116070757631e-11 1.2898912394627330e-10  1.4999743589380163e-01 1.0791923865243352e-11 1.1141138740248330e-12  1.4999820814266440e-01 1.8785375942575248e-10 5.8296321411637666e-11  1.5001330281783595e-01 6.0361938820680799e-10 6.9328605868313730e-11  1.4998293873846885e-01 5.7063875373019343e-10 1.9112163978164785e-11  1.5001674821095079e-01 2.6328612002029654e-10 8.9656622765685623e-12  1.4999517156957790e-01 1.8229662092072578e-12 2.3799394850836977e-11  1.5000494892331220e-01 8.3936972289650794e-12 6.4627765100347047e-11  1.5001047603071557e-01 1.9136599262787700e-10 3.7920758705519643e-13  1.5000547262810071e-01 8.9307929314869893e-12 7.2669900069045100e-12  1.5002034824442945e-01 3.3512289432392481e-10 1.2922040100482191e-10  1.5001695223824976e-01 1.2798993771615360e-11 9.7463994972786334e-12  1.5002955247710645e-01 4.7254383000003899e-10 3.7458468052455759e-10  1.5003097830726456e-01 1.2022479069008867e-10 1.3686486577142686e-11  1.5003773165914452e-01 2.2836439023725263e-10 2.2836439023130533e-10  1.5003612858947371e-01 0.0000000000000000e+00 8.3894035731039342e-12  1.5004078608920657e-01 0.0000000000000000e+00 8.7964925640547649e-08  1.5002805450366255e-01 2.3178422263331493e-07 2.2265617894963560e-06  1.4995410798342343e-01 8.3519793236251060e-07 8.3519793236349294e-07  1.4872234055386227e-01 3.1225826960531347e-06 5.2859571758177096e-06  1.4865799163180474e-01 5.2632517253700776e-07 2.1127597623932764e-06  1.4813130034142871e-01 3.4682019566897936e-06 5.5356594984044384e-06  1.4797026050613360e-01 3.2121358895651576e-07 9.8283504098899671e-07  1.4858707080028169e-01 8.1369273942992953e-07 1.5584877148074273e-06  1.4873735318598058e-01 1.0051659577914932e-06 2.3573387399723586e-08  1.4981257095816952e-01 5.4887316394415381e-08 1.0914578651724423e-09  1.4989926697393444e-01 1.2594510882279069e-06 3.7425861325879606e-07  1.5046460803860662e-01 1.5162046517909370e-07 5.8752371444508895e-09  1.5026317243887385e-01 9.6058310448093173e-08 8.5729056673220494e-09  1.5024454104148702e-01 1.9424060905354595e-08 8.5336987671872672e-08  1.5025761517057032e-01 9.6296597973119134e-08 4.7215513324276430e-08  1.5033058042139757e-01 1.9221338286058060e-08 1.0804077345992915e-09  1.5072946428550490e-01 2.9378562704122919e-08 5.5082771846254126e-09  1.5064792141830069e-01 2.5100983107246222e-08 7.2015394347634564e-08  1.5090624460116966e-01 9.7582885648372474e-08 1.6829691462655979e-10  1.5030903493126280e-01 8.1929275733052445e-08 3.4536041183387751e-10  1.5028699463668987e-01 7.5722175365544209e-07 1.6951862260567319e-07  1.4985675311480934e-01 4.5720801799914514e-07 5.2364118988849766e-09  1.5019803923374789e-01 4.3990702526750299e-07 1.5758312765560538e-10  1.5020629512627043e-01 7.4293584235583931e-11 3.1754974117046649e-07  1.5076368881577620e-01 4.6584456005874562e-09 3.1961258655565176e-07  1.5058303491418562e-01 8.8418070145456991e-08 4.1458172578963631e-07  1.5050056177434556e-01 2.4864525076086448e-11 4.1113220262179398e-08  1.5011592678979027e-01 2.5863216676073350e-08 3.1174374297490424e-08  1.5006438967732935e-01 7.4418774027485875e-08 1.0221467824749862e-09  1.4993506149840502e-01 1.0451560083388017e-08 3.9468165920788575e-08  1.5023200252007712e-01 1.1969698180998047e-08 9.1469243880005374e-09  1.5002847025942431e-01 1.1132615579682429e-08 1.6715820535460696e-08  1.4974643203538962e-01 8.1668789053775366e-09 1.7725413661077986e-07  1.4981935977219718e-01 3.7340346907063975e-09 4.4631768929019741e-09  1.5009347255819025e-01 4.1047031369072669e-11 8.2386509355276377e-08  1.4995074618517160e-01 6.6332354077682148e-08 1.9737856372218210e-07  1.4999980350711070e-01 7.1392502000749667e-08 2.4761767537838431e-07  1.4989252088825353e-01 1.7168989308074565e-08 4.7678170502363541e-08  1.4939857420765756e-01 1.0186259309115249e-07 2.2206667044274131e-07  1.4965414625364340e-01 1.3386318212853654e-08 3.4567311032253114e-07  1.5089668651365365e-01 2.5768263932995125e-09 1.6526961059256023e-07  1.5164323559626627e-01 3.4852817903863348e-09 8.4106603350747259e-07  1.5198957056890172e-01 7.4534431734441072e-09 2.6176712434174847e-06  1.5260257365553431e-01 1.9746797472732723e-09 2.7334512453469479e-06  1.5274800422856102e-01 6.0512551591171723e-08 2.6190724569111636e-06  1.5228893703976018e-01 5.8792201367843150e-07 3.4636408917733177e-06  1.5137905649370823e-01 1.3848575884188990e-07 4.2546166000683945e-06  1.4983358848809755e-01 8.8059880394913452e-09 3.6285255835925519e-06  1.4850678961766436e-01 1.2936088839035930e-07 1.0983933677959724e-06  1.4797259889583120e-01 3.1203149852943996e-07 4.6123107676775192e-10  1.4672384888828471e-01 3.5364065933917195e-08 7.4320110471135536e-08  1.4533173138215291e-01 4.2935986594645885e-08 3.9673468406457459e-07  1.4557803070208450e-01 9.1577647822520017e-08 3.0538270445745019e-06  1.4593953228632447e-01 2.3680494733373464e-09 3.3310488425003833e-06  1.4528385830185803e-01 1.1809681918428076e-07 5.0954372723584242e-07  1.4611910714747561e-01 8.0798480716876553e-11 2.1269693702462939e-07  1.4786774018559595e-01 4.3381348173645928e-10 3.8230326438803941e-10  1.4840055319209483e-01 2.3798831735331937e-07 2.8706511956426240e-06  1.4963182521714941e-01 1.9110600827298063e-07 6.2081590177481503e-06  1.5188100337558799e-01 6.7840136427379203e-08 5.8562962707398896e-06  1.5240536703202637e-01 3.2821367580390006e-07 9.3087409274495460e-06  1.5243119798371255e-01 2.4907250843968002e-07 7.3026273618756659e-06  1.5299611234436591e-01 1.4884491060931730e-09 1.7496795103156849e-06  1.5180559441032232e-01 4.8108117186910951e-10 1.0332164466731439e-06  1.5007313376703071e-01 9.0150546009514852e-09 4.3343947947306140e-07  1.4985785936159457e-01 5.1659910176879887e-08 1.1617474274371770e-07  1.4959309539371796e-01 2.7453275844288858e-08 6.7570769414994938e-08  1.4927991901802443e-01 4.1943756490140224e-08 2.3223348417593287e-10  1.5006860419970944e-01 6.6995375433902047e-10 1.3845107749271350e-07  1.5030912096210949e-01 2.0663673284787678e-08 1.0003709106885167e-08  1.4985185445501240e-01 1.1902044203969369e-08 6.6063301253515063e-08  1.5000058057620069e-01 1.6615119332135767e-09 2.0421064744475528e-09  1.5011789202780976e-01 1.0546273476103229e-08 2.3948718394754926e-09  1.4988609124889934e-01 3.1311192891780627e-09 7.4250442119633680e-09  1.5001500666767922e-01 7.0898834403890311e-10 5.4389766655445186e-09  1.5006874320228286e-01 5.1360602078015041e-09 4.0863725507744120e-11  1.4991913019497649e-01 3.0656367534389918e-09 3.0088420947570025e-09  1.5003606711597511e-01 1.1814333881821118e-10 3.9213652718327116e-09  1.5001272830282270e-01 1.7612880017589047e-10 4.7632981998291952e-10  1.4997741976772427e-01 1.1168722726736458e-11 6.5504607916309261e-10  1.4999190049111194e-01 1.8772683329098087e-09 1.5885668170926420e-09  1.5004847334041171e-01 5.5154739650507082e-09 2.1462238567291350e-10  1.4993134514