<?xml version="1.0"?>
<VTKFile type="UnstructuredGrid"  version="0.1"  >
<UnstructuredGrid>
<Piece  NumberOfPoints="10201" NumberOfCells="20000">
<Points>
<DataArray  type="Float64"  NumberOfComponents="3"  format="ascii">-5 -5 0  -4.9 -5 0  -4.8 -5 0  -4.7 -5 0  -4.6 -5 0  -4.5 -5 0  -4.4 -5 0  -4.3 -5 0  -4.2 -5 0  -4.1 -5 0  -4 -5 0  -3.9 -5 0  -3.8 -5 0  -3.7 -5 0  -3.6 -5 0  -3.5 -5 0  -3.4 -5 0  -3.3 -5 0  -3.2 -5 0  -3.1 -5 0  -3 -5 0  -2.9 -5 0  -2.8 -5 0  -2.7 -5 0  -2.6 -5 0  -2.5 -5 0  -2.4 -5 0  -2.3 -5 0  -2.2 -5 0  -2.1 -5 0  -2 -5 0  -1.9 -5 0  -1.8 -5 0  -1.7 -5 0  -1.6 -5 0  -1.5 -5 0  -1.4 -5 0  -1.3 -5 0  -1.2 -5 0  -1.1 -5 0  -1 -5 0  -0.9000000000000004 -5 0  -0.7999999999999998 -5 0  -0.7000000000000002 -5 0  -0.5999999999999996 -5 0  -0.5 -5 0  -0.4000000000000004 -5 0  -0.2999999999999998 -5 0  -0.2000000000000002 -5 0  -0.09999999999999964 -5 0  0 -5 0  0.09999999999999964 -5 0  0.2000000000000002 -5 0  0.2999999999999998 -5 0  0.4000000000000004 -5 0  0.5 -5 0  0.5999999999999996 -5 0  0.7000000000000002 -5 0  0.7999999999999998 -5 0  0.9000000000000004 -5 0  1 -5 0  1.1 -5 0  1.2 -5 0  1.3 -5 0  1.4 -5 0  1.5 -5 0  1.6 -5 0  1.7 -5 0  1.8 -5 0  1.9 -5 0  2 -5 0  2.1 -5 0  2.2 -5 0  2.3 -5 0  2.4 -5 0  2.5 -5 0  2.6 -5 0  2.7 -5 0  2.8 -5 0  2.9 -5 0  3 -5 0  3.1 -5 0  3.199999999999999 -5 0  3.300000000000001 -5 0  3.4 -5 0  3.5 -5 0  3.6 -5 0  3.699999999999999 -5 0  3.800000000000001 -5 0  3.9 -5 0  4 -5 0  4.1 -5 0  4.199999999999999 -5 0  4.300000000000001 -5 0  4.4 -5 0  4.5 -5 0  4.6 -5 0  4.699999999999999 -5 0  4.800000000000001 -5 0  4.9 -5 0  5 -5 0  -5 -4.9 0  -4.9 -4.9 0  -4.8 -4.9 0  -4.7 -4.9 0  -4.6 -4.9 0  -4.5 -4.9 0  -4.4 -4.9 0  -4.3 -4.9 0  -4.2 -4.9 0  -4.1 -4.9 0  -4 -4.9 0  -3.9 -4.9 0  -3.8 -4.9 0  -3.7 -4.9 0  -3.6 -4.9 0  -3.5 -4.9 0  -3.4 -4.9 0  -3.3 -4.9 0  -3.2 -4.9 0  -3.1 -4.9 0  -3 -4.9 0  -2.9 -4.9 0  -2.8 -4.9 0  -2.7 -4.9 0  -2.6 -4.9 0  -2.5 -4.9 0  -2.4 -4.9 0  -2.3 -4.9 0  -2.2 -4.9 0  -2.1 -4.9 0  -2 -4.9 0  -1.9 -4.9 0  -1.8 -4.9 0  -1.7 -4.9 0  -1.6 -4.9 0  -1.5 -4.9 0  -1.4 -4.9 0  -1.3 -4.9 0  -1.2 -4.9 0  -1.1 -4.9 0  -1 -4.9 0  -0.9000000000000004 -4.9 0  -0.7999999999999998 -4.9 0  -0.7000000000000002 -4.9 0  -0.5999999999999996 -4.9 0  -0.5 -4.9 0  -0.4000000000000004 -4.9 0  -0.2999999999999998 -4.9 0  -0.2000000000000002 -4.9 0  -0.09999999999999964 -4.9 0  0 -4.9 0  0.09999999999999964 -4.9 0  0.2000000000000002 -4.9 0  0.2999999999999998 -4.9 0  0.4000000000000004 -4.9 0  0.5 -4.9 0  0.5999999999999996 -4.9 0  0.7000000000000002 -4.9 0  0.7999999999999998 -4.9 0  0.9000000000000004 -4.9 0  1 -4.9 0  1.1 -4.9 0  1.2 -4.9 0  1.3 -4.9 0  1.4 -4.9 0  1.5 -4.9 0  1.6 -4.9 0  1.7 -4.9 0  1.8 -4.9 0  1.9 -4.9 0  2 -4.9 0  2.1 -4.9 0  2.2 -4.9 0  2.3 -4.9 0  2.4 -4.9 0  2.5 -4.9 0  2.6 -4.9 0  2.7 -4.9 0  2.8 -4.9 0  2.9 -4.9 0  3 -4.9 0  3.1 -4.9 0  3.199999999999999 -4.9 0  3.300000000000001 -4.9 0  3.4 -4.9 0  3.5 -4.9 0  3.6 -4.9 0  3.699999999999999 -4.9 0  3.800000000000001 -4.9 0  3.9 -4.9 0  4 -4.9 0  4.1 -4.9 0  4.199999999999999 -4.9 0  4.300000000000001 -4.9 0  4.4 -4.9 0  4.5 -4.9 0  4.6 -4.9 0  4.699999999999999 -4.9 0  4.800000000000001 -4.9 0  4.9 -4.9 0  5 -4.9 0  -5 -4.8 0  -4.9 -4.8 0  -4.8 -4.8 0  -4.7 -4.8 0  -4.6 -4.8 0  -4.5 -4.8 0  -4.4 -4.8 0  -4.3 -4.8 0  -4.2 -4.8 0  -4.1 -4.8 0  -4 -4.8 0  -3.9 -4.8 0  -3.8 -4.8 0  -3.7 -4.8 0  -3.6 -4.8 0  -3.5 -4.8 0  -3.4 -4.8 0  -3.3 -4.8 0  -3.2 -4.8 0  -3.1 -4.8 0  -3 -4.8 0  -2.9 -4.8 0  -2.8 -4.8 0  -2.7 -4.8 0  -2.6 -4.8 0  -2.5 -4.8 0  -2.4 -4.8 0  -2.3 -4.8 0  -2.2 -4.8 0  -2.1 -4.8 0  -2 -4.8 0  -1.9 -4.8 0  -1.8 -4.8 0  -1.7 -4.8 0  -1.6 -4.8 0  -1.5 -4.8 0  -1.4 -4.8 0  -1.3 -4.8 0  -1.2 -4.8 0  -1.1 -4.8 0  -1 -4.8 0  -0.9000000000000004 -4.8 0  -0.7999999999999998 -4.8 0  -0.7000000000000002 -4.8 0  -0.5999999999999996 -4.8 0  -0.5 -4.8 0  -0.4000000000000004 -4.8 0  -0.2999999999999998 -4.8 0  -0.2000000000000002 -4.8 0  -0.09999999999999964 -4.8 0  0 -4.8 0  0.09999999999999964 -4.8 0  0.2000000000000002 -4.8 0  0.2999999999999998 -4.8 0  0.4000000000000004 -4.8 0  0.5 -4.8 0  0.5999999999999996 -4.8 0  0.7000000000000002 -4.8 0  0.7999999999999998 -4.8 0  0.9000000000000004 -4.8 0  1 -4.8 0  1.1 -4.8 0  1.2 -4.8 0  1.3 -4.8 0  1.4 -4.8 0  1.5 -4.8 0  1.6 -4.8 0  1.7 -4.8 0  1.8 -4.8 0  1.9 -4.8 0  2 -4.8 0  2.1 -4.8 0  2.2 -4.8 0  2.3 -4.8 0  2.4 -4.8 0  2.5 -4.8 0  2.6 -4.8 0  2.7 -4.8 0  2.8 -4.8 0  2.9 -4.8 0  3 -4.8 0  3.1 -4.8 0  3.199999999999999 -4.8 0  3.300000000000001 -4.8 0  3.4 -4.8 0  3.5 -4.8 0  3.6 -4.8 0  3.699999999999999 -4.8 0  3.800000000000001 -4.8 0  3.9 -4.8 0  4 -4.8 0  4.1 -4.8 0  4.199999999999999 -4.8 0  4.300000000000001 -4.8 0  4.4 -4.8 0  4.5 -4.8 0  4.6 -4.8 0  4.699999999999999 -4.8 0  4.800000000000001 -4.8 0  4.9 -4.8 0  5 -4.8 0  -5 -4.7 0  -4.9 -4.7 0  -4.8 -4.7 0  -4.7 -4.7 0  -4.6 -4.7 0  -4.5 -4.7 0  -4.4 -4.7 0  -4.3 -4.7 0  -4.2 -4.7 0  -4.1 -4.7 0  -4 -4.7 0  -3.9 -4.7 0  -3.8 -4.7 0  -3.7 -4.7 0  -3.6 -4.7 0  -3.5 -4.7 0  -3.4 -4.7 0  -3.3 -4.7 0  -3.2 -4.7 0  -3.1 -4.7 0  -3 -4.7 0  -2.9 -4.7 0  -2.8 -4.7 0  -2.7 -4.7 0  -2.6 -4.7 0  -2.5 -4.7 0  -2.4 -4.7 0  -2.3 -4.7 0  -2.2 -4.7 0  -2.1 -4.7 0  -2 -4.7 0  -1.9 -4.7 0  -1.8 -4.7 0  -1.7 -4.7 0  -1.6 -4.7 0  -1.5 -4.7 0  -1.4 -4.7 0  -1.3 -4.7 0  -1.2 -4.7 0  -1.1 -4.7 0  -1 -4.7 0  -0.9000000000000004 -4.7 0  -0.7999999999999998 -4.7 0  -0.7000000000000002 -4.7 0  -0.5999999999999996 -4.7 0  -0.5 -4.7 0  -0.4000000000000004 -4.7 0  -0.2999999999999998 -4.7 0  -0.2000000000000002 -4.7 0  -0.09999999999999964 -4.7 0  0 -4.7 0  0.09999999999999964 -4.7 0  0.2000000000000002 -4.7 0  0.2999999999999998 -4.7 0  0.4000000000000004 -4.7 0  0.5 -4.7 0  0.5999999999999996 -4.7 0  0.7000000000000002 -4.7 0  0.7999999999999998 -4.7 0  0.9000000000000004 -4.7 0  1 -4.7 0  1.1 -4.7 0  1.2 -4.7 0  1.3 -4.7 0  1.4 -4.7 0  1.5 -4.7 0  1.6 -4.7 0  1.7 -4.7 0  1.8 -4.7 0  1.9 -4.7 0  2 -4.7 0  2.1 -4.7 0  2.2 -4.7 0  2.3 -4.7 0  2.4 -4.7 0  2.5 -4.7 0  2.6 -4.7 0  2.7 -4.7 0  2.8 -4.7 0  2.9 -4.7 0  3 -4.7 0  3.1 -4.7 0  3.199999999999999 -4.7 0  3.300000000000001 -4.7 0  3.4 -4.7 0  3.5 -4.7 0  3.6 -4.7 0  3.699999999999999 -4.7 0  3.800000000000001 -4.7 0  3.9 -4.7 0  4 -4.7 0  4.1 -4.7 0  4.199999999999999 -4.7 0  4.300000000000001 -4.7 0  4.4 -4.7 0  4.5 -4.7 0  4.6 -4.7 0  4.699999999999999 -4.7 0  4.800000000000001 -4.7 0  4.9 -4.7 0  5 -4.7 0  -5 -4.6 0  -4.9 -4.6 0  -4.8 -4.6 0  -4.7 -4.6 0  -4.6 -4.6 0  -4.5 -4.6 0  -4.4 -4.6 0  -4.3 -4.6 0  -4.2 -4.6 0  -4.1 -4.6 0  -4 -4.6 0  -3.9 -4.6 0  -3.8 -4.6 0  -3.7 -4.6 0  -3.6 -4.6 0  -3.5 -4.6 0  -3.4 -4.6 0  -3.3 -4.6 0  -3.2 -4.6 0  -3.1 -4.6 0  -3 -4.6 0  -2.9 -4.6 0  -2.8 -4.6 0  -2.7 -4.6 0  -2.6 -4.6 0  -2.5 -4.6 0  -2.4 -4.6 0  -2.3 -4.6 0  -2.2 -4.6 0  -2.1 -4.6 0  -2 -4.6 0  -1.9 -4.6 0  -1.8 -4.6 0  -1.7 -4.6 0  -1.6 -4.6 0  -1.5 -4.6 0  -1.4 -4.6 0  -1.3 -4.6 0  -1.2 -4.6 0  -1.1 -4.6 0  -1 -4.6 0  -0.9000000000000004 -4.6 0  -0.7999999999999998 -4.6 0  -0.7000000000000002 -4.6 0  -0.5999999999999996 -4.6 0  -0.5 -4.6 0  -0.4000000000000004 -4.6 0  -0.2999999999999998 -4.6 0  -0.2000000000000002 -4.6 0  -0.09999999999999964 -4.6 0  0 -4.6 0  0.09999999999999964 -4.6 0  0.2000000000000002 -4.6 0  0.2999999999999998 -4.6 0  0.4000000000000004 -4.6 0  0.5 -4.6 0  0.5999999999999996 -4.6 0  0.7000000000000002 -4.6 0  0.7999999999999998 -4.6 0  0.9000000000000004 -4.6 0  1 -4.6 0  1.1 -4.6 0  1.2 -4.6 0  1.3 -4.6 0  1.4 -4.6 0  1.5 -4.6 0  1.6 -4.6 0  1.7 -4.6 0  1.8 -4.6 0  1.9 -4.6 0  2 -4.6 0  2.1 -4.6 0  2.2 -4.6 0  2.3 -4.6 0  2.4 -4.6 0  2.5 -4.6 0  2.6 -4.6 0  2.7 -4.6 0  2.8 -4.6 0  2.9 -4.6 0  3 -4.6 0  3.1 -4.6 0  3.199999999999999 -4.6 0  3.300000000000001 -4.6 0  3.4 -4.6 0  3.5 -4.6 0  3.6 -4.6 0  3.699999999999999 -4.6 0  3.800000000000001 -4.6 0  3.9 -4.6 0  4 -4.6 0  4.1 -4.6 0  4.199999999999999 -4.6 0  4.300000000000001 -4.6 0  4.4 -4.6 0  4.5 -4.6 0  4.6 -4.6 0  4.699999999999999 -4.6 0  4.800000000000001 -4.6 0  4.9 -4.6 0  5 -4.6 0  -5 -4.5 0  -4.9 -4.5 0  -4.8 -4.5 0  -4.7 -4.5 0  -4.6 -4.5 0  -4.5 -4.5 0  -4.4 -4.5 0  -4.3 -4.5 0  -4.2 -4.5 0  -4.1 -4.5 0  -4 -4.5 0  -3.9 -4.5 0  -3.8 -4.5 0  -3.7 -4.5 0  -3.6 -4.5 0  -3.5 -4.5 0  -3.4 -4.5 0  -3.3 -4.5 0  -3.2 -4.5 0  -3.1 -4.5 0  -3 -4.5 0  -2.9 -4.5 0  -2.8 -4.5 0  -2.7 -4.5 0  -2.6 -4.5 0  -2.5 -4.5 0  -2.4 -4.5 0  -2.3 -4.5 0  -2.2 -4.5 0  -2.1 -4.5 0  -2 -4.5 0  -1.9 -4.5 0  -1.8 -4.5 0  -1.7 -4.5 0  -1.6 -4.5 0  -1.5 -4.5 0  -1.4 -4.5 0  -1.3 -4.5 0  -1.2 -4.5 0  -1.1 -4.5 0  -1 -4.5 0  -0.9000000000000004 -4.5 0  -0.7999999999999998 -4.5 0  -0.7000000000000002 -4.5 0  -0.5999999999999996 -4.5 0  -0.5 -4.5 0  -0.4000000000000004 -4.5 0  -0.2999999999999998 -4.5 0  -0.2000000000000002 -4.5 0  -0.09999999999999964 -4.5 0  0 -4.5 0  0.09999999999999964 -4.5 0  0.2000000000000002 -4.5 0  0.2999999999999998 -4.5 0  0.4000000000000004 -4.5 0  0.5 -4.5 0  0.5999999999999996 -4.5 0  0.7000000000000002 -4.5 0  0.7999999999999998 -4.5 0  0.9000000000000004 -4.5 0  1 -4.5 0  1.1 -4.5 0  1.2 -4.5 0  1.3 -4.5 0  1.4 -4.5 0  1.5 -4.5 0  1.6 -4.5 0  1.7 -4.5 0  1.8 -4.5 0  1.9 -4.5 0  2 -4.5 0  2.1 -4.5 0  2.2 -4.5 0  2.3 -4.5 0  2.4 -4.5 0  2.5 -4.5 0  2.6 -4.5 0  2.7 -4.5 0  2.8 -4.5 0  2.9 -4.5 0  3 -4.5 0  3.1 -4.5 0  3.199999999999999 -4.5 0  3.300000000000001 -4.5 0  3.4 -4.5 0  3.5 -4.5 0  3.6 -4.5 0  3.699999999999999 -4.5 0  3.800000000000001 -4.5 0  3.9 -4.5 0  4 -4.5 0  4.1 -4.5 0  4.199999999999999 -4.5 0  4.300000000000001 -4.5 0  4.4 -4.5 0  4.5 -4.5 0  4.6 -4.5 0  4.699999999999999 -4.5 0  4.800000000000001 -4.5 0  4.9 -4.5 0  5 -4.5 0  -5 -4.4 0  -4.9 -4.4 0  -4.8 -4.4 0  -4.7 -4.4 0  -4.6 -4.4 0  -4.5 -4.4 0  -4.4 -4.4 0  -4.3 -4.4 0  -4.2 -4.4 0  -4.1 -4.4 0  -4 -4.4 0  -3.9 -4.4 0  -3.8 -4.4 0  -3.7 -4.4 0  -3.6 -4.4 0  -3.5 -4.4 0  -3.4 -4.4 0  -3.3 -4.4 0  -3.2 -4.4 0  -3.1 -4.4 0  -3 -4.4 0  -2.9 -4.4 0  -2.8 -4.4 0  -2.7 -4.4 0  -2.6 -4.4 0  -2.5 -4.4 0  -2.4 -4.4 0  -2.3 -4.4 0  -2.2 -4.4 0  -2.1 -4.4 0  -2 -4.4 0  -1.9 -4.4 0  -1.8 -4.
[...]
<PointData  Vectors="f_23"> 
<DataArray  type="Float64"  Name="f_23"  NumberOfComponents="3" format="ascii">1.4999999999990163e-01 0.0000000000000000e+00 0.0000000000000000e+00  1.5000000000026709e-01 4.6240268369939210e-27 0.0000000000000000e+00  1.5000000000052774e-01 1.2961911602270804e-24 0.0000000000000000e+00  1.5000000000506719e-01 2.8550387485070384e-23 0.0000000000000000e+00  1.5000000002609626e-01 4.6282305672927368e-22 0.0000000000000000e+00  1.5000000010045175e-01 6.1479110520098924e-21 0.0000000000000000e+00  1.5000000033933844e-01 5.7257325082254513e-20 0.0000000000000000e+00  1.5000000101223757e-01 3.9569991147874437e-19 0.0000000000000000e+00  1.5000000265062319e-01 2.1415059881506177e-18 0.0000000000000000e+00  1.5000000616588513e-01 8.9030789790081396e-18 0.0000000000000000e+00  1.5000001278566061e-01 2.7689451979736615e-17 0.0000000000000000e+00  1.5000002346102315e-01 6.3473985374170023e-17 0.0000000000000000e+00  1.5000003777048301e-01 1.0275710114880375e-16 0.0000000000000000e+00  1.5000005271966768e-01 1.0279770977534380e-16 0.0000000000000000e+00  1.5000006187722809e-01 3.8121305926637117e-17 0.0000000000000000e+00  1.5000005590582546e-01 1.1769324000375512e-17 0.0000000000000000e+00  1.5000002506585963e-01 4.6899653593720577e-16 0.0000000000000000e+00  1.4999996117502906e-01 2.8618955781424801e-15 0.0000000000000000e+00  1.4999985884702932e-01 9.7589001072283783e-15 0.0000000000000000e+00  1.4999972604024958e-01 1.8749690887109209e-14 0.0000000000000000e+00  1.4999960761770498e-01 1.4901032276466495e-14 0.0000000000000000e+00  1.4999959120770923e-01 2.1816764245700253e-16 0.0000000000000000e+00  1.4999975199493018e-01 2.4620963507434626e-14 0.0000000000000000e+00  1.5000005446513009e-01 7.6824317861663256e-14 0.0000000000000000e+00  1.5000032093628365e-01 5.4508980341649511e-14 0.0000000000000000e+00  1.5000036529414856e-01 2.6064295685591583e-15 0.0000000000000000e+00  1.5000019524421104e-01 1.3158028181582607e-14 0.0000000000000000e+00  1.5000001018820727e-01 2.3579525148671938e-14 0.0000000000000000e+00  1.4999994495870456e-01 9.9674990616617968e-15 0.0000000000000000e+00  1.4999994345787077e-01 5.5376193863419985e-16 0.0000000000000000e+00  1.4999996569277985e-01 3.3599975448877698e-15 0.0000000000000000e+00  1.5000007313878799e-01 9.5534670117223894e-15 0.0000000000000000e+00  1.5000016650061354e-01 3.4847044042754973e-16 0.0000000000000000e+00  1.5000002738285684e-01 1.1509888253022810e-14 0.0000000000000000e+00  1.4999980575154462e-01 7.5715514383698216e-15 0.0000000000000000e+00  1.4999989968719360e-01 4.7475820209399666e-15 0.0000000000000000e+00  1.5000018067208712e-01 1.2008011170597233e-14 0.0000000000000000e+00  1.5000013050697572e-01 1.0469848881802870e-15 0.0000000000000000e+00  1.4999984424985696e-01 1.0959556134016212e-14 0.0000000000000000e+00  1.4999987689294841e-01 1.1796407823406596e-16 0.0000000000000000e+00  1.5000013426185538e-01 7.8132696971993987e-15 0.0000000000000000e+00  1.5000009355952471e-01 1.4444100462548393e-17 0.0000000000000000e+00  1.4999988343940537e-01 4.9082125128825850e-15 0.0000000000000000e+00  1.4999994420077242e-01 3.0850321289032729e-17 0.0000000000000000e+00  1.5000009835733261e-01 2.8049401457838774e-15 0.0000000000000000e+00  1.5000002019069419e-01 1.1285892875964705e-16 0.0000000000000000e+00  1.4999992336757928e-01 1.4065046863136057e-15 0.0000000000000000e+00  1.5000000661731697e-01 2.2896274545402734e-16 0.0000000000000000e+00  1.5000005199770586e-01 5.5641295696998799e-16 0.0000000000000000e+00  1.4999997849662278e-01 2.8744068826771639e-16 0.0000000000000000e+00  1.4999997202449070e-01 1.3600182611138016e-16 0.0000000000000000e+00  1.5000002480490185e-01 2.4033956272433607e-16 0.0000000000000000e+00  1.5000000876353292e-01 6.8632070514091764e-18 0.0000000000000000e+00  1.4999998021988664e-01 1.3148106842693207e-16 0.0000000000000000e+00  1.5000000296304344e-01 7.9360795026388203e-18 0.0000000000000000e+00  1.5000001118612857e-01 4.0610972053556521e-17 0.0000000000000000e+00  1.4999999283309465e-01 2.1939242719609372e-17 0.0000000000000000e+00  1.4999999662944186e-01 3.6224717792145947e-18 0.0000000000000000e+00  1.5000000611585454e-01 1.5387705813688080e-17 0.0000000000000000e+00  1.4999999877657416e-01 6.7316887307440910e-19 0.0000000000000000e+00  1.4999999701118363e-01 4.0340293729099180e-18 0.0000000000000000e+00  1.5000000243361911e-01 2.6504168208544635e-18 0.0000000000000000e+00  1.5000000032435701e-01 8.3468743585991989e-20 0.0000000000000000e+00  1.4999999838165354e-01 1.3516409794487217e-18 0.0000000000000000e+00  1.5000000082528170e-01 2.9776186871635171e-19 0.0000000000000000e+00  1.5000000039986033e-01 1.2053895330253774e-19 0.0000000000000000e+00  1.4999999926337509e-01 3.0582389846757249e-19 0.0000000000000000e+00  1.5000000027353605e-01 2.8863175412940576e-20 0.0000000000000000e+00  1.5000000022551152e-01 4.2516123567112993e-20 0.0000000000000000e+00  1.4999999968482916e-01 6.0965750448690620e-20 0.0000000000000000e+00  1.5000000010490760e-01 3.8243018411318705e-21 0.0000000000000000e+00  1.5000000009686398e-01 9.2394749706374936e-21 0.0000000000000000e+00  1.4999999986719492e-01 1.2108473654540438e-20 0.0000000000000000e+00  1.5000000005100836e-01 1.0340849075969932e-21 0.0000000000000000e+00  1.5000000003218633e-01 1.3554797792570812e-21 0.0000000000000000e+00  1.4999999994534108e-01 2.4035095958894510e-21 0.0000000000000000e+00  1.5000000002845323e-01 4.3483420687892137e-22 0.0000000000000000e+00  1.5000000000544431e-01 9.3574925683672482e-23 0.0000000000000000e+00  1.4999999997957272e-01 4.2008764550902174e-22 0.0000000000000000e+00  1.5000000001545910e-01 1.7500046611565752e-22 0.0000000000000000e+00  1.4999999999697655e-01 4.3604482490261389e-25 0.0000000000000000e+00  1.4999999999427360e-01 4.9251397832997486e-23 0.0000000000000000e+00  1.5000000000730235e-01 5.4525956685174245e-23 0.0000000000000000e+00  1.4999999999587618e-01 1.2004101821327447e-23 0.0000000000000000e+00  1.5000000000011396e-01 5.1621417797146336e-25 0.0000000000000000e+00  1.5000000000227606e-01 8.4180152231205965e-24 0.0000000000000000e+00  1.4999999999736804e-01 8.5420502314447449e-24 0.0000000000000000e+00  1.5000000000174052e-01 3.0528671745154543e-24 0.0000000000000000e+00  1.4999999999942848e-01 1.7516176405233537e-25 0.0000000000000000e+00  1.4999999999972685e-01 2.2117929138233112e-25 0.0000000000000000e+00  1.5000000000063760e-01 6.4910298601758411e-25 0.0000000000000000e+00  1.4999999999936509e-01 5.5852273910638219e-25 0.0000000000000000e+00  1.5000000000045602e-01 2.6486949570326924e-25 0.0000000000000000e+00  1.4999999999974917e-01 7.2793875457507798e-26 0.0000000000000000e+00  1.5000000000009436e-01 8.5702605158746303e-27 0.0000000000000000e+00  1.4999999999999686e-01 3.7029869986401949e-29 0.0000000000000000e+00  1.4999999999996741e-01 1.9751163887859033e-27 0.0000000000000000e+00  1.5000000000004107e-01 2.1602801803124560e-27 0.0000000000000000e+00  1.4999999999996458e-01 1.3740857278498981e-27 0.0000000000000000e+00  1.5000000000001815e-01 3.9265596424447994e-28 0.0000000000000000e+00  1.4999999999996433e-01 0.0000000000000000e+00 0.0000000000000000e+00  1.5000000000026703e-01 0.0000000000000000e+00 4.6909518752358912e-27  1.4999999999987401e-01 1.8617956769769265e-27 1.8573227951440885e-27  1.4999999999957372e-01 8.0814662490539597e-26 5.1867481224140142e-26  1.4999999999768310e-01 1.1623488875300985e-23 3.5065576470540379e-24  1.4999999998426411e-01 1.8586483891539656e-22 1.3696869998267382e-22  1.4999999993326599e-01 2.7751476649543046e-21 2.6359996914212859e-21  1.4999999976343817e-01 3.0677486517776558e-20 3.4216611719364528e-20  1.4999999925528457e-01 2.4075523622958317e-19 3.4301107940880996e-19  1.4999999794081709e-01 1.4494037383271810e-18 2.6398139872446370e-18  1.4999999497442085e-01 6.7964126339396573e-18 1.5772260860783876e-17  1.4999998907167780e-01 2.4015203696607507e-17 7.4063844869679279e-17  1.4999997889897410e-01 6.2503787668151274e-17 2.7113500744822106e-16  1.4999996416302977e-01 1.1655592316838489e-16 7.5816304091088114e-16  1.4999994702008249e-01 1.4182092957141062e-16 1.5738045724220337e-15  1.4999993325871386e-01 8.2280687871527888e-17 2.2874393091386204e-15  1.4999993242571316e-01 2.2272084522858097e-19 1.9863519406777834e-15  1.4999995549248962e-01 2.4799778190618376e-16 5.1547151209946652e-16  1.5000001122275453e-01 1.8965222077628704e-15 4.6507885434562190e-16  1.5000010476352746e-01 7.4363700593468529e-15 7.7176097406228613e-15  1.5000023350826291e-01 1.7637019123447443e-14 2.8648465621568506e-14  1.5000036882422554e-01 2.0944923541973705e-14 5.8020111252287184e-14  1.5000043720534684e-01 5.1165198856516841e-15 6.2961622589802372e-14  1.5000034723482203e-01 8.5619143510086702e-15 2.1924774577507911e-14  1.5000007928385273e-01 6.6780171494029085e-14 2.7860804006078686e-15  1.4999976130050577e-01 8.3131963894907314e-14 5.6081473698892101e-14  1.4999960611544194e-01 1.9577717976224550e-14 7.2010485703957202e-14  1.4999970703502100e-01 3.7803263940529515e-15 1.8860768853277247e-14  1.4999991967226231e-01 2.5104246731879571e-14 1.8435807599918592e-16  1.5000003997986855e-01 1.7728374191840717e-14 3.8467635385951756e-15  1.5000005311811968e-01 3.8061694416665185e-15 1.7425274636160974e-15  1.5000004538734141e-01 6.4511971621997957e-16 2.9838498407375618e-16  1.4999997907100085e-01 1.0068854091168148e-14 2.1600453677987555e-15  1.4999984887709611e-01 4.4572978149755939e-15 1.5192679194384254e-14  1.4999987933731329e-01 5.5177436385279640e-15 2.4958919189567800e-15  1.5000012744585256e-01 1.5490249311627470e-14 1.8431984697376507e-14  1.5000019684407165e-01 2.0152452867752046e-16 1.4207270427813053e-14  1.4999991573894855e-01 1.5561373478764922e-14 1.3258649528449824e-14  1.4999978066938000e-01 6.1918602933760704e-16 2.1843613067323117e-14  1.5000005373045033e-01 1.0640837353459643e-14 8.4893405886027324e-15  1.5000020407492218e-01 1.6016270586857079e-15 2.0284313872921001e-14  1.4999995436229638e-01 6.2167041322311064e-15 6.3386769223968328e-15  1.4999983074301892e-01 1.4977123061571381e-15 1.3665982767200499e-14  1.5000005225171101e-01 3.5622751399444627e-15 5.7011345462227821e-15  1.5000012609882529e-01 8.6879410892049435e-16 6.7783418743792920e-15  1.4999993816485810e-01 2.1347234886690838e-15 5.2975550560558392e-15  1.4999991834624554e-01 3.2328297753233413e-16 2.1850374490200992e-15  1.5000006524217149e-01 1.3152250228270848e-15 4.2977393890546792e-15  1.5000004138149406e-01 5.2188191302013417e-17 2.5684737938948654e-16  1.4999994123773555e-01 7.6667334143108557e-16 2.6991640930497878e-15  1.4999998998635086e-01 1.5648042726338041e-18 3.2515820444907434e-17  1.5000004394846864e-01 3.7439652745071657e-16 1.1636350907678871e-15  1.4999999060780264e-01 4.3460698265976999e-17 2.7668593015189611e-16  1.4999997433693535e-01 1.2804082812369804e-16 2.6788749194730153e-16  1.5000001671601135e-01 7.2695271925503335e-17 3.1778997723634877e-16  1.5000000939769048e-01 1.9695108515178977e-17 8.2158484290955849e-18  1.4999998508022577e-01 5.6639365020845536e-17 1.6299752928577306e-16  1.5000000112718218e-01 1.0067454218619648e-19 1.8487202317699993e-17  1.5000000872647309e-01 2.2887002017559594e-17 3.4122686334408878e-17  1.4999999484108018e-01 6.3121962566806882e-18 3.2395744289803789e-17  1.4999999743358494e-01 3.2164431690219472e-18 2.5356552288245990e-19  1.5000000451636353e-01 6.4542447384357598e-18 1.3872098343199855e-17  1.4999999896017421e-01 7.5356652778272687e-20 3.4199203570651353e-18  1.4999999794362137e-01 2.0211780218951449e-18 1.2273534148659873e-18  1.5000000185473836e-01 1.0275108782338769e-18 3.1322156223791087e-18  1.5000000003708142e-01 5.9893288676929010e-20 2.2532853641418909e-19  1.4999999890676460e-01 5.9209210316778382e-19 5.1262561463355918e-19  1.5000000070045361e-01 1.2775892948532605e-19 5.6713923880425526e-19  1.5000000014698997e-01 4.7400095750173604e-20 1.1927857907816358e-20  1.4999999950160314e-01 1.3198291528250336e-19 1.2304470909548344e-19  1.5000000027310800e-01 1.7290512000354909e-20 9.9860619813237219e-20  1.5000000007902603e-01 1.3514289505749505e-20 1.4132573156578916e-21  1.4999999978861006e-01 2.7006143377374255e-20 2.1984158764708266e-20  1.5000000011853545e-01 3.5696661399799809e-21 1.8664532643742972e-20  1.5000000002361277e-01 2.2585648668515852e-21 7.1582470344306552e-22  1.4999999991566657e-01 5.3396942961150109e-21 2.8930386887690701e-21  1.5000000005653749e-01 1.1340986005834718e-21 3.5754302897399802e-21  1.4999999999854957e-01 1.6986954645300599e-22 4.6462116506068263e-22  1.4999999997031543e-01 9.3668040446604285e-22 1.9702125655122415e-22  1.5000000002697347e-01 3.9709763168278513e-22 5.9798862720548769e-22  1.4999999999192171e-01 5.4114530545726143e-25 2.1641019581237215e-22  1.4999999999262353e-01 1.1662463400515275e-22 9.7470069429515172e-26  1.5000000001149982e-01 1.1925538985334885e-22 6.2257342050935872e-23  1.4999999999285990e-01 2.1274867347883123e-23 6.4521921634171336e-23  1.5000000000071315e-01 2.9260366052483472e-24 1.4355889431639179e-23  1.5000000000336264e-01 2.1666605547593767e-23 3.1012851462606073e-25  1.4999999999589364e-01 1.8015602770127167e-23 7.7405297971283910e-24  1.5000000000272698e-01 4.7916224569101469e-24 8.0191118448742932e-24  1.4999999999914967e-01 2.3061352807378035e-26 2.9518629322470339e-24  1.4999999999950547e-01 1.0752797111211546e-24 2.1565517566451883e-25  1.5000000000104205e-01 1.7722353461302934e-24 1.3595692957853395e-25  1.4999999999900632e-01 1.1477241121189592e-24 4.7171120197863773e-25  1.5000000000067581e-01 3.9906026801352092e-25 4.1327800572286716e-25  1.4999999999966476e-01 6.2343170976391041e-26 1.9498004077282869e-25  1.5000000000009242e-01 1.4962309569668211e-28 5.2907538156490777e-26  1.5000000000003599e-01 8.4561646280098161e-27 5.7839308366692029e-27  1.4999999999992042e-01 1.2246147409293952e-26 7.6471927211513018e-29  1.5000000000007488e-01 7.8271066760653265e-27 1.5585267522702324e-27  1.4999999999994337e-01 3.2761159071431235e-27 1.9456821192035102e-27  1.5000000000003444e-01 1.1235232081151377e-27 1.1220713785596565e-27  1.4999999999998814e-01 2.3274858830799494e-28 2.4086555547143116e-28  1.5000000000001909e-01 0.0000000000000000e+00 3.9339724619762517e-28  1.5000000000052721e-01 0.0000000000000000e+00 1.2987478024687068e-24  1.4999999999957375e-01 5.1903607381716230e-26 8.0896577985105012e-26  1.5000000000049604e-01 1.7179169446591165e-26 1.7151924912432388e-26  1.5000000000127051e-01 3.2141905391865826e-24 1.1817755594818066e-24  1.5000000000897273e-01 1.0886777675692272e-22 8.0689132235426300e-23  1.5000000004792663e-01 1.5414941353912839e-21 2.3725167530207626e-21  1.5000000018188872e-01 2.0581248578852460e-20 3.7672411543793348e-20  1.5000000060731805e-01 1.9202865891642983e-19 4.4172177395571004e-19  1.5000000179620643e-01 1.3145757834645296e-18 4.0190727760557070e-18  1.5000000466409077e-01 7.0122437320629132e-18 2.8011028621920430e-17  1.5000001073517638e-01 2.8691696796037193e-17 1.5236636974899660e-16  1.5000002198902876e-01 8.6673252662401949e-17 6.5021405291209603e-16  1.5000003973522183e-01 1.8802762309917267e-16 2.1401500195312721e-15  1.5000006261067056e-01 2.7458366801899918e-16 5.2998731938006641e-15  1.5000008465657713e-01 2.1730392314518311e-16 9.5097080946248477e-15  1.5000009445603676e-01 2.7779949606521568e-17 1.1317900028565802e-14  1.5000007726476794e-01 1.7118402001296759e-16 6.8273642756600026e-15  1.5000002123302886e-01 1.7362689184893362e-15 2.2741532232612185e-16  1.4999992226525760e-01 7.1182055335355627e-15 9.3354406265463117e-15  1.4999978362718572e-01 1.9325826641715506e-14 5.9905232137905830e-14  1.4999962408024400e-01 3.1358402059037753e-14 1.6524435160079474e-13  1.4999950321918573e-01 1.9483607006680611e-14 2.6542653515927650e-13  1.4999952420650189e-01 2.8168296201356025e-16 2.0948555740954049e-13  1.4999976029336573e-01 5.7771299863078103e-14 2.6795089208611213e-14  1.5000014004700934e-01 1.3748801704480649e-13 6.8201988743813651e-14  1.5000043280995970e-01 7.6043161877750751e-14 2.9080783516512027e-13  1.5000043353732440e-01 5.2753223559273185e-16 2.1470280632927551e-13  1.5000019744587059e-01 2.8709667370253041e-14 2.2919220450256788e-14  1.4999999014380153e-01 3.5671085400801175e-14 5.3611864596620690e-15  1.4999994525467880e-01 1.3044248411883990e-14 8.6853832536491161e-15  1.4999995474234387e-01 4.4281824262669672e-16 3.5819141440346535e-15  1.4999998182436333e-01 8.0802261165578234e-15 1.4828918355826232e-17  1.5000012132027885e-01 1.6739393137486754e-14 2.9929730721766382e-14  1.5000021276348902e-01 1.2773020104696618e-16 6.1072943866774758e-14  1.4999998275486337e-01 2.9238272561069341e-14 4.3098601464913890e-15  1.4999971838422588e-01 6.6771885119784357e-15 1.2265380160965842e-13  1.4999992923855554e-01 1.8870885745958510e-14 1.7636898988827090e-15  1.5000028882957181e-01 1.4675798371261756e-14 1.3501575092535758e-13  1.5000011327018012e-01 8.7131629857750914e-15 9.6797306299032721e-15  1.4999973477190559e-01 1.5041519731631062e-14 1.1517391061440349e-13  1.4999989325410187e-01 3.6495148261063391e-15 9.1747754921704218e-15  1.5000023241326338e-01 1.0960673036269040e-14 8.7010171440453065e-14  1.5000006901968962e-01 1.8162945715789660e-15 3.0057251126284401e-15  1.4999980463885643e-01 6.5444885227778793e-15 5.9195432850904404e-14  1.4999997952154909e-01 1.2635546315126508e-15 6.7920546317429866e-19  1.5000015323725552e-01 3.3231308063650827e-15 3.4436856538714665e-14  1.4999997795145856e-01 1.1154456436477589e-15 2.0418331010008583e-15  1.4999989343531517e-01 1.3669154507284136e-15 1.5358244122173754e-14  1.5000004820037255e-01 1.0030692980069929e-15 4.9959527890715065e-15  1.5000006005095373e-01 3.7619190863767331e-16 4.2139273135313034e-15  1.4999994514872556e-01 7.7632561276306306e-16 5.2741310828493886e-15  1.4999997909547602e-01 3.0680830359055334e-17 3.0309958382483136e-16  1.5000004543601345e-01 4.5756717206260895e-16 3.1615017489348069e-15  1.4999999506047565e-01 1.3880004345978349e-17 1.4340751574886928e-16  1.4999997231118636e-01 1.7592195388533328e-16 1.0034901606577850e-15  1.5000001584377670e-01 6.3168281242061077e-17 5.0029502839995064e-16  1.5000001011180017e-01 2.9467479799395875e-17 8.9158642732857615e-17  1.4999998499759384e-01 6.0200574765981434e-17 3.5450893119578436e-16  1.5000000146270093e-01 4.5224864899182041e-20 1.5660131904649000e-17  1.5000000843842076e-01 2.4104412385965531e-17 8.8937811156547873e-17  1.4999999442324555e-01 7.5645111241718642e-18 5.9296255673413090e-17  1.4999999812472586e-01 2.4999178627781557e-18 1.4522993366780893e-18  1.5000000443766195e-01 6.9561679475861804e-18 2.8232478176189414e-17  1.4999999839206885e-01 3.5871104115449646e-19 6.6282200309699313e-18  1.4999999841329625e-01 1.5669257027142179e-18 2.1693614233640105e-18  1.5000000196481994e-01 1.3666272660738815e-18 6.0655183458645109e-18  1.4999999960487953e-01 2.6683962068945053e-22 6.5680479202159268e-19  1.4999999914406356e-01 4.7850500654438897e-19 7.2375926397924956e-19  1.5000000082770321e-01 2.4625368791203588e-19 1.1379644269863860e-18  1.4999999988738894e-01 2.6568886283852120e-21 8.7712338566371498e-20  1.4999999961660201e-01 1.0970351074323882e-19 1.4423785169333313e-19  1.5000000035431138e-01 4.9625782240075201e-20 2.0915636763087899e-19  1.4999999993874324e-01 3.5713842010327483e-22 2.1616398038683164e-20  1.4999999985135204e-01 2.1010046079846262e-20 1.8582513750159024e-20  1.5000000015543641e-01 1.1831736360983025e-20 3.7596140340554077e-20  1.4999999995239049e-01 6.9218804428556173e-23 7.7586685482099600e-21  1.4999999995482058e-01 3.0745404333307710e-21 9.6496339762178866e-22  1.5000000006581213e-01 2.9104985627146244e-21 5.7818267297530176e-21  1.4999999996605040e-01 2.8945736661104149e-22 2.6636502440514049e-21  1.4999999999462663e-01 2.3873129383695121e-22 3.2911534455566834e-23  1.5000000002402961e-01 6.1590699527883303e-22 5.4138946331417936e-22  1.4999999997974217e-01 2.3863329047588531e-22 6.7669271839067535e-22  1.5000000000