<?xml version="1.0"?>
<VTKFile type="UnstructuredGrid"  version="0.1"  >
<UnstructuredGrid>
<Piece  NumberOfPoints="10201" NumberOfCells="20000">
<Points>
<DataArray  type="Float64"  NumberOfComponents="3"  format="ascii">-5 -5 0  -4.9 -5 0  -4.8 -5 0  -4.7 -5 0  -4.6 -5 0  -4.5 -5 0  -4.4 -5 0  -4.3 -5 0  -4.2 -5 0  -4.1 -5 0  -4 -5 0  -3.9 -5 0  -3.8 -5 0  -3.7 -5 0  -3.6 -5 0  -3.5 -5 0  -3.4 -5 0  -3.3 -5 0  -3.2 -5 0  -3.1 -5 0  -3 -5 0  -2.9 -5 0  -2.8 -5 0  -2.7 -5 0  -2.6 -5 0  -2.5 -5 0  -2.4 -5 0  -2.3 -5 0  -2.2 -5 0  -2.1 -5 0  -2 -5 0  -1.9 -5 0  -1.8 -5 0  -1.7 -5 0  -1.6 -5 0  -1.5 -5 0  -1.4 -5 0  -1.3 -5 0  -1.2 -5 0  -1.1 -5 0  -1 -5 0  -0.9000000000000004 -5 0  -0.7999999999999998 -5 0  -0.7000000000000002 -5 0  -0.5999999999999996 -5 0  -0.5 -5 0  -0.4000000000000004 -5 0  -0.2999999999999998 -5 0  -0.2000000000000002 -5 0  -0.09999999999999964 -5 0  0 -5 0  0.09999999999999964 -5 0  0.2000000000000002 -5 0  0.2999999999999998 -5 0  0.4000000000000004 -5 0  0.5 -5 0  0.5999999999999996 -5 0  0.7000000000000002 -5 0  0.7999999999999998 -5 0  0.9000000000000004 -5 0  1 -5 0  1.1 -5 0  1.2 -5 0  1.3 -5 0  1.4 -5 0  1.5 -5 0  1.6 -5 0  1.7 -5 0  1.8 -5 0  1.9 -5 0  2 -5 0  2.1 -5 0  2.2 -5 0  2.3 -5 0  2.4 -5 0  2.5 -5 0  2.6 -5 0  2.7 -5 0  2.8 -5 0  2.9 -5 0  3 -5 0  3.1 -5 0  3.199999999999999 -5 0  3.300000000000001 -5 0  3.4 -5 0  3.5 -5 0  3.6 -5 0  3.699999999999999 -5 0  3.800000000000001 -5 0  3.9 -5 0  4 -5 0  4.1 -5 0  4.199999999999999 -5 0  4.300000000000001 -5 0  4.4 -5 0  4.5 -5 0  4.6 -5 0  4.699999999999999 -5 0  4.800000000000001 -5 0  4.9 -5 0  5 -5 0  -5 -4.9 0  -4.9 -4.9 0  -4.8 -4.9 0  -4.7 -4.9 0  -4.6 -4.9 0  -4.5 -4.9 0  -4.4 -4.9 0  -4.3 -4.9 0  -4.2 -4.9 0  -4.1 -4.9 0  -4 -4.9 0  -3.9 -4.9 0  -3.8 -4.9 0  -3.7 -4.9 0  -3.6 -4.9 0  -3.5 -4.9 0  -3.4 -4.9 0  -3.3 -4.9 0  -3.2 -4.9 0  -3.1 -4.9 0  -3 -4.9 0  -2.9 -4.9 0  -2.8 -4.9 0  -2.7 -4.9 0  -2.6 -4.9 0  -2.5 -4.9 0  -2.4 -4.9 0  -2.3 -4.9 0  -2.2 -4.9 0  -2.1 -4.9 0  -2 -4.9 0  -1.9 -4.9 0  -1.8 -4.9 0  -1.7 -4.9 0  -1.6 -4.9 0  -1.5 -4.9 0  -1.4 -4.9 0  -1.3 -4.9 0  -1.2 -4.9 0  -1.1 -4.9 0  -1 -4.9 0  -0.9000000000000004 -4.9 0  -0.7999999999999998 -4.9 0  -0.7000000000000002 -4.9 0  -0.5999999999999996 -4.9 0  -0.5 -4.9 0  -0.4000000000000004 -4.9 0  -0.2999999999999998 -4.9 0  -0.2000000000000002 -4.9 0  -0.09999999999999964 -4.9 0  0 -4.9 0  0.09999999999999964 -4.9 0  0.2000000000000002 -4.9 0  0.2999999999999998 -4.9 0  0.4000000000000004 -4.9 0  0.5 -4.9 0  0.5999999999999996 -4.9 0  0.7000000000000002 -4.9 0  0.7999999999999998 -4.9 0  0.9000000000000004 -4.9 0  1 -4.9 0  1.1 -4.9 0  1.2 -4.9 0  1.3 -4.9 0  1.4 -4.9 0  1.5 -4.9 0  1.6 -4.9 0  1.7 -4.9 0  1.8 -4.9 0  1.9 -4.9 0  2 -4.9 0  2.1 -4.9 0  2.2 -4.9 0  2.3 -4.9 0  2.4 -4.9 0  2.5 -4.9 0  2.6 -4.9 0  2.7 -4.9 0  2.8 -4.9 0  2.9 -4.9 0  3 -4.9 0  3.1 -4.9 0  3.199999999999999 -4.9 0  3.300000000000001 -4.9 0  3.4 -4.9 0  3.5 -4.9 0  3.6 -4.9 0  3.699999999999999 -4.9 0  3.800000000000001 -4.9 0  3.9 -4.9 0  4 -4.9 0  4.1 -4.9 0  4.199999999999999 -4.9 0  4.300000000000001 -4.9 0  4.4 -4.9 0  4.5 -4.9 0  4.6 -4.9 0  4.699999999999999 -4.9 0  4.800000000000001 -4.9 0  4.9 -4.9 0  5 -4.9 0  -5 -4.8 0  -4.9 -4.8 0  -4.8 -4.8 0  -4.7 -4.8 0  -4.6 -4.8 0  -4.5 -4.8 0  -4.4 -4.8 0  -4.3 -4.8 0  -4.2 -4.8 0  -4.1 -4.8 0  -4 -4.8 0  -3.9 -4.8 0  -3.8 -4.8 0  -3.7 -4.8 0  -3.6 -4.8 0  -3.5 -4.8 0  -3.4 -4.8 0  -3.3 -4.8 0  -3.2 -4.8 0  -3.1 -4.8 0  -3 -4.8 0  -2.9 -4.8 0  -2.8 -4.8 0  -2.7 -4.8 0  -2.6 -4.8 0  -2.5 -4.8 0  -2.4 -4.8 0  -2.3 -4.8 0  -2.2 -4.8 0  -2.1 -4.8 0  -2 -4.8 0  -1.9 -4.8 0  -1.8 -4.8 0  -1.7 -4.8 0  -1.6 -4.8 0  -1.5 -4.8 0  -1.4 -4.8 0  -1.3 -4.8 0  -1.2 -4.8 0  -1.1 -4.8 0  -1 -4.8 0  -0.9000000000000004 -4.8 0  -0.7999999999999998 -4.8 0  -0.7000000000000002 -4.8 0  -0.5999999999999996 -4.8 0  -0.5 -4.8 0  -0.4000000000000004 -4.8 0  -0.2999999999999998 -4.8 0  -0.2000000000000002 -4.8 0  -0.09999999999999964 -4.8 0  0 -4.8 0  0.09999999999999964 -4.8 0  0.2000000000000002 -4.8 0  0.2999999999999998 -4.8 0  0.4000000000000004 -4.8 0  0.5 -4.8 0  0.5999999999999996 -4.8 0  0.7000000000000002 -4.8 0  0.7999999999999998 -4.8 0  0.9000000000000004 -4.8 0  1 -4.8 0  1.1 -4.8 0  1.2 -4.8 0  1.3 -4.8 0  1.4 -4.8 0  1.5 -4.8 0  1.6 -4.8 0  1.7 -4.8 0  1.8 -4.8 0  1.9 -4.8 0  2 -4.8 0  2.1 -4.8 0  2.2 -4.8 0  2.3 -4.8 0  2.4 -4.8 0  2.5 -4.8 0  2.6 -4.8 0  2.7 -4.8 0  2.8 -4.8 0  2.9 -4.8 0  3 -4.8 0  3.1 -4.8 0  3.199999999999999 -4.8 0  3.300000000000001 -4.8 0  3.4 -4.8 0  3.5 -4.8 0  3.6 -4.8 0  3.699999999999999 -4.8 0  3.800000000000001 -4.8 0  3.9 -4.8 0  4 -4.8 0  4.1 -4.8 0  4.199999999999999 -4.8 0  4.300000000000001 -4.8 0  4.4 -4.8 0  4.5 -4.8 0  4.6 -4.8 0  4.699999999999999 -4.8 0  4.800000000000001 -4.8 0  4.9 -4.8 0  5 -4.8 0  -5 -4.7 0  -4.9 -4.7 0  -4.8 -4.7 0  -4.7 -4.7 0  -4.6 -4.7 0  -4.5 -4.7 0  -4.4 -4.7 0  -4.3 -4.7 0  -4.2 -4.7 0  -4.1 -4.7 0  -4 -4.7 0  -3.9 -4.7 0  -3.8 -4.7 0  -3.7 -4.7 0  -3.6 -4.7 0  -3.5 -4.7 0  -3.4 -4.7 0  -3.3 -4.7 0  -3.2 -4.7 0  -3.1 -4.7 0  -3 -4.7 0  -2.9 -4.7 0  -2.8 -4.7 0  -2.7 -4.7 0  -2.6 -4.7 0  -2.5 -4.7 0  -2.4 -4.7 0  -2.3 -4.7 0  -2.2 -4.7 0  -2.1 -4.7 0  -2 -4.7 0  -1.9 -4.7 0  -1.8 -4.7 0  -1.7 -4.7 0  -1.6 -4.7 0  -1.5 -4.7 0  -1.4 -4.7 0  -1.3 -4.7 0  -1.2 -4.7 0  -1.1 -4.7 0  -1 -4.7 0  -0.9000000000000004 -4.7 0  -0.7999999999999998 -4.7 0  -0.7000000000000002 -4.7 0  -0.5999999999999996 -4.7 0  -0.5 -4.7 0  -0.4000000000000004 -4.7 0  -0.2999999999999998 -4.7 0  -0.2000000000000002 -4.7 0  -0.09999999999999964 -4.7 0  0 -4.7 0  0.09999999999999964 -4.7 0  0.2000000000000002 -4.7 0  0.2999999999999998 -4.7 0  0.4000000000000004 -4.7 0  0.5 -4.7 0  0.5999999999999996 -4.7 0  0.7000000000000002 -4.7 0  0.7999999999999998 -4.7 0  0.9000000000000004 -4.7 0  1 -4.7 0  1.1 -4.7 0  1.2 -4.7 0  1.3 -4.7 0  1.4 -4.7 0  1.5 -4.7 0  1.6 -4.7 0  1.7 -4.7 0  1.8 -4.7 0  1.9 -4.7 0  2 -4.7 0  2.1 -4.7 0  2.2 -4.7 0  2.3 -4.7 0  2.4 -4.7 0  2.5 -4.7 0  2.6 -4.7 0  2.7 -4.7 0  2.8 -4.7 0  2.9 -4.7 0  3 -4.7 0  3.1 -4.7 0  3.199999999999999 -4.7 0  3.300000000000001 -4.7 0  3.4 -4.7 0  3.5 -4.7 0  3.6 -4.7 0  3.699999999999999 -4.7 0  3.800000000000001 -4.7 0  3.9 -4.7 0  4 -4.7 0  4.1 -4.7 0  4.199999999999999 -4.7 0  4.300000000000001 -4.7 0  4.4 -4.7 0  4.5 -4.7 0  4.6 -4.7 0  4.699999999999999 -4.7 0  4.800000000000001 -4.7 0  4.9 -4.7 0  5 -4.7 0  -5 -4.6 0  -4.9 -4.6 0  -4.8 -4.6 0  -4.7 -4.6 0  -4.6 -4.6 0  -4.5 -4.6 0  -4.4 -4.6 0  -4.3 -4.6 0  -4.2 -4.6 0  -4.1 -4.6 0  -4 -4.6 0  -3.9 -4.6 0  -3.8 -4.6 0  -3.7 -4.6 0  -3.6 -4.6 0  -3.5 -4.6 0  -3.4 -4.6 0  -3.3 -4.6 0  -3.2 -4.6 0  -3.1 -4.6 0  -3 -4.6 0  -2.9 -4.6 0  -2.8 -4.6 0  -2.7 -4.6 0  -2.6 -4.6 0  -2.5 -4.6 0  -2.4 -4.6 0  -2.3 -4.6 0  -2.2 -4.6 0  -2.1 -4.6 0  -2 -4.6 0  -1.9 -4.6 0  -1.8 -4.6 0  -1.7 -4.6 0  -1.6 -4.6 0  -1.5 -4.6 0  -1.4 -4.6 0  -1.3 -4.6 0  -1.2 -4.6 0  -1.1 -4.6 0  -1 -4.6 0  -0.9000000000000004 -4.6 0  -0.7999999999999998 -4.6 0  -0.7000000000000002 -4.6 0  -0.5999999999999996 -4.6 0  -0.5 -4.6 0  -0.4000000000000004 -4.6 0  -0.2999999999999998 -4.6 0  -0.2000000000000002 -4.6 0  -0.09999999999999964 -4.6 0  0 -4.6 0  0.09999999999999964 -4.6 0  0.2000000000000002 -4.6 0  0.2999999999999998 -4.6 0  0.4000000000000004 -4.6 0  0.5 -4.6 0  0.5999999999999996 -4.6 0  0.7000000000000002 -4.6 0  0.7999999999999998 -4.6 0  0.9000000000000004 -4.6 0  1 -4.6 0  1.1 -4.6 0  1.2 -4.6 0  1.3 -4.6 0  1.4 -4.6 0  1.5 -4.6 0  1.6 -4.6 0  1.7 -4.6 0  1.8 -4.6 0  1.9 -4.6 0  2 -4.6 0  2.1 -4.6 0  2.2 -4.6 0  2.3 -4.6 0  2.4 -4.6 0  2.5 -4.6 0  2.6 -4.6 0  2.7 -4.6 0  2.8 -4.6 0  2.9 -4.6 0  3 -4.6 0  3.1 -4.6 0  3.199999999999999 -4.6 0  3.300000000000001 -4.6 0  3.4 -4.6 0  3.5 -4.6 0  3.6 -4.6 0  3.699999999999999 -4.6 0  3.800000000000001 -4.6 0  3.9 -4.6 0  4 -4.6 0  4.1 -4.6 0  4.199999999999999 -4.6 0  4.300000000000001 -4.6 0  4.4 -4.6 0  4.5 -4.6 0  4.6 -4.6 0  4.699999999999999 -4.6 0  4.800000000000001 -4.6 0  4.9 -4.6 0  5 -4.6 0  -5 -4.5 0  -4.9 -4.5 0  -4.8 -4.5 0  -4.7 -4.5 0  -4.6 -4.5 0  -4.5 -4.5 0  -4.4 -4.5 0  -4.3 -4.5 0  -4.2 -4.5 0  -4.1 -4.5 0  -4 -4.5 0  -3.9 -4.5 0  -3.8 -4.5 0  -3.7 -4.5 0  -3.6 -4.5 0  -3.5 -4.5 0  -3.4 -4.5 0  -3.3 -4.5 0  -3.2 -4.5 0  -3.1 -4.5 0  -3 -4.5 0  -2.9 -4.5 0  -2.8 -4.5 0  -2.7 -4.5 0  -2.6 -4.5 0  -2.5 -4.5 0  -2.4 -4.5 0  -2.3 -4.5 0  -2.2 -4.5 0  -2.1 -4.5 0  -2 -4.5 0  -1.9 -4.5 0  -1.8 -4.5 0  -1.7 -4.5 0  -1.6 -4.5 0  -1.5 -4.5 0  -1.4 -4.5 0  -1.3 -4.5 0  -1.2 -4.5 0  -1.1 -4.5 0  -1 -4.5 0  -0.9000000000000004 -4.5 0  -0.7999999999999998 -4.5 0  -0.7000000000000002 -4.5 0  -0.5999999999999996 -4.5 0  -0.5 -4.5 0  -0.4000000000000004 -4.5 0  -0.2999999999999998 -4.5 0  -0.2000000000000002 -4.5 0  -0.09999999999999964 -4.5 0  0 -4.5 0  0.09999999999999964 -4.5 0  0.2000000000000002 -4.5 0  0.2999999999999998 -4.5 0  0.4000000000000004 -4.5 0  0.5 -4.5 0  0.5999999999999996 -4.5 0  0.7000000000000002 -4.5 0  0.7999999999999998 -4.5 0  0.9000000000000004 -4.5 0  1 -4.5 0  1.1 -4.5 0  1.2 -4.5 0  1.3 -4.5 0  1.4 -4.5 0  1.5 -4.5 0  1.6 -4.5 0  1.7 -4.5 0  1.8 -4.5 0  1.9 -4.5 0  2 -4.5 0  2.1 -4.5 0  2.2 -4.5 0  2.3 -4.5 0  2.4 -4.5 0  2.5 -4.5 0  2.6 -4.5 0  2.7 -4.5 0  2.8 -4.5 0  2.9 -4.5 0  3 -4.5 0  3.1 -4.5 0  3.199999999999999 -4.5 0  3.300000000000001 -4.5 0  3.4 -4.5 0  3.5 -4.5 0  3.6 -4.5 0  3.699999999999999 -4.5 0  3.800000000000001 -4.5 0  3.9 -4.5 0  4 -4.5 0  4.1 -4.5 0  4.199999999999999 -4.5 0  4.300000000000001 -4.5 0  4.4 -4.5 0  4.5 -4.5 0  4.6 -4.5 0  4.699999999999999 -4.5 0  4.800000000000001 -4.5 0  4.9 -4.5 0  5 -4.5 0  -5 -4.4 0  -4.9 -4.4 0  -4.8 -4.4 0  -4.7 -4.4 0  -4.6 -4.4 0  -4.5 -4.4 0  -4.4 -4.4 0  -4.3 -4.4 0  -4.2 -4.4 0  -4.1 -4.4 0  -4 -4.4 0  -3.9 -4.4 0  -3.8 -4.4 0  -3.7 -4.4 0  -3.6 -4.4 0  -3.5 -4.4 0  -3.4 -4.4 0  -3.3 -4.4 0  -3.2 -4.4 0  -3.1 -4.4 0  -3 -4.4 0  -2.9 -4.4 0  -2.8 -4.4 0  -2.7 -4.4 0  -2.6 -4.4 0  -2.5 -4.4 0  -2.4 -4.4 0  -2.3 -4.4 0  -2.2 -4.4 0  -2.1 -4.4 0  -2 -4.4 0  -1.9 -4.4 0  -1.8 -4.
[...]
<PointData  Vectors="f_23"> 
<DataArray  type="Float64"  Name="f_23"  NumberOfComponents="3" format="ascii">1.5000001099959506e-01 0.0000000000000000e+00 0.0000000000000000e+00  1.5000000596371532e-01 1.6699556649602522e-16 0.0000000000000000e+00  1.5000003589099487e-01 2.4497968844397689e-16 0.0000000000000000e+00  1.5000007568999157e-01 3.5990773290733667e-15 0.0000000000000000e+00  1.5000019794667890e-01 1.4730193994013215e-14 0.0000000000000000e+00  1.5000042953422560e-01 7.7850817697123806e-14 0.0000000000000000e+00  1.5000090276246428e-01 2.8135776164449526e-13 0.0000000000000000e+00  1.5000170955472389e-01 9.0244498480235237e-13 0.0000000000000000e+00  1.5000299189107705e-01 2.1482117675929022e-12 0.0000000000000000e+00  1.5000470142923575e-01 3.9248254541643315e-12 0.0000000000000000e+00  1.5000661229795972e-01 4.6719682287919055e-12 0.0000000000000000e+00  1.5000812138537384e-01 2.6803125150405848e-12 0.0000000000000000e+00  1.5000841390333752e-01 1.1710277082013224e-14 0.0000000000000000e+00  1.5000675730569019e-01 5.0559042793863537e-12 0.0000000000000000e+00  1.5000316277833045e-01 2.2126707925366358e-11 0.0000000000000000e+00  1.4999863472447972e-01 3.6562165705087950e-11 0.0000000000000000e+00  1.4999497035293161e-01 2.7678763289030162e-11 0.0000000000000000e+00  1.4999393924361176e-01 5.5450351239441690e-12 0.0000000000000000e+00  1.4999609706348715e-01 2.1783122149310227e-12 0.0000000000000000e+00  1.5000011674237032e-01 2.2005372898978104e-11 0.0000000000000000e+00  1.5000373390311506e-01 3.7068832993666407e-11 0.0000000000000000e+00  1.5000517208830744e-01 2.4488920227798003e-11 0.0000000000000000e+00  1.5000364574264521e-01 2.5561223068244044e-12 0.0000000000000000e+00  1.5000007813701879e-01 3.9465096808271487e-12 0.0000000000000000e+00  1.4999766438458387e-01 1.0396259767339594e-11 0.0000000000000000e+00  1.4999910059009072e-01 1.5883641955002818e-12 0.0000000000000000e+00  1.5000294188870031e-01 3.2020270229599538e-12 0.0000000000000000e+00  1.5000545044339267e-01 6.5936975931293089e-12 0.0000000000000000e+00  1.5000507313428815e-01 1.3307470772081805e-13 0.0000000000000000e+00  1.5000266407415472e-01 3.5968658364493985e-12 0.0000000000000000e+00  1.4999980926922202e-01 5.2750277363731646e-12 0.0000000000000000e+00  1.4999839760638267e-01 4.9319215951054071e-12 0.0000000000000000e+00  1.4999923827161779e-01 2.0127518652593172e-12 0.0000000000000000e+00  1.5000155793014963e-01 4.0962045348913745e-12 0.0000000000000000e+00  1.5000365123720988e-01 1.5121333391668184e-11 0.0000000000000000e+00  1.5000190294076171e-01 1.7174364674967638e-12 0.0000000000000000e+00  1.4999594202628933e-01 3.7371153008791116e-11 0.0000000000000000e+00  1.4999529117539429e-01 7.6192267953734226e-14 0.0000000000000000e+00  1.5000406444572240e-01 4.7487328723595619e-11 0.0000000000000000e+00  1.5000657872077885e-01 1.6023240433518730e-12 0.0000000000000000e+00  1.4999584708629149e-01 4.6547868494345094e-11 0.0000000000000000e+00  1.4999302867311423e-01 2.0258649551223079e-12 0.0000000000000000e+00  1.5000474704888817e-01 3.9101559261297064e-11 0.0000000000000000e+00  1.5000597501809232e-01 6.7572455864784562e-13 0.0000000000000000e+00  1.4999444911612972e-01 2.9501672168597268e-11 0.0000000000000000e+00  1.4999610911194738e-01 3.8907986293015458e-14 0.0000000000000000e+00  1.5000596551169235e-01 1.9473320415050124e-11 0.0000000000000000e+00  1.5000126400212471e-01 1.5840483198557197e-12 0.0000000000000000e+00  1.4999451891762100e-01 1.0226570546056550e-11 0.0000000000000000e+00  1.5000119090589040e-01 4.1705247440603458e-12 0.0000000000000000e+00  1.5000400200165509e-01 3.4216616070737549e-12 0.0000000000000000e+00  1.4999721022913928e-01 5.4612544318395414e-12 0.0000000000000000e+00  1.4999807554212147e-01 2.9301168362809180e-13 0.0000000000000000e+00  1.5000316003180472e-01 4.3416954378451465e-12 0.0000000000000000e+00  1.4999994433216746e-01 2.3874542441045373e-13 0.0000000000000000e+00  1.4999757999613203e-01 1.9638663283188002e-12 0.0000000000000000e+00  1.5000130466560677e-01 1.0822565641405176e-12 0.0000000000000000e+00  1.5000111602990240e-01 3.0852768851402859e-13 0.0000000000000000e+00  1.4999842805742025e-01 1.1300110088683642e-12 0.0000000000000000e+00  1.5000007298739954e-01 2.1625994998111675e-14 0.0000000000000000e+00  1.5000107926460421e-01 4.8560399072026335e-13 0.0000000000000000e+00  1.4999931283506998e-01 2.4650320087538104e-13 0.0000000000000000e+00  1.4999966736519299e-01 4.3766381858849163e-14 0.0000000000000000e+00  1.5000067531365055e-01 2.2444747722823663e-13 0.0000000000000000e+00  1.4999979669254943e-01 2.1020767927747900e-14 0.0000000000000000e+00  1.4999968151555912e-01 5.4917408117619521e-14 0.0000000000000000e+00  1.5000034545482049e-01 6.2787199965315909e-14 0.0000000000000000e+00  1.4999997327854248e-01 8.0432796246882184e-17 0.0000000000000000e+00  1.4999979539181990e-01 2.5911327559899096e-14 0.0000000000000000e+00  1.5000016215138876e-01 1.4034348647299891e-14 0.0000000000000000e+00  1.5000001246411995e-01 4.2985317655598302e-16 0.0000000000000000e+00  1.4999988863013547e-01 8.5256148360818841e-15 0.0000000000000000e+00  1.5000007630476075e-01 3.1223151775844135e-15 0.0000000000000000e+00  1.5000001043594630e-01 2.7283375585602383e-16 0.0000000000000000e+00  1.4999994448904830e-01 2.3927841449941599e-15 0.0000000000000000e+00  1.5000003847847898e-01 8.5433403063337996e-16 0.0000000000000000e+00  1.5000000194665683e-01 3.9609415438067340e-17 0.0000000000000000e+00  1.4999997553380867e-01 5.2243516203933033e-16 0.0000000000000000e+00  1.5000001900682616e-01 2.1527856217639144e-16 0.0000000000000000e+00  1.4999999901753810e-01 6.3875938026763312e-18 0.0000000000000000e+00  1.4999998856396213e-01 1.5840015041631813e-16 0.0000000000000000e+00  1.5000001186538600e-01 1.2491218809647313e-16 0.0000000000000000e+00  1.4999999494917576e-01 1.5319935673222729e-17 0.0000000000000000e+00  1.4999999860733945e-01 3.5226661291109717e-18 0.0000000000000000e+00  1.5000000341711389e-01 8.6202943469756421e-18 0.0000000000000000e+00  1.4999999839962710e-01 2.4066199928569855e-19 0.0000000000000000e+00  1.4999999869501637e-01 6.1465230802372936e-18 0.0000000000000000e+00  1.5000000305283073e-01 1.4946375790593608e-17 0.0000000000000000e+00  1.4999999698090519e-01 1.1134031711451180e-17 0.0000000000000000e+00  1.5000000183637446e-01 3.1303406655145162e-18 0.0000000000000000e+00  1.4999999951271084e-01 6.3973198513487538e-20 0.0000000000000000e+00  1.4999999963437649e-01 3.2696118907709352e-19 0.0000000000000000e+00  1.5000000056429522e-01 4.0434077657799826e-19 0.0000000000000000e+00  1.4999999969503405e-01 5.0856492668207750e-20 0.0000000000000000e+00  1.4999999988701437e-01 8.7333887841712937e-20 0.0000000000000000e+00  1.5000000046904025e-01 4.7442972249922577e-19 0.0000000000000000e+00  1.4999999936506245e-01 7.2309215402749279e-19 0.0000000000000000e+00  1.5000000065189842e-01 5.9980665229314058e-19 0.0000000000000000e+00  1.4999999935766800e-01 4.1570149167504433e-19 0.0000000000000000e+00  1.5000000033989991e-01 1.0781776324548355e-19 0.0000000000000000e+00  1.4999999926519739e-01 0.0000000000000000e+00 0.0000000000000000e+00  1.5000000596371563e-01 0.0000000000000000e+00 1.6699558232744401e-16  1.4999998470833883e-01 3.9236686137572729e-21 3.9235670682831608e-21  1.4999998317274199e-01 4.8574335477015006e-16 4.4740280960603667e-16  1.4999993375237175e-01 1.0449660751717910e-15 1.5091239031206411e-15  1.4999985957837203e-01 1.0881049181845798e-14 1.1011770883143881e-14  1.4999965657642955e-01 4.2189531541569941e-14 4.8995352566490410e-14  1.4999929162513934e-01 1.9607418677558212e-13 2.2094149698987559e-13  1.4999859113217162e-01 6.2800012688400585e-13 7.8544517827355868e-13  1.4999748005086436e-01 1.7467516083878026e-12 2.4551840131289573e-12  1.4999585452993974e-01 3.5172711225603950e-12 6.1615246634520490e-12  1.4999391654391400e-01 5.1980335118584203e-12 1.2547699180217364e-11  1.4999206452077091e-01 4.3495080267726781e-12 1.9481544077530970e-11  1.4999110254332443e-01 9.3106456749244362e-13 2.1982659961453747e-11  1.4999183209600950e-01 1.3839221953585536e-12 1.5532270564445424e-11  1.4999465098086462e-01 1.4308269149900334e-11 4.7547815954887175e-12  1.4999893725423488e-01 3.3694960062767779e-11 1.2257104936647861e-15  1.5000319710494625e-01 3.5940485579567227e-11 2.8460404881087352e-12  1.5000555540168203e-01 1.4938902888516658e-11 3.6259116025946729e-12  1.5000484658248334e-01 4.8575604654090629e-14 3.0524241251319374e-13  1.5000161296117928e-01 1.1222202430457820e-11 2.0462575260834931e-12  1.4999789524379636e-01 3.0451797564733076e-11 7.1201720543950880e-12  1.4999566174115270e-01 2.9830682009161983e-11 5.7317259439574637e-12  1.4999593594593327e-01 9.2900238784570005e-12 5.9005161209085449e-13  1.4999861553791866e-01 1.9259451702580588e-13 1.8860560866280296e-12  1.5000160069033222e-01 6.8570433995801359e-12 6.1428170775067815e-12  1.5000167511064877e-01 3.9079284128632666e-12 1.4435865535241555e-12  1.4999845423198055e-01 3.9825993168842003e-13 2.4292952861601098e-12  1.4999524225471580e-01 6.0307105673384567e-12 9.8678000265900960e-12  1.4999459647508701e-01 1.9640297931762631e-12 5.9323863670425058e-12  1.4999625604688901e-01 1.5178394883926117e-12 4.8526060703783535e-13  1.4999904068135844e-01 5.9055058016757580e-12 5.8601696412407111e-13  1.5000118308057683e-01 4.4316656576427189e-12 1.7448390541046826e-12  1.5000099502172964e-01 2.7753451885172378e-12 2.2389056036319080e-13  1.4999910167775765e-01 8.9576199038893005e-14 1.8530954334138793e-12  1.4999725046379542e-01 1.0487232941627037e-11 5.7882417608360763e-12  1.4999727429927001e-01 1.7307432366516734e-12 6.2791279109250042e-13  1.5000124324734074e-01 2.0514806981177555e-11 6.7092606921390248e-12  1.5000504000038334e-01 1.1713596431942558e-11 7.3761538569843197e-12  1.5000028268310642e-01 2.0137310586881655e-11 5.0663444601840810e-12  1.4999327527966574e-01 1.9914543761041527e-11 1.6863665224769755e-11  1.4999878097843652e-01 1.6884035615437611e-11 3.6622657442419435e-12  1.5000753178259882e-01 2.0389903787262203e-11 2.1395669639754911e-11  1.5000088406399278e-01 1.3784922015986693e-11 4.2574607079482407e-12  1.4999244166764966e-01 1.4394974739929387e-11 1.8620411238914907e-11  1.5000053067916685e-01 1.1874688382990803e-11 6.9382139988327961e-12  1.5000670329803384e-01 7.1048933588018737e-12 1.0722217633696238e-11  1.4999762355975865e-01 1.0384065482202873e-11 1.0469598452358112e-11  1.4999505356509960e-01 2.0284928962915143e-12 2.9560818451556571e-12  1.5000383690787364e-01 8.4063225330705451e-12 1.1616220754380460e-11  1.5000256023060213e-01 7.7233750902223962e-14 5.4158199513885998e-16  1.4999571646177726e-01 5.6528922043293440e-12 8.3400785339308119e-12  1.4999986314979033e-01 3.8546716855850522e-13 1.8001432289883397e-12  1.5000354955324630e-01 2.7277554721953467e-12 3.0956736125990964e-12  1.4999836539741990e-01 1.3370240931084627e-12 3.9527828632148998e-12  1.4999800318999007e-01 6.7202210558635074e-13 1.7677482412166071e-13  1.5000231022763011e-01 1.6166644952909024e-12 3.2826909423488267e-12  1.5000032070687053e-01 3.2000778178446258e-15 3.9671492183921146e-13  1.4999807683423633e-01 1.0192128798781806e-12 1.1176013557792482e-12  1.5000082061123424e-01 2.0837041481092610e-13 1.1276200518161645e-12  1.5000094563373867e-01 2.7803433377633718e-13 3.3756973684544674e-14  1.4999886383503558e-01 3.8466368067643345e-13 7.7665286568429726e-13  1.5000000043964584e-01 2.1474359829736778e-15 1.5382295264168793e-13  1.5000079274075048e-01 2.2682652976269709e-13 1.4662111717642530e-13  1.4999950945149301e-01 6.0701332055585256e-14 2.6186037968577422e-13  1.4999977238247092e-01 3.5304149975091896e-14 4.2160084584895987e-15  1.5000047623065516e-01 8.3877029212039125e-14 9.2183031537925761e-14  1.4999983514726434e-01 3.1512624231117559e-15 6.1057329161143976e-14  1.4999979992710233e-01 2.5906475023310664e-14 9.5383961865800600e-16  1.5000024529173026e-01 2.1626525392839553e-14 3.3538566317382548e-14  1.4999995481377376e-01 3.1503407263835429e-17 1.2423722859089100e-14  1.4999987679839052e-01 1.0322001082266920e-14 1.2717802828786517e-15  1.5000011925286505e-01 4.9442459615679081e-15 9.5297109644208394e-15  1.4999998741558560e-01 1.9970659543318814e-16 2.7318007214781555e-15  1.4999993532813088e-01 3.2414031961959451e-15 4.1198671733825326e-16  1.5000005898104285e-01 1.3094266742178778e-15 2.3839531556926347e-15  1.4999999175994191e-01 4.3007003574326727e-17 7.5225158987060902e-16  1.4999997158723255e-01 7.4585413862070996e-16 4.8292193612656423e-17  1.5000002776711699e-01 3.0532549935840369e-16 4.9940502964903388e-16  1.4999999452903559e-01 1.2870331660289452e-17 2.1647500964310967e-16  1.4999998700191405e-01 2.3946623764318201e-16 1.0924203068401752e-18  1.5000001587431891e-01 1.6829638518121215e-16 1.0795197287377375e-16  1.4999999232206351e-01 1.2893817864246730e-17 9.0422022927880119e-17  1.4999999870931138e-01 1.1136564842971294e-17 1.0628191435172618e-17  1.5000000472105851e-01 1.6617849311790232e-17 4.0118338919363783e-18  1.4999999724117230e-01 4.4328648907431780e-19 1.0989568239606024e-17  1.4999999897566493e-01 8.6872460821072131e-18 2.2172999948041955e-18  1.5000000347061818e-01 1.8511976443872572e-17 1.1830081057841846e-18  1.4999999640237802e-01 1.1096865142307917e-17 6.7483389164045138e-18  1.5000000219313706e-01 1.8682277945054709e-18 6.7153291812647459e-18  1.4999999944021916e-01 5.3279061382149980e-20 2.6338407175776588e-18  1.4999999956919821e-01 6.9835441034392477e-19 2.5558352545936942e-19  1.5000000059520865e-01 3.1709279606377583e-19 4.7184302031917343e-20  1.4999999978764797e-01 1.2936146364339830e-20 1.6875099591022845e-19  1.4999999968168626e-01 5.5176537023162065e-19 5.1610607451900294e-20  1.5000000071441050e-01 1.1692342514141779e-18 9.4364593155007417e-21  1.4999999912540130e-01 1.2402441867653134e-18 1.4145769245323702e-19  1.5000000080887080e-01 8.5262514764309678e-19 2.5581559333244540e-19  1.4999999935255498e-01 4.0314724229629476e-19 2.6820111874996976e-19  1.5000000047690429e-01 1.8707756285742674e-19 2.0911208902701629e-19  1.4999999986342488e-01 3.4310435686298908e-20 3.4310261699304679e-20  1.5000000033990016e-01 0.0000000000000000e+00 1.0781785960967164e-19  1.5000003589099409e-01 0.0000000000000000e+00 2.4497968775675514e-16  1.4999998317274207e-01 4.4740280071803325e-16 4.8574335711734435e-16  1.5000003904353582e-01 7.4593843607852546e-17 7.4593838075026433e-17  1.5000003175278606e-01 3.0346886948137171e-15 4.2566179296562197e-15  1.5000014374409920e-01 2.9591012116390353e-15 1.3806426175143860e-14  1.5000026615942252e-01 4.2574463825003079e-14 9.3000635149357636e-14  1.5000064120795070e-01 1.2193328659019243e-13 3.7408053111061200e-13  1.5000121909120276e-01 5.6685357594242791e-13 1.5648185183451552e-12  1.5000232267823210e-01 1.5028366657870518e-12 5.0966195690470557e-12  1.5000388932355149e-01 3.7948013560291223e-12 1.4780025492577719e-11  1.5000604577667406e-01 6.3071510094651955e-12 3.4016759684424172e-11  1.5000827978120854e-01 7.6078554626434747e-12 6.3732849750427835e-11  1.5001006541048931e-01 3.9827731927440179e-12 9.0058646985892394e-11  1.5001030997652556e-01 1.3196467907902794e-14 9.1494155900864220e-11  1.5000841146732868e-01 7.6609780085551833e-12 5.6172457760073842e-11  1.5000440051112307e-01 3.0877755075383080e-11 1.3651064892077872e-11  1.4999961458170469e-01 4.8278312160583644e-11 2.3736556362658929e-13  1.4999587524406496e-01 3.3211936186737988e-11 9.4436932411280771e-12  1.4999492219166929e-01 5.3758955261462389e-12 7.8035416043018067e-12  1.4999701365677065e-01 3.2006282776894716e-12 1.1371299523583798e-17  1.5000055420611794e-01 2.3085625459419740e-11 9.5746481804143022e-12  1.5000327503844688e-01 3.3515708176995359e-11 1.8710671680453825e-11  1.5000391278065781e-01 1.8869074754978208e-11 9.4475940368183883e-12  1.5000215275403972e-01 1.1788929182022858e-12 2.1667277381764254e-15  1.4999900656807028e-01 3.4115694921527022e-12 1.1403579615483180e-11  1.4999758988540748e-01 5.2795785533598097e-12 1.4969497947252539e-11  1.5000011068324129e-01 4.7437141151651802e-14 1.7671093545774245e-14  1.5000411458212720e-01 4.9492243345992875e-12 1.9241208753615087e-11  1.5000574279424367e-01 5.5479304119040648e-12 2.9493997112483684e-11  1.5000466867169773e-01 5.0421088563794125e-14 1.0786157023193680e-11  1.5000225579678550e-01 6.5332251044516393e-12 1.9781911681358519e-13  1.4999952850969120e-01 6.3215291911856647e-12 2.9923513094970301e-12  1.4999864085895889e-01 3.1848805972310331e-12 3.3224935054070251e-12  1.5000050428642664e-01 7.2257094798291247e-13 5.1463113410361291e-13  1.5000268631018671e-01 4.1678241491802910e-12 1.2484785074805532e-11  1.5000304632249628e-01 9.6090981079402142e-12 1.2034855167833202e-11  1.5000047412645465e-01 4.9654290711700242e-12 7.4268844230193951e-13  1.4999591218352115e-01 3.2844091946997210e-11 3.0862795823511319e-11  1.4999673381044101e-01 1.3215260272795533e-12 4.0617832992097101e-12  1.5000481321170986e-01 4.6668226693524843e-11 4.6946333405872801e-11  1.5000539525713552e-01 1.7896849928069500e-13 1.7570721817764379e-11  1.4999465531214745e-01 4.7252425275673962e-11 5.6616134888216763e-11  1.4999409170281125e-01 7.5759602554186290e-14 2.1058146133018099e-11  1.5000608500351589e-01 3.7665791129664721e-11 6.3950946988911444e-11  1.5000478927213959e-01 4.8829051580514597e-13 1.0287395131668587e-11  1.4999330653213974e-01 2.4920365402479565e-11 6.4346962440357296e-11  1.4999756447692836e-01 1.9102738841449473e-12 3.8797609970531635e-13  1.5000657794834507e-01 1.3372741037422617e-11 5.0699120214100127e-11  1.4999962871610306e-01 3.9883340010442898e-12 4.7905549784717861e-12  1.4999465439799431e-01 5.1428990996463715e-12 2.5735236213036515e-11  1.5000268685354393e-01 5.3068641302866832e-12 1.7417685548639921e-11  1.5000313985485289e-01 8.9739659934280354e-13 4.9841196859773073e-12  1.4999624064896971e-01 4.7857249452934073e-12 2.1407701831600631e-11  1.4999936108600251e-01 2.3734827461783121e-14 2.9459375766469166e-13  1.5000337002761449e-01 2.7865978084020634e-12 1.2403547852706595e-11  1.4999870831280185e-01 7.7018497790805926e-13 5.4455994529981790e-12  1.4999805728448878e-01 8.1317747108230796e-13 2.3479581252618190e-12  1.5000207381728198e-01 1.2623532725308122e-12 7.1620435277738812e-12  1.5000030263639944e-01 1.7067482116703488e-14 1.1537951121807720e-13  1.4999828088473247e-01 8.5520797654383213e-13 3.2993376017049951e-12  1.5000078882379037e-01 1.5936292568450404e-13 1.7483076506152133e-12  1.5000076297062234e-01 2.1587440763838672e-13 2.6892849062505880e-13  1.4999897384925864e-01 3.1231995885393564e-13 1.5927498531305304e-12  1.5000011215463124e-01 2.5657695821633866e-17 1.8812039930855303e-13  1.5000063251927268e-01 1.6156482293916703e-13 3.4955175402289296e-13  1.4999950902082315e-01 6.2194930060534024e-14 4.7168308990697929e-13  1.4999990677407235e-01 1.3971783375549258e-14 4.5856765609924184e-15  1.5000038796086759e-01 6.2587137986463007e-14 1.6738306664570129e-13  1.4999978893401156e-01 8.2269475070893973e-15 1.1164170208296665e-13  1.4999990085438231e-01 1.0902924629303398e-14 5.7878254423826816e-16  1.5000020693584673e-01 1.8180638650693978e-14 5.4213738654949090e-14  1.4999990904634009e-01 8.5750147240948744e-16 2.5760234389166101e-14  1.4999993831148378e-01 4.5922934430656915e-15 5.6105875037841472e-16  1.5000010609391626e-01 5.3940309178483886e-15 1.4377488913326993e-14  1.4999995210164482e-01 2.8592083807203806e-16 6.7930064890582430e-15  1.4999997576886298e-01 9.2398425930712207e-16 3.1864337356903482e-17  1.5000004688007418e-01 1.0620339189044021e-15 2.9523665415197833e-15  1.4999997779619881e-01 2.2393216730106003e-17 1.7352175206641655e-15  1.4999998795054609e-01 4.0874436490064560e-16 2.7494189686993657e-18  1.5000002691879688e-01 6.1161881754496890e-16 6.5296377874987395e-16  1.4999998008045631e-01 1.8558991605433019e-16 6.7812114968192029e-16  1.5000000508403991e-01 1.0199124329529068e-18 1.1120625150398671e-16  1.5000000430