<?xml version="1.0"?>
<VTKFile type="UnstructuredGrid"  version="0.1"  >
<UnstructuredGrid>
<Piece  NumberOfPoints="10201" NumberOfCells="20000">
<Points>
<DataArray  type="Float64"  NumberOfComponents="3"  format="ascii">-5 -5 0  -4.9 -5 0  -4.8 -5 0  -4.7 -5 0  -4.6 -5 0  -4.5 -5 0  -4.4 -5 0  -4.3 -5 0  -4.2 -5 0  -4.1 -5 0  -4 -5 0  -3.9 -5 0  -3.8 -5 0  -3.7 -5 0  -3.6 -5 0  -3.5 -5 0  -3.4 -5 0  -3.3 -5 0  -3.2 -5 0  -3.1 -5 0  -3 -5 0  -2.9 -5 0  -2.8 -5 0  -2.7 -5 0  -2.6 -5 0  -2.5 -5 0  -2.4 -5 0  -2.3 -5 0  -2.2 -5 0  -2.1 -5 0  -2 -5 0  -1.9 -5 0  -1.8 -5 0  -1.7 -5 0  -1.6 -5 0  -1.5 -5 0  -1.4 -5 0  -1.3 -5 0  -1.2 -5 0  -1.1 -5 0  -1 -5 0  -0.9000000000000004 -5 0  -0.7999999999999998 -5 0  -0.7000000000000002 -5 0  -0.5999999999999996 -5 0  -0.5 -5 0  -0.4000000000000004 -5 0  -0.2999999999999998 -5 0  -0.2000000000000002 -5 0  -0.09999999999999964 -5 0  0 -5 0  0.09999999999999964 -5 0  0.2000000000000002 -5 0  0.2999999999999998 -5 0  0.4000000000000004 -5 0  0.5 -5 0  0.5999999999999996 -5 0  0.7000000000000002 -5 0  0.7999999999999998 -5 0  0.9000000000000004 -5 0  1 -5 0  1.1 -5 0  1.2 -5 0  1.3 -5 0  1.4 -5 0  1.5 -5 0  1.6 -5 0  1.7 -5 0  1.8 -5 0  1.9 -5 0  2 -5 0  2.1 -5 0  2.2 -5 0  2.3 -5 0  2.4 -5 0  2.5 -5 0  2.6 -5 0  2.7 -5 0  2.8 -5 0  2.9 -5 0  3 -5 0  3.1 -5 0  3.199999999999999 -5 0  3.300000000000001 -5 0  3.4 -5 0  3.5 -5 0  3.6 -5 0  3.699999999999999 -5 0  3.800000000000001 -5 0  3.9 -5 0  4 -5 0  4.1 -5 0  4.199999999999999 -5 0  4.300000000000001 -5 0  4.4 -5 0  4.5 -5 0  4.6 -5 0  4.699999999999999 -5 0  4.800000000000001 -5 0  4.9 -5 0  5 -5 0  -5 -4.9 0  -4.9 -4.9 0  -4.8 -4.9 0  -4.7 -4.9 0  -4.6 -4.9 0  -4.5 -4.9 0  -4.4 -4.9 0  -4.3 -4.9 0  -4.2 -4.9 0  -4.1 -4.9 0  -4 -4.9 0  -3.9 -4.9 0  -3.8 -4.9 0  -3.7 -4.9 0  -3.6 -4.9 0  -3.5 -4.9 0  -3.4 -4.9 0  -3.3 -4.9 0  -3.2 -4.9 0  -3.1 -4.9 0  -3 -4.9 0  -2.9 -4.9 0  -2.8 -4.9 0  -2.7 -4.9 0  -2.6 -4.9 0  -2.5 -4.9 0  -2.4 -4.9 0  -2.3 -4.9 0  -2.2 -4.9 0  -2.1 -4.9 0  -2 -4.9 0  -1.9 -4.9 0  -1.8 -4.9 0  -1.7 -4.9 0  -1.6 -4.9 0  -1.5 -4.9 0  -1.4 -4.9 0  -1.3 -4.9 0  -1.2 -4.9 0  -1.1 -4.9 0  -1 -4.9 0  -0.9000000000000004 -4.9 0  -0.7999999999999998 -4.9 0  -0.7000000000000002 -4.9 0  -0.5999999999999996 -4.9 0  -0.5 -4.9 0  -0.4000000000000004 -4.9 0  -0.2999999999999998 -4.9 0  -0.2000000000000002 -4.9 0  -0.09999999999999964 -4.9 0  0 -4.9 0  0.09999999999999964 -4.9 0  0.2000000000000002 -4.9 0  0.2999999999999998 -4.9 0  0.4000000000000004 -4.9 0  0.5 -4.9 0  0.5999999999999996 -4.9 0  0.7000000000000002 -4.9 0  0.7999999999999998 -4.9 0  0.9000000000000004 -4.9 0  1 -4.9 0  1.1 -4.9 0  1.2 -4.9 0  1.3 -4.9 0  1.4 -4.9 0  1.5 -4.9 0  1.6 -4.9 0  1.7 -4.9 0  1.8 -4.9 0  1.9 -4.9 0  2 -4.9 0  2.1 -4.9 0  2.2 -4.9 0  2.3 -4.9 0  2.4 -4.9 0  2.5 -4.9 0  2.6 -4.9 0  2.7 -4.9 0  2.8 -4.9 0  2.9 -4.9 0  3 -4.9 0  3.1 -4.9 0  3.199999999999999 -4.9 0  3.300000000000001 -4.9 0  3.4 -4.9 0  3.5 -4.9 0  3.6 -4.9 0  3.699999999999999 -4.9 0  3.800000000000001 -4.9 0  3.9 -4.9 0  4 -4.9 0  4.1 -4.9 0  4.199999999999999 -4.9 0  4.300000000000001 -4.9 0  4.4 -4.9 0  4.5 -4.9 0  4.6 -4.9 0  4.699999999999999 -4.9 0  4.800000000000001 -4.9 0  4.9 -4.9 0  5 -4.9 0  -5 -4.8 0  -4.9 -4.8 0  -4.8 -4.8 0  -4.7 -4.8 0  -4.6 -4.8 0  -4.5 -4.8 0  -4.4 -4.8 0  -4.3 -4.8 0  -4.2 -4.8 0  -4.1 -4.8 0  -4 -4.8 0  -3.9 -4.8 0  -3.8 -4.8 0  -3.7 -4.8 0  -3.6 -4.8 0  -3.5 -4.8 0  -3.4 -4.8 0  -3.3 -4.8 0  -3.2 -4.8 0  -3.1 -4.8 0  -3 -4.8 0  -2.9 -4.8 0  -2.8 -4.8 0  -2.7 -4.8 0  -2.6 -4.8 0  -2.5 -4.8 0  -2.4 -4.8 0  -2.3 -4.8 0  -2.2 -4.8 0  -2.1 -4.8 0  -2 -4.8 0  -1.9 -4.8 0  -1.8 -4.8 0  -1.7 -4.8 0  -1.6 -4.8 0  -1.5 -4.8 0  -1.4 -4.8 0  -1.3 -4.8 0  -1.2 -4.8 0  -1.1 -4.8 0  -1 -4.8 0  -0.9000000000000004 -4.8 0  -0.7999999999999998 -4.8 0  -0.7000000000000002 -4.8 0  -0.5999999999999996 -4.8 0  -0.5 -4.8 0  -0.4000000000000004 -4.8 0  -0.2999999999999998 -4.8 0  -0.2000000000000002 -4.8 0  -0.09999999999999964 -4.8 0  0 -4.8 0  0.09999999999999964 -4.8 0  0.2000000000000002 -4.8 0  0.2999999999999998 -4.8 0  0.4000000000000004 -4.8 0  0.5 -4.8 0  0.5999999999999996 -4.8 0  0.7000000000000002 -4.8 0  0.7999999999999998 -4.8 0  0.9000000000000004 -4.8 0  1 -4.8 0  1.1 -4.8 0  1.2 -4.8 0  1.3 -4.8 0  1.4 -4.8 0  1.5 -4.8 0  1.6 -4.8 0  1.7 -4.8 0  1.8 -4.8 0  1.9 -4.8 0  2 -4.8 0  2.1 -4.8 0  2.2 -4.8 0  2.3 -4.8 0  2.4 -4.8 0  2.5 -4.8 0  2.6 -4.8 0  2.7 -4.8 0  2.8 -4.8 0  2.9 -4.8 0  3 -4.8 0  3.1 -4.8 0  3.199999999999999 -4.8 0  3.300000000000001 -4.8 0  3.4 -4.8 0  3.5 -4.8 0  3.6 -4.8 0  3.699999999999999 -4.8 0  3.800000000000001 -4.8 0  3.9 -4.8 0  4 -4.8 0  4.1 -4.8 0  4.199999999999999 -4.8 0  4.300000000000001 -4.8 0  4.4 -4.8 0  4.5 -4.8 0  4.6 -4.8 0  4.699999999999999 -4.8 0  4.800000000000001 -4.8 0  4.9 -4.8 0  5 -4.8 0  -5 -4.7 0  -4.9 -4.7 0  -4.8 -4.7 0  -4.7 -4.7 0  -4.6 -4.7 0  -4.5 -4.7 0  -4.4 -4.7 0  -4.3 -4.7 0  -4.2 -4.7 0  -4.1 -4.7 0  -4 -4.7 0  -3.9 -4.7 0  -3.8 -4.7 0  -3.7 -4.7 0  -3.6 -4.7 0  -3.5 -4.7 0  -3.4 -4.7 0  -3.3 -4.7 0  -3.2 -4.7 0  -3.1 -4.7 0  -3 -4.7 0  -2.9 -4.7 0  -2.8 -4.7 0  -2.7 -4.7 0  -2.6 -4.7 0  -2.5 -4.7 0  -2.4 -4.7 0  -2.3 -4.7 0  -2.2 -4.7 0  -2.1 -4.7 0  -2 -4.7 0  -1.9 -4.7 0  -1.8 -4.7 0  -1.7 -4.7 0  -1.6 -4.7 0  -1.5 -4.7 0  -1.4 -4.7 0  -1.3 -4.7 0  -1.2 -4.7 0  -1.1 -4.7 0  -1 -4.7 0  -0.9000000000000004 -4.7 0  -0.7999999999999998 -4.7 0  -0.7000000000000002 -4.7 0  -0.5999999999999996 -4.7 0  -0.5 -4.7 0  -0.4000000000000004 -4.7 0  -0.2999999999999998 -4.7 0  -0.2000000000000002 -4.7 0  -0.09999999999999964 -4.7 0  0 -4.7 0  0.09999999999999964 -4.7 0  0.2000000000000002 -4.7 0  0.2999999999999998 -4.7 0  0.4000000000000004 -4.7 0  0.5 -4.7 0  0.5999999999999996 -4.7 0  0.7000000000000002 -4.7 0  0.7999999999999998 -4.7 0  0.9000000000000004 -4.7 0  1 -4.7 0  1.1 -4.7 0  1.2 -4.7 0  1.3 -4.7 0  1.4 -4.7 0  1.5 -4.7 0  1.6 -4.7 0  1.7 -4.7 0  1.8 -4.7 0  1.9 -4.7 0  2 -4.7 0  2.1 -4.7 0  2.2 -4.7 0  2.3 -4.7 0  2.4 -4.7 0  2.5 -4.7 0  2.6 -4.7 0  2.7 -4.7 0  2.8 -4.7 0  2.9 -4.7 0  3 -4.7 0  3.1 -4.7 0  3.199999999999999 -4.7 0  3.300000000000001 -4.7 0  3.4 -4.7 0  3.5 -4.7 0  3.6 -4.7 0  3.699999999999999 -4.7 0  3.800000000000001 -4.7 0  3.9 -4.7 0  4 -4.7 0  4.1 -4.7 0  4.199999999999999 -4.7 0  4.300000000000001 -4.7 0  4.4 -4.7 0  4.5 -4.7 0  4.6 -4.7 0  4.699999999999999 -4.7 0  4.800000000000001 -4.7 0  4.9 -4.7 0  5 -4.7 0  -5 -4.6 0  -4.9 -4.6 0  -4.8 -4.6 0  -4.7 -4.6 0  -4.6 -4.6 0  -4.5 -4.6 0  -4.4 -4.6 0  -4.3 -4.6 0  -4.2 -4.6 0  -4.1 -4.6 0  -4 -4.6 0  -3.9 -4.6 0  -3.8 -4.6 0  -3.7 -4.6 0  -3.6 -4.6 0  -3.5 -4.6 0  -3.4 -4.6 0  -3.3 -4.6 0  -3.2 -4.6 0  -3.1 -4.6 0  -3 -4.6 0  -2.9 -4.6 0  -2.8 -4.6 0  -2.7 -4.6 0  -2.6 -4.6 0  -2.5 -4.6 0  -2.4 -4.6 0  -2.3 -4.6 0  -2.2 -4.6 0  -2.1 -4.6 0  -2 -4.6 0  -1.9 -4.6 0  -1.8 -4.6 0  -1.7 -4.6 0  -1.6 -4.6 0  -1.5 -4.6 0  -1.4 -4.6 0  -1.3 -4.6 0  -1.2 -4.6 0  -1.1 -4.6 0  -1 -4.6 0  -0.9000000000000004 -4.6 0  -0.7999999999999998 -4.6 0  -0.7000000000000002 -4.6 0  -0.5999999999999996 -4.6 0  -0.5 -4.6 0  -0.4000000000000004 -4.6 0  -0.2999999999999998 -4.6 0  -0.2000000000000002 -4.6 0  -0.09999999999999964 -4.6 0  0 -4.6 0  0.09999999999999964 -4.6 0  0.2000000000000002 -4.6 0  0.2999999999999998 -4.6 0  0.4000000000000004 -4.6 0  0.5 -4.6 0  0.5999999999999996 -4.6 0  0.7000000000000002 -4.6 0  0.7999999999999998 -4.6 0  0.9000000000000004 -4.6 0  1 -4.6 0  1.1 -4.6 0  1.2 -4.6 0  1.3 -4.6 0  1.4 -4.6 0  1.5 -4.6 0  1.6 -4.6 0  1.7 -4.6 0  1.8 -4.6 0  1.9 -4.6 0  2 -4.6 0  2.1 -4.6 0  2.2 -4.6 0  2.3 -4.6 0  2.4 -4.6 0  2.5 -4.6 0  2.6 -4.6 0  2.7 -4.6 0  2.8 -4.6 0  2.9 -4.6 0  3 -4.6 0  3.1 -4.6 0  3.199999999999999 -4.6 0  3.300000000000001 -4.6 0  3.4 -4.6 0  3.5 -4.6 0  3.6 -4.6 0  3.699999999999999 -4.6 0  3.800000000000001 -4.6 0  3.9 -4.6 0  4 -4.6 0  4.1 -4.6 0  4.199999999999999 -4.6 0  4.300000000000001 -4.6 0  4.4 -4.6 0  4.5 -4.6 0  4.6 -4.6 0  4.699999999999999 -4.6 0  4.800000000000001 -4.6 0  4.9 -4.6 0  5 -4.6 0  -5 -4.5 0  -4.9 -4.5 0  -4.8 -4.5 0  -4.7 -4.5 0  -4.6 -4.5 0  -4.5 -4.5 0  -4.4 -4.5 0  -4.3 -4.5 0  -4.2 -4.5 0  -4.1 -4.5 0  -4 -4.5 0  -3.9 -4.5 0  -3.8 -4.5 0  -3.7 -4.5 0  -3.6 -4.5 0  -3.5 -4.5 0  -3.4 -4.5 0  -3.3 -4.5 0  -3.2 -4.5 0  -3.1 -4.5 0  -3 -4.5 0  -2.9 -4.5 0  -2.8 -4.5 0  -2.7 -4.5 0  -2.6 -4.5 0  -2.5 -4.5 0  -2.4 -4.5 0  -2.3 -4.5 0  -2.2 -4.5 0  -2.1 -4.5 0  -2 -4.5 0  -1.9 -4.5 0  -1.8 -4.5 0  -1.7 -4.5 0  -1.6 -4.5 0  -1.5 -4.5 0  -1.4 -4.5 0  -1.3 -4.5 0  -1.2 -4.5 0  -1.1 -4.5 0  -1 -4.5 0  -0.9000000000000004 -4.5 0  -0.7999999999999998 -4.5 0  -0.7000000000000002 -4.5 0  -0.5999999999999996 -4.5 0  -0.5 -4.5 0  -0.4000000000000004 -4.5 0  -0.2999999999999998 -4.5 0  -0.2000000000000002 -4.5 0  -0.09999999999999964 -4.5 0  0 -4.5 0  0.09999999999999964 -4.5 0  0.2000000000000002 -4.5 0  0.2999999999999998 -4.5 0  0.4000000000000004 -4.5 0  0.5 -4.5 0  0.5999999999999996 -4.5 0  0.7000000000000002 -4.5 0  0.7999999999999998 -4.5 0  0.9000000000000004 -4.5 0  1 -4.5 0  1.1 -4.5 0  1.2 -4.5 0  1.3 -4.5 0  1.4 -4.5 0  1.5 -4.5 0  1.6 -4.5 0  1.7 -4.5 0  1.8 -4.5 0  1.9 -4.5 0  2 -4.5 0  2.1 -4.5 0  2.2 -4.5 0  2.3 -4.5 0  2.4 -4.5 0  2.5 -4.5 0  2.6 -4.5 0  2.7 -4.5 0  2.8 -4.5 0  2.9 -4.5 0  3 -4.5 0  3.1 -4.5 0  3.199999999999999 -4.5 0  3.300000000000001 -4.5 0  3.4 -4.5 0  3.5 -4.5 0  3.6 -4.5 0  3.699999999999999 -4.5 0  3.800000000000001 -4.5 0  3.9 -4.5 0  4 -4.5 0  4.1 -4.5 0  4.199999999999999 -4.5 0  4.300000000000001 -4.5 0  4.4 -4.5 0  4.5 -4.5 0  4.6 -4.5 0  4.699999999999999 -4.5 0  4.800000000000001 -4.5 0  4.9 -4.5 0  5 -4.5 0  -5 -4.4 0  -4.9 -4.4 0  -4.8 -4.4 0  -4.7 -4.4 0  -4.6 -4.4 0  -4.5 -4.4 0  -4.4 -4.4 0  -4.3 -4.4 0  -4.2 -4.4 0  -4.1 -4.4 0  -4 -4.4 0  -3.9 -4.4 0  -3.8 -4.4 0  -3.7 -4.4 0  -3.6 -4.4 0  -3.5 -4.4 0  -3.4 -4.4 0  -3.3 -4.4 0  -3.2 -4.4 0  -3.1 -4.4 0  -3 -4.4 0  -2.9 -4.4 0  -2.8 -4.4 0  -2.7 -4.4 0  -2.6 -4.4 0  -2.5 -4.4 0  -2.4 -4.4 0  -2.3 -4.4 0  -2.2 -4.4 0  -2.1 -4.4 0  -2 -4.4 0  -1.9 -4.4 0  -1.8 -4.
[...]
<PointData  Vectors="f_17"> 
<DataArray  type="Float64"  Name="f_17"  NumberOfComponents="3" format="ascii">1.5000000000000022e-01 0.0000000000000000e+00 0.0000000000000000e+00  1.5000000000000008e-01 -2.1537813321318681e-16 0.0000000000000000e+00  1.5000000000000002e-01 1.4469031100695965e-16 0.0000000000000000e+00  1.5000000000000019e-01 -7.5427059325835772e-17 0.0000000000000000e+00  1.5000000000000005e-01 2.7221196146860986e-16 0.0000000000000000e+00  1.4999999999999999e-01 1.8591817489900897e-16 0.0000000000000000e+00  1.4999999999999991e-01 -4.4079370103292484e-16 0.0000000000000000e+00  1.5000000000000016e-01 3.7418259617056671e-16 0.0000000000000000e+00  1.5000000000000005e-01 4.0931886398774445e-16 0.0000000000000000e+00  1.5000000000000013e-01 -1.1675948002692351e-17 0.0000000000000000e+00  1.5000000000000002e-01 -3.6475262278509047e-16 0.0000000000000000e+00  1.4999999999999999e-01 3.0823734284517846e-16 0.0000000000000000e+00  1.4999999999999988e-01 -1.6805559714410106e-16 0.0000000000000000e+00  1.5000000000000005e-01 -1.8282085137185076e-16 0.0000000000000000e+00  1.4999999999999997e-01 2.2934264242941599e-16 0.0000000000000000e+00  1.4999999999999974e-01 -1.1524722352257476e-16 0.0000000000000000e+00  1.4999999999999997e-01 6.1242532181861368e-17 0.0000000000000000e+00  1.4999999999999991e-01 -4.6521546055802346e-16 0.0000000000000000e+00  1.5000000000000099e-01 -3.3031169648057561e-15 0.0000000000000000e+00  1.5000000000000491e-01 -4.6225810432410233e-15 0.0000000000000000e+00  1.5000000000000915e-01 6.5057165875170265e-15 0.0000000000000000e+00  1.4999999999999458e-01 3.5061691328383410e-14 0.0000000000000000e+00  1.4999999999993224e-01 7.2818842054351121e-14 0.0000000000000000e+00  1.4999999999982017e-01 8.5763223838308372e-14 0.0000000000000000e+00  1.4999999999972027e-01 4.5770603159636823e-14 0.0000000000000000e+00  1.4999999999972169e-01 -3.3922516856121304e-14 0.0000000000000000e+00  1.4999999999984570e-01 -9.8643014234547277e-14 0.0000000000000000e+00  1.5000000000000049e-01 -1.0158865765402117e-13 0.0000000000000000e+00  1.5000000000007288e-01 -4.7327419291554322e-14 0.0000000000000000e+00  1.5000000000004551e-01 1.1629408656181419e-14 0.0000000000000000e+00  1.4999999999999639e-01 2.9642856045665047e-14 0.0000000000000000e+00  1.4999999999998442e-01 1.2708951586460856e-14 0.0000000000000000e+00  1.4999999999999863e-01 -6.7014576500405643e-15 0.0000000000000000e+00  1.5000000000000452e-01 -6.0822688776487191e-15 0.0000000000000000e+00  1.4999999999999941e-01 1.1647981304760208e-15 0.0000000000000000e+00  1.4999999999999802e-01 2.3447714999166866e-15 0.0000000000000000e+00  1.5000000000000116e-01 -6.1570826648743374e-16 0.0000000000000000e+00  1.5000000000000110e-01 -7.9075081686514312e-16 0.0000000000000000e+00  1.4999999999999933e-01 7.6815649581804075e-16 0.0000000000000000e+00  1.4999999999999949e-01 5.4293267654991046e-16 0.0000000000000000e+00  1.5000000000000036e-01 -9.0002223026862466e-16 0.0000000000000000e+00  1.5000000000000022e-01 -1.6370663774394011e-16 0.0000000000000000e+00  1.4999999999999983e-01 1.7549347262377191e-16 0.0000000000000000e+00  1.4999999999999999e-01 2.9808825274804400e-16 0.0000000000000000e+00  1.5000000000000011e-01 -4.3508623292561854e-16 0.0000000000000000e+00  1.4999999999999999e-01 1.6126562711624910e-16 0.0000000000000000e+00  1.4999999999999999e-01 -1.8525901537045828e-16 0.0000000000000000e+00  1.5000000000000011e-01 -3.1773064949206599e-16 0.0000000000000000e+00  1.5000000000000016e-01 8.1075776180015391e-17 0.0000000000000000e+00  1.5000000000000002e-01 1.0461224318905301e-17 0.0000000000000000e+00  1.5000000000000011e-01 1.0972307381363233e-16 0.0000000000000000e+00  1.5000000000000002e-01 1.1792889983476852e-16 0.0000000000000000e+00  1.4999999999999986e-01 1.1016064684424697e-16 0.0000000000000000e+00  1.5000000000000016e-01 3.0863697685363585e-16 0.0000000000000000e+00  1.5000000000000027e-01 -2.1055626244840159e-16 0.0000000000000000e+00  1.4999999999999994e-01 -6.8392162610794605e-16 0.0000000000000000e+00  1.5000000000000011e-01 2.2881445356632059e-16 0.0000000000000000e+00  1.5000000000000016e-01 3.7874007590500914e-16 0.0000000000000000e+00  1.5000000000000019e-01 3.2090480306420394e-16 0.0000000000000000e+00  1.5000000000000002e-01 -2.6047240297465483e-16 0.0000000000000000e+00  1.5000000000000002e-01 -2.3428692698610663e-18 0.0000000000000000e+00  1.5000000000000002e-01 9.6707559983668785e-18 0.0000000000000000e+00  1.5000000000000005e-01 7.9867906844243853e-17 0.0000000000000000e+00  1.5000000000000002e-01 -1.2304025768632503e-16 0.0000000000000000e+00  1.5000000000000008e-01 -5.9870795394128964e-17 0.0000000000000000e+00  1.5000000000000008e-01 -5.7685565822375204e-16 0.0000000000000000e+00  1.5000000000000008e-01 -1.3112214813372047e-16 0.0000000000000000e+00  1.5000000000000016e-01 -7.8886020309998288e-17 0.0000000000000000e+00  1.5000000000000016e-01 3.4704128442282453e-16 0.0000000000000000e+00  1.4999999999999997e-01 4.8395785335846390e-17 0.0000000000000000e+00  1.5000000000000019e-01 3.6838831981050655e-16 0.0000000000000000e+00  1.5000000000000005e-01 -1.6169676541317577e-16 0.0000000000000000e+00  1.5000000000000005e-01 3.3918926452130868e-16 0.0000000000000000e+00  1.4999999999999983e-01 2.2942892270717753e-17 0.0000000000000000e+00  1.5000000000000005e-01 -8.1907310016168210e-17 0.0000000000000000e+00  1.5000000000000008e-01 5.3883473668308952e-16 0.0000000000000000e+00  1.5000000000000013e-01 -4.0907202392880034e-16 0.0000000000000000e+00  1.4999999999999991e-01 1.2493188845576846e-16 0.0000000000000000e+00  1.5000000000000005e-01 5.0150922731436061e-17 0.0000000000000000e+00  1.5000000000000005e-01 -1.4888645211054177e-16 0.0000000000000000e+00  1.5000000000000016e-01 -3.8997900159760092e-16 0.0000000000000000e+00  1.4999999999999997e-01 -6.5233478396321514e-17 0.0000000000000000e+00  1.4999999999999999e-01 -2.6078058269407134e-17 0.0000000000000000e+00  1.5000000000000022e-01 -1.3862585438261769e-16 0.0000000000000000e+00  1.4999999999999999e-01 4.5778813801241232e-16 0.0000000000000000e+00  1.4999999999999983e-01 3.7479562540965788e-16 0.0000000000000000e+00  1.4999999999999999e-01 5.9021830416527173e-17 0.0000000000000000e+00  1.4999999999999994e-01 9.7812086594375576e-17 0.0000000000000000e+00  1.5000000000000005e-01 -3.7803905272163634e-16 0.0000000000000000e+00  1.4999999999999994e-01 -2.7949630509668889e-17 0.0000000000000000e+00  1.5000000000000002e-01 -6.8200478962375059e-16 0.0000000000000000e+00  1.4999999999999999e-01 2.6273515863679174e-16 0.0000000000000000e+00  1.5000000000000011e-01 -2.9319048264632280e-16 0.0000000000000000e+00  1.5000000000000041e-01 5.5327305916054694e-16 0.0000000000000000e+00  1.5000000000000002e-01 1.5706488863229117e-16 0.0000000000000000e+00  1.5000000000000002e-01 -4.5721852823860250e-17 0.0000000000000000e+00  1.5000000000000008e-01 -4.0288275466363622e-16 0.0000000000000000e+00  1.5000000000000016e-01 -8.1262112704094638e-17 0.0000000000000000e+00  1.4999999999999999e-01 -2.0990245450538908e-17 0.0000000000000000e+00  1.5000000000000008e-01 -5.9994520081457360e-17 0.0000000000000000e+00  1.4999999999999991e-01 0.0000000000000000e+00 0.0000000000000000e+00  1.4999999999999999e-01 0.0000000000000000e+00 -7.6469394943383747e-16  1.4999999999999999e-01 8.3353759094240606e-18 1.4436859085535463e-16  1.5000000000000005e-01 -1.0084360293229862e-16 -1.2144358616109215e-16  1.5000000000000005e-01 -4.6935247121478069e-16 1.5905200071710987e-16  1.5000000000000005e-01 1.0601447843505748e-16 -9.7824917142374550e-17  1.5000000000000008e-01 -2.9907886472445106e-16 -1.0332632296789116e-16  1.5000000000000005e-01 7.4354411894602256e-16 -6.0635121827109167e-16  1.5000000000000008e-01 -3.9583824643755258e-16 2.1899824259941805e-16  1.5000000000000005e-01 3.7043495953365090e-16 1.5851300633913281e-16  1.4999999999999999e-01 -6.4711707233175314e-17 -2.0062071968549505e-16  1.5000000000000002e-01 5.9246746366297989e-18 -3.2164795592624237e-17  1.5000000000000002e-01 3.5154137346694097e-16 1.8010492131066748e-16  1.5000000000000005e-01 2.4190705404497003e-17 -4.3880336799786432e-17  1.4999999999999999e-01 3.7038811361952821e-17 4.9078538351713773e-17  1.4999999999999997e-01 3.1001729904810122e-16 1.6818553269771162e-17  1.5000000000000019e-01 -2.9054670118810628e-16 9.0534249206929474e-17  1.5000000000000036e-01 -4.5513163585656170e-16 4.3322842026399095e-16  1.5000000000000024e-01 1.9780339552564621e-16 6.1096729566945087e-16  1.4999999999999988e-01 1.8184152288583184e-15 -6.9122728968115395e-16  1.4999999999999647e-01 6.0113094800977268e-15 -9.7476142360550390e-15  1.4999999999998959e-01 1.1114988683617945e-15 -2.6954764068393980e-14  1.4999999999999389e-01 -2.7494719136796004e-14 -1.2866922855518937e-14  1.5000000000004579e-01 -7.8468858378710521e-14 1.2457374539539793e-13  1.5000000000017097e-01 -1.1695953584837298e-13 4.4084791379793306e-13  1.5000000000032521e-01 -9.1844315561454990e-14 8.1316038291335233e-13  1.5000000000039085e-01 1.4901100024555198e-15 9.4684491051904990e-13  1.5000000000028629e-01 1.0664682401313726e-13 6.5682043233709816e-13  1.5000000000007557e-01 1.4500459866263077e-13 1.2978480884480684e-13  1.4999999999992197e-01 9.5517184057191704e-14 -2.2454678246317101e-13  1.4999999999991315e-01 1.1107238929442982e-14 -2.1346029395841039e-13  1.4999999999998248e-01 -3.6276838056222072e-14 -2.9891872488311757e-14  1.5000000000002184e-01 -2.7803523768494279e-14 5.9306963455010602e-14  1.5000000000001010e-01 2.4350266829907402e-16 2.1869359405252549e-14  1.4999999999999436e-01 1.0298570597083585e-14 -1.5785092464593324e-14  1.4999999999999791e-01 2.0907274639824022e-15 -3.8104396092665808e-15  1.5000000000000349e-01 -3.7175875486884369e-15 8.7401789335710930e-15  1.5000000000000002e-01 -6.2818296997889663e-16 -3.9489930941209731e-16  1.4999999999999783e-01 1.9850946903620351e-15 -5.7443288916953333e-15  1.5000000000000027e-01 2.9076492810588207e-16 8.4949089651546921e-16  1.5000000000000147e-01 -1.2147188166105601e-15 3.3896116383523279e-15  1.4999999999999994e-01 -6.4941097815485987e-17 -6.6634258001361764e-16  1.4999999999999930e-01 6.0950583300821415e-16 -1.6532764501948368e-15  1.5000000000000022e-01 -4.2037734516705029e-16 3.8452933153014485e-16  1.5000000000000041e-01 -1.6035267164949809e-16 8.9943265587060249e-16  1.4999999999999997e-01 -2.9181741443320689e-16 -7.7840138913131350e-16  1.5000000000000002e-01 2.3079254045155861e-16 -1.4808424877074113e-16  1.5000000000000022e-01 -5.8755256281181548e-17 2.3306720666520522e-16  1.4999999999999999e-01 2.2497177918012850e-17 -2.3241000351783366e-16  1.5000000000000002e-01 2.5061504013278292e-16 1.9684463191444937e-16  1.5000000000000011e-01 -3.3738969091429431e-18 -3.9470370548351425e-16  1.5000000000000016e-01 -2.2693503823066192e-17 -1.2422797448168611e-16  1.5000000000000002e-01 5.6862181534536264e-16 6.0562353843138366e-17  1.5000000000000008e-01 -2.5078995587178181e-16 2.8723399399960027e-17  1.5000000000000005e-01 1.9952698883981330e-16 4.4476390661413813e-17  1.5000000000000013e-01 2.1651475287384207e-16 -2.5234270792667576e-16  1.5000000000000008e-01 -1.6673803058996236e-16 -1.2545440178524668e-16  1.4999999999999994e-01 2.5956988349394149e-16 3.8712145297667857e-16  1.5000000000000002e-01 -4.5795994415389014e-16 1.5490721469599312e-16  1.5000000000000005e-01 3.0392705180802268e-16 -4.9908610125103706e-16  1.5000000000000008e-01 -2.5006563377829219e-16 -6.4161004526605749e-17  1.5000000000000002e-01 -5.2908337900514730e-17 -1.4812583288337308e-16  1.5000000000000008e-01 -2.9822502572872557e-16 -1.3476639657389473e-16  1.5000000000000005e-01 1.3104619426346710e-16 -2.3678267537364676e-16  1.5000000000000008e-01 -3.3785054109091995e-16 1.3062978209954118e-16  1.5000000000000008e-01 -1.6048413901808301e-16 -1.1317437360567617e-16  1.5000000000000008e-01 -1.2901855753043809e-16 2.4905338191485508e-16  1.5000000000000011e-01 -2.0332452873452498e-16 3.0319501750731268e-16  1.4999999999999999e-01 1.6559404424359740e-16 1.2669576383585774e-16  1.5000000000000008e-01 4.6301689344170137e-16 3.1028593579492483e-16  1.5000000000000002e-01 -1.0399667216107371e-16 1.8372532677593954e-16  1.4999999999999999e-01 2.7716181334625228e-16 -3.6777170861250534e-16  1.5000000000000008e-01 1.1082417883423268e-16 -1.0307639180121874e-16  1.5000000000000005e-01 8.4980726652127031e-17 1.1914367392835650e-16  1.4999999999999999e-01 1.8973644720050667e-16 -1.4910812485937806e-16  1.5000000000000005e-01 -1.4413774826615527e-16 -3.9015248675586735e-19  1.5000000000000002e-01 -1.8468902935043031e-16 -1.7316991717164752e-16  1.5000000000000008e-01 -2.3157203742965812e-16 -5.0567183371495363e-16  1.5000000000000016e-01 -5.9909711329925685e-16 1.0796950233844576e-16  1.5000000000000008e-01 1.3093974584632491e-17 2.6840328962294285e-17  1.5000000000000013e-01 4.3121120071511606e-16 -3.3744244161532121e-16  1.5000000000000005e-01 3.2101860286080811e-16 -1.7718642807471002e-16  1.5000000000000016e-01 2.5273213308921113e-16 8.9256473602652864e-17  1.5000000000000013e-01 -2.3917703312165204e-16 1.3131097349973420e-16  1.5000000000000008e-01 1.0496692280057419e-16 -1.4053130330483300e-16  1.5000000000000005e-01 -1.6821713397861499e-16 1.2021824161366883e-16  1.5000000000000008e-01 -7.4085401823198316e-17 -2.1065849291513337e-16  1.5000000000000005e-01 3.5293272691919914e-16 1.1854449104022983e-17  1.5000000000000005e-01 -9.7612428161352588e-17 -5.5284645474716778e-18  1.5000000000000008e-01 6.7691292148225225e-18 1.6061917037191282e-16  1.4999999999999999e-01 -3.4123168000291306e-17 3.0531949344213189e-16  1.5000000000000005e-01 -3.9276035628020995e-16 2.6705522046251415e-16  1.5000000000000002e-01 4.6963495103486372e-16 -8.2738892244454208e-17  1.5000000000000019e-01 3.5306201227174792e-16 3.8391035348762363e-17  1.5000000000000013e-01 3.6622150880491166e-17 4.8552052977399051e-16  1.5000000000000005e-01 -3.8999493595522452e-16 1.2840740222797470e-17  1.5000000000000005e-01 -1.1922978667321276e-16 3.8578799257683919e-17  1.4999999999999991e-01 3.0645337433354291e-16 -1.2328193330458044e-16  1.5000000000000002e-01 -1.4161038937484765e-16 3.4519386933150979e-16  1.5000000000000016e-01 2.3870795155288804e-16 1.1338828287269740e-16  1.5000000000000005e-01 -7.2430070871979025e-17 -4.4015789287464915e-16  1.4999999999999999e-01 0.0000000000000000e+00 2.8768816241757260e-16  1.5000000000000011e-01 0.0000000000000000e+00 1.3315341169592518e-16  1.5000000000000013e-01 -1.1765440165836799e-16 -9.5508918248752797e-17  1.4999999999999999e-01 5.4526408410908221e-17 -4.1068757159649746e-16  1.5000000000000005e-01 3.6132583171119543e-17 1.2993873909516501e-16  1.5000000000000022e-01 -5.8487408702663366e-17 -2.2637259256351163e-16  1.5000000000000008e-01 1.0799754211906705e-17 -3.4312024577864619e-16  1.4999999999999991e-01 2.1944959037788195e-16 -3.4081943600191438e-16  1.5000000000000005e-01 -9.7073486113300888e-17 -6.5854403217550403e-17  1.5000000000000011e-01 7.4396556582745262e-16 -7.4301445934142993e-16  1.5000000000000002e-01 -3.0563331515211111e-16 -3.0549118869646198e-16  1.5000000000000002e-01 2.7743007973468546e-16 -3.0058968483319381e-16  1.5000000000000005e-01 5.4516965691724253e-17 -2.4380352108748203e-16  1.4999999999999994e-01 -1.5591901851322915e-16 -3.0080428965791672e-16  1.4999999999999991e-01 -2.1314104528788602e-17 -2.0903954796598795e-16  1.5000000000000005e-01 -3.9251949653877377e-17 -1.5351193785228741e-16  1.4999999999999988e-01 -3.4410460634651898e-16 -4.8174901646736891e-16  1.4999999999999969e-01 2.7705982081871006e-16 -1.1078400593207839e-15  1.4999999999999977e-01 2.3730292243691122e-17 -1.9612380774273055e-15  1.4999999999999974e-01 -1.4239573279859709e-15 -2.3293476085977787e-15  1.5000000000000271e-01 -8.1633769246266813e-15 8.4066970173929161e-15  1.5000000000001301e-01 -1.1133345325316782e-14 4.5858781388456300e-14  1.5000000000002064e-01 1.9833239023091817e-14 7.4410921111571880e-14  1.4999999999997513e-01 1.0261550612220360e-13 -8.3035158791127302e-14  1.4999999999980371e-01 2.0127947544091839e-13 -6.7259371483952303e-13  1.4999999999951533e-01 2.2010931302261930e-13 -1.6558482666993668e-12  1.4999999999928360e-01 9.1426324622880267e-14 -2.4328180099125663e-12  1.4999999999933261e-01 -1.2469458012339971e-13 -2.2425355890373924e-12  1.4999999999967889e-01 -2.7228375510920790e-13 -1.0459348556053892e-12  1.5000000000005836e-01 -2.4493191565028080e-13 2.4057646903595968e-13  1.5000000000019484e-01 -8.9555135036409122e-14 6.8183170938740025e-13  1.5000000000009478e-01 4.6853470587522281e-14 3.1963260830838439e-13  1.4999999999997501e-01 7.2729677265724222e-14 -9.2159310674594700e-14  1.4999999999996458e-01 2.1126874638189310e-14 -1.2316638240518979e-13  1.5000000000000341e-01 -1.8476866497833460e-14 1.1588040433453259e-14  1.5000000000000965e-01 -1.2034253716207877e-14 3.2294296123521952e-14  1.4999999999999492e-01 4.8682471245914433e-15 -1.7229735627726110e-14  1.4999999999999608e-01 4.9019026664947121e-15 -1.2788227422228550e-14  1.5000000000000460e-01 -2.9348809978145116e-15 1.5634773992213395e-14  1.5000000000000233e-01 -1.7536729323468736e-15 6.9404235687269696e-15  1.4999999999999716e-01 2.1221925419606986e-15 -9.9598923098914967e-15  1.4999999999999894e-01 7.7789798360805044e-16 -3.4502221352899623e-15  1.5000000000000160e-01 -1.8230532208376647e-15 5.4647996524755102e-15  1.5000000000000049e-01 -2.6581047380993034e-16 1.3228663864972258e-15  1.4999999999999922e-01 7.2216132703233283e-16 -3.0828084845204029e-15  1.5000000000000005e-01 1.8979815704180799e-17 -9.1178967207132170e-17  1.5000000000000047e-01 -1.3647975512831266e-16 1.8400299482213806e-15  1.5000000000000008e-01 -2.9960587728457376e-18 -3.2137813096356465e-16  1.4999999999999986e-01 -2.6748719880067892e-17 9.5138133245045729e-17  1.5000000000000011e-01 -1.3802954405057381e-16 4.6376071465178608e-16  1.5000000000000011e-01 -6.0192099159052694e-16 1.9576951142800164e-16  1.4999999999999997e-01 6.3279982721676273e-16 3.6066740103849256e-16  1.5000000000000008e-01 7.1784856807169271e-18 -4.3358153412866638e-17  1.5000000000000002e-01 3.5197452482387343e-17 -4.2419830930754833e-16  1.4999999999999999e-01 2.9672679106279860e-16 -2.7274430280943161e-17  1.5000000000000005e-01 -3.7794092778224675e-16 -3.4807869281622788e-16  1.5000000000000002e-01 5.9509766272884840e-17 -2.8663317906428830e-16  1.5000000000000002e-01 -5.3383291540868112e-17 -1.0742233684248253e-16  1.5000000000000011e-01 -3.2855074154225285e-16 -3.6128166464090472e-16  1.5000000000000016e-01 4.2901282108030106e-16 6.0801305443832308e-17  1.5000000000000002e-01 -1.9867629580513529e-16 -7.2412884505860845e-18  1.4999999999999999e-01 5.7102129912188187e-17 -6.4042919381990253e-16  1.5000000000000002e-01 1.2091039433697767e-16 1.7467708007416788e-16  1.5000000000000005e-01 -5.0191310377353845e-17 2.9054205223318896e-16  1.5000000000000005e-01 2.3364766521313329e-16 -1.8999407381138276e-16  1.5000000000000002e-01 1.0570615465403190e-16 5.2303337338304619e-16  1.5000000000000002e-01 -1.6704336902655189e-16 4.7574446274034008e-16  1.5000000000000005e-01 -1.8177252128243565e-16 2.0697858338021361e-16  1.5000000000000005e-01 -3.3778168345467728e-17 7.6103805156247657e-16  1.5000000000000002e-01 5.5912968381629678e-18 1.9570690067700232e-16  1.5000000000000005e-01 3.2194348153386112e-18 -1.1211014112309534e-16  1.5000000000000013e-01 -1.8818475446587696e-16 6.3806194992744235e-16  1.5000000000000005e-01 2.7983035480042686e-16 3.0263500447501788e-16  1.5000000000000005e-01 1.7180391290957704e-16 -1.8111620800060537e-17  1.5000000000000002e-01 -1.4787824432774170e-16 -1.1213524219019889e-16  1.5000000000000005e-01 -2.3617135471875461e-17 -4.6133832193492180e-16  1.5000000000000005e-01 -9.5585527388950012e-17 -1.0857680684381182e-16  1.4999999999999983e-01 -1.7584428225338505e-16 -1.0890713743982107e-16  1.4999999999999999e-01 4.5485635973230668e-16 -2.2021292884914478e-16  1.5000000000000008e-01 3.5226236088188037e-16 1.3912811396