<?xml version="1.0"?>
<VTKFile type="UnstructuredGrid"  version="0.1"  >
<UnstructuredGrid>
<Piece  NumberOfPoints="10201" NumberOfCells="20000">
<Points>
<DataArray  type="Float64"  NumberOfComponents="3"  format="ascii">-5 -5 0  -4.9 -5 0  -4.8 -5 0  -4.7 -5 0  -4.6 -5 0  -4.5 -5 0  -4.4 -5 0  -4.3 -5 0  -4.2 -5 0  -4.1 -5 0  -4 -5 0  -3.9 -5 0  -3.8 -5 0  -3.7 -5 0  -3.6 -5 0  -3.5 -5 0  -3.4 -5 0  -3.3 -5 0  -3.2 -5 0  -3.1 -5 0  -3 -5 0  -2.9 -5 0  -2.8 -5 0  -2.7 -5 0  -2.6 -5 0  -2.5 -5 0  -2.4 -5 0  -2.3 -5 0  -2.2 -5 0  -2.1 -5 0  -2 -5 0  -1.9 -5 0  -1.8 -5 0  -1.7 -5 0  -1.6 -5 0  -1.5 -5 0  -1.4 -5 0  -1.3 -5 0  -1.2 -5 0  -1.1 -5 0  -1 -5 0  -0.9000000000000004 -5 0  -0.7999999999999998 -5 0  -0.7000000000000002 -5 0  -0.5999999999999996 -5 0  -0.5 -5 0  -0.4000000000000004 -5 0  -0.2999999999999998 -5 0  -0.2000000000000002 -5 0  -0.09999999999999964 -5 0  0 -5 0  0.09999999999999964 -5 0  0.2000000000000002 -5 0  0.2999999999999998 -5 0  0.4000000000000004 -5 0  0.5 -5 0  0.5999999999999996 -5 0  0.7000000000000002 -5 0  0.7999999999999998 -5 0  0.9000000000000004 -5 0  1 -5 0  1.1 -5 0  1.2 -5 0  1.3 -5 0  1.4 -5 0  1.5 -5 0  1.6 -5 0  1.7 -5 0  1.8 -5 0  1.9 -5 0  2 -5 0  2.1 -5 0  2.2 -5 0  2.3 -5 0  2.4 -5 0  2.5 -5 0  2.6 -5 0  2.7 -5 0  2.8 -5 0  2.9 -5 0  3 -5 0  3.1 -5 0  3.199999999999999 -5 0  3.300000000000001 -5 0  3.4 -5 0  3.5 -5 0  3.6 -5 0  3.699999999999999 -5 0  3.800000000000001 -5 0  3.9 -5 0  4 -5 0  4.1 -5 0  4.199999999999999 -5 0  4.300000000000001 -5 0  4.4 -5 0  4.5 -5 0  4.6 -5 0  4.699999999999999 -5 0  4.800000000000001 -5 0  4.9 -5 0  5 -5 0  -5 -4.9 0  -4.9 -4.9 0  -4.8 -4.9 0  -4.7 -4.9 0  -4.6 -4.9 0  -4.5 -4.9 0  -4.4 -4.9 0  -4.3 -4.9 0  -4.2 -4.9 0  -4.1 -4.9 0  -4 -4.9 0  -3.9 -4.9 0  -3.8 -4.9 0  -3.7 -4.9 0  -3.6 -4.9 0  -3.5 -4.9 0  -3.4 -4.9 0  -3.3 -4.9 0  -3.2 -4.9 0  -3.1 -4.9 0  -3 -4.9 0  -2.9 -4.9 0  -2.8 -4.9 0  -2.7 -4.9 0  -2.6 -4.9 0  -2.5 -4.9 0  -2.4 -4.9 0  -2.3 -4.9 0  -2.2 -4.9 0  -2.1 -4.9 0  -2 -4.9 0  -1.9 -4.9 0  -1.8 -4.9 0  -1.7 -4.9 0  -1.6 -4.9 0  -1.5 -4.9 0  -1.4 -4.9 0  -1.3 -4.9 0  -1.2 -4.9 0  -1.1 -4.9 0  -1 -4.9 0  -0.9000000000000004 -4.9 0  -0.7999999999999998 -4.9 0  -0.7000000000000002 -4.9 0  -0.5999999999999996 -4.9 0  -0.5 -4.9 0  -0.4000000000000004 -4.9 0  -0.2999999999999998 -4.9 0  -0.2000000000000002 -4.9 0  -0.09999999999999964 -4.9 0  0 -4.9 0  0.09999999999999964 -4.9 0  0.2000000000000002 -4.9 0  0.2999999999999998 -4.9 0  0.4000000000000004 -4.9 0  0.5 -4.9 0  0.5999999999999996 -4.9 0  0.7000000000000002 -4.9 0  0.7999999999999998 -4.9 0  0.9000000000000004 -4.9 0  1 -4.9 0  1.1 -4.9 0  1.2 -4.9 0  1.3 -4.9 0  1.4 -4.9 0  1.5 -4.9 0  1.6 -4.9 0  1.7 -4.9 0  1.8 -4.9 0  1.9 -4.9 0  2 -4.9 0  2.1 -4.9 0  2.2 -4.9 0  2.3 -4.9 0  2.4 -4.9 0  2.5 -4.9 0  2.6 -4.9 0  2.7 -4.9 0  2.8 -4.9 0  2.9 -4.9 0  3 -4.9 0  3.1 -4.9 0  3.199999999999999 -4.9 0  3.300000000000001 -4.9 0  3.4 -4.9 0  3.5 -4.9 0  3.6 -4.9 0  3.699999999999999 -4.9 0  3.800000000000001 -4.9 0  3.9 -4.9 0  4 -4.9 0  4.1 -4.9 0  4.199999999999999 -4.9 0  4.300000000000001 -4.9 0  4.4 -4.9 0  4.5 -4.9 0  4.6 -4.9 0  4.699999999999999 -4.9 0  4.800000000000001 -4.9 0  4.9 -4.9 0  5 -4.9 0  -5 -4.8 0  -4.9 -4.8 0  -4.8 -4.8 0  -4.7 -4.8 0  -4.6 -4.8 0  -4.5 -4.8 0  -4.4 -4.8 0  -4.3 -4.8 0  -4.2 -4.8 0  -4.1 -4.8 0  -4 -4.8 0  -3.9 -4.8 0  -3.8 -4.8 0  -3.7 -4.8 0  -3.6 -4.8 0  -3.5 -4.8 0  -3.4 -4.8 0  -3.3 -4.8 0  -3.2 -4.8 0  -3.1 -4.8 0  -3 -4.8 0  -2.9 -4.8 0  -2.8 -4.8 0  -2.7 -4.8 0  -2.6 -4.8 0  -2.5 -4.8 0  -2.4 -4.8 0  -2.3 -4.8 0  -2.2 -4.8 0  -2.1 -4.8 0  -2 -4.8 0  -1.9 -4.8 0  -1.8 -4.8 0  -1.7 -4.8 0  -1.6 -4.8 0  -1.5 -4.8 0  -1.4 -4.8 0  -1.3 -4.8 0  -1.2 -4.8 0  -1.1 -4.8 0  -1 -4.8 0  -0.9000000000000004 -4.8 0  -0.7999999999999998 -4.8 0  -0.7000000000000002 -4.8 0  -0.5999999999999996 -4.8 0  -0.5 -4.8 0  -0.4000000000000004 -4.8 0  -0.2999999999999998 -4.8 0  -0.2000000000000002 -4.8 0  -0.09999999999999964 -4.8 0  0 -4.8 0  0.09999999999999964 -4.8 0  0.2000000000000002 -4.8 0  0.2999999999999998 -4.8 0  0.4000000000000004 -4.8 0  0.5 -4.8 0  0.5999999999999996 -4.8 0  0.7000000000000002 -4.8 0  0.7999999999999998 -4.8 0  0.9000000000000004 -4.8 0  1 -4.8 0  1.1 -4.8 0  1.2 -4.8 0  1.3 -4.8 0  1.4 -4.8 0  1.5 -4.8 0  1.6 -4.8 0  1.7 -4.8 0  1.8 -4.8 0  1.9 -4.8 0  2 -4.8 0  2.1 -4.8 0  2.2 -4.8 0  2.3 -4.8 0  2.4 -4.8 0  2.5 -4.8 0  2.6 -4.8 0  2.7 -4.8 0  2.8 -4.8 0  2.9 -4.8 0  3 -4.8 0  3.1 -4.8 0  3.199999999999999 -4.8 0  3.300000000000001 -4.8 0  3.4 -4.8 0  3.5 -4.8 0  3.6 -4.8 0  3.699999999999999 -4.8 0  3.800000000000001 -4.8 0  3.9 -4.8 0  4 -4.8 0  4.1 -4.8 0  4.199999999999999 -4.8 0  4.300000000000001 -4.8 0  4.4 -4.8 0  4.5 -4.8 0  4.6 -4.8 0  4.699999999999999 -4.8 0  4.800000000000001 -4.8 0  4.9 -4.8 0  5 -4.8 0  -5 -4.7 0  -4.9 -4.7 0  -4.8 -4.7 0  -4.7 -4.7 0  -4.6 -4.7 0  -4.5 -4.7 0  -4.4 -4.7 0  -4.3 -4.7 0  -4.2 -4.7 0  -4.1 -4.7 0  -4 -4.7 0  -3.9 -4.7 0  -3.8 -4.7 0  -3.7 -4.7 0  -3.6 -4.7 0  -3.5 -4.7 0  -3.4 -4.7 0  -3.3 -4.7 0  -3.2 -4.7 0  -3.1 -4.7 0  -3 -4.7 0  -2.9 -4.7 0  -2.8 -4.7 0  -2.7 -4.7 0  -2.6 -4.7 0  -2.5 -4.7 0  -2.4 -4.7 0  -2.3 -4.7 0  -2.2 -4.7 0  -2.1 -4.7 0  -2 -4.7 0  -1.9 -4.7 0  -1.8 -4.7 0  -1.7 -4.7 0  -1.6 -4.7 0  -1.5 -4.7 0  -1.4 -4.7 0  -1.3 -4.7 0  -1.2 -4.7 0  -1.1 -4.7 0  -1 -4.7 0  -0.9000000000000004 -4.7 0  -0.7999999999999998 -4.7 0  -0.7000000000000002 -4.7 0  -0.5999999999999996 -4.7 0  -0.5 -4.7 0  -0.4000000000000004 -4.7 0  -0.2999999999999998 -4.7 0  -0.2000000000000002 -4.7 0  -0.09999999999999964 -4.7 0  0 -4.7 0  0.09999999999999964 -4.7 0  0.2000000000000002 -4.7 0  0.2999999999999998 -4.7 0  0.4000000000000004 -4.7 0  0.5 -4.7 0  0.5999999999999996 -4.7 0  0.7000000000000002 -4.7 0  0.7999999999999998 -4.7 0  0.9000000000000004 -4.7 0  1 -4.7 0  1.1 -4.7 0  1.2 -4.7 0  1.3 -4.7 0  1.4 -4.7 0  1.5 -4.7 0  1.6 -4.7 0  1.7 -4.7 0  1.8 -4.7 0  1.9 -4.7 0  2 -4.7 0  2.1 -4.7 0  2.2 -4.7 0  2.3 -4.7 0  2.4 -4.7 0  2.5 -4.7 0  2.6 -4.7 0  2.7 -4.7 0  2.8 -4.7 0  2.9 -4.7 0  3 -4.7 0  3.1 -4.7 0  3.199999999999999 -4.7 0  3.300000000000001 -4.7 0  3.4 -4.7 0  3.5 -4.7 0  3.6 -4.7 0  3.699999999999999 -4.7 0  3.800000000000001 -4.7 0  3.9 -4.7 0  4 -4.7 0  4.1 -4.7 0  4.199999999999999 -4.7 0  4.300000000000001 -4.7 0  4.4 -4.7 0  4.5 -4.7 0  4.6 -4.7 0  4.699999999999999 -4.7 0  4.800000000000001 -4.7 0  4.9 -4.7 0  5 -4.7 0  -5 -4.6 0  -4.9 -4.6 0  -4.8 -4.6 0  -4.7 -4.6 0  -4.6 -4.6 0  -4.5 -4.6 0  -4.4 -4.6 0  -4.3 -4.6 0  -4.2 -4.6 0  -4.1 -4.6 0  -4 -4.6 0  -3.9 -4.6 0  -3.8 -4.6 0  -3.7 -4.6 0  -3.6 -4.6 0  -3.5 -4.6 0  -3.4 -4.6 0  -3.3 -4.6 0  -3.2 -4.6 0  -3.1 -4.6 0  -3 -4.6 0  -2.9 -4.6 0  -2.8 -4.6 0  -2.7 -4.6 0  -2.6 -4.6 0  -2.5 -4.6 0  -2.4 -4.6 0  -2.3 -4.6 0  -2.2 -4.6 0  -2.1 -4.6 0  -2 -4.6 0  -1.9 -4.6 0  -1.8 -4.6 0  -1.7 -4.6 0  -1.6 -4.6 0  -1.5 -4.6 0  -1.4 -4.6 0  -1.3 -4.6 0  -1.2 -4.6 0  -1.1 -4.6 0  -1 -4.6 0  -0.9000000000000004 -4.6 0  -0.7999999999999998 -4.6 0  -0.7000000000000002 -4.6 0  -0.5999999999999996 -4.6 0  -0.5 -4.6 0  -0.4000000000000004 -4.6 0  -0.2999999999999998 -4.6 0  -0.2000000000000002 -4.6 0  -0.09999999999999964 -4.6 0  0 -4.6 0  0.09999999999999964 -4.6 0  0.2000000000000002 -4.6 0  0.2999999999999998 -4.6 0  0.4000000000000004 -4.6 0  0.5 -4.6 0  0.5999999999999996 -4.6 0  0.7000000000000002 -4.6 0  0.7999999999999998 -4.6 0  0.9000000000000004 -4.6 0  1 -4.6 0  1.1 -4.6 0  1.2 -4.6 0  1.3 -4.6 0  1.4 -4.6 0  1.5 -4.6 0  1.6 -4.6 0  1.7 -4.6 0  1.8 -4.6 0  1.9 -4.6 0  2 -4.6 0  2.1 -4.6 0  2.2 -4.6 0  2.3 -4.6 0  2.4 -4.6 0  2.5 -4.6 0  2.6 -4.6 0  2.7 -4.6 0  2.8 -4.6 0  2.9 -4.6 0  3 -4.6 0  3.1 -4.6 0  3.199999999999999 -4.6 0  3.300000000000001 -4.6 0  3.4 -4.6 0  3.5 -4.6 0  3.6 -4.6 0  3.699999999999999 -4.6 0  3.800000000000001 -4.6 0  3.9 -4.6 0  4 -4.6 0  4.1 -4.6 0  4.199999999999999 -4.6 0  4.300000000000001 -4.6 0  4.4 -4.6 0  4.5 -4.6 0  4.6 -4.6 0  4.699999999999999 -4.6 0  4.800000000000001 -4.6 0  4.9 -4.6 0  5 -4.6 0  -5 -4.5 0  -4.9 -4.5 0  -4.8 -4.5 0  -4.7 -4.5 0  -4.6 -4.5 0  -4.5 -4.5 0  -4.4 -4.5 0  -4.3 -4.5 0  -4.2 -4.5 0  -4.1 -4.5 0  -4 -4.5 0  -3.9 -4.5 0  -3.8 -4.5 0  -3.7 -4.5 0  -3.6 -4.5 0  -3.5 -4.5 0  -3.4 -4.5 0  -3.3 -4.5 0  -3.2 -4.5 0  -3.1 -4.5 0  -3 -4.5 0  -2.9 -4.5 0  -2.8 -4.5 0  -2.7 -4.5 0  -2.6 -4.5 0  -2.5 -4.5 0  -2.4 -4.5 0  -2.3 -4.5 0  -2.2 -4.5 0  -2.1 -4.5 0  -2 -4.5 0  -1.9 -4.5 0  -1.8 -4.5 0  -1.7 -4.5 0  -1.6 -4.5 0  -1.5 -4.5 0  -1.4 -4.5 0  -1.3 -4.5 0  -1.2 -4.5 0  -1.1 -4.5 0  -1 -4.5 0  -0.9000000000000004 -4.5 0  -0.7999999999999998 -4.5 0  -0.7000000000000002 -4.5 0  -0.5999999999999996 -4.5 0  -0.5 -4.5 0  -0.4000000000000004 -4.5 0  -0.2999999999999998 -4.5 0  -0.2000000000000002 -4.5 0  -0.09999999999999964 -4.5 0  0 -4.5 0  0.09999999999999964 -4.5 0  0.2000000000000002 -4.5 0  0.2999999999999998 -4.5 0  0.4000000000000004 -4.5 0  0.5 -4.5 0  0.5999999999999996 -4.5 0  0.7000000000000002 -4.5 0  0.7999999999999998 -4.5 0  0.9000000000000004 -4.5 0  1 -4.5 0  1.1 -4.5 0  1.2 -4.5 0  1.3 -4.5 0  1.4 -4.5 0  1.5 -4.5 0  1.6 -4.5 0  1.7 -4.5 0  1.8 -4.5 0  1.9 -4.5 0  2 -4.5 0  2.1 -4.5 0  2.2 -4.5 0  2.3 -4.5 0  2.4 -4.5 0  2.5 -4.5 0  2.6 -4.5 0  2.7 -4.5 0  2.8 -4.5 0  2.9 -4.5 0  3 -4.5 0  3.1 -4.5 0  3.199999999999999 -4.5 0  3.300000000000001 -4.5 0  3.4 -4.5 0  3.5 -4.5 0  3.6 -4.5 0  3.699999999999999 -4.5 0  3.800000000000001 -4.5 0  3.9 -4.5 0  4 -4.5 0  4.1 -4.5 0  4.199999999999999 -4.5 0  4.300000000000001 -4.5 0  4.4 -4.5 0  4.5 -4.5 0  4.6 -4.5 0  4.699999999999999 -4.5 0  4.800000000000001 -4.5 0  4.9 -4.5 0  5 -4.5 0  -5 -4.4 0  -4.9 -4.4 0  -4.8 -4.4 0  -4.7 -4.4 0  -4.6 -4.4 0  -4.5 -4.4 0  -4.4 -4.4 0  -4.3 -4.4 0  -4.2 -4.4 0  -4.1 -4.4 0  -4 -4.4 0  -3.9 -4.4 0  -3.8 -4.4 0  -3.7 -4.4 0  -3.6 -4.4 0  -3.5 -4.4 0  -3.4 -4.4 0  -3.3 -4.4 0  -3.2 -4.4 0  -3.1 -4.4 0  -3 -4.4 0  -2.9 -4.4 0  -2.8 -4.4 0  -2.7 -4.4 0  -2.6 -4.4 0  -2.5 -4.4 0  -2.4 -4.4 0  -2.3 -4.4 0  -2.2 -4.4 0  -2.1 -4.4 0  -2 -4.4 0  -1.9 -4.4 0  -1.8 -4.
[...]
<PointData  Vectors="f_17"> 
<DataArray  type="Float64"  Name="f_17"  NumberOfComponents="3" format="ascii">1.5000032873675573e-01 0.0000000000000000e+00 0.0000000000000000e+00  1.5000008520728061e-01 -7.8805126224328093e-07 0.0000000000000000e+00  1.5000068491885768e-01 -3.6786980923748164e-07 0.0000000000000000e+00  1.5000090926073142e-01 -1.9226802975066140e-06 0.0000000000000000e+00  1.5000201667490165e-01 -2.0737737046426183e-06 0.0000000000000000e+00  1.5000300741522557e-01 -4.1926561036669794e-06 0.0000000000000000e+00  1.5000480253254725e-01 -4.5589449827734974e-06 0.0000000000000000e+00  1.5000611067790565e-01 -5.4339152295944272e-06 0.0000000000000000e+00  1.5000709513458260e-01 -2.1482129982089693e-06 0.0000000000000000e+00  1.5000566748351804e-01 4.3593035393458344e-06 0.0000000000000000e+00  1.5000121773102990e-01 1.7869982629624717e-05 0.0000000000000000e+00  1.4999242762725359e-01 3.5634392697723573e-05 0.0000000000000000e+00  1.4998052172039952e-01 5.4725295030072945e-05 0.0000000000000000e+00  1.4996776818004670e-01 6.5115588057589632e-05 0.0000000000000000e+00  1.4995925656157916e-01 5.9870713112171684e-05 0.0000000000000000e+00  1.4995865840452771e-01 3.4961048075822904e-05 0.0000000000000000e+00  1.4996645324514199e-01 -3.2662697920528973e-06 0.0000000000000000e+00  1.4997894068663883e-01 -4.0413715651398908e-05 0.0000000000000000e+00  1.4999058585837569e-01 -6.0387828855133348e-05 0.0000000000000000e+00  1.4999601163416101e-01 -5.9330213066797173e-05 0.0000000000000000e+00  1.4999467655137427e-01 -4.4028374957675104e-05 0.0000000000000000e+00  1.4999079213103708e-01 -2.3072409259335069e-05 0.0000000000000000e+00  1.4998772042373498e-01 -5.8565678535703803e-06 0.0000000000000000e+00  1.4998717349253562e-01 -3.0091134087983892e-06 0.0000000000000000e+00  1.4999215119098641e-01 -1.2730987469039123e-05 0.0000000000000000e+00  1.5000013816102428e-01 -1.6590400793954478e-05 0.0000000000000000e+00  1.5000091769553284e-01 -2.6893957735014993e-06 0.0000000000000000e+00  1.4999387321770424e-01 1.4898165425659394e-05 0.0000000000000000e+00  1.4999279903634943e-01 1.2970577747134952e-05 0.0000000000000000e+00  1.5000145240406812e-01 -6.1715660518788375e-06 0.0000000000000000e+00  1.5000573198449493e-01 -1.2077208543315681e-05 0.0000000000000000e+00  1.4999928419785957e-01 6.9712356239577982e-06 0.0000000000000000e+00  1.4999417058216663e-01 1.5844340548866606e-05 0.0000000000000000e+00  1.4999984885354592e-01 -8.0776439771452138e-06 0.0000000000000000e+00  1.5000758936813677e-01 -2.1455329946444461e-05 0.0000000000000000e+00  1.5000322373826575e-01 8.2278319386253532e-06 0.0000000000000000e+00  1.4999212202561399e-01 2.7050399490238833e-05 0.0000000000000000e+00  1.4999476806287482e-01 -6.1712430081895775e-06 0.0000000000000000e+00  1.5000824656668635e-01 -2.8661505283270007e-05 0.0000000000000000e+00  1.5000658691514679e-01 4.6288684028108208e-06 0.0000000000000000e+00  1.4999253729365963e-01 2.6593422673725099e-05 0.0000000000000000e+00  1.4999402307099946e-01 -3.8006759386765566e-06 0.0000000000000000e+00  1.5000604557905456e-01 -2.0883864675037662e-05 0.0000000000000000e+00  1.5000399785786975e-01 4.2030734658700810e-06 0.0000000000000000e+00  1.4999594087618484e-01 1.3455765640769096e-05 0.0000000000000000e+00  1.4999828504884991e-01 -4.7583688881006731e-06 0.0000000000000000e+00  1.5000171745558749e-01 -6.0594391609126658e-06 0.0000000000000000e+00  1.5000022112245623e-01 4.2969556355766895e-06 0.0000000000000000e+00  1.5000056276092003e-01 1.0874328784853383e-07 0.0000000000000000e+00  1.5000000139464761e-01 -2.3658259278146377e-06 0.0000000000000000e+00  1.4999786107880156e-01 3.4635661397866135e-06 0.0000000000000000e+00  1.5000082429028902e-01 -5.0211027752543289e-07 0.0000000000000000e+00  1.5000253272575026e-01 -4.3355575384983327e-06 0.0000000000000000e+00  1.4999803724848804e-01 3.1770910807058451e-06 0.0000000000000000e+00  1.4999823283095831e-01 2.9806094587540382e-06 0.0000000000000000e+00  1.5000261481581764e-01 -4.5742041137439280e-06 0.0000000000000000e+00  1.5000038912444791e-01 -5.4625798120434967e-07 0.0000000000000000e+00  1.4999762309803483e-01 4.2415219773664963e-06 0.0000000000000000e+00  1.5000083655275129e-01 -1.6198398592631636e-06 0.0000000000000000e+00  1.5000142016719498e-01 -2.5801966240826627e-06 0.0000000000000000e+00  1.4999863590916465e-01 2.5810176421847673e-06 0.0000000000000000e+00  1.4999969923559595e-01 5.6873877937985035e-07 0.0000000000000000e+00  1.5000113509236868e-01 -2.2009907420869177e-06 0.0000000000000000e+00  1.4999955758917949e-01 8.3654141771723696e-07 0.0000000000000000e+00  1.4999949066744256e-01 1.0542543809067987e-06 0.0000000000000000e+00  1.5000060482699501e-01 -1.2069556248276719e-06 0.0000000000000000e+00  1.4999995496943866e-01 3.2529698977744071e-08 0.0000000000000000e+00  1.4999963891596585e-01 7.8276630904629196e-07 0.0000000000000000e+00  1.5000026740426078e-01 -5.3274033267586694e-07 0.0000000000000000e+00  1.5000004516169940e-01 -1.5073252622599305e-07 0.0000000000000000e+00  1.4999980190264106e-01 4.4924074662180040e-07 0.0000000000000000e+00  1.5000011588889192e-01 -2.3000668260821186e-07 0.0000000000000000e+00  1.5000003253356442e-01 -1.0552417456732273e-07 0.0000000000000000e+00  1.4999990858873236e-01 2.1243489105738125e-07 0.0000000000000000e+00  1.5000004852739587e-01 -8.7811189301153871e-08 0.0000000000000000e+00  1.5000001867852075e-01 -7.2834865743354000e-08 0.0000000000000000e+00  1.4999995242054345e-01 1.2666043603474655e-07 0.0000000000000000e+00  1.5000003331631553e-01 -7.6898550801467804e-08 0.0000000000000000e+00  1.4999999457945404e-01 4.9749734795423466e-09 0.0000000000000000e+00  1.4999998966727163e-01 2.6741477979854017e-08 0.0000000000000000e+00  1.5000000831643434e-01 -1.1545031372019499e-08 0.0000000000000000e+00  1.5000000299842367e-01 -2.2981311982457682e-08 0.0000000000000000e+00  1.4999998657264421e-01 4.9635085905442888e-08 0.0000000000000000e+00  1.5000001814166908e-01 -5.8868047873744753e-08 0.0000000000000000e+00  1.4999998211487259e-01 5.6392975697273508e-08 0.0000000000000000e+00  1.5000001595945667e-01 -5.2853318094327586e-08 0.0000000000000000e+00  1.4999998466505801e-01 5.5588434550766849e-08 0.0000000000000000e+00  1.5000001721492329e-01 -6.5765201405968765e-08 0.0000000000000000e+00  1.4999997901218762e-01 7.9669278430018391e-08 0.0000000000000000e+00  1.5000002501142670e-01 -9.1761851298156220e-08 0.0000000000000000e+00  1.4999997237796814e-01 9.7566498784106004e-08 0.0000000000000000e+00  1.5000002786758618e-01 -9.5264016277909939e-08 0.0000000000000000e+00  1.4999997423349984e-01 8.5846169430068238e-08 0.0000000000000000e+00  1.5000002196190340e-01 -7.1870270114110142e-08 0.0000000000000000e+00  1.4999998237589901e-01 5.6720021706988263e-08 0.0000000000000000e+00  1.5000001308958955e-01 -4.2056534520859480e-08 0.0000000000000000e+00  1.4999998998596953e-01 3.0536340417050263e-08 0.0000000000000000e+00  1.5000000630831162e-01 -1.9978532794317782e-08 0.0000000000000000e+00  1.4999999393367341e-01 1.3480785247876793e-08 0.0000000000000000e+00  1.5000000252484766e-01 -6.3644377050561503e-09 0.0000000000000000e+00  1.4999999406523287e-01 0.0000000000000000e+00 0.0000000000000000e+00  1.5000008520728059e-01 0.0000000000000000e+00 -7.8805126222536248e-07  1.4999964215109837e-01 1.6835760256681776e-08 1.6835760748029062e-08  1.4999971203044682e-01 1.0292204856819159e-06 -1.0099468553185846e-06  1.4999900277333469e-01 8.0122157395817866e-07 -1.2055946394732713e-06  1.4999856700199429e-01 2.5925875584322747e-06 -2.8031429878445440e-06  1.4999716236365293e-01 2.9525313143678922e-06 -3.9945501120556671e-06  1.4999594616059350e-01 5.1314389490001917e-06 -6.5485196265678897e-06  1.4999402873599244e-01 5.0655715110502773e-06 -8.1547116807389092e-06  1.4999303838440728e-01 4.6382432308448021e-06 -9.8632005930351957e-06  1.4999295603082019e-01 -1.1066511652974559e-06 -8.5419765859016664e-06  1.4999613337053477e-01 -1.0788066917071226e-05 -4.6188858655608119e-06  1.5000263753540044e-01 -2.7438856327504827e-05 3.9453798057586102e-06  1.5001315493227182e-01 -4.6019075654143595e-05 1.4051919419408486e-05  1.5002526116831477e-01 -6.1400471029612235e-05 2.3549614068377531e-05  1.5003575959666932e-01 -6.3226325990904580e-05 2.6213913657117121e-05  1.5003971257121718e-01 -4.7720788490738519e-05 1.9607879661561550e-05  1.5003580559738586e-01 -1.5413070679086163e-05 4.9549004532325203e-06  1.5002592457192965e-01 2.2342632058167639e-05 -9.4721470363992188e-06  1.5001479854335101e-01 5.0154016189874319e-05 -1.6315960794029669e-05  1.5000731995914529e-01 5.8019610259773102e-05 -1.1589559901604261e-05  1.5000630157000178e-01 4.9847191384094342e-05 8.4469275729228844e-07  1.5000907347236273e-01 3.3242679213179560e-05 1.2279347480462324e-05  1.5001169068502224e-01 1.5089511483420355e-05 1.6948472660277458e-05  1.5001301961077423e-01 5.3672525437700806e-06 1.6432000503913583e-05  1.5001118459600279e-01 9.7631010965034488e-06 1.1603382860711925e-05  1.5000440145172572e-01 1.6335940259320099e-05 3.9830962816993566e-06  1.4999945455180297e-01 9.2499801110024732e-06 3.4308719746069044e-06  1.5000341532097947e-01 -7.1699318522250936e-06 1.3106164917276044e-05  1.5000791172974109e-01 -1.3527743561304131e-05 1.5091047062622896e-05  1.5000244463261272e-01 -2.2217270043600182e-06 1.0189813719762597e-07  1.4999512491410841e-01 9.7892644479876632e-06 -9.6441386932692525e-06  1.4999773142603401e-01 2.1476271780106702e-06 1.0388451847507801e-06  1.5000429567395326e-01 -1.2937074571025421e-05 1.0715137139080202e-05  1.5000296239237709e-01 -3.9833029153593996e-06 3.3769179076291631e-07  1.4999544384235827e-01 1.7540489652101690e-05 -1.2486384095547337e-05  1.4999398147056722e-01 7.1899747507643920e-06 -4.7825619852728278e-06  1.5000288162288278e-01 -2.1755824539209494e-05 1.1611412583557045e-05  1.5000792667926108e-01 -1.1581540615987166e-05 8.1916083510304042e-06  1.4999808326338251e-01 2.2385850623854621e-05 -1.0397159235494762e-05  1.4999050183887486e-01 1.3548969342302774e-05 -1.0959295320505703e-05  1.5000080120119100e-01 -2.0785925099151202e-05 7.5477987153677441e-06  1.5000911235712641e-01 -1.3088009192325911e-05 1.0865970323510973e-05  1.4999956145189597e-01 1.7019622881120100e-05 -4.3381465335062302e-06  1.4999278430463511e-01 9.8717815593973980e-06 -8.5483213951378408e-06  1.5000044550258704e-01 -1.2561241691874036e-05 1.1177227694274730e-06  1.5000451796878914e-01 -5.4972817032384424e-06 5.5302649009292743e-06  1.4999973588713278e-01 8.0443769876444414e-06 1.9357158173084645e-06  1.4999801464192836e-01 1.6223276792586278e-06 -3.4870180430212874e-06  1.4999953102447156e-01 -3.8080967242357902e-06 -4.5319630285981367e-06  1.5000035358104966e-01 6.5425598818392827e-07 3.1819478871992778e-06  1.5000152382370097e-01 2.2699832196672800e-07 5.9221812425821168e-06  1.5000005365263414e-01 -1.0677032644649139e-06 -4.3348282153872244e-06  1.4999767789006743e-01 2.1814564228525750e-06 -5.4755815574681547e-06  1.5000052162151831e-01 6.7435307321387326e-08 5.8284914144900566e-06  1.5000237174058464e-01 -3.0519622884451837e-06 3.2845047655118289e-06  1.4999858654845713e-01 1.4411210245595812e-06 -6.3763410763355332e-06  1.4999839150706215e-01 2.4618723806154078e-06 -2.9214309144879825e-07  1.5000192967757811e-01 -2.5141029783025769e-06 5.3254459343056178e-06  1.5000043919682127e-01 -9.9563831247484128e-07 -2.1596921427147996e-06  1.4999826205804684e-01 2.6015673825517372e-06 -3.0300028790745958e-06  1.5000054028336796e-01 -4.9408771043819826e-07 3.1070234485819536e-06  1.5000099966902886e-01 -1.7721842966761622e-06 5.6281883203283709e-07  1.4999906877033506e-01 1.3188609364759977e-06 -2.4943306005532819e-06  1.4999982557187413e-01 5.7334879074190646e-07 1.0242105669761681e-06  1.5000073771241443e-01 -1.2717111589532910e-06 1.0858871174372945e-06  1.4999967354912194e-01 3.4709320633065572e-07 -1.3415984934431746e-06  1.4999971810948329e-01 6.6218851155418965e-07 1.3255475948799221e-07  1.5000038967464890e-01 -6.4689344400503078e-07 7.8029204596759391e-07  1.4999992430134096e-01 -2.6374697739037195e-08 -6.0753948309346879e-07  1.4999980591019269e-01 4.4729084900896938e-07 -7.2094486354511902e-08  1.5000018352976369e-01 -2.9803580291006872e-07 4.3124244779581787e-07  1.4999998423131602e-01 -6.4038369485970710e-08 -2.7402502232203263e-07  1.4999990485688774e-01 2.2149983733414357e-07 -5.4014402397586418e-08  1.5000007707624452e-01 -1.1151244855215031e-07 2.0489235552632472e-07  1.5000000053370002e-01 -6.5998065486346854e-08 -1.2682249800233276e-07  1.4999994996393401e-01 1.3640504945986679e-07 -2.4595313600042799e-08  1.5000004579103438e-01 -8.7702968771460619e-08 1.0389197747279563e-07  1.4999998494126579e-01 8.0710940769003959e-09 -8.3069522301066772e-08  1.4999999185430957e-01 2.9036461340793520e-08 1.8597224296243933e-08  1.5000001100165586e-01 -1.3595594646031353e-08 2.7428655579406534e-08  1.4999999984966686e-01 -2.3679497960155044e-08 -3.2047628260312459e-08  1.4999998754155033e-01 5.2104698023637274e-08 8.5068947428239386e-09  1.5000001959778403e-01 -6.1201578243550413e-08 1.8290675026086928e-08  1.4999997943315949e-01 5.7446331227694639e-08 -3.1876913700283063e-08  1.5000001841280178e-01 -5.2311531157067846e-08 3.0288639245664140e-08  1.4999998334012929e-01 5.3421107370789153e-08 -2.1416152875087205e-08  1.5000001732417728e-01 -6.1877062290898833e-08 1.4903320368726208e-08  1.4999997962184000e-01 7.3829177637865916e-08 -1.6181604466726564e-08  1.5000002429473530e-01 -8.3654663200264859e-08 2.4807933429910915e-08  1.4999997286389907e-01 8.6919374947786741e-08 -3.6373187336379171e-08  1.5000002757672498e-01 -8.2071597904152815e-08 4.5785850948628464e-08  1.4999997461295581e-01 7.0504787376064196e-08 -4.9823409023787428e-08  1.5000002130392248e-01 -5.5424682097255787e-08 4.8007388913564929e-08  1.4999998357614017e-01 4.0109975072156992e-08 -4.1800122144456535e-08  1.5000001190956647e-01 -2.7206561870891201e-08 3.3801003866325860e-08  1.4999999203537479e-01 1.7125558583990239e-08 -2.5215129432704067e-08  1.5000000567744262e-01 -1.0993643862427863e-08 1.9066275533841792e-08  1.4999999706262762e-01 5.9062215343594957e-09 -1.1759871197276018e-08  1.5000000319397738e-01 -4.6474208565153893e-09 1.0542258489288212e-08  1.5000000003570949e-01 2.6664246671164450e-09 -2.6664238164917203e-09  1.5000000252484744e-01 0.0000000000000000e+00 6.3644380316779261e-09  1.5000068491885762e-01 0.0000000000000000e+00 -3.6786980855984337e-07  1.4999971203044687e-01 -1.0099468545150845e-06 1.0292204854877094e-06  1.5000076493813189e-01 4.3428359489678153e-07 4.3428359637632394e-07  1.5000038757109582e-01 -2.2430987372037107e-06 2.5750680139266841e-06  1.5000181008308908e-01 -7.8498895806286061e-07 3.1313596618688549e-06  1.5000212154330625e-01 -4.4976767271501138e-06 6.9834157380802132e-06  1.5000441227821226e-01 -3.5164262516052744e-06 9.4429289624209361e-06  1.5000548970366362e-01 -7.2644623315900418e-06 1.5001321898265023e-05  1.5000794999132569e-01 -4.9335240778814592e-06 1.7596039348929801e-05  1.5000807180627659e-01 -4.1014832950094475e-06 2.0521320605647427e-05  1.5000736440719439e-01 5.9347206500028980e-06 1.6212964053233239e-05  1.5000193668543479e-01 1.7847996097172136e-05 7.4753590174473532e-06  1.4999391145124982e-01 3.8301261054813364e-05 -9.6824340753044718e-06  1.4998213987477957e-01 5.5429222375298894e-05 -2.7180149552430560e-05  1.4997130882026383e-01 6.6156479893413522e-05 -4.1799996847529331e-05  1.4996416576011035e-01 5.8275489003053321e-05 -4.1505087774982889e-05  1.4996515178254791e-01 3.4440434308157474e-05 -2.6058881819959101e-05  1.4997203813335724e-01 -2.4906349150872745e-06 -1.0150704872523273e-06  1.4998180380421611e-01 -3.5864216860154123e-05 1.7978949109110284e-05  1.4998947007578178e-01 -5.3449138612576376e-05 2.2316139928311493e-05  1.4999213810766138e-01 -5.2223702730886121e-05 8.7792287628172713e-06  1.4998994620304160e-01 -4.1272319467460631e-05 -1.1934259984424720e-05  1.4998741896287132e-01 -2.5010504583945664e-05 -2.6159815715277763e-05  1.4998599792367112e-01 -1.0168450665627483e-05 -3.1138948050062465e-05  1.4998561898091006e-01 -7.7083612225393507e-06 -3.1355881819347896e-05  1.4998962209843827e-01 -1.6181608646276631e-05 -2.2016676396248020e-05  1.4999692256430791e-01 -1.6353599984346328e-05 -8.9578902787504355e-06  1.4999740373249160e-01 -1.1522615970773590e-06 -1.4483849748611235e-05  1.4999134068727263e-01 1.1890387486804915e-05 -3.0649355913099927e-05  1.4999309868934621e-01 6.9979673212122911e-06 -1.9757556710452440e-05  1.5000295237475833e-01 -7.0580908395499426e-06 1.0199667476533816e-05  1.5000470365829860e-01 -7.7307161059381540e-06 1.1328689981785544e-05  1.4999716149296560e-01 8.1437942024092090e-06 -1.2891299955877054e-05  1.4999522980753385e-01 1.1671208827527533e-05 -1.3940811012085827e-05  1.5000225150742497e-01 -1.0289755342004207e-05 1.1651019720460625e-05  1.5000681483736769e-01 -1.7994198755481001e-05 2.0104181516522620e-05  1.5000116042313952e-01 1.1282094153980060e-05 -3.8431411351962943e-06  1.4999275751219551e-01 2.4630186185759775e-05 -2.2375578342184275e-05  1.4999637134736227e-01 -9.3299245887632428e-06 -2.7918577421149205e-06  1.5000799258248645e-01 -2.7145115083563442e-05 2.4005167983163381e-05  1.5000594584986793e-01 7.2521185809092582e-06 9.6611327245711266e-06  1.4999265609983847e-01 2.6078536388954727e-05 -2.0955237422925018e-05  1.4999359403111928e-01 -4.9633490255480412e-06 -1.2783124674711587e-05  1.5000595773892064e-01 -2.1153230972319174e-05 1.5115654372673191e-05  1.5000548992707455e-01 3.6304788969314545e-06 1.2972303204376300e-05  1.4999593628297270e-01 1.4541880422375167e-05 -8.2852405007410918e-06  1.4999589744997555e-01 -2.7364982064016389e-06 -1.2291287844630167e-05  1.5000210661605926e-01 -8.1450134508090726e-06 2.6102910676804191e-06  1.5000318966299050e-01 1.5642813425057478e-06 1.2612787704550528e-05  1.4999946323614707e-01 3.2941439505301557e-06 4.2363027496242152e-07  1.4999699031168681e-01 1.4676228507625901e-07 -1.3765504956825607e-05  1.4999983095139099e-01 -5.9105487883248796e-07 -2.1696759583846164e-08  1.5000321692419061e-01 -1.9562697642916773e-06 1.4233171078523526e-05  1.4999988438775708e-01 -1.4476586477217955e-08 -3.1099009445881095e-06  1.4999680507351007e-01 3.1294848186560889e-06 -1.2449788493723668e-05  1.5000100951611639e-01 -8.0280903725018571e-07 6.8692881794086003e-06  1.5000252495449845e-01 -3.1428112593117971e-06 8.0920796026979902e-06  1.4999816657239978e-01 2.0004496225572458e-06 -8.9011014022078924e-06  1.4999870717668773e-01 2.0373808279478364e-06 -2.5264140458125114e-06  1.5000202691141082e-01 -2.6290638651417112e-06 7.9814262351518458e-06  1.5000000590821061e-01 -4.3492331907459459e-07 -2.0382365618408536e-06  1.4999850528391048e-01 2.2874435354513237e-06 -4.7230117781483346e-06  1.5000079233594393e-01 -8.5671330450762088e-07 3.9947756554477735e-06  1.5000060176231428e-01 -1.2237137220363242e-06 1.0105307038900207e-06  1.4999911088263071e-01 1.3077959448397185e-06 -3.3023809453265326e-06  1.5000013398735734e-01 8.6821651205887994e-08 1.3396537914905001e-06  1.5000049685108413e-01 -9.4258730856276710e-07 1.3199930823726773e-06  1.4999959674118107e-01 5.2296082006981984e-07 -1.7284422724198027e-06  1.4999994918789691e-01 3.0086044991883111e-07 3.2270493534686640e-07  1.5000029313264232e-01 -5.6764703910556798e-07 8.7077875741804073e-07  1.4999981502005452e-01 2.3196874475317940e-07 -8.3709764091616281e-07  1.4999996647746175e-01 1.5904556469855748e-07 9.3825913098669066e-08  1.5000012662107354e-01 -2.2662551169128009e-07 4.2980932575917127e-07  1.4999993227832689e-01 3.5155163550060319e-08 -3.8234747067646414e-07  1.4999996702763771e-01 1.5524873734153505e-07 3.2491232791084652e-08  1.5000008110989679e-01 -1.9499707165857421e-07 2.2536384920953778e-07  1.4999993570885306e-01 1.1730698928675533e-07 -2.3651156409809372e-07  1.5000002262058967e-01 -2.9761451368049513e-08 9.4097990697644079e-08  1.5000000445476538e-01 1.1557356786608117e-09 4.026606731369351