<?xml version="1.0"?>
<VTKFile type="UnstructuredGrid"  version="0.1"  >
<UnstructuredGrid>
<Piece  NumberOfPoints="10201" NumberOfCells="20000">
<Points>
<DataArray  type="Float64"  NumberOfComponents="3"  format="ascii">-5 -5 0  -4.9 -5 0  -4.8 -5 0  -4.7 -5 0  -4.6 -5 0  -4.5 -5 0  -4.4 -5 0  -4.3 -5 0  -4.2 -5 0  -4.1 -5 0  -4 -5 0  -3.9 -5 0  -3.8 -5 0  -3.7 -5 0  -3.6 -5 0  -3.5 -5 0  -3.4 -5 0  -3.3 -5 0  -3.2 -5 0  -3.1 -5 0  -3 -5 0  -2.9 -5 0  -2.8 -5 0  -2.7 -5 0  -2.6 -5 0  -2.5 -5 0  -2.4 -5 0  -2.3 -5 0  -2.2 -5 0  -2.1 -5 0  -2 -5 0  -1.9 -5 0  -1.8 -5 0  -1.7 -5 0  -1.6 -5 0  -1.5 -5 0  -1.4 -5 0  -1.3 -5 0  -1.2 -5 0  -1.1 -5 0  -1 -5 0  -0.9000000000000004 -5 0  -0.7999999999999998 -5 0  -0.7000000000000002 -5 0  -0.5999999999999996 -5 0  -0.5 -5 0  -0.4000000000000004 -5 0  -0.2999999999999998 -5 0  -0.2000000000000002 -5 0  -0.09999999999999964 -5 0  0 -5 0  0.09999999999999964 -5 0  0.2000000000000002 -5 0  0.2999999999999998 -5 0  0.4000000000000004 -5 0  0.5 -5 0  0.5999999999999996 -5 0  0.7000000000000002 -5 0  0.7999999999999998 -5 0  0.9000000000000004 -5 0  1 -5 0  1.1 -5 0  1.2 -5 0  1.3 -5 0  1.4 -5 0  1.5 -5 0  1.6 -5 0  1.7 -5 0  1.8 -5 0  1.9 -5 0  2 -5 0  2.1 -5 0  2.2 -5 0  2.3 -5 0  2.4 -5 0  2.5 -5 0  2.6 -5 0  2.7 -5 0  2.8 -5 0  2.9 -5 0  3 -5 0  3.1 -5 0  3.199999999999999 -5 0  3.300000000000001 -5 0  3.4 -5 0  3.5 -5 0  3.6 -5 0  3.699999999999999 -5 0  3.800000000000001 -5 0  3.9 -5 0  4 -5 0  4.1 -5 0  4.199999999999999 -5 0  4.300000000000001 -5 0  4.4 -5 0  4.5 -5 0  4.6 -5 0  4.699999999999999 -5 0  4.800000000000001 -5 0  4.9 -5 0  5 -5 0  -5 -4.9 0  -4.9 -4.9 0  -4.8 -4.9 0  -4.7 -4.9 0  -4.6 -4.9 0  -4.5 -4.9 0  -4.4 -4.9 0  -4.3 -4.9 0  -4.2 -4.9 0  -4.1 -4.9 0  -4 -4.9 0  -3.9 -4.9 0  -3.8 -4.9 0  -3.7 -4.9 0  -3.6 -4.9 0  -3.5 -4.9 0  -3.4 -4.9 0  -3.3 -4.9 0  -3.2 -4.9 0  -3.1 -4.9 0  -3 -4.9 0  -2.9 -4.9 0  -2.8 -4.9 0  -2.7 -4.9 0  -2.6 -4.9 0  -2.5 -4.9 0  -2.4 -4.9 0  -2.3 -4.9 0  -2.2 -4.9 0  -2.1 -4.9 0  -2 -4.9 0  -1.9 -4.9 0  -1.8 -4.9 0  -1.7 -4.9 0  -1.6 -4.9 0  -1.5 -4.9 0  -1.4 -4.9 0  -1.3 -4.9 0  -1.2 -4.9 0  -1.1 -4.9 0  -1 -4.9 0  -0.9000000000000004 -4.9 0  -0.7999999999999998 -4.9 0  -0.7000000000000002 -4.9 0  -0.5999999999999996 -4.9 0  -0.5 -4.9 0  -0.4000000000000004 -4.9 0  -0.2999999999999998 -4.9 0  -0.2000000000000002 -4.9 0  -0.09999999999999964 -4.9 0  0 -4.9 0  0.09999999999999964 -4.9 0  0.2000000000000002 -4.9 0  0.2999999999999998 -4.9 0  0.4000000000000004 -4.9 0  0.5 -4.9 0  0.5999999999999996 -4.9 0  0.7000000000000002 -4.9 0  0.7999999999999998 -4.9 0  0.9000000000000004 -4.9 0  1 -4.9 0  1.1 -4.9 0  1.2 -4.9 0  1.3 -4.9 0  1.4 -4.9 0  1.5 -4.9 0  1.6 -4.9 0  1.7 -4.9 0  1.8 -4.9 0  1.9 -4.9 0  2 -4.9 0  2.1 -4.9 0  2.2 -4.9 0  2.3 -4.9 0  2.4 -4.9 0  2.5 -4.9 0  2.6 -4.9 0  2.7 -4.9 0  2.8 -4.9 0  2.9 -4.9 0  3 -4.9 0  3.1 -4.9 0  3.199999999999999 -4.9 0  3.300000000000001 -4.9 0  3.4 -4.9 0  3.5 -4.9 0  3.6 -4.9 0  3.699999999999999 -4.9 0  3.800000000000001 -4.9 0  3.9 -4.9 0  4 -4.9 0  4.1 -4.9 0  4.199999999999999 -4.9 0  4.300000000000001 -4.9 0  4.4 -4.9 0  4.5 -4.9 0  4.6 -4.9 0  4.699999999999999 -4.9 0  4.800000000000001 -4.9 0  4.9 -4.9 0  5 -4.9 0  -5 -4.8 0  -4.9 -4.8 0  -4.8 -4.8 0  -4.7 -4.8 0  -4.6 -4.8 0  -4.5 -4.8 0  -4.4 -4.8 0  -4.3 -4.8 0  -4.2 -4.8 0  -4.1 -4.8 0  -4 -4.8 0  -3.9 -4.8 0  -3.8 -4.8 0  -3.7 -4.8 0  -3.6 -4.8 0  -3.5 -4.8 0  -3.4 -4.8 0  -3.3 -4.8 0  -3.2 -4.8 0  -3.1 -4.8 0  -3 -4.8 0  -2.9 -4.8 0  -2.8 -4.8 0  -2.7 -4.8 0  -2.6 -4.8 0  -2.5 -4.8 0  -2.4 -4.8 0  -2.3 -4.8 0  -2.2 -4.8 0  -2.1 -4.8 0  -2 -4.8 0  -1.9 -4.8 0  -1.8 -4.8 0  -1.7 -4.8 0  -1.6 -4.8 0  -1.5 -4.8 0  -1.4 -4.8 0  -1.3 -4.8 0  -1.2 -4.8 0  -1.1 -4.8 0  -1 -4.8 0  -0.9000000000000004 -4.8 0  -0.7999999999999998 -4.8 0  -0.7000000000000002 -4.8 0  -0.5999999999999996 -4.8 0  -0.5 -4.8 0  -0.4000000000000004 -4.8 0  -0.2999999999999998 -4.8 0  -0.2000000000000002 -4.8 0  -0.09999999999999964 -4.8 0  0 -4.8 0  0.09999999999999964 -4.8 0  0.2000000000000002 -4.8 0  0.2999999999999998 -4.8 0  0.4000000000000004 -4.8 0  0.5 -4.8 0  0.5999999999999996 -4.8 0  0.7000000000000002 -4.8 0  0.7999999999999998 -4.8 0  0.9000000000000004 -4.8 0  1 -4.8 0  1.1 -4.8 0  1.2 -4.8 0  1.3 -4.8 0  1.4 -4.8 0  1.5 -4.8 0  1.6 -4.8 0  1.7 -4.8 0  1.8 -4.8 0  1.9 -4.8 0  2 -4.8 0  2.1 -4.8 0  2.2 -4.8 0  2.3 -4.8 0  2.4 -4.8 0  2.5 -4.8 0  2.6 -4.8 0  2.7 -4.8 0  2.8 -4.8 0  2.9 -4.8 0  3 -4.8 0  3.1 -4.8 0  3.199999999999999 -4.8 0  3.300000000000001 -4.8 0  3.4 -4.8 0  3.5 -4.8 0  3.6 -4.8 0  3.699999999999999 -4.8 0  3.800000000000001 -4.8 0  3.9 -4.8 0  4 -4.8 0  4.1 -4.8 0  4.199999999999999 -4.8 0  4.300000000000001 -4.8 0  4.4 -4.8 0  4.5 -4.8 0  4.6 -4.8 0  4.699999999999999 -4.8 0  4.800000000000001 -4.8 0  4.9 -4.8 0  5 -4.8 0  -5 -4.7 0  -4.9 -4.7 0  -4.8 -4.7 0  -4.7 -4.7 0  -4.6 -4.7 0  -4.5 -4.7 0  -4.4 -4.7 0  -4.3 -4.7 0  -4.2 -4.7 0  -4.1 -4.7 0  -4 -4.7 0  -3.9 -4.7 0  -3.8 -4.7 0  -3.7 -4.7 0  -3.6 -4.7 0  -3.5 -4.7 0  -3.4 -4.7 0  -3.3 -4.7 0  -3.2 -4.7 0  -3.1 -4.7 0  -3 -4.7 0  -2.9 -4.7 0  -2.8 -4.7 0  -2.7 -4.7 0  -2.6 -4.7 0  -2.5 -4.7 0  -2.4 -4.7 0  -2.3 -4.7 0  -2.2 -4.7 0  -2.1 -4.7 0  -2 -4.7 0  -1.9 -4.7 0  -1.8 -4.7 0  -1.7 -4.7 0  -1.6 -4.7 0  -1.5 -4.7 0  -1.4 -4.7 0  -1.3 -4.7 0  -1.2 -4.7 0  -1.1 -4.7 0  -1 -4.7 0  -0.9000000000000004 -4.7 0  -0.7999999999999998 -4.7 0  -0.7000000000000002 -4.7 0  -0.5999999999999996 -4.7 0  -0.5 -4.7 0  -0.4000000000000004 -4.7 0  -0.2999999999999998 -4.7 0  -0.2000000000000002 -4.7 0  -0.09999999999999964 -4.7 0  0 -4.7 0  0.09999999999999964 -4.7 0  0.2000000000000002 -4.7 0  0.2999999999999998 -4.7 0  0.4000000000000004 -4.7 0  0.5 -4.7 0  0.5999999999999996 -4.7 0  0.7000000000000002 -4.7 0  0.7999999999999998 -4.7 0  0.9000000000000004 -4.7 0  1 -4.7 0  1.1 -4.7 0  1.2 -4.7 0  1.3 -4.7 0  1.4 -4.7 0  1.5 -4.7 0  1.6 -4.7 0  1.7 -4.7 0  1.8 -4.7 0  1.9 -4.7 0  2 -4.7 0  2.1 -4.7 0  2.2 -4.7 0  2.3 -4.7 0  2.4 -4.7 0  2.5 -4.7 0  2.6 -4.7 0  2.7 -4.7 0  2.8 -4.7 0  2.9 -4.7 0  3 -4.7 0  3.1 -4.7 0  3.199999999999999 -4.7 0  3.300000000000001 -4.7 0  3.4 -4.7 0  3.5 -4.7 0  3.6 -4.7 0  3.699999999999999 -4.7 0  3.800000000000001 -4.7 0  3.9 -4.7 0  4 -4.7 0  4.1 -4.7 0  4.199999999999999 -4.7 0  4.300000000000001 -4.7 0  4.4 -4.7 0  4.5 -4.7 0  4.6 -4.7 0  4.699999999999999 -4.7 0  4.800000000000001 -4.7 0  4.9 -4.7 0  5 -4.7 0  -5 -4.6 0  -4.9 -4.6 0  -4.8 -4.6 0  -4.7 -4.6 0  -4.6 -4.6 0  -4.5 -4.6 0  -4.4 -4.6 0  -4.3 -4.6 0  -4.2 -4.6 0  -4.1 -4.6 0  -4 -4.6 0  -3.9 -4.6 0  -3.8 -4.6 0  -3.7 -4.6 0  -3.6 -4.6 0  -3.5 -4.6 0  -3.4 -4.6 0  -3.3 -4.6 0  -3.2 -4.6 0  -3.1 -4.6 0  -3 -4.6 0  -2.9 -4.6 0  -2.8 -4.6 0  -2.7 -4.6 0  -2.6 -4.6 0  -2.5 -4.6 0  -2.4 -4.6 0  -2.3 -4.6 0  -2.2 -4.6 0  -2.1 -4.6 0  -2 -4.6 0  -1.9 -4.6 0  -1.8 -4.6 0  -1.7 -4.6 0  -1.6 -4.6 0  -1.5 -4.6 0  -1.4 -4.6 0  -1.3 -4.6 0  -1.2 -4.6 0  -1.1 -4.6 0  -1 -4.6 0  -0.9000000000000004 -4.6 0  -0.7999999999999998 -4.6 0  -0.7000000000000002 -4.6 0  -0.5999999999999996 -4.6 0  -0.5 -4.6 0  -0.4000000000000004 -4.6 0  -0.2999999999999998 -4.6 0  -0.2000000000000002 -4.6 0  -0.09999999999999964 -4.6 0  0 -4.6 0  0.09999999999999964 -4.6 0  0.2000000000000002 -4.6 0  0.2999999999999998 -4.6 0  0.4000000000000004 -4.6 0  0.5 -4.6 0  0.5999999999999996 -4.6 0  0.7000000000000002 -4.6 0  0.7999999999999998 -4.6 0  0.9000000000000004 -4.6 0  1 -4.6 0  1.1 -4.6 0  1.2 -4.6 0  1.3 -4.6 0  1.4 -4.6 0  1.5 -4.6 0  1.6 -4.6 0  1.7 -4.6 0  1.8 -4.6 0  1.9 -4.6 0  2 -4.6 0  2.1 -4.6 0  2.2 -4.6 0  2.3 -4.6 0  2.4 -4.6 0  2.5 -4.6 0  2.6 -4.6 0  2.7 -4.6 0  2.8 -4.6 0  2.9 -4.6 0  3 -4.6 0  3.1 -4.6 0  3.199999999999999 -4.6 0  3.300000000000001 -4.6 0  3.4 -4.6 0  3.5 -4.6 0  3.6 -4.6 0  3.699999999999999 -4.6 0  3.800000000000001 -4.6 0  3.9 -4.6 0  4 -4.6 0  4.1 -4.6 0  4.199999999999999 -4.6 0  4.300000000000001 -4.6 0  4.4 -4.6 0  4.5 -4.6 0  4.6 -4.6 0  4.699999999999999 -4.6 0  4.800000000000001 -4.6 0  4.9 -4.6 0  5 -4.6 0  -5 -4.5 0  -4.9 -4.5 0  -4.8 -4.5 0  -4.7 -4.5 0  -4.6 -4.5 0  -4.5 -4.5 0  -4.4 -4.5 0  -4.3 -4.5 0  -4.2 -4.5 0  -4.1 -4.5 0  -4 -4.5 0  -3.9 -4.5 0  -3.8 -4.5 0  -3.7 -4.5 0  -3.6 -4.5 0  -3.5 -4.5 0  -3.4 -4.5 0  -3.3 -4.5 0  -3.2 -4.5 0  -3.1 -4.5 0  -3 -4.5 0  -2.9 -4.5 0  -2.8 -4.5 0  -2.7 -4.5 0  -2.6 -4.5 0  -2.5 -4.5 0  -2.4 -4.5 0  -2.3 -4.5 0  -2.2 -4.5 0  -2.1 -4.5 0  -2 -4.5 0  -1.9 -4.5 0  -1.8 -4.5 0  -1.7 -4.5 0  -1.6 -4.5 0  -1.5 -4.5 0  -1.4 -4.5 0  -1.3 -4.5 0  -1.2 -4.5 0  -1.1 -4.5 0  -1 -4.5 0  -0.9000000000000004 -4.5 0  -0.7999999999999998 -4.5 0  -0.7000000000000002 -4.5 0  -0.5999999999999996 -4.5 0  -0.5 -4.5 0  -0.4000000000000004 -4.5 0  -0.2999999999999998 -4.5 0  -0.2000000000000002 -4.5 0  -0.09999999999999964 -4.5 0  0 -4.5 0  0.09999999999999964 -4.5 0  0.2000000000000002 -4.5 0  0.2999999999999998 -4.5 0  0.4000000000000004 -4.5 0  0.5 -4.5 0  0.5999999999999996 -4.5 0  0.7000000000000002 -4.5 0  0.7999999999999998 -4.5 0  0.9000000000000004 -4.5 0  1 -4.5 0  1.1 -4.5 0  1.2 -4.5 0  1.3 -4.5 0  1.4 -4.5 0  1.5 -4.5 0  1.6 -4.5 0  1.7 -4.5 0  1.8 -4.5 0  1.9 -4.5 0  2 -4.5 0  2.1 -4.5 0  2.2 -4.5 0  2.3 -4.5 0  2.4 -4.5 0  2.5 -4.5 0  2.6 -4.5 0  2.7 -4.5 0  2.8 -4.5 0  2.9 -4.5 0  3 -4.5 0  3.1 -4.5 0  3.199999999999999 -4.5 0  3.300000000000001 -4.5 0  3.4 -4.5 0  3.5 -4.5 0  3.6 -4.5 0  3.699999999999999 -4.5 0  3.800000000000001 -4.5 0  3.9 -4.5 0  4 -4.5 0  4.1 -4.5 0  4.199999999999999 -4.5 0  4.300000000000001 -4.5 0  4.4 -4.5 0  4.5 -4.5 0  4.6 -4.5 0  4.699999999999999 -4.5 0  4.800000000000001 -4.5 0  4.9 -4.5 0  5 -4.5 0  -5 -4.4 0  -4.9 -4.4 0  -4.8 -4.4 0  -4.7 -4.4 0  -4.6 -4.4 0  -4.5 -4.4 0  -4.4 -4.4 0  -4.3 -4.4 0  -4.2 -4.4 0  -4.1 -4.4 0  -4 -4.4 0  -3.9 -4.4 0  -3.8 -4.4 0  -3.7 -4.4 0  -3.6 -4.4 0  -3.5 -4.4 0  -3.4 -4.4 0  -3.3 -4.4 0  -3.2 -4.4 0  -3.1 -4.4 0  -3 -4.4 0  -2.9 -4.4 0  -2.8 -4.4 0  -2.7 -4.4 0  -2.6 -4.4 0  -2.5 -4.4 0  -2.4 -4.4 0  -2.3 -4.4 0  -2.2 -4.4 0  -2.1 -4.4 0  -2 -4.4 0  -1.9 -4.4 0  -1.8 -4.
[...]
<PointData  Vectors="f_23"> 
<DataArray  type="Float64"  Name="f_23"  NumberOfComponents="3" format="ascii">1.5000000000000030e-01 0.0000000000000000e+00 0.0000000000000000e+00  1.5000000000000022e-01 1.6150783581117077e-35 0.0000000000000000e+00  1.5000000000000013e-01 4.9687128800485267e-33 0.0000000000000000e+00  1.5000000000000030e-01 2.3502367794932958e-33 0.0000000000000000e+00  1.5000000000000011e-01 2.4211787815034099e-32 0.0000000000000000e+00  1.4999999999999997e-01 7.6141253094336904e-32 0.0000000000000000e+00  1.5000000000000022e-01 7.4449025422459654e-33 0.0000000000000000e+00  1.5000000000000044e-01 3.3327866217429219e-33 0.0000000000000000e+00  1.5000000000000011e-01 2.7662852721065832e-32 0.0000000000000000e+00  1.5000000000000002e-01 6.5463872012605023e-32 0.0000000000000000e+00  1.5000000000000011e-01 1.7845117176258029e-31 0.0000000000000000e+00  1.5000000000000030e-01 3.7442518088376207e-32 0.0000000000000000e+00  1.4999999999999983e-01 1.0919125613633744e-31 0.0000000000000000e+00  1.5000000000000002e-01 9.0360184347181184e-34 0.0000000000000000e+00  1.4999999999999936e-01 7.8280194536033605e-31 0.0000000000000000e+00  1.4999999999999752e-01 1.0160185758017965e-30 0.0000000000000000e+00  1.4999999999999580e-01 4.9068844768112937e-30 0.0000000000000000e+00  1.5000000000000946e-01 2.0991132782758048e-28 0.0000000000000000e+00  1.5000000000007976e-01 2.4358504012417579e-27 0.0000000000000000e+00  1.5000000000026939e-01 1.1452755115002651e-26 0.0000000000000000e+00  1.5000000000061331e-01 2.4405655598526526e-26 0.0000000000000000e+00  1.5000000000098521e-01 1.1980454330016866e-26 0.0000000000000000e+00  1.5000000000098637e-01 1.1505245469953386e-26 0.0000000000000000e+00  1.5000000000015137e-01 1.8576018102816706e-25 0.0000000000000000e+00  1.4999999999852703e-01 3.8176646350628761e-25 0.0000000000000000e+00  1.4999999999705280e-01 1.8430247882734339e-25 0.0000000000000000e+00  1.4999999999694555e-01 8.2564517576869508e-27 0.0000000000000000e+00  1.4999999999843089e-01 3.1682270480471941e-25 0.0000000000000000e+00  1.5000000000031752e-01 3.7224588643547606e-25 0.0000000000000000e+00  1.5000000000117389e-01 6.0837550241701767e-26 0.0000000000000000e+00  1.5000000000074393e-01 2.1265090304386746e-26 0.0000000000000000e+00  1.4999999999992850e-01 5.9123589563815352e-26 0.0000000000000000e+00  1.4999999999958447e-01 7.6543997972941811e-27 0.0000000000000000e+00  1.4999999999977981e-01 3.8572085158610609e-27 0.0000000000000000e+00  1.5000000000007918e-01 5.3559378317765368e-27 0.0000000000000000e+00  1.5000000000015756e-01 1.3545143618453821e-28 0.0000000000000000e+00  1.5000000000003591e-01 6.0778979011418561e-28 0.0000000000000000e+00  1.4999999999992808e-01 3.4618205338615200e-28 0.0000000000000000e+00  1.4999999999995453e-01 9.9332928421677586e-31 0.0000000000000000e+00  1.5000000000002847e-01 1.2566807812924623e-28 0.0000000000000000e+00  1.5000000000003083e-01 2.5166514709994757e-29 0.0000000000000000e+00  1.4999999999998831e-01 3.2371193897919798e-29 0.0000000000000000e+00  1.4999999999998312e-01 1.9461159878003921e-29 0.0000000000000000e+00  1.5000000000000671e-01 1.2784216741651105e-29 0.0000000000000000e+00  1.5000000000000882e-01 6.4738010443377954e-30 0.0000000000000000e+00  1.4999999999999575e-01 2.4611673954112953e-30 0.0000000000000000e+00  1.4999999999999691e-01 1.5668091730957405e-30 0.0000000000000000e+00  1.5000000000000310e-01 2.0562168771558605e-30 0.0000000000000000e+00  1.5000000000000116e-01 1.1636171190512038e-31 0.0000000000000000e+00  1.4999999999999872e-01 8.9247154552726885e-31 0.0000000000000000e+00  1.5000000000000030e-01 6.8986981840303434e-35 0.0000000000000000e+00  1.5000000000000099e-01 4.7038217445362147e-33 0.0000000000000000e+00  1.4999999999999958e-01 2.6692454888587687e-32 0.0000000000000000e+00  1.4999999999999974e-01 9.4452142316025850e-33 0.0000000000000000e+00  1.5000000000000052e-01 6.8639815915338906e-33 0.0000000000000000e+00  1.5000000000000011e-01 3.0509301480615797e-32 0.0000000000000000e+00  1.4999999999999980e-01 2.9145814056826427e-31 0.0000000000000000e+00  1.5000000000000022e-01 1.0022558319929708e-31 0.0000000000000000e+00  1.5000000000000041e-01 3.6876070408374786e-32 0.0000000000000000e+00  1.5000000000000041e-01 8.2148535035829324e-32 0.0000000000000000e+00  1.4999999999999980e-01 1.6279616694302431e-32 0.0000000000000000e+00  1.5000000000000049e-01 7.0375800366829056e-32 0.0000000000000000e+00  1.5000000000000005e-01 1.0405412689595660e-31 0.0000000000000000e+00  1.5000000000000002e-01 3.0971848905058838e-34 0.0000000000000000e+00  1.4999999999999972e-01 6.1907469858196067e-32 0.0000000000000000e+00  1.5000000000000027e-01 2.3093737075991934e-31 0.0000000000000000e+00  1.5000000000000036e-01 1.1135555066674300e-31 0.0000000000000000e+00  1.5000000000000013e-01 5.4519963479671768e-33 0.0000000000000000e+00  1.5000000000000041e-01 1.7274981705045553e-32 0.0000000000000000e+00  1.5000000000000036e-01 4.8237797325865535e-33 0.0000000000000000e+00  1.5000000000000002e-01 2.8762365971508665e-32 0.0000000000000000e+00  1.5000000000000022e-01 2.5312333235845781e-31 0.0000000000000000e+00  1.4999999999999955e-01 1.2281978964263619e-32 0.0000000000000000e+00  1.5000000000000027e-01 1.0288883476604366e-32 0.0000000000000000e+00  1.5000000000000011e-01 5.8324505168925053e-34 0.0000000000000000e+00  1.4999999999999966e-01 3.1960918884880537e-34 0.0000000000000000e+00  1.5000000000000002e-01 1.4593327180254067e-32 0.0000000000000000e+00  1.5000000000000002e-01 6.6071856605669347e-32 0.0000000000000000e+00  1.5000000000000022e-01 4.2935897200973033e-33 0.0000000000000000e+00  1.4999999999999958e-01 9.1668502511478551e-32 0.0000000000000000e+00  1.4999999999999988e-01 2.4114174561817866e-33 0.0000000000000000e+00  1.5000000000000013e-01 4.9569890986582914e-32 0.0000000000000000e+00  1.5000000000000002e-01 4.9001153391921364e-34 0.0000000000000000e+00  1.5000000000000030e-01 1.1254671236582744e-31 0.0000000000000000e+00  1.5000000000000022e-01 5.8590549476755160e-32 0.0000000000000000e+00  1.5000000000000002e-01 4.3119536712785426e-32 0.0000000000000000e+00  1.4999999999999974e-01 7.9037102441420453e-35 0.0000000000000000e+00  1.4999999999999983e-01 9.2435410268999003e-33 0.0000000000000000e+00  1.5000000000000011e-01 2.7780985617901542e-34 0.0000000000000000e+00  1.5000000000000005e-01 2.0687636958900800e-32 0.0000000000000000e+00  1.5000000000000002e-01 6.8752630890963904e-32 0.0000000000000000e+00  1.5000000000000058e-01 3.3182199202590824e-33 0.0000000000000000e+00  1.5000000000000022e-01 6.9734833451923653e-32 0.0000000000000000e+00  1.5000000000000041e-01 1.3957369603988490e-31 0.0000000000000000e+00  1.5000000000000027e-01 2.8485806320587674e-31 0.0000000000000000e+00  1.5000000000000044e-01 5.1202600510676112e-32 0.0000000000000000e+00  1.4999999999999983e-01 8.1430437520244276e-33 0.0000000000000000e+00  1.5000000000000041e-01 6.1094022953823930e-32 0.0000000000000000e+00  1.5000000000000005e-01 1.6850066544950510e-32 0.0000000000000000e+00  1.5000000000000011e-01 1.7696383089668385e-32 0.0000000000000000e+00  1.4999999999999980e-01 0.0000000000000000e+00 0.0000000000000000e+00  1.5000000000000027e-01 0.0000000000000000e+00 3.5589842169350077e-32  1.5000000000000002e-01 7.6645391163995868e-33 1.0981900699948799e-32  1.5000000000000005e-01 2.4108920292349962e-32 2.4146306271152280e-34  1.5000000000000022e-01 2.7714109605379744e-32 1.1499257599967782e-32  1.5000000000000013e-01 1.4477292517091728e-33 9.3301474254350774e-33  1.5000000000000019e-01 1.1788547136781345e-32 6.5208170934733292e-33  1.5000000000000027e-01 3.8095602325606617e-32 4.3734167159308867e-32  1.5000000000000011e-01 1.0803863240092302e-34 1.8712499340056836e-31  1.5000000000000022e-01 6.8046688000098075e-33 5.4161634662813345e-33  1.5000000000000019e-01 1.5487271272788242e-32 9.8358864867099362e-33  1.5000000000000002e-01 2.8102911910198582e-32 1.4175681319481826e-31  1.5000000000000036e-01 4.1507714871094124e-33 1.5121161171834928e-31  1.5000000000000013e-01 1.8492984818233468e-34 8.3352545473372554e-32  1.5000000000000041e-01 1.6100858951124181e-33 1.8084033750522568e-31  1.5000000000000091e-01 3.2892927021018556e-31 6.2528189195618476e-31  1.5000000000000238e-01 1.1363673797216021e-30 6.3302898806865132e-30  1.5000000000000616e-01 4.0516202773056757e-32 3.8346580262813368e-29  1.5000000000000027e-01 9.2899231827566136e-29 3.8308613926958550e-32  1.4999999999994879e-01 1.6469910428998569e-27 2.5112958620438922e-27  1.4999999999978020e-01 1.0922547777279662e-26 4.5476428245084341e-26  1.4999999999942229e-01 3.3107157987707001e-26 3.0249883305487276e-25  1.4999999999893499e-01 3.4216801085025332e-26 9.6567370565611624e-25  1.4999999999868413e-01 3.8584944731046654e-29 1.3083600252905872e-24  1.4999999999928537e-01 1.5789885700110096e-25 2.2571623629493172e-25  1.5000000000102398e-01 5.6054520311768664e-25 1.4332761944974555e-24  1.5000000000314662e-01 4.9362876371669770e-25 9.3807020855171162e-24  1.5000000000408339e-01 2.3395748927775663e-26 1.3513799135482144e-23  1.5000000000289521e-01 2.9313347819395818e-25 5.5181167191962360e-24  1.5000000000045804e-01 6.9033865291083973e-25 6.9282297949550474e-27  1.4999999999871289e-01 2.7425719337166492e-25 1.7949000684452221e-24  1.4999999999868691e-01 5.5310564308423517e-28 1.3590845599573881e-24  1.4999999999969416e-01 9.5738419719970638e-26 3.2355006480095117e-26  1.5000000000045194e-01 4.2282254319801992e-26 2.1689872327789400e-25  1.5000000000044497e-01 4.4277506489539567e-28 1.6140650248823618e-25  1.5000000000004390e-01 1.1134331534482512e-26 2.1985103997881282e-28  1.4999999999979116e-01 2.2475513799013430e-27 4.3597108939668986e-26  1.4999999999986599e-01 3.6939520205898159e-28 1.5044634203200877e-26  1.5000000000005659e-01 9.3837043966118800e-28 4.1436297042681078e-27  1.5000000000009869e-01 7.9624714414809296e-29 9.3138027882410035e-27  1.4999999999999644e-01 1.1604518547713845e-28 1.0373195786062231e-28  1.4999999999994365e-01 1.3132536469358793e-28 3.3385007929649301e-27  1.4999999999999489e-01 5.7210658238293722e-30 1.3294001717968093e-30  1.5000000000003036e-01 6.7343458330566916e-29 9.7222998128997341e-28  1.5000000000000308e-01 1.4971353886247901e-32 1.2146398187865512e-32  1.4999999999998415e-01 2.6558608789247774e-29 2.6872164287428858e-28  1.5000000000000058e-01 9.4434931450998030e-32 2.1992463432273754e-30  1.5000000000000843e-01 8.7513595336858834e-30 6.4359719526779914e-29  1.4999999999999841e-01 5.4291701363166506e-31 6.0069118615954435e-30  1.4999999999999691e-01 1.9090681554574772e-30 8.7131519051393375e-30  1.5000000000000210e-01 4.0955659088752916e-31 4.3706537088840525e-30  1.5000000000000108e-01 3.2673822903090727e-31 7.5618166987522265e-31  1.4999999999999886e-01 2.0530890463167212e-31 1.1532214032547638e-30  1.4999999999999983e-01 2.6309744984767499e-31 1.6506976667815615e-31  1.5000000000000074e-01 8.4833815712867000e-32 3.6051430616727163e-31  1.4999999999999983e-01 4.1604548116806094e-32 1.0520214664861443e-31  1.5000000000000011e-01 5.7124316599108010e-32 9.7520905867899767e-32  1.5000000000000041e-01 1.0935811856786567e-31 1.3632618222773810e-31  1.4999999999999983e-01 1.0825708950271478e-32 2.3484322297110638e-32  1.5000000000000013e-01 5.3267105993776042e-34 2.7161318319711074e-32  1.5000000000000002e-01 3.6179953867446429e-33 2.2868434529553245e-32  1.5000000000000041e-01 4.9709075631223382e-33 5.5180912203918996e-32  1.5000000000000011e-01 3.1764181337423164e-32 2.9433112715701797e-33  1.4999999999999966e-01 2.2934478340938833e-33 1.0089312386991845e-31  1.5000000000000019e-01 3.9386304855468702e-34 2.5564471092236896e-32  1.5000000000000036e-01 5.7289312920754668e-33 1.5218013587384018e-33  1.5000000000000011e-01 1.3879654907987694e-31 2.2688674274001213e-32  1.5000000000000011e-01 6.8743609648126977e-32 2.8906580017482832e-32  1.5000000000000005e-01 6.2594787441529511e-33 3.7632611534618155e-32  1.5000000000000036e-01 1.3692321240559308e-31 1.3274775316867131e-32  1.5000000000000002e-01 1.4735131843974494e-31 5.0628959249636230e-32  1.5000000000000019e-01 2.6733378743823701e-33 1.2781328901453650e-32  1.5000000000000022e-01 2.7993058693167379e-33 2.9477761634522268e-32  1.4999999999999997e-01 1.7742283102057727e-32 1.9362634884788733e-32  1.5000000000000019e-01 5.9592382290475563e-34 1.2042242730864193e-32  1.4999999999999991e-01 3.6209119915233654e-33 2.0141707051544339e-32  1.5000000000000022e-01 8.6199759025382363e-32 6.2787381204445499e-32  1.5000000000000022e-01 1.0735631981533472e-31 3.0125956441557224e-32  1.5000000000000019e-01 1.9084542143187699e-34 1.3844087995156110e-32  1.5000000000000013e-01 2.6112507750906564e-31 9.8852223087413488e-32  1.5000000000000013e-01 2.5035338787701324e-31 2.2844429046630521e-32  1.5000000000000005e-01 1.9552071515308650e-34 6.6259881780145383e-33  1.4999999999999997e-01 5.2850936027147174e-33 9.3704231359496915e-32  1.5000000000000005e-01 7.4528665316463431e-33 3.7657572412145626e-32  1.5000000000000011e-01 1.3797239678255808e-32 5.2700081804950620e-32  1.4999999999999997e-01 2.8957706329878927e-32 6.6243280373351676e-33  1.5000000000000002e-01 8.3090888790265509e-32 1.8714173164898033e-32  1.5000000000000013e-01 4.1018942576983730e-32 1.4904443815147160e-32  1.5000000000000013e-01 1.0612735455088824e-32 4.6903193008293229e-32  1.5000000000000013e-01 1.3898680719529095e-32 1.1665361943320237e-32  1.5000000000000005e-01 5.3107329510829278e-33 6.8274944524748106e-35  1.5000000000000041e-01 2.1296825330330296e-33 8.9385033200610312e-32  1.5000000000000027e-01 2.0564660407618219e-33 1.0144673680359764e-32  1.5000000000000013e-01 6.5406412353136868e-32 1.1346089090597422e-33  1.5000000000000005e-01 1.3852647504637352e-32 3.9712611705030801e-32  1.5000000000000005e-01 2.4346518237648694e-33 9.3230525305830499e-35  1.4999999999999997e-01 2.5799125477664391e-32 2.1924581520014467e-31  1.5000000000000013e-01 1.2312403126208940e-32 6.1185591180980230e-33  1.5000000000000005e-01 9.6439888666376805e-35 3.6375506925801295e-32  1.5000000000000019e-01 8.5330817186732466e-34 2.2097957572060398e-32  1.5000000000000011e-01 1.0763850847715803e-32 1.5478605061055314e-36  1.5000000000000030e-01 0.0000000000000000e+00 1.8948267180664185e-31  1.4999999999999997e-01 0.0000000000000000e+00 6.2549395643822028e-33  1.5000000000000013e-01 4.9499984259768291e-32 9.8991904659244121e-32  1.5000000000000013e-01 2.9158243470453470e-33 2.4223204272508593e-32  1.5000000000000019e-01 2.4825262923028521e-33 3.2019271265722540e-32  1.5000000000000066e-01 9.9123298031486783e-35 5.6494665025774133e-32  1.5000000000000011e-01 2.7721069328883340e-34 1.3651552734925752e-31  1.5000000000000013e-01 3.2334544442992356e-32 2.0134454899011685e-31  1.5000000000000036e-01 8.6331359695414930e-33 1.0293220503186545e-32  1.5000000000000027e-01 1.0065491484145513e-31 3.6970878889278165e-32  1.5000000000000005e-01 7.9904739171087974e-32 9.2834960646856286e-32  1.5000000000000036e-01 1.9216657840843833e-33 6.1507875021872517e-33  1.5000000000000002e-01 2.7476096939761542e-32 1.4928009895362075e-31  1.5000000000000005e-01 5.5844713033746776e-32 6.6033175015353208e-32  1.5000000000000005e-01 2.6340194140626533e-31 9.2889128477855106e-33  1.4999999999999955e-01 1.8784471593712972e-31 7.1621626785462209e-31  1.4999999999999744e-01 2.5451474034208633e-30 9.5112454849854262e-30  1.4999999999999172e-01 5.2733160958809429e-30 1.4214532805787730e-28  1.4999999999998953e-01 3.9802113577934301e-29 2.5524054828771442e-28  1.5000000000003136e-01 1.6649811503773184e-27 1.2354454943608241e-27  1.5000000000021566e-01 1.6099831305701466e-26 7.3989215285861168e-26  1.5000000000068051e-01 6.8038661024775236e-26 7.6988810982828832e-25  1.5000000000145272e-01 1.1866055514954985e-25 3.5443676191276278e-24  1.5000000000214642e-01 2.9357916770946357e-26 7.6574803251031537e-24  1.5000000000181890e-01 1.5440171152583833e-25 5.2131234605778436e-24  1.4999999999957900e-01 1.2457183454407227e-24 4.9782826145262997e-25  1.4999999999589875e-01 1.9355693421006493e-24 3.0258227728174478e-23  1.4999999999311625e-01 5.7485461402953013e-25 8.0863188526220073e-23  1.4999999999367372e-01 2.4230230504770468e-25 6.4980366341629426e-23  1.4999999999741470e-01 1.9948550497329000e-24 9.4148518355525417e-24  1.5000000000135416e-01 1.6471749676145879e-24 4.0120283952715580e-24  1.5000000000267669e-01 1.2864494912882534e-25 1.2695495936539378e-23  1.5000000000139907e-01 1.9440823561436556e-25 3.1673826640957149e-24  1.4999999999963959e-01 2.7422560527916119e-25 2.8326754347464847e-25  1.4999999999903410e-01 1.6653194472001838e-26 1.6601359762366802e-24  1.4999999999955307e-01 2.8222027666969355e-26 3.3686474810769782e-25  1.5000000000024769e-01 2.3280568414258076e-26 1.1586411203332212e-25  1.5000000000039487e-01 1.2725021052380494e-28 2.7847732787990089e-25  1.5000000000004912e-01 3.6148980306326753e-27 3.5993334779895026e-27  1.4999999999978472e-01 1.7140929637946886e-27 8.4835379526969633e-26  1.4999999999990429e-01 4.7861748717245874e-29 1.5839946689438569e-26  1.5000000000010408e-01 8.9912512015466791e-28 1.9998913195058650e-26  1.5000000000006958e-01 6.6817080211534858e-29 8.1964102985796532e-27  1.4999999999994734e-01 2.9264732316172050e-28 5.1748886715038687e-27  1.4999999999996252e-01 7.0973551196306106e-29 2.4080277604258342e-27  1.5000000000003005e-01 1.0876482917154692e-28 1.6367751980837343e-27  1.5000000000001643e-01 2.8542823197139166e-29 4.4142183177804054e-28  1.4999999999998267e-01 4.5354294159627754e-29 5.5955510457692514e-28  1.4999999999999533e-01 3.4856408513456685e-30 3.3144598108627398e-29  1.5000000000000965e-01 1.5419998493712381e-29 1.6138234878620845e-28  1.5000000000000005e-01 5.7576021635792493e-33 1.9655427225607212e-31  1.4999999999999580e-01 4.3806425764353088e-30 3.0571843051654197e-29  1.5000000000000183e-01 1.8935256157472144e-31 4.7815701564434489e-30  1.5000000000000177e-01 7.1207169353508548e-31 3.8114125326244862e-30  1.4999999999999902e-01 8.5192729263277187e-31 3.2987742387448847e-30  1.5000000000000030e-01 4.5820278819495346e-33 1.3408651059594341e-32  1.5000000000000074e-01 2.3599421137736870e-31 7.5908511569656797e-31  1.4999999999999980e-01 2.3783915586802266e-33 2.5758137500418932e-31  1.4999999999999997e-01 1.6852559281302364e-33 2.4683124344855172e-32  1.5000000000000036e-01 4.3931207885838012e-32 3.1039109646544334e-32  1.5000000000000030e-01 3.0893603610055047e-32 4.4283321119683963e-35  1.4999999999999991e-01 4.7301037011973247e-33 2.2999458233168600e-33  1.5000000000000002e-01 2.0509067139249022e-34 4.7413640478228719e-32  1.5000000000000027e-01 8.8162154667674263e-32 8.6400165730116352e-32  1.5000000000000030e-01 3.2808635186204714e-34 3.3821231473104979e-32  1.5000000000000036e-01 4.4658100595265561e-34 1.1990695896903990e-31  1.5000000000000002e-01 1.6846570966744438e-32 1.8701053871293813e-32  1.5000000000000013e-01 5.7998454138539095e-33 4.6719005794946752e-33  1.5000000000000027e-01 1.0253150901729777e-33 1.8723150783081942e-33  1.5000000000000019e-01 7.6746808367248717e-32 8.8955895136211801e-34  1.5000000000000022e-01 3.8507346465812468e-32 6.5445980472992813e-32  1.5000000000000030e-01 1.7540177286500129e-32 8.1246340278921727e-32  1.4999999999999983e-01 1.9445894919848775e-36 9.2964208764340722e-33  1.5000000000000036e-01 6.2445864415497131e-32 5.9957274764743439e-34  1.5000000000000011e-01 5.3511585426442902e-32 7.6127869068695467e-32  1.5000000000000027e-01 2.3394242539498180e-33 1.1387910616418461e-31  1.5000000000000022e-01 4.3382709510271640e-32 2.7787115390353666e-33  1.5000000000000005e-01 2.0872865157538303e-33 1.1833694224419618e-31  1.4999999999999983e-01 2.4479008094275174e-32 2.6565783580873728e-33  1.5000000000000019e-01 8.9049689107413688e-32 2.1015730503720032e-31  1.5000000000000027e-01 3.6979951110064536e-33 7.1703634158463894e-32  1.5000000000000011e-01 1.9288252106882026e-34 3.1146953208452796e-35  1.5000000000000013e-01 1.2909270629557143e-31 2.7004700697995341e-31  1.5000000000