<?xml version="1.0"?>
<VTKFile type="UnstructuredGrid"  version="0.1"  >
<UnstructuredGrid>
<Piece  NumberOfPoints="10201" NumberOfCells="20000">
<Points>
<DataArray  type="Float64"  NumberOfComponents="3"  format="ascii">-5 -5 0  -4.9 -5 0  -4.8 -5 0  -4.7 -5 0  -4.6 -5 0  -4.5 -5 0  -4.4 -5 0  -4.3 -5 0  -4.2 -5 0  -4.1 -5 0  -4 -5 0  -3.9 -5 0  -3.8 -5 0  -3.7 -5 0  -3.6 -5 0  -3.5 -5 0  -3.4 -5 0  -3.3 -5 0  -3.2 -5 0  -3.1 -5 0  -3 -5 0  -2.9 -5 0  -2.8 -5 0  -2.7 -5 0  -2.6 -5 0  -2.5 -5 0  -2.4 -5 0  -2.3 -5 0  -2.2 -5 0  -2.1 -5 0  -2 -5 0  -1.9 -5 0  -1.8 -5 0  -1.7 -5 0  -1.6 -5 0  -1.5 -5 0  -1.4 -5 0  -1.3 -5 0  -1.2 -5 0  -1.1 -5 0  -1 -5 0  -0.9000000000000004 -5 0  -0.7999999999999998 -5 0  -0.7000000000000002 -5 0  -0.5999999999999996 -5 0  -0.5 -5 0  -0.4000000000000004 -5 0  -0.2999999999999998 -5 0  -0.2000000000000002 -5 0  -0.09999999999999964 -5 0  0 -5 0  0.09999999999999964 -5 0  0.2000000000000002 -5 0  0.2999999999999998 -5 0  0.4000000000000004 -5 0  0.5 -5 0  0.5999999999999996 -5 0  0.7000000000000002 -5 0  0.7999999999999998 -5 0  0.9000000000000004 -5 0  1 -5 0  1.1 -5 0  1.2 -5 0  1.3 -5 0  1.4 -5 0  1.5 -5 0  1.6 -5 0  1.7 -5 0  1.8 -5 0  1.9 -5 0  2 -5 0  2.1 -5 0  2.2 -5 0  2.3 -5 0  2.4 -5 0  2.5 -5 0  2.6 -5 0  2.7 -5 0  2.8 -5 0  2.9 -5 0  3 -5 0  3.1 -5 0  3.199999999999999 -5 0  3.300000000000001 -5 0  3.4 -5 0  3.5 -5 0  3.6 -5 0  3.699999999999999 -5 0  3.800000000000001 -5 0  3.9 -5 0  4 -5 0  4.1 -5 0  4.199999999999999 -5 0  4.300000000000001 -5 0  4.4 -5 0  4.5 -5 0  4.6 -5 0  4.699999999999999 -5 0  4.800000000000001 -5 0  4.9 -5 0  5 -5 0  -5 -4.9 0  -4.9 -4.9 0  -4.8 -4.9 0  -4.7 -4.9 0  -4.6 -4.9 0  -4.5 -4.9 0  -4.4 -4.9 0  -4.3 -4.9 0  -4.2 -4.9 0  -4.1 -4.9 0  -4 -4.9 0  -3.9 -4.9 0  -3.8 -4.9 0  -3.7 -4.9 0  -3.6 -4.9 0  -3.5 -4.9 0  -3.4 -4.9 0  -3.3 -4.9 0  -3.2 -4.9 0  -3.1 -4.9 0  -3 -4.9 0  -2.9 -4.9 0  -2.8 -4.9 0  -2.7 -4.9 0  -2.6 -4.9 0  -2.5 -4.9 0  -2.4 -4.9 0  -2.3 -4.9 0  -2.2 -4.9 0  -2.1 -4.9 0  -2 -4.9 0  -1.9 -4.9 0  -1.8 -4.9 0  -1.7 -4.9 0  -1.6 -4.9 0  -1.5 -4.9 0  -1.4 -4.9 0  -1.3 -4.9 0  -1.2 -4.9 0  -1.1 -4.9 0  -1 -4.9 0  -0.9000000000000004 -4.9 0  -0.7999999999999998 -4.9 0  -0.7000000000000002 -4.9 0  -0.5999999999999996 -4.9 0  -0.5 -4.9 0  -0.4000000000000004 -4.9 0  -0.2999999999999998 -4.9 0  -0.2000000000000002 -4.9 0  -0.09999999999999964 -4.9 0  0 -4.9 0  0.09999999999999964 -4.9 0  0.2000000000000002 -4.9 0  0.2999999999999998 -4.9 0  0.4000000000000004 -4.9 0  0.5 -4.9 0  0.5999999999999996 -4.9 0  0.7000000000000002 -4.9 0  0.7999999999999998 -4.9 0  0.9000000000000004 -4.9 0  1 -4.9 0  1.1 -4.9 0  1.2 -4.9 0  1.3 -4.9 0  1.4 -4.9 0  1.5 -4.9 0  1.6 -4.9 0  1.7 -4.9 0  1.8 -4.9 0  1.9 -4.9 0  2 -4.9 0  2.1 -4.9 0  2.2 -4.9 0  2.3 -4.9 0  2.4 -4.9 0  2.5 -4.9 0  2.6 -4.9 0  2.7 -4.9 0  2.8 -4.9 0  2.9 -4.9 0  3 -4.9 0  3.1 -4.9 0  3.199999999999999 -4.9 0  3.300000000000001 -4.9 0  3.4 -4.9 0  3.5 -4.9 0  3.6 -4.9 0  3.699999999999999 -4.9 0  3.800000000000001 -4.9 0  3.9 -4.9 0  4 -4.9 0  4.1 -4.9 0  4.199999999999999 -4.9 0  4.300000000000001 -4.9 0  4.4 -4.9 0  4.5 -4.9 0  4.6 -4.9 0  4.699999999999999 -4.9 0  4.800000000000001 -4.9 0  4.9 -4.9 0  5 -4.9 0  -5 -4.8 0  -4.9 -4.8 0  -4.8 -4.8 0  -4.7 -4.8 0  -4.6 -4.8 0  -4.5 -4.8 0  -4.4 -4.8 0  -4.3 -4.8 0  -4.2 -4.8 0  -4.1 -4.8 0  -4 -4.8 0  -3.9 -4.8 0  -3.8 -4.8 0  -3.7 -4.8 0  -3.6 -4.8 0  -3.5 -4.8 0  -3.4 -4.8 0  -3.3 -4.8 0  -3.2 -4.8 0  -3.1 -4.8 0  -3 -4.8 0  -2.9 -4.8 0  -2.8 -4.8 0  -2.7 -4.8 0  -2.6 -4.8 0  -2.5 -4.8 0  -2.4 -4.8 0  -2.3 -4.8 0  -2.2 -4.8 0  -2.1 -4.8 0  -2 -4.8 0  -1.9 -4.8 0  -1.8 -4.8 0  -1.7 -4.8 0  -1.6 -4.8 0  -1.5 -4.8 0  -1.4 -4.8 0  -1.3 -4.8 0  -1.2 -4.8 0  -1.1 -4.8 0  -1 -4.8 0  -0.9000000000000004 -4.8 0  -0.7999999999999998 -4.8 0  -0.7000000000000002 -4.8 0  -0.5999999999999996 -4.8 0  -0.5 -4.8 0  -0.4000000000000004 -4.8 0  -0.2999999999999998 -4.8 0  -0.2000000000000002 -4.8 0  -0.09999999999999964 -4.8 0  0 -4.8 0  0.09999999999999964 -4.8 0  0.2000000000000002 -4.8 0  0.2999999999999998 -4.8 0  0.4000000000000004 -4.8 0  0.5 -4.8 0  0.5999999999999996 -4.8 0  0.7000000000000002 -4.8 0  0.7999999999999998 -4.8 0  0.9000000000000004 -4.8 0  1 -4.8 0  1.1 -4.8 0  1.2 -4.8 0  1.3 -4.8 0  1.4 -4.8 0  1.5 -4.8 0  1.6 -4.8 0  1.7 -4.8 0  1.8 -4.8 0  1.9 -4.8 0  2 -4.8 0  2.1 -4.8 0  2.2 -4.8 0  2.3 -4.8 0  2.4 -4.8 0  2.5 -4.8 0  2.6 -4.8 0  2.7 -4.8 0  2.8 -4.8 0  2.9 -4.8 0  3 -4.8 0  3.1 -4.8 0  3.199999999999999 -4.8 0  3.300000000000001 -4.8 0  3.4 -4.8 0  3.5 -4.8 0  3.6 -4.8 0  3.699999999999999 -4.8 0  3.800000000000001 -4.8 0  3.9 -4.8 0  4 -4.8 0  4.1 -4.8 0  4.199999999999999 -4.8 0  4.300000000000001 -4.8 0  4.4 -4.8 0  4.5 -4.8 0  4.6 -4.8 0  4.699999999999999 -4.8 0  4.800000000000001 -4.8 0  4.9 -4.8 0  5 -4.8 0  -5 -4.7 0  -4.9 -4.7 0  -4.8 -4.7 0  -4.7 -4.7 0  -4.6 -4.7 0  -4.5 -4.7 0  -4.4 -4.7 0  -4.3 -4.7 0  -4.2 -4.7 0  -4.1 -4.7 0  -4 -4.7 0  -3.9 -4.7 0  -3.8 -4.7 0  -3.7 -4.7 0  -3.6 -4.7 0  -3.5 -4.7 0  -3.4 -4.7 0  -3.3 -4.7 0  -3.2 -4.7 0  -3.1 -4.7 0  -3 -4.7 0  -2.9 -4.7 0  -2.8 -4.7 0  -2.7 -4.7 0  -2.6 -4.7 0  -2.5 -4.7 0  -2.4 -4.7 0  -2.3 -4.7 0  -2.2 -4.7 0  -2.1 -4.7 0  -2 -4.7 0  -1.9 -4.7 0  -1.8 -4.7 0  -1.7 -4.7 0  -1.6 -4.7 0  -1.5 -4.7 0  -1.4 -4.7 0  -1.3 -4.7 0  -1.2 -4.7 0  -1.1 -4.7 0  -1 -4.7 0  -0.9000000000000004 -4.7 0  -0.7999999999999998 -4.7 0  -0.7000000000000002 -4.7 0  -0.5999999999999996 -4.7 0  -0.5 -4.7 0  -0.4000000000000004 -4.7 0  -0.2999999999999998 -4.7 0  -0.2000000000000002 -4.7 0  -0.09999999999999964 -4.7 0  0 -4.7 0  0.09999999999999964 -4.7 0  0.2000000000000002 -4.7 0  0.2999999999999998 -4.7 0  0.4000000000000004 -4.7 0  0.5 -4.7 0  0.5999999999999996 -4.7 0  0.7000000000000002 -4.7 0  0.7999999999999998 -4.7 0  0.9000000000000004 -4.7 0  1 -4.7 0  1.1 -4.7 0  1.2 -4.7 0  1.3 -4.7 0  1.4 -4.7 0  1.5 -4.7 0  1.6 -4.7 0  1.7 -4.7 0  1.8 -4.7 0  1.9 -4.7 0  2 -4.7 0  2.1 -4.7 0  2.2 -4.7 0  2.3 -4.7 0  2.4 -4.7 0  2.5 -4.7 0  2.6 -4.7 0  2.7 -4.7 0  2.8 -4.7 0  2.9 -4.7 0  3 -4.7 0  3.1 -4.7 0  3.199999999999999 -4.7 0  3.300000000000001 -4.7 0  3.4 -4.7 0  3.5 -4.7 0  3.6 -4.7 0  3.699999999999999 -4.7 0  3.800000000000001 -4.7 0  3.9 -4.7 0  4 -4.7 0  4.1 -4.7 0  4.199999999999999 -4.7 0  4.300000000000001 -4.7 0  4.4 -4.7 0  4.5 -4.7 0  4.6 -4.7 0  4.699999999999999 -4.7 0  4.800000000000001 -4.7 0  4.9 -4.7 0  5 -4.7 0  -5 -4.6 0  -4.9 -4.6 0  -4.8 -4.6 0  -4.7 -4.6 0  -4.6 -4.6 0  -4.5 -4.6 0  -4.4 -4.6 0  -4.3 -4.6 0  -4.2 -4.6 0  -4.1 -4.6 0  -4 -4.6 0  -3.9 -4.6 0  -3.8 -4.6 0  -3.7 -4.6 0  -3.6 -4.6 0  -3.5 -4.6 0  -3.4 -4.6 0  -3.3 -4.6 0  -3.2 -4.6 0  -3.1 -4.6 0  -3 -4.6 0  -2.9 -4.6 0  -2.8 -4.6 0  -2.7 -4.6 0  -2.6 -4.6 0  -2.5 -4.6 0  -2.4 -4.6 0  -2.3 -4.6 0  -2.2 -4.6 0  -2.1 -4.6 0  -2 -4.6 0  -1.9 -4.6 0  -1.8 -4.6 0  -1.7 -4.6 0  -1.6 -4.6 0  -1.5 -4.6 0  -1.4 -4.6 0  -1.3 -4.6 0  -1.2 -4.6 0  -1.1 -4.6 0  -1 -4.6 0  -0.9000000000000004 -4.6 0  -0.7999999999999998 -4.6 0  -0.7000000000000002 -4.6 0  -0.5999999999999996 -4.6 0  -0.5 -4.6 0  -0.4000000000000004 -4.6 0  -0.2999999999999998 -4.6 0  -0.2000000000000002 -4.6 0  -0.09999999999999964 -4.6 0  0 -4.6 0  0.09999999999999964 -4.6 0  0.2000000000000002 -4.6 0  0.2999999999999998 -4.6 0  0.4000000000000004 -4.6 0  0.5 -4.6 0  0.5999999999999996 -4.6 0  0.7000000000000002 -4.6 0  0.7999999999999998 -4.6 0  0.9000000000000004 -4.6 0  1 -4.6 0  1.1 -4.6 0  1.2 -4.6 0  1.3 -4.6 0  1.4 -4.6 0  1.5 -4.6 0  1.6 -4.6 0  1.7 -4.6 0  1.8 -4.6 0  1.9 -4.6 0  2 -4.6 0  2.1 -4.6 0  2.2 -4.6 0  2.3 -4.6 0  2.4 -4.6 0  2.5 -4.6 0  2.6 -4.6 0  2.7 -4.6 0  2.8 -4.6 0  2.9 -4.6 0  3 -4.6 0  3.1 -4.6 0  3.199999999999999 -4.6 0  3.300000000000001 -4.6 0  3.4 -4.6 0  3.5 -4.6 0  3.6 -4.6 0  3.699999999999999 -4.6 0  3.800000000000001 -4.6 0  3.9 -4.6 0  4 -4.6 0  4.1 -4.6 0  4.199999999999999 -4.6 0  4.300000000000001 -4.6 0  4.4 -4.6 0  4.5 -4.6 0  4.6 -4.6 0  4.699999999999999 -4.6 0  4.800000000000001 -4.6 0  4.9 -4.6 0  5 -4.6 0  -5 -4.5 0  -4.9 -4.5 0  -4.8 -4.5 0  -4.7 -4.5 0  -4.6 -4.5 0  -4.5 -4.5 0  -4.4 -4.5 0  -4.3 -4.5 0  -4.2 -4.5 0  -4.1 -4.5 0  -4 -4.5 0  -3.9 -4.5 0  -3.8 -4.5 0  -3.7 -4.5 0  -3.6 -4.5 0  -3.5 -4.5 0  -3.4 -4.5 0  -3.3 -4.5 0  -3.2 -4.5 0  -3.1 -4.5 0  -3 -4.5 0  -2.9 -4.5 0  -2.8 -4.5 0  -2.7 -4.5 0  -2.6 -4.5 0  -2.5 -4.5 0  -2.4 -4.5 0  -2.3 -4.5 0  -2.2 -4.5 0  -2.1 -4.5 0  -2 -4.5 0  -1.9 -4.5 0  -1.8 -4.5 0  -1.7 -4.5 0  -1.6 -4.5 0  -1.5 -4.5 0  -1.4 -4.5 0  -1.3 -4.5 0  -1.2 -4.5 0  -1.1 -4.5 0  -1 -4.5 0  -0.9000000000000004 -4.5 0  -0.7999999999999998 -4.5 0  -0.7000000000000002 -4.5 0  -0.5999999999999996 -4.5 0  -0.5 -4.5 0  -0.4000000000000004 -4.5 0  -0.2999999999999998 -4.5 0  -0.2000000000000002 -4.5 0  -0.09999999999999964 -4.5 0  0 -4.5 0  0.09999999999999964 -4.5 0  0.2000000000000002 -4.5 0  0.2999999999999998 -4.5 0  0.4000000000000004 -4.5 0  0.5 -4.5 0  0.5999999999999996 -4.5 0  0.7000000000000002 -4.5 0  0.7999999999999998 -4.5 0  0.9000000000000004 -4.5 0  1 -4.5 0  1.1 -4.5 0  1.2 -4.5 0  1.3 -4.5 0  1.4 -4.5 0  1.5 -4.5 0  1.6 -4.5 0  1.7 -4.5 0  1.8 -4.5 0  1.9 -4.5 0  2 -4.5 0  2.1 -4.5 0  2.2 -4.5 0  2.3 -4.5 0  2.4 -4.5 0  2.5 -4.5 0  2.6 -4.5 0  2.7 -4.5 0  2.8 -4.5 0  2.9 -4.5 0  3 -4.5 0  3.1 -4.5 0  3.199999999999999 -4.5 0  3.300000000000001 -4.5 0  3.4 -4.5 0  3.5 -4.5 0  3.6 -4.5 0  3.699999999999999 -4.5 0  3.800000000000001 -4.5 0  3.9 -4.5 0  4 -4.5 0  4.1 -4.5 0  4.199999999999999 -4.5 0  4.300000000000001 -4.5 0  4.4 -4.5 0  4.5 -4.5 0  4.6 -4.5 0  4.699999999999999 -4.5 0  4.800000000000001 -4.5 0  4.9 -4.5 0  5 -4.5 0  -5 -4.4 0  -4.9 -4.4 0  -4.8 -4.4 0  -4.7 -4.4 0  -4.6 -4.4 0  -4.5 -4.4 0  -4.4 -4.4 0  -4.3 -4.4 0  -4.2 -4.4 0  -4.1 -4.4 0  -4 -4.4 0  -3.9 -4.4 0  -3.8 -4.4 0  -3.7 -4.4 0  -3.6 -4.4 0  -3.5 -4.4 0  -3.4 -4.4 0  -3.3 -4.4 0  -3.2 -4.4 0  -3.1 -4.4 0  -3 -4.4 0  -2.9 -4.4 0  -2.8 -4.4 0  -2.7 -4.4 0  -2.6 -4.4 0  -2.5 -4.4 0  -2.4 -4.4 0  -2.3 -4.4 0  -2.2 -4.4 0  -2.1 -4.4 0  -2 -4.4 0  -1.9 -4.4 0  -1.8 -4.
[...]
<PointData  Vectors="f_17"> 
<DataArray  type="Float64"  Name="f_17"  NumberOfComponents="3" format="ascii">1.5000000000000005e-01 0.0000000000000000e+00 0.0000000000000000e+00  1.5000000000000008e-01 -4.6814566595477365e-16 0.0000000000000000e+00  1.5000000000000002e-01 5.8596216419053421e-16 0.0000000000000000e+00  1.5000000000000002e-01 5.4678800592690114e-17 0.0000000000000000e+00  1.5000000000000005e-01 -4.2124027234586000e-16 0.0000000000000000e+00  1.5000000000000005e-01 -3.7648278384574183e-16 0.0000000000000000e+00  1.5000000000000030e-01 4.0401313033314337e-16 0.0000000000000000e+00  1.4999999999999983e-01 5.8307650459315163e-16 0.0000000000000000e+00  1.4999999999999999e-01 -3.9474070131185764e-16 0.0000000000000000e+00  1.4999999999999988e-01 -1.0734212297192175e-16 0.0000000000000000e+00  1.5000000000000008e-01 9.1933700174937886e-18 0.0000000000000000e+00  1.4999999999999997e-01 -2.2027170383904375e-16 0.0000000000000000e+00  1.5000000000000011e-01 -1.0090590965786083e-16 0.0000000000000000e+00  1.5000000000000005e-01 -2.8912601604771923e-17 0.0000000000000000e+00  1.4999999999999999e-01 4.7497806469557959e-16 0.0000000000000000e+00  1.5000000000000022e-01 -5.2083302529518599e-17 0.0000000000000000e+00  1.4999999999999997e-01 4.3467680797157082e-16 0.0000000000000000e+00  1.4999999999999997e-01 -6.2163865278436614e-16 0.0000000000000000e+00  1.5000000000000005e-01 3.4951881198286250e-16 0.0000000000000000e+00  1.5000000000000022e-01 -2.5698288292054772e-16 0.0000000000000000e+00  1.5000000000000011e-01 1.8409545347801873e-16 0.0000000000000000e+00  1.5000000000000022e-01 -4.1041117730523540e-16 0.0000000000000000e+00  1.5000000000000002e-01 3.1603770562205856e-16 0.0000000000000000e+00  1.4999999999999999e-01 1.4321621096640254e-16 0.0000000000000000e+00  1.5000000000000024e-01 -1.5284495366301369e-16 0.0000000000000000e+00  1.4999999999999997e-01 2.4582668068152693e-17 0.0000000000000000e+00  1.5000000000000024e-01 2.7868700729049363e-16 0.0000000000000000e+00  1.4999999999999999e-01 -5.1789143119749417e-16 0.0000000000000000e+00  1.4999999999999999e-01 2.8327009566587981e-16 0.0000000000000000e+00  1.5000000000000002e-01 -3.4185002894949461e-16 0.0000000000000000e+00  1.4999999999999999e-01 5.0946009494529060e-16 0.0000000000000000e+00  1.4999999999999999e-01 -1.2592448727497359e-16 0.0000000000000000e+00  1.5000000000000002e-01 1.8910295233969840e-16 0.0000000000000000e+00  1.4999999999999997e-01 -7.1383790436648736e-16 0.0000000000000000e+00  1.5000000000000030e-01 3.5549000604045954e-16 0.0000000000000000e+00  1.4999999999999999e-01 2.8000023573079953e-16 0.0000000000000000e+00  1.4999999999999997e-01 3.3203944024583378e-16 0.0000000000000000e+00  1.4999999999999999e-01 -6.0898911851646653e-16 0.0000000000000000e+00  1.5000000000000005e-01 1.7588153597092049e-16 0.0000000000000000e+00  1.4999999999999997e-01 -2.4419101211741087e-17 0.0000000000000000e+00  1.5000000000000005e-01 -3.0663896355244806e-16 0.0000000000000000e+00  1.5000000000000002e-01 3.7668757548757440e-17 0.0000000000000000e+00  1.5000000000000008e-01 3.0339551307226492e-16 0.0000000000000000e+00  1.4999999999999999e-01 -6.3121203805330288e-16 0.0000000000000000e+00  1.4999999999999999e-01 4.8618319364671707e-16 0.0000000000000000e+00  1.5000000000000022e-01 -3.5689122818893865e-16 0.0000000000000000e+00  1.4999999999999997e-01 3.7518865209890144e-16 0.0000000000000000e+00  1.5000000000000011e-01 -1.9623559930693396e-16 0.0000000000000000e+00  1.5000000000000016e-01 8.8921176364605992e-17 0.0000000000000000e+00  1.4999999999999997e-01 -2.9890732181317130e-16 0.0000000000000000e+00  1.5000000000000011e-01 4.6288209706376504e-18 0.0000000000000000e+00  1.5000000000000005e-01 3.6478943917405061e-16 0.0000000000000000e+00  1.4999999999999997e-01 1.5262974277954891e-16 0.0000000000000000e+00  1.5000000000000005e-01 -4.2319712917810740e-16 0.0000000000000000e+00  1.5000000000000008e-01 3.6887652963533024e-16 0.0000000000000000e+00  1.4999999999999983e-01 -1.2419378047323222e-16 0.0000000000000000e+00  1.5000000000000016e-01 6.5288049889110405e-17 0.0000000000000000e+00  1.4999999999999991e-01 -1.6427081041427857e-16 0.0000000000000000e+00  1.5000000000000013e-01 8.2112977783515548e-17 0.0000000000000000e+00  1.4999999999999999e-01 -1.3347898094252035e-16 0.0000000000000000e+00  1.5000000000000002e-01 1.4863457544431449e-16 0.0000000000000000e+00  1.5000000000000002e-01 -1.1148632043040119e-16 0.0000000000000000e+00  1.5000000000000005e-01 1.6806123495808744e-16 0.0000000000000000e+00  1.5000000000000002e-01 -5.1420657515085422e-17 0.0000000000000000e+00  1.4999999999999999e-01 5.0592558035883408e-17 0.0000000000000000e+00  1.5000000000000008e-01 -4.4709672990875966e-16 0.0000000000000000e+00  1.5000000000000011e-01 4.1329862673233409e-16 0.0000000000000000e+00  1.4999999999999999e-01 -4.4296228990277135e-17 0.0000000000000000e+00  1.5000000000000013e-01 -3.8600214068117278e-16 0.0000000000000000e+00  1.5000000000000011e-01 -9.3192903363583708e-17 0.0000000000000000e+00  1.5000000000000011e-01 -3.8376815913243861e-18 0.0000000000000000e+00  1.5000000000000005e-01 5.1170645350718608e-16 0.0000000000000000e+00  1.5000000000000002e-01 -3.8255952027750952e-16 0.0000000000000000e+00  1.5000000000000008e-01 2.7510165655711723e-16 0.0000000000000000e+00  1.5000000000000005e-01 9.1809797041462365e-17 0.0000000000000000e+00  1.4999999999999997e-01 -4.7734912359811303e-16 0.0000000000000000e+00  1.5000000000000013e-01 3.0607896310169648e-16 0.0000000000000000e+00  1.4999999999999980e-01 4.7979077543827180e-16 0.0000000000000000e+00  1.4999999999999999e-01 -3.1703147347040938e-16 0.0000000000000000e+00  1.4999999999999994e-01 -1.4480940058618392e-16 0.0000000000000000e+00  1.4999999999999999e-01 -4.1558133577860926e-16 0.0000000000000000e+00  1.5000000000000002e-01 3.1805617292091126e-16 0.0000000000000000e+00  1.5000000000000005e-01 -1.0320247859709663e-16 0.0000000000000000e+00  1.4999999999999997e-01 -4.5205685261260310e-17 0.0000000000000000e+00  1.5000000000000005e-01 5.7406164544538786e-17 0.0000000000000000e+00  1.5000000000000013e-01 1.6266482549421456e-16 0.0000000000000000e+00  1.4999999999999999e-01 -1.2852386799403073e-16 0.0000000000000000e+00  1.4999999999999994e-01 6.1735639209053336e-16 0.0000000000000000e+00  1.5000000000000002e-01 -6.4476801725976305e-16 0.0000000000000000e+00  1.5000000000000005e-01 3.0075502535368893e-16 0.0000000000000000e+00  1.5000000000000008e-01 -5.4232196767286984e-16 0.0000000000000000e+00  1.4999999999999999e-01 3.0058126438033153e-16 0.0000000000000000e+00  1.5000000000000008e-01 2.1305084927383436e-16 0.0000000000000000e+00  1.4999999999999966e-01 1.8518414024513474e-17 0.0000000000000000e+00  1.5000000000000002e-01 7.3453200164635647e-17 0.0000000000000000e+00  1.5000000000000002e-01 2.1494273499822640e-17 0.0000000000000000e+00  1.5000000000000002e-01 -2.6053734804406358e-16 0.0000000000000000e+00  1.4999999999999986e-01 -1.5995544998029797e-17 0.0000000000000000e+00  1.5000000000000005e-01 -2.2054750844466913e-16 0.0000000000000000e+00  1.5000000000000008e-01 1.2708756872388358e-16 0.0000000000000000e+00  1.5000000000000011e-01 0.0000000000000000e+00 0.0000000000000000e+00  1.4999999999999999e-01 0.0000000000000000e+00 -5.6547170489735456e-17  1.4999999999999999e-01 1.5709364455481933e-16 -4.9734572850245835e-17  1.5000000000000005e-01 -4.9798298735482200e-17 -1.0000482903322738e-16  1.5000000000000005e-01 -1.5686498202651573e-17 -3.5653130995006432e-16  1.5000000000000005e-01 -9.1325791267217903e-17 -2.5182533895732156e-16  1.5000000000000008e-01 -2.6388326521406886e-16 -6.2897127622559842e-17  1.5000000000000008e-01 5.0228314775396230e-16 -2.4763328229935736e-16  1.4999999999999999e-01 2.7225154325718880e-17 -5.3890302077961394e-18  1.5000000000000002e-01 -1.2669665764036232e-16 -8.6587066429984462e-17  1.5000000000000011e-01 -1.3729758469651232e-16 6.0439621651096333e-18  1.4999999999999999e-01 2.2189220217627647e-16 3.7445389081121513e-17  1.5000000000000002e-01 2.5298130346491112e-16 -5.5357391269789743e-17  1.5000000000000005e-01 -3.1060848847412889e-16 -3.4451751421908898e-17  1.4999999999999997e-01 3.4307696840428402e-16 2.3244789414193935e-17  1.4999999999999997e-01 -1.5021414222288438e-16 -1.0944263140635254e-16  1.4999999999999999e-01 -1.3519887506401911e-16 -2.4558195276854682e-16  1.4999999999999983e-01 6.9882906796231482e-17 -3.3009341031996354e-16  1.5000000000000005e-01 -1.6748743335676296e-17 -1.9637671816260990e-16  1.5000000000000005e-01 -1.8886901300762485e-16 3.8345684133714212e-17  1.4999999999999999e-01 5.6576049059381740e-17 -3.6547439202179104e-16  1.4999999999999999e-01 -2.5630491854536509e-16 1.3720050235325792e-18  1.5000000000000008e-01 -1.1384298415315833e-16 -2.7778490259570264e-16  1.5000000000000005e-01 4.7240726182864320e-16 -1.0582518755378443e-16  1.5000000000000008e-01 1.9945127388466463e-16 -2.2869334873972554e-16  1.4999999999999983e-01 -2.3681104206294055e-16 -3.0072026770621000e-16  1.5000000000000002e-01 1.1844618634363764e-16 -2.4111135154444006e-16  1.4999999999999994e-01 -4.9941846440271901e-16 -4.0395314713030163e-16  1.5000000000000002e-01 1.9228073685713711e-16 -2.9613319779968822e-16  1.5000000000000013e-01 -3.3043596670995650e-18 -2.0934970301539238e-16  1.5000000000000013e-01 2.4701736520530130e-16 -3.5474986769502566e-16  1.4999999999999994e-01 1.1264370513788519e-16 -1.2087146251224341e-16  1.5000000000000005e-01 -3.9120190771227219e-16 -2.1176242505514603e-16  1.5000000000000005e-01 -1.5800600263906581e-16 8.8192592134092402e-17  1.5000000000000011e-01 1.5270635454817896e-17 -3.1581061278356334e-16  1.5000000000000002e-01 1.0003915362570192e-16 -2.7841646835804050e-16  1.4999999999999997e-01 1.7771510843250390e-16 -1.2482505514241664e-16  1.5000000000000008e-01 -3.9399475823391339e-16 -4.0926334441000191e-16  1.5000000000000008e-01 3.3876954394267318e-16 -3.7451742771198442e-16  1.5000000000000002e-01 1.3697268569805189e-16 1.0409833620049189e-16  1.5000000000000002e-01 3.3784873597928869e-17 -2.7958889691048383e-16  1.5000000000000005e-01 -3.1038196909775682e-16 1.4600221487210642e-16  1.5000000000000008e-01 6.7428418697718941e-17 9.9063599748580841e-17  1.5000000000000005e-01 6.2732529139471462e-17 -1.7787283550626791e-16  1.5000000000000011e-01 7.3358008908638053e-17 -2.4461640395830596e-17  1.5000000000000011e-01 -3.7215214881781270e-17 -6.3816390619345560e-17  1.5000000000000013e-01 3.3470525337369902e-17 1.1075134775936396e-16  1.5000000000000011e-01 1.4194916880969098e-16 -3.0884751631213308e-16  1.5000000000000008e-01 -1.6036841532328518e-16 1.2045385017899092e-16  1.5000000000000002e-01 3.6914673866346797e-17 1.1238061562145957e-16  1.5000000000000011e-01 -2.3385813913726967e-16 -1.0575194188984633e-16  1.5000000000000002e-01 3.3871740144048356e-16 2.4578634098181969e-17  1.5000000000000002e-01 -1.1395156995377763e-16 2.7623119996107049e-16  1.5000000000000008e-01 -2.9020006877784691e-17 -2.5033864822326371e-16  1.4999999999999988e-01 2.2586254540040373e-16 -2.9130174225491901e-16  1.4999999999999999e-01 -9.9270229294290006e-17 3.2691355052807584e-16  1.5000000000000005e-01 -7.1582568566618586e-17 -2.9936885076137204e-16  1.5000000000000005e-01 -7.7195456209879971e-17 -1.5870717997217642e-16  1.5000000000000002e-01 1.1771255366997746e-16 3.4259891893243846e-17  1.5000000000000008e-01 -8.3454566431334639e-17 -3.1334617139465245e-17  1.5000000000000002e-01 9.1033514555364830e-17 1.2174055814587129e-16  1.5000000000000002e-01 -2.3635666789126669e-16 7.5641257705345821e-17  1.5000000000000008e-01 6.5637675994556465e-18 -2.3174480944409703e-16  1.5000000000000005e-01 1.6610334298117909e-16 -1.0367765413119044e-16  1.5000000000000008e-01 -1.8241307141129657e-16 1.2620225159433990e-16  1.5000000000000011e-01 -1.4189300977899938e-16 -1.3264413187343953e-16  1.5000000000000008e-01 -1.7666393853818833e-16 1.0504857844648745e-16  1.5000000000000011e-01 3.7178158181534028e-16 -1.4262251562019843e-16  1.5000000000000024e-01 -5.9502388319797707e-17 2.0767973212206665e-18  1.5000000000000008e-01 -1.0409317435400330e-16 -1.1599227240943430e-17  1.5000000000000011e-01 1.0780619849585784e-16 1.7752412906533507e-17  1.4999999999999999e-01 4.6989216780923459e-16 2.8077195144883088e-16  1.5000000000000005e-01 -2.9367716061650243e-16 3.9454188335139307e-16  1.5000000000000005e-01 -2.2452868758605586e-16 9.7931203494847625e-17  1.5000000000000011e-01 -3.9878138291243992e-18 8.9618057841591817e-17  1.5000000000000002e-01 1.9120135187654095e-16 -6.3603048651757537e-17  1.5000000000000008e-01 6.7128938634853018e-17 1.2943518763337855e-16  1.5000000000000008e-01 -1.8135709136112739e-16 4.3573325916277964e-16  1.5000000000000016e-01 1.8486670369062107e-16 -1.2131194247822223e-16  1.5000000000000005e-01 -1.5773457039940051e-16 -2.2915743665945917e-16  1.5000000000000016e-01 -2.9647894401316028e-16 2.3398191000214704e-16  1.5000000000000005e-01 1.9438268269909082e-16 1.3820836928207596e-16  1.4999999999999997e-01 1.7651821795852314e-16 9.8616409903863635e-17  1.5000000000000008e-01 4.3020440563786762e-16 6.8437661454278057e-17  1.5000000000000008e-01 -2.6168120492056814e-16 3.0582129006301655e-16  1.5000000000000005e-01 -2.9805614740645314e-16 1.0598341148233686e-16  1.5000000000000008e-01 -1.1713433121125934e-16 -1.3776028611819677e-16  1.5000000000000005e-01 3.7032089602172190e-16 2.3595609622960414e-17  1.5000000000000005e-01 -7.5320322280997385e-17 3.2189350622328887e-16  1.5000000000000002e-01 -6.9127154787480165e-17 2.3230776382553351e-16  1.5000000000000011e-01 -4.3274945627569505e-16 3.5736419819346463e-16  1.5000000000000005e-01 3.1927472626627962e-16 -1.3792452197763112e-17  1.5000000000000008e-01 1.4367370623234505e-16 1.6731413577069718e-16  1.5000000000000005e-01 4.6168617312393485e-16 -1.3533994260566674e-16  1.4999999999999997e-01 -7.3269680742447425e-17 7.4153114330036162e-17  1.5000000000000002e-01 -4.1029497103797223e-16 1.4367783153415879e-16  1.5000000000000008e-01 -3.7958245844210271e-16 1.1380783425821056e-16  1.5000000000000011e-01 3.0844842756998626e-16 -3.6734778573570780e-16  1.5000000000000002e-01 4.2756750228285486e-16 2.4998442241885534e-17  1.4999999999999997e-01 5.0962244846358032e-17 4.2499167063973407e-16  1.5000000000000005e-01 -2.8777141979796166e-16 -1.4885422702477571e-17  1.4999999999999999e-01 0.0000000000000000e+00 1.5118039579144667e-16  1.4999999999999999e-01 0.0000000000000000e+00 5.6553862503343411e-17  1.5000000000000013e-01 -2.6523486484189638e-16 2.9485772582079714e-16  1.5000000000000011e-01 -2.8804619004730662e-16 -1.6027506513224256e-16  1.5000000000000005e-01 2.7084464784747275e-16 3.2138329228090466e-17  1.4999999999999994e-01 -1.8536219829965503e-16 -1.6598922654272802e-16  1.5000000000000008e-01 1.8338234632269731e-17 -7.6268370085471861e-17  1.5000000000000011e-01 -2.4166292463018303e-16 2.5638723235077184e-16  1.5000000000000005e-01 4.9446380173854546e-16 -4.5695651762063297e-16  1.5000000000000005e-01 2.5856229822893497e-16 -4.0364384281091827e-16  1.4999999999999997e-01 -8.1244661988555592e-17 1.3126890109726212e-16  1.5000000000000002e-01 -2.1511769826409582e-17 1.2414758097788307e-16  1.5000000000000005e-01 -6.5443082956958732e-17 -1.6106234742511698e-16  1.4999999999999994e-01 -6.1357644286258665e-16 1.3177903486065590e-16  1.5000000000000013e-01 4.0153653119489944e-16 -4.6253412224386948e-16  1.5000000000000005e-01 -4.2257681269801758e-16 -1.0165599957645626e-17  1.5000000000000002e-01 1.3627876919531747e-16 -4.4674692639992723e-16  1.5000000000000008e-01 3.1397622484512320e-16 -2.6432684246047666e-16  1.5000000000000005e-01 9.8182221688690819e-17 -2.4598997277971877e-16  1.4999999999999999e-01 -3.4978470865848591e-17 -1.8116080407461646e-16  1.5000000000000011e-01 -2.0072930189436822e-16 1.6643868739327093e-16  1.5000000000000005e-01 1.2501561721143651e-16 -1.3976493053551939e-16  1.5000000000000002e-01 2.8072303213945642e-17 2.9735163624861835e-16  1.5000000000000005e-01 -4.0675106168577983e-17 1.4928718913494987e-16  1.4999999999999999e-01 3.0851013652663532e-17 -2.8145144535846101e-16  1.5000000000000008e-01 -1.2611761987876958e-16 5.1570788610441655e-17  1.5000000000000008e-01 -6.1516676131704101e-17 -3.6338990194952008e-17  1.5000000000000005e-01 -2.1980424693821558e-16 2.1524612945995310e-16  1.5000000000000008e-01 4.9762871955768381e-16 -1.3101142484537037e-16  1.4999999999999999e-01 -2.6810190345636389e-16 1.5900505318181995e-16  1.5000000000000019e-01 -1.0285468979543677e-16 -9.9713068163085501e-17  1.5000000000000011e-01 2.0237628020661345e-16 -3.5915615197618187e-16  1.5000000000000002e-01 7.5471146896739330e-17 1.5685246797450316e-16  1.5000000000000005e-01 2.7884695927748978e-16 -1.2926520530043881e-16  1.4999999999999999e-01 -2.0127805743308654e-16 6.9234930900095376e-17  1.5000000000000005e-01 -3.4718825408992682e-16 6.5552379262847572e-16  1.5000000000000011e-01 7.3163286697795453e-17 -1.4865338269454845e-16  1.5000000000000008e-01 2.0332419204514411e-16 -1.4874096874267969e-16  1.4999999999999997e-01 5.6869730767509650e-16 3.9299442655882050e-16  1.4999999999999999e-01 -3.5870037118502042e-16 1.8970350452928018e-16  1.4999999999999999e-01 -2.3969920119818286e-16 -9.2141878688087311e-17  1.5000000000000005e-01 2.1068249429155377e-16 -2.4054186299962926e-16  1.4999999999999999e-01 -9.3882453225299558e-17 -1.2060604058760237e-16  1.5000000000000005e-01 -6.1992593140206205e-17 1.8573149030021839e-16  1.5000000000000005e-01 9.6487531163417565e-17 -9.8147136240075354e-17  1.4999999999999999e-01 -3.4005787483500435e-16 2.0635434275869527e-16  1.5000000000000008e-01 3.3639760894728868e-16 -2.3392513605986325e-16  1.4999999999999999e-01 -5.6765643604999535e-16 -2.5748355932021721e-17  1.5000000000000005e-01 5.5326764063273936e-16 -4.6851558803964601e-16  1.5000000000000005e-01 8.4790774717991620e-17 -2.6973296067151046e-16  1.5000000000000016e-01 -4.7567457341413849e-16 1.6714775200454634e-16  1.5000000000000005e-01 3.6257336587467658e-16 -1.9916698465086601e-16  1.5000000000000008e-01 -1.7842467361886590e-16 -1.7438350202244352e-16  1.5000000000000002e-01 2.3706072314980778e-17 -2.7876893154579546e-16  1.5000000000000013e-01 1.5522304013967914e-16 5.2337073399483055e-17  1.5000000000000005e-01 -9.9603161515564543e-17 -3.2489551030908496e-16  1.5000000000000005e-01 -7.9060744333732219e-17 -3.0465955820798480e-16  1.5000000000000002e-01 7.2254496769582860e-17 1.9781301082564007e-16  1.5000000000000013e-01 2.3503652250550196e-16 -1.3577002397982605e-16  1.4999999999999994e-01 -1.6153446577758043e-16 6.9620129469583990e-17  1.5000000000000002e-01 6.9304011040160354e-17 -2.1472645630360799e-16  1.5000000000000005e-01 -1.5258630525363846e-16 -2.2585683533343007e-16  1.5000000000000013e-01 -4.9635711005584433e-17 1.7616565151344343e-16  1.5000000000000005e-01 4.8506913823866845e-17 2.2665624681268584e-17  1.5000000000000005e-01 1.8343890735067882e-16 -3.2115618037661977e-16  1.5000000000000002e-01 -3.2650569066492136e-17 2.0366398374243077e-16  1.5000000000000002e-01 1.7676401156437808e-17 2.7498469377341174e-16  1.5000000000000005e-01 -3.0310858573867606e-16 1.2066782423860560e-16  1.5000000000000005e-01 3.0075031797028633e-16 -1.7928199420401071e-16  1.5000000000000005e-01 -2.1712204574595017e-16 -7.1109182024303523e-17  1.5000000000000016e-01 9.2218494613231726e-17 1.6900393292339535e-16  1.4999999999999994e-01 1.7434697386351680e-16 3.6014253904694622e-17  1.5000000000000005e-01 -3.4748717751970626e-16 -3.1703425611879667e-16  1.5000000000000005e-01 3.4464430788280913e-16 -3.9983326804860990e-16  1.5000000000000002e-01 -2.4863501536903051e-16 2.7871344023465335e-16  1.5000000000000005e-01 1.0917185077139678e-16 -1.0002863003190158e-16  1.5000000000000005e-01 2.7195257206323665e-16 -2.7283532564380059e-16  1.4999999999999997e-01 -1.5080792861107825e-16 1.8107539918657517e-16  1.5000000000000008e-01 -1.6459158688312540e-16 1.5943353594814616e-16  1.4999999999999999e-01 5.6300854883510258e-17 -4.02236