<?xml version="1.0"?>
<VTKFile type="UnstructuredGrid"  version="0.1"  >
<UnstructuredGrid>
<Piece  NumberOfPoints="10201" NumberOfCells="20000">
<Points>
<DataArray  type="Float64"  NumberOfComponents="3"  format="ascii">-5 -5 0  -4.9 -5 0  -4.8 -5 0  -4.7 -5 0  -4.6 -5 0  -4.5 -5 0  -4.4 -5 0  -4.3 -5 0  -4.2 -5 0  -4.1 -5 0  -4 -5 0  -3.9 -5 0  -3.8 -5 0  -3.7 -5 0  -3.6 -5 0  -3.5 -5 0  -3.4 -5 0  -3.3 -5 0  -3.2 -5 0  -3.1 -5 0  -3 -5 0  -2.9 -5 0  -2.8 -5 0  -2.7 -5 0  -2.6 -5 0  -2.5 -5 0  -2.4 -5 0  -2.3 -5 0  -2.2 -5 0  -2.1 -5 0  -2 -5 0  -1.9 -5 0  -1.8 -5 0  -1.7 -5 0  -1.6 -5 0  -1.5 -5 0  -1.4 -5 0  -1.3 -5 0  -1.2 -5 0  -1.1 -5 0  -1 -5 0  -0.9000000000000004 -5 0  -0.7999999999999998 -5 0  -0.7000000000000002 -5 0  -0.5999999999999996 -5 0  -0.5 -5 0  -0.4000000000000004 -5 0  -0.2999999999999998 -5 0  -0.2000000000000002 -5 0  -0.09999999999999964 -5 0  0 -5 0  0.09999999999999964 -5 0  0.2000000000000002 -5 0  0.2999999999999998 -5 0  0.4000000000000004 -5 0  0.5 -5 0  0.5999999999999996 -5 0  0.7000000000000002 -5 0  0.7999999999999998 -5 0  0.9000000000000004 -5 0  1 -5 0  1.1 -5 0  1.2 -5 0  1.3 -5 0  1.4 -5 0  1.5 -5 0  1.6 -5 0  1.7 -5 0  1.8 -5 0  1.9 -5 0  2 -5 0  2.1 -5 0  2.2 -5 0  2.3 -5 0  2.4 -5 0  2.5 -5 0  2.6 -5 0  2.7 -5 0  2.8 -5 0  2.9 -5 0  3 -5 0  3.1 -5 0  3.199999999999999 -5 0  3.300000000000001 -5 0  3.4 -5 0  3.5 -5 0  3.6 -5 0  3.699999999999999 -5 0  3.800000000000001 -5 0  3.9 -5 0  4 -5 0  4.1 -5 0  4.199999999999999 -5 0  4.300000000000001 -5 0  4.4 -5 0  4.5 -5 0  4.6 -5 0  4.699999999999999 -5 0  4.800000000000001 -5 0  4.9 -5 0  5 -5 0  -5 -4.9 0  -4.9 -4.9 0  -4.8 -4.9 0  -4.7 -4.9 0  -4.6 -4.9 0  -4.5 -4.9 0  -4.4 -4.9 0  -4.3 -4.9 0  -4.2 -4.9 0  -4.1 -4.9 0  -4 -4.9 0  -3.9 -4.9 0  -3.8 -4.9 0  -3.7 -4.9 0  -3.6 -4.9 0  -3.5 -4.9 0  -3.4 -4.9 0  -3.3 -4.9 0  -3.2 -4.9 0  -3.1 -4.9 0  -3 -4.9 0  -2.9 -4.9 0  -2.8 -4.9 0  -2.7 -4.9 0  -2.6 -4.9 0  -2.5 -4.9 0  -2.4 -4.9 0  -2.3 -4.9 0  -2.2 -4.9 0  -2.1 -4.9 0  -2 -4.9 0  -1.9 -4.9 0  -1.8 -4.9 0  -1.7 -4.9 0  -1.6 -4.9 0  -1.5 -4.9 0  -1.4 -4.9 0  -1.3 -4.9 0  -1.2 -4.9 0  -1.1 -4.9 0  -1 -4.9 0  -0.9000000000000004 -4.9 0  -0.7999999999999998 -4.9 0  -0.7000000000000002 -4.9 0  -0.5999999999999996 -4.9 0  -0.5 -4.9 0  -0.4000000000000004 -4.9 0  -0.2999999999999998 -4.9 0  -0.2000000000000002 -4.9 0  -0.09999999999999964 -4.9 0  0 -4.9 0  0.09999999999999964 -4.9 0  0.2000000000000002 -4.9 0  0.2999999999999998 -4.9 0  0.4000000000000004 -4.9 0  0.5 -4.9 0  0.5999999999999996 -4.9 0  0.7000000000000002 -4.9 0  0.7999999999999998 -4.9 0  0.9000000000000004 -4.9 0  1 -4.9 0  1.1 -4.9 0  1.2 -4.9 0  1.3 -4.9 0  1.4 -4.9 0  1.5 -4.9 0  1.6 -4.9 0  1.7 -4.9 0  1.8 -4.9 0  1.9 -4.9 0  2 -4.9 0  2.1 -4.9 0  2.2 -4.9 0  2.3 -4.9 0  2.4 -4.9 0  2.5 -4.9 0  2.6 -4.9 0  2.7 -4.9 0  2.8 -4.9 0  2.9 -4.9 0  3 -4.9 0  3.1 -4.9 0  3.199999999999999 -4.9 0  3.300000000000001 -4.9 0  3.4 -4.9 0  3.5 -4.9 0  3.6 -4.9 0  3.699999999999999 -4.9 0  3.800000000000001 -4.9 0  3.9 -4.9 0  4 -4.9 0  4.1 -4.9 0  4.199999999999999 -4.9 0  4.300000000000001 -4.9 0  4.4 -4.9 0  4.5 -4.9 0  4.6 -4.9 0  4.699999999999999 -4.9 0  4.800000000000001 -4.9 0  4.9 -4.9 0  5 -4.9 0  -5 -4.8 0  -4.9 -4.8 0  -4.8 -4.8 0  -4.7 -4.8 0  -4.6 -4.8 0  -4.5 -4.8 0  -4.4 -4.8 0  -4.3 -4.8 0  -4.2 -4.8 0  -4.1 -4.8 0  -4 -4.8 0  -3.9 -4.8 0  -3.8 -4.8 0  -3.7 -4.8 0  -3.6 -4.8 0  -3.5 -4.8 0  -3.4 -4.8 0  -3.3 -4.8 0  -3.2 -4.8 0  -3.1 -4.8 0  -3 -4.8 0  -2.9 -4.8 0  -2.8 -4.8 0  -2.7 -4.8 0  -2.6 -4.8 0  -2.5 -4.8 0  -2.4 -4.8 0  -2.3 -4.8 0  -2.2 -4.8 0  -2.1 -4.8 0  -2 -4.8 0  -1.9 -4.8 0  -1.8 -4.8 0  -1.7 -4.8 0  -1.6 -4.8 0  -1.5 -4.8 0  -1.4 -4.8 0  -1.3 -4.8 0  -1.2 -4.8 0  -1.1 -4.8 0  -1 -4.8 0  -0.9000000000000004 -4.8 0  -0.7999999999999998 -4.8 0  -0.7000000000000002 -4.8 0  -0.5999999999999996 -4.8 0  -0.5 -4.8 0  -0.4000000000000004 -4.8 0  -0.2999999999999998 -4.8 0  -0.2000000000000002 -4.8 0  -0.09999999999999964 -4.8 0  0 -4.8 0  0.09999999999999964 -4.8 0  0.2000000000000002 -4.8 0  0.2999999999999998 -4.8 0  0.4000000000000004 -4.8 0  0.5 -4.8 0  0.5999999999999996 -4.8 0  0.7000000000000002 -4.8 0  0.7999999999999998 -4.8 0  0.9000000000000004 -4.8 0  1 -4.8 0  1.1 -4.8 0  1.2 -4.8 0  1.3 -4.8 0  1.4 -4.8 0  1.5 -4.8 0  1.6 -4.8 0  1.7 -4.8 0  1.8 -4.8 0  1.9 -4.8 0  2 -4.8 0  2.1 -4.8 0  2.2 -4.8 0  2.3 -4.8 0  2.4 -4.8 0  2.5 -4.8 0  2.6 -4.8 0  2.7 -4.8 0  2.8 -4.8 0  2.9 -4.8 0  3 -4.8 0  3.1 -4.8 0  3.199999999999999 -4.8 0  3.300000000000001 -4.8 0  3.4 -4.8 0  3.5 -4.8 0  3.6 -4.8 0  3.699999999999999 -4.8 0  3.800000000000001 -4.8 0  3.9 -4.8 0  4 -4.8 0  4.1 -4.8 0  4.199999999999999 -4.8 0  4.300000000000001 -4.8 0  4.4 -4.8 0  4.5 -4.8 0  4.6 -4.8 0  4.699999999999999 -4.8 0  4.800000000000001 -4.8 0  4.9 -4.8 0  5 -4.8 0  -5 -4.7 0  -4.9 -4.7 0  -4.8 -4.7 0  -4.7 -4.7 0  -4.6 -4.7 0  -4.5 -4.7 0  -4.4 -4.7 0  -4.3 -4.7 0  -4.2 -4.7 0  -4.1 -4.7 0  -4 -4.7 0  -3.9 -4.7 0  -3.8 -4.7 0  -3.7 -4.7 0  -3.6 -4.7 0  -3.5 -4.7 0  -3.4 -4.7 0  -3.3 -4.7 0  -3.2 -4.7 0  -3.1 -4.7 0  -3 -4.7 0  -2.9 -4.7 0  -2.8 -4.7 0  -2.7 -4.7 0  -2.6 -4.7 0  -2.5 -4.7 0  -2.4 -4.7 0  -2.3 -4.7 0  -2.2 -4.7 0  -2.1 -4.7 0  -2 -4.7 0  -1.9 -4.7 0  -1.8 -4.7 0  -1.7 -4.7 0  -1.6 -4.7 0  -1.5 -4.7 0  -1.4 -4.7 0  -1.3 -4.7 0  -1.2 -4.7 0  -1.1 -4.7 0  -1 -4.7 0  -0.9000000000000004 -4.7 0  -0.7999999999999998 -4.7 0  -0.7000000000000002 -4.7 0  -0.5999999999999996 -4.7 0  -0.5 -4.7 0  -0.4000000000000004 -4.7 0  -0.2999999999999998 -4.7 0  -0.2000000000000002 -4.7 0  -0.09999999999999964 -4.7 0  0 -4.7 0  0.09999999999999964 -4.7 0  0.2000000000000002 -4.7 0  0.2999999999999998 -4.7 0  0.4000000000000004 -4.7 0  0.5 -4.7 0  0.5999999999999996 -4.7 0  0.7000000000000002 -4.7 0  0.7999999999999998 -4.7 0  0.9000000000000004 -4.7 0  1 -4.7 0  1.1 -4.7 0  1.2 -4.7 0  1.3 -4.7 0  1.4 -4.7 0  1.5 -4.7 0  1.6 -4.7 0  1.7 -4.7 0  1.8 -4.7 0  1.9 -4.7 0  2 -4.7 0  2.1 -4.7 0  2.2 -4.7 0  2.3 -4.7 0  2.4 -4.7 0  2.5 -4.7 0  2.6 -4.7 0  2.7 -4.7 0  2.8 -4.7 0  2.9 -4.7 0  3 -4.7 0  3.1 -4.7 0  3.199999999999999 -4.7 0  3.300000000000001 -4.7 0  3.4 -4.7 0  3.5 -4.7 0  3.6 -4.7 0  3.699999999999999 -4.7 0  3.800000000000001 -4.7 0  3.9 -4.7 0  4 -4.7 0  4.1 -4.7 0  4.199999999999999 -4.7 0  4.300000000000001 -4.7 0  4.4 -4.7 0  4.5 -4.7 0  4.6 -4.7 0  4.699999999999999 -4.7 0  4.800000000000001 -4.7 0  4.9 -4.7 0  5 -4.7 0  -5 -4.6 0  -4.9 -4.6 0  -4.8 -4.6 0  -4.7 -4.6 0  -4.6 -4.6 0  -4.5 -4.6 0  -4.4 -4.6 0  -4.3 -4.6 0  -4.2 -4.6 0  -4.1 -4.6 0  -4 -4.6 0  -3.9 -4.6 0  -3.8 -4.6 0  -3.7 -4.6 0  -3.6 -4.6 0  -3.5 -4.6 0  -3.4 -4.6 0  -3.3 -4.6 0  -3.2 -4.6 0  -3.1 -4.6 0  -3 -4.6 0  -2.9 -4.6 0  -2.8 -4.6 0  -2.7 -4.6 0  -2.6 -4.6 0  -2.5 -4.6 0  -2.4 -4.6 0  -2.3 -4.6 0  -2.2 -4.6 0  -2.1 -4.6 0  -2 -4.6 0  -1.9 -4.6 0  -1.8 -4.6 0  -1.7 -4.6 0  -1.6 -4.6 0  -1.5 -4.6 0  -1.4 -4.6 0  -1.3 -4.6 0  -1.2 -4.6 0  -1.1 -4.6 0  -1 -4.6 0  -0.9000000000000004 -4.6 0  -0.7999999999999998 -4.6 0  -0.7000000000000002 -4.6 0  -0.5999999999999996 -4.6 0  -0.5 -4.6 0  -0.4000000000000004 -4.6 0  -0.2999999999999998 -4.6 0  -0.2000000000000002 -4.6 0  -0.09999999999999964 -4.6 0  0 -4.6 0  0.09999999999999964 -4.6 0  0.2000000000000002 -4.6 0  0.2999999999999998 -4.6 0  0.4000000000000004 -4.6 0  0.5 -4.6 0  0.5999999999999996 -4.6 0  0.7000000000000002 -4.6 0  0.7999999999999998 -4.6 0  0.9000000000000004 -4.6 0  1 -4.6 0  1.1 -4.6 0  1.2 -4.6 0  1.3 -4.6 0  1.4 -4.6 0  1.5 -4.6 0  1.6 -4.6 0  1.7 -4.6 0  1.8 -4.6 0  1.9 -4.6 0  2 -4.6 0  2.1 -4.6 0  2.2 -4.6 0  2.3 -4.6 0  2.4 -4.6 0  2.5 -4.6 0  2.6 -4.6 0  2.7 -4.6 0  2.8 -4.6 0  2.9 -4.6 0  3 -4.6 0  3.1 -4.6 0  3.199999999999999 -4.6 0  3.300000000000001 -4.6 0  3.4 -4.6 0  3.5 -4.6 0  3.6 -4.6 0  3.699999999999999 -4.6 0  3.800000000000001 -4.6 0  3.9 -4.6 0  4 -4.6 0  4.1 -4.6 0  4.199999999999999 -4.6 0  4.300000000000001 -4.6 0  4.4 -4.6 0  4.5 -4.6 0  4.6 -4.6 0  4.699999999999999 -4.6 0  4.800000000000001 -4.6 0  4.9 -4.6 0  5 -4.6 0  -5 -4.5 0  -4.9 -4.5 0  -4.8 -4.5 0  -4.7 -4.5 0  -4.6 -4.5 0  -4.5 -4.5 0  -4.4 -4.5 0  -4.3 -4.5 0  -4.2 -4.5 0  -4.1 -4.5 0  -4 -4.5 0  -3.9 -4.5 0  -3.8 -4.5 0  -3.7 -4.5 0  -3.6 -4.5 0  -3.5 -4.5 0  -3.4 -4.5 0  -3.3 -4.5 0  -3.2 -4.5 0  -3.1 -4.5 0  -3 -4.5 0  -2.9 -4.5 0  -2.8 -4.5 0  -2.7 -4.5 0  -2.6 -4.5 0  -2.5 -4.5 0  -2.4 -4.5 0  -2.3 -4.5 0  -2.2 -4.5 0  -2.1 -4.5 0  -2 -4.5 0  -1.9 -4.5 0  -1.8 -4.5 0  -1.7 -4.5 0  -1.6 -4.5 0  -1.5 -4.5 0  -1.4 -4.5 0  -1.3 -4.5 0  -1.2 -4.5 0  -1.1 -4.5 0  -1 -4.5 0  -0.9000000000000004 -4.5 0  -0.7999999999999998 -4.5 0  -0.7000000000000002 -4.5 0  -0.5999999999999996 -4.5 0  -0.5 -4.5 0  -0.4000000000000004 -4.5 0  -0.2999999999999998 -4.5 0  -0.2000000000000002 -4.5 0  -0.09999999999999964 -4.5 0  0 -4.5 0  0.09999999999999964 -4.5 0  0.2000000000000002 -4.5 0  0.2999999999999998 -4.5 0  0.4000000000000004 -4.5 0  0.5 -4.5 0  0.5999999999999996 -4.5 0  0.7000000000000002 -4.5 0  0.7999999999999998 -4.5 0  0.9000000000000004 -4.5 0  1 -4.5 0  1.1 -4.5 0  1.2 -4.5 0  1.3 -4.5 0  1.4 -4.5 0  1.5 -4.5 0  1.6 -4.5 0  1.7 -4.5 0  1.8 -4.5 0  1.9 -4.5 0  2 -4.5 0  2.1 -4.5 0  2.2 -4.5 0  2.3 -4.5 0  2.4 -4.5 0  2.5 -4.5 0  2.6 -4.5 0  2.7 -4.5 0  2.8 -4.5 0  2.9 -4.5 0  3 -4.5 0  3.1 -4.5 0  3.199999999999999 -4.5 0  3.300000000000001 -4.5 0  3.4 -4.5 0  3.5 -4.5 0  3.6 -4.5 0  3.699999999999999 -4.5 0  3.800000000000001 -4.5 0  3.9 -4.5 0  4 -4.5 0  4.1 -4.5 0  4.199999999999999 -4.5 0  4.300000000000001 -4.5 0  4.4 -4.5 0  4.5 -4.5 0  4.6 -4.5 0  4.699999999999999 -4.5 0  4.800000000000001 -4.5 0  4.9 -4.5 0  5 -4.5 0  -5 -4.4 0  -4.9 -4.4 0  -4.8 -4.4 0  -4.7 -4.4 0  -4.6 -4.4 0  -4.5 -4.4 0  -4.4 -4.4 0  -4.3 -4.4 0  -4.2 -4.4 0  -4.1 -4.4 0  -4 -4.4 0  -3.9 -4.4 0  -3.8 -4.4 0  -3.7 -4.4 0  -3.6 -4.4 0  -3.5 -4.4 0  -3.4 -4.4 0  -3.3 -4.4 0  -3.2 -4.4 0  -3.1 -4.4 0  -3 -4.4 0  -2.9 -4.4 0  -2.8 -4.4 0  -2.7 -4.4 0  -2.6 -4.4 0  -2.5 -4.4 0  -2.4 -4.4 0  -2.3 -4.4 0  -2.2 -4.4 0  -2.1 -4.4 0  -2 -4.4 0  -1.9 -4.4 0  -1.8 -4.
[...]
<PointData  Vectors="f_17"> 
<DataArray  type="Float64"  Name="f_17"  NumberOfComponents="3" format="ascii">1.5000000000000058e-01 0.0000000000000000e+00 0.0000000000000000e+00  1.4999999999999966e-01 -6.1137945515346824e-16 0.0000000000000000e+00  1.4999999999999902e-01 -2.1256564886351012e-15 0.0000000000000000e+00  1.5000000000000199e-01 3.8533656265355640e-15 0.0000000000000000e+00  1.4999999999999999e-01 2.3656225023763156e-16 0.0000000000000000e+00  1.4999999999999511e-01 -9.9191302022038240e-15 0.0000000000000000e+00  1.5000000000000480e-01 7.9585045347863577e-15 0.0000000000000000e+00  1.5000000000001343e-01 4.7598952802600393e-15 0.0000000000000000e+00  1.5000000000001124e-01 -1.0042211554887666e-13 0.0000000000000000e+00  1.5000000000011762e-01 -1.3819203286745215e-13 0.0000000000000000e+00  1.5000000000035019e-01 7.6547119410203210e-14 0.0000000000000000e+00  1.5000000000028083e-01 9.4702237048237459e-13 0.0000000000000000e+00  1.4999999999886449e-01 5.0625723873413490e-12 0.0000000000000000e+00  1.4999999999260871e-01 1.7510711228409792e-11 0.0000000000000000e+00  1.4999999997202876e-01 4.2889695655204611e-11 0.0000000000000000e+00  1.4999999992085972e-01 8.8910224122551441e-11 0.0000000000000000e+00  1.4999999981353929e-01 1.8486459531886390e-10 0.0000000000000000e+00  1.4999999959340166e-01 4.1063098862314399e-10 0.0000000000000000e+00  1.4999999913175230e-01 9.1430360350186876e-10 0.0000000000000000e+00  1.4999999821167284e-01 1.8152758805814238e-09 0.0000000000000000e+00  1.4999999663752461e-01 2.8565409024306690e-09 0.0000000000000000e+00  1.4999999459789379e-01 3.0686256064289824e-09 0.0000000000000000e+00  1.4999999312056056e-01 1.2742074778109679e-09 0.0000000000000000e+00  1.4999999380818962e-01 -2.3619163125492817e-09 0.0000000000000000e+00  1.4999999724636198e-01 -5.4656296903979396e-09 0.0000000000000000e+00  1.5000000150923579e-01 -5.2721576144867149e-09 0.0000000000000000e+00  1.5000000342455705e-01 -1.8091001948406635e-09 0.0000000000000000e+00  1.5000000208470768e-01 1.6995396671486624e-09 0.0000000000000000e+00  1.4999999993720278e-01 2.3839712696970621e-09 0.0000000000000000e+00  1.4999999941766287e-01 8.1625159799966753e-10 0.0000000000000000e+00  1.5000000001741687e-01 -4.2332787921292451e-10 0.0000000000000000e+00  1.5000000009886763e-01 -3.0713536192950982e-10 0.0000000000000000e+00  1.4999999978332801e-01 7.7463590477426420e-11 0.0000000000000000e+00  1.4999999999949767e-01 -4.8639789652319982e-11 0.0000000000000000e+00  1.5000000033813968e-01 -1.4319167665603344e-10 0.0000000000000000e+00  1.5000000004247177e-01 1.3610751924118369e-10 0.0000000000000000e+00  1.4999999967618999e-01 2.2019483030354889e-10 0.0000000000000000e+00  1.4999999993414412e-01 -1.0153595668579657e-10 0.0000000000000000e+00  1.5000000025437540e-01 -2.1981355854994453e-10 0.0000000000000000e+00  1.5000000005283687e-01 6.0419241041621342e-11 0.0000000000000000e+00  1.4999999981908960e-01 1.7629618921542613e-10 0.0000000000000000e+00  1.4999999997496710e-01 -4.0703692202644662e-11 0.0000000000000000e+00  1.5000000012002238e-01 -1.2401810057227694e-10 0.0000000000000000e+00  1.5000000000052799e-01 3.5199916979377692e-11 0.0000000000000000e+00  1.4999999992647522e-01 7.8267635370454301e-11 0.0000000000000000e+00  1.5000000001356092e-01 -3.3143708338524509e-11 0.0000000000000000e+00  1.5000000003993311e-01 -4.3208613046809581e-11 0.0000000000000000e+00  1.4999999998244862e-01 2.9007396911349411e-11 0.0000000000000000e+00  1.4999999998237690e-01 1.8995939694482409e-11 0.0000000000000000e+00  1.5000000001493774e-01 -2.2047634107366016e-11 0.0000000000000000e+00  1.5000000000474381e-01 -4.4534920318912984e-12 0.0000000000000000e+00  1.4999999999034777e-01 1.3941816772743059e-11 0.0000000000000000e+00  1.5000000000107647e-01 -2.3826177615906766e-12 0.0000000000000000e+00  1.5000000000462146e-01 -6.7974272838568745e-12 0.0000000000000000e+00  1.4999999999751576e-01 4.0228605719425947e-12 0.0000000000000000e+00  1.4999999999872446e-01 1.9525197853640845e-12 0.0000000000000000e+00  1.5000000000184824e-01 -3.0222326167970959e-12 0.0000000000000000e+00  1.4999999999975128e-01 3.9664195170482316e-13 0.0000000000000000e+00  1.4999999999920238e-01 1.3856654111324262e-12 0.0000000000000000e+00  1.5000000000054059e-01 -9.2302112634960240e-13 0.0000000000000000e+00  1.5000000000009922e-01 -2.1595763717413312e-13 0.0000000000000000e+00  1.4999999999967956e-01 5.9368477998776023e-13 0.0000000000000000e+00  1.5000000000013858e-01 -2.3603769738557643e-13 0.0000000000000000e+00  1.5000000000007174e-01 -1.5757300217760690e-13 0.0000000000000000e+00  1.4999999999988875e-01 2.1639362445100617e-13 0.0000000000000000e+00  1.5000000000003699e-01 -6.0340542215693859e-14 0.0000000000000000e+00  1.5000000000002880e-01 -6.7339832890334316e-14 0.0000000000000000e+00  1.4999999999996289e-01 7.6110129842911760e-14 0.0000000000000000e+00  1.5000000000001218e-01 -2.0747667871316418e-14 0.0000000000000000e+00  1.5000000000000835e-01 -2.2329659108711520e-14 0.0000000000000000e+00  1.4999999999998778e-01 2.7081225898019805e-14 0.0000000000000000e+00  1.5000000000000516e-01 -9.6700860258409045e-15 0.0000000000000000e+00  1.5000000000000169e-01 -5.5518821407928243e-15 0.0000000000000000e+00  1.4999999999999622e-01 8.8523743115824013e-15 0.0000000000000000e+00  1.5000000000000246e-01 -4.7060501297974087e-15 0.0000000000000000e+00  1.4999999999999991e-01 -4.0043347010252697e-16 0.0000000000000000e+00  1.4999999999999911e-01 2.3476521072533838e-15 0.0000000000000000e+00  1.5000000000000083e-01 -1.8162420268367681e-15 0.0000000000000000e+00  1.4999999999999988e-01 4.0740185785512446e-16 0.0000000000000000e+00  1.5000000000000002e-01 3.5905995148529223e-16 0.0000000000000000e+00  1.5000000000000019e-01 -9.0155074334462538e-16 0.0000000000000000e+00  1.4999999999999999e-01 8.9096036633977840e-16 0.0000000000000000e+00  1.5000000000000030e-01 -2.8456230229326531e-16 0.0000000000000000e+00  1.5000000000000030e-01 4.0148413885768949e-16 0.0000000000000000e+00  1.5000000000000005e-01 1.3511167893098573e-16 0.0000000000000000e+00  1.5000000000000002e-01 -2.1612786057961445e-16 0.0000000000000000e+00  1.5000000000000022e-01 4.6440690818171816e-16 0.0000000000000000e+00  1.5000000000000008e-01 8.4904009628617368e-16 0.0000000000000000e+00  1.4999999999999994e-01 4.7196968448278730e-16 0.0000000000000000e+00  1.4999999999999999e-01 -7.3347055888006350e-16 0.0000000000000000e+00  1.4999999999999997e-01 -6.3470976350020824e-16 0.0000000000000000e+00  1.5000000000000002e-01 1.5745377871566809e-16 0.0000000000000000e+00  1.4999999999999994e-01 -5.9995930128836854e-16 0.0000000000000000e+00  1.4999999999999999e-01 2.8515184883067909e-16 0.0000000000000000e+00  1.5000000000000002e-01 6.2543137924337578e-17 0.0000000000000000e+00  1.5000000000000005e-01 -1.5755266798190441e-16 0.0000000000000000e+00  1.5000000000000005e-01 4.2314568102691721e-16 0.0000000000000000e+00  1.5000000000000016e-01 -5.9558166953372246e-16 0.0000000000000000e+00  1.5000000000000008e-01 9.1492567384639979e-17 0.0000000000000000e+00  1.5000000000000008e-01 -6.2885594295743625e-16 0.0000000000000000e+00  1.5000000000000016e-01 0.0000000000000000e+00 0.0000000000000000e+00  1.4999999999999977e-01 0.0000000000000000e+00 -1.4105290034938010e-16  1.4999999999999972e-01 -1.0575920289848921e-15 -4.1287656388936716e-16  1.5000000000000141e-01 2.4772439712610976e-15 1.5784836174144316e-15  1.4999999999999991e-01 -1.4440587139240627e-16 -2.5239402055793590e-17  1.4999999999999730e-01 -6.9227727762976531e-15 -3.7939289368954386e-15  1.5000000000000388e-01 8.0336836980092584e-15 5.8188248235610184e-15  1.5000000000000349e-01 9.2991115173387188e-15 6.5218370197370396e-15  1.4999999999998467e-01 -2.2414500172795128e-14 -2.4192574252572546e-14  1.4999999999998448e-01 5.1503605244712134e-14 -4.3591042185094235e-14  1.4999999999993491e-01 2.0809167064586053e-13 -1.9705164171813462e-13  1.4999999999966881e-01 1.2687100361752248e-13 -8.4366799939107646e-13  1.4999999999941502e-01 -3.9721000937212121e-13 -1.6909137025018625e-12  1.5000000000005673e-01 -2.8950276440104897e-12 -9.3071448935211206e-13  1.5000000000404998e-01 -1.2769319057710609e-11 7.4025027130091393e-12  1.5000000001933050e-01 -3.6852347128217343e-11 4.1648100989013706e-11  1.5000000006266442e-01 -8.1166901037515837e-11 1.3933667505361739e-10  1.5000000015961870e-01 -1.6520814651152466e-10 3.5721344087153545e-10  1.5000000035706429e-01 -3.5347249878591821e-10 7.9582861645114297e-10  1.5000000076355202e-01 -7.8732511315716625e-10 1.6837385171815659e-09  1.5000000158813465e-01 -1.6505884462601910e-09 3.4609715242364916e-09  1.5000000308947542e-01 -2.8917684298833602e-09 6.6429393928612783e-09  1.5000000529180371e-01 -3.7229763240203629e-09 1.1138173172865658e-08  1.5000000744998382e-01 -2.6715719601668375e-09 1.5121977478908806e-08  1.5000000786915513e-01 9.5640321756670595e-10 1.4969092529153919e-08  1.5000000511277323e-01 5.3134625007177698e-09 8.2218086218181271e-09  1.5000000013929218e-01 6.8280396344129289e-09 -2.1404948677818927e-09  1.4999999644311893e-01 3.9430581074185011e-09 -8.5032513240455969e-09  1.4999999660833796e-01 -6.4307302612164085e-10 -6.5300247291995071e-09  1.4999999917387349e-01 -2.8347192785331859e-09 -6.6848135693164932e-10  1.5000000067815367e-01 -1.7508592658055461e-09 1.8304519448129578e-09  1.5000000025459556e-01 4.4065979773516845e-11 3.7186319222462692e-10  1.4999999980311651e-01 4.7061941181301460e-10 -4.6885416343383994e-10  1.5000000015167558e-01 6.3234723047154817e-11 4.2780247008955419e-10  1.5000000018783752e-01 4.9954985753597822e-12 3.1413542124837383e-10  1.4999999968275163e-01 1.5065992431772791e-10 -8.2692416925641399e-10  1.4999999972787828e-01 -5.3154867529692663e-11 -4.7863355188795178e-10  1.5000000029387811e-01 -2.6099450280305741e-10 7.9893436700636448e-10  1.5000000027583785e-01 -1.7272553202812210e-11 5.1446197356168130e-10  1.4999999977550194e-01 2.4767953857825084e-10 -6.2911861617848156e-10  1.4999999978261339e-01 5.8557414275174177e-11 -4.1226661626269470e-10  1.5000000016497883e-01 -1.9194879645439135e-10 4.6250150722752686e-10  1.5000000014191261e-01 -5.7891591194083824e-11 2.6224791478184721e-10  1.4999999987883092e-01 1.3767989688005144e-10 -3.2993655283923054e-10  1.4999999992350477e-01 3.7107594641372733e-11 -1.2857983213402140e-10  1.5000000008668277e-01 -9.5156887848422110e-11 2.2503533401326502e-10  1.5000000003054983e-01 -1.4133197232953394e-11 3.6456935444005554e-11  1.4999999994242977e-01 6.2666775326416774e-11 -1.4088602526645872e-10  1.4999999999608682e-01 -2.5336211831201547e-12 1.3076489039915957e-11  1.5000000003364414e-01 -3.7626679126598480e-11 7.6395513887882387e-11  1.4999999999235322e-01 1.0833581153582412e-11 -2.9961943712199059e-11  1.4999999998400887e-01 1.9051984076572006e-11 -3.2212720239997295e-11  1.5000000000959782e-01 -1.2131534588383948e-11 2.7382592999195290e-11  1.5000000000499589e-01 -6.7341363396720940e-12 6.9739731454098696e-12  1.4999999999300784e-01 9.2549418684492070e-12 -1.7169743165743469e-11  1.5000000000028788e-01 1.0104964532586311e-13 3.5654173063392865e-12  1.5000000000347166e-01 -5.0990516496318577e-12 7.2650128869296945e-12  1.4999999999826827e-01 2.1982644498610277e-12 -5.1859258393384722e-12  1.4999999999907496e-01 1.7020354959638648e-12 -1.1542853469226214e-12  1.5000000000132915e-01 -1.9970983626409130e-12 3.1838260388699633e-12  1.4999999999976912e-01 1.3091790012241156e-13 -1.1047068480551225e-12  1.4999999999946895e-01 9.6934951366601268e-13 -9.6648483911729289e-13  1.5000000000041094e-01 -6.0774730993882696e-13 1.0914680380793290e-12  1.5000000000002059e-01 -1.4452064297197024e-13 -1.7079363801368381e-13  1.4999999999978858e-01 3.9630438091512897e-13 -4.2501252858092239e-13  1.5000000000012084e-01 -1.7324368756518438e-13 3.4966201375212516e-13  1.5000000000002403e-01 -8.7834505895498333e-14 -2.2230748167533910e-14  1.4999999999992636e-01 1.4500755020549660e-13 -1.5248619127472436e-13  1.5000000000003827e-01 -5.5266951980569410e-14 1.1505554961532792e-13  1.5000000000000807e-01 -3.3219721225598122e-14 -8.9985079793922930e-15  1.4999999999997610e-01 5.1134814234437070e-14 -4.7249160614559861e-14  1.5000000000001396e-01 -2.1521586493947873e-14 3.9827925665324493e-14  1.5000000000000083e-01 -8.3081731366619545e-15 -7.9209222212326967e-15  1.4999999999999283e-01 1.6636462936097030e-14 -1.1868106992112812e-14  1.5000000000000535e-01 -9.7166398703554111e-15 1.3590445730021372e-14  1.4999999999999908e-01 -3.5615142918587150e-16 -5.0000887479634954e-15  1.4999999999999833e-01 4.7881015518785511e-15 -1.5718208550530048e-15  1.5000000000000194e-01 -4.0154839555566672e-15 4.1620463200478110e-15  1.4999999999999911e-01 1.0725311085383781e-15 -2.3520858734574664e-15  1.4999999999999999e-01 6.0584982729705863e-16 6.6898980011536291e-16  1.5000000000000027e-01 -1.2073998405920406e-15 7.8797264128892760e-16  1.4999999999999969e-01 5.3463854624895901e-16 -3.7570901068917800e-16  1.5000000000000022e-01 -2.7410247162263576e-16 6.2265054733435792e-16  1.5000000000000011e-01 7.5179314916677241e-17 -1.9510891822360794e-16  1.4999999999999997e-01 8.4122868931313635e-16 -2.0180753822517249e-16  1.5000000000000011e-01 -1.2144315375276991e-17 9.3617408563820128e-17  1.5000000000000005e-01 -9.3530645260488313e-17 -2.0118972913914875e-16  1.5000000000000002e-01 2.8178893140743478e-16 3.3210181909741028e-16  1.5000000000000005e-01 -1.8914179964081879e-16 -4.2703500928021214e-17  1.5000000000000008e-01 2.9513547768443028e-16 -2.9096939401813750e-16  1.5000000000000002e-01 -3.0036652107978004e-17 -2.2180228304910961e-17  1.5000000000000005e-01 -1.0054755460403954e-16 -3.1431435444419166e-16  1.4999999999999999e-01 1.5696692923382553e-16 1.8301673746386086e-16  1.4999999999999991e-01 1.0002026562524244e-16 -2.4449797768055749e-16  1.4999999999999983e-01 -4.0209487105811999e-16 2.2136281938479898e-16  1.5000000000000005e-01 1.7603962511168342e-16 -2.1800694891068352e-16  1.5000000000000005e-01 3.8222651861736141e-16 3.2052352407870463e-17  1.5000000000000016e-01 -1.0828613874019131e-16 2.7851152981926224e-16  1.5000000000000002e-01 -3.2479916626979955e-16 -5.3712318497332174e-18  1.4999999999999999e-01 -3.6975250957129052e-16 8.4190150779335749e-18  1.5000000000000008e-01 -3.3073903550447192e-16 -9.5141998533815789e-17  1.5000000000000013e-01 0.0000000000000000e+00 -1.6175898757082770e-16  1.4999999999999933e-01 0.0000000000000000e+00 -1.6605495116367564e-15  1.5000000000000130e-01 1.3003039611020954e-15 2.2593761763665263e-15  1.4999999999999969e-01 -7.0364981233709582e-16 -4.2641254624997051e-16  1.4999999999999769e-01 -5.5151366339850892e-15 -5.1570411345404685e-15  1.5000000000000335e-01 7.4530813214584742e-15 7.4873837346381636e-15  1.5000000000000197e-01 6.7710527299865315e-15 5.0017360544767933e-15  1.4999999999998823e-01 -2.6232372807007408e-14 -2.8576689179967956e-14  1.5000000000000718e-01 7.1466300087380631e-15 1.4150336487641902e-14  1.5000000000003788e-01 2.0164561010534870e-14 9.7978135774680522e-14  1.5000000000005015e-01 -2.4568650203449983e-13 1.8955416756115445e-13  1.5000000000032079e-01 -4.7551027574676630e-13 1.1116013374313161e-12  1.5000000000102104e-01 -1.6695470992456158e-13 3.5652591505481598e-12  1.5000000000134614e-01 1.3645979095902204e-12 5.6533439873847518e-12  1.4999999999910402e-01 9.5027098095193010e-12 6.2140662860638473e-13  1.4999999998701130e-01 3.6325077566926127e-11 -3.5619416832253389e-11  1.4999999994466426e-01 9.3185495401259622e-11 -1.6890206255855683e-10  1.4999999983633150e-01 1.9514289511779978e-10 -5.1257942926253586e-10  1.4999999960904056e-01 3.9749082513170219e-10 -1.2292222492763424e-09  1.4999999915708281e-01 8.4715951799777503e-10 -2.6346917199409856e-09  1.4999999825513533e-01 1.8011338930170275e-09 -5.4227813071824529e-09  1.4999999654948531e-01 3.4321486989342439e-09 -1.0733708421924968e-08  1.4999999377939149e-01 5.1816715164437410e-09 -1.9429305567974935e-08  1.4999999040788012e-01 5.1962473269215072e-09 -2.9948092676414804e-08  1.4999998831952208e-01 1.4521969855619786e-09 -3.6063082987526196e-08  1.4999999016713875e-01 -5.2604455542035426e-09 -2.9329783154090267e-08  1.4999999650311047e-01 -1.0169943069297962e-08 -8.5964251447003336e-09  1.5000000351985177e-01 -8.6542370328336791e-09 1.3236933293834287e-08  1.5000000590691151e-01 -1.9444770572916022e-09 1.9375156957446405e-08  1.5000000298671698e-01 3.6065202406904877e-09 8.8337056002943261e-09  1.4999999954378962e-01 3.8317953055900064e-09 -2.2551738256270035e-09  1.4999999919331125e-01 9.5404308681589816e-10 -2.8220203611069402e-09  1.5000000022205856e-01 -6.8853961150000467e-10 7.3162263879901644e-10  1.5000000002742642e-01 -3.2717124159581613e-10 3.2201333072251696e-11  1.4999999953791698e-01 3.8591120527398345e-11 -1.4698040476525992e-09  1.5000000019193427e-01 -2.2562843503524369e-10 7.7050675456539360e-10  1.5000000066305635e-01 -1.0954409869629739e-10 2.1581920536439612e-09  1.4999999986591392e-01 3.8927087225915871e-10 -5.8855492279355839e-10  1.4999999935456818e-01 2.6229264767746978e-10 -2.1272777628073708e-09  1.5000000006984629e-01 -3.2579094988109843e-10 3.4751754783190507e-10  1.5000000051433082e-01 -2.9862325637389904e-10 1.6994527609525434e-09  1.4999999994521029e-01 2.2785281051046712e-10 -2.6427683444690853e-10  1.4999999963830629e-01 2.5121122757517789e-10 -1.1892996966290505e-09  1.5000000006560560e-01 -1.5952289796441936e-10 2.7179180516308618e-10  1.5000000022882773e-01 -1.7638462793730710e-10 7.4358693928282017e-10  1.4999999992501117e-01 1.1914939408030861e-10 -2.8078948588033674e-10  1.4999999987255480e-01 1.0559956763638497e-10 -4.0550644915445064e-10  1.5000000007145461e-01 -9.1564987587065094e-11 2.5273840529377777e-10  1.5000000005786257e-01 -5.0710846171870330e-11 1.7661309845465462e-10  1.4999999994366184e-01 6.7191288430403188e-11 -1.9171141214706541e-10  1.4999999998374891e-01 1.4337822514105886e-11 -4.2892657217201023e-11  1.5000000003638600e-01 -4.3863939522924296e-11 1.1956256997692556e-10  1.4999999999643068e-01 5.0578636983813983e-12 -1.7976079784686061e-11  1.4999999998172295e-01 2.3511974682553007e-11 -5.7416401114175421e-11  1.5000000000902997e-01 -1.1421533276086539e-11 3.2141914280107381e-11  1.5000000000586183e-01 -8.6694460769582727e-12 1.6585295850334538e-11  1.4999999999275265e-01 9.9229612902580693e-12 -2.3924548686966466e-11  1.5000000000030975e-01 3.3152846658607474e-13 2.5906647262533593e-12  1.5000000000354324e-01 -5.5087322300043512e-12 1.0875393091795336e-11  1.4999999999806526e-01 2.5342025684041992e-12 -6.8110788407264509e-12  1.4999999999923599e-01 1.6084709364229438e-12 -1.8286225873155583e-12  1.5000000000137795e-01 -2.1964761716204972e-12 4.3755753288052703e-12  1.4999999999959995e-01 3.9609701250631330e-13 -1.5910719318227251e-12  1.4999999999955740e-01 9.0387403880653508e-13 -1.1993101352755265e-12  1.5000000000046315e-01 -7.5128832313551154e-13 1.5041921418678964e-12  1.4999999999992558e-01 1.0623843406141160e-14 -3.6837146102688827e-13  1.4999999999982411e-01 3.7325905994584240e-13 -4.8368653973309963e-13  1.5000000000015273e-01 -2.5573657182442215e-13 4.9965253401616088e-13  1.4999999999997984e-01 -1.0204191681313044e-14 -1.1455325811912530e-13  1.4999999999994132e-01 1.3518382399516862e-13 -1.5608170217288881e-13  1.5000000000005220e-01 -9.3539300079341836e-14 1.6782223913215537e-13  1.4999999999998903e-01 3.9579941609015744e-15 -5.1856934956488397e-14  1.4999999999998379e-01 4.3162041723582919e-14 -3.8631577321879214e-14  1.5000000000001787e-01 -3.6387530824321143e-14 5.4901213322769679e-14  1.4999999999999333e-01 8.7614923386226172e-15 -2.5703057769266947e-14  1.4999999999999719e-01 1.0339413225714073e-14 -3.2160037618719199e-15  1.5000000000000563e-01 -1.3363231080534210e-14 1.5518502526033904e-14  1.4999999999999636e-01 6.6433351812012424e-15 -1.1312536706233573e-14  1.5000000000000077e-01 1.9132135427593936e-16 3.4771158591593787e-15  1.5000000000000133e-01 -3.5700122888178337e-15 2.555215301972127