<?xml version="1.0"?>
<VTKFile type="UnstructuredGrid"  version="0.1"  >
<UnstructuredGrid>
<Piece  NumberOfPoints="10201" NumberOfCells="20000">
<Points>
<DataArray  type="Float64"  NumberOfComponents="3"  format="ascii">-5 -5 0  -4.9 -5 0  -4.8 -5 0  -4.7 -5 0  -4.6 -5 0  -4.5 -5 0  -4.4 -5 0  -4.3 -5 0  -4.2 -5 0  -4.1 -5 0  -4 -5 0  -3.9 -5 0  -3.8 -5 0  -3.7 -5 0  -3.6 -5 0  -3.5 -5 0  -3.4 -5 0  -3.3 -5 0  -3.2 -5 0  -3.1 -5 0  -3 -5 0  -2.9 -5 0  -2.8 -5 0  -2.7 -5 0  -2.6 -5 0  -2.5 -5 0  -2.4 -5 0  -2.3 -5 0  -2.2 -5 0  -2.1 -5 0  -2 -5 0  -1.9 -5 0  -1.8 -5 0  -1.7 -5 0  -1.6 -5 0  -1.5 -5 0  -1.4 -5 0  -1.3 -5 0  -1.2 -5 0  -1.1 -5 0  -1 -5 0  -0.9000000000000004 -5 0  -0.7999999999999998 -5 0  -0.7000000000000002 -5 0  -0.5999999999999996 -5 0  -0.5 -5 0  -0.4000000000000004 -5 0  -0.2999999999999998 -5 0  -0.2000000000000002 -5 0  -0.09999999999999964 -5 0  0 -5 0  0.09999999999999964 -5 0  0.2000000000000002 -5 0  0.2999999999999998 -5 0  0.4000000000000004 -5 0  0.5 -5 0  0.5999999999999996 -5 0  0.7000000000000002 -5 0  0.7999999999999998 -5 0  0.9000000000000004 -5 0  1 -5 0  1.1 -5 0  1.2 -5 0  1.3 -5 0  1.4 -5 0  1.5 -5 0  1.6 -5 0  1.7 -5 0  1.8 -5 0  1.9 -5 0  2 -5 0  2.1 -5 0  2.2 -5 0  2.3 -5 0  2.4 -5 0  2.5 -5 0  2.6 -5 0  2.7 -5 0  2.8 -5 0  2.9 -5 0  3 -5 0  3.1 -5 0  3.199999999999999 -5 0  3.300000000000001 -5 0  3.4 -5 0  3.5 -5 0  3.6 -5 0  3.699999999999999 -5 0  3.800000000000001 -5 0  3.9 -5 0  4 -5 0  4.1 -5 0  4.199999999999999 -5 0  4.300000000000001 -5 0  4.4 -5 0  4.5 -5 0  4.6 -5 0  4.699999999999999 -5 0  4.800000000000001 -5 0  4.9 -5 0  5 -5 0  -5 -4.9 0  -4.9 -4.9 0  -4.8 -4.9 0  -4.7 -4.9 0  -4.6 -4.9 0  -4.5 -4.9 0  -4.4 -4.9 0  -4.3 -4.9 0  -4.2 -4.9 0  -4.1 -4.9 0  -4 -4.9 0  -3.9 -4.9 0  -3.8 -4.9 0  -3.7 -4.9 0  -3.6 -4.9 0  -3.5 -4.9 0  -3.4 -4.9 0  -3.3 -4.9 0  -3.2 -4.9 0  -3.1 -4.9 0  -3 -4.9 0  -2.9 -4.9 0  -2.8 -4.9 0  -2.7 -4.9 0  -2.6 -4.9 0  -2.5 -4.9 0  -2.4 -4.9 0  -2.3 -4.9 0  -2.2 -4.9 0  -2.1 -4.9 0  -2 -4.9 0  -1.9 -4.9 0  -1.8 -4.9 0  -1.7 -4.9 0  -1.6 -4.9 0  -1.5 -4.9 0  -1.4 -4.9 0  -1.3 -4.9 0  -1.2 -4.9 0  -1.1 -4.9 0  -1 -4.9 0  -0.9000000000000004 -4.9 0  -0.7999999999999998 -4.9 0  -0.7000000000000002 -4.9 0  -0.5999999999999996 -4.9 0  -0.5 -4.9 0  -0.4000000000000004 -4.9 0  -0.2999999999999998 -4.9 0  -0.2000000000000002 -4.9 0  -0.09999999999999964 -4.9 0  0 -4.9 0  0.09999999999999964 -4.9 0  0.2000000000000002 -4.9 0  0.2999999999999998 -4.9 0  0.4000000000000004 -4.9 0  0.5 -4.9 0  0.5999999999999996 -4.9 0  0.7000000000000002 -4.9 0  0.7999999999999998 -4.9 0  0.9000000000000004 -4.9 0  1 -4.9 0  1.1 -4.9 0  1.2 -4.9 0  1.3 -4.9 0  1.4 -4.9 0  1.5 -4.9 0  1.6 -4.9 0  1.7 -4.9 0  1.8 -4.9 0  1.9 -4.9 0  2 -4.9 0  2.1 -4.9 0  2.2 -4.9 0  2.3 -4.9 0  2.4 -4.9 0  2.5 -4.9 0  2.6 -4.9 0  2.7 -4.9 0  2.8 -4.9 0  2.9 -4.9 0  3 -4.9 0  3.1 -4.9 0  3.199999999999999 -4.9 0  3.300000000000001 -4.9 0  3.4 -4.9 0  3.5 -4.9 0  3.6 -4.9 0  3.699999999999999 -4.9 0  3.800000000000001 -4.9 0  3.9 -4.9 0  4 -4.9 0  4.1 -4.9 0  4.199999999999999 -4.9 0  4.300000000000001 -4.9 0  4.4 -4.9 0  4.5 -4.9 0  4.6 -4.9 0  4.699999999999999 -4.9 0  4.800000000000001 -4.9 0  4.9 -4.9 0  5 -4.9 0  -5 -4.8 0  -4.9 -4.8 0  -4.8 -4.8 0  -4.7 -4.8 0  -4.6 -4.8 0  -4.5 -4.8 0  -4.4 -4.8 0  -4.3 -4.8 0  -4.2 -4.8 0  -4.1 -4.8 0  -4 -4.8 0  -3.9 -4.8 0  -3.8 -4.8 0  -3.7 -4.8 0  -3.6 -4.8 0  -3.5 -4.8 0  -3.4 -4.8 0  -3.3 -4.8 0  -3.2 -4.8 0  -3.1 -4.8 0  -3 -4.8 0  -2.9 -4.8 0  -2.8 -4.8 0  -2.7 -4.8 0  -2.6 -4.8 0  -2.5 -4.8 0  -2.4 -4.8 0  -2.3 -4.8 0  -2.2 -4.8 0  -2.1 -4.8 0  -2 -4.8 0  -1.9 -4.8 0  -1.8 -4.8 0  -1.7 -4.8 0  -1.6 -4.8 0  -1.5 -4.8 0  -1.4 -4.8 0  -1.3 -4.8 0  -1.2 -4.8 0  -1.1 -4.8 0  -1 -4.8 0  -0.9000000000000004 -4.8 0  -0.7999999999999998 -4.8 0  -0.7000000000000002 -4.8 0  -0.5999999999999996 -4.8 0  -0.5 -4.8 0  -0.4000000000000004 -4.8 0  -0.2999999999999998 -4.8 0  -0.2000000000000002 -4.8 0  -0.09999999999999964 -4.8 0  0 -4.8 0  0.09999999999999964 -4.8 0  0.2000000000000002 -4.8 0  0.2999999999999998 -4.8 0  0.4000000000000004 -4.8 0  0.5 -4.8 0  0.5999999999999996 -4.8 0  0.7000000000000002 -4.8 0  0.7999999999999998 -4.8 0  0.9000000000000004 -4.8 0  1 -4.8 0  1.1 -4.8 0  1.2 -4.8 0  1.3 -4.8 0  1.4 -4.8 0  1.5 -4.8 0  1.6 -4.8 0  1.7 -4.8 0  1.8 -4.8 0  1.9 -4.8 0  2 -4.8 0  2.1 -4.8 0  2.2 -4.8 0  2.3 -4.8 0  2.4 -4.8 0  2.5 -4.8 0  2.6 -4.8 0  2.7 -4.8 0  2.8 -4.8 0  2.9 -4.8 0  3 -4.8 0  3.1 -4.8 0  3.199999999999999 -4.8 0  3.300000000000001 -4.8 0  3.4 -4.8 0  3.5 -4.8 0  3.6 -4.8 0  3.699999999999999 -4.8 0  3.800000000000001 -4.8 0  3.9 -4.8 0  4 -4.8 0  4.1 -4.8 0  4.199999999999999 -4.8 0  4.300000000000001 -4.8 0  4.4 -4.8 0  4.5 -4.8 0  4.6 -4.8 0  4.699999999999999 -4.8 0  4.800000000000001 -4.8 0  4.9 -4.8 0  5 -4.8 0  -5 -4.7 0  -4.9 -4.7 0  -4.8 -4.7 0  -4.7 -4.7 0  -4.6 -4.7 0  -4.5 -4.7 0  -4.4 -4.7 0  -4.3 -4.7 0  -4.2 -4.7 0  -4.1 -4.7 0  -4 -4.7 0  -3.9 -4.7 0  -3.8 -4.7 0  -3.7 -4.7 0  -3.6 -4.7 0  -3.5 -4.7 0  -3.4 -4.7 0  -3.3 -4.7 0  -3.2 -4.7 0  -3.1 -4.7 0  -3 -4.7 0  -2.9 -4.7 0  -2.8 -4.7 0  -2.7 -4.7 0  -2.6 -4.7 0  -2.5 -4.7 0  -2.4 -4.7 0  -2.3 -4.7 0  -2.2 -4.7 0  -2.1 -4.7 0  -2 -4.7 0  -1.9 -4.7 0  -1.8 -4.7 0  -1.7 -4.7 0  -1.6 -4.7 0  -1.5 -4.7 0  -1.4 -4.7 0  -1.3 -4.7 0  -1.2 -4.7 0  -1.1 -4.7 0  -1 -4.7 0  -0.9000000000000004 -4.7 0  -0.7999999999999998 -4.7 0  -0.7000000000000002 -4.7 0  -0.5999999999999996 -4.7 0  -0.5 -4.7 0  -0.4000000000000004 -4.7 0  -0.2999999999999998 -4.7 0  -0.2000000000000002 -4.7 0  -0.09999999999999964 -4.7 0  0 -4.7 0  0.09999999999999964 -4.7 0  0.2000000000000002 -4.7 0  0.2999999999999998 -4.7 0  0.4000000000000004 -4.7 0  0.5 -4.7 0  0.5999999999999996 -4.7 0  0.7000000000000002 -4.7 0  0.7999999999999998 -4.7 0  0.9000000000000004 -4.7 0  1 -4.7 0  1.1 -4.7 0  1.2 -4.7 0  1.3 -4.7 0  1.4 -4.7 0  1.5 -4.7 0  1.6 -4.7 0  1.7 -4.7 0  1.8 -4.7 0  1.9 -4.7 0  2 -4.7 0  2.1 -4.7 0  2.2 -4.7 0  2.3 -4.7 0  2.4 -4.7 0  2.5 -4.7 0  2.6 -4.7 0  2.7 -4.7 0  2.8 -4.7 0  2.9 -4.7 0  3 -4.7 0  3.1 -4.7 0  3.199999999999999 -4.7 0  3.300000000000001 -4.7 0  3.4 -4.7 0  3.5 -4.7 0  3.6 -4.7 0  3.699999999999999 -4.7 0  3.800000000000001 -4.7 0  3.9 -4.7 0  4 -4.7 0  4.1 -4.7 0  4.199999999999999 -4.7 0  4.300000000000001 -4.7 0  4.4 -4.7 0  4.5 -4.7 0  4.6 -4.7 0  4.699999999999999 -4.7 0  4.800000000000001 -4.7 0  4.9 -4.7 0  5 -4.7 0  -5 -4.6 0  -4.9 -4.6 0  -4.8 -4.6 0  -4.7 -4.6 0  -4.6 -4.6 0  -4.5 -4.6 0  -4.4 -4.6 0  -4.3 -4.6 0  -4.2 -4.6 0  -4.1 -4.6 0  -4 -4.6 0  -3.9 -4.6 0  -3.8 -4.6 0  -3.7 -4.6 0  -3.6 -4.6 0  -3.5 -4.6 0  -3.4 -4.6 0  -3.3 -4.6 0  -3.2 -4.6 0  -3.1 -4.6 0  -3 -4.6 0  -2.9 -4.6 0  -2.8 -4.6 0  -2.7 -4.6 0  -2.6 -4.6 0  -2.5 -4.6 0  -2.4 -4.6 0  -2.3 -4.6 0  -2.2 -4.6 0  -2.1 -4.6 0  -2 -4.6 0  -1.9 -4.6 0  -1.8 -4.6 0  -1.7 -4.6 0  -1.6 -4.6 0  -1.5 -4.6 0  -1.4 -4.6 0  -1.3 -4.6 0  -1.2 -4.6 0  -1.1 -4.6 0  -1 -4.6 0  -0.9000000000000004 -4.6 0  -0.7999999999999998 -4.6 0  -0.7000000000000002 -4.6 0  -0.5999999999999996 -4.6 0  -0.5 -4.6 0  -0.4000000000000004 -4.6 0  -0.2999999999999998 -4.6 0  -0.2000000000000002 -4.6 0  -0.09999999999999964 -4.6 0  0 -4.6 0  0.09999999999999964 -4.6 0  0.2000000000000002 -4.6 0  0.2999999999999998 -4.6 0  0.4000000000000004 -4.6 0  0.5 -4.6 0  0.5999999999999996 -4.6 0  0.7000000000000002 -4.6 0  0.7999999999999998 -4.6 0  0.9000000000000004 -4.6 0  1 -4.6 0  1.1 -4.6 0  1.2 -4.6 0  1.3 -4.6 0  1.4 -4.6 0  1.5 -4.6 0  1.6 -4.6 0  1.7 -4.6 0  1.8 -4.6 0  1.9 -4.6 0  2 -4.6 0  2.1 -4.6 0  2.2 -4.6 0  2.3 -4.6 0  2.4 -4.6 0  2.5 -4.6 0  2.6 -4.6 0  2.7 -4.6 0  2.8 -4.6 0  2.9 -4.6 0  3 -4.6 0  3.1 -4.6 0  3.199999999999999 -4.6 0  3.300000000000001 -4.6 0  3.4 -4.6 0  3.5 -4.6 0  3.6 -4.6 0  3.699999999999999 -4.6 0  3.800000000000001 -4.6 0  3.9 -4.6 0  4 -4.6 0  4.1 -4.6 0  4.199999999999999 -4.6 0  4.300000000000001 -4.6 0  4.4 -4.6 0  4.5 -4.6 0  4.6 -4.6 0  4.699999999999999 -4.6 0  4.800000000000001 -4.6 0  4.9 -4.6 0  5 -4.6 0  -5 -4.5 0  -4.9 -4.5 0  -4.8 -4.5 0  -4.7 -4.5 0  -4.6 -4.5 0  -4.5 -4.5 0  -4.4 -4.5 0  -4.3 -4.5 0  -4.2 -4.5 0  -4.1 -4.5 0  -4 -4.5 0  -3.9 -4.5 0  -3.8 -4.5 0  -3.7 -4.5 0  -3.6 -4.5 0  -3.5 -4.5 0  -3.4 -4.5 0  -3.3 -4.5 0  -3.2 -4.5 0  -3.1 -4.5 0  -3 -4.5 0  -2.9 -4.5 0  -2.8 -4.5 0  -2.7 -4.5 0  -2.6 -4.5 0  -2.5 -4.5 0  -2.4 -4.5 0  -2.3 -4.5 0  -2.2 -4.5 0  -2.1 -4.5 0  -2 -4.5 0  -1.9 -4.5 0  -1.8 -4.5 0  -1.7 -4.5 0  -1.6 -4.5 0  -1.5 -4.5 0  -1.4 -4.5 0  -1.3 -4.5 0  -1.2 -4.5 0  -1.1 -4.5 0  -1 -4.5 0  -0.9000000000000004 -4.5 0  -0.7999999999999998 -4.5 0  -0.7000000000000002 -4.5 0  -0.5999999999999996 -4.5 0  -0.5 -4.5 0  -0.4000000000000004 -4.5 0  -0.2999999999999998 -4.5 0  -0.2000000000000002 -4.5 0  -0.09999999999999964 -4.5 0  0 -4.5 0  0.09999999999999964 -4.5 0  0.2000000000000002 -4.5 0  0.2999999999999998 -4.5 0  0.4000000000000004 -4.5 0  0.5 -4.5 0  0.5999999999999996 -4.5 0  0.7000000000000002 -4.5 0  0.7999999999999998 -4.5 0  0.9000000000000004 -4.5 0  1 -4.5 0  1.1 -4.5 0  1.2 -4.5 0  1.3 -4.5 0  1.4 -4.5 0  1.5 -4.5 0  1.6 -4.5 0  1.7 -4.5 0  1.8 -4.5 0  1.9 -4.5 0  2 -4.5 0  2.1 -4.5 0  2.2 -4.5 0  2.3 -4.5 0  2.4 -4.5 0  2.5 -4.5 0  2.6 -4.5 0  2.7 -4.5 0  2.8 -4.5 0  2.9 -4.5 0  3 -4.5 0  3.1 -4.5 0  3.199999999999999 -4.5 0  3.300000000000001 -4.5 0  3.4 -4.5 0  3.5 -4.5 0  3.6 -4.5 0  3.699999999999999 -4.5 0  3.800000000000001 -4.5 0  3.9 -4.5 0  4 -4.5 0  4.1 -4.5 0  4.199999999999999 -4.5 0  4.300000000000001 -4.5 0  4.4 -4.5 0  4.5 -4.5 0  4.6 -4.5 0  4.699999999999999 -4.5 0  4.800000000000001 -4.5 0  4.9 -4.5 0  5 -4.5 0  -5 -4.4 0  -4.9 -4.4 0  -4.8 -4.4 0  -4.7 -4.4 0  -4.6 -4.4 0  -4.5 -4.4 0  -4.4 -4.4 0  -4.3 -4.4 0  -4.2 -4.4 0  -4.1 -4.4 0  -4 -4.4 0  -3.9 -4.4 0  -3.8 -4.4 0  -3.7 -4.4 0  -3.6 -4.4 0  -3.5 -4.4 0  -3.4 -4.4 0  -3.3 -4.4 0  -3.2 -4.4 0  -3.1 -4.4 0  -3 -4.4 0  -2.9 -4.4 0  -2.8 -4.4 0  -2.7 -4.4 0  -2.6 -4.4 0  -2.5 -4.4 0  -2.4 -4.4 0  -2.3 -4.4 0  -2.2 -4.4 0  -2.1 -4.4 0  -2 -4.4 0  -1.9 -4.4 0  -1.8 -4.
[...]
<PointData  Vectors="f_17"> 
<DataArray  type="Float64"  Name="f_17"  NumberOfComponents="3" format="ascii">1.5006550459323070e-01 0.0000000000000000e+00 0.0000000000000000e+00  1.4999806297395019e-01 -1.1380216661318364e-04 0.0000000000000000e+00  1.5008385495156487e-01 1.8953983980062919e-05 0.0000000000000000e+00  1.5004127343090898e-01 -1.6388110123499803e-04 0.0000000000000000e+00  1.5011756873164916e-01 1.7160537240920315e-05 0.0000000000000000e+00  1.5007384466967519e-01 -1.5222782885977271e-04 0.0000000000000000e+00  1.5012765409687617e-01 7.4476904932300165e-05 0.0000000000000000e+00  1.5006278411556287e-01 -4.0290191500180068e-05 0.0000000000000000e+00  1.5008388732661740e-01 1.9562431016522386e-04 0.0000000000000000e+00  1.5001352866567014e-01 9.6672556647801189e-05 0.0000000000000000e+00  1.5003663331516490e-01 2.3452360685293790e-04 0.0000000000000000e+00  1.5001083106821686e-01 5.7921779571776066e-05 0.0000000000000000e+00  1.5007582378116152e-01 6.6715323697179684e-05 0.0000000000000000e+00  1.5009087622260170e-01 -1.0533620817136842e-04 0.0000000000000000e+00  1.5013047348109074e-01 -6.0722152217959963e-05 0.0000000000000000e+00  1.5009475482772849e-01 -5.6334489218978045e-05 0.0000000000000000e+00  1.5005542010447084e-01 9.8254583514520622e-05 0.0000000000000000e+00  1.4997644654545350e-01 1.3408158766069182e-04 0.0000000000000000e+00  1.4993840210834122e-01 1.6405462884738208e-04 0.0000000000000000e+00  1.4991298977653672e-01 9.8421310278413001e-05 0.0000000000000000e+00  1.4990210740071810e-01 5.7111561212710055e-05 0.0000000000000000e+00  1.4987861861036134e-01 1.0166926394092916e-05 0.0000000000000000e+00  1.4987057619764657e-01 6.1321437989159467e-06 0.0000000000000000e+00  1.4986176796367975e-01 -2.6415046088159243e-05 0.0000000000000000e+00  1.4986028397590886e-01 -5.0580182462158752e-05 0.0000000000000000e+00  1.4987477576993441e-01 -5.3552625293519774e-05 0.0000000000000000e+00  1.4990727399974965e-01 -8.6859192867264046e-05 0.0000000000000000e+00  1.4994746266850806e-01 -1.7604424498711361e-04 0.0000000000000000e+00  1.4998482853289563e-01 -1.5493884309882190e-04 0.0000000000000000e+00  1.4998132822008742e-01 -4.4346927741102823e-06 0.0000000000000000e+00  1.4996216336157817e-01 3.0028170921158196e-05 0.0000000000000000e+00  1.5000485225785251e-01 -9.3195809501679303e-05 0.0000000000000000e+00  1.5005205320917597e-01 -8.1554873237201311e-05 0.0000000000000000e+00  1.4999079096176723e-01 8.9160911997460726e-05 0.0000000000000000e+00  1.4993188094944215e-01 1.0140549838258822e-04 0.0000000000000000e+00  1.5000986795555643e-01 -6.8819808860271628e-05 0.0000000000000000e+00  1.5007372105776295e-01 -1.1445335228601087e-04 0.0000000000000000e+00  1.4999944718144201e-01 2.0946364639228069e-05 0.0000000000000000e+00  1.4994765891562906e-01 1.1177507195844584e-04 0.0000000000000000e+00  1.4999591932441997e-01 5.0728616646703270e-05 0.0000000000000000e+00  1.5001903393678098e-01 -7.6811659234402886e-05 0.0000000000000000e+00  1.5001213531487728e-01 -1.1015092418618385e-04 0.0000000000000000e+00  1.5002304986895124e-01 3.4986184430694268e-05 0.0000000000000000e+00  1.4998074366809561e-01 1.5198596113184175e-04 0.0000000000000000e+00  1.4994421168194863e-01 -8.6685080648260525e-07 0.0000000000000000e+00  1.5003508113894629e-01 -1.7407775661081089e-04 0.0000000000000000e+00  1.5007509006856379e-01 -1.1672733488804179e-05 0.0000000000000000e+00  1.4994090734521867e-01 1.8646154580808971e-04 0.0000000000000000e+00  1.4992285451499365e-01 5.0750583000678819e-06 0.0000000000000000e+00  1.5008560796930773e-01 -1.8996131481343023e-04 0.0000000000000000e+00  1.5005967236587278e-01 1.7538666347255044e-05 0.0000000000000000e+00  1.4989360352377343e-01 1.8272461258671239e-04 0.0000000000000000e+00  1.4997408010587671e-01 -5.1168857490042570e-05 0.0000000000000000e+00  1.5011116847606423e-01 -1.6018027797667542e-04 0.0000000000000000e+00  1.4998409942611154e-01 8.7496634724099686e-05 0.0000000000000000e+00  1.4990544341233716e-01 1.1974285165880207e-04 0.0000000000000000e+00  1.5005192805193812e-01 -1.1476789022029765e-04 0.0000000000000000e+00  1.5005875746343827e-01 -6.4113431240774103e-05 0.0000000000000000e+00  1.4993077607415461e-01 1.2124449659523320e-04 0.0000000000000000e+00  1.4998490241770696e-01 4.0646992535322060e-06 0.0000000000000000e+00  1.5006193203004550e-01 -9.9611161064083869e-05 0.0000000000000000e+00  1.4998008583818212e-01 4.1934339369552116e-05 0.0000000000000000e+00  1.4996357095415919e-01 5.8126661728324939e-05 0.0000000000000000e+00  1.5003542035778111e-01 -6.3185621864808182e-05 0.0000000000000000e+00  1.5000569779105410e-01 -8.2123720368538458e-06 0.0000000000000000e+00  1.4997148316454195e-01 4.9907283715901103e-05 0.0000000000000000e+00  1.5001322335241124e-01 -2.1405995741812266e-05 0.0000000000000000e+00  1.5001219626621587e-01 -2.5601903003263687e-05 0.0000000000000000e+00  1.4998182721463504e-01 3.4854618074145530e-05 0.0000000000000000e+00  1.5000499375445250e-01 -8.3597567101250287e-06 0.0000000000000000e+00  1.5000796445051476e-01 -1.5178897360846296e-05 0.0000000000000000e+00  1.4999180925250791e-01 1.2675767388921042e-05 0.0000000000000000e+00  1.4999961037312459e-01 5.6104866989976224e-06 0.0000000000000000e+00  1.5000706539990472e-01 -1.7633161015673903e-05 0.0000000000000000e+00  1.4999340494425284e-01 1.4537211739997595e-05 0.0000000000000000e+00  1.5000185538931990e-01 -4.1509112097938798e-06 0.0000000000000000e+00  1.5000163978206937e-01 -1.9097889381297377e-06 0.0000000000000000e+00  1.4999863515475717e-01 -3.1338104673225120e-07 0.0000000000000000e+00  1.4999876060946618e-01 6.4947501416091068e-06 0.0000000000000000e+00  1.5000338339748154e-01 -1.0545615004785921e-05 0.0000000000000000e+00  1.4999637919512698e-01 1.0168743921132103e-05 0.0000000000000000e+00  1.5000248216020343e-01 -7.3693043279282905e-06 0.0000000000000000e+00  1.4999862995739130e-01 5.4416302350948679e-06 0.0000000000000000e+00  1.5000121347409207e-01 -6.0464991327043446e-06 0.0000000000000000e+00  1.4999804114443382e-01 8.5248373051322517e-06 0.0000000000000000e+00  1.5000294560598515e-01 -1.1121241362387075e-05 0.0000000000000000e+00  1.4999643150153427e-01 1.2551127818353072e-05 0.0000000000000000e+00  1.5000366050487382e-01 -1.2687713168559168e-05 0.0000000000000000e+00  1.4999655872798442e-01 1.2222236861330187e-05 0.0000000000000000e+00  1.5000322516591374e-01 -1.1884680311526050e-05 0.0000000000000000e+00  1.4999681799433554e-01 1.1932431502334310e-05 0.0000000000000000e+00  1.5000325596685471e-01 -1.2080524871607270e-05 0.0000000000000000e+00  1.4999668197128077e-01 1.1926455400884309e-05 0.0000000000000000e+00  1.5000316533941360e-01 -1.1059179189808799e-05 0.0000000000000000e+00  1.4999709549792722e-01 9.7026742483895183e-06 0.0000000000000000e+00  1.5000231197334790e-01 -7.7040022715310784e-06 0.0000000000000000e+00  1.4999798001554965e-01 6.0231929946726432e-06 0.0000000000000000e+00  1.5000123099982998e-01 -3.9642545663522777e-06 0.0000000000000000e+00  1.4999860127780973e-01 2.7650766828723384e-06 0.0000000000000000e+00  1.5000054341151395e-01 -1.2489745733649376e-06 0.0000000000000000e+00  1.4999861900390679e-01 0.0000000000000000e+00 0.0000000000000000e+00  1.4999806297395038e-01 0.0000000000000000e+00 -1.1380216661332401e-04  1.4995198345467342e-01 1.2457938263281908e-05 1.2457938263168097e-05  1.4997165667211240e-01 9.6595892851030014e-05 -9.5551837523246251e-05  1.4991886053450085e-01 2.2320227530806763e-05 -4.8091732406913212e-05  1.4993511422229133e-01 1.3016270821985938e-04 -1.2626429688528782e-04  1.4988372292354851e-01 1.8171437273303933e-05 -7.7895653443143249e-05  1.4991336263234464e-01 9.1779257509918340e-05 -1.3679803961955803e-04  1.4988425787526191e-01 -6.3442784195788703e-05 -6.1419643142570439e-05  1.4993910764584981e-01 -3.2087398235219391e-05 -1.0184747074280883e-04  1.4993220362526433e-01 -1.8412818896779211e-04 -2.3301023653795136e-05  1.4998339597941893e-01 -1.2848977999431130e-04 -8.5224416117742066e-05  1.4995981601696057e-01 -1.7224249519585353e-04 -5.1792566673704551e-05  1.4996373914251740e-01 -3.4241524851016055e-05 -1.4411516117878053e-04  1.4990632974710749e-01 -6.4448178144746927e-06 -1.2249416419943130e-04  1.4989986179247117e-01 8.9647355130008317e-05 -1.5028053394932869e-04  1.4988772786605020e-01 3.1145471779655538e-05 -5.1344974304005247e-05  1.4993510155338535e-01 -2.5167818896377494e-05 -5.7317336728713223e-06  1.4998185660798741e-01 -1.3242143739755166e-04 7.8999014147566020e-05  1.5004440370106875e-01 -1.3863215608321877e-04 7.2156149597581493e-05  1.5006710367444831e-01 -1.3117622841759237e-04 7.2408072446300913e-05  1.5009101529267474e-01 -7.7494843417316768e-05 5.5052153803560695e-05  1.5011256860282135e-01 -4.2175356328409638e-05 9.7208782148188849e-05  1.5013352488638057e-01 -1.3781272523403381e-05 1.2136570317599839e-04  1.5013646379752119e-01 2.0791346086666157e-06 1.3219605127786540e-04  1.5014181261306936e-01 4.5907114513084764e-05 1.1560470962067318e-04  1.5013384789917278e-01 6.4472557031287065e-05 9.7827429941946435e-05  1.5010926330933905e-01 7.1319681742386420e-05 6.2259545616090111e-05  1.5007545274604828e-01 1.3014700414267779e-04 2.4443912784636154e-05  1.5003735886042191e-01 1.7772270463226975e-04 -2.4327087796289760e-06  1.5001378903848417e-01 8.4695663364686940e-05 1.1913580213629684e-05  1.5002833613295644e-01 -1.8966842129463715e-05 3.2164326381060266e-05  1.5002251141859957e-01 3.6217129731821832e-05 -1.1341474335214953e-05  1.4996806342008784e-01 9.2969127266343321e-05 -5.8634929622212645e-05  1.4997254007628066e-01 -1.5858111522634294e-05 1.6118296812479218e-05  1.5004829694214936e-01 -9.8444569863334114e-05 9.1123441842598846e-05  1.5003402071362654e-01 -1.3859980395323584e-06 -9.0111497234676249e-06  1.4994427156036336e-01 9.1675727145531361e-05 -1.0419122519705747e-04  1.4996155876933112e-01 3.6275009997859292e-05 -1.1781215711303654e-06  1.5004060873884992e-01 -6.1610535955278220e-05 8.5412552831684932e-05  1.5002568385156179e-01 -8.1972823376505967e-05 5.6430787874256311e-06  1.4998308864887147e-01 2.9106860650399322e-06 -4.0738071546659766e-05  1.4999073343694144e-01 1.0898966442704252e-04 -8.9549069129076459e-06  1.4998245818022748e-01 5.1273658319930824e-05 -2.4678189535372660e-05  1.4998981498624486e-01 -1.2334569710415898e-04 8.9964731853514871e-06  1.5004863692938691e-01 -8.8332009181864423e-05 8.3790056968665675e-05  1.5001689762601134e-01 1.2737506436407716e-04 -2.5585830135249803e-05  1.4992413779337396e-01 9.8797947081194674e-05 -1.2657174580217625e-04  1.4999255486298396e-01 -1.3157241474865295e-04 6.5231251805853999e-05  1.5009516610354881e-01 -9.1097524250950104e-05 1.4516238206639965e-04  1.4998453315357355e-01 1.3434156471270575e-04 -1.1810127546735978e-04  1.4990053404543663e-01 7.1324933975271414e-05 -1.2799711613228632e-04  1.5004682866302760e-01 -1.3421260633846873e-04 1.7016364154507643e-04  1.5008579454476972e-01 -4.4029261328273265e-05 7.5830359941724915e-05  1.4992508067230664e-01 1.2949432692011610e-04 -1.9748330120824986e-04  1.4994639927214992e-01 1.2591403898765184e-05 1.3540125361546509e-06  1.5008936952736168e-01 -1.1733033865062732e-04 1.8446951107881838e-04  1.5001179405879281e-01 1.9705523682439303e-05 -7.7465065064574555e-05  1.4991776407383697e-01 9.5668610776029409e-05 -1.2832918486369770e-04  1.5002658250624970e-01 -4.8157990104819217e-05 1.2401449000948428e-04  1.5005466023500383e-01 -6.2395168615599308e-05 4.7065471311729123e-05  1.4995237216770982e-01 6.3206774557378689e-05 -1.2336945457496907e-04  1.4998147381694268e-01 2.4707816162346361e-05 2.7077816871665269e-05  1.5004641946853087e-01 -6.2530031503593543e-05 8.0375321991767561e-05  1.4998775113921212e-01 1.2388592068971284e-05 -6.6181312318585187e-05  1.4997342038278483e-01 4.0102979339378036e-05 -2.0475676127881523e-05  1.5002430542162185e-01 -2.9352979871509090e-05 6.0779351968564701e-05  1.5000442445051498e-01 -1.5351753424594641e-05 -2.3496380416444771e-05  1.4997931526588790e-01 3.3417446946886540e-05 -2.8536894420201930e-05  1.5001146285046590e-01 -1.2471615616247071e-05 3.6676788319027406e-05  1.5000563053802174e-01 -1.3210362530907958e-05 -6.3294411931365245e-06  1.4998895805260951e-01 1.5012149317920908e-05 -2.0311226625722233e-05  1.5000333973861871e-01 1.8810402654378564e-06 1.8633457704755870e-05  1.5000593315684124e-01 -1.5135071574473136e-05 8.1485513525823357e-07  1.4999219832213823e-01 1.3184147510760874e-05 -1.4582599350991028e-05  1.5000311488180354e-01 -2.6261939083425574e-06 1.2300612628338061e-05  1.5000181869089485e-01 -4.2004125879378201e-06 -1.2530301919138080e-06  1.4999729499968065e-01 2.3702461262259901e-06 -6.2633894541306355e-06  1.5000014646458465e-01 3.8975408622762121e-06 5.1454270042522337e-06  1.5000265863179624e-01 -8.0556539430770742e-06 8.7916012438943776e-07  1.4999655394209299e-01 7.5130211594066682e-06 -5.4263962215265402e-06  1.5000233234909963e-01 -4.3842931826106359e-06 5.4457843635500790e-06  1.4999913316793675e-01 2.2015421671300062e-06 -2.3982502675712959e-06  1.5000034817197552e-01 -2.6866038843891561e-06 -4.3132539165569831e-07  1.4999905016777262e-01 5.0388480066755670e-06 9.8798015244771547e-07  1.5000198678282803e-01 -7.3440731909753585e-06 5.1038958490653821e-07  1.4999730241287493e-01 8.3006396634195856e-06 -2.5259866444195145e-06  1.5000279412911902e-01 -7.9090035218807613e-06 3.7213392909827664e-06  1.4999751604379086e-01 7.0139170862719935e-06 -3.7847964664586809e-06  1.5000214952969887e-01 -6.4264290818478960e-06 3.2644786335371147e-06  1.4999797292374165e-01 6.3742197896396255e-06 -2.8951836224764835e-06  1.5000210548594417e-01 -6.5434710583630086e-06 3.0564007558858973e-06  1.4999779337895169e-01 6.4382447207202161e-06 -3.6225554264261746e-06  1.5000218678793997e-01 -5.8233226628400306e-06 4.2493498951849416e-06  1.4999806339587149e-01 4.6713204808874129e-06 -4.5009425091153408e-06  1.5000161944243678e-01 -3.4416244668515602e-06 4.4256844118791212e-06  1.4999889248952372e-01 2.1032790395936457e-06 -3.7046370570018183e-06  1.5000092938110082e-01 -1.4291372048795038e-06 3.2624226114735565e-06  1.4999965008726698e-01 5.7411343571777854e-07 -1.9582011324842255e-06  1.5000062680259280e-01 -6.5626647347336437e-07 2.0504641505378548e-06  1.5000014065439471e-01 4.0175198833010385e-07 -4.0175198849762378e-07  1.5000054341151339e-01 0.0000000000000000e+00 1.2489745725603673e-06  1.5008385495156501e-01 0.0000000000000000e+00 1.8953983978751716e-05  1.4997165667211262e-01 -9.5551837523717812e-05 9.6595892850717411e-05  1.5008812064205482e-01 4.0933989014956557e-05 4.0933989014721895e-05  1.5001404716787287e-01 -1.8830536013920456e-04 1.8141536467851358e-04  1.5012310138350349e-01 4.6826860525709387e-05 1.0653946737248580e-04  1.5005444057846429e-01 -2.2005811969444045e-04 2.6217573418208136e-04  1.5015318439866945e-01 7.0712812858128365e-05 1.4699644976643448e-04  1.5006983189113474e-01 -1.5368699851045161e-04 2.7818151032866351e-04  1.5013863723039095e-01 1.6644948873693381e-04 1.1031622481431929e-04  1.5003750350226330e-01 -1.0638536558496642e-05 2.1014467930408745e-04  1.5008652659204999e-01 2.6257515888472485e-04 5.2749704571732628e-05  1.5000592289428852e-01 6.1678195673609858e-05 1.8744383843575426e-04  1.5007049028817251e-01 1.8815289563853791e-04 1.1085788377405357e-04  1.5004373247364622e-01 -4.1996120435108855e-05 2.7773752388574697e-04  1.5011629836564652e-01 2.6043613333617297e-05 2.0507839417128985e-04  1.5008410862901794e-01 -9.8963149392182457e-05 2.3863106856772496e-04  1.5009682879516870e-01 4.5290542393637377e-05 5.9007812594632823e-05  1.5002902278214214e-01 6.2670815184631272e-05 4.9816493326457691e-06  1.4999760168754550e-01 1.6886390241047962e-04 -1.2569012744536304e-04  1.4994142093088519e-01 1.2211615348197135e-04 -1.0383707756480941e-04  1.4993111577773641e-01 1.3160312737915561e-04 -1.2897493214498044e-04  1.4989099547449605e-01 6.9937164912439015e-05 -1.4165247478361721e-04  1.4986770984958983e-01 5.1823567714492084e-05 -2.3013475292887742e-04  1.4985290258572229e-01 1.2162032695750665e-05 -2.4325952813507667e-04  1.4985761133387696e-01 -1.8449620464297758e-05 -2.4317115056348763e-04  1.4985375196706163e-01 -6.9922916321694140e-05 -2.1723943613153156e-04  1.4987175127539348e-01 -7.0367172339178910e-05 -1.8418229299195789e-04  1.4990164808609746e-01 -1.0062864111479201e-04 -1.1318163914977027e-04  1.4993905363685558e-01 -1.7654488702842730e-04 -4.3836051864778014e-05  1.4997319509519055e-01 -1.6194920023773055e-04 -5.0477677827537886e-06  1.4997858226284352e-01 -2.5570884031833516e-05 -4.1703029805843669e-05  1.4996639950157950e-01 -2.9863598135812035e-07 -4.9366905369052028e-05  1.5000430482009447e-01 -9.1209706454426263e-05 5.8675593575405438e-05  1.5004072268674812e-01 -4.7215339918430698e-05 8.0030600572992045e-05  1.4998335968568510e-01 8.8980861822511012e-05 -1.0211797759233571e-04  1.4994185867165996e-01 5.2929663820544785e-05 -1.2553064482570886e-04  1.5002213097925746e-01 -7.5562048609753991e-05 1.1464751949304739e-04  1.5006425578742913e-01 -6.4967729844537918e-05 1.3913494523369368e-04  1.4998439661617960e-01 2.8537532618290605e-05 -9.6121245178054857e-05  1.4995577478642724e-01 7.0593547312726180e-05 -1.0067571817468780e-04  1.5000972578249286e-01 4.7922638614024604e-05 5.6232653573633791e-05  1.5001334740078132e-01 -5.3644683218489233e-05 2.7716910500174269e-05  1.5000594393452105e-01 -1.1594165073570146e-04 1.3017272194782507e-05  1.5002691108043978e-01 3.6097608270472921e-05 6.9890651434971148e-05  1.4997655494486939e-01 1.6530586166200168e-04 -8.6904880171691370e-05  1.4994376429749903e-01 -2.7061363319241761e-05 -1.3583088670478699e-04  1.5004807323570660e-01 -1.8535771759052111e-04 1.7488711127718433e-04  1.5006560159654592e-01 3.8832832139352051e-05 1.4333372331161922e-04  1.4992025363719771e-01 1.8544077035678448e-04 -2.7062899817238380e-04  1.4994444845243587e-01 -6.2103594005827461e-05 -9.0087398466552919e-05  1.5010515454711673e-01 -1.6765559051302022e-04 3.3875669042591886e-04  1.5002307433430243e-01 8.8184153033633151e-05 -2.1118731276695153e-05  1.4988235691134899e-01 1.3592953441295708e-04 -3.5121704352287944e-04  1.5001942710149427e-01 -1.1005356216355456e-04 1.5379698465358283e-04  1.5010467142887002e-01 -9.4179502356053627e-05 2.8215183897198581e-04  1.4993896684887850e-01 1.2069387137007172e-04 -2.6401979397689307e-04  1.4993049472368400e-01 4.7508861563231524e-05 -1.4729680054793057e-04  1.5008416714209910e-01 -1.1825998737706163e-04 2.9992123633763119e-04  1.5002055690880631e-01 9.0664697724548992e-07 -1.2924902579700578e-05  1.4992101227643145e-01 9.6303194355412938e-05 -2.4480555871044755e-04  1.5002244847759630e-01 -3.6420023213143972e-05 1.3438214804048176e-04  1.5005117993778505e-01 -6.4167423695596576e-05 1.2414773533532344e-04  1.4995421441110898e-01 6.0653290367503821e-05 -1.7345279833962476e-04  1.4998817472433426e-01 1.6992110101603205e-05 5.7404720093917323e-06  1.5003976709478078e-01 -5.1076361661062579e-05 1.2536751928585310e-04  1.4998554532706926e-01 1.0354601936770862e-05 -8.0840660224501038e-05  1.4997914530170806e-01 3.7444165532061747e-05 -4.0829881774210138e-05  1.5002560370039097e-01 -3.6117631854921947e-05 8.7356987045689088e-05  1.4999554816272931e-01 1.7397057737724679e-06 -3.3171379374844817e-05  1.4998704653124348e-01 1.8507225178065299e-05 -3.5972958292003551e-05  1.5001055751499798e-01 -7.1608548448982357e-06 4.7054926595463654e-05  1.5000310523462865e-01 -1.5231126338505936e-05 -7.3383449652931090e-06  1.4998824478661693e-01 2.3620415978321126e-05 -3.0237335344347931e-05  1.5000925673384746e-01 -1.4483528359324034e-05 3.2290562980011125e-05  1.4999845812837753e-01 1.8532778163486209e-06 -8.5157807471213074e-06  1.4999705404419419e-01 1.6024711191350237e-06 -1.2069279726166246e-05  1.5000140779432528e-01 4.5753329817102246e-06 1.3007619677042096e-05  1.5000299585795862e-01 -1.2442073386534649e-05 1.7061131803568024e-07  1.4999412280235153e-01 1.5284105378879774e-05 -1.2300098395420900e-0