<?xml version="1.0"?>
<VTKFile type="UnstructuredGrid"  version="0.1"  >
<UnstructuredGrid>
<Piece  NumberOfPoints="10201" NumberOfCells="20000">
<Points>
<DataArray  type="Float64"  NumberOfComponents="3"  format="ascii">-5 -5 0  -4.9 -5 0  -4.8 -5 0  -4.7 -5 0  -4.6 -5 0  -4.5 -5 0  -4.4 -5 0  -4.3 -5 0  -4.2 -5 0  -4.1 -5 0  -4 -5 0  -3.9 -5 0  -3.8 -5 0  -3.7 -5 0  -3.6 -5 0  -3.5 -5 0  -3.4 -5 0  -3.3 -5 0  -3.2 -5 0  -3.1 -5 0  -3 -5 0  -2.9 -5 0  -2.8 -5 0  -2.7 -5 0  -2.6 -5 0  -2.5 -5 0  -2.4 -5 0  -2.3 -5 0  -2.2 -5 0  -2.1 -5 0  -2 -5 0  -1.9 -5 0  -1.8 -5 0  -1.7 -5 0  -1.6 -5 0  -1.5 -5 0  -1.4 -5 0  -1.3 -5 0  -1.2 -5 0  -1.1 -5 0  -1 -5 0  -0.9000000000000004 -5 0  -0.7999999999999998 -5 0  -0.7000000000000002 -5 0  -0.5999999999999996 -5 0  -0.5 -5 0  -0.4000000000000004 -5 0  -0.2999999999999998 -5 0  -0.2000000000000002 -5 0  -0.09999999999999964 -5 0  0 -5 0  0.09999999999999964 -5 0  0.2000000000000002 -5 0  0.2999999999999998 -5 0  0.4000000000000004 -5 0  0.5 -5 0  0.5999999999999996 -5 0  0.7000000000000002 -5 0  0.7999999999999998 -5 0  0.9000000000000004 -5 0  1 -5 0  1.1 -5 0  1.2 -5 0  1.3 -5 0  1.4 -5 0  1.5 -5 0  1.6 -5 0  1.7 -5 0  1.8 -5 0  1.9 -5 0  2 -5 0  2.1 -5 0  2.2 -5 0  2.3 -5 0  2.4 -5 0  2.5 -5 0  2.6 -5 0  2.7 -5 0  2.8 -5 0  2.9 -5 0  3 -5 0  3.1 -5 0  3.199999999999999 -5 0  3.300000000000001 -5 0  3.4 -5 0  3.5 -5 0  3.6 -5 0  3.699999999999999 -5 0  3.800000000000001 -5 0  3.9 -5 0  4 -5 0  4.1 -5 0  4.199999999999999 -5 0  4.300000000000001 -5 0  4.4 -5 0  4.5 -5 0  4.6 -5 0  4.699999999999999 -5 0  4.800000000000001 -5 0  4.9 -5 0  5 -5 0  -5 -4.9 0  -4.9 -4.9 0  -4.8 -4.9 0  -4.7 -4.9 0  -4.6 -4.9 0  -4.5 -4.9 0  -4.4 -4.9 0  -4.3 -4.9 0  -4.2 -4.9 0  -4.1 -4.9 0  -4 -4.9 0  -3.9 -4.9 0  -3.8 -4.9 0  -3.7 -4.9 0  -3.6 -4.9 0  -3.5 -4.9 0  -3.4 -4.9 0  -3.3 -4.9 0  -3.2 -4.9 0  -3.1 -4.9 0  -3 -4.9 0  -2.9 -4.9 0  -2.8 -4.9 0  -2.7 -4.9 0  -2.6 -4.9 0  -2.5 -4.9 0  -2.4 -4.9 0  -2.3 -4.9 0  -2.2 -4.9 0  -2.1 -4.9 0  -2 -4.9 0  -1.9 -4.9 0  -1.8 -4.9 0  -1.7 -4.9 0  -1.6 -4.9 0  -1.5 -4.9 0  -1.4 -4.9 0  -1.3 -4.9 0  -1.2 -4.9 0  -1.1 -4.9 0  -1 -4.9 0  -0.9000000000000004 -4.9 0  -0.7999999999999998 -4.9 0  -0.7000000000000002 -4.9 0  -0.5999999999999996 -4.9 0  -0.5 -4.9 0  -0.4000000000000004 -4.9 0  -0.2999999999999998 -4.9 0  -0.2000000000000002 -4.9 0  -0.09999999999999964 -4.9 0  0 -4.9 0  0.09999999999999964 -4.9 0  0.2000000000000002 -4.9 0  0.2999999999999998 -4.9 0  0.4000000000000004 -4.9 0  0.5 -4.9 0  0.5999999999999996 -4.9 0  0.7000000000000002 -4.9 0  0.7999999999999998 -4.9 0  0.9000000000000004 -4.9 0  1 -4.9 0  1.1 -4.9 0  1.2 -4.9 0  1.3 -4.9 0  1.4 -4.9 0  1.5 -4.9 0  1.6 -4.9 0  1.7 -4.9 0  1.8 -4.9 0  1.9 -4.9 0  2 -4.9 0  2.1 -4.9 0  2.2 -4.9 0  2.3 -4.9 0  2.4 -4.9 0  2.5 -4.9 0  2.6 -4.9 0  2.7 -4.9 0  2.8 -4.9 0  2.9 -4.9 0  3 -4.9 0  3.1 -4.9 0  3.199999999999999 -4.9 0  3.300000000000001 -4.9 0  3.4 -4.9 0  3.5 -4.9 0  3.6 -4.9 0  3.699999999999999 -4.9 0  3.800000000000001 -4.9 0  3.9 -4.9 0  4 -4.9 0  4.1 -4.9 0  4.199999999999999 -4.9 0  4.300000000000001 -4.9 0  4.4 -4.9 0  4.5 -4.9 0  4.6 -4.9 0  4.699999999999999 -4.9 0  4.800000000000001 -4.9 0  4.9 -4.9 0  5 -4.9 0  -5 -4.8 0  -4.9 -4.8 0  -4.8 -4.8 0  -4.7 -4.8 0  -4.6 -4.8 0  -4.5 -4.8 0  -4.4 -4.8 0  -4.3 -4.8 0  -4.2 -4.8 0  -4.1 -4.8 0  -4 -4.8 0  -3.9 -4.8 0  -3.8 -4.8 0  -3.7 -4.8 0  -3.6 -4.8 0  -3.5 -4.8 0  -3.4 -4.8 0  -3.3 -4.8 0  -3.2 -4.8 0  -3.1 -4.8 0  -3 -4.8 0  -2.9 -4.8 0  -2.8 -4.8 0  -2.7 -4.8 0  -2.6 -4.8 0  -2.5 -4.8 0  -2.4 -4.8 0  -2.3 -4.8 0  -2.2 -4.8 0  -2.1 -4.8 0  -2 -4.8 0  -1.9 -4.8 0  -1.8 -4.8 0  -1.7 -4.8 0  -1.6 -4.8 0  -1.5 -4.8 0  -1.4 -4.8 0  -1.3 -4.8 0  -1.2 -4.8 0  -1.1 -4.8 0  -1 -4.8 0  -0.9000000000000004 -4.8 0  -0.7999999999999998 -4.8 0  -0.7000000000000002 -4.8 0  -0.5999999999999996 -4.8 0  -0.5 -4.8 0  -0.4000000000000004 -4.8 0  -0.2999999999999998 -4.8 0  -0.2000000000000002 -4.8 0  -0.09999999999999964 -4.8 0  0 -4.8 0  0.09999999999999964 -4.8 0  0.2000000000000002 -4.8 0  0.2999999999999998 -4.8 0  0.4000000000000004 -4.8 0  0.5 -4.8 0  0.5999999999999996 -4.8 0  0.7000000000000002 -4.8 0  0.7999999999999998 -4.8 0  0.9000000000000004 -4.8 0  1 -4.8 0  1.1 -4.8 0  1.2 -4.8 0  1.3 -4.8 0  1.4 -4.8 0  1.5 -4.8 0  1.6 -4.8 0  1.7 -4.8 0  1.8 -4.8 0  1.9 -4.8 0  2 -4.8 0  2.1 -4.8 0  2.2 -4.8 0  2.3 -4.8 0  2.4 -4.8 0  2.5 -4.8 0  2.6 -4.8 0  2.7 -4.8 0  2.8 -4.8 0  2.9 -4.8 0  3 -4.8 0  3.1 -4.8 0  3.199999999999999 -4.8 0  3.300000000000001 -4.8 0  3.4 -4.8 0  3.5 -4.8 0  3.6 -4.8 0  3.699999999999999 -4.8 0  3.800000000000001 -4.8 0  3.9 -4.8 0  4 -4.8 0  4.1 -4.8 0  4.199999999999999 -4.8 0  4.300000000000001 -4.8 0  4.4 -4.8 0  4.5 -4.8 0  4.6 -4.8 0  4.699999999999999 -4.8 0  4.800000000000001 -4.8 0  4.9 -4.8 0  5 -4.8 0  -5 -4.7 0  -4.9 -4.7 0  -4.8 -4.7 0  -4.7 -4.7 0  -4.6 -4.7 0  -4.5 -4.7 0  -4.4 -4.7 0  -4.3 -4.7 0  -4.2 -4.7 0  -4.1 -4.7 0  -4 -4.7 0  -3.9 -4.7 0  -3.8 -4.7 0  -3.7 -4.7 0  -3.6 -4.7 0  -3.5 -4.7 0  -3.4 -4.7 0  -3.3 -4.7 0  -3.2 -4.7 0  -3.1 -4.7 0  -3 -4.7 0  -2.9 -4.7 0  -2.8 -4.7 0  -2.7 -4.7 0  -2.6 -4.7 0  -2.5 -4.7 0  -2.4 -4.7 0  -2.3 -4.7 0  -2.2 -4.7 0  -2.1 -4.7 0  -2 -4.7 0  -1.9 -4.7 0  -1.8 -4.7 0  -1.7 -4.7 0  -1.6 -4.7 0  -1.5 -4.7 0  -1.4 -4.7 0  -1.3 -4.7 0  -1.2 -4.7 0  -1.1 -4.7 0  -1 -4.7 0  -0.9000000000000004 -4.7 0  -0.7999999999999998 -4.7 0  -0.7000000000000002 -4.7 0  -0.5999999999999996 -4.7 0  -0.5 -4.7 0  -0.4000000000000004 -4.7 0  -0.2999999999999998 -4.7 0  -0.2000000000000002 -4.7 0  -0.09999999999999964 -4.7 0  0 -4.7 0  0.09999999999999964 -4.7 0  0.2000000000000002 -4.7 0  0.2999999999999998 -4.7 0  0.4000000000000004 -4.7 0  0.5 -4.7 0  0.5999999999999996 -4.7 0  0.7000000000000002 -4.7 0  0.7999999999999998 -4.7 0  0.9000000000000004 -4.7 0  1 -4.7 0  1.1 -4.7 0  1.2 -4.7 0  1.3 -4.7 0  1.4 -4.7 0  1.5 -4.7 0  1.6 -4.7 0  1.7 -4.7 0  1.8 -4.7 0  1.9 -4.7 0  2 -4.7 0  2.1 -4.7 0  2.2 -4.7 0  2.3 -4.7 0  2.4 -4.7 0  2.5 -4.7 0  2.6 -4.7 0  2.7 -4.7 0  2.8 -4.7 0  2.9 -4.7 0  3 -4.7 0  3.1 -4.7 0  3.199999999999999 -4.7 0  3.300000000000001 -4.7 0  3.4 -4.7 0  3.5 -4.7 0  3.6 -4.7 0  3.699999999999999 -4.7 0  3.800000000000001 -4.7 0  3.9 -4.7 0  4 -4.7 0  4.1 -4.7 0  4.199999999999999 -4.7 0  4.300000000000001 -4.7 0  4.4 -4.7 0  4.5 -4.7 0  4.6 -4.7 0  4.699999999999999 -4.7 0  4.800000000000001 -4.7 0  4.9 -4.7 0  5 -4.7 0  -5 -4.6 0  -4.9 -4.6 0  -4.8 -4.6 0  -4.7 -4.6 0  -4.6 -4.6 0  -4.5 -4.6 0  -4.4 -4.6 0  -4.3 -4.6 0  -4.2 -4.6 0  -4.1 -4.6 0  -4 -4.6 0  -3.9 -4.6 0  -3.8 -4.6 0  -3.7 -4.6 0  -3.6 -4.6 0  -3.5 -4.6 0  -3.4 -4.6 0  -3.3 -4.6 0  -3.2 -4.6 0  -3.1 -4.6 0  -3 -4.6 0  -2.9 -4.6 0  -2.8 -4.6 0  -2.7 -4.6 0  -2.6 -4.6 0  -2.5 -4.6 0  -2.4 -4.6 0  -2.3 -4.6 0  -2.2 -4.6 0  -2.1 -4.6 0  -2 -4.6 0  -1.9 -4.6 0  -1.8 -4.6 0  -1.7 -4.6 0  -1.6 -4.6 0  -1.5 -4.6 0  -1.4 -4.6 0  -1.3 -4.6 0  -1.2 -4.6 0  -1.1 -4.6 0  -1 -4.6 0  -0.9000000000000004 -4.6 0  -0.7999999999999998 -4.6 0  -0.7000000000000002 -4.6 0  -0.5999999999999996 -4.6 0  -0.5 -4.6 0  -0.4000000000000004 -4.6 0  -0.2999999999999998 -4.6 0  -0.2000000000000002 -4.6 0  -0.09999999999999964 -4.6 0  0 -4.6 0  0.09999999999999964 -4.6 0  0.2000000000000002 -4.6 0  0.2999999999999998 -4.6 0  0.4000000000000004 -4.6 0  0.5 -4.6 0  0.5999999999999996 -4.6 0  0.7000000000000002 -4.6 0  0.7999999999999998 -4.6 0  0.9000000000000004 -4.6 0  1 -4.6 0  1.1 -4.6 0  1.2 -4.6 0  1.3 -4.6 0  1.4 -4.6 0  1.5 -4.6 0  1.6 -4.6 0  1.7 -4.6 0  1.8 -4.6 0  1.9 -4.6 0  2 -4.6 0  2.1 -4.6 0  2.2 -4.6 0  2.3 -4.6 0  2.4 -4.6 0  2.5 -4.6 0  2.6 -4.6 0  2.7 -4.6 0  2.8 -4.6 0  2.9 -4.6 0  3 -4.6 0  3.1 -4.6 0  3.199999999999999 -4.6 0  3.300000000000001 -4.6 0  3.4 -4.6 0  3.5 -4.6 0  3.6 -4.6 0  3.699999999999999 -4.6 0  3.800000000000001 -4.6 0  3.9 -4.6 0  4 -4.6 0  4.1 -4.6 0  4.199999999999999 -4.6 0  4.300000000000001 -4.6 0  4.4 -4.6 0  4.5 -4.6 0  4.6 -4.6 0  4.699999999999999 -4.6 0  4.800000000000001 -4.6 0  4.9 -4.6 0  5 -4.6 0  -5 -4.5 0  -4.9 -4.5 0  -4.8 -4.5 0  -4.7 -4.5 0  -4.6 -4.5 0  -4.5 -4.5 0  -4.4 -4.5 0  -4.3 -4.5 0  -4.2 -4.5 0  -4.1 -4.5 0  -4 -4.5 0  -3.9 -4.5 0  -3.8 -4.5 0  -3.7 -4.5 0  -3.6 -4.5 0  -3.5 -4.5 0  -3.4 -4.5 0  -3.3 -4.5 0  -3.2 -4.5 0  -3.1 -4.5 0  -3 -4.5 0  -2.9 -4.5 0  -2.8 -4.5 0  -2.7 -4.5 0  -2.6 -4.5 0  -2.5 -4.5 0  -2.4 -4.5 0  -2.3 -4.5 0  -2.2 -4.5 0  -2.1 -4.5 0  -2 -4.5 0  -1.9 -4.5 0  -1.8 -4.5 0  -1.7 -4.5 0  -1.6 -4.5 0  -1.5 -4.5 0  -1.4 -4.5 0  -1.3 -4.5 0  -1.2 -4.5 0  -1.1 -4.5 0  -1 -4.5 0  -0.9000000000000004 -4.5 0  -0.7999999999999998 -4.5 0  -0.7000000000000002 -4.5 0  -0.5999999999999996 -4.5 0  -0.5 -4.5 0  -0.4000000000000004 -4.5 0  -0.2999999999999998 -4.5 0  -0.2000000000000002 -4.5 0  -0.09999999999999964 -4.5 0  0 -4.5 0  0.09999999999999964 -4.5 0  0.2000000000000002 -4.5 0  0.2999999999999998 -4.5 0  0.4000000000000004 -4.5 0  0.5 -4.5 0  0.5999999999999996 -4.5 0  0.7000000000000002 -4.5 0  0.7999999999999998 -4.5 0  0.9000000000000004 -4.5 0  1 -4.5 0  1.1 -4.5 0  1.2 -4.5 0  1.3 -4.5 0  1.4 -4.5 0  1.5 -4.5 0  1.6 -4.5 0  1.7 -4.5 0  1.8 -4.5 0  1.9 -4.5 0  2 -4.5 0  2.1 -4.5 0  2.2 -4.5 0  2.3 -4.5 0  2.4 -4.5 0  2.5 -4.5 0  2.6 -4.5 0  2.7 -4.5 0  2.8 -4.5 0  2.9 -4.5 0  3 -4.5 0  3.1 -4.5 0  3.199999999999999 -4.5 0  3.300000000000001 -4.5 0  3.4 -4.5 0  3.5 -4.5 0  3.6 -4.5 0  3.699999999999999 -4.5 0  3.800000000000001 -4.5 0  3.9 -4.5 0  4 -4.5 0  4.1 -4.5 0  4.199999999999999 -4.5 0  4.300000000000001 -4.5 0  4.4 -4.5 0  4.5 -4.5 0  4.6 -4.5 0  4.699999999999999 -4.5 0  4.800000000000001 -4.5 0  4.9 -4.5 0  5 -4.5 0  -5 -4.4 0  -4.9 -4.4 0  -4.8 -4.4 0  -4.7 -4.4 0  -4.6 -4.4 0  -4.5 -4.4 0  -4.4 -4.4 0  -4.3 -4.4 0  -4.2 -4.4 0  -4.1 -4.4 0  -4 -4.4 0  -3.9 -4.4 0  -3.8 -4.4 0  -3.7 -4.4 0  -3.6 -4.4 0  -3.5 -4.4 0  -3.4 -4.4 0  -3.3 -4.4 0  -3.2 -4.4 0  -3.1 -4.4 0  -3 -4.4 0  -2.9 -4.4 0  -2.8 -4.4 0  -2.7 -4.4 0  -2.6 -4.4 0  -2.5 -4.4 0  -2.4 -4.4 0  -2.3 -4.4 0  -2.2 -4.4 0  -2.1 -4.4 0  -2 -4.4 0  -1.9 -4.4 0  -1.8 -4.
[...]
<PointData  Vectors="f_23"> 
<DataArray  type="Float64"  Name="f_23"  NumberOfComponents="3" format="ascii">1.5000926086956232e-01 0.0000000000000000e+00 0.0000000000000000e+00  1.5000108929207007e-01 5.6824998657421212e-11 0.0000000000000000e+00  1.5001603356347309e-01 3.1674840928988262e-13 0.0000000000000000e+00  1.5001541958215284e-01 2.2900310089698930e-10 0.0000000000000000e+00  1.5003703899980006e-01 7.4353678579123116e-11 0.0000000000000000e+00  1.5004505309293512e-01 7.1566097510759271e-10 0.0000000000000000e+00  1.5007469564680739e-01 4.1939624208228644e-10 0.0000000000000000e+00  1.5008727956664633e-01 1.2912576220775802e-09 0.0000000000000000e+00  1.5011355668899293e-01 5.2887045400224876e-10 0.0000000000000000e+00  1.5011433964029211e-01 6.2247483243773077e-10 0.0000000000000000e+00  1.5011772097054379e-01 1.8077748933712462e-13 0.0000000000000000e+00  1.5009496151979432e-01 1.1834057691341696e-10 0.0000000000000000e+00  1.5007883014522050e-01 1.2238901500966681e-09 0.0000000000000000e+00  1.5005405614203574e-01 1.2468758706215557e-09 0.0000000000000000e+00  1.5004782627041086e-01 1.2608745940423586e-09 0.0000000000000000e+00  1.5004289943003557e-01 3.3726169493499920e-10 0.0000000000000000e+00  1.5004490851565747e-01 9.6233335271114009e-11 0.0000000000000000e+00  1.5003212985132619e-01 3.8218079080983642e-12 0.0000000000000000e+00  1.5001294845154081e-01 5.8046940405415765e-11 0.0000000000000000e+00  1.4998755769390218e-01 1.5727448223522070e-10 0.0000000000000000e+00  1.4997124842526630e-01 2.1485409055570020e-10 0.0000000000000000e+00  1.4996898222205363e-01 4.9429466722108324e-11 0.0000000000000000e+00  1.4998411363405226e-01 1.8694190270620701e-11 0.0000000000000000e+00  1.5000287157641579e-01 3.6016438159216324e-10 0.0000000000000000e+00  1.5001525793765472e-01 6.1979536964644814e-10 0.0000000000000000e+00  1.5001309366745305e-01 1.1491933450829311e-10 0.0000000000000000e+00  1.4999280822103325e-01 1.6995387292756728e-10 0.0000000000000000e+00  1.4997107051347039e-01 3.6330844515514022e-10 0.0000000000000000e+00  1.4997837265843567e-01 2.9138699887107380e-11 0.0000000000000000e+00  1.5000648379631940e-01 7.4579096235866698e-11 0.0000000000000000e+00  1.5002046083806747e-01 2.1837697452004206e-10 0.0000000000000000e+00  1.5002029232312594e-01 1.2139533591036843e-10 0.0000000000000000e+00  1.5001666282844936e-01 4.9256928298016990e-11 0.0000000000000000e+00  1.4999502800861522e-01 5.5481439088976322e-10 0.0000000000000000e+00  1.4997692286518435e-01 2.1420826550269134e-10 0.0000000000000000e+00  1.5000491776740171e-01 1.1147979210181644e-10 0.0000000000000000e+00  1.5003640574104657e-01 4.0886854683328327e-10 0.0000000000000000e+00  1.5000956849566741e-01 2.5339055384356058e-12 0.0000000000000000e+00  1.4997188210342977e-01 5.6728733819805202e-10 0.0000000000000000e+00  1.4998544866202740e-01 2.8474054154289576e-10 0.0000000000000000e+00  1.5001674623550426e-01 4.4130821277255973e-10 0.0000000000000000e+00  1.5001882063475211e-01 6.6028934207513824e-10 0.0000000000000000e+00  1.4999528354374173e-01 3.6537449382056480e-10 0.0000000000000000e+00  1.4997765144217617e-01 8.2080040173337323e-10 0.0000000000000000e+00  1.4999874530947674e-01 3.7147856270582187e-10 0.0000000000000000e+00  1.5002623834414239e-01 6.6900725498319699e-10 0.0000000000000000e+00  1.4999960289266176e-01 4.4853623831938389e-10 0.0000000000000000e+00  1.4997258166902799e-01 3.5185666359807211e-10 0.0000000000000000e+00  1.5000826216075011e-01 5.1637977312358965e-10 0.0000000000000000e+00  1.5002281170524137e-01 7.9779617966411744e-11 0.0000000000000000e+00  1.4998274650193011e-01 4.7648641273467504e-10 0.0000000000000000e+00  1.4998826238460311e-01 1.8051352761104021e-12 0.0000000000000000e+00  1.5002151182581577e-01 3.0029858411925747e-10 0.0000000000000000e+00  1.4999768407951805e-01 8.9988779832849750e-11 0.0000000000000000e+00  1.4998237617204674e-01 9.3163287573051854e-11 0.0000000000000000e+00  1.5001338080824839e-01 1.7663435538790159e-10 0.0000000000000000e+00  1.5000707735153657e-01 7.4149606769097715e-13 0.0000000000000000e+00  1.4998338826903901e-01 1.4258771205643597e-10 0.0000000000000000e+00  1.5000458559967972e-01 3.7914035052522768e-11 0.0000000000000000e+00  1.5001149355893589e-01 4.3405578841225514e-11 0.0000000000000000e+00  1.4998863344925764e-01 8.2221199594813005e-11 0.0000000000000000e+00  1.4999777453746033e-01 4.3231467710205823e-15 0.0000000000000000e+00  1.5001071949381811e-01 5.5232979295589108e-11 0.0000000000000000e+00  1.4999476110782164e-01 2.0089127027183816e-11 0.0000000000000000e+00  1.4999508130808539e-01 9.5910668694859596e-12 0.0000000000000000e+00  1.5000733256689841e-01 3.0120178390512356e-11 0.0000000000000000e+00  1.4999865969850598e-01 1.5914216937316222e-12 0.0000000000000000e+00  1.4999559085262770e-01 1.0201929890138193e-11 0.0000000000000000e+00  1.5000397780546268e-01 8.8305508293500207e-12 0.0000000000000000e+00  1.5000040541665369e-01 1.8131139987790613e-13 0.0000000000000000e+00  1.4999679688891962e-01 6.8357097295791822e-12 0.0000000000000000e+00  1.5000222274314620e-01 3.1948329609459580e-12 0.0000000000000000e+00  1.5000035253123603e-01 7.8481030686640424e-14 0.0000000000000000e+00  1.4999842179593936e-01 1.3885753975723108e-12 0.0000000000000000e+00  1.5000078426213329e-01 1.7071261935969536e-13 0.0000000000000000e+00  1.5000063869944907e-01 6.2746597349738850e-13 0.0000000000000000e+00  1.4999874807039582e-01 1.5253667955398659e-12 0.0000000000000000e+00  1.5000084445429918e-01 6.5283725576828544e-13 0.0000000000000000e+00  1.4999986329837622e-01 3.4954594265156842e-14 0.0000000000000000e+00  1.4999981241816521e-01 1.8247262623417484e-15 0.0000000000000000e+00  1.5000002241074684e-01 2.5535665433900539e-14 0.0000000000000000e+00  1.5000031230724206e-01 2.2116877120692519e-13 0.0000000000000000e+00  1.4999950513961413e-01 3.6218232922370786e-13 0.0000000000000000e+00  1.5000044568966703e-01 2.6284120297196513e-13 0.0000000000000000e+00  1.4999971602624859e-01 1.1535640179628027e-13 0.0000000000000000e+00  1.5000015821902984e-01 5.1028675809267825e-14 0.0000000000000000e+00  1.4999986885088964e-01 4.7277405236726166e-14 0.0000000000000000e+00  1.5000017519446801e-01 7.4124267039972755e-14 0.0000000000000000e+00  1.4999976974769583e-01 1.0596624769955670e-13 0.0000000000000000e+00  1.5000025586325341e-01 1.1623762094814199e-13 0.0000000000000000e+00  1.4999975282006747e-01 1.0306754239457107e-13 0.0000000000000000e+00  1.5000022105687966e-01 8.3073514276589380e-14 0.0000000000000000e+00  1.4999980278228123e-01 6.9053682774912796e-14 0.0000000000000000e+00  1.5000018327466100e-01 6.2659477968543396e-14 0.0000000000000000e+00  1.4999981975877050e-01 6.0593959941136516e-14 0.0000000000000000e+00  1.5000017433252302e-01 5.6172436981058458e-14 0.0000000000000000e+00  1.4999982665430675e-01 4.9188438343521340e-14 0.0000000000000000e+00  1.5000014403210254e-01 3.1301690766461195e-14 0.0000000000000000e+00  1.4999983926833535e-01 2.1836808124899772e-14 0.0000000000000000e+00  1.5000007892904985e-01 4.6724534054124952e-15 0.0000000000000000e+00  1.4999981166533086e-01 0.0000000000000000e+00 0.0000000000000000e+00  1.5000108929206962e-01 0.0000000000000000e+00 5.6824998661844017e-11  1.4999115907816274e-01 1.1492358319914208e-14 1.1492358202013672e-14  1.4999400066342183e-01 7.6018806163033507e-11 7.5322350150581385e-11  1.4997926881511653e-01 1.3767079619951897e-11 7.5249998601547763e-11  1.4997575845791186e-01 3.1467259575695933e-10 3.8521561339109364e-10  1.4995186174853040e-01 1.9158982160791121e-10 5.6115822813689037e-10  1.4994042536678268e-01 9.0611111367578909e-10 1.4880163053264615e-09  1.4990999499098087e-01 6.1115730831419050e-10 1.8652257831681667e-09  1.4989844794147877e-01 1.2552862822837659e-09 3.0935870303905195e-09  1.4987703472226313e-01 4.0544257998959853e-10 2.7155081164603090e-09  1.4988326881694575e-01 2.6102201353363933e-10 2.8087095479103025e-09  1.4988717968612930e-01 1.0036430180520293e-10 1.4372324006190718e-09  1.4991376762189371e-01 4.2898898923747791e-10 1.0036982567377244e-09  1.4992886268580075e-01 1.4998693727512226e-09 3.6468340541410310e-10  1.4994897341559887e-01 1.1281302677632741e-09 4.3089015204354592e-10  1.4995029565063672e-01 8.6083495857413303e-10 3.3915025172320797e-10  1.4995542935629769e-01 1.9928585713845220e-10 4.5395695192953833e-10  1.4995972607801331e-01 9.1849556025096996e-11 1.3881808447375366e-10  1.4997995862866631e-01 4.0879348032191049e-11 1.1612405177159042e-12  1.5000105620678100e-01 1.5531141440173426e-10 1.6351377219761605e-10  1.5002217595269182e-01 1.7033155429553718e-10 2.6923917254943146e-10  1.5002923335073462e-01 8.4996978875725999e-11 1.7865111396251903e-10  1.5002214995669103e-01 8.1481048296261971e-13 6.3343358682318979e-12  1.5000459935326663e-01 1.3883951864147722e-10 3.6436755173662905e-11  1.4999171499912431e-01 4.7719743760264296e-10 6.8181896582960202e-11  1.4998804466658550e-01 2.9225813896969828e-10 9.1280833345969756e-13  1.4999924932828015e-01 1.1304162582526418e-11 1.3858188143129517e-10  1.5002107417347491e-01 3.0163960071073052e-10 4.5860038778024850e-10  1.5002771995743727e-01 9.2284562271244401e-11 2.2818278358308674e-10  1.5000479836233011e-01 2.1240471095582513e-11 8.3584969991594963e-12  1.4998266863900173e-01 1.4731269852214566e-10 1.6207471962892727e-10  1.4998124237026855e-01 1.6204916253418930e-10 8.0480248328542133e-11  1.4998354597453994e-01 5.1832434721450477e-13 6.0666835749731075e-12  1.4999261100968947e-01 3.3299653724725974e-10 3.4167966374307511e-11  1.5001486535742611e-01 3.3330845783345503e-10 1.1315850522490518e-10  1.5000984688355909e-01 4.7229574983053707e-12 1.7312665060732977e-11  1.4997437758531931e-01 2.1236988990504852e-10 4.2921898671403090e-10  1.4997610802842673e-01 4.8623461360948238e-11 2.4020821424192542e-11  1.5001568854795616e-01 1.0437181587945289e-10 3.6942044652094580e-10  1.5002127088881706e-01 3.4345335829724950e-10 7.0173342028809569e-11  1.4999370322588082e-01 3.5811010338225487e-13 2.0986584442048447e-10  1.4998348858952368e-01 5.8262565897528171e-10 9.3115587231028678e-11  1.4999458290831660e-01 2.5356107323692671e-11 6.0183814209626435e-11  1.5001201131246558e-01 7.2474301236885791e-10 8.7949392771339448e-11  1.5001435978131902e-01 3.6745132828597189e-11 7.0252003392832489e-12  1.4998725205228339e-01 7.2506538758719904e-10 9.3773669362695765e-11  1.4998169118251004e-01 7.7753170098296254e-12 1.4158078764283536e-13  1.5001749227572800e-01 6.0416061875939346e-10 9.9015309654198481e-11  1.5001481342465986e-01 6.9810819889172184e-12 2.3183078641222288e-12  1.4997773022574012e-01 3.9313660144161446e-10 8.0520957086784546e-11  1.4999507564434375e-01 6.4170984229833409e-11 2.0188789357486981e-11  1.5002209259095742e-01 1.7212212500233640e-10 2.9962675699627358e-11  1.4999293625413510e-01 1.3057699820223699e-10 4.7705166980360610e-11  1.4998504928372383e-01 3.0122503116651329e-11 2.3791510079007911e-14  1.5001511271653409e-01 1.3807371635937042e-10 4.1087804770345610e-11  1.5000319949752522e-01 2.3107795663582048e-12 2.3383012740919182e-11  1.4998469532646347e-01 7.9220207514489134e-11 7.3730601614302452e-12  1.5000758671895123e-01 3.9274312866373876e-11 4.8441078167628893e-11  1.5000830050733363e-01 1.5502675956616479e-11 5.0151574698147702e-12  1.4998772330077653e-01 5.8470204492843212e-11 2.7280301708947999e-11  1.5000113840191867e-01 1.4466090964454921e-12 3.1094324206592676e-11  1.5000961431318188e-01 3.2521752676838589e-11 1.1020644692079881e-12  1.4999263615980540e-01 1.9633729512555828e-11 3.0666277511395992e-11  1.4999712333935342e-01 3.9949388677697832e-12 7.5239029797654089e-12  1.5000780820353060e-01 2.3842699106357751e-11 7.3509777247311830e-12  1.4999687514580123e-01 2.5257808381605981e-12 1.5985568916314095e-11  1.4999628945562987e-01 7.2139291365150731e-12 3.9472462421131812e-13  1.5000481088102902e-01 8.2176343248270292e-12 6.6060571147993757e-12  1.4999943144372116e-01 6.4112906281940994e-14 5.0251309100554827e-12  1.4999683088368232e-01 6.1740092176314693e-12 9.0172234053599638e-14  1.5000283925057126e-01 3.0836395139207620e-12 3.4670662592037389e-12  1.4999995112636452e-01 1.0242962473622781e-13 1.4987180509141048e-12  1.4999827162898893e-01 1.5585970892046401e-12 8.7786342885162356e-14  1.5000115426826008e-01 2.0461456936839378e-13 9.7054993093927221e-13  1.5000046009763177e-01 6.1769483634383984e-13 2.3706888097953585e-13  1.4999867613459517e-01 1.4000270409964916e-12 1.2887470120060787e-13  1.5000096017921827e-01 4.3432393381435856e-13 5.0592699971921321e-13  1.4999987245624682e-01 2.5754230152931121e-16 2.1202947610256065e-13  1.4999968826332147e-01 4.6354460121496549e-14 1.4349946990684180e-15  1.5000015675250886e-01 2.7621754817676971e-15 2.3892351175543856e-14  1.5000023426727749e-01 1.5272926046720730e-13 3.1162339221956254e-15  1.4999953954715764e-01 2.4266422134463749e-13 2.1380077344902927e-14  1.5000040969319703e-01 1.2566318782836656e-13 6.8304950137936711e-14  1.4999977731464706e-01 2.5656228941698871e-14 5.7132907174643763e-14  1.5000008109832030e-01 4.3465147225022088e-15 2.1183382798325820e-14  1.4999994067988651e-01 9.2166279582413959e-15 4.6382140417781084e-15  1.5000011964523252e-01 3.2207806565802943e-14 2.2430813362555549e-15  1.4999981240923504e-01 5.7231294305013706e-14 5.1206449323994958e-15  1.5000021724160462e-01 6.0796594169278012e-14 1.1473892519013208e-14  1.4999979283332920e-01 4.7871995769547517e-14 1.6551815786727069e-14  1.5000018064726733e-01 3.5265593651390939e-14 1.6983901710895752e-14  1.4999984061868935e-01 2.9881920345948408e-14 1.4402997537524574e-14  1.5000015183125565e-01 3.0297432286988244e-14 1.1945661052364121e-14  1.4999984786204879e-01 3.1960326280415397e-14 1.0761756644247876e-14  1.5000015330027447e-01 3.0874747572523270e-14 1.1039007776798247e-14  1.4999985713994074e-01 2.4633171400235540e-14 1.0946934570727430e-14  1.5000013049855257e-01 1.6815956614192577e-14 1.1200204222268105e-14  1.4999990623418258e-01 7.4064052148915202e-15 7.6825247806112914e-15  1.5000009271884304e-01 4.9316747544394755e-15 8.0500046692739121e-15  1.4999998960463035e-01 7.0710345833649140e-16 7.0710346136048427e-16  1.5000007892904962e-01 0.0000000000000000e+00 4.6724533091972163e-15  1.5001603356347348e-01 0.0000000000000000e+00 3.1674840934123804e-13  1.4999400066342214e-01 7.5322350144433313e-11 7.6018806151593729e-11  1.5001830739105193e-01 2.1822953496985583e-11 2.1822953497549672e-11  1.5000632808331735e-01 3.5768277392854453e-10 4.3703981770979000e-10  1.5003659634414385e-01 4.0225373613231024e-14 4.5918890389779432e-10  1.5003210975910911e-01 1.0035149229165968e-09 2.2378938117381954e-09  1.5007337392432313e-01 1.4141407400843842e-10 2.8819739628517903e-09  1.5007561286416798e-01 2.0196397260170159e-09 7.5059142300498259e-09  1.5012026045774432e-01 4.2679317089550841e-10 8.2981640765090271e-09  1.5011694351474500e-01 1.9234238792733577e-09 1.3399460189853339e-08  1.5014444487356596e-01 6.1337074380550589e-11 1.0369330076022753e-08  1.5011850985917757e-01 1.9949542719867572e-10 1.0602755141459004e-08  1.5011789489267327e-01 7.2401648868490548e-10 4.8681982838922719e-09  1.5007897065502149e-01 5.6005739970162771e-10 3.8233139996036305e-09  1.5007387144638948e-01 2.1811910430506860e-09 1.4615194427944015e-09  1.5005068282863557e-01 7.7473606627957407e-10 2.0071402646259969e-09  1.5005765148222938e-01 8.9913454182308274e-10 1.3705316427756565e-09  1.5004375469104425e-01 1.3983836919176411e-10 1.5337633264973383e-09  1.5003559722309656e-01 2.5855845016791183e-10 2.3868789362766607e-10  1.5000681480870920e-01 1.2080109883383615e-10 1.1175935995119470e-11  1.4998930401931299e-01 3.0147721151514720e-10 6.3321613214832778e-10  1.4997217593984999e-01 9.3867298887656290e-11 6.9071097622955682e-10  1.4997516914178885e-01 1.2009933018719323e-11 3.6084361999003011e-10  1.4998678859775202e-01 6.3087614077626872e-11 1.4244433299168823e-13  1.5000264974574087e-01 2.6646284295671700e-10 8.7627340843104022e-11  1.5000741958033534e-01 4.3989818664625478e-10 6.4983260639436734e-11  1.5000324168084983e-01 3.5677218208328794e-11 5.8488239490953221e-11  1.4998494853514330e-01 1.9342356394231457e-10 8.4272085705682517e-10  1.4996898160276309e-01 2.0349841833885640e-10 1.4792675887686722e-09  1.4998108699905818e-01 4.2302403650984689e-12 2.8403292206550285e-10  1.5001034522555817e-01 1.3237155495688800e-10 1.6553003472285238e-10  1.5001925889763815e-01 1.7938329604042460e-10 3.4880780163963062e-10  1.5001493477704098e-01 7.1501702781226360e-11 1.1156711273753319e-10  1.5001356846679856e-01 1.0401423470620026e-10 1.1138321117337733e-11  1.4999719645706522e-01 5.2850416856760447e-10 1.5811903177846759e-10  1.4998367083993289e-01 5.3362174196256302e-11 1.7580639233098259e-10  1.5001199017460876e-01 1.7143701505594173e-10 4.8714938609804160e-10  1.5003353705150932e-01 1.0341665839493316e-10 1.0506084917197063e-09  1.4999872278255288e-01 2.5756540357971295e-11 1.6827745824937180e-10  1.4997301094326210e-01 2.3056560585552274e-10 9.9490354391078151e-10  1.4999885234000035e-01 8.4071448316010028e-11 5.2666444977425886e-11  1.5001697323091193e-01 1.9833102362039774e-10 6.0505936060539655e-10  1.5000614419684372e-01 3.2541520895773373e-10 1.4569961158574947e-14  1.4999575523463982e-01 1.9598275425217726e-10 1.9730080071929719e-10  1.4998821712395227e-01 4.7990068560876566e-10 4.1609299405519603e-11  1.4999712549490757e-01 2.2494073835219903e-10 5.8325897999401151e-11  1.5001885768656445e-01 4.1465654648919446e-10 1.4900609759128923e-10  1.5000250712179300e-01 2.8107273852676816e-10 4.2754149570941331e-11  1.4997704029119185e-01 2.2445901390552212e-10 1.9068343256569411e-10  1.5000462945970716e-01 3.0939119478197680e-10 9.8578762849273941e-11  1.5002090036084501e-01 5.6987888350343622e-11 1.0268458866250202e-10  1.4998693908475266e-01 2.6527311352482117e-10 1.6217933273652870e-10  1.4998823708819753e-01 1.3820387667396460e-14 3.0695725379841725e-12  1.5001717313481064e-01 1.5595425090377343e-10 1.2914830580144499e-10  1.4999963996549637e-01 2.9848903670902012e-11 4.2565516976195627e-11  1.4998630052872372e-01 4.7615510137400159e-11 2.1510136667871908e-11  1.5000961411998148e-01 6.3082144315624657e-11 1.0210959099819114e-10  1.5000461098831275e-01 9.4775521343020020e-13 1.6274889480680778e-11  1.4998831536516652e-01 5.0077214725235841e-11 4.9986332499083839e-11  1.5000465359568016e-01 1.2852932843617841e-11 9.0814617263377180e-11  1.5000675979824238e-01 1.3452992513944664e-11 5.8302204668903941e-15  1.4999111940888352e-01 2.7826752521440236e-11 7.9283421230488954e-11  1.5000052874449532e-01 2.4811235079624618e-14 3.8645292298854636e-11  1.5000710895211358e-01 1.9579394287973225e-11 1.2312846510709133e-11  1.4999445098263417e-01 9.8970249071498352e-12 5.8534455845778098e-11  1.4999842269750344e-01 1.6846980299800695e-12 6.0269175900022696e-12  1.5000520398820449e-01 9.3178947599578275e-12 1.8214058626224163e-11  1.4999774393281343e-01 4.5434674197946308e-13 2.2982445198894674e-11  1.4999748186127654e-01 5.2090179014615312e-12 8.8120329541496821e-15  1.5000378200890199e-01 6.4570949095484612e-12 1.2956094915880030e-11  1.4999865275685453e-01 3.7585648707739211e-13 8.3483822957123486e-12  1.4999876579508312e-01 7.1777587719348269e-13 3.3108858917312774e-14  1.5000141689845164e-01 2.1059781671344168e-13 3.6859456050062396e-12  1.5000020889939775e-01 7.7259500621958446e-13 1.2371361886952697e-12  1.4999842545966852e-01 2.6259750149315819e-12 4.7302889495962474e-13  1.5000157909330211e-01 1.6515152961558085e-12 2.4854528287279367e-12  1.4999927950511097e-01 2.9323329339448605e-13 1.2756013802790737e-12  1.5000004437822312e-01 3.3544593897045878e-14 4.4393193784270353e-14  1.4999996868509471e-01 1.3851368499686215e-13 6.6220034668359740e-14  1.5000042290722768e-01 5.4163459559986747e-13 5.9380741171752689e-15  1.4999926132977312e-01 7.9572731467768882e-13 1.2887811227667827e-13  1.5000075384816386e-01 5.9623126916291439e-13 3.8120036076350469e-13  1.4999943412