<?xml version="1.0"?>
<VTKFile type="UnstructuredGrid"  version="0.1"  >
<UnstructuredGrid>
<Piece  NumberOfPoints="10201" NumberOfCells="20000">
<Points>
<DataArray  type="Float64"  NumberOfComponents="3"  format="ascii">-5 -5 0  -4.9 -5 0  -4.8 -5 0  -4.7 -5 0  -4.6 -5 0  -4.5 -5 0  -4.4 -5 0  -4.3 -5 0  -4.2 -5 0  -4.1 -5 0  -4 -5 0  -3.9 -5 0  -3.8 -5 0  -3.7 -5 0  -3.6 -5 0  -3.5 -5 0  -3.4 -5 0  -3.3 -5 0  -3.2 -5 0  -3.1 -5 0  -3 -5 0  -2.9 -5 0  -2.8 -5 0  -2.7 -5 0  -2.6 -5 0  -2.5 -5 0  -2.4 -5 0  -2.3 -5 0  -2.2 -5 0  -2.1 -5 0  -2 -5 0  -1.9 -5 0  -1.8 -5 0  -1.7 -5 0  -1.6 -5 0  -1.5 -5 0  -1.4 -5 0  -1.3 -5 0  -1.2 -5 0  -1.1 -5 0  -1 -5 0  -0.9000000000000004 -5 0  -0.7999999999999998 -5 0  -0.7000000000000002 -5 0  -0.5999999999999996 -5 0  -0.5 -5 0  -0.4000000000000004 -5 0  -0.2999999999999998 -5 0  -0.2000000000000002 -5 0  -0.09999999999999964 -5 0  0 -5 0  0.09999999999999964 -5 0  0.2000000000000002 -5 0  0.2999999999999998 -5 0  0.4000000000000004 -5 0  0.5 -5 0  0.5999999999999996 -5 0  0.7000000000000002 -5 0  0.7999999999999998 -5 0  0.9000000000000004 -5 0  1 -5 0  1.1 -5 0  1.2 -5 0  1.3 -5 0  1.4 -5 0  1.5 -5 0  1.6 -5 0  1.7 -5 0  1.8 -5 0  1.9 -5 0  2 -5 0  2.1 -5 0  2.2 -5 0  2.3 -5 0  2.4 -5 0  2.5 -5 0  2.6 -5 0  2.7 -5 0  2.8 -5 0  2.9 -5 0  3 -5 0  3.1 -5 0  3.199999999999999 -5 0  3.300000000000001 -5 0  3.4 -5 0  3.5 -5 0  3.6 -5 0  3.699999999999999 -5 0  3.800000000000001 -5 0  3.9 -5 0  4 -5 0  4.1 -5 0  4.199999999999999 -5 0  4.300000000000001 -5 0  4.4 -5 0  4.5 -5 0  4.6 -5 0  4.699999999999999 -5 0  4.800000000000001 -5 0  4.9 -5 0  5 -5 0  -5 -4.9 0  -4.9 -4.9 0  -4.8 -4.9 0  -4.7 -4.9 0  -4.6 -4.9 0  -4.5 -4.9 0  -4.4 -4.9 0  -4.3 -4.9 0  -4.2 -4.9 0  -4.1 -4.9 0  -4 -4.9 0  -3.9 -4.9 0  -3.8 -4.9 0  -3.7 -4.9 0  -3.6 -4.9 0  -3.5 -4.9 0  -3.4 -4.9 0  -3.3 -4.9 0  -3.2 -4.9 0  -3.1 -4.9 0  -3 -4.9 0  -2.9 -4.9 0  -2.8 -4.9 0  -2.7 -4.9 0  -2.6 -4.9 0  -2.5 -4.9 0  -2.4 -4.9 0  -2.3 -4.9 0  -2.2 -4.9 0  -2.1 -4.9 0  -2 -4.9 0  -1.9 -4.9 0  -1.8 -4.9 0  -1.7 -4.9 0  -1.6 -4.9 0  -1.5 -4.9 0  -1.4 -4.9 0  -1.3 -4.9 0  -1.2 -4.9 0  -1.1 -4.9 0  -1 -4.9 0  -0.9000000000000004 -4.9 0  -0.7999999999999998 -4.9 0  -0.7000000000000002 -4.9 0  -0.5999999999999996 -4.9 0  -0.5 -4.9 0  -0.4000000000000004 -4.9 0  -0.2999999999999998 -4.9 0  -0.2000000000000002 -4.9 0  -0.09999999999999964 -4.9 0  0 -4.9 0  0.09999999999999964 -4.9 0  0.2000000000000002 -4.9 0  0.2999999999999998 -4.9 0  0.4000000000000004 -4.9 0  0.5 -4.9 0  0.5999999999999996 -4.9 0  0.7000000000000002 -4.9 0  0.7999999999999998 -4.9 0  0.9000000000000004 -4.9 0  1 -4.9 0  1.1 -4.9 0  1.2 -4.9 0  1.3 -4.9 0  1.4 -4.9 0  1.5 -4.9 0  1.6 -4.9 0  1.7 -4.9 0  1.8 -4.9 0  1.9 -4.9 0  2 -4.9 0  2.1 -4.9 0  2.2 -4.9 0  2.3 -4.9 0  2.4 -4.9 0  2.5 -4.9 0  2.6 -4.9 0  2.7 -4.9 0  2.8 -4.9 0  2.9 -4.9 0  3 -4.9 0  3.1 -4.9 0  3.199999999999999 -4.9 0  3.300000000000001 -4.9 0  3.4 -4.9 0  3.5 -4.9 0  3.6 -4.9 0  3.699999999999999 -4.9 0  3.800000000000001 -4.9 0  3.9 -4.9 0  4 -4.9 0  4.1 -4.9 0  4.199999999999999 -4.9 0  4.300000000000001 -4.9 0  4.4 -4.9 0  4.5 -4.9 0  4.6 -4.9 0  4.699999999999999 -4.9 0  4.800000000000001 -4.9 0  4.9 -4.9 0  5 -4.9 0  -5 -4.8 0  -4.9 -4.8 0  -4.8 -4.8 0  -4.7 -4.8 0  -4.6 -4.8 0  -4.5 -4.8 0  -4.4 -4.8 0  -4.3 -4.8 0  -4.2 -4.8 0  -4.1 -4.8 0  -4 -4.8 0  -3.9 -4.8 0  -3.8 -4.8 0  -3.7 -4.8 0  -3.6 -4.8 0  -3.5 -4.8 0  -3.4 -4.8 0  -3.3 -4.8 0  -3.2 -4.8 0  -3.1 -4.8 0  -3 -4.8 0  -2.9 -4.8 0  -2.8 -4.8 0  -2.7 -4.8 0  -2.6 -4.8 0  -2.5 -4.8 0  -2.4 -4.8 0  -2.3 -4.8 0  -2.2 -4.8 0  -2.1 -4.8 0  -2 -4.8 0  -1.9 -4.8 0  -1.8 -4.8 0  -1.7 -4.8 0  -1.6 -4.8 0  -1.5 -4.8 0  -1.4 -4.8 0  -1.3 -4.8 0  -1.2 -4.8 0  -1.1 -4.8 0  -1 -4.8 0  -0.9000000000000004 -4.8 0  -0.7999999999999998 -4.8 0  -0.7000000000000002 -4.8 0  -0.5999999999999996 -4.8 0  -0.5 -4.8 0  -0.4000000000000004 -4.8 0  -0.2999999999999998 -4.8 0  -0.2000000000000002 -4.8 0  -0.09999999999999964 -4.8 0  0 -4.8 0  0.09999999999999964 -4.8 0  0.2000000000000002 -4.8 0  0.2999999999999998 -4.8 0  0.4000000000000004 -4.8 0  0.5 -4.8 0  0.5999999999999996 -4.8 0  0.7000000000000002 -4.8 0  0.7999999999999998 -4.8 0  0.9000000000000004 -4.8 0  1 -4.8 0  1.1 -4.8 0  1.2 -4.8 0  1.3 -4.8 0  1.4 -4.8 0  1.5 -4.8 0  1.6 -4.8 0  1.7 -4.8 0  1.8 -4.8 0  1.9 -4.8 0  2 -4.8 0  2.1 -4.8 0  2.2 -4.8 0  2.3 -4.8 0  2.4 -4.8 0  2.5 -4.8 0  2.6 -4.8 0  2.7 -4.8 0  2.8 -4.8 0  2.9 -4.8 0  3 -4.8 0  3.1 -4.8 0  3.199999999999999 -4.8 0  3.300000000000001 -4.8 0  3.4 -4.8 0  3.5 -4.8 0  3.6 -4.8 0  3.699999999999999 -4.8 0  3.800000000000001 -4.8 0  3.9 -4.8 0  4 -4.8 0  4.1 -4.8 0  4.199999999999999 -4.8 0  4.300000000000001 -4.8 0  4.4 -4.8 0  4.5 -4.8 0  4.6 -4.8 0  4.699999999999999 -4.8 0  4.800000000000001 -4.8 0  4.9 -4.8 0  5 -4.8 0  -5 -4.7 0  -4.9 -4.7 0  -4.8 -4.7 0  -4.7 -4.7 0  -4.6 -4.7 0  -4.5 -4.7 0  -4.4 -4.7 0  -4.3 -4.7 0  -4.2 -4.7 0  -4.1 -4.7 0  -4 -4.7 0  -3.9 -4.7 0  -3.8 -4.7 0  -3.7 -4.7 0  -3.6 -4.7 0  -3.5 -4.7 0  -3.4 -4.7 0  -3.3 -4.7 0  -3.2 -4.7 0  -3.1 -4.7 0  -3 -4.7 0  -2.9 -4.7 0  -2.8 -4.7 0  -2.7 -4.7 0  -2.6 -4.7 0  -2.5 -4.7 0  -2.4 -4.7 0  -2.3 -4.7 0  -2.2 -4.7 0  -2.1 -4.7 0  -2 -4.7 0  -1.9 -4.7 0  -1.8 -4.7 0  -1.7 -4.7 0  -1.6 -4.7 0  -1.5 -4.7 0  -1.4 -4.7 0  -1.3 -4.7 0  -1.2 -4.7 0  -1.1 -4.7 0  -1 -4.7 0  -0.9000000000000004 -4.7 0  -0.7999999999999998 -4.7 0  -0.7000000000000002 -4.7 0  -0.5999999999999996 -4.7 0  -0.5 -4.7 0  -0.4000000000000004 -4.7 0  -0.2999999999999998 -4.7 0  -0.2000000000000002 -4.7 0  -0.09999999999999964 -4.7 0  0 -4.7 0  0.09999999999999964 -4.7 0  0.2000000000000002 -4.7 0  0.2999999999999998 -4.7 0  0.4000000000000004 -4.7 0  0.5 -4.7 0  0.5999999999999996 -4.7 0  0.7000000000000002 -4.7 0  0.7999999999999998 -4.7 0  0.9000000000000004 -4.7 0  1 -4.7 0  1.1 -4.7 0  1.2 -4.7 0  1.3 -4.7 0  1.4 -4.7 0  1.5 -4.7 0  1.6 -4.7 0  1.7 -4.7 0  1.8 -4.7 0  1.9 -4.7 0  2 -4.7 0  2.1 -4.7 0  2.2 -4.7 0  2.3 -4.7 0  2.4 -4.7 0  2.5 -4.7 0  2.6 -4.7 0  2.7 -4.7 0  2.8 -4.7 0  2.9 -4.7 0  3 -4.7 0  3.1 -4.7 0  3.199999999999999 -4.7 0  3.300000000000001 -4.7 0  3.4 -4.7 0  3.5 -4.7 0  3.6 -4.7 0  3.699999999999999 -4.7 0  3.800000000000001 -4.7 0  3.9 -4.7 0  4 -4.7 0  4.1 -4.7 0  4.199999999999999 -4.7 0  4.300000000000001 -4.7 0  4.4 -4.7 0  4.5 -4.7 0  4.6 -4.7 0  4.699999999999999 -4.7 0  4.800000000000001 -4.7 0  4.9 -4.7 0  5 -4.7 0  -5 -4.6 0  -4.9 -4.6 0  -4.8 -4.6 0  -4.7 -4.6 0  -4.6 -4.6 0  -4.5 -4.6 0  -4.4 -4.6 0  -4.3 -4.6 0  -4.2 -4.6 0  -4.1 -4.6 0  -4 -4.6 0  -3.9 -4.6 0  -3.8 -4.6 0  -3.7 -4.6 0  -3.6 -4.6 0  -3.5 -4.6 0  -3.4 -4.6 0  -3.3 -4.6 0  -3.2 -4.6 0  -3.1 -4.6 0  -3 -4.6 0  -2.9 -4.6 0  -2.8 -4.6 0  -2.7 -4.6 0  -2.6 -4.6 0  -2.5 -4.6 0  -2.4 -4.6 0  -2.3 -4.6 0  -2.2 -4.6 0  -2.1 -4.6 0  -2 -4.6 0  -1.9 -4.6 0  -1.8 -4.6 0  -1.7 -4.6 0  -1.6 -4.6 0  -1.5 -4.6 0  -1.4 -4.6 0  -1.3 -4.6 0  -1.2 -4.6 0  -1.1 -4.6 0  -1 -4.6 0  -0.9000000000000004 -4.6 0  -0.7999999999999998 -4.6 0  -0.7000000000000002 -4.6 0  -0.5999999999999996 -4.6 0  -0.5 -4.6 0  -0.4000000000000004 -4.6 0  -0.2999999999999998 -4.6 0  -0.2000000000000002 -4.6 0  -0.09999999999999964 -4.6 0  0 -4.6 0  0.09999999999999964 -4.6 0  0.2000000000000002 -4.6 0  0.2999999999999998 -4.6 0  0.4000000000000004 -4.6 0  0.5 -4.6 0  0.5999999999999996 -4.6 0  0.7000000000000002 -4.6 0  0.7999999999999998 -4.6 0  0.9000000000000004 -4.6 0  1 -4.6 0  1.1 -4.6 0  1.2 -4.6 0  1.3 -4.6 0  1.4 -4.6 0  1.5 -4.6 0  1.6 -4.6 0  1.7 -4.6 0  1.8 -4.6 0  1.9 -4.6 0  2 -4.6 0  2.1 -4.6 0  2.2 -4.6 0  2.3 -4.6 0  2.4 -4.6 0  2.5 -4.6 0  2.6 -4.6 0  2.7 -4.6 0  2.8 -4.6 0  2.9 -4.6 0  3 -4.6 0  3.1 -4.6 0  3.199999999999999 -4.6 0  3.300000000000001 -4.6 0  3.4 -4.6 0  3.5 -4.6 0  3.6 -4.6 0  3.699999999999999 -4.6 0  3.800000000000001 -4.6 0  3.9 -4.6 0  4 -4.6 0  4.1 -4.6 0  4.199999999999999 -4.6 0  4.300000000000001 -4.6 0  4.4 -4.6 0  4.5 -4.6 0  4.6 -4.6 0  4.699999999999999 -4.6 0  4.800000000000001 -4.6 0  4.9 -4.6 0  5 -4.6 0  -5 -4.5 0  -4.9 -4.5 0  -4.8 -4.5 0  -4.7 -4.5 0  -4.6 -4.5 0  -4.5 -4.5 0  -4.4 -4.5 0  -4.3 -4.5 0  -4.2 -4.5 0  -4.1 -4.5 0  -4 -4.5 0  -3.9 -4.5 0  -3.8 -4.5 0  -3.7 -4.5 0  -3.6 -4.5 0  -3.5 -4.5 0  -3.4 -4.5 0  -3.3 -4.5 0  -3.2 -4.5 0  -3.1 -4.5 0  -3 -4.5 0  -2.9 -4.5 0  -2.8 -4.5 0  -2.7 -4.5 0  -2.6 -4.5 0  -2.5 -4.5 0  -2.4 -4.5 0  -2.3 -4.5 0  -2.2 -4.5 0  -2.1 -4.5 0  -2 -4.5 0  -1.9 -4.5 0  -1.8 -4.5 0  -1.7 -4.5 0  -1.6 -4.5 0  -1.5 -4.5 0  -1.4 -4.5 0  -1.3 -4.5 0  -1.2 -4.5 0  -1.1 -4.5 0  -1 -4.5 0  -0.9000000000000004 -4.5 0  -0.7999999999999998 -4.5 0  -0.7000000000000002 -4.5 0  -0.5999999999999996 -4.5 0  -0.5 -4.5 0  -0.4000000000000004 -4.5 0  -0.2999999999999998 -4.5 0  -0.2000000000000002 -4.5 0  -0.09999999999999964 -4.5 0  0 -4.5 0  0.09999999999999964 -4.5 0  0.2000000000000002 -4.5 0  0.2999999999999998 -4.5 0  0.4000000000000004 -4.5 0  0.5 -4.5 0  0.5999999999999996 -4.5 0  0.7000000000000002 -4.5 0  0.7999999999999998 -4.5 0  0.9000000000000004 -4.5 0  1 -4.5 0  1.1 -4.5 0  1.2 -4.5 0  1.3 -4.5 0  1.4 -4.5 0  1.5 -4.5 0  1.6 -4.5 0  1.7 -4.5 0  1.8 -4.5 0  1.9 -4.5 0  2 -4.5 0  2.1 -4.5 0  2.2 -4.5 0  2.3 -4.5 0  2.4 -4.5 0  2.5 -4.5 0  2.6 -4.5 0  2.7 -4.5 0  2.8 -4.5 0  2.9 -4.5 0  3 -4.5 0  3.1 -4.5 0  3.199999999999999 -4.5 0  3.300000000000001 -4.5 0  3.4 -4.5 0  3.5 -4.5 0  3.6 -4.5 0  3.699999999999999 -4.5 0  3.800000000000001 -4.5 0  3.9 -4.5 0  4 -4.5 0  4.1 -4.5 0  4.199999999999999 -4.5 0  4.300000000000001 -4.5 0  4.4 -4.5 0  4.5 -4.5 0  4.6 -4.5 0  4.699999999999999 -4.5 0  4.800000000000001 -4.5 0  4.9 -4.5 0  5 -4.5 0  -5 -4.4 0  -4.9 -4.4 0  -4.8 -4.4 0  -4.7 -4.4 0  -4.6 -4.4 0  -4.5 -4.4 0  -4.4 -4.4 0  -4.3 -4.4 0  -4.2 -4.4 0  -4.1 -4.4 0  -4 -4.4 0  -3.9 -4.4 0  -3.8 -4.4 0  -3.7 -4.4 0  -3.6 -4.4 0  -3.5 -4.4 0  -3.4 -4.4 0  -3.3 -4.4 0  -3.2 -4.4 0  -3.1 -4.4 0  -3 -4.4 0  -2.9 -4.4 0  -2.8 -4.4 0  -2.7 -4.4 0  -2.6 -4.4 0  -2.5 -4.4 0  -2.4 -4.4 0  -2.3 -4.4 0  -2.2 -4.4 0  -2.1 -4.4 0  -2 -4.4 0  -1.9 -4.4 0  -1.8 -4.
[...]
<PointData  Vectors="f_17"> 
<DataArray  type="Float64"  Name="f_17"  NumberOfComponents="3" format="ascii">1.5002772500926240e-01 0.0000000000000000e+00 0.0000000000000000e+00  1.5000041563664607e-01 -5.1404927673304762e-05 0.0000000000000000e+00  1.5003847662947079e-01 4.3586808252189272e-06 0.0000000000000000e+00  1.5002404976736478e-01 -7.9596652845620122e-05 0.0000000000000000e+00  1.5006121547299806e-01 -6.4378096942639679e-06 0.0000000000000000e+00  1.5004798772720068e-01 -8.3263924067280938e-05 0.0000000000000000e+00  1.5007550589470653e-01 1.5059438746509583e-05 0.0000000000000000e+00  1.5004813352287671e-01 -2.4842091256166645e-05 0.0000000000000000e+00  1.5005214238746578e-01 9.8201488569891402e-05 0.0000000000000000e+00  1.5000946295912779e-01 8.6193839625400828e-05 0.0000000000000000e+00  1.5000342922710733e-01 1.7598716535219383e-04 0.0000000000000000e+00  1.4997929061060650e-01 1.1548381755875787e-04 0.0000000000000000e+00  1.5000642323868082e-01 1.0695245614310072e-04 0.0000000000000000e+00  1.5002680081123865e-01 -1.0712792065679019e-05 0.0000000000000000e+00  1.5006861233434921e-01 -4.7594194192296885e-05 0.0000000000000000e+00  1.5007515805909638e-01 -8.3348878260078137e-05 0.0000000000000000e+00  1.5006190600830774e-01 -1.7787052405371344e-05 0.0000000000000000e+00  1.5000968583504623e-01 2.7319278265931084e-05 0.0000000000000000e+00  1.4996674631750387e-01 7.5003050336738927e-05 0.0000000000000000e+00  1.4993664679688867e-01 6.0670476489143972e-05 0.0000000000000000e+00  1.4992553809065595e-01 3.0631555343829515e-05 0.0000000000000000e+00  1.4991846338136355e-01 -5.0624193745065632e-06 0.0000000000000000e+00  1.4991852677466072e-01 -1.3728827597599343e-05 0.0000000000000000e+00  1.4991310501130706e-01 -3.4412172555550098e-05 0.0000000000000000e+00  1.4990952396946122e-01 -4.4863756668861724e-05 0.0000000000000000e+00  1.4991413752724445e-01 -2.2736287329922232e-05 0.0000000000000000e+00  1.4992595633684169e-01 -2.1907896890599589e-05 0.0000000000000000e+00  1.4995234568897700e-01 -9.2917907663146851e-05 0.0000000000000000e+00  1.4999348676744051e-01 -1.1973745667064940e-04 0.0000000000000000e+00  1.5000118659140610e-01 -2.3639628326071865e-05 0.0000000000000000e+00  1.4997200332953103e-01 4.6548594261340104e-05 0.0000000000000000e+00  1.4998633216308691e-01 -2.3169018236183273e-05 0.0000000000000000e+00  1.5003790326131028e-01 -7.8559391446232922e-05 0.0000000000000000e+00  1.5001910145962277e-01 5.8862574219608965e-06 0.0000000000000000e+00  1.4995852375898400e-01 8.6301198686140104e-05 0.0000000000000000e+00  1.4997987471002891e-01 2.1914676424412129e-05 0.0000000000000000e+00  1.5003930564421081e-01 -7.8941914130919793e-05 0.0000000000000000e+00  1.5002380305087207e-01 -5.4171450172678499e-05 0.0000000000000000e+00  1.4997980235246289e-01 5.9623785725543441e-05 0.0000000000000000e+00  1.4998176089965534e-01 8.8109939235224148e-05 0.0000000000000000e+00  1.4999769433859547e-01 -2.2759830242974956e-05 0.0000000000000000e+00  1.5001132196975134e-01 -1.0287906609096103e-04 0.0000000000000000e+00  1.5002585648211711e-01 -1.1066514280016561e-05 0.0000000000000000e+00  1.4999563480269237e-01 1.0358107158614006e-04 0.0000000000000000e+00  1.4995655550036416e-01 3.5154038413238650e-05 0.0000000000000000e+00  1.5000409402795958e-01 -9.6296308989919521e-05 0.0000000000000000e+00  1.5005568100257136e-01 -4.6715482893361768e-05 0.0000000000000000e+00  1.4998930076171621e-01 8.9796255227422996e-05 0.0000000000000000e+00  1.4993894078432426e-01 4.9405046934176962e-05 0.0000000000000000e+00  1.5002306023141437e-01 -8.6715695730160222e-05 0.0000000000000000e+00  1.5005810805495362e-01 -4.4078929637867053e-05 0.0000000000000000e+00  1.4996249787009724e-01 8.6777921698356146e-05 0.0000000000000000e+00  1.4995443926121602e-01 3.0440799671520042e-05 0.0000000000000000e+00  1.5004901055974254e-01 -8.6391470956781325e-05 0.0000000000000000e+00  1.5002504949510037e-01 -9.1255786623556490e-06 0.0000000000000000e+00  1.4994790541297484e-01 8.0200868693684827e-05 0.0000000000000000e+00  1.4999848978860916e-01 -1.5802315016353130e-05 0.0000000000000000e+00  1.5004392466399910e-01 -6.3800616647097418e-05 0.0000000000000000e+00  1.4998224571639410e-01 3.6763032538895630e-05 0.0000000000000000e+00  1.4997342380695675e-01 3.7685968326268848e-05 0.0000000000000000e+00  1.5002645835125616e-01 -4.5706586664779642e-05 0.0000000000000000e+00  1.5000673630738551e-01 -8.6743028644920833e-06 0.0000000000000000e+00  1.4997678956176871e-01 3.9684402938139494e-05 0.0000000000000000e+00  1.5000801390176838e-01 -1.4286213175127168e-05 0.0000000000000000e+00  1.5001189600109788e-01 -2.1329103377545546e-05 0.0000000000000000e+00  1.4998734820817622e-01 2.2111486747874315e-05 0.0000000000000000e+00  1.4999939933334244e-01 2.9123096764989799e-06 0.0000000000000000e+00  1.5000933506336547e-01 -1.8443540098373461e-05 0.0000000000000000e+00  1.4999391595720402e-01 1.0871007221616534e-05 0.0000000000000000e+00  1.4999818143529017e-01 4.4372964634466941e-06 0.0000000000000000e+00  1.5000502963795478e-01 -9.2708654666373664e-06 0.0000000000000000e+00  1.4999792974900561e-01 2.0810326394115225e-06 0.0000000000000000e+00  1.4999777279473170e-01 6.4597226692659786e-06 0.0000000000000000e+00  1.5000357372960782e-01 -8.0976599365655494e-06 0.0000000000000000e+00  1.4999813798409931e-01 3.7772392997319698e-06 0.0000000000000000e+00  1.4999965398291129e-01 6.0240093503331894e-07 0.0000000000000000e+00  1.5000101785005687e-01 -1.1841024794132291e-06 0.0000000000000000e+00  1.4999987674035442e-01 -1.3268359557357775e-06 0.0000000000000000e+00  1.4999889162223545e-01 3.9395439512000972e-06 0.0000000000000000e+00  1.5000163164105892e-01 -4.6342186382839149e-06 0.0000000000000000e+00  1.4999868124588003e-01 3.6040828520440897e-06 0.0000000000000000e+00  1.5000071791129599e-01 -2.3230013615321406e-06 0.0000000000000000e+00  1.4999959315026545e-01 1.9987649941341320e-06 0.0000000000000000e+00  1.5000056814587842e-01 -2.7848862513398118e-06 0.0000000000000000e+00  1.4999900008305875e-01 4.0266424626994135e-06 0.0000000000000000e+00  1.5000138752414507e-01 -4.9800072419038325e-06 0.0000000000000000e+00  1.4999844785591537e-01 5.3346981527414215e-06 0.0000000000000000e+00  1.5000151781268045e-01 -5.2585656319294572e-06 0.0000000000000000e+00  1.4999857973293643e-01 5.1082174370759747e-06 0.0000000000000000e+00  1.5000137523440701e-01 -5.1134749345466193e-06 0.0000000000000000e+00  1.4999859126443246e-01 5.2575842064328694e-06 0.0000000000000000e+00  1.5000146373308756e-01 -5.3461837676498799e-06 0.0000000000000000e+00  1.4999852667404392e-01 5.2013652478003315e-06 0.0000000000000000e+00  1.5000137378377768e-01 -4.7136138143634783e-06 0.0000000000000000e+00  1.4999878469136083e-01 4.0139648976217790e-06 0.0000000000000000e+00  1.5000094467398731e-01 -3.1109482455668520e-06 0.0000000000000000e+00  1.4999920908494280e-01 2.3632190708604987e-06 0.0000000000000000e+00  1.5000047750909959e-01 -1.5355063520814343e-06 0.0000000000000000e+00  1.4999947892706186e-01 1.0498112946373611e-06 0.0000000000000000e+00  1.5000020247154508e-01 -4.7675907380320361e-07 0.0000000000000000e+00  1.4999949154842343e-01 0.0000000000000000e+00 0.0000000000000000e+00  1.5000041563664598e-01 0.0000000000000000e+00 -5.1404927673202278e-05  1.4997795576140671e-01 4.1536345439873084e-06 4.1536345444875753e-06  1.4998656086176798e-01 4.7930060575989493e-05 -4.6920884166648911e-05  1.4995928124892655e-01 1.3777460167137129e-05 -2.9751586639303667e-05  1.4996381271142986e-01 7.1492723365025078e-05 -7.1644104725721795e-05  1.4993446758572421e-01 2.1387965413429257e-05 -5.5364797661192490e-05  1.4994404549848972e-01 6.1142010486563825e-05 -8.8521817528624104e-05  1.4992697277410152e-01 -1.7773244972847916e-05 -5.3876416677660234e-05  1.4995491744929554e-01 -1.3473357290055965e-05 -6.8164205968703918e-05  1.4995869575276558e-01 -1.1189242641284100e-04 -1.9969662812850935e-05  1.4999662746671633e-01 -1.1186434995677718e-04 -3.7087020332644103e-05  1.4999881543739077e-01 -1.5781113582184571e-04 -1.6099094545153884e-05  1.5000798697570847e-01 -9.3614168634857463e-05 -7.0569733958150341e-05  1.4997466646409027e-01 -5.7890482882384269e-05 -8.6935295461780795e-05  1.4995420699100864e-01 3.5482670488680700e-05 -1.3066511287992803e-04  1.4992634105433850e-01 4.9287828644645628e-05 -9.9915669922778894e-05  1.4993702830558703e-01 4.1108258597032480e-05 -6.4672121041559175e-05  1.4996616480791491e-01 -2.2790996592892385e-05 1.4586064306134682e-05  1.5001627721104147e-01 -5.1811957961045121e-05 5.1537593594819590e-05  1.5004613857359209e-01 -6.8207662910897704e-05 6.7366769722354978e-05  1.5006728066108349e-01 -4.0607063955087807e-05 5.1629095598140701e-05  1.5007831184078579e-01 -1.2145391556780029e-05 5.9694010244245517e-05  1.5008569964529653e-01 6.0676702966351148e-06 7.1832321560014496e-05  1.5008781685469913e-01 1.5408010093482713e-05 8.8927514269823677e-05  1.5009344719565609e-01 4.2005625494666765e-05 9.1835014105168806e-05  1.5009033070314415e-01 4.2595645356260789e-05 8.4982646262832021e-05  1.5007970440925339e-01 2.4864079941046714e-05 6.5719491554573411e-05  1.5006321184215998e-01 5.8697123259650178e-05 3.6677573643597896e-05  1.5003006390532705e-01 1.1550037417880949e-04 -1.0715588290513148e-06  1.4999979650907214e-01 7.4213736195084755e-05 -4.8727616002211160e-06  1.5001274261393549e-01 -1.7198929843054876e-05 2.8415356125366594e-05  1.5002587888082605e-01 -8.4217859985981008e-06 1.5126738714543336e-05  1.4998570578455056e-01 5.6870593689359253e-05 -4.7235909536802804e-05  1.4996523010217991e-01 2.9536850812237954e-05 -2.6211261293626838e-05  1.5001696617661323e-01 -5.0883218695443652e-05 5.9437855396810141e-05  1.5003709082450808e-01 -4.7601278877681717e-05 3.5091582036316313e-05  1.4998248885611315e-01 2.9837088947375736e-05 -5.9145159262273613e-05  1.4996391862008188e-01 6.4337041009598960e-05 -3.9100332423124639e-05  1.5000550076366626e-01 1.5859553253325038e-06 3.8035811842025440e-05  1.5002024671095920e-01 -7.9052848331692127e-05 2.8290930858958035e-05  1.5000641914870400e-01 -4.3800351899662595e-05 -6.0780299875283611e-06  1.4999847247688430e-01 7.6111248832713186e-05 -9.3224099850098900e-06  1.4997959499096511e-01 7.3403334332803008e-05 -3.1392585784227433e-05  1.4998301021176191e-01 -6.6780272730023306e-05 -1.1023704194316050e-05  1.5003202631104010e-01 -8.7376604594987774e-05 6.4697084697316415e-05  1.5002672279619420e-01 5.6355262161128891e-05 1.7935506892226730e-05  1.4995593087767684e-01 8.6727971616152861e-05 -9.4344709895713384e-05  1.4997260599849507e-01 -5.0064219526887297e-05 -8.2758516345825108e-06  1.5005458500905905e-01 -7.8935632040027197e-05 1.1465973603712833e-04  1.5001882081634688e-01 4.6808476647794893e-05 -1.8044649303883892e-05  1.4993871635719080e-01 6.8095488575530122e-05 -1.2007975001107961e-04  1.4999665390827568e-01 -4.6169415686320480e-05 5.2966751569550919e-05  1.5006036894250438e-01 -5.5796079788880756e-05 1.0348782203627804e-04  1.4998453843132545e-01 4.7655512743376461e-05 -8.5792094294904019e-05  1.4994993441482907e-01 4.1619686146082493e-05 -6.6236763204377484e-05  1.5003149036680916e-01 -4.9828344443510753e-05 1.0237179545862395e-04  1.5003121069909203e-01 -2.4594138703519572e-05 1.7119535423385882e-05  1.4996104770953370e-01 4.9546557813643349e-05 -9.3974063799975806e-05  1.4999121417087560e-01 5.3587477184305432e-06 2.7654708940975034e-05  1.5003489822186153e-01 -4.2956958046220061e-05 6.2444118598020917e-05  1.4999028016506954e-01 1.2039900755900201e-05 -5.2308211674100463e-05  1.4997832089911536e-01 2.9585636486234342e-05 -2.0830514204803224e-05  1.5001866459167720e-01 -2.3300446637826499e-05 5.0465386530706645e-05  1.5000546923276220e-01 -1.0993953064045858e-05 -1.3146147132420037e-05  1.4998362819118757e-01 2.2830645629257711e-05 -2.8812519785696470e-05  1.5000570086368825e-01 -3.6529282256104478e-06 2.6910008597917420e-05  1.5000812070352634e-01 -1.5513910593364284e-05 3.4458002969598581e-06  1.4999059190868899e-01 1.3018117839648531e-05 -2.1270341206175891e-05  1.5000100143031261e-01 1.8225240762216164e-06 1.2268596522393478e-05  1.5000535905373663e-01 -9.2812133486169101e-06 5.7733666726934590e-06  1.4999587956283930e-01 3.8176726956340173e-06 -1.2239549628872845e-05  1.4999904483961984e-01 5.1045412174005804e-06 4.7943118761815559e-06  1.5000387355360775e-01 -7.7751757835686848e-06 5.0680557765013557e-06  1.4999721162324142e-01 3.7534313676936890e-06 -7.7102787456351171e-06  1.5000006949752898e-01 1.0561309323998012e-06 3.3092365586778253e-06  1.5000138062819848e-01 -2.0887967168353652e-06 1.9478024190764119e-06  1.4999921028096219e-01 -3.3684132070447006e-07 -3.3660955629769937e-06  1.4999933448053013e-01 3.0833648979388454e-06 1.0793517102161392e-06  1.5000154928715484e-01 -3.8449381502594292e-06 1.8505413152050878e-06  1.4999860821657182e-01 2.7234050052969006e-06 -2.9317781419170926e-06  1.5000069008848949e-01 -1.2917138443414012e-06 1.9565795530084351e-06  1.4999981907912688e-01 8.6730398211564560e-07 -3.3228590730740583e-07  1.5000021337124786e-01 -1.6099440647549564e-06 -5.3131710068154673e-07  1.4999936435284875e-01 2.7937464958093894e-06 2.3274734260200604e-07  1.5000107730879331e-01 -3.6150069608298339e-06 6.9983975067435844e-07  1.4999872059428379e-01 3.7683788214337329e-06 -1.5025954400990827e-06  1.5000122786638437e-01 -3.4770881825471310e-06 1.7734838008717548e-06  1.4999892660330968e-01 3.1537714804479234e-06 -1.6075885934481318e-06  1.5000097110566279e-01 -3.0513634779629546e-06 1.3550547267871416e-06  1.4999902500643605e-01 3.1398888316642526e-06 -1.3010609790057847e-06  1.5000103735233067e-01 -3.2144088603385909e-06 1.5032030457108828e-06  1.4999893036447584e-01 3.0758474421378845e-06 -1.8202184739348103e-06  1.5000101958704384e-01 -2.6755702610724652e-06 2.0699479428192934e-06  1.4999913062478659e-01 2.0701120963011885e-06 -2.1011630602263185e-06  1.5000069277110153e-01 -1.4650033746114446e-06 1.9608506850141445e-06  1.4999953587200612e-01 8.7856207986867572e-07 -1.5847373070006884e-06  1.5000036835235384e-01 -5.7246470095863047e-07 1.3300199350596802e-06  1.4999985599153978e-01 2.3844178807166501e-07 -7.8800349882951270e-07  1.5000023720152422e-01 -2.5346556926410013e-07 7.9485936531446774e-07  1.5000004716742274e-01 1.5956625778992463e-07 -1.5956625833945054e-07  1.5000020247154500e-01 0.0000000000000000e+00 4.7675907223424549e-07  1.5003847662947087e-01 0.0000000000000000e+00 4.3586808239127431e-06  1.4998656086176809e-01 -4.6920884167374520e-05 4.7930060575587728e-05  1.5004129849720113e-01 2.1078498746426873e-05 2.1078498746056363e-05  1.5000890954701537e-01 -9.4839485436393778e-05 9.5494927901920614e-05  1.5006364875380801e-01 1.6355859958696764e-05 6.7233908961989767e-05  1.5003538528515939e-01 -1.1985748327893684e-04 1.5444506874580323e-04  1.5008857497108338e-01 1.8712161066568025e-05 1.1039150915842715e-04  1.5005220704969310e-01 -9.3120031085226532e-05 1.8312772521420225e-04  1.5008747400850167e-01 7.3001168533977479e-05 1.0068788955981233e-04  1.5003340768006110e-01 1.2010484481101240e-06 1.3901798139614131e-04  1.5004833385278973e-01 1.6466612638638351e-04 4.0988071441659149e-05  1.4999454532881645e-01 8.7747980716641928e-05 8.8637410690587358e-05  1.5001696508090331e-01 1.6701180279384790e-04 4.7485621027520340e-05  1.5000252147684029e-01 4.1015001055514054e-05 1.5607102186045708e-04  1.5005028267010986e-01 4.4160433932166842e-05 1.6618329411566206e-04  1.5005241173013750e-01 -6.2377047103310702e-05 2.2887721067578394e-04  1.5007492870274344e-01 -1.4623143118825438e-05 1.5360701855560610e-04  1.5004195803165962e-01 -7.3151024658835684e-06 9.2432537513790366e-05  1.5001209395565548e-01 6.4794951123468847e-05 -3.8791343409423648e-05  1.4996588491548113e-01 5.9074813605560728e-05 -8.0392154248690452e-05  1.4994928463903801e-01 6.8566782830865311e-05 -1.0660639835384201e-04  1.4992475732592631e-01 2.8393127179775494e-05 -1.0335019438547549e-04  1.4991233396886930e-01 1.5559297586561250e-05 -1.4220463392931502e-04  1.4990364076954379e-01 -9.8629382456684189e-07 -1.6129871239304962e-04  1.4990258832652112e-01 -2.1859492552373801e-05 -1.8083524418302294e-04  1.4989967970972612e-01 -5.3973925732626027e-05 -1.7601623709366648e-04  1.4990937336630508e-01 -3.8344109072950756e-05 -1.5821797830299563e-04  1.4992233193716129e-01 -3.9492278072471205e-05 -1.2194543093553358e-04  1.4994685942862856e-01 -1.0212359274934541e-04 -6.2256424991421702e-05  1.4998447652090036e-01 -1.2140241537295420e-04 4.7346055205305993e-06  1.4999565682807536e-01 -2.7676884598664272e-05 -1.2246873929334440e-05  1.4997380622166578e-01 2.4044856641933721e-05 -6.0176007812599805e-05  1.4999157192137907e-01 -3.7867366563436365e-05 1.3542390181393963e-05  1.5003523583845724e-01 -5.6640564235283909e-05 9.5207603959630868e-05  1.5000872278478733e-01 2.5585737591529981e-05 -1.8699479914904483e-05  1.4995813076488718e-01 6.0402339459425564e-05 -1.1911060572536076e-04  1.4999283369755417e-01 -1.9178287519079764e-06 1.6739234888611179e-05  1.5004131093363385e-01 -5.5283291408564196e-05 1.1663644796129147e-04  1.5001066224882409e-01 -3.3338935849027421e-05 -2.9984280061310340e-06  1.4997808236378138e-01 4.1806039440846801e-05 -7.0146041887065962e-05  1.4999217840954773e-01 7.7578459963315559e-05 -6.4594257739303706e-06  1.4999728460534273e-01 -1.2370024609040529e-05 -9.7621559122536445e-08  1.5000706999846858e-01 -1.0595484667026966e-04 1.8917242619294964e-05  1.5003009693955885e-01 -1.1983943210929428e-05 7.8668977664992745e-05  1.4999246725952547e-01 1.1989567921342906e-04 -3.4970829504465664e-05  1.4995076527056886e-01 2.4622027977503549e-05 -1.3559590749508398e-04  1.5001661432444405e-01 -1.2105944439022513e-04 7.2759316044945137e-05  1.5006003219530156e-01 -2.2469143065287716e-05 1.6476286695411217e-04  1.4996858113347789e-01 1.1619963475888321e-04 -1.2597063879234656e-04  1.4994125807308178e-01 1.1667392657977126e-05 -1.5488515514370667e-04  1.5004938702283829e-01 -1.0696366452073516e-04 1.8349338778142702e-04  1.5004612992217087e-01 3.3442011339254494e-06 1.0664920981843213e-04  1.4993726358595211e-01 9.4326699921372465e-05 -2.2016625393841353e-04  1.4997724390062744e-01 -1.9375770337112472e-05 -2.6353953166925318e-05  1.5006642443029214e-01 -7.7903797538181197e-05 2.1794872321892795e-04  1.4999563469793947e-01 3.4378996189962127e-05 -6.0749716975935108e-05  1.4994383474779349e-01 5.7623770660417725e-05 -1.6786362636337266e-04  1.5002724855811400e-01 -4.5684324317600965e-05 1.2439794365655022e-04  1.5003414265006113e-01 -3.2950627801289763e-05 8.3339928468890214e-05  1.4996237868007350e-01 4.8491369487984310e-05 -1.4042321649526782e-04  1.4999141955288628e-01 8.3262717869477462e-06 3.9958255751462217e-06  1.5003332330627883e-01 -4.2587171961854963e-05 1.0627039833982389e-04  1.4998835928990134e-01 1.3884212005062351e-05 -6.1151964944195902e-05  1.4998237858698368e-01 2.4535065859427468e-05 -4.3670057667234581e-05  1.5001828011649945e-01 -2.1645314721901877e-05 7.0183173564406786e-05  1.5000192233535187e-01 -8.1401270163083174e-06 -1.1478042284205574e-05  1.4998535824420961e-01 2.2741854493745961e-05 -4.3139065433362716e-05  1.5000891313831510e-01 -1.0393202382372476e-05 3.7447604489402174e-05  1.5000332414700110e-01 -7.0429525576777745e-06 3.5294052322143065e-06  1.4999235232618671e-01 9.2533819694602382e-06 -2.7450414969699126e-05  1.5000242659870297e-01 1.5923443656002271e-06 1.6493483140841583e-05  1.5000428141830166e-01 -1.0846778286924748e-05 7.6748259578331270e-06  1.4999411750748898e-01 1.0264193982620947e-05 -1.8582214722039820e-05  1.5000272762722386e-01 -3.6456149948886170e-06 1.0980579129098921e-05  1.5000078672730904e-01 -9.6823398059921029e-07 2.2267666730404421e-06  1.4999847464733523e-01 4.4059474640249398e-08 -7.8672939460054463e-06  1.4999978131126301e-01 3.9741995358644942e-06 3.7526173043547213e-06  1.5000223796464701e-01 -6.8762359406637687e-06 3.5480868442600235e-06  1.4999711260998544e-01 6.8024724834228692e-06 -7.2100564872392513e-