<?xml version="1.0"?>
<VTKFile type="UnstructuredGrid"  version="0.1"  >
<UnstructuredGrid>
<Piece  NumberOfPoints="10201" NumberOfCells="20000">
<Points>
<DataArray  type="Float64"  NumberOfComponents="3"  format="ascii">-5 -5 0  -4.9 -5 0  -4.8 -5 0  -4.7 -5 0  -4.6 -5 0  -4.5 -5 0  -4.4 -5 0  -4.3 -5 0  -4.2 -5 0  -4.1 -5 0  -4 -5 0  -3.9 -5 0  -3.8 -5 0  -3.7 -5 0  -3.6 -5 0  -3.5 -5 0  -3.4 -5 0  -3.3 -5 0  -3.2 -5 0  -3.1 -5 0  -3 -5 0  -2.9 -5 0  -2.8 -5 0  -2.7 -5 0  -2.6 -5 0  -2.5 -5 0  -2.4 -5 0  -2.3 -5 0  -2.2 -5 0  -2.1 -5 0  -2 -5 0  -1.9 -5 0  -1.8 -5 0  -1.7 -5 0  -1.6 -5 0  -1.5 -5 0  -1.4 -5 0  -1.3 -5 0  -1.2 -5 0  -1.1 -5 0  -1 -5 0  -0.9000000000000004 -5 0  -0.7999999999999998 -5 0  -0.7000000000000002 -5 0  -0.5999999999999996 -5 0  -0.5 -5 0  -0.4000000000000004 -5 0  -0.2999999999999998 -5 0  -0.2000000000000002 -5 0  -0.09999999999999964 -5 0  0 -5 0  0.09999999999999964 -5 0  0.2000000000000002 -5 0  0.2999999999999998 -5 0  0.4000000000000004 -5 0  0.5 -5 0  0.5999999999999996 -5 0  0.7000000000000002 -5 0  0.7999999999999998 -5 0  0.9000000000000004 -5 0  1 -5 0  1.1 -5 0  1.2 -5 0  1.3 -5 0  1.4 -5 0  1.5 -5 0  1.6 -5 0  1.7 -5 0  1.8 -5 0  1.9 -5 0  2 -5 0  2.1 -5 0  2.2 -5 0  2.3 -5 0  2.4 -5 0  2.5 -5 0  2.6 -5 0  2.7 -5 0  2.8 -5 0  2.9 -5 0  3 -5 0  3.1 -5 0  3.199999999999999 -5 0  3.300000000000001 -5 0  3.4 -5 0  3.5 -5 0  3.6 -5 0  3.699999999999999 -5 0  3.800000000000001 -5 0  3.9 -5 0  4 -5 0  4.1 -5 0  4.199999999999999 -5 0  4.300000000000001 -5 0  4.4 -5 0  4.5 -5 0  4.6 -5 0  4.699999999999999 -5 0  4.800000000000001 -5 0  4.9 -5 0  5 -5 0  -5 -4.9 0  -4.9 -4.9 0  -4.8 -4.9 0  -4.7 -4.9 0  -4.6 -4.9 0  -4.5 -4.9 0  -4.4 -4.9 0  -4.3 -4.9 0  -4.2 -4.9 0  -4.1 -4.9 0  -4 -4.9 0  -3.9 -4.9 0  -3.8 -4.9 0  -3.7 -4.9 0  -3.6 -4.9 0  -3.5 -4.9 0  -3.4 -4.9 0  -3.3 -4.9 0  -3.2 -4.9 0  -3.1 -4.9 0  -3 -4.9 0  -2.9 -4.9 0  -2.8 -4.9 0  -2.7 -4.9 0  -2.6 -4.9 0  -2.5 -4.9 0  -2.4 -4.9 0  -2.3 -4.9 0  -2.2 -4.9 0  -2.1 -4.9 0  -2 -4.9 0  -1.9 -4.9 0  -1.8 -4.9 0  -1.7 -4.9 0  -1.6 -4.9 0  -1.5 -4.9 0  -1.4 -4.9 0  -1.3 -4.9 0  -1.2 -4.9 0  -1.1 -4.9 0  -1 -4.9 0  -0.9000000000000004 -4.9 0  -0.7999999999999998 -4.9 0  -0.7000000000000002 -4.9 0  -0.5999999999999996 -4.9 0  -0.5 -4.9 0  -0.4000000000000004 -4.9 0  -0.2999999999999998 -4.9 0  -0.2000000000000002 -4.9 0  -0.09999999999999964 -4.9 0  0 -4.9 0  0.09999999999999964 -4.9 0  0.2000000000000002 -4.9 0  0.2999999999999998 -4.9 0  0.4000000000000004 -4.9 0  0.5 -4.9 0  0.5999999999999996 -4.9 0  0.7000000000000002 -4.9 0  0.7999999999999998 -4.9 0  0.9000000000000004 -4.9 0  1 -4.9 0  1.1 -4.9 0  1.2 -4.9 0  1.3 -4.9 0  1.4 -4.9 0  1.5 -4.9 0  1.6 -4.9 0  1.7 -4.9 0  1.8 -4.9 0  1.9 -4.9 0  2 -4.9 0  2.1 -4.9 0  2.2 -4.9 0  2.3 -4.9 0  2.4 -4.9 0  2.5 -4.9 0  2.6 -4.9 0  2.7 -4.9 0  2.8 -4.9 0  2.9 -4.9 0  3 -4.9 0  3.1 -4.9 0  3.199999999999999 -4.9 0  3.300000000000001 -4.9 0  3.4 -4.9 0  3.5 -4.9 0  3.6 -4.9 0  3.699999999999999 -4.9 0  3.800000000000001 -4.9 0  3.9 -4.9 0  4 -4.9 0  4.1 -4.9 0  4.199999999999999 -4.9 0  4.300000000000001 -4.9 0  4.4 -4.9 0  4.5 -4.9 0  4.6 -4.9 0  4.699999999999999 -4.9 0  4.800000000000001 -4.9 0  4.9 -4.9 0  5 -4.9 0  -5 -4.8 0  -4.9 -4.8 0  -4.8 -4.8 0  -4.7 -4.8 0  -4.6 -4.8 0  -4.5 -4.8 0  -4.4 -4.8 0  -4.3 -4.8 0  -4.2 -4.8 0  -4.1 -4.8 0  -4 -4.8 0  -3.9 -4.8 0  -3.8 -4.8 0  -3.7 -4.8 0  -3.6 -4.8 0  -3.5 -4.8 0  -3.4 -4.8 0  -3.3 -4.8 0  -3.2 -4.8 0  -3.1 -4.8 0  -3 -4.8 0  -2.9 -4.8 0  -2.8 -4.8 0  -2.7 -4.8 0  -2.6 -4.8 0  -2.5 -4.8 0  -2.4 -4.8 0  -2.3 -4.8 0  -2.2 -4.8 0  -2.1 -4.8 0  -2 -4.8 0  -1.9 -4.8 0  -1.8 -4.8 0  -1.7 -4.8 0  -1.6 -4.8 0  -1.5 -4.8 0  -1.4 -4.8 0  -1.3 -4.8 0  -1.2 -4.8 0  -1.1 -4.8 0  -1 -4.8 0  -0.9000000000000004 -4.8 0  -0.7999999999999998 -4.8 0  -0.7000000000000002 -4.8 0  -0.5999999999999996 -4.8 0  -0.5 -4.8 0  -0.4000000000000004 -4.8 0  -0.2999999999999998 -4.8 0  -0.2000000000000002 -4.8 0  -0.09999999999999964 -4.8 0  0 -4.8 0  0.09999999999999964 -4.8 0  0.2000000000000002 -4.8 0  0.2999999999999998 -4.8 0  0.4000000000000004 -4.8 0  0.5 -4.8 0  0.5999999999999996 -4.8 0  0.7000000000000002 -4.8 0  0.7999999999999998 -4.8 0  0.9000000000000004 -4.8 0  1 -4.8 0  1.1 -4.8 0  1.2 -4.8 0  1.3 -4.8 0  1.4 -4.8 0  1.5 -4.8 0  1.6 -4.8 0  1.7 -4.8 0  1.8 -4.8 0  1.9 -4.8 0  2 -4.8 0  2.1 -4.8 0  2.2 -4.8 0  2.3 -4.8 0  2.4 -4.8 0  2.5 -4.8 0  2.6 -4.8 0  2.7 -4.8 0  2.8 -4.8 0  2.9 -4.8 0  3 -4.8 0  3.1 -4.8 0  3.199999999999999 -4.8 0  3.300000000000001 -4.8 0  3.4 -4.8 0  3.5 -4.8 0  3.6 -4.8 0  3.699999999999999 -4.8 0  3.800000000000001 -4.8 0  3.9 -4.8 0  4 -4.8 0  4.1 -4.8 0  4.199999999999999 -4.8 0  4.300000000000001 -4.8 0  4.4 -4.8 0  4.5 -4.8 0  4.6 -4.8 0  4.699999999999999 -4.8 0  4.800000000000001 -4.8 0  4.9 -4.8 0  5 -4.8 0  -5 -4.7 0  -4.9 -4.7 0  -4.8 -4.7 0  -4.7 -4.7 0  -4.6 -4.7 0  -4.5 -4.7 0  -4.4 -4.7 0  -4.3 -4.7 0  -4.2 -4.7 0  -4.1 -4.7 0  -4 -4.7 0  -3.9 -4.7 0  -3.8 -4.7 0  -3.7 -4.7 0  -3.6 -4.7 0  -3.5 -4.7 0  -3.4 -4.7 0  -3.3 -4.7 0  -3.2 -4.7 0  -3.1 -4.7 0  -3 -4.7 0  -2.9 -4.7 0  -2.8 -4.7 0  -2.7 -4.7 0  -2.6 -4.7 0  -2.5 -4.7 0  -2.4 -4.7 0  -2.3 -4.7 0  -2.2 -4.7 0  -2.1 -4.7 0  -2 -4.7 0  -1.9 -4.7 0  -1.8 -4.7 0  -1.7 -4.7 0  -1.6 -4.7 0  -1.5 -4.7 0  -1.4 -4.7 0  -1.3 -4.7 0  -1.2 -4.7 0  -1.1 -4.7 0  -1 -4.7 0  -0.9000000000000004 -4.7 0  -0.7999999999999998 -4.7 0  -0.7000000000000002 -4.7 0  -0.5999999999999996 -4.7 0  -0.5 -4.7 0  -0.4000000000000004 -4.7 0  -0.2999999999999998 -4.7 0  -0.2000000000000002 -4.7 0  -0.09999999999999964 -4.7 0  0 -4.7 0  0.09999999999999964 -4.7 0  0.2000000000000002 -4.7 0  0.2999999999999998 -4.7 0  0.4000000000000004 -4.7 0  0.5 -4.7 0  0.5999999999999996 -4.7 0  0.7000000000000002 -4.7 0  0.7999999999999998 -4.7 0  0.9000000000000004 -4.7 0  1 -4.7 0  1.1 -4.7 0  1.2 -4.7 0  1.3 -4.7 0  1.4 -4.7 0  1.5 -4.7 0  1.6 -4.7 0  1.7 -4.7 0  1.8 -4.7 0  1.9 -4.7 0  2 -4.7 0  2.1 -4.7 0  2.2 -4.7 0  2.3 -4.7 0  2.4 -4.7 0  2.5 -4.7 0  2.6 -4.7 0  2.7 -4.7 0  2.8 -4.7 0  2.9 -4.7 0  3 -4.7 0  3.1 -4.7 0  3.199999999999999 -4.7 0  3.300000000000001 -4.7 0  3.4 -4.7 0  3.5 -4.7 0  3.6 -4.7 0  3.699999999999999 -4.7 0  3.800000000000001 -4.7 0  3.9 -4.7 0  4 -4.7 0  4.1 -4.7 0  4.199999999999999 -4.7 0  4.300000000000001 -4.7 0  4.4 -4.7 0  4.5 -4.7 0  4.6 -4.7 0  4.699999999999999 -4.7 0  4.800000000000001 -4.7 0  4.9 -4.7 0  5 -4.7 0  -5 -4.6 0  -4.9 -4.6 0  -4.8 -4.6 0  -4.7 -4.6 0  -4.6 -4.6 0  -4.5 -4.6 0  -4.4 -4.6 0  -4.3 -4.6 0  -4.2 -4.6 0  -4.1 -4.6 0  -4 -4.6 0  -3.9 -4.6 0  -3.8 -4.6 0  -3.7 -4.6 0  -3.6 -4.6 0  -3.5 -4.6 0  -3.4 -4.6 0  -3.3 -4.6 0  -3.2 -4.6 0  -3.1 -4.6 0  -3 -4.6 0  -2.9 -4.6 0  -2.8 -4.6 0  -2.7 -4.6 0  -2.6 -4.6 0  -2.5 -4.6 0  -2.4 -4.6 0  -2.3 -4.6 0  -2.2 -4.6 0  -2.1 -4.6 0  -2 -4.6 0  -1.9 -4.6 0  -1.8 -4.6 0  -1.7 -4.6 0  -1.6 -4.6 0  -1.5 -4.6 0  -1.4 -4.6 0  -1.3 -4.6 0  -1.2 -4.6 0  -1.1 -4.6 0  -1 -4.6 0  -0.9000000000000004 -4.6 0  -0.7999999999999998 -4.6 0  -0.7000000000000002 -4.6 0  -0.5999999999999996 -4.6 0  -0.5 -4.6 0  -0.4000000000000004 -4.6 0  -0.2999999999999998 -4.6 0  -0.2000000000000002 -4.6 0  -0.09999999999999964 -4.6 0  0 -4.6 0  0.09999999999999964 -4.6 0  0.2000000000000002 -4.6 0  0.2999999999999998 -4.6 0  0.4000000000000004 -4.6 0  0.5 -4.6 0  0.5999999999999996 -4.6 0  0.7000000000000002 -4.6 0  0.7999999999999998 -4.6 0  0.9000000000000004 -4.6 0  1 -4.6 0  1.1 -4.6 0  1.2 -4.6 0  1.3 -4.6 0  1.4 -4.6 0  1.5 -4.6 0  1.6 -4.6 0  1.7 -4.6 0  1.8 -4.6 0  1.9 -4.6 0  2 -4.6 0  2.1 -4.6 0  2.2 -4.6 0  2.3 -4.6 0  2.4 -4.6 0  2.5 -4.6 0  2.6 -4.6 0  2.7 -4.6 0  2.8 -4.6 0  2.9 -4.6 0  3 -4.6 0  3.1 -4.6 0  3.199999999999999 -4.6 0  3.300000000000001 -4.6 0  3.4 -4.6 0  3.5 -4.6 0  3.6 -4.6 0  3.699999999999999 -4.6 0  3.800000000000001 -4.6 0  3.9 -4.6 0  4 -4.6 0  4.1 -4.6 0  4.199999999999999 -4.6 0  4.300000000000001 -4.6 0  4.4 -4.6 0  4.5 -4.6 0  4.6 -4.6 0  4.699999999999999 -4.6 0  4.800000000000001 -4.6 0  4.9 -4.6 0  5 -4.6 0  -5 -4.5 0  -4.9 -4.5 0  -4.8 -4.5 0  -4.7 -4.5 0  -4.6 -4.5 0  -4.5 -4.5 0  -4.4 -4.5 0  -4.3 -4.5 0  -4.2 -4.5 0  -4.1 -4.5 0  -4 -4.5 0  -3.9 -4.5 0  -3.8 -4.5 0  -3.7 -4.5 0  -3.6 -4.5 0  -3.5 -4.5 0  -3.4 -4.5 0  -3.3 -4.5 0  -3.2 -4.5 0  -3.1 -4.5 0  -3 -4.5 0  -2.9 -4.5 0  -2.8 -4.5 0  -2.7 -4.5 0  -2.6 -4.5 0  -2.5 -4.5 0  -2.4 -4.5 0  -2.3 -4.5 0  -2.2 -4.5 0  -2.1 -4.5 0  -2 -4.5 0  -1.9 -4.5 0  -1.8 -4.5 0  -1.7 -4.5 0  -1.6 -4.5 0  -1.5 -4.5 0  -1.4 -4.5 0  -1.3 -4.5 0  -1.2 -4.5 0  -1.1 -4.5 0  -1 -4.5 0  -0.9000000000000004 -4.5 0  -0.7999999999999998 -4.5 0  -0.7000000000000002 -4.5 0  -0.5999999999999996 -4.5 0  -0.5 -4.5 0  -0.4000000000000004 -4.5 0  -0.2999999999999998 -4.5 0  -0.2000000000000002 -4.5 0  -0.09999999999999964 -4.5 0  0 -4.5 0  0.09999999999999964 -4.5 0  0.2000000000000002 -4.5 0  0.2999999999999998 -4.5 0  0.4000000000000004 -4.5 0  0.5 -4.5 0  0.5999999999999996 -4.5 0  0.7000000000000002 -4.5 0  0.7999999999999998 -4.5 0  0.9000000000000004 -4.5 0  1 -4.5 0  1.1 -4.5 0  1.2 -4.5 0  1.3 -4.5 0  1.4 -4.5 0  1.5 -4.5 0  1.6 -4.5 0  1.7 -4.5 0  1.8 -4.5 0  1.9 -4.5 0  2 -4.5 0  2.1 -4.5 0  2.2 -4.5 0  2.3 -4.5 0  2.4 -4.5 0  2.5 -4.5 0  2.6 -4.5 0  2.7 -4.5 0  2.8 -4.5 0  2.9 -4.5 0  3 -4.5 0  3.1 -4.5 0  3.199999999999999 -4.5 0  3.300000000000001 -4.5 0  3.4 -4.5 0  3.5 -4.5 0  3.6 -4.5 0  3.699999999999999 -4.5 0  3.800000000000001 -4.5 0  3.9 -4.5 0  4 -4.5 0  4.1 -4.5 0  4.199999999999999 -4.5 0  4.300000000000001 -4.5 0  4.4 -4.5 0  4.5 -4.5 0  4.6 -4.5 0  4.699999999999999 -4.5 0  4.800000000000001 -4.5 0  4.9 -4.5 0  5 -4.5 0  -5 -4.4 0  -4.9 -4.4 0  -4.8 -4.4 0  -4.7 -4.4 0  -4.6 -4.4 0  -4.5 -4.4 0  -4.4 -4.4 0  -4.3 -4.4 0  -4.2 -4.4 0  -4.1 -4.4 0  -4 -4.4 0  -3.9 -4.4 0  -3.8 -4.4 0  -3.7 -4.4 0  -3.6 -4.4 0  -3.5 -4.4 0  -3.4 -4.4 0  -3.3 -4.4 0  -3.2 -4.4 0  -3.1 -4.4 0  -3 -4.4 0  -2.9 -4.4 0  -2.8 -4.4 0  -2.7 -4.4 0  -2.6 -4.4 0  -2.5 -4.4 0  -2.4 -4.4 0  -2.3 -4.4 0  -2.2 -4.4 0  -2.1 -4.4 0  -2 -4.4 0  -1.9 -4.4 0  -1.8 -4.
[...]
<PointData  Vectors="f_23"> 
<DataArray  type="Float64"  Name="f_23"  NumberOfComponents="3" format="ascii">1.5000003887422372e-01 0.0000000000000000e+00 0.0000000000000000e+00  1.5000001654983897e-01 1.7421809772903611e-15 0.0000000000000000e+00  1.5000010928944441e-01 1.3577611458924815e-15 0.0000000000000000e+00  1.5000020066031747e-01 2.5120367629796167e-14 0.0000000000000000e+00  1.5000050440887985e-01 7.5943692751906035e-14 0.0000000000000000e+00  1.5000100072993236e-01 3.8863234195724876e-13 0.0000000000000000e+00  1.5000199081068236e-01 1.1776532154092558e-12 0.0000000000000000e+00  1.5000351866921652e-01 3.4662430963886605e-12 0.0000000000000000e+00  1.5000582089746323e-01 7.1652231948313473e-12 0.0000000000000000e+00  1.5000861156091119e-01 1.1615819565140100e-11 0.0000000000000000e+00  1.5001145248390799e-01 1.1483735862027421e-11 0.0000000000000000e+00  1.5001325905113075e-01 4.6803526634869830e-12 0.0000000000000000e+00  1.5001295460238054e-01 3.9591435125166514e-13 0.0000000000000000e+00  1.5000974901750122e-01 1.8977270198119207e-11 0.0000000000000000e+00  1.5000425263178116e-01 5.9396057521883656e-11 0.0000000000000000e+00  1.4999833031169471e-01 7.7900410234780898e-11 0.0000000000000000e+00  1.4999450285125701e-01 4.3543986393536805e-11 0.0000000000000000e+00  1.4999453810276842e-01 2.6862797326688157e-12 0.0000000000000000e+00  1.4999822242883484e-01 1.3779843953835294e-11 0.0000000000000000e+00  1.5000296931818516e-01 5.0494700436677696e-11 0.0000000000000000e+00  1.5000573005378237e-01 5.3491648319952197e-11 0.0000000000000000e+00  1.5000509101331133e-01 1.8343871699140602e-11 0.0000000000000000e+00  1.5000143689501585e-01 2.0880942461889213e-13 0.0000000000000000e+00  1.4999705329191945e-01 1.3656320644096325e-11 0.0000000000000000e+00  1.4999614565105082e-01 8.5086930174652513e-12 0.0000000000000000e+00  1.5000064316797679e-01 8.4568770947996782e-13 0.0000000000000000e+00  1.5000629817512723e-01 1.5621430103093389e-11 0.0000000000000000e+00  1.5000780356513435e-01 8.9592429383008354e-12 0.0000000000000000e+00  1.5000535227135825e-01 1.0627434539673781e-12 0.0000000000000000e+00  1.5000175240324204e-01 1.4692378363466847e-11 0.0000000000000000e+00  1.4999861765162531e-01 1.1851634649236882e-11 0.0000000000000000e+00  1.4999810091300947e-01 4.2296960810454634e-12 0.0000000000000000e+00  1.5000115037039660e-01 1.2409946001907467e-14 0.0000000000000000e+00  1.5000444443602431e-01 1.1511822698021141e-11 0.0000000000000000e+00  1.5000407632356180e-01 1.0247612480760689e-11 0.0000000000000000e+00  1.4999912151204589e-01 1.7895333222574950e-11 0.0000000000000000e+00  1.4999381254835562e-01 5.1414414391502427e-11 0.0000000000000000e+00  1.4999732753724435e-01 8.7817049366928301e-12 0.0000000000000000e+00  1.5000757615041238e-01 8.5284775792195111e-11 0.0000000000000000e+00  1.5000561412277319e-01 3.3704469064033346e-12 0.0000000000000000e+00  1.4999167526833249e-01 9.6063096556090228e-11 0.0000000000000000e+00  1.4999345386213531e-01 1.9687436925996529e-12 0.0000000000000000e+00  1.5000908657907910e-01 8.3719643561595992e-11 0.0000000000000000e+00  1.5000536856657862e-01 3.4103188071423436e-12 0.0000000000000000e+00  1.4999039726977728e-01 5.9879492310835651e-11 0.0000000000000000e+00  1.4999745508013890e-01 7.8601120170985948e-12 0.0000000000000000e+00  1.5000924456027717e-01 3.4111479415137580e-11 0.0000000000000000e+00  1.4999904679996609e-01 1.4120300925686858e-11 0.0000000000000000e+00  1.4999247681086036e-01 1.3387387617173468e-11 0.0000000000000000e+00  1.5000393909339579e-01 1.8035911473495897e-11 0.0000000000000000e+00  1.5000456075574931e-01 2.0731525567856802e-12 0.0000000000000000e+00  1.4999458707057753e-01 1.6014694371834019e-11 0.0000000000000000e+00  1.4999885436119820e-01 2.2791444758305588e-13 0.0000000000000000e+00  1.5000499744337012e-01 9.1425852425291905e-12 0.0000000000000000e+00  1.4999837185566769e-01 3.0268145100158719e-12 0.0000000000000000e+00  1.4999687608819445e-01 2.5407305344706167e-12 0.0000000000000000e+00  1.5000293797797387e-01 4.5593129247880422e-12 0.0000000000000000e+00  1.5000080426408324e-01 3.1186237830567022e-14 0.0000000000000000e+00  1.4999733294339598e-01 2.9839573666818037e-12 0.0000000000000000e+00  1.5000091683016037e-01 6.0961013647563450e-13 0.0000000000000000e+00  1.5000141598677674e-01 7.4317500675401039e-13 0.0000000000000000e+00  1.4999850011125954e-01 1.1219966609224585e-12 0.0000000000000000e+00  1.4999990886449829e-01 1.4510732471189991e-16 0.0000000000000000e+00  1.5000110307132269e-01 5.8687874635345627e-13 0.0000000000000000e+00  1.4999936153725324e-01 2.1267246763389597e-13 0.0000000000000000e+00  1.4999966548679314e-01 6.0198975160404528e-14 0.0000000000000000e+00  1.5000065116011652e-01 2.2850486441805429e-13 0.0000000000000000e+00  1.4999977945386211e-01 2.2453648647536068e-14 0.0000000000000000e+00  1.4999972553940555e-01 4.9126191413647892e-14 0.0000000000000000e+00  1.5000033801410248e-01 6.5140513180569482e-14 0.0000000000000000e+00  1.4999993204311388e-01 1.2320871595164616e-15 0.0000000000000000e+00  1.4999983449792445e-01 2.0272639256976706e-14 0.0000000000000000e+00  1.5000016751005069e-01 1.6628448153290422e-14 0.0000000000000000e+00  1.4999997583299848e-01 2.7237886307623594e-17 0.0000000000000000e+00  1.4999991339148377e-01 6.4791795879016937e-15 0.0000000000000000e+00  1.5000008558736180e-01 4.8215214041746922e-15 0.0000000000000000e+00  1.4999998203839632e-01 5.6472552405511762e-17 0.0000000000000000e+00  1.4999996421913731e-01 1.2408524337423960e-15 0.0000000000000000e+00  1.5000003926604011e-01 1.0102199139802473e-15 0.0000000000000000e+00  1.4999999012451790e-01 4.8091869968009448e-18 0.0000000000000000e+00  1.4999998237840695e-01 4.6098748192855269e-16 0.0000000000000000e+00  1.5000002444655244e-01 5.9573460108374508e-16 0.0000000000000000e+00  1.4999998558167463e-01 1.6288171609572709e-16 0.0000000000000000e+00  1.5000000131997354e-01 1.3070418690176885e-19 0.0000000000000000e+00  1.5000000496105470e-01 1.7639952468900577e-17 0.0000000000000000e+00  1.4999999671002576e-01 1.3188615570794699e-18 0.0000000000000000e+00  1.4999999811222087e-01 1.9357250522238597e-17 0.0000000000000000e+00  1.5000000583523024e-01 6.0891280744116560e-17 0.0000000000000000e+00  1.4999999345971099e-01 5.7244265753164102e-17 0.0000000000000000e+00  1.5000000469132355e-01 2.3988911818915775e-17 0.0000000000000000e+00  1.4999999790021465e-01 3.5737788126679887e-18 0.0000000000000000e+00  1.5000000023015622e-01 2.4286209399916966e-22 0.0000000000000000e+00  1.5000000039382080e-01 1.3312302107915225e-19 0.0000000000000000e+00  1.4999999996343585e-01 8.7042272771419144e-20 0.0000000000000000e+00  1.4999999927018351e-01 1.6150629074249806e-18 0.0000000000000000e+00  1.5000000142261749e-01 4.1326517700416103e-18 0.0000000000000000e+00  1.4999999825339513e-01 5.3889569201128317e-18 0.0000000000000000e+00  1.5000000172500469e-01 4.2472634118846504e-18 0.0000000000000000e+00  1.4999999827292157e-01 2.9435254611615639e-18 0.0000000000000000e+00  1.5000000090648846e-01 7.4399110017220264e-19 0.0000000000000000e+00  1.4999999800980132e-01 0.0000000000000000e+00 0.0000000000000000e+00  1.5000001654983952e-01 0.0000000000000000e+00 1.7421809956721261e-15  1.4999994966177441e-01 1.6124149483869487e-18 1.6124142611949238e-18  1.4999995095001115e-01 4.4317323198176425e-15 4.2860044029278255e-15  1.4999980962760137e-01 5.9848803002727000e-15 1.1575829785419131e-14  1.4999964075519323e-01 6.7914673752393717e-14 7.6483076382106421e-14  1.4999916282148562e-01 2.0436369397483494e-13 2.7991968651546842e-13  1.4999841139049122e-01 8.9713778032009741e-13 1.1170222365857910e-12  1.4999701261886006e-01 2.4329155100072075e-12 3.3810703685873947e-12  1.4999500772134189e-01 6.1704335139493691e-12 9.3032707184706690e-12  1.4999223407428794e-01 1.0709153638023651e-11 2.0228472424479975e-11  1.4998927360150294e-01 1.3835007790307002e-11 3.6278513230265276e-11  1.4998676635397565e-01 9.0271074275070197e-12 4.9024999509206659e-11  1.4998600966589062e-01 7.3117072993459372e-13 4.8550157110128807e-11  1.4998785595654610e-01 7.3399152591269560e-12 2.9801714319316910e-11  1.4999248121950878e-01 4.1796202486863159e-11 8.2485233525211556e-12  1.4999840105915960e-01 7.7613843281028428e-11 3.0635249499922259e-14  1.5000339046379060e-01 6.5210192252870064e-11 1.6175813540882958e-12  1.5000525392931596e-01 1.7006338620051903e-11 6.7618872381550305e-13  1.5000331831823091e-01 1.7119578582134686e-12 1.2125248015260550e-12  1.4999912968537590e-01 3.1392534806890186e-11 8.4823352314525816e-12  1.4999572379708412e-01 5.1184709532665439e-11 9.4983006330803655e-12  1.4999510481881922e-01 3.0876716042852368e-11 1.8319009772105045e-12  1.4999739020581573e-01 2.5247602018156723e-12 1.5531269740810110e-12  1.5000132249742962e-01 5.1138368275272053e-12 1.0815744484079698e-11  1.5000378026054520e-01 9.3131593211570969e-12 9.8011202374341942e-12  1.5000139153488790e-01 1.8463857864609561e-13 8.2934458582107765e-15  1.4999569697536447e-01 8.1889268531923571e-12 1.2104942180821332e-11  1.4999243485805872e-01 1.2740252216687430e-11 1.6638490517890735e-11  1.4999370010013097e-01 4.9645880109600048e-13 3.0648957670258771e-12  1.4999685229843851e-01 9.2353390124984401e-12 3.7635671004977621e-13  1.5000005130958277e-01 1.5492367835602251e-11 2.7645485057194324e-12  1.5000179279123854e-01 5.3861692694814119e-12 1.7051133692207360e-12  1.4999991713112168e-01 5.0725096785092762e-13 6.9351334438437528e-13  1.4999638795828399e-01 2.2708914877356773e-12 9.9320388196743510e-12  1.4999575131873491e-01 1.0895199132507264e-11 6.1979698919611143e-12  1.4999895290011458e-01 3.9971190191202814e-13 1.5708293496052940e-12  1.5000377817397317e-01 4.1592803449070885e-11 1.5067401393934093e-11  1.5000467270059040e-01 4.0504949381838741e-12 1.1925329358160538e-12  1.4999716550649153e-01 5.6025251210949129e-11 1.9747873025636217e-11  1.4999212804568446e-01 1.3600724606573538e-11 1.0699240871561502e-11  1.5000191200461627e-01 5.7173528528336202e-11 1.9908034944590924e-11  1.5000956170017185e-01 1.7464332416154489e-11 1.8735360864067645e-11  1.4999774111498015e-01 4.9786341357392009e-11 2.1567569947897321e-11  1.4999030128250970e-01 1.2226492739206168e-11 1.6888484407864084e-11  1.5000378713262544e-01 4.0438701429813869e-11 2.5308440443206712e-11  1.5000820961620034e-01 4.4652151181628084e-12 7.5244596510393583e-12  1.4999431460097040e-01 3.0615147705325816e-11 2.7434286621424371e-11  1.4999468232156205e-01 2.6088292432379693e-13 4.4329559923194208e-13  1.5000684774725451e-01 2.0425577268994983e-11 2.2718850080589062e-11  1.5000168486758120e-01 8.5526666234347701e-13 2.1358408701918314e-12  1.4999350813173873e-01 1.0748635271107826e-11 1.1624201778772547e-11  1.5000164921935913e-01 3.6910973654217316e-12 8.5023648781413013e-12  1.5000457000834455e-01 3.5228252720376008e-12 2.0685605920134647e-12  1.4999632631355592e-01 5.3600428295503806e-12 1.0375105841576748e-11  1.4999819259015168e-01 2.5592166168746714e-13 2.4392082590672198e-13  1.5000390910728967e-01 4.3269998726388876e-12 5.7445870259395029e-12  1.4999931556347390e-01 3.2550403757353156e-13 2.9056386422111847e-12  1.4999733622465597e-01 1.8574046367607360e-12 9.3116555708427266e-13  1.5000201782162825e-01 1.2714660930969185e-12 3.5060653540158443e-12  1.5000084648451792e-01 2.1673631867184182e-13 1.1362292148610813e-13  1.4999801640991400e-01 1.2241830276050079e-12 1.4548272845715462e-12  1.5000056807439335e-01 6.8796777486488413e-14 9.4232743251745438e-13  1.5000107040588742e-01 4.4784925615951291e-13 7.6835159866706594e-14  1.4999893464616071e-01 3.4212294404602423e-13 7.4696054318036669e-13  1.4999993564786335e-01 1.6490722618425159e-14 1.2989898775537023e-13  1.5000077006971849e-01 2.4681285827304595e-13 1.2970615486071276e-13  1.4999953192690679e-01 5.2147518222421449e-14 2.3768992560168486e-13  1.4999980435239163e-01 3.8068221620865535e-14 8.5885446585520202e-15  1.5000044406567692e-01 8.3660724598138978e-14 6.7112988776953040e-14  1.4999981310903746e-01 4.6496178194608771e-15 6.0924787092286398e-14  1.4999984884914705e-01 2.1270388697132923e-14 1.4984651636400270e-16  1.5000023018590347e-01 2.2702833254633756e-14 2.2506524652028760e-14  1.4999992369306037e-01 2.0229265242446910e-16 1.4968903443950900e-14  1.4999991249704367e-01 8.1106509862286666e-15 1.6899503049371310e-21  1.5000011777104730e-01 6.7010184838951589e-15 6.0227369305975072e-15  1.4999995819806308e-01 9.4834966689808898e-17 4.0638917430374114e-15  1.4999996385377370e-01 1.7256772873774193e-15 3.0155520513285215e-17  1.5000005298861974e-01 1.3927002279991818e-15 1.1364948167556543e-15  1.4999997994840847e-01 2.7106086940811876e-18 9.7567734267738227e-16  1.4999998230046960e-01 6.7116339147335455e-16 2.9676467587833921e-17  1.5000003059527139e-01 7.6649639391858864e-16 2.4617585510016512e-16  1.4999998031790726e-01 1.5308101122877637e-16 3.7099060533895251e-16  1.5000000243015676e-01 6.1163390539962815e-18 1.0095884627354378e-16  1.5000000689120502e-01 4.6878330501678597e-17 3.0047213204167846e-19  1.4999999442662776e-01 4.4530614493652720e-18 2.5989825352242771e-17  1.4999999906838771e-01 2.3070651380143481e-17 1.0450520360357829e-17  1.5000000623513218e-01 7.0164117733575034e-17 1.5989168486736492e-18  1.4999999254793736e-01 5.5418335884844626e-17 2.1377105608160598e-17  1.5000000536973801e-01 1.6433128526432974e-17 2.8195128880990079e-17  1.4999999767088723e-01 7.6439092977148507e-19 1.5247101933914507e-17  1.5000000021084164e-01 3.4219184451021398e-19 3.4273301757607194e-18  1.5000000036742783e-01 8.8153825218679930e-20 1.0295023237369350e-19  1.5000000020560267e-01 8.2299220869438664e-19 6.0285275147005740e-20  1.4999999882900469e-01 4.4422388366112337e-18 7.3424925786748465e-22  1.5000000192807522e-01 7.5779074044456781e-18 2.9848900312267408e-19  1.4999999778306541e-01 7.6236846367369596e-18 1.1632236016559529e-18  1.5000000203501562e-01 5.2250529660042194e-18 1.7703145245592622e-18  1.4999999838336464e-01 2.4740086450434610e-18 1.7331681358586855e-18  1.5000000123372370e-01 1.1997105478226476e-18 1.4057086280369298e-18  1.4999999967100791e-01 2.1502657832022915e-19 2.1502610852921780e-19  1.5000000090648904e-01 0.0000000000000000e+00 7.4399121390374141e-19  1.5000010928944335e-01 0.0000000000000000e+00 1.3577611453317854e-15  1.4999995095001126e-01 4.2860044318321443e-15 4.4317323870510513e-15  1.5000012424154668e-01 9.3926247894594057e-16 9.3926245558500402e-16  1.5000008594445757e-01 2.6823953147055238e-14 3.8019866630584286e-14  1.5000040212828322e-01 1.3193902603600471e-14 1.0020741587481345e-13  1.5000065058695017e-01 2.5785014481541518e-13 6.1295392209028887e-13  1.5000152016893661e-01 5.2194267466729843e-13 2.0265798100105163e-12  1.5000263059002794e-01 2.4462937077797053e-12 7.5327073978113910e-12  1.5000476852707356e-01 5.2293905561262972e-12 2.0793171609030233e-11  1.5000741111729898e-01 1.2369987895378755e-11 5.3164631647286683e-11  1.5001092034141031e-01 1.7025728928828461e-11 1.0567629279759077e-10  1.5001401079006343e-01 1.8000436106640017e-11 1.7476673656358391e-10  1.5001614179845107e-01 6.2452562578163667e-12 2.1518819358961627e-10  1.5001557415509281e-01 4.7126580304626615e-13 1.9426754638309212e-10  1.5001213815848333e-01 2.6237336965419254e-11 1.0623563845936179e-10  1.5000622036512798e-01 7.5398759918687397e-11 2.6367445290122566e-11  1.5000028001109281e-01 9.6364681587597505e-11 1.3370480187144186e-13  1.4999641300913072e-01 5.0349339775296942e-11 2.7215392058489409e-12  1.4999628402879089e-01 3.0519527405926095e-12 1.6002559602108532e-13  1.4999922235922392e-01 1.3267528396210294e-11 7.9081517403904176e-12  1.5000274680917675e-01 4.3356902540827817e-11 2.4024480692362854e-11  1.5000414419273189e-01 4.1522478118353853e-11 1.5546081345307752e-11  1.5000287540748225e-01 1.1989221581418856e-11 2.3080872573833501e-13  1.4999966332960393e-01 4.9336701807413512e-13 1.2976515894290960e-11  1.4999639555760286e-01 8.4459207002725750e-12 3.6860815492775642e-11  1.4999675306692720e-01 1.7489695991446065e-12 1.5774877840797775e-11  1.5000206002604186e-01 4.4923763799715354e-12 6.2031527597010388e-12  1.5000716527183872e-01 1.5629314044411773e-11 5.2084067208316750e-11  1.5000716894005137e-01 5.2754442111179678e-12 3.2705149366643884e-11  1.5000414934498205e-01 3.0696338072719195e-12 1.8954061776300524e-12  1.5000124558487463e-01 1.8794051596174083e-11 2.2918265747654014e-12  1.4999879238579913e-01 1.0479299376345505e-11 6.9771877007934738e-12  1.4999907431999263e-01 1.1552395129962467e-12 8.2857531246740453e-13  1.5000302242208796e-01 1.9065730119586229e-13 1.4219472993040437e-11  1.5000522318159715e-01 6.5199683852538512e-12 3.4696733253048522e-11  1.5000234375298979e-01 3.1228649990318739e-12 3.0358460175811487e-12  1.4999759310477639e-01 2.1007266833362278e-11 2.0151168701527417e-11  1.4999517568897808e-01 3.3800671708313326e-11 3.0740403972961892e-11  1.4999940957266913e-01 1.7571558330523509e-11 3.7231542658891633e-12  1.5000711359719857e-01 6.4924939375801874e-11 7.5703522978836667e-11  1.5000355754157177e-01 1.3299270657816607e-11 6.5296965832467500e-13  1.4999144517961266e-01 7.6673567453481624e-11 1.0926968299845472e-10  1.4999542046047701e-01 1.1052903366791854e-11 2.8288922447713051e-12  1.5000964343060511e-01 6.3993810052422357e-11 1.2535211716572115e-10  1.5000339571221569e-01 1.2179895875216646e-11 1.4245886651515547e-13  1.4999000648529237e-01 4.0365416011353831e-11 1.1447145754014462e-10  1.4999948881685415e-01 1.5032755825869321e-11 5.9317888306401902e-12  1.5000903072008606e-01 1.8338450665978503e-11 7.4708394211855401e-11  1.4999714303697956e-01 1.6965019302420267e-11 2.8668388775674693e-11  1.4999351764467264e-01 4.6213547033959983e-12 2.5872368809347969e-11  1.5000531677071072e-01 1.5453274809288462e-11 4.8176638164250320e-11  1.5000284338350386e-01 6.1121515047987552e-14 7.2524772410457352e-13  1.4999412673139162e-01 1.0302285346508896e-11 4.0583680582276527e-11  1.5000074579579512e-01 1.3567005652614663e-12 7.3946866342642209e-12  1.5000443450262130e-01 4.2074233315600356e-12 1.5123685477551498e-11  1.4999693890387289e-01 3.5611314556511055e-12 1.9729000483743459e-11  1.4999814786835158e-01 5.3656354049702158e-13 4.8006515102383353e-13  1.5000348233870597e-01 3.4711964728915877e-12 1.5843403561964213e-11  1.4999943071884422e-01 1.4172185179597239e-13 3.0771958255719516e-12  1.4999766941141837e-01 1.5675805925886921e-12 4.2194530100179701e-12  1.5000181923165112e-01 9.3968143130513788e-13 6.5566395982559406e-12  1.5000061290831046e-01 1.6531765297629574e-13 9.9213429215473237e-16  1.4999830202616857e-01 9.1888961853860559e-13 3.4297308592016051e-12  1.5000063639758390e-01 7.2198302984803756e-14 1.4390162634519608e-12  1.5000078039484346e-01 2.8431747010025658e-13 2.8040132876276121e-13  1.4999904616647664e-01 2.7880511031471585e-13 1.4078823068727727e-12  1.5000010998019297e-01 1.3502551266060684e-15 1.9552804976701864e-13  1.5000056597026534e-01 1.5565233708329818e-13 2.4640372852987913e-13  1.4999952921192816e-01 5.9932330278717521e-14 4.1914246720908559e-13  1.4999996718020600e-01 9.2968182725218138e-15 1.9806791877224178e-14  1.5000032735542498e-01 5.3603387795756606e-14 1.0169484246228126e-13  1.4999977989060503e-01 1.0226150106851681e-14 1.0958812183656649e-13  1.4999995543196898e-01 6.8843150211195837e-15 2.4181103205975043e-15  1.5000017803340107e-01 1.8716076028752520e-14 3.0215831814845746e-14  1.4999988145101617e-01 3.7312061577466765e-15 2.9938590497770705e-14  1.4999999140853942e-01 9.5441766723237269e-16 1.2778516202634805e-15  1.5000007339561666e-01 3.0715955601577072e-15 5.5359101598311779e-15  1.4999995080595405e-01 2.9358796524151733e-16 6.6630941548062621e-15  1.4999998993571823e-01 9.2586964095627421e-16 4.3402122090082840e-16  1.5000004626510904e-01 2.2571975462109624e-15 1.3088812569989235e-15  1.4999995722876541e-01 1.1075647651333880e-15 2.5198157639464687e-15  1.5000001842824853e-01 1.0372013555466346e-16 8.4126113064970424e-16  1.5000000158