<?xml version="1.0"?>
<VTKFile type="UnstructuredGrid"  version="0.1"  >
<UnstructuredGrid>
<Piece  NumberOfPoints="10201" NumberOfCells="20000">
<Points>
<DataArray  type="Float64"  NumberOfComponents="3"  format="ascii">-5 -5 0  -4.9 -5 0  -4.8 -5 0  -4.7 -5 0  -4.6 -5 0  -4.5 -5 0  -4.4 -5 0  -4.3 -5 0  -4.2 -5 0  -4.1 -5 0  -4 -5 0  -3.9 -5 0  -3.8 -5 0  -3.7 -5 0  -3.6 -5 0  -3.5 -5 0  -3.4 -5 0  -3.3 -5 0  -3.2 -5 0  -3.1 -5 0  -3 -5 0  -2.9 -5 0  -2.8 -5 0  -2.7 -5 0  -2.6 -5 0  -2.5 -5 0  -2.4 -5 0  -2.3 -5 0  -2.2 -5 0  -2.1 -5 0  -2 -5 0  -1.9 -5 0  -1.8 -5 0  -1.7 -5 0  -1.6 -5 0  -1.5 -5 0  -1.4 -5 0  -1.3 -5 0  -1.2 -5 0  -1.1 -5 0  -1 -5 0  -0.9000000000000004 -5 0  -0.7999999999999998 -5 0  -0.7000000000000002 -5 0  -0.5999999999999996 -5 0  -0.5 -5 0  -0.4000000000000004 -5 0  -0.2999999999999998 -5 0  -0.2000000000000002 -5 0  -0.09999999999999964 -5 0  0 -5 0  0.09999999999999964 -5 0  0.2000000000000002 -5 0  0.2999999999999998 -5 0  0.4000000000000004 -5 0  0.5 -5 0  0.5999999999999996 -5 0  0.7000000000000002 -5 0  0.7999999999999998 -5 0  0.9000000000000004 -5 0  1 -5 0  1.1 -5 0  1.2 -5 0  1.3 -5 0  1.4 -5 0  1.5 -5 0  1.6 -5 0  1.7 -5 0  1.8 -5 0  1.9 -5 0  2 -5 0  2.1 -5 0  2.2 -5 0  2.3 -5 0  2.4 -5 0  2.5 -5 0  2.6 -5 0  2.7 -5 0  2.8 -5 0  2.9 -5 0  3 -5 0  3.1 -5 0  3.199999999999999 -5 0  3.300000000000001 -5 0  3.4 -5 0  3.5 -5 0  3.6 -5 0  3.699999999999999 -5 0  3.800000000000001 -5 0  3.9 -5 0  4 -5 0  4.1 -5 0  4.199999999999999 -5 0  4.300000000000001 -5 0  4.4 -5 0  4.5 -5 0  4.6 -5 0  4.699999999999999 -5 0  4.800000000000001 -5 0  4.9 -5 0  5 -5 0  -5 -4.9 0  -4.9 -4.9 0  -4.8 -4.9 0  -4.7 -4.9 0  -4.6 -4.9 0  -4.5 -4.9 0  -4.4 -4.9 0  -4.3 -4.9 0  -4.2 -4.9 0  -4.1 -4.9 0  -4 -4.9 0  -3.9 -4.9 0  -3.8 -4.9 0  -3.7 -4.9 0  -3.6 -4.9 0  -3.5 -4.9 0  -3.4 -4.9 0  -3.3 -4.9 0  -3.2 -4.9 0  -3.1 -4.9 0  -3 -4.9 0  -2.9 -4.9 0  -2.8 -4.9 0  -2.7 -4.9 0  -2.6 -4.9 0  -2.5 -4.9 0  -2.4 -4.9 0  -2.3 -4.9 0  -2.2 -4.9 0  -2.1 -4.9 0  -2 -4.9 0  -1.9 -4.9 0  -1.8 -4.9 0  -1.7 -4.9 0  -1.6 -4.9 0  -1.5 -4.9 0  -1.4 -4.9 0  -1.3 -4.9 0  -1.2 -4.9 0  -1.1 -4.9 0  -1 -4.9 0  -0.9000000000000004 -4.9 0  -0.7999999999999998 -4.9 0  -0.7000000000000002 -4.9 0  -0.5999999999999996 -4.9 0  -0.5 -4.9 0  -0.4000000000000004 -4.9 0  -0.2999999999999998 -4.9 0  -0.2000000000000002 -4.9 0  -0.09999999999999964 -4.9 0  0 -4.9 0  0.09999999999999964 -4.9 0  0.2000000000000002 -4.9 0  0.2999999999999998 -4.9 0  0.4000000000000004 -4.9 0  0.5 -4.9 0  0.5999999999999996 -4.9 0  0.7000000000000002 -4.9 0  0.7999999999999998 -4.9 0  0.9000000000000004 -4.9 0  1 -4.9 0  1.1 -4.9 0  1.2 -4.9 0  1.3 -4.9 0  1.4 -4.9 0  1.5 -4.9 0  1.6 -4.9 0  1.7 -4.9 0  1.8 -4.9 0  1.9 -4.9 0  2 -4.9 0  2.1 -4.9 0  2.2 -4.9 0  2.3 -4.9 0  2.4 -4.9 0  2.5 -4.9 0  2.6 -4.9 0  2.7 -4.9 0  2.8 -4.9 0  2.9 -4.9 0  3 -4.9 0  3.1 -4.9 0  3.199999999999999 -4.9 0  3.300000000000001 -4.9 0  3.4 -4.9 0  3.5 -4.9 0  3.6 -4.9 0  3.699999999999999 -4.9 0  3.800000000000001 -4.9 0  3.9 -4.9 0  4 -4.9 0  4.1 -4.9 0  4.199999999999999 -4.9 0  4.300000000000001 -4.9 0  4.4 -4.9 0  4.5 -4.9 0  4.6 -4.9 0  4.699999999999999 -4.9 0  4.800000000000001 -4.9 0  4.9 -4.9 0  5 -4.9 0  -5 -4.8 0  -4.9 -4.8 0  -4.8 -4.8 0  -4.7 -4.8 0  -4.6 -4.8 0  -4.5 -4.8 0  -4.4 -4.8 0  -4.3 -4.8 0  -4.2 -4.8 0  -4.1 -4.8 0  -4 -4.8 0  -3.9 -4.8 0  -3.8 -4.8 0  -3.7 -4.8 0  -3.6 -4.8 0  -3.5 -4.8 0  -3.4 -4.8 0  -3.3 -4.8 0  -3.2 -4.8 0  -3.1 -4.8 0  -3 -4.8 0  -2.9 -4.8 0  -2.8 -4.8 0  -2.7 -4.8 0  -2.6 -4.8 0  -2.5 -4.8 0  -2.4 -4.8 0  -2.3 -4.8 0  -2.2 -4.8 0  -2.1 -4.8 0  -2 -4.8 0  -1.9 -4.8 0  -1.8 -4.8 0  -1.7 -4.8 0  -1.6 -4.8 0  -1.5 -4.8 0  -1.4 -4.8 0  -1.3 -4.8 0  -1.2 -4.8 0  -1.1 -4.8 0  -1 -4.8 0  -0.9000000000000004 -4.8 0  -0.7999999999999998 -4.8 0  -0.7000000000000002 -4.8 0  -0.5999999999999996 -4.8 0  -0.5 -4.8 0  -0.4000000000000004 -4.8 0  -0.2999999999999998 -4.8 0  -0.2000000000000002 -4.8 0  -0.09999999999999964 -4.8 0  0 -4.8 0  0.09999999999999964 -4.8 0  0.2000000000000002 -4.8 0  0.2999999999999998 -4.8 0  0.4000000000000004 -4.8 0  0.5 -4.8 0  0.5999999999999996 -4.8 0  0.7000000000000002 -4.8 0  0.7999999999999998 -4.8 0  0.9000000000000004 -4.8 0  1 -4.8 0  1.1 -4.8 0  1.2 -4.8 0  1.3 -4.8 0  1.4 -4.8 0  1.5 -4.8 0  1.6 -4.8 0  1.7 -4.8 0  1.8 -4.8 0  1.9 -4.8 0  2 -4.8 0  2.1 -4.8 0  2.2 -4.8 0  2.3 -4.8 0  2.4 -4.8 0  2.5 -4.8 0  2.6 -4.8 0  2.7 -4.8 0  2.8 -4.8 0  2.9 -4.8 0  3 -4.8 0  3.1 -4.8 0  3.199999999999999 -4.8 0  3.300000000000001 -4.8 0  3.4 -4.8 0  3.5 -4.8 0  3.6 -4.8 0  3.699999999999999 -4.8 0  3.800000000000001 -4.8 0  3.9 -4.8 0  4 -4.8 0  4.1 -4.8 0  4.199999999999999 -4.8 0  4.300000000000001 -4.8 0  4.4 -4.8 0  4.5 -4.8 0  4.6 -4.8 0  4.699999999999999 -4.8 0  4.800000000000001 -4.8 0  4.9 -4.8 0  5 -4.8 0  -5 -4.7 0  -4.9 -4.7 0  -4.8 -4.7 0  -4.7 -4.7 0  -4.6 -4.7 0  -4.5 -4.7 0  -4.4 -4.7 0  -4.3 -4.7 0  -4.2 -4.7 0  -4.1 -4.7 0  -4 -4.7 0  -3.9 -4.7 0  -3.8 -4.7 0  -3.7 -4.7 0  -3.6 -4.7 0  -3.5 -4.7 0  -3.4 -4.7 0  -3.3 -4.7 0  -3.2 -4.7 0  -3.1 -4.7 0  -3 -4.7 0  -2.9 -4.7 0  -2.8 -4.7 0  -2.7 -4.7 0  -2.6 -4.7 0  -2.5 -4.7 0  -2.4 -4.7 0  -2.3 -4.7 0  -2.2 -4.7 0  -2.1 -4.7 0  -2 -4.7 0  -1.9 -4.7 0  -1.8 -4.7 0  -1.7 -4.7 0  -1.6 -4.7 0  -1.5 -4.7 0  -1.4 -4.7 0  -1.3 -4.7 0  -1.2 -4.7 0  -1.1 -4.7 0  -1 -4.7 0  -0.9000000000000004 -4.7 0  -0.7999999999999998 -4.7 0  -0.7000000000000002 -4.7 0  -0.5999999999999996 -4.7 0  -0.5 -4.7 0  -0.4000000000000004 -4.7 0  -0.2999999999999998 -4.7 0  -0.2000000000000002 -4.7 0  -0.09999999999999964 -4.7 0  0 -4.7 0  0.09999999999999964 -4.7 0  0.2000000000000002 -4.7 0  0.2999999999999998 -4.7 0  0.4000000000000004 -4.7 0  0.5 -4.7 0  0.5999999999999996 -4.7 0  0.7000000000000002 -4.7 0  0.7999999999999998 -4.7 0  0.9000000000000004 -4.7 0  1 -4.7 0  1.1 -4.7 0  1.2 -4.7 0  1.3 -4.7 0  1.4 -4.7 0  1.5 -4.7 0  1.6 -4.7 0  1.7 -4.7 0  1.8 -4.7 0  1.9 -4.7 0  2 -4.7 0  2.1 -4.7 0  2.2 -4.7 0  2.3 -4.7 0  2.4 -4.7 0  2.5 -4.7 0  2.6 -4.7 0  2.7 -4.7 0  2.8 -4.7 0  2.9 -4.7 0  3 -4.7 0  3.1 -4.7 0  3.199999999999999 -4.7 0  3.300000000000001 -4.7 0  3.4 -4.7 0  3.5 -4.7 0  3.6 -4.7 0  3.699999999999999 -4.7 0  3.800000000000001 -4.7 0  3.9 -4.7 0  4 -4.7 0  4.1 -4.7 0  4.199999999999999 -4.7 0  4.300000000000001 -4.7 0  4.4 -4.7 0  4.5 -4.7 0  4.6 -4.7 0  4.699999999999999 -4.7 0  4.800000000000001 -4.7 0  4.9 -4.7 0  5 -4.7 0  -5 -4.6 0  -4.9 -4.6 0  -4.8 -4.6 0  -4.7 -4.6 0  -4.6 -4.6 0  -4.5 -4.6 0  -4.4 -4.6 0  -4.3 -4.6 0  -4.2 -4.6 0  -4.1 -4.6 0  -4 -4.6 0  -3.9 -4.6 0  -3.8 -4.6 0  -3.7 -4.6 0  -3.6 -4.6 0  -3.5 -4.6 0  -3.4 -4.6 0  -3.3 -4.6 0  -3.2 -4.6 0  -3.1 -4.6 0  -3 -4.6 0  -2.9 -4.6 0  -2.8 -4.6 0  -2.7 -4.6 0  -2.6 -4.6 0  -2.5 -4.6 0  -2.4 -4.6 0  -2.3 -4.6 0  -2.2 -4.6 0  -2.1 -4.6 0  -2 -4.6 0  -1.9 -4.6 0  -1.8 -4.6 0  -1.7 -4.6 0  -1.6 -4.6 0  -1.5 -4.6 0  -1.4 -4.6 0  -1.3 -4.6 0  -1.2 -4.6 0  -1.1 -4.6 0  -1 -4.6 0  -0.9000000000000004 -4.6 0  -0.7999999999999998 -4.6 0  -0.7000000000000002 -4.6 0  -0.5999999999999996 -4.6 0  -0.5 -4.6 0  -0.4000000000000004 -4.6 0  -0.2999999999999998 -4.6 0  -0.2000000000000002 -4.6 0  -0.09999999999999964 -4.6 0  0 -4.6 0  0.09999999999999964 -4.6 0  0.2000000000000002 -4.6 0  0.2999999999999998 -4.6 0  0.4000000000000004 -4.6 0  0.5 -4.6 0  0.5999999999999996 -4.6 0  0.7000000000000002 -4.6 0  0.7999999999999998 -4.6 0  0.9000000000000004 -4.6 0  1 -4.6 0  1.1 -4.6 0  1.2 -4.6 0  1.3 -4.6 0  1.4 -4.6 0  1.5 -4.6 0  1.6 -4.6 0  1.7 -4.6 0  1.8 -4.6 0  1.9 -4.6 0  2 -4.6 0  2.1 -4.6 0  2.2 -4.6 0  2.3 -4.6 0  2.4 -4.6 0  2.5 -4.6 0  2.6 -4.6 0  2.7 -4.6 0  2.8 -4.6 0  2.9 -4.6 0  3 -4.6 0  3.1 -4.6 0  3.199999999999999 -4.6 0  3.300000000000001 -4.6 0  3.4 -4.6 0  3.5 -4.6 0  3.6 -4.6 0  3.699999999999999 -4.6 0  3.800000000000001 -4.6 0  3.9 -4.6 0  4 -4.6 0  4.1 -4.6 0  4.199999999999999 -4.6 0  4.300000000000001 -4.6 0  4.4 -4.6 0  4.5 -4.6 0  4.6 -4.6 0  4.699999999999999 -4.6 0  4.800000000000001 -4.6 0  4.9 -4.6 0  5 -4.6 0  -5 -4.5 0  -4.9 -4.5 0  -4.8 -4.5 0  -4.7 -4.5 0  -4.6 -4.5 0  -4.5 -4.5 0  -4.4 -4.5 0  -4.3 -4.5 0  -4.2 -4.5 0  -4.1 -4.5 0  -4 -4.5 0  -3.9 -4.5 0  -3.8 -4.5 0  -3.7 -4.5 0  -3.6 -4.5 0  -3.5 -4.5 0  -3.4 -4.5 0  -3.3 -4.5 0  -3.2 -4.5 0  -3.1 -4.5 0  -3 -4.5 0  -2.9 -4.5 0  -2.8 -4.5 0  -2.7 -4.5 0  -2.6 -4.5 0  -2.5 -4.5 0  -2.4 -4.5 0  -2.3 -4.5 0  -2.2 -4.5 0  -2.1 -4.5 0  -2 -4.5 0  -1.9 -4.5 0  -1.8 -4.5 0  -1.7 -4.5 0  -1.6 -4.5 0  -1.5 -4.5 0  -1.4 -4.5 0  -1.3 -4.5 0  -1.2 -4.5 0  -1.1 -4.5 0  -1 -4.5 0  -0.9000000000000004 -4.5 0  -0.7999999999999998 -4.5 0  -0.7000000000000002 -4.5 0  -0.5999999999999996 -4.5 0  -0.5 -4.5 0  -0.4000000000000004 -4.5 0  -0.2999999999999998 -4.5 0  -0.2000000000000002 -4.5 0  -0.09999999999999964 -4.5 0  0 -4.5 0  0.09999999999999964 -4.5 0  0.2000000000000002 -4.5 0  0.2999999999999998 -4.5 0  0.4000000000000004 -4.5 0  0.5 -4.5 0  0.5999999999999996 -4.5 0  0.7000000000000002 -4.5 0  0.7999999999999998 -4.5 0  0.9000000000000004 -4.5 0  1 -4.5 0  1.1 -4.5 0  1.2 -4.5 0  1.3 -4.5 0  1.4 -4.5 0  1.5 -4.5 0  1.6 -4.5 0  1.7 -4.5 0  1.8 -4.5 0  1.9 -4.5 0  2 -4.5 0  2.1 -4.5 0  2.2 -4.5 0  2.3 -4.5 0  2.4 -4.5 0  2.5 -4.5 0  2.6 -4.5 0  2.7 -4.5 0  2.8 -4.5 0  2.9 -4.5 0  3 -4.5 0  3.1 -4.5 0  3.199999999999999 -4.5 0  3.300000000000001 -4.5 0  3.4 -4.5 0  3.5 -4.5 0  3.6 -4.5 0  3.699999999999999 -4.5 0  3.800000000000001 -4.5 0  3.9 -4.5 0  4 -4.5 0  4.1 -4.5 0  4.199999999999999 -4.5 0  4.300000000000001 -4.5 0  4.4 -4.5 0  4.5 -4.5 0  4.6 -4.5 0  4.699999999999999 -4.5 0  4.800000000000001 -4.5 0  4.9 -4.5 0  5 -4.5 0  -5 -4.4 0  -4.9 -4.4 0  -4.8 -4.4 0  -4.7 -4.4 0  -4.6 -4.4 0  -4.5 -4.4 0  -4.4 -4.4 0  -4.3 -4.4 0  -4.2 -4.4 0  -4.1 -4.4 0  -4 -4.4 0  -3.9 -4.4 0  -3.8 -4.4 0  -3.7 -4.4 0  -3.6 -4.4 0  -3.5 -4.4 0  -3.4 -4.4 0  -3.3 -4.4 0  -3.2 -4.4 0  -3.1 -4.4 0  -3 -4.4 0  -2.9 -4.4 0  -2.8 -4.4 0  -2.7 -4.4 0  -2.6 -4.4 0  -2.5 -4.4 0  -2.4 -4.4 0  -2.3 -4.4 0  -2.2 -4.4 0  -2.1 -4.4 0  -2 -4.4 0  -1.9 -4.4 0  -1.8 -4.
[...]
<PointData  Vectors="f_23"> 
<DataArray  type="Float64"  Name="f_23"  NumberOfComponents="3" format="ascii">1.5155082806321515e-01 0.0000000000000000e+00 0.0000000000000000e+00  1.4977566539853798e-01 6.7457249544952953e-07 0.0000000000000000e+00  1.5157526892607059e-01 3.9521898350064207e-08 0.0000000000000000e+00  1.5023895253581981e-01 1.0558338337674391e-06 0.0000000000000000e+00  1.5154813922008989e-01 1.5250299794073813e-07 0.0000000000000000e+00  1.5030506393356549e-01 7.4573101231484179e-07 0.0000000000000000e+00  1.5120475507009534e-01 4.5372634103708150e-07 0.0000000000000000e+00  1.5004713239610443e-01 2.2977539043042775e-07 0.0000000000000000e+00  1.5076015134986517e-01 7.0802899390272290e-07 0.0000000000000000e+00  1.4990280010162485e-01 6.9052060195220429e-08 0.0000000000000000e+00  1.5064641409338775e-01 4.6053291361080587e-07 0.0000000000000000e+00  1.5010588293047886e-01 8.3240573200243588e-08 0.0000000000000000e+00  1.5071943089033024e-01 1.9659845618420180e-07 0.0000000000000000e+00  1.5023124656916437e-01 3.0809466324297533e-08 0.0000000000000000e+00  1.5054186685703377e-01 2.1317147774542979e-07 0.0000000000000000e+00  1.5008573114685866e-01 2.1339817806939572e-09 0.0000000000000000e+00  1.5033389735370478e-01 1.7925533358964202e-07 0.0000000000000000e+00  1.5012270219401472e-01 7.1035339233801208e-10 0.0000000000000000e+00  1.5036486605801702e-01 3.5783711059514654e-08 0.0000000000000000e+00  1.5021189288668138e-01 2.4423071219020328e-09 0.0000000000000000e+00  1.5025051327797290e-01 2.2792178154536096e-08 0.0000000000000000e+00  1.4995885942433168e-01 6.9137230033588861e-09 0.0000000000000000e+00  1.4986167933346595e-01 6.0536975515170319e-08 0.0000000000000000e+00  1.4970188483128924e-01 2.7689544331658658e-08 0.0000000000000000e+00  1.4975959265446862e-01 9.4108973881722762e-09 0.0000000000000000e+00  1.4985628742214138e-01 1.6324879164660879e-08 0.0000000000000000e+00  1.5004825746919756e-01 3.1655335427028748e-08 0.0000000000000000e+00  1.5001545930238921e-01 2.6310453597433749e-08 0.0000000000000000e+00  1.4990279398614373e-01 5.6343377582342185e-10 0.0000000000000000e+00  1.4984829731414373e-01 1.9963325664192898e-09 0.0000000000000000e+00  1.4992575888651841e-01 4.6778340487770091e-10 0.0000000000000000e+00  1.5002965075223035e-01 2.4635540523810504e-08 0.0000000000000000e+00  1.5014647707776846e-01 1.3757434339151486e-08 0.0000000000000000e+00  1.5011115701999939e-01 1.9843003196893825e-11 0.0000000000000000e+00  1.4996792878095752e-01 4.7674377891066670e-09 0.0000000000000000e+00  1.4994468722488327e-01 1.1489300246782148e-08 0.0000000000000000e+00  1.5005362353787194e-01 3.6037602089674816e-09 0.0000000000000000e+00  1.5012446754572698e-01 1.5232092705991238e-08 0.0000000000000000e+00  1.5012657070519436e-01 9.8522052489967006e-09 0.0000000000000000e+00  1.4997610064304603e-01 3.3571903222839463e-08 0.0000000000000000e+00  1.4982439933517364e-01 2.5386900265736241e-08 0.0000000000000000e+00  1.5003112537640886e-01 2.7592192196305661e-08 0.0000000000000000e+00  1.5025000382787940e-01 1.6630907395460117e-08 0.0000000000000000e+00  1.4995894063334791e-01 2.5455723438981966e-08 0.0000000000000000e+00  1.4977336514209683e-01 6.5156530470206754e-09 0.0000000000000000e+00  1.5011809681974569e-01 1.6115186668391087e-08 0.0000000000000000e+00  1.5018260326258612e-01 6.1919815918173894e-10 0.0000000000000000e+00  1.4985490758261621e-01 6.3057635310204354e-09 0.0000000000000000e+00  1.4993728829213993e-01 2.7993015503381747e-10 0.0000000000000000e+00  1.5014652360693209e-01 5.3706129633781108e-10 0.0000000000000000e+00  1.4996181133207095e-01 1.1118640272538231e-09 0.0000000000000000e+00  1.4992864512489437e-01 7.4694949030039673e-10 0.0000000000000000e+00  1.5011122951866568e-01 5.2920127026004456e-10 0.0000000000000000e+00  1.4998461615761433e-01 3.4786523565230397e-09 0.0000000000000000e+00  1.4989949633241989e-01 1.3196104341928133e-11 0.0000000000000000e+00  1.5011090735216104e-01 5.1534876892138327e-09 0.0000000000000000e+00  1.5004713121946875e-01 9.8780371771385029e-10 0.0000000000000000e+00  1.4987473657445990e-01 3.1498316665827728e-09 0.0000000000000000e+00  1.5003128072340002e-01 1.7432492584191743e-09 0.0000000000000000e+00  1.5010558192299797e-01 1.8706525170749380e-09 0.0000000000000000e+00  1.4990807202853060e-01 4.0374204554967831e-09 0.0000000000000000e+00  1.4997020969954417e-01 1.4312050238270496e-11 0.0000000000000000e+00  1.5007777572634096e-01 1.3217965430886494e-09 0.0000000000000000e+00  1.4998448970497616e-01 2.6035299686832130e-11 0.0000000000000000e+00  1.4994340489002272e-01 1.7051031529120714e-09 0.0000000000000000e+00  1.5005884591614033e-01 1.9716756720862193e-09 0.0000000000000000e+00  1.4998769013016364e-01 2.6092296677233924e-10 0.0000000000000000e+00  1.4998035341149579e-01 2.2595640596324585e-12 0.0000000000000000e+00  1.5001147879113191e-01 4.6337291944258327e-11 0.0000000000000000e+00  1.5001686716237775e-01 6.6374064261518856e-10 0.0000000000000000e+00  1.4996441910099798e-01 1.3131574641670469e-09 0.0000000000000000e+00  1.5003210737220099e-01 1.0556157984278118e-09 0.0000000000000000e+00  1.4998498163257873e-01 4.6009128385187729e-10 0.0000000000000000e+00  1.5000200958476845e-01 1.9766620520549782e-10 0.0000000000000000e+00  1.4999629519180777e-01 2.6538267931210297e-10 0.0000000000000000e+00  1.5001578207156249e-01 6.1282594537486623e-10 0.0000000000000000e+00  1.4997474447126652e-01 9.3550740712940374e-10 0.0000000000000000e+00  1.5002382285842206e-01 7.9983886763539693e-10 0.0000000000000000e+00  1.4998533825325674e-01 4.2561098856846940e-10 0.0000000000000000e+00  1.5000725932961198e-01 2.2346622935987260e-10 0.0000000000000000e+00  1.4999258453501293e-01 2.4012283535326667e-10 0.0000000000000000e+00  1.5001293833275875e-01 4.0500279181166794e-10 0.0000000000000000e+00  1.4998237634526396e-01 5.5880227497483373e-10 0.0000000000000000e+00  1.5001775178382762e-01 5.3749736962107427e-10 0.0000000000000000e+00  1.4998542907780166e-01 4.0879758584563390e-10 0.0000000000000000e+00  1.5001180300684389e-01 3.2944427733537605e-10 0.0000000000000000e+00  1.4998813736579059e-01 3.6019447636768111e-10 0.0000000000000000e+00  1.5001430318327236e-01 4.8450765625867949e-10 0.0000000000000000e+00  1.4998282261818052e-01 6.3687072192149269e-10 0.0000000000000000e+00  1.5001877456970755e-01 7.3276054047263724e-10 0.0000000000000000e+00  1.4998086183787726e-01 7.5958287516764259e-10 0.0000000000000000e+00  1.5001853832400883e-01 7.4115281227911541e-10 0.0000000000000000e+00  1.4998130010749050e-01 7.4925858575729167e-10 0.0000000000000000e+00  1.5001814489513407e-01 7.3391380197441154e-10 0.0000000000000000e+00  1.4998013338746743e-01 7.7891511842656610e-10 0.0000000000000000e+00  1.5001772090340518e-01 6.6220563522399609e-10 0.0000000000000000e+00  1.4997839664139406e-01 6.6252390673716472e-10 0.0000000000000000e+00  1.5001502253140375e-01 3.4942301959761254e-10 0.0000000000000000e+00  1.4997585859522902e-01 3.1770710985696556e-10 0.0000000000000000e+00  1.5001036561767256e-01 4.1121804013644367e-11 0.0000000000000000e+00  1.4997138734174498e-01 0.0000000000000000e+00 0.0000000000000000e+00  1.4977566539853848e-01 0.0000000000000000e+00 6.7457249545012330e-07  1.4915772446934433e-01 5.4826572340226196e-08 5.4826572340336701e-08  1.4948778379668431e-01 2.2099821301162890e-07 2.5106528434299046e-07  1.4894830428812128e-01 3.7645166355704330e-08 2.6048807023745642e-09  1.4932282481503104e-01 2.5709215097587703e-07 9.6663997079642803e-08  1.4895108410664568e-01 1.8190201129938388e-09 2.3311292543221645e-08  1.4947160349220148e-01 6.3076615362164166e-08 6.1642512589035071e-09  1.4926429674147704e-01 5.8367091203660954e-08 1.1395451696807443e-07  1.4978252309907511e-01 2.6709752061843554e-09 2.7709304621458778e-09  1.4955273543173075e-01 1.4197653332072670e-07 1.1329505372926117e-07  1.4984797430632293e-01 1.1031331020666324e-08 3.1171395291894664e-09  1.4950414273991405e-01 6.3548580106842586e-08 2.0061002751284324e-08  1.4967167707050075e-01 1.6662622481660238e-10 4.0441906624617986e-08  1.4942963633973919e-01 3.2529137811416317e-08 2.1726193782603006e-09  1.4967675696294125e-01 1.2016096939991244e-08 2.8651093696180260e-08  1.4961448299041330e-01 7.9671087905332899e-08 4.7628110575614014e-09  1.4983376829944717e-01 4.1948722098478126e-08 1.7584186756021378e-08  1.4970877255035583e-01 5.9509327611445571e-08 2.9480720707993780e-11  1.4978360353787956e-01 9.0579382438935047e-09 3.3643100662927846e-08  1.4967329823035633e-01 8.5053688190778629e-09 3.2176498152719142e-09  1.4979027941371562e-01 3.2686681570733813e-09 1.2932302487305272e-08  1.4987183024811254e-01 1.9712427379203216e-08 2.2360719084957205e-09  1.5011175529287160e-01 2.4845226513354311e-08 1.8172053419522679e-09  1.5019473465832711e-01 4.4524983645977238e-08 1.2888133914989486e-08  1.5026810900910717e-01 1.5277308704143946e-08 7.6144925291871306e-10  1.5018116537935308e-01 3.8842808279532598e-10 9.5540534543496978e-12  1.5005272143803164e-01 2.3443472803773233e-08 5.9102107013069659e-09  1.4996014202279734e-01 2.2970198768432482e-08 6.7122544163267743e-10  1.5005957948233645e-01 8.8908316925745644e-09 1.0211938353381133e-09  1.5012695249521013e-01 1.0894000654053364e-11 4.2534576229009092e-09  1.5009976241038012e-01 5.3938898115745878e-11 4.5803178481583401e-12  1.5002101963873965e-01 1.0101646279058391e-08 1.5926488307632551e-09  1.4992734910576300e-01 2.1246889065389262e-08 2.5550616505356302e-09  1.4987082869891025e-01 1.0780007279118143e-09 8.0674825816752390e-11  1.4996756569155445e-01 1.8638810070433568e-09 1.4804516589142652e-09  1.5004457205245467e-01 3.2667241664627555e-09 1.1252471063601069e-09  1.4997458887087883e-01 6.2938095899163644e-09 1.5170143945650595e-09  1.4991127678034241e-01 1.5530060727785213e-11 5.5455425712587587e-09  1.4990317806273634e-01 1.3065547105562982e-08 1.0069637740888173e-09  1.4993330364454799e-01 1.0610081442148854e-09 2.2445181690885023e-09  1.5008695096303792e-01 3.4013910805661860e-08 4.0029159198547426e-09  1.5010313425786073e-01 1.0024192265862316e-10 1.6693188492396072e-09  1.4984071612418082e-01 2.6050185676014144e-08 1.1405441134300656e-08  1.4985726810984548e-01 1.2821979183410037e-09 5.9932616743424780e-10  1.5017487402192051e-01 1.5260263441834355e-08 1.0427450685796082e-08  1.5006432097228214e-01 2.5848466661171080e-09 2.8702547064438957e-09  1.4978503432826196e-01 4.5766764925558299e-09 9.5481618811199194e-09  1.4999875073264607e-01 2.3982541233585802e-09 5.8140044092059285e-09  1.5015480600055658e-01 1.6160016748129885e-10 5.1040760647874176e-09  1.4990787305191577e-01 8.4578550353884435e-10 4.6060295849064895e-09  1.4992559405488076e-01 6.8726965051972910e-10 4.8707072587981268e-13  1.5010885174348665e-01 1.4246152712400311e-11 5.7256116088213143e-09  1.4995992794300270e-01 1.3763337826977237e-09 6.2330633109273979e-10  1.4991566871344109e-01 1.0721790011560285e-09 2.2678653497136580e-10  1.5010287725571114e-01 1.2448250058601052e-09 4.0372850337398277e-09  1.4998826430674855e-01 2.7657664475314426e-09 7.6831371505876902e-10  1.4987971240975373e-01 6.8719331854382787e-11 2.7643227838193698e-09  1.5007213619245541e-01 2.7957458215222551e-09 3.5424198659497018e-09  1.5006289374758255e-01 6.3505491770025580e-12 5.0852309310212410e-12  1.4988217669031706e-01 2.5955489843444884e-09 6.3971651440350441e-09  1.5001634216312265e-01 7.7217303188513850e-10 1.0701870090631006e-09  1.5008702764577533e-01 4.9566151254483607e-10 2.3008270886813884e-09  1.4994376063930712e-01 6.3775090114405435e-10 3.1952574011839171e-09  1.4996539017289745e-01 2.2064575770554774e-10 8.5598983014170009e-12  1.5007022599159694e-01 1.2300208713149668e-09 2.4307047071276695e-09  1.4997157427126795e-01 2.6360398746357663e-10 9.1323516200224205e-10  1.4997482072442492e-01 5.7350919250092315e-11 2.6622273171561845e-10  1.5003365076064676e-01 8.7611959080303904e-11 1.0991082649946053e-09  1.4999663099931917e-01 3.1474256529411079e-11 1.4753080081667860e-10  1.4997328098409657e-01 3.3046561800432568e-10 2.4150578235575915e-10  1.5003055935419002e-01 3.0549300323268384e-10 5.1201984977729797e-10  1.4998881694365476e-01 4.4582165250140631e-11 7.6416987094657372e-11  1.4999034055679963e-01 1.1185727381822444e-11 6.5631588587823853e-11  1.5001346213521188e-01 1.5837412613314926e-11 1.5250767620160403e-10  1.4999968880073464e-01 1.4692662782164479e-11 1.0718229258861134e-11  1.4998562152810754e-01 1.2506778747362683e-10 6.9504761198956939e-11  1.5001671812311487e-01 1.1168055655107387e-10 1.4698299181935982e-10  1.4999305322957165e-01 1.0707797197487836e-11 4.6401321729903432e-11  1.4999637613618688e-01 8.9100187496122358e-12 8.2751033682133523e-13  1.5000545201630089e-01 6.7135116954330275e-12 1.5841700414807521e-11  1.5000098545637275e-01 8.4730030734275378e-12 1.0058233770451059e-12  1.4999184136136159e-01 5.9576886268431316e-11 1.6432936672909719e-11  1.5001001813295484e-01 6.5368746255625450e-11 4.3131580154045883e-11  1.4999320547486891e-01 2.7228913744762057e-11 2.7133593232946685e-11  1.5000293383752220e-01 8.5704717701472958e-12 4.2193112120699134e-12  1.4999791956913566e-01 1.2998351951153187e-11 2.7804611239959079e-15  1.5000438671187971e-01 4.3340734923385543e-11 1.2930550627589910e-14  1.4999249671008849e-01 9.0586109564603310e-11 3.1425880708159354e-12  1.5000931215499647e-01 1.1588706936933848e-10 1.1892789447197123e-11  1.4999076883924101e-01 1.0563379075121404e-10 1.7303996943574936e-11  1.5000836941185308e-01 8.5720837503532111e-11 1.6842047294520749e-11  1.4999257035570482e-01 7.1505509440616888e-11 1.3552070310549172e-11  1.5000761521757289e-01 7.2654712583758298e-11 1.5040297041637300e-11  1.4999268644341712e-01 6.7751907102203213e-11 1.6445188288486725e-11  1.5000863093012243e-01 7.4168751671837874e-11 2.9374188173373481e-11  1.4999339444434784e-01 4.3312784042335131e-11 2.6076218797148886e-11  1.5000934655468504e-01 4.8997716479982386e-11 5.0847422553218409e-11  1.4999682390507735e-01 6.6432374006648557e-12 1.7916806499163045e-11  1.5000998492417730e-01 2.8163351606946064e-11 5.5026340255339181e-11  1.5000328859453854e-01 8.1096186403306244e-14 8.1096186826074234e-14  1.5001036561767239e-01 0.0000000000000000e+00 4.1121804020379633e-11  1.5157526892607082e-01 0.0000000000000000e+00 3.9521898349882380e-08  1.4948778379668418e-01 2.5106528434309348e-07 2.2099821301138506e-07  1.5149213856016996e-01 5.8374350138418031e-09 5.8374350137598799e-09  1.4998406210841747e-01 7.7315422480392345e-07 3.7799456858264565e-07  1.5145581395705079e-01 6.2969815274587003e-08 2.1966198219199770e-09  1.5017531834918604e-01 7.4534514876733833e-07 1.9751065156817094e-07  1.5121981805188162e-01 2.0297583960091826e-07 1.4836707382684550e-07  1.5002308703095885e-01 2.9665973924898249e-07 6.6328741048110579e-09  1.5081553030338810e-01 4.2442270867656001e-07 4.5966360181197305e-07  1.4984119641903398e-01 6.3307815133462195e-08 7.1437836245870667e-09  1.5060494095368615e-01 3.8917388957307926e-07 3.2155758613323331e-07  1.4997906533981925e-01 4.0276189813184803e-08 2.1460083475251987e-08  1.5069991263257981e-01 1.7324642257882911e-07 3.5945052377242348e-08  1.5021426044061398e-01 3.5602150554917739e-08 1.2742550237551762e-07  1.5068764242105492e-01 1.3119281064882986e-07 2.1727667660544635e-09  1.5018579040418031e-01 1.5356271079647065e-11 7.7000358809053488e-08  1.5044952942393106e-01 1.6327237370825508e-07 5.9350710633778400e-09  1.5010467598931049e-01 8.7471031815969307e-09 5.7300194872825232e-08  1.5038954156871931e-01 8.2932907005196401e-08 4.2027430149260246e-09  1.5019355734827963e-01 5.2642346687976690e-11 1.0149896839793528e-07  1.5037658736004145e-01 2.6114377544459526e-08 1.4765711068298169e-08  1.5013264069366769e-01 3.3442130172444151e-09 3.1690521707782119e-08  1.5008035557027558e-01 4.5565781012134950e-08 7.6646755164265416e-09  1.4980983087159802e-01 2.4179438793395646e-08 7.3404327876029471e-09  1.4981681908182376e-01 4.7846386176515103e-08 2.9912396363505100e-08  1.4974937317446715e-01 1.3613782200324495e-09 1.0076236255557200e-09  1.4990806926987568e-01 5.3725450497217762e-09 5.9412204639796152e-10  1.4999537353564438e-01 2.8262961092045671e-08 1.5219657172082022e-08  1.5001397755247556e-01 1.2111690683352267e-08 1.1282631849897926e-10  1.4988538447870201e-01 3.7355574076919127e-09 4.9417017859026261e-09  1.4989958617354684e-01 2.8026050910446317e-10 5.8794774940807105e-09  1.4993534907025868e-01 2.0999046299983819e-09 1.6130322306449215e-10  1.5000632813450834e-01 1.9754264907232059e-08 2.0753731399227984e-09  1.5009246154003142e-01 1.0927825998480136e-08 4.5370386297522468e-09  1.5009708316658102e-01 2.6546585917048268e-10 3.9512271213517624e-11  1.4997762518814811e-01 1.4179334449307497e-09 4.2475470611825428e-09  1.4999163193507409e-01 3.5076540261058789e-09 3.1212299095426966e-10  1.5008137240692504e-01 3.6061459861693027e-09 9.2695240996622011e-09  1.5008401995734980e-01 3.8585995776307737e-09 9.9975446195317377e-09  1.5006580431762045e-01 3.9622660956340884e-09 2.6833627502993632e-10  1.5000342119051219e-01 2.0416323907503330e-08 5.9797864169638293e-09  1.4988874598385785e-01 1.2599418112460773e-08 2.2775194925428746e-09  1.5002847162390762e-01 1.8390725460165304e-08 2.2223152333627238e-08  1.5020681543389000e-01 5.2057008899102050e-09 2.5401299781492158e-08  1.4997411169042701e-01 1.7398515713337300e-08 1.2737322711503447e-08  1.4983132577873731e-01 3.2947701222636370e-10 9.8251076151822664e-09  1.5013296624897055e-01 1.1151256626927939e-08 3.2360400867117900e-08  1.5014379962079080e-01 6.0930010673602412e-10 2.1604436825619429e-09  1.4984308677211575e-01 2.8833542821439926e-09 4.8592667438919583e-08  1.4997310732313077e-01 2.6434409302761695e-09 7.2671077197313459e-10  1.5014951823602787e-01 1.9163168337382995e-11 9.5226923789073641e-09  1.4993002791082408e-01 1.8371903789971496e-09 1.9014663023263807e-08  1.4992520174364249e-01 1.6905265401252224e-09 1.0829395097007634e-08  1.5012616521218336e-01 3.4780756711432356e-10 6.6927252149559557e-09  1.4996131214222291e-01 5.1589093348226603e-09 4.4775424763315604e-09  1.4990427577001741e-01 3.4211214658050300e-10 7.2180370131268889e-09  1.5011681428105017e-01 2.5023314235818820e-09 1.6601711548973855e-08  1.5002885879093728e-01 1.5733022794770713e-09 6.5250598402994054e-10  1.4986433330014753e-01 2.5265723969621153e-09 9.1854787559012012e-09  1.5008025171913197e-01 4.2777313042679085e-09 1.4162824400878730e-08  1.5007138883748578e-01 6.5092450480334733e-12 6.6977360883923772e-09  1.4989379028028041e-01 1.6133976230560541e-09 1.3678933080126536e-08  1.4999270654731192e-01 3.3581667297217957e-11 7.3241269395252707e-11  1.5009608318616682e-01 2.5009372686600227e-09 7.9239883765497042e-09  1.4992584997103889e-01 2.3358110758612306e-09 6.9158967226095070e-09  1.4999109182948378e-01 2.4323860465061987e-11 1.7635993462729704e-10  1.5005219675531140e-01 2.6889828523127286e-10 4.4195497088931797e-09  1.4997998684316688e-01 2.3184678972308803e-12 9.4305397929169735e-10  1.4996453014958669e-01 9.1938583404018700e-10 9.6987787795008828e-10  1.5005666831847247e-01 1.5546460482165746e-09 2.9494187386697229e-09  1.4996600862691717e-01 6.0779752153399520e-10 8.9426276952748042e-10  1.4999807169234539e-01 2.3263554198057653e-11 5.4244786817585461e-11  1.5001615465556520e-01 1.6732717687497229e-13 4.7311606468245101e-10  1.4999967702528172e-01 1.3203351551014097e-10 4.0122676761534777e-11  1.4997486197954146e-01 6.9822049013810856e-10 3.5711861523395458e-10  1.5003517807521405e-01 8.7215553202097363e-10 9.1607807448749048e-10  1.4997602324083092e-01 3.8628180549610391e-10 4.5058214264932780e-10  1.5000622609974168e-01 6.8048132476631519e-11 1.5675927868087413e-11  1.5000088949605525e-01 3.8693282993017089e-11 2.7892087742670535e-11  1.5000627440457534e-01 1.8777609477644764e-10 8.2491483406581260e-13  1.4998192302538027e-01 4.9592954857643842e-10 9.9638025293815208e-11  1.5002364022738646e-01 6.0626016366865885e-10 2.8299113337792633e-10  1.4997948245