<?xml version="1.0"?>
<VTKFile type="UnstructuredGrid"  version="0.1"  >
<UnstructuredGrid>
<Piece  NumberOfPoints="10201" NumberOfCells="20000">
<Points>
<DataArray  type="Float64"  NumberOfComponents="3"  format="ascii">-5 -5 0  -4.9 -5 0  -4.8 -5 0  -4.7 -5 0  -4.6 -5 0  -4.5 -5 0  -4.4 -5 0  -4.3 -5 0  -4.2 -5 0  -4.1 -5 0  -4 -5 0  -3.9 -5 0  -3.8 -5 0  -3.7 -5 0  -3.6 -5 0  -3.5 -5 0  -3.4 -5 0  -3.3 -5 0  -3.2 -5 0  -3.1 -5 0  -3 -5 0  -2.9 -5 0  -2.8 -5 0  -2.7 -5 0  -2.6 -5 0  -2.5 -5 0  -2.4 -5 0  -2.3 -5 0  -2.2 -5 0  -2.1 -5 0  -2 -5 0  -1.9 -5 0  -1.8 -5 0  -1.7 -5 0  -1.6 -5 0  -1.5 -5 0  -1.4 -5 0  -1.3 -5 0  -1.2 -5 0  -1.1 -5 0  -1 -5 0  -0.9000000000000004 -5 0  -0.7999999999999998 -5 0  -0.7000000000000002 -5 0  -0.5999999999999996 -5 0  -0.5 -5 0  -0.4000000000000004 -5 0  -0.2999999999999998 -5 0  -0.2000000000000002 -5 0  -0.09999999999999964 -5 0  0 -5 0  0.09999999999999964 -5 0  0.2000000000000002 -5 0  0.2999999999999998 -5 0  0.4000000000000004 -5 0  0.5 -5 0  0.5999999999999996 -5 0  0.7000000000000002 -5 0  0.7999999999999998 -5 0  0.9000000000000004 -5 0  1 -5 0  1.1 -5 0  1.2 -5 0  1.3 -5 0  1.4 -5 0  1.5 -5 0  1.6 -5 0  1.7 -5 0  1.8 -5 0  1.9 -5 0  2 -5 0  2.1 -5 0  2.2 -5 0  2.3 -5 0  2.4 -5 0  2.5 -5 0  2.6 -5 0  2.7 -5 0  2.8 -5 0  2.9 -5 0  3 -5 0  3.1 -5 0  3.199999999999999 -5 0  3.300000000000001 -5 0  3.4 -5 0  3.5 -5 0  3.6 -5 0  3.699999999999999 -5 0  3.800000000000001 -5 0  3.9 -5 0  4 -5 0  4.1 -5 0  4.199999999999999 -5 0  4.300000000000001 -5 0  4.4 -5 0  4.5 -5 0  4.6 -5 0  4.699999999999999 -5 0  4.800000000000001 -5 0  4.9 -5 0  5 -5 0  -5 -4.9 0  -4.9 -4.9 0  -4.8 -4.9 0  -4.7 -4.9 0  -4.6 -4.9 0  -4.5 -4.9 0  -4.4 -4.9 0  -4.3 -4.9 0  -4.2 -4.9 0  -4.1 -4.9 0  -4 -4.9 0  -3.9 -4.9 0  -3.8 -4.9 0  -3.7 -4.9 0  -3.6 -4.9 0  -3.5 -4.9 0  -3.4 -4.9 0  -3.3 -4.9 0  -3.2 -4.9 0  -3.1 -4.9 0  -3 -4.9 0  -2.9 -4.9 0  -2.8 -4.9 0  -2.7 -4.9 0  -2.6 -4.9 0  -2.5 -4.9 0  -2.4 -4.9 0  -2.3 -4.9 0  -2.2 -4.9 0  -2.1 -4.9 0  -2 -4.9 0  -1.9 -4.9 0  -1.8 -4.9 0  -1.7 -4.9 0  -1.6 -4.9 0  -1.5 -4.9 0  -1.4 -4.9 0  -1.3 -4.9 0  -1.2 -4.9 0  -1.1 -4.9 0  -1 -4.9 0  -0.9000000000000004 -4.9 0  -0.7999999999999998 -4.9 0  -0.7000000000000002 -4.9 0  -0.5999999999999996 -4.9 0  -0.5 -4.9 0  -0.4000000000000004 -4.9 0  -0.2999999999999998 -4.9 0  -0.2000000000000002 -4.9 0  -0.09999999999999964 -4.9 0  0 -4.9 0  0.09999999999999964 -4.9 0  0.2000000000000002 -4.9 0  0.2999999999999998 -4.9 0  0.4000000000000004 -4.9 0  0.5 -4.9 0  0.5999999999999996 -4.9 0  0.7000000000000002 -4.9 0  0.7999999999999998 -4.9 0  0.9000000000000004 -4.9 0  1 -4.9 0  1.1 -4.9 0  1.2 -4.9 0  1.3 -4.9 0  1.4 -4.9 0  1.5 -4.9 0  1.6 -4.9 0  1.7 -4.9 0  1.8 -4.9 0  1.9 -4.9 0  2 -4.9 0  2.1 -4.9 0  2.2 -4.9 0  2.3 -4.9 0  2.4 -4.9 0  2.5 -4.9 0  2.6 -4.9 0  2.7 -4.9 0  2.8 -4.9 0  2.9 -4.9 0  3 -4.9 0  3.1 -4.9 0  3.199999999999999 -4.9 0  3.300000000000001 -4.9 0  3.4 -4.9 0  3.5 -4.9 0  3.6 -4.9 0  3.699999999999999 -4.9 0  3.800000000000001 -4.9 0  3.9 -4.9 0  4 -4.9 0  4.1 -4.9 0  4.199999999999999 -4.9 0  4.300000000000001 -4.9 0  4.4 -4.9 0  4.5 -4.9 0  4.6 -4.9 0  4.699999999999999 -4.9 0  4.800000000000001 -4.9 0  4.9 -4.9 0  5 -4.9 0  -5 -4.8 0  -4.9 -4.8 0  -4.8 -4.8 0  -4.7 -4.8 0  -4.6 -4.8 0  -4.5 -4.8 0  -4.4 -4.8 0  -4.3 -4.8 0  -4.2 -4.8 0  -4.1 -4.8 0  -4 -4.8 0  -3.9 -4.8 0  -3.8 -4.8 0  -3.7 -4.8 0  -3.6 -4.8 0  -3.5 -4.8 0  -3.4 -4.8 0  -3.3 -4.8 0  -3.2 -4.8 0  -3.1 -4.8 0  -3 -4.8 0  -2.9 -4.8 0  -2.8 -4.8 0  -2.7 -4.8 0  -2.6 -4.8 0  -2.5 -4.8 0  -2.4 -4.8 0  -2.3 -4.8 0  -2.2 -4.8 0  -2.1 -4.8 0  -2 -4.8 0  -1.9 -4.8 0  -1.8 -4.8 0  -1.7 -4.8 0  -1.6 -4.8 0  -1.5 -4.8 0  -1.4 -4.8 0  -1.3 -4.8 0  -1.2 -4.8 0  -1.1 -4.8 0  -1 -4.8 0  -0.9000000000000004 -4.8 0  -0.7999999999999998 -4.8 0  -0.7000000000000002 -4.8 0  -0.5999999999999996 -4.8 0  -0.5 -4.8 0  -0.4000000000000004 -4.8 0  -0.2999999999999998 -4.8 0  -0.2000000000000002 -4.8 0  -0.09999999999999964 -4.8 0  0 -4.8 0  0.09999999999999964 -4.8 0  0.2000000000000002 -4.8 0  0.2999999999999998 -4.8 0  0.4000000000000004 -4.8 0  0.5 -4.8 0  0.5999999999999996 -4.8 0  0.7000000000000002 -4.8 0  0.7999999999999998 -4.8 0  0.9000000000000004 -4.8 0  1 -4.8 0  1.1 -4.8 0  1.2 -4.8 0  1.3 -4.8 0  1.4 -4.8 0  1.5 -4.8 0  1.6 -4.8 0  1.7 -4.8 0  1.8 -4.8 0  1.9 -4.8 0  2 -4.8 0  2.1 -4.8 0  2.2 -4.8 0  2.3 -4.8 0  2.4 -4.8 0  2.5 -4.8 0  2.6 -4.8 0  2.7 -4.8 0  2.8 -4.8 0  2.9 -4.8 0  3 -4.8 0  3.1 -4.8 0  3.199999999999999 -4.8 0  3.300000000000001 -4.8 0  3.4 -4.8 0  3.5 -4.8 0  3.6 -4.8 0  3.699999999999999 -4.8 0  3.800000000000001 -4.8 0  3.9 -4.8 0  4 -4.8 0  4.1 -4.8 0  4.199999999999999 -4.8 0  4.300000000000001 -4.8 0  4.4 -4.8 0  4.5 -4.8 0  4.6 -4.8 0  4.699999999999999 -4.8 0  4.800000000000001 -4.8 0  4.9 -4.8 0  5 -4.8 0  -5 -4.7 0  -4.9 -4.7 0  -4.8 -4.7 0  -4.7 -4.7 0  -4.6 -4.7 0  -4.5 -4.7 0  -4.4 -4.7 0  -4.3 -4.7 0  -4.2 -4.7 0  -4.1 -4.7 0  -4 -4.7 0  -3.9 -4.7 0  -3.8 -4.7 0  -3.7 -4.7 0  -3.6 -4.7 0  -3.5 -4.7 0  -3.4 -4.7 0  -3.3 -4.7 0  -3.2 -4.7 0  -3.1 -4.7 0  -3 -4.7 0  -2.9 -4.7 0  -2.8 -4.7 0  -2.7 -4.7 0  -2.6 -4.7 0  -2.5 -4.7 0  -2.4 -4.7 0  -2.3 -4.7 0  -2.2 -4.7 0  -2.1 -4.7 0  -2 -4.7 0  -1.9 -4.7 0  -1.8 -4.7 0  -1.7 -4.7 0  -1.6 -4.7 0  -1.5 -4.7 0  -1.4 -4.7 0  -1.3 -4.7 0  -1.2 -4.7 0  -1.1 -4.7 0  -1 -4.7 0  -0.9000000000000004 -4.7 0  -0.7999999999999998 -4.7 0  -0.7000000000000002 -4.7 0  -0.5999999999999996 -4.7 0  -0.5 -4.7 0  -0.4000000000000004 -4.7 0  -0.2999999999999998 -4.7 0  -0.2000000000000002 -4.7 0  -0.09999999999999964 -4.7 0  0 -4.7 0  0.09999999999999964 -4.7 0  0.2000000000000002 -4.7 0  0.2999999999999998 -4.7 0  0.4000000000000004 -4.7 0  0.5 -4.7 0  0.5999999999999996 -4.7 0  0.7000000000000002 -4.7 0  0.7999999999999998 -4.7 0  0.9000000000000004 -4.7 0  1 -4.7 0  1.1 -4.7 0  1.2 -4.7 0  1.3 -4.7 0  1.4 -4.7 0  1.5 -4.7 0  1.6 -4.7 0  1.7 -4.7 0  1.8 -4.7 0  1.9 -4.7 0  2 -4.7 0  2.1 -4.7 0  2.2 -4.7 0  2.3 -4.7 0  2.4 -4.7 0  2.5 -4.7 0  2.6 -4.7 0  2.7 -4.7 0  2.8 -4.7 0  2.9 -4.7 0  3 -4.7 0  3.1 -4.7 0  3.199999999999999 -4.7 0  3.300000000000001 -4.7 0  3.4 -4.7 0  3.5 -4.7 0  3.6 -4.7 0  3.699999999999999 -4.7 0  3.800000000000001 -4.7 0  3.9 -4.7 0  4 -4.7 0  4.1 -4.7 0  4.199999999999999 -4.7 0  4.300000000000001 -4.7 0  4.4 -4.7 0  4.5 -4.7 0  4.6 -4.7 0  4.699999999999999 -4.7 0  4.800000000000001 -4.7 0  4.9 -4.7 0  5 -4.7 0  -5 -4.6 0  -4.9 -4.6 0  -4.8 -4.6 0  -4.7 -4.6 0  -4.6 -4.6 0  -4.5 -4.6 0  -4.4 -4.6 0  -4.3 -4.6 0  -4.2 -4.6 0  -4.1 -4.6 0  -4 -4.6 0  -3.9 -4.6 0  -3.8 -4.6 0  -3.7 -4.6 0  -3.6 -4.6 0  -3.5 -4.6 0  -3.4 -4.6 0  -3.3 -4.6 0  -3.2 -4.6 0  -3.1 -4.6 0  -3 -4.6 0  -2.9 -4.6 0  -2.8 -4.6 0  -2.7 -4.6 0  -2.6 -4.6 0  -2.5 -4.6 0  -2.4 -4.6 0  -2.3 -4.6 0  -2.2 -4.6 0  -2.1 -4.6 0  -2 -4.6 0  -1.9 -4.6 0  -1.8 -4.6 0  -1.7 -4.6 0  -1.6 -4.6 0  -1.5 -4.6 0  -1.4 -4.6 0  -1.3 -4.6 0  -1.2 -4.6 0  -1.1 -4.6 0  -1 -4.6 0  -0.9000000000000004 -4.6 0  -0.7999999999999998 -4.6 0  -0.7000000000000002 -4.6 0  -0.5999999999999996 -4.6 0  -0.5 -4.6 0  -0.4000000000000004 -4.6 0  -0.2999999999999998 -4.6 0  -0.2000000000000002 -4.6 0  -0.09999999999999964 -4.6 0  0 -4.6 0  0.09999999999999964 -4.6 0  0.2000000000000002 -4.6 0  0.2999999999999998 -4.6 0  0.4000000000000004 -4.6 0  0.5 -4.6 0  0.5999999999999996 -4.6 0  0.7000000000000002 -4.6 0  0.7999999999999998 -4.6 0  0.9000000000000004 -4.6 0  1 -4.6 0  1.1 -4.6 0  1.2 -4.6 0  1.3 -4.6 0  1.4 -4.6 0  1.5 -4.6 0  1.6 -4.6 0  1.7 -4.6 0  1.8 -4.6 0  1.9 -4.6 0  2 -4.6 0  2.1 -4.6 0  2.2 -4.6 0  2.3 -4.6 0  2.4 -4.6 0  2.5 -4.6 0  2.6 -4.6 0  2.7 -4.6 0  2.8 -4.6 0  2.9 -4.6 0  3 -4.6 0  3.1 -4.6 0  3.199999999999999 -4.6 0  3.300000000000001 -4.6 0  3.4 -4.6 0  3.5 -4.6 0  3.6 -4.6 0  3.699999999999999 -4.6 0  3.800000000000001 -4.6 0  3.9 -4.6 0  4 -4.6 0  4.1 -4.6 0  4.199999999999999 -4.6 0  4.300000000000001 -4.6 0  4.4 -4.6 0  4.5 -4.6 0  4.6 -4.6 0  4.699999999999999 -4.6 0  4.800000000000001 -4.6 0  4.9 -4.6 0  5 -4.6 0  -5 -4.5 0  -4.9 -4.5 0  -4.8 -4.5 0  -4.7 -4.5 0  -4.6 -4.5 0  -4.5 -4.5 0  -4.4 -4.5 0  -4.3 -4.5 0  -4.2 -4.5 0  -4.1 -4.5 0  -4 -4.5 0  -3.9 -4.5 0  -3.8 -4.5 0  -3.7 -4.5 0  -3.6 -4.5 0  -3.5 -4.5 0  -3.4 -4.5 0  -3.3 -4.5 0  -3.2 -4.5 0  -3.1 -4.5 0  -3 -4.5 0  -2.9 -4.5 0  -2.8 -4.5 0  -2.7 -4.5 0  -2.6 -4.5 0  -2.5 -4.5 0  -2.4 -4.5 0  -2.3 -4.5 0  -2.2 -4.5 0  -2.1 -4.5 0  -2 -4.5 0  -1.9 -4.5 0  -1.8 -4.5 0  -1.7 -4.5 0  -1.6 -4.5 0  -1.5 -4.5 0  -1.4 -4.5 0  -1.3 -4.5 0  -1.2 -4.5 0  -1.1 -4.5 0  -1 -4.5 0  -0.9000000000000004 -4.5 0  -0.7999999999999998 -4.5 0  -0.7000000000000002 -4.5 0  -0.5999999999999996 -4.5 0  -0.5 -4.5 0  -0.4000000000000004 -4.5 0  -0.2999999999999998 -4.5 0  -0.2000000000000002 -4.5 0  -0.09999999999999964 -4.5 0  0 -4.5 0  0.09999999999999964 -4.5 0  0.2000000000000002 -4.5 0  0.2999999999999998 -4.5 0  0.4000000000000004 -4.5 0  0.5 -4.5 0  0.5999999999999996 -4.5 0  0.7000000000000002 -4.5 0  0.7999999999999998 -4.5 0  0.9000000000000004 -4.5 0  1 -4.5 0  1.1 -4.5 0  1.2 -4.5 0  1.3 -4.5 0  1.4 -4.5 0  1.5 -4.5 0  1.6 -4.5 0  1.7 -4.5 0  1.8 -4.5 0  1.9 -4.5 0  2 -4.5 0  2.1 -4.5 0  2.2 -4.5 0  2.3 -4.5 0  2.4 -4.5 0  2.5 -4.5 0  2.6 -4.5 0  2.7 -4.5 0  2.8 -4.5 0  2.9 -4.5 0  3 -4.5 0  3.1 -4.5 0  3.199999999999999 -4.5 0  3.300000000000001 -4.5 0  3.4 -4.5 0  3.5 -4.5 0  3.6 -4.5 0  3.699999999999999 -4.5 0  3.800000000000001 -4.5 0  3.9 -4.5 0  4 -4.5 0  4.1 -4.5 0  4.199999999999999 -4.5 0  4.300000000000001 -4.5 0  4.4 -4.5 0  4.5 -4.5 0  4.6 -4.5 0  4.699999999999999 -4.5 0  4.800000000000001 -4.5 0  4.9 -4.5 0  5 -4.5 0  -5 -4.4 0  -4.9 -4.4 0  -4.8 -4.4 0  -4.7 -4.4 0  -4.6 -4.4 0  -4.5 -4.4 0  -4.4 -4.4 0  -4.3 -4.4 0  -4.2 -4.4 0  -4.1 -4.4 0  -4 -4.4 0  -3.9 -4.4 0  -3.8 -4.4 0  -3.7 -4.4 0  -3.6 -4.4 0  -3.5 -4.4 0  -3.4 -4.4 0  -3.3 -4.4 0  -3.2 -4.4 0  -3.1 -4.4 0  -3 -4.4 0  -2.9 -4.4 0  -2.8 -4.4 0  -2.7 -4.4 0  -2.6 -4.4 0  -2.5 -4.4 0  -2.4 -4.4 0  -2.3 -4.4 0  -2.2 -4.4 0  -2.1 -4.4 0  -2 -4.4 0  -1.9 -4.4 0  -1.8 -4.
[...]
<PointData  Vectors="f_17"> 
<DataArray  type="Float64"  Name="f_17"  NumberOfComponents="3" format="ascii">1.5000000000000019e-01 0.0000000000000000e+00 0.0000000000000000e+00  1.4999999999999999e-01 1.1536472593223152e-16 0.0000000000000000e+00  1.5000000000000008e-01 -2.5433324736110065e-17 0.0000000000000000e+00  1.5000000000000011e-01 -1.7467509039568268e-16 0.0000000000000000e+00  1.5000000000000022e-01 2.6696168586480646e-16 0.0000000000000000e+00  1.4999999999999999e-01 -1.3991434362293499e-16 0.0000000000000000e+00  1.5000000000000027e-01 9.2136486682475534e-16 0.0000000000000000e+00  1.5000000000000036e-01 1.7801907388970505e-16 0.0000000000000000e+00  1.4999999999999952e-01 -1.1558627609730928e-15 0.0000000000000000e+00  1.5000000000000074e-01 4.5787006197953558e-16 0.0000000000000000e+00  1.5000000000000144e-01 3.2765445350884102e-15 0.0000000000000000e+00  1.4999999999999600e-01 4.6258450975778532e-15 0.0000000000000000e+00  1.4999999999998054e-01 4.3914302523993947e-14 0.0000000000000000e+00  1.4999999999991842e-01 1.7077382548154844e-13 0.0000000000000000e+00  1.4999999999970320e-01 3.4470912553739664e-13 0.0000000000000000e+00  1.4999999999925800e-01 4.6017591231397840e-13 0.0000000000000000e+00  1.4999999999863381e-01 5.1120246549695744e-13 0.0000000000000000e+00  1.4999999999763056e-01 1.3180948934229390e-12 0.0000000000000000e+00  1.4999999999445149e-01 6.8942082359715525e-12 0.0000000000000000e+00  1.4999999998270264e-01 2.6102924825156253e-11 0.0000000000000000e+00  1.4999999994847882e-01 6.4591035678738350e-11 0.0000000000000000e+00  1.4999999987755147e-01 1.0552207026059500e-10 0.0000000000000000e+00  1.4999999978167325e-01 1.0422294716464037e-10 0.0000000000000000e+00  1.4999999972059855e-01 2.5933517628858376e-11 0.0000000000000000e+00  1.4999999976757333e-01 -9.8562235475568362e-11 0.0000000000000000e+00  1.4999999992145588e-01 -1.7635256016415944e-10 0.0000000000000000e+00  1.5000000007387992e-01 -1.4002579290582570e-10 0.0000000000000000e+00  1.5000000011198969e-01 -2.6616283716646914e-11 0.0000000000000000e+00  1.5000000004629468e-01 5.8338256773341072e-11 0.0000000000000000e+00  1.4999999998384897e-01 5.6693429856653209e-11 0.0000000000000000e+00  1.4999999998276406e-01 9.0998580127155771e-12 0.0000000000000000e+00  1.5000000000282721e-01 -1.5671300152966207e-11 0.0000000000000000e+00  1.5000000000123245e-01 -5.9702727008427934e-12 0.0000000000000000e+00  1.4999999999407895e-01 3.9080677744288539e-12 0.0000000000000000e+00  1.5000000000171509e-01 -7.5389655482936736e-13 0.0000000000000000e+00  1.5000000000749886e-01 -3.4879432051601490e-12 0.0000000000000000e+00  1.4999999999919861e-01 2.3917937619829487e-12 0.0000000000000000e+00  1.4999999999371544e-01 3.9428403846666552e-12 0.0000000000000000e+00  1.5000000000015262e-01 -1.8541560757983484e-12 0.0000000000000000e+00  1.5000000000431765e-01 -3.3686860114298916e-12 0.0000000000000000e+00  1.4999999999987640e-01 1.2147908102109539e-12 0.0000000000000000e+00  1.4999999999735619e-01 2.3585477744012398e-12 0.0000000000000000e+00  1.5000000000028441e-01 -8.6665651151041640e-13 0.0000000000000000e+00  1.5000000000147093e-01 -1.4277731445125098e-12 0.0000000000000000e+00  1.4999999999962491e-01 6.7592919432766850e-13 0.0000000000000000e+00  1.4999999999927635e-01 7.4277763546539695e-13 0.0000000000000000e+00  1.5000000000035033e-01 -5.1733774567760084e-13 0.0000000000000000e+00  1.5000000000028893e-01 -3.0476018790042672e-13 0.0000000000000000e+00  1.4999999999974475e-01 3.5546482123704739e-13 0.0000000000000000e+00  1.4999999999993124e-01 6.6471452744099647e-14 0.0000000000000000e+00  1.5000000000014757e-01 -2.0735489772078922e-13 0.0000000000000000e+00  1.4999999999998195e-01 3.4204255816655005e-14 0.0000000000000000e+00  1.4999999999993630e-01 9.3851104017056803e-14 0.0000000000000000e+00  1.5000000000003386e-01 -5.3359146099094437e-14 0.0000000000000000e+00  1.5000000000001612e-01 -2.4783267402468981e-14 0.0000000000000000e+00  1.4999999999997715e-01 3.6761292836921284e-14 0.0000000000000000e+00  1.5000000000000338e-01 -4.9016905764535733e-15 0.0000000000000000e+00  1.5000000000000896e-01 -1.5535007298670251e-14 0.0000000000000000e+00  1.4999999999999378e-01 1.0311156436830459e-14 0.0000000000000000e+00  1.4999999999999927e-01 2.2337670311187493e-15 0.0000000000000000e+00  1.5000000000000338e-01 -5.5778138125369127e-15 0.0000000000000000e+00  1.4999999999999863e-01 2.1994490039683313e-15 0.0000000000000000e+00  1.4999999999999941e-01 1.6234774798531334e-15 0.0000000000000000e+00  1.5000000000000110e-01 -2.3121984397972902e-15 0.0000000000000000e+00  1.4999999999999983e-01 5.3588995471977681e-16 0.0000000000000000e+00  1.4999999999999963e-01 1.8333984185232308e-16 0.0000000000000000e+00  1.5000000000000030e-01 -6.7942605168315632e-16 0.0000000000000000e+00  1.4999999999999980e-01 2.3743331063457661e-17 0.0000000000000000e+00  1.4999999999999988e-01 -5.8236896453726474e-17 0.0000000000000000e+00  1.5000000000000033e-01 2.9160938534098156e-17 0.0000000000000000e+00  1.4999999999999974e-01 3.6409420286084716e-16 0.0000000000000000e+00  1.5000000000000005e-01 3.3162147432770546e-16 0.0000000000000000e+00  1.5000000000000005e-01 9.6265060030354873e-17 0.0000000000000000e+00  1.5000000000000019e-01 2.1115433853397401e-16 0.0000000000000000e+00  1.4999999999999999e-01 -9.1432069192011348e-17 0.0000000000000000e+00  1.5000000000000011e-01 -1.4672823020440948e-16 0.0000000000000000e+00  1.5000000000000011e-01 -1.3522462460325472e-16 0.0000000000000000e+00  1.5000000000000022e-01 6.2745289003713350e-16 0.0000000000000000e+00  1.5000000000000005e-01 -6.7862300622084185e-16 0.0000000000000000e+00  1.5000000000000011e-01 1.0308016987857618e-16 0.0000000000000000e+00  1.5000000000000011e-01 -4.0410875536510544e-16 0.0000000000000000e+00  1.5000000000000005e-01 6.6603505240063091e-16 0.0000000000000000e+00  1.5000000000000008e-01 -3.0527327901763460e-16 0.0000000000000000e+00  1.4999999999999991e-01 1.5006066556398215e-16 0.0000000000000000e+00  1.4999999999999999e-01 2.5447132030175397e-16 0.0000000000000000e+00  1.5000000000000022e-01 3.1036161956364591e-16 0.0000000000000000e+00  1.5000000000000016e-01 4.1508268612130710e-16 0.0000000000000000e+00  1.5000000000000002e-01 -6.2098109544325045e-17 0.0000000000000000e+00  1.4999999999999988e-01 5.9088294855195288e-17 0.0000000000000000e+00  1.4999999999999997e-01 -3.3695591435558480e-16 0.0000000000000000e+00  1.4999999999999997e-01 -3.8334591508428269e-16 0.0000000000000000e+00  1.5000000000000002e-01 -3.8738314538393719e-16 0.0000000000000000e+00  1.4999999999999994e-01 -2.8967798032713640e-16 0.0000000000000000e+00  1.4999999999999999e-01 4.8628879414555841e-16 0.0000000000000000e+00  1.5000000000000002e-01 4.3289977498052303e-17 0.0000000000000000e+00  1.5000000000000005e-01 2.3459558817133834e-16 0.0000000000000000e+00  1.5000000000000008e-01 -7.8121921201362867e-18 0.0000000000000000e+00  1.4999999999999988e-01 -1.2978892293280586e-16 0.0000000000000000e+00  1.4999999999999999e-01 -3.4272941159328166e-16 0.0000000000000000e+00  1.5000000000000008e-01 9.2474081121597055e-17 0.0000000000000000e+00  1.4999999999999997e-01 0.0000000000000000e+00 0.0000000000000000e+00  1.4999999999999999e-01 0.0000000000000000e+00 1.0136316155025564e-16  1.4999999999999999e-01 3.1084969878487699e-16 3.1509530463752200e-16  1.5000000000000022e-01 -5.2933969506333921e-16 3.0186427169824995e-16  1.5000000000000005e-01 -1.6662843350539831e-16 -2.7680211703611552e-16  1.4999999999999980e-01 -3.1220081469327128e-16 -1.1408543639667235e-16  1.5000000000000036e-01 3.9442568525489360e-16 1.0059817637269859e-16  1.5000000000000002e-01 1.0817603783174267e-16 3.9027276662138011e-16  1.4999999999999958e-01 -2.4056329457657665e-16 -5.1686272568355042e-16  1.5000000000000044e-01 2.6711864608146474e-16 7.5643630163805596e-16  1.5000000000000033e-01 2.0410174163592952e-15 1.2445834701322818e-16  1.4999999999999800e-01 -2.6948770190052893e-15 -4.0826775418657996e-15  1.5000000000000036e-01 -4.1039382973901204e-15 -6.6096365261783041e-16  1.5000000000001348e-01 -2.0387926121531144e-14 2.5773882202529421e-14  1.5000000000005531e-01 -1.2958794365437802e-13 1.2747005665945003e-13  1.5000000000022173e-01 -3.5264803089026846e-13 5.3425596324516935e-13  1.5000000000066147e-01 -5.6526163086230058e-13 1.5943894424332059e-12  1.5000000000138911e-01 -6.6054440666514435e-13 3.3766046584978605e-12  1.5000000000242023e-01 -1.0130676743898019e-12 5.8991326747746317e-12  1.5000000000486430e-01 -4.3808118006596010e-12 1.1676915142107380e-11  1.5000000001363642e-01 -1.9393391462985749e-11 3.2539380333486144e-11  1.5000000004163019e-01 -5.7395166662524074e-11 9.9082247128543615e-11  1.5000000010812459e-01 -1.1228796983034354e-10 2.5359940380449899e-10  1.5000000021664156e-01 -1.3989497272441391e-10 4.9516207727277553e-10  1.5000000031934568e-01 -8.1880674935972655e-11 7.0355941343432585e-10  1.5000000032347344e-01 6.1481299028883438e-11 6.7198591523795574e-10  1.5000000018031417e-01 1.9475370987071868e-10 3.1929281123635217e-10  1.4999999997350891e-01 2.0549714969750445e-10 -1.3344522940346913e-10  1.4999999986145363e-01 8.8629677326501807e-11 -3.3414080963981815e-10  1.4999999990309540e-01 -4.1638006079756894e-11 -1.9545011261722138e-10  1.4999999999688721e-01 -7.9424397688663087e-11 1.9374040923423961e-11  1.5000000002777825e-01 -3.4172380433082715e-11 6.7179417588689747e-11  1.5000000000421063e-01 1.1154610775374491e-11 3.4924480471724808e-12  1.4999999999477098e-01 1.3438241424698135e-11 -1.1665450506563894e-11  1.5000000000607369e-01 -9.4935016091661463e-13 1.6462506263258870e-11  1.5000000000309233e-01 -1.6013023281294466e-12 4.2601843329991158e-12  1.4999999999090255e-01 3.6219980147496612e-12 -2.3696479818651579e-11  1.4999999999573610e-01 -2.2164619012724979e-13 -7.1120124379402805e-12  1.5000000000746738e-01 -4.9556572797955016e-12 1.9873402816686936e-11  1.5000000000392719e-01 -4.9554706433149214e-13 7.1736746239015731e-12  1.4999999999489461e-01 4.2662302146889103e-12 -1.3760871379540420e-11  1.4999999999736169e-01 8.0110972606348239e-13 -4.8442883620331095e-12  1.5000000000328276e-01 -3.0518498007675388e-12 8.7939265850263163e-12  1.5000000000135880e-01 -5.6992524626877179e-13 2.2903684548945412e-12  1.4999999999796251e-01 2.0032430366801230e-12 -5.3251161765577177e-12  1.4999999999952079e-01 1.9908040149025965e-13 -5.3016839214629373e-13  1.5000000000119115e-01 -1.2304713825173208e-12 2.9911185260647865e-12  1.5000000000001382e-01 7.5625798216885556e-14 -3.3460011845300407e-13  1.4999999999937674e-01 6.8599511152998605e-13 -1.4769601694838989e-12  1.5000000000015584e-01 -1.9746476576954784e-13 5.6322440675261412e-13  1.5000000000026845e-01 -3.2278899991674926e-13 5.7623919109995325e-13  1.4999999999983826e-01 1.9966523337553499e-13 -4.6376710539779465e-13  1.4999999999992425e-01 1.0603934400833975e-13 -1.2013818774731579e-13  1.5000000000010597e-01 -1.4019436417841267e-13 2.6885825105785801e-13  1.4999999999999492e-01 -1.6133925824969393e-15 -4.9422960706162732e-14  1.4999999999995206e-01 7.1733980916512664e-14 -1.0634803862824872e-13  1.5000000000002359e-01 -3.0256568393077759e-14 7.0510727697021778e-14  1.5000000000001179e-01 -2.1748190549771228e-14 1.6400960084882433e-14  1.4999999999998387e-01 2.5354861077049808e-14 -4.0367435783239139e-14  1.5000000000000305e-01 -2.1677536764398959e-15 1.3142416733475672e-14  1.5000000000000599e-01 -1.0897868437486546e-14 1.1412940296155265e-14  1.4999999999999561e-01 7.2111797524823045e-15 -1.2348875104528265e-14  1.4999999999999994e-01 9.9321946551707948e-16 1.9981015897158606e-15  1.5000000000000213e-01 -4.2726131481575633e-15 4.4399443325556397e-15  1.4999999999999883e-01 1.6228092613697534e-15 -3.7334121733695457e-15  1.4999999999999980e-01 4.6603054956778301e-16 2.1324477234788750e-16  1.5000000000000063e-01 -1.1767046487082664e-15 1.4784288680113150e-15  1.4999999999999949e-01 5.9787736146483675e-16 -9.9712089312912639e-16  1.4999999999999994e-01 1.3814236131202419e-16 4.3190785871945638e-16  1.5000000000000022e-01 -8.8016957347168539e-18 4.1733520888075238e-16  1.4999999999999999e-01 6.0122225869914541e-16 3.4339507764017887e-17  1.4999999999999999e-01 1.5805848019829281e-16 4.8439110504492648e-16  1.5000000000000008e-01 -5.3954230692175210e-16 1.8686669585847124e-16  1.5000000000000005e-01 4.0613546576096186e-16 -6.9115879416396750e-17  1.5000000000000013e-01 -2.2314129090618545e-16 3.1104307760275683e-16  1.5000000000000011e-01 1.2046808100806341e-17 -1.8539101957532544e-16  1.5000000000000013e-01 -4.1532872012005725e-16 1.1315214172567308e-16  1.5000000000000008e-01 1.3721520920561203e-16 9.6545087977874725e-17  1.4999999999999997e-01 -5.9398759860524141e-16 3.3530962906478359e-16  1.5000000000000002e-01 -1.2738230063133854e-16 1.0395121432499947e-16  1.5000000000000013e-01 2.4533025979553104e-16 8.9339680511822233e-17  1.5000000000000005e-01 2.0080978025702008e-17 3.4024825284052115e-16  1.5000000000000016e-01 2.0278613346401935e-16 -7.0249576760609509e-17  1.5000000000000013e-01 -2.0790561162132594e-17 -3.3965095235195929e-16  1.5000000000000008e-01 3.5324816089002606e-16 -4.1873464775964144e-16  1.5000000000000005e-01 5.1830027137648832e-17 -2.3607863438753853e-16  1.5000000000000005e-01 -9.2159245527790177e-19 -1.3504702748332433e-16  1.5000000000000002e-01 1.8999872787982904e-16 1.5800076254830017e-16  1.5000000000000005e-01 6.8878562445882466e-18 -4.9955992805001659e-16  1.5000000000000008e-01 1.3105692996139296e-17 1.2786056347868233e-16  1.5000000000000002e-01 1.9024021724386090e-16 2.0315136619682526e-16  1.5000000000000005e-01 -3.5133707274977396e-16 -8.1807528384388281e-17  1.4999999999999999e-01 -3.5999355885583615e-16 4.7271710223468453e-16  1.4999999999999986e-01 -2.1161096367193773e-16 -1.3648481825816201e-16  1.5000000000000016e-01 5.0355764517741578e-16 -6.9425827810527725e-17  1.5000000000000005e-01 2.6633772414291404e-16 -1.5698794641068662e-16  1.5000000000000005e-01 6.8219289096570776e-16 -2.4458660414535630e-16  1.4999999999999999e-01 -1.8755854659340220e-16 1.0870163122659586e-16  1.5000000000000002e-01 -6.0292033283801574e-16 -4.1871561268070923e-16  1.5000000000000016e-01 -5.6922696708781341e-17 -5.4038874992966035e-16  1.5000000000000005e-01 -7.3131282525340513e-17 -4.2378215709357986e-16  1.5000000000000024e-01 0.0000000000000000e+00 -4.9225361034919648e-16  1.4999999999999983e-01 0.0000000000000000e+00 1.1962402340554125e-16  1.5000000000000011e-01 -3.0895376413637646e-16 -1.0975634736683943e-16  1.4999999999999999e-01 -9.2517271790710442e-17 -1.7391436042915611e-16  1.4999999999999999e-01 -8.2882736281009016e-16 2.7847744397652635e-16  1.5000000000000019e-01 4.9685923854816904e-16 4.6168924164808236e-17  1.5000000000000008e-01 5.4239922900971997e-16 8.5832577960986313e-17  1.4999999999999986e-01 -1.6247385036973659e-16 -6.9185064576212224e-16  1.5000000000000044e-01 1.0484011318088230e-15 5.4710688511119507e-16  1.5000000000000005e-01 3.8911451379836442e-16 7.5392258316475254e-16  1.4999999999999888e-01 -2.7935625499016893e-15 -3.0076658206624643e-15  1.5000000000000130e-01 -4.8600159410144288e-16 3.9060446852248709e-15  1.5000000000000427e-01 8.5578843752532229e-15 1.2878088782137030e-14  1.4999999999999225e-01 1.1254494459771437e-14 -1.6203208180550053e-14  1.4999999999995425e-01 9.6619991925917515e-14 -1.2471078962176263e-13  1.4999999999981181e-01 4.0696609242136729e-13 -5.9169076617681531e-13  1.4999999999931113e-01 8.6921718201038608e-13 -2.2587902034663408e-12  1.4999999999822461e-01 1.2371516859929096e-12 -5.9200789288101758e-12  1.4999999999656416e-01 1.6094023069808237e-12 -1.1513994343577377e-11  1.4999999999368044e-01 3.9769436179622967e-12 -2.0590717913870395e-11  1.4999999998530400e-01 1.7105301261260607e-11 -4.6195685038913849e-11  1.4999999995774513e-01 5.9656784402719068e-11 -1.3379080075962108e-10  1.4999999988346049e-01 1.4143416606219161e-10 -3.7650555010497129e-10  1.4999999973802794e-01 2.2101578257304962e-10 -8.5458363879315128e-10  1.4999999955370283e-01 2.0012263586667076e-10 -1.4538443760863880e-09  1.4999999945657685e-01 1.6344233100332239e-11 -1.7504272418839655e-09  1.4999999958338897e-01 -2.4056832780554095e-10 -1.3022763831208519e-09  1.4999999990374666e-01 -3.6604861136937150e-10 -2.3664503604847134e-10  1.5000000018235699e-01 -2.4962645002703661e-10 6.5384560978049373e-10  1.5000000021521512e-01 -1.1243530022495295e-11 7.1595460754246228e-10  1.5000000006656852e-01 1.3024924967575490e-10 1.9907096033078493e-10  1.4999999995950936e-01 9.8906885604313355e-11 -1.4941079212521185e-10  1.4999999997503841e-01 6.0675244714311750e-12 -8.4684291857106043e-11  1.5000000000933533e-01 -2.7794318560851539e-11 3.1342389619181538e-11  1.4999999999614777e-01 -6.7423359385498293e-12 -1.4241820265768962e-11  1.4999999998737656e-01 4.7549168612188466e-12 -4.0550828352599376e-11  1.5000000000991451e-01 -4.6700690747742358e-12 3.6089480874404301e-11  1.5000000001563865e-01 -3.8504266746341397e-12 5.1455757297861718e-11  1.4999999999266236e-01 7.7344815045407910e-12 -2.7175950337852992e-11  1.4999999998662114e-01 5.5869650289801584e-12 -4.4449565676916643e-11  1.5000000000461408e-01 -6.2547621477609218e-12 1.7234075422840187e-11  1.5000000000921968e-01 -5.3005770158423254e-12 3.0623433428348861e-11  1.4999999999683708e-01 4.3015046695303765e-12 -1.1671054030535037e-11  1.4999999999452915e-01 3.8185431780754133e-12 -1.8031892090838220e-11  1.5000000000238928e-01 -2.9421026677463410e-12 8.5854707413261314e-12  1.5000000000280422e-01 -2.2375530412283143e-12 9.0904732082878549e-12  1.4999999999821584e-01 2.0448287153097059e-12 -6.2372189328562437e-12  1.4999999999883901e-01 1.0292036921843537e-12 -3.6373252889614144e-12  1.5000000000120620e-01 -1.3721687227888506e-12 4.1091330763870394e-12  1.5000000000029015e-01 -2.7847299589430416e-13 8.0141033453876379e-13  1.4999999999930375e-01 8.2867528532900982e-13 -2.3087263333565145e-12  1.5000000000007324e-01 -8.6443883584260941e-14 3.3250820729629829e-13  1.5000000000031888e-01 -4.1355799552272940e-13 1.0184040793055645e-12  1.4999999999984776e-01 1.8902802554724672e-13 -5.3776402392673086e-13  1.4999999999990588e-01 1.4237171633874533e-13 -2.7572769266521413e-13  1.5000000000011199e-01 -1.5358712577242853e-13 3.7073169593603676e-13  1.4999999999999555e-01 -6.2081974801555285e-15 -3.4576135251225564e-14  1.4999999999994976e-01 7.9452927976219259e-14 -1.5658751063795456e-13  1.5000000000002633e-01 -3.5205499560627288e-14 9.2515461916461854e-14  1.5000000000000968e-01 -2.1194828924238140e-14 2.4392947220875705e-14  1.4999999999998279e-01 2.8570988751680064e-14 -5.5064243098728593e-14  1.5000000000000524e-01 -5.4137656241099989e-15 1.9606543523859845e-14  1.5000000000000477e-01 -1.0141019069458432e-14 1.3355067529270965e-14  1.4999999999999478e-01 8.6650397631064878e-15 -1.6774189860757156e-14  1.5000000000000097e-01 -7.0998208315718214e-16 4.5719137824954967e-15  1.5000000000000188e-01 -3.7750246726190524e-15 5.1277681308309550e-15  1.4999999999999863e-01 2.8557387548319982e-15 -4.8633883325403891e-15  1.5000000000000036e-01 -1.9944411785087832e-16 1.6602262957475051e-15  1.5000000000000052e-01 -1.2154568764680380e-15 1.8315449853304815e-15  1.4999999999999966e-01 9.8448531740777881e-16 -9.5201304866705256e-16  1.5000000000000011e-01 -2.1464203604887732e-16 1.1043375310406355e-15  1.4999999999999997e-01 -2.9227266239525670e-16 8.3923974101993782e-17  1.4999999999999991e-01 3.0405712147421772e-16 -6.1387895927940307e-17  1.5000000000000005e-01 1.9193915989277124e-16 5.5578961852198190e-16  1.5000000000000002e-01 -5.0287230211755670e-17 -2.5930891179036130e-16  1.4999999999999997e-01 -8.1206890520559239e-17 -2.4469776937968551e-16  1.4999999999999999e-01 9.1198662671708212e-17 1.6605227790087100e-16  1.5000000000000019e-01 -1.6853129078628016e-16 -8.0718421811971169e-17  1.4999999999999999e-01 3.3271109335351342e-16 -4.9396780551214610e-17  1.5000000000000011e-01 1.4596794096044058e-16 2.2888815854691934e-16  1.500