<?xml version="1.0"?>
<VTKFile type="UnstructuredGrid"  version="0.1"  >
<UnstructuredGrid>
<Piece  NumberOfPoints="10201" NumberOfCells="20000">
<Points>
<DataArray  type="Float64"  NumberOfComponents="3"  format="ascii">-5 -5 0  -4.9 -5 0  -4.8 -5 0  -4.7 -5 0  -4.6 -5 0  -4.5 -5 0  -4.4 -5 0  -4.3 -5 0  -4.2 -5 0  -4.1 -5 0  -4 -5 0  -3.9 -5 0  -3.8 -5 0  -3.7 -5 0  -3.6 -5 0  -3.5 -5 0  -3.4 -5 0  -3.3 -5 0  -3.2 -5 0  -3.1 -5 0  -3 -5 0  -2.9 -5 0  -2.8 -5 0  -2.7 -5 0  -2.6 -5 0  -2.5 -5 0  -2.4 -5 0  -2.3 -5 0  -2.2 -5 0  -2.1 -5 0  -2 -5 0  -1.9 -5 0  -1.8 -5 0  -1.7 -5 0  -1.6 -5 0  -1.5 -5 0  -1.4 -5 0  -1.3 -5 0  -1.2 -5 0  -1.1 -5 0  -1 -5 0  -0.9000000000000004 -5 0  -0.7999999999999998 -5 0  -0.7000000000000002 -5 0  -0.5999999999999996 -5 0  -0.5 -5 0  -0.4000000000000004 -5 0  -0.2999999999999998 -5 0  -0.2000000000000002 -5 0  -0.09999999999999964 -5 0  0 -5 0  0.09999999999999964 -5 0  0.2000000000000002 -5 0  0.2999999999999998 -5 0  0.4000000000000004 -5 0  0.5 -5 0  0.5999999999999996 -5 0  0.7000000000000002 -5 0  0.7999999999999998 -5 0  0.9000000000000004 -5 0  1 -5 0  1.1 -5 0  1.2 -5 0  1.3 -5 0  1.4 -5 0  1.5 -5 0  1.6 -5 0  1.7 -5 0  1.8 -5 0  1.9 -5 0  2 -5 0  2.1 -5 0  2.2 -5 0  2.3 -5 0  2.4 -5 0  2.5 -5 0  2.6 -5 0  2.7 -5 0  2.8 -5 0  2.9 -5 0  3 -5 0  3.1 -5 0  3.199999999999999 -5 0  3.300000000000001 -5 0  3.4 -5 0  3.5 -5 0  3.6 -5 0  3.699999999999999 -5 0  3.800000000000001 -5 0  3.9 -5 0  4 -5 0  4.1 -5 0  4.199999999999999 -5 0  4.300000000000001 -5 0  4.4 -5 0  4.5 -5 0  4.6 -5 0  4.699999999999999 -5 0  4.800000000000001 -5 0  4.9 -5 0  5 -5 0  -5 -4.9 0  -4.9 -4.9 0  -4.8 -4.9 0  -4.7 -4.9 0  -4.6 -4.9 0  -4.5 -4.9 0  -4.4 -4.9 0  -4.3 -4.9 0  -4.2 -4.9 0  -4.1 -4.9 0  -4 -4.9 0  -3.9 -4.9 0  -3.8 -4.9 0  -3.7 -4.9 0  -3.6 -4.9 0  -3.5 -4.9 0  -3.4 -4.9 0  -3.3 -4.9 0  -3.2 -4.9 0  -3.1 -4.9 0  -3 -4.9 0  -2.9 -4.9 0  -2.8 -4.9 0  -2.7 -4.9 0  -2.6 -4.9 0  -2.5 -4.9 0  -2.4 -4.9 0  -2.3 -4.9 0  -2.2 -4.9 0  -2.1 -4.9 0  -2 -4.9 0  -1.9 -4.9 0  -1.8 -4.9 0  -1.7 -4.9 0  -1.6 -4.9 0  -1.5 -4.9 0  -1.4 -4.9 0  -1.3 -4.9 0  -1.2 -4.9 0  -1.1 -4.9 0  -1 -4.9 0  -0.9000000000000004 -4.9 0  -0.7999999999999998 -4.9 0  -0.7000000000000002 -4.9 0  -0.5999999999999996 -4.9 0  -0.5 -4.9 0  -0.4000000000000004 -4.9 0  -0.2999999999999998 -4.9 0  -0.2000000000000002 -4.9 0  -0.09999999999999964 -4.9 0  0 -4.9 0  0.09999999999999964 -4.9 0  0.2000000000000002 -4.9 0  0.2999999999999998 -4.9 0  0.4000000000000004 -4.9 0  0.5 -4.9 0  0.5999999999999996 -4.9 0  0.7000000000000002 -4.9 0  0.7999999999999998 -4.9 0  0.9000000000000004 -4.9 0  1 -4.9 0  1.1 -4.9 0  1.2 -4.9 0  1.3 -4.9 0  1.4 -4.9 0  1.5 -4.9 0  1.6 -4.9 0  1.7 -4.9 0  1.8 -4.9 0  1.9 -4.9 0  2 -4.9 0  2.1 -4.9 0  2.2 -4.9 0  2.3 -4.9 0  2.4 -4.9 0  2.5 -4.9 0  2.6 -4.9 0  2.7 -4.9 0  2.8 -4.9 0  2.9 -4.9 0  3 -4.9 0  3.1 -4.9 0  3.199999999999999 -4.9 0  3.300000000000001 -4.9 0  3.4 -4.9 0  3.5 -4.9 0  3.6 -4.9 0  3.699999999999999 -4.9 0  3.800000000000001 -4.9 0  3.9 -4.9 0  4 -4.9 0  4.1 -4.9 0  4.199999999999999 -4.9 0  4.300000000000001 -4.9 0  4.4 -4.9 0  4.5 -4.9 0  4.6 -4.9 0  4.699999999999999 -4.9 0  4.800000000000001 -4.9 0  4.9 -4.9 0  5 -4.9 0  -5 -4.8 0  -4.9 -4.8 0  -4.8 -4.8 0  -4.7 -4.8 0  -4.6 -4.8 0  -4.5 -4.8 0  -4.4 -4.8 0  -4.3 -4.8 0  -4.2 -4.8 0  -4.1 -4.8 0  -4 -4.8 0  -3.9 -4.8 0  -3.8 -4.8 0  -3.7 -4.8 0  -3.6 -4.8 0  -3.5 -4.8 0  -3.4 -4.8 0  -3.3 -4.8 0  -3.2 -4.8 0  -3.1 -4.8 0  -3 -4.8 0  -2.9 -4.8 0  -2.8 -4.8 0  -2.7 -4.8 0  -2.6 -4.8 0  -2.5 -4.8 0  -2.4 -4.8 0  -2.3 -4.8 0  -2.2 -4.8 0  -2.1 -4.8 0  -2 -4.8 0  -1.9 -4.8 0  -1.8 -4.8 0  -1.7 -4.8 0  -1.6 -4.8 0  -1.5 -4.8 0  -1.4 -4.8 0  -1.3 -4.8 0  -1.2 -4.8 0  -1.1 -4.8 0  -1 -4.8 0  -0.9000000000000004 -4.8 0  -0.7999999999999998 -4.8 0  -0.7000000000000002 -4.8 0  -0.5999999999999996 -4.8 0  -0.5 -4.8 0  -0.4000000000000004 -4.8 0  -0.2999999999999998 -4.8 0  -0.2000000000000002 -4.8 0  -0.09999999999999964 -4.8 0  0 -4.8 0  0.09999999999999964 -4.8 0  0.2000000000000002 -4.8 0  0.2999999999999998 -4.8 0  0.4000000000000004 -4.8 0  0.5 -4.8 0  0.5999999999999996 -4.8 0  0.7000000000000002 -4.8 0  0.7999999999999998 -4.8 0  0.9000000000000004 -4.8 0  1 -4.8 0  1.1 -4.8 0  1.2 -4.8 0  1.3 -4.8 0  1.4 -4.8 0  1.5 -4.8 0  1.6 -4.8 0  1.7 -4.8 0  1.8 -4.8 0  1.9 -4.8 0  2 -4.8 0  2.1 -4.8 0  2.2 -4.8 0  2.3 -4.8 0  2.4 -4.8 0  2.5 -4.8 0  2.6 -4.8 0  2.7 -4.8 0  2.8 -4.8 0  2.9 -4.8 0  3 -4.8 0  3.1 -4.8 0  3.199999999999999 -4.8 0  3.300000000000001 -4.8 0  3.4 -4.8 0  3.5 -4.8 0  3.6 -4.8 0  3.699999999999999 -4.8 0  3.800000000000001 -4.8 0  3.9 -4.8 0  4 -4.8 0  4.1 -4.8 0  4.199999999999999 -4.8 0  4.300000000000001 -4.8 0  4.4 -4.8 0  4.5 -4.8 0  4.6 -4.8 0  4.699999999999999 -4.8 0  4.800000000000001 -4.8 0  4.9 -4.8 0  5 -4.8 0  -5 -4.7 0  -4.9 -4.7 0  -4.8 -4.7 0  -4.7 -4.7 0  -4.6 -4.7 0  -4.5 -4.7 0  -4.4 -4.7 0  -4.3 -4.7 0  -4.2 -4.7 0  -4.1 -4.7 0  -4 -4.7 0  -3.9 -4.7 0  -3.8 -4.7 0  -3.7 -4.7 0  -3.6 -4.7 0  -3.5 -4.7 0  -3.4 -4.7 0  -3.3 -4.7 0  -3.2 -4.7 0  -3.1 -4.7 0  -3 -4.7 0  -2.9 -4.7 0  -2.8 -4.7 0  -2.7 -4.7 0  -2.6 -4.7 0  -2.5 -4.7 0  -2.4 -4.7 0  -2.3 -4.7 0  -2.2 -4.7 0  -2.1 -4.7 0  -2 -4.7 0  -1.9 -4.7 0  -1.8 -4.7 0  -1.7 -4.7 0  -1.6 -4.7 0  -1.5 -4.7 0  -1.4 -4.7 0  -1.3 -4.7 0  -1.2 -4.7 0  -1.1 -4.7 0  -1 -4.7 0  -0.9000000000000004 -4.7 0  -0.7999999999999998 -4.7 0  -0.7000000000000002 -4.7 0  -0.5999999999999996 -4.7 0  -0.5 -4.7 0  -0.4000000000000004 -4.7 0  -0.2999999999999998 -4.7 0  -0.2000000000000002 -4.7 0  -0.09999999999999964 -4.7 0  0 -4.7 0  0.09999999999999964 -4.7 0  0.2000000000000002 -4.7 0  0.2999999999999998 -4.7 0  0.4000000000000004 -4.7 0  0.5 -4.7 0  0.5999999999999996 -4.7 0  0.7000000000000002 -4.7 0  0.7999999999999998 -4.7 0  0.9000000000000004 -4.7 0  1 -4.7 0  1.1 -4.7 0  1.2 -4.7 0  1.3 -4.7 0  1.4 -4.7 0  1.5 -4.7 0  1.6 -4.7 0  1.7 -4.7 0  1.8 -4.7 0  1.9 -4.7 0  2 -4.7 0  2.1 -4.7 0  2.2 -4.7 0  2.3 -4.7 0  2.4 -4.7 0  2.5 -4.7 0  2.6 -4.7 0  2.7 -4.7 0  2.8 -4.7 0  2.9 -4.7 0  3 -4.7 0  3.1 -4.7 0  3.199999999999999 -4.7 0  3.300000000000001 -4.7 0  3.4 -4.7 0  3.5 -4.7 0  3.6 -4.7 0  3.699999999999999 -4.7 0  3.800000000000001 -4.7 0  3.9 -4.7 0  4 -4.7 0  4.1 -4.7 0  4.199999999999999 -4.7 0  4.300000000000001 -4.7 0  4.4 -4.7 0  4.5 -4.7 0  4.6 -4.7 0  4.699999999999999 -4.7 0  4.800000000000001 -4.7 0  4.9 -4.7 0  5 -4.7 0  -5 -4.6 0  -4.9 -4.6 0  -4.8 -4.6 0  -4.7 -4.6 0  -4.6 -4.6 0  -4.5 -4.6 0  -4.4 -4.6 0  -4.3 -4.6 0  -4.2 -4.6 0  -4.1 -4.6 0  -4 -4.6 0  -3.9 -4.6 0  -3.8 -4.6 0  -3.7 -4.6 0  -3.6 -4.6 0  -3.5 -4.6 0  -3.4 -4.6 0  -3.3 -4.6 0  -3.2 -4.6 0  -3.1 -4.6 0  -3 -4.6 0  -2.9 -4.6 0  -2.8 -4.6 0  -2.7 -4.6 0  -2.6 -4.6 0  -2.5 -4.6 0  -2.4 -4.6 0  -2.3 -4.6 0  -2.2 -4.6 0  -2.1 -4.6 0  -2 -4.6 0  -1.9 -4.6 0  -1.8 -4.6 0  -1.7 -4.6 0  -1.6 -4.6 0  -1.5 -4.6 0  -1.4 -4.6 0  -1.3 -4.6 0  -1.2 -4.6 0  -1.1 -4.6 0  -1 -4.6 0  -0.9000000000000004 -4.6 0  -0.7999999999999998 -4.6 0  -0.7000000000000002 -4.6 0  -0.5999999999999996 -4.6 0  -0.5 -4.6 0  -0.4000000000000004 -4.6 0  -0.2999999999999998 -4.6 0  -0.2000000000000002 -4.6 0  -0.09999999999999964 -4.6 0  0 -4.6 0  0.09999999999999964 -4.6 0  0.2000000000000002 -4.6 0  0.2999999999999998 -4.6 0  0.4000000000000004 -4.6 0  0.5 -4.6 0  0.5999999999999996 -4.6 0  0.7000000000000002 -4.6 0  0.7999999999999998 -4.6 0  0.9000000000000004 -4.6 0  1 -4.6 0  1.1 -4.6 0  1.2 -4.6 0  1.3 -4.6 0  1.4 -4.6 0  1.5 -4.6 0  1.6 -4.6 0  1.7 -4.6 0  1.8 -4.6 0  1.9 -4.6 0  2 -4.6 0  2.1 -4.6 0  2.2 -4.6 0  2.3 -4.6 0  2.4 -4.6 0  2.5 -4.6 0  2.6 -4.6 0  2.7 -4.6 0  2.8 -4.6 0  2.9 -4.6 0  3 -4.6 0  3.1 -4.6 0  3.199999999999999 -4.6 0  3.300000000000001 -4.6 0  3.4 -4.6 0  3.5 -4.6 0  3.6 -4.6 0  3.699999999999999 -4.6 0  3.800000000000001 -4.6 0  3.9 -4.6 0  4 -4.6 0  4.1 -4.6 0  4.199999999999999 -4.6 0  4.300000000000001 -4.6 0  4.4 -4.6 0  4.5 -4.6 0  4.6 -4.6 0  4.699999999999999 -4.6 0  4.800000000000001 -4.6 0  4.9 -4.6 0  5 -4.6 0  -5 -4.5 0  -4.9 -4.5 0  -4.8 -4.5 0  -4.7 -4.5 0  -4.6 -4.5 0  -4.5 -4.5 0  -4.4 -4.5 0  -4.3 -4.5 0  -4.2 -4.5 0  -4.1 -4.5 0  -4 -4.5 0  -3.9 -4.5 0  -3.8 -4.5 0  -3.7 -4.5 0  -3.6 -4.5 0  -3.5 -4.5 0  -3.4 -4.5 0  -3.3 -4.5 0  -3.2 -4.5 0  -3.1 -4.5 0  -3 -4.5 0  -2.9 -4.5 0  -2.8 -4.5 0  -2.7 -4.5 0  -2.6 -4.5 0  -2.5 -4.5 0  -2.4 -4.5 0  -2.3 -4.5 0  -2.2 -4.5 0  -2.1 -4.5 0  -2 -4.5 0  -1.9 -4.5 0  -1.8 -4.5 0  -1.7 -4.5 0  -1.6 -4.5 0  -1.5 -4.5 0  -1.4 -4.5 0  -1.3 -4.5 0  -1.2 -4.5 0  -1.1 -4.5 0  -1 -4.5 0  -0.9000000000000004 -4.5 0  -0.7999999999999998 -4.5 0  -0.7000000000000002 -4.5 0  -0.5999999999999996 -4.5 0  -0.5 -4.5 0  -0.4000000000000004 -4.5 0  -0.2999999999999998 -4.5 0  -0.2000000000000002 -4.5 0  -0.09999999999999964 -4.5 0  0 -4.5 0  0.09999999999999964 -4.5 0  0.2000000000000002 -4.5 0  0.2999999999999998 -4.5 0  0.4000000000000004 -4.5 0  0.5 -4.5 0  0.5999999999999996 -4.5 0  0.7000000000000002 -4.5 0  0.7999999999999998 -4.5 0  0.9000000000000004 -4.5 0  1 -4.5 0  1.1 -4.5 0  1.2 -4.5 0  1.3 -4.5 0  1.4 -4.5 0  1.5 -4.5 0  1.6 -4.5 0  1.7 -4.5 0  1.8 -4.5 0  1.9 -4.5 0  2 -4.5 0  2.1 -4.5 0  2.2 -4.5 0  2.3 -4.5 0  2.4 -4.5 0  2.5 -4.5 0  2.6 -4.5 0  2.7 -4.5 0  2.8 -4.5 0  2.9 -4.5 0  3 -4.5 0  3.1 -4.5 0  3.199999999999999 -4.5 0  3.300000000000001 -4.5 0  3.4 -4.5 0  3.5 -4.5 0  3.6 -4.5 0  3.699999999999999 -4.5 0  3.800000000000001 -4.5 0  3.9 -4.5 0  4 -4.5 0  4.1 -4.5 0  4.199999999999999 -4.5 0  4.300000000000001 -4.5 0  4.4 -4.5 0  4.5 -4.5 0  4.6 -4.5 0  4.699999999999999 -4.5 0  4.800000000000001 -4.5 0  4.9 -4.5 0  5 -4.5 0  -5 -4.4 0  -4.9 -4.4 0  -4.8 -4.4 0  -4.7 -4.4 0  -4.6 -4.4 0  -4.5 -4.4 0  -4.4 -4.4 0  -4.3 -4.4 0  -4.2 -4.4 0  -4.1 -4.4 0  -4 -4.4 0  -3.9 -4.4 0  -3.8 -4.4 0  -3.7 -4.4 0  -3.6 -4.4 0  -3.5 -4.4 0  -3.4 -4.4 0  -3.3 -4.4 0  -3.2 -4.4 0  -3.1 -4.4 0  -3 -4.4 0  -2.9 -4.4 0  -2.8 -4.4 0  -2.7 -4.4 0  -2.6 -4.4 0  -2.5 -4.4 0  -2.4 -4.4 0  -2.3 -4.4 0  -2.2 -4.4 0  -2.1 -4.4 0  -2 -4.4 0  -1.9 -4.4 0  -1.8 -4.
[...]
<PointData  Vectors="f_17"> 
<DataArray  type="Float64"  Name="f_17"  NumberOfComponents="3" format="ascii">1.5087025937859036e-01 0.0000000000000000e+00 0.0000000000000000e+00  1.4980646556679086e-01 -9.6025235340063241e-04 0.0000000000000000e+00  1.5078381963764775e-01 3.6779251399172281e-04 0.0000000000000000e+00  1.4993362449717323e-01 -1.0467434671872519e-03 0.0000000000000000e+00  1.5063072033614650e-01 8.2940514885189952e-04 0.0000000000000000e+00  1.4993475993095401e-01 -8.0715040336005583e-04 0.0000000000000000e+00  1.5049170774940976e-01 1.0791614403508115e-03 0.0000000000000000e+00  1.5001032839922634e-01 -6.5753034432261906e-04 0.0000000000000000e+00  1.5053129550473071e-01 8.3196119699038081e-04 0.0000000000000000e+00  1.5021774444452032e-01 -7.4125050223046993e-04 0.0000000000000000e+00  1.5061220446295745e-01 5.6972919292345081e-04 0.0000000000000000e+00  1.5022368842842287e-01 -4.3648574933090372e-04 0.0000000000000000e+00  1.5033031509883452e-01 8.5406975889445471e-04 0.0000000000000000e+00  1.4990448771528131e-01 2.9378854467364951e-04 0.0000000000000000e+00  1.4994696881585623e-01 1.0956445607523178e-03 0.0000000000000000e+00  1.4970875401492478e-01 3.7501055876196189e-04 0.0000000000000000e+00  1.4986334427336961e-01 7.5435039989921280e-04 0.0000000000000000e+00  1.4971336437051996e-01 3.2238387114743954e-04 0.0000000000000000e+00  1.4970807356141014e-01 7.1727251867703668e-04 0.0000000000000000e+00  1.4954923036675430e-01 5.1864670819045441e-04 0.0000000000000000e+00  1.4959364882608767e-01 5.5828339290606697e-04 0.0000000000000000e+00  1.4957448524497152e-01 7.6574703410596953e-06 0.0000000000000000e+00  1.4970318119219628e-01 -1.4104916166980710e-04 0.0000000000000000e+00  1.4974301464532339e-01 -3.4441582410821536e-04 0.0000000000000000e+00  1.4979295384966904e-01 -4.3397301694997125e-04 0.0000000000000000e+00  1.4985299668226304e-01 -6.2971420089809728e-04 0.0000000000000000e+00  1.4993935913283613e-01 -4.9834258814693971e-04 0.0000000000000000e+00  1.4986274266531677e-01 -3.1471549926590669e-04 0.0000000000000000e+00  1.4981562113578875e-01 -1.7224818236340959e-04 0.0000000000000000e+00  1.4989638748435896e-01 -2.4231683497451473e-04 0.0000000000000000e+00  1.4993795431441584e-01 -3.0384383397067527e-04 0.0000000000000000e+00  1.4986797191156381e-01 -8.2581513463607543e-05 0.0000000000000000e+00  1.4989781949636566e-01 1.7972119428851424e-04 0.0000000000000000e+00  1.5003551381578503e-01 -1.7930696389522786e-04 0.0000000000000000e+00  1.5011284666338404e-01 -5.3391290999854895e-04 0.0000000000000000e+00  1.5001016471059128e-01 1.0661355410942538e-04 0.0000000000000000e+00  1.4982553192407772e-01 6.8699523345152453e-04 0.0000000000000000e+00  1.4989077657766839e-01 -7.3182583006574676e-05 0.0000000000000000e+00  1.5020214092894998e-01 -7.2592583380075109e-04 0.0000000000000000e+00  1.5019132586200079e-01 -2.4431984598652230e-05 0.0000000000000000e+00  1.4984685782972290e-01 4.9581108796926661e-04 0.0000000000000000e+00  1.4984005498493641e-01 7.2914835432657122e-05 0.0000000000000000e+00  1.5008657752815449e-01 -6.5404734760029240e-05 0.0000000000000000e+00  1.5004857124753324e-01 -4.2243231734061643e-05 0.0000000000000000e+00  1.4998425043197811e-01 -3.3594186543467811e-04 0.0000000000000000e+00  1.5004368802770141e-01 1.2915881716324764e-04 0.0000000000000000e+00  1.4988027559511674e-01 6.7391701874161417e-04 0.0000000000000000e+00  1.4990113145367190e-01 -3.4528118860427425e-04 0.0000000000000000e+00  1.5027011979307842e-01 -8.3072717004041726e-04 0.0000000000000000e+00  1.5003874729514699e-01 6.7915570659230092e-04 0.0000000000000000e+00  1.4958708661527034e-01 7.7237574713220469e-04 0.0000000000000000e+00  1.5012950851659368e-01 -1.0318770682583754e-03 0.0000000000000000e+00  1.5045325014491459e-01 -4.7583733645977129e-04 0.0000000000000000e+00  1.4963085949673866e-01 1.2525770709970207e-03 0.0000000000000000e+00  1.4964664470510564e-01 2.9862030013215413e-05 0.0000000000000000e+00  1.5057651742251943e-01 -1.2833026855116072e-03 0.0000000000000000e+00  1.5008551135031831e-01 4.8314786263427409e-04 0.0000000000000000e+00  1.4936726690690835e-01 1.0048326398538030e-03 0.0000000000000000e+00  1.5022725959325212e-01 -8.5055421180370891e-04 0.0000000000000000e+00  1.5049328625291428e-01 -5.8562081134638875e-04 0.0000000000000000e+00  1.4951545613447406e-01 1.0572590706308541e-03 0.0000000000000000e+00  1.4983111681500025e-01 -1.5755516057172060e-05 0.0000000000000000e+00  1.5050813040493924e-01 -8.4802891424981184e-04 0.0000000000000000e+00  1.4986290172155603e-01 3.9561401658881471e-04 0.0000000000000000e+00  1.4964832418541263e-01 5.4989389885993340e-04 0.0000000000000000e+00  1.5034413013272199e-01 -6.8574208499359737e-04 0.0000000000000000e+00  1.5004361987717732e-01 1.9556891341940856e-05 0.0000000000000000e+00  1.4971792703166698e-01 4.6373574792208365e-04 0.0000000000000000e+00  1.5014135239980622e-01 -2.3602107810555216e-04 0.0000000000000000e+00  1.5013379504397861e-01 -2.7701218751697654e-04 0.0000000000000000e+00  1.4977872497722294e-01 4.4337415346920421e-04 0.0000000000000000e+00  1.5008197262214226e-01 -1.7394922839527967e-04 0.0000000000000000e+00  1.5008377254552427e-01 -1.3490482059794407e-04 0.0000000000000000e+00  1.4989316055961710e-01 1.5589197314606171e-04 0.0000000000000000e+00  1.5000422544355299e-01 5.9189381511759730e-05 0.0000000000000000e+00  1.5009417138321468e-01 -2.4213620907340857e-04 0.0000000000000000e+00  1.4989880440253203e-01 2.3254756840322452e-04 0.0000000000000000e+00  1.5003839722921392e-01 -9.6579350672089848e-05 0.0000000000000000e+00  1.5001742381830407e-01 -1.4148052887441867e-06 0.0000000000000000e+00  1.4998135328873383e-01 -2.2861985966758948e-05 0.0000000000000000e+00  1.4997800305134809e-01 1.2442433269077842e-04 0.0000000000000000e+00  1.5006169867115518e-01 -2.0754131693385581e-04 0.0000000000000000e+00  1.4992763572871026e-01 2.2198866423031491e-04 0.0000000000000000e+00  1.5005811540117978e-01 -1.8948273724846945e-04 0.0000000000000000e+00  1.4995881103386055e-01 1.6358941995228693e-04 0.0000000000000000e+00  1.5003866922558060e-01 -1.7635937328787496e-04 0.0000000000000000e+00  1.4994867405132303e-01 2.2052479586980004e-04 0.0000000000000000e+00  1.5006838856853358e-01 -2.6631958902005349e-04 0.0000000000000000e+00  1.4992069002764613e-01 2.9075679281058588e-04 0.0000000000000000e+00  1.5008029328627584e-01 -2.8933895069490001e-04 0.0000000000000000e+00  1.4992431495096101e-01 2.7582540939441469e-04 0.0000000000000000e+00  1.5006925783715269e-01 -2.6027644459090119e-04 0.0000000000000000e+00  1.4993230510019906e-01 2.5450583624190485e-04 0.0000000000000000e+00  1.5006426630477745e-01 -2.4453930136730681e-04 0.0000000000000000e+00  1.4993167993202103e-01 2.4086553274601586e-04 0.0000000000000000e+00  1.5005852023349758e-01 -2.1097654960403265e-04 0.0000000000000000e+00  1.4993446195577695e-01 1.9424852390518559e-04 0.0000000000000000e+00  1.5004259998301769e-01 -1.3651702985751496e-04 0.0000000000000000e+00  1.4993817703392717e-01 1.1283638306327357e-04 0.0000000000000000e+00  1.5002505496677151e-01 -4.6730116615820199e-05 0.0000000000000000e+00  1.4993228189976776e-01 0.0000000000000000e+00 0.0000000000000000e+00  1.4980646556679084e-01 0.0000000000000000e+00 -9.6025235340114936e-04  1.4961417197173335e-01 4.1282078627948764e-04 4.1282078628085520e-04  1.4975372179144869e-01 3.4565596896314594e-04 -5.5016755246434365e-04  1.4960328892813923e-01 2.0191249384536204e-04 2.9105946862567590e-04  1.4977893604118345e-01 2.2201235587639820e-04 -2.6709474212577360e-04  1.4967852774793264e-01 -1.0606005033753611e-04 3.1130990535093740e-04  1.4984486712645814e-01 -2.8393717610496688e-05 -1.7588809634386330e-04  1.4970186031988134e-01 -2.6392354275609875e-04 1.9382516570845369e-04  1.4977565057786205e-01 -1.7708561746711082e-05 -3.4310633592697946e-04  1.4958549039903005e-01 -8.4519044948871687e-05 -7.8267896538937373e-06  1.4962743388259819e-01 9.3713026289703299e-05 -4.1747538074406561e-04  1.4954841001426875e-01 -1.2674115354127964e-04 8.7161128830070514e-05  1.4976149607823006e-01 -2.0474178702791732e-04 -1.0774535017095969e-04  1.4984157603261317e-01 -5.8658465868515061e-04 3.7597231341696417e-04  1.5008065520870997e-01 -6.6211881315811089e-04 7.0483391506451467e-05  1.5012920847800704e-01 -7.0796521899396301e-04 3.1175913815341736e-04  1.5022688891275349e-01 -5.3637431441692039e-04 -9.8238095331998325e-06  1.5018685169161936e-01 -5.7750640994007135e-04 2.4707831386871359e-04  1.5031451330509016e-01 -5.3931230568115814e-04 1.5856667132061513e-04  1.5035883863483374e-01 -6.3406573534894402e-04 3.8893006139258097e-04  1.5042087764067105e-01 -5.3841041945194954e-04 1.5524280493213680e-04  1.5038457755870432e-01 -2.8411030263095677e-04 1.2351434607754894e-04  1.5036202763323464e-01 8.9686028791712146e-05 -7.4759685757955785e-05  1.5026053348443688e-01 2.1667682023056761e-04 -3.1858727648964668e-05  1.5023881576141537e-01 3.6222577783374672e-04 -8.9182470713482597e-05  1.5018712374417920e-01 5.3185026858577715e-04 -5.6011904291257397e-05  1.5010449870291637e-01 5.6938516940097095e-04 -1.0890502424992604e-04  1.5009058077932499e-01 4.0023255375121994e-04 1.3778584390129008e-05  1.5018441201953459e-01 2.5841435114894781e-04 1.1225752837304460e-04  1.5016066295884889e-01 1.9032954278929323e-04 1.0301036559833622e-04  1.5008131083745588e-01 2.5081062644163703e-04 4.5085355713042829e-05  1.5009985328153347e-01 2.5738522980836467e-04 1.1734327118449008e-04  1.5011630830084968e-01 7.6725760058436492e-06 8.0577019624117650e-05  1.5002479774996560e-01 -6.7188176383403212e-05 -1.0112785147083654e-04  1.4994136820548568e-01 3.2470179696284521e-04 -1.4220088559425807e-04  1.4994451402441059e-01 2.8263994926965252e-04 6.9583683888102671e-05  1.5006126794110913e-01 -4.0638508429636236e-04 2.0990257637728161e-04  1.5015202296443511e-01 -3.5902202035553444e-04 3.4277449467539411e-05  1.4996897041953644e-01 4.6294258569153877e-04 -2.3255580594350045e-04  1.4976763089921752e-01 4.0452402867241347e-04 -1.2666494400364147e-04  1.4997725906503059e-01 -3.2458658071097488e-04 2.2506549644186666e-04  1.5020100271434358e-01 -2.6719597709595917e-04 2.2150145515564026e-04  1.5001317124215355e-01 7.5269468808175942e-05 -4.7758076540796812e-05  1.4989320046353763e-01 -1.9260826209508990e-05 -6.0114068597465552e-05  1.5002066823168461e-01 1.5318467908617106e-04 -3.1403857882255358e-06  1.4997626757391852e-01 2.1690909485360142e-04 -7.3237262084838454e-05  1.4998068224672423e-01 -4.3369386727850874e-04 2.5202350553168081e-05  1.5015912987494839e-01 -2.8518366804338764e-04 -1.5480932993372245e-05  1.4994421717489562e-01 6.8095739603813755e-04 -3.7475043855603380e-04  1.4974985895489093e-01 1.6522031586268900e-04 -1.7586329593844067e-04  1.5021169056231409e-01 -8.5758314049585733e-04 2.6979914496213559e-04  1.5024710092876647e-01 1.0565532788463180e-04 -2.5977408178393075e-04  1.4961872656200575e-01 8.8009214755328043e-04 -6.0166885535085631e-04  1.4989263072381798e-01 -4.1267107570754357e-04 2.9313856376585483e-04  1.5050118491213335e-01 -7.4137593562884063e-04 3.0683063542651627e-04  1.4985607575162890e-01 7.0359617468064497e-04 -7.2542396954263844e-04  1.4952129269360145e-01 4.4819448805551745e-04 -1.4021364599914652e-04  1.5037654812195314e-01 -8.1713585973152130e-04 7.9494119292945439e-04  1.5026873015642944e-01 -1.0171521744952937e-04 -2.5110510071188507e-04  1.4946443040084384e-01 8.1944125661545693e-04 -6.1093700437329370e-04  1.5003244251597003e-01 -2.7302869090030992e-04 6.6302310740397167e-04  1.5046119258330062e-01 -5.8628789552931607e-04 2.9958056252989742e-04  1.4971342206023813e-01 4.7741954322349747e-04 -7.1770257588071320e-04  1.4976443261591471e-01 2.9557222299720270e-04 1.6722510063246711e-04  1.5039049016425962e-01 -5.7931857877938791e-04 5.0285079717171124e-04  1.4994428174715396e-01 8.7609965466399977e-05 -4.7079312933223893e-04  1.4972976207520702e-01 4.0353714606418829e-04 -1.1501215125056177e-04  1.5021588164673652e-01 -2.7986021072781757e-04 4.5406686842246733e-04  1.5006910412693517e-01 -1.7518938281981127e-04 -2.1968041587570660e-04  1.4978007227424117e-01 3.5527922177015954e-04 -1.9958962682059298e-04  1.5011254845255723e-01 -1.2040638380788729e-04 3.1956962833010167e-04  1.5007514983867964e-01 -1.7167051372062972e-04 -9.1727605685434978e-05  1.4986554665312771e-01 1.9565360539605561e-04 -1.6997011540590377e-04  1.5004280580953674e-01 7.2769245790452452e-06 2.0138277640488036e-04  1.5007113720241586e-01 -1.7601925243054188e-04 -3.2087680665969422e-05  1.4990398291769361e-01 1.5591045427953116e-04 -1.2773181442384804e-04  1.5003577460637038e-01 -1.8711638901293647e-05 1.3517522115137864e-04  1.5003015742414211e-01 -7.1768706762409889e-05 -2.5352084260991912e-05  1.4995866228134602e-01 3.9839791515292263e-05 -7.3683796376382312e-05  1.5000283560596542e-01 5.9701382215336905e-05 8.0530418047208453e-05  1.5004031394954104e-01 -1.2926824027811100e-04 -1.5221391130137161e-05  1.4994629553053843e-01 1.2593969140814381e-04 -4.9550226006424104e-05  1.5003809068657117e-01 -8.0679382160318830e-05 6.4249815964099023e-05  1.4998308797969565e-01 4.9674437230694629e-05 -3.4578381602406677e-05  1.5001020861820563e-01 -6.0323891308350434e-05 -1.1496646110618366e-06  1.4997970335779653e-01 9.8341745850591126e-05 1.1656693920441387e-05  1.5003610539830900e-01 -1.3162604428713137e-04 6.5596540392735026e-06  1.4995422291248622e-01 1.3980163026126616e-04 -3.6026701771337605e-05  1.5004556617234688e-01 -1.2536242010622589e-04 5.7696418321491919e-05  1.4996097498171324e-01 1.0369249426633260e-04 -6.3815502734069433e-05  1.5003293265618969e-01 -8.9510459644533266e-05 6.0043814291414144e-05  1.4997057836017158e-01 8.3688977237593597e-05 -5.3913331693998599e-05  1.5003080839560398e-01 -8.5159142301699249e-05 5.5419943657300303e-05  1.4997055231290393e-01 7.8180845211796521e-05 -5.7627891403424777e-05  1.5003248689324522e-01 -7.3578355792705186e-05 6.9557328028940530e-05  1.4997678311830417e-01 4.9626537253646162e-05 -6.4638501858565095e-05  1.5002860622330016e-01 -4.5899925988327739e-05 7.5925052563810051e-05  1.4999134250553670e-01 1.5179109388749423e-05 -4.7494933392425338e-05  1.5002578859063445e-01 -2.8403168211064885e-05 6.5198199557563882e-05  1.5000861552510908e-01 9.2816682292250459e-06 -9.2816682302150258e-06  1.5002505496677204e-01 0.0000000000000000e+00 4.6730116615306998e-05  1.5078381963764736e-01 0.0000000000000000e+00 3.6779251399237967e-04  1.4975372179144866e-01 -5.5016755246482926e-04 3.4565596896322037e-04  1.5073569263216507e-01 1.0231249537773392e-05 1.0231249537872071e-05  1.4990517079522150e-01 -8.1563046383742064e-04 4.2845489043397752e-04  1.5061158754668144e-01 3.7645779676370820e-04 -2.7790652275530727e-04  1.4995282563246670e-01 -6.9316232447222859e-04 2.7390609419187064e-04  1.5046181718222368e-01 6.5741679761874760e-04 -4.7876912386787460e-04  1.4997873321637342e-01 -4.6204525382806437e-04 2.9883700086334356e-04  1.5044350065667017e-01 6.6624257208154907e-04 -2.5137141044500564e-04  1.5012608490620244e-01 -4.5803170731973313e-04 6.2790608226370173e-04  1.5054631434416024e-01 4.3206376144697074e-04 9.3954767634695855e-05  1.5027600272640579e-01 -3.6332015566283509e-04 7.0150419643778882e-04  1.5048660337507486e-01 5.1848039569225206e-04 -1.0353069832216601e-04  1.5010497806120759e-01 8.7655217912139302e-05 1.4480976006005095e-04  1.5017212831963417e-01 8.9561925224441986e-04 -5.3744418167504208e-04  1.4983330491198132e-01 4.7237392594347164e-04 -1.4579402195343910e-04  1.4990648418091079e-01 8.1420264131887993e-04 -5.1819472269192858e-04  1.4972890220565416e-01 4.1278283553536664e-04 -1.1551983679206868e-04  1.4980511474953143e-01 7.2715526579767472e-04 -5.0150687316359804e-04  1.4960895080935657e-01 4.8092648310935120e-04 -3.7846529627998907e-04  1.4966564416626926e-01 6.9200617755623339e-04 -5.8752394486080543e-04  1.4959872968024834e-01 3.5879402600035162e-04 -1.9254695876847082e-04  1.4967607614931461e-01 1.5796029591809429e-04 -1.7142214483087582e-04  1.4967936827121364e-01 -1.9937555986455639e-04 8.9859244568150936e-05  1.4978334270952234e-01 -2.0469240785730319e-04 4.4318779993269224e-05  1.4977367269669220e-01 -4.6733226365187306e-04 1.4339428370361480e-04  1.4986750841462587e-01 -5.6279397732126918e-04 1.2482770380103065e-04  1.4990825973071711e-01 -4.9989531872986041e-04 1.4910123744562098e-04  1.4985102257871274e-01 -2.8941600758971610e-04 -1.4307680437072967e-04  1.4978787982843997e-01 -2.2658411517875366e-04 -2.4043321652496418e-04  1.4988408267405057e-01 -2.1408319801816984e-04 -1.2650467722720619e-04  1.4990853072493260e-01 -3.0044437630841154e-04 -1.2298073004023334e-04  1.4986682514947983e-01 -1.9287114618725547e-04 -2.5867004869513762e-04  1.4992621902858713e-01 5.5225767256328357e-05 -4.1637845807407743e-05  1.5003124376108659e-01 -8.4962654150880129e-05 2.3509761624771098e-04  1.5004170700490893e-01 -3.9088308357152293e-04 1.3004640418981712e-04  1.4999442919102460e-01 3.8540257899708202e-05 -1.7840886368136855e-04  1.4989683995807718e-01 5.1085387739328554e-04 -2.3223273962413930e-04  1.4991482109336585e-01 -7.0689870981564229e-05 8.1517946994744502e-05  1.5014119698078549e-01 -5.9081569953854988e-04 3.4145878834123896e-04  1.5016818632952827e-01 -8.5153679962476239e-07 -3.4199615378769537e-05  1.4988991646432645e-01 4.0295820467714982e-04 -5.5813312865799370e-04  1.4988220512763042e-01 2.6639395921971511e-05 -3.5995388677271043e-04  1.5012997785961640e-01 -3.9683196825248380e-05 1.3212400076108379e-05  1.5010924502103470e-01 3.1687317009893311e-06 -6.9209538100140192e-05  1.5003659879663608e-01 -3.0168583561166482e-04 -1.8537852248286265e-05  1.5011469837390307e-01 7.9201050649510535e-05 7.7084024389439628e-05  1.4998625405668559e-01 5.6249013825717070e-04 -1.5393939791309483e-04  1.4994773117732610e-01 -2.6618730271562468e-04 1.9967651275962380e-04  1.5025254033157590e-01 -6.6410945421745626e-04 7.2033353465503973e-04  1.5009012526183813e-01 5.3588931233867641e-04 -3.4585050541164287e-05  1.4970122947194428e-01 5.4331108439774302e-04 -3.5682419151953780e-04  1.5012029422613582e-01 -7.5664087530649226e-04 8.6941601951653880e-04  1.5040820669762789e-01 -2.9170320178385778e-04 5.7255708962068903e-04  1.4975483116204377e-01 8.8798672631691775e-04 -9.4126966188496839e-04  1.4982518678970475e-01 -8.6957045858978237e-05 1.1316023628715681e-04  1.5054201474751036e-01 -7.8860861470362665e-04 1.1233872789833195e-03  1.5009984919066127e-01 3.7197301001931182e-04 -8.2030291273505666e-04  1.4957730278543582e-01 6.1488074121455961e-04 -1.0250613041291655e-03  1.5032137819867583e-01 -6.3316423839615847e-04 1.0658696988034013e-03  1.5033040044060891e-01 -2.3400650384729110e-04 2.8880273898360509e-05  1.4957442743334823e-01 6.3043634516249749e-04 -1.3528693851390676e-03  1.4994156255192317e-01 -2.4010381324966739e-05 5.5359596609352087e-04  1.5039944333531868e-01 -5.7142501727559737e-04 8.4125585215828638e-04  1.4976395009002755e-01 3.6239754390466217e-04 -9.7679726909875582e-04  1.4982168404901999e-01 2.2853126072009468e-04 -1.0180731977263256e-06  1.5029026538497262e-01 -3.7239052439804496e-04 8.3093980867021591e-04  1.4996460614036838e-01 -2.9349004245855600e-05 -5.4068700557433741e-04  1.4978409178076454e-01 3.7361510176998544e-04 -3.1677026704121555e-04  1.5019830160551625e-01 -2.7042440796117679e-04 6.7102445745074611e-04  1.5000046271601034e-01 -5.1638798421143655e-05 -2.8091563634017214e-04  1.4986861163738691e-01 1.8441103784892622e-04 -2.7680758094809541e-04  1.5008346530750885e-01 -3.1308139593756082e-05 4.1014169274817061e-04  1.5004966666516789e-01 -1.8235804426680802e-04 -9.5701464788686919e-05  1.4987814294121396e-01 2.3426253868086470e-04 -2.5757177869168563e-04  1.5008671483864225e-01 -1.2392038528486417e-04 3.1451261415679131e-04  1.4999125271505781e-01 8.1212620485425153e-06 -1.0370334899128324e-04  1.4997128282564609e-01 -5.8994663530198877e-06 -1.1519537352302882e-04  1.5000215533319197e-01 1.0150503797731209e-04 1.483066