<?xml version="1.0"?>
<VTKFile type="UnstructuredGrid"  version="0.1"  >
<UnstructuredGrid>
<Piece  NumberOfPoints="10201" NumberOfCells="20000">
<Points>
<DataArray  type="Float64"  NumberOfComponents="3"  format="ascii">-5 -5 0  -4.9 -5 0  -4.8 -5 0  -4.7 -5 0  -4.6 -5 0  -4.5 -5 0  -4.4 -5 0  -4.3 -5 0  -4.2 -5 0  -4.1 -5 0  -4 -5 0  -3.9 -5 0  -3.8 -5 0  -3.7 -5 0  -3.6 -5 0  -3.5 -5 0  -3.4 -5 0  -3.3 -5 0  -3.2 -5 0  -3.1 -5 0  -3 -5 0  -2.9 -5 0  -2.8 -5 0  -2.7 -5 0  -2.6 -5 0  -2.5 -5 0  -2.4 -5 0  -2.3 -5 0  -2.2 -5 0  -2.1 -5 0  -2 -5 0  -1.9 -5 0  -1.8 -5 0  -1.7 -5 0  -1.6 -5 0  -1.5 -5 0  -1.4 -5 0  -1.3 -5 0  -1.2 -5 0  -1.1 -5 0  -1 -5 0  -0.9000000000000004 -5 0  -0.7999999999999998 -5 0  -0.7000000000000002 -5 0  -0.5999999999999996 -5 0  -0.5 -5 0  -0.4000000000000004 -5 0  -0.2999999999999998 -5 0  -0.2000000000000002 -5 0  -0.09999999999999964 -5 0  0 -5 0  0.09999999999999964 -5 0  0.2000000000000002 -5 0  0.2999999999999998 -5 0  0.4000000000000004 -5 0  0.5 -5 0  0.5999999999999996 -5 0  0.7000000000000002 -5 0  0.7999999999999998 -5 0  0.9000000000000004 -5 0  1 -5 0  1.1 -5 0  1.2 -5 0  1.3 -5 0  1.4 -5 0  1.5 -5 0  1.6 -5 0  1.7 -5 0  1.8 -5 0  1.9 -5 0  2 -5 0  2.1 -5 0  2.2 -5 0  2.3 -5 0  2.4 -5 0  2.5 -5 0  2.6 -5 0  2.7 -5 0  2.8 -5 0  2.9 -5 0  3 -5 0  3.1 -5 0  3.199999999999999 -5 0  3.300000000000001 -5 0  3.4 -5 0  3.5 -5 0  3.6 -5 0  3.699999999999999 -5 0  3.800000000000001 -5 0  3.9 -5 0  4 -5 0  4.1 -5 0  4.199999999999999 -5 0  4.300000000000001 -5 0  4.4 -5 0  4.5 -5 0  4.6 -5 0  4.699999999999999 -5 0  4.800000000000001 -5 0  4.9 -5 0  5 -5 0  -5 -4.9 0  -4.9 -4.9 0  -4.8 -4.9 0  -4.7 -4.9 0  -4.6 -4.9 0  -4.5 -4.9 0  -4.4 -4.9 0  -4.3 -4.9 0  -4.2 -4.9 0  -4.1 -4.9 0  -4 -4.9 0  -3.9 -4.9 0  -3.8 -4.9 0  -3.7 -4.9 0  -3.6 -4.9 0  -3.5 -4.9 0  -3.4 -4.9 0  -3.3 -4.9 0  -3.2 -4.9 0  -3.1 -4.9 0  -3 -4.9 0  -2.9 -4.9 0  -2.8 -4.9 0  -2.7 -4.9 0  -2.6 -4.9 0  -2.5 -4.9 0  -2.4 -4.9 0  -2.3 -4.9 0  -2.2 -4.9 0  -2.1 -4.9 0  -2 -4.9 0  -1.9 -4.9 0  -1.8 -4.9 0  -1.7 -4.9 0  -1.6 -4.9 0  -1.5 -4.9 0  -1.4 -4.9 0  -1.3 -4.9 0  -1.2 -4.9 0  -1.1 -4.9 0  -1 -4.9 0  -0.9000000000000004 -4.9 0  -0.7999999999999998 -4.9 0  -0.7000000000000002 -4.9 0  -0.5999999999999996 -4.9 0  -0.5 -4.9 0  -0.4000000000000004 -4.9 0  -0.2999999999999998 -4.9 0  -0.2000000000000002 -4.9 0  -0.09999999999999964 -4.9 0  0 -4.9 0  0.09999999999999964 -4.9 0  0.2000000000000002 -4.9 0  0.2999999999999998 -4.9 0  0.4000000000000004 -4.9 0  0.5 -4.9 0  0.5999999999999996 -4.9 0  0.7000000000000002 -4.9 0  0.7999999999999998 -4.9 0  0.9000000000000004 -4.9 0  1 -4.9 0  1.1 -4.9 0  1.2 -4.9 0  1.3 -4.9 0  1.4 -4.9 0  1.5 -4.9 0  1.6 -4.9 0  1.7 -4.9 0  1.8 -4.9 0  1.9 -4.9 0  2 -4.9 0  2.1 -4.9 0  2.2 -4.9 0  2.3 -4.9 0  2.4 -4.9 0  2.5 -4.9 0  2.6 -4.9 0  2.7 -4.9 0  2.8 -4.9 0  2.9 -4.9 0  3 -4.9 0  3.1 -4.9 0  3.199999999999999 -4.9 0  3.300000000000001 -4.9 0  3.4 -4.9 0  3.5 -4.9 0  3.6 -4.9 0  3.699999999999999 -4.9 0  3.800000000000001 -4.9 0  3.9 -4.9 0  4 -4.9 0  4.1 -4.9 0  4.199999999999999 -4.9 0  4.300000000000001 -4.9 0  4.4 -4.9 0  4.5 -4.9 0  4.6 -4.9 0  4.699999999999999 -4.9 0  4.800000000000001 -4.9 0  4.9 -4.9 0  5 -4.9 0  -5 -4.8 0  -4.9 -4.8 0  -4.8 -4.8 0  -4.7 -4.8 0  -4.6 -4.8 0  -4.5 -4.8 0  -4.4 -4.8 0  -4.3 -4.8 0  -4.2 -4.8 0  -4.1 -4.8 0  -4 -4.8 0  -3.9 -4.8 0  -3.8 -4.8 0  -3.7 -4.8 0  -3.6 -4.8 0  -3.5 -4.8 0  -3.4 -4.8 0  -3.3 -4.8 0  -3.2 -4.8 0  -3.1 -4.8 0  -3 -4.8 0  -2.9 -4.8 0  -2.8 -4.8 0  -2.7 -4.8 0  -2.6 -4.8 0  -2.5 -4.8 0  -2.4 -4.8 0  -2.3 -4.8 0  -2.2 -4.8 0  -2.1 -4.8 0  -2 -4.8 0  -1.9 -4.8 0  -1.8 -4.8 0  -1.7 -4.8 0  -1.6 -4.8 0  -1.5 -4.8 0  -1.4 -4.8 0  -1.3 -4.8 0  -1.2 -4.8 0  -1.1 -4.8 0  -1 -4.8 0  -0.9000000000000004 -4.8 0  -0.7999999999999998 -4.8 0  -0.7000000000000002 -4.8 0  -0.5999999999999996 -4.8 0  -0.5 -4.8 0  -0.4000000000000004 -4.8 0  -0.2999999999999998 -4.8 0  -0.2000000000000002 -4.8 0  -0.09999999999999964 -4.8 0  0 -4.8 0  0.09999999999999964 -4.8 0  0.2000000000000002 -4.8 0  0.2999999999999998 -4.8 0  0.4000000000000004 -4.8 0  0.5 -4.8 0  0.5999999999999996 -4.8 0  0.7000000000000002 -4.8 0  0.7999999999999998 -4.8 0  0.9000000000000004 -4.8 0  1 -4.8 0  1.1 -4.8 0  1.2 -4.8 0  1.3 -4.8 0  1.4 -4.8 0  1.5 -4.8 0  1.6 -4.8 0  1.7 -4.8 0  1.8 -4.8 0  1.9 -4.8 0  2 -4.8 0  2.1 -4.8 0  2.2 -4.8 0  2.3 -4.8 0  2.4 -4.8 0  2.5 -4.8 0  2.6 -4.8 0  2.7 -4.8 0  2.8 -4.8 0  2.9 -4.8 0  3 -4.8 0  3.1 -4.8 0  3.199999999999999 -4.8 0  3.300000000000001 -4.8 0  3.4 -4.8 0  3.5 -4.8 0  3.6 -4.8 0  3.699999999999999 -4.8 0  3.800000000000001 -4.8 0  3.9 -4.8 0  4 -4.8 0  4.1 -4.8 0  4.199999999999999 -4.8 0  4.300000000000001 -4.8 0  4.4 -4.8 0  4.5 -4.8 0  4.6 -4.8 0  4.699999999999999 -4.8 0  4.800000000000001 -4.8 0  4.9 -4.8 0  5 -4.8 0  -5 -4.7 0  -4.9 -4.7 0  -4.8 -4.7 0  -4.7 -4.7 0  -4.6 -4.7 0  -4.5 -4.7 0  -4.4 -4.7 0  -4.3 -4.7 0  -4.2 -4.7 0  -4.1 -4.7 0  -4 -4.7 0  -3.9 -4.7 0  -3.8 -4.7 0  -3.7 -4.7 0  -3.6 -4.7 0  -3.5 -4.7 0  -3.4 -4.7 0  -3.3 -4.7 0  -3.2 -4.7 0  -3.1 -4.7 0  -3 -4.7 0  -2.9 -4.7 0  -2.8 -4.7 0  -2.7 -4.7 0  -2.6 -4.7 0  -2.5 -4.7 0  -2.4 -4.7 0  -2.3 -4.7 0  -2.2 -4.7 0  -2.1 -4.7 0  -2 -4.7 0  -1.9 -4.7 0  -1.8 -4.7 0  -1.7 -4.7 0  -1.6 -4.7 0  -1.5 -4.7 0  -1.4 -4.7 0  -1.3 -4.7 0  -1.2 -4.7 0  -1.1 -4.7 0  -1 -4.7 0  -0.9000000000000004 -4.7 0  -0.7999999999999998 -4.7 0  -0.7000000000000002 -4.7 0  -0.5999999999999996 -4.7 0  -0.5 -4.7 0  -0.4000000000000004 -4.7 0  -0.2999999999999998 -4.7 0  -0.2000000000000002 -4.7 0  -0.09999999999999964 -4.7 0  0 -4.7 0  0.09999999999999964 -4.7 0  0.2000000000000002 -4.7 0  0.2999999999999998 -4.7 0  0.4000000000000004 -4.7 0  0.5 -4.7 0  0.5999999999999996 -4.7 0  0.7000000000000002 -4.7 0  0.7999999999999998 -4.7 0  0.9000000000000004 -4.7 0  1 -4.7 0  1.1 -4.7 0  1.2 -4.7 0  1.3 -4.7 0  1.4 -4.7 0  1.5 -4.7 0  1.6 -4.7 0  1.7 -4.7 0  1.8 -4.7 0  1.9 -4.7 0  2 -4.7 0  2.1 -4.7 0  2.2 -4.7 0  2.3 -4.7 0  2.4 -4.7 0  2.5 -4.7 0  2.6 -4.7 0  2.7 -4.7 0  2.8 -4.7 0  2.9 -4.7 0  3 -4.7 0  3.1 -4.7 0  3.199999999999999 -4.7 0  3.300000000000001 -4.7 0  3.4 -4.7 0  3.5 -4.7 0  3.6 -4.7 0  3.699999999999999 -4.7 0  3.800000000000001 -4.7 0  3.9 -4.7 0  4 -4.7 0  4.1 -4.7 0  4.199999999999999 -4.7 0  4.300000000000001 -4.7 0  4.4 -4.7 0  4.5 -4.7 0  4.6 -4.7 0  4.699999999999999 -4.7 0  4.800000000000001 -4.7 0  4.9 -4.7 0  5 -4.7 0  -5 -4.6 0  -4.9 -4.6 0  -4.8 -4.6 0  -4.7 -4.6 0  -4.6 -4.6 0  -4.5 -4.6 0  -4.4 -4.6 0  -4.3 -4.6 0  -4.2 -4.6 0  -4.1 -4.6 0  -4 -4.6 0  -3.9 -4.6 0  -3.8 -4.6 0  -3.7 -4.6 0  -3.6 -4.6 0  -3.5 -4.6 0  -3.4 -4.6 0  -3.3 -4.6 0  -3.2 -4.6 0  -3.1 -4.6 0  -3 -4.6 0  -2.9 -4.6 0  -2.8 -4.6 0  -2.7 -4.6 0  -2.6 -4.6 0  -2.5 -4.6 0  -2.4 -4.6 0  -2.3 -4.6 0  -2.2 -4.6 0  -2.1 -4.6 0  -2 -4.6 0  -1.9 -4.6 0  -1.8 -4.6 0  -1.7 -4.6 0  -1.6 -4.6 0  -1.5 -4.6 0  -1.4 -4.6 0  -1.3 -4.6 0  -1.2 -4.6 0  -1.1 -4.6 0  -1 -4.6 0  -0.9000000000000004 -4.6 0  -0.7999999999999998 -4.6 0  -0.7000000000000002 -4.6 0  -0.5999999999999996 -4.6 0  -0.5 -4.6 0  -0.4000000000000004 -4.6 0  -0.2999999999999998 -4.6 0  -0.2000000000000002 -4.6 0  -0.09999999999999964 -4.6 0  0 -4.6 0  0.09999999999999964 -4.6 0  0.2000000000000002 -4.6 0  0.2999999999999998 -4.6 0  0.4000000000000004 -4.6 0  0.5 -4.6 0  0.5999999999999996 -4.6 0  0.7000000000000002 -4.6 0  0.7999999999999998 -4.6 0  0.9000000000000004 -4.6 0  1 -4.6 0  1.1 -4.6 0  1.2 -4.6 0  1.3 -4.6 0  1.4 -4.6 0  1.5 -4.6 0  1.6 -4.6 0  1.7 -4.6 0  1.8 -4.6 0  1.9 -4.6 0  2 -4.6 0  2.1 -4.6 0  2.2 -4.6 0  2.3 -4.6 0  2.4 -4.6 0  2.5 -4.6 0  2.6 -4.6 0  2.7 -4.6 0  2.8 -4.6 0  2.9 -4.6 0  3 -4.6 0  3.1 -4.6 0  3.199999999999999 -4.6 0  3.300000000000001 -4.6 0  3.4 -4.6 0  3.5 -4.6 0  3.6 -4.6 0  3.699999999999999 -4.6 0  3.800000000000001 -4.6 0  3.9 -4.6 0  4 -4.6 0  4.1 -4.6 0  4.199999999999999 -4.6 0  4.300000000000001 -4.6 0  4.4 -4.6 0  4.5 -4.6 0  4.6 -4.6 0  4.699999999999999 -4.6 0  4.800000000000001 -4.6 0  4.9 -4.6 0  5 -4.6 0  -5 -4.5 0  -4.9 -4.5 0  -4.8 -4.5 0  -4.7 -4.5 0  -4.6 -4.5 0  -4.5 -4.5 0  -4.4 -4.5 0  -4.3 -4.5 0  -4.2 -4.5 0  -4.1 -4.5 0  -4 -4.5 0  -3.9 -4.5 0  -3.8 -4.5 0  -3.7 -4.5 0  -3.6 -4.5 0  -3.5 -4.5 0  -3.4 -4.5 0  -3.3 -4.5 0  -3.2 -4.5 0  -3.1 -4.5 0  -3 -4.5 0  -2.9 -4.5 0  -2.8 -4.5 0  -2.7 -4.5 0  -2.6 -4.5 0  -2.5 -4.5 0  -2.4 -4.5 0  -2.3 -4.5 0  -2.2 -4.5 0  -2.1 -4.5 0  -2 -4.5 0  -1.9 -4.5 0  -1.8 -4.5 0  -1.7 -4.5 0  -1.6 -4.5 0  -1.5 -4.5 0  -1.4 -4.5 0  -1.3 -4.5 0  -1.2 -4.5 0  -1.1 -4.5 0  -1 -4.5 0  -0.9000000000000004 -4.5 0  -0.7999999999999998 -4.5 0  -0.7000000000000002 -4.5 0  -0.5999999999999996 -4.5 0  -0.5 -4.5 0  -0.4000000000000004 -4.5 0  -0.2999999999999998 -4.5 0  -0.2000000000000002 -4.5 0  -0.09999999999999964 -4.5 0  0 -4.5 0  0.09999999999999964 -4.5 0  0.2000000000000002 -4.5 0  0.2999999999999998 -4.5 0  0.4000000000000004 -4.5 0  0.5 -4.5 0  0.5999999999999996 -4.5 0  0.7000000000000002 -4.5 0  0.7999999999999998 -4.5 0  0.9000000000000004 -4.5 0  1 -4.5 0  1.1 -4.5 0  1.2 -4.5 0  1.3 -4.5 0  1.4 -4.5 0  1.5 -4.5 0  1.6 -4.5 0  1.7 -4.5 0  1.8 -4.5 0  1.9 -4.5 0  2 -4.5 0  2.1 -4.5 0  2.2 -4.5 0  2.3 -4.5 0  2.4 -4.5 0  2.5 -4.5 0  2.6 -4.5 0  2.7 -4.5 0  2.8 -4.5 0  2.9 -4.5 0  3 -4.5 0  3.1 -4.5 0  3.199999999999999 -4.5 0  3.300000000000001 -4.5 0  3.4 -4.5 0  3.5 -4.5 0  3.6 -4.5 0  3.699999999999999 -4.5 0  3.800000000000001 -4.5 0  3.9 -4.5 0  4 -4.5 0  4.1 -4.5 0  4.199999999999999 -4.5 0  4.300000000000001 -4.5 0  4.4 -4.5 0  4.5 -4.5 0  4.6 -4.5 0  4.699999999999999 -4.5 0  4.800000000000001 -4.5 0  4.9 -4.5 0  5 -4.5 0  -5 -4.4 0  -4.9 -4.4 0  -4.8 -4.4 0  -4.7 -4.4 0  -4.6 -4.4 0  -4.5 -4.4 0  -4.4 -4.4 0  -4.3 -4.4 0  -4.2 -4.4 0  -4.1 -4.4 0  -4 -4.4 0  -3.9 -4.4 0  -3.8 -4.4 0  -3.7 -4.4 0  -3.6 -4.4 0  -3.5 -4.4 0  -3.4 -4.4 0  -3.3 -4.4 0  -3.2 -4.4 0  -3.1 -4.4 0  -3 -4.4 0  -2.9 -4.4 0  -2.8 -4.4 0  -2.7 -4.4 0  -2.6 -4.4 0  -2.5 -4.4 0  -2.4 -4.4 0  -2.3 -4.4 0  -2.2 -4.4 0  -2.1 -4.4 0  -2 -4.4 0  -1.9 -4.4 0  -1.8 -4.
[...]
<PointData  Vectors="f_23"> 
<DataArray  type="Float64"  Name="f_23"  NumberOfComponents="3" format="ascii">1.5000086435007748e-01 0.0000000000000000e+00 0.0000000000000000e+00  1.5000019721095265e-01 6.1536084215943114e-13 0.0000000000000000e+00  1.5000181226009898e-01 6.6504231320560239e-14 0.0000000000000000e+00  1.5000234129207768e-01 3.9391462117105975e-12 0.0000000000000000e+00  1.5000557182669688e-01 4.2384803045634622e-12 0.0000000000000000e+00  1.5000857507680412e-01 2.4566474294474174e-11 0.0000000000000000e+00  1.5001509544668670e-01 3.7936921029336665e-11 0.0000000000000000e+00  1.5002169818852290e-01 9.7094639755453346e-11 0.0000000000000000e+00  1.5003102625147716e-01 1.1417598489097247e-10 0.0000000000000000e+00  1.5003809991099731e-01 1.3555890879593057e-10 0.0000000000000000e+00  1.5004348977263585e-01 5.5304934681028329e-11 0.0000000000000000e+00  1.5004217252374583e-01 1.3747077506454957e-12 0.0000000000000000e+00  1.5003592024205903e-01 8.1805508331735658e-11 0.0000000000000000e+00  1.5002426364296340e-01 2.8767923747827855e-10 0.0000000000000000e+00  1.5001345719573683e-01 4.3781540408826793e-10 0.0000000000000000e+00  1.5000655414545871e-01 2.8309721740319040e-10 0.0000000000000000e+00  1.5000619356195993e-01 5.5102717930658465e-11 0.0000000000000000e+00  1.5000886422733870e-01 1.2369281880727502e-11 0.0000000000000000e+00  1.5001092744208502e-01 8.3528358472889311e-11 0.0000000000000000e+00  1.5000783579103219e-01 6.2380061060394691e-11 0.0000000000000000e+00  1.4999971354165992e-01 3.7657969282017567e-12 0.0000000000000000e+00  1.4999102903677580e-01 1.8929099238643400e-11 0.0000000000000000e+00  1.4998714496419674e-01 4.5655957895490977e-11 0.0000000000000000e+00  1.4999020514917841e-01 2.1127146184086012e-12 0.0000000000000000e+00  1.5000082753748720e-01 6.8607556273089214e-11 0.0000000000000000e+00  1.5001331840805046e-01 1.5220483342451619e-10 0.0000000000000000e+00  1.5001498873458569e-01 3.6127935969431618e-11 0.0000000000000000e+00  1.5000387061391154e-01 1.6312802147927435e-11 0.0000000000000000e+00  1.4999512326236403e-01 8.9841055410423683e-11 0.0000000000000000e+00  1.4999634199118378e-01 5.7754315399454886e-11 0.0000000000000000e+00  1.5000035635938758e-01 4.8172489880504066e-13 0.0000000000000000e+00  1.5000640874132296e-01 2.5113138701605600e-11 0.0000000000000000e+00  1.5001414360300608e-01 2.0773324502369323e-11 0.0000000000000000e+00  1.5000947667574543e-01 1.0121633170698472e-12 0.0000000000000000e+00  1.4999261527797625e-01 6.7520188016560578e-11 0.0000000000000000e+00  1.4998807701707334e-01 9.8924320473420906e-11 0.0000000000000000e+00  1.5000227216975767e-01 5.5680119275496083e-12 0.0000000000000000e+00  1.5001336058416107e-01 2.4275739651134317e-10 0.0000000000000000e+00  1.5000660658659834e-01 1.0400881738207042e-11 0.0000000000000000e+00  1.4998967832113377e-01 3.5889907453648592e-10 0.0000000000000000e+00  1.4998684390711567e-01 5.6378523403278948e-11 0.0000000000000000e+00  1.5000834568583724e-01 3.8769623834874418e-10 0.0000000000000000e+00  1.5001717240434553e-01 6.9027290636284161e-11 0.0000000000000000e+00  1.4999101780577112e-01 3.7177059911584115e-10 0.0000000000000000e+00  1.4998246167673024e-01 3.6694095253481515e-11 0.0000000000000000e+00  1.5001212510196527e-01 3.2350151255080387e-10 0.0000000000000000e+00  1.5001390559272187e-01 3.3887117076467207e-12 0.0000000000000000e+00  1.4998446507527502e-01 2.4388591935895585e-10 0.0000000000000000e+00  1.4999319451679505e-01 8.4396970680918633e-12 0.0000000000000000e+00  1.5001653820211780e-01 1.4200477098191377e-10 0.0000000000000000e+00  1.4999831548052134e-01 4.6164462613463621e-11 0.0000000000000000e+00  1.4998649180886139e-01 4.9987830402806328e-11 0.0000000000000000e+00  1.5000855886251002e-01 7.6021662963962128e-11 0.0000000000000000e+00  1.5000699350771432e-01 3.4493754376807137e-12 0.0000000000000000e+00  1.4998871973404199e-01 6.6741144889890256e-11 0.0000000000000000e+00  1.5000047006096018e-01 6.3607757868479057e-12 0.0000000000000000e+00  1.5000923325887494e-01 3.0071079784791996e-11 0.0000000000000000e+00  1.4999422195487111e-01 2.4477851584602314e-11 0.0000000000000000e+00  1.4999587529042718e-01 3.2758128054155749e-12 0.0000000000000000e+00  1.5000708605907548e-01 2.4630520764603416e-11 0.0000000000000000e+00  1.4999895905861468e-01 1.8119243938793105e-12 0.0000000000000000e+00  1.4999517750089084e-01 9.6096346236321126e-12 0.0000000000000000e+00  1.5000379264125785e-01 8.1475646487445211e-12 0.0000000000000000e+00  1.5000117783734057e-01 3.9555496609824440e-13 0.0000000000000000e+00  1.4999647038722921e-01 6.3299593371647772e-12 0.0000000000000000e+00  1.5000147479063036e-01 1.2675811470673016e-12 0.0000000000000000e+00  1.5000150879314325e-01 1.2007723936054963e-12 0.0000000000000000e+00  1.4999794269069305e-01 2.3362470649298323e-12 0.0000000000000000e+00  1.5000038963926191e-01 6.4770445091446321e-14 0.0000000000000000e+00  1.5000112871003243e-01 8.1381590763122837e-13 0.0000000000000000e+00  1.4999891229799839e-01 6.8812228323952619e-13 0.0000000000000000e+00  1.5000006414835501e-01 2.6753626940175484e-18 0.0000000000000000e+00  1.5000065191669684e-01 2.9069186761804621e-13 0.0000000000000000e+00  1.4999947770261801e-01 1.4633370758373171e-13 0.0000000000000000e+00  1.4999996450473690e-01 9.0163458145720302e-15 0.0000000000000000e+00  1.5000038786301270e-01 1.3233032224329299e-13 0.0000000000000000e+00  1.4999968057635651e-01 7.3174691895797829e-14 0.0000000000000000e+00  1.5000004879514578e-01 7.7642304833741603e-16 0.0000000000000000e+00  1.5000012774688626e-01 1.1551870866508358e-14 0.0000000000000000e+00  1.4999989251787613e-01 4.1856551544062295e-15 0.0000000000000000e+00  1.4999998212807855e-01 3.3202419054651165e-15 0.0000000000000000e+00  1.5000011407700220e-01 1.8753282809311996e-14 0.0000000000000000e+00  1.4999987699565148e-01 1.7016116299353565e-14 0.0000000000000000e+00  1.5000007266558726e-01 5.5460969437285997e-15 0.0000000000000000e+00  1.4999997966822087e-01 6.5722726834952168e-16 0.0000000000000000e+00  1.5000000036612054e-01 1.5894379836294718e-16 0.0000000000000000e+00  1.4999998877000684e-01 7.9994823699227762e-16 0.0000000000000000e+00  1.5000003230493480e-01 2.4661526598378831e-15 0.0000000000000000e+00  1.4999995460823051e-01 3.5350049996459241e-15 0.0000000000000000e+00  1.5000004483680671e-01 2.9745670426937646e-15 0.0000000000000000e+00  1.4999996460447432e-01 1.7550096682489780e-15 0.0000000000000000e+00  1.5000002489675540e-01 9.1642086541897709e-16 0.0000000000000000e+00  1.4999998138023363e-01 6.0312465371416193e-16 0.0000000000000000e+00  1.5000001740665259e-01 6.0624936548053004e-16 0.0000000000000000e+00  1.4999998061129644e-01 7.5130868335019850e-16 0.0000000000000000e+00  1.5000002153675154e-01 8.7450479261625535e-16 0.0000000000000000e+00  1.4999997745128832e-01 8.6150014805944415e-16 0.0000000000000000e+00  1.5000002016876243e-01 5.9844642290287939e-16 0.0000000000000000e+00  1.4999997876855456e-01 4.1409085606404057e-16 0.0000000000000000e+00  1.5000001080351910e-01 9.6528026814077626e-17 0.0000000000000000e+00  1.4999997523471892e-01 0.0000000000000000e+00 0.0000000000000000e+00  1.5000019721095226e-01 0.0000000000000000e+00 6.1536084136056096e-13  1.4999905221099052e-01 1.2348690102609085e-15 1.2348690448957235e-15  1.4999926892246632e-01 1.1100243054732938e-12 1.1221683767058503e-12  1.4999730030855937e-01 4.6584211160656928e-13 1.7837589411949349e-12  1.4999613334987785e-01 7.5675800939335204e-12 9.8221229808405558e-12  1.4999184306258556e-01 1.0210231674748241e-11 2.1955739783264382e-11  1.4998769367212958e-01 4.2857738320592989e-11 6.7287869769292302e-11  1.4997974351125148e-01 6.3579058151479984e-11 1.2985589135237275e-10  1.4997230531987860e-01 1.3219780425111246e-10 2.6132800587477992e-10  1.4996280967106898e-01 1.2761756417112905e-10 3.6742472122962739e-10  1.4995731548568222e-01 1.1099335764560863e-10 4.6982412301345256e-10  1.4995461232532328e-01 1.6497046186741279e-11 4.0929924390801692e-10  1.4995944656730850e-01 1.4527952217774038e-11 2.9574863631724134e-10  1.4996812323555289e-01 1.9488093725088514e-10 1.3291963051823434e-10  1.4998014929097958e-01 3.7594421240445314e-10 5.6271674039698117e-11  1.4998850863987212e-01 3.8710331175746980e-10 2.7489432526143104e-11  1.4999240623480012e-01 1.5383009659601124e-10 4.0736719959597927e-11  1.4999137624452372e-01 6.0073036767863666e-12 5.2983965688990290e-11  1.4999020439545988e-01 3.4955118173295955e-11 4.0882632379308949e-11  1.4999153313772301e-01 5.7288368130873232e-11 3.6658907754939867e-12  1.4999792787551633e-01 1.7257992300409537e-11 1.5564064570292348e-11  1.5000615795684699e-01 1.8077044990007574e-12 7.0305192092620800e-11  1.5001138885683840e-01 2.5999617930052819e-11 7.0594559869436475e-11  1.5001076689205722e-01 1.1902732167578490e-11 2.0058255518159963e-11  1.5000399849184104e-01 2.0510891196416740e-11 2.5708372570925366e-12  1.4999242426243667e-01 1.2426205770741549e-10 4.3432753857902306e-11  1.4998541456896144e-01 7.3962702131371007e-11 3.2648328570615892e-11  1.4999181811087331e-01 4.1616156368912148e-14 3.1071547239389903e-12  1.5000287460663103e-01 5.0233328760035279e-11 5.6530620993389690e-11  1.5000453302223252e-01 6.8935710492467175e-11 2.6960458886301123e-11  1.5000009074934192e-01 1.2284351212835610e-11 2.4436551633515544e-13  1.4999594964377153e-01 1.2217019153110077e-11 2.0944224694978141e-11  1.4998912859951402e-01 2.4545571927753918e-11 5.2397668269459053e-11  1.4998730864874490e-01 1.7830163777637876e-14 1.8793509226094104e-11  1.5000040342593429e-01 3.0686137584654726e-11 2.5840766629774917e-11  1.5001140911235741e-01 6.2890097478420212e-11 6.0325004154987563e-11  1.5000304948285559e-01 1.0999659885796808e-11 5.5447406950789451e-12  1.4999030808672231e-01 7.7366465944245573e-11 8.9917149189486218e-11  1.4999106232468543e-01 9.8310416122763117e-11 6.1673503264737824e-12  1.5000264181394435e-01 7.5707843439776058e-11 5.7012175705356981e-11  1.5001204569445431e-01 2.1822615899638542e-10 3.5566553142283428e-11  1.5000301967992005e-01 5.9571909379118709e-11 2.8038558532607850e-11  1.4998510983305810e-01 2.5831911059319010e-10 6.7410506352467227e-11  1.4999457344179329e-01 5.8415700285690622e-11 1.7464606900816118e-11  1.5001721680692662e-01 2.1410021103765501e-10 7.8943292419357243e-11  1.5000342642272263e-01 6.9752164337964983e-11 2.3444557247305244e-11  1.4998192644125638e-01 1.2771178430405677e-10 6.1042198696217144e-11  1.5000188099475345e-01 8.4618740440588897e-11 4.1898042406292343e-11  1.5001590435061737e-01 4.8819436242430188e-11 2.3560373456718110e-11  1.4999199723497869e-01 8.8204388568187522e-11 5.8574366070988535e-11  1.4998972073454375e-01 6.2326905849531062e-12 4.2991749970424509e-13  1.5001190513137599e-01 7.0988192215452279e-11 4.9654921537996618e-11  1.5000257186647764e-01 1.9743569518332135e-12 1.1532684813639278e-11  1.4998839001631370e-01 3.8706396949540570e-11 1.8757495661430051e-11  1.5000443672646746e-01 1.6241631730859477e-11 3.2371059963156676e-11  1.5000730125913742e-01 1.0091348288924364e-11 2.0713027646125580e-13  1.4999191260874356e-01 2.4268404908615849e-11 2.8753049196374891e-11  1.4999874062779425e-01 6.7599651563482739e-15 8.1172598661358623e-12  1.5000742855011448e-01 1.6743850839042465e-11 8.3349293962399188e-12  1.4999649691727035e-01 4.6114994715542858e-12 1.7201589727575758e-11  1.4999624363127842e-01 4.4497013312483506e-12 2.9558192535556576e-14  1.5000506834485611e-01 8.4405435648894715e-12 1.0319431149337242e-11  1.4999968403490641e-01 1.0535781982876013e-15 4.6295940505334792e-12  1.4999639498307543e-01 4.9636035892199262e-12 1.1743014806322841e-12  1.5000257361049749e-01 1.9214717427003521e-12 5.3648562274530058e-12  1.5000091271527766e-01 6.4330823080893431e-13 5.4259568356172905e-13  1.4999755586364302e-01 2.3541673321524182e-12 1.3827901067183646e-12  1.5000102343799177e-01 1.7057029390392458e-13 1.7762742205585069e-12  1.5000098837528436e-01 7.0754005349381447e-13 1.2528316799261613e-14  1.4999858849574718e-01 7.9401588946227712e-13 7.0905676408376477e-13  1.5000036809159492e-01 3.4224005181724428e-15 4.8413866829417485e-13  1.5000065106818547e-01 3.0424622336027386e-13 1.7843564357807344e-15  1.4999929149190022e-01 1.7401151707695910e-13 2.3811587618639615e-13  1.5000009151841959e-01 9.0122002431644673e-15 1.1687579218528215e-13  1.5000041356217303e-01 1.5322959219533947e-13 3.4113066713624188e-15  1.4999958452115769e-01 8.0514198003497800e-14 7.8677009905604103e-14  1.5000010396548516e-01 8.3767010116722386e-17 4.2999173316775986e-14  1.5000014381689861e-01 1.9009901695384253e-14 1.1998142696202607e-16  1.4999984708355968e-01 6.4979518147184361e-15 1.1053233740185838e-14  1.5000000946910497e-01 3.5815461420861820e-15 6.6332389555874969e-15  1.5000011633963059e-01 1.9921125455051881e-14 1.0985440413102945e-16  1.4999986274742388e-01 1.4772480229354544e-14 5.9400613406886467e-15  1.5000007934874193e-01 2.6989080477471516e-15 6.5767915025749294e-15  1.4999998583197471e-01 4.0511759562548911e-23 1.9730665780141556e-15  1.4999998799055891e-01 3.9022120999317924e-17 5.5143965381032971e-17  1.4999999906938644e-01 3.3185244115816728e-16 3.8916745951181424e-17  1.5000002737877621e-01 1.9232268081169394e-15 4.6636586571052965e-18  1.4999995573787500e-01 2.7638129071514865e-15 3.3018357054641833e-16  1.5000004455002816e-01 1.9934878214095788e-15 8.3227264195173529e-16  1.4999996566321611e-01 9.4317824905976595e-16 8.8795943651370677e-16  1.5000002328154755e-01 4.3250527663039599e-16 5.7453268040463831e-16  1.4999998262501249e-01 3.4578045584702878e-16 2.8187654703834054e-16  1.5000001726270870e-01 4.8277395070287530e-16 1.4926874052468683e-16  1.4999997991264599e-01 6.9799522956042814e-16 1.2538617423511788e-16  1.5000002270596843e-01 8.0625069473268650e-16 1.6040967568865155e-16  1.4999997715464258e-01 7.0948565408968717e-16 2.0757649773998076e-16  1.5000002069422463e-01 4.8207453747131577e-16 2.3400095533316508e-16  1.4999998418956986e-01 2.2409763837442600e-16 1.8867903539710671e-16  1.5000001357464851e-01 1.2534049117510320e-16 1.7262882756482156e-16  1.4999999733278618e-01 2.0580156680820689e-17 2.0580155909750011e-17  1.5000001080351955e-01 0.0000000000000000e+00 9.6528015007769393e-17  1.5000181226009929e-01 0.0000000000000000e+00 6.6504231321058660e-14  1.4999926892246648e-01 1.1221683775441219e-12 1.1100243066824103e-12  1.5000212883407660e-01 3.2885736425407462e-13 3.2885736439897931e-13  1.5000100770614999e-01 5.9555138014474527e-12 8.0486268917103542e-12  1.5000521604737146e-01 3.0892511247760542e-13 1.2958727883355650e-11  1.5000604104575962e-01 2.6446731416819283e-11 6.6966709594489610e-11  1.5001359111414550e-01 1.6389905862581301e-11 1.3464881952475402e-10  1.5001801202858228e-01 1.0317485235618654e-10 3.9236807673489736e-10  1.5002954655149608e-01 9.2112503118410539e-11 6.8219298947770759e-10  1.5003653170028364e-01 2.2010766208325742e-10 1.2942302184777041e-09  1.5004750723162963e-01 1.2375697521560927e-10 1.6432998764663154e-09  1.5004949888446292e-01 1.0269568206449920e-10 1.9745264284691759e-09  1.5005036400863567e-01 3.2233749131169363e-13 1.5672383379085529e-09  1.5004080623076277e-01 6.8245877763279180e-11 1.1076651108835543e-09  1.5003126122319055e-01 3.6734716406497247e-10 4.9231307428716168e-10  1.5001877099600827e-01 4.3107162840480412e-10 2.5673411289958880e-10  1.5001362987682565e-01 3.5622151869515085e-10 1.5266400839527845e-10  1.5001070081062107e-01 7.8650218938536446e-11 1.9443360144891852e-10  1.5001131839525728e-01 5.1543533284739964e-14 1.6046350722781293e-10  1.5000880941375233e-01 3.2194338514974633e-11 7.0908270773027153e-11  1.5000393859168698e-01 1.8850346079630982e-11 1.2110498966188028e-12  1.4999539766770661e-01 9.4864857587486102e-13 1.0701611926740385e-10  1.4998933802455058e-01 9.9941264059526921e-12 2.3353109538402851e-10  1.4998817742274842e-01 1.6228629146687181e-11 1.5745702064715096e-10  1.4999253486731837e-01 1.1749858884898126e-12 2.5713622410985784e-11  1.5000168480855047e-01 9.3503191339069838e-11 2.4437638403855901e-11  1.5001174386082872e-01 1.2428642539891857e-10 1.2515120306048521e-10  1.5001096160232538e-01 1.1217621883388005e-11 2.5947554261765507e-11  1.4999917884363548e-01 2.4380071192599800e-11 7.8976104042507217e-11  1.4999327278634123e-01 6.0270423348156385e-11 1.6483679414644570e-10  1.4999847415652107e-01 2.9729370660867422e-11 1.8060743748745947e-11  1.5000332008443862e-01 1.2400886240639626e-12 1.4653367663354656e-11  1.5000799692140035e-01 3.4608256200097257e-11 9.3950975990202993e-11  1.5001418040202005e-01 4.6645708406446304e-12 1.7313888703109320e-10  1.5000704601315018e-01 2.4345384635970731e-11 5.6691720169407196e-12  1.4999045638466896e-01 5.9291334715776836e-11 1.8033666626428723e-10  1.4999176523727709e-01 2.9921032021251691e-11 5.1631534527443834e-11  1.5000767631285247e-01 1.0793185909921963e-11 1.4630937022393676e-10  1.5001091222739085e-01 1.2700855547997637e-10 1.5421540130086031e-10  1.5000060066426613e-01 4.4589280612678597e-13 1.7338286162263679e-11  1.4999130088152021e-01 2.4941925284126006e-10 1.6109585546550888e-10  1.4999238095226047e-01 1.7658673918284137e-11 9.1086482430670000e-12  1.5000748245409501e-01 2.9958058525224701e-10 1.5784281683535315e-10  1.5001280392038249e-01 2.2909262819096107e-11 6.1129079367421031e-11  1.4999152072128444e-01 2.9050759101161059e-10 1.7633370007978601e-10  1.4998583983438762e-01 8.4983600705287388e-12 6.9917609853811446e-11  1.5001165673083264e-01 2.3526264838545841e-10 2.2063674488524870e-10  1.5001117941773950e-01 1.1147086537872049e-13 2.2433273557482067e-11  1.4998542520204439e-01 1.5518930491961016e-10 2.3019980886520118e-10  1.4999546456059323e-01 1.3160182857021093e-11 2.7798382446570609e-12  1.5001467546746736e-01 7.4777023021999340e-11 1.5408545126562406e-10  1.4999681355299160e-01 3.5083845999872627e-11 6.1256225646635121e-11  1.4998930139380823e-01 1.9291737430854380e-11 3.9313790348838176e-11  1.5000873535443915e-01 4.3426909389727792e-11 1.1495156485015046e-10  1.5000385709384700e-01 1.5605727407790600e-13 1.4646917188726706e-12  1.4999019992418719e-01 3.0511860790422562e-11 7.8983944372864673e-11  1.5000287616914301e-01 6.5227690909470191e-12 4.6750913297975586e-11  1.5000647679579993e-01 1.0053156934539240e-11 1.2430760414015397e-11  1.4999345697473729e-01 1.4774084416951390e-11 6.7958567190547087e-11  1.4999881987022565e-01 2.0229134666695038e-13 4.9185176129209010e-12  1.5000607631069809e-01 1.1456109209931820e-11 3.0079000342582750e-11  1.4999703057437191e-01 2.5669491839569411e-12 2.8214686916629322e-11  1.4999717895736356e-01 3.0342600635468747e-12 8.8077736876117835e-13  1.5000412304212551e-01 5.3466535562296871e-12 2.2446732586644809e-11  1.4999937406265759e-01 9.6069331578833974e-15 5.8738568892687371e-12  1.4999740089713690e-01 2.8001710341508862e-12 3.5862727253919113e-12  1.5000220859126032e-01 1.2752240891890453e-12 9.3820120143561774e-12  1.5000033581383435e-01 2.6818274993649268e-13 5.9588984211494606e-13  1.4999819106135748e-01 1.4716829931826322e-12 2.6318419346281575e-12  1.5000110494848604e-01 2.7514008705317492e-13 2.9768109545968768e-12  1.5000037342843184e-01 1.7569695705932755e-13 3.2676766112722279e-14  1.4999903691451930e-01 3.5293835863210106e-13 1.0148921891487660e-12  1.5000042178642534e-01 4.5310392921815551e-15 7.4879758947162298e-13  1.5000037030636940e-01 1.9851994037661245e-13 4.9158347713071869e-16  1.4999936495437249e-01 2.3866241826416427e-13 3.8646987937299794e-13  1.5000034735331974e-01 3.6861052595450854e-14 2.8444677901729592e-13  1.5000004017771354e-01 3.9123757888097839e-15 7.8437331441147012e-15  1.4999982825309413e-01 5.2572244894130960e-15 4.7058743562910268e-14  1.5000004201749992e-01 6.6566494737385458e-15 3.7637451032932345e-14  1.5000014530493577e-01 4.5987842820641333e-14 2.0842773887213322e-16  1.4999977474066856e-01 5.2124925758606511e-14 3.2876288988982945e-14  1.5000018097128462e-01 2.3996832612239837e-14 4.0689381811274405e-14  1.4999990779