<?xml version="1.0"?>
<VTKFile type="UnstructuredGrid"  version="0.1"  >
<UnstructuredGrid>
<Piece  NumberOfPoints="10201" NumberOfCells="20000">
<Points>
<DataArray  type="Float64"  NumberOfComponents="3"  format="ascii">-5 -5 0  -4.9 -5 0  -4.8 -5 0  -4.7 -5 0  -4.6 -5 0  -4.5 -5 0  -4.4 -5 0  -4.3 -5 0  -4.2 -5 0  -4.1 -5 0  -4 -5 0  -3.9 -5 0  -3.8 -5 0  -3.7 -5 0  -3.6 -5 0  -3.5 -5 0  -3.4 -5 0  -3.3 -5 0  -3.2 -5 0  -3.1 -5 0  -3 -5 0  -2.9 -5 0  -2.8 -5 0  -2.7 -5 0  -2.6 -5 0  -2.5 -5 0  -2.4 -5 0  -2.3 -5 0  -2.2 -5 0  -2.1 -5 0  -2 -5 0  -1.9 -5 0  -1.8 -5 0  -1.7 -5 0  -1.6 -5 0  -1.5 -5 0  -1.4 -5 0  -1.3 -5 0  -1.2 -5 0  -1.1 -5 0  -1 -5 0  -0.9000000000000004 -5 0  -0.7999999999999998 -5 0  -0.7000000000000002 -5 0  -0.5999999999999996 -5 0  -0.5 -5 0  -0.4000000000000004 -5 0  -0.2999999999999998 -5 0  -0.2000000000000002 -5 0  -0.09999999999999964 -5 0  0 -5 0  0.09999999999999964 -5 0  0.2000000000000002 -5 0  0.2999999999999998 -5 0  0.4000000000000004 -5 0  0.5 -5 0  0.5999999999999996 -5 0  0.7000000000000002 -5 0  0.7999999999999998 -5 0  0.9000000000000004 -5 0  1 -5 0  1.1 -5 0  1.2 -5 0  1.3 -5 0  1.4 -5 0  1.5 -5 0  1.6 -5 0  1.7 -5 0  1.8 -5 0  1.9 -5 0  2 -5 0  2.1 -5 0  2.2 -5 0  2.3 -5 0  2.4 -5 0  2.5 -5 0  2.6 -5 0  2.7 -5 0  2.8 -5 0  2.9 -5 0  3 -5 0  3.1 -5 0  3.199999999999999 -5 0  3.300000000000001 -5 0  3.4 -5 0  3.5 -5 0  3.6 -5 0  3.699999999999999 -5 0  3.800000000000001 -5 0  3.9 -5 0  4 -5 0  4.1 -5 0  4.199999999999999 -5 0  4.300000000000001 -5 0  4.4 -5 0  4.5 -5 0  4.6 -5 0  4.699999999999999 -5 0  4.800000000000001 -5 0  4.9 -5 0  5 -5 0  -5 -4.9 0  -4.9 -4.9 0  -4.8 -4.9 0  -4.7 -4.9 0  -4.6 -4.9 0  -4.5 -4.9 0  -4.4 -4.9 0  -4.3 -4.9 0  -4.2 -4.9 0  -4.1 -4.9 0  -4 -4.9 0  -3.9 -4.9 0  -3.8 -4.9 0  -3.7 -4.9 0  -3.6 -4.9 0  -3.5 -4.9 0  -3.4 -4.9 0  -3.3 -4.9 0  -3.2 -4.9 0  -3.1 -4.9 0  -3 -4.9 0  -2.9 -4.9 0  -2.8 -4.9 0  -2.7 -4.9 0  -2.6 -4.9 0  -2.5 -4.9 0  -2.4 -4.9 0  -2.3 -4.9 0  -2.2 -4.9 0  -2.1 -4.9 0  -2 -4.9 0  -1.9 -4.9 0  -1.8 -4.9 0  -1.7 -4.9 0  -1.6 -4.9 0  -1.5 -4.9 0  -1.4 -4.9 0  -1.3 -4.9 0  -1.2 -4.9 0  -1.1 -4.9 0  -1 -4.9 0  -0.9000000000000004 -4.9 0  -0.7999999999999998 -4.9 0  -0.7000000000000002 -4.9 0  -0.5999999999999996 -4.9 0  -0.5 -4.9 0  -0.4000000000000004 -4.9 0  -0.2999999999999998 -4.9 0  -0.2000000000000002 -4.9 0  -0.09999999999999964 -4.9 0  0 -4.9 0  0.09999999999999964 -4.9 0  0.2000000000000002 -4.9 0  0.2999999999999998 -4.9 0  0.4000000000000004 -4.9 0  0.5 -4.9 0  0.5999999999999996 -4.9 0  0.7000000000000002 -4.9 0  0.7999999999999998 -4.9 0  0.9000000000000004 -4.9 0  1 -4.9 0  1.1 -4.9 0  1.2 -4.9 0  1.3 -4.9 0  1.4 -4.9 0  1.5 -4.9 0  1.6 -4.9 0  1.7 -4.9 0  1.8 -4.9 0  1.9 -4.9 0  2 -4.9 0  2.1 -4.9 0  2.2 -4.9 0  2.3 -4.9 0  2.4 -4.9 0  2.5 -4.9 0  2.6 -4.9 0  2.7 -4.9 0  2.8 -4.9 0  2.9 -4.9 0  3 -4.9 0  3.1 -4.9 0  3.199999999999999 -4.9 0  3.300000000000001 -4.9 0  3.4 -4.9 0  3.5 -4.9 0  3.6 -4.9 0  3.699999999999999 -4.9 0  3.800000000000001 -4.9 0  3.9 -4.9 0  4 -4.9 0  4.1 -4.9 0  4.199999999999999 -4.9 0  4.300000000000001 -4.9 0  4.4 -4.9 0  4.5 -4.9 0  4.6 -4.9 0  4.699999999999999 -4.9 0  4.800000000000001 -4.9 0  4.9 -4.9 0  5 -4.9 0  -5 -4.8 0  -4.9 -4.8 0  -4.8 -4.8 0  -4.7 -4.8 0  -4.6 -4.8 0  -4.5 -4.8 0  -4.4 -4.8 0  -4.3 -4.8 0  -4.2 -4.8 0  -4.1 -4.8 0  -4 -4.8 0  -3.9 -4.8 0  -3.8 -4.8 0  -3.7 -4.8 0  -3.6 -4.8 0  -3.5 -4.8 0  -3.4 -4.8 0  -3.3 -4.8 0  -3.2 -4.8 0  -3.1 -4.8 0  -3 -4.8 0  -2.9 -4.8 0  -2.8 -4.8 0  -2.7 -4.8 0  -2.6 -4.8 0  -2.5 -4.8 0  -2.4 -4.8 0  -2.3 -4.8 0  -2.2 -4.8 0  -2.1 -4.8 0  -2 -4.8 0  -1.9 -4.8 0  -1.8 -4.8 0  -1.7 -4.8 0  -1.6 -4.8 0  -1.5 -4.8 0  -1.4 -4.8 0  -1.3 -4.8 0  -1.2 -4.8 0  -1.1 -4.8 0  -1 -4.8 0  -0.9000000000000004 -4.8 0  -0.7999999999999998 -4.8 0  -0.7000000000000002 -4.8 0  -0.5999999999999996 -4.8 0  -0.5 -4.8 0  -0.4000000000000004 -4.8 0  -0.2999999999999998 -4.8 0  -0.2000000000000002 -4.8 0  -0.09999999999999964 -4.8 0  0 -4.8 0  0.09999999999999964 -4.8 0  0.2000000000000002 -4.8 0  0.2999999999999998 -4.8 0  0.4000000000000004 -4.8 0  0.5 -4.8 0  0.5999999999999996 -4.8 0  0.7000000000000002 -4.8 0  0.7999999999999998 -4.8 0  0.9000000000000004 -4.8 0  1 -4.8 0  1.1 -4.8 0  1.2 -4.8 0  1.3 -4.8 0  1.4 -4.8 0  1.5 -4.8 0  1.6 -4.8 0  1.7 -4.8 0  1.8 -4.8 0  1.9 -4.8 0  2 -4.8 0  2.1 -4.8 0  2.2 -4.8 0  2.3 -4.8 0  2.4 -4.8 0  2.5 -4.8 0  2.6 -4.8 0  2.7 -4.8 0  2.8 -4.8 0  2.9 -4.8 0  3 -4.8 0  3.1 -4.8 0  3.199999999999999 -4.8 0  3.300000000000001 -4.8 0  3.4 -4.8 0  3.5 -4.8 0  3.6 -4.8 0  3.699999999999999 -4.8 0  3.800000000000001 -4.8 0  3.9 -4.8 0  4 -4.8 0  4.1 -4.8 0  4.199999999999999 -4.8 0  4.300000000000001 -4.8 0  4.4 -4.8 0  4.5 -4.8 0  4.6 -4.8 0  4.699999999999999 -4.8 0  4.800000000000001 -4.8 0  4.9 -4.8 0  5 -4.8 0  -5 -4.7 0  -4.9 -4.7 0  -4.8 -4.7 0  -4.7 -4.7 0  -4.6 -4.7 0  -4.5 -4.7 0  -4.4 -4.7 0  -4.3 -4.7 0  -4.2 -4.7 0  -4.1 -4.7 0  -4 -4.7 0  -3.9 -4.7 0  -3.8 -4.7 0  -3.7 -4.7 0  -3.6 -4.7 0  -3.5 -4.7 0  -3.4 -4.7 0  -3.3 -4.7 0  -3.2 -4.7 0  -3.1 -4.7 0  -3 -4.7 0  -2.9 -4.7 0  -2.8 -4.7 0  -2.7 -4.7 0  -2.6 -4.7 0  -2.5 -4.7 0  -2.4 -4.7 0  -2.3 -4.7 0  -2.2 -4.7 0  -2.1 -4.7 0  -2 -4.7 0  -1.9 -4.7 0  -1.8 -4.7 0  -1.7 -4.7 0  -1.6 -4.7 0  -1.5 -4.7 0  -1.4 -4.7 0  -1.3 -4.7 0  -1.2 -4.7 0  -1.1 -4.7 0  -1 -4.7 0  -0.9000000000000004 -4.7 0  -0.7999999999999998 -4.7 0  -0.7000000000000002 -4.7 0  -0.5999999999999996 -4.7 0  -0.5 -4.7 0  -0.4000000000000004 -4.7 0  -0.2999999999999998 -4.7 0  -0.2000000000000002 -4.7 0  -0.09999999999999964 -4.7 0  0 -4.7 0  0.09999999999999964 -4.7 0  0.2000000000000002 -4.7 0  0.2999999999999998 -4.7 0  0.4000000000000004 -4.7 0  0.5 -4.7 0  0.5999999999999996 -4.7 0  0.7000000000000002 -4.7 0  0.7999999999999998 -4.7 0  0.9000000000000004 -4.7 0  1 -4.7 0  1.1 -4.7 0  1.2 -4.7 0  1.3 -4.7 0  1.4 -4.7 0  1.5 -4.7 0  1.6 -4.7 0  1.7 -4.7 0  1.8 -4.7 0  1.9 -4.7 0  2 -4.7 0  2.1 -4.7 0  2.2 -4.7 0  2.3 -4.7 0  2.4 -4.7 0  2.5 -4.7 0  2.6 -4.7 0  2.7 -4.7 0  2.8 -4.7 0  2.9 -4.7 0  3 -4.7 0  3.1 -4.7 0  3.199999999999999 -4.7 0  3.300000000000001 -4.7 0  3.4 -4.7 0  3.5 -4.7 0  3.6 -4.7 0  3.699999999999999 -4.7 0  3.800000000000001 -4.7 0  3.9 -4.7 0  4 -4.7 0  4.1 -4.7 0  4.199999999999999 -4.7 0  4.300000000000001 -4.7 0  4.4 -4.7 0  4.5 -4.7 0  4.6 -4.7 0  4.699999999999999 -4.7 0  4.800000000000001 -4.7 0  4.9 -4.7 0  5 -4.7 0  -5 -4.6 0  -4.9 -4.6 0  -4.8 -4.6 0  -4.7 -4.6 0  -4.6 -4.6 0  -4.5 -4.6 0  -4.4 -4.6 0  -4.3 -4.6 0  -4.2 -4.6 0  -4.1 -4.6 0  -4 -4.6 0  -3.9 -4.6 0  -3.8 -4.6 0  -3.7 -4.6 0  -3.6 -4.6 0  -3.5 -4.6 0  -3.4 -4.6 0  -3.3 -4.6 0  -3.2 -4.6 0  -3.1 -4.6 0  -3 -4.6 0  -2.9 -4.6 0  -2.8 -4.6 0  -2.7 -4.6 0  -2.6 -4.6 0  -2.5 -4.6 0  -2.4 -4.6 0  -2.3 -4.6 0  -2.2 -4.6 0  -2.1 -4.6 0  -2 -4.6 0  -1.9 -4.6 0  -1.8 -4.6 0  -1.7 -4.6 0  -1.6 -4.6 0  -1.5 -4.6 0  -1.4 -4.6 0  -1.3 -4.6 0  -1.2 -4.6 0  -1.1 -4.6 0  -1 -4.6 0  -0.9000000000000004 -4.6 0  -0.7999999999999998 -4.6 0  -0.7000000000000002 -4.6 0  -0.5999999999999996 -4.6 0  -0.5 -4.6 0  -0.4000000000000004 -4.6 0  -0.2999999999999998 -4.6 0  -0.2000000000000002 -4.6 0  -0.09999999999999964 -4.6 0  0 -4.6 0  0.09999999999999964 -4.6 0  0.2000000000000002 -4.6 0  0.2999999999999998 -4.6 0  0.4000000000000004 -4.6 0  0.5 -4.6 0  0.5999999999999996 -4.6 0  0.7000000000000002 -4.6 0  0.7999999999999998 -4.6 0  0.9000000000000004 -4.6 0  1 -4.6 0  1.1 -4.6 0  1.2 -4.6 0  1.3 -4.6 0  1.4 -4.6 0  1.5 -4.6 0  1.6 -4.6 0  1.7 -4.6 0  1.8 -4.6 0  1.9 -4.6 0  2 -4.6 0  2.1 -4.6 0  2.2 -4.6 0  2.3 -4.6 0  2.4 -4.6 0  2.5 -4.6 0  2.6 -4.6 0  2.7 -4.6 0  2.8 -4.6 0  2.9 -4.6 0  3 -4.6 0  3.1 -4.6 0  3.199999999999999 -4.6 0  3.300000000000001 -4.6 0  3.4 -4.6 0  3.5 -4.6 0  3.6 -4.6 0  3.699999999999999 -4.6 0  3.800000000000001 -4.6 0  3.9 -4.6 0  4 -4.6 0  4.1 -4.6 0  4.199999999999999 -4.6 0  4.300000000000001 -4.6 0  4.4 -4.6 0  4.5 -4.6 0  4.6 -4.6 0  4.699999999999999 -4.6 0  4.800000000000001 -4.6 0  4.9 -4.6 0  5 -4.6 0  -5 -4.5 0  -4.9 -4.5 0  -4.8 -4.5 0  -4.7 -4.5 0  -4.6 -4.5 0  -4.5 -4.5 0  -4.4 -4.5 0  -4.3 -4.5 0  -4.2 -4.5 0  -4.1 -4.5 0  -4 -4.5 0  -3.9 -4.5 0  -3.8 -4.5 0  -3.7 -4.5 0  -3.6 -4.5 0  -3.5 -4.5 0  -3.4 -4.5 0  -3.3 -4.5 0  -3.2 -4.5 0  -3.1 -4.5 0  -3 -4.5 0  -2.9 -4.5 0  -2.8 -4.5 0  -2.7 -4.5 0  -2.6 -4.5 0  -2.5 -4.5 0  -2.4 -4.5 0  -2.3 -4.5 0  -2.2 -4.5 0  -2.1 -4.5 0  -2 -4.5 0  -1.9 -4.5 0  -1.8 -4.5 0  -1.7 -4.5 0  -1.6 -4.5 0  -1.5 -4.5 0  -1.4 -4.5 0  -1.3 -4.5 0  -1.2 -4.5 0  -1.1 -4.5 0  -1 -4.5 0  -0.9000000000000004 -4.5 0  -0.7999999999999998 -4.5 0  -0.7000000000000002 -4.5 0  -0.5999999999999996 -4.5 0  -0.5 -4.5 0  -0.4000000000000004 -4.5 0  -0.2999999999999998 -4.5 0  -0.2000000000000002 -4.5 0  -0.09999999999999964 -4.5 0  0 -4.5 0  0.09999999999999964 -4.5 0  0.2000000000000002 -4.5 0  0.2999999999999998 -4.5 0  0.4000000000000004 -4.5 0  0.5 -4.5 0  0.5999999999999996 -4.5 0  0.7000000000000002 -4.5 0  0.7999999999999998 -4.5 0  0.9000000000000004 -4.5 0  1 -4.5 0  1.1 -4.5 0  1.2 -4.5 0  1.3 -4.5 0  1.4 -4.5 0  1.5 -4.5 0  1.6 -4.5 0  1.7 -4.5 0  1.8 -4.5 0  1.9 -4.5 0  2 -4.5 0  2.1 -4.5 0  2.2 -4.5 0  2.3 -4.5 0  2.4 -4.5 0  2.5 -4.5 0  2.6 -4.5 0  2.7 -4.5 0  2.8 -4.5 0  2.9 -4.5 0  3 -4.5 0  3.1 -4.5 0  3.199999999999999 -4.5 0  3.300000000000001 -4.5 0  3.4 -4.5 0  3.5 -4.5 0  3.6 -4.5 0  3.699999999999999 -4.5 0  3.800000000000001 -4.5 0  3.9 -4.5 0  4 -4.5 0  4.1 -4.5 0  4.199999999999999 -4.5 0  4.300000000000001 -4.5 0  4.4 -4.5 0  4.5 -4.5 0  4.6 -4.5 0  4.699999999999999 -4.5 0  4.800000000000001 -4.5 0  4.9 -4.5 0  5 -4.5 0  -5 -4.4 0  -4.9 -4.4 0  -4.8 -4.4 0  -4.7 -4.4 0  -4.6 -4.4 0  -4.5 -4.4 0  -4.4 -4.4 0  -4.3 -4.4 0  -4.2 -4.4 0  -4.1 -4.4 0  -4 -4.4 0  -3.9 -4.4 0  -3.8 -4.4 0  -3.7 -4.4 0  -3.6 -4.4 0  -3.5 -4.4 0  -3.4 -4.4 0  -3.3 -4.4 0  -3.2 -4.4 0  -3.1 -4.4 0  -3 -4.4 0  -2.9 -4.4 0  -2.8 -4.4 0  -2.7 -4.4 0  -2.6 -4.4 0  -2.5 -4.4 0  -2.4 -4.4 0  -2.3 -4.4 0  -2.2 -4.4 0  -2.1 -4.4 0  -2 -4.4 0  -1.9 -4.4 0  -1.8 -4.
[...]
<PointData  Vectors="f_17"> 
<DataArray  type="Float64"  Name="f_17"  NumberOfComponents="3" format="ascii">1.5000000000000011e-01 0.0000000000000000e+00 0.0000000000000000e+00  1.4999999999999997e-01 -2.0434060605915872e-16 0.0000000000000000e+00  1.4999999999999983e-01 -3.1493158498676048e-16 0.0000000000000000e+00  1.5000000000000058e-01 5.2698238528581308e-16 0.0000000000000000e+00  1.4999999999999999e-01 -3.5180603678209858e-16 0.0000000000000000e+00  1.4999999999999933e-01 -1.0320966404786320e-15 0.0000000000000000e+00  1.5000000000000119e-01 2.5208267903857981e-15 0.0000000000000000e+00  1.5000000000000138e-01 1.8452979862702678e-15 0.0000000000000000e+00  1.4999999999999689e-01 -1.1770691283316397e-14 0.0000000000000000e+00  1.5000000000000743e-01 -4.3291089128530291e-15 0.0000000000000000e+00  1.5000000000002225e-01 3.4496296833754944e-14 0.0000000000000000e+00  1.4999999999997207e-01 1.2724013130433154e-13 0.0000000000000000e+00  1.4999999999974778e-01 6.5007326263547429e-13 0.0000000000000000e+00  1.4999999999891309e-01 2.2224919054311128e-12 0.0000000000000000e+00  1.4999999999624647e-01 4.9603106470281362e-12 0.0000000000000000e+00  1.4999999999006838e-01 8.9881504827510383e-12 0.0000000000000000e+00  1.4999999997817012e-01 1.7526083651409560e-11 0.0000000000000000e+00  1.4999999995328739e-01 4.3786756493264317e-11 0.0000000000000000e+00  1.4999999989213150e-01 1.2224590647287684e-10 0.0000000000000000e+00  1.4999999974200912e-01 3.0159071916654108e-10 0.0000000000000000e+00  1.4999999942681408e-01 5.7095185117368011e-10 0.0000000000000000e+00  1.4999999892366095e-01 7.4902416245728765e-10 0.0000000000000000e+00  1.4999999841302913e-01 5.2851503625988950e-10 0.0000000000000000e+00  1.4999999831044450e-01 -1.9618739486561523e-10 0.0000000000000000e+00  1.4999999893105281e-01 -1.0211946628494558e-09 0.0000000000000000e+00  1.5000000000106281e-01 -1.2687047358558431e-09 0.0000000000000000e+00  1.5000000073198783e-01 -6.9901295965048176e-10 0.0000000000000000e+00  1.5000000064123700e-01 1.4775468093263967e-10 0.0000000000000000e+00  1.5000000011542591e-01 5.2480921973259206e-10 0.0000000000000000e+00  1.4999999984851548e-01 2.9853861743318793e-10 0.0000000000000000e+00  1.4999999994897611e-01 -3.9904820655620720e-11 0.0000000000000000e+00  1.5000000003390460e-01 -1.0199789211295528e-10 0.0000000000000000e+00  1.4999999997266028e-01 -1.9227364125875199e-12 0.0000000000000000e+00  1.4999999997019969e-01 1.4276542810145904e-11 0.0000000000000000e+00  1.5000000005318825e-01 -2.9053599113317458e-11 0.0000000000000000e+00  1.5000000004185687e-01 -2.8197022827297600e-12 0.0000000000000000e+00  1.4999999995398419e-01 4.3155336696239949e-11 0.0000000000000000e+00  1.4999999995977317e-01 9.9240966869376737e-12 0.0000000000000000e+00  1.5000000003285990e-01 -3.8675850003349827e-11 0.0000000000000000e+00  1.5000000002977404e-01 -1.2480450854780881e-11 0.0000000000000000e+00  1.4999999997735161e-01 2.8871053917993460e-11 0.0000000000000000e+00  1.4999999998183394e-01 9.6723687118715729e-12 0.0000000000000000e+00  1.5000000001563579e-01 -2.0012225644249441e-11 0.0000000000000000e+00  1.5000000000907238e-01 -5.1722904233948526e-12 0.0000000000000000e+00  1.4999999998948835e-01 1.3235119025752723e-11 0.0000000000000000e+00  1.4999999999675279e-01 1.3942107053769460e-12 0.0000000000000000e+00  1.5000000000654348e-01 -8.1838057569234298e-12 0.0000000000000000e+00  1.5000000000019262e-01 8.5629354184411963e-13 0.0000000000000000e+00  1.4999999999644167e-01 4.4938455461855444e-12 0.0000000000000000e+00  1.5000000000095068e-01 -1.6824360791707672e-12 0.0000000000000000e+00  1.5000000000154315e-01 -1.9877848659235828e-12 0.0000000000000000e+00  1.4999999999897748e-01 1.5618203209974409e-12 0.0000000000000000e+00  1.4999999999959773e-01 5.1735855804362797e-13 0.0000000000000000e+00  1.5000000000067096e-01 -1.0237404477437874e-12 0.0000000000000000e+00  1.4999999999991989e-01 1.4257417228854712e-13 0.0000000000000000e+00  1.4999999999970556e-01 4.6945021046044939e-13 0.0000000000000000e+00  1.5000000000017508e-01 -2.8601467503486880e-13 0.0000000000000000e+00  1.5000000000005775e-01 -1.0189959923828031e-13 0.0000000000000000e+00  1.4999999999988683e-01 1.9507838702830767e-13 0.0000000000000000e+00  1.5000000000003197e-01 -5.1048556722426279e-14 0.0000000000000000e+00  1.5000000000003635e-01 -6.8867267669336356e-14 0.0000000000000000e+00  1.4999999999996447e-01 6.4450686563592064e-14 0.0000000000000000e+00  1.5000000000000391e-01 -3.9451401374089272e-15 0.0000000000000000e+00  1.5000000000001443e-01 -2.9228650202076177e-14 0.0000000000000000e+00  1.4999999999998945e-01 2.0086901264923791e-14 0.0000000000000000e+00  1.5000000000000019e-01 1.0956351007950100e-15 0.0000000000000000e+00  1.5000000000000474e-01 -1.0483948077662598e-14 0.0000000000000000e+00  1.4999999999999658e-01 6.6986732308761530e-15 0.0000000000000000e+00  1.5000000000000011e-01 -5.5609842539461790e-16 0.0000000000000000e+00  1.5000000000000133e-01 -2.8121204872839747e-15 0.0000000000000000e+00  1.4999999999999883e-01 2.8845012655556365e-15 0.0000000000000000e+00  1.5000000000000019e-01 -4.3180246540095175e-16 0.0000000000000000e+00  1.5000000000000036e-01 -8.8271564596942956e-16 0.0000000000000000e+00  1.4999999999999969e-01 9.5121041798553171e-16 0.0000000000000000e+00  1.5000000000000036e-01 -2.5940274988982308e-16 0.0000000000000000e+00  1.5000000000000005e-01 -2.4897936094765769e-16 0.0000000000000000e+00  1.5000000000000005e-01 -1.0132928635674097e-16 0.0000000000000000e+00  1.5000000000000022e-01 5.0940502946662968e-16 0.0000000000000000e+00  1.5000000000000011e-01 -5.0520952051031862e-16 0.0000000000000000e+00  1.5000000000000011e-01 1.4507973055102702e-16 0.0000000000000000e+00  1.5000000000000011e-01 -4.6838035313178880e-16 0.0000000000000000e+00  1.5000000000000008e-01 7.2043299319825186e-16 0.0000000000000000e+00  1.5000000000000013e-01 -8.7789613622743080e-17 0.0000000000000000e+00  1.5000000000000005e-01 2.9814803303303645e-16 0.0000000000000000e+00  1.4999999999999999e-01 -1.8949412250599894e-16 0.0000000000000000e+00  1.5000000000000013e-01 6.4014459579312339e-17 0.0000000000000000e+00  1.5000000000000022e-01 5.6836316678228631e-16 0.0000000000000000e+00  1.5000000000000008e-01 4.2356542295801031e-16 0.0000000000000000e+00  1.4999999999999986e-01 2.9427909024068870e-16 0.0000000000000000e+00  1.4999999999999997e-01 -5.7852318446698177e-16 0.0000000000000000e+00  1.4999999999999997e-01 -5.5485387980481276e-16 0.0000000000000000e+00  1.5000000000000002e-01 1.5843570489193340e-17 0.0000000000000000e+00  1.4999999999999994e-01 -6.7020913101900748e-16 0.0000000000000000e+00  1.4999999999999999e-01 5.8585787823675162e-16 0.0000000000000000e+00  1.5000000000000002e-01 -5.5413282904670031e-17 0.0000000000000000e+00  1.5000000000000005e-01 5.4537113451521741e-17 0.0000000000000000e+00  1.5000000000000005e-01 3.0959647521944921e-16 0.0000000000000000e+00  1.5000000000000011e-01 -3.7984148854971512e-16 0.0000000000000000e+00  1.5000000000000008e-01 -1.8945096919701291e-16 0.0000000000000000e+00  1.5000000000000008e-01 -2.1638546780947100e-16 0.0000000000000000e+00  1.5000000000000016e-01 0.0000000000000000e+00 0.0000000000000000e+00  1.4999999999999999e-01 0.0000000000000000e+00 3.4213865054982478e-16  1.5000000000000002e-01 -2.9187946591122375e-17 3.0023019410882735e-16  1.5000000000000049e-01 4.9014761477464615e-17 5.5947335191837116e-16  1.4999999999999991e-01 2.6187441513255218e-17 -2.8041708635686636e-16  1.4999999999999949e-01 -1.5585449757794208e-15 -2.8422449718251247e-16  1.5000000000000094e-01 1.8447709746896318e-15 1.2503439387814988e-15  1.5000000000000027e-01 1.1956796206798109e-15 4.7151632401091524e-16  1.4999999999999764e-01 -5.4639181792374691e-15 -3.1611548675527878e-15  1.5000000000000141e-01 5.8077119627476115e-15 2.2038960469306784e-15  1.5000000000000038e-01 2.0116877856567809e-14 -3.8434760748139075e-15  1.4999999999997571e-01 -1.4502723997370304e-14 -5.6902332173619727e-14  1.4999999999998237e-01 -8.1871252095442941e-14 -6.9351282197205923e-14  1.5000000000013233e-01 -3.7961006161077839e-13 2.0096986615824490e-13  1.5000000000070388e-01 -1.6806216909806045e-12 1.4810290627863843e-12  1.5000000000274766e-01 -4.5910769357877787e-12 6.2432127980334977e-12  1.5000000000828370e-01 -8.9621687470349683e-12 1.9124501126391254e-11  1.5000000001969674e-01 -1.6317343329466354e-11 4.5738582830602857e-11  1.5000000004216413e-01 -3.6085792262044326e-11 9.7697832603729258e-11  1.5000000009358502e-01 -9.7353225004799120e-11 2.1468414653040416e-10  1.5000000022023879e-01 -2.5639495827424094e-10 5.0099178992004550e-10  1.5000000050361850e-01 -5.4801858564088428e-10 1.1358565081103990e-09  1.5000000101253891e-01 -8.5012263703670417e-10 2.2454442463850042e-09  1.5000000165353289e-01 -8.1998703423577694e-10 3.5605636505223719e-09  1.5000000203436925e-01 -1.6507406361161562e-10 4.1763839501467117e-09  1.5000000166123501e-01 8.7979204543444377e-10 3.1005171066385193e-09  1.5000000052196524e-01 1.5277926521033205e-09 5.3218427086596371e-10  1.4999999937678038e-01 1.1875396366876113e-09 -1.7275879616391012e-09  1.4999999908331524e-01 1.8875157158069149e-10 -1.9755393853654526e-09  1.4999999960487678e-01 -5.3640758909186542e-10 -6.3156415303052974e-10  1.5000000011541706e-01 -5.0294375829510447e-10 3.9335633236081396e-10  1.5000000013066711e-01 -9.2656124355785327e-11 2.7043836778869877e-10  1.4999999997294641e-01 1.1513541040230326e-10 -9.0485290837007929e-11  1.4999999999922572e-01 4.9136049424202476e-11 1.7442040465747839e-11  1.5000000005678385e-01 -1.3683050442085822e-11 1.2586668558994689e-10  1.4999999997105537e-01 1.8461707995676476e-11 -9.7984856443881666e-11  1.4999999992107191e-01 1.7045635344410373e-11 -1.7531091085694648e-10  1.5000000001936165e-01 -3.7098735854827838e-11 7.8288816984263914e-11  1.5000000007247072e-01 -3.1069969010730740e-11 1.6528098060043701e-10  1.4999999999020863e-01 2.9976331336160299e-11 -4.9974078802994225e-11  1.4999999994598523e-01 3.2283323643187252e-11 -1.2463057988878770e-10  1.5000000000678632e-01 -2.0022561699747039e-11 3.4955954808146545e-11  1.5000000003546232e-01 -2.5437450202838961e-11 8.1263267988239610e-11  1.4999999999307700e-01 1.3624814186682580e-11 -2.8380603457787687e-11  1.4999999997907085e-01 1.6866940912853547e-11 -4.6623747366321743e-11  1.5000000000707636e-01 -1.0030057553434261e-11 2.3607946014237145e-11  1.5000000001084066e-01 -9.5574452410561621e-12 2.2740082377510668e-11  1.4999999999380020e-01 7.5639849551789623e-12 -1.8039417543958733e-11  1.4999999999547406e-01 4.3317698530884147e-12 -8.2515220713629171e-12  1.5000000000453736e-01 -5.3740274446899997e-12 1.1957153909653888e-11  1.5000000000109417e-01 -1.1350509135144486e-12 8.7192350921495730e-13  1.4999999999728106e-01 3.3478413065816935e-12 -6.5384842669762688e-12  1.5000000000036198e-01 -4.1737932922084377e-13 1.8137472544979410e-12  1.5000000000125316e-01 -1.6840629237147783e-12 2.6585034539371984e-12  1.4999999999933000e-01 8.4674132611042580e-13 -1.9650474859449729e-12  1.4999999999965219e-01 5.5908124169501374e-13 -5.0091243865073013e-13  1.5000000000048219e-01 -6.8046124095214056e-13 1.1910625754565959e-12  1.4999999999994976e-01 1.2912424735152343e-14 -3.0825910701888420e-13  1.4999999999979061e-01 3.4409412237983428e-13 -4.2714954373873056e-13  1.5000000000012939e-01 -1.7644431625992839e-13 3.6530465272794975e-13  1.5000000000003277e-01 -8.2302469702772985e-14 1.0592492932221820e-14  1.4999999999992103e-01 1.3324035539167932e-13 -1.7915313699287259e-13  1.5000000000002936e-01 -3.4067926311663994e-14 9.7853345076381165e-14  1.5000000000002006e-01 -4.5765454599238088e-14 2.6626513911027097e-14  1.4999999999997429e-01 4.4118141538274530e-14 -6.1742927790989196e-14  1.5000000000000652e-01 -5.6862954019165685e-15 2.6689677859374060e-14  1.5000000000000757e-01 -1.7492253882889845e-14 1.0980682325273050e-14  1.4999999999999178e-01 1.4575159259346233e-14 -1.9916997715470376e-14  1.5000000000000188e-01 -1.6550300830265948e-15 8.6851532792442450e-15  1.5000000000000221e-01 -5.8333185789462950e-15 2.8626050540902003e-15  1.4999999999999750e-01 5.2132026182465483e-15 -5.2869064202884269e-15  1.5000000000000102e-01 -4.9391909565556364e-16 3.4164767535256076e-15  1.5000000000000044e-01 -2.1559710385106807e-15 3.6819057212185895e-16  1.4999999999999930e-01 1.7569452372310522e-15 -1.4016865190569848e-15  1.5000000000000055e-01 -7.6691638847866755e-16 1.5361175343709456e-15  1.5000000000000011e-01 -2.9311206487022244e-16 -6.4978103376694596e-17  1.4999999999999988e-01 1.4088458243420227e-16 -2.7131352597127510e-16  1.5000000000000024e-01 8.1505480038374698e-17 3.9301388884242629e-16  1.4999999999999997e-01 -5.3813129388625106e-16 4.4015346891201199e-16  1.4999999999999999e-01 -2.6186038137350756e-17 1.1496965022444982e-16  1.4999999999999999e-01 1.3864632666034520e-17 1.3906559642035223e-16  1.5000000000000005e-01 -6.4555175961046020e-17 3.8820269556355408e-16  1.5000000000000016e-01 7.7394001780998095e-17 2.6053399254972740e-17  1.5000000000000013e-01 8.0823642218608049e-17 -2.9413097005613103e-16  1.5000000000000005e-01 5.2211867958279457e-16 -5.1925258512683546e-16  1.5000000000000005e-01 1.2624904449482852e-16 -3.6383034902035917e-16  1.5000000000000005e-01 -1.2893158080168935e-16 7.0005099532564314e-17  1.5000000000000002e-01 3.0339127461829496e-16 3.0771423105639214e-16  1.5000000000000005e-01 -1.4168044058878277e-16 -2.7400230432472628e-16  1.5000000000000008e-01 1.9756115102506695e-16 -1.0991597825995759e-16  1.5000000000000002e-01 4.7396639799542979e-17 8.6720955592072238e-17  1.5000000000000005e-01 -2.1146903439398129e-16 -2.0642604782377216e-16  1.4999999999999999e-01 -5.3131695706759458e-17 3.0739482183047780e-16  1.4999999999999980e-01 -2.2474479554868067e-16 -8.7855494701540180e-17  1.4999999999999991e-01 -8.3991861232054470e-18 6.4326428128149014e-17  1.5000000000000005e-01 4.0835717267896445e-16 -3.1297558834151832e-16  1.5000000000000005e-01 5.4931932393777172e-16 -8.9542767136051198e-17  1.5000000000000016e-01 -1.6227119523586729e-16 2.4621801976752397e-16  1.5000000000000002e-01 -4.7741550051219269e-16 -2.6067712840959513e-16  1.5000000000000011e-01 -2.3432669655953113e-16 -3.2962918616971219e-16  1.5000000000000005e-01 -2.3863421782472101e-16 -2.6844664530274881e-16  1.5000000000000024e-01 0.0000000000000000e+00 -4.8193860173875293e-16  1.4999999999999983e-01 0.0000000000000000e+00 -1.1070789877148290e-16  1.5000000000000027e-01 -2.1941050927472721e-16 2.1711213305303190e-16  1.4999999999999999e-01 -5.0471732759172020e-16 -4.8449483149754626e-16  1.4999999999999955e-01 -1.0732754702160974e-15 -7.9004968965501342e-16  1.5000000000000072e-01 1.6127082788354317e-15 1.5143422390036674e-15  1.5000000000000024e-01 6.3883209582178676e-16 5.2943981967803610e-16  1.4999999999999797e-01 -4.4462015430617846e-15 -4.9272689680428995e-15  1.5000000000000219e-01 5.0703572286435816e-15 4.0206443759301978e-15  1.5000000000000357e-01 7.4135557290082098e-15 8.4302219659231806e-15  1.4999999999999442e-01 -2.9370833866743931e-14 -1.1709405394519900e-14  1.5000000000001729e-01 -2.7232032107570854e-14 6.0553297219512535e-14  1.5000000000006861e-01 6.0611750733975138e-14 2.3730126927376404e-13  1.4999999999999780e-01 2.4153826950665726e-13 1.3470072986874019e-13  1.4999999999956060e-01 1.3208205853110813e-12 -1.0407303187435022e-12  1.4999999999782826e-01 4.9037099027505830e-12 -6.4681030649336740e-12  1.4999999999202598e-01 1.1550697819037048e-11 -2.5242018291707602e-11  1.4999999997798749e-01 2.1595958005399287e-11 -7.0906910733227607e-11  1.4999999995020266e-01 4.2132275920976770e-11 -1.6041602734694319e-10  1.4999999989302853e-01 1.0042799909841430e-10 -3.3998848835738208e-10  1.4999999976007722e-01 2.6356953595777687e-10 -7.5401645632877547e-10  1.4999999945324258e-01 6.2046762940852214e-10 -1.7239270148903453e-09  1.4999999884357978e-01 1.1298103962905362e-09 -3.6795031648497520e-09  1.4999999792214602e-01 1.4056826891935521e-09 -6.6370040310984331e-09  1.4999999706660361e-01 8.5218514666659059e-10 -9.3161845527545253e-09  1.4999999704783740e-01 -6.3354417304092514e-10 -9.1902517677214313e-09  1.4999999834952019e-01 -2.1221544199286664e-09 -4.7976915820375127e-09  1.5000000030954813e-01 -2.3211683436570261e-09 1.5243462912532318e-09  1.5000000144246142e-01 -1.0286448057105180e-09 4.9163033077032542e-09  1.5000000105683883e-01 4.9936664292426237e-10 3.3518673134518468e-09  1.5000000008019651e-01 9.6634499595797029e-10 8.2442703090108989e-11  1.4999999972970918e-01 4.3289397860103491e-10 -9.6182575365607199e-10  1.4999999996853106e-01 -1.0746314245700170e-10 -1.0249483694534045e-10  1.5000000005102132e-01 -1.4090345170081906e-10 1.6140048000546578e-10  1.4999999991153465e-01 3.1181818225356353e-12 -2.9479569230632460e-10  1.4999999997175220e-01 -1.0496040122229663e-11 -6.7726226326747678e-11  1.5000000013678910e-01 -4.9694830540172826e-11 4.6539618402664358e-10  1.5000000004962954e-01 3.2763032911991438e-11 1.4131318802759511e-10  1.4999999987727380e-01 7.9274066298949416e-11 -4.2152705277957251e-10  1.4999999994775373e-01 -1.4616567935850686e-11 -1.5695118409198654e-10  1.5000000009154912e-01 -7.4950958623181195e-11 3.1482662020869299e-10  1.5000000003827527e-01 1.5284329496263729e-12 1.1571922443759101e-10  1.4999999993671598e-01 5.7498528155239459e-11 -2.1647077137903302e-10  1.4999999997940200e-01 9.6572667057631388e-13 -6.0417033037927507e-11  1.5000000004162370e-01 -3.9724855121508235e-11 1.4086401457798069e-10  1.5000000000675298e-01 1.6019502642013849e-12 1.6969557692081430e-11  1.4999999997443128e-01 2.5360470380838122e-11 -8.5195515306619364e-11  1.5000000000126132e-01 -4.5181412544639003e-12 7.5642668968505198e-12  1.5000000001400934e-01 -1.4614661708846643e-11 4.5659315651017120e-11  1.4999999999567795e-01 5.7864312487012214e-12 -1.6075945727081240e-11  1.4999999999370026e-01 7.0698988156669164e-12 -1.9791622730330942e-11  1.5000000000426544e-01 -5.2711877068770412e-12 1.4742054420544836e-11  1.5000000000183733e-01 -2.3294717449593322e-12 5.2131860224463889e-12  1.4999999999713362e-01 3.6990736575895913e-12 -9.4716413639809613e-12  1.5000000000018218e-01 -9.5123316726095319e-14 1.0883461957815002e-12  1.5000000000136665e-01 -1.9474839328860438e-12 4.2847359656614999e-12  1.4999999999931288e-01 8.7238509419333809e-13 -2.4276755282751750e-12  1.4999999999964159e-01 6.3049253291638182e-13 -9.7618307449292611e-13  1.5000000000050867e-01 -7.5023865271515298e-13 1.6556557650811699e-12  1.4999999999991759e-01 4.8947462556059853e-14 -3.6966135296285996e-13  1.4999999999979804e-01 3.5642880475175033e-13 -5.9665339428188413e-13  1.5000000000014974e-01 -2.1848534461196183e-13 5.0490628408549314e-13  1.5000000000001104e-01 -5.4309312091612836e-14 -6.6270175648615247e-15  1.4999999999992278e-01 1.4096431880337497e-13 -2.3354711904706866e-13  1.5000000000004179e-01 -5.9854330732209782e-14 1.4635144473568037e-13  1.5000000000000993e-01 -3.1714264202042052e-14 1.6180416086262616e-14  1.4999999999997415e-01 4.9687023205653634e-14 -7.8192046376045554e-14  1.5000000000001287e-01 -1.8092151442695972e-14 4.5129651201332038e-14  1.5000000000000333e-01 -1.1394153035421192e-14 4.7459104469429334e-15  1.4999999999999186e-01 1.7069640636545927e-14 -2.3577156834520689e-14  1.5000000000000446e-01 -6.7414346861948714e-15 1.5883407631440354e-14  1.5000000000000027e-01 -2.8477661187385460e-15 -7.2766400870382003e-16  1.4999999999999766e-01 5.4295596494525012e-15 -6.1784141013322632e-15  1.5000000000000158e-01 -2.9438999571830187e-15 5.7650438962985940e-15  1.4999999999999983e-01 1.5518845027621836e-16 -1.3240465680888471e-15  1.4999999999999938e-01 1.2409388484368134e-15 -8.9447764970571970e-16  1.5000000000000063e-01 -1.4338453753066705e-15 1.9451634284726478e-15  1.4999999999999972e-01 4.7564768998087039e-16 -8.0012528766644966e-16  1.5000000000000002e-01 3.6225978666875802e-16 1.3006838051412926e-16  1.5000000000000027e-01 -2.6105488769011294e-16 5.9316868261226297e-