<?xml version="1.0"?>
<VTKFile type="UnstructuredGrid"  version="0.1"  >
<UnstructuredGrid>
<Piece  NumberOfPoints="10201" NumberOfCells="20000">
<Points>
<DataArray  type="Float64"  NumberOfComponents="3"  format="ascii">-5 -5 0  -4.9 -5 0  -4.8 -5 0  -4.7 -5 0  -4.6 -5 0  -4.5 -5 0  -4.4 -5 0  -4.3 -5 0  -4.2 -5 0  -4.1 -5 0  -4 -5 0  -3.9 -5 0  -3.8 -5 0  -3.7 -5 0  -3.6 -5 0  -3.5 -5 0  -3.4 -5 0  -3.3 -5 0  -3.2 -5 0  -3.1 -5 0  -3 -5 0  -2.9 -5 0  -2.8 -5 0  -2.7 -5 0  -2.6 -5 0  -2.5 -5 0  -2.4 -5 0  -2.3 -5 0  -2.2 -5 0  -2.1 -5 0  -2 -5 0  -1.9 -5 0  -1.8 -5 0  -1.7 -5 0  -1.6 -5 0  -1.5 -5 0  -1.4 -5 0  -1.3 -5 0  -1.2 -5 0  -1.1 -5 0  -1 -5 0  -0.9000000000000004 -5 0  -0.7999999999999998 -5 0  -0.7000000000000002 -5 0  -0.5999999999999996 -5 0  -0.5 -5 0  -0.4000000000000004 -5 0  -0.2999999999999998 -5 0  -0.2000000000000002 -5 0  -0.09999999999999964 -5 0  0 -5 0  0.09999999999999964 -5 0  0.2000000000000002 -5 0  0.2999999999999998 -5 0  0.4000000000000004 -5 0  0.5 -5 0  0.5999999999999996 -5 0  0.7000000000000002 -5 0  0.7999999999999998 -5 0  0.9000000000000004 -5 0  1 -5 0  1.1 -5 0  1.2 -5 0  1.3 -5 0  1.4 -5 0  1.5 -5 0  1.6 -5 0  1.7 -5 0  1.8 -5 0  1.9 -5 0  2 -5 0  2.1 -5 0  2.2 -5 0  2.3 -5 0  2.4 -5 0  2.5 -5 0  2.6 -5 0  2.7 -5 0  2.8 -5 0  2.9 -5 0  3 -5 0  3.1 -5 0  3.199999999999999 -5 0  3.300000000000001 -5 0  3.4 -5 0  3.5 -5 0  3.6 -5 0  3.699999999999999 -5 0  3.800000000000001 -5 0  3.9 -5 0  4 -5 0  4.1 -5 0  4.199999999999999 -5 0  4.300000000000001 -5 0  4.4 -5 0  4.5 -5 0  4.6 -5 0  4.699999999999999 -5 0  4.800000000000001 -5 0  4.9 -5 0  5 -5 0  -5 -4.9 0  -4.9 -4.9 0  -4.8 -4.9 0  -4.7 -4.9 0  -4.6 -4.9 0  -4.5 -4.9 0  -4.4 -4.9 0  -4.3 -4.9 0  -4.2 -4.9 0  -4.1 -4.9 0  -4 -4.9 0  -3.9 -4.9 0  -3.8 -4.9 0  -3.7 -4.9 0  -3.6 -4.9 0  -3.5 -4.9 0  -3.4 -4.9 0  -3.3 -4.9 0  -3.2 -4.9 0  -3.1 -4.9 0  -3 -4.9 0  -2.9 -4.9 0  -2.8 -4.9 0  -2.7 -4.9 0  -2.6 -4.9 0  -2.5 -4.9 0  -2.4 -4.9 0  -2.3 -4.9 0  -2.2 -4.9 0  -2.1 -4.9 0  -2 -4.9 0  -1.9 -4.9 0  -1.8 -4.9 0  -1.7 -4.9 0  -1.6 -4.9 0  -1.5 -4.9 0  -1.4 -4.9 0  -1.3 -4.9 0  -1.2 -4.9 0  -1.1 -4.9 0  -1 -4.9 0  -0.9000000000000004 -4.9 0  -0.7999999999999998 -4.9 0  -0.7000000000000002 -4.9 0  -0.5999999999999996 -4.9 0  -0.5 -4.9 0  -0.4000000000000004 -4.9 0  -0.2999999999999998 -4.9 0  -0.2000000000000002 -4.9 0  -0.09999999999999964 -4.9 0  0 -4.9 0  0.09999999999999964 -4.9 0  0.2000000000000002 -4.9 0  0.2999999999999998 -4.9 0  0.4000000000000004 -4.9 0  0.5 -4.9 0  0.5999999999999996 -4.9 0  0.7000000000000002 -4.9 0  0.7999999999999998 -4.9 0  0.9000000000000004 -4.9 0  1 -4.9 0  1.1 -4.9 0  1.2 -4.9 0  1.3 -4.9 0  1.4 -4.9 0  1.5 -4.9 0  1.6 -4.9 0  1.7 -4.9 0  1.8 -4.9 0  1.9 -4.9 0  2 -4.9 0  2.1 -4.9 0  2.2 -4.9 0  2.3 -4.9 0  2.4 -4.9 0  2.5 -4.9 0  2.6 -4.9 0  2.7 -4.9 0  2.8 -4.9 0  2.9 -4.9 0  3 -4.9 0  3.1 -4.9 0  3.199999999999999 -4.9 0  3.300000000000001 -4.9 0  3.4 -4.9 0  3.5 -4.9 0  3.6 -4.9 0  3.699999999999999 -4.9 0  3.800000000000001 -4.9 0  3.9 -4.9 0  4 -4.9 0  4.1 -4.9 0  4.199999999999999 -4.9 0  4.300000000000001 -4.9 0  4.4 -4.9 0  4.5 -4.9 0  4.6 -4.9 0  4.699999999999999 -4.9 0  4.800000000000001 -4.9 0  4.9 -4.9 0  5 -4.9 0  -5 -4.8 0  -4.9 -4.8 0  -4.8 -4.8 0  -4.7 -4.8 0  -4.6 -4.8 0  -4.5 -4.8 0  -4.4 -4.8 0  -4.3 -4.8 0  -4.2 -4.8 0  -4.1 -4.8 0  -4 -4.8 0  -3.9 -4.8 0  -3.8 -4.8 0  -3.7 -4.8 0  -3.6 -4.8 0  -3.5 -4.8 0  -3.4 -4.8 0  -3.3 -4.8 0  -3.2 -4.8 0  -3.1 -4.8 0  -3 -4.8 0  -2.9 -4.8 0  -2.8 -4.8 0  -2.7 -4.8 0  -2.6 -4.8 0  -2.5 -4.8 0  -2.4 -4.8 0  -2.3 -4.8 0  -2.2 -4.8 0  -2.1 -4.8 0  -2 -4.8 0  -1.9 -4.8 0  -1.8 -4.8 0  -1.7 -4.8 0  -1.6 -4.8 0  -1.5 -4.8 0  -1.4 -4.8 0  -1.3 -4.8 0  -1.2 -4.8 0  -1.1 -4.8 0  -1 -4.8 0  -0.9000000000000004 -4.8 0  -0.7999999999999998 -4.8 0  -0.7000000000000002 -4.8 0  -0.5999999999999996 -4.8 0  -0.5 -4.8 0  -0.4000000000000004 -4.8 0  -0.2999999999999998 -4.8 0  -0.2000000000000002 -4.8 0  -0.09999999999999964 -4.8 0  0 -4.8 0  0.09999999999999964 -4.8 0  0.2000000000000002 -4.8 0  0.2999999999999998 -4.8 0  0.4000000000000004 -4.8 0  0.5 -4.8 0  0.5999999999999996 -4.8 0  0.7000000000000002 -4.8 0  0.7999999999999998 -4.8 0  0.9000000000000004 -4.8 0  1 -4.8 0  1.1 -4.8 0  1.2 -4.8 0  1.3 -4.8 0  1.4 -4.8 0  1.5 -4.8 0  1.6 -4.8 0  1.7 -4.8 0  1.8 -4.8 0  1.9 -4.8 0  2 -4.8 0  2.1 -4.8 0  2.2 -4.8 0  2.3 -4.8 0  2.4 -4.8 0  2.5 -4.8 0  2.6 -4.8 0  2.7 -4.8 0  2.8 -4.8 0  2.9 -4.8 0  3 -4.8 0  3.1 -4.8 0  3.199999999999999 -4.8 0  3.300000000000001 -4.8 0  3.4 -4.8 0  3.5 -4.8 0  3.6 -4.8 0  3.699999999999999 -4.8 0  3.800000000000001 -4.8 0  3.9 -4.8 0  4 -4.8 0  4.1 -4.8 0  4.199999999999999 -4.8 0  4.300000000000001 -4.8 0  4.4 -4.8 0  4.5 -4.8 0  4.6 -4.8 0  4.699999999999999 -4.8 0  4.800000000000001 -4.8 0  4.9 -4.8 0  5 -4.8 0  -5 -4.7 0  -4.9 -4.7 0  -4.8 -4.7 0  -4.7 -4.7 0  -4.6 -4.7 0  -4.5 -4.7 0  -4.4 -4.7 0  -4.3 -4.7 0  -4.2 -4.7 0  -4.1 -4.7 0  -4 -4.7 0  -3.9 -4.7 0  -3.8 -4.7 0  -3.7 -4.7 0  -3.6 -4.7 0  -3.5 -4.7 0  -3.4 -4.7 0  -3.3 -4.7 0  -3.2 -4.7 0  -3.1 -4.7 0  -3 -4.7 0  -2.9 -4.7 0  -2.8 -4.7 0  -2.7 -4.7 0  -2.6 -4.7 0  -2.5 -4.7 0  -2.4 -4.7 0  -2.3 -4.7 0  -2.2 -4.7 0  -2.1 -4.7 0  -2 -4.7 0  -1.9 -4.7 0  -1.8 -4.7 0  -1.7 -4.7 0  -1.6 -4.7 0  -1.5 -4.7 0  -1.4 -4.7 0  -1.3 -4.7 0  -1.2 -4.7 0  -1.1 -4.7 0  -1 -4.7 0  -0.9000000000000004 -4.7 0  -0.7999999999999998 -4.7 0  -0.7000000000000002 -4.7 0  -0.5999999999999996 -4.7 0  -0.5 -4.7 0  -0.4000000000000004 -4.7 0  -0.2999999999999998 -4.7 0  -0.2000000000000002 -4.7 0  -0.09999999999999964 -4.7 0  0 -4.7 0  0.09999999999999964 -4.7 0  0.2000000000000002 -4.7 0  0.2999999999999998 -4.7 0  0.4000000000000004 -4.7 0  0.5 -4.7 0  0.5999999999999996 -4.7 0  0.7000000000000002 -4.7 0  0.7999999999999998 -4.7 0  0.9000000000000004 -4.7 0  1 -4.7 0  1.1 -4.7 0  1.2 -4.7 0  1.3 -4.7 0  1.4 -4.7 0  1.5 -4.7 0  1.6 -4.7 0  1.7 -4.7 0  1.8 -4.7 0  1.9 -4.7 0  2 -4.7 0  2.1 -4.7 0  2.2 -4.7 0  2.3 -4.7 0  2.4 -4.7 0  2.5 -4.7 0  2.6 -4.7 0  2.7 -4.7 0  2.8 -4.7 0  2.9 -4.7 0  3 -4.7 0  3.1 -4.7 0  3.199999999999999 -4.7 0  3.300000000000001 -4.7 0  3.4 -4.7 0  3.5 -4.7 0  3.6 -4.7 0  3.699999999999999 -4.7 0  3.800000000000001 -4.7 0  3.9 -4.7 0  4 -4.7 0  4.1 -4.7 0  4.199999999999999 -4.7 0  4.300000000000001 -4.7 0  4.4 -4.7 0  4.5 -4.7 0  4.6 -4.7 0  4.699999999999999 -4.7 0  4.800000000000001 -4.7 0  4.9 -4.7 0  5 -4.7 0  -5 -4.6 0  -4.9 -4.6 0  -4.8 -4.6 0  -4.7 -4.6 0  -4.6 -4.6 0  -4.5 -4.6 0  -4.4 -4.6 0  -4.3 -4.6 0  -4.2 -4.6 0  -4.1 -4.6 0  -4 -4.6 0  -3.9 -4.6 0  -3.8 -4.6 0  -3.7 -4.6 0  -3.6 -4.6 0  -3.5 -4.6 0  -3.4 -4.6 0  -3.3 -4.6 0  -3.2 -4.6 0  -3.1 -4.6 0  -3 -4.6 0  -2.9 -4.6 0  -2.8 -4.6 0  -2.7 -4.6 0  -2.6 -4.6 0  -2.5 -4.6 0  -2.4 -4.6 0  -2.3 -4.6 0  -2.2 -4.6 0  -2.1 -4.6 0  -2 -4.6 0  -1.9 -4.6 0  -1.8 -4.6 0  -1.7 -4.6 0  -1.6 -4.6 0  -1.5 -4.6 0  -1.4 -4.6 0  -1.3 -4.6 0  -1.2 -4.6 0  -1.1 -4.6 0  -1 -4.6 0  -0.9000000000000004 -4.6 0  -0.7999999999999998 -4.6 0  -0.7000000000000002 -4.6 0  -0.5999999999999996 -4.6 0  -0.5 -4.6 0  -0.4000000000000004 -4.6 0  -0.2999999999999998 -4.6 0  -0.2000000000000002 -4.6 0  -0.09999999999999964 -4.6 0  0 -4.6 0  0.09999999999999964 -4.6 0  0.2000000000000002 -4.6 0  0.2999999999999998 -4.6 0  0.4000000000000004 -4.6 0  0.5 -4.6 0  0.5999999999999996 -4.6 0  0.7000000000000002 -4.6 0  0.7999999999999998 -4.6 0  0.9000000000000004 -4.6 0  1 -4.6 0  1.1 -4.6 0  1.2 -4.6 0  1.3 -4.6 0  1.4 -4.6 0  1.5 -4.6 0  1.6 -4.6 0  1.7 -4.6 0  1.8 -4.6 0  1.9 -4.6 0  2 -4.6 0  2.1 -4.6 0  2.2 -4.6 0  2.3 -4.6 0  2.4 -4.6 0  2.5 -4.6 0  2.6 -4.6 0  2.7 -4.6 0  2.8 -4.6 0  2.9 -4.6 0  3 -4.6 0  3.1 -4.6 0  3.199999999999999 -4.6 0  3.300000000000001 -4.6 0  3.4 -4.6 0  3.5 -4.6 0  3.6 -4.6 0  3.699999999999999 -4.6 0  3.800000000000001 -4.6 0  3.9 -4.6 0  4 -4.6 0  4.1 -4.6 0  4.199999999999999 -4.6 0  4.300000000000001 -4.6 0  4.4 -4.6 0  4.5 -4.6 0  4.6 -4.6 0  4.699999999999999 -4.6 0  4.800000000000001 -4.6 0  4.9 -4.6 0  5 -4.6 0  -5 -4.5 0  -4.9 -4.5 0  -4.8 -4.5 0  -4.7 -4.5 0  -4.6 -4.5 0  -4.5 -4.5 0  -4.4 -4.5 0  -4.3 -4.5 0  -4.2 -4.5 0  -4.1 -4.5 0  -4 -4.5 0  -3.9 -4.5 0  -3.8 -4.5 0  -3.7 -4.5 0  -3.6 -4.5 0  -3.5 -4.5 0  -3.4 -4.5 0  -3.3 -4.5 0  -3.2 -4.5 0  -3.1 -4.5 0  -3 -4.5 0  -2.9 -4.5 0  -2.8 -4.5 0  -2.7 -4.5 0  -2.6 -4.5 0  -2.5 -4.5 0  -2.4 -4.5 0  -2.3 -4.5 0  -2.2 -4.5 0  -2.1 -4.5 0  -2 -4.5 0  -1.9 -4.5 0  -1.8 -4.5 0  -1.7 -4.5 0  -1.6 -4.5 0  -1.5 -4.5 0  -1.4 -4.5 0  -1.3 -4.5 0  -1.2 -4.5 0  -1.1 -4.5 0  -1 -4.5 0  -0.9000000000000004 -4.5 0  -0.7999999999999998 -4.5 0  -0.7000000000000002 -4.5 0  -0.5999999999999996 -4.5 0  -0.5 -4.5 0  -0.4000000000000004 -4.5 0  -0.2999999999999998 -4.5 0  -0.2000000000000002 -4.5 0  -0.09999999999999964 -4.5 0  0 -4.5 0  0.09999999999999964 -4.5 0  0.2000000000000002 -4.5 0  0.2999999999999998 -4.5 0  0.4000000000000004 -4.5 0  0.5 -4.5 0  0.5999999999999996 -4.5 0  0.7000000000000002 -4.5 0  0.7999999999999998 -4.5 0  0.9000000000000004 -4.5 0  1 -4.5 0  1.1 -4.5 0  1.2 -4.5 0  1.3 -4.5 0  1.4 -4.5 0  1.5 -4.5 0  1.6 -4.5 0  1.7 -4.5 0  1.8 -4.5 0  1.9 -4.5 0  2 -4.5 0  2.1 -4.5 0  2.2 -4.5 0  2.3 -4.5 0  2.4 -4.5 0  2.5 -4.5 0  2.6 -4.5 0  2.7 -4.5 0  2.8 -4.5 0  2.9 -4.5 0  3 -4.5 0  3.1 -4.5 0  3.199999999999999 -4.5 0  3.300000000000001 -4.5 0  3.4 -4.5 0  3.5 -4.5 0  3.6 -4.5 0  3.699999999999999 -4.5 0  3.800000000000001 -4.5 0  3.9 -4.5 0  4 -4.5 0  4.1 -4.5 0  4.199999999999999 -4.5 0  4.300000000000001 -4.5 0  4.4 -4.5 0  4.5 -4.5 0  4.6 -4.5 0  4.699999999999999 -4.5 0  4.800000000000001 -4.5 0  4.9 -4.5 0  5 -4.5 0  -5 -4.4 0  -4.9 -4.4 0  -4.8 -4.4 0  -4.7 -4.4 0  -4.6 -4.4 0  -4.5 -4.4 0  -4.4 -4.4 0  -4.3 -4.4 0  -4.2 -4.4 0  -4.1 -4.4 0  -4 -4.4 0  -3.9 -4.4 0  -3.8 -4.4 0  -3.7 -4.4 0  -3.6 -4.4 0  -3.5 -4.4 0  -3.4 -4.4 0  -3.3 -4.4 0  -3.2 -4.4 0  -3.1 -4.4 0  -3 -4.4 0  -2.9 -4.4 0  -2.8 -4.4 0  -2.7 -4.4 0  -2.6 -4.4 0  -2.5 -4.4 0  -2.4 -4.4 0  -2.3 -4.4 0  -2.2 -4.4 0  -2.1 -4.4 0  -2 -4.4 0  -1.9 -4.4 0  -1.8 -4.
[...]
<PointData  Vectors="f_17"> 
<DataArray  type="Float64"  Name="f_17"  NumberOfComponents="3" format="ascii">1.5000000000011438e-01 0.0000000000000000e+00 0.0000000000000000e+00  1.5000000000038091e-01 6.0140527604953857e-13 0.0000000000000000e+00  1.4999999999950714e-01 -2.0159399310020964e-12 0.0000000000000000e+00  1.5000000000159239e-01 -4.2883326011990509e-12 0.0000000000000000e+00  1.5000000001041106e-01 -1.5427418179034055e-11 0.0000000000000000e+00  1.5000000003532121e-01 -7.3063094490327910e-11 0.0000000000000000e+00  1.5000000012456347e-01 -2.1972856843235733e-10 0.0000000000000000e+00  1.5000000038042594e-01 -5.4199844399180383e-10 0.0000000000000000e+00  1.5000000095220087e-01 -1.1864255907669015e-09 0.0000000000000000e+00  1.5000000204286817e-01 -2.0229566890751576e-09 0.0000000000000000e+00  1.5000000365043592e-01 -2.0705536880411571e-09 0.0000000000000000e+00  1.5000000471980754e-01 1.0950300407011967e-09 0.0000000000000000e+00  1.5000000199133712e-01 1.2257255561003811e-08 0.0000000000000000e+00  1.4999998887182237e-01 3.8620922992113108e-08 0.0000000000000000e+00  1.4999995482184922e-01 8.6435615046861542e-08 0.0000000000000000e+00  1.4999988769467021e-01 1.5596130040112522e-07 0.0000000000000000e+00  1.4999978044543111e-01 2.3990346904041894e-07 0.0000000000000000e+00  1.4999963752967860e-01 3.2316362318184141e-07 0.0000000000000000e+00  1.4999947718777124e-01 3.7620084649156672e-07 0.0000000000000000e+00  1.4999933507849300e-01 3.4426977313460293e-07 0.0000000000000000e+00  1.4999927006869576e-01 1.5379045839528857e-07 0.0000000000000000e+00  1.4999935367619063e-01 -2.2707667604211377e-07 0.0000000000000000e+00  1.4999962228119210e-01 -6.7487963480311970e-07 0.0000000000000000e+00  1.5000000444871114e-01 -8.8437590206456370e-07 0.0000000000000000e+00  1.5000030224418148e-01 -6.1075288162885633e-07 0.0000000000000000e+00  1.5000032944192573e-01 -1.9821810173235969e-08 0.0000000000000000e+00  1.5000013253048972e-01 3.7623046059169159e-07 0.0000000000000000e+00  1.4999997777181001e-01 2.9598276947891795e-07 0.0000000000000000e+00  1.5000000987414758e-01 2.3182996702009371e-08 0.0000000000000000e+00  1.5000006789306239e-01 -4.7044712147673646e-08 0.0000000000000000e+00  1.5000000281781251e-01 4.0802214926700313e-08 0.0000000000000000e+00  1.4999994761981744e-01 2.4645706595031755e-08 0.0000000000000000e+00  1.5000002131686874e-01 -5.7742498633711897e-08 0.0000000000000000e+00  1.5000006337948940e-01 -8.8089256262081431e-09 0.0000000000000000e+00  1.4999996953297751e-01 8.3518502186363953e-08 0.0000000000000000e+00  1.4999992988116012e-01 1.8463570652269680e-08 0.0000000000000000e+00  1.5000003238703771e-01 -8.9282518189935324e-08 0.0000000000000000e+00  1.5000006717684181e-01 -2.7450928680815945e-08 0.0000000000000000e+00  1.4999996800972301e-01 8.1646616350610098e-08 0.0000000000000000e+00  1.4999994445717776e-01 2.7813626442627492e-08 0.0000000000000000e+00  1.5000003147851826e-01 -6.8631952001571048e-08 0.0000000000000000e+00  1.5000003942594686e-01 -2.0445503665488545e-08 0.0000000000000000e+00  1.4999996970781995e-01 5.4990236497577812e-08 0.0000000000000000e+00  1.4999997690925038e-01 9.6463108993422366e-09 0.0000000000000000e+00  1.5000002709800578e-01 -4.2126183093684264e-08 0.0000000000000000e+00  1.5000000945236963e-01 4.9964811462938421e-10 0.0000000000000000e+00  1.4999997846268379e-01 3.0013529267745102e-08 0.0000000000000000e+00  1.4999999999023042e-01 -7.5436764617112163e-09 0.0000000000000000e+00  1.5000001455742762e-01 -1.8833916718905957e-08 0.0000000000000000e+00  1.4999999506575776e-01 1.0654513426102717e-08 0.0000000000000000e+00  1.4999999225163918e-01 9.3460638937809421e-09 0.0000000000000000e+00  1.5000000608344971e-01 -1.0240461380446455e-08 0.0000000000000000e+00  1.5000000249876611e-01 -2.4278958281149200e-09 0.0000000000000000e+00  1.4999999518376866e-01 7.5356875653965370e-09 0.0000000000000000e+00  1.5000000054568757e-01 -1.5010107944455691e-09 0.0000000000000000e+00  1.5000000266542254e-01 -4.0904603257129201e-09 0.0000000000000000e+00  1.4999999842601019e-01 2.7574419036517519e-09 0.0000000000000000e+00  1.4999999919556062e-01 1.2143007443085603e-09 0.0000000000000000e+00  1.5000000132342942e-01 -2.2616765126152878e-09 0.0000000000000000e+00  1.4999999977114095e-01 4.2327413479431414e-10 0.0000000000000000e+00  1.4999999936842928e-01 1.1168774490970782e-09 0.0000000000000000e+00  1.5000000048270465e-01 -8.6117279956478399e-10 0.0000000000000000e+00  1.5000000007560332e-01 -1.6088318137575621e-10 0.0000000000000000e+00  1.4999999968648547e-01 5.9166224625254209e-10 0.0000000000000000e+00  1.5000000015025669e-01 -2.6678088316741961e-10 0.0000000000000000e+00  1.5000000007726005e-01 -1.6955565583651551e-10 0.0000000000000000e+00  1.4999999986811793e-01 2.6000401903234680e-10 0.0000000000000000e+00  1.5000000004585945e-01 -7.7341389863799118e-11 0.0000000000000000e+00  1.5000000003971359e-01 -9.2315975655258587e-11 0.0000000000000000e+00  1.4999999994763691e-01 1.0764829716657580e-10 0.0000000000000000e+00  1.5000000001641067e-01 -2.6531009301197524e-11 0.0000000000000000e+00  1.5000000001571842e-01 -3.9561922054280065e-11 0.0000000000000000e+00  1.4999999997948552e-01 4.4508430607666855e-11 0.0000000000000000e+00  1.5000000000755073e-01 -1.3024804678754874e-11 0.0000000000000000e+00  1.5000000000480285e-01 -1.3807664974413565e-11 0.0000000000000000e+00  1.4999999999216451e-01 1.8334609697314808e-11 0.0000000000000000e+00  1.5000000000397906e-01 -7.8835612350441208e-12 0.0000000000000000e+00  1.5000000000071106e-01 -3.1301927542312526e-12 0.0000000000000000e+00  1.4999999999731187e-01 7.0039510958951337e-12 0.0000000000000000e+00  1.5000000000202088e-01 -4.6382734320575290e-12 0.0000000000000000e+00  1.4999999999955388e-01 5.3230565000879606e-13 0.0000000000000000e+00  1.4999999999936933e-01 1.9811839607043877e-12 0.0000000000000000e+00  1.5000000000083391e-01 -2.2145789877850266e-12 0.0000000000000000e+00  1.4999999999950625e-01 1.1634898857058827e-12 0.0000000000000000e+00  1.5000000000007083e-01 -3.4906161960380840e-14 0.0000000000000000e+00  1.5000000000017225e-01 -5.4958084006632022e-13 0.0000000000000000e+00  1.4999999999979136e-01 5.7888060863833397e-13 0.0000000000000000e+00  1.5000000000013039e-01 -3.2942697807541926e-13 0.0000000000000000e+00  1.4999999999996419e-01 6.7402547070998602e-14 0.0000000000000000e+00  1.4999999999997904e-01 7.4769884212128157e-14 0.0000000000000000e+00  1.5000000000003411e-01 -9.1123730637171402e-14 0.0000000000000000e+00  1.4999999999998134e-01 3.7730072457503038e-14 0.0000000000000000e+00  1.4999999999999591e-01 3.1332645588949536e-14 0.0000000000000000e+00  1.5000000000002178e-01 -8.1041720590708065e-14 0.0000000000000000e+00  1.4999999999996996e-01 1.0111122876722229e-13 0.0000000000000000e+00  1.5000000000003044e-01 -9.7482116148962387e-14 0.0000000000000000e+00  1.4999999999997427e-01 7.9738214521695441e-14 0.0000000000000000e+00  1.5000000000001895e-01 -5.6165902351141201e-14 0.0000000000000000e+00  1.4999999999998551e-01 3.6291299477160166e-14 0.0000000000000000e+00  1.5000000000000632e-01 -1.8782822379585242e-14 0.0000000000000000e+00  1.4999999999998720e-01 0.0000000000000000e+00 0.0000000000000000e+00  1.5000000000038063e-01 0.0000000000000000e+00 6.0138224460466719e-13  1.4999999999948688e-01 -6.3720046897778165e-13 -6.3727625344234104e-13  1.5000000000002861e-01 2.3290584254766485e-13 -9.6658091671761570e-14  1.5000000000007940e-01 4.6712145712878073e-12 -6.3529259198418739e-13  1.4999999999337724e-01 9.2123372575105721e-12 -1.2661541841093529e-11  1.4999999997451360e-01 4.5730523932920950e-11 -5.3751188331203792e-11  1.4999999991291207e-01 1.6939276571603285e-10 -1.8908465864878885e-10  1.4999999971315997e-01 4.4590810030123858e-10 -6.1249653093565145e-10  1.4999999922122548e-01 1.0320519412782051e-09 -1.6668394729075795e-09  1.4999999822242993e-01 2.0219143041343900e-09 -3.8404685454059799e-09  1.4999999653212429e-01 2.8021208221680579e-09 -7.5223878166896467e-09  1.4999999465846858e-01 1.3687581476506654e-09 -1.1706677824171022e-08  1.4999999506254791e-01 -6.4545273528358494e-09 -1.1501113678507912e-08  1.5000000343660522e-01 -2.7876613624355884e-08 4.4574342232918130e-09  1.5000002970146414e-01 -7.1205511315624867e-08 5.5349894305721165e-08  1.5000008716050664e-01 -1.3974554634445535e-07 1.6481288264439559e-07  1.5000018674293131e-01 -2.2756334920312716e-07 3.4828317146124809e-07  1.5000032843455657e-01 -3.2053810583677871e-07 5.9686623548201222e-07  1.5000049711397720e-01 -3.9394270570232431e-07 8.7233978261471509e-07  1.5000066161760570e-01 -4.0139222719863764e-07 1.1110074657440385e-06  1.5000076993470149e-01 -2.7049173998653175e-07 1.2205296946245019e-06  1.5000075053841067e-01 6.0814195094900351e-08 1.0862952266035198e-06  1.5000054454153608e-01 5.4114021057262588e-07 6.3708153770945590e-07  1.5000017360384063e-01 9.1262155783155195e-07 -2.8106925760089129e-08  1.4999979407645783e-01 8.4020792751077958e-07 -5.7907943256244896e-07  1.4999963066654293e-01 2.9497949001621027e-07 -6.5589482330110063e-07  1.4999975833030615e-01 -2.7290628099485352e-07 -2.7630839756273595e-07  1.4999997070200050e-01 -3.8958525158821204e-07 7.8807575316406345e-08  1.5000001541332353e-01 -1.3528141884827185e-07 4.2773761205923797e-08  1.4999993728566863e-01 3.6450803686784074e-08 -1.3254906464242306e-07  1.4999995535132904e-01 -1.6620634136451763e-08 -5.0924571375616774e-08  1.5000004795803490e-01 -4.3981360294911002e-08 1.1319338897907667e-07  1.5000002088165837e-01 4.0275033182080057e-08 6.8705522567611811e-09  1.4999993145193397e-01 3.8575963743999177e-08 -1.4244506124381125e-07  1.4999998214505286e-01 -6.6381040678574548e-08 1.1025674635881033e-08  1.5000007998221429e-01 -5.6287790641175824e-08 1.6586787543737789e-07  1.5000001738084817e-01 6.5806189351826673e-08 -1.5574875078727588e-08  1.4999991980778424e-01 6.5338414509703577e-08 -1.6680861086593471e-07  1.4999998666471073e-01 -5.4706498938119191e-08 2.0528442146519824e-08  1.5000007136028398e-01 -6.2081642153537571e-08 1.4657888939357682e-07  1.5000000475719935e-01 4.3270305907486024e-08 -3.0531945614494667e-08  1.4999994251188745e-01 5.0464074464473863e-08 -1.1378465999511228e-07  1.5000000535236749e-01 -3.5283391634120371e-08 4.1910108743471950e-08  1.5000004182502591e-01 -3.5745949073113483e-08 7.7182295711869300e-08  1.4999998676866533e-01 3.0064794350845605e-08 -4.8485596286345892e-08  1.4999997343997684e-01 2.1587093998493337e-08 -4.3145626892769915e-08  1.5000001670068616e-01 -2.5530824057182988e-08 4.6757002717440679e-08  1.5000001339817781e-01 -9.8243336633186125e-09 1.5922017305154638e-08  1.4999998429756148e-01 2.0309651848740227e-08 -3.7456215370330997e-08  1.4999999632002539e-01 1.2926614734619906e-09 2.0578158484328329e-09  1.5000001168967780e-01 -1.4281992253636253e-08 2.4227072786128796e-08  1.4999999801135674e-01 3.7161361388412251e-09 -1.0515237900862880e-08  1.4999999331664970e-01 8.2232286105782308e-09 -1.1405683575764423e-08  1.5000000399230579e-01 -5.4641298280877856e-09 1.1372845402194091e-08  1.5000000241967526e-01 -3.1824339055709830e-09 2.1593686752960390e-09  1.4999999648670040e-01 4.8006463873999755e-09 -7.9354606027454067e-09  1.5000000018230239e-01 -8.8323342213804360e-11 2.4349764680551408e-09  1.5000000199462205e-01 -2.9428944237813625e-09 3.5307388671645455e-09  1.4999999889144564e-01 1.4642501260155874e-09 -3.2272666190934076e-09  1.4999999942176687e-01 1.0539132143612146e-09 -3.5081775923728202e-10  1.5000000094672045e-01 -1.4288690614249774e-09 2.0475012396854815e-09  1.4999999980128109e-01 1.4763813346171259e-10 -9.5517323009859107e-10  1.4999999958175361e-01 7.5859692492844091e-10 -5.9907915196521932e-10  1.5000000035846031e-01 -5.2787987846736928e-10 8.9404558546166564e-10  1.5000000001274658e-01 -1.2132278698467538e-10 -2.2047501188804288e-10  1.4999999979521070e-01 3.7859680563028816e-10 -3.5211512899628311e-10  1.5000000012513659e-01 -1.7356102907391155e-10 3.5097407715857148e-10  1.5000000002800318e-01 -9.9697809690385125e-11 -4.4603970078170291e-11  1.4999999991359966e-01 1.6537142905996665e-10 -1.5874461319206711e-10  1.5000000004529532e-01 -5.9846520417914212e-11 1.3634381050623997e-10  1.5000000001358774e-01 -4.8932405315367111e-11 -1.4217792353506663e-11  1.4999999996604577e-01 6.9164321337294052e-11 -6.1869932151596837e-11  1.5000000001834282e-01 -2.5423032110264358e-11 5.4699101863750597e-11  1.5000000000371344e-01 -1.8138934321837646e-11 -1.0137918102952056e-11  1.4999999998748109e-01 2.8308271525414069e-11 -2.0591583772104148e-11  1.5000000000816371e-01 -1.3253913435014358e-11 2.2167555780470573e-11  1.4999999999976263e-01 -4.2423018277215523e-12 -7.8616387765214785e-12  1.4999999999596864e-01 1.0806437426248245e-11 -4.7699186659473677e-12  1.5000000000361691e-01 -7.2360597251514799e-12 8.2712414364831743e-12  1.4999999999886918e-01 7.3285947479992404e-13 -4.9868785292039118e-12  1.4999999999916652e-01 3.1983231274314197e-12 3.3962599492777513e-13  1.5000000000135955e-01 -3.4418713606708510e-12 2.2357740843423444e-12  1.4999999999912356e-01 1.6786787877616710e-12 -2.3328458626640545e-12  1.5000000000017288e-01 1.0540223006369672e-13 1.1708468261144405e-12  1.5000000000025987e-01 -9.4555191581652275e-13 -1.7992926781345864e-14  1.4999999999965863e-01 8.9885581566917811e-13 -5.4719043186848599e-13  1.5000000000022007e-01 -4.5753339021513686e-13 5.6012217021873055e-13  1.4999999999993441e-01 5.3957829613350389e-14 -3.1227734525276209e-13  1.4999999999997193e-01 1.3209119186853362e-13 6.2527417549896778e-14  1.5000000000004829e-01 -1.2144367288877702e-13 7.1052857821917479e-14  1.4999999999997654e-01 1.7856486559428206e-14 -8.7081143584535047e-14  1.4999999999998717e-01 8.9093414986328257e-14 3.8363553297342404e-14  1.5000000000003980e-01 -1.5232191838053721e-13 2.3751575546672612e-14  1.4999999999994923e-01 1.6592529451161185e-13 -6.8412401229563786e-14  1.5000000000004896e-01 -1.4512215422552344e-13 8.6696458832770108e-14  1.4999999999996014e-01 1.0929695056829459e-13 -8.4137845693380234e-14  1.5000000000002836e-01 -7.4205516517533339e-14 6.8858649223462856e-14  1.4999999999998209e-01 4.3407485452468685e-14 -4.9880453534636675e-14  1.5000000000001165e-01 -2.5120083114666302e-14 3.4787421314326108e-14  1.4999999999999700e-01 1.3332827248284569e-14 -1.3145140805996443e-14  1.5000000000000635e-01 0.0000000000000000e+00 1.9350074400193930e-14  1.4999999999950703e-01 0.0000000000000000e+00 -2.0174065671169284e-12  1.5000000000002875e-01 -9.6913462197002545e-14 2.3274926886412273e-13  1.5000000000080912e-01 1.6876930752511471e-12 1.6870507947233905e-12  1.4999999999947097e-01 -3.6238756889799938e-12 -8.2143012583325808e-13  1.5000000000296559e-01 -1.0917250313225851e-11 8.1790906279838073e-12  1.5000000002173669e-01 -3.0650328054788929e-11 5.8867109001729316e-11  1.5000000007247902e-01 -1.4296540560474539e-10 2.1126971043536706e-10  1.5000000024424162e-01 -4.3748512521316207e-10 7.2294747094185894e-10  1.5000000073290420e-01 -1.0636334899585514e-09 2.1937071570778149e-09  1.5000000181421608e-01 -2.3087203116821907e-09 5.5489121072584113e-09  1.5000000384701864e-01 -4.0088046450270426e-09 1.2034730134647567e-08  1.5000000686387835e-01 -4.4134515382997473e-09 2.1999688893363133e-08  1.5000000911698960e-01 7.1119358040939746e-10 3.0661863653615395e-08  1.5000000518912610e-01 1.9319925143173029e-08 2.2199090382313047e-08  1.4999998451861352e-01 6.3032315109583587e-08 -3.5045913145442555e-08  1.4999993103357753e-01 1.4061070457716457e-07 -1.8873302327809048e-07  1.4999982767319026e-01 2.4811040175924046e-07 -4.8677278238061403e-07  1.4999966806404394e-01 3.6755888049689044e-07 -9.4112232660323047e-07  1.4999946623410954e-01 4.7157621898556152e-07 -1.5005279676265824e-06  1.4999925590937774e-01 5.1764037745132802e-07 -2.0590550799678589e-06  1.4999908934231257e-01 4.3477523612835928e-07 -2.4681523672072957e-06  1.4999904120565735e-01 1.3500863592059579e-07 -2.5250029422479687e-06  1.4999919247792953e-01 -4.0344880309865734e-07 -2.0106317997648963e-06  1.4999956896826622e-01 -9.8850054452302697e-07 -8.7481070940024865e-07  1.5000005813541864e-01 -1.1992162913294522e-06 5.0593882970390537e-07  1.5000040419754548e-01 -7.4740318682041001e-07 1.3506949516008719e-06  1.5000039734358506e-01 5.9619263894537507e-08 1.1134679755006166e-06  1.5000013991434491e-01 5.0991035029069677e-07 2.4744284926835974e-07  1.4999997981287205e-01 3.3256723169442348e-07 -1.6774976757893064e-07  1.5000004885936377e-01 7.3575638756792468e-09 1.2696583030465781e-07  1.5000009722239455e-01 -1.4375853872383859e-08 2.7235107575558246e-07  1.4999997949800636e-01 7.9725484341533666e-08 -9.9265382873878484e-08  1.4999992803929668e-01 -4.6804971337031110e-09 -2.1120551314423147e-07  1.5000005288838636e-01 -8.9044882801309642e-08 1.9187003659350827e-07  1.5000008093067732e-01 3.2526529610349114e-08 2.2778801945441649e-07  1.4999993062360747e-01 1.1965386850042817e-07 -2.4936088533873577e-07  1.4999991374578234e-01 -2.4120593221281002e-08 -2.4363547573858428e-07  1.5000007472417692e-01 -1.2721238343785269e-07 2.6581219822057945e-07  1.5000007996465586e-01 1.0489497043981393e-08 2.2524415638691061e-07  1.4999992722109978e-01 1.1591989844682742e-07 -2.5442956590894586e-07  1.4999993805882242e-01 -3.7960766818408463e-09 -1.7049000570195760e-07  1.5000006690020290e-01 -9.5139457719130819e-08 2.2783816446987503e-07  1.5000003796471956e-01 5.6516782584496846e-09 9.7340909700020253e-08  1.4999994206641748e-01 7.2428101497807749e-08 -1.9110320301740955e-07  1.4999998511735735e-01 -1.2038074318545954e-08 -2.7910477129458335e-08  1.5000004580800702e-01 -5.1318373418782757e-08 1.4578858252432811e-07  1.4999999753176110e-01 1.8144931307151216e-08 -2.2284354581169726e-08  1.4999996849657310e-01 3.2745821249098592e-08 -9.5929195262661176e-08  1.5000001208710734e-01 -2.0969760379079274e-08 4.7428150169875615e-08  1.5000001736291366e-01 -1.7168318739998715e-08 4.9181086365900674e-08  1.4999998554732163e-01 1.9686370078325776e-08 -5.0000147243800046e-08  1.4999999401903658e-01 5.3476714995224286e-09 -1.3396276218009183e-08  1.5000001176370228e-01 -1.5129616605184984e-08 3.7846864321421856e-08  1.4999999893600396e-01 2.0517742629492175e-09 -7.2626162342143899e-09  1.4999999308007447e-01 9.0967276401455066e-09 -2.0566833718106825e-08  1.5000000377660394e-01 -5.1025874554654804e-09 1.3823680939815235e-08  1.5000000243713854e-01 -3.5534738117373547e-09 5.9587611681274222e-09  1.4999999654645613e-01 4.8367665348402632e-09 -1.1211989935812313e-08  1.5000000030451197e-01 -1.2700022975862375e-10 2.1993876577905606e-09  1.5000000186070311e-01 -2.8984327192927056e-09 5.3870540706794495e-09  1.4999999881397996e-01 1.5970668816789441e-09 -4.2214068540503064e-09  1.4999999959996449e-01 8.6577614733357399e-10 -6.9008190187208059e-10  1.5000000090419088e-01 -1.4378449872696141e-09 2.7939834349617834e-09  1.4999999968484182e-01 3.3463587223314710e-10 -1.2971216451031186e-09  1.4999999969001643e-01 6.3476769001801188e-10 -7.4927096943786379e-10  1.5000000037051014e-01 -5.9145385819235682e-10 1.1951090385117098e-09  1.4999999992890231e-01 1.8636471723366636e-11 -3.7486857387502437e-10  1.4999999984560555e-01 3.2432993257721397e-10 -3.9731658431819712e-10  1.5000000014457637e-01 -2.3323971502996378e-10 4.7824973333192116e-10  1.4999999998118668e-01 -1.7492353199061593e-11 -1.2678285557476927e-10  1.4999999993619911e-01 1.4300503192523154e-10 -1.6307423862233615e-10  1.5000000005733755e-01 -9.6992149983847792e-11 1.8944552909698755e-10  1.4999999999023883e-01 -4.7390937419022563e-12 -5.9023250301931970e-11  1.4999999997733335e-01 5.7116605679207860e-11 -5.3400266313078733e-11  1.5000000002322875e-01 -4.3524887318987274e-11 7.3956249328179535e-11  1.4999999999288274e-01 4.8591208417974352e-12 -3.3092219612012253e-11  1.4999999999381963e-01 1.9596798696556718e-11 -1.0557829187861757e-11  1.5000000000902791e-01 -1.9782973353856934e-11 2.6323651813512432e-11  1.4999999999525884e-01 7.1373489994900733e-12 -1.7892542284960