<?xml version="1.0"?>
<VTKFile type="UnstructuredGrid"  version="0.1"  >
<UnstructuredGrid>
<Piece  NumberOfPoints="10201" NumberOfCells="20000">
<Points>
<DataArray  type="Float64"  NumberOfComponents="3"  format="ascii">-5 -5 0  -4.9 -5 0  -4.8 -5 0  -4.7 -5 0  -4.6 -5 0  -4.5 -5 0  -4.4 -5 0  -4.3 -5 0  -4.2 -5 0  -4.1 -5 0  -4 -5 0  -3.9 -5 0  -3.8 -5 0  -3.7 -5 0  -3.6 -5 0  -3.5 -5 0  -3.4 -5 0  -3.3 -5 0  -3.2 -5 0  -3.1 -5 0  -3 -5 0  -2.9 -5 0  -2.8 -5 0  -2.7 -5 0  -2.6 -5 0  -2.5 -5 0  -2.4 -5 0  -2.3 -5 0  -2.2 -5 0  -2.1 -5 0  -2 -5 0  -1.9 -5 0  -1.8 -5 0  -1.7 -5 0  -1.6 -5 0  -1.5 -5 0  -1.4 -5 0  -1.3 -5 0  -1.2 -5 0  -1.1 -5 0  -1 -5 0  -0.9000000000000004 -5 0  -0.7999999999999998 -5 0  -0.7000000000000002 -5 0  -0.5999999999999996 -5 0  -0.5 -5 0  -0.4000000000000004 -5 0  -0.2999999999999998 -5 0  -0.2000000000000002 -5 0  -0.09999999999999964 -5 0  0 -5 0  0.09999999999999964 -5 0  0.2000000000000002 -5 0  0.2999999999999998 -5 0  0.4000000000000004 -5 0  0.5 -5 0  0.5999999999999996 -5 0  0.7000000000000002 -5 0  0.7999999999999998 -5 0  0.9000000000000004 -5 0  1 -5 0  1.1 -5 0  1.2 -5 0  1.3 -5 0  1.4 -5 0  1.5 -5 0  1.6 -5 0  1.7 -5 0  1.8 -5 0  1.9 -5 0  2 -5 0  2.1 -5 0  2.2 -5 0  2.3 -5 0  2.4 -5 0  2.5 -5 0  2.6 -5 0  2.7 -5 0  2.8 -5 0  2.9 -5 0  3 -5 0  3.1 -5 0  3.199999999999999 -5 0  3.300000000000001 -5 0  3.4 -5 0  3.5 -5 0  3.6 -5 0  3.699999999999999 -5 0  3.800000000000001 -5 0  3.9 -5 0  4 -5 0  4.1 -5 0  4.199999999999999 -5 0  4.300000000000001 -5 0  4.4 -5 0  4.5 -5 0  4.6 -5 0  4.699999999999999 -5 0  4.800000000000001 -5 0  4.9 -5 0  5 -5 0  -5 -4.9 0  -4.9 -4.9 0  -4.8 -4.9 0  -4.7 -4.9 0  -4.6 -4.9 0  -4.5 -4.9 0  -4.4 -4.9 0  -4.3 -4.9 0  -4.2 -4.9 0  -4.1 -4.9 0  -4 -4.9 0  -3.9 -4.9 0  -3.8 -4.9 0  -3.7 -4.9 0  -3.6 -4.9 0  -3.5 -4.9 0  -3.4 -4.9 0  -3.3 -4.9 0  -3.2 -4.9 0  -3.1 -4.9 0  -3 -4.9 0  -2.9 -4.9 0  -2.8 -4.9 0  -2.7 -4.9 0  -2.6 -4.9 0  -2.5 -4.9 0  -2.4 -4.9 0  -2.3 -4.9 0  -2.2 -4.9 0  -2.1 -4.9 0  -2 -4.9 0  -1.9 -4.9 0  -1.8 -4.9 0  -1.7 -4.9 0  -1.6 -4.9 0  -1.5 -4.9 0  -1.4 -4.9 0  -1.3 -4.9 0  -1.2 -4.9 0  -1.1 -4.9 0  -1 -4.9 0  -0.9000000000000004 -4.9 0  -0.7999999999999998 -4.9 0  -0.7000000000000002 -4.9 0  -0.5999999999999996 -4.9 0  -0.5 -4.9 0  -0.4000000000000004 -4.9 0  -0.2999999999999998 -4.9 0  -0.2000000000000002 -4.9 0  -0.09999999999999964 -4.9 0  0 -4.9 0  0.09999999999999964 -4.9 0  0.2000000000000002 -4.9 0  0.2999999999999998 -4.9 0  0.4000000000000004 -4.9 0  0.5 -4.9 0  0.5999999999999996 -4.9 0  0.7000000000000002 -4.9 0  0.7999999999999998 -4.9 0  0.9000000000000004 -4.9 0  1 -4.9 0  1.1 -4.9 0  1.2 -4.9 0  1.3 -4.9 0  1.4 -4.9 0  1.5 -4.9 0  1.6 -4.9 0  1.7 -4.9 0  1.8 -4.9 0  1.9 -4.9 0  2 -4.9 0  2.1 -4.9 0  2.2 -4.9 0  2.3 -4.9 0  2.4 -4.9 0  2.5 -4.9 0  2.6 -4.9 0  2.7 -4.9 0  2.8 -4.9 0  2.9 -4.9 0  3 -4.9 0  3.1 -4.9 0  3.199999999999999 -4.9 0  3.300000000000001 -4.9 0  3.4 -4.9 0  3.5 -4.9 0  3.6 -4.9 0  3.699999999999999 -4.9 0  3.800000000000001 -4.9 0  3.9 -4.9 0  4 -4.9 0  4.1 -4.9 0  4.199999999999999 -4.9 0  4.300000000000001 -4.9 0  4.4 -4.9 0  4.5 -4.9 0  4.6 -4.9 0  4.699999999999999 -4.9 0  4.800000000000001 -4.9 0  4.9 -4.9 0  5 -4.9 0  -5 -4.8 0  -4.9 -4.8 0  -4.8 -4.8 0  -4.7 -4.8 0  -4.6 -4.8 0  -4.5 -4.8 0  -4.4 -4.8 0  -4.3 -4.8 0  -4.2 -4.8 0  -4.1 -4.8 0  -4 -4.8 0  -3.9 -4.8 0  -3.8 -4.8 0  -3.7 -4.8 0  -3.6 -4.8 0  -3.5 -4.8 0  -3.4 -4.8 0  -3.3 -4.8 0  -3.2 -4.8 0  -3.1 -4.8 0  -3 -4.8 0  -2.9 -4.8 0  -2.8 -4.8 0  -2.7 -4.8 0  -2.6 -4.8 0  -2.5 -4.8 0  -2.4 -4.8 0  -2.3 -4.8 0  -2.2 -4.8 0  -2.1 -4.8 0  -2 -4.8 0  -1.9 -4.8 0  -1.8 -4.8 0  -1.7 -4.8 0  -1.6 -4.8 0  -1.5 -4.8 0  -1.4 -4.8 0  -1.3 -4.8 0  -1.2 -4.8 0  -1.1 -4.8 0  -1 -4.8 0  -0.9000000000000004 -4.8 0  -0.7999999999999998 -4.8 0  -0.7000000000000002 -4.8 0  -0.5999999999999996 -4.8 0  -0.5 -4.8 0  -0.4000000000000004 -4.8 0  -0.2999999999999998 -4.8 0  -0.2000000000000002 -4.8 0  -0.09999999999999964 -4.8 0  0 -4.8 0  0.09999999999999964 -4.8 0  0.2000000000000002 -4.8 0  0.2999999999999998 -4.8 0  0.4000000000000004 -4.8 0  0.5 -4.8 0  0.5999999999999996 -4.8 0  0.7000000000000002 -4.8 0  0.7999999999999998 -4.8 0  0.9000000000000004 -4.8 0  1 -4.8 0  1.1 -4.8 0  1.2 -4.8 0  1.3 -4.8 0  1.4 -4.8 0  1.5 -4.8 0  1.6 -4.8 0  1.7 -4.8 0  1.8 -4.8 0  1.9 -4.8 0  2 -4.8 0  2.1 -4.8 0  2.2 -4.8 0  2.3 -4.8 0  2.4 -4.8 0  2.5 -4.8 0  2.6 -4.8 0  2.7 -4.8 0  2.8 -4.8 0  2.9 -4.8 0  3 -4.8 0  3.1 -4.8 0  3.199999999999999 -4.8 0  3.300000000000001 -4.8 0  3.4 -4.8 0  3.5 -4.8 0  3.6 -4.8 0  3.699999999999999 -4.8 0  3.800000000000001 -4.8 0  3.9 -4.8 0  4 -4.8 0  4.1 -4.8 0  4.199999999999999 -4.8 0  4.300000000000001 -4.8 0  4.4 -4.8 0  4.5 -4.8 0  4.6 -4.8 0  4.699999999999999 -4.8 0  4.800000000000001 -4.8 0  4.9 -4.8 0  5 -4.8 0  -5 -4.7 0  -4.9 -4.7 0  -4.8 -4.7 0  -4.7 -4.7 0  -4.6 -4.7 0  -4.5 -4.7 0  -4.4 -4.7 0  -4.3 -4.7 0  -4.2 -4.7 0  -4.1 -4.7 0  -4 -4.7 0  -3.9 -4.7 0  -3.8 -4.7 0  -3.7 -4.7 0  -3.6 -4.7 0  -3.5 -4.7 0  -3.4 -4.7 0  -3.3 -4.7 0  -3.2 -4.7 0  -3.1 -4.7 0  -3 -4.7 0  -2.9 -4.7 0  -2.8 -4.7 0  -2.7 -4.7 0  -2.6 -4.7 0  -2.5 -4.7 0  -2.4 -4.7 0  -2.3 -4.7 0  -2.2 -4.7 0  -2.1 -4.7 0  -2 -4.7 0  -1.9 -4.7 0  -1.8 -4.7 0  -1.7 -4.7 0  -1.6 -4.7 0  -1.5 -4.7 0  -1.4 -4.7 0  -1.3 -4.7 0  -1.2 -4.7 0  -1.1 -4.7 0  -1 -4.7 0  -0.9000000000000004 -4.7 0  -0.7999999999999998 -4.7 0  -0.7000000000000002 -4.7 0  -0.5999999999999996 -4.7 0  -0.5 -4.7 0  -0.4000000000000004 -4.7 0  -0.2999999999999998 -4.7 0  -0.2000000000000002 -4.7 0  -0.09999999999999964 -4.7 0  0 -4.7 0  0.09999999999999964 -4.7 0  0.2000000000000002 -4.7 0  0.2999999999999998 -4.7 0  0.4000000000000004 -4.7 0  0.5 -4.7 0  0.5999999999999996 -4.7 0  0.7000000000000002 -4.7 0  0.7999999999999998 -4.7 0  0.9000000000000004 -4.7 0  1 -4.7 0  1.1 -4.7 0  1.2 -4.7 0  1.3 -4.7 0  1.4 -4.7 0  1.5 -4.7 0  1.6 -4.7 0  1.7 -4.7 0  1.8 -4.7 0  1.9 -4.7 0  2 -4.7 0  2.1 -4.7 0  2.2 -4.7 0  2.3 -4.7 0  2.4 -4.7 0  2.5 -4.7 0  2.6 -4.7 0  2.7 -4.7 0  2.8 -4.7 0  2.9 -4.7 0  3 -4.7 0  3.1 -4.7 0  3.199999999999999 -4.7 0  3.300000000000001 -4.7 0  3.4 -4.7 0  3.5 -4.7 0  3.6 -4.7 0  3.699999999999999 -4.7 0  3.800000000000001 -4.7 0  3.9 -4.7 0  4 -4.7 0  4.1 -4.7 0  4.199999999999999 -4.7 0  4.300000000000001 -4.7 0  4.4 -4.7 0  4.5 -4.7 0  4.6 -4.7 0  4.699999999999999 -4.7 0  4.800000000000001 -4.7 0  4.9 -4.7 0  5 -4.7 0  -5 -4.6 0  -4.9 -4.6 0  -4.8 -4.6 0  -4.7 -4.6 0  -4.6 -4.6 0  -4.5 -4.6 0  -4.4 -4.6 0  -4.3 -4.6 0  -4.2 -4.6 0  -4.1 -4.6 0  -4 -4.6 0  -3.9 -4.6 0  -3.8 -4.6 0  -3.7 -4.6 0  -3.6 -4.6 0  -3.5 -4.6 0  -3.4 -4.6 0  -3.3 -4.6 0  -3.2 -4.6 0  -3.1 -4.6 0  -3 -4.6 0  -2.9 -4.6 0  -2.8 -4.6 0  -2.7 -4.6 0  -2.6 -4.6 0  -2.5 -4.6 0  -2.4 -4.6 0  -2.3 -4.6 0  -2.2 -4.6 0  -2.1 -4.6 0  -2 -4.6 0  -1.9 -4.6 0  -1.8 -4.6 0  -1.7 -4.6 0  -1.6 -4.6 0  -1.5 -4.6 0  -1.4 -4.6 0  -1.3 -4.6 0  -1.2 -4.6 0  -1.1 -4.6 0  -1 -4.6 0  -0.9000000000000004 -4.6 0  -0.7999999999999998 -4.6 0  -0.7000000000000002 -4.6 0  -0.5999999999999996 -4.6 0  -0.5 -4.6 0  -0.4000000000000004 -4.6 0  -0.2999999999999998 -4.6 0  -0.2000000000000002 -4.6 0  -0.09999999999999964 -4.6 0  0 -4.6 0  0.09999999999999964 -4.6 0  0.2000000000000002 -4.6 0  0.2999999999999998 -4.6 0  0.4000000000000004 -4.6 0  0.5 -4.6 0  0.5999999999999996 -4.6 0  0.7000000000000002 -4.6 0  0.7999999999999998 -4.6 0  0.9000000000000004 -4.6 0  1 -4.6 0  1.1 -4.6 0  1.2 -4.6 0  1.3 -4.6 0  1.4 -4.6 0  1.5 -4.6 0  1.6 -4.6 0  1.7 -4.6 0  1.8 -4.6 0  1.9 -4.6 0  2 -4.6 0  2.1 -4.6 0  2.2 -4.6 0  2.3 -4.6 0  2.4 -4.6 0  2.5 -4.6 0  2.6 -4.6 0  2.7 -4.6 0  2.8 -4.6 0  2.9 -4.6 0  3 -4.6 0  3.1 -4.6 0  3.199999999999999 -4.6 0  3.300000000000001 -4.6 0  3.4 -4.6 0  3.5 -4.6 0  3.6 -4.6 0  3.699999999999999 -4.6 0  3.800000000000001 -4.6 0  3.9 -4.6 0  4 -4.6 0  4.1 -4.6 0  4.199999999999999 -4.6 0  4.300000000000001 -4.6 0  4.4 -4.6 0  4.5 -4.6 0  4.6 -4.6 0  4.699999999999999 -4.6 0  4.800000000000001 -4.6 0  4.9 -4.6 0  5 -4.6 0  -5 -4.5 0  -4.9 -4.5 0  -4.8 -4.5 0  -4.7 -4.5 0  -4.6 -4.5 0  -4.5 -4.5 0  -4.4 -4.5 0  -4.3 -4.5 0  -4.2 -4.5 0  -4.1 -4.5 0  -4 -4.5 0  -3.9 -4.5 0  -3.8 -4.5 0  -3.7 -4.5 0  -3.6 -4.5 0  -3.5 -4.5 0  -3.4 -4.5 0  -3.3 -4.5 0  -3.2 -4.5 0  -3.1 -4.5 0  -3 -4.5 0  -2.9 -4.5 0  -2.8 -4.5 0  -2.7 -4.5 0  -2.6 -4.5 0  -2.5 -4.5 0  -2.4 -4.5 0  -2.3 -4.5 0  -2.2 -4.5 0  -2.1 -4.5 0  -2 -4.5 0  -1.9 -4.5 0  -1.8 -4.5 0  -1.7 -4.5 0  -1.6 -4.5 0  -1.5 -4.5 0  -1.4 -4.5 0  -1.3 -4.5 0  -1.2 -4.5 0  -1.1 -4.5 0  -1 -4.5 0  -0.9000000000000004 -4.5 0  -0.7999999999999998 -4.5 0  -0.7000000000000002 -4.5 0  -0.5999999999999996 -4.5 0  -0.5 -4.5 0  -0.4000000000000004 -4.5 0  -0.2999999999999998 -4.5 0  -0.2000000000000002 -4.5 0  -0.09999999999999964 -4.5 0  0 -4.5 0  0.09999999999999964 -4.5 0  0.2000000000000002 -4.5 0  0.2999999999999998 -4.5 0  0.4000000000000004 -4.5 0  0.5 -4.5 0  0.5999999999999996 -4.5 0  0.7000000000000002 -4.5 0  0.7999999999999998 -4.5 0  0.9000000000000004 -4.5 0  1 -4.5 0  1.1 -4.5 0  1.2 -4.5 0  1.3 -4.5 0  1.4 -4.5 0  1.5 -4.5 0  1.6 -4.5 0  1.7 -4.5 0  1.8 -4.5 0  1.9 -4.5 0  2 -4.5 0  2.1 -4.5 0  2.2 -4.5 0  2.3 -4.5 0  2.4 -4.5 0  2.5 -4.5 0  2.6 -4.5 0  2.7 -4.5 0  2.8 -4.5 0  2.9 -4.5 0  3 -4.5 0  3.1 -4.5 0  3.199999999999999 -4.5 0  3.300000000000001 -4.5 0  3.4 -4.5 0  3.5 -4.5 0  3.6 -4.5 0  3.699999999999999 -4.5 0  3.800000000000001 -4.5 0  3.9 -4.5 0  4 -4.5 0  4.1 -4.5 0  4.199999999999999 -4.5 0  4.300000000000001 -4.5 0  4.4 -4.5 0  4.5 -4.5 0  4.6 -4.5 0  4.699999999999999 -4.5 0  4.800000000000001 -4.5 0  4.9 -4.5 0  5 -4.5 0  -5 -4.4 0  -4.9 -4.4 0  -4.8 -4.4 0  -4.7 -4.4 0  -4.6 -4.4 0  -4.5 -4.4 0  -4.4 -4.4 0  -4.3 -4.4 0  -4.2 -4.4 0  -4.1 -4.4 0  -4 -4.4 0  -3.9 -4.4 0  -3.8 -4.4 0  -3.7 -4.4 0  -3.6 -4.4 0  -3.5 -4.4 0  -3.4 -4.4 0  -3.3 -4.4 0  -3.2 -4.4 0  -3.1 -4.4 0  -3 -4.4 0  -2.9 -4.4 0  -2.8 -4.4 0  -2.7 -4.4 0  -2.6 -4.4 0  -2.5 -4.4 0  -2.4 -4.4 0  -2.3 -4.4 0  -2.2 -4.4 0  -2.1 -4.4 0  -2 -4.4 0  -1.9 -4.4 0  -1.8 -4.
[...]
<PointData  Vectors="f_17"> 
<DataArray  type="Float64"  Name="f_17"  NumberOfComponents="3" format="ascii">1.5000000000009150e-01 0.0000000000000000e+00 0.0000000000000000e+00  1.5000000000013111e-01 2.5158992932312593e-13 0.0000000000000000e+00  1.4999999999967509e-01 -7.4840975319778119e-13 0.0000000000000000e+00  1.5000000000033317e-01 -7.2183542387449553e-13 0.0000000000000000e+00  1.5000000000270169e-01 -3.1001337622146818e-12 0.0000000000000000e+00  1.5000000000886149e-01 -2.1288812003980426e-11 0.0000000000000000e+00  1.5000000003623204e-01 -6.6994671096732589e-11 0.0000000000000000e+00  1.5000000012144882e-01 -1.7441782510900078e-10 0.0000000000000000e+00  1.5000000032156083e-01 -4.1285428116661311e-10 0.0000000000000000e+00  1.5000000073230735e-01 -7.4831750344068742e-10 0.0000000000000000e+00  1.5000000138951691e-01 -8.2382684564448417e-10 0.0000000000000000e+00  1.5000000190983592e-01 2.9991114642271409e-10 0.0000000000000000e+00  1.5000000097374569e-01 4.6732269706726889e-09 0.0000000000000000e+00  1.4999999568111932e-01 1.5687866537659346e-08 0.0000000000000000e+00  1.4999998094092790e-01 3.6785323349379480e-08 0.0000000000000000e+00  1.4999995015384379e-01 6.9508145775067122e-08 0.0000000000000000e+00  1.4999989799924635e-01 1.1299392174714822e-07 0.0000000000000000e+00  1.4999982332818468e-01 1.6323976970139038e-07 0.0000000000000000e+00  1.4999973101892325e-01 2.0789950686333951e-07 0.0000000000000000e+00  1.4999963622138482e-01 2.1699301593623252e-07 0.0000000000000000e+00  1.4999957142583939e-01 1.4084780786916465e-07 0.0000000000000000e+00  1.4999958547040429e-01 -5.8631776402588162e-08 0.0000000000000000e+00  1.4999971804616619e-01 -3.3331963012352891e-07 0.0000000000000000e+00  1.4999994782156523e-01 -5.0908250707967424e-07 0.0000000000000000e+00  1.5000016012477169e-01 -4.0840045957630576e-07 0.0000000000000000e+00  1.5000021659779550e-01 -7.6580570989576725e-08 0.0000000000000000e+00  1.5000010858207338e-01 1.9841014870414783e-07 0.0000000000000000e+00  1.4999999192503491e-01 2.0021159059371619e-07 0.0000000000000000e+00  1.4999999000145642e-01 4.0610073433505730e-08 0.0000000000000000e+00  1.5000003298328043e-01 -3.3697621097930088e-08 0.0000000000000000e+00  1.5000000999287227e-01 7.4939293401581974e-09 0.0000000000000000e+00  1.4999997138919033e-01 1.7658243378275246e-08 0.0000000000000000e+00  1.5000000385754439e-01 -2.5039987917827270e-08 0.0000000000000000e+00  1.5000003788588731e-01 -1.3533845079434729e-08 0.0000000000000000e+00  1.4999999319638882e-01 3.9762894383551305e-08 0.0000000000000000e+00  1.4999995774287597e-01 2.1893855765250941e-08 0.0000000000000000e+00  1.5000000664477969e-01 -4.0929501820342648e-08 0.0000000000000000e+00  1.5000004019977928e-01 -2.6863733457982958e-08 0.0000000000000000e+00  1.4999999301809278e-01 3.5725866446970150e-08 0.0000000000000000e+00  1.4999996646329061e-01 2.5572883649545901e-08 0.0000000000000000e+00  1.5000000848857081e-01 -2.9386867632019319e-08 0.0000000000000000e+00  1.5000002484228014e-01 -1.9888351680520155e-08 0.0000000000000000e+00  1.4999998988376337e-01 2.3896336954088484e-08 0.0000000000000000e+00  1.4999998386897995e-01 1.2596510291455982e-08 0.0000000000000000e+00  1.5000001063068019e-01 -1.9186770494052786e-08 0.0000000000000000e+00  1.5000000863137578e-01 -5.7951502659868584e-09 0.0000000000000000e+00  1.4999999044307813e-01 1.4677083892854246e-08 0.0000000000000000e+00  1.4999999697340113e-01 6.2974248829940152e-10 0.0000000000000000e+00  1.5000000724129245e-01 -1.0170184946148311e-08 0.0000000000000000e+00  1.4999999957007359e-01 2.4683192030719740e-09 0.0000000000000000e+00  1.4999999553554727e-01 5.9592758086943623e-09 0.0000000000000000e+00  1.5000000191968715e-01 -3.5918431144547004e-09 0.0000000000000000e+00  1.5000000200718758e-01 -2.5408950069243354e-09 0.0000000000000000e+00  1.4999999801329081e-01 3.2344221707862166e-09 0.0000000000000000e+00  1.4999999964772290e-01 2.8381409252045091e-10 0.0000000000000000e+00  1.5000000133215555e-01 -2.1103895221943999e-09 0.0000000000000000e+00  1.4999999958447180e-01 7.6845675123971063e-10 0.0000000000000000e+00  1.4999999943261935e-01 9.0856597919746593e-10 0.0000000000000000e+00  1.5000000052329907e-01 -9.0019847942461069e-10 0.0000000000000000e+00  1.5000000004735398e-01 -7.6110661750121006e-11 0.0000000000000000e+00  1.4999999968121347e-01 5.6460924275671557e-10 0.0000000000000000e+00  1.5000000015197526e-01 -2.6631009076656629e-10 0.0000000000000000e+00  1.5000000008789055e-01 -1.7155582463087007e-10 0.0000000000000000e+00  1.4999999986458090e-01 2.5227369486353781e-10 0.0000000000000000e+00  1.5000000003531255e-01 -5.6772461912850617e-11 0.0000000000000000e+00  1.5000000005076589e-01 -1.0559629337081938e-10 0.0000000000000000e+00  1.4999999994813557e-01 9.9881762308135032e-11 0.0000000000000000e+00  1.5000000000750230e-01 -8.1262261578414634e-12 0.0000000000000000e+00  1.5000000002236938e-01 -4.9352037316496579e-11 0.0000000000000000e+00  1.4999999998033803e-01 3.9187036697731316e-11 0.0000000000000000e+00  1.5000000000240404e-01 -1.4676138927099307e-12 0.0000000000000000e+00  1.5000000000851269e-01 -2.0151625150070859e-11 0.0000000000000000e+00  1.4999999999231078e-01 1.6137834520099981e-11 0.0000000000000000e+00  1.5000000000153371e-01 -1.7625036762013030e-12 0.0000000000000000e+00  1.5000000000276623e-01 -7.2433922166511820e-12 0.0000000000000000e+00  1.4999999999696106e-01 6.8891499919643979e-12 0.0000000000000000e+00  1.5000000000110131e-01 -1.9323380149217925e-12 0.0000000000000000e+00  1.5000000000062622e-01 -2.0034692104301656e-12 0.0000000000000000e+00  1.4999999999888797e-01 2.7999036386159287e-12 0.0000000000000000e+00  1.5000000000067187e-01 -1.4761284259147341e-12 0.0000000000000000e+00  1.4999999999995489e-01 -1.0990977489364795e-13 0.0000000000000000e+00  1.4999999999969907e-01 8.8361565767146853e-13 0.0000000000000000e+00  1.5000000000031088e-01 -8.0284207965685088e-13 0.0000000000000000e+00  1.4999999999984726e-01 3.3967189799060956e-13 0.0000000000000000e+00  1.4999999999999639e-01 6.6342782599149566e-14 0.0000000000000000e+00  1.5000000000007838e-01 -2.3701430244727263e-13 0.0000000000000000e+00  1.4999999999992225e-01 2.0999081516952258e-13 0.0000000000000000e+00  1.5000000000004185e-01 -1.0026109569009797e-13 0.0000000000000000e+00  1.4999999999999433e-01 2.0533242866424427e-15 0.0000000000000000e+00  1.4999999999998678e-01 4.5017880703912643e-14 0.0000000000000000e+00  1.5000000000001659e-01 -4.5268835799499118e-14 0.0000000000000000e+00  1.4999999999999031e-01 2.3346198736663935e-14 0.0000000000000000e+00  1.5000000000000113e-01 2.1136867453502898e-15 0.0000000000000000e+00  1.5000000000000530e-01 -2.0246208517216299e-14 0.0000000000000000e+00  1.4999999999999167e-01 2.8076120892287487e-14 0.0000000000000000e+00  1.5000000000000882e-01 -2.8173721052868789e-14 0.0000000000000000e+00  1.4999999999999261e-01 2.3090867666527793e-14 0.0000000000000000e+00  1.5000000000000543e-01 -1.6035857900188495e-14 0.0000000000000000e+00  1.4999999999999586e-01 9.8124554450467212e-15 0.0000000000000000e+00  1.5000000000000169e-01 -5.2489115799542406e-15 0.0000000000000000e+00  1.4999999999999650e-01 0.0000000000000000e+00 0.0000000000000000e+00  1.5000000000013078e-01 0.0000000000000000e+00 2.5149613626266920e-13  1.4999999999975994e-01 -3.1774712926817026e-13 -3.1811662545455557e-13  1.5000000000011249e-01 1.2218737728332897e-13 1.1425356296316402e-13  1.5000000000027996e-01 1.4021555005986122e-12 2.9449136765302100e-13  1.4999999999822286e-01 1.2670442891946052e-12 -3.1258642104270900e-12  1.4999999999353117e-01 1.2133950876393513e-11 -1.3893846007446188e-11  1.4999999997594804e-01 5.1794958968337060e-11 -5.3800548422015707e-11  1.4999999991018265e-01 1.4121752669916313e-10 -1.9515235183232993e-10  1.4999999973929956e-01 3.5124621321597816e-10 -5.7056669676846261e-10  1.4999999937030770e-01 7.3991597471010941e-10 -1.3969828579794498e-09  1.4999999869409872e-01 1.0903221788698616e-09 -2.9103343518481481e-09  1.4999999786507601e-01 6.4257039789976372e-10 -4.8158949327141978e-09  1.4999999785530746e-01 -2.3290992602792501e-09 -5.1528636769430281e-09  1.5000000110665629e-01 -1.1131342305394245e-08 1.0949996536376896e-09  1.5000001228109219e-01 -3.0023649253960802e-08 2.3259122268959688e-08  1.5000003831619976e-01 -6.1716977324760166e-08 7.4308978385566612e-08  1.5000008611758289e-01 -1.0575658286847758e-07 1.6548150206565444e-07  1.5000015871147079e-01 -1.5876271074170902e-07 2.9849754851743885e-07  1.5000025285135235e-01 -2.1164084097254410e-07 4.6169099827666269e-07  1.5000035663393840e-01 -2.4075352853920780e-07 6.2770842768796462e-07  1.5000044329994766e-01 -2.0035923303204074e-07 7.4456365365904670e-07  1.5000046722953270e-01 -3.7908326880957446e-08 7.3097813081399278e-07  1.5000037858995119e-01 2.4246135708873185e-07 5.1061162268588784e-07  1.5000016746263728e-01 5.0428928540631638e-07 1.0162284270252107e-07  1.4999991448498232e-01 5.2859356093123188e-07 -3.0702212609513100e-07  1.4999977130109676e-01 2.4443099771606841e-07 -4.4555319461146446e-07  1.4999982234754480e-01 -1.1675660000268308e-07 -2.4443596889497106e-07  1.4999996460807730e-01 -2.4246716266362014e-07 2.3080711382668042e-08  1.5000002045257357e-01 -1.1368986744389495e-07 5.8640286584234596e-08  1.4999997700652590e-01 1.5142990153155778e-08 -5.6532655308862061e-08  1.4999996932104614e-01 7.2418754313259556e-09 -4.7405740393510534e-08  1.5000002088823849e-01 -2.1284673593275872e-08 5.5592095807916462e-08  1.5000001877519459e-01 1.4223112566680434e-08 2.1562208764981469e-08  1.4999996492145665e-01 2.5297490070007606e-08 -7.9804977540561698e-08  1.4999997972720719e-01 -2.7396540661278122e-08 -1.7519447181164489e-08  1.5000004114118642e-01 -3.7800038838974216e-08 9.4098392527965780e-08  1.5000002150934544e-01 2.4257361482718451e-08 1.8669856369818861e-08  1.4999995943628894e-01 4.1982094750850962e-08 -9.3533515585236844e-08  1.4999998115838509e-01 -1.7287370172755609e-08 -1.5226425642932067e-08  1.5000003601550393e-01 -3.8508245096413596e-08 8.2284450253663195e-08  1.5000001263918897e-01 1.2227080136122266e-08 6.0082450495448731e-09  1.4999997031323839e-01 3.1087121598786862e-08 -6.5700124646561000e-08  1.4999999476309739e-01 -1.0106247040997676e-08 5.2289774911202470e-09  1.5000002271875434e-01 -2.2755653070266294e-08 4.7583329370723649e-08  1.4999999897294358e-01 9.7022195216350465e-09 -1.4025167373446657e-08  1.4999998430193909e-01 1.5064350224066272e-08 -3.0248027074293405e-08  1.5000000486098899e-01 -9.4881025975504700e-09 1.7917678550828965e-08  1.5000000924485929e-01 -8.5867635318501330e-09 1.5449962569339168e-08  1.4999999390564953e-01 8.5710422113597488e-09 -1.6887234734546356e-08  1.4999999594438096e-01 3.5832451604788780e-09 -4.5839071359465919e-09  1.5000000533683366e-01 -6.7929644879482989e-09 1.2569432955580863e-08  1.5000000060786842e-01 -2.2328943158373668e-10 -1.7482092362786170e-09  1.4999999644171552e-01 4.5044341088613828e-09 -7.1880850924386992e-09  1.5000000107104686e-01 -1.5012701004821458e-09 4.0270352378077514e-09  1.5000000169332434e-01 -2.2700941654576664e-09 2.6279841949765553e-09  1.4999999861028618e-01 1.8742344754602655e-09 -3.5889919336475602e-09  1.4999999964874383e-01 5.8527064871979830e-10 1.3347346997028928e-10  1.5000000097603575e-01 -1.4102678365412433e-09 2.0255592714299439e-09  1.4999999971261366e-01 3.2371377361597864e-10 -1.1051135280502519e-09  1.4999999959510207e-01 6.7829862808017172e-10 -5.7196969470495628e-10  1.5000000037945041e-01 -5.4535650731356721e-10 9.3533951686922967e-10  1.5000000001443980e-01 -9.9989742353136420e-11 -2.0803145992709783e-10  1.4999999978212722e-01 3.7213644959486966e-10 -3.9697922865474184e-10  1.5000000012120546e-01 -1.5999534158469076e-10 3.5292203993070403e-10  1.5000000004446917e-01 -1.1524578822071704e-10 -2.0504547225376856e-12  1.4999999990660648e-01 1.6234196220188189e-10 -1.8982392124708769e-10  1.5000000003650527e-01 -3.9823097591914312e-11 1.2555735270505275e-10  1.5000000002554725e-01 -6.4088106271056386e-11 1.6903317885100684e-11  1.4999999996322819e-01 6.5812564360270357e-11 -7.8442577939117573e-11  1.5000000001226413e-01 -1.0907605394339390e-11 4.6759689395939018e-11  1.5000000001048830e-01 -2.8182695363677477e-11 7.2156401229624876e-12  1.4999999998587746e-01 2.6829457464076227e-11 -2.9875912534794370e-11  1.5000000000519648e-01 -5.1176795953949497e-12 1.9098860570423351e-11  1.5000000000330072e-01 -1.0500106184034030e-11 5.4426624221618391e-13  1.4999999999470567e-01 1.1160852052285425e-11 -1.0323069990863761e-11  1.5000000000259256e-01 -3.5324076180128265e-12 8.2077894228480551e-12  1.5000000000056510e-01 -2.9944317378043932e-12 -1.6034323145486730e-12  1.4999999999819214e-01 4.4703860392201993e-12 -2.8277378224119512e-12  1.5000000000128608e-01 -2.3686404101179320e-12 3.3164722800902163e-12  1.4999999999977390e-01 -2.1714140621069683e-13 -1.5558341676213430e-12  1.4999999999955343e-01 1.4511037109657337e-12 -2.4638145164484237e-13  1.5000000000053251e-01 -1.2709917996543642e-12 1.0187833963315260e-12  1.4999999999971472e-01 4.8765476513608342e-13 -8.5997271484123150e-13  1.5000000000001415e-01 1.6308439033652145e-13 3.3823703651044943e-13  1.5000000000012514e-01 -4.0435422559166845e-13 8.3742684031589627e-14  1.4999999999986899e-01 3.2630829233777139e-13 -2.4701991956056333e-13  1.5000000000007224e-01 -1.3445301411526015e-13 2.1022167440307463e-13  1.4999999999998839e-01 -1.6880878864371500e-14 -9.7434456234180037e-14  1.4999999999997915e-01 7.7130932419468927e-14 1.3934875988018541e-15  1.5000000000002520e-01 -6.4839666714033890e-14 4.3500800062271107e-14  1.4999999999998606e-01 2.2516714224854814e-14 -4.3852597716200401e-14  1.4999999999999966e-01 1.8812666558929052e-14 2.2332166040633969e-14  1.5000000000001049e-01 -4.3034449209652850e-14 1.5490257823288813e-15  1.4999999999998528e-01 4.9455756017210912e-14 -1.8005419539589882e-14  1.5000000000001462e-01 -4.3917467183995355e-14 2.5135803715804669e-14  1.4999999999998784e-01 3.2642771578637180e-14 -2.5077018754748994e-14  1.5000000000000849e-01 -2.2292097812434461e-14 2.0233317785342013e-14  1.4999999999999478e-01 1.2683905814916692e-14 -1.4920347490843958e-14  1.5000000000000335e-01 -7.1934165628858243e-15 9.5734119117287981e-15  1.4999999999999911e-01 3.6823975753968993e-15 -3.6459511340742857e-15  1.5000000000000158e-01 0.0000000000000000e+00 5.5880076618629474e-15  1.4999999999967498e-01 0.0000000000000000e+00 -7.4929015244455814e-13  1.5000000000011260e-01 1.1429022083540965e-13 1.2221904705389249e-13  1.5000000000029226e-01 7.3651581320331282e-13 7.3621768738035491e-13  1.4999999999950203e-01 -1.3971065947631625e-12 -1.1123477804466607e-12  1.5000000000051320e-01 -2.5036273498928922e-12 1.2882674046183677e-12  1.5000000000597433e-01 -6.2068309337512565e-12 1.5707751109571608e-11  1.5000000001946026e-01 -4.3049659571170074e-11 5.7280084460581866e-11  1.5000000007440739e-01 -1.4025019276196255e-10 2.2165402847062090e-10  1.5000000024537960e-01 -3.5782303665641748e-10 7.3913896372914156e-10  1.5000000064336486e-01 -8.3930168317202561e-10 1.9889222026108654e-09  1.5000000144716447e-01 -1.5561049354093266e-09 4.5820657814504619e-09  1.5000000274363770e-01 -1.8474295069469709e-09 8.8956205883101418e-09  1.5000000388117607e-01 -1.3145242688406660e-11 1.3182204245742604e-08  1.5000000257612950e-01 7.5001690188568926e-09 1.0722907912919120e-08  1.4999999397201028e-01 2.6466308861098216e-08 -1.3238315058645744e-08  1.4999996989303427e-01 6.2168870643998154e-08 -8.3343500127881482e-08  1.4999992041469790e-01 1.1514068213874287e-07 -2.2832211075377266e-07  1.4999983919845869e-01 1.8058168450482448e-07 -4.6406195710273884e-07  1.4999972845406065e-01 2.4918908232872266e-07 -7.7897957926605243e-07  1.4999960018507649e-01 3.0102920534325218e-07 -1.1330808012937217e-06  1.4999947936548980e-01 2.9346241914231469e-07 -1.4529042061149374e-06  1.4999941118768431e-01 1.6081513899819630e-07 -1.6099844324599267e-06  1.4999945693867378e-01 -1.3906518729924430e-07 -1.4286604701449033e-06  1.4999965791496492e-01 -5.2059401425089320e-07 -7.9833562128771527e-07  1.4999997025995715e-01 -7.2685866498236198e-07 1.2010700291469464e-07  1.5000023388254249e-01 -5.2871082068106794e-07 8.2047610725589899e-07  1.5000027808074287e-01 -4.4970050051827816e-08 8.2218121376223666e-07  1.5000012172037547e-01 2.9378842803242082e-07 2.7252281375921977e-07  1.4999998636988143e-01 2.4315878768095881e-07 -1.1422992817460633e-07  1.5000000692404775e-01 3.2139935664583160e-08 4.3028037746403754e-09  1.5000005460918098e-01 -2.5144385930379580e-08 1.5984734631067551e-07  1.5000000060849372e-01 3.0050342481600346e-08 -1.6500758742998824e-08  1.4999995556332194e-01 6.9106733186865410e-09 -1.3577743710360373e-07  1.5000001956350678e-01 -4.6635337497919714e-08 7.8162799682675172e-08  1.5000005422691659e-01 3.8086992676691326e-09 1.6163964908755902e-07  1.4999997315584462e-01 6.6092200308943361e-08 -1.0516497166251827e-07  1.4999994097335118e-01 5.3806744856460068e-09 -1.7740088740988446e-07  1.5000002839329485e-01 -6.8237961317429087e-08 1.0973331430141282e-07  1.5000005524147542e-01 -1.3571702075461987e-08 1.6620425221569690e-07  1.4999997185613809e-01 6.0097200593142891e-08 -1.0582190207899032e-07  1.4999995563590660e-01 1.5123411168551580e-08 -1.3199462178131247e-07  1.5000002754886582e-01 -4.8629652220853102e-08 9.9475163699559870e-08  1.5000003020696306e-01 -1.1037884528717994e-08 8.7176233557191426e-08  1.4999997400406501e-01 3.7610118354549868e-08 -8.9934460928318852e-08  1.4999998357585662e-01 4.5240455345089256e-09 -4.3972997400366840e-08  1.5000002251464015e-01 -2.7962688636788497e-08 7.4868020331718972e-08  1.5000000541312622e-01 1.5914948539261329e-09 1.0328438663817265e-08  1.4999998289338598e-01 1.9418199067597649e-08 -5.4699205059387354e-08  1.5000000171809938e-01 -5.7177704896224228e-09 1.0384617979285477e-08  1.5000001083341405e-01 -1.1851397790621252e-08 3.2998773028594827e-08  1.4999999504806169e-01 7.3494315545131979e-09 -1.8552907883029393e-08  1.4999999486586707e-01 5.6025979706500824e-09 -1.4293809098673155e-08  1.5000000513700956e-01 -6.7694362773061314e-09 1.7353180433961433e-08  1.5000000109151160e-01 -1.1621150626829153e-09 1.7263927968843278e-09  1.4999999638782913e-01 4.7924989765617044e-09 -1.1355813432409952e-08  1.5000000095781485e-01 -1.2487724753315470e-09 4.0836971812157058e-09  1.5000000170107750e-01 -2.4424504902561558e-09 4.8204810983989719e-09  1.4999999861178265e-01 1.8913537240610160e-09 -4.7548271963243474e-09  1.4999999971408418e-01 5.7365139039083236e-10 -3.6931175480499088e-10  1.5000000094564234e-01 -1.4262954921424380e-09 2.9167970908286312e-09  1.4999999964951766e-01 4.0856586283057812e-10 -1.3871697388152742e-09  1.4999999966516289e-01 6.1640758021017514e-10 -8.5087285613765136e-10  1.5000000038913544e-01 -5.8846205516300039e-10 1.2686817692214055e-09  1.4999999995232094e-01 -9.9154971041082731e-12 -2.9646480689653151e-10  1.4999999981618020e-01 3.4344535952977232e-10 -5.0942864586332078e-10  1.5000000014250980e-01 -2.1059248855274432e-10 4.8705696473995075e-10  1.5000000000630773e-01 -5.7120318653342540e-11 -4.6128687694988638e-11  1.4999999991928742e-01 1.5637940539468907e-10 -2.2963696128963064e-10  1.5000000005223910e-01 -7.6045235025557445e-11 1.8420576453014888e-10  1.5000000000587577e-01 -3.2652310514744983e-11 -9.8994252144972648e-12  1.4999999996816019e-01 6.5731606186652722e-11 -8.9749301832257644e-11  1.5000000002061439e-01 -3.1410027955849372e-11 7.2574373060423643e-11  1.5000000000092337e-01 -1.1664911082568808e-11 -9.0459667401727876e-12  1.4999999998853394e-01 2.6298063057989984e-11 -3.0564571645451027e-11  1.5000000000871583e-01 -1.5046029569551273e-11 2.9384861172679156e-11  1.4999999999877470e-01 -1.6496383794220428e-12 -8.5730151584333291e-12  1.4999999999652860e-01 9.5162423463474665e-12 -7.8300045987753573e-12  1.5000000000363203e-01 -7.4869451463143277e-12 1.1197121859590024e-11  1.4999999999856758e-01 1.6683046937715226e-12 -5.97125900418713