<?xml version="1.0"?>
<VTKFile type="UnstructuredGrid"  version="0.1"  >
<UnstructuredGrid>
<Piece  NumberOfPoints="10201" NumberOfCells="20000">
<Points>
<DataArray  type="Float64"  NumberOfComponents="3"  format="ascii">-5 -5 0  -4.9 -5 0  -4.8 -5 0  -4.7 -5 0  -4.6 -5 0  -4.5 -5 0  -4.4 -5 0  -4.3 -5 0  -4.2 -5 0  -4.1 -5 0  -4 -5 0  -3.9 -5 0  -3.8 -5 0  -3.7 -5 0  -3.6 -5 0  -3.5 -5 0  -3.4 -5 0  -3.3 -5 0  -3.2 -5 0  -3.1 -5 0  -3 -5 0  -2.9 -5 0  -2.8 -5 0  -2.7 -5 0  -2.6 -5 0  -2.5 -5 0  -2.4 -5 0  -2.3 -5 0  -2.2 -5 0  -2.1 -5 0  -2 -5 0  -1.9 -5 0  -1.8 -5 0  -1.7 -5 0  -1.6 -5 0  -1.5 -5 0  -1.4 -5 0  -1.3 -5 0  -1.2 -5 0  -1.1 -5 0  -1 -5 0  -0.9000000000000004 -5 0  -0.7999999999999998 -5 0  -0.7000000000000002 -5 0  -0.5999999999999996 -5 0  -0.5 -5 0  -0.4000000000000004 -5 0  -0.2999999999999998 -5 0  -0.2000000000000002 -5 0  -0.09999999999999964 -5 0  0 -5 0  0.09999999999999964 -5 0  0.2000000000000002 -5 0  0.2999999999999998 -5 0  0.4000000000000004 -5 0  0.5 -5 0  0.5999999999999996 -5 0  0.7000000000000002 -5 0  0.7999999999999998 -5 0  0.9000000000000004 -5 0  1 -5 0  1.1 -5 0  1.2 -5 0  1.3 -5 0  1.4 -5 0  1.5 -5 0  1.6 -5 0  1.7 -5 0  1.8 -5 0  1.9 -5 0  2 -5 0  2.1 -5 0  2.2 -5 0  2.3 -5 0  2.4 -5 0  2.5 -5 0  2.6 -5 0  2.7 -5 0  2.8 -5 0  2.9 -5 0  3 -5 0  3.1 -5 0  3.199999999999999 -5 0  3.300000000000001 -5 0  3.4 -5 0  3.5 -5 0  3.6 -5 0  3.699999999999999 -5 0  3.800000000000001 -5 0  3.9 -5 0  4 -5 0  4.1 -5 0  4.199999999999999 -5 0  4.300000000000001 -5 0  4.4 -5 0  4.5 -5 0  4.6 -5 0  4.699999999999999 -5 0  4.800000000000001 -5 0  4.9 -5 0  5 -5 0  -5 -4.9 0  -4.9 -4.9 0  -4.8 -4.9 0  -4.7 -4.9 0  -4.6 -4.9 0  -4.5 -4.9 0  -4.4 -4.9 0  -4.3 -4.9 0  -4.2 -4.9 0  -4.1 -4.9 0  -4 -4.9 0  -3.9 -4.9 0  -3.8 -4.9 0  -3.7 -4.9 0  -3.6 -4.9 0  -3.5 -4.9 0  -3.4 -4.9 0  -3.3 -4.9 0  -3.2 -4.9 0  -3.1 -4.9 0  -3 -4.9 0  -2.9 -4.9 0  -2.8 -4.9 0  -2.7 -4.9 0  -2.6 -4.9 0  -2.5 -4.9 0  -2.4 -4.9 0  -2.3 -4.9 0  -2.2 -4.9 0  -2.1 -4.9 0  -2 -4.9 0  -1.9 -4.9 0  -1.8 -4.9 0  -1.7 -4.9 0  -1.6 -4.9 0  -1.5 -4.9 0  -1.4 -4.9 0  -1.3 -4.9 0  -1.2 -4.9 0  -1.1 -4.9 0  -1 -4.9 0  -0.9000000000000004 -4.9 0  -0.7999999999999998 -4.9 0  -0.7000000000000002 -4.9 0  -0.5999999999999996 -4.9 0  -0.5 -4.9 0  -0.4000000000000004 -4.9 0  -0.2999999999999998 -4.9 0  -0.2000000000000002 -4.9 0  -0.09999999999999964 -4.9 0  0 -4.9 0  0.09999999999999964 -4.9 0  0.2000000000000002 -4.9 0  0.2999999999999998 -4.9 0  0.4000000000000004 -4.9 0  0.5 -4.9 0  0.5999999999999996 -4.9 0  0.7000000000000002 -4.9 0  0.7999999999999998 -4.9 0  0.9000000000000004 -4.9 0  1 -4.9 0  1.1 -4.9 0  1.2 -4.9 0  1.3 -4.9 0  1.4 -4.9 0  1.5 -4.9 0  1.6 -4.9 0  1.7 -4.9 0  1.8 -4.9 0  1.9 -4.9 0  2 -4.9 0  2.1 -4.9 0  2.2 -4.9 0  2.3 -4.9 0  2.4 -4.9 0  2.5 -4.9 0  2.6 -4.9 0  2.7 -4.9 0  2.8 -4.9 0  2.9 -4.9 0  3 -4.9 0  3.1 -4.9 0  3.199999999999999 -4.9 0  3.300000000000001 -4.9 0  3.4 -4.9 0  3.5 -4.9 0  3.6 -4.9 0  3.699999999999999 -4.9 0  3.800000000000001 -4.9 0  3.9 -4.9 0  4 -4.9 0  4.1 -4.9 0  4.199999999999999 -4.9 0  4.300000000000001 -4.9 0  4.4 -4.9 0  4.5 -4.9 0  4.6 -4.9 0  4.699999999999999 -4.9 0  4.800000000000001 -4.9 0  4.9 -4.9 0  5 -4.9 0  -5 -4.8 0  -4.9 -4.8 0  -4.8 -4.8 0  -4.7 -4.8 0  -4.6 -4.8 0  -4.5 -4.8 0  -4.4 -4.8 0  -4.3 -4.8 0  -4.2 -4.8 0  -4.1 -4.8 0  -4 -4.8 0  -3.9 -4.8 0  -3.8 -4.8 0  -3.7 -4.8 0  -3.6 -4.8 0  -3.5 -4.8 0  -3.4 -4.8 0  -3.3 -4.8 0  -3.2 -4.8 0  -3.1 -4.8 0  -3 -4.8 0  -2.9 -4.8 0  -2.8 -4.8 0  -2.7 -4.8 0  -2.6 -4.8 0  -2.5 -4.8 0  -2.4 -4.8 0  -2.3 -4.8 0  -2.2 -4.8 0  -2.1 -4.8 0  -2 -4.8 0  -1.9 -4.8 0  -1.8 -4.8 0  -1.7 -4.8 0  -1.6 -4.8 0  -1.5 -4.8 0  -1.4 -4.8 0  -1.3 -4.8 0  -1.2 -4.8 0  -1.1 -4.8 0  -1 -4.8 0  -0.9000000000000004 -4.8 0  -0.7999999999999998 -4.8 0  -0.7000000000000002 -4.8 0  -0.5999999999999996 -4.8 0  -0.5 -4.8 0  -0.4000000000000004 -4.8 0  -0.2999999999999998 -4.8 0  -0.2000000000000002 -4.8 0  -0.09999999999999964 -4.8 0  0 -4.8 0  0.09999999999999964 -4.8 0  0.2000000000000002 -4.8 0  0.2999999999999998 -4.8 0  0.4000000000000004 -4.8 0  0.5 -4.8 0  0.5999999999999996 -4.8 0  0.7000000000000002 -4.8 0  0.7999999999999998 -4.8 0  0.9000000000000004 -4.8 0  1 -4.8 0  1.1 -4.8 0  1.2 -4.8 0  1.3 -4.8 0  1.4 -4.8 0  1.5 -4.8 0  1.6 -4.8 0  1.7 -4.8 0  1.8 -4.8 0  1.9 -4.8 0  2 -4.8 0  2.1 -4.8 0  2.2 -4.8 0  2.3 -4.8 0  2.4 -4.8 0  2.5 -4.8 0  2.6 -4.8 0  2.7 -4.8 0  2.8 -4.8 0  2.9 -4.8 0  3 -4.8 0  3.1 -4.8 0  3.199999999999999 -4.8 0  3.300000000000001 -4.8 0  3.4 -4.8 0  3.5 -4.8 0  3.6 -4.8 0  3.699999999999999 -4.8 0  3.800000000000001 -4.8 0  3.9 -4.8 0  4 -4.8 0  4.1 -4.8 0  4.199999999999999 -4.8 0  4.300000000000001 -4.8 0  4.4 -4.8 0  4.5 -4.8 0  4.6 -4.8 0  4.699999999999999 -4.8 0  4.800000000000001 -4.8 0  4.9 -4.8 0  5 -4.8 0  -5 -4.7 0  -4.9 -4.7 0  -4.8 -4.7 0  -4.7 -4.7 0  -4.6 -4.7 0  -4.5 -4.7 0  -4.4 -4.7 0  -4.3 -4.7 0  -4.2 -4.7 0  -4.1 -4.7 0  -4 -4.7 0  -3.9 -4.7 0  -3.8 -4.7 0  -3.7 -4.7 0  -3.6 -4.7 0  -3.5 -4.7 0  -3.4 -4.7 0  -3.3 -4.7 0  -3.2 -4.7 0  -3.1 -4.7 0  -3 -4.7 0  -2.9 -4.7 0  -2.8 -4.7 0  -2.7 -4.7 0  -2.6 -4.7 0  -2.5 -4.7 0  -2.4 -4.7 0  -2.3 -4.7 0  -2.2 -4.7 0  -2.1 -4.7 0  -2 -4.7 0  -1.9 -4.7 0  -1.8 -4.7 0  -1.7 -4.7 0  -1.6 -4.7 0  -1.5 -4.7 0  -1.4 -4.7 0  -1.3 -4.7 0  -1.2 -4.7 0  -1.1 -4.7 0  -1 -4.7 0  -0.9000000000000004 -4.7 0  -0.7999999999999998 -4.7 0  -0.7000000000000002 -4.7 0  -0.5999999999999996 -4.7 0  -0.5 -4.7 0  -0.4000000000000004 -4.7 0  -0.2999999999999998 -4.7 0  -0.2000000000000002 -4.7 0  -0.09999999999999964 -4.7 0  0 -4.7 0  0.09999999999999964 -4.7 0  0.2000000000000002 -4.7 0  0.2999999999999998 -4.7 0  0.4000000000000004 -4.7 0  0.5 -4.7 0  0.5999999999999996 -4.7 0  0.7000000000000002 -4.7 0  0.7999999999999998 -4.7 0  0.9000000000000004 -4.7 0  1 -4.7 0  1.1 -4.7 0  1.2 -4.7 0  1.3 -4.7 0  1.4 -4.7 0  1.5 -4.7 0  1.6 -4.7 0  1.7 -4.7 0  1.8 -4.7 0  1.9 -4.7 0  2 -4.7 0  2.1 -4.7 0  2.2 -4.7 0  2.3 -4.7 0  2.4 -4.7 0  2.5 -4.7 0  2.6 -4.7 0  2.7 -4.7 0  2.8 -4.7 0  2.9 -4.7 0  3 -4.7 0  3.1 -4.7 0  3.199999999999999 -4.7 0  3.300000000000001 -4.7 0  3.4 -4.7 0  3.5 -4.7 0  3.6 -4.7 0  3.699999999999999 -4.7 0  3.800000000000001 -4.7 0  3.9 -4.7 0  4 -4.7 0  4.1 -4.7 0  4.199999999999999 -4.7 0  4.300000000000001 -4.7 0  4.4 -4.7 0  4.5 -4.7 0  4.6 -4.7 0  4.699999999999999 -4.7 0  4.800000000000001 -4.7 0  4.9 -4.7 0  5 -4.7 0  -5 -4.6 0  -4.9 -4.6 0  -4.8 -4.6 0  -4.7 -4.6 0  -4.6 -4.6 0  -4.5 -4.6 0  -4.4 -4.6 0  -4.3 -4.6 0  -4.2 -4.6 0  -4.1 -4.6 0  -4 -4.6 0  -3.9 -4.6 0  -3.8 -4.6 0  -3.7 -4.6 0  -3.6 -4.6 0  -3.5 -4.6 0  -3.4 -4.6 0  -3.3 -4.6 0  -3.2 -4.6 0  -3.1 -4.6 0  -3 -4.6 0  -2.9 -4.6 0  -2.8 -4.6 0  -2.7 -4.6 0  -2.6 -4.6 0  -2.5 -4.6 0  -2.4 -4.6 0  -2.3 -4.6 0  -2.2 -4.6 0  -2.1 -4.6 0  -2 -4.6 0  -1.9 -4.6 0  -1.8 -4.6 0  -1.7 -4.6 0  -1.6 -4.6 0  -1.5 -4.6 0  -1.4 -4.6 0  -1.3 -4.6 0  -1.2 -4.6 0  -1.1 -4.6 0  -1 -4.6 0  -0.9000000000000004 -4.6 0  -0.7999999999999998 -4.6 0  -0.7000000000000002 -4.6 0  -0.5999999999999996 -4.6 0  -0.5 -4.6 0  -0.4000000000000004 -4.6 0  -0.2999999999999998 -4.6 0  -0.2000000000000002 -4.6 0  -0.09999999999999964 -4.6 0  0 -4.6 0  0.09999999999999964 -4.6 0  0.2000000000000002 -4.6 0  0.2999999999999998 -4.6 0  0.4000000000000004 -4.6 0  0.5 -4.6 0  0.5999999999999996 -4.6 0  0.7000000000000002 -4.6 0  0.7999999999999998 -4.6 0  0.9000000000000004 -4.6 0  1 -4.6 0  1.1 -4.6 0  1.2 -4.6 0  1.3 -4.6 0  1.4 -4.6 0  1.5 -4.6 0  1.6 -4.6 0  1.7 -4.6 0  1.8 -4.6 0  1.9 -4.6 0  2 -4.6 0  2.1 -4.6 0  2.2 -4.6 0  2.3 -4.6 0  2.4 -4.6 0  2.5 -4.6 0  2.6 -4.6 0  2.7 -4.6 0  2.8 -4.6 0  2.9 -4.6 0  3 -4.6 0  3.1 -4.6 0  3.199999999999999 -4.6 0  3.300000000000001 -4.6 0  3.4 -4.6 0  3.5 -4.6 0  3.6 -4.6 0  3.699999999999999 -4.6 0  3.800000000000001 -4.6 0  3.9 -4.6 0  4 -4.6 0  4.1 -4.6 0  4.199999999999999 -4.6 0  4.300000000000001 -4.6 0  4.4 -4.6 0  4.5 -4.6 0  4.6 -4.6 0  4.699999999999999 -4.6 0  4.800000000000001 -4.6 0  4.9 -4.6 0  5 -4.6 0  -5 -4.5 0  -4.9 -4.5 0  -4.8 -4.5 0  -4.7 -4.5 0  -4.6 -4.5 0  -4.5 -4.5 0  -4.4 -4.5 0  -4.3 -4.5 0  -4.2 -4.5 0  -4.1 -4.5 0  -4 -4.5 0  -3.9 -4.5 0  -3.8 -4.5 0  -3.7 -4.5 0  -3.6 -4.5 0  -3.5 -4.5 0  -3.4 -4.5 0  -3.3 -4.5 0  -3.2 -4.5 0  -3.1 -4.5 0  -3 -4.5 0  -2.9 -4.5 0  -2.8 -4.5 0  -2.7 -4.5 0  -2.6 -4.5 0  -2.5 -4.5 0  -2.4 -4.5 0  -2.3 -4.5 0  -2.2 -4.5 0  -2.1 -4.5 0  -2 -4.5 0  -1.9 -4.5 0  -1.8 -4.5 0  -1.7 -4.5 0  -1.6 -4.5 0  -1.5 -4.5 0  -1.4 -4.5 0  -1.3 -4.5 0  -1.2 -4.5 0  -1.1 -4.5 0  -1 -4.5 0  -0.9000000000000004 -4.5 0  -0.7999999999999998 -4.5 0  -0.7000000000000002 -4.5 0  -0.5999999999999996 -4.5 0  -0.5 -4.5 0  -0.4000000000000004 -4.5 0  -0.2999999999999998 -4.5 0  -0.2000000000000002 -4.5 0  -0.09999999999999964 -4.5 0  0 -4.5 0  0.09999999999999964 -4.5 0  0.2000000000000002 -4.5 0  0.2999999999999998 -4.5 0  0.4000000000000004 -4.5 0  0.5 -4.5 0  0.5999999999999996 -4.5 0  0.7000000000000002 -4.5 0  0.7999999999999998 -4.5 0  0.9000000000000004 -4.5 0  1 -4.5 0  1.1 -4.5 0  1.2 -4.5 0  1.3 -4.5 0  1.4 -4.5 0  1.5 -4.5 0  1.6 -4.5 0  1.7 -4.5 0  1.8 -4.5 0  1.9 -4.5 0  2 -4.5 0  2.1 -4.5 0  2.2 -4.5 0  2.3 -4.5 0  2.4 -4.5 0  2.5 -4.5 0  2.6 -4.5 0  2.7 -4.5 0  2.8 -4.5 0  2.9 -4.5 0  3 -4.5 0  3.1 -4.5 0  3.199999999999999 -4.5 0  3.300000000000001 -4.5 0  3.4 -4.5 0  3.5 -4.5 0  3.6 -4.5 0  3.699999999999999 -4.5 0  3.800000000000001 -4.5 0  3.9 -4.5 0  4 -4.5 0  4.1 -4.5 0  4.199999999999999 -4.5 0  4.300000000000001 -4.5 0  4.4 -4.5 0  4.5 -4.5 0  4.6 -4.5 0  4.699999999999999 -4.5 0  4.800000000000001 -4.5 0  4.9 -4.5 0  5 -4.5 0  -5 -4.4 0  -4.9 -4.4 0  -4.8 -4.4 0  -4.7 -4.4 0  -4.6 -4.4 0  -4.5 -4.4 0  -4.4 -4.4 0  -4.3 -4.4 0  -4.2 -4.4 0  -4.1 -4.4 0  -4 -4.4 0  -3.9 -4.4 0  -3.8 -4.4 0  -3.7 -4.4 0  -3.6 -4.4 0  -3.5 -4.4 0  -3.4 -4.4 0  -3.3 -4.4 0  -3.2 -4.4 0  -3.1 -4.4 0  -3 -4.4 0  -2.9 -4.4 0  -2.8 -4.4 0  -2.7 -4.4 0  -2.6 -4.4 0  -2.5 -4.4 0  -2.4 -4.4 0  -2.3 -4.4 0  -2.2 -4.4 0  -2.1 -4.4 0  -2 -4.4 0  -1.9 -4.4 0  -1.8 -4.
[...]
<PointData  Vectors="f_17"> 
<DataArray  type="Float64"  Name="f_17"  NumberOfComponents="3" format="ascii">1.5000001030930546e-01 0.0000000000000000e+00 0.0000000000000000e+00  1.5000000545239131e-01 -3.0132277488440570e-08 0.0000000000000000e+00  1.5000003117248914e-01 -3.2486035242685268e-08 0.0000000000000000e+00  1.5000006062680715e-01 -1.1686737553726935e-07 0.0000000000000000e+00  1.5000014709846013e-01 -2.0837900392912434e-07 0.0000000000000000e+00  1.5000029032356865e-01 -4.2564317654796745e-07 0.0000000000000000e+00  1.5000054436203988e-01 -6.9886250274613430e-07 0.0000000000000000e+00  1.5000090213246786e-01 -1.0201059322320344e-06 0.0000000000000000e+00  1.5000132468520269e-01 -1.0909318011155125e-06 0.0000000000000000e+00  1.5000158025640342e-01 -5.1047692281421577e-07 0.0000000000000000e+00  1.5000127582090794e-01 1.4887855783251499e-06 0.0000000000000000e+00  1.4999980446196606e-01 5.5785865676165446e-06 0.0000000000000000e+00  1.4999654409316973e-01 1.1802088186681866e-05 0.0000000000000000e+00  1.4999129274496886e-01 1.8866451696202704e-05 0.0000000000000000e+00  1.4998481229224686e-01 2.4076959624176049e-05 0.0000000000000000e+00  1.4997883576576040e-01 2.3907533859993705e-05 0.0000000000000000e+00  1.4997558215092088e-01 1.6106655759332602e-05 0.0000000000000000e+00  1.4997676058009962e-01 2.0824530436057285e-06 0.0000000000000000e+00  1.4998223070640937e-01 -1.3386291539559912e-05 0.0000000000000000e+00  1.4998970703291331e-01 -2.5206895724063408e-05 0.0000000000000000e+00  1.4999642996222640e-01 -2.9991746443706102e-05 0.0000000000000000e+00  1.5000064492224505e-01 -2.6233212970063146e-05 0.0000000000000000e+00  1.5000154301699833e-01 -1.5360717963346380e-05 0.0000000000000000e+00  1.4999987599079079e-01 -2.9775450036607968e-06 0.0000000000000000e+00  1.4999867440649703e-01 3.5401136461185104e-06 0.0000000000000000e+00  1.5000035244121077e-01 1.4958294737864091e-06 0.0000000000000000e+00  1.5000311766649102e-01 -2.6377177869843566e-06 0.0000000000000000e+00  1.5000319613084293e-01 2.0181123288804816e-07 0.0000000000000000e+00  1.5000025626140706e-01 7.4593715252432366e-06 0.0000000000000000e+00  1.4999819101916700e-01 6.4958340575529481e-06 0.0000000000000000e+00  1.4999988678566889e-01 -2.9530516366996675e-06 0.0000000000000000e+00  1.5000226751892665e-01 -4.6222850567874033e-06 0.0000000000000000e+00  1.5000038861763290e-01 4.3676582884060710e-06 0.0000000000000000e+00  1.4999718058975847e-01 5.1981432037878791e-06 0.0000000000000000e+00  1.4999960423924430e-01 -5.5182945343098794e-06 0.0000000000000000e+00  1.5000374676888931e-01 -6.0354777830099616e-06 0.0000000000000000e+00  1.5000062027439429e-01 6.2432022997968697e-06 0.0000000000000000e+00  1.4999582597574596e-01 6.6596680617848701e-06 0.0000000000000000e+00  1.4999950845066048e-01 -6.1429443315870176e-06 0.0000000000000000e+00  1.5000411068882863e-01 -6.2379636785419224e-06 0.0000000000000000e+00  1.5000005385510193e-01 5.6793955075644807e-06 0.0000000000000000e+00  1.4999654607438542e-01 4.8454165384483090e-06 0.0000000000000000e+00  1.5000061896152461e-01 -5.0403325347026599e-06 0.0000000000000000e+00  1.5000239035687360e-01 -2.8429232602664596e-06 0.0000000000000000e+00  1.4999878728877714e-01 4.2865423672454892e-06 0.0000000000000000e+00  1.4999883832596658e-01 7.9557117436413766e-07 0.0000000000000000e+00  1.5000144466999304e-01 -3.3238986170794653e-06 0.0000000000000000e+00  1.5000003975003373e-01 8.2890017154301059e-07 0.0000000000000000e+00  1.4999878155293717e-01 2.1305523179096394e-06 0.0000000000000000e+00  1.5000073511221668e-01 -1.7534521111214525e-06 0.0000000000000000e+00  1.5000065971736956e-01 -8.5455460568112239e-07 0.0000000000000000e+00  1.4999896763463255e-01 1.9195831464210748e-06 0.0000000000000000e+00  1.4999997223805986e-01 -2.3892469116418976e-07 0.0000000000000000e+00  1.5000088890293456e-01 -1.4790827378822364e-06 0.0000000000000000e+00  1.4999957506448899e-01 9.0754530352231694e-07 0.0000000000000000e+00  1.4999951102652762e-01 7.3667814536245143e-07 0.0000000000000000e+00  1.5000057175254672e-01 -1.0593671383394326e-06 0.0000000000000000e+00  1.5000007017656011e-01 -3.3417269453042756e-08 0.0000000000000000e+00  1.4999955030349993e-01 7.9727648229394934e-07 0.0000000000000000e+00  1.5000019058699657e-01 -3.8734515748139005e-07 0.0000000000000000e+00  1.5000020583049969e-01 -3.5770960682474115e-07 0.0000000000000000e+00  1.4999975574721555e-01 4.6343610088062655e-07 0.0000000000000000e+00  1.5000000400816990e-01 -1.6190525331420318e-08 0.0000000000000000e+00  1.5000015700074373e-01 -3.0142000073833766e-07 0.0000000000000000e+00  1.4999990231601437e-01 1.8959476929386843e-07 0.0000000000000000e+00  1.4999996123170461e-01 8.0830796112023686e-08 0.0000000000000000e+00  1.5000008576757642e-01 -1.7282158439709790e-07 0.0000000000000000e+00  1.4999996794805726e-01 5.9992971247749369e-08 0.0000000000000000e+00  1.4999996909654603e-01 6.9005141647067576e-08 0.0000000000000000e+00  1.5000004047958088e-01 -8.4138699468622980e-08 0.0000000000000000e+00  1.4999999013000648e-01 1.5950930387787647e-08 0.0000000000000000e+00  1.4999998310942345e-01 4.0080366510156307e-08 0.0000000000000000e+00  1.5000001817102249e-01 -3.8982410920584891e-08 0.0000000000000000e+00  1.4999999620261359e-01 5.0669802450069131e-09 0.0000000000000000e+00  1.4999999240849626e-01 1.9491399554771052e-08 0.0000000000000000e+00  1.5000000817872330e-01 -1.8527520517341980e-08 0.0000000000000000e+00  1.4999999767796637e-01 3.6997905549375927e-09 0.0000000000000000e+00  1.4999999736903274e-01 7.5308102748235939e-09 0.0000000000000000e+00  1.5000000344256090e-01 -8.2836623238391250e-09 0.0000000000000000e+00  1.4999999856886381e-01 2.5927066865635892e-09 0.0000000000000000e+00  1.4999999928248384e-01 2.7173226903935201e-09 0.0000000000000000e+00  1.5000000152438306e-01 -4.2595435356832041e-09 0.0000000000000000e+00  1.4999999887558976e-01 2.7900564399929839e-09 0.0000000000000000e+00  1.5000000036376954e-01 -7.0669396738252537e-10 0.0000000000000000e+00  1.5000000009382883e-01 -2.7578562112007836e-10 0.0000000000000000e+00  1.4999999993080426e-01 -1.7082388016122071e-10 0.0000000000000000e+00  1.4999999971791303e-01 1.4784982692699721e-09 0.0000000000000000e+00  1.5000000072239952e-01 -2.9128178568147316e-09 0.0000000000000000e+00  1.4999999891729152e-01 3.9896332497274037e-09 0.0000000000000000e+00  1.5000000129241628e-01 -4.5387613658301642e-09 0.0000000000000000e+00  1.4999999864987831e-01 4.5980613964858379e-09 0.0000000000000000e+00  1.5000000128774166e-01 -4.2943074046624993e-09 0.0000000000000000e+00  1.4999999885278861e-01 3.7697838958786658e-09 0.0000000000000000e+00  1.5000000096663135e-01 -3.1442878648820221e-09 0.0000000000000000e+00  1.4999999921905821e-01 2.5148035493872915e-09 0.0000000000000000e+00  1.5000000059957991e-01 -1.9220933834332546e-09 0.0000000000000000e+00  1.4999999953661727e-01 1.4323266528024353e-09 0.0000000000000000e+00  1.5000000031119426e-01 -9.7128720540869332e-10 0.0000000000000000e+00  1.4999999971784600e-01 6.6193453655748839e-10 0.0000000000000000e+00  1.5000000012363704e-01 -3.2378520102003487e-10 0.0000000000000000e+00  1.4999999972386593e-01 0.0000000000000000e+00 0.0000000000000000e+00  1.5000000545239131e-01 0.0000000000000000e+00 -3.0132277963449613e-08  1.4999998601219644e-01 5.3917202038717606e-10 5.3917226393734451e-10  1.4999998503039103e-01 4.8443200722987358e-08 -4.8508803939620055e-08  1.4999994543564746e-01 6.5712463159709609e-08 -8.1250524837519045e-08  1.4999989245198098e-01 1.9182085227149878e-07 -2.0902759934088871e-07  1.4999975804039486e-01 3.3211118877441030e-07 -4.0281267109908818e-07  1.4999955064945852e-01 6.3027512992423938e-07 -7.7458654092313414e-07  1.4999920999429198e-01 9.4732211970002148e-07 -1.2872330045159847e-06  1.4999878610783704e-01 1.2074585026792358e-06 -1.9542701366289331e-06  1.4999839398275600e-01 9.5601593290124075e-07 -2.4820072346863092e-06  1.4999839273503054e-01 -3.5578676513411232e-07 -2.4183345861433901e-06  1.4999928060807663e-01 -3.5993650201568988e-06 -9.8949005767935838e-07  1.5000172242163970e-01 -9.1256558646295519e-06 2.5240261113642842e-06  1.5000614765457873e-01 -1.6242882793772451e-05 8.4100399628565636e-06  1.5001223923531160e-01 -2.2728829638405125e-05 1.5627736910505657e-05  1.5001861880157349e-01 -2.5258062108428919e-05 2.1779472097659315e-05  1.5002323591504274e-01 -2.0679036247839555e-05 2.3969362938502454e-05  1.5002409125230654e-01 -8.7299259177145459e-06 2.0427316926685792e-05  1.5002044449681795e-01 6.7886861208632701e-06 1.2061626509862564e-05  1.5001376276366463e-01 2.0460636747484320e-05 2.7592694870963508e-06  1.5000681741129504e-01 2.8357365648610070e-05 -3.2885055719021053e-06  1.5000167154435143e-01 2.8422336649579205e-05 -4.6836682373060250e-06  1.4999928834234807e-01 2.0704181465225073e-05 -2.3833492469354982e-06  1.4999976357463760e-01 8.9680974780117290e-06 1.7918473941662759e-06  1.5000121197576355e-01 -1.4732799156038331e-07 4.3415375980863195e-06  1.5000063499638683e-01 -1.9953898105213522e-06 1.9692441804348171e-06  1.4999796460445727e-01 1.1544580726568146e-06 -2.8426646453530534e-06  1.4999659679725921e-01 1.3450519185507575e-06 -3.4102580031614868e-06  1.4999844207970320e-01 -4.5955088831638107e-06 1.2918426517977891e-06  1.5000110095238736e-01 -7.8670584974439199e-06 4.2014727298985359e-06  1.5000102893717990e-01 -1.2665797715324484e-06 6.6198863357415210e-07  1.4999859272169375e-01 4.9489858040108947e-06 -3.6212158545187770e-06  1.4999839045482030e-01 -4.1387313165866618e-07 -8.7723422875023255e-07  1.5000161663636236e-01 -6.1361456862971175e-06 4.4098872924146861e-06  1.5000207732323323e-01 9.3587320517491284e-07 1.3132580756873402e-06  1.4999773435042363e-01 7.3467424712554820e-06 -5.6952125301309628e-06  1.4999716495922413e-01 -1.0831682657879190e-06 -2.1723542398072591e-06  1.5000256348862562e-01 -8.1501186035297123e-06 6.2612970916730306e-06  1.5000303922046923e-01 7.7993883239482258e-07 2.3743610247708666e-06  1.4999724966572778e-01 7.8027608204925961e-06 -6.2015727590697557e-06  1.4999732503205343e-01 -7.0630525535343013e-07 -1.8620167446687455e-06  1.5000267408983156e-01 -6.5820617825707017e-06 5.2989462300976057e-06  1.5000173794770164e-01 9.6173549746273490e-07 6.3907600832938269e-07  1.4999764421936898e-01 4.8383048983472451e-06 -3.7924345925795916e-06  1.4999942454927237e-01 -1.4396374979193890e-06 7.3181348390204437e-07  1.5000176980923885e-01 -2.9961515764947984e-06 1.9608491363531241e-06  1.4999958196222818e-01 1.8219830172941557e-06 -1.6281554583351933e-06  1.4999902558649181e-01 1.3320901719128872e-06 -1.5889786656071153e-07  1.5000096155711273e-01 -1.8597414477578434e-06 1.7068976257398247e-06  1.5000014436441789e-01 -2.1620636002175427e-08 -1.2180526901614366e-06  1.4999901630686066e-01 1.4915941075970824e-06 -1.0468150228420511e-06  1.5000049207737048e-01 -8.1784359635879807e-07 1.8648737512424042e-06  1.5000061861911076e-01 -8.4180103211725167e-07 5.2839641017405319e-08  1.4999922493541357e-01 1.1403715018598435e-06 -1.7280587078064231e-06  1.4999987813377058e-01 1.4181181521606388e-07 7.8073020543741097e-07  1.5000069710504771e-01 -1.0100022322044127e-06 1.0489638930219913e-06  1.4999973993282475e-01 3.7777771275249989e-07 -1.1245889174660927e-06  1.4999960306724971e-01 6.0270968750629844e-07 -2.4132720085999045e-07  1.5000039920953392e-01 -5.8671160673077036e-07 9.5127782037746309e-07  1.5000007221038233e-01 -1.4813337909188155e-07 -3.2454664797842644e-07  1.4999968136722883e-01 5.0188037420123001e-07 -4.8967526181387901e-07  1.5000012841730020e-01 -1.6407569656862902e-07 4.9341878868171285e-07  1.5000013998859232e-01 -2.5827163812758498e-07 4.5740013536626599e-08  1.4999983341712517e-01 2.5872790313525089e-07 -3.5128937831378286e-07  1.5000000978468567e-01 2.2176940536941092e-08 1.8318509411518860e-07  1.5000009995244426e-01 -1.8460257524820717e-07 1.0964106965479633e-07  1.4999993059586655e-01 9.9985553562099057e-08 -1.8522313563349796e-07  1.4999998322228469e-01 5.5076067813361959e-08 5.3796943200515661e-08  1.5000005348661549e-01 -9.9569672549682745e-08 7.7096877659620961e-08  1.4999997375771937e-01 3.2285284040266119e-08 -8.5867022261411743e-08  1.4999998638521789e-01 3.9605045348672187e-08 1.4699005122286184e-08  1.5000002514872371e-01 -4.7818064894011643e-08 4.0256010787374249e-08  1.4999998965362490e-01 1.0435850895415441e-08 -3.8650465470302131e-08  1.4999999313319376e-01 2.1322730730739733e-08 6.0684148012370619e-09  1.5000001123405196e-01 -2.2827913448696794e-08 1.7631236250754853e-08  1.4999999502044301e-01 5.5902636280530674e-09 -1.7745461912027022e-08  1.4999999778840337e-01 8.5423791565966998e-09 4.7261120037420077e-09  1.5000000445838163e-01 -9.8966946393458793e-09 5.8819824152734313e-09  1.4999999760381535e-01 3.0251993223116697e-09 -7.6014563698060957e-09  1.4999999949726858e-01 3.4585904246643031e-09 3.3222231307090801e-09  1.5000000187783155e-01 -5.2394920953832208e-09 1.3586331804217821e-09  1.4999999841454906e-01 3.3539290433378058e-09 -3.2829520207154910e-09  1.5000000065975699e-01 -8.6844652389753923e-10 2.5561800344834646e-09  1.4999999997518057e-01 -1.6327534499914578e-10 -8.2909824325668853e-10  1.4999999997835520e-01 -4.9944730223102505e-10 -4.5076825629405026e-10  1.4999999964792682e-01 2.0474120553728730e-09 7.2326916521132482e-10  1.5000000085324938e-01 -3.5907915104294582e-09 -1.4817238919592390e-10  1.4999999872836484e-01 4.6265636861295192e-09 -8.2348093042476504e-10  1.5000000151777090e-01 -5.0363931801709289e-09 1.7695524668125873e-09  1.4999999841597053e-01 4.9130710276117035e-09 -2.4315865486528446e-09  1.5000000150259610e-01 -4.4186821143981011e-09 2.7237169992358324e-09  1.4999999867878758e-01 3.7171023187933626e-09 -2.6852505528113336e-09  1.5000000108998396e-01 -2.9492373638962352e-09 2.4192958410292432e-09  1.4999999914903012e-01 2.2183277692461154e-09 -2.0377341569442824e-09  1.5000000063627228e-01 -1.5929792381769259e-09 1.6363864193498651e-09  1.4999999954828044e-01 1.0852382519709625e-09 -1.2514252554044627e-09  1.5000000032350169e-01 -7.2459775632508501e-10 9.5550068602564741e-10  1.4999999980815354e-01 4.2517281073644179e-10 -6.3436125042326124e-10  1.5000000016937509e-01 -2.9703219657324139e-10 5.3530329070384734e-10  1.4999999998167457e-01 1.6072071739799747e-10 -1.6072104931060223e-10  1.5000000012363687e-01 0.0000000000000000e+00 3.2378452176100400e-10  1.5000003117248914e-01 0.0000000000000000e+00 -3.2486034189814037e-08  1.4999998503039094e-01 -4.8508804247800592e-08 4.8443200449323639e-08  1.5000003395565134e-01 1.7811227136401599e-08 1.7811226177535378e-08  1.5000002661822262e-01 -1.1619232091347381e-07 1.4160794747584080e-07  1.5000011175894271e-01 -1.0791200126496036e-07 2.3501178936291176e-07  1.5000019401650819e-01 -3.6198372268567446e-07 5.8078696202836231e-07  1.5000042673543884e-01 -5.3634433640821287e-07 1.0641327961795488e-06  1.5000072651934959e-01 -1.0103250583911686e-06 1.9622774649518438e-06  1.5000121487894610e-01 -1.3282674175884017e-06 3.1114681989631919e-06  1.5000171323932412e-01 -1.5031490340167863e-06 4.5116320135945927e-06  1.5000204897716105e-01 -6.9571574724206657e-07 5.3565403784535413e-06  1.5000166782078506e-01 1.6764665897318149e-06 4.6957024859955096e-06  1.5000000763643370e-01 6.6477982831650595e-06 9.2587176761841735e-07  1.4999636718750109e-01 1.3890981757065317e-05 -7.1393173552335405e-06  1.4999070122527070e-01 2.1847801582722273e-05 -1.9464835668795026e-05  1.4998396102573713e-01 2.7184249873267886e-05 -3.3075236826697817e-05  1.4997811502471250e-01 2.6129631052379999e-05 -4.3031056918873547e-05  1.4997530907907006e-01 1.6456764282342058e-05 -4.4359847499955617e-05  1.4997701341183617e-01 5.9444424780889028e-07 -3.5127354341242408e-05  1.4998268261882899e-01 -1.5509097807181096e-05 -1.8968902499574106e-05  1.4998970057966027e-01 -2.6684149585891807e-05 -3.9611827160661963e-06  1.4999549156046352e-01 -3.0532584205630383e-05 4.1448131626155869e-06  1.4999899982274878e-01 -2.6256078488032504e-05 5.2074351992704396e-06  1.4999979714739986e-01 -1.5673196017426005e-05 8.7524559471092757e-07  1.4999851655800825e-01 -4.5574878995414618e-06 -5.7571574845717905e-06  1.4999809488102211e-01 8.0353404453647377e-07 -7.3340721370568662e-06  1.5000053202027580e-01 -5.8183534372088980e-07 -2.6478951409115712e-07  1.5000318103620397e-01 -2.5318044576376841e-06 6.4848870017324329e-06  1.5000250182670699e-01 1.7062195568935876e-06 3.0180123255191320e-06  1.4999961336291809e-01 8.2150800043157910e-06 -5.4056844871521923e-06  1.4999853845930405e-01 5.6662199318704335e-06 -5.7556548651541649e-06  1.5000055490683450e-01 -3.6891559046390278e-06 2.7211509535433019e-06  1.5000211382287934e-01 -3.5561065294534637e-06 5.9162703626391459e-06  1.4999974547443073e-01 5.5826375948353891e-06 -3.0442910372251348e-06  1.4999722600517901e-01 4.0363786605057592e-06 -7.9946166260968968e-06  1.5000033327907583e-01 -7.0902253008743601e-06 3.6167838871929104e-06  1.5000390637078295e-01 -4.7658697128913326e-06 1.0978654949010325e-05  1.4999991381953975e-01 8.0109397278095514e-06 -3.2053386128145830e-06  1.4999559657522454e-01 5.4252924374686929e-06 -1.2138111715338663e-05  1.5000018151982869e-01 -7.7056422264643969e-06 3.2772137591250256e-06  1.5000431573819142e-01 -5.0753020470570721e-06 1.1444234284541727e-05  1.4999952897253255e-01 6.7277291134610858e-06 -3.4764805022964034e-06  1.4999651307706471e-01 3.8365407222666855e-06 -8.6018695512791896e-06  1.5000090653942885e-01 -5.3793024405133941e-06 3.7665666946500336e-06  1.5000220037958995e-01 -2.0556032821348643e-06 4.6059083761008123e-06  1.4999880735642887e-01 3.9517740465802312e-06 -3.5371109280187345e-06  1.4999917581828781e-01 3.2434881973784221e-07 -7.0843740999872652e-07  1.5000110140517484e-01 -2.5259975240584236e-06 2.3739494626842018e-06  1.4999972025275410e-01 9.0762048856558094e-07 -2.0127446950520894e-06  1.4999937469324814e-01 1.1645249526216603e-06 -4.6257621284509655e-07  1.5000086809017263e-01 -1.4386795002751945e-06 3.0013657215785606e-06  1.4999997729207137e-01 -4.2954777623237940e-09 -1.4819022675150477e-06  1.4999910357695964e-01 1.3124446633428186e-06 -2.3833303083487797e-06  1.5000055015265273e-01 -7.7775066057860127e-07 2.6700598279150215e-06  1.5000052935688427e-01 -7.5852441292310038e-07 8.7021713167006928e-07  1.4999924519400831e-01 1.0714873237086565e-06 -2.7132028057690149e-06  1.4999994991593868e-01 9.7575494176208453e-08 6.1155832348263017e-07  1.5000062267339362e-01 -9.1579167452016628e-07 1.8165958259303057e-06  1.4999971326558625e-01 3.8416816467506407e-07 -1.3848006827449195e-06  1.4999969476705374e-01 4.9786882515033440e-07 -5.9913992388115142e-07  1.5000037071523611e-01 -5.4372659742812518e-07 1.3040784088328959e-06  1.5000000508083489e-01 -6.5698922372738906e-08 -3.1086888078372003e-07  1.4999974561351193e-01 4.1832655978256127e-07 -7.0303057157741539e-07  1.5000014631568698e-01 -1.9287387087096614e-07 6.2074990642484137e-07  1.5000007729625553e-01 -1.6965922842740767e-07 8.0122000464714179e-08  1.4999985834751681e-01 2.3087943123631162e-07 -4.4727481397524202e-07  1.5000004163391492e-01 -3.3028107805196575e-08 2.3710745202702446e-07  1.5000006056347134e-01 -1.2742341139520087e-07 1.2115909521547637e-07  1.4999993397527567e-01 1.0497883509330494e-07 -2.2743437948628712e-07  1.5000000888490661e-01 8.5942977714094101e-09 8.4846127151088193e-08  1.5000003296363351e-01 -7.0684897539986797e-08 7.5612100425053754e-08  1.4999997111705574e-01 4.4806180397891664e-08 -1.0562279191432794e-07  1.5000000200923747e-01 1.0606823910080657e-08 3.4914302928706903e-08  1.5000001534129839e-01 -3.5840096480042026e-08 3.4700844647928129e-08  1.4999998660854269e-01 2.2685128102583530e-08 -4.7975074639172122e-08  1.5000000240245276e-01 1.7108707031520285e-09 1.9670085063809454e-08  1.5000000512983150e-01 -1.3348329195959855e-08 1.0233524103722774e-08  1.4999999472818226e-01 9.0203373720338315e-09 -1.9310785230037159e-08  1.5000000136304131e-01 1.1115920401852112e-09 1.0762214470472165e-08  