<?xml version="1.0"?>
<VTKFile type="UnstructuredGrid"  version="0.1"  >
<UnstructuredGrid>
<Piece  NumberOfPoints="10201" NumberOfCells="20000">
<Points>
<DataArray  type="Float64"  NumberOfComponents="3"  format="ascii">-5 -5 0  -4.9 -5 0  -4.8 -5 0  -4.7 -5 0  -4.6 -5 0  -4.5 -5 0  -4.4 -5 0  -4.3 -5 0  -4.2 -5 0  -4.1 -5 0  -4 -5 0  -3.9 -5 0  -3.8 -5 0  -3.7 -5 0  -3.6 -5 0  -3.5 -5 0  -3.4 -5 0  -3.3 -5 0  -3.2 -5 0  -3.1 -5 0  -3 -5 0  -2.9 -5 0  -2.8 -5 0  -2.7 -5 0  -2.6 -5 0  -2.5 -5 0  -2.4 -5 0  -2.3 -5 0  -2.2 -5 0  -2.1 -5 0  -2 -5 0  -1.9 -5 0  -1.8 -5 0  -1.7 -5 0  -1.6 -5 0  -1.5 -5 0  -1.4 -5 0  -1.3 -5 0  -1.2 -5 0  -1.1 -5 0  -1 -5 0  -0.9000000000000004 -5 0  -0.7999999999999998 -5 0  -0.7000000000000002 -5 0  -0.5999999999999996 -5 0  -0.5 -5 0  -0.4000000000000004 -5 0  -0.2999999999999998 -5 0  -0.2000000000000002 -5 0  -0.09999999999999964 -5 0  0 -5 0  0.09999999999999964 -5 0  0.2000000000000002 -5 0  0.2999999999999998 -5 0  0.4000000000000004 -5 0  0.5 -5 0  0.5999999999999996 -5 0  0.7000000000000002 -5 0  0.7999999999999998 -5 0  0.9000000000000004 -5 0  1 -5 0  1.1 -5 0  1.2 -5 0  1.3 -5 0  1.4 -5 0  1.5 -5 0  1.6 -5 0  1.7 -5 0  1.8 -5 0  1.9 -5 0  2 -5 0  2.1 -5 0  2.2 -5 0  2.3 -5 0  2.4 -5 0  2.5 -5 0  2.6 -5 0  2.7 -5 0  2.8 -5 0  2.9 -5 0  3 -5 0  3.1 -5 0  3.199999999999999 -5 0  3.300000000000001 -5 0  3.4 -5 0  3.5 -5 0  3.6 -5 0  3.699999999999999 -5 0  3.800000000000001 -5 0  3.9 -5 0  4 -5 0  4.1 -5 0  4.199999999999999 -5 0  4.300000000000001 -5 0  4.4 -5 0  4.5 -5 0  4.6 -5 0  4.699999999999999 -5 0  4.800000000000001 -5 0  4.9 -5 0  5 -5 0  -5 -4.9 0  -4.9 -4.9 0  -4.8 -4.9 0  -4.7 -4.9 0  -4.6 -4.9 0  -4.5 -4.9 0  -4.4 -4.9 0  -4.3 -4.9 0  -4.2 -4.9 0  -4.1 -4.9 0  -4 -4.9 0  -3.9 -4.9 0  -3.8 -4.9 0  -3.7 -4.9 0  -3.6 -4.9 0  -3.5 -4.9 0  -3.4 -4.9 0  -3.3 -4.9 0  -3.2 -4.9 0  -3.1 -4.9 0  -3 -4.9 0  -2.9 -4.9 0  -2.8 -4.9 0  -2.7 -4.9 0  -2.6 -4.9 0  -2.5 -4.9 0  -2.4 -4.9 0  -2.3 -4.9 0  -2.2 -4.9 0  -2.1 -4.9 0  -2 -4.9 0  -1.9 -4.9 0  -1.8 -4.9 0  -1.7 -4.9 0  -1.6 -4.9 0  -1.5 -4.9 0  -1.4 -4.9 0  -1.3 -4.9 0  -1.2 -4.9 0  -1.1 -4.9 0  -1 -4.9 0  -0.9000000000000004 -4.9 0  -0.7999999999999998 -4.9 0  -0.7000000000000002 -4.9 0  -0.5999999999999996 -4.9 0  -0.5 -4.9 0  -0.4000000000000004 -4.9 0  -0.2999999999999998 -4.9 0  -0.2000000000000002 -4.9 0  -0.09999999999999964 -4.9 0  0 -4.9 0  0.09999999999999964 -4.9 0  0.2000000000000002 -4.9 0  0.2999999999999998 -4.9 0  0.4000000000000004 -4.9 0  0.5 -4.9 0  0.5999999999999996 -4.9 0  0.7000000000000002 -4.9 0  0.7999999999999998 -4.9 0  0.9000000000000004 -4.9 0  1 -4.9 0  1.1 -4.9 0  1.2 -4.9 0  1.3 -4.9 0  1.4 -4.9 0  1.5 -4.9 0  1.6 -4.9 0  1.7 -4.9 0  1.8 -4.9 0  1.9 -4.9 0  2 -4.9 0  2.1 -4.9 0  2.2 -4.9 0  2.3 -4.9 0  2.4 -4.9 0  2.5 -4.9 0  2.6 -4.9 0  2.7 -4.9 0  2.8 -4.9 0  2.9 -4.9 0  3 -4.9 0  3.1 -4.9 0  3.199999999999999 -4.9 0  3.300000000000001 -4.9 0  3.4 -4.9 0  3.5 -4.9 0  3.6 -4.9 0  3.699999999999999 -4.9 0  3.800000000000001 -4.9 0  3.9 -4.9 0  4 -4.9 0  4.1 -4.9 0  4.199999999999999 -4.9 0  4.300000000000001 -4.9 0  4.4 -4.9 0  4.5 -4.9 0  4.6 -4.9 0  4.699999999999999 -4.9 0  4.800000000000001 -4.9 0  4.9 -4.9 0  5 -4.9 0  -5 -4.8 0  -4.9 -4.8 0  -4.8 -4.8 0  -4.7 -4.8 0  -4.6 -4.8 0  -4.5 -4.8 0  -4.4 -4.8 0  -4.3 -4.8 0  -4.2 -4.8 0  -4.1 -4.8 0  -4 -4.8 0  -3.9 -4.8 0  -3.8 -4.8 0  -3.7 -4.8 0  -3.6 -4.8 0  -3.5 -4.8 0  -3.4 -4.8 0  -3.3 -4.8 0  -3.2 -4.8 0  -3.1 -4.8 0  -3 -4.8 0  -2.9 -4.8 0  -2.8 -4.8 0  -2.7 -4.8 0  -2.6 -4.8 0  -2.5 -4.8 0  -2.4 -4.8 0  -2.3 -4.8 0  -2.2 -4.8 0  -2.1 -4.8 0  -2 -4.8 0  -1.9 -4.8 0  -1.8 -4.8 0  -1.7 -4.8 0  -1.6 -4.8 0  -1.5 -4.8 0  -1.4 -4.8 0  -1.3 -4.8 0  -1.2 -4.8 0  -1.1 -4.8 0  -1 -4.8 0  -0.9000000000000004 -4.8 0  -0.7999999999999998 -4.8 0  -0.7000000000000002 -4.8 0  -0.5999999999999996 -4.8 0  -0.5 -4.8 0  -0.4000000000000004 -4.8 0  -0.2999999999999998 -4.8 0  -0.2000000000000002 -4.8 0  -0.09999999999999964 -4.8 0  0 -4.8 0  0.09999999999999964 -4.8 0  0.2000000000000002 -4.8 0  0.2999999999999998 -4.8 0  0.4000000000000004 -4.8 0  0.5 -4.8 0  0.5999999999999996 -4.8 0  0.7000000000000002 -4.8 0  0.7999999999999998 -4.8 0  0.9000000000000004 -4.8 0  1 -4.8 0  1.1 -4.8 0  1.2 -4.8 0  1.3 -4.8 0  1.4 -4.8 0  1.5 -4.8 0  1.6 -4.8 0  1.7 -4.8 0  1.8 -4.8 0  1.9 -4.8 0  2 -4.8 0  2.1 -4.8 0  2.2 -4.8 0  2.3 -4.8 0  2.4 -4.8 0  2.5 -4.8 0  2.6 -4.8 0  2.7 -4.8 0  2.8 -4.8 0  2.9 -4.8 0  3 -4.8 0  3.1 -4.8 0  3.199999999999999 -4.8 0  3.300000000000001 -4.8 0  3.4 -4.8 0  3.5 -4.8 0  3.6 -4.8 0  3.699999999999999 -4.8 0  3.800000000000001 -4.8 0  3.9 -4.8 0  4 -4.8 0  4.1 -4.8 0  4.199999999999999 -4.8 0  4.300000000000001 -4.8 0  4.4 -4.8 0  4.5 -4.8 0  4.6 -4.8 0  4.699999999999999 -4.8 0  4.800000000000001 -4.8 0  4.9 -4.8 0  5 -4.8 0  -5 -4.7 0  -4.9 -4.7 0  -4.8 -4.7 0  -4.7 -4.7 0  -4.6 -4.7 0  -4.5 -4.7 0  -4.4 -4.7 0  -4.3 -4.7 0  -4.2 -4.7 0  -4.1 -4.7 0  -4 -4.7 0  -3.9 -4.7 0  -3.8 -4.7 0  -3.7 -4.7 0  -3.6 -4.7 0  -3.5 -4.7 0  -3.4 -4.7 0  -3.3 -4.7 0  -3.2 -4.7 0  -3.1 -4.7 0  -3 -4.7 0  -2.9 -4.7 0  -2.8 -4.7 0  -2.7 -4.7 0  -2.6 -4.7 0  -2.5 -4.7 0  -2.4 -4.7 0  -2.3 -4.7 0  -2.2 -4.7 0  -2.1 -4.7 0  -2 -4.7 0  -1.9 -4.7 0  -1.8 -4.7 0  -1.7 -4.7 0  -1.6 -4.7 0  -1.5 -4.7 0  -1.4 -4.7 0  -1.3 -4.7 0  -1.2 -4.7 0  -1.1 -4.7 0  -1 -4.7 0  -0.9000000000000004 -4.7 0  -0.7999999999999998 -4.7 0  -0.7000000000000002 -4.7 0  -0.5999999999999996 -4.7 0  -0.5 -4.7 0  -0.4000000000000004 -4.7 0  -0.2999999999999998 -4.7 0  -0.2000000000000002 -4.7 0  -0.09999999999999964 -4.7 0  0 -4.7 0  0.09999999999999964 -4.7 0  0.2000000000000002 -4.7 0  0.2999999999999998 -4.7 0  0.4000000000000004 -4.7 0  0.5 -4.7 0  0.5999999999999996 -4.7 0  0.7000000000000002 -4.7 0  0.7999999999999998 -4.7 0  0.9000000000000004 -4.7 0  1 -4.7 0  1.1 -4.7 0  1.2 -4.7 0  1.3 -4.7 0  1.4 -4.7 0  1.5 -4.7 0  1.6 -4.7 0  1.7 -4.7 0  1.8 -4.7 0  1.9 -4.7 0  2 -4.7 0  2.1 -4.7 0  2.2 -4.7 0  2.3 -4.7 0  2.4 -4.7 0  2.5 -4.7 0  2.6 -4.7 0  2.7 -4.7 0  2.8 -4.7 0  2.9 -4.7 0  3 -4.7 0  3.1 -4.7 0  3.199999999999999 -4.7 0  3.300000000000001 -4.7 0  3.4 -4.7 0  3.5 -4.7 0  3.6 -4.7 0  3.699999999999999 -4.7 0  3.800000000000001 -4.7 0  3.9 -4.7 0  4 -4.7 0  4.1 -4.7 0  4.199999999999999 -4.7 0  4.300000000000001 -4.7 0  4.4 -4.7 0  4.5 -4.7 0  4.6 -4.7 0  4.699999999999999 -4.7 0  4.800000000000001 -4.7 0  4.9 -4.7 0  5 -4.7 0  -5 -4.6 0  -4.9 -4.6 0  -4.8 -4.6 0  -4.7 -4.6 0  -4.6 -4.6 0  -4.5 -4.6 0  -4.4 -4.6 0  -4.3 -4.6 0  -4.2 -4.6 0  -4.1 -4.6 0  -4 -4.6 0  -3.9 -4.6 0  -3.8 -4.6 0  -3.7 -4.6 0  -3.6 -4.6 0  -3.5 -4.6 0  -3.4 -4.6 0  -3.3 -4.6 0  -3.2 -4.6 0  -3.1 -4.6 0  -3 -4.6 0  -2.9 -4.6 0  -2.8 -4.6 0  -2.7 -4.6 0  -2.6 -4.6 0  -2.5 -4.6 0  -2.4 -4.6 0  -2.3 -4.6 0  -2.2 -4.6 0  -2.1 -4.6 0  -2 -4.6 0  -1.9 -4.6 0  -1.8 -4.6 0  -1.7 -4.6 0  -1.6 -4.6 0  -1.5 -4.6 0  -1.4 -4.6 0  -1.3 -4.6 0  -1.2 -4.6 0  -1.1 -4.6 0  -1 -4.6 0  -0.9000000000000004 -4.6 0  -0.7999999999999998 -4.6 0  -0.7000000000000002 -4.6 0  -0.5999999999999996 -4.6 0  -0.5 -4.6 0  -0.4000000000000004 -4.6 0  -0.2999999999999998 -4.6 0  -0.2000000000000002 -4.6 0  -0.09999999999999964 -4.6 0  0 -4.6 0  0.09999999999999964 -4.6 0  0.2000000000000002 -4.6 0  0.2999999999999998 -4.6 0  0.4000000000000004 -4.6 0  0.5 -4.6 0  0.5999999999999996 -4.6 0  0.7000000000000002 -4.6 0  0.7999999999999998 -4.6 0  0.9000000000000004 -4.6 0  1 -4.6 0  1.1 -4.6 0  1.2 -4.6 0  1.3 -4.6 0  1.4 -4.6 0  1.5 -4.6 0  1.6 -4.6 0  1.7 -4.6 0  1.8 -4.6 0  1.9 -4.6 0  2 -4.6 0  2.1 -4.6 0  2.2 -4.6 0  2.3 -4.6 0  2.4 -4.6 0  2.5 -4.6 0  2.6 -4.6 0  2.7 -4.6 0  2.8 -4.6 0  2.9 -4.6 0  3 -4.6 0  3.1 -4.6 0  3.199999999999999 -4.6 0  3.300000000000001 -4.6 0  3.4 -4.6 0  3.5 -4.6 0  3.6 -4.6 0  3.699999999999999 -4.6 0  3.800000000000001 -4.6 0  3.9 -4.6 0  4 -4.6 0  4.1 -4.6 0  4.199999999999999 -4.6 0  4.300000000000001 -4.6 0  4.4 -4.6 0  4.5 -4.6 0  4.6 -4.6 0  4.699999999999999 -4.6 0  4.800000000000001 -4.6 0  4.9 -4.6 0  5 -4.6 0  -5 -4.5 0  -4.9 -4.5 0  -4.8 -4.5 0  -4.7 -4.5 0  -4.6 -4.5 0  -4.5 -4.5 0  -4.4 -4.5 0  -4.3 -4.5 0  -4.2 -4.5 0  -4.1 -4.5 0  -4 -4.5 0  -3.9 -4.5 0  -3.8 -4.5 0  -3.7 -4.5 0  -3.6 -4.5 0  -3.5 -4.5 0  -3.4 -4.5 0  -3.3 -4.5 0  -3.2 -4.5 0  -3.1 -4.5 0  -3 -4.5 0  -2.9 -4.5 0  -2.8 -4.5 0  -2.7 -4.5 0  -2.6 -4.5 0  -2.5 -4.5 0  -2.4 -4.5 0  -2.3 -4.5 0  -2.2 -4.5 0  -2.1 -4.5 0  -2 -4.5 0  -1.9 -4.5 0  -1.8 -4.5 0  -1.7 -4.5 0  -1.6 -4.5 0  -1.5 -4.5 0  -1.4 -4.5 0  -1.3 -4.5 0  -1.2 -4.5 0  -1.1 -4.5 0  -1 -4.5 0  -0.9000000000000004 -4.5 0  -0.7999999999999998 -4.5 0  -0.7000000000000002 -4.5 0  -0.5999999999999996 -4.5 0  -0.5 -4.5 0  -0.4000000000000004 -4.5 0  -0.2999999999999998 -4.5 0  -0.2000000000000002 -4.5 0  -0.09999999999999964 -4.5 0  0 -4.5 0  0.09999999999999964 -4.5 0  0.2000000000000002 -4.5 0  0.2999999999999998 -4.5 0  0.4000000000000004 -4.5 0  0.5 -4.5 0  0.5999999999999996 -4.5 0  0.7000000000000002 -4.5 0  0.7999999999999998 -4.5 0  0.9000000000000004 -4.5 0  1 -4.5 0  1.1 -4.5 0  1.2 -4.5 0  1.3 -4.5 0  1.4 -4.5 0  1.5 -4.5 0  1.6 -4.5 0  1.7 -4.5 0  1.8 -4.5 0  1.9 -4.5 0  2 -4.5 0  2.1 -4.5 0  2.2 -4.5 0  2.3 -4.5 0  2.4 -4.5 0  2.5 -4.5 0  2.6 -4.5 0  2.7 -4.5 0  2.8 -4.5 0  2.9 -4.5 0  3 -4.5 0  3.1 -4.5 0  3.199999999999999 -4.5 0  3.300000000000001 -4.5 0  3.4 -4.5 0  3.5 -4.5 0  3.6 -4.5 0  3.699999999999999 -4.5 0  3.800000000000001 -4.5 0  3.9 -4.5 0  4 -4.5 0  4.1 -4.5 0  4.199999999999999 -4.5 0  4.300000000000001 -4.5 0  4.4 -4.5 0  4.5 -4.5 0  4.6 -4.5 0  4.699999999999999 -4.5 0  4.800000000000001 -4.5 0  4.9 -4.5 0  5 -4.5 0  -5 -4.4 0  -4.9 -4.4 0  -4.8 -4.4 0  -4.7 -4.4 0  -4.6 -4.4 0  -4.5 -4.4 0  -4.4 -4.4 0  -4.3 -4.4 0  -4.2 -4.4 0  -4.1 -4.4 0  -4 -4.4 0  -3.9 -4.4 0  -3.8 -4.4 0  -3.7 -4.4 0  -3.6 -4.4 0  -3.5 -4.4 0  -3.4 -4.4 0  -3.3 -4.4 0  -3.2 -4.4 0  -3.1 -4.4 0  -3 -4.4 0  -2.9 -4.4 0  -2.8 -4.4 0  -2.7 -4.4 0  -2.6 -4.4 0  -2.5 -4.4 0  -2.4 -4.4 0  -2.3 -4.4 0  -2.2 -4.4 0  -2.1 -4.4 0  -2 -4.4 0  -1.9 -4.4 0  -1.8 -4.
[...]
<PointData  Vectors="f_17"> 
<DataArray  type="Float64"  Name="f_17"  NumberOfComponents="3" format="ascii">1.4912834521012253e-01 0.0000000000000000e+00 0.0000000000000000e+00  1.5024120906164715e-01 7.2571007401044726e-04 0.0000000000000000e+00  1.4991802786181602e-01 -8.2004664329211917e-04 0.0000000000000000e+00  1.5036416214805684e-01 -1.1167813411387696e-05 0.0000000000000000e+00  1.5094828689026049e-01 -2.0908164925032046e-03 0.0000000000000000e+00  1.5059627959399044e-01 -7.4230877103687086e-04 0.0000000000000000e+00  1.5107128323861774e-01 -1.4767141299657594e-03 0.0000000000000000e+00  1.4999155072501005e-01 3.4453722412966444e-04 0.0000000000000000e+00  1.5009078096653578e-01 1.1713248620630699e-03 0.0000000000000000e+00  1.4894421234422980e-01 1.6007617965450413e-03 0.0000000000000000e+00  1.4938381986496344e-01 2.4002703794264047e-03 0.0000000000000000e+00  1.4902432471871113e-01 1.1730413268705973e-03 0.0000000000000000e+00  1.4969378763909150e-01 1.7173586104225747e-03 0.0000000000000000e+00  1.4949740820104762e-01 4.5373732351516649e-04 0.0000000000000000e+00  1.5004122326314995e-01 2.0479860708924958e-03 0.0000000000000000e+00  1.4967631769464554e-01 6.9140564755342481e-04 0.0000000000000000e+00  1.5021587264000627e-01 1.4000736781719558e-03 0.0000000000000000e+00  1.5027792049644662e-01 -5.0764051930614383e-04 0.0000000000000000e+00  1.5073982309024725e-01 -3.7909239441027173e-04 0.0000000000000000e+00  1.5053415667970169e-01 -1.4238947565622130e-03 0.0000000000000000e+00  1.5075909319747791e-01 -9.6488443092866721e-05 0.0000000000000000e+00  1.5033673980922294e-01 -3.5321134298643898e-04 0.0000000000000000e+00  1.5023279153125388e-01 5.4486802123547887e-04 0.0000000000000000e+00  1.4982040684304285e-01 6.1247757144860973e-04 0.0000000000000000e+00  1.4946147989552530e-01 1.3681556318210226e-03 0.0000000000000000e+00  1.4903150713123536e-01 7.6555186569593090e-04 0.0000000000000000e+00  1.4945531125350425e-01 5.8692408685718860e-04 0.0000000000000000e+00  1.4955900054166268e-01 -1.0496419502668065e-03 0.0000000000000000e+00  1.4968327660165634e-01 -1.3878348862392221e-03 0.0000000000000000e+00  1.4986840710390095e-01 -7.4503976341438809e-04 0.0000000000000000e+00  1.4984747681930199e-01 -2.7891467563721963e-04 0.0000000000000000e+00  1.4939351215860033e-01 -1.1196255823720765e-03 0.0000000000000000e+00  1.4934527425840613e-01 -3.5824490865382820e-04 0.0000000000000000e+00  1.4907649116114238e-01 6.6084594854712850e-04 0.0000000000000000e+00  1.4891078496907073e-01 -4.6171696295015227e-04 0.0000000000000000e+00  1.5002755597018064e-01 -1.7048261775565680e-03 0.0000000000000000e+00  1.5145544866349056e-01 -1.6841191221113140e-04 0.0000000000000000e+00  1.5192290702828468e-01 6.9054637493325805e-04 0.0000000000000000e+00  1.5314848491962901e-01 -7.0695769701739056e-04 0.0000000000000000e+00  1.5464922519055135e-01 -2.4880994306470815e-03 0.0000000000000000e+00  1.5350990667008121e-01 -3.6377220908539818e-03 0.0000000000000000e+00  1.5029205581281241e-01 -2.9630873971593550e-03 0.0000000000000000e+00  1.4644372351088422e-01 3.9856921699708379e-07 0.0000000000000000e+00  1.4146971427772453e-01 2.1975630163984005e-03 0.0000000000000000e+00  1.3647319348822182e-01 2.9309922453349935e-03 0.0000000000000000e+00  1.3312188503526573e-01 4.4487449485049067e-03 0.0000000000000000e+00  1.3010947550608049e-01 6.7860096532831576e-03 0.0000000000000000e+00  1.2726734063319142e-01 7.6721783351671024e-03 0.0000000000000000e+00  1.2679569876395025e-01 7.5087163261598278e-03 0.0000000000000000e+00  1.2785338767300464e-01 5.6068548115464746e-03 0.0000000000000000e+00  1.2846785055272675e-01 3.3801724108445353e-03 0.0000000000000000e+00  1.2964146259159415e-01 3.2030839670991319e-03 0.0000000000000000e+00  1.3055795090380384e-01 2.3224928641097961e-03 0.0000000000000000e+00  1.3055660925741311e-01 -1.1461211989675566e-03 0.0000000000000000e+00  1.3099631370904177e-01 -2.7592056932042312e-03 0.0000000000000000e+00  1.3014455965081348e-01 -2.3034987133930891e-03 0.0000000000000000e+00  1.2779858488180498e-01 -4.7016178466552346e-03 0.0000000000000000e+00  1.2776246567502308e-01 -8.3145901720401792e-03 0.0000000000000000e+00  1.2821222545205288e-01 -7.2755920365911416e-03 0.0000000000000000e+00  1.2742138199012909e-01 -5.7615372954431020e-03 0.0000000000000000e+00  1.3090160219000765e-01 -8.3925690961792702e-03 0.0000000000000000e+00  1.3681650152900360e-01 -5.8216427625041034e-03 0.0000000000000000e+00  1.4007174450362128e-01 1.1975047796172146e-03 0.0000000000000000e+00  1.4549681857562599e-01 1.2408428650940815e-03 0.0000000000000000e+00  1.5246703675987461e-01 1.0260764607546894e-04 0.0000000000000000e+00  1.5327792844401247e-01 4.6816858017682973e-03 0.0000000000000000e+00  1.5264553144277740e-01 3.6439855393168991e-03 0.0000000000000000e+00  1.5388253812742439e-01 -1.9005402171825576e-03 0.0000000000000000e+00  1.5101166643267797e-01 -2.1163448491857108e-04 0.0000000000000000e+00  1.4814170080060352e-01 1.6218311123664248e-03 0.0000000000000000e+00  1.4989458202761419e-01 -1.6140471100569336e-03 0.0000000000000000e+00  1.5026974138581228e-01 -1.0398829452559701e-03 0.0000000000000000e+00  1.4913354425156225e-01 2.0450489815751513e-03 0.0000000000000000e+00  1.5060058048416394e-01 -9.5847961538389839e-04 0.0000000000000000e+00  1.5025930698373330e-01 -3.7445545633055764e-04 0.0000000000000000e+00  1.4948588235536167e-01 6.1664678057993683e-04 0.0000000000000000e+00  1.5009082716245245e-01 3.6384459795639880e-04 0.0000000000000000e+00  1.5046961913077661e-01 -1.4984539748873903e-03 0.0000000000000000e+00  1.4931119397506840e-01 1.8275860831427353e-03 0.0000000000000000e+00  1.5049931669376768e-01 -1.3749637971474742e-03 0.0000000000000000e+00  1.4980481943230095e-01 8.7855784157006914e-04 0.0000000000000000e+00  1.5008702667916271e-01 -9.0158715304099104e-04 0.0000000000000000e+00  1.4976562471813201e-01 1.4152562587111518e-03 0.0000000000000000e+00  1.5046970526198764e-01 -1.9729844077700878e-03 0.0000000000000000e+00  1.4939423193430104e-01 2.2102179448881521e-03 0.0000000000000000e+00  1.5058082933322503e-01 -2.0857917361099612e-03 0.0000000000000000e+00  1.4951929158973024e-01 1.8742274482785144e-03 0.0000000000000000e+00  1.5039203424975198e-01 -1.7463401814888507e-03 0.0000000000000000e+00  1.4960956911390291e-01 1.8126359593190937e-03 0.0000000000000000e+00  1.5039887308265049e-01 -1.8564945117368317e-03 0.0000000000000000e+00  1.4953349925311760e-01 1.9410198797399577e-03 0.0000000000000000e+00  1.5040996417502417e-01 -1.7401767135214470e-03 0.0000000000000000e+00  1.4951634156574567e-01 1.7323474645619425e-03 0.0000000000000000e+00  1.5031423940565317e-01 -1.3137286986208377e-03 0.0000000000000000e+00  1.4950193519062321e-01 1.4345289433545412e-03 0.0000000000000000e+00  1.5021260646890605e-01 -8.6918742562223103e-04 0.0000000000000000e+00  1.4941086423380051e-01 1.1228009693394784e-03 0.0000000000000000e+00  1.5018561492587720e-01 -3.7033869616818631e-04 0.0000000000000000e+00  1.4926093992943709e-01 6.8162070377613770e-04 0.0000000000000000e+00  1.5023141097207787e-01 5.9632104947573738e-06 0.0000000000000000e+00  1.4922229719212693e-01 0.0000000000000000e+00 0.0000000000000000e+00  1.5024120906164709e-01 0.0000000000000000e+00 7.2571007401023844e-04  1.5016971800037829e-01 -4.3330903668921096e-04 -4.3330903668977621e-04  1.5000983558317052e-01 2.9540557764105797e-04 -7.4506865877735926e-04  1.4967127833742280e-01 5.9608878843657985e-04 -6.3289598956310883e-04  1.4948093397327636e-01 9.8727131116876487e-04 -1.9068131670800697e-03  1.4907188723363801e-01 1.2376581657544314e-03 -2.7075196180584440e-04  1.4935682022804264e-01 1.0908503258799892e-03 -1.2570313601930636e-03  1.4941351379179008e-01 3.6248374119848110e-04 1.0762673719211132e-03  1.5009425671256549e-01 -6.6616560008505427e-04 2.8563516304542076e-04  1.5043627994501288e-01 -1.4089139192313780e-03 1.9054135533957003e-03  1.5092918416663026e-01 -1.7566560020812951e-03 7.6622371268890866e-04  1.5074535803088898e-01 -1.7696980041192328e-03 1.3181826444729310e-03  1.5069788334743750e-01 -1.3974677108511161e-03 1.4997616127560603e-04  1.5040269321381311e-01 -1.0228121723528832e-03 6.0959334171932966e-04  1.5022590992532084e-01 -1.2612653072024481e-03 -2.8894873885370958e-04  1.5006215402242390e-01 -1.2872379190478618e-03 -1.5752336841358743e-07  1.5005593462339883e-01 -1.0498936062413940e-03 -8.7351958825696496e-04  1.4974141755012901e-01 -4.4171744389780084e-04 -5.3662783565478389e-04  1.4953916724943553e-01 1.5203758185114541e-04 -1.0472234706714754e-03  1.4945650226450852e-01 9.5466445191317987e-04 -2.2684416638225368e-04  1.4940440003187130e-01 6.3509407776935530e-04 -4.3785306670882378e-04  1.4944950804884877e-01 2.7040546994323421e-04 1.7851223145183611e-04  1.4978027317166673e-01 -1.6559289922883608e-04 1.1553479632667455e-04  1.4998428393839938e-01 -5.9832120754212516e-04 7.9972529049116513e-04  1.5034289771739026e-01 -1.0553752512796615e-03 7.4356833172209761e-04  1.5073761257285315e-01 -9.2959387971944349e-04 8.7222957521952650e-04  1.5074290610989569e-01 -6.3530511983468630e-04 -2.2891404415756375e-05  1.5042145612872085e-01 5.4447249818206190e-05 -2.9595252696648644e-04  1.5048680578439502e-01 1.3382917043781163e-03 -1.7909989634849657e-04  1.5024050323004445e-01 1.1970202959141138e-03 4.8391509117978835e-04  1.4993389450806593e-01 2.5469559132248765e-04 6.7177720866839986e-04  1.5015890762174772e-01 7.7283819978105485e-04 1.1497388955182283e-03  1.5044959431002938e-01 1.2628688803994193e-03 6.1772124280913044e-04  1.5078502251975623e-01 6.8417836752455660e-05 -9.7865634950151264e-04  1.5186251200193795e-01 -5.3062114477767563e-04 -3.3886709638488908e-03  1.5218623696601880e-01 9.4546952948227963e-05 -6.2451431360024331e-03  1.5084385314993387e-01 -5.5567885146433555e-04 -7.5705898429719786e-03  1.4927294639918282e-01 -1.7593564624068911e-03 -3.8343208942896033e-03  1.4719252368946464e-01 -4.1298923110238495e-04 5.7561658225074508e-03  1.4332460408539283e-01 2.6784515317483416e-03 2.0782722689995734e-02  1.4007911603800088e-01 6.2672746877574913e-03 3.8929908325888121e-02  1.3963452475190855e-01 9.3954699058864909e-03 5.2962909352801360e-02  1.4113579564683140e-01 8.4546075052899274e-03 5.3630834613571737e-02  1.4538008322113169e-01 5.1247497768293609e-03 3.7414089038755712e-02  1.5334232495677927e-01 1.9220110960920743e-03 5.7837934646592423e-03  1.6287910349326160e-01 -2.9815921783253592e-03 -3.9545848639578815e-02  1.7382322645787679e-01 -8.5061429021409656e-03 -9.1980040208195862e-02  1.8720144924579360e-01 -1.3001776819629484e-02 -1.4266754283988670e-01  2.0033356444901101e-01 -1.6312003038695958e-02 -1.9104236216943499e-01  2.1124542374555833e-01 -1.6661197967533709e-02 -2.3506412746727467e-01  2.2123596025961437e-01 -1.4313060814365543e-02 -2.6993557196190654e-01  2.2961140057071680e-01 -1.1807665128248738e-02 -2.9706138848459596e-01  2.3528542866990093e-01 -8.9160627570069716e-03 -3.1640715962158295e-01  2.3931008067613521e-01 -3.3104268277870429e-03 -3.2588233197906619e-01  2.3995597232039373e-01 3.5123173570146497e-03 -3.2928980182085765e-01  2.3733523463861461e-01 7.5845585558692915e-03 -3.2446426550002311e-01  2.3420151301738293e-01 1.1154167678149297e-02 -3.0695280736493546e-01  2.2726697878651669e-01 1.6357111922026053e-02 -2.8201457646680284e-01  2.1508762672424300e-01 1.8824922877963585e-02 -2.4965996398818047e-01  2.0348896105686920e-01 1.5851606744780689e-02 -2.0207250668617316e-01  1.9009354143089571e-01 1.3020763227625973e-02 -1.4624532868495829e-01  1.7209941670556148e-01 1.0058640535425612e-02 -8.7801111976265098e-02  1.5774536041817530e-01 1.0083989556741175e-03 -2.5802583542839461e-02  1.4839718216979661e-01 -7.8643498453989588e-03 2.5832890961415857e-02  1.3914949237640595e-01 -8.3312856111946686e-03 5.3520152786659933e-02  1.3646258637292960e-01 -8.2603347230584094e-03 5.8172564268283003e-02  1.4154070977966005e-01 -8.6485552816573524e-03 4.1234001992997454e-02  1.4508782255643082e-01 -1.5139101149605210e-03 1.3810911737158586e-02  1.4815514633024590e-01 3.7202465122383593e-03 -4.8862330747349806e-03  1.5278204458438416e-01 9.3835046503614123e-04 -9.4752095449315843e-03  1.5252834089424114e-01 1.1518583720837946e-04 -6.9090279076242274e-03  1.4966096813421648e-01 2.0245550585167608e-03 -7.0696003406923828e-04  1.5015583443327321e-01 -9.8759109805402921e-04 2.0216993598403043e-03  1.5003689473839399e-01 -1.1155675738424491e-03 2.6543431184111862e-04  1.4934964379459992e-01 9.4194571932332142e-04 -2.0675454204880018e-04  1.5023484313410651e-01 3.1670760235967429e-04 5.5679596401303109e-04  1.5040030434104501e-01 -1.2533281645633967e-03 -6.3593494736133641e-04  1.4945864027710018e-01 1.1666086118603473e-03 1.5022705588543412e-04  1.5025533769002314e-01 -3.6380564237002331e-04 2.3868040602782883e-04  1.5008592942702054e-01 -2.2174157821930739e-04 -1.9723869786600698e-04  1.4981381765660476e-01 1.0257536932777538e-04 -1.4667022660881966e-04  1.5003554957738915e-01 4.3541111842738495e-04 4.6093733248367771e-04  1.5016547132534180e-01 -8.0339271213417844e-04 -5.0897428931949732e-04  1.4976817437587822e-01 7.0225486541738720e-04 3.1945050634123862e-04  1.5014443745782330e-01 -2.9644446095961405e-04 -9.1065370007746850e-05  1.4999621689975584e-01 -6.3923380708262039e-05 -4.2140800864651566e-06  1.4992356495871481e-01 1.7182960118715965e-04 -4.7000435407174959e-05  1.5008635653291172e-01 -1.1216840749836691e-04 1.7083888964486977e-04  1.4995458231213854e-01 3.0364815345245759e-05 -2.3265073028616158e-04  1.5004785475838303e-01 -1.1972754435660589e-04 2.3663113766542607e-04  1.4996564607796614e-01 2.2622014493127327e-04 -1.2374017830788685e-04  1.5011339317846289e-01 -4.7127381165039753e-04 7.6360294262919703e-05  1.4994145467940084e-01 4.3126991485816033e-04 6.7797239577086930e-05  1.5018164559122588e-01 -6.2899915565605964e-04 3.4149959296912442e-05  1.4999693251070975e-01 3.2048266561369982e-04 9.0686806723613779e-05  1.5023428619591842e-01 -6.0674935109665323e-04 2.0315499117375338e-04  1.5009927832082187e-01 1.3475706091084210e-04 -1.3601089946979705e-05  1.5027808057354608e-01 -5.3887914347575941e-04 3.6387807395416158e-04  1.5019833855691223e-01 -7.3871920668135030e-05 -7.9836076221628279e-05  1.5029432383651134e-01 -2.6708168003869480e-04 2.6708168003879103e-04  1.5023141097207832e-01 0.0000000000000000e+00 -5.9632104944607911e-06  1.4991802786181574e-01 0.0000000000000000e+00 -8.2004664329259481e-04  1.5000983558317052e-01 -7.4506865877857790e-04 2.9540557764131699e-04  1.5014511781221754e-01 8.7114477731883410e-04 8.7114477731735753e-04  1.5002253490490944e-01 -1.1042066146992702e-03 1.3070021441547695e-03  1.5095146617745533e-01 -2.0606050205943915e-04 1.9955322749553397e-03  1.5020716080784163e-01 -1.5939958643473560e-03 2.0700736283841021e-03  1.5137469837752418e-01 -3.8645542748409100e-04 1.3533743004583664e-03  1.4996678927255025e-01 -1.3519808932829179e-03 5.4184804561517792e-04  1.5072403772479728e-01 9.8826473519927427e-04 -1.2922963916509925e-03  1.4918595033956578e-01 3.4099029882216097e-04 -1.6537344670870503e-03  1.4960787800514155e-01 2.3118501067779041e-03 -3.0071152050618103e-03  1.4869136186059453e-01 9.8385823486334318e-04 -1.9727804356866317e-03  1.4949537853907549e-01 2.2738497397746353e-03 -2.0428097740201618e-03  1.4910602569247339e-01 3.6605564277117261e-04 -5.9772429373373514e-04  1.4988887890671437e-01 1.5492532941615749e-03 -7.7728083284830322e-04  1.4968568619907893e-01 5.8437074719940767e-04 5.2850847523097048e-04  1.5011892276633254e-01 1.6535772819632946e-03 2.4635457682928893e-04  1.4988733891612105e-01 3.9991606823357948e-04 1.2746560893710261e-03  1.5044519411064564e-01 7.2083043909713961e-04 9.9417178206310836e-04  1.5029896026723208e-01 -6.9890227645906945e-04 1.4221688365248491e-03  1.5056208153845627e-01 -6.0715893214121058e-04 4.9800834609798413e-04  1.5045343630950020e-01 -5.8622092860426253e-04 6.5078760868582397e-04  1.5040300820359037e-01 1.4626247941838146e-04 -2.2843000676222883e-04  1.4996072604060737e-01 1.9683948736352481e-04 -5.7216510108613590e-04  1.4993665195816211e-01 1.0895420711542704e-03 -1.4169014261294043e-03  1.4943214450775053e-01 7.8829906428878817e-04 -1.4068672990897768e-03  1.4936852004550777e-01 8.6470987529017017e-04 -1.0698221172404975e-03  1.4938400072824645e-01 3.0305001610898759e-04 6.2910513925701578e-04  1.4935293813653785e-01 -2.9861467372567957e-04 7.5333793389755984e-04  1.4914680005535250e-01 -1.3315866166574300e-03 3.1747608526767781e-04  1.5009511448097354e-01 -4.6726595925801083e-04 -6.8718579580857582e-04  1.5100221561924132e-01 -6.7593508678613710e-04 -2.8307820832041827e-03  1.5130884496438082e-01 -2.5612044324852968e-03 -6.5975713500518477e-03  1.5095213424459916e-01 -2.7911235903503523e-03 -7.2100565202152410e-03  1.4872511671957178e-01 -8.7269293929854855e-04 -1.4328383318535870e-03  1.4461956008341556e-01 1.3013264187868836e-03 1.3527809193135357e-02  1.4136055211733206e-01 5.7198384830788327e-03 3.5783390124016191e-02  1.3979320093957109e-01 1.1027682788891692e-02 5.1774019994967356e-02  1.4108888925031079e-01 1.1878335962694707e-02 4.3857156319651217e-02  1.4905223994042746e-01 5.0738910922855877e-03 4.4021727501777084e-03  1.6527674487367019e-01 -8.5883035751924616e-03 -6.5336236626227728e-02  1.8708941653795519e-01 -2.6565980228868039e-02 -1.5554078265708501e-01  2.1280152415183928e-01 -4.3437091821103224e-02 -2.4752308961988850e-01  2.4094059586723915e-01 -5.5633632752276355e-02 -3.2720228791632344e-01  2.6640509980763166e-01 -6.4521272930926132e-02 -3.9345885555927285e-01  2.8750602518407375e-01 -6.9199511495232333e-02 -4.4339136567949416e-01  3.0518998040169132e-01 -6.7606680505769720e-02 -4.7453031859812916e-01  3.1588573865837594e-01 -6.2887247444556676e-02 -4.9597085160984533e-01  3.2017247374035196e-01 -5.5646322095122942e-02 -5.1070418456908273e-01  3.2292343627433712e-01 -4.6001492289972440e-02 -5.1375565405034995e-01  3.2294099605753057e-01 -3.7479390000402846e-02 -5.1261949156458486e-01  3.2036688287608206e-01 -2.8286741333697851e-02 -5.1185141634448372e-01  3.1878067320723247e-01 -1.7143045720137463e-02 -5.0751121533303178e-01  3.1680055707402277e-01 -7.2511252180728920e-03 -5.0563129215628277e-01  3.1542072640302637e-01 8.1535497986955226e-04 -5.0675833752733779e-01  3.1756246260907628e-01 9.9160012800218605e-03 -5.0519557672394932e-01  3.1925072513490549e-01 2.1074529099531933e-02 -5.0998146593141047e-01  3.2026979727783395e-01 3.1424637801775623e-02 -5.2003769392745125e-01  3.2540498823330377e-01 3.9530925583540620e-02 -5.2288001379787152e-01  3.2892913207344759e-01 5.0627313801540834e-02 -5.2664739554847451e-01  3.2660279889416460e-01 6.3024287435589271e-02 -5.3251816318561762e-01  3.2361425670711325e-01 6.9766437738631268e-02 -5.2205887386473593e-01  3.1491098445396548e-01 7.3593764695083080e-02 -4.9753093865430248e-01  2.9284913630056786e-01 7.6792694600183328e-02 -4.6146100393543049e-01  2.6398063222792911e-01 6.9342955360296110e-02 -3.9339901972405827e-01  2.3115435603598999e-01 5.0316843064405148e-02 -2.9401830943175766e-01  1.9251339019535088e-01 3.0204732070639281e-02 -1.7928364270810704e-01  1.6001704308859466e-01 7.8351348716678010e-03 -5.6404906973562367e-02  1.4293602834178878e-01 -1.2265807304679610e-02 3.6676664284160561e-02  1.3696364484029525e-01 -1.5623623746160057e-02 6.2142318332901167e-02  1.3995660013161754e-01 -5.5575847244627016e-03 3.7758446500044389e-02  1.4866869241228642e-01 -4.9518711427783070e-04 4.4336999803408694e-03  1.5227496067287638e-01 2.2714367768699403e-03 -1.1436464003931768e-02  1.5121431494756463e-01 2.2941496376091791e-03 -5.7660856293795405e-03  1.5026225090292625e-01 3.1194753046674900e-04 1.4240549325828828e-03  1.5008520605526030e-01 -1.9456969966581499e-03 3.5795436283597579e-04  1.4931891217205445e-01 1.3167130546099270e-03 -7.6518180513233960e-05  1.5039291860598933e-01 -5.1412514787791167e-04 7.9065859615942019e-04  1.4994089731597701e-01 1.8219295957185296e-04 -8.884