<?xml version="1.0"?>
<VTKFile type="UnstructuredGrid"  version="0.1"  >
<UnstructuredGrid>
<Piece  NumberOfPoints="10201" NumberOfCells="20000">
<Points>
<DataArray  type="Float64"  NumberOfComponents="3"  format="ascii">-5 -5 0  -4.9 -5 0  -4.8 -5 0  -4.7 -5 0  -4.6 -5 0  -4.5 -5 0  -4.4 -5 0  -4.3 -5 0  -4.2 -5 0  -4.1 -5 0  -4 -5 0  -3.9 -5 0  -3.8 -5 0  -3.7 -5 0  -3.6 -5 0  -3.5 -5 0  -3.4 -5 0  -3.3 -5 0  -3.2 -5 0  -3.1 -5 0  -3 -5 0  -2.9 -5 0  -2.8 -5 0  -2.7 -5 0  -2.6 -5 0  -2.5 -5 0  -2.4 -5 0  -2.3 -5 0  -2.2 -5 0  -2.1 -5 0  -2 -5 0  -1.9 -5 0  -1.8 -5 0  -1.7 -5 0  -1.6 -5 0  -1.5 -5 0  -1.4 -5 0  -1.3 -5 0  -1.2 -5 0  -1.1 -5 0  -1 -5 0  -0.9000000000000004 -5 0  -0.7999999999999998 -5 0  -0.7000000000000002 -5 0  -0.5999999999999996 -5 0  -0.5 -5 0  -0.4000000000000004 -5 0  -0.2999999999999998 -5 0  -0.2000000000000002 -5 0  -0.09999999999999964 -5 0  0 -5 0  0.09999999999999964 -5 0  0.2000000000000002 -5 0  0.2999999999999998 -5 0  0.4000000000000004 -5 0  0.5 -5 0  0.5999999999999996 -5 0  0.7000000000000002 -5 0  0.7999999999999998 -5 0  0.9000000000000004 -5 0  1 -5 0  1.1 -5 0  1.2 -5 0  1.3 -5 0  1.4 -5 0  1.5 -5 0  1.6 -5 0  1.7 -5 0  1.8 -5 0  1.9 -5 0  2 -5 0  2.1 -5 0  2.2 -5 0  2.3 -5 0  2.4 -5 0  2.5 -5 0  2.6 -5 0  2.7 -5 0  2.8 -5 0  2.9 -5 0  3 -5 0  3.1 -5 0  3.199999999999999 -5 0  3.300000000000001 -5 0  3.4 -5 0  3.5 -5 0  3.6 -5 0  3.699999999999999 -5 0  3.800000000000001 -5 0  3.9 -5 0  4 -5 0  4.1 -5 0  4.199999999999999 -5 0  4.300000000000001 -5 0  4.4 -5 0  4.5 -5 0  4.6 -5 0  4.699999999999999 -5 0  4.800000000000001 -5 0  4.9 -5 0  5 -5 0  -5 -4.9 0  -4.9 -4.9 0  -4.8 -4.9 0  -4.7 -4.9 0  -4.6 -4.9 0  -4.5 -4.9 0  -4.4 -4.9 0  -4.3 -4.9 0  -4.2 -4.9 0  -4.1 -4.9 0  -4 -4.9 0  -3.9 -4.9 0  -3.8 -4.9 0  -3.7 -4.9 0  -3.6 -4.9 0  -3.5 -4.9 0  -3.4 -4.9 0  -3.3 -4.9 0  -3.2 -4.9 0  -3.1 -4.9 0  -3 -4.9 0  -2.9 -4.9 0  -2.8 -4.9 0  -2.7 -4.9 0  -2.6 -4.9 0  -2.5 -4.9 0  -2.4 -4.9 0  -2.3 -4.9 0  -2.2 -4.9 0  -2.1 -4.9 0  -2 -4.9 0  -1.9 -4.9 0  -1.8 -4.9 0  -1.7 -4.9 0  -1.6 -4.9 0  -1.5 -4.9 0  -1.4 -4.9 0  -1.3 -4.9 0  -1.2 -4.9 0  -1.1 -4.9 0  -1 -4.9 0  -0.9000000000000004 -4.9 0  -0.7999999999999998 -4.9 0  -0.7000000000000002 -4.9 0  -0.5999999999999996 -4.9 0  -0.5 -4.9 0  -0.4000000000000004 -4.9 0  -0.2999999999999998 -4.9 0  -0.2000000000000002 -4.9 0  -0.09999999999999964 -4.9 0  0 -4.9 0  0.09999999999999964 -4.9 0  0.2000000000000002 -4.9 0  0.2999999999999998 -4.9 0  0.4000000000000004 -4.9 0  0.5 -4.9 0  0.5999999999999996 -4.9 0  0.7000000000000002 -4.9 0  0.7999999999999998 -4.9 0  0.9000000000000004 -4.9 0  1 -4.9 0  1.1 -4.9 0  1.2 -4.9 0  1.3 -4.9 0  1.4 -4.9 0  1.5 -4.9 0  1.6 -4.9 0  1.7 -4.9 0  1.8 -4.9 0  1.9 -4.9 0  2 -4.9 0  2.1 -4.9 0  2.2 -4.9 0  2.3 -4.9 0  2.4 -4.9 0  2.5 -4.9 0  2.6 -4.9 0  2.7 -4.9 0  2.8 -4.9 0  2.9 -4.9 0  3 -4.9 0  3.1 -4.9 0  3.199999999999999 -4.9 0  3.300000000000001 -4.9 0  3.4 -4.9 0  3.5 -4.9 0  3.6 -4.9 0  3.699999999999999 -4.9 0  3.800000000000001 -4.9 0  3.9 -4.9 0  4 -4.9 0  4.1 -4.9 0  4.199999999999999 -4.9 0  4.300000000000001 -4.9 0  4.4 -4.9 0  4.5 -4.9 0  4.6 -4.9 0  4.699999999999999 -4.9 0  4.800000000000001 -4.9 0  4.9 -4.9 0  5 -4.9 0  -5 -4.8 0  -4.9 -4.8 0  -4.8 -4.8 0  -4.7 -4.8 0  -4.6 -4.8 0  -4.5 -4.8 0  -4.4 -4.8 0  -4.3 -4.8 0  -4.2 -4.8 0  -4.1 -4.8 0  -4 -4.8 0  -3.9 -4.8 0  -3.8 -4.8 0  -3.7 -4.8 0  -3.6 -4.8 0  -3.5 -4.8 0  -3.4 -4.8 0  -3.3 -4.8 0  -3.2 -4.8 0  -3.1 -4.8 0  -3 -4.8 0  -2.9 -4.8 0  -2.8 -4.8 0  -2.7 -4.8 0  -2.6 -4.8 0  -2.5 -4.8 0  -2.4 -4.8 0  -2.3 -4.8 0  -2.2 -4.8 0  -2.1 -4.8 0  -2 -4.8 0  -1.9 -4.8 0  -1.8 -4.8 0  -1.7 -4.8 0  -1.6 -4.8 0  -1.5 -4.8 0  -1.4 -4.8 0  -1.3 -4.8 0  -1.2 -4.8 0  -1.1 -4.8 0  -1 -4.8 0  -0.9000000000000004 -4.8 0  -0.7999999999999998 -4.8 0  -0.7000000000000002 -4.8 0  -0.5999999999999996 -4.8 0  -0.5 -4.8 0  -0.4000000000000004 -4.8 0  -0.2999999999999998 -4.8 0  -0.2000000000000002 -4.8 0  -0.09999999999999964 -4.8 0  0 -4.8 0  0.09999999999999964 -4.8 0  0.2000000000000002 -4.8 0  0.2999999999999998 -4.8 0  0.4000000000000004 -4.8 0  0.5 -4.8 0  0.5999999999999996 -4.8 0  0.7000000000000002 -4.8 0  0.7999999999999998 -4.8 0  0.9000000000000004 -4.8 0  1 -4.8 0  1.1 -4.8 0  1.2 -4.8 0  1.3 -4.8 0  1.4 -4.8 0  1.5 -4.8 0  1.6 -4.8 0  1.7 -4.8 0  1.8 -4.8 0  1.9 -4.8 0  2 -4.8 0  2.1 -4.8 0  2.2 -4.8 0  2.3 -4.8 0  2.4 -4.8 0  2.5 -4.8 0  2.6 -4.8 0  2.7 -4.8 0  2.8 -4.8 0  2.9 -4.8 0  3 -4.8 0  3.1 -4.8 0  3.199999999999999 -4.8 0  3.300000000000001 -4.8 0  3.4 -4.8 0  3.5 -4.8 0  3.6 -4.8 0  3.699999999999999 -4.8 0  3.800000000000001 -4.8 0  3.9 -4.8 0  4 -4.8 0  4.1 -4.8 0  4.199999999999999 -4.8 0  4.300000000000001 -4.8 0  4.4 -4.8 0  4.5 -4.8 0  4.6 -4.8 0  4.699999999999999 -4.8 0  4.800000000000001 -4.8 0  4.9 -4.8 0  5 -4.8 0  -5 -4.7 0  -4.9 -4.7 0  -4.8 -4.7 0  -4.7 -4.7 0  -4.6 -4.7 0  -4.5 -4.7 0  -4.4 -4.7 0  -4.3 -4.7 0  -4.2 -4.7 0  -4.1 -4.7 0  -4 -4.7 0  -3.9 -4.7 0  -3.8 -4.7 0  -3.7 -4.7 0  -3.6 -4.7 0  -3.5 -4.7 0  -3.4 -4.7 0  -3.3 -4.7 0  -3.2 -4.7 0  -3.1 -4.7 0  -3 -4.7 0  -2.9 -4.7 0  -2.8 -4.7 0  -2.7 -4.7 0  -2.6 -4.7 0  -2.5 -4.7 0  -2.4 -4.7 0  -2.3 -4.7 0  -2.2 -4.7 0  -2.1 -4.7 0  -2 -4.7 0  -1.9 -4.7 0  -1.8 -4.7 0  -1.7 -4.7 0  -1.6 -4.7 0  -1.5 -4.7 0  -1.4 -4.7 0  -1.3 -4.7 0  -1.2 -4.7 0  -1.1 -4.7 0  -1 -4.7 0  -0.9000000000000004 -4.7 0  -0.7999999999999998 -4.7 0  -0.7000000000000002 -4.7 0  -0.5999999999999996 -4.7 0  -0.5 -4.7 0  -0.4000000000000004 -4.7 0  -0.2999999999999998 -4.7 0  -0.2000000000000002 -4.7 0  -0.09999999999999964 -4.7 0  0 -4.7 0  0.09999999999999964 -4.7 0  0.2000000000000002 -4.7 0  0.2999999999999998 -4.7 0  0.4000000000000004 -4.7 0  0.5 -4.7 0  0.5999999999999996 -4.7 0  0.7000000000000002 -4.7 0  0.7999999999999998 -4.7 0  0.9000000000000004 -4.7 0  1 -4.7 0  1.1 -4.7 0  1.2 -4.7 0  1.3 -4.7 0  1.4 -4.7 0  1.5 -4.7 0  1.6 -4.7 0  1.7 -4.7 0  1.8 -4.7 0  1.9 -4.7 0  2 -4.7 0  2.1 -4.7 0  2.2 -4.7 0  2.3 -4.7 0  2.4 -4.7 0  2.5 -4.7 0  2.6 -4.7 0  2.7 -4.7 0  2.8 -4.7 0  2.9 -4.7 0  3 -4.7 0  3.1 -4.7 0  3.199999999999999 -4.7 0  3.300000000000001 -4.7 0  3.4 -4.7 0  3.5 -4.7 0  3.6 -4.7 0  3.699999999999999 -4.7 0  3.800000000000001 -4.7 0  3.9 -4.7 0  4 -4.7 0  4.1 -4.7 0  4.199999999999999 -4.7 0  4.300000000000001 -4.7 0  4.4 -4.7 0  4.5 -4.7 0  4.6 -4.7 0  4.699999999999999 -4.7 0  4.800000000000001 -4.7 0  4.9 -4.7 0  5 -4.7 0  -5 -4.6 0  -4.9 -4.6 0  -4.8 -4.6 0  -4.7 -4.6 0  -4.6 -4.6 0  -4.5 -4.6 0  -4.4 -4.6 0  -4.3 -4.6 0  -4.2 -4.6 0  -4.1 -4.6 0  -4 -4.6 0  -3.9 -4.6 0  -3.8 -4.6 0  -3.7 -4.6 0  -3.6 -4.6 0  -3.5 -4.6 0  -3.4 -4.6 0  -3.3 -4.6 0  -3.2 -4.6 0  -3.1 -4.6 0  -3 -4.6 0  -2.9 -4.6 0  -2.8 -4.6 0  -2.7 -4.6 0  -2.6 -4.6 0  -2.5 -4.6 0  -2.4 -4.6 0  -2.3 -4.6 0  -2.2 -4.6 0  -2.1 -4.6 0  -2 -4.6 0  -1.9 -4.6 0  -1.8 -4.6 0  -1.7 -4.6 0  -1.6 -4.6 0  -1.5 -4.6 0  -1.4 -4.6 0  -1.3 -4.6 0  -1.2 -4.6 0  -1.1 -4.6 0  -1 -4.6 0  -0.9000000000000004 -4.6 0  -0.7999999999999998 -4.6 0  -0.7000000000000002 -4.6 0  -0.5999999999999996 -4.6 0  -0.5 -4.6 0  -0.4000000000000004 -4.6 0  -0.2999999999999998 -4.6 0  -0.2000000000000002 -4.6 0  -0.09999999999999964 -4.6 0  0 -4.6 0  0.09999999999999964 -4.6 0  0.2000000000000002 -4.6 0  0.2999999999999998 -4.6 0  0.4000000000000004 -4.6 0  0.5 -4.6 0  0.5999999999999996 -4.6 0  0.7000000000000002 -4.6 0  0.7999999999999998 -4.6 0  0.9000000000000004 -4.6 0  1 -4.6 0  1.1 -4.6 0  1.2 -4.6 0  1.3 -4.6 0  1.4 -4.6 0  1.5 -4.6 0  1.6 -4.6 0  1.7 -4.6 0  1.8 -4.6 0  1.9 -4.6 0  2 -4.6 0  2.1 -4.6 0  2.2 -4.6 0  2.3 -4.6 0  2.4 -4.6 0  2.5 -4.6 0  2.6 -4.6 0  2.7 -4.6 0  2.8 -4.6 0  2.9 -4.6 0  3 -4.6 0  3.1 -4.6 0  3.199999999999999 -4.6 0  3.300000000000001 -4.6 0  3.4 -4.6 0  3.5 -4.6 0  3.6 -4.6 0  3.699999999999999 -4.6 0  3.800000000000001 -4.6 0  3.9 -4.6 0  4 -4.6 0  4.1 -4.6 0  4.199999999999999 -4.6 0  4.300000000000001 -4.6 0  4.4 -4.6 0  4.5 -4.6 0  4.6 -4.6 0  4.699999999999999 -4.6 0  4.800000000000001 -4.6 0  4.9 -4.6 0  5 -4.6 0  -5 -4.5 0  -4.9 -4.5 0  -4.8 -4.5 0  -4.7 -4.5 0  -4.6 -4.5 0  -4.5 -4.5 0  -4.4 -4.5 0  -4.3 -4.5 0  -4.2 -4.5 0  -4.1 -4.5 0  -4 -4.5 0  -3.9 -4.5 0  -3.8 -4.5 0  -3.7 -4.5 0  -3.6 -4.5 0  -3.5 -4.5 0  -3.4 -4.5 0  -3.3 -4.5 0  -3.2 -4.5 0  -3.1 -4.5 0  -3 -4.5 0  -2.9 -4.5 0  -2.8 -4.5 0  -2.7 -4.5 0  -2.6 -4.5 0  -2.5 -4.5 0  -2.4 -4.5 0  -2.3 -4.5 0  -2.2 -4.5 0  -2.1 -4.5 0  -2 -4.5 0  -1.9 -4.5 0  -1.8 -4.5 0  -1.7 -4.5 0  -1.6 -4.5 0  -1.5 -4.5 0  -1.4 -4.5 0  -1.3 -4.5 0  -1.2 -4.5 0  -1.1 -4.5 0  -1 -4.5 0  -0.9000000000000004 -4.5 0  -0.7999999999999998 -4.5 0  -0.7000000000000002 -4.5 0  -0.5999999999999996 -4.5 0  -0.5 -4.5 0  -0.4000000000000004 -4.5 0  -0.2999999999999998 -4.5 0  -0.2000000000000002 -4.5 0  -0.09999999999999964 -4.5 0  0 -4.5 0  0.09999999999999964 -4.5 0  0.2000000000000002 -4.5 0  0.2999999999999998 -4.5 0  0.4000000000000004 -4.5 0  0.5 -4.5 0  0.5999999999999996 -4.5 0  0.7000000000000002 -4.5 0  0.7999999999999998 -4.5 0  0.9000000000000004 -4.5 0  1 -4.5 0  1.1 -4.5 0  1.2 -4.5 0  1.3 -4.5 0  1.4 -4.5 0  1.5 -4.5 0  1.6 -4.5 0  1.7 -4.5 0  1.8 -4.5 0  1.9 -4.5 0  2 -4.5 0  2.1 -4.5 0  2.2 -4.5 0  2.3 -4.5 0  2.4 -4.5 0  2.5 -4.5 0  2.6 -4.5 0  2.7 -4.5 0  2.8 -4.5 0  2.9 -4.5 0  3 -4.5 0  3.1 -4.5 0  3.199999999999999 -4.5 0  3.300000000000001 -4.5 0  3.4 -4.5 0  3.5 -4.5 0  3.6 -4.5 0  3.699999999999999 -4.5 0  3.800000000000001 -4.5 0  3.9 -4.5 0  4 -4.5 0  4.1 -4.5 0  4.199999999999999 -4.5 0  4.300000000000001 -4.5 0  4.4 -4.5 0  4.5 -4.5 0  4.6 -4.5 0  4.699999999999999 -4.5 0  4.800000000000001 -4.5 0  4.9 -4.5 0  5 -4.5 0  -5 -4.4 0  -4.9 -4.4 0  -4.8 -4.4 0  -4.7 -4.4 0  -4.6 -4.4 0  -4.5 -4.4 0  -4.4 -4.4 0  -4.3 -4.4 0  -4.2 -4.4 0  -4.1 -4.4 0  -4 -4.4 0  -3.9 -4.4 0  -3.8 -4.4 0  -3.7 -4.4 0  -3.6 -4.4 0  -3.5 -4.4 0  -3.4 -4.4 0  -3.3 -4.4 0  -3.2 -4.4 0  -3.1 -4.4 0  -3 -4.4 0  -2.9 -4.4 0  -2.8 -4.4 0  -2.7 -4.4 0  -2.6 -4.4 0  -2.5 -4.4 0  -2.4 -4.4 0  -2.3 -4.4 0  -2.2 -4.4 0  -2.1 -4.4 0  -2 -4.4 0  -1.9 -4.4 0  -1.8 -4.
[...]
<PointData  Vectors="f_17"> 
<DataArray  type="Float64"  Name="f_17"  NumberOfComponents="3" format="ascii">1.5000000001854777e-01 0.0000000000000000e+00 0.0000000000000000e+00  1.5000000004341868e-01 -9.1005475924727434e-11 0.0000000000000000e+00  1.5000000015764123e-01 -3.1480467979037346e-10 0.0000000000000000e+00  1.5000000053465828e-01 -1.1090049048693619e-09 0.0000000000000000e+00  1.5000000176398590e-01 -3.0012438943913704e-09 0.0000000000000000e+00  1.5000000481934359e-01 -7.9199579511673816e-09 0.0000000000000000e+00  1.5000001191031853e-01 -1.8183641106589833e-08 0.0000000000000000e+00  1.5000002667737913e-01 -3.5301318630576366e-08 0.0000000000000000e+00  1.5000005222216753e-01 -5.7606581168181478e-08 0.0000000000000000e+00  1.5000008716714763e-01 -7.0473124499978401e-08 0.0000000000000000e+00  1.5000011734659466e-01 -3.1010361240564064e-08 0.0000000000000000e+00  1.5000009948156987e-01 1.3579667844232500e-07 0.0000000000000000e+00  1.4999994911032286e-01 5.2121119572258701e-07 0.0000000000000000e+00  1.4999955371241144e-01 1.1897171438990019e-06 0.0000000000000000e+00  1.4999881554300248e-01 2.0896813134839963e-06 0.0000000000000000e+00  1.4999772534947503e-01 2.9716084762326434e-06 0.0000000000000000e+00  1.4999645045239299e-01 3.4443936732064090e-06 0.0000000000000000e+00  1.4999534302243980e-01 3.1601234062203938e-06 0.0000000000000000e+00  1.4999479763262236e-01 1.9411057838246207e-06 0.0000000000000000e+00  1.4999508004861900e-01 -1.9442006047364406e-07 0.0000000000000000e+00  1.4999625785543474e-01 -2.9325792749375203e-06 0.0000000000000000e+00  1.4999813034166501e-01 -5.4410376700672076e-06 0.0000000000000000e+00  1.5000012127471268e-01 -6.3559803202592772e-06 0.0000000000000000e+00  1.5000141609986598e-01 -4.5833242356442064e-06 0.0000000000000000e+00  1.5000149844615698e-01 -8.3315463268931487e-07 0.0000000000000000e+00  1.5000071247539290e-01 2.0755883656210904e-06 0.0000000000000000e+00  1.5000012874845592e-01 1.9496880122928230e-06 0.0000000000000000e+00  1.5000038504249882e-01 1.7095205995289656e-07 0.0000000000000000e+00  1.5000074651460088e-01 -2.0747049340633841e-07 0.0000000000000000e+00  1.5000024748777024e-01 8.3822105617055359e-07 0.0000000000000000e+00  1.4999955455451094e-01 7.4388132800819326e-07 0.0000000000000000e+00  1.4999989914181755e-01 -5.5542452260467948e-07 0.0000000000000000e+00  1.5000053505523742e-01 -5.0745547188851284e-07 0.0000000000000000e+00  1.5000003638635714e-01 7.7819584146793665e-07 0.0000000000000000e+00  1.4999936345615927e-01 5.5225075216847894e-07 0.0000000000000000e+00  1.5000001840574884e-01 -8.9328720055120725e-07 0.0000000000000000e+00  1.5000070277113800e-01 -6.1634311368675784e-07 0.0000000000000000e+00  1.4999993794031943e-01 8.9919284488956818e-07 0.0000000000000000e+00  1.4999932295488103e-01 6.1324648525073263e-07 0.0000000000000000e+00  1.5000012475087937e-01 -8.2478714669066017e-07 0.0000000000000000e+00  1.5000056922155669e-01 -5.0698775002397845e-07 0.0000000000000000e+00  1.4999980124902007e-01 7.2163640404557622e-07 0.0000000000000000e+00  1.4999958996745547e-01 3.2922507229944246e-07 0.0000000000000000e+00  1.5000025664966607e-01 -6.1145937721945534e-07 0.0000000000000000e+00  1.5000023662939307e-01 -1.3397199516709632e-07 0.0000000000000000e+00  1.4999972851856172e-01 4.9198130007720424e-07 0.0000000000000000e+00  1.4999991858614731e-01 -3.1913120003350857e-08 0.0000000000000000e+00  1.5000023551357952e-01 -3.5827045226724630e-07 0.0000000000000000e+00  1.4999996848615810e-01 1.4046194379690684e-07 0.0000000000000000e+00  1.4999983718227122e-01 2.1787367164844433e-07 0.0000000000000000e+00  1.5000009034733072e-01 -1.8285128354858777e-07 0.0000000000000000e+00  1.5000007983930413e-01 -9.0108041729845640e-08 0.0000000000000000e+00  1.4999990143049249e-01 1.6732359572187270e-07 0.0000000000000000e+00  1.4999998786567920e-01 -4.1964117882009540e-09 0.0000000000000000e+00  1.5000007287552239e-01 -1.1526100252782949e-07 0.0000000000000000e+00  1.4999997408984611e-01 5.3561926655978799e-08 0.0000000000000000e+00  1.4999996446639141e-01 5.3624287180736184e-08 0.0000000000000000e+00  1.5000003444212234e-01 -6.1148469133575117e-08 0.0000000000000000e+00  1.5000000501463179e-01 -5.1889192369555901e-09 0.0000000000000000e+00  1.4999997569593168e-01 4.2302749452800607e-08 0.0000000000000000e+00  1.5000001012644573e-01 -1.9006609230877951e-08 0.0000000000000000e+00  1.5000000920936005e-01 -1.6383616306884361e-08 0.0000000000000000e+00  1.4999998855088764e-01 2.1131571571738963e-08 0.0000000000000000e+00  1.5000000127977489e-01 -2.1624314594608605e-09 0.0000000000000000e+00  1.5000000600996286e-01 -1.1653362351789184e-08 0.0000000000000000e+00  1.4999999548295337e-01 8.5177021743427565e-09 0.0000000000000000e+00  1.4999999940338968e-01 1.5970007581666084e-09 0.0000000000000000e+00  1.5000000300277069e-01 -6.1311015759507541e-09 0.0000000000000000e+00  1.4999999831276215e-01 3.1736054395916860e-09 0.0000000000000000e+00  1.4999999945928627e-01 1.4180414211200393e-09 0.0000000000000000e+00  1.5000000133698024e-01 -2.8586426410623077e-09 0.0000000000000000e+00  1.4999999933339023e-01 1.2517620494815204e-09 0.0000000000000000e+00  1.4999999974880049e-01 7.1858206628239755e-10 0.0000000000000000e+00  1.5000000056068022e-01 -1.2659634913823140e-09 0.0000000000000000e+00  1.4999999970321687e-01 5.7759766919977287e-10 0.0000000000000000e+00  1.4999999992765278e-01 2.5812122008545147e-10 0.0000000000000000e+00  1.5000000022113757e-01 -5.3825322288835624e-10 0.0000000000000000e+00  1.4999999985574225e-01 3.0526023949398909e-10 0.0000000000000000e+00  1.5000000000241945e-01 4.1076401588908800e-11 0.0000000000000000e+00  1.5000000007606570e-01 -2.0754587019794360e-10 0.0000000000000000e+00  1.4999999993108945e-01 1.6349764560936104e-10 0.0000000000000000e+00  1.5000000002142774e-01 -3.3407198293460904e-11 0.0000000000000000e+00  1.5000000001775363e-01 -6.2300654351291338e-11 0.0000000000000000e+00  1.4999999997064667e-01 8.2317279218576680e-11 0.0000000000000000e+00  1.5000000002002756e-01 -4.9939130084353772e-11 0.0000000000000000e+00  1.4999999999524211e-01 6.1282848381972298e-12 0.0000000000000000e+00  1.4999999999384989e-01 2.3055912329734207e-11 0.0000000000000000e+00  1.5000000001019084e-01 -3.2794984017583997e-11 0.0000000000000000e+00  1.4999999999034802e-01 3.0434330269615505e-11 0.0000000000000000e+00  1.5000000000770108e-01 -2.4849045558060762e-11 0.0000000000000000e+00  1.4999999999374572e-01 2.1013940827154130e-11 0.0000000000000000e+00  1.5000000000573580e-01 -1.9724301191068823e-11 0.0000000000000000e+00  1.4999999999425881e-01 1.9636875120632484e-11 0.0000000000000000e+00  1.5000000000573091e-01 -1.9216403837717934e-11 0.0000000000000000e+00  1.4999999999460123e-01 1.7689051284222073e-11 0.0000000000000000e+00  1.5000000000469518e-01 -1.5052467155116962e-11 0.0000000000000000e+00  1.4999999999617233e-01 1.1915923522172848e-11 0.0000000000000000e+00  1.5000000000275157e-01 -8.4075488680856984e-12 0.0000000000000000e+00  1.4999999999769145e-01 5.6834626400124876e-12 0.0000000000000000e+00  1.5000000000104560e-01 -2.8879619313577591e-12 0.0000000000000000e+00  1.4999999999782537e-01 0.0000000000000000e+00 0.0000000000000000e+00  1.5000000004341882e-01 0.0000000000000000e+00 -9.1005494673557457e-11  1.4999999994519023e-01 -1.8559191858720027e-12 -1.8564817577718174e-12  1.4999999990316920e-01 2.3241428180308992e-10 -2.5887745393779150e-10  1.4999999962895416e-01 7.4873591661616258e-10 -7.0835277926898908e-10  1.4999999877101158e-01 2.2712604234657715e-09 -2.4549343560349775e-09  1.4999999636757769e-01 5.9477380956238934e-09 -7.0278304007534166e-09  1.4999999076825818e-01 1.4717690998722020e-08 -1.7941113204919909e-08  1.4999997847289778e-01 3.0745012168998285e-08 -4.1371206937958989e-08  1.4999995533997026e-01 5.4316254457830549e-08 -8.5096847068838763e-08  1.4999992009408181e-01 7.7717179407253581e-08 -1.5154581991014919e-07  1.4999988056702601e-01 6.9208516661522050e-08 -2.2571574847692766e-07  1.4999986734621362e-01 -3.9876238566385225e-08 -2.5121946256386549e-07  1.4999995177670347e-01 -3.4496346964266377e-07 -1.0315323957554130e-07  1.5000024487837244e-01 -9.3454521817374703e-07 4.0320146640460147e-07  1.5000086265820492e-01 -1.8170073931453000e-06 1.4389899293916078e-06  1.5000186191599743e-01 -2.8117864349484025e-06 3.0334248999472461e-06  1.5000314936158468e-01 -3.5325160405701707e-06 4.9264695870707248e-06  1.5000442233994257e-01 -3.5623511662830929e-06 6.5308226799947343e-06  1.5000525834219255e-01 -2.6556587070768543e-06 7.1727857481959049e-06  1.5000531999405695e-01 -7.7998395074322150e-07 6.4799515912588745e-06  1.5000447529613745e-01 1.8616243145500001e-06 4.5289091155502064e-06  1.5000282426259473e-01 4.6511581574536812e-06 1.7614704613793934e-06  1.5000078662527014e-01 6.4131413650572108e-06 -9.9135225731500062e-07  1.4999910306820408e-01 5.8194766369840713e-06 -2.5926875944015219e-06  1.4999846137794368e-01 2.6738693430470863e-06 -2.3163658497665234e-06  1.4999890991245379e-01 -9.7734582058170255e-07 -7.7646412475423359e-07  1.4999964960175280e-01 -2.2525443984718134e-06 2.6152526839318462e-07  1.4999974012703737e-01 -9.1194145839782188e-07 -2.7108845090924462e-07  1.4999930466201983e-01 1.8859766037615806e-07 -1.1622942558973140e-06  1.4999942222998319e-01 -5.1295598387763984e-07 -5.4393896060463898e-07  1.5000022017766731e-01 -1.0120679007656151e-06 8.0141565366653520e-07  1.5000038164774279e-01 8.7715342745120191e-08 4.6920310016860383e-07  1.4999964994346790e-01 7.3423783569637313e-07 -8.7694602966573383e-07  1.4999960515875493e-01 -3.4632047625269404e-07 -3.7457327699193506e-07  1.5000046985096135e-01 -8.5367834943408268e-07 1.1011848561192869e-06  1.5000040979721072e-01 4.1503603314022413e-07 3.3002583231817482e-07  1.4999943062528068e-01 9.3870127399531249e-07 -1.2811571156855523e-06  1.4999959785890660e-01 -3.9271478256437383e-07 -2.8330726827758567e-07  1.5000059820229159e-01 -9.2607922842215629e-07 1.2993134561000563e-06  1.5000032168972771e-01 3.3708423694791739e-07 1.4856322225521080e-07  1.4999943184204928e-01 8.0309642731936260e-07 -1.1650850675296732e-06  1.4999981890510181e-01 -3.0542385151796063e-07 6.2736074785526051e-08  1.5000049104576157e-01 -6.1666107839569060e-07 9.1921901492727848e-07  1.5000002242449045e-01 3.0387038579926818e-07 -2.8257154514130814e-07  1.4999962102645856e-01 4.1563718317918477e-07 -6.1612997240920109e-07  1.5000010648489071e-01 -3.0844977876574328e-07 4.2923425935167932e-07  1.5000024636928910e-01 -2.3162268397303309e-07 3.0880026878795375e-07  1.4999982449797439e-01 2.9259766570505266e-07 -4.5743595626212445e-07  1.4999988491100552e-01 8.1071151053052576e-08 -4.8881559650333853e-08  1.5000017985861647e-01 -2.4494275494735088e-07 3.7462003099477609e-07  1.5000000981297831e-01 2.6192270559051712e-08 -1.2238192647800958e-07  1.4999986362112830e-01 1.7166874289580901e-07 -2.2837429235353906e-07  1.5000005240314990e-01 -8.4996783137633004e-08 1.8934278906052895e-07  1.5000007316979494e-01 -9.0451330402142272e-08 7.9614749925160412e-08  1.4999993034073875e-01 9.7928829091838851e-08 -1.6889628814388609e-07  1.4999998286952496e-01 2.1479809616214381e-08 2.4492296489137718e-08  1.5000005466728403e-01 -7.7175279379984295e-08 1.0154911550118615e-07  1.4999998411965046e-01 2.1161340345732613e-08 -6.6666780924795727e-08  1.4999997293054837e-01 4.1446814327731547e-08 -3.1442984286508174e-08  1.5000002430711831e-01 -3.4676982697064190e-08 5.9105258474245920e-08  1.5000000372102515e-01 -8.9685417166855650e-09 -1.2612875186819226e-08  1.4999998294898811e-01 2.7084138148024444e-08 -2.9447363020446937e-08  1.5000000753396409e-01 -9.3784527437514835e-09 2.4809461975706105e-08  1.5000000580097006e-01 -1.1591127998226557e-08 2.9431553961620426e-09  1.4999999199599579e-01 1.2699752720960808e-08 -1.6624520415426952e-08  1.5000000157575852e-01 -6.5571374506827129e-10 8.7650658115279899e-09  1.5000000365975102e-01 -7.3132822918340222e-09 4.0469144809600640e-09  1.4999999668684713e-01 5.1424629801887226e-09 -7.7817619560463751e-09  1.5000000013154821e-01 9.4071342969499031e-10 2.9854125701771796e-09  1.5000000179334577e-01 -3.6958941781392838e-09 2.3534613267159583e-09  1.4999999865960673e-01 2.0490959727722445e-09 -3.3800379853695701e-09  1.4999999996398788e-01 6.7900170987815019e-10 1.1584621929546670e-09  1.5000000077236389e-01 -1.6918021591281171e-09 1.0181166190173847e-09  1.4999999943579456e-01 8.9266635174443660e-10 -1.4268095638506731e-09  1.5000000001199876e-01 2.7533797222660773e-10 5.6107300189285997e-10  1.5000000029878446e-01 -7.2802365132515995e-10 3.3188773068661450e-10  1.4999999975179568e-01 4.3771585842069872e-10 -5.8044029829267017e-10  1.5000000004370470e-01 4.5344860399228489e-11 3.0900441688868866e-10  1.5000000009668968e-01 -2.8491849658440010e-10 4.8245805384181047e-11  1.4999999989292045e-01 2.2394513584744610e-10 -2.1033887071309853e-10  1.5000000004290689e-01 -4.0596642924197984e-11 1.6514546813845206e-10  1.5000000001874972e-01 -9.0081034952986334e-11 -4.0156567560673135e-11  1.4999999995889743e-01 1.1101213703118075e-10 -5.1580587033122936e-11  1.5000000003002029e-01 -6.0142696273350833e-11 7.4086860827374027e-11  1.4999999999216548e-01 -1.7277325483646112e-12 -4.9169554277950171e-11  1.4999999999125688e-01 3.8997419526530637e-11 1.2819694695831493e-11  1.5000000001507444e-01 -4.8106804776499682e-11 1.2475328316831154e-11  1.4999999998562347e-01 4.1840396170166242e-11 -2.2186871049607452e-11  1.5000000001146674e-01 -3.3121771445110100e-11 2.1821717772101713e-11  1.4999999999073296e-01 2.7997323233742493e-11 -1.8271649194986475e-11  1.5000000000839786e-01 -2.6447425952840172e-11 1.5546206397678054e-11  1.4999999999175712e-01 2.6020394137861400e-11 -1.4513509735148795e-11  1.5000000000803107e-01 -2.4652352635159908e-11 1.4373422950683078e-11  1.4999999999264280e-01 2.1656082970187700e-11 -1.4072844231144460e-11  1.5000000000622637e-01 -1.7455187069152465e-11 1.3043696697538208e-11  1.4999999999515545e-01 1.2886464989912151e-11 -1.1224045119083102e-11  1.5000000000351330e-01 -8.7984591522078230e-12 9.0201857247109098e-12  1.4999999999775951e-01 5.3128923763949082e-12 -6.4395352759044646e-12  1.5000000000163838e-01 -3.3291973252342081e-12 5.0009279352111971e-12  1.4999999999965291e-01 1.7432489793402632e-12 -1.7432318768293432e-12  1.5000000000104602e-01 0.0000000000000000e+00 2.8881539835730031e-12  1.5000000015764134e-01 0.0000000000000000e+00 -3.1480530027059675e-10  1.4999999990316898e-01 -2.5887749989834552e-10 2.3241458322673146e-10  1.5000000017281914e-01 9.0703113994344096e-11 9.0703404908162197e-11  1.5000000022684398e-01 -7.5552679734217511e-10 9.3388036918322519e-10  1.5000000099585362e-01 -1.7886751549482360e-09 2.5394001607728783e-09  1.5000000296324159e-01 -5.2437175999897941e-09 8.4106416416295451e-09  1.5000000806107475e-01 -1.3034020027210215e-08 2.2421000730308944e-08  1.5000001927461606e-01 -3.0013558560363393e-08 5.4629401581321760e-08  1.5000004238506098e-01 -5.7483691210644605e-08 1.2058893906342332e-07  1.5000008171273699e-01 -9.3180723257001225e-08 2.3550007951908641e-07  1.5000013484367100e-01 -1.1550785181746452e-07 3.9569507116786202e-07  1.5000018129393683e-01 -6.0786259739960954e-08 5.4817403150580342e-07  1.5000016084444484e-01 1.8058811167557210e-07 5.2920852615709185e-07  1.4999995824974796e-01 7.3103522534928182e-07 2.3911420086055222e-08  1.4999942853633277e-01 1.6616268565676405e-06 -1.3626566237032440e-06  1.4999846221563801e-01 2.8678503508388271e-06 -3.9066718572872603e-06  1.4999708039117760e-01 3.9585457387255489e-06 -7.4769016588723442e-06  1.4999553918280981e-01 4.3765832423331598e-06 -1.1263640497868702e-05  1.4999431467380914e-01 3.7254906894346695e-06 -1.3907483008373273e-05  1.4999387155621210e-01 1.9375256694773250e-06 -1.4242596765929960e-05  1.4999442648167916e-01 -7.9872246047642281e-07 -1.1966882517633350e-05  1.4999592843990417e-01 -4.0044351704185338e-06 -7.5580985827857262e-06  1.4999806465723414e-01 -6.6905037858802682e-06 -2.0514884899768152e-06  1.5000017211933631e-01 -7.3944840996658841e-06 2.7779731813281180e-06  1.5000142378572176e-01 -5.0862282922780600e-06 4.8574211253003144e-06  1.5000142504978747e-01 -7.9589867226747514e-07 3.5176972085296864e-06  1.5000068007002221e-01 2.2344817922076094e-06 7.9062700779274145e-07  1.5000027001297817e-01 1.8468932018722229e-06 -5.5190832672942074e-08  1.5000065024253043e-01 6.1080218363885167e-08 1.5613227009823839e-06  1.5000089789495499e-01 1.4068072535443574e-07 2.2173155326200772e-06  1.5000015270305356e-01 1.3144642038348403e-06 -1.5672988788213957e-07  1.4999944220000283e-01 6.5913968698669411e-07 -1.8155821641684597e-06  1.5000001960420897e-01 -8.9689987408991351e-07 3.5508967367441665e-07  1.5000066369405834e-01 -3.2477762237100035e-07 1.9353717751237193e-06  1.4999988196671496e-01 1.1425605316631702e-06 -7.4289768757539603e-07  1.4999922842050817e-01 3.1282866561700157e-07 -2.2213770104250533e-06  1.5000021972716485e-01 -1.2713847658052828e-06 1.0761505221903349e-06  1.5000083888121915e-01 -3.5049933554906072e-07 2.3847928201858249e-06  1.4999971115834820e-01 1.2564062677152646e-06 -1.2660708887563673e-06  1.4999921744230113e-01 3.5234390894702522e-07 -2.1794202536519277e-06  1.5000035356067962e-01 -1.1110010729026630e-06 1.3895500070099855e-06  1.5000061497587550e-01 -2.6177512956632524e-07 1.6386600099106034e-06  1.4999959646812044e-01 9.0771765311524803e-07 -1.4345838927811495e-06  1.4999961710629964e-01 1.0452094402366890e-07 -9.1626005691081396e-07  1.5000041428763464e-01 -6.9523009320734914e-07 1.3525770222200861e-06  1.5000014813660120e-01 6.2574611123374380e-08 2.1468949325051075e-07  1.4999963434647587e-01 4.9179781771729949e-07 -1.1048875715982008e-06  1.5000003784620122e-01 -1.8860358401131772e-07 3.0533144665495256e-07  1.5000026276022765e-01 -3.0186904050729936e-07 7.2337548716419887e-07  1.4999985472404576e-01 2.4737340786279188e-07 -5.6363515074378558e-07  1.4999986421840622e-01 1.3447725477352734e-07 -3.0784519375923361e-07  1.5000017066385743e-01 -2.3765265255134079e-07 5.6910881873711136e-07  1.5000002350504743e-01 -5.6322847464474348e-09 -2.6267636571424448e-08  1.4999986535049997e-01 1.7738495497975178e-07 -4.0376957492045033e-07  1.5000004593853294e-01 -7.0736722739578735e-08 2.0600258630866640e-07  1.5000007163200452e-01 -9.5713456106260857e-08 1.8317517046939258e-07  1.4999993389272093e-01 9.2740526317319782e-08 -2.2943052839409737e-07  1.4999998542009244e-01 2.2559914633631689e-08 -6.8747966771776287e-09  1.5000005069800332e-01 -7.3750779933659141e-08 1.5347610824334564e-07  1.4999998245453039e-01 2.2077559687763982e-08 -7.7450425518482871e-08  1.4999997756017724e-01 3.6903788962646310e-08 -5.4370212263302784e-08  1.5000002355028991e-01 -3.4248291038826045e-08 7.9030198860997983e-08  1.5000000014004197e-01 -4.4127154718781793e-09 -1.2741147962533386e-08  1.4999998563686459e-01 2.4170665644982745e-08 -4.0277022199415859e-08  1.5000000871080521e-01 -1.1692873285929984e-08 3.2523484843736091e-08  1.5000000303476302e-01 -7.7103371530168253e-09 3.2358907275337906e-09  1.4999999292957000e-01 1.2045833654796819e-08 -2.1205347178589593e-08  1.5000000292072957e-01 -3.2160260602174620e-09 1.2310196680622080e-08  1.5000000208766109e-01 -5.0618599827644364e-09 3.7727269752656221e-09  1.4999999687798501e-01 5.4192633287361544e-09 -9.6922103752962255e-09  1.5000000104577269e-01 -8.7052276680951107e-10 4.8514324916589850e-09  1.5000000098984978e-01 -2.5347717117810211e-09 1.8696148038406207e-09  1.4999999867639152e-01 2.4042438824408411e-09 -4.1238352421287212e-09  1.5000000046506473e-01 -3.8517622556497330e-10 2.1547758818815548e-09  1.5000000036398856e-01 -1.0741028873506794e-09 5.6687515124242375e-10  1.4999999945379838e-01 1.0862986757811336e-09 -1.6412782740820105e-09  1.5000000025016128e-01 -2.8999766909131986e-10 1.0532237150357273e-09  1.5000000008559605e-01 -3.6702936864874480e-10 -3.3986266547405851e-12  1.4999999979152090e-01 4.8203605890747572e-10 -5.68130219954961