<?xml version="1.0"?>
<VTKFile type="UnstructuredGrid"  version="0.1"  >
<UnstructuredGrid>
<Piece  NumberOfPoints="10201" NumberOfCells="20000">
<Points>
<DataArray  type="Float64"  NumberOfComponents="3"  format="ascii">-5 -5 0  -4.9 -5 0  -4.8 -5 0  -4.7 -5 0  -4.6 -5 0  -4.5 -5 0  -4.4 -5 0  -4.3 -5 0  -4.2 -5 0  -4.1 -5 0  -4 -5 0  -3.9 -5 0  -3.8 -5 0  -3.7 -5 0  -3.6 -5 0  -3.5 -5 0  -3.4 -5 0  -3.3 -5 0  -3.2 -5 0  -3.1 -5 0  -3 -5 0  -2.9 -5 0  -2.8 -5 0  -2.7 -5 0  -2.6 -5 0  -2.5 -5 0  -2.4 -5 0  -2.3 -5 0  -2.2 -5 0  -2.1 -5 0  -2 -5 0  -1.9 -5 0  -1.8 -5 0  -1.7 -5 0  -1.6 -5 0  -1.5 -5 0  -1.4 -5 0  -1.3 -5 0  -1.2 -5 0  -1.1 -5 0  -1 -5 0  -0.9000000000000004 -5 0  -0.7999999999999998 -5 0  -0.7000000000000002 -5 0  -0.5999999999999996 -5 0  -0.5 -5 0  -0.4000000000000004 -5 0  -0.2999999999999998 -5 0  -0.2000000000000002 -5 0  -0.09999999999999964 -5 0  0 -5 0  0.09999999999999964 -5 0  0.2000000000000002 -5 0  0.2999999999999998 -5 0  0.4000000000000004 -5 0  0.5 -5 0  0.5999999999999996 -5 0  0.7000000000000002 -5 0  0.7999999999999998 -5 0  0.9000000000000004 -5 0  1 -5 0  1.1 -5 0  1.2 -5 0  1.3 -5 0  1.4 -5 0  1.5 -5 0  1.6 -5 0  1.7 -5 0  1.8 -5 0  1.9 -5 0  2 -5 0  2.1 -5 0  2.2 -5 0  2.3 -5 0  2.4 -5 0  2.5 -5 0  2.6 -5 0  2.7 -5 0  2.8 -5 0  2.9 -5 0  3 -5 0  3.1 -5 0  3.199999999999999 -5 0  3.300000000000001 -5 0  3.4 -5 0  3.5 -5 0  3.6 -5 0  3.699999999999999 -5 0  3.800000000000001 -5 0  3.9 -5 0  4 -5 0  4.1 -5 0  4.199999999999999 -5 0  4.300000000000001 -5 0  4.4 -5 0  4.5 -5 0  4.6 -5 0  4.699999999999999 -5 0  4.800000000000001 -5 0  4.9 -5 0  5 -5 0  -5 -4.9 0  -4.9 -4.9 0  -4.8 -4.9 0  -4.7 -4.9 0  -4.6 -4.9 0  -4.5 -4.9 0  -4.4 -4.9 0  -4.3 -4.9 0  -4.2 -4.9 0  -4.1 -4.9 0  -4 -4.9 0  -3.9 -4.9 0  -3.8 -4.9 0  -3.7 -4.9 0  -3.6 -4.9 0  -3.5 -4.9 0  -3.4 -4.9 0  -3.3 -4.9 0  -3.2 -4.9 0  -3.1 -4.9 0  -3 -4.9 0  -2.9 -4.9 0  -2.8 -4.9 0  -2.7 -4.9 0  -2.6 -4.9 0  -2.5 -4.9 0  -2.4 -4.9 0  -2.3 -4.9 0  -2.2 -4.9 0  -2.1 -4.9 0  -2 -4.9 0  -1.9 -4.9 0  -1.8 -4.9 0  -1.7 -4.9 0  -1.6 -4.9 0  -1.5 -4.9 0  -1.4 -4.9 0  -1.3 -4.9 0  -1.2 -4.9 0  -1.1 -4.9 0  -1 -4.9 0  -0.9000000000000004 -4.9 0  -0.7999999999999998 -4.9 0  -0.7000000000000002 -4.9 0  -0.5999999999999996 -4.9 0  -0.5 -4.9 0  -0.4000000000000004 -4.9 0  -0.2999999999999998 -4.9 0  -0.2000000000000002 -4.9 0  -0.09999999999999964 -4.9 0  0 -4.9 0  0.09999999999999964 -4.9 0  0.2000000000000002 -4.9 0  0.2999999999999998 -4.9 0  0.4000000000000004 -4.9 0  0.5 -4.9 0  0.5999999999999996 -4.9 0  0.7000000000000002 -4.9 0  0.7999999999999998 -4.9 0  0.9000000000000004 -4.9 0  1 -4.9 0  1.1 -4.9 0  1.2 -4.9 0  1.3 -4.9 0  1.4 -4.9 0  1.5 -4.9 0  1.6 -4.9 0  1.7 -4.9 0  1.8 -4.9 0  1.9 -4.9 0  2 -4.9 0  2.1 -4.9 0  2.2 -4.9 0  2.3 -4.9 0  2.4 -4.9 0  2.5 -4.9 0  2.6 -4.9 0  2.7 -4.9 0  2.8 -4.9 0  2.9 -4.9 0  3 -4.9 0  3.1 -4.9 0  3.199999999999999 -4.9 0  3.300000000000001 -4.9 0  3.4 -4.9 0  3.5 -4.9 0  3.6 -4.9 0  3.699999999999999 -4.9 0  3.800000000000001 -4.9 0  3.9 -4.9 0  4 -4.9 0  4.1 -4.9 0  4.199999999999999 -4.9 0  4.300000000000001 -4.9 0  4.4 -4.9 0  4.5 -4.9 0  4.6 -4.9 0  4.699999999999999 -4.9 0  4.800000000000001 -4.9 0  4.9 -4.9 0  5 -4.9 0  -5 -4.8 0  -4.9 -4.8 0  -4.8 -4.8 0  -4.7 -4.8 0  -4.6 -4.8 0  -4.5 -4.8 0  -4.4 -4.8 0  -4.3 -4.8 0  -4.2 -4.8 0  -4.1 -4.8 0  -4 -4.8 0  -3.9 -4.8 0  -3.8 -4.8 0  -3.7 -4.8 0  -3.6 -4.8 0  -3.5 -4.8 0  -3.4 -4.8 0  -3.3 -4.8 0  -3.2 -4.8 0  -3.1 -4.8 0  -3 -4.8 0  -2.9 -4.8 0  -2.8 -4.8 0  -2.7 -4.8 0  -2.6 -4.8 0  -2.5 -4.8 0  -2.4 -4.8 0  -2.3 -4.8 0  -2.2 -4.8 0  -2.1 -4.8 0  -2 -4.8 0  -1.9 -4.8 0  -1.8 -4.8 0  -1.7 -4.8 0  -1.6 -4.8 0  -1.5 -4.8 0  -1.4 -4.8 0  -1.3 -4.8 0  -1.2 -4.8 0  -1.1 -4.8 0  -1 -4.8 0  -0.9000000000000004 -4.8 0  -0.7999999999999998 -4.8 0  -0.7000000000000002 -4.8 0  -0.5999999999999996 -4.8 0  -0.5 -4.8 0  -0.4000000000000004 -4.8 0  -0.2999999999999998 -4.8 0  -0.2000000000000002 -4.8 0  -0.09999999999999964 -4.8 0  0 -4.8 0  0.09999999999999964 -4.8 0  0.2000000000000002 -4.8 0  0.2999999999999998 -4.8 0  0.4000000000000004 -4.8 0  0.5 -4.8 0  0.5999999999999996 -4.8 0  0.7000000000000002 -4.8 0  0.7999999999999998 -4.8 0  0.9000000000000004 -4.8 0  1 -4.8 0  1.1 -4.8 0  1.2 -4.8 0  1.3 -4.8 0  1.4 -4.8 0  1.5 -4.8 0  1.6 -4.8 0  1.7 -4.8 0  1.8 -4.8 0  1.9 -4.8 0  2 -4.8 0  2.1 -4.8 0  2.2 -4.8 0  2.3 -4.8 0  2.4 -4.8 0  2.5 -4.8 0  2.6 -4.8 0  2.7 -4.8 0  2.8 -4.8 0  2.9 -4.8 0  3 -4.8 0  3.1 -4.8 0  3.199999999999999 -4.8 0  3.300000000000001 -4.8 0  3.4 -4.8 0  3.5 -4.8 0  3.6 -4.8 0  3.699999999999999 -4.8 0  3.800000000000001 -4.8 0  3.9 -4.8 0  4 -4.8 0  4.1 -4.8 0  4.199999999999999 -4.8 0  4.300000000000001 -4.8 0  4.4 -4.8 0  4.5 -4.8 0  4.6 -4.8 0  4.699999999999999 -4.8 0  4.800000000000001 -4.8 0  4.9 -4.8 0  5 -4.8 0  -5 -4.7 0  -4.9 -4.7 0  -4.8 -4.7 0  -4.7 -4.7 0  -4.6 -4.7 0  -4.5 -4.7 0  -4.4 -4.7 0  -4.3 -4.7 0  -4.2 -4.7 0  -4.1 -4.7 0  -4 -4.7 0  -3.9 -4.7 0  -3.8 -4.7 0  -3.7 -4.7 0  -3.6 -4.7 0  -3.5 -4.7 0  -3.4 -4.7 0  -3.3 -4.7 0  -3.2 -4.7 0  -3.1 -4.7 0  -3 -4.7 0  -2.9 -4.7 0  -2.8 -4.7 0  -2.7 -4.7 0  -2.6 -4.7 0  -2.5 -4.7 0  -2.4 -4.7 0  -2.3 -4.7 0  -2.2 -4.7 0  -2.1 -4.7 0  -2 -4.7 0  -1.9 -4.7 0  -1.8 -4.7 0  -1.7 -4.7 0  -1.6 -4.7 0  -1.5 -4.7 0  -1.4 -4.7 0  -1.3 -4.7 0  -1.2 -4.7 0  -1.1 -4.7 0  -1 -4.7 0  -0.9000000000000004 -4.7 0  -0.7999999999999998 -4.7 0  -0.7000000000000002 -4.7 0  -0.5999999999999996 -4.7 0  -0.5 -4.7 0  -0.4000000000000004 -4.7 0  -0.2999999999999998 -4.7 0  -0.2000000000000002 -4.7 0  -0.09999999999999964 -4.7 0  0 -4.7 0  0.09999999999999964 -4.7 0  0.2000000000000002 -4.7 0  0.2999999999999998 -4.7 0  0.4000000000000004 -4.7 0  0.5 -4.7 0  0.5999999999999996 -4.7 0  0.7000000000000002 -4.7 0  0.7999999999999998 -4.7 0  0.9000000000000004 -4.7 0  1 -4.7 0  1.1 -4.7 0  1.2 -4.7 0  1.3 -4.7 0  1.4 -4.7 0  1.5 -4.7 0  1.6 -4.7 0  1.7 -4.7 0  1.8 -4.7 0  1.9 -4.7 0  2 -4.7 0  2.1 -4.7 0  2.2 -4.7 0  2.3 -4.7 0  2.4 -4.7 0  2.5 -4.7 0  2.6 -4.7 0  2.7 -4.7 0  2.8 -4.7 0  2.9 -4.7 0  3 -4.7 0  3.1 -4.7 0  3.199999999999999 -4.7 0  3.300000000000001 -4.7 0  3.4 -4.7 0  3.5 -4.7 0  3.6 -4.7 0  3.699999999999999 -4.7 0  3.800000000000001 -4.7 0  3.9 -4.7 0  4 -4.7 0  4.1 -4.7 0  4.199999999999999 -4.7 0  4.300000000000001 -4.7 0  4.4 -4.7 0  4.5 -4.7 0  4.6 -4.7 0  4.699999999999999 -4.7 0  4.800000000000001 -4.7 0  4.9 -4.7 0  5 -4.7 0  -5 -4.6 0  -4.9 -4.6 0  -4.8 -4.6 0  -4.7 -4.6 0  -4.6 -4.6 0  -4.5 -4.6 0  -4.4 -4.6 0  -4.3 -4.6 0  -4.2 -4.6 0  -4.1 -4.6 0  -4 -4.6 0  -3.9 -4.6 0  -3.8 -4.6 0  -3.7 -4.6 0  -3.6 -4.6 0  -3.5 -4.6 0  -3.4 -4.6 0  -3.3 -4.6 0  -3.2 -4.6 0  -3.1 -4.6 0  -3 -4.6 0  -2.9 -4.6 0  -2.8 -4.6 0  -2.7 -4.6 0  -2.6 -4.6 0  -2.5 -4.6 0  -2.4 -4.6 0  -2.3 -4.6 0  -2.2 -4.6 0  -2.1 -4.6 0  -2 -4.6 0  -1.9 -4.6 0  -1.8 -4.6 0  -1.7 -4.6 0  -1.6 -4.6 0  -1.5 -4.6 0  -1.4 -4.6 0  -1.3 -4.6 0  -1.2 -4.6 0  -1.1 -4.6 0  -1 -4.6 0  -0.9000000000000004 -4.6 0  -0.7999999999999998 -4.6 0  -0.7000000000000002 -4.6 0  -0.5999999999999996 -4.6 0  -0.5 -4.6 0  -0.4000000000000004 -4.6 0  -0.2999999999999998 -4.6 0  -0.2000000000000002 -4.6 0  -0.09999999999999964 -4.6 0  0 -4.6 0  0.09999999999999964 -4.6 0  0.2000000000000002 -4.6 0  0.2999999999999998 -4.6 0  0.4000000000000004 -4.6 0  0.5 -4.6 0  0.5999999999999996 -4.6 0  0.7000000000000002 -4.6 0  0.7999999999999998 -4.6 0  0.9000000000000004 -4.6 0  1 -4.6 0  1.1 -4.6 0  1.2 -4.6 0  1.3 -4.6 0  1.4 -4.6 0  1.5 -4.6 0  1.6 -4.6 0  1.7 -4.6 0  1.8 -4.6 0  1.9 -4.6 0  2 -4.6 0  2.1 -4.6 0  2.2 -4.6 0  2.3 -4.6 0  2.4 -4.6 0  2.5 -4.6 0  2.6 -4.6 0  2.7 -4.6 0  2.8 -4.6 0  2.9 -4.6 0  3 -4.6 0  3.1 -4.6 0  3.199999999999999 -4.6 0  3.300000000000001 -4.6 0  3.4 -4.6 0  3.5 -4.6 0  3.6 -4.6 0  3.699999999999999 -4.6 0  3.800000000000001 -4.6 0  3.9 -4.6 0  4 -4.6 0  4.1 -4.6 0  4.199999999999999 -4.6 0  4.300000000000001 -4.6 0  4.4 -4.6 0  4.5 -4.6 0  4.6 -4.6 0  4.699999999999999 -4.6 0  4.800000000000001 -4.6 0  4.9 -4.6 0  5 -4.6 0  -5 -4.5 0  -4.9 -4.5 0  -4.8 -4.5 0  -4.7 -4.5 0  -4.6 -4.5 0  -4.5 -4.5 0  -4.4 -4.5 0  -4.3 -4.5 0  -4.2 -4.5 0  -4.1 -4.5 0  -4 -4.5 0  -3.9 -4.5 0  -3.8 -4.5 0  -3.7 -4.5 0  -3.6 -4.5 0  -3.5 -4.5 0  -3.4 -4.5 0  -3.3 -4.5 0  -3.2 -4.5 0  -3.1 -4.5 0  -3 -4.5 0  -2.9 -4.5 0  -2.8 -4.5 0  -2.7 -4.5 0  -2.6 -4.5 0  -2.5 -4.5 0  -2.4 -4.5 0  -2.3 -4.5 0  -2.2 -4.5 0  -2.1 -4.5 0  -2 -4.5 0  -1.9 -4.5 0  -1.8 -4.5 0  -1.7 -4.5 0  -1.6 -4.5 0  -1.5 -4.5 0  -1.4 -4.5 0  -1.3 -4.5 0  -1.2 -4.5 0  -1.1 -4.5 0  -1 -4.5 0  -0.9000000000000004 -4.5 0  -0.7999999999999998 -4.5 0  -0.7000000000000002 -4.5 0  -0.5999999999999996 -4.5 0  -0.5 -4.5 0  -0.4000000000000004 -4.5 0  -0.2999999999999998 -4.5 0  -0.2000000000000002 -4.5 0  -0.09999999999999964 -4.5 0  0 -4.5 0  0.09999999999999964 -4.5 0  0.2000000000000002 -4.5 0  0.2999999999999998 -4.5 0  0.4000000000000004 -4.5 0  0.5 -4.5 0  0.5999999999999996 -4.5 0  0.7000000000000002 -4.5 0  0.7999999999999998 -4.5 0  0.9000000000000004 -4.5 0  1 -4.5 0  1.1 -4.5 0  1.2 -4.5 0  1.3 -4.5 0  1.4 -4.5 0  1.5 -4.5 0  1.6 -4.5 0  1.7 -4.5 0  1.8 -4.5 0  1.9 -4.5 0  2 -4.5 0  2.1 -4.5 0  2.2 -4.5 0  2.3 -4.5 0  2.4 -4.5 0  2.5 -4.5 0  2.6 -4.5 0  2.7 -4.5 0  2.8 -4.5 0  2.9 -4.5 0  3 -4.5 0  3.1 -4.5 0  3.199999999999999 -4.5 0  3.300000000000001 -4.5 0  3.4 -4.5 0  3.5 -4.5 0  3.6 -4.5 0  3.699999999999999 -4.5 0  3.800000000000001 -4.5 0  3.9 -4.5 0  4 -4.5 0  4.1 -4.5 0  4.199999999999999 -4.5 0  4.300000000000001 -4.5 0  4.4 -4.5 0  4.5 -4.5 0  4.6 -4.5 0  4.699999999999999 -4.5 0  4.800000000000001 -4.5 0  4.9 -4.5 0  5 -4.5 0  -5 -4.4 0  -4.9 -4.4 0  -4.8 -4.4 0  -4.7 -4.4 0  -4.6 -4.4 0  -4.5 -4.4 0  -4.4 -4.4 0  -4.3 -4.4 0  -4.2 -4.4 0  -4.1 -4.4 0  -4 -4.4 0  -3.9 -4.4 0  -3.8 -4.4 0  -3.7 -4.4 0  -3.6 -4.4 0  -3.5 -4.4 0  -3.4 -4.4 0  -3.3 -4.4 0  -3.2 -4.4 0  -3.1 -4.4 0  -3 -4.4 0  -2.9 -4.4 0  -2.8 -4.4 0  -2.7 -4.4 0  -2.6 -4.4 0  -2.5 -4.4 0  -2.4 -4.4 0  -2.3 -4.4 0  -2.2 -4.4 0  -2.1 -4.4 0  -2 -4.4 0  -1.9 -4.4 0  -1.8 -4.
[...]
<PointData  Vectors="f_23"> 
<DataArray  type="Float64"  Name="f_23"  NumberOfComponents="3" format="ascii">1.5000000000000022e-01 0.0000000000000000e+00 0.0000000000000000e+00  1.5000000000000005e-01 9.4864259729320755e-33 0.0000000000000000e+00  1.5000000000000019e-01 4.2376800929675653e-32 0.0000000000000000e+00  1.5000000000000022e-01 3.8458216544157353e-33 0.0000000000000000e+00  1.5000000000000030e-01 2.1861704474180312e-32 0.0000000000000000e+00  1.5000000000000002e-01 7.1205488958904489e-33 0.0000000000000000e+00  1.5000000000000011e-01 5.5063154537740901e-32 0.0000000000000000e+00  1.4999999999999997e-01 2.3919180648338581e-32 0.0000000000000000e+00  1.5000000000000027e-01 1.2557736183148476e-31 0.0000000000000000e+00  1.5000000000000002e-01 2.0716149678061749e-32 0.0000000000000000e+00  1.5000000000000013e-01 1.0631719853840102e-31 0.0000000000000000e+00  1.4999999999999988e-01 2.2615805097649038e-31 0.0000000000000000e+00  1.5000000000000036e-01 1.0627711377317815e-32 0.0000000000000000e+00  1.5000000000000002e-01 5.1625119178578552e-32 0.0000000000000000e+00  1.4999999999999963e-01 1.0979573959990194e-31 0.0000000000000000e+00  1.5000000000000022e-01 1.3324376232406200e-32 0.0000000000000000e+00  1.4999999999999980e-01 2.3156081292912206e-33 0.0000000000000000e+00  1.5000000000000019e-01 1.3918427365314759e-31 0.0000000000000000e+00  1.5000000000000013e-01 5.3126378200912451e-32 0.0000000000000000e+00  1.4999999999999974e-01 1.0716527384261551e-31 0.0000000000000000e+00  1.5000000000000030e-01 1.0119903792875824e-31 0.0000000000000000e+00  1.5000000000000030e-01 2.8065412209419609e-31 0.0000000000000000e+00  1.5000000000000194e-01 1.6526646076107117e-31 0.0000000000000000e+00  1.5000000000000357e-01 9.6765177919162085e-32 0.0000000000000000e+00  1.5000000000000341e-01 2.6065969837739504e-31 0.0000000000000000e+00  1.5000000000000113e-01 2.6533454700222390e-31 0.0000000000000000e+00  1.4999999999999764e-01 6.1477815607517902e-31 0.0000000000000000e+00  1.4999999999999575e-01 1.0441284875600023e-32 0.0000000000000000e+00  1.4999999999999700e-01 2.7378835999133359e-32 0.0000000000000000e+00  1.4999999999999944e-01 1.5165435135141544e-31 0.0000000000000000e+00  1.5000000000000122e-01 6.6928450873861389e-33 0.0000000000000000e+00  1.5000000000000069e-01 1.2029832078280144e-31 0.0000000000000000e+00  1.5000000000000011e-01 3.7503516740695896e-33 0.0000000000000000e+00  1.4999999999999983e-01 3.2651158155854040e-31 0.0000000000000000e+00  1.4999999999999983e-01 2.1966426640122391e-31 0.0000000000000000e+00  1.5000000000000019e-01 1.5030472117308400e-33 0.0000000000000000e+00  1.5000000000000002e-01 1.8716309177694848e-31 0.0000000000000000e+00  1.5000000000000002e-01 1.2027699152896932e-32 0.0000000000000000e+00  1.4999999999999974e-01 4.0986035457490501e-33 0.0000000000000000e+00  1.5000000000000013e-01 1.6778160180293016e-34 0.0000000000000000e+00  1.4999999999999997e-01 1.3985396115873995e-31 0.0000000000000000e+00  1.5000000000000002e-01 6.6273956485815830e-32 0.0000000000000000e+00  1.5000000000000013e-01 1.6931831194466016e-31 0.0000000000000000e+00  1.5000000000000027e-01 1.3864935730096240e-31 0.0000000000000000e+00  1.5000000000000005e-01 1.5333714314891337e-31 0.0000000000000000e+00  1.5000000000000013e-01 3.8366189801472889e-32 0.0000000000000000e+00  1.5000000000000022e-01 7.9198687608162390e-34 0.0000000000000000e+00  1.5000000000000030e-01 5.3988737974337260e-33 0.0000000000000000e+00  1.5000000000000041e-01 7.8128648062924983e-33 0.0000000000000000e+00  1.5000000000000030e-01 7.8906864873463052e-32 0.0000000000000000e+00  1.5000000000000019e-01 5.3096008142189449e-32 0.0000000000000000e+00  1.5000000000000022e-01 2.5644947534064274e-31 0.0000000000000000e+00  1.5000000000000030e-01 1.0475543828424550e-31 0.0000000000000000e+00  1.5000000000000013e-01 4.3895266429979812e-34 0.0000000000000000e+00  1.4999999999999980e-01 4.5583828768494224e-32 0.0000000000000000e+00  1.5000000000000022e-01 1.7211355648864027e-31 0.0000000000000000e+00  1.5000000000000041e-01 8.9417343549640324e-32 0.0000000000000000e+00  1.5000000000000036e-01 6.1324239586703887e-32 0.0000000000000000e+00  1.5000000000000002e-01 2.2172715419020140e-32 0.0000000000000000e+00  1.5000000000000011e-01 1.3108329477403904e-32 0.0000000000000000e+00  1.5000000000000011e-01 4.1996180977549859e-34 0.0000000000000000e+00  1.5000000000000005e-01 7.3463798377863252e-36 0.0000000000000000e+00  1.5000000000000013e-01 3.1940307437320693e-32 0.0000000000000000e+00  1.5000000000000049e-01 1.6510080694636761e-31 0.0000000000000000e+00  1.5000000000000019e-01 8.9788711141523171e-32 0.0000000000000000e+00  1.5000000000000022e-01 2.1087681564923700e-33 0.0000000000000000e+00  1.5000000000000027e-01 2.9099520054239247e-32 0.0000000000000000e+00  1.5000000000000013e-01 1.7121023755316174e-32 0.0000000000000000e+00  1.5000000000000022e-01 1.0653748931669265e-31 0.0000000000000000e+00  1.5000000000000027e-01 1.5092669144710529e-32 0.0000000000000000e+00  1.5000000000000019e-01 1.7247820159490694e-31 0.0000000000000000e+00  1.5000000000000005e-01 3.4132585423916760e-32 0.0000000000000000e+00  1.5000000000000049e-01 3.5812718257293717e-31 0.0000000000000000e+00  1.4999999999999966e-01 1.5175890796153146e-31 0.0000000000000000e+00  1.5000000000000044e-01 1.2721635088568881e-31 0.0000000000000000e+00  1.5000000000000019e-01 8.5155227687691595e-32 0.0000000000000000e+00  1.5000000000000002e-01 1.3628769089609845e-31 0.0000000000000000e+00  1.5000000000000013e-01 9.0699537443227128e-32 0.0000000000000000e+00  1.5000000000000005e-01 4.1677819969841810e-32 0.0000000000000000e+00  1.5000000000000011e-01 2.1911193469957194e-31 0.0000000000000000e+00  1.5000000000000027e-01 7.2304933024606351e-32 0.0000000000000000e+00  1.5000000000000013e-01 7.2004264643182181e-32 0.0000000000000000e+00  1.4999999999999991e-01 1.3154606101453765e-33 0.0000000000000000e+00  1.5000000000000041e-01 5.7119365812337407e-32 0.0000000000000000e+00  1.5000000000000022e-01 1.3403709163917254e-31 0.0000000000000000e+00  1.5000000000000036e-01 5.9644663851415380e-32 0.0000000000000000e+00  1.5000000000000013e-01 7.1031984765664651e-32 0.0000000000000000e+00  1.5000000000000052e-01 4.7311406771820918e-32 0.0000000000000000e+00  1.5000000000000011e-01 1.7281465802073927e-33 0.0000000000000000e+00  1.5000000000000049e-01 1.2420259313779325e-32 0.0000000000000000e+00  1.5000000000000013e-01 7.0137419669683451e-32 0.0000000000000000e+00  1.5000000000000013e-01 2.5561697676764709e-32 0.0000000000000000e+00  1.5000000000000022e-01 1.5972422002424032e-34 0.0000000000000000e+00  1.5000000000000027e-01 1.3301930433902763e-31 0.0000000000000000e+00  1.5000000000000011e-01 9.3958168461920884e-32 0.0000000000000000e+00  1.4999999999999974e-01 1.8420315751512370e-34 0.0000000000000000e+00  1.5000000000000019e-01 9.7007545523807080e-34 0.0000000000000000e+00  1.4999999999999983e-01 1.8363054830588328e-34 0.0000000000000000e+00  1.5000000000000005e-01 3.6052968796849262e-33 0.0000000000000000e+00  1.5000000000000011e-01 1.2263719300942618e-32 0.0000000000000000e+00  1.5000000000000019e-01 0.0000000000000000e+00 0.0000000000000000e+00  1.5000000000000022e-01 0.0000000000000000e+00 3.2668353833538442e-32  1.5000000000000011e-01 5.7062116580979684e-32 1.2115688594032657e-31  1.5000000000000013e-01 1.1652643056815031e-33 3.8694411470294947e-32  1.5000000000000011e-01 1.5086781013802062e-31 2.3795836317208102e-32  1.4999999999999991e-01 8.5237152173706760e-33 4.5685441007571320e-33  1.5000000000000019e-01 2.2907211474551858e-32 1.6586683191678162e-33  1.5000000000000005e-01 3.8030949525041270e-38 2.8586374238686795e-34  1.5000000000000019e-01 4.6623032724956018e-32 1.9547513867139114e-33  1.5000000000000011e-01 2.3313876050476846e-33 7.6971974859783430e-33  1.4999999999999988e-01 4.9360857603735824e-32 1.5952128717701211e-32  1.5000000000000013e-01 1.4542896195124591e-32 2.8964071409052606e-32  1.5000000000000011e-01 1.3640390153716157e-31 8.2128648246653747e-33  1.5000000000000022e-01 6.9324112843608542e-32 2.7062751868526054e-33  1.5000000000000013e-01 1.1638618102883853e-32 3.7067234620926267e-33  1.5000000000000013e-01 3.8822343131303189e-32 1.8114868588270485e-31  1.5000000000000027e-01 1.8999763935671848e-31 1.4107050439550346e-32  1.4999999999999983e-01 5.1099437237719842e-33 8.9007250807947156e-33  1.5000000000000005e-01 6.9050312306183530e-32 1.7566588660267487e-33  1.4999999999999991e-01 2.2904097011630938e-32 1.5258788610535301e-32  1.4999999999999997e-01 9.1726488986742064e-32 1.8658418961112084e-32  1.5000000000000011e-01 6.3733259993402049e-34 4.5176201902390009e-33  1.4999999999999949e-01 5.0255117330271752e-33 1.0716363181870725e-31  1.4999999999999808e-01 3.1819843613166278e-31 2.8892116573425032e-30  1.4999999999999636e-01 6.4095029451999011e-33 1.3050655731897281e-29  1.4999999999999497e-01 1.8616479160194107e-33 2.1307050276185769e-29  1.4999999999999700e-01 6.9385310109893274e-31 7.3090800534556441e-30  1.5000000000000160e-01 1.6529971833895891e-30 4.1576436741225870e-30  1.5000000000000568e-01 4.2042047195845002e-31 3.5111140836258798e-29  1.5000000000000577e-01 3.6495421123486397e-33 3.0620363167534323e-29  1.5000000000000241e-01 8.4822541998652020e-31 3.8684840800051652e-30  1.4999999999999919e-01 4.4152820387924171e-31 2.2058165465205184e-30  1.4999999999999880e-01 7.5250209182989223e-32 2.5623672233004508e-30  1.4999999999999983e-01 6.6611666584040631e-34 3.2104213520816474e-31  1.5000000000000058e-01 2.5340133471563390e-32 3.9653787161327981e-31  1.5000000000000027e-01 7.4257681431517814e-32 2.0290783993443560e-31  1.5000000000000011e-01 2.2593269868353513e-32 1.3365314343907704e-32  1.4999999999999991e-01 8.5228316842735101e-33 1.4644474756884399e-34  1.5000000000000011e-01 5.5371448571512962e-32 3.9473836131262522e-33  1.5000000000000011e-01 1.8235566326633805e-33 3.8443328938543851e-33  1.5000000000000013e-01 2.2132106611174732e-32 1.2489380787957661e-32  1.5000000000000011e-01 5.5770779086469129e-33 2.3351923046665148e-32  1.5000000000000019e-01 5.4541267480281136e-33 2.9992403939077656e-32  1.5000000000000011e-01 1.1225666546309047e-31 3.8666810949684543e-35  1.5000000000000013e-01 1.9654769911042622e-31 3.5169677770640118e-32  1.4999999999999991e-01 6.0169441163791060e-34 2.5360416045891794e-33  1.5000000000000044e-01 2.1880803974289377e-32 8.9607406951353639e-34  1.5000000000000013e-01 2.9692915769984211e-32 1.2857883868707090e-32  1.5000000000000013e-01 1.1187839741599624e-31 4.8404169640969771e-32  1.5000000000000013e-01 3.4731820633973595e-32 3.9789712727959387e-32  1.4999999999999997e-01 8.4417231731897179e-33 5.4618124037006675e-33  1.5000000000000019e-01 3.4025875850145907e-32 6.2980183089973429e-36  1.5000000000000022e-01 1.3954059596549811e-32 1.2613540539905384e-32  1.5000000000000019e-01 1.8920737356420103e-32 9.9065578585625408e-32  1.5000000000000022e-01 1.7799007827085143e-31 2.7313799995081552e-32  1.4999999999999983e-01 8.3548874061019098e-32 8.0480448259391421e-35  1.5000000000000019e-01 1.4257380504474490e-31 5.7485483224149091e-32  1.4999999999999991e-01 9.3950180786619927e-32 1.3199174317578305e-32  1.5000000000000027e-01 1.7086276085617754e-31 1.1349605857461092e-32  1.5000000000000013e-01 2.2335529054288108e-32 1.8827143780266082e-32  1.5000000000000005e-01 4.5620586007784532e-36 1.2441392777958928e-32  1.5000000000000013e-01 3.5334788878574515e-32 3.3705270791109336e-32  1.5000000000000005e-01 8.8715694115808331e-34 3.3227440147820801e-33  1.5000000000000027e-01 1.6318699405057844e-31 1.1748574242959799e-32  1.5000000000000002e-01 3.7278552055218660e-32 3.5134099344885729e-32  1.4999999999999983e-01 3.1248020406553769e-33 1.3351356982538704e-32  1.5000000000000036e-01 6.5158883144252104e-36 7.2926145109273132e-33  1.5000000000000011e-01 3.1173845301281476e-32 2.3233176517767820e-33  1.5000000000000027e-01 5.5664809065239256e-33 2.6648810384505075e-32  1.5000000000000013e-01 3.8401952750071071e-32 2.8898921469141487e-33  1.5000000000000002e-01 1.2611916951931132e-32 9.1313557449298735e-32  1.5000000000000019e-01 2.7319017988256243e-32 3.8437637234790879e-33  1.5000000000000022e-01 6.2828342915496384e-34 4.1796119835867092e-32  1.4999999999999983e-01 1.3679869830314977e-31 1.3029091864744696e-31  1.5000000000000022e-01 9.4245062268679945e-32 1.4537595905676394e-32  1.5000000000000030e-01 2.2954439259304091e-32 7.5787492419056155e-34  1.5000000000000002e-01 2.3071672677467894e-31 2.3425362371607721e-32  1.5000000000000022e-01 5.1426474073514767e-33 1.6661754826901170e-33  1.5000000000000002e-01 3.0863216987755603e-32 1.4259690813290801e-32  1.4999999999999974e-01 2.1514745597488616e-32 2.4148961160564721e-31  1.4999999999999991e-01 1.7391581293798471e-32 4.8736866491075891e-32  1.5000000000000011e-01 1.1592914720448251e-32 8.5983724831646209e-35  1.4999999999999991e-01 5.4253708247489933e-32 7.9222649296385451e-33  1.5000000000000030e-01 1.4928193744155873e-34 1.2851449258519031e-33  1.5000000000000011e-01 2.2644795726083248e-32 4.6453404092030986e-32  1.4999999999999997e-01 1.9408835356633328e-32 5.1634710651585273e-33  1.4999999999999991e-01 3.1375521730337612e-32 7.1013217358073004e-32  1.5000000000000013e-01 3.3453336182295997e-32 2.5778384814005896e-33  1.5000000000000013e-01 2.6906975319056166e-33 1.4446644537225933e-31  1.5000000000000013e-01 3.7342686422117410e-32 8.1224496854255321e-34  1.5000000000000019e-01 5.7516768328095291e-32 3.9659161325753847e-33  1.5000000000000005e-01 1.1052935268931240e-31 7.0131305095128124e-32  1.5000000000000030e-01 7.2482325648023678e-32 6.1297522893464875e-33  1.5000000000000013e-01 1.4111788612165475e-33 6.9701774182331374e-33  1.5000000000000011e-01 1.2014751283605448e-33 1.4206362229053527e-31  1.4999999999999997e-01 4.9306207220820650e-38 1.4722138791704528e-34  1.5000000000000011e-01 1.7511488945183773e-34 2.1254690190060001e-32  1.5000000000000011e-01 1.1692750126245786e-31 2.0574510573496494e-33  1.5000000000000005e-01 2.9264791286503770e-33 5.8766743891563553e-33  1.5000000000000019e-01 2.7432063906842533e-32 1.6797801215365069e-32  1.5000000000000011e-01 6.2888115122549974e-32 5.6391020850112190e-33  1.4999999999999983e-01 0.0000000000000000e+00 2.6237620473420051e-32  1.5000000000000044e-01 0.0000000000000000e+00 2.5611973370664766e-32  1.5000000000000013e-01 1.5300792688613513e-31 1.4606818773888366e-34  1.5000000000000036e-01 1.7320741145429009e-31 7.1083477215439220e-32  1.5000000000000019e-01 1.8911029868695974e-32 1.9715003552156492e-33  1.5000000000000002e-01 7.0661524263524368e-34 8.0641796841193314e-32  1.5000000000000030e-01 8.4644282665429857e-33 8.4380815541488225e-33  1.5000000000000013e-01 7.5297829845450148e-33 1.2273504659798502e-31  1.5000000000000005e-01 1.4458099479444242e-31 1.3350619992705142e-32  1.5000000000000022e-01 1.2804071126112506e-34 9.8393944154713650e-32  1.5000000000000011e-01 3.7930715836724263e-33 1.1550075080543626e-32  1.5000000000000013e-01 6.6836888653876505e-33 6.6974549773782474e-33  1.5000000000000027e-01 1.0550900465278649e-31 1.6124756237313162e-32  1.5000000000000005e-01 2.9285300465953156e-32 8.0130010986166959e-34  1.5000000000000019e-01 1.6452102508590711e-33 7.7087346840320587e-32  1.5000000000000011e-01 1.8271888014066288e-33 1.2705380270910285e-32  1.5000000000000011e-01 2.2240280885006388e-31 3.4147551241899558e-32  1.5000000000000005e-01 4.6490130149368085e-33 4.3887178651322656e-33  1.5000000000000022e-01 1.9329099391420911e-32 4.4802422882648076e-34  1.5000000000000011e-01 1.6655394012827484e-33 1.1915945369565938e-32  1.5000000000000011e-01 1.0845046638572359e-31 1.8088554904546097e-33  1.4999999999999991e-01 1.4426337822021497e-34 1.1858132392647751e-31  1.5000000000000036e-01 2.4199906262957482e-32 1.0981094949943951e-32  1.5000000000000221e-01 7.8410129850774866e-31 5.5597931246640559e-30  1.5000000000000574e-01 1.2133998354652714e-30 5.6795099096020316e-29  1.5000000000000899e-01 1.9381981915342096e-31 1.4790478611470857e-28  1.5000000000000857e-01 8.5150089225533026e-31 1.1582737127953924e-28  1.5000000000000077e-01 4.9064360852612351e-30 1.3398233759901364e-30  1.4999999999999158e-01 3.2341678234728232e-30 1.4373361045264175e-28  1.4999999999998734e-01 4.3924078500764428e-31 2.9187149715492849e-28  1.4999999999999206e-01 1.5273222907556080e-30 1.0717457115242821e-28  1.5000000000000011e-01 2.2836497647528134e-30 2.2488189393466728e-32  1.5000000000000363e-01 6.8282673951384368e-31 2.5162603557384488e-29  1.5000000000000210e-01 3.9551653586401698e-32 8.8654418256755547e-30  1.4999999999999972e-01 8.3792658136099342e-32 2.1486457208179298e-31  1.4999999999999880e-01 1.5747586661473785e-32 1.6562338564638116e-30  1.5000000000000022e-01 1.7314019566094190e-32 2.9599746453273479e-32  1.5000000000000019e-01 1.3900511492981494e-32 1.3776248958183557e-31  1.5000000000000027e-01 2.3429747607589508e-32 2.2175798325086498e-32  1.5000000000000005e-01 5.6909575834631596e-32 7.7341130436806890e-33  1.5000000000000030e-01 1.8956248951756574e-33 6.5343235328430140e-34  1.4999999999999997e-01 4.0151188693147525e-32 3.4778333119082465e-33  1.5000000000000019e-01 1.7109450021933653e-31 1.8718094278254721e-32  1.5000000000000011e-01 5.8588706204979034e-33 4.3320841916084557e-33  1.5000000000000011e-01 1.0000289392628572e-32 9.5077609020963564e-34  1.5000000000000022e-01 3.2683305298723455e-32 2.1620878826423653e-31  1.5000000000000036e-01 9.3179289839014559e-32 1.0007629907716098e-33  1.5000000000000005e-01 8.0435263141717973e-35 6.6483071619566306e-32  1.5000000000000022e-01 8.9621453807871047e-33 8.1325098919767797e-33  1.5000000000000030e-01 9.1866619952924308e-32 1.3170197549524367e-32  1.5000000000000022e-01 4.7598846834210630e-33 8.3708926586426897e-33  1.5000000000000013e-01 9.7201952073129420e-33 2.3465431091873450e-32  1.5000000000000013e-01 8.9917079391463546e-33 3.1864672596955741e-33  1.4999999999999997e-01 4.2282514784288401e-32 1.3089340731364542e-32  1.5000000000000005e-01 2.0398113290983597e-33 6.5322369128385668e-32  1.5000000000000011e-01 8.1407149332385070e-33 6.4322452818624334e-32  1.5000000000000027e-01 1.3350944329565374e-32 1.1200964045219305e-32  1.4999999999999991e-01 1.1910392498306152e-31 8.8850274087741200e-33  1.5000000000000036e-01 2.1128977340303184e-34 7.6920322183203839e-35  1.4999999999999997e-01 6.8629699992986624e-32 1.2553475392903110e-31  1.5000000000000027e-01 3.4221422397633231e-33 3.5818222903673377e-32  1.5000000000000002e-01 2.4969010222131128e-35 2.3961556389330624e-33  1.5000000000000044e-01 1.1558610899610970e-32 6.7227593250303000e-32  1.5000000000000013e-01 2.5244034275532793e-33 4.9236205002571267e-34  1.5000000000000041e-01 2.3075067381020152e-34 1.1710588365772928e-33  1.4999999999999983e-01 1.5075748785695556e-31 3.4251533955836813e-32  1.5000000000000049e-01 1.7225809975035713e-33 4.8431370504553044e-32  1.5000000000000019e-01 1.5210417220763670e-34 1.9430954690466139e-34  1.5000000000000030e-01 1.2480297691039757e-32 1.3667819128376787e-32  1.5000000000000013e-01 1.1664278717732702e-31 2.3225195267486950e-33  1.5000000000000019e-01 7.7571590733866022e-32 1.1766620764867004e-34  1.5000000000000044e-01 2.2398561593862912e-32 1.2013918446870313e-34  1.5000000000000027e-01 6.5740970727791151e-32 2.5106799148100758e-32  1.5000000000000005e-01 2.6815242022386479e-31 2.4468720781135936e-33  1.5000000000000011e-01 8.7675231336136348e-33 1.3750886688451550e-33  1.5000000000000002e-01 2.5528311780102453e-32 5.0803738297296437e-33  1.5000000000000013e-01 5.8112340546612961e-33 2.2400828403531027e-32  1.5000000000000002e-01 3.1999198084674727e-31 2.6603789601223011e-32  1.5000000000000019e-01 1.0473053656881536e-31 1.0499073263808629e-32  1.5000000000000013e-01 3.7168880026536596e-33 1.4352885616930507e-33  1.5000000000000027e-01 1.1907403884952580e-33 2.9440690708729647e-33  1.5000000000000013e-01 7.2652798458152002e-35 4.4151609551051690e-32  1.5000000000000013e-01 7.2444395769099599e-33 1.5724459904575090e-32  1.5000000000