<?xml version="1.0"?>
<VTKFile type="UnstructuredGrid"  version="0.1"  >
<UnstructuredGrid>
<Piece  NumberOfPoints="10201" NumberOfCells="20000">
<Points>
<DataArray  type="Float64"  NumberOfComponents="3"  format="ascii">-5 -5 0  -4.9 -5 0  -4.8 -5 0  -4.7 -5 0  -4.6 -5 0  -4.5 -5 0  -4.4 -5 0  -4.3 -5 0  -4.2 -5 0  -4.1 -5 0  -4 -5 0  -3.9 -5 0  -3.8 -5 0  -3.7 -5 0  -3.6 -5 0  -3.5 -5 0  -3.4 -5 0  -3.3 -5 0  -3.2 -5 0  -3.1 -5 0  -3 -5 0  -2.9 -5 0  -2.8 -5 0  -2.7 -5 0  -2.6 -5 0  -2.5 -5 0  -2.4 -5 0  -2.3 -5 0  -2.2 -5 0  -2.1 -5 0  -2 -5 0  -1.9 -5 0  -1.8 -5 0  -1.7 -5 0  -1.6 -5 0  -1.5 -5 0  -1.4 -5 0  -1.3 -5 0  -1.2 -5 0  -1.1 -5 0  -1 -5 0  -0.9000000000000004 -5 0  -0.7999999999999998 -5 0  -0.7000000000000002 -5 0  -0.5999999999999996 -5 0  -0.5 -5 0  -0.4000000000000004 -5 0  -0.2999999999999998 -5 0  -0.2000000000000002 -5 0  -0.09999999999999964 -5 0  0 -5 0  0.09999999999999964 -5 0  0.2000000000000002 -5 0  0.2999999999999998 -5 0  0.4000000000000004 -5 0  0.5 -5 0  0.5999999999999996 -5 0  0.7000000000000002 -5 0  0.7999999999999998 -5 0  0.9000000000000004 -5 0  1 -5 0  1.1 -5 0  1.2 -5 0  1.3 -5 0  1.4 -5 0  1.5 -5 0  1.6 -5 0  1.7 -5 0  1.8 -5 0  1.9 -5 0  2 -5 0  2.1 -5 0  2.2 -5 0  2.3 -5 0  2.4 -5 0  2.5 -5 0  2.6 -5 0  2.7 -5 0  2.8 -5 0  2.9 -5 0  3 -5 0  3.1 -5 0  3.199999999999999 -5 0  3.300000000000001 -5 0  3.4 -5 0  3.5 -5 0  3.6 -5 0  3.699999999999999 -5 0  3.800000000000001 -5 0  3.9 -5 0  4 -5 0  4.1 -5 0  4.199999999999999 -5 0  4.300000000000001 -5 0  4.4 -5 0  4.5 -5 0  4.6 -5 0  4.699999999999999 -5 0  4.800000000000001 -5 0  4.9 -5 0  5 -5 0  -5 -4.9 0  -4.9 -4.9 0  -4.8 -4.9 0  -4.7 -4.9 0  -4.6 -4.9 0  -4.5 -4.9 0  -4.4 -4.9 0  -4.3 -4.9 0  -4.2 -4.9 0  -4.1 -4.9 0  -4 -4.9 0  -3.9 -4.9 0  -3.8 -4.9 0  -3.7 -4.9 0  -3.6 -4.9 0  -3.5 -4.9 0  -3.4 -4.9 0  -3.3 -4.9 0  -3.2 -4.9 0  -3.1 -4.9 0  -3 -4.9 0  -2.9 -4.9 0  -2.8 -4.9 0  -2.7 -4.9 0  -2.6 -4.9 0  -2.5 -4.9 0  -2.4 -4.9 0  -2.3 -4.9 0  -2.2 -4.9 0  -2.1 -4.9 0  -2 -4.9 0  -1.9 -4.9 0  -1.8 -4.9 0  -1.7 -4.9 0  -1.6 -4.9 0  -1.5 -4.9 0  -1.4 -4.9 0  -1.3 -4.9 0  -1.2 -4.9 0  -1.1 -4.9 0  -1 -4.9 0  -0.9000000000000004 -4.9 0  -0.7999999999999998 -4.9 0  -0.7000000000000002 -4.9 0  -0.5999999999999996 -4.9 0  -0.5 -4.9 0  -0.4000000000000004 -4.9 0  -0.2999999999999998 -4.9 0  -0.2000000000000002 -4.9 0  -0.09999999999999964 -4.9 0  0 -4.9 0  0.09999999999999964 -4.9 0  0.2000000000000002 -4.9 0  0.2999999999999998 -4.9 0  0.4000000000000004 -4.9 0  0.5 -4.9 0  0.5999999999999996 -4.9 0  0.7000000000000002 -4.9 0  0.7999999999999998 -4.9 0  0.9000000000000004 -4.9 0  1 -4.9 0  1.1 -4.9 0  1.2 -4.9 0  1.3 -4.9 0  1.4 -4.9 0  1.5 -4.9 0  1.6 -4.9 0  1.7 -4.9 0  1.8 -4.9 0  1.9 -4.9 0  2 -4.9 0  2.1 -4.9 0  2.2 -4.9 0  2.3 -4.9 0  2.4 -4.9 0  2.5 -4.9 0  2.6 -4.9 0  2.7 -4.9 0  2.8 -4.9 0  2.9 -4.9 0  3 -4.9 0  3.1 -4.9 0  3.199999999999999 -4.9 0  3.300000000000001 -4.9 0  3.4 -4.9 0  3.5 -4.9 0  3.6 -4.9 0  3.699999999999999 -4.9 0  3.800000000000001 -4.9 0  3.9 -4.9 0  4 -4.9 0  4.1 -4.9 0  4.199999999999999 -4.9 0  4.300000000000001 -4.9 0  4.4 -4.9 0  4.5 -4.9 0  4.6 -4.9 0  4.699999999999999 -4.9 0  4.800000000000001 -4.9 0  4.9 -4.9 0  5 -4.9 0  -5 -4.8 0  -4.9 -4.8 0  -4.8 -4.8 0  -4.7 -4.8 0  -4.6 -4.8 0  -4.5 -4.8 0  -4.4 -4.8 0  -4.3 -4.8 0  -4.2 -4.8 0  -4.1 -4.8 0  -4 -4.8 0  -3.9 -4.8 0  -3.8 -4.8 0  -3.7 -4.8 0  -3.6 -4.8 0  -3.5 -4.8 0  -3.4 -4.8 0  -3.3 -4.8 0  -3.2 -4.8 0  -3.1 -4.8 0  -3 -4.8 0  -2.9 -4.8 0  -2.8 -4.8 0  -2.7 -4.8 0  -2.6 -4.8 0  -2.5 -4.8 0  -2.4 -4.8 0  -2.3 -4.8 0  -2.2 -4.8 0  -2.1 -4.8 0  -2 -4.8 0  -1.9 -4.8 0  -1.8 -4.8 0  -1.7 -4.8 0  -1.6 -4.8 0  -1.5 -4.8 0  -1.4 -4.8 0  -1.3 -4.8 0  -1.2 -4.8 0  -1.1 -4.8 0  -1 -4.8 0  -0.9000000000000004 -4.8 0  -0.7999999999999998 -4.8 0  -0.7000000000000002 -4.8 0  -0.5999999999999996 -4.8 0  -0.5 -4.8 0  -0.4000000000000004 -4.8 0  -0.2999999999999998 -4.8 0  -0.2000000000000002 -4.8 0  -0.09999999999999964 -4.8 0  0 -4.8 0  0.09999999999999964 -4.8 0  0.2000000000000002 -4.8 0  0.2999999999999998 -4.8 0  0.4000000000000004 -4.8 0  0.5 -4.8 0  0.5999999999999996 -4.8 0  0.7000000000000002 -4.8 0  0.7999999999999998 -4.8 0  0.9000000000000004 -4.8 0  1 -4.8 0  1.1 -4.8 0  1.2 -4.8 0  1.3 -4.8 0  1.4 -4.8 0  1.5 -4.8 0  1.6 -4.8 0  1.7 -4.8 0  1.8 -4.8 0  1.9 -4.8 0  2 -4.8 0  2.1 -4.8 0  2.2 -4.8 0  2.3 -4.8 0  2.4 -4.8 0  2.5 -4.8 0  2.6 -4.8 0  2.7 -4.8 0  2.8 -4.8 0  2.9 -4.8 0  3 -4.8 0  3.1 -4.8 0  3.199999999999999 -4.8 0  3.300000000000001 -4.8 0  3.4 -4.8 0  3.5 -4.8 0  3.6 -4.8 0  3.699999999999999 -4.8 0  3.800000000000001 -4.8 0  3.9 -4.8 0  4 -4.8 0  4.1 -4.8 0  4.199999999999999 -4.8 0  4.300000000000001 -4.8 0  4.4 -4.8 0  4.5 -4.8 0  4.6 -4.8 0  4.699999999999999 -4.8 0  4.800000000000001 -4.8 0  4.9 -4.8 0  5 -4.8 0  -5 -4.7 0  -4.9 -4.7 0  -4.8 -4.7 0  -4.7 -4.7 0  -4.6 -4.7 0  -4.5 -4.7 0  -4.4 -4.7 0  -4.3 -4.7 0  -4.2 -4.7 0  -4.1 -4.7 0  -4 -4.7 0  -3.9 -4.7 0  -3.8 -4.7 0  -3.7 -4.7 0  -3.6 -4.7 0  -3.5 -4.7 0  -3.4 -4.7 0  -3.3 -4.7 0  -3.2 -4.7 0  -3.1 -4.7 0  -3 -4.7 0  -2.9 -4.7 0  -2.8 -4.7 0  -2.7 -4.7 0  -2.6 -4.7 0  -2.5 -4.7 0  -2.4 -4.7 0  -2.3 -4.7 0  -2.2 -4.7 0  -2.1 -4.7 0  -2 -4.7 0  -1.9 -4.7 0  -1.8 -4.7 0  -1.7 -4.7 0  -1.6 -4.7 0  -1.5 -4.7 0  -1.4 -4.7 0  -1.3 -4.7 0  -1.2 -4.7 0  -1.1 -4.7 0  -1 -4.7 0  -0.9000000000000004 -4.7 0  -0.7999999999999998 -4.7 0  -0.7000000000000002 -4.7 0  -0.5999999999999996 -4.7 0  -0.5 -4.7 0  -0.4000000000000004 -4.7 0  -0.2999999999999998 -4.7 0  -0.2000000000000002 -4.7 0  -0.09999999999999964 -4.7 0  0 -4.7 0  0.09999999999999964 -4.7 0  0.2000000000000002 -4.7 0  0.2999999999999998 -4.7 0  0.4000000000000004 -4.7 0  0.5 -4.7 0  0.5999999999999996 -4.7 0  0.7000000000000002 -4.7 0  0.7999999999999998 -4.7 0  0.9000000000000004 -4.7 0  1 -4.7 0  1.1 -4.7 0  1.2 -4.7 0  1.3 -4.7 0  1.4 -4.7 0  1.5 -4.7 0  1.6 -4.7 0  1.7 -4.7 0  1.8 -4.7 0  1.9 -4.7 0  2 -4.7 0  2.1 -4.7 0  2.2 -4.7 0  2.3 -4.7 0  2.4 -4.7 0  2.5 -4.7 0  2.6 -4.7 0  2.7 -4.7 0  2.8 -4.7 0  2.9 -4.7 0  3 -4.7 0  3.1 -4.7 0  3.199999999999999 -4.7 0  3.300000000000001 -4.7 0  3.4 -4.7 0  3.5 -4.7 0  3.6 -4.7 0  3.699999999999999 -4.7 0  3.800000000000001 -4.7 0  3.9 -4.7 0  4 -4.7 0  4.1 -4.7 0  4.199999999999999 -4.7 0  4.300000000000001 -4.7 0  4.4 -4.7 0  4.5 -4.7 0  4.6 -4.7 0  4.699999999999999 -4.7 0  4.800000000000001 -4.7 0  4.9 -4.7 0  5 -4.7 0  -5 -4.6 0  -4.9 -4.6 0  -4.8 -4.6 0  -4.7 -4.6 0  -4.6 -4.6 0  -4.5 -4.6 0  -4.4 -4.6 0  -4.3 -4.6 0  -4.2 -4.6 0  -4.1 -4.6 0  -4 -4.6 0  -3.9 -4.6 0  -3.8 -4.6 0  -3.7 -4.6 0  -3.6 -4.6 0  -3.5 -4.6 0  -3.4 -4.6 0  -3.3 -4.6 0  -3.2 -4.6 0  -3.1 -4.6 0  -3 -4.6 0  -2.9 -4.6 0  -2.8 -4.6 0  -2.7 -4.6 0  -2.6 -4.6 0  -2.5 -4.6 0  -2.4 -4.6 0  -2.3 -4.6 0  -2.2 -4.6 0  -2.1 -4.6 0  -2 -4.6 0  -1.9 -4.6 0  -1.8 -4.6 0  -1.7 -4.6 0  -1.6 -4.6 0  -1.5 -4.6 0  -1.4 -4.6 0  -1.3 -4.6 0  -1.2 -4.6 0  -1.1 -4.6 0  -1 -4.6 0  -0.9000000000000004 -4.6 0  -0.7999999999999998 -4.6 0  -0.7000000000000002 -4.6 0  -0.5999999999999996 -4.6 0  -0.5 -4.6 0  -0.4000000000000004 -4.6 0  -0.2999999999999998 -4.6 0  -0.2000000000000002 -4.6 0  -0.09999999999999964 -4.6 0  0 -4.6 0  0.09999999999999964 -4.6 0  0.2000000000000002 -4.6 0  0.2999999999999998 -4.6 0  0.4000000000000004 -4.6 0  0.5 -4.6 0  0.5999999999999996 -4.6 0  0.7000000000000002 -4.6 0  0.7999999999999998 -4.6 0  0.9000000000000004 -4.6 0  1 -4.6 0  1.1 -4.6 0  1.2 -4.6 0  1.3 -4.6 0  1.4 -4.6 0  1.5 -4.6 0  1.6 -4.6 0  1.7 -4.6 0  1.8 -4.6 0  1.9 -4.6 0  2 -4.6 0  2.1 -4.6 0  2.2 -4.6 0  2.3 -4.6 0  2.4 -4.6 0  2.5 -4.6 0  2.6 -4.6 0  2.7 -4.6 0  2.8 -4.6 0  2.9 -4.6 0  3 -4.6 0  3.1 -4.6 0  3.199999999999999 -4.6 0  3.300000000000001 -4.6 0  3.4 -4.6 0  3.5 -4.6 0  3.6 -4.6 0  3.699999999999999 -4.6 0  3.800000000000001 -4.6 0  3.9 -4.6 0  4 -4.6 0  4.1 -4.6 0  4.199999999999999 -4.6 0  4.300000000000001 -4.6 0  4.4 -4.6 0  4.5 -4.6 0  4.6 -4.6 0  4.699999999999999 -4.6 0  4.800000000000001 -4.6 0  4.9 -4.6 0  5 -4.6 0  -5 -4.5 0  -4.9 -4.5 0  -4.8 -4.5 0  -4.7 -4.5 0  -4.6 -4.5 0  -4.5 -4.5 0  -4.4 -4.5 0  -4.3 -4.5 0  -4.2 -4.5 0  -4.1 -4.5 0  -4 -4.5 0  -3.9 -4.5 0  -3.8 -4.5 0  -3.7 -4.5 0  -3.6 -4.5 0  -3.5 -4.5 0  -3.4 -4.5 0  -3.3 -4.5 0  -3.2 -4.5 0  -3.1 -4.5 0  -3 -4.5 0  -2.9 -4.5 0  -2.8 -4.5 0  -2.7 -4.5 0  -2.6 -4.5 0  -2.5 -4.5 0  -2.4 -4.5 0  -2.3 -4.5 0  -2.2 -4.5 0  -2.1 -4.5 0  -2 -4.5 0  -1.9 -4.5 0  -1.8 -4.5 0  -1.7 -4.5 0  -1.6 -4.5 0  -1.5 -4.5 0  -1.4 -4.5 0  -1.3 -4.5 0  -1.2 -4.5 0  -1.1 -4.5 0  -1 -4.5 0  -0.9000000000000004 -4.5 0  -0.7999999999999998 -4.5 0  -0.7000000000000002 -4.5 0  -0.5999999999999996 -4.5 0  -0.5 -4.5 0  -0.4000000000000004 -4.5 0  -0.2999999999999998 -4.5 0  -0.2000000000000002 -4.5 0  -0.09999999999999964 -4.5 0  0 -4.5 0  0.09999999999999964 -4.5 0  0.2000000000000002 -4.5 0  0.2999999999999998 -4.5 0  0.4000000000000004 -4.5 0  0.5 -4.5 0  0.5999999999999996 -4.5 0  0.7000000000000002 -4.5 0  0.7999999999999998 -4.5 0  0.9000000000000004 -4.5 0  1 -4.5 0  1.1 -4.5 0  1.2 -4.5 0  1.3 -4.5 0  1.4 -4.5 0  1.5 -4.5 0  1.6 -4.5 0  1.7 -4.5 0  1.8 -4.5 0  1.9 -4.5 0  2 -4.5 0  2.1 -4.5 0  2.2 -4.5 0  2.3 -4.5 0  2.4 -4.5 0  2.5 -4.5 0  2.6 -4.5 0  2.7 -4.5 0  2.8 -4.5 0  2.9 -4.5 0  3 -4.5 0  3.1 -4.5 0  3.199999999999999 -4.5 0  3.300000000000001 -4.5 0  3.4 -4.5 0  3.5 -4.5 0  3.6 -4.5 0  3.699999999999999 -4.5 0  3.800000000000001 -4.5 0  3.9 -4.5 0  4 -4.5 0  4.1 -4.5 0  4.199999999999999 -4.5 0  4.300000000000001 -4.5 0  4.4 -4.5 0  4.5 -4.5 0  4.6 -4.5 0  4.699999999999999 -4.5 0  4.800000000000001 -4.5 0  4.9 -4.5 0  5 -4.5 0  -5 -4.4 0  -4.9 -4.4 0  -4.8 -4.4 0  -4.7 -4.4 0  -4.6 -4.4 0  -4.5 -4.4 0  -4.4 -4.4 0  -4.3 -4.4 0  -4.2 -4.4 0  -4.1 -4.4 0  -4 -4.4 0  -3.9 -4.4 0  -3.8 -4.4 0  -3.7 -4.4 0  -3.6 -4.4 0  -3.5 -4.4 0  -3.4 -4.4 0  -3.3 -4.4 0  -3.2 -4.4 0  -3.1 -4.4 0  -3 -4.4 0  -2.9 -4.4 0  -2.8 -4.4 0  -2.7 -4.4 0  -2.6 -4.4 0  -2.5 -4.4 0  -2.4 -4.4 0  -2.3 -4.4 0  -2.2 -4.4 0  -2.1 -4.4 0  -2 -4.4 0  -1.9 -4.4 0  -1.8 -4.
[...]
<PointData  Vectors="f_17"> 
<DataArray  type="Float64"  Name="f_17"  NumberOfComponents="3" format="ascii">1.5000000000000005e-01 0.0000000000000000e+00 0.0000000000000000e+00  1.5000000000000008e-01 -4.6816686493009612e-16 0.0000000000000000e+00  1.5000000000000002e-01 5.7592723289206010e-16 0.0000000000000000e+00  1.4999999999999999e-01 5.8337230691541892e-17 0.0000000000000000e+00  1.5000000000000005e-01 -4.2000724127783333e-16 0.0000000000000000e+00  1.5000000000000005e-01 -3.3965595856387499e-16 0.0000000000000000e+00  1.5000000000000030e-01 3.7141943337897484e-16 0.0000000000000000e+00  1.4999999999999983e-01 5.4863430749719995e-16 0.0000000000000000e+00  1.4999999999999999e-01 -3.7498484479168456e-16 0.0000000000000000e+00  1.4999999999999988e-01 -1.1526664101416122e-16 0.0000000000000000e+00  1.5000000000000008e-01 2.9067598379619042e-17 0.0000000000000000e+00  1.4999999999999997e-01 -2.1828934053015561e-16 0.0000000000000000e+00  1.5000000000000011e-01 -9.8152158741870143e-17 0.0000000000000000e+00  1.5000000000000005e-01 -3.9268130283528238e-17 0.0000000000000000e+00  1.5000000000000002e-01 5.0830249639350577e-16 0.0000000000000000e+00  1.5000000000000022e-01 -8.2372502106369453e-17 0.0000000000000000e+00  1.4999999999999997e-01 4.3086013185494325e-16 0.0000000000000000e+00  1.4999999999999997e-01 -6.2474180415780031e-16 0.0000000000000000e+00  1.5000000000000005e-01 3.7893682422500710e-16 0.0000000000000000e+00  1.5000000000000022e-01 -2.5337262121559263e-16 0.0000000000000000e+00  1.5000000000000011e-01 1.9065486292569771e-16 0.0000000000000000e+00  1.5000000000000022e-01 -4.2817229737372905e-16 0.0000000000000000e+00  1.5000000000000002e-01 3.0359530095797632e-16 0.0000000000000000e+00  1.4999999999999997e-01 1.4038458527754312e-16 0.0000000000000000e+00  1.5000000000000024e-01 -1.2099718536962885e-16 0.0000000000000000e+00  1.4999999999999997e-01 1.6474220963982932e-19 0.0000000000000000e+00  1.5000000000000024e-01 2.9666312040569805e-16 0.0000000000000000e+00  1.4999999999999999e-01 -5.5148632518280312e-16 0.0000000000000000e+00  1.4999999999999999e-01 2.9486275125436336e-16 0.0000000000000000e+00  1.5000000000000002e-01 -3.5835441579494449e-16 0.0000000000000000e+00  1.4999999999999999e-01 5.2274837226435252e-16 0.0000000000000000e+00  1.4999999999999999e-01 -1.3208201353610236e-16 0.0000000000000000e+00  1.5000000000000002e-01 1.8852898117055092e-16 0.0000000000000000e+00  1.4999999999999994e-01 -6.8347389373396426e-16 0.0000000000000000e+00  1.5000000000000030e-01 3.5426040058953339e-16 0.0000000000000000e+00  1.4999999999999999e-01 2.4880566287464014e-16 0.0000000000000000e+00  1.4999999999999997e-01 3.3334453153040424e-16 0.0000000000000000e+00  1.4999999999999999e-01 -6.0274468344731619e-16 0.0000000000000000e+00  1.5000000000000005e-01 1.7329423161156326e-16 0.0000000000000000e+00  1.4999999999999997e-01 -2.4904167774364926e-17 0.0000000000000000e+00  1.5000000000000005e-01 -2.9793611509659190e-16 0.0000000000000000e+00  1.5000000000000002e-01 3.4345055637260861e-17 0.0000000000000000e+00  1.5000000000000008e-01 3.1021265145094509e-16 0.0000000000000000e+00  1.4999999999999999e-01 -6.5119326097002029e-16 0.0000000000000000e+00  1.4999999999999999e-01 5.1801742833120839e-16 0.0000000000000000e+00  1.5000000000000022e-01 -3.6077126108089042e-16 0.0000000000000000e+00  1.4999999999999997e-01 3.5885302778077285e-16 0.0000000000000000e+00  1.5000000000000011e-01 -1.7599417589478549e-16 0.0000000000000000e+00  1.5000000000000016e-01 8.2196144233896660e-17 0.0000000000000000e+00  1.4999999999999997e-01 -3.1509205600843391e-16 0.0000000000000000e+00  1.5000000000000011e-01 1.7217294532481935e-17 0.0000000000000000e+00  1.5000000000000005e-01 3.6071674679819233e-16 0.0000000000000000e+00  1.4999999999999997e-01 1.3107298519452800e-16 0.0000000000000000e+00  1.5000000000000005e-01 -3.9174372568698366e-16 0.0000000000000000e+00  1.5000000000000008e-01 3.3680537364761807e-16 0.0000000000000000e+00  1.4999999999999983e-01 -1.1284219459381125e-16 0.0000000000000000e+00  1.5000000000000016e-01 7.0343716191980805e-17 0.0000000000000000e+00  1.4999999999999991e-01 -1.6087116946192079e-16 0.0000000000000000e+00  1.5000000000000013e-01 8.6929498249106981e-17 0.0000000000000000e+00  1.4999999999999999e-01 -1.4926695991967070e-16 0.0000000000000000e+00  1.5000000000000002e-01 1.5943946199100407e-16 0.0000000000000000e+00  1.5000000000000002e-01 -1.1356493842968585e-16 0.0000000000000000e+00  1.5000000000000005e-01 1.6981508924493926e-16 0.0000000000000000e+00  1.5000000000000002e-01 -5.6670579942040034e-17 0.0000000000000000e+00  1.4999999999999999e-01 5.4722164978348933e-17 0.0000000000000000e+00  1.5000000000000008e-01 -4.4002548298911126e-16 0.0000000000000000e+00  1.5000000000000011e-01 4.2225709836637049e-16 0.0000000000000000e+00  1.4999999999999999e-01 -6.6266094721100054e-17 0.0000000000000000e+00  1.5000000000000013e-01 -3.5408938339679543e-16 0.0000000000000000e+00  1.5000000000000011e-01 -1.1062686119251359e-16 0.0000000000000000e+00  1.5000000000000011e-01 -1.6906288900691408e-18 0.0000000000000000e+00  1.5000000000000005e-01 4.9726446216611068e-16 0.0000000000000000e+00  1.5000000000000002e-01 -3.7028848446887827e-16 0.0000000000000000e+00  1.5000000000000008e-01 2.6909338831829797e-16 0.0000000000000000e+00  1.5000000000000005e-01 8.7555188771050214e-17 0.0000000000000000e+00  1.4999999999999999e-01 -4.6915616082053734e-16 0.0000000000000000e+00  1.5000000000000016e-01 2.9582557143067368e-16 0.0000000000000000e+00  1.4999999999999980e-01 4.4504355210155649e-16 0.0000000000000000e+00  1.4999999999999999e-01 -2.8121567471477472e-16 0.0000000000000000e+00  1.4999999999999994e-01 -1.6034846326803750e-16 0.0000000000000000e+00  1.4999999999999999e-01 -4.0340139975709292e-16 0.0000000000000000e+00  1.5000000000000005e-01 3.2990120227521786e-16 0.0000000000000000e+00  1.5000000000000005e-01 -1.1452923643061340e-16 0.0000000000000000e+00  1.4999999999999997e-01 -4.9165888663618147e-17 0.0000000000000000e+00  1.5000000000000005e-01 8.3472311404190340e-17 0.0000000000000000e+00  1.5000000000000013e-01 1.5267753412824019e-16 0.0000000000000000e+00  1.4999999999999999e-01 -1.4992525690035361e-16 0.0000000000000000e+00  1.4999999999999994e-01 6.1582475214665416e-16 0.0000000000000000e+00  1.5000000000000002e-01 -6.2096906676980331e-16 0.0000000000000000e+00  1.5000000000000005e-01 2.9615885616863799e-16 0.0000000000000000e+00  1.5000000000000008e-01 -5.4350417755161556e-16 0.0000000000000000e+00  1.4999999999999999e-01 3.0672688743482192e-16 0.0000000000000000e+00  1.5000000000000008e-01 1.6508842314912051e-16 0.0000000000000000e+00  1.4999999999999966e-01 1.5617383404751529e-17 0.0000000000000000e+00  1.5000000000000002e-01 1.1872319128202743e-16 0.0000000000000000e+00  1.5000000000000002e-01 2.3378606658773687e-17 0.0000000000000000e+00  1.5000000000000002e-01 -2.8647903107414427e-16 0.0000000000000000e+00  1.4999999999999986e-01 -1.7844155547500534e-17 0.0000000000000000e+00  1.5000000000000005e-01 -1.8310225435446641e-16 0.0000000000000000e+00  1.5000000000000008e-01 1.2077361320596287e-16 0.0000000000000000e+00  1.5000000000000011e-01 0.0000000000000000e+00 0.0000000000000000e+00  1.4999999999999999e-01 0.0000000000000000e+00 -4.7836309239728181e-17  1.4999999999999999e-01 1.6198860444449980e-16 -4.9458198990198930e-17  1.5000000000000005e-01 -4.1927056188496531e-17 -9.9692821977271646e-17  1.5000000000000005e-01 -2.3483036162741233e-17 -3.5450064687608850e-16  1.5000000000000005e-01 -7.7593943085025188e-17 -2.6540521761531350e-16  1.5000000000000008e-01 -2.7398182544855103e-16 -5.3096615515058658e-17  1.5000000000000008e-01 5.1518353609309160e-16 -2.8001309414666310e-16  1.4999999999999999e-01 -4.8913755151866183e-18 1.2521058358398822e-17  1.5000000000000002e-01 -9.5312717599191080e-17 -8.1950432506081047e-17  1.5000000000000011e-01 -1.5566720803582229e-16 2.3451134861141237e-17  1.4999999999999999e-01 2.3157283938426435e-16 4.4257740452733286e-17  1.5000000000000002e-01 2.3681071730554220e-16 -5.8859202806619922e-17  1.5000000000000005e-01 -2.9418959285368946e-16 -4.3797416054158397e-17  1.4999999999999997e-01 3.2316929651363861e-16 3.3976172603301722e-17  1.4999999999999997e-01 -1.5151224227099142e-16 -1.1274603824298850e-16  1.4999999999999999e-01 -1.3504609242495572e-16 -2.6504216134376975e-16  1.4999999999999983e-01 6.1064651703679269e-17 -3.3546190727319730e-16  1.5000000000000005e-01 1.0977136990964294e-17 -2.0155527535103248e-16  1.5000000000000005e-01 -1.9339919892815020e-16 4.7382603063598492e-17  1.4999999999999999e-01 5.4036697715645447e-17 -3.7894996675695562e-16  1.4999999999999999e-01 -2.5974769711290546e-16 -2.3497909327852573e-17  1.5000000000000008e-01 -9.2382627745177789e-17 -3.1156270010222477e-16  1.5000000000000005e-01 4.6180966168606384e-16 -1.1759947741367268e-16  1.5000000000000008e-01 1.7389192499043728e-16 -2.0272815843391222e-16  1.4999999999999983e-01 -2.2506302532512039e-16 -3.2100860736296073e-16  1.5000000000000002e-01 1.0307194262180348e-16 -2.4621332336612599e-16  1.4999999999999994e-01 -4.7027516696590508e-16 -4.2782047934440899e-16  1.5000000000000002e-01 1.8522504996141095e-16 -3.1487831473957656e-16  1.5000000000000013e-01 3.0077761061747389e-17 -2.0289980266552039e-16  1.5000000000000013e-01 2.1700201702725438e-16 -3.1309060722291060e-16  1.4999999999999994e-01 1.0142445295598951e-16 -1.1195305018430448e-16  1.5000000000000005e-01 -3.7486979956667624e-16 -2.1411460462732074e-16  1.5000000000000005e-01 -1.5204890852308310e-16 8.7505362012881596e-17  1.5000000000000011e-01 2.9734858905069413e-18 -3.0285541542002292e-16  1.5000000000000005e-01 1.0713855345793683e-16 -2.9690707129419397e-16  1.4999999999999997e-01 1.6308123423748587e-16 -1.3133094971496159e-16  1.5000000000000008e-01 -3.7653563156026496e-16 -4.0595247137338812e-16  1.5000000000000008e-01 3.3359392213112598e-16 -3.7431836310368595e-16  1.5000000000000002e-01 1.3117047438762735e-16 9.7992209810480974e-17  1.5000000000000002e-01 3.6785484604693809e-17 -2.7929162346860346e-16  1.5000000000000005e-01 -3.0448230901787759e-16 1.4425114576583144e-16  1.5000000000000008e-01 6.5416602134133381e-17 9.7636731953475086e-17  1.5000000000000005e-01 7.0979868578507749e-17 -1.8189957705814851e-16  1.5000000000000011e-01 7.0538056865320135e-17 -2.9654600765477869e-17  1.5000000000000011e-01 -3.2379114994982630e-17 -5.4116028046110808e-17  1.5000000000000011e-01 3.9954453279145683e-17 9.3261814434547047e-17  1.5000000000000011e-01 1.2415772023188507e-16 -3.1259415052035682e-16  1.5000000000000005e-01 -1.6294815032412330e-16 1.2753962176087995e-16  1.5000000000000002e-01 5.1420503690930127e-17 9.5816931124258229e-17  1.5000000000000011e-01 -2.5323882208842756e-16 -8.6722005732195390e-17  1.5000000000000002e-01 3.4811717254788710e-16 2.5606585864292737e-17  1.5000000000000002e-01 -1.1877253536884534e-16 2.6900220293017767e-16  1.5000000000000008e-01 -3.8311144618768864e-17 -2.3301704089808356e-16  1.4999999999999988e-01 2.1162516633461949e-16 -2.7648477194973573e-16  1.4999999999999999e-01 -6.8929377903431917e-17 2.9952021341835503e-16  1.5000000000000005e-01 -9.1411437998961144e-17 -2.7234911760869689e-16  1.5000000000000005e-01 -4.4281616579748043e-17 -1.6148261233009056e-16  1.5000000000000002e-01 8.4409682547350200e-17 5.4172351658999385e-17  1.5000000000000008e-01 -5.6674291405929965e-17 -5.1011017934282723e-17  1.5000000000000002e-01 6.8937468548343639e-17 1.2546834654709968e-16  1.5000000000000002e-01 -2.2062419467745266e-16 8.2489994601634757e-17  1.5000000000000008e-01 1.5215519842403304e-18 -2.2412010900097512e-16  1.5000000000000005e-01 1.7257620795083726e-16 -1.0804599369483422e-16  1.5000000000000008e-01 -1.7959304664996285e-16 1.2745671296355757e-16  1.5000000000000011e-01 -1.4415289126531222e-16 -1.2570514214172961e-16  1.5000000000000008e-01 -1.7655715014459911e-16 1.0413296437538956e-16  1.5000000000000011e-01 3.9644541485796638e-16 -1.6387509403993824e-16  1.5000000000000024e-01 -7.4518746542364121e-17 1.6387610187495500e-17  1.5000000000000008e-01 -1.0229981183597917e-16 -1.5500103672997319e-18  1.5000000000000011e-01 8.1621233218286865e-17 1.6699301573095889e-17  1.4999999999999999e-01 4.7708845475600366e-16 2.5885574031963456e-16  1.5000000000000005e-01 -2.9222508292656708e-16 3.9153227337979355e-16  1.5000000000000005e-01 -2.2041379730348991e-16 9.7925211525697908e-17  1.5000000000000011e-01 -5.1643264576480114e-18 8.7015744811445144e-17  1.5000000000000002e-01 1.8963001411892829e-16 -6.5900269993171814e-17  1.5000000000000005e-01 5.9066479634153167e-17 1.3333872142804117e-16  1.5000000000000008e-01 -1.4534884968796249e-16 4.0648987493481514e-16  1.5000000000000016e-01 1.5257064925164162e-16 -9.2006541463718773e-17  1.5000000000000005e-01 -1.3588220207759013e-16 -2.2465774575158910e-16  1.5000000000000016e-01 -3.0757069979330287e-16 2.4441240189091435e-16  1.5000000000000005e-01 1.8302334214860196e-16 1.6550404458720766e-16  1.4999999999999999e-01 1.6940757831732347e-16 1.0349377373543488e-16  1.5000000000000002e-01 4.4580391080349462e-16 5.3067200862356121e-17  1.5000000000000008e-01 -2.6394169489399696e-16 3.2044280902803395e-16  1.5000000000000005e-01 -3.0178549140403411e-16 1.1372125193523217e-16  1.5000000000000008e-01 -1.0680268024035018e-16 -1.5855979408398524e-16  1.5000000000000005e-01 3.5675226124500480e-16 2.3213670876613127e-17  1.5000000000000005e-01 -7.3085386036109795e-17 3.3209664206518266e-16  1.5000000000000002e-01 -6.3448080583700840e-17 2.3196530877283280e-16  1.5000000000000011e-01 -4.3041381642664216e-16 3.4759053302650144e-16  1.5000000000000005e-01 3.1861230739563670e-16 -1.8951858213351198e-17  1.5000000000000008e-01 1.3608299107525638e-16 1.7296831268428655e-16  1.5000000000000005e-01 4.6770044039999863e-16 -1.3831477686226931e-16  1.4999999999999997e-01 -1.0390581686541969e-16 1.2644459058179199e-16  1.5000000000000002e-01 -3.7305725880280560e-16 1.6367727869272268e-16  1.5000000000000008e-01 -3.8616073134427880e-16 1.1068748069663562e-16  1.5000000000000011e-01 3.1220122420076050e-16 -3.6913544432266564e-16  1.5000000000000002e-01 4.0311860885028097e-16 6.1846666444852618e-17  1.4999999999999997e-01 6.1546447752409613e-17 4.3506557936243941e-16  1.5000000000000005e-01 -2.8588694830225094e-16 -1.8222245052773497e-17  1.4999999999999999e-01 0.0000000000000000e+00 1.4842582847249250e-16  1.4999999999999999e-01 0.0000000000000000e+00 5.5362354512008804e-17  1.5000000000000013e-01 -2.4252645736635983e-16 3.0396845229202458e-16  1.5000000000000011e-01 -3.0583053443691644e-16 -1.3645993149804589e-16  1.5000000000000005e-01 2.5540314817754158e-16 3.3978777807944307e-17  1.4999999999999994e-01 -1.8619956837420631e-16 -1.6647510711524802e-16  1.5000000000000008e-01 4.7007346993141629e-17 -7.7071814943700717e-17  1.5000000000000011e-01 -2.5261548481532320e-16 2.8203156513350291e-16  1.5000000000000005e-01 4.8719586533108252e-16 -4.4428971350684272e-16  1.5000000000000005e-01 2.5534681260433674e-16 -3.9820486094294221e-16  1.4999999999999997e-01 -8.5105520708019410e-17 1.2298596908159673e-16  1.5000000000000002e-01 -1.4347742611769851e-17 1.1258220602587164e-16  1.5000000000000005e-01 -7.6480907198506899e-17 -1.4899164516859617e-16  1.4999999999999994e-01 -5.9790560141156215e-16 1.3088813698776533e-16  1.5000000000000013e-01 4.0163373160774058e-16 -4.5871321328819434e-16  1.5000000000000005e-01 -4.2140846868389677e-16 8.7444300419470318e-18  1.5000000000000005e-01 1.3856925868470575e-16 -4.1990324977161144e-16  1.5000000000000008e-01 3.0025002003217097e-16 -2.3020588693124277e-16  1.5000000000000005e-01 1.0940078403406057e-16 -2.3147527132658768e-16  1.4999999999999999e-01 -3.8451747662358403e-17 -1.7958921556618938e-16  1.5000000000000011e-01 -1.9632708129312780e-16 1.6734720776892279e-16  1.5000000000000005e-01 1.1668979260716965e-16 -1.1865777680343702e-16  1.5000000000000002e-01 3.5089550463813063e-17 3.1616141504506687e-16  1.5000000000000005e-01 -5.5509363601331309e-17 1.7056859299380339e-16  1.4999999999999999e-01 5.0956471647578378e-17 -2.9573076908800159e-16  1.5000000000000008e-01 -1.4074022964479736e-16 7.1221531658083820e-17  1.5000000000000008e-01 -4.5009530157929277e-17 -2.4172641932483415e-17  1.5000000000000005e-01 -2.2645363454918867e-16 2.3818427265717223e-16  1.5000000000000011e-01 4.9014885483296363e-16 -9.7638679598039092e-17  1.4999999999999999e-01 -2.4944718167865124e-16 1.5698436220225689e-16  1.5000000000000022e-01 -9.0369239845425384e-17 -1.1847297871929865e-16  1.5000000000000011e-01 1.7116137876108172e-16 -3.3968022751750836e-16  1.5000000000000002e-01 8.0229617703431111e-17 1.6342145492456524e-16  1.5000000000000005e-01 2.6946194040730091e-16 -1.2998546562484351e-16  1.4999999999999999e-01 -1.9265084550400346e-16 6.3582838262236600e-17  1.5000000000000005e-01 -3.4327845678499424e-16 6.5409115595419396e-16  1.5000000000000011e-01 7.6467731950917806e-17 -1.3173205715521458e-16  1.5000000000000008e-01 1.9163941179648763e-16 -1.3308079185902792e-16  1.4999999999999997e-01 5.6214186919927320e-16 3.9363885651929604e-16  1.4999999999999999e-01 -3.6083186710452174e-16 2.0110021030688032e-16  1.4999999999999999e-01 -2.3280686056566662e-16 -8.9456693649694198e-17  1.5000000000000005e-01 2.1246757565825573e-16 -2.3897227274318792e-16  1.4999999999999999e-01 -9.0954886206728513e-17 -1.1773229443828072e-16  1.5000000000000005e-01 -6.6826642646239189e-17 1.8428593154175888e-16  1.5000000000000005e-01 1.0689896450985096e-16 -9.2709167353421628e-17  1.4999999999999999e-01 -3.5003945239409356e-16 2.1756192550171815e-16  1.5000000000000008e-01 3.3894206746735532e-16 -2.4991425201555724e-16  1.4999999999999999e-01 -5.6762423705708484e-16 -2.3403129770870653e-17  1.5000000000000005e-01 5.5693023191179801e-16 -4.6819887298554892e-16  1.5000000000000005e-01 9.1573430699269739e-17 -2.7449299083663812e-16  1.5000000000000016e-01 -4.6297726922169127e-16 1.6611465670867309e-16  1.5000000000000005e-01 3.4107142591951454e-16 -1.8909554046296695e-16  1.5000000000000008e-01 -1.7825231186613026e-16 -1.6986159844096221e-16  1.5000000000000002e-01 3.6635318198084685e-17 -2.8323930914771529e-16  1.5000000000000013e-01 1.4768119455230169e-16 6.9788842745179850e-17  1.5000000000000005e-01 -1.0164852754177814e-16 -2.9444371419089789e-16  1.5000000000000005e-01 -8.5543853465677189e-17 -2.9667405848207671e-16  1.5000000000000002e-01 8.9555521623896477e-17 1.8648512454546413e-16  1.5000000000000013e-01 2.1182972887435234e-16 -1.3714898575939101e-16  1.4999999999999994e-01 -1.6025287228934760e-16 5.1941709699155722e-17  1.5000000000000002e-01 7.6121389998033839e-17 -2.1156944231599374e-16  1.5000000000000005e-01 -1.4519690394229070e-16 -2.2500215715263073e-16  1.5000000000000013e-01 -3.7069872295503805e-17 1.8359132332288642e-16  1.5000000000000005e-01 2.6050739134993247e-17 5.0804270526544547e-17  1.5000000000000005e-01 1.8656477334119763e-16 -3.2740089191389000e-16  1.5000000000000002e-01 -3.5569684928958268e-17 1.9224627208455432e-16  1.5000000000000002e-01 2.0934673968332196e-17 2.6774691003635404e-16  1.5000000000000005e-01 -3.0366719387407473e-16 1.2898728309566566e-16  1.5000000000000005e-01 3.0688736195946050e-16 -2.0113962589127501e-16  1.5000000000000005e-01 -2.1058897835231303e-16 -9.3266149674483512e-17  1.5000000000000016e-01 8.5065512878754309e-17 1.7457129525972933e-16  1.4999999999999994e-01 1.5363669902011401e-16 4.7577324890126210e-17  1.5000000000000005e-01 -3.2479879027067922e-16 -3.2093958951433253e-16  1.5000000000000005e-01 3.3372168938162113e-16 -3.9386604241802513e-16  1.5000000000000002e-01 -2.4129141187164883e-16 2.7234601977596006e-16  1.5000000000000005e-01 1.0508074611585394e-16 -9.3269744579547375e-17  1.5000000000000005e-01 2.6815606266276545e-16 -2.6831389225085589e-16  1.4999999999999997e-01 -1.5485221423345571e-16 1.8183449477005584e-16  1.5000000000000008e-01 -1.4745056832843999e-16 1.5401887374129370e-16  1.4999999999999999e-01 2.9246587932211841e-17 -2.4390935