<?xml version="1.0"?>
<VTKFile type="UnstructuredGrid"  version="0.1"  >
<UnstructuredGrid>
<Piece  NumberOfPoints="10201" NumberOfCells="20000">
<Points>
<DataArray  type="Float64"  NumberOfComponents="3"  format="ascii">-5 -5 0  -4.9 -5 0  -4.8 -5 0  -4.7 -5 0  -4.6 -5 0  -4.5 -5 0  -4.4 -5 0  -4.3 -5 0  -4.2 -5 0  -4.1 -5 0  -4 -5 0  -3.9 -5 0  -3.8 -5 0  -3.7 -5 0  -3.6 -5 0  -3.5 -5 0  -3.4 -5 0  -3.3 -5 0  -3.2 -5 0  -3.1 -5 0  -3 -5 0  -2.9 -5 0  -2.8 -5 0  -2.7 -5 0  -2.6 -5 0  -2.5 -5 0  -2.4 -5 0  -2.3 -5 0  -2.2 -5 0  -2.1 -5 0  -2 -5 0  -1.9 -5 0  -1.8 -5 0  -1.7 -5 0  -1.6 -5 0  -1.5 -5 0  -1.4 -5 0  -1.3 -5 0  -1.2 -5 0  -1.1 -5 0  -1 -5 0  -0.9000000000000004 -5 0  -0.7999999999999998 -5 0  -0.7000000000000002 -5 0  -0.5999999999999996 -5 0  -0.5 -5 0  -0.4000000000000004 -5 0  -0.2999999999999998 -5 0  -0.2000000000000002 -5 0  -0.09999999999999964 -5 0  0 -5 0  0.09999999999999964 -5 0  0.2000000000000002 -5 0  0.2999999999999998 -5 0  0.4000000000000004 -5 0  0.5 -5 0  0.5999999999999996 -5 0  0.7000000000000002 -5 0  0.7999999999999998 -5 0  0.9000000000000004 -5 0  1 -5 0  1.1 -5 0  1.2 -5 0  1.3 -5 0  1.4 -5 0  1.5 -5 0  1.6 -5 0  1.7 -5 0  1.8 -5 0  1.9 -5 0  2 -5 0  2.1 -5 0  2.2 -5 0  2.3 -5 0  2.4 -5 0  2.5 -5 0  2.6 -5 0  2.7 -5 0  2.8 -5 0  2.9 -5 0  3 -5 0  3.1 -5 0  3.199999999999999 -5 0  3.300000000000001 -5 0  3.4 -5 0  3.5 -5 0  3.6 -5 0  3.699999999999999 -5 0  3.800000000000001 -5 0  3.9 -5 0  4 -5 0  4.1 -5 0  4.199999999999999 -5 0  4.300000000000001 -5 0  4.4 -5 0  4.5 -5 0  4.6 -5 0  4.699999999999999 -5 0  4.800000000000001 -5 0  4.9 -5 0  5 -5 0  -5 -4.9 0  -4.9 -4.9 0  -4.8 -4.9 0  -4.7 -4.9 0  -4.6 -4.9 0  -4.5 -4.9 0  -4.4 -4.9 0  -4.3 -4.9 0  -4.2 -4.9 0  -4.1 -4.9 0  -4 -4.9 0  -3.9 -4.9 0  -3.8 -4.9 0  -3.7 -4.9 0  -3.6 -4.9 0  -3.5 -4.9 0  -3.4 -4.9 0  -3.3 -4.9 0  -3.2 -4.9 0  -3.1 -4.9 0  -3 -4.9 0  -2.9 -4.9 0  -2.8 -4.9 0  -2.7 -4.9 0  -2.6 -4.9 0  -2.5 -4.9 0  -2.4 -4.9 0  -2.3 -4.9 0  -2.2 -4.9 0  -2.1 -4.9 0  -2 -4.9 0  -1.9 -4.9 0  -1.8 -4.9 0  -1.7 -4.9 0  -1.6 -4.9 0  -1.5 -4.9 0  -1.4 -4.9 0  -1.3 -4.9 0  -1.2 -4.9 0  -1.1 -4.9 0  -1 -4.9 0  -0.9000000000000004 -4.9 0  -0.7999999999999998 -4.9 0  -0.7000000000000002 -4.9 0  -0.5999999999999996 -4.9 0  -0.5 -4.9 0  -0.4000000000000004 -4.9 0  -0.2999999999999998 -4.9 0  -0.2000000000000002 -4.9 0  -0.09999999999999964 -4.9 0  0 -4.9 0  0.09999999999999964 -4.9 0  0.2000000000000002 -4.9 0  0.2999999999999998 -4.9 0  0.4000000000000004 -4.9 0  0.5 -4.9 0  0.5999999999999996 -4.9 0  0.7000000000000002 -4.9 0  0.7999999999999998 -4.9 0  0.9000000000000004 -4.9 0  1 -4.9 0  1.1 -4.9 0  1.2 -4.9 0  1.3 -4.9 0  1.4 -4.9 0  1.5 -4.9 0  1.6 -4.9 0  1.7 -4.9 0  1.8 -4.9 0  1.9 -4.9 0  2 -4.9 0  2.1 -4.9 0  2.2 -4.9 0  2.3 -4.9 0  2.4 -4.9 0  2.5 -4.9 0  2.6 -4.9 0  2.7 -4.9 0  2.8 -4.9 0  2.9 -4.9 0  3 -4.9 0  3.1 -4.9 0  3.199999999999999 -4.9 0  3.300000000000001 -4.9 0  3.4 -4.9 0  3.5 -4.9 0  3.6 -4.9 0  3.699999999999999 -4.9 0  3.800000000000001 -4.9 0  3.9 -4.9 0  4 -4.9 0  4.1 -4.9 0  4.199999999999999 -4.9 0  4.300000000000001 -4.9 0  4.4 -4.9 0  4.5 -4.9 0  4.6 -4.9 0  4.699999999999999 -4.9 0  4.800000000000001 -4.9 0  4.9 -4.9 0  5 -4.9 0  -5 -4.8 0  -4.9 -4.8 0  -4.8 -4.8 0  -4.7 -4.8 0  -4.6 -4.8 0  -4.5 -4.8 0  -4.4 -4.8 0  -4.3 -4.8 0  -4.2 -4.8 0  -4.1 -4.8 0  -4 -4.8 0  -3.9 -4.8 0  -3.8 -4.8 0  -3.7 -4.8 0  -3.6 -4.8 0  -3.5 -4.8 0  -3.4 -4.8 0  -3.3 -4.8 0  -3.2 -4.8 0  -3.1 -4.8 0  -3 -4.8 0  -2.9 -4.8 0  -2.8 -4.8 0  -2.7 -4.8 0  -2.6 -4.8 0  -2.5 -4.8 0  -2.4 -4.8 0  -2.3 -4.8 0  -2.2 -4.8 0  -2.1 -4.8 0  -2 -4.8 0  -1.9 -4.8 0  -1.8 -4.8 0  -1.7 -4.8 0  -1.6 -4.8 0  -1.5 -4.8 0  -1.4 -4.8 0  -1.3 -4.8 0  -1.2 -4.8 0  -1.1 -4.8 0  -1 -4.8 0  -0.9000000000000004 -4.8 0  -0.7999999999999998 -4.8 0  -0.7000000000000002 -4.8 0  -0.5999999999999996 -4.8 0  -0.5 -4.8 0  -0.4000000000000004 -4.8 0  -0.2999999999999998 -4.8 0  -0.2000000000000002 -4.8 0  -0.09999999999999964 -4.8 0  0 -4.8 0  0.09999999999999964 -4.8 0  0.2000000000000002 -4.8 0  0.2999999999999998 -4.8 0  0.4000000000000004 -4.8 0  0.5 -4.8 0  0.5999999999999996 -4.8 0  0.7000000000000002 -4.8 0  0.7999999999999998 -4.8 0  0.9000000000000004 -4.8 0  1 -4.8 0  1.1 -4.8 0  1.2 -4.8 0  1.3 -4.8 0  1.4 -4.8 0  1.5 -4.8 0  1.6 -4.8 0  1.7 -4.8 0  1.8 -4.8 0  1.9 -4.8 0  2 -4.8 0  2.1 -4.8 0  2.2 -4.8 0  2.3 -4.8 0  2.4 -4.8 0  2.5 -4.8 0  2.6 -4.8 0  2.7 -4.8 0  2.8 -4.8 0  2.9 -4.8 0  3 -4.8 0  3.1 -4.8 0  3.199999999999999 -4.8 0  3.300000000000001 -4.8 0  3.4 -4.8 0  3.5 -4.8 0  3.6 -4.8 0  3.699999999999999 -4.8 0  3.800000000000001 -4.8 0  3.9 -4.8 0  4 -4.8 0  4.1 -4.8 0  4.199999999999999 -4.8 0  4.300000000000001 -4.8 0  4.4 -4.8 0  4.5 -4.8 0  4.6 -4.8 0  4.699999999999999 -4.8 0  4.800000000000001 -4.8 0  4.9 -4.8 0  5 -4.8 0  -5 -4.7 0  -4.9 -4.7 0  -4.8 -4.7 0  -4.7 -4.7 0  -4.6 -4.7 0  -4.5 -4.7 0  -4.4 -4.7 0  -4.3 -4.7 0  -4.2 -4.7 0  -4.1 -4.7 0  -4 -4.7 0  -3.9 -4.7 0  -3.8 -4.7 0  -3.7 -4.7 0  -3.6 -4.7 0  -3.5 -4.7 0  -3.4 -4.7 0  -3.3 -4.7 0  -3.2 -4.7 0  -3.1 -4.7 0  -3 -4.7 0  -2.9 -4.7 0  -2.8 -4.7 0  -2.7 -4.7 0  -2.6 -4.7 0  -2.5 -4.7 0  -2.4 -4.7 0  -2.3 -4.7 0  -2.2 -4.7 0  -2.1 -4.7 0  -2 -4.7 0  -1.9 -4.7 0  -1.8 -4.7 0  -1.7 -4.7 0  -1.6 -4.7 0  -1.5 -4.7 0  -1.4 -4.7 0  -1.3 -4.7 0  -1.2 -4.7 0  -1.1 -4.7 0  -1 -4.7 0  -0.9000000000000004 -4.7 0  -0.7999999999999998 -4.7 0  -0.7000000000000002 -4.7 0  -0.5999999999999996 -4.7 0  -0.5 -4.7 0  -0.4000000000000004 -4.7 0  -0.2999999999999998 -4.7 0  -0.2000000000000002 -4.7 0  -0.09999999999999964 -4.7 0  0 -4.7 0  0.09999999999999964 -4.7 0  0.2000000000000002 -4.7 0  0.2999999999999998 -4.7 0  0.4000000000000004 -4.7 0  0.5 -4.7 0  0.5999999999999996 -4.7 0  0.7000000000000002 -4.7 0  0.7999999999999998 -4.7 0  0.9000000000000004 -4.7 0  1 -4.7 0  1.1 -4.7 0  1.2 -4.7 0  1.3 -4.7 0  1.4 -4.7 0  1.5 -4.7 0  1.6 -4.7 0  1.7 -4.7 0  1.8 -4.7 0  1.9 -4.7 0  2 -4.7 0  2.1 -4.7 0  2.2 -4.7 0  2.3 -4.7 0  2.4 -4.7 0  2.5 -4.7 0  2.6 -4.7 0  2.7 -4.7 0  2.8 -4.7 0  2.9 -4.7 0  3 -4.7 0  3.1 -4.7 0  3.199999999999999 -4.7 0  3.300000000000001 -4.7 0  3.4 -4.7 0  3.5 -4.7 0  3.6 -4.7 0  3.699999999999999 -4.7 0  3.800000000000001 -4.7 0  3.9 -4.7 0  4 -4.7 0  4.1 -4.7 0  4.199999999999999 -4.7 0  4.300000000000001 -4.7 0  4.4 -4.7 0  4.5 -4.7 0  4.6 -4.7 0  4.699999999999999 -4.7 0  4.800000000000001 -4.7 0  4.9 -4.7 0  5 -4.7 0  -5 -4.6 0  -4.9 -4.6 0  -4.8 -4.6 0  -4.7 -4.6 0  -4.6 -4.6 0  -4.5 -4.6 0  -4.4 -4.6 0  -4.3 -4.6 0  -4.2 -4.6 0  -4.1 -4.6 0  -4 -4.6 0  -3.9 -4.6 0  -3.8 -4.6 0  -3.7 -4.6 0  -3.6 -4.6 0  -3.5 -4.6 0  -3.4 -4.6 0  -3.3 -4.6 0  -3.2 -4.6 0  -3.1 -4.6 0  -3 -4.6 0  -2.9 -4.6 0  -2.8 -4.6 0  -2.7 -4.6 0  -2.6 -4.6 0  -2.5 -4.6 0  -2.4 -4.6 0  -2.3 -4.6 0  -2.2 -4.6 0  -2.1 -4.6 0  -2 -4.6 0  -1.9 -4.6 0  -1.8 -4.6 0  -1.7 -4.6 0  -1.6 -4.6 0  -1.5 -4.6 0  -1.4 -4.6 0  -1.3 -4.6 0  -1.2 -4.6 0  -1.1 -4.6 0  -1 -4.6 0  -0.9000000000000004 -4.6 0  -0.7999999999999998 -4.6 0  -0.7000000000000002 -4.6 0  -0.5999999999999996 -4.6 0  -0.5 -4.6 0  -0.4000000000000004 -4.6 0  -0.2999999999999998 -4.6 0  -0.2000000000000002 -4.6 0  -0.09999999999999964 -4.6 0  0 -4.6 0  0.09999999999999964 -4.6 0  0.2000000000000002 -4.6 0  0.2999999999999998 -4.6 0  0.4000000000000004 -4.6 0  0.5 -4.6 0  0.5999999999999996 -4.6 0  0.7000000000000002 -4.6 0  0.7999999999999998 -4.6 0  0.9000000000000004 -4.6 0  1 -4.6 0  1.1 -4.6 0  1.2 -4.6 0  1.3 -4.6 0  1.4 -4.6 0  1.5 -4.6 0  1.6 -4.6 0  1.7 -4.6 0  1.8 -4.6 0  1.9 -4.6 0  2 -4.6 0  2.1 -4.6 0  2.2 -4.6 0  2.3 -4.6 0  2.4 -4.6 0  2.5 -4.6 0  2.6 -4.6 0  2.7 -4.6 0  2.8 -4.6 0  2.9 -4.6 0  3 -4.6 0  3.1 -4.6 0  3.199999999999999 -4.6 0  3.300000000000001 -4.6 0  3.4 -4.6 0  3.5 -4.6 0  3.6 -4.6 0  3.699999999999999 -4.6 0  3.800000000000001 -4.6 0  3.9 -4.6 0  4 -4.6 0  4.1 -4.6 0  4.199999999999999 -4.6 0  4.300000000000001 -4.6 0  4.4 -4.6 0  4.5 -4.6 0  4.6 -4.6 0  4.699999999999999 -4.6 0  4.800000000000001 -4.6 0  4.9 -4.6 0  5 -4.6 0  -5 -4.5 0  -4.9 -4.5 0  -4.8 -4.5 0  -4.7 -4.5 0  -4.6 -4.5 0  -4.5 -4.5 0  -4.4 -4.5 0  -4.3 -4.5 0  -4.2 -4.5 0  -4.1 -4.5 0  -4 -4.5 0  -3.9 -4.5 0  -3.8 -4.5 0  -3.7 -4.5 0  -3.6 -4.5 0  -3.5 -4.5 0  -3.4 -4.5 0  -3.3 -4.5 0  -3.2 -4.5 0  -3.1 -4.5 0  -3 -4.5 0  -2.9 -4.5 0  -2.8 -4.5 0  -2.7 -4.5 0  -2.6 -4.5 0  -2.5 -4.5 0  -2.4 -4.5 0  -2.3 -4.5 0  -2.2 -4.5 0  -2.1 -4.5 0  -2 -4.5 0  -1.9 -4.5 0  -1.8 -4.5 0  -1.7 -4.5 0  -1.6 -4.5 0  -1.5 -4.5 0  -1.4 -4.5 0  -1.3 -4.5 0  -1.2 -4.5 0  -1.1 -4.5 0  -1 -4.5 0  -0.9000000000000004 -4.5 0  -0.7999999999999998 -4.5 0  -0.7000000000000002 -4.5 0  -0.5999999999999996 -4.5 0  -0.5 -4.5 0  -0.4000000000000004 -4.5 0  -0.2999999999999998 -4.5 0  -0.2000000000000002 -4.5 0  -0.09999999999999964 -4.5 0  0 -4.5 0  0.09999999999999964 -4.5 0  0.2000000000000002 -4.5 0  0.2999999999999998 -4.5 0  0.4000000000000004 -4.5 0  0.5 -4.5 0  0.5999999999999996 -4.5 0  0.7000000000000002 -4.5 0  0.7999999999999998 -4.5 0  0.9000000000000004 -4.5 0  1 -4.5 0  1.1 -4.5 0  1.2 -4.5 0  1.3 -4.5 0  1.4 -4.5 0  1.5 -4.5 0  1.6 -4.5 0  1.7 -4.5 0  1.8 -4.5 0  1.9 -4.5 0  2 -4.5 0  2.1 -4.5 0  2.2 -4.5 0  2.3 -4.5 0  2.4 -4.5 0  2.5 -4.5 0  2.6 -4.5 0  2.7 -4.5 0  2.8 -4.5 0  2.9 -4.5 0  3 -4.5 0  3.1 -4.5 0  3.199999999999999 -4.5 0  3.300000000000001 -4.5 0  3.4 -4.5 0  3.5 -4.5 0  3.6 -4.5 0  3.699999999999999 -4.5 0  3.800000000000001 -4.5 0  3.9 -4.5 0  4 -4.5 0  4.1 -4.5 0  4.199999999999999 -4.5 0  4.300000000000001 -4.5 0  4.4 -4.5 0  4.5 -4.5 0  4.6 -4.5 0  4.699999999999999 -4.5 0  4.800000000000001 -4.5 0  4.9 -4.5 0  5 -4.5 0  -5 -4.4 0  -4.9 -4.4 0  -4.8 -4.4 0  -4.7 -4.4 0  -4.6 -4.4 0  -4.5 -4.4 0  -4.4 -4.4 0  -4.3 -4.4 0  -4.2 -4.4 0  -4.1 -4.4 0  -4 -4.4 0  -3.9 -4.4 0  -3.8 -4.4 0  -3.7 -4.4 0  -3.6 -4.4 0  -3.5 -4.4 0  -3.4 -4.4 0  -3.3 -4.4 0  -3.2 -4.4 0  -3.1 -4.4 0  -3 -4.4 0  -2.9 -4.4 0  -2.8 -4.4 0  -2.7 -4.4 0  -2.6 -4.4 0  -2.5 -4.4 0  -2.4 -4.4 0  -2.3 -4.4 0  -2.2 -4.4 0  -2.1 -4.4 0  -2 -4.4 0  -1.9 -4.4 0  -1.8 -4.
[...]
<PointData  Vectors="f_23"> 
<DataArray  type="Float64"  Name="f_23"  NumberOfComponents="3" format="ascii">1.5000000934563920e-01 0.0000000000000000e+00 0.0000000000000000e+00  1.5000000522962290e-01 1.2370456985420298e-16 0.0000000000000000e+00  1.5000003113973526e-01 1.9592994941443074e-16 0.0000000000000000e+00  1.5000006683552328e-01 2.8146672895420944e-15 0.0000000000000000e+00  1.5000017578983607e-01 1.1926821040088905e-14 0.0000000000000000e+00  1.5000038564873586e-01 6.3425900089500051e-14 0.0000000000000000e+00  1.5000081628859360e-01 2.3385098296755080e-13 0.0000000000000000e+00  1.5000155871865348e-01 7.5858650342528726e-13 0.0000000000000000e+00  1.5000274703510263e-01 1.8352363713623195e-12 0.0000000000000000e+00  1.5000434807977572e-01 3.4026193722672246e-12 0.0000000000000000e+00  1.5000615748980972e-01 4.1360381279349737e-12 0.0000000000000000e+00  1.5000761729383361e-01 2.4612041696820018e-12 0.0000000000000000e+00  1.5000795012379661e-01 2.5218217091500984e-14 0.0000000000000000e+00  1.5000644008505826e-01 4.2181734180276913e-12 0.0000000000000000e+00  1.5000305300609035e-01 1.9351189198223928e-11 0.0000000000000000e+00  1.4999870448511357e-01 3.2909837931440760e-11 0.0000000000000000e+00  1.4999509998425156e-01 2.5810204911127661e-11 0.0000000000000000e+00  1.4999397610345774e-01 5.7148971853584316e-12 0.0000000000000000e+00  1.4999594665935398e-01 1.5605428260364011e-12 0.0000000000000000e+00  1.4999982055851546e-01 1.9344113999966510e-11 0.0000000000000000e+00  1.5000345018936773e-01 3.4631567021360454e-11 0.0000000000000000e+00  1.5000506665376739e-01 2.4456640013872253e-11 0.0000000000000000e+00  1.5000378938329242e-01 3.1933945285967766e-12 0.0000000000000000e+00  1.5000038411093503e-01 3.1251717439481862e-12 0.0000000000000000e+00  1.4999788691678709e-01 1.0094949105381571e-11 0.0000000000000000e+00  1.4999901632028045e-01 2.0580452231104095e-12 0.0000000000000000e+00  1.5000260760908785e-01 2.4007014644507242e-12 0.0000000000000000e+00  1.5000514210451393e-01 6.0845673835937578e-12 0.0000000000000000e+00  1.5000495588499194e-01 2.1858195303697848e-13 0.0000000000000000e+00  1.5000270851201905e-01 2.8791866449017418e-12 0.0000000000000000e+00  1.4999994141268286e-01 4.5946008356500412e-12 0.0000000000000000e+00  1.4999848747827996e-01 4.7653809225250903e-12 0.0000000000000000e+00  1.4999911051735343e-01 2.3145850199622141e-12 0.0000000000000000e+00  1.5000125816706386e-01 3.3837557010492237e-12 0.0000000000000000e+00  1.5000350987567063e-01 1.5009071804872758e-11 0.0000000000000000e+00  1.5000212624131506e-01 1.0290885691840216e-12 0.0000000000000000e+00  1.4999624847954027e-01 3.4859704813058914e-11 0.0000000000000000e+00  1.4999519346175486e-01 3.1421906178859480e-13 0.0000000000000000e+00  1.5000364755994822e-01 4.3010375885609011e-11 0.0000000000000000e+00  1.5000654931144108e-01 2.2783645238937067e-12 0.0000000000000000e+00  1.4999630743809581e-01 4.1495092239206638e-11 0.0000000000000000e+00  1.4999310955889164e-01 2.6681396557526152e-12 0.0000000000000000e+00  1.5000427800007421e-01 3.4732407969269083e-11 0.0000000000000000e+00  1.5000592857002226e-01 1.0522767072589143e-12 0.0000000000000000e+00  1.4999489533656671e-01 2.6400399763780858e-11 0.0000000000000000e+00  1.4999605784283901e-01 3.4159123339263903e-16 0.0000000000000000e+00  1.5000558431795527e-01 1.7732552548677750e-11 0.0000000000000000e+00  1.5000143125832677e-01 1.0649870732141835e-12 0.0000000000000000e+00  1.4999478656207937e-01 9.5912089796050050e-12 0.0000000000000000e+00  1.5000093933944394e-01 3.3266919144982371e-12 0.0000000000000000e+00  1.5000388181835617e-01 3.4005772943652466e-12 0.0000000000000000e+00  1.4999747876300723e-01 4.6454165711843381e-12 0.0000000000000000e+00  1.4999805090332258e-01 3.7138594609094322e-13 0.0000000000000000e+00  1.5000294811529596e-01 3.8563532222891378e-12 0.0000000000000000e+00  1.5000006890131659e-01 1.4533638389714371e-13 0.0000000000000000e+00  1.4999768821313089e-01 1.8320223148105043e-12 0.0000000000000000e+00  1.5000115054838631e-01 8.7049276377613828e-13 0.0000000000000000e+00  1.5000111299889646e-01 3.2454667359367004e-13 0.0000000000000000e+00  1.4999854691767564e-01 9.7526723636893125e-13 0.0000000000000000e+00  1.5000000983793890e-01 9.5127242798927769e-15 0.0000000000000000e+00  1.5000102777915686e-01 4.4463425400965803e-13 0.0000000000000000e+00  1.4999938808945337e-01 1.9680215279780724e-13 0.0000000000000000e+00  1.4999965922925829e-01 4.7220169886012528e-14 0.0000000000000000e+00  1.5000062774641484e-01 1.9419265968183708e-13 0.0000000000000000e+00  1.4999983191050248e-01 1.4258995029109480e-14 0.0000000000000000e+00  1.4999969134003105e-01 5.1557764384953603e-14 0.0000000000000000e+00  1.5000031542008124e-01 5.2121280040155942e-14 0.0000000000000000e+00  1.4999998685877533e-01 3.8878855342477279e-19 0.0000000000000000e+00  1.4999980578106123e-01 2.3218130288491558e-14 0.0000000000000000e+00  1.5000014607944412e-01 1.1267194295700729e-14 0.0000000000000000e+00  1.5000001727595352e-01 5.6289227110699120e-16 0.0000000000000000e+00  1.4999989534658206e-01 7.4671440458248718e-15 0.0000000000000000e+00  1.5000006827177675e-01 2.4574444537286792e-15 0.0000000000000000e+00  1.5000001231430374e-01 3.0333681411669134e-16 0.0000000000000000e+00  1.4999994807065717e-01 2.0704047593812706e-15 0.0000000000000000e+00  1.5000003442159021e-01 6.6959421971561972e-16 0.0000000000000000e+00  1.5000000309540268e-01 4.8063753293409250e-17 0.0000000000000000e+00  1.4999997698535478e-01 4.5721807798792241e-16 0.0000000000000000e+00  1.5000001717920847e-01 1.7316272197185789e-16 0.0000000000000000e+00  1.4999999960236873e-01 7.6261265490383117e-18 0.0000000000000000e+00  1.4999998926882935e-01 1.3667411051984640e-16 0.0000000000000000e+00  1.5000001076575709e-01 1.0130198157562792e-16 0.0000000000000000e+00  1.4999999564565011e-01 1.0811715820770968e-17 0.0000000000000000e+00  1.4999999850463319e-01 3.7341185541766091e-18 0.0000000000000000e+00  1.5000000320712037e-01 7.5795385803118172e-18 0.0000000000000000e+00  1.4999999856054702e-01 1.7630968385089563e-19 0.0000000000000000e+00  1.4999999875786751e-01 5.3203840615847823e-18 0.0000000000000000e+00  1.5000000280751441e-01 1.2480684051176996e-17 0.0000000000000000e+00  1.4999999726791305e-01 9.0164427371932665e-18 0.0000000000000000e+00  1.5000000162450713e-01 2.3928561985766420e-18 0.0000000000000000e+00  1.4999999961158986e-01 2.6423935635461185e-20 0.0000000000000000e+00  1.4999999961963981e-01 3.3323963685400704e-19 0.0000000000000000e+00  1.5000000054921539e-01 3.8690862728428153e-19 0.0000000000000000e+00  1.4999999969593544e-01 5.7195502816508181e-20 0.0000000000000000e+00  1.4999999991925628e-01 5.7326891372027244e-20 0.0000000000000000e+00  1.5000000040624720e-01 3.5884701161568220e-19 0.0000000000000000e+00  1.4999999944221487e-01 5.5908293370714119e-19 0.0000000000000000e+00  1.5000000057548576e-01 4.6677854248096815e-19 0.0000000000000000e+00  1.4999999943406220e-01 3.2347550257327508e-19 0.0000000000000000e+00  1.5000000029973937e-01 8.4156495664940905e-20 0.0000000000000000e+00  1.4999999935326308e-01 0.0000000000000000e+00 0.0000000000000000e+00  1.5000000522962309e-01 0.0000000000000000e+00 1.2370458419134991e-16  1.4999998688233998e-01 6.7922008988931273e-23 6.7907884036892190e-23  1.4999998531949030e-01 3.6607167027067824e-16 3.3462407872266751e-16  1.4999994210286050e-01 8.3504826779250050e-16 1.1624144503220616e-15  1.4999987542298923e-01 8.6239141410193939e-15 8.5999710051543334e-15  1.4999969334126165e-01 3.4445003537579650e-14 3.9229403637828633e-14  1.4999936094356101e-01 1.6142632523966743e-13 1.7976259720844135e-13  1.4999871988339428e-01 5.2700135565675666e-13 6.5180859108423490e-13  1.4999769145587524e-01 1.4832729049215747e-12 2.0703948346405533e-12  1.4999617590206368e-01 3.0381612372840448e-12 5.2862537270607300e-12  1.4999434704389145e-01 4.5637397433162574e-12 1.0934736566215640e-11  1.4999257519208772e-01 3.9240838454823424e-12 1.7262138916538799e-11  1.4999161476532813e-01 9.1280967377195046e-13 1.9797646014696344e-11  1.4999224562792726e-01 1.0887085936892762e-12 1.4243427394895409e-11  1.4999487827204147e-01 1.2372887435579400e-11 4.4446077394437960e-12  1.4999896888082251e-01 3.0055409653421732e-11 1.3206753426147057e-15  1.5000311291711219e-01 3.2999196811813533e-11 2.8471800720221325e-12  1.5000549412362316e-01 1.4435156770160459e-11 3.8884906688172596e-12  1.5000492487735556e-01 1.3152366391509166e-13 4.9953444176239529e-13  1.5000184554458632e-01 9.5485072912880657e-12 1.5575725818866101e-12  1.4999816906320121e-01 2.7928141673442172e-11 6.5578863749072330e-12  1.4999581806191867e-01 2.8938616192873724e-11 5.9319931403910082e-12  1.4999587848444806e-01 9.9737883328188834e-12 8.9773322127351852e-13  1.4999836886028950e-01 5.4496295118822394e-14 1.3229740001126408e-12  1.5000133537909044e-01 6.2979262285952043e-12 5.5288424969054397e-12  1.5000163241992603e-01 4.3070095481316066e-12 1.6113820657903463e-12  1.4999870415764335e-01 1.6677734066188032e-13 1.8325769659287639e-12  1.4999557289517157e-01 5.2704266919782245e-12 8.9270771131262815e-12  1.4999477534008432e-01 2.0294925719361379e-12 5.9746050503387277e-12  1.4999626064776839e-01 1.1202237528139517e-12 6.5073949393445050e-13  1.4999894551394677e-01 5.0582391247667516e-12 4.2676762680712231e-13  1.5000107743489302e-01 4.1374992674214121e-12 1.6279792293445386e-12  1.5000104128863823e-01 2.9729377808095112e-12 3.2398680963998062e-13  1.4999935549949708e-01 2.5113563734053051e-14 1.3489219482637196e-12  1.4999746730684294e-01 9.9879674744188116e-12 5.4194604274348904e-12  1.4999718500853823e-01 2.1903597876601219e-12 9.3797966283282934e-13  1.5000095371087088e-01 1.8220313163556225e-11 5.7199843333573714e-12  1.5000496243847511e-01 1.2216077319803461e-11 7.8930977192246091e-12  1.5000058837849845e-01 1.7135962157051206e-11 3.9283436709521350e-12  1.4999350925941540e-01 1.9839669162419446e-11 1.6840819119834674e-11  1.4999850004707588e-01 1.3971403007521162e-11 2.6500366983290806e-12  1.5000721832939803e-01 1.9933198904191264e-11 2.0880420699044827e-11  1.5000116024991555e-01 1.1321930966918050e-11 3.1773617340871177e-12  1.4999275342781235e-01 1.4065592656408616e-11 1.8162476688900652e-11  1.5000023147189601e-01 9.8768838507265813e-12 5.6102263648912813e-12  1.5000646715696986e-01 7.0869006398347976e-12 1.0697415388582875e-11  1.4999794940008354e-01 8.8479719749796422e-12 9.0074862634463987e-12  1.4999516215360909e-01 2.1683691477134320e-12 3.1978737788257626e-12  1.5000351693674424e-01 7.3648217287345895e-12 1.0434087176376464e-11  1.5000259443612726e-01 1.3734766500534151e-13 2.4650534405334719e-14  1.4999597504880577e-01 5.1044917316102042e-12 7.7940906953271848e-12  1.4999971485950386e-01 2.5356977289306937e-13 1.3886426679354924e-12  1.5000340115878888e-01 2.5619624399006396e-12 3.0776437678407029e-12  1.4999856345519463e-01 1.0817512984921195e-12 3.3983804134172998e-12  1.4999802675517790e-01 6.8447369652862723e-13 2.3871968108628275e-13  1.5000213605591717e-01 1.3939204999659853e-12 2.9752453555966628e-12  1.5000039271375779e-01 1.0772202424792226e-14 2.7982133922639286e-13  1.4999817578120597e-01 9.2071044818369583e-13 1.0824812398032579e-12  1.5000071134244733e-01 1.5620467018981880e-13 9.4822689663447524e-13  1.5000093125842451e-01 2.6969070959228555e-13 4.8115723807567531e-14  1.4999895309133951e-01 3.2424020514953763e-13 6.9753593383763648e-13  1.4999995918337838e-01 4.5700562626928507e-15 1.1513577027758139e-13  1.5000075332088453e-01 2.0293466161468434e-13 1.4516676936688898e-13  1.4999956244826798e-01 4.6701646826300704e-14 2.2373204132561000e-13  1.4999976675118043e-01 3.5055204239926885e-14 1.7685588068189282e-15  1.5000044359261247e-01 7.1661252417987123e-14 8.5040579636979647e-14  1.4999986022481518e-01 1.8340138393065570e-15 5.0026003058354234e-14  1.4999980492653378e-01 2.3827821582236252e-14 1.4917789896611110e-15  1.5000022538368779e-01 1.7835154431516910e-14 2.9910494133216224e-14  1.4999996544923000e-01 1.0763001960330268e-16 9.8408370288506105e-15  1.4999988202123080e-01 9.1939582072938524e-15 1.4365027941061629e-15  1.5000010870131272e-01 3.9809045988606975e-15 8.3531085141176686e-15  1.4999999191064672e-01 2.4359665248258478e-16 2.1299803861555703e-15  1.4999993859078384e-01 2.8339344378195091e-15 4.4362567819340875e-16  1.5000005358392851e-01 1.0414665294339511e-15 2.0766396482432326e-15  1.4999999410124687e-01 5.4548210630361933e-17 5.9061295829223467e-16  1.4999997290416323e-01 6.5616726767353399e-16 5.6823933707194039e-17  1.5000002537456963e-01 2.4677861250033432e-16 4.3955897019497503e-16  1.4999999561133504e-01 1.4699823720734655e-17 1.7496503977445182e-16  1.4999998765045602e-01 2.0755901140832127e-16 2.0607078924403252e-18  1.5000001452587944e-01 1.3720751136361808e-16 9.5382064314800084e-17  1.4999999326412128e-01 8.7984767910186778e-18 7.4558934767806525e-17  1.4999999853402099e-01 1.0752499400984102e-17 7.5888278935060406e-18  1.5000000443972730e-01 1.4270997850704365e-17 4.0959745745205779e-18  1.4999999750275470e-01 2.9907750261121772e-19 9.6049439706816398e-18  1.4999999898923169e-01 7.6332891745186858e-18 1.7701271057566734e-18  1.5000000321423185e-01 1.5571409952588601e-17 1.1084937276204195e-18  1.4999999672728248e-01 9.0042525476093534e-18 5.7910625596521422e-18  1.5000000194973317e-01 1.3874094573925172e-18 5.5641532453082807e-18  1.4999999955268645e-01 7.8555359995370121e-20 2.0889721681176635e-18  1.4999999955183940e-01 6.6869699973557634e-19 1.7366553285093600e-19  1.5000000058388566e-01 3.0738352679067248e-19 5.6191522861712185e-20  1.4999999977623596e-01 5.1249652820179945e-21 1.6260028723749901e-19  1.4999999973437028e-01 4.2080008080672253e-19 5.1713016515953575e-20  1.5000000062874974e-01 9.1965701151930208e-19 5.2655909774890289e-21  1.4999999922380530e-01 9.8205101488801374e-19 1.0777883972203621e-19  1.5000000071855354e-01 6.7533339029517234e-19 1.9969464129960593e-19  1.4999999942444114e-01 3.1917837692162767e-19 2.1110271887351593e-19  1.5000000042218017e-01 1.4733119637059602e-19 1.6380025946073035e-19  1.4999999987814486e-01 2.7092275723310073e-20 2.7092124114864501e-20  1.5000000029973959e-01 0.0000000000000000e+00 8.4156581613164260e-20  1.5000003113973456e-01 0.0000000000000000e+00 1.9592994856935112e-16  1.4999998531949041e-01 3.3462406916980368e-16 3.6607167035225080e-16  1.5000003363417924e-01 5.3340085365692507e-17 5.3340080969008583e-17  1.5000002794523473e-01 2.2950892651822104e-15 3.2104791306365632e-15  1.5000012601864832e-01 2.4303353991020834e-15 1.0704166473408444e-14  1.5000023741703450e-01 3.3881676902674795e-14 7.3091508381324356e-14  1.5000057453157978e-01 1.0099900766750323e-13 3.0145555114002999e-13  1.5000110496179478e-01 4.7038124981493800e-13 1.2809368182949583e-12  1.5000211909456648e-01 1.2773171807985432e-12 4.2578804056501834e-12  1.5000358027976518e-01 3.2560418509052783e-12 1.2546109799185164e-11  1.5000560314677150e-01 5.5255533129993205e-12 2.9388369690309638e-11  1.5000773366045320e-01 6.7766079546594912e-12 5.5917571448978417e-11  1.5000946534535659e-01 3.6972710104420702e-12 8.0329302339066794e-11  1.5000976700061447e-01 2.9983944524345158e-14 8.2847342329598071e-11  1.5000802115060716e-01 6.4802489270864368e-12 5.1664693260434753e-11  1.5000422097989347e-01 2.7342182039439305e-11 1.2649834416733443e-11  1.4999959480495323e-01 4.3871986622412726e-11 2.7507902801817099e-13  1.4999590264027732e-01 3.1184276550745042e-11 9.8591640168982361e-12  1.4999486791856173e-01 5.5453595868322228e-12 8.8752492104430859e-12  1.4999682715865914e-01 2.5042450590117724e-12 8.7496395472305493e-14  1.5000030044965526e-01 2.0833255295178583e-11 8.0088377526872589e-12  1.5000310025232266e-01 3.1911316109213212e-11 1.8060331033030515e-11  1.5000392504273935e-01 1.9204813760716048e-11 1.0572024267375199e-11  1.5000235974554807e-01 1.6091347980546160e-12 9.5337649235610703e-14  1.4999929819405572e-01 2.8462959259447321e-12 9.1702255472169266e-12  1.4999774453095577e-01 5.4358975530059345e-12 1.4138976346193516e-11  1.4999995913927677e-01 1.8649079053460833e-13 1.2998175993767610e-13  1.5000377732915676e-01 4.0483459535378578e-12 1.6315547440260994e-11  1.5000551027671441e-01 5.3125867992340916e-12 2.7957754657756015e-11  1.5000463811146333e-01 8.5118408544694064e-15 1.1521375570698458e-11  1.5000233103501426e-01 5.5374474741334646e-12 4.0539970363940042e-13  1.4999963504553640e-01 5.7260855274471231e-12 2.4955781597055277e-12  1.4999865910578117e-01 3.2722718092748046e-12 3.3753883881445907e-12  1.5000028847990005e-01 9.5072828875090383e-13 1.8976757041467285e-13  1.5000238833616655e-01 3.7189194013413640e-12 1.0345929696038350e-11  1.5000302524570344e-01 1.0066732503602940e-11 1.2485149322966561e-11  1.5000075471466792e-01 3.8205158383923150e-12 2.2218381694890908e-13  1.4999609687841389e-01 3.1695792893240728e-11 2.9232469137504472e-11  1.4999652691314339e-01 7.0850885855146044e-13 5.6356490605145157e-12  1.5000448371589412e-01 4.3672801094079443e-11 4.2480806726106417e-11  1.5000549088803236e-01 1.5477020376513886e-14 1.9860337471819150e-11  1.4999505859094733e-01 4.3499936150294905e-11 5.0395218276460654e-11  1.4999405063591773e-01 1.6326690757045618e-17 2.3029523964579467e-11  1.5000565926308609e-01 3.4517153203625499e-11 5.7185740458108089e-11  1.5000485240733230e-01 2.0151729539570250e-13 1.1757394902613379e-11  1.4999370299825360e-01 2.2977548502905001e-11 5.8535103380785302e-11  1.4999742265517096e-01 1.3198985284062851e-12 8.0975682759343171e-13  1.5000626736834025e-01 1.2557018086010585e-11 4.7298786768512742e-11  1.4999985776166017e-01 3.1883310342048212e-12 3.4710398331351751e-12  1.4999482927758101e-01 5.0189424805725827e-12 2.4982877850591857e-11  1.5000241417207491e-01 4.5279269795876882e-12 1.4867355794219366e-11  1.5000312100479476e-01 9.8105188464752705e-13 5.3998059943008168e-12  1.4999648387695166e-01 4.2581529125038326e-12 1.9297119927994547e-11  1.4999925070796186e-01 4.4157681933589712e-15 1.1573544337432784e-13  1.5000322200392460e-01 2.5813205095638845e-12 1.1729375395164280e-11  1.4999888042971718e-01 6.0455648911464433e-13 4.4455705513627505e-12  1.4999808580656460e-01 8.0594370636978742e-13 2.4700582416460747e-12  1.5000191895366652e-01 1.0838815821359091e-12 6.3157012703734114e-12  1.5000036641226389e-01 2.8298515656947385e-14 4.7657073735936270e-14  1.4999836468419772e-01 7.7314651017462697e-13 3.0879458512638548e-12  1.5000069208400979e-01 1.1993754933224130e-13 1.4296468661594102e-12  1.5000075775880425e-01 2.1040681762187407e-13 3.0111378263172577e-13  1.4999904740930645e-01 2.6626443735954636e-13 1.4103181277298258e-12  1.5000007061319839e-01 6.4398663055250019e-16 1.3407943664796580e-13  1.5000060698116752e-01 1.4661278175081995e-13 3.3793925604021293e-13  1.4999955420116165e-01 4.9801488856150712e-14 4.0122922407477658e-13  1.4999989439471567e-01 1.4713546863334001e-14 1.5279643300002446e-15  1.5000036594429886e-01 5.4695920285863205e-14 1.5408950652761459e-13  1.4999981235116411e-01 6.0250035393998418e-15 9.2121033607462845e-14  1.4999989871269140e-01 1.0483402525455479e-14 1.2188282892255183e-15  1.5000019340917548e-01 1.5559147903711834e-14 4.8751602977642668e-14  1.4999992023607930e-01 5.5372385440469287e-16 2.0903029976705040e-14  1.4999993865829733e-01 4.2396443413929702e-15 7.8564310455812106e-16  1.5000009858343236e-01 4.5389612861224872e-15 1.2792172219250183e-14  1.4999995801377286e-01 1.8419855166006036e-16 5.5031809782472381e-15  1.4999997540808196e-01 8.7181963784446884e-16 6.7283832951148954e-17  1.5000004385188309e-01 9.1015264554658863e-16 2.6524515681654023e-15  1.4999998020887464e-01 1.3803408826245576e-17 1.4339831930331237e-15  1.4999998807858961e-01 3.6489102881051555e-16 1.0907675024881647e-19  1.5000002500644391e-01 5.1402081445909343e-16 5.8561032947035830e-16  1.4999998203695292e-01 1.4519627246298805e-16 5.6667218174342037e-16  1.5000000413252401e-01 1.9284580985984300e-19 8.2929635423531707e-17  1.5000000432