<?xml version="1.0"?>
<VTKFile type="UnstructuredGrid"  version="0.1"  >
<UnstructuredGrid>
<Piece  NumberOfPoints="10201" NumberOfCells="20000">
<Points>
<DataArray  type="Float64"  NumberOfComponents="3"  format="ascii">-5 -5 0  -4.9 -5 0  -4.8 -5 0  -4.7 -5 0  -4.6 -5 0  -4.5 -5 0  -4.4 -5 0  -4.3 -5 0  -4.2 -5 0  -4.1 -5 0  -4 -5 0  -3.9 -5 0  -3.8 -5 0  -3.7 -5 0  -3.6 -5 0  -3.5 -5 0  -3.4 -5 0  -3.3 -5 0  -3.2 -5 0  -3.1 -5 0  -3 -5 0  -2.9 -5 0  -2.8 -5 0  -2.7 -5 0  -2.6 -5 0  -2.5 -5 0  -2.4 -5 0  -2.3 -5 0  -2.2 -5 0  -2.1 -5 0  -2 -5 0  -1.9 -5 0  -1.8 -5 0  -1.7 -5 0  -1.6 -5 0  -1.5 -5 0  -1.4 -5 0  -1.3 -5 0  -1.2 -5 0  -1.1 -5 0  -1 -5 0  -0.9000000000000004 -5 0  -0.7999999999999998 -5 0  -0.7000000000000002 -5 0  -0.5999999999999996 -5 0  -0.5 -5 0  -0.4000000000000004 -5 0  -0.2999999999999998 -5 0  -0.2000000000000002 -5 0  -0.09999999999999964 -5 0  0 -5 0  0.09999999999999964 -5 0  0.2000000000000002 -5 0  0.2999999999999998 -5 0  0.4000000000000004 -5 0  0.5 -5 0  0.5999999999999996 -5 0  0.7000000000000002 -5 0  0.7999999999999998 -5 0  0.9000000000000004 -5 0  1 -5 0  1.1 -5 0  1.2 -5 0  1.3 -5 0  1.4 -5 0  1.5 -5 0  1.6 -5 0  1.7 -5 0  1.8 -5 0  1.9 -5 0  2 -5 0  2.1 -5 0  2.2 -5 0  2.3 -5 0  2.4 -5 0  2.5 -5 0  2.6 -5 0  2.7 -5 0  2.8 -5 0  2.9 -5 0  3 -5 0  3.1 -5 0  3.199999999999999 -5 0  3.300000000000001 -5 0  3.4 -5 0  3.5 -5 0  3.6 -5 0  3.699999999999999 -5 0  3.800000000000001 -5 0  3.9 -5 0  4 -5 0  4.1 -5 0  4.199999999999999 -5 0  4.300000000000001 -5 0  4.4 -5 0  4.5 -5 0  4.6 -5 0  4.699999999999999 -5 0  4.800000000000001 -5 0  4.9 -5 0  5 -5 0  -5 -4.9 0  -4.9 -4.9 0  -4.8 -4.9 0  -4.7 -4.9 0  -4.6 -4.9 0  -4.5 -4.9 0  -4.4 -4.9 0  -4.3 -4.9 0  -4.2 -4.9 0  -4.1 -4.9 0  -4 -4.9 0  -3.9 -4.9 0  -3.8 -4.9 0  -3.7 -4.9 0  -3.6 -4.9 0  -3.5 -4.9 0  -3.4 -4.9 0  -3.3 -4.9 0  -3.2 -4.9 0  -3.1 -4.9 0  -3 -4.9 0  -2.9 -4.9 0  -2.8 -4.9 0  -2.7 -4.9 0  -2.6 -4.9 0  -2.5 -4.9 0  -2.4 -4.9 0  -2.3 -4.9 0  -2.2 -4.9 0  -2.1 -4.9 0  -2 -4.9 0  -1.9 -4.9 0  -1.8 -4.9 0  -1.7 -4.9 0  -1.6 -4.9 0  -1.5 -4.9 0  -1.4 -4.9 0  -1.3 -4.9 0  -1.2 -4.9 0  -1.1 -4.9 0  -1 -4.9 0  -0.9000000000000004 -4.9 0  -0.7999999999999998 -4.9 0  -0.7000000000000002 -4.9 0  -0.5999999999999996 -4.9 0  -0.5 -4.9 0  -0.4000000000000004 -4.9 0  -0.2999999999999998 -4.9 0  -0.2000000000000002 -4.9 0  -0.09999999999999964 -4.9 0  0 -4.9 0  0.09999999999999964 -4.9 0  0.2000000000000002 -4.9 0  0.2999999999999998 -4.9 0  0.4000000000000004 -4.9 0  0.5 -4.9 0  0.5999999999999996 -4.9 0  0.7000000000000002 -4.9 0  0.7999999999999998 -4.9 0  0.9000000000000004 -4.9 0  1 -4.9 0  1.1 -4.9 0  1.2 -4.9 0  1.3 -4.9 0  1.4 -4.9 0  1.5 -4.9 0  1.6 -4.9 0  1.7 -4.9 0  1.8 -4.9 0  1.9 -4.9 0  2 -4.9 0  2.1 -4.9 0  2.2 -4.9 0  2.3 -4.9 0  2.4 -4.9 0  2.5 -4.9 0  2.6 -4.9 0  2.7 -4.9 0  2.8 -4.9 0  2.9 -4.9 0  3 -4.9 0  3.1 -4.9 0  3.199999999999999 -4.9 0  3.300000000000001 -4.9 0  3.4 -4.9 0  3.5 -4.9 0  3.6 -4.9 0  3.699999999999999 -4.9 0  3.800000000000001 -4.9 0  3.9 -4.9 0  4 -4.9 0  4.1 -4.9 0  4.199999999999999 -4.9 0  4.300000000000001 -4.9 0  4.4 -4.9 0  4.5 -4.9 0  4.6 -4.9 0  4.699999999999999 -4.9 0  4.800000000000001 -4.9 0  4.9 -4.9 0  5 -4.9 0  -5 -4.8 0  -4.9 -4.8 0  -4.8 -4.8 0  -4.7 -4.8 0  -4.6 -4.8 0  -4.5 -4.8 0  -4.4 -4.8 0  -4.3 -4.8 0  -4.2 -4.8 0  -4.1 -4.8 0  -4 -4.8 0  -3.9 -4.8 0  -3.8 -4.8 0  -3.7 -4.8 0  -3.6 -4.8 0  -3.5 -4.8 0  -3.4 -4.8 0  -3.3 -4.8 0  -3.2 -4.8 0  -3.1 -4.8 0  -3 -4.8 0  -2.9 -4.8 0  -2.8 -4.8 0  -2.7 -4.8 0  -2.6 -4.8 0  -2.5 -4.8 0  -2.4 -4.8 0  -2.3 -4.8 0  -2.2 -4.8 0  -2.1 -4.8 0  -2 -4.8 0  -1.9 -4.8 0  -1.8 -4.8 0  -1.7 -4.8 0  -1.6 -4.8 0  -1.5 -4.8 0  -1.4 -4.8 0  -1.3 -4.8 0  -1.2 -4.8 0  -1.1 -4.8 0  -1 -4.8 0  -0.9000000000000004 -4.8 0  -0.7999999999999998 -4.8 0  -0.7000000000000002 -4.8 0  -0.5999999999999996 -4.8 0  -0.5 -4.8 0  -0.4000000000000004 -4.8 0  -0.2999999999999998 -4.8 0  -0.2000000000000002 -4.8 0  -0.09999999999999964 -4.8 0  0 -4.8 0  0.09999999999999964 -4.8 0  0.2000000000000002 -4.8 0  0.2999999999999998 -4.8 0  0.4000000000000004 -4.8 0  0.5 -4.8 0  0.5999999999999996 -4.8 0  0.7000000000000002 -4.8 0  0.7999999999999998 -4.8 0  0.9000000000000004 -4.8 0  1 -4.8 0  1.1 -4.8 0  1.2 -4.8 0  1.3 -4.8 0  1.4 -4.8 0  1.5 -4.8 0  1.6 -4.8 0  1.7 -4.8 0  1.8 -4.8 0  1.9 -4.8 0  2 -4.8 0  2.1 -4.8 0  2.2 -4.8 0  2.3 -4.8 0  2.4 -4.8 0  2.5 -4.8 0  2.6 -4.8 0  2.7 -4.8 0  2.8 -4.8 0  2.9 -4.8 0  3 -4.8 0  3.1 -4.8 0  3.199999999999999 -4.8 0  3.300000000000001 -4.8 0  3.4 -4.8 0  3.5 -4.8 0  3.6 -4.8 0  3.699999999999999 -4.8 0  3.800000000000001 -4.8 0  3.9 -4.8 0  4 -4.8 0  4.1 -4.8 0  4.199999999999999 -4.8 0  4.300000000000001 -4.8 0  4.4 -4.8 0  4.5 -4.8 0  4.6 -4.8 0  4.699999999999999 -4.8 0  4.800000000000001 -4.8 0  4.9 -4.8 0  5 -4.8 0  -5 -4.7 0  -4.9 -4.7 0  -4.8 -4.7 0  -4.7 -4.7 0  -4.6 -4.7 0  -4.5 -4.7 0  -4.4 -4.7 0  -4.3 -4.7 0  -4.2 -4.7 0  -4.1 -4.7 0  -4 -4.7 0  -3.9 -4.7 0  -3.8 -4.7 0  -3.7 -4.7 0  -3.6 -4.7 0  -3.5 -4.7 0  -3.4 -4.7 0  -3.3 -4.7 0  -3.2 -4.7 0  -3.1 -4.7 0  -3 -4.7 0  -2.9 -4.7 0  -2.8 -4.7 0  -2.7 -4.7 0  -2.6 -4.7 0  -2.5 -4.7 0  -2.4 -4.7 0  -2.3 -4.7 0  -2.2 -4.7 0  -2.1 -4.7 0  -2 -4.7 0  -1.9 -4.7 0  -1.8 -4.7 0  -1.7 -4.7 0  -1.6 -4.7 0  -1.5 -4.7 0  -1.4 -4.7 0  -1.3 -4.7 0  -1.2 -4.7 0  -1.1 -4.7 0  -1 -4.7 0  -0.9000000000000004 -4.7 0  -0.7999999999999998 -4.7 0  -0.7000000000000002 -4.7 0  -0.5999999999999996 -4.7 0  -0.5 -4.7 0  -0.4000000000000004 -4.7 0  -0.2999999999999998 -4.7 0  -0.2000000000000002 -4.7 0  -0.09999999999999964 -4.7 0  0 -4.7 0  0.09999999999999964 -4.7 0  0.2000000000000002 -4.7 0  0.2999999999999998 -4.7 0  0.4000000000000004 -4.7 0  0.5 -4.7 0  0.5999999999999996 -4.7 0  0.7000000000000002 -4.7 0  0.7999999999999998 -4.7 0  0.9000000000000004 -4.7 0  1 -4.7 0  1.1 -4.7 0  1.2 -4.7 0  1.3 -4.7 0  1.4 -4.7 0  1.5 -4.7 0  1.6 -4.7 0  1.7 -4.7 0  1.8 -4.7 0  1.9 -4.7 0  2 -4.7 0  2.1 -4.7 0  2.2 -4.7 0  2.3 -4.7 0  2.4 -4.7 0  2.5 -4.7 0  2.6 -4.7 0  2.7 -4.7 0  2.8 -4.7 0  2.9 -4.7 0  3 -4.7 0  3.1 -4.7 0  3.199999999999999 -4.7 0  3.300000000000001 -4.7 0  3.4 -4.7 0  3.5 -4.7 0  3.6 -4.7 0  3.699999999999999 -4.7 0  3.800000000000001 -4.7 0  3.9 -4.7 0  4 -4.7 0  4.1 -4.7 0  4.199999999999999 -4.7 0  4.300000000000001 -4.7 0  4.4 -4.7 0  4.5 -4.7 0  4.6 -4.7 0  4.699999999999999 -4.7 0  4.800000000000001 -4.7 0  4.9 -4.7 0  5 -4.7 0  -5 -4.6 0  -4.9 -4.6 0  -4.8 -4.6 0  -4.7 -4.6 0  -4.6 -4.6 0  -4.5 -4.6 0  -4.4 -4.6 0  -4.3 -4.6 0  -4.2 -4.6 0  -4.1 -4.6 0  -4 -4.6 0  -3.9 -4.6 0  -3.8 -4.6 0  -3.7 -4.6 0  -3.6 -4.6 0  -3.5 -4.6 0  -3.4 -4.6 0  -3.3 -4.6 0  -3.2 -4.6 0  -3.1 -4.6 0  -3 -4.6 0  -2.9 -4.6 0  -2.8 -4.6 0  -2.7 -4.6 0  -2.6 -4.6 0  -2.5 -4.6 0  -2.4 -4.6 0  -2.3 -4.6 0  -2.2 -4.6 0  -2.1 -4.6 0  -2 -4.6 0  -1.9 -4.6 0  -1.8 -4.6 0  -1.7 -4.6 0  -1.6 -4.6 0  -1.5 -4.6 0  -1.4 -4.6 0  -1.3 -4.6 0  -1.2 -4.6 0  -1.1 -4.6 0  -1 -4.6 0  -0.9000000000000004 -4.6 0  -0.7999999999999998 -4.6 0  -0.7000000000000002 -4.6 0  -0.5999999999999996 -4.6 0  -0.5 -4.6 0  -0.4000000000000004 -4.6 0  -0.2999999999999998 -4.6 0  -0.2000000000000002 -4.6 0  -0.09999999999999964 -4.6 0  0 -4.6 0  0.09999999999999964 -4.6 0  0.2000000000000002 -4.6 0  0.2999999999999998 -4.6 0  0.4000000000000004 -4.6 0  0.5 -4.6 0  0.5999999999999996 -4.6 0  0.7000000000000002 -4.6 0  0.7999999999999998 -4.6 0  0.9000000000000004 -4.6 0  1 -4.6 0  1.1 -4.6 0  1.2 -4.6 0  1.3 -4.6 0  1.4 -4.6 0  1.5 -4.6 0  1.6 -4.6 0  1.7 -4.6 0  1.8 -4.6 0  1.9 -4.6 0  2 -4.6 0  2.1 -4.6 0  2.2 -4.6 0  2.3 -4.6 0  2.4 -4.6 0  2.5 -4.6 0  2.6 -4.6 0  2.7 -4.6 0  2.8 -4.6 0  2.9 -4.6 0  3 -4.6 0  3.1 -4.6 0  3.199999999999999 -4.6 0  3.300000000000001 -4.6 0  3.4 -4.6 0  3.5 -4.6 0  3.6 -4.6 0  3.699999999999999 -4.6 0  3.800000000000001 -4.6 0  3.9 -4.6 0  4 -4.6 0  4.1 -4.6 0  4.199999999999999 -4.6 0  4.300000000000001 -4.6 0  4.4 -4.6 0  4.5 -4.6 0  4.6 -4.6 0  4.699999999999999 -4.6 0  4.800000000000001 -4.6 0  4.9 -4.6 0  5 -4.6 0  -5 -4.5 0  -4.9 -4.5 0  -4.8 -4.5 0  -4.7 -4.5 0  -4.6 -4.5 0  -4.5 -4.5 0  -4.4 -4.5 0  -4.3 -4.5 0  -4.2 -4.5 0  -4.1 -4.5 0  -4 -4.5 0  -3.9 -4.5 0  -3.8 -4.5 0  -3.7 -4.5 0  -3.6 -4.5 0  -3.5 -4.5 0  -3.4 -4.5 0  -3.3 -4.5 0  -3.2 -4.5 0  -3.1 -4.5 0  -3 -4.5 0  -2.9 -4.5 0  -2.8 -4.5 0  -2.7 -4.5 0  -2.6 -4.5 0  -2.5 -4.5 0  -2.4 -4.5 0  -2.3 -4.5 0  -2.2 -4.5 0  -2.1 -4.5 0  -2 -4.5 0  -1.9 -4.5 0  -1.8 -4.5 0  -1.7 -4.5 0  -1.6 -4.5 0  -1.5 -4.5 0  -1.4 -4.5 0  -1.3 -4.5 0  -1.2 -4.5 0  -1.1 -4.5 0  -1 -4.5 0  -0.9000000000000004 -4.5 0  -0.7999999999999998 -4.5 0  -0.7000000000000002 -4.5 0  -0.5999999999999996 -4.5 0  -0.5 -4.5 0  -0.4000000000000004 -4.5 0  -0.2999999999999998 -4.5 0  -0.2000000000000002 -4.5 0  -0.09999999999999964 -4.5 0  0 -4.5 0  0.09999999999999964 -4.5 0  0.2000000000000002 -4.5 0  0.2999999999999998 -4.5 0  0.4000000000000004 -4.5 0  0.5 -4.5 0  0.5999999999999996 -4.5 0  0.7000000000000002 -4.5 0  0.7999999999999998 -4.5 0  0.9000000000000004 -4.5 0  1 -4.5 0  1.1 -4.5 0  1.2 -4.5 0  1.3 -4.5 0  1.4 -4.5 0  1.5 -4.5 0  1.6 -4.5 0  1.7 -4.5 0  1.8 -4.5 0  1.9 -4.5 0  2 -4.5 0  2.1 -4.5 0  2.2 -4.5 0  2.3 -4.5 0  2.4 -4.5 0  2.5 -4.5 0  2.6 -4.5 0  2.7 -4.5 0  2.8 -4.5 0  2.9 -4.5 0  3 -4.5 0  3.1 -4.5 0  3.199999999999999 -4.5 0  3.300000000000001 -4.5 0  3.4 -4.5 0  3.5 -4.5 0  3.6 -4.5 0  3.699999999999999 -4.5 0  3.800000000000001 -4.5 0  3.9 -4.5 0  4 -4.5 0  4.1 -4.5 0  4.199999999999999 -4.5 0  4.300000000000001 -4.5 0  4.4 -4.5 0  4.5 -4.5 0  4.6 -4.5 0  4.699999999999999 -4.5 0  4.800000000000001 -4.5 0  4.9 -4.5 0  5 -4.5 0  -5 -4.4 0  -4.9 -4.4 0  -4.8 -4.4 0  -4.7 -4.4 0  -4.6 -4.4 0  -4.5 -4.4 0  -4.4 -4.4 0  -4.3 -4.4 0  -4.2 -4.4 0  -4.1 -4.4 0  -4 -4.4 0  -3.9 -4.4 0  -3.8 -4.4 0  -3.7 -4.4 0  -3.6 -4.4 0  -3.5 -4.4 0  -3.4 -4.4 0  -3.3 -4.4 0  -3.2 -4.4 0  -3.1 -4.4 0  -3 -4.4 0  -2.9 -4.4 0  -2.8 -4.4 0  -2.7 -4.4 0  -2.6 -4.4 0  -2.5 -4.4 0  -2.4 -4.4 0  -2.3 -4.4 0  -2.2 -4.4 0  -2.1 -4.4 0  -2 -4.4 0  -1.9 -4.4 0  -1.8 -4.
[...]
<PointData  Vectors="f_23"> 
<DataArray  type="Float64"  Name="f_23"  NumberOfComponents="3" format="ascii">1.5000000000000030e-01 0.0000000000000000e+00 0.0000000000000000e+00  1.5000000000000019e-01 1.5608616014752581e-31 0.0000000000000000e+00  1.4999999999999958e-01 1.3349906382273914e-32 0.0000000000000000e+00  1.5000000000000041e-01 3.6419505722059153e-32 0.0000000000000000e+00  1.5000000000000013e-01 1.4273031113595151e-31 0.0000000000000000e+00  1.4999999999999941e-01 4.1740982788028702e-30 0.0000000000000000e+00  1.5000000000000865e-01 9.7761009464196146e-29 0.0000000000000000e+00  1.5000000000006258e-01 1.9318007437269689e-27 0.0000000000000000e+00  1.5000000000025943e-01 2.5255766805861613e-26 0.0000000000000000e+00  1.5000000000087485e-01 1.6088007267559614e-25 0.0000000000000000e+00  1.5000000000241881e-01 5.5669099437721683e-25 0.0000000000000000e+00  1.5000000000549976e-01 1.3921802463037400e-24 0.0000000000000000e+00  1.5000000001115418e-01 4.9229223859932766e-24 0.0000000000000000e+00  1.5000000002297711e-01 5.1729102177182164e-23 0.0000000000000000e+00  1.5000000005354580e-01 7.3844179069843653e-22 0.0000000000000000e+00  1.5000000013720563e-01 6.6979956451490791e-21 0.0000000000000000e+00  1.5000000033458805e-01 3.1966134176743157e-20 0.0000000000000000e+00  1.5000000067907987e-01 6.8819844941158203e-20 0.0000000000000000e+00  1.5000000102345354e-01 2.9119874538829481e-20 0.0000000000000000e+00  1.5000000087993981e-01 8.8115657309179184e-20 0.0000000000000000e+00  1.4999999954880408e-01 1.2808868325896933e-18 0.0000000000000000e+00  1.4999999679026799e-01 3.4555476487262462e-18 0.0000000000000000e+00  1.4999999368473257e-01 2.8751252033523919e-18 0.0000000000000000e+00  1.4999999251103438e-01 8.4241015614213032e-20 0.0000000000000000e+00  1.4999999487844931e-01 2.6717003693051613e-18 0.0000000000000000e+00  1.4999999963472582e-01 7.2481751069304389e-18 0.0000000000000000e+00  1.5000000346710038e-01 4.4688421818594494e-18 0.0000000000000000e+00  1.5000000417626153e-01 2.1751388652167874e-19 0.0000000000000000e+00  1.5000000249166776e-01 1.0001030995362383e-18 0.0000000000000000e+00  1.5000000024472857e-01 2.1079926646437563e-18 0.0000000000000000e+00  1.4999999846995243e-01 7.4741539908513646e-19 0.0000000000000000e+00  1.4999999806354197e-01 3.5575022873157173e-20 0.0000000000000000e+00  1.4999999969350050e-01 7.2087777248207447e-19 0.0000000000000000e+00  1.5000000170148275e-01 3.0079638490398877e-19 0.0000000000000000e+00  1.5000000126118107e-01 9.5403429752382943e-20 0.0000000000000000e+00  1.4999999901669861e-01 4.0959201217446669e-19 0.0000000000000000e+00  1.4999999860654162e-01 5.4815620673867149e-21 0.0000000000000000e+00  1.5000000046746853e-01 2.3081168986422107e-19 0.0000000000000000e+00  1.5000000116145176e-01 4.7962697581629906e-20 0.0000000000000000e+00  1.4999999977182907e-01 9.6631960673903905e-20 0.0000000000000000e+00  1.4999999915167911e-01 5.0030066625114135e-20 0.0000000000000000e+00  1.5000000015905596e-01 3.9410390804819472e-20 0.0000000000000000e+00  1.5000000056720628e-01 3.0237998745435387e-20 0.0000000000000000e+00  1.4999999984604070e-01 1.8494206921065709e-20 0.0000000000000000e+00  1.4999999965439487e-01 1.3069471039012195e-20 0.0000000000000000e+00  1.5000000015257636e-01 1.0091384651610542e-20 0.0000000000000000e+00  1.5000000018325049e-01 3.9157474587220063e-21 0.0000000000000000e+00  1.4999999986608251e-01 5.6536233119692791e-21 0.0000000000000000e+00  1.4999999992558882e-01 5.8964792041517865e-22 0.0000000000000000e+00  1.5000000009967390e-01 2.7767994381182068e-21 0.0000000000000000e+00  1.5000000001150229e-01 1.6905712658448121e-25 0.0000000000000000e+00  1.4999999993941687e-01 1.0216236299342416e-21 0.0000000000000000e+00  1.5000000001581526e-01 1.1153835472058268e-22 0.0000000000000000e+00  1.5000000002739006e-01 2.2227740281749342e-22 0.0000000000000000e+00  1.4999999997990640e-01 1.4475159290148129e-22 0.0000000000000000e+00  1.4999999999397826e-01 1.2043732533787187e-23 0.0000000000000000e+00  1.5000000001359790e-01 7.0334754307772491e-23 0.0000000000000000e+00  1.4999999999660693e-01 4.0997226126944887e-24 0.0000000000000000e+00  1.4999999999453242e-01 1.3383974638658728e-23 0.0000000000000000e+00  1.5000000000467195e-01 9.1603694650635773e-24 0.0000000000000000e+00  1.5000000000027994e-01 1.2302661171611692e-25 0.0000000000000000e+00  1.4999999999742322e-01 3.3880790178262572e-24 0.0000000000000000e+00  1.5000000000137881e-01 8.0335666791243069e-25 0.0000000000000000e+00  1.5000000000047561e-01 1.9041554512069675e-25 0.0000000000000000e+00  1.4999999999899985e-01 5.6512055319901617e-25 0.0000000000000000e+00  1.5000000000041022e-01 6.8069468545034735e-26 0.0000000000000000e+00  1.5000000000022859e-01 4.7792963233743361e-26 0.0000000000000000e+00  1.4999999999963740e-01 8.2999486452953944e-26 0.0000000000000000e+00  1.5000000000014341e-01 8.6095748145355440e-27 0.0000000000000000e+00  1.5000000000007621e-01 6.5311886793067809e-27 0.0000000000000000e+00  1.4999999999987257e-01 1.1888115495280810e-26 0.0000000000000000e+00  1.5000000000006078e-01 1.8566438472278477e-27 0.0000000000000000e+00  1.5000000000001545e-01 4.3710051756190001e-28 0.0000000000000000e+00  1.4999999999995853e-01 1.5531987521894123e-27 0.0000000000000000e+00  1.5000000000002744e-01 4.9600259496235708e-28 0.0000000000000000e+00  1.4999999999999783e-01 3.4384171314561941e-31 0.0000000000000000e+00  1.4999999999998942e-01 1.3729838291239225e-28 0.0000000000000000e+00  1.5000000000001140e-01 9.7443094198771287e-29 0.0000000000000000e+00  1.4999999999999533e-01 1.2940412468911169e-29 0.0000000000000000e+00  1.4999999999999949e-01 2.0633573084334082e-30 0.0000000000000000e+00  1.5000000000000310e-01 1.2418713325000983e-29 0.0000000000000000e+00  1.4999999999999764e-01 1.0860510884905582e-29 0.0000000000000000e+00  1.5000000000000077e-01 1.4139025070379846e-30 0.0000000000000000e+00  1.5000000000000052e-01 1.6112256315323404e-31 0.0000000000000000e+00  1.4999999999999936e-01 3.3299347806718753e-31 0.0000000000000000e+00  1.5000000000000066e-01 5.4900692540859597e-31 0.0000000000000000e+00  1.4999999999999991e-01 2.8952356700400240e-32 0.0000000000000000e+00  1.5000000000000036e-01 4.3411162276756254e-32 0.0000000000000000e+00  1.5000000000000030e-01 1.4926583725840410e-32 0.0000000000000000e+00  1.5000000000000005e-01 8.0204539566122705e-33 0.0000000000000000e+00  1.5000000000000011e-01 3.9043361732634642e-32 0.0000000000000000e+00  1.4999999999999980e-01 2.0954193246233905e-32 0.0000000000000000e+00  1.4999999999999991e-01 1.7938722549493610e-33 0.0000000000000000e+00  1.4999999999999980e-01 2.7913647338292970e-32 0.0000000000000000e+00  1.4999999999999997e-01 4.4093861843472186e-34 0.0000000000000000e+00  1.5000000000000036e-01 3.3618032081348818e-32 0.0000000000000000e+00  1.4999999999999955e-01 2.1174442496049395e-31 0.0000000000000000e+00  1.5000000000000041e-01 3.4550893736026159e-34 0.0000000000000000e+00  1.4999999999999991e-01 8.9218178752834605e-34 0.0000000000000000e+00  1.5000000000000030e-01 3.5088996258525521e-32 0.0000000000000000e+00  1.5000000000000013e-01 0.0000000000000000e+00 0.0000000000000000e+00  1.5000000000000019e-01 0.0000000000000000e+00 1.6107204763901141e-34  1.5000000000000019e-01 1.1333869039521772e-31 6.8517414665658967e-34  1.5000000000000036e-01 2.7295244836412928e-32 1.5036654780601412e-35  1.5000000000000069e-01 3.2805695473303402e-32 1.2044745268978255e-31  1.5000000000000036e-01 8.2158805431673439e-31 4.4931578192611545e-32  1.5000000000000105e-01 6.9710856579036780e-34 9.4879489575328185e-31  1.4999999999999822e-01 5.0833263446282984e-29 1.9113648363304354e-30  1.4999999999996183e-01 9.1163580598681180e-28 1.1346284624030283e-27  1.4999999999981165e-01 1.4727687173129732e-26 3.0558842283812026e-26  1.4999999999931088e-01 1.3745989407929514e-25 4.3706681717783179e-25  1.4999999999790700e-01 6.4513169414383495e-25 4.1273287092783277e-24  1.4999999999479785e-01 1.8955855662923397e-24 2.5919616086606535e-23  1.4999999998896632e-01 5.1648727250526914e-24 1.1717020648079588e-22  1.4999999997789948e-01 2.8157389384317379e-23 4.4830280307523175e-22  1.4999999995295121e-01 3.4352299294139394e-22 1.8146144003921696e-21  1.4999999988808918e-01 3.7839176340766123e-21 9.1170310902859171e-21  1.4999999972685504e-01 2.3946793822583977e-20 5.0324279230388983e-20  1.4999999940685682e-01 7.4405004341742564e-20 2.2457480541528760e-19  1.4999999898661318e-01 7.7314418317950517e-20 6.0683256199177435e-19  1.4999999885114049e-01 4.8048121615951609e-21 6.4187225576033349e-19  1.4999999974651296e-01 8.1416871765062813e-19 3.5838225363611228e-21  1.5000000227375734e-01 3.5964991846529097e-18 4.7861824169646260e-18  1.5000000588637225e-01 4.8480281863145300e-18 2.4378907842869340e-17  1.5000000839798086e-01 1.1882885212816560e-18 4.1233561836454124e-17  1.5000000733298655e-01 1.1789215433025026e-18 2.3651002729838062e-17  1.5000000260376495e-01 8.0874075964056751e-18 5.2352587093983724e-19  1.4999999736675163e-01 8.2785496149885433e-18 9.6796736344683895e-18  1.4999999510250983e-01 1.7211830111814521e-18 1.6968093583510499e-17  1.4999999621746526e-01 3.3300462012311641e-19 6.7659778527885210e-18  1.4999999869800473e-01 2.6106437342371821e-18 2.2221773376219562e-19  1.5000000101219271e-01 1.9727647215222668e-18 1.4483479607941335e-18  1.5000000230023697e-01 7.5945186352402752e-20 3.6673207442313013e-18  1.5000000137578884e-01 6.9076107503029546e-19 6.7507873229642463e-19  1.4999999877504719e-01 8.2577477843661878e-19 1.8066673733921491e-18  1.4999999787121610e-01 4.3997179028500320e-22 2.8897290715297463e-18  1.5000000012024539e-01 5.4438216461411188e-19 2.0340334960387776e-19  1.5000000191029611e-01 1.3436452516207280e-19 2.8148027761648384e-18  1.5000000040402239e-01 1.6655599345690577e-19 4.0049559203688473e-21  1.4999999855474377e-01 1.8226723314018226e-19 1.7921666614699101e-18  1.4999999951505905e-01 3.1434361261274139e-20 4.4399804198090042e-20  1.5000000103037417e-01 1.2633534142115016e-19 9.5746635204216911e-19  1.5000000035823333e-01 4.3928988619616140e-21 2.6125991120644174e-20  1.4999999927936838e-01 6.8038467665685737e-20 4.6699721988385616e-19  1.4999999981504938e-01 9.4182820590261612e-22 2.9794586167049293e-21  1.5000000049110995e-01 3.2399297573951187e-20 2.0644332592036259e-19  1.5000000004295930e-01 8.1723396798038057e-22 1.3146464226355255e-21  1.4999999968585614e-01 1.3773417470443473e-20 7.7000674695617066e-20  1.5000000004275871e-01 1.2001040470491507e-21 7.1607073395876643e-21  1.5000000017776852e-01 4.8292822052004004e-21 2.1144261607299995e-20  1.4999999992493288e-01 1.3732035982623077e-21 8.4096014419630128e-21  1.4999999991993448e-01 1.1532787877971647e-21 3.1156410077974975e-21  1.5000000006987754e-01 1.0638126432444684e-21 5.1495167003935962e-21  1.5000000001990130e-01 1.0116269407859378e-22 2.6122869594520401e-23  1.4999999995330510e-01 5.3178619088813537e-22 1.7758684685948193e-21  1.5000000000828070e-01 8.5636103743537325e-24 2.2100945876991534e-22  1.5000000002186178e-01 1.4960113790923912e-22 2.7020443257395414e-22  1.4999999998548449e-01 5.0020614016303997e-23 2.4736145816322758e-22  1.4999999999529878e-01 1.3446844739771113e-23 1.2146674545583307e-24  1.5000000001007058e-01 3.3560387538094226e-23 7.9620138508749160e-23  1.4999999999717967e-01 8.9744640010616552e-25 1.7531374224562833e-23  1.4999999999628372e-01 7.2517679046392005e-24 5.4779780795506511e-24  1.5000000000357236e-01 4.1584059170637843e-24 1.2416435698987647e-23  1.4999999999981309e-01 7.1935711870168259e-26 8.0648506218413331e-25  1.4999999999828578e-01 1.5977080550644099e-24 1.5663575208245901e-24  1.5000000000117281e-01 4.2709823015012452e-25 1.5769658893703048e-24  1.5000000000010699e-01 6.0829687583295517e-26 3.6803642347451127e-26  1.4999999999933830e-01 2.6161210985673274e-25 2.5303699323722064e-25  1.5000000000040170e-01 5.1127526655969065e-26 1.9989975437374253e-25  1.5000000000004610e-01 1.1160410252586428e-26 4.8421350945905586e-27  1.4999999999976701e-01 3.8210723379598244e-26 2.9179546489751263e-26  1.5000000000015140e-01 8.6743093676903061e-27 2.6940769879973446e-26  1.4999999999999919e-01 7.9005091711893854e-28 1.8351178119879266e-27  1.4999999999992647e-01 5.0158704180237828e-27 2.1514120886171967e-27  1.5000000000005986e-01 1.8884124344093885e-27 3.4362728706311549e-27  1.4999999999998681e-01 5.5926510922395629e-31 6.9673097409309050e-28  1.4999999999998259e-01 4.5795988704739892e-28 3.4806767016972885e-29  1.5000000000002189e-01 3.8584211693189156e-28 3.2858864284321326e-28  1.4999999999998892e-01 4.9432196948087783e-29 1.7330653228957574e-28  1.4999999999999997e-01 1.1275085466539386e-29 1.0677450689073281e-29  1.5000000000000585e-01 4.0643476549298814e-29 9.2546645876451472e-30  1.4999999999999494e-01 2.4194459902028687e-29 1.9221744929630994e-29  1.5000000000000288e-01 1.7074602708524086e-30 9.8849065905569547e-30  1.5000000000000030e-01 3.6188702832532674e-31 1.2072720280569076e-30  1.4999999999999902e-01 1.3206574809309217e-30 2.2307007224249371e-31  1.5000000000000147e-01 1.8895257516448116e-30 1.0214733367223566e-30  1.4999999999999958e-01 3.5173733988469010e-31 7.2600189679361672e-31  1.5000000000000022e-01 3.3400914208684910e-31 4.3370320649822038e-31  1.5000000000000005e-01 6.2834147334598776e-34 6.1759839063526305e-32  1.4999999999999991e-01 1.1582614895621158e-32 4.2002635622642104e-32  1.5000000000000041e-01 8.5249754493747195e-32 1.0386816202657218e-31  1.4999999999999980e-01 9.0163307508946720e-34 3.9264736373052462e-32  1.5000000000000005e-01 8.9718619872177815e-33 7.4337186597933311e-34  1.5000000000000013e-01 6.3748331259202805e-33 8.8871711559463954e-33  1.5000000000000044e-01 3.1778824229595177e-32 3.5056431796579441e-33  1.5000000000000044e-01 8.6941338128933808e-33 8.5601519826505680e-33  1.5000000000000013e-01 1.4492612731178306e-31 1.9638116331085701e-37  1.5000000000000044e-01 1.5727027040039542e-33 2.3137379984746509e-32  1.5000000000000022e-01 3.0824102799494489e-32 1.1896175840438124e-32  1.5000000000000002e-01 2.3660186611663869e-32 3.3165095709247607e-32  1.5000000000000036e-01 1.8566209241964816e-32 7.9360316086810208e-36  1.5000000000000011e-01 0.0000000000000000e+00 1.7411113464870501e-32  1.5000000000000002e-01 0.0000000000000000e+00 4.8697850445283073e-36  1.5000000000000036e-01 1.1674659516499151e-32 2.4068063157131099e-34  1.5000000000000044e-01 9.0118643395475497e-34 3.4774127172771234e-32  1.4999999999999927e-01 1.1243927264604473e-31 1.1012721576089925e-31  1.4999999999999997e-01 1.1076006412881254e-31 1.1370006425733837e-31  1.5000000000000041e-01 3.0715846856790247e-30 1.1743401976325700e-32  1.4999999999999841e-01 2.0393001590670348e-29 5.0112719195869375e-30  1.5000000000002292e-01 7.2056985258849846e-28 5.7810910188786302e-28  1.5000000000016503e-01 1.2704049331409842e-26 3.6908907828043604e-26  1.5000000000067470e-01 1.7070261488059917e-25 6.9456405701311982e-25  1.5000000000226990e-01 1.2064634241664342e-24 8.4063021692829728e-24  1.5000000000633962e-01 4.8661156995436340e-24 6.7898777806655652e-23  1.5000000001468963e-01 1.4375390730354631e-23 3.7157304479372281e-22  1.5000000002994207e-01 4.4916583164783570e-23 1.5224806073343810e-21  1.5000000005871425e-01 2.6665001162947622e-22 5.4598146054191914e-21  1.5000000012106665e-01 2.6639838542094073e-21 2.1039437359963418e-20  1.5000000026983495e-01 2.1410831952667595e-20 9.8960098386110930e-20  1.5000000059490629e-01 9.5247667908898607e-20 4.8306431743046178e-19  1.5000000112584810e-01 1.8170143069733756e-19 1.7680695897653758e-18  1.5000000157068663e-01 4.0503244806042178e-20 3.4614779264806839e-18  1.5000000108222755e-01 4.8420948882908967e-19 1.5163144647559445e-18  1.4999999856890214e-01 4.6487671751584252e-18 3.6058839677577745e-18  1.4999999389698287e-01 1.0391758480762302e-17 5.7898608561954831e-17  1.4999998920519902e-01 6.4804389226351007e-18 1.7186869666995832e-16  1.4999998830526798e-01 3.8002810481826615e-20 1.8716016841462472e-16  1.4999999324667534e-01 1.1288512297673281e-17 5.0340540264137622e-17  1.5000000121195539e-01 2.0859466697099939e-17 7.4858153404630647e-18  1.5000000653994239e-01 9.2238232471610221e-18 7.6503675091908682e-17  1.5000000654755755e-01 4.2120764044671376e-20 6.4680775904701117e-17  1.5000000340202382e-01 3.8247665791242002e-18 1.4024037524819100e-17  1.4999999993302499e-01 5.9629073743557257e-18 3.4591837591160370e-19  1.4999999721101714e-01 1.6244355492110453e-18 1.4171687367910044e-17  1.4999999684645310e-01 3.9873682712791496e-19 1.4966102006096075e-17  1.5000000008630959e-01 2.5974629480063590e-18 1.8702354632597179e-19  1.5000000335324998e-01 4.9123051463727959e-19 1.9172893834348868e-17  1.5000000168362529e-01 7.6553422400896751e-19 3.7065454067556492e-18  1.4999999758980700e-01 1.0843450902080815e-18 1.0570050966201296e-17  1.4999999785089105e-01 4.5420969667795545e-20 6.8384548118073432e-18  1.5000000154355411e-01 7.8296613256176744e-19 4.5507404596264643e-18  1.5000000189924301e-01 1.3095543104826746e-20 5.5138838732304590e-18  1.4999999897819360e-01 3.9822511661503825e-19 2.0430387411942533e-18  1.4999999859552823e-01 4.0821434553057556e-20 3.0201017879176611e-18  1.5000000075570546e-01 1.8422168869128693e-19 1.1028484646380616e-18  1.5000000090615337e-01 3.0426219349758544e-20 1.2308526736311466e-18  1.4999999939702763e-01 8.7891751660160098e-20 6.7461591908164022e-19  1.4999999950207596e-01 1.2082931190690501e-20 3.5237973313699109e-19  1.5000000047417253e-01 4.3762990206148210e-20 3.9728773371642805e-19  1.5000000020599305e-01 2.1364554473442298e-21 5.2202372454053173e-20  1.4999999965973135e-01 2.0887684827456979e-20 1.9407717582004037e-19  1.4999999997186639e-01 8.8372556257128642e-25 1.3261377004968893e-22  1.5000000020899765e-01 8.3051269687515030e-21 6.8681917236703177e-20  1.4999999994601268e-01 7.1280261339833656e-22 6.8221254497521469e-21  1.4999999990012841e-01 2.2397962915220265e-21 1.4143728851233271e-20  1.5000000006931774e-01 1.0800726063774525e-21 8.6977678013775056e-21  1.5000000002696978e-01 2.4356553105374013e-22 7.2793587864706316e-22  1.4999999994996391e-01 6.6642070393039801e-22 3.9923591737430657e-21  1.5000000000840941e-01 5.4166550491574511e-24 2.2096421226528090e-22  1.5000000002295352e-01 1.8940847573621569e-22 7.1367022311433020e-22  1.4999999998384406e-01 6.6294760546869599e-23 4.6814889735155885e-22  1.4999999999637159e-01 1.2372688109407991e-23 6.4745781535158134e-24  1.5000000001051222e-01 4.1784314196216127e-23 1.6303475266279243e-22  1.4999999999587776e-01 2.9986398981881629e-24 3.6713422411220543e-23  1.4999999999698757e-01 6.3592298501809660e-24 8.8307056042416816e-24  1.5000000000397898e-01 6.2220294115943171e-24 2.4557533223528019e-23  1.4999999999901989e-01 5.1839387662473202e-26 2.7438675163967022e-24  1.4999999999861252e-01 1.4132959575564396e-24 2.0211442261152203e-24  1.5000000000143540e-01 8.6932922684658405e-25 3.2555726010391451e-24  1.4999999999970309e-01 6.6196839595266220e-28 3.0328597546006041e-25  1.4999999999949051e-01 2.2395876473335197e-25 2.5502926007404331e-25  1.5000000000052385e-01 1.3446923207664078e-25 4.2082297896059677e-25  1.4999999999985839e-01 1.2156323692883268e-27 5.9159175935800096e-26  1.4999999999984964e-01 2.6676576091404627e-26 1.6879531654075940e-26  1.5000000000019059e-01 2.2767183540883125e-26 5.0187701054437032e-26  1.4999999999991867e-01 1.7416132357220815e-27 1.4519503164742271e-26  1.4999999999997465e-01 1.7662037850557942e-27 6.3071677646786275e-29  1.5000000000006222e-01 3.3947220636293836e-27 4.2251440064515215e-27  1.4999999999995761e-01 9.7826353407277770e-28 2.9355669771579858e-27  1.5000000000000871e-01 9.3357516354699482e-31 2.8887993727163214e-28  1.5000000000001321e-01 2.7229319716893099e-28 9.8454517764143585e-29  1.4999999999998398e-01 2.5844757258403952e-28 3.0592216039194179e-28  1.5000000000000990e-01 6.1719531069016889e-29 1.5107339625252147e-28  1.4999999999999830e-01 3.0126621833252976e-32 1.8704607994949500e-29  1.4999999999