<?xml version="1.0"?>
<VTKFile type="UnstructuredGrid"  version="0.1"  >
<UnstructuredGrid>
<Piece  NumberOfPoints="10201" NumberOfCells="20000">
<Points>
<DataArray  type="Float64"  NumberOfComponents="3"  format="ascii">-5 -5 0  -4.9 -5 0  -4.8 -5 0  -4.7 -5 0  -4.6 -5 0  -4.5 -5 0  -4.4 -5 0  -4.3 -5 0  -4.2 -5 0  -4.1 -5 0  -4 -5 0  -3.9 -5 0  -3.8 -5 0  -3.7 -5 0  -3.6 -5 0  -3.5 -5 0  -3.4 -5 0  -3.3 -5 0  -3.2 -5 0  -3.1 -5 0  -3 -5 0  -2.9 -5 0  -2.8 -5 0  -2.7 -5 0  -2.6 -5 0  -2.5 -5 0  -2.4 -5 0  -2.3 -5 0  -2.2 -5 0  -2.1 -5 0  -2 -5 0  -1.9 -5 0  -1.8 -5 0  -1.7 -5 0  -1.6 -5 0  -1.5 -5 0  -1.4 -5 0  -1.3 -5 0  -1.2 -5 0  -1.1 -5 0  -1 -5 0  -0.9000000000000004 -5 0  -0.7999999999999998 -5 0  -0.7000000000000002 -5 0  -0.5999999999999996 -5 0  -0.5 -5 0  -0.4000000000000004 -5 0  -0.2999999999999998 -5 0  -0.2000000000000002 -5 0  -0.09999999999999964 -5 0  0 -5 0  0.09999999999999964 -5 0  0.2000000000000002 -5 0  0.2999999999999998 -5 0  0.4000000000000004 -5 0  0.5 -5 0  0.5999999999999996 -5 0  0.7000000000000002 -5 0  0.7999999999999998 -5 0  0.9000000000000004 -5 0  1 -5 0  1.1 -5 0  1.2 -5 0  1.3 -5 0  1.4 -5 0  1.5 -5 0  1.6 -5 0  1.7 -5 0  1.8 -5 0  1.9 -5 0  2 -5 0  2.1 -5 0  2.2 -5 0  2.3 -5 0  2.4 -5 0  2.5 -5 0  2.6 -5 0  2.7 -5 0  2.8 -5 0  2.9 -5 0  3 -5 0  3.1 -5 0  3.199999999999999 -5 0  3.300000000000001 -5 0  3.4 -5 0  3.5 -5 0  3.6 -5 0  3.699999999999999 -5 0  3.800000000000001 -5 0  3.9 -5 0  4 -5 0  4.1 -5 0  4.199999999999999 -5 0  4.300000000000001 -5 0  4.4 -5 0  4.5 -5 0  4.6 -5 0  4.699999999999999 -5 0  4.800000000000001 -5 0  4.9 -5 0  5 -5 0  -5 -4.9 0  -4.9 -4.9 0  -4.8 -4.9 0  -4.7 -4.9 0  -4.6 -4.9 0  -4.5 -4.9 0  -4.4 -4.9 0  -4.3 -4.9 0  -4.2 -4.9 0  -4.1 -4.9 0  -4 -4.9 0  -3.9 -4.9 0  -3.8 -4.9 0  -3.7 -4.9 0  -3.6 -4.9 0  -3.5 -4.9 0  -3.4 -4.9 0  -3.3 -4.9 0  -3.2 -4.9 0  -3.1 -4.9 0  -3 -4.9 0  -2.9 -4.9 0  -2.8 -4.9 0  -2.7 -4.9 0  -2.6 -4.9 0  -2.5 -4.9 0  -2.4 -4.9 0  -2.3 -4.9 0  -2.2 -4.9 0  -2.1 -4.9 0  -2 -4.9 0  -1.9 -4.9 0  -1.8 -4.9 0  -1.7 -4.9 0  -1.6 -4.9 0  -1.5 -4.9 0  -1.4 -4.9 0  -1.3 -4.9 0  -1.2 -4.9 0  -1.1 -4.9 0  -1 -4.9 0  -0.9000000000000004 -4.9 0  -0.7999999999999998 -4.9 0  -0.7000000000000002 -4.9 0  -0.5999999999999996 -4.9 0  -0.5 -4.9 0  -0.4000000000000004 -4.9 0  -0.2999999999999998 -4.9 0  -0.2000000000000002 -4.9 0  -0.09999999999999964 -4.9 0  0 -4.9 0  0.09999999999999964 -4.9 0  0.2000000000000002 -4.9 0  0.2999999999999998 -4.9 0  0.4000000000000004 -4.9 0  0.5 -4.9 0  0.5999999999999996 -4.9 0  0.7000000000000002 -4.9 0  0.7999999999999998 -4.9 0  0.9000000000000004 -4.9 0  1 -4.9 0  1.1 -4.9 0  1.2 -4.9 0  1.3 -4.9 0  1.4 -4.9 0  1.5 -4.9 0  1.6 -4.9 0  1.7 -4.9 0  1.8 -4.9 0  1.9 -4.9 0  2 -4.9 0  2.1 -4.9 0  2.2 -4.9 0  2.3 -4.9 0  2.4 -4.9 0  2.5 -4.9 0  2.6 -4.9 0  2.7 -4.9 0  2.8 -4.9 0  2.9 -4.9 0  3 -4.9 0  3.1 -4.9 0  3.199999999999999 -4.9 0  3.300000000000001 -4.9 0  3.4 -4.9 0  3.5 -4.9 0  3.6 -4.9 0  3.699999999999999 -4.9 0  3.800000000000001 -4.9 0  3.9 -4.9 0  4 -4.9 0  4.1 -4.9 0  4.199999999999999 -4.9 0  4.300000000000001 -4.9 0  4.4 -4.9 0  4.5 -4.9 0  4.6 -4.9 0  4.699999999999999 -4.9 0  4.800000000000001 -4.9 0  4.9 -4.9 0  5 -4.9 0  -5 -4.8 0  -4.9 -4.8 0  -4.8 -4.8 0  -4.7 -4.8 0  -4.6 -4.8 0  -4.5 -4.8 0  -4.4 -4.8 0  -4.3 -4.8 0  -4.2 -4.8 0  -4.1 -4.8 0  -4 -4.8 0  -3.9 -4.8 0  -3.8 -4.8 0  -3.7 -4.8 0  -3.6 -4.8 0  -3.5 -4.8 0  -3.4 -4.8 0  -3.3 -4.8 0  -3.2 -4.8 0  -3.1 -4.8 0  -3 -4.8 0  -2.9 -4.8 0  -2.8 -4.8 0  -2.7 -4.8 0  -2.6 -4.8 0  -2.5 -4.8 0  -2.4 -4.8 0  -2.3 -4.8 0  -2.2 -4.8 0  -2.1 -4.8 0  -2 -4.8 0  -1.9 -4.8 0  -1.8 -4.8 0  -1.7 -4.8 0  -1.6 -4.8 0  -1.5 -4.8 0  -1.4 -4.8 0  -1.3 -4.8 0  -1.2 -4.8 0  -1.1 -4.8 0  -1 -4.8 0  -0.9000000000000004 -4.8 0  -0.7999999999999998 -4.8 0  -0.7000000000000002 -4.8 0  -0.5999999999999996 -4.8 0  -0.5 -4.8 0  -0.4000000000000004 -4.8 0  -0.2999999999999998 -4.8 0  -0.2000000000000002 -4.8 0  -0.09999999999999964 -4.8 0  0 -4.8 0  0.09999999999999964 -4.8 0  0.2000000000000002 -4.8 0  0.2999999999999998 -4.8 0  0.4000000000000004 -4.8 0  0.5 -4.8 0  0.5999999999999996 -4.8 0  0.7000000000000002 -4.8 0  0.7999999999999998 -4.8 0  0.9000000000000004 -4.8 0  1 -4.8 0  1.1 -4.8 0  1.2 -4.8 0  1.3 -4.8 0  1.4 -4.8 0  1.5 -4.8 0  1.6 -4.8 0  1.7 -4.8 0  1.8 -4.8 0  1.9 -4.8 0  2 -4.8 0  2.1 -4.8 0  2.2 -4.8 0  2.3 -4.8 0  2.4 -4.8 0  2.5 -4.8 0  2.6 -4.8 0  2.7 -4.8 0  2.8 -4.8 0  2.9 -4.8 0  3 -4.8 0  3.1 -4.8 0  3.199999999999999 -4.8 0  3.300000000000001 -4.8 0  3.4 -4.8 0  3.5 -4.8 0  3.6 -4.8 0  3.699999999999999 -4.8 0  3.800000000000001 -4.8 0  3.9 -4.8 0  4 -4.8 0  4.1 -4.8 0  4.199999999999999 -4.8 0  4.300000000000001 -4.8 0  4.4 -4.8 0  4.5 -4.8 0  4.6 -4.8 0  4.699999999999999 -4.8 0  4.800000000000001 -4.8 0  4.9 -4.8 0  5 -4.8 0  -5 -4.7 0  -4.9 -4.7 0  -4.8 -4.7 0  -4.7 -4.7 0  -4.6 -4.7 0  -4.5 -4.7 0  -4.4 -4.7 0  -4.3 -4.7 0  -4.2 -4.7 0  -4.1 -4.7 0  -4 -4.7 0  -3.9 -4.7 0  -3.8 -4.7 0  -3.7 -4.7 0  -3.6 -4.7 0  -3.5 -4.7 0  -3.4 -4.7 0  -3.3 -4.7 0  -3.2 -4.7 0  -3.1 -4.7 0  -3 -4.7 0  -2.9 -4.7 0  -2.8 -4.7 0  -2.7 -4.7 0  -2.6 -4.7 0  -2.5 -4.7 0  -2.4 -4.7 0  -2.3 -4.7 0  -2.2 -4.7 0  -2.1 -4.7 0  -2 -4.7 0  -1.9 -4.7 0  -1.8 -4.7 0  -1.7 -4.7 0  -1.6 -4.7 0  -1.5 -4.7 0  -1.4 -4.7 0  -1.3 -4.7 0  -1.2 -4.7 0  -1.1 -4.7 0  -1 -4.7 0  -0.9000000000000004 -4.7 0  -0.7999999999999998 -4.7 0  -0.7000000000000002 -4.7 0  -0.5999999999999996 -4.7 0  -0.5 -4.7 0  -0.4000000000000004 -4.7 0  -0.2999999999999998 -4.7 0  -0.2000000000000002 -4.7 0  -0.09999999999999964 -4.7 0  0 -4.7 0  0.09999999999999964 -4.7 0  0.2000000000000002 -4.7 0  0.2999999999999998 -4.7 0  0.4000000000000004 -4.7 0  0.5 -4.7 0  0.5999999999999996 -4.7 0  0.7000000000000002 -4.7 0  0.7999999999999998 -4.7 0  0.9000000000000004 -4.7 0  1 -4.7 0  1.1 -4.7 0  1.2 -4.7 0  1.3 -4.7 0  1.4 -4.7 0  1.5 -4.7 0  1.6 -4.7 0  1.7 -4.7 0  1.8 -4.7 0  1.9 -4.7 0  2 -4.7 0  2.1 -4.7 0  2.2 -4.7 0  2.3 -4.7 0  2.4 -4.7 0  2.5 -4.7 0  2.6 -4.7 0  2.7 -4.7 0  2.8 -4.7 0  2.9 -4.7 0  3 -4.7 0  3.1 -4.7 0  3.199999999999999 -4.7 0  3.300000000000001 -4.7 0  3.4 -4.7 0  3.5 -4.7 0  3.6 -4.7 0  3.699999999999999 -4.7 0  3.800000000000001 -4.7 0  3.9 -4.7 0  4 -4.7 0  4.1 -4.7 0  4.199999999999999 -4.7 0  4.300000000000001 -4.7 0  4.4 -4.7 0  4.5 -4.7 0  4.6 -4.7 0  4.699999999999999 -4.7 0  4.800000000000001 -4.7 0  4.9 -4.7 0  5 -4.7 0  -5 -4.6 0  -4.9 -4.6 0  -4.8 -4.6 0  -4.7 -4.6 0  -4.6 -4.6 0  -4.5 -4.6 0  -4.4 -4.6 0  -4.3 -4.6 0  -4.2 -4.6 0  -4.1 -4.6 0  -4 -4.6 0  -3.9 -4.6 0  -3.8 -4.6 0  -3.7 -4.6 0  -3.6 -4.6 0  -3.5 -4.6 0  -3.4 -4.6 0  -3.3 -4.6 0  -3.2 -4.6 0  -3.1 -4.6 0  -3 -4.6 0  -2.9 -4.6 0  -2.8 -4.6 0  -2.7 -4.6 0  -2.6 -4.6 0  -2.5 -4.6 0  -2.4 -4.6 0  -2.3 -4.6 0  -2.2 -4.6 0  -2.1 -4.6 0  -2 -4.6 0  -1.9 -4.6 0  -1.8 -4.6 0  -1.7 -4.6 0  -1.6 -4.6 0  -1.5 -4.6 0  -1.4 -4.6 0  -1.3 -4.6 0  -1.2 -4.6 0  -1.1 -4.6 0  -1 -4.6 0  -0.9000000000000004 -4.6 0  -0.7999999999999998 -4.6 0  -0.7000000000000002 -4.6 0  -0.5999999999999996 -4.6 0  -0.5 -4.6 0  -0.4000000000000004 -4.6 0  -0.2999999999999998 -4.6 0  -0.2000000000000002 -4.6 0  -0.09999999999999964 -4.6 0  0 -4.6 0  0.09999999999999964 -4.6 0  0.2000000000000002 -4.6 0  0.2999999999999998 -4.6 0  0.4000000000000004 -4.6 0  0.5 -4.6 0  0.5999999999999996 -4.6 0  0.7000000000000002 -4.6 0  0.7999999999999998 -4.6 0  0.9000000000000004 -4.6 0  1 -4.6 0  1.1 -4.6 0  1.2 -4.6 0  1.3 -4.6 0  1.4 -4.6 0  1.5 -4.6 0  1.6 -4.6 0  1.7 -4.6 0  1.8 -4.6 0  1.9 -4.6 0  2 -4.6 0  2.1 -4.6 0  2.2 -4.6 0  2.3 -4.6 0  2.4 -4.6 0  2.5 -4.6 0  2.6 -4.6 0  2.7 -4.6 0  2.8 -4.6 0  2.9 -4.6 0  3 -4.6 0  3.1 -4.6 0  3.199999999999999 -4.6 0  3.300000000000001 -4.6 0  3.4 -4.6 0  3.5 -4.6 0  3.6 -4.6 0  3.699999999999999 -4.6 0  3.800000000000001 -4.6 0  3.9 -4.6 0  4 -4.6 0  4.1 -4.6 0  4.199999999999999 -4.6 0  4.300000000000001 -4.6 0  4.4 -4.6 0  4.5 -4.6 0  4.6 -4.6 0  4.699999999999999 -4.6 0  4.800000000000001 -4.6 0  4.9 -4.6 0  5 -4.6 0  -5 -4.5 0  -4.9 -4.5 0  -4.8 -4.5 0  -4.7 -4.5 0  -4.6 -4.5 0  -4.5 -4.5 0  -4.4 -4.5 0  -4.3 -4.5 0  -4.2 -4.5 0  -4.1 -4.5 0  -4 -4.5 0  -3.9 -4.5 0  -3.8 -4.5 0  -3.7 -4.5 0  -3.6 -4.5 0  -3.5 -4.5 0  -3.4 -4.5 0  -3.3 -4.5 0  -3.2 -4.5 0  -3.1 -4.5 0  -3 -4.5 0  -2.9 -4.5 0  -2.8 -4.5 0  -2.7 -4.5 0  -2.6 -4.5 0  -2.5 -4.5 0  -2.4 -4.5 0  -2.3 -4.5 0  -2.2 -4.5 0  -2.1 -4.5 0  -2 -4.5 0  -1.9 -4.5 0  -1.8 -4.5 0  -1.7 -4.5 0  -1.6 -4.5 0  -1.5 -4.5 0  -1.4 -4.5 0  -1.3 -4.5 0  -1.2 -4.5 0  -1.1 -4.5 0  -1 -4.5 0  -0.9000000000000004 -4.5 0  -0.7999999999999998 -4.5 0  -0.7000000000000002 -4.5 0  -0.5999999999999996 -4.5 0  -0.5 -4.5 0  -0.4000000000000004 -4.5 0  -0.2999999999999998 -4.5 0  -0.2000000000000002 -4.5 0  -0.09999999999999964 -4.5 0  0 -4.5 0  0.09999999999999964 -4.5 0  0.2000000000000002 -4.5 0  0.2999999999999998 -4.5 0  0.4000000000000004 -4.5 0  0.5 -4.5 0  0.5999999999999996 -4.5 0  0.7000000000000002 -4.5 0  0.7999999999999998 -4.5 0  0.9000000000000004 -4.5 0  1 -4.5 0  1.1 -4.5 0  1.2 -4.5 0  1.3 -4.5 0  1.4 -4.5 0  1.5 -4.5 0  1.6 -4.5 0  1.7 -4.5 0  1.8 -4.5 0  1.9 -4.5 0  2 -4.5 0  2.1 -4.5 0  2.2 -4.5 0  2.3 -4.5 0  2.4 -4.5 0  2.5 -4.5 0  2.6 -4.5 0  2.7 -4.5 0  2.8 -4.5 0  2.9 -4.5 0  3 -4.5 0  3.1 -4.5 0  3.199999999999999 -4.5 0  3.300000000000001 -4.5 0  3.4 -4.5 0  3.5 -4.5 0  3.6 -4.5 0  3.699999999999999 -4.5 0  3.800000000000001 -4.5 0  3.9 -4.5 0  4 -4.5 0  4.1 -4.5 0  4.199999999999999 -4.5 0  4.300000000000001 -4.5 0  4.4 -4.5 0  4.5 -4.5 0  4.6 -4.5 0  4.699999999999999 -4.5 0  4.800000000000001 -4.5 0  4.9 -4.5 0  5 -4.5 0  -5 -4.4 0  -4.9 -4.4 0  -4.8 -4.4 0  -4.7 -4.4 0  -4.6 -4.4 0  -4.5 -4.4 0  -4.4 -4.4 0  -4.3 -4.4 0  -4.2 -4.4 0  -4.1 -4.4 0  -4 -4.4 0  -3.9 -4.4 0  -3.8 -4.4 0  -3.7 -4.4 0  -3.6 -4.4 0  -3.5 -4.4 0  -3.4 -4.4 0  -3.3 -4.4 0  -3.2 -4.4 0  -3.1 -4.4 0  -3 -4.4 0  -2.9 -4.4 0  -2.8 -4.4 0  -2.7 -4.4 0  -2.6 -4.4 0  -2.5 -4.4 0  -2.4 -4.4 0  -2.3 -4.4 0  -2.2 -4.4 0  -2.1 -4.4 0  -2 -4.4 0  -1.9 -4.4 0  -1.8 -4.
[...]
<PointData  Vectors="f_17"> 
<DataArray  type="Float64"  Name="f_17"  NumberOfComponents="3" format="ascii">1.4936086411805730e-01 0.0000000000000000e+00 0.0000000000000000e+00  1.5000016440489769e-01 1.2792462946470504e-03 0.0000000000000000e+00  1.4979278377498265e-01 -9.3973451000405040e-04 0.0000000000000000e+00  1.4994163322433812e-01 8.7927969026667212e-04 0.0000000000000000e+00  1.5053263720347684e-01 -2.0016115888017620e-03 0.0000000000000000e+00  1.5038601730446544e-01 -3.1790465520766616e-04 0.0000000000000000e+00  1.5093631178048664e-01 -1.8879395286167237e-03 0.0000000000000000e+00  1.5033195213099038e-01 -1.4557428850761945e-04 0.0000000000000000e+00  1.5040220400711357e-01 3.1787360719519309e-04 0.0000000000000000e+00  1.4951481254571081e-01 1.1437288740976422e-03 0.0000000000000000e+00  1.4969152145821504e-01 2.2058070277394034e-03 0.0000000000000000e+00  1.4930046031877126e-01 1.4247186001387748e-03 0.0000000000000000e+00  1.4976841455061443e-01 1.9809079691936286e-03 0.0000000000000000e+00  1.4959443963897276e-01 7.0359797253647283e-04 0.0000000000000000e+00  1.5000798643358784e-01 2.0418928366643797e-03 0.0000000000000000e+00  1.4956753182381555e-01 8.3266295709597947e-04 0.0000000000000000e+00  1.4994289856330581e-01 1.7023430212970872e-03 0.0000000000000000e+00  1.4992300671738076e-01 -6.3474534312007327e-05 0.0000000000000000e+00  1.5043105387661537e-01 -5.5705159245119054e-05 0.0000000000000000e+00  1.5037576092074878e-01 -1.3263217692023382e-03 0.0000000000000000e+00  1.5069771763987377e-01 -2.4679200810187824e-04 0.0000000000000000e+00  1.5035848130882287e-01 -5.8912033850402608e-04 0.0000000000000000e+00  1.5034067969733589e-01 1.4241343783638844e-04 0.0000000000000000e+00  1.5005310106915165e-01 5.3706381836158094e-05 0.0000000000000000e+00  1.4974174170074450e-01 7.4995726663341488e-04 0.0000000000000000e+00  1.4923288687029168e-01 6.0368883112439035e-04 0.0000000000000000e+00  1.4937895234945830e-01 7.3998633093098171e-04 0.0000000000000000e+00  1.4943097318578896e-01 -6.1009564957474800e-04 0.0000000000000000e+00  1.4964221778415404e-01 -1.1423369826254301e-03 0.0000000000000000e+00  1.4983933503951194e-01 -7.9079354991646949e-04 0.0000000000000000e+00  1.4981894548978936e-01 -4.5665295653189882e-04 0.0000000000000000e+00  1.4962363655663177e-01 -1.2242200932776918e-03 0.0000000000000000e+00  1.4988316139313007e-01 -5.5221540384908893e-04 0.0000000000000000e+00  1.4975436904640438e-01 6.5247442519005200e-04 0.0000000000000000e+00  1.4934890277136451e-01 4.4987121110854413e-06 0.0000000000000000e+00  1.4968857652126352e-01 -1.3294373897315814e-03 0.0000000000000000e+00  1.4989533040082800e-01 -5.3136422625387966e-04 0.0000000000000000e+00  1.4905297869509640e-01 8.2508537845318907e-04 0.0000000000000000e+00  1.4930830232399625e-01 1.1960312017021983e-03 0.0000000000000000e+00  1.5127141089425533e-01 3.3744449805159519e-04 0.0000000000000000e+00  1.5287944053103888e-01 -1.3786054906667056e-03 0.0000000000000000e+00  1.5382881153700237e-01 -2.1539904584137620e-03 0.0000000000000000e+00  1.5446685668939555e-01 -9.7842251630696079e-04 0.0000000000000000e+00  1.5387061443795269e-01 -5.4301687856389124e-04 0.0000000000000000e+00  1.5247936118297717e-01 -1.8960510577328905e-03 0.0000000000000000e+00  1.5131667567460930e-01 -2.2701152765222904e-03 0.0000000000000000e+00  1.4921371725563187e-01 -1.1425751372749846e-03 0.0000000000000000e+00  1.4610128422666635e-01 -4.7408757995811180e-04 0.0000000000000000e+00  1.4378626983021559e-01 6.7198553808496216e-04 0.0000000000000000e+00  1.4216073957901176e-01 6.0774646237658097e-04 0.0000000000000000e+00  1.4038526447424993e-01 -7.4742202103838531e-04 0.0000000000000000e+00  1.3931949315791320e-01 3.2280321122324975e-04 0.0000000000000000e+00  1.3857341216237237e-01 1.9425305789355272e-03 0.0000000000000000e+00  1.3827521161194842e-01 -6.9050399840227500e-04 0.0000000000000000e+00  1.3942898720985572e-01 -1.8738320996459844e-03 0.0000000000000000e+00  1.4050457125657762e-01 1.1756931206571674e-03 0.0000000000000000e+00  1.4120906123671165e-01 8.8142477134438475e-04 0.0000000000000000e+00  1.4429928988228033e-01 -2.1280589659358326e-03 0.0000000000000000e+00  1.4742267186075336e-01 9.5056392650996085e-04 0.0000000000000000e+00  1.4837747154823192e-01 4.0007708925240372e-03 0.0000000000000000e+00  1.5135624104969259e-01 5.3267947741393476e-04 0.0000000000000000e+00  1.5466285348413772e-01 2.5348194101488007e-04 0.0000000000000000e+00  1.5344927883920387e-01 4.2734708176604590e-03 0.0000000000000000e+00  1.5272662832861914e-01 1.6560352016491353e-03 0.0000000000000000e+00  1.5386518426270387e-01 -2.3958950092257004e-03 0.0000000000000000e+00  1.5093898228412952e-01 7.6158708265201532e-04 0.0000000000000000e+00  1.4831361489488251e-01 1.6250850582798918e-03 0.0000000000000000e+00  1.5006053674600162e-01 -2.3859338232812459e-03 0.0000000000000000e+00  1.4989349143164646e-01 -6.0577699211100721e-04 0.0000000000000000e+00  1.4875091481172123e-01 2.0143912759422174e-03 0.0000000000000000e+00  1.5057988484884952e-01 -8.1052073999090656e-04 0.0000000000000000e+00  1.5074068885325848e-01 -1.1558254055646616e-03 0.0000000000000000e+00  1.4912360801713812e-01 1.7371742236846684e-03 0.0000000000000000e+00  1.5024400093091300e-01 -5.5490272894224806e-04 0.0000000000000000e+00  1.5038496315305447e-01 -6.4466844339527475e-04 0.0000000000000000e+00  1.4955414821737698e-01 5.6852529064253051e-04 0.0000000000000000e+00  1.4998054701818428e-01 4.8887729170093075e-04 0.0000000000000000e+00  1.5049562265412889e-01 -1.4055301139337072e-03 0.0000000000000000e+00  1.4941304231911692e-01 1.4896848159786122e-03 0.0000000000000000e+00  1.5034061635050011e-01 -9.7679685999667093e-04 0.0000000000000000e+00  1.4991710479067433e-01 5.9977596414198379e-04 0.0000000000000000e+00  1.5006142012387444e-01 -7.7731473015419782e-04 0.0000000000000000e+00  1.4974304726413129e-01 1.3432030590137417e-03 0.0000000000000000e+00  1.5047807085689630e-01 -1.8421405660691142e-03 0.0000000000000000e+00  1.4942980185394775e-01 1.9999243837205707e-03 0.0000000000000000e+00  1.5052110539281735e-01 -1.8653941849394460e-03 0.0000000000000000e+00  1.4956858210659443e-01 1.7167738397766430e-03 0.0000000000000000e+00  1.5038255592141958e-01 -1.6958663725026015e-03 0.0000000000000000e+00  1.4958728628510287e-01 1.8357735072909638e-03 0.0000000000000000e+00  1.5045095423152674e-01 -1.9392584339321388e-03 0.0000000000000000e+00  1.4949158164922280e-01 2.0147208636406206e-03 0.0000000000000000e+00  1.5046708132681011e-01 -1.8559674066106499e-03 0.0000000000000000e+00  1.4950149342221011e-01 1.8031889365997605e-03 0.0000000000000000e+00  1.5036811877015663e-01 -1.4776263330658118e-03 0.0000000000000000e+00  1.4951734169029413e-01 1.5274278847285877e-03 0.0000000000000000e+00  1.5027580623852499e-01 -1.1008505430351058e-03 0.0000000000000000e+00  1.4945160871171281e-01 1.2581757832115219e-03 0.0000000000000000e+00  1.5023792413076248e-01 -6.2966601276112795e-04 0.0000000000000000e+00  1.4932034039978548e-01 8.1589316150332226e-04 0.0000000000000000e+00  1.5023641295869986e-01 -1.3028443437147045e-04 0.0000000000000000e+00  1.4925050631462292e-01 0.0000000000000000e+00 0.0000000000000000e+00  1.5000016440489761e-01 0.0000000000000000e+00 1.2792462946466662e-03  1.5036349487922654e-01 4.7365385054659623e-05 4.7365385054341098e-05  1.5005251600408379e-01 -6.1451386002847629e-04 -2.9684778460283993e-04  1.5009892512457604e-01 7.8991278467819843e-04 1.2650796914665225e-05  1.4969569748391626e-01 1.3905362168370983e-05 -1.4495802618050189e-03  1.4951761901257554e-01 1.4763428281860456e-03 -2.3324904036026089e-04  1.4935222774490511e-01 7.8421553150583121e-04 -1.3016275356496584e-03  1.4940473758562550e-01 1.0947342924611326e-03 4.2160267871496398e-04  1.4966818425987213e-01 -2.1905845967554364e-04 -8.2168256584151160e-05  1.5006709998374754e-01 -6.2779951720606157e-04 1.2818379788760602e-03  1.5042861119381412e-01 -1.5748258994879802e-03 6.0136193640382451e-04  1.5048022105288628e-01 -1.7144444982192242e-03 1.0543914452893234e-03  1.5048811957917729e-01 -1.6945868220733613e-03 1.3997831200541526e-04  1.5032771674433523e-01 -1.2732157716401106e-03 4.9497378567945499e-04  1.5019425711517770e-01 -1.4531872246828642e-03 -2.1242319775245286e-04  1.5014765097715480e-01 -1.3828887596831756e-03 1.3083830517711563e-04  1.5022865923022030e-01 -1.2373501569183730e-03 -6.2453544648947588e-04  1.5001017705830599e-01 -7.6485528182051099e-04 -4.4421449854960401e-04  1.4984213025481899e-01 -1.1842279871263489e-04 -1.0899861868574048e-03  1.4965881152180904e-01 7.1011394872371749e-04 -4.7046306745198791e-04  1.4951664690568311e-01 6.4975293650805705e-04 -6.9435426298346541e-04  1.4946790374345109e-01 4.2569296921920433e-04 -1.1370111119872589e-04  1.4970530628184259e-01 1.6116605016341430e-04 -2.3179762699471315e-04  1.4981487078640726e-01 -1.2504312191387464e-04 3.4440167999372798e-04  1.5010721935956803e-01 -5.0828944771035207e-04 4.2967252049234858e-04  1.5052353842991600e-01 -5.7656796257163942e-04 9.0637809194969059e-04  1.5068699393984020e-01 -6.3139309355507640e-04 4.3823443598503287e-04  1.5051469984375224e-01 -1.7834950623280419e-04 6.1740456816362842e-05  1.5051301003103537e-01 9.9016186514367874e-04 -3.4427567374158786e-04  1.5028964753834842e-01 1.0652971055062212e-03 -1.8548808217752136e-04  1.5018270126104857e-01 4.0423191293620977e-04 6.5883843391447168e-05  1.5035992762091849e-01 7.3808631884195619e-04 8.6454420106976638e-04  1.5015293672074653e-01 1.1218604860287970e-03 1.0543429388814461e-03  1.4971913526125760e-01 2.2221526289561161e-04 8.1703867512077425e-04  1.5014881389919679e-01 -1.0825796548892631e-04 2.3481719517897030e-04  1.5067631382293617e-01 7.7446049444285822e-04 -1.0832896602480848e-03  1.5079599523216339e-01 6.4281096176214416e-04 -2.9162145075265554e-03  1.5167176085748799e-01 -7.6650016781449595e-04 -4.4022149125816012e-03  1.5253645991371570e-01 -1.7079885462245345e-03 -6.2703733320921872e-03  1.5125125925849278e-01 -2.0358451409130075e-03 -7.4081380714129648e-03  1.4877044973574235e-01 -1.0064696928248477e-03 -4.1870109949727775e-03  1.4642381565570473e-01 1.3906645642857527e-03 4.7248332191222233e-03  1.4369987476934432e-01 2.1837181805062804e-03 1.7131653462566229e-02  1.4138051153898751e-01 2.3447515460695454e-03 3.1408350652223402e-02  1.4034528901788235e-01 4.3028283191782297e-03 4.5010155954709773e-02  1.3957324945135907e-01 5.9330329054453450e-03 5.3353585355733986e-02  1.3954551272746626e-01 5.6996379421548884e-03 5.5219234959740578e-02  1.4160547148157343e-01 4.8821452103470012e-03 5.1922298498267405e-02  1.4456201166017407e-01 3.2348638342997267e-03 4.2745967919654203e-02  1.4714653887117518e-01 1.4511633056706916e-03 2.9544410755113604e-02  1.5004981146697144e-01 1.5601627187509025e-03 1.6196250501196316e-02  1.5268377589580159e-01 1.4249835597633371e-03 4.0961076155371237e-03  1.5447174287077262e-01 -9.1125092660537734e-04 -4.8006959644382964e-03  1.5590902341913179e-01 -1.1301633090220703e-03 -8.1504979673707335e-03  1.5526603268359723e-01 1.0643871671652003e-03 -7.4393781547002439e-03  1.5288407647639821e-01 -1.3115729728907754e-04 -1.8074463599983001e-03  1.5135401363475554e-01 -2.8922143718447917e-03 1.0374328708864894e-02  1.4836891588624671e-01 -2.1135431010723504e-03 2.4829836962997939e-02  1.4307969648353025e-01 -1.9769746115123749e-03 3.8599298557953646e-02  1.4073947988010579e-01 -6.4973856656414470e-03 5.2045511296666326e-02  1.3994664814310587e-01 -7.6132453017938627e-03 5.8613332101858637e-02  1.3748525265011369e-01 -4.2400861952967420e-03 5.5215499370405367e-02  1.3873773420708260e-01 -4.7071394969185384e-03 4.4935195607907694e-02  1.4378729695852480e-01 -5.1493046463455218e-03 2.7916013310546807e-02  1.4585259193226213e-01 6.6422733609372369e-04 7.8658884982525084e-03  1.4819146486373874e-01 3.0334153336111194e-03 -4.5204467779072490e-03  1.5267487428583651e-01 -4.1007422499061421e-05 -8.9544342651941833e-03  1.5263047390966450e-01 9.0388531171515618e-04 -9.0725506470207429e-03  1.5030594663288310e-01 2.3786139172046624e-03 -3.7491776749079848e-03  1.5084853709429946e-01 -9.5046812732039836e-04 1.5538857184462180e-03  1.5019791877790584e-01 -1.5164269381604729e-03 8.3844639778166185e-04  1.4874054723518798e-01 1.4385962375361707e-03 2.6112703157601578e-04  1.5020673235861651e-01 -1.9901201428070559e-04 7.5932276446672353e-04  1.5054967195462718e-01 -9.4936622872270906e-04 -4.0609641748644629e-04  1.4949503221247312e-01 7.2692440123930913e-04 -4.8284038235022457e-04  1.5003065978930763e-01 4.5132922193216236e-04 6.9682650239675235e-04  1.5041453246592015e-01 -1.1724873529884682e-03 -3.7279856978186603e-04  1.4954367444779881e-01 8.9747964661871047e-04 -1.1622538328940863e-04  1.5016226701851892e-01 -1.6828123930484620e-04 3.3585076977830740e-04  1.5011778115266483e-01 -2.0506672571364275e-04 -1.3282236007598606e-04  1.4985611585419389e-01 -4.6780711992210153e-05 -2.4445238771771187e-04  1.4996234421203233e-01 5.6458224636525382e-04 4.4864187821016957e-04  1.5022078195857277e-01 -8.4356616395932108e-04 -3.5574193858259583e-04  1.4974243865214920e-01 7.0672684394282900e-04 1.0974228521347323e-04  1.5016273874942002e-01 -3.6099198105771051e-04 6.8763362889809150e-05  1.4995585389341046e-01 1.1380825295250969e-04 -7.7319151589973521e-05  1.4999449832924022e-01 -9.4762900982033946e-05 -2.3623881207032136e-05  1.4998890164229453e-01 1.9450269609885232e-04 1.2443606772884492e-04  1.5005816196313745e-01 -2.6658205920904296e-04 -1.2963288867131183e-04  1.4993693465925151e-01 1.8171089348911399e-04 7.0496518925826027e-05  1.5006230748935348e-01 -5.8429437950479775e-05 5.1590918249491491e-05  1.5000322290788326e-01 -1.4590897635194692e-04 -9.9288003143296077e-05  1.5001968179494282e-01 1.4842868613817547e-04 1.8579406863909048e-04  1.5006944681809473e-01 -2.9267933129880502e-04 -9.3800742799038861e-05  1.5004947154922904e-01 9.4330618030108196e-05 1.7291379047780893e-04  1.5011389696866262e-01 -3.1071725283767648e-04 4.4669733056220891e-05  1.5012553723219957e-01 -9.4889297047498055e-06 1.2139337942479434e-04  1.5016344943533924e-01 -3.3016723606671069e-04 1.6805162555380660e-04  1.5020643411655035e-01 -1.3538256602589185e-04 1.0192795227591047e-04  1.5022241008442414e-01 -1.7501254353307575e-04 1.7501254353328362e-04  1.5023641295870011e-01 0.0000000000000000e+00 1.3028443437194782e-04  1.4979278377498223e-01 0.0000000000000000e+00 -9.3973451000427450e-04  1.5005251600408404e-01 -2.9684778460314204e-04 -6.1451386002883712e-04  1.4998642002697485e-01 2.8751136457467254e-04 2.8751136457401795e-04  1.4983434970698900e-01 6.1163927430420977e-05 5.6514531037280909e-05  1.5054019440237504e-01 -6.8603917018394077e-04 1.3911379027978688e-03  1.5007407054562105e-01 -5.9930159663235528e-04 1.2351876242239958e-03  1.5101756529275720e-01 -9.9144580401948346e-04 1.5874697247978049e-03  1.5020189690442418e-01 -1.1596121964059626e-03 8.0682523852373576e-04  1.5081105059941766e-01 3.7656611299689985e-05 -1.6574044651977414e-04  1.4975093428482741e-01 -7.5996664831094279e-05 -8.8493201813038625e-04  1.4995726897039616e-01 1.6195706655964866e-03 -2.0304010172402186e-03  1.4919314555714050e-01 9.9233924125351658e-04 -1.5741827471517362e-03  1.4967280028609331e-01 2.3043309237802800e-03 -1.6716831880707536e-03  1.4930140592629285e-01 7.9905261364563666e-04 -5.5499334026247774e-04  1.4990825736437788e-01 1.7848793716835855e-03 -6.3926506981224363e-04  1.4970289994486530e-01 8.1938103620066399e-04 4.2180334850249574e-04  1.5001922348024940e-01 1.7272496044222320e-03 1.0395908644271815e-04  1.4974403278122556e-01 6.0834983795488788e-04 1.0421637855805397e-03  1.5020972827933574e-01 9.6634567683770943e-04 9.2483554163503559e-04  1.5007578699304078e-01 -4.7250334538484137e-04 1.5509684797249468e-03  1.5042913648292791e-01 -4.5864040479956346e-04 8.4979340703980285e-04  1.5040296218709440e-01 -6.7034053142825433e-04 1.1006205272319381e-03  1.5044672238698911e-01 -9.9008245708677049e-05 3.2246061804548605e-04  1.5011508524069350e-01 -1.2200629863190028e-04 1.8470817989498010e-04  1.5009779121841443e-01 5.6489590769832063e-04 -5.9395066416143732e-04  1.4960942315204420e-01 4.4083950711963957e-04 -1.0285941533984251e-03  1.4944712667798837e-01 6.6313866597209276e-04 -1.5014064152411492e-03  1.4948031056336522e-01 3.6255675566298991e-04 -4.6073390536502845e-04  1.4959184339478182e-01 -2.3428154604792652e-04 1.3590268528400394e-04  1.4934320179962204e-01 -1.2356655931448017e-03 6.8231046550376476e-04  1.4948963330468412e-01 -3.9572716205579886e-04 6.8058666170651961e-04  1.4943253280384405e-01 -1.5377441754436553e-04 5.2792774297244877e-05  1.4981594549485103e-01 -1.0611657646226540e-03 -1.6820605048681215e-03  1.5110901066991020e-01 -1.2628149398741088e-03 -3.1528618461287667e-03  1.5190978440037281e-01 -1.0070323404777607e-03 -5.5455262879767703e-03  1.5115324543054398e-01 -2.0584079591556507e-03 -6.9747438951644645e-03  1.4973172715863819e-01 -2.3210970957895124e-03 -2.9852085586900435e-03  1.4698661183193509e-01 4.5057320648588491e-05 7.5063141898297865e-03  1.4270160447125885e-01 4.0144901624868043e-03 2.3449962576247603e-02  1.3949766387677873e-01 7.8865990716200964e-03 4.2704012345105062e-02  1.3933043135338377e-01 1.0431810427478531e-02 5.4216994433537100e-02  1.4188710380438013e-01 8.6329422064358521e-03 4.4980185535597753e-02  1.4821881996891809e-01 3.6102979162404487e-03 1.2291956944318868e-02  1.5945010033138740e-01 -2.2409761365521268e-03 -3.9326385557614266e-02  1.7370453936608937e-01 -1.0858511234986884e-02 -1.0484517840961802e-01  1.9059418804703235e-01 -2.0139823726427399e-02 -1.7421499433683305e-01  2.0997544185049641e-01 -2.6350288364990558e-02 -2.3694471826069541e-01  2.2819861173083342e-01 -3.0548122301915049e-02 -2.9344563570694676e-01  2.4397869247064791e-01 -3.1236834610506040e-02 -3.4288609816285887e-01  2.5855140291039308e-01 -2.8761592440520165e-02 -3.7945638907192503e-01  2.7038433199228878e-01 -2.5613601256026988e-02 -4.0747817306025719e-01  2.7902906620619222e-01 -2.0508872659044362e-02 -4.2945789197720191e-01  2.8566571051111805e-01 -1.2993096449055375e-02 -4.4261292536739383e-01  2.8903722801065812e-01 -4.6481760853770652e-03 -4.5190604510299798e-01  2.8975451060715995e-01 2.8091034627002829e-03 -4.5685179831846146e-01  2.8993613416676123e-01 1.0026428978868960e-02 -4.5206276418982960e-01  2.8642669896213258e-01 1.8869479839043041e-02 -4.4425053963083860e-01  2.7815110154762718e-01 2.6634825402742701e-02 -4.3247817022470830e-01  2.6931644591485121e-01 3.0038509367005299e-02 -4.0589658784609656e-01  2.5664195485071345e-01 3.2958331420422302e-02 -3.6947606614613726e-01  2.3675607065150842e-01 3.5081736324442482e-02 -3.2481046702675875e-01  2.1594278856906415e-01 2.9711734246571617e-02 -2.5930667968502302e-01  1.9497037344411605e-01 1.9500716082505452e-02 -1.7960436267980362e-01  1.7086134271085990e-01 1.0983668902244115e-02 -9.7879640869720230e-02  1.5175961411462652e-01 -2.1142312777584500e-04 -1.6180610833894601e-02  1.4224497256779675e-01 -1.1636149671242773e-02 4.3165472001460710e-02  1.3717381142085838e-01 -1.1881003758906909e-02 6.0148092577880764e-02  1.3828344880637641e-01 -6.2482158109118261e-03 4.6753911744807169e-02  1.4564786545134670e-01 -3.0173808702413604e-03 1.9572676011593911e-02  1.5053155523202372e-01 8.2800643560032344e-04 -6.0583532179224828e-03  1.5127591913786170e-01 4.1395686704918874e-03 -1.1466094111184435e-02  1.5201639677428438e-01 5.7605413314279236e-04 -3.2644826258152928e-03  1.5060203386427762e-01 -1.0234216327654245e-03 -9.5414945378633943e-05  1.4912633847190937e-01 1.7344738201667895e-04 5.3272421592479306e-04  1.4979853498017426e-01 5.6092318299821951e-04 1.3534689229631385e-03  1.5051365702078484e-01 -1.3286819405420953e-03 -4.8780783915686209e-04  1.4953305499818664e-01 1.1261384623641993e-03 -6.2584221426591820e-04  1.5025538860017215e-01 -4.3561907847682166e-04 9.5170743228466367e-04  1.4994485381514477e-01 1.9620189049556467e-04 -5.98391083925601