<?xml version="1.0"?>
<VTKFile type="UnstructuredGrid"  version="0.1"  >
<UnstructuredGrid>
<Piece  NumberOfPoints="10201" NumberOfCells="20000">
<Points>
<DataArray  type="Float64"  NumberOfComponents="3"  format="ascii">-5 -5 0  -4.9 -5 0  -4.8 -5 0  -4.7 -5 0  -4.6 -5 0  -4.5 -5 0  -4.4 -5 0  -4.3 -5 0  -4.2 -5 0  -4.1 -5 0  -4 -5 0  -3.9 -5 0  -3.8 -5 0  -3.7 -5 0  -3.6 -5 0  -3.5 -5 0  -3.4 -5 0  -3.3 -5 0  -3.2 -5 0  -3.1 -5 0  -3 -5 0  -2.9 -5 0  -2.8 -5 0  -2.7 -5 0  -2.6 -5 0  -2.5 -5 0  -2.4 -5 0  -2.3 -5 0  -2.2 -5 0  -2.1 -5 0  -2 -5 0  -1.9 -5 0  -1.8 -5 0  -1.7 -5 0  -1.6 -5 0  -1.5 -5 0  -1.4 -5 0  -1.3 -5 0  -1.2 -5 0  -1.1 -5 0  -1 -5 0  -0.9000000000000004 -5 0  -0.7999999999999998 -5 0  -0.7000000000000002 -5 0  -0.5999999999999996 -5 0  -0.5 -5 0  -0.4000000000000004 -5 0  -0.2999999999999998 -5 0  -0.2000000000000002 -5 0  -0.09999999999999964 -5 0  0 -5 0  0.09999999999999964 -5 0  0.2000000000000002 -5 0  0.2999999999999998 -5 0  0.4000000000000004 -5 0  0.5 -5 0  0.5999999999999996 -5 0  0.7000000000000002 -5 0  0.7999999999999998 -5 0  0.9000000000000004 -5 0  1 -5 0  1.1 -5 0  1.2 -5 0  1.3 -5 0  1.4 -5 0  1.5 -5 0  1.6 -5 0  1.7 -5 0  1.8 -5 0  1.9 -5 0  2 -5 0  2.1 -5 0  2.2 -5 0  2.3 -5 0  2.4 -5 0  2.5 -5 0  2.6 -5 0  2.7 -5 0  2.8 -5 0  2.9 -5 0  3 -5 0  3.1 -5 0  3.199999999999999 -5 0  3.300000000000001 -5 0  3.4 -5 0  3.5 -5 0  3.6 -5 0  3.699999999999999 -5 0  3.800000000000001 -5 0  3.9 -5 0  4 -5 0  4.1 -5 0  4.199999999999999 -5 0  4.300000000000001 -5 0  4.4 -5 0  4.5 -5 0  4.6 -5 0  4.699999999999999 -5 0  4.800000000000001 -5 0  4.9 -5 0  5 -5 0  -5 -4.9 0  -4.9 -4.9 0  -4.8 -4.9 0  -4.7 -4.9 0  -4.6 -4.9 0  -4.5 -4.9 0  -4.4 -4.9 0  -4.3 -4.9 0  -4.2 -4.9 0  -4.1 -4.9 0  -4 -4.9 0  -3.9 -4.9 0  -3.8 -4.9 0  -3.7 -4.9 0  -3.6 -4.9 0  -3.5 -4.9 0  -3.4 -4.9 0  -3.3 -4.9 0  -3.2 -4.9 0  -3.1 -4.9 0  -3 -4.9 0  -2.9 -4.9 0  -2.8 -4.9 0  -2.7 -4.9 0  -2.6 -4.9 0  -2.5 -4.9 0  -2.4 -4.9 0  -2.3 -4.9 0  -2.2 -4.9 0  -2.1 -4.9 0  -2 -4.9 0  -1.9 -4.9 0  -1.8 -4.9 0  -1.7 -4.9 0  -1.6 -4.9 0  -1.5 -4.9 0  -1.4 -4.9 0  -1.3 -4.9 0  -1.2 -4.9 0  -1.1 -4.9 0  -1 -4.9 0  -0.9000000000000004 -4.9 0  -0.7999999999999998 -4.9 0  -0.7000000000000002 -4.9 0  -0.5999999999999996 -4.9 0  -0.5 -4.9 0  -0.4000000000000004 -4.9 0  -0.2999999999999998 -4.9 0  -0.2000000000000002 -4.9 0  -0.09999999999999964 -4.9 0  0 -4.9 0  0.09999999999999964 -4.9 0  0.2000000000000002 -4.9 0  0.2999999999999998 -4.9 0  0.4000000000000004 -4.9 0  0.5 -4.9 0  0.5999999999999996 -4.9 0  0.7000000000000002 -4.9 0  0.7999999999999998 -4.9 0  0.9000000000000004 -4.9 0  1 -4.9 0  1.1 -4.9 0  1.2 -4.9 0  1.3 -4.9 0  1.4 -4.9 0  1.5 -4.9 0  1.6 -4.9 0  1.7 -4.9 0  1.8 -4.9 0  1.9 -4.9 0  2 -4.9 0  2.1 -4.9 0  2.2 -4.9 0  2.3 -4.9 0  2.4 -4.9 0  2.5 -4.9 0  2.6 -4.9 0  2.7 -4.9 0  2.8 -4.9 0  2.9 -4.9 0  3 -4.9 0  3.1 -4.9 0  3.199999999999999 -4.9 0  3.300000000000001 -4.9 0  3.4 -4.9 0  3.5 -4.9 0  3.6 -4.9 0  3.699999999999999 -4.9 0  3.800000000000001 -4.9 0  3.9 -4.9 0  4 -4.9 0  4.1 -4.9 0  4.199999999999999 -4.9 0  4.300000000000001 -4.9 0  4.4 -4.9 0  4.5 -4.9 0  4.6 -4.9 0  4.699999999999999 -4.9 0  4.800000000000001 -4.9 0  4.9 -4.9 0  5 -4.9 0  -5 -4.8 0  -4.9 -4.8 0  -4.8 -4.8 0  -4.7 -4.8 0  -4.6 -4.8 0  -4.5 -4.8 0  -4.4 -4.8 0  -4.3 -4.8 0  -4.2 -4.8 0  -4.1 -4.8 0  -4 -4.8 0  -3.9 -4.8 0  -3.8 -4.8 0  -3.7 -4.8 0  -3.6 -4.8 0  -3.5 -4.8 0  -3.4 -4.8 0  -3.3 -4.8 0  -3.2 -4.8 0  -3.1 -4.8 0  -3 -4.8 0  -2.9 -4.8 0  -2.8 -4.8 0  -2.7 -4.8 0  -2.6 -4.8 0  -2.5 -4.8 0  -2.4 -4.8 0  -2.3 -4.8 0  -2.2 -4.8 0  -2.1 -4.8 0  -2 -4.8 0  -1.9 -4.8 0  -1.8 -4.8 0  -1.7 -4.8 0  -1.6 -4.8 0  -1.5 -4.8 0  -1.4 -4.8 0  -1.3 -4.8 0  -1.2 -4.8 0  -1.1 -4.8 0  -1 -4.8 0  -0.9000000000000004 -4.8 0  -0.7999999999999998 -4.8 0  -0.7000000000000002 -4.8 0  -0.5999999999999996 -4.8 0  -0.5 -4.8 0  -0.4000000000000004 -4.8 0  -0.2999999999999998 -4.8 0  -0.2000000000000002 -4.8 0  -0.09999999999999964 -4.8 0  0 -4.8 0  0.09999999999999964 -4.8 0  0.2000000000000002 -4.8 0  0.2999999999999998 -4.8 0  0.4000000000000004 -4.8 0  0.5 -4.8 0  0.5999999999999996 -4.8 0  0.7000000000000002 -4.8 0  0.7999999999999998 -4.8 0  0.9000000000000004 -4.8 0  1 -4.8 0  1.1 -4.8 0  1.2 -4.8 0  1.3 -4.8 0  1.4 -4.8 0  1.5 -4.8 0  1.6 -4.8 0  1.7 -4.8 0  1.8 -4.8 0  1.9 -4.8 0  2 -4.8 0  2.1 -4.8 0  2.2 -4.8 0  2.3 -4.8 0  2.4 -4.8 0  2.5 -4.8 0  2.6 -4.8 0  2.7 -4.8 0  2.8 -4.8 0  2.9 -4.8 0  3 -4.8 0  3.1 -4.8 0  3.199999999999999 -4.8 0  3.300000000000001 -4.8 0  3.4 -4.8 0  3.5 -4.8 0  3.6 -4.8 0  3.699999999999999 -4.8 0  3.800000000000001 -4.8 0  3.9 -4.8 0  4 -4.8 0  4.1 -4.8 0  4.199999999999999 -4.8 0  4.300000000000001 -4.8 0  4.4 -4.8 0  4.5 -4.8 0  4.6 -4.8 0  4.699999999999999 -4.8 0  4.800000000000001 -4.8 0  4.9 -4.8 0  5 -4.8 0  -5 -4.7 0  -4.9 -4.7 0  -4.8 -4.7 0  -4.7 -4.7 0  -4.6 -4.7 0  -4.5 -4.7 0  -4.4 -4.7 0  -4.3 -4.7 0  -4.2 -4.7 0  -4.1 -4.7 0  -4 -4.7 0  -3.9 -4.7 0  -3.8 -4.7 0  -3.7 -4.7 0  -3.6 -4.7 0  -3.5 -4.7 0  -3.4 -4.7 0  -3.3 -4.7 0  -3.2 -4.7 0  -3.1 -4.7 0  -3 -4.7 0  -2.9 -4.7 0  -2.8 -4.7 0  -2.7 -4.7 0  -2.6 -4.7 0  -2.5 -4.7 0  -2.4 -4.7 0  -2.3 -4.7 0  -2.2 -4.7 0  -2.1 -4.7 0  -2 -4.7 0  -1.9 -4.7 0  -1.8 -4.7 0  -1.7 -4.7 0  -1.6 -4.7 0  -1.5 -4.7 0  -1.4 -4.7 0  -1.3 -4.7 0  -1.2 -4.7 0  -1.1 -4.7 0  -1 -4.7 0  -0.9000000000000004 -4.7 0  -0.7999999999999998 -4.7 0  -0.7000000000000002 -4.7 0  -0.5999999999999996 -4.7 0  -0.5 -4.7 0  -0.4000000000000004 -4.7 0  -0.2999999999999998 -4.7 0  -0.2000000000000002 -4.7 0  -0.09999999999999964 -4.7 0  0 -4.7 0  0.09999999999999964 -4.7 0  0.2000000000000002 -4.7 0  0.2999999999999998 -4.7 0  0.4000000000000004 -4.7 0  0.5 -4.7 0  0.5999999999999996 -4.7 0  0.7000000000000002 -4.7 0  0.7999999999999998 -4.7 0  0.9000000000000004 -4.7 0  1 -4.7 0  1.1 -4.7 0  1.2 -4.7 0  1.3 -4.7 0  1.4 -4.7 0  1.5 -4.7 0  1.6 -4.7 0  1.7 -4.7 0  1.8 -4.7 0  1.9 -4.7 0  2 -4.7 0  2.1 -4.7 0  2.2 -4.7 0  2.3 -4.7 0  2.4 -4.7 0  2.5 -4.7 0  2.6 -4.7 0  2.7 -4.7 0  2.8 -4.7 0  2.9 -4.7 0  3 -4.7 0  3.1 -4.7 0  3.199999999999999 -4.7 0  3.300000000000001 -4.7 0  3.4 -4.7 0  3.5 -4.7 0  3.6 -4.7 0  3.699999999999999 -4.7 0  3.800000000000001 -4.7 0  3.9 -4.7 0  4 -4.7 0  4.1 -4.7 0  4.199999999999999 -4.7 0  4.300000000000001 -4.7 0  4.4 -4.7 0  4.5 -4.7 0  4.6 -4.7 0  4.699999999999999 -4.7 0  4.800000000000001 -4.7 0  4.9 -4.7 0  5 -4.7 0  -5 -4.6 0  -4.9 -4.6 0  -4.8 -4.6 0  -4.7 -4.6 0  -4.6 -4.6 0  -4.5 -4.6 0  -4.4 -4.6 0  -4.3 -4.6 0  -4.2 -4.6 0  -4.1 -4.6 0  -4 -4.6 0  -3.9 -4.6 0  -3.8 -4.6 0  -3.7 -4.6 0  -3.6 -4.6 0  -3.5 -4.6 0  -3.4 -4.6 0  -3.3 -4.6 0  -3.2 -4.6 0  -3.1 -4.6 0  -3 -4.6 0  -2.9 -4.6 0  -2.8 -4.6 0  -2.7 -4.6 0  -2.6 -4.6 0  -2.5 -4.6 0  -2.4 -4.6 0  -2.3 -4.6 0  -2.2 -4.6 0  -2.1 -4.6 0  -2 -4.6 0  -1.9 -4.6 0  -1.8 -4.6 0  -1.7 -4.6 0  -1.6 -4.6 0  -1.5 -4.6 0  -1.4 -4.6 0  -1.3 -4.6 0  -1.2 -4.6 0  -1.1 -4.6 0  -1 -4.6 0  -0.9000000000000004 -4.6 0  -0.7999999999999998 -4.6 0  -0.7000000000000002 -4.6 0  -0.5999999999999996 -4.6 0  -0.5 -4.6 0  -0.4000000000000004 -4.6 0  -0.2999999999999998 -4.6 0  -0.2000000000000002 -4.6 0  -0.09999999999999964 -4.6 0  0 -4.6 0  0.09999999999999964 -4.6 0  0.2000000000000002 -4.6 0  0.2999999999999998 -4.6 0  0.4000000000000004 -4.6 0  0.5 -4.6 0  0.5999999999999996 -4.6 0  0.7000000000000002 -4.6 0  0.7999999999999998 -4.6 0  0.9000000000000004 -4.6 0  1 -4.6 0  1.1 -4.6 0  1.2 -4.6 0  1.3 -4.6 0  1.4 -4.6 0  1.5 -4.6 0  1.6 -4.6 0  1.7 -4.6 0  1.8 -4.6 0  1.9 -4.6 0  2 -4.6 0  2.1 -4.6 0  2.2 -4.6 0  2.3 -4.6 0  2.4 -4.6 0  2.5 -4.6 0  2.6 -4.6 0  2.7 -4.6 0  2.8 -4.6 0  2.9 -4.6 0  3 -4.6 0  3.1 -4.6 0  3.199999999999999 -4.6 0  3.300000000000001 -4.6 0  3.4 -4.6 0  3.5 -4.6 0  3.6 -4.6 0  3.699999999999999 -4.6 0  3.800000000000001 -4.6 0  3.9 -4.6 0  4 -4.6 0  4.1 -4.6 0  4.199999999999999 -4.6 0  4.300000000000001 -4.6 0  4.4 -4.6 0  4.5 -4.6 0  4.6 -4.6 0  4.699999999999999 -4.6 0  4.800000000000001 -4.6 0  4.9 -4.6 0  5 -4.6 0  -5 -4.5 0  -4.9 -4.5 0  -4.8 -4.5 0  -4.7 -4.5 0  -4.6 -4.5 0  -4.5 -4.5 0  -4.4 -4.5 0  -4.3 -4.5 0  -4.2 -4.5 0  -4.1 -4.5 0  -4 -4.5 0  -3.9 -4.5 0  -3.8 -4.5 0  -3.7 -4.5 0  -3.6 -4.5 0  -3.5 -4.5 0  -3.4 -4.5 0  -3.3 -4.5 0  -3.2 -4.5 0  -3.1 -4.5 0  -3 -4.5 0  -2.9 -4.5 0  -2.8 -4.5 0  -2.7 -4.5 0  -2.6 -4.5 0  -2.5 -4.5 0  -2.4 -4.5 0  -2.3 -4.5 0  -2.2 -4.5 0  -2.1 -4.5 0  -2 -4.5 0  -1.9 -4.5 0  -1.8 -4.5 0  -1.7 -4.5 0  -1.6 -4.5 0  -1.5 -4.5 0  -1.4 -4.5 0  -1.3 -4.5 0  -1.2 -4.5 0  -1.1 -4.5 0  -1 -4.5 0  -0.9000000000000004 -4.5 0  -0.7999999999999998 -4.5 0  -0.7000000000000002 -4.5 0  -0.5999999999999996 -4.5 0  -0.5 -4.5 0  -0.4000000000000004 -4.5 0  -0.2999999999999998 -4.5 0  -0.2000000000000002 -4.5 0  -0.09999999999999964 -4.5 0  0 -4.5 0  0.09999999999999964 -4.5 0  0.2000000000000002 -4.5 0  0.2999999999999998 -4.5 0  0.4000000000000004 -4.5 0  0.5 -4.5 0  0.5999999999999996 -4.5 0  0.7000000000000002 -4.5 0  0.7999999999999998 -4.5 0  0.9000000000000004 -4.5 0  1 -4.5 0  1.1 -4.5 0  1.2 -4.5 0  1.3 -4.5 0  1.4 -4.5 0  1.5 -4.5 0  1.6 -4.5 0  1.7 -4.5 0  1.8 -4.5 0  1.9 -4.5 0  2 -4.5 0  2.1 -4.5 0  2.2 -4.5 0  2.3 -4.5 0  2.4 -4.5 0  2.5 -4.5 0  2.6 -4.5 0  2.7 -4.5 0  2.8 -4.5 0  2.9 -4.5 0  3 -4.5 0  3.1 -4.5 0  3.199999999999999 -4.5 0  3.300000000000001 -4.5 0  3.4 -4.5 0  3.5 -4.5 0  3.6 -4.5 0  3.699999999999999 -4.5 0  3.800000000000001 -4.5 0  3.9 -4.5 0  4 -4.5 0  4.1 -4.5 0  4.199999999999999 -4.5 0  4.300000000000001 -4.5 0  4.4 -4.5 0  4.5 -4.5 0  4.6 -4.5 0  4.699999999999999 -4.5 0  4.800000000000001 -4.5 0  4.9 -4.5 0  5 -4.5 0  -5 -4.4 0  -4.9 -4.4 0  -4.8 -4.4 0  -4.7 -4.4 0  -4.6 -4.4 0  -4.5 -4.4 0  -4.4 -4.4 0  -4.3 -4.4 0  -4.2 -4.4 0  -4.1 -4.4 0  -4 -4.4 0  -3.9 -4.4 0  -3.8 -4.4 0  -3.7 -4.4 0  -3.6 -4.4 0  -3.5 -4.4 0  -3.4 -4.4 0  -3.3 -4.4 0  -3.2 -4.4 0  -3.1 -4.4 0  -3 -4.4 0  -2.9 -4.4 0  -2.8 -4.4 0  -2.7 -4.4 0  -2.6 -4.4 0  -2.5 -4.4 0  -2.4 -4.4 0  -2.3 -4.4 0  -2.2 -4.4 0  -2.1 -4.4 0  -2 -4.4 0  -1.9 -4.4 0  -1.8 -4.
[...]
<PointData  Vectors="f_23"> 
<DataArray  type="Float64"  Name="f_23"  NumberOfComponents="3" format="ascii">1.5000000000000013e-01 0.0000000000000000e+00 0.0000000000000000e+00  1.5000000000000002e-01 1.1622841883412393e-32 0.0000000000000000e+00  1.5000000000000022e-01 4.9286143611569119e-32 0.0000000000000000e+00  1.4999999999999997e-01 2.8555050742926413e-32 0.0000000000000000e+00  1.5000000000000005e-01 7.7428559568376168e-33 0.0000000000000000e+00  1.5000000000000011e-01 1.1645945889289786e-32 0.0000000000000000e+00  1.4999999999999991e-01 2.0132291771499438e-32 0.0000000000000000e+00  1.5000000000000005e-01 5.8711319869568393e-33 0.0000000000000000e+00  1.4999999999999997e-01 1.3683409639675746e-33 0.0000000000000000e+00  1.5000000000000002e-01 3.9609174774271821e-35 0.0000000000000000e+00  1.5000000000000013e-01 7.0798527960019617e-33 0.0000000000000000e+00  1.5000000000000013e-01 5.5028276850485507e-33 0.0000000000000000e+00  1.5000000000000002e-01 1.7654302944094689e-32 0.0000000000000000e+00  1.5000000000000002e-01 8.5588336685943356e-33 0.0000000000000000e+00  1.5000000000000022e-01 1.6221438246985686e-31 0.0000000000000000e+00  1.5000000000000002e-01 2.0786856613039185e-32 0.0000000000000000e+00  1.5000000000000013e-01 6.7136029037630118e-33 0.0000000000000000e+00  1.4999999999999980e-01 1.0590148336876814e-32 0.0000000000000000e+00  1.5000000000000011e-01 8.3632788808024492e-32 0.0000000000000000e+00  1.5000000000000027e-01 2.2010060823273458e-32 0.0000000000000000e+00  1.4999999999999997e-01 1.1119673922680786e-34 0.0000000000000000e+00  1.5000000000000011e-01 2.0613496222330949e-32 0.0000000000000000e+00  1.5000000000000013e-01 1.0039050090071307e-31 0.0000000000000000e+00  1.5000000000000005e-01 5.8742641951525981e-32 0.0000000000000000e+00  1.5000000000000013e-01 1.7446716147211660e-32 0.0000000000000000e+00  1.4999999999999997e-01 4.4710444327129661e-33 0.0000000000000000e+00  1.5000000000000019e-01 1.8793207833707734e-33 0.0000000000000000e+00  1.5000000000000005e-01 9.6034579834519882e-33 0.0000000000000000e+00  1.4999999999999997e-01 1.5205771317833339e-34 0.0000000000000000e+00  1.5000000000000013e-01 3.8579541258738204e-35 0.0000000000000000e+00  1.5000000000000013e-01 2.6141833818502934e-32 0.0000000000000000e+00  1.5000000000000013e-01 1.8014454294701293e-33 0.0000000000000000e+00  1.5000000000000011e-01 4.2040217713371739e-32 0.0000000000000000e+00  1.5000000000000005e-01 7.1767992026724923e-33 0.0000000000000000e+00  1.5000000000000013e-01 3.5308354509252088e-32 0.0000000000000000e+00  1.5000000000000022e-01 8.7057741046436214e-33 0.0000000000000000e+00  1.5000000000000005e-01 2.8667594733440147e-34 0.0000000000000000e+00  1.5000000000000005e-01 3.8277566554181567e-32 0.0000000000000000e+00  1.5000000000000013e-01 7.4102459878353349e-32 0.0000000000000000e+00  1.5000000000000013e-01 7.9279454477921038e-33 0.0000000000000000e+00  1.5000000000000013e-01 9.8422824491272016e-32 0.0000000000000000e+00  1.5000000000000011e-01 1.4294709034130722e-32 0.0000000000000000e+00  1.4999999999999988e-01 4.9659147305447468e-33 0.0000000000000000e+00  1.5000000000000013e-01 8.4425481049493301e-34 0.0000000000000000e+00  1.4999999999999997e-01 5.3177139966456980e-32 0.0000000000000000e+00  1.5000000000000044e-01 7.7017407772705885e-33 0.0000000000000000e+00  1.4999999999999991e-01 4.7682857358634141e-33 0.0000000000000000e+00  1.5000000000000013e-01 5.2565785983660460e-33 0.0000000000000000e+00  1.4999999999999997e-01 3.4049318314752455e-34 0.0000000000000000e+00  1.5000000000000002e-01 1.1642428858043869e-34 0.0000000000000000e+00  1.5000000000000011e-01 1.8851057057900447e-35 0.0000000000000000e+00  1.4999999999999997e-01 1.4374685102898668e-33 0.0000000000000000e+00  1.5000000000000002e-01 1.0210980663620987e-32 0.0000000000000000e+00  1.5000000000000011e-01 2.6826768935741315e-32 0.0000000000000000e+00  1.5000000000000013e-01 5.5341549024630271e-34 0.0000000000000000e+00  1.5000000000000011e-01 2.0785385767352387e-33 0.0000000000000000e+00  1.5000000000000002e-01 1.1343156711489587e-32 0.0000000000000000e+00  1.5000000000000005e-01 8.6814585982102721e-33 0.0000000000000000e+00  1.4999999999999997e-01 9.8256798490794697e-32 0.0000000000000000e+00  1.5000000000000013e-01 1.0409807378940335e-31 0.0000000000000000e+00  1.5000000000000011e-01 4.0399892809556798e-32 0.0000000000000000e+00  1.4999999999999997e-01 4.9719643578121079e-33 0.0000000000000000e+00  1.5000000000000019e-01 1.7998281485150637e-34 0.0000000000000000e+00  1.4999999999999997e-01 1.2043451306484359e-32 0.0000000000000000e+00  1.5000000000000013e-01 2.8774678321184336e-32 0.0000000000000000e+00  1.5000000000000011e-01 1.1465167174393266e-33 0.0000000000000000e+00  1.5000000000000005e-01 7.5994393400677696e-32 0.0000000000000000e+00  1.5000000000000019e-01 9.5921030436890538e-32 0.0000000000000000e+00  1.4999999999999988e-01 3.3664961873292630e-32 0.0000000000000000e+00  1.5000000000000002e-01 7.7110390376718290e-33 0.0000000000000000e+00  1.5000000000000011e-01 4.4787142011025345e-33 0.0000000000000000e+00  1.4999999999999988e-01 2.1782832123560456e-32 0.0000000000000000e+00  1.5000000000000005e-01 4.5041532293050552e-32 0.0000000000000000e+00  1.5000000000000013e-01 5.5664761109947686e-32 0.0000000000000000e+00  1.4999999999999997e-01 1.0322024971558687e-34 0.0000000000000000e+00  1.5000000000000019e-01 4.2336225302740629e-33 0.0000000000000000e+00  1.5000000000000002e-01 1.1883863179961099e-33 0.0000000000000000e+00  1.5000000000000013e-01 6.5224497842770856e-32 0.0000000000000000e+00  1.5000000000000002e-01 2.1431257638453470e-31 0.0000000000000000e+00  1.5000000000000013e-01 3.3677277020371345e-32 0.0000000000000000e+00  1.5000000000000013e-01 3.2824110902728987e-34 0.0000000000000000e+00  1.4999999999999991e-01 7.2937307404150726e-34 0.0000000000000000e+00  1.5000000000000019e-01 1.0783587834651067e-32 0.0000000000000000e+00  1.4999999999999997e-01 1.3738507800122796e-32 0.0000000000000000e+00  1.4999999999999997e-01 1.2359310048840796e-33 0.0000000000000000e+00  1.4999999999999997e-01 3.0765413392232620e-34 0.0000000000000000e+00  1.5000000000000013e-01 5.3734393229276946e-33 0.0000000000000000e+00  1.5000000000000005e-01 2.5453294273732723e-33 0.0000000000000000e+00  1.5000000000000011e-01 4.6482644253605267e-32 0.0000000000000000e+00  1.4999999999999988e-01 1.3148226449150782e-32 0.0000000000000000e+00  1.5000000000000005e-01 3.2595533320943361e-34 0.0000000000000000e+00  1.5000000000000019e-01 2.5274927895296701e-33 0.0000000000000000e+00  1.4999999999999997e-01 5.5742306472930511e-33 0.0000000000000000e+00  1.5000000000000011e-01 4.1049008476269441e-33 0.0000000000000000e+00  1.5000000000000005e-01 2.7128254904928647e-33 0.0000000000000000e+00  1.5000000000000002e-01 2.7347370214451067e-33 0.0000000000000000e+00  1.5000000000000019e-01 6.6049022569344960e-33 0.0000000000000000e+00  1.5000000000000019e-01 3.2269012514506092e-33 0.0000000000000000e+00  1.5000000000000013e-01 2.6541624053926696e-32 0.0000000000000000e+00  1.5000000000000005e-01 1.9076152792828731e-36 0.0000000000000000e+00  1.5000000000000005e-01 0.0000000000000000e+00 0.0000000000000000e+00  1.5000000000000002e-01 0.0000000000000000e+00 5.4909661375250470e-34  1.5000000000000013e-01 5.0648851477764874e-36 3.5659550960161887e-34  1.5000000000000022e-01 2.9223115269979222e-32 2.8318800499246376e-33  1.5000000000000011e-01 1.2255531640093312e-32 5.8235956646140303e-33  1.5000000000000041e-01 4.2984604705343183e-32 4.3331425483565288e-32  1.5000000000000005e-01 4.5738932897129094e-33 8.5610943948330965e-33  1.5000000000000013e-01 6.6680850512504867e-32 6.1396869372722163e-32  1.5000000000000019e-01 6.2985362826016135e-32 1.0173282316842462e-32  1.5000000000000013e-01 1.4406097860930440e-32 1.3321133546286765e-33  1.5000000000000030e-01 6.5641635793146957e-33 1.4111214744690913e-32  1.5000000000000019e-01 5.1931445252569665e-33 1.5728113610980201e-32  1.5000000000000005e-01 1.6388888182528760e-32 1.1420157344966493e-32  1.5000000000000013e-01 1.0849537468016323e-31 1.0848965323308338e-31  1.5000000000000022e-01 1.8223354040784673e-33 8.5803903701982707e-32  1.5000000000000013e-01 5.4590269747876515e-32 5.9685244380140261e-32  1.5000000000000005e-01 1.1563553675146967e-33 1.3937415993215655e-32  1.5000000000000011e-01 3.7820333192574654e-32 2.4903835117685168e-32  1.5000000000000036e-01 9.4482174976361227e-35 2.4545556051063174e-33  1.5000000000000027e-01 8.8842768296049694e-33 5.1344667207469904e-32  1.4999999999999997e-01 6.0363071018205413e-32 9.7606397705795498e-35  1.5000000000000005e-01 1.8619577963256014e-31 2.2869282562337320e-32  1.5000000000000027e-01 2.3358026979834369e-32 9.4676698103943176e-32  1.5000000000000011e-01 1.7887249334878803e-33 2.8397940603268997e-32  1.5000000000000019e-01 2.0919337845997011e-33 3.7141917014788464e-34  1.5000000000000002e-01 1.3234760001561602e-34 6.8915417898291345e-34  1.5000000000000022e-01 2.8053130911920359e-33 2.3568705183933021e-33  1.5000000000000013e-01 1.2636950525147781e-33 4.6353780989115860e-33  1.5000000000000005e-01 6.4282403997342317e-35 5.9441994096795918e-33  1.5000000000000027e-01 7.3653442474674569e-32 1.0024549575838486e-34  1.5000000000000019e-01 3.2741726442314647e-32 6.3438045183760383e-32  1.5000000000000011e-01 1.0225791339464898e-32 4.9172732836267456e-33  1.5000000000000005e-01 1.7112463877183133e-32 4.9158929977225134e-33  1.5000000000000005e-01 3.3214493885652522e-32 3.9775692384586226e-32  1.5000000000000013e-01 5.2680425063756277e-35 3.9420710077977852e-32  1.5000000000000022e-01 4.8776642752097387e-34 1.9222518753683649e-32  1.5000000000000005e-01 3.5336675395741442e-33 7.2050440042468132e-34  1.5000000000000011e-01 5.0901448029327421e-32 3.5360219665108303e-32  1.5000000000000027e-01 1.3034731743112444e-34 5.6219311878308334e-33  1.5000000000000019e-01 5.6401899668572172e-33 5.6436529271086863e-32  1.5000000000000013e-01 9.6031009095133910e-32 2.4930391656382610e-33  1.5000000000000011e-01 1.1134882345266617e-31 3.0725126294880940e-32  1.5000000000000005e-01 7.8007937338639734e-32 7.8714143064480881e-32  1.5000000000000027e-01 1.6133753164795205e-31 2.1287056953971126e-32  1.5000000000000013e-01 2.0639638432635570e-32 8.0642476276988220e-33  1.5000000000000036e-01 1.5679419051341476e-33 4.9231464636129896e-34  1.5000000000000002e-01 2.1931144003129711e-33 3.5814755021084388e-33  1.5000000000000005e-01 1.4562153027673052e-31 1.1540216674207360e-32  1.5000000000000019e-01 1.2913444471222883e-31 1.3556023384865108e-32  1.5000000000000013e-01 1.7127520465499103e-32 9.9674369337011656e-33  1.5000000000000027e-01 1.5587539728872971e-33 2.1859043438584263e-33  1.5000000000000019e-01 3.9831758244415299e-33 1.8405570937449079e-33  1.5000000000000013e-01 4.0015783112832532e-32 1.6537402235398466e-32  1.5000000000000027e-01 2.1017140868500576e-31 3.9783195038626197e-33  1.5000000000000013e-01 7.0745045865036076e-32 2.3190540447272267e-31  1.5000000000000027e-01 6.3227199909627686e-33 2.2487871611138792e-33  1.5000000000000002e-01 5.8887531427253738e-33 1.2911248641283085e-33  1.5000000000000013e-01 1.0124172243903829e-32 4.6016844650671829e-33  1.5000000000000005e-01 2.2374934534491095e-32 5.4493333799918716e-34  1.5000000000000011e-01 3.1847541176156086e-34 8.9691244292599780e-33  1.5000000000000030e-01 2.7290150284932489e-33 7.7221625524392648e-33  1.5000000000000002e-01 7.4252927538414695e-32 2.8035040445863690e-33  1.5000000000000036e-01 1.5220747718107976e-32 1.1560580443818783e-31  1.5000000000000027e-01 7.8562643728230810e-33 4.9135313318280910e-33  1.5000000000000019e-01 3.2013440424104855e-32 9.5707816099340643e-33  1.5000000000000030e-01 1.9103169541489997e-32 7.5468380104790695e-33  1.5000000000000013e-01 2.4859744124241841e-32 5.8821692045356565e-32  1.5000000000000022e-01 9.3658639341545933e-34 1.7457505202441678e-32  1.5000000000000019e-01 8.5759396431010871e-33 2.2814363704002587e-32  1.5000000000000013e-01 1.5388695070667657e-32 3.1384414192983197e-33  1.5000000000000052e-01 4.4957489756445136e-34 1.0898265149547723e-32  1.5000000000000019e-01 1.3308347686902123e-32 1.1496741270388013e-32  1.5000000000000019e-01 8.5513658399465276e-33 1.2653684945645941e-32  1.5000000000000041e-01 1.1250717527844399e-31 3.3600622298460789e-33  1.5000000000000022e-01 1.0361049242479767e-31 7.1232987638960531e-32  1.5000000000000030e-01 2.6660496718363476e-33 1.6758680285644554e-33  1.4999999999999997e-01 5.2627554612411408e-32 1.2192735514926877e-32  1.5000000000000005e-01 6.0537883734362912e-32 6.5158241880774368e-34  1.5000000000000022e-01 1.0606406330397173e-33 1.1773094356086938e-31  1.5000000000000022e-01 5.3946548095961565e-33 4.7936312622816845e-32  1.5000000000000027e-01 5.0060763402530505e-34 1.6547971604540483e-32  1.5000000000000011e-01 2.2710596242877190e-33 7.0305228727612379e-34  1.5000000000000022e-01 6.6433866486057804e-35 6.4736991828839639e-32  1.5000000000000011e-01 1.4090686437780658e-32 1.6136117204986575e-32  1.5000000000000005e-01 3.3033171937274284e-32 4.3433690849492407e-32  1.5000000000000027e-01 3.9779593803356018e-33 1.6401060977518933e-32  1.5000000000000041e-01 1.5606191044024192e-33 2.8658304183804635e-33  1.5000000000000019e-01 1.5476289991289433e-32 4.2445269322877290e-32  1.5000000000000013e-01 7.6741862467915760e-34 1.4804963220514766e-32  1.5000000000000022e-01 8.9479087671074883e-34 1.5008107255549077e-32  1.5000000000000019e-01 1.7189798037755845e-33 7.7850083068157836e-33  1.5000000000000027e-01 7.5913329299373626e-33 3.4550379758481616e-32  1.5000000000000002e-01 1.3474835635989852e-33 6.5771439101231481e-33  1.5000000000000013e-01 8.7144223250052993e-36 1.5015108869428501e-33  1.5000000000000022e-01 2.5904048332702047e-32 3.0303484154525608e-32  1.5000000000000027e-01 5.5699879382812753e-35 1.6294085398963283e-32  1.5000000000000022e-01 2.8514441347885565e-32 6.3809102782445136e-33  1.5000000000000011e-01 6.8540228280756652e-37 8.7392228109615656e-33  1.5000000000000002e-01 1.1839180450688722e-32 1.3338560785943493e-33  1.5000000000000011e-01 5.1836425490238110e-33 4.1245804014001286e-32  1.5000000000000011e-01 8.1064860427717100e-33 4.3956436179413342e-34  1.5000000000000019e-01 0.0000000000000000e+00 2.2250685589393539e-32  1.5000000000000013e-01 0.0000000000000000e+00 3.6610076273106738e-34  1.5000000000000013e-01 9.2106486439924812e-33 9.8990822625869196e-33  1.4999999999999997e-01 1.5822126891727265e-32 3.4838475183325687e-32  1.5000000000000013e-01 5.4153734373281322e-33 1.0883301337159658e-32  1.5000000000000005e-01 2.8219398484503088e-32 1.0746291683328307e-32  1.4999999999999991e-01 6.4566973545574318e-33 1.0368892442447861e-31  1.5000000000000022e-01 1.6520035112589488e-32 3.0629873334575379e-32  1.4999999999999997e-01 2.7843737058353364e-33 4.3580096828316407e-37  1.5000000000000022e-01 1.4077087947668386e-34 7.6239238303222177e-33  1.4999999999999991e-01 1.0369658798981972e-32 5.3508734850642516e-32  1.5000000000000002e-01 1.9853076066334261e-32 2.0778846818414290e-32  1.5000000000000019e-01 1.4120991959489525e-32 1.4165518530934274e-32  1.5000000000000005e-01 1.2340254570212473e-31 9.1369739129901216e-32  1.4999999999999997e-01 1.0524767337107208e-32 1.6120263460704008e-31  1.5000000000000005e-01 4.0834724550239071e-33 2.0887107846089708e-31  1.5000000000000002e-01 2.9423398739100695e-33 4.0653478485984357e-35  1.5000000000000019e-01 9.2152683463207485e-33 6.7693749140070050e-33  1.4999999999999991e-01 2.6042991599124072e-34 1.0303467627538232e-32  1.4999999999999991e-01 1.2402470439916154e-33 2.8070286049309059e-32  1.5000000000000019e-01 8.4454674041666668e-33 2.5264794359976297e-32  1.5000000000000005e-01 9.8502517727464837e-34 1.6420470536550236e-32  1.5000000000000022e-01 7.4074910388487588e-33 1.3873178979388259e-31  1.4999999999999983e-01 3.7651439192436389e-32 6.7992723856228297e-33  1.5000000000000002e-01 8.3750815699275177e-32 2.0656907788271858e-35  1.5000000000000019e-01 1.8983465010533316e-32 2.0086315051801122e-33  1.5000000000000002e-01 1.5355512716435538e-32 7.2044326627404018e-36  1.5000000000000011e-01 5.8682596347529953e-33 1.8927659406290116e-39  1.5000000000000013e-01 7.6663585924082530e-33 1.1679422429045851e-32  1.5000000000000005e-01 1.4130116145294405e-32 1.0750114071536087e-32  1.5000000000000013e-01 3.0230134515154249e-32 1.0413929225327401e-31  1.5000000000000005e-01 3.5255810481651513e-32 2.8405106219563829e-35  1.5000000000000013e-01 5.1122262518649299e-33 1.5888540453777631e-33  1.4999999999999997e-01 6.8167829955285165e-33 5.7346280850369744e-32  1.5000000000000013e-01 3.2917359062737448e-32 4.3961973255663367e-35  1.5000000000000013e-01 2.7770094232924793e-33 5.3377489777498123e-33  1.5000000000000011e-01 1.9533335609470132e-35 9.3558414068374012e-33  1.5000000000000019e-01 1.6279259415742061e-32 1.1703296104101146e-32  1.4999999999999991e-01 6.7533185366406236e-34 4.6090038231054358e-32  1.4999999999999997e-01 1.1754457906126902e-32 1.7063696055193846e-31  1.5000000000000013e-01 2.6918537491313742e-33 4.5169201167058089e-35  1.5000000000000013e-01 2.7269491499172883e-34 2.4589310201175357e-35  1.5000000000000022e-01 3.9415845882992871e-33 8.9975512677367114e-34  1.4999999999999991e-01 1.9207897848680496e-32 4.4702984555158197e-33  1.5000000000000022e-01 1.6399985063429540e-33 1.1973530196904837e-34  1.4999999999999991e-01 2.8233079085419742e-32 1.3697717798188811e-33  1.5000000000000002e-01 5.8815365965612422e-32 1.9919965936434711e-31  1.5000000000000022e-01 2.6557121038226159e-33 8.0956139718011522e-33  1.5000000000000005e-01 1.4278870706361356e-34 2.5106005252154989e-33  1.5000000000000019e-01 3.4850359718116695e-34 5.7261676729153868e-36  1.5000000000000002e-01 1.8596636021819897e-32 2.0778642023304954e-32  1.4999999999999991e-01 2.0740531913959798e-33 3.1974524757322951e-32  1.5000000000000027e-01 1.7009025926464374e-32 1.6026228216310896e-33  1.5000000000000011e-01 8.1347421353343199e-33 9.9929236530792746e-34  1.5000000000000030e-01 3.6021840506339820e-32 1.6261065266566772e-31  1.5000000000000002e-01 4.9509237028040984e-32 5.5036788322955184e-33  1.5000000000000011e-01 9.8572840441304138e-33 5.5253093675487230e-36  1.5000000000000022e-01 8.5895422225024750e-34 6.7154307817333443e-33  1.4999999999999991e-01 3.2369701795392872e-33 2.4115426651416393e-35  1.5000000000000027e-01 1.5047124591586782e-32 7.0834303900576378e-33  1.5000000000000002e-01 2.0463026827130269e-32 2.3728438216444345e-32  1.5000000000000013e-01 2.8008021455899788e-32 3.3969753855840936e-33  1.5000000000000022e-01 5.1371007782700296e-33 8.1095308624186365e-32  1.4999999999999988e-01 8.2761141317167480e-32 3.9167632396375726e-32  1.5000000000000019e-01 1.5432811052048543e-32 5.9032089111420020e-34  1.5000000000000013e-01 2.4439345554491036e-32 3.2147819985286313e-33  1.5000000000000005e-01 5.2737704701676967e-32 9.2054861427319568e-32  1.5000000000000022e-01 5.2565344020393714e-33 4.4947531038040884e-33  1.4999999999999997e-01 8.3897330106603711e-33 6.1198712988934060e-34  1.5000000000000013e-01 1.0780998733879312e-32 1.4505287806904755e-34  1.5000000000000005e-01 1.9351843297411750e-32 4.0282128069489202e-32  1.4999999999999991e-01 7.9723333549942645e-33 1.5051221972760073e-31  1.5000000000000022e-01 3.8138453185739986e-33 3.4483612014190460e-32  1.5000000000000013e-01 1.8521388185121029e-32 7.3457760723888886e-33  1.5000000000000013e-01 1.4902027399807082e-32 3.9709496644700751e-32  1.4999999999999997e-01 1.4730793437448422e-32 6.9479879492043994e-33  1.5000000000000011e-01 1.5724324969960782e-32 2.8739864391851214e-32  1.5000000000000019e-01 2.0851737154196981e-33 1.0793256874618586e-33  1.5000000000000002e-01 3.1921960816444591e-32 5.6765455030021368e-32  1.5000000000000019e-01 5.7761676355943451e-32 1.0525309838037152e-32  1.5000000000000002e-01 6.7066847801006907e-33 7.4777008592268152e-33  1.5000000000000002e-01 3.6027285540329620e-35 4.8954602271326877e-33  1.5000000000000013e-01 5.3297342097309452e-32 5.8759543026588700e-32  1.5000000000