<?xml version="1.0"?>
<VTKFile type="UnstructuredGrid"  version="0.1"  >
<UnstructuredGrid>
<Piece  NumberOfPoints="10201" NumberOfCells="20000">
<Points>
<DataArray  type="Float64"  NumberOfComponents="3"  format="ascii">-5 -5 0  -4.9 -5 0  -4.8 -5 0  -4.7 -5 0  -4.6 -5 0  -4.5 -5 0  -4.4 -5 0  -4.3 -5 0  -4.2 -5 0  -4.1 -5 0  -4 -5 0  -3.9 -5 0  -3.8 -5 0  -3.7 -5 0  -3.6 -5 0  -3.5 -5 0  -3.4 -5 0  -3.3 -5 0  -3.2 -5 0  -3.1 -5 0  -3 -5 0  -2.9 -5 0  -2.8 -5 0  -2.7 -5 0  -2.6 -5 0  -2.5 -5 0  -2.4 -5 0  -2.3 -5 0  -2.2 -5 0  -2.1 -5 0  -2 -5 0  -1.9 -5 0  -1.8 -5 0  -1.7 -5 0  -1.6 -5 0  -1.5 -5 0  -1.4 -5 0  -1.3 -5 0  -1.2 -5 0  -1.1 -5 0  -1 -5 0  -0.9000000000000004 -5 0  -0.7999999999999998 -5 0  -0.7000000000000002 -5 0  -0.5999999999999996 -5 0  -0.5 -5 0  -0.4000000000000004 -5 0  -0.2999999999999998 -5 0  -0.2000000000000002 -5 0  -0.09999999999999964 -5 0  0 -5 0  0.09999999999999964 -5 0  0.2000000000000002 -5 0  0.2999999999999998 -5 0  0.4000000000000004 -5 0  0.5 -5 0  0.5999999999999996 -5 0  0.7000000000000002 -5 0  0.7999999999999998 -5 0  0.9000000000000004 -5 0  1 -5 0  1.1 -5 0  1.2 -5 0  1.3 -5 0  1.4 -5 0  1.5 -5 0  1.6 -5 0  1.7 -5 0  1.8 -5 0  1.9 -5 0  2 -5 0  2.1 -5 0  2.2 -5 0  2.3 -5 0  2.4 -5 0  2.5 -5 0  2.6 -5 0  2.7 -5 0  2.8 -5 0  2.9 -5 0  3 -5 0  3.1 -5 0  3.199999999999999 -5 0  3.300000000000001 -5 0  3.4 -5 0  3.5 -5 0  3.6 -5 0  3.699999999999999 -5 0  3.800000000000001 -5 0  3.9 -5 0  4 -5 0  4.1 -5 0  4.199999999999999 -5 0  4.300000000000001 -5 0  4.4 -5 0  4.5 -5 0  4.6 -5 0  4.699999999999999 -5 0  4.800000000000001 -5 0  4.9 -5 0  5 -5 0  -5 -4.9 0  -4.9 -4.9 0  -4.8 -4.9 0  -4.7 -4.9 0  -4.6 -4.9 0  -4.5 -4.9 0  -4.4 -4.9 0  -4.3 -4.9 0  -4.2 -4.9 0  -4.1 -4.9 0  -4 -4.9 0  -3.9 -4.9 0  -3.8 -4.9 0  -3.7 -4.9 0  -3.6 -4.9 0  -3.5 -4.9 0  -3.4 -4.9 0  -3.3 -4.9 0  -3.2 -4.9 0  -3.1 -4.9 0  -3 -4.9 0  -2.9 -4.9 0  -2.8 -4.9 0  -2.7 -4.9 0  -2.6 -4.9 0  -2.5 -4.9 0  -2.4 -4.9 0  -2.3 -4.9 0  -2.2 -4.9 0  -2.1 -4.9 0  -2 -4.9 0  -1.9 -4.9 0  -1.8 -4.9 0  -1.7 -4.9 0  -1.6 -4.9 0  -1.5 -4.9 0  -1.4 -4.9 0  -1.3 -4.9 0  -1.2 -4.9 0  -1.1 -4.9 0  -1 -4.9 0  -0.9000000000000004 -4.9 0  -0.7999999999999998 -4.9 0  -0.7000000000000002 -4.9 0  -0.5999999999999996 -4.9 0  -0.5 -4.9 0  -0.4000000000000004 -4.9 0  -0.2999999999999998 -4.9 0  -0.2000000000000002 -4.9 0  -0.09999999999999964 -4.9 0  0 -4.9 0  0.09999999999999964 -4.9 0  0.2000000000000002 -4.9 0  0.2999999999999998 -4.9 0  0.4000000000000004 -4.9 0  0.5 -4.9 0  0.5999999999999996 -4.9 0  0.7000000000000002 -4.9 0  0.7999999999999998 -4.9 0  0.9000000000000004 -4.9 0  1 -4.9 0  1.1 -4.9 0  1.2 -4.9 0  1.3 -4.9 0  1.4 -4.9 0  1.5 -4.9 0  1.6 -4.9 0  1.7 -4.9 0  1.8 -4.9 0  1.9 -4.9 0  2 -4.9 0  2.1 -4.9 0  2.2 -4.9 0  2.3 -4.9 0  2.4 -4.9 0  2.5 -4.9 0  2.6 -4.9 0  2.7 -4.9 0  2.8 -4.9 0  2.9 -4.9 0  3 -4.9 0  3.1 -4.9 0  3.199999999999999 -4.9 0  3.300000000000001 -4.9 0  3.4 -4.9 0  3.5 -4.9 0  3.6 -4.9 0  3.699999999999999 -4.9 0  3.800000000000001 -4.9 0  3.9 -4.9 0  4 -4.9 0  4.1 -4.9 0  4.199999999999999 -4.9 0  4.300000000000001 -4.9 0  4.4 -4.9 0  4.5 -4.9 0  4.6 -4.9 0  4.699999999999999 -4.9 0  4.800000000000001 -4.9 0  4.9 -4.9 0  5 -4.9 0  -5 -4.8 0  -4.9 -4.8 0  -4.8 -4.8 0  -4.7 -4.8 0  -4.6 -4.8 0  -4.5 -4.8 0  -4.4 -4.8 0  -4.3 -4.8 0  -4.2 -4.8 0  -4.1 -4.8 0  -4 -4.8 0  -3.9 -4.8 0  -3.8 -4.8 0  -3.7 -4.8 0  -3.6 -4.8 0  -3.5 -4.8 0  -3.4 -4.8 0  -3.3 -4.8 0  -3.2 -4.8 0  -3.1 -4.8 0  -3 -4.8 0  -2.9 -4.8 0  -2.8 -4.8 0  -2.7 -4.8 0  -2.6 -4.8 0  -2.5 -4.8 0  -2.4 -4.8 0  -2.3 -4.8 0  -2.2 -4.8 0  -2.1 -4.8 0  -2 -4.8 0  -1.9 -4.8 0  -1.8 -4.8 0  -1.7 -4.8 0  -1.6 -4.8 0  -1.5 -4.8 0  -1.4 -4.8 0  -1.3 -4.8 0  -1.2 -4.8 0  -1.1 -4.8 0  -1 -4.8 0  -0.9000000000000004 -4.8 0  -0.7999999999999998 -4.8 0  -0.7000000000000002 -4.8 0  -0.5999999999999996 -4.8 0  -0.5 -4.8 0  -0.4000000000000004 -4.8 0  -0.2999999999999998 -4.8 0  -0.2000000000000002 -4.8 0  -0.09999999999999964 -4.8 0  0 -4.8 0  0.09999999999999964 -4.8 0  0.2000000000000002 -4.8 0  0.2999999999999998 -4.8 0  0.4000000000000004 -4.8 0  0.5 -4.8 0  0.5999999999999996 -4.8 0  0.7000000000000002 -4.8 0  0.7999999999999998 -4.8 0  0.9000000000000004 -4.8 0  1 -4.8 0  1.1 -4.8 0  1.2 -4.8 0  1.3 -4.8 0  1.4 -4.8 0  1.5 -4.8 0  1.6 -4.8 0  1.7 -4.8 0  1.8 -4.8 0  1.9 -4.8 0  2 -4.8 0  2.1 -4.8 0  2.2 -4.8 0  2.3 -4.8 0  2.4 -4.8 0  2.5 -4.8 0  2.6 -4.8 0  2.7 -4.8 0  2.8 -4.8 0  2.9 -4.8 0  3 -4.8 0  3.1 -4.8 0  3.199999999999999 -4.8 0  3.300000000000001 -4.8 0  3.4 -4.8 0  3.5 -4.8 0  3.6 -4.8 0  3.699999999999999 -4.8 0  3.800000000000001 -4.8 0  3.9 -4.8 0  4 -4.8 0  4.1 -4.8 0  4.199999999999999 -4.8 0  4.300000000000001 -4.8 0  4.4 -4.8 0  4.5 -4.8 0  4.6 -4.8 0  4.699999999999999 -4.8 0  4.800000000000001 -4.8 0  4.9 -4.8 0  5 -4.8 0  -5 -4.7 0  -4.9 -4.7 0  -4.8 -4.7 0  -4.7 -4.7 0  -4.6 -4.7 0  -4.5 -4.7 0  -4.4 -4.7 0  -4.3 -4.7 0  -4.2 -4.7 0  -4.1 -4.7 0  -4 -4.7 0  -3.9 -4.7 0  -3.8 -4.7 0  -3.7 -4.7 0  -3.6 -4.7 0  -3.5 -4.7 0  -3.4 -4.7 0  -3.3 -4.7 0  -3.2 -4.7 0  -3.1 -4.7 0  -3 -4.7 0  -2.9 -4.7 0  -2.8 -4.7 0  -2.7 -4.7 0  -2.6 -4.7 0  -2.5 -4.7 0  -2.4 -4.7 0  -2.3 -4.7 0  -2.2 -4.7 0  -2.1 -4.7 0  -2 -4.7 0  -1.9 -4.7 0  -1.8 -4.7 0  -1.7 -4.7 0  -1.6 -4.7 0  -1.5 -4.7 0  -1.4 -4.7 0  -1.3 -4.7 0  -1.2 -4.7 0  -1.1 -4.7 0  -1 -4.7 0  -0.9000000000000004 -4.7 0  -0.7999999999999998 -4.7 0  -0.7000000000000002 -4.7 0  -0.5999999999999996 -4.7 0  -0.5 -4.7 0  -0.4000000000000004 -4.7 0  -0.2999999999999998 -4.7 0  -0.2000000000000002 -4.7 0  -0.09999999999999964 -4.7 0  0 -4.7 0  0.09999999999999964 -4.7 0  0.2000000000000002 -4.7 0  0.2999999999999998 -4.7 0  0.4000000000000004 -4.7 0  0.5 -4.7 0  0.5999999999999996 -4.7 0  0.7000000000000002 -4.7 0  0.7999999999999998 -4.7 0  0.9000000000000004 -4.7 0  1 -4.7 0  1.1 -4.7 0  1.2 -4.7 0  1.3 -4.7 0  1.4 -4.7 0  1.5 -4.7 0  1.6 -4.7 0  1.7 -4.7 0  1.8 -4.7 0  1.9 -4.7 0  2 -4.7 0  2.1 -4.7 0  2.2 -4.7 0  2.3 -4.7 0  2.4 -4.7 0  2.5 -4.7 0  2.6 -4.7 0  2.7 -4.7 0  2.8 -4.7 0  2.9 -4.7 0  3 -4.7 0  3.1 -4.7 0  3.199999999999999 -4.7 0  3.300000000000001 -4.7 0  3.4 -4.7 0  3.5 -4.7 0  3.6 -4.7 0  3.699999999999999 -4.7 0  3.800000000000001 -4.7 0  3.9 -4.7 0  4 -4.7 0  4.1 -4.7 0  4.199999999999999 -4.7 0  4.300000000000001 -4.7 0  4.4 -4.7 0  4.5 -4.7 0  4.6 -4.7 0  4.699999999999999 -4.7 0  4.800000000000001 -4.7 0  4.9 -4.7 0  5 -4.7 0  -5 -4.6 0  -4.9 -4.6 0  -4.8 -4.6 0  -4.7 -4.6 0  -4.6 -4.6 0  -4.5 -4.6 0  -4.4 -4.6 0  -4.3 -4.6 0  -4.2 -4.6 0  -4.1 -4.6 0  -4 -4.6 0  -3.9 -4.6 0  -3.8 -4.6 0  -3.7 -4.6 0  -3.6 -4.6 0  -3.5 -4.6 0  -3.4 -4.6 0  -3.3 -4.6 0  -3.2 -4.6 0  -3.1 -4.6 0  -3 -4.6 0  -2.9 -4.6 0  -2.8 -4.6 0  -2.7 -4.6 0  -2.6 -4.6 0  -2.5 -4.6 0  -2.4 -4.6 0  -2.3 -4.6 0  -2.2 -4.6 0  -2.1 -4.6 0  -2 -4.6 0  -1.9 -4.6 0  -1.8 -4.6 0  -1.7 -4.6 0  -1.6 -4.6 0  -1.5 -4.6 0  -1.4 -4.6 0  -1.3 -4.6 0  -1.2 -4.6 0  -1.1 -4.6 0  -1 -4.6 0  -0.9000000000000004 -4.6 0  -0.7999999999999998 -4.6 0  -0.7000000000000002 -4.6 0  -0.5999999999999996 -4.6 0  -0.5 -4.6 0  -0.4000000000000004 -4.6 0  -0.2999999999999998 -4.6 0  -0.2000000000000002 -4.6 0  -0.09999999999999964 -4.6 0  0 -4.6 0  0.09999999999999964 -4.6 0  0.2000000000000002 -4.6 0  0.2999999999999998 -4.6 0  0.4000000000000004 -4.6 0  0.5 -4.6 0  0.5999999999999996 -4.6 0  0.7000000000000002 -4.6 0  0.7999999999999998 -4.6 0  0.9000000000000004 -4.6 0  1 -4.6 0  1.1 -4.6 0  1.2 -4.6 0  1.3 -4.6 0  1.4 -4.6 0  1.5 -4.6 0  1.6 -4.6 0  1.7 -4.6 0  1.8 -4.6 0  1.9 -4.6 0  2 -4.6 0  2.1 -4.6 0  2.2 -4.6 0  2.3 -4.6 0  2.4 -4.6 0  2.5 -4.6 0  2.6 -4.6 0  2.7 -4.6 0  2.8 -4.6 0  2.9 -4.6 0  3 -4.6 0  3.1 -4.6 0  3.199999999999999 -4.6 0  3.300000000000001 -4.6 0  3.4 -4.6 0  3.5 -4.6 0  3.6 -4.6 0  3.699999999999999 -4.6 0  3.800000000000001 -4.6 0  3.9 -4.6 0  4 -4.6 0  4.1 -4.6 0  4.199999999999999 -4.6 0  4.300000000000001 -4.6 0  4.4 -4.6 0  4.5 -4.6 0  4.6 -4.6 0  4.699999999999999 -4.6 0  4.800000000000001 -4.6 0  4.9 -4.6 0  5 -4.6 0  -5 -4.5 0  -4.9 -4.5 0  -4.8 -4.5 0  -4.7 -4.5 0  -4.6 -4.5 0  -4.5 -4.5 0  -4.4 -4.5 0  -4.3 -4.5 0  -4.2 -4.5 0  -4.1 -4.5 0  -4 -4.5 0  -3.9 -4.5 0  -3.8 -4.5 0  -3.7 -4.5 0  -3.6 -4.5 0  -3.5 -4.5 0  -3.4 -4.5 0  -3.3 -4.5 0  -3.2 -4.5 0  -3.1 -4.5 0  -3 -4.5 0  -2.9 -4.5 0  -2.8 -4.5 0  -2.7 -4.5 0  -2.6 -4.5 0  -2.5 -4.5 0  -2.4 -4.5 0  -2.3 -4.5 0  -2.2 -4.5 0  -2.1 -4.5 0  -2 -4.5 0  -1.9 -4.5 0  -1.8 -4.5 0  -1.7 -4.5 0  -1.6 -4.5 0  -1.5 -4.5 0  -1.4 -4.5 0  -1.3 -4.5 0  -1.2 -4.5 0  -1.1 -4.5 0  -1 -4.5 0  -0.9000000000000004 -4.5 0  -0.7999999999999998 -4.5 0  -0.7000000000000002 -4.5 0  -0.5999999999999996 -4.5 0  -0.5 -4.5 0  -0.4000000000000004 -4.5 0  -0.2999999999999998 -4.5 0  -0.2000000000000002 -4.5 0  -0.09999999999999964 -4.5 0  0 -4.5 0  0.09999999999999964 -4.5 0  0.2000000000000002 -4.5 0  0.2999999999999998 -4.5 0  0.4000000000000004 -4.5 0  0.5 -4.5 0  0.5999999999999996 -4.5 0  0.7000000000000002 -4.5 0  0.7999999999999998 -4.5 0  0.9000000000000004 -4.5 0  1 -4.5 0  1.1 -4.5 0  1.2 -4.5 0  1.3 -4.5 0  1.4 -4.5 0  1.5 -4.5 0  1.6 -4.5 0  1.7 -4.5 0  1.8 -4.5 0  1.9 -4.5 0  2 -4.5 0  2.1 -4.5 0  2.2 -4.5 0  2.3 -4.5 0  2.4 -4.5 0  2.5 -4.5 0  2.6 -4.5 0  2.7 -4.5 0  2.8 -4.5 0  2.9 -4.5 0  3 -4.5 0  3.1 -4.5 0  3.199999999999999 -4.5 0  3.300000000000001 -4.5 0  3.4 -4.5 0  3.5 -4.5 0  3.6 -4.5 0  3.699999999999999 -4.5 0  3.800000000000001 -4.5 0  3.9 -4.5 0  4 -4.5 0  4.1 -4.5 0  4.199999999999999 -4.5 0  4.300000000000001 -4.5 0  4.4 -4.5 0  4.5 -4.5 0  4.6 -4.5 0  4.699999999999999 -4.5 0  4.800000000000001 -4.5 0  4.9 -4.5 0  5 -4.5 0  -5 -4.4 0  -4.9 -4.4 0  -4.8 -4.4 0  -4.7 -4.4 0  -4.6 -4.4 0  -4.5 -4.4 0  -4.4 -4.4 0  -4.3 -4.4 0  -4.2 -4.4 0  -4.1 -4.4 0  -4 -4.4 0  -3.9 -4.4 0  -3.8 -4.4 0  -3.7 -4.4 0  -3.6 -4.4 0  -3.5 -4.4 0  -3.4 -4.4 0  -3.3 -4.4 0  -3.2 -4.4 0  -3.1 -4.4 0  -3 -4.4 0  -2.9 -4.4 0  -2.8 -4.4 0  -2.7 -4.4 0  -2.6 -4.4 0  -2.5 -4.4 0  -2.4 -4.4 0  -2.3 -4.4 0  -2.2 -4.4 0  -2.1 -4.4 0  -2 -4.4 0  -1.9 -4.4 0  -1.8 -4.
[...]
<PointData  Vectors="f_17"> 
<DataArray  type="Float64"  Name="f_17"  NumberOfComponents="3" format="ascii">1.5000000000230071e-01 0.0000000000000000e+00 0.0000000000000000e+00  1.5000000001263092e-01 -1.3647390633549301e-11 0.0000000000000000e+00  1.5000000003407488e-01 -8.7949748338931092e-11 0.0000000000000000e+00  1.5000000014370807e-01 -3.1522800159031071e-10 0.0000000000000000e+00  1.5000000053261178e-01 -9.1790809972625947e-10 0.0000000000000000e+00  1.5000000156148488e-01 -2.6569079048216848e-09 0.0000000000000000e+00  1.5000000415256384e-01 -6.5445873894680370e-09 0.0000000000000000e+00  1.5000000998508076e-01 -1.3520878279897458e-08 0.0000000000000000e+00  1.5000002081272645e-01 -2.3767753323870302e-08 0.0000000000000000e+00  1.5000003708170953e-01 -3.2115509189188111e-08 0.0000000000000000e+00  1.5000005402166516e-01 -2.0476083346355499e-08 0.0000000000000000e+00  1.5000005286977933e-01 4.5977754669498406e-08 0.0000000000000000e+00  1.4999999258510413e-01 2.1606985805956464e-07 0.0000000000000000e+00  1.4999981147487124e-01 5.3640639522628355e-07 0.0000000000000000e+00  1.4999944307335111e-01 1.0065342991441572e-06 0.0000000000000000e+00  1.4999885375835045e-01 1.5294464582883443e-06 0.0000000000000000e+00  1.4999809866692509e-01 1.9221073018595084e-06 0.0000000000000000e+00  1.4999734514220550e-01 1.9849314483966130e-06 0.0000000000000000e+00  1.4999682020797914e-01 1.5504135536971915e-06 0.0000000000000000e+00  1.4999673401388250e-01 5.0349686005588974e-07 0.0000000000000000e+00  1.4999723253446279e-01 -1.1253996078618694e-06 0.0000000000000000e+00  1.4999831717416040e-01 -2.9431977035065594e-06 0.0000000000000000e+00  1.4999971197712059e-01 -4.0431012093111270e-06 0.0000000000000000e+00  1.5000085374630370e-01 -3.4201395850460320e-06 0.0000000000000000e+00  1.5000119264487258e-01 -1.1184957665223568e-06 0.0000000000000000e+00  1.5000071126471509e-01 1.1522650144676794e-06 0.0000000000000000e+00  1.5000011386232553e-01 1.5469208819881645e-06 0.0000000000000000e+00  1.5000010515605094e-01 4.1436001384529966e-07 0.0000000000000000e+00  1.5000041748844031e-01 -2.1177040887864966e-07 0.0000000000000000e+00  1.5000025429836733e-01 2.9064562096831570e-07 0.0000000000000000e+00  1.4999977039034582e-01 4.8062556834273409e-07 0.0000000000000000e+00  1.4999985119822773e-01 -1.9209821645833963e-07 0.0000000000000000e+00  1.5000030295441169e-01 -3.7191912308973817e-07 0.0000000000000000e+00  1.5000012551669792e-01 3.3466710491519210e-07 0.0000000000000000e+00  1.4999962807742939e-01 4.3601541565857833e-07 0.0000000000000000e+00  1.4999988786839932e-01 -3.8030915420268551e-07 0.0000000000000000e+00  1.5000041021135116e-01 -4.8620659688200757e-07 0.0000000000000000e+00  1.5000009106989079e-01 3.6657905496672082e-07 0.0000000000000000e+00  1.4999960193284154e-01 4.7736300275012827e-07 0.0000000000000000e+00  1.4999995569425065e-01 -3.2981175316450261e-07 0.0000000000000000e+00  1.5000034564641182e-01 -4.0488636882401078e-07 0.0000000000000000e+00  1.4999998052913621e-01 2.9747465291798203e-07 0.0000000000000000e+00  1.4999973168063052e-01 2.9433872719859155e-07 0.0000000000000000e+00  1.5000007882286348e-01 -2.7193862485741574e-07 0.0000000000000000e+00  1.5000018071246629e-01 -1.7527087514042745e-07 0.0000000000000000e+00  1.4999988570270878e-01 2.4196931117593211e-07 0.0000000000000000e+00  1.4999990397661331e-01 6.9539922673234208e-08 0.0000000000000000e+00  1.5000011825113116e-01 -1.9824769441066904e-07 0.0000000000000000e+00  1.5000002656599851e-01 9.6156882556777600e-09 0.0000000000000000e+00  1.4999990435234811e-01 1.4127931570943597e-07 0.0000000000000000e+00  1.5000001875467403e-01 -5.5896849998790820e-08 0.0000000000000000e+00  1.5000005938484873e-01 -8.0309067241281411e-08 0.0000000000000000e+00  1.4999996225416978e-01 6.9914871571149032e-08 0.0000000000000000e+00  1.4999997620053165e-01 2.7703163687703200e-08 0.0000000000000000e+00  1.5000003565823961e-01 -5.9191672388518819e-08 0.0000000000000000e+00  1.4999999905178749e-01 7.1286846215896150e-09 0.0000000000000000e+00  1.4999997758536796e-01 3.5913567878929631e-08 0.0000000000000000e+00  1.5000001166565685e-01 -2.1581721197484012e-08 0.0000000000000000e+00  1.5000000800411251e-01 -1.2518845473295152e-08 0.0000000000000000e+00  1.4999998861449565e-01 2.0077746891931882e-08 0.0000000000000000e+00  1.5000000133139921e-01 -2.7394933718286374e-09 0.0000000000000000e+00  1.5000000608602140e-01 -1.0962510699899014e-08 0.0000000000000000e+00  1.4999999569686356e-01 7.8755397106314540e-09 0.0000000000000000e+00  1.4999999897779495e-01 2.0716024062605914e-09 0.0000000000000000e+00  1.5000000313061709e-01 -5.9919242347866487e-09 0.0000000000000000e+00  1.4999999862643090e-01 2.4777170708685144e-09 0.0000000000000000e+00  1.4999999909133355e-01 1.9692540700403413e-09 0.0000000000000000e+00  1.5000000138118133e-01 -2.7497531196339025e-09 0.0000000000000000e+00  1.4999999957726784e-01 7.0488040477165007e-10 0.0000000000000000e+00  1.4999999951905005e-01 1.1067036537243787e-09 0.0000000000000000e+00  1.5000000057750465e-01 -1.1929297909710757e-09 0.0000000000000000e+00  1.4999999984598944e-01 2.3547850551422971e-10 0.0000000000000000e+00  1.4999999979661524e-01 5.0386186426031585e-10 0.0000000000000000e+00  1.5000000023945617e-01 -5.1931814342793914e-10 0.0000000000000000e+00  1.4999999992422378e-01 1.2289325532175103e-10 0.0000000000000000e+00  1.4999999993034427e-01 1.9327211213039528e-10 0.0000000000000000e+00  1.5000000009785941e-01 -2.2787841372020990e-10 0.0000000000000000e+00  1.4999999995590735e-01 8.4009941191033848e-11 0.0000000000000000e+00  1.4999999998497190e-01 5.4602705057014227e-11 0.0000000000000000e+00  1.5000000003683939e-01 -9.5147813991786065e-11 0.0000000000000000e+00  1.4999999997509758e-01 5.5870240377513683e-11 0.0000000000000000e+00  1.5000000000300909e-01 1.2822885659441318e-12 0.0000000000000000e+00  1.5000000001069660e-01 -3.3036435175985215e-11 0.0000000000000000e+00  1.4999999998780394e-01 3.2720930396864260e-11 0.0000000000000000e+00  1.5000000000663419e-01 -1.5641687470156692e-11 0.0000000000000000e+00  1.4999999999956490e-01 -1.2850966425005624e-12 0.0000000000000000e+00  1.4999999999697108e-01 9.9752433159483876e-12 0.0000000000000000e+00  1.5000000000362543e-01 -1.0893239156461198e-11 0.0000000000000000e+00  1.4999999999725833e-01 8.1509610619306356e-12 0.0000000000000000e+00  1.5000000000171385e-01 -5.3624868517446571e-12 0.0000000000000000e+00  1.4999999999882518e-01 4.0726638291602693e-12 0.0000000000000000e+00  1.5000000000113581e-01 -4.1344423292483294e-12 0.0000000000000000e+00  1.4999999999866850e-01 4.7284573381147272e-12 0.0000000000000000e+00  1.5000000000150407e-01 -5.1301631819742108e-12 0.0000000000000000e+00  1.4999999999847857e-01 5.0137201183933846e-12 0.0000000000000000e+00  1.5000000000137406e-01 -4.4014522040414579e-12 0.0000000000000000e+00  1.4999999999886612e-01 3.5266775598643011e-12 0.0000000000000000e+00  1.5000000000082178e-01 -2.4987578555727232e-12 0.0000000000000000e+00  1.4999999999932331e-01 1.6783258540244423e-12 0.0000000000000000e+00  1.5000000000030678e-01 -8.5719260143307506e-13 0.0000000000000000e+00  1.4999999999937191e-01 0.0000000000000000e+00 0.0000000000000000e+00  1.5000000001263109e-01 0.0000000000000000e+00 -1.3647487954232365e-11  1.4999999998672020e-01 -2.9157147720093627e-12 -2.9161461948648305e-12  1.4999999997616034e-01 5.0257435563475409e-11 -5.9972822264182115e-11  1.4999999990962173e-01 2.2081881997681659e-10 -1.8473199141240846e-10  1.4999999963778532e-01 6.7226338405501915e-10 -7.2824338563341939e-10  1.4999999884245868e-01 1.9413852856939959e-09 -2.2980724596082041e-09  1.4999999684043586e-01 5.2122362444470057e-09 -6.3151656922357971e-09  1.4999999206998316e-01 1.1609215206286610e-08 -1.5713530035821827e-08  1.4999998241977708e-01 2.1943811087570015e-08 -3.4619434740784648e-08  1.4999996650206174e-01 3.4190847563632828e-08 -6.5901748886745084e-08  1.4999994624226576e-01 3.5476569382087813e-08 -1.0567590139463946e-07  1.4999993408666612e-01 -5.1771256984916562e-09 -1.3020282999100132e-07  1.4999996370375279e-01 -1.3604154502372675e-07 -7.7939142759280817e-08  1.5000009348602564e-01 -4.1234811365096551e-07 1.5423604541725363e-07  1.5000039526097192e-01 -8.6193271938030038e-07 6.8372252276117417e-07  1.5000092460564715e-01 -1.4237773199557094e-06 1.5771425974661143e-06  1.5000166656031991e-01 -1.9238658752611855e-06 2.7526367831532823e-06  1.5000248677145783e-01 -2.1411522177047997e-06 3.9201765522706353e-06  1.5000315621075655e-01 -1.8894713299926734e-06 4.6715752356585253e-06  1.5000344203467739e-01 -1.0385688857763195e-06 4.6754873510889799e-06  1.5000317354632717e-01 4.4393130202068258e-07 3.7879473378738600e-06  1.5000228947613622e-01 2.3233780626860115e-06 2.0846190931172256e-06  1.5000094789928559e-01 3.8872081846554822e-06 -1.3107522684507492e-08  1.4999960790849098e-01 4.0682639729340773e-06 -1.6676270941034923e-06  1.4999886640271917e-01 2.3283201169191802e-06 -2.0292438608462179e-06  1.4999901309338270e-01 -2.6560943260147885e-07 -1.0704234600909276e-06  1.4999963858950083e-01 -1.5987468903206899e-06 5.3144833819047012e-08  1.4999992653624550e-01 -9.4417891192327570e-07 8.9426875263713379e-08  1.4999966691411640e-01 4.7134449779481598e-08 -6.2033821813083943e-07  1.4999958096547053e-01 -1.0582853994769041e-07 -5.5741030169940362e-07  1.5000004460041735e-01 -5.4294410112184941e-07 3.5838184987677454e-07  1.5000028343166710e-01 -7.7284400407057102e-08 4.5349968372268755e-07  1.4999985930057108e-01 4.2661560774084518e-07 -4.4683897470188171e-07  1.4999969025213503e-01 -7.2147471458170397e-08 -4.2382753880182761e-07  1.5000021046829276e-01 -5.2866908281851746e-07 5.9753985170226912e-07  1.5000033761217252e-01 8.1764618456373459e-08 4.3745345707712366e-07  1.4999973961669100e-01 5.7861744355361874e-07 -7.0106828399572173e-07  1.4999966118063829e-01 -5.1349422761334866e-08 -4.2349294074390093e-07  1.5000027903836205e-01 -5.5847048051196756e-07 7.1866866377928866e-07  1.5000028836735585e-01 2.7286160546023363e-08 3.2971214568360731e-07  1.4999972272083764e-01 4.8132761256398223e-07 -6.6734843372189758e-07  1.4999980237634311e-01 -3.4325873575899939e-08 -1.7063852955015887e-07  1.5000025819198748e-01 -3.7937524901074151e-07 5.6618517346940891e-07  1.5000009327978281e-01 6.5331527795211283e-08 -3.9922200598589235e-09  1.4999977973497619e-01 2.7578306967492180e-07 -4.3044181481516545e-07  1.4999999750320442e-01 -9.9808669688515768e-08 1.4098119174886677e-07  1.5000016454321569e-01 -1.8062460291674376e-07 2.7623213372313118e-07  1.4999994278749795e-01 1.2015611704865366e-07 -2.0924423372524598e-07  1.4999990024568308e-01 9.7910525925945230e-08 -1.2734114722622985e-07  1.5000008062981121e-01 -1.1860077299664369e-07 2.0640919781784565e-07  1.5000003972724790e-01 -3.1814719888400657e-08 1.0259717394468436e-08  1.4999992645083829e-01 9.6857760828229116e-08 -1.5308751335694131e-07  1.5000000327705007e-01 -1.3028610414340175e-08 5.7445865872361771e-08  1.5000004890263241e-01 -6.3191752468149500e-08 8.0896648153637053e-08  1.4999997595982570e-01 3.4592728011009301e-08 -7.5164072735973025e-08  1.4999997885134350e-01 2.8566116347884071e-08 -1.8898504545648947e-08  1.5000002563778814e-01 -3.5895581485422460e-08 5.8035602435626679e-08  1.5000000086274104e-01 -2.4087213801035062e-09 -1.6648372296550884e-08  1.4999998347727445e-01 2.4625159959572420e-08 -2.8059721448439970e-08  1.5000000813216829e-01 -1.0746073457409049e-08 2.5201333918191251e-08  1.5000000568494271e-01 -1.0107173412677433e-08 3.4209759368795674e-09  1.4999999192617386e-01 1.2203510380848597e-08 -1.7186299728205311e-08  1.5000000124947233e-01 -5.1509302448430878e-10 7.9444593178810978e-09  1.5000000402286903e-01 -7.2167968208839761e-09 5.4193229956360101e-09  1.4999999682506418e-01 4.6129830512428638e-09 -7.9946122324334626e-09  1.4999999965573663e-01 1.5235831835762359e-09 1.9143063298461938e-09  1.5000000204142519e-01 -3.7263422908370760e-09 3.3574806326999539e-09  1.4999999885266838e-01 1.5248830770173855e-09 -3.3342003173337497e-09  1.4999999962197050e-01 1.1723303989271585e-09 3.8072504169193060e-10  1.5000000090416171e-01 -1.6992826495376095e-09 1.6081676595575450e-09  1.4999999956992172e-01 5.2187761754458033e-10 -1.3695174709928018e-09  1.4999999981215081e-01 6.0081567783476333e-10 1.1645166007314536e-10  1.5000000037566821e-01 -7.4632494223524121e-10 6.6769420002226035e-10  1.4999999981729339e-01 2.2736490907145875e-10 -5.7945249755544572e-10  1.4999999993787130e-01 2.4504004121064333e-10 9.3488798491843075e-11  1.5000000014815487e-01 -3.2457817217120367e-10 2.3921692277444976e-10  1.4999999991297217e-01 1.2890943946643248e-10 -2.4863516476182275e-10  1.4999999999297811e-01 7.3136729014512274e-11 8.1738482376626419e-11  1.5000000005246242e-01 -1.3494780929199791e-10 6.2769317011280876e-11  1.4999999995805474e-01 7.8457642807387061e-11 -9.9764038051106144e-11  1.5000000000945560e-01 4.2724145219986395e-12 5.7459092447436528e-11  1.5000000001381558e-01 -4.8418252167418866e-11 -3.9654886156705090e-13  1.4999999998170779e-01 4.5194801248011851e-11 -3.0556270083285166e-11  1.5000000001065605e-01 -1.8841171592665523e-11 3.0885506258965383e-11  1.4999999999887700e-01 -5.2774659910597328e-12 -1.5753846830856100e-11  1.4999999999553099e-01 1.6219328213471237e-11 6.9013458636949556e-13  1.5000000000557479e-01 -1.5969430575426527e-11 7.2071996756376715e-12  1.4999999999571009e-01 1.1265937877020308e-11 -8.3909582787876078e-12  1.5000000000272759e-01 -7.2965412676127871e-12 6.3663359657382374e-12  1.4999999999810662e-01 5.8093647840551297e-12 -4.1620463074326164e-12  1.5000000000180247e-01 -6.1360554041784408e-12 3.0896226880700024e-12  1.4999999999795646e-01 6.9116244549040753e-12 -3.0857626507704427e-12  1.5000000000223232e-01 -7.1706152013461153e-12 3.5337725493355220e-12  1.4999999999781208e-01 6.6280002655170591e-12 -3.8692182338664938e-12  1.5000000000191713e-01 -5.4787223365290423e-12 3.8267151234893615e-12  1.4999999999848498e-01 4.0868788392347728e-12 -3.4046446289870689e-12  1.5000000000109753e-01 -2.7875692832861408e-12 2.7621503824669219e-12  1.4999999999929806e-01 1.6792490982906062e-12 -1.9851304321310072e-12  1.5000000000049671e-01 -1.0307396854579687e-12 1.5119174265396689e-12  1.4999999999988731e-01 5.3806864405558848e-13 -5.3786414676198066e-13  1.5000000000030711e-01 0.0000000000000000e+00 8.5766552153255163e-13  1.5000000003407488e-01 0.0000000000000000e+00 -8.7950632570415059e-11  1.4999999997616023e-01 -5.9973326854918726e-11 5.0257644327354873e-11  1.5000000004258701e-01 2.7794921563131955e-11 2.7794349349356192e-11  1.5000000005684069e-01 -1.9460985751218587e-10 2.2448782548453099e-10  1.5000000027245158e-01 -5.5988091781614092e-10 7.1840089648431200e-10  1.5000000094372795e-01 -1.6501773513749237e-09 2.6599576389969288e-09  1.5000000273033520e-01 -4.5857594277864070e-09 7.7099791718812301e-09  1.5000000704457903e-01 -1.1291525323295577e-08 2.0220438986814939e-08  1.5000001662448198e-01 -2.3078166629020133e-08 4.8073902411364263e-08  1.5000003417601077e-01 -4.0257576097162858e-08 1.0023598674152308e-07  1.5000006020243825e-01 -5.5114765750283589e-08 1.8000699292437026e-07  1.5000008754873709e-01 -3.9348053568846902e-08 2.6911690661196385e-07  1.5000008873643328e-01 6.0395998542813652e-08 2.9199592945679896e-07  1.5000000470160860e-01 3.1385305387028610e-07 8.3297198052691006e-08  1.4999975096424856e-01 7.8089897339923214e-07 -5.9487169065188854e-07  1.4999924475792836e-01 1.4436996935499737e-06 -1.9666530551636360e-06  1.4999845834719819e-01 2.1327538267340067e-06 -4.0749117580357391e-06  1.4999749323036024e-01 2.5640008607369941e-06 -6.5740391974968685e-06  1.4999659855980216e-01 2.4817924762662567e-06 -8.7173214941525547e-06  1.4999606876779384e-01 1.7385769630102939e-06 -9.7058139260874233e-06  1.4999611964766657e-01 2.8352173483959799e-07 -9.0687803234997200e-06  1.4999685025187551e-01 -1.7602106145332888e-06 -6.7193088383526548e-06  1.4999818932562925e-01 -3.8643168854784954e-06 -2.9972059121404014e-06  1.4999977083457941e-01 -4.9619549599303978e-06 1.0230808794150425e-06  1.5000096464376358e-01 -3.9706474712870879e-06 3.5989226771621432e-06  1.5000124513412952e-01 -1.1303279549417386e-06 3.4525296892745636e-06  1.5000070912037289e-01 1.4044873479316971e-06 1.3199771322406928e-06  1.5000016337905658e-01 1.6189499381134666e-06 -1.6705929327848457e-07  1.5000026875318062e-01 3.1899485823726258e-07 5.4724498019424650e-07  1.5000057225022906e-01 -8.1109911628801749e-08 1.5200146164325733e-06  1.5000023049965230e-01 6.1041571880949093e-07 3.5917512947715063e-07  1.4999966067186968e-01 5.0884876170606365e-07 -1.1656481073333208e-06  1.4999989532296246e-01 -4.2595190030705387e-07 -1.5129119670746857e-07  1.5000042416846462e-01 -3.3352729387105705e-07 1.3121059229234137e-06  1.5000005754787510e-01 5.9594992852047320e-07 -5.6675710950578805e-08  1.4999949492813824e-01 3.7059801759034856e-07 -1.5478213235489544e-06  1.4999998473187484e-01 -6.5691226908844172e-07 2.0581312351756835e-07  1.5000054930094367e-01 -4.1032975727413958e-07 1.6663737372858757e-06  1.4999997508153973e-01 6.3080763271796790e-07 -3.2098542327007538e-07  1.4999948036144936e-01 3.9889842678908971e-07 -1.5518332441241013e-06  1.5000008225142442e-01 -5.5098189829477284e-07 4.6133549317743719e-07  1.5000042750045522e-01 -3.2040259077613397e-07 1.2390527063065381e-06  1.4999985404858673e-01 4.5988956371196341e-07 -6.0420017439808523e-07  1.4999970108543806e-01 2.0162409977110255e-07 -8.1802760112007931e-07  1.5000019200708586e-01 -3.7464995806919888e-07 6.8674680047998622e-07  1.5000016349431078e-01 -7.8822726237887048e-08 3.9106344026582572e-07  1.4999979962641746e-01 2.9292350205189056e-07 -6.5650929972331356e-07  1.4999995348611531e-01 -2.0812481621296598e-08 -4.0667905570111755e-08  1.5000016824241236e-01 -2.0904188337230020e-07 5.1290541271931164e-07  1.4999996583078695e-01 8.3541185025009749e-08 -1.8170714607724424e-07  1.4999989014646223e-01 1.2491579113549336e-07 -3.0580536011514128e-07  1.5000007151921499e-01 -1.0660022442461998e-07 2.6343821532120640e-07  1.5000004744133660e-01 -5.0132418217222131e-08 1.0534303137261188e-07  1.4999992897406389e-01 9.6059464384530104e-08 -2.3166822360076912e-07  1.4999999974487269e-01 -4.1255538866265294e-09 3.2982215295270467e-08  1.5000004780444501e-01 -6.4840331461183049e-08 1.4032644621753965e-07  1.4999997715912433e-01 3.1703491396114253e-08 -8.9525163965096143e-08  1.4999998042737767e-01 2.8811192700026267e-08 -4.6106877785775294e-08  1.5000002455316871e-01 -3.4877051192038709e-08 8.0691663667455478e-08  1.4999999926992783e-01 -1.2434078094148641e-09 -1.4093891983369209e-08  1.4999998524732699e-01 2.3061334424335417e-08 -4.2039067360762749e-08  1.5000000873863001e-01 -1.1701312442683701e-08 3.2406265320568196e-08  1.5000000381189799e-01 -7.8888105237342812e-09 6.3520257823022346e-09  1.4999999253215954e-01 1.1832357981338317e-08 -2.3087256046041941e-08  1.5000000233583821e-01 -2.2612609529221570e-09 1.0549505930316070e-08  1.5000000287772119e-01 -5.7843111321456735e-09 6.7372759019699212e-09  1.4999999678996490e-01 5.0535405261076979e-09 -1.0491230487269158e-08  1.5000000048607795e-01 1.2559612333212649e-10 3.1834545744496635e-09  1.5000000148985082e-01 -3.0734352621579360e-09 3.7624731105065507e-09  1.4999999868557384e-01 2.0653890958096173e-09 -4.4479034360915298e-09  1.5000000010862855e-01 3.1240480493932519e-10 1.1138638219120476e-09  1.5000000064956437e-01 -1.4230184442731156e-09 1.6438772572377740e-09  1.4999999945240938e-01 8.9234798962204263e-10 -1.8615651735826688e-09  1.5000000006506053e-01 1.2274007309436341e-10 5.4474858920854132e-10  1.5000000024715796e-01 -6.0374667412990100e-10 5.8190695005943682e-10  1.4999999976559519e-01 4.2126879769483712e-10 -7.6943208210396249e-10  1.5000000005999012e-01 -1.1504719672543972e-11 3.2716886588927244e-10  1.5000000007530614e-01 -2.2623812874065867e-10 1.3480244457773184e-10  1.4999999990275051e-01 2.0460578144588824e-10 -2.9378971245674738e-10 