<?xml version="1.0"?>
<VTKFile type="UnstructuredGrid"  version="0.1"  >
<UnstructuredGrid>
<Piece  NumberOfPoints="10201" NumberOfCells="20000">
<Points>
<DataArray  type="Float64"  NumberOfComponents="3"  format="ascii">-5 -5 0  -4.9 -5 0  -4.8 -5 0  -4.7 -5 0  -4.6 -5 0  -4.5 -5 0  -4.4 -5 0  -4.3 -5 0  -4.2 -5 0  -4.1 -5 0  -4 -5 0  -3.9 -5 0  -3.8 -5 0  -3.7 -5 0  -3.6 -5 0  -3.5 -5 0  -3.4 -5 0  -3.3 -5 0  -3.2 -5 0  -3.1 -5 0  -3 -5 0  -2.9 -5 0  -2.8 -5 0  -2.7 -5 0  -2.6 -5 0  -2.5 -5 0  -2.4 -5 0  -2.3 -5 0  -2.2 -5 0  -2.1 -5 0  -2 -5 0  -1.9 -5 0  -1.8 -5 0  -1.7 -5 0  -1.6 -5 0  -1.5 -5 0  -1.4 -5 0  -1.3 -5 0  -1.2 -5 0  -1.1 -5 0  -1 -5 0  -0.9000000000000004 -5 0  -0.7999999999999998 -5 0  -0.7000000000000002 -5 0  -0.5999999999999996 -5 0  -0.5 -5 0  -0.4000000000000004 -5 0  -0.2999999999999998 -5 0  -0.2000000000000002 -5 0  -0.09999999999999964 -5 0  0 -5 0  0.09999999999999964 -5 0  0.2000000000000002 -5 0  0.2999999999999998 -5 0  0.4000000000000004 -5 0  0.5 -5 0  0.5999999999999996 -5 0  0.7000000000000002 -5 0  0.7999999999999998 -5 0  0.9000000000000004 -5 0  1 -5 0  1.1 -5 0  1.2 -5 0  1.3 -5 0  1.4 -5 0  1.5 -5 0  1.6 -5 0  1.7 -5 0  1.8 -5 0  1.9 -5 0  2 -5 0  2.1 -5 0  2.2 -5 0  2.3 -5 0  2.4 -5 0  2.5 -5 0  2.6 -5 0  2.7 -5 0  2.8 -5 0  2.9 -5 0  3 -5 0  3.1 -5 0  3.199999999999999 -5 0  3.300000000000001 -5 0  3.4 -5 0  3.5 -5 0  3.6 -5 0  3.699999999999999 -5 0  3.800000000000001 -5 0  3.9 -5 0  4 -5 0  4.1 -5 0  4.199999999999999 -5 0  4.300000000000001 -5 0  4.4 -5 0  4.5 -5 0  4.6 -5 0  4.699999999999999 -5 0  4.800000000000001 -5 0  4.9 -5 0  5 -5 0  -5 -4.9 0  -4.9 -4.9 0  -4.8 -4.9 0  -4.7 -4.9 0  -4.6 -4.9 0  -4.5 -4.9 0  -4.4 -4.9 0  -4.3 -4.9 0  -4.2 -4.9 0  -4.1 -4.9 0  -4 -4.9 0  -3.9 -4.9 0  -3.8 -4.9 0  -3.7 -4.9 0  -3.6 -4.9 0  -3.5 -4.9 0  -3.4 -4.9 0  -3.3 -4.9 0  -3.2 -4.9 0  -3.1 -4.9 0  -3 -4.9 0  -2.9 -4.9 0  -2.8 -4.9 0  -2.7 -4.9 0  -2.6 -4.9 0  -2.5 -4.9 0  -2.4 -4.9 0  -2.3 -4.9 0  -2.2 -4.9 0  -2.1 -4.9 0  -2 -4.9 0  -1.9 -4.9 0  -1.8 -4.9 0  -1.7 -4.9 0  -1.6 -4.9 0  -1.5 -4.9 0  -1.4 -4.9 0  -1.3 -4.9 0  -1.2 -4.9 0  -1.1 -4.9 0  -1 -4.9 0  -0.9000000000000004 -4.9 0  -0.7999999999999998 -4.9 0  -0.7000000000000002 -4.9 0  -0.5999999999999996 -4.9 0  -0.5 -4.9 0  -0.4000000000000004 -4.9 0  -0.2999999999999998 -4.9 0  -0.2000000000000002 -4.9 0  -0.09999999999999964 -4.9 0  0 -4.9 0  0.09999999999999964 -4.9 0  0.2000000000000002 -4.9 0  0.2999999999999998 -4.9 0  0.4000000000000004 -4.9 0  0.5 -4.9 0  0.5999999999999996 -4.9 0  0.7000000000000002 -4.9 0  0.7999999999999998 -4.9 0  0.9000000000000004 -4.9 0  1 -4.9 0  1.1 -4.9 0  1.2 -4.9 0  1.3 -4.9 0  1.4 -4.9 0  1.5 -4.9 0  1.6 -4.9 0  1.7 -4.9 0  1.8 -4.9 0  1.9 -4.9 0  2 -4.9 0  2.1 -4.9 0  2.2 -4.9 0  2.3 -4.9 0  2.4 -4.9 0  2.5 -4.9 0  2.6 -4.9 0  2.7 -4.9 0  2.8 -4.9 0  2.9 -4.9 0  3 -4.9 0  3.1 -4.9 0  3.199999999999999 -4.9 0  3.300000000000001 -4.9 0  3.4 -4.9 0  3.5 -4.9 0  3.6 -4.9 0  3.699999999999999 -4.9 0  3.800000000000001 -4.9 0  3.9 -4.9 0  4 -4.9 0  4.1 -4.9 0  4.199999999999999 -4.9 0  4.300000000000001 -4.9 0  4.4 -4.9 0  4.5 -4.9 0  4.6 -4.9 0  4.699999999999999 -4.9 0  4.800000000000001 -4.9 0  4.9 -4.9 0  5 -4.9 0  -5 -4.8 0  -4.9 -4.8 0  -4.8 -4.8 0  -4.7 -4.8 0  -4.6 -4.8 0  -4.5 -4.8 0  -4.4 -4.8 0  -4.3 -4.8 0  -4.2 -4.8 0  -4.1 -4.8 0  -4 -4.8 0  -3.9 -4.8 0  -3.8 -4.8 0  -3.7 -4.8 0  -3.6 -4.8 0  -3.5 -4.8 0  -3.4 -4.8 0  -3.3 -4.8 0  -3.2 -4.8 0  -3.1 -4.8 0  -3 -4.8 0  -2.9 -4.8 0  -2.8 -4.8 0  -2.7 -4.8 0  -2.6 -4.8 0  -2.5 -4.8 0  -2.4 -4.8 0  -2.3 -4.8 0  -2.2 -4.8 0  -2.1 -4.8 0  -2 -4.8 0  -1.9 -4.8 0  -1.8 -4.8 0  -1.7 -4.8 0  -1.6 -4.8 0  -1.5 -4.8 0  -1.4 -4.8 0  -1.3 -4.8 0  -1.2 -4.8 0  -1.1 -4.8 0  -1 -4.8 0  -0.9000000000000004 -4.8 0  -0.7999999999999998 -4.8 0  -0.7000000000000002 -4.8 0  -0.5999999999999996 -4.8 0  -0.5 -4.8 0  -0.4000000000000004 -4.8 0  -0.2999999999999998 -4.8 0  -0.2000000000000002 -4.8 0  -0.09999999999999964 -4.8 0  0 -4.8 0  0.09999999999999964 -4.8 0  0.2000000000000002 -4.8 0  0.2999999999999998 -4.8 0  0.4000000000000004 -4.8 0  0.5 -4.8 0  0.5999999999999996 -4.8 0  0.7000000000000002 -4.8 0  0.7999999999999998 -4.8 0  0.9000000000000004 -4.8 0  1 -4.8 0  1.1 -4.8 0  1.2 -4.8 0  1.3 -4.8 0  1.4 -4.8 0  1.5 -4.8 0  1.6 -4.8 0  1.7 -4.8 0  1.8 -4.8 0  1.9 -4.8 0  2 -4.8 0  2.1 -4.8 0  2.2 -4.8 0  2.3 -4.8 0  2.4 -4.8 0  2.5 -4.8 0  2.6 -4.8 0  2.7 -4.8 0  2.8 -4.8 0  2.9 -4.8 0  3 -4.8 0  3.1 -4.8 0  3.199999999999999 -4.8 0  3.300000000000001 -4.8 0  3.4 -4.8 0  3.5 -4.8 0  3.6 -4.8 0  3.699999999999999 -4.8 0  3.800000000000001 -4.8 0  3.9 -4.8 0  4 -4.8 0  4.1 -4.8 0  4.199999999999999 -4.8 0  4.300000000000001 -4.8 0  4.4 -4.8 0  4.5 -4.8 0  4.6 -4.8 0  4.699999999999999 -4.8 0  4.800000000000001 -4.8 0  4.9 -4.8 0  5 -4.8 0  -5 -4.7 0  -4.9 -4.7 0  -4.8 -4.7 0  -4.7 -4.7 0  -4.6 -4.7 0  -4.5 -4.7 0  -4.4 -4.7 0  -4.3 -4.7 0  -4.2 -4.7 0  -4.1 -4.7 0  -4 -4.7 0  -3.9 -4.7 0  -3.8 -4.7 0  -3.7 -4.7 0  -3.6 -4.7 0  -3.5 -4.7 0  -3.4 -4.7 0  -3.3 -4.7 0  -3.2 -4.7 0  -3.1 -4.7 0  -3 -4.7 0  -2.9 -4.7 0  -2.8 -4.7 0  -2.7 -4.7 0  -2.6 -4.7 0  -2.5 -4.7 0  -2.4 -4.7 0  -2.3 -4.7 0  -2.2 -4.7 0  -2.1 -4.7 0  -2 -4.7 0  -1.9 -4.7 0  -1.8 -4.7 0  -1.7 -4.7 0  -1.6 -4.7 0  -1.5 -4.7 0  -1.4 -4.7 0  -1.3 -4.7 0  -1.2 -4.7 0  -1.1 -4.7 0  -1 -4.7 0  -0.9000000000000004 -4.7 0  -0.7999999999999998 -4.7 0  -0.7000000000000002 -4.7 0  -0.5999999999999996 -4.7 0  -0.5 -4.7 0  -0.4000000000000004 -4.7 0  -0.2999999999999998 -4.7 0  -0.2000000000000002 -4.7 0  -0.09999999999999964 -4.7 0  0 -4.7 0  0.09999999999999964 -4.7 0  0.2000000000000002 -4.7 0  0.2999999999999998 -4.7 0  0.4000000000000004 -4.7 0  0.5 -4.7 0  0.5999999999999996 -4.7 0  0.7000000000000002 -4.7 0  0.7999999999999998 -4.7 0  0.9000000000000004 -4.7 0  1 -4.7 0  1.1 -4.7 0  1.2 -4.7 0  1.3 -4.7 0  1.4 -4.7 0  1.5 -4.7 0  1.6 -4.7 0  1.7 -4.7 0  1.8 -4.7 0  1.9 -4.7 0  2 -4.7 0  2.1 -4.7 0  2.2 -4.7 0  2.3 -4.7 0  2.4 -4.7 0  2.5 -4.7 0  2.6 -4.7 0  2.7 -4.7 0  2.8 -4.7 0  2.9 -4.7 0  3 -4.7 0  3.1 -4.7 0  3.199999999999999 -4.7 0  3.300000000000001 -4.7 0  3.4 -4.7 0  3.5 -4.7 0  3.6 -4.7 0  3.699999999999999 -4.7 0  3.800000000000001 -4.7 0  3.9 -4.7 0  4 -4.7 0  4.1 -4.7 0  4.199999999999999 -4.7 0  4.300000000000001 -4.7 0  4.4 -4.7 0  4.5 -4.7 0  4.6 -4.7 0  4.699999999999999 -4.7 0  4.800000000000001 -4.7 0  4.9 -4.7 0  5 -4.7 0  -5 -4.6 0  -4.9 -4.6 0  -4.8 -4.6 0  -4.7 -4.6 0  -4.6 -4.6 0  -4.5 -4.6 0  -4.4 -4.6 0  -4.3 -4.6 0  -4.2 -4.6 0  -4.1 -4.6 0  -4 -4.6 0  -3.9 -4.6 0  -3.8 -4.6 0  -3.7 -4.6 0  -3.6 -4.6 0  -3.5 -4.6 0  -3.4 -4.6 0  -3.3 -4.6 0  -3.2 -4.6 0  -3.1 -4.6 0  -3 -4.6 0  -2.9 -4.6 0  -2.8 -4.6 0  -2.7 -4.6 0  -2.6 -4.6 0  -2.5 -4.6 0  -2.4 -4.6 0  -2.3 -4.6 0  -2.2 -4.6 0  -2.1 -4.6 0  -2 -4.6 0  -1.9 -4.6 0  -1.8 -4.6 0  -1.7 -4.6 0  -1.6 -4.6 0  -1.5 -4.6 0  -1.4 -4.6 0  -1.3 -4.6 0  -1.2 -4.6 0  -1.1 -4.6 0  -1 -4.6 0  -0.9000000000000004 -4.6 0  -0.7999999999999998 -4.6 0  -0.7000000000000002 -4.6 0  -0.5999999999999996 -4.6 0  -0.5 -4.6 0  -0.4000000000000004 -4.6 0  -0.2999999999999998 -4.6 0  -0.2000000000000002 -4.6 0  -0.09999999999999964 -4.6 0  0 -4.6 0  0.09999999999999964 -4.6 0  0.2000000000000002 -4.6 0  0.2999999999999998 -4.6 0  0.4000000000000004 -4.6 0  0.5 -4.6 0  0.5999999999999996 -4.6 0  0.7000000000000002 -4.6 0  0.7999999999999998 -4.6 0  0.9000000000000004 -4.6 0  1 -4.6 0  1.1 -4.6 0  1.2 -4.6 0  1.3 -4.6 0  1.4 -4.6 0  1.5 -4.6 0  1.6 -4.6 0  1.7 -4.6 0  1.8 -4.6 0  1.9 -4.6 0  2 -4.6 0  2.1 -4.6 0  2.2 -4.6 0  2.3 -4.6 0  2.4 -4.6 0  2.5 -4.6 0  2.6 -4.6 0  2.7 -4.6 0  2.8 -4.6 0  2.9 -4.6 0  3 -4.6 0  3.1 -4.6 0  3.199999999999999 -4.6 0  3.300000000000001 -4.6 0  3.4 -4.6 0  3.5 -4.6 0  3.6 -4.6 0  3.699999999999999 -4.6 0  3.800000000000001 -4.6 0  3.9 -4.6 0  4 -4.6 0  4.1 -4.6 0  4.199999999999999 -4.6 0  4.300000000000001 -4.6 0  4.4 -4.6 0  4.5 -4.6 0  4.6 -4.6 0  4.699999999999999 -4.6 0  4.800000000000001 -4.6 0  4.9 -4.6 0  5 -4.6 0  -5 -4.5 0  -4.9 -4.5 0  -4.8 -4.5 0  -4.7 -4.5 0  -4.6 -4.5 0  -4.5 -4.5 0  -4.4 -4.5 0  -4.3 -4.5 0  -4.2 -4.5 0  -4.1 -4.5 0  -4 -4.5 0  -3.9 -4.5 0  -3.8 -4.5 0  -3.7 -4.5 0  -3.6 -4.5 0  -3.5 -4.5 0  -3.4 -4.5 0  -3.3 -4.5 0  -3.2 -4.5 0  -3.1 -4.5 0  -3 -4.5 0  -2.9 -4.5 0  -2.8 -4.5 0  -2.7 -4.5 0  -2.6 -4.5 0  -2.5 -4.5 0  -2.4 -4.5 0  -2.3 -4.5 0  -2.2 -4.5 0  -2.1 -4.5 0  -2 -4.5 0  -1.9 -4.5 0  -1.8 -4.5 0  -1.7 -4.5 0  -1.6 -4.5 0  -1.5 -4.5 0  -1.4 -4.5 0  -1.3 -4.5 0  -1.2 -4.5 0  -1.1 -4.5 0  -1 -4.5 0  -0.9000000000000004 -4.5 0  -0.7999999999999998 -4.5 0  -0.7000000000000002 -4.5 0  -0.5999999999999996 -4.5 0  -0.5 -4.5 0  -0.4000000000000004 -4.5 0  -0.2999999999999998 -4.5 0  -0.2000000000000002 -4.5 0  -0.09999999999999964 -4.5 0  0 -4.5 0  0.09999999999999964 -4.5 0  0.2000000000000002 -4.5 0  0.2999999999999998 -4.5 0  0.4000000000000004 -4.5 0  0.5 -4.5 0  0.5999999999999996 -4.5 0  0.7000000000000002 -4.5 0  0.7999999999999998 -4.5 0  0.9000000000000004 -4.5 0  1 -4.5 0  1.1 -4.5 0  1.2 -4.5 0  1.3 -4.5 0  1.4 -4.5 0  1.5 -4.5 0  1.6 -4.5 0  1.7 -4.5 0  1.8 -4.5 0  1.9 -4.5 0  2 -4.5 0  2.1 -4.5 0  2.2 -4.5 0  2.3 -4.5 0  2.4 -4.5 0  2.5 -4.5 0  2.6 -4.5 0  2.7 -4.5 0  2.8 -4.5 0  2.9 -4.5 0  3 -4.5 0  3.1 -4.5 0  3.199999999999999 -4.5 0  3.300000000000001 -4.5 0  3.4 -4.5 0  3.5 -4.5 0  3.6 -4.5 0  3.699999999999999 -4.5 0  3.800000000000001 -4.5 0  3.9 -4.5 0  4 -4.5 0  4.1 -4.5 0  4.199999999999999 -4.5 0  4.300000000000001 -4.5 0  4.4 -4.5 0  4.5 -4.5 0  4.6 -4.5 0  4.699999999999999 -4.5 0  4.800000000000001 -4.5 0  4.9 -4.5 0  5 -4.5 0  -5 -4.4 0  -4.9 -4.4 0  -4.8 -4.4 0  -4.7 -4.4 0  -4.6 -4.4 0  -4.5 -4.4 0  -4.4 -4.4 0  -4.3 -4.4 0  -4.2 -4.4 0  -4.1 -4.4 0  -4 -4.4 0  -3.9 -4.4 0  -3.8 -4.4 0  -3.7 -4.4 0  -3.6 -4.4 0  -3.5 -4.4 0  -3.4 -4.4 0  -3.3 -4.4 0  -3.2 -4.4 0  -3.1 -4.4 0  -3 -4.4 0  -2.9 -4.4 0  -2.8 -4.4 0  -2.7 -4.4 0  -2.6 -4.4 0  -2.5 -4.4 0  -2.4 -4.4 0  -2.3 -4.4 0  -2.2 -4.4 0  -2.1 -4.4 0  -2 -4.4 0  -1.9 -4.4 0  -1.8 -4.
[...]
<PointData  Vectors="f_23"> 
<DataArray  type="Float64"  Name="f_23"  NumberOfComponents="3" format="ascii">1.5000000000000022e-01 0.0000000000000000e+00 0.0000000000000000e+00  1.5000000000000002e-01 1.1778858053170603e-32 0.0000000000000000e+00  1.5000000000000019e-01 5.9511628545350182e-32 0.0000000000000000e+00  1.5000000000000011e-01 1.7301024800496478e-33 0.0000000000000000e+00  1.5000000000000030e-01 1.5937421414489263e-32 0.0000000000000000e+00  1.5000000000000002e-01 7.0595520452632479e-34 0.0000000000000000e+00  1.5000000000000011e-01 6.1534765391072239e-32 0.0000000000000000e+00  1.4999999999999991e-01 3.1662743610024578e-32 0.0000000000000000e+00  1.5000000000000027e-01 1.3805132360202500e-31 0.0000000000000000e+00  1.5000000000000002e-01 1.6824865227713531e-32 0.0000000000000000e+00  1.5000000000000019e-01 7.3983160688967075e-32 0.0000000000000000e+00  1.4999999999999974e-01 1.7466643900388630e-31 0.0000000000000000e+00  1.5000000000000041e-01 1.5056279200402030e-32 0.0000000000000000e+00  1.5000000000000002e-01 9.6568531040040560e-33 0.0000000000000000e+00  1.4999999999999949e-01 1.6470691099035963e-31 0.0000000000000000e+00  1.5000000000000022e-01 1.8649819452964636e-32 0.0000000000000000e+00  1.4999999999999980e-01 3.6324531725002184e-34 0.0000000000000000e+00  1.5000000000000019e-01 1.1624041640373335e-31 0.0000000000000000e+00  1.5000000000000013e-01 2.6041765817389326e-32 0.0000000000000000e+00  1.4999999999999974e-01 7.1639768304489780e-32 0.0000000000000000e+00  1.5000000000000030e-01 1.2883041208762095e-31 0.0000000000000000e+00  1.4999999999999997e-01 1.8975477142478427e-31 0.0000000000000000e+00  1.5000000000000091e-01 5.0374846491464119e-33 0.0000000000000000e+00  1.5000000000000202e-01 8.3397722742235791e-32 0.0000000000000000e+00  1.5000000000000185e-01 1.0934154207380385e-31 0.0000000000000000e+00  1.5000000000000091e-01 2.0901698059350062e-32 0.0000000000000000e+00  1.4999999999999925e-01 1.6700122336998561e-31 0.0000000000000000e+00  1.4999999999999811e-01 8.0950241343530191e-35 0.0000000000000000e+00  1.4999999999999858e-01 3.3530154489655929e-35 0.0000000000000000e+00  1.4999999999999955e-01 1.5281128766181589e-32 0.0000000000000000e+00  1.5000000000000044e-01 1.3116164760664860e-32 0.0000000000000000e+00  1.5000000000000030e-01 1.5237169154356382e-31 0.0000000000000000e+00  1.5000000000000011e-01 1.1994122356545299e-33 0.0000000000000000e+00  1.5000000000000013e-01 4.2640805019585313e-31 0.0000000000000000e+00  1.4999999999999997e-01 2.4828284487545222e-31 0.0000000000000000e+00  1.5000000000000019e-01 5.1472846732079557e-34 0.0000000000000000e+00  1.5000000000000002e-01 1.8139589505673433e-31 0.0000000000000000e+00  1.5000000000000002e-01 2.6326746351859969e-32 0.0000000000000000e+00  1.4999999999999974e-01 1.2739337400356419e-33 0.0000000000000000e+00  1.5000000000000013e-01 1.0385758234426812e-34 0.0000000000000000e+00  1.4999999999999997e-01 1.2641610272430654e-31 0.0000000000000000e+00  1.4999999999999991e-01 5.8427992903185927e-32 0.0000000000000000e+00  1.5000000000000027e-01 1.1320205971195103e-31 0.0000000000000000e+00  1.5000000000000027e-01 7.7379319609965567e-32 0.0000000000000000e+00  1.5000000000000005e-01 1.0018928243589089e-31 0.0000000000000000e+00  1.5000000000000013e-01 1.9839967785346857e-32 0.0000000000000000e+00  1.5000000000000011e-01 2.9226813833494354e-34 0.0000000000000000e+00  1.5000000000000030e-01 1.0387629221201717e-32 0.0000000000000000e+00  1.5000000000000027e-01 4.3210438755791862e-33 0.0000000000000000e+00  1.5000000000000030e-01 7.6882419789293977e-32 0.0000000000000000e+00  1.5000000000000019e-01 4.3128513707059497e-32 0.0000000000000000e+00  1.5000000000000022e-01 2.3946950861696354e-31 0.0000000000000000e+00  1.5000000000000030e-01 1.1912148769832306e-31 0.0000000000000000e+00  1.5000000000000013e-01 2.5337477625691835e-32 0.0000000000000000e+00  1.4999999999999980e-01 9.8424964327968405e-32 0.0000000000000000e+00  1.5000000000000036e-01 1.6510556821788460e-31 0.0000000000000000e+00  1.5000000000000030e-01 1.2871838223517652e-31 0.0000000000000000e+00  1.5000000000000036e-01 3.0201813448896709e-32 0.0000000000000000e+00  1.5000000000000002e-01 3.4400704872263471e-32 0.0000000000000000e+00  1.5000000000000011e-01 5.0841232500132101e-33 0.0000000000000000e+00  1.5000000000000022e-01 2.9110300986808974e-33 0.0000000000000000e+00  1.5000000000000005e-01 3.4397522792267066e-34 0.0000000000000000e+00  1.5000000000000013e-01 1.7884971773468470e-32 0.0000000000000000e+00  1.5000000000000049e-01 1.8321077989189972e-31 0.0000000000000000e+00  1.5000000000000019e-01 1.0126827636634525e-31 0.0000000000000000e+00  1.5000000000000022e-01 6.7185391996348587e-33 0.0000000000000000e+00  1.5000000000000027e-01 3.6910181466299345e-32 0.0000000000000000e+00  1.5000000000000013e-01 1.3268437440426333e-32 0.0000000000000000e+00  1.5000000000000022e-01 1.0462759224285226e-31 0.0000000000000000e+00  1.5000000000000013e-01 1.4417043923885714e-32 0.0000000000000000e+00  1.5000000000000019e-01 1.6667534642881471e-31 0.0000000000000000e+00  1.5000000000000019e-01 3.2621988919290047e-32 0.0000000000000000e+00  1.5000000000000058e-01 3.2868196122867857e-31 0.0000000000000000e+00  1.4999999999999963e-01 1.6232355938784344e-31 0.0000000000000000e+00  1.5000000000000049e-01 1.6645800279871427e-31 0.0000000000000000e+00  1.5000000000000019e-01 1.0369625598069112e-31 0.0000000000000000e+00  1.5000000000000002e-01 1.1873347132267271e-31 0.0000000000000000e+00  1.5000000000000013e-01 8.8249785353789515e-32 0.0000000000000000e+00  1.5000000000000019e-01 3.7212221761932107e-32 0.0000000000000000e+00  1.5000000000000011e-01 2.4356774443590824e-31 0.0000000000000000e+00  1.5000000000000027e-01 8.1896521795232257e-32 0.0000000000000000e+00  1.5000000000000013e-01 6.1499795555009274e-32 0.0000000000000000e+00  1.4999999999999991e-01 2.7511423120108332e-33 0.0000000000000000e+00  1.5000000000000041e-01 7.9121047603773684e-32 0.0000000000000000e+00  1.5000000000000022e-01 1.4242564587723061e-31 0.0000000000000000e+00  1.5000000000000036e-01 6.3226321228589032e-32 0.0000000000000000e+00  1.5000000000000013e-01 5.8498221728649934e-32 0.0000000000000000e+00  1.5000000000000052e-01 4.1418850998451799e-32 0.0000000000000000e+00  1.5000000000000011e-01 2.5553891675950718e-33 0.0000000000000000e+00  1.5000000000000049e-01 1.6686705668468410e-32 0.0000000000000000e+00  1.5000000000000013e-01 6.4303216265626901e-32 0.0000000000000000e+00  1.5000000000000013e-01 2.0618711733549537e-32 0.0000000000000000e+00  1.5000000000000022e-01 2.2976439055197825e-33 0.0000000000000000e+00  1.5000000000000013e-01 1.0096875835290914e-31 0.0000000000000000e+00  1.5000000000000011e-01 1.1396160397649912e-31 0.0000000000000000e+00  1.4999999999999974e-01 3.7576613356133254e-34 0.0000000000000000e+00  1.5000000000000019e-01 1.2401734024948545e-33 0.0000000000000000e+00  1.4999999999999983e-01 5.5954159322814544e-34 0.0000000000000000e+00  1.5000000000000005e-01 3.5152643339658564e-34 0.0000000000000000e+00  1.5000000000000011e-01 1.2784147176297780e-32 0.0000000000000000e+00  1.5000000000000027e-01 0.0000000000000000e+00 0.0000000000000000e+00  1.5000000000000022e-01 0.0000000000000000e+00 3.8712671263343008e-32  1.5000000000000013e-01 6.3093701998486762e-32 1.0048481895341672e-31  1.5000000000000013e-01 9.7726164394772657e-34 2.5093967475629126e-32  1.5000000000000011e-01 1.1141941106927272e-31 2.3837520528030631e-32  1.4999999999999988e-01 1.7188715191195598e-33 1.4083730857779527e-32  1.5000000000000019e-01 2.7212767218516844e-32 3.8459461327754354e-33  1.5000000000000005e-01 1.6673382313302727e-34 6.1123956268016434e-34  1.5000000000000019e-01 4.4925709315583246e-32 9.6285977706296534e-34  1.5000000000000013e-01 5.8079484222997165e-33 5.5394586552158545e-33  1.4999999999999988e-01 3.9582451033176615e-32 1.0224860379986646e-32  1.5000000000000013e-01 2.2673508492850932e-33 2.1385395640223488e-32  1.5000000000000011e-01 1.0100910925636200e-31 1.0895780100208791e-33  1.5000000000000022e-01 3.8659914386260959e-32 7.3073911686741401e-33  1.5000000000000013e-01 5.0162032726425709e-33 1.2751553294866122e-33  1.5000000000000013e-01 3.6720317289314962e-32 1.1094603848512559e-31  1.5000000000000027e-01 1.7811441982992185e-31 1.5887065475735885e-32  1.4999999999999997e-01 1.5211675696694695e-34 2.8256932573207380e-33  1.5000000000000005e-01 7.8858277439260358e-32 5.6382670216044187e-34  1.4999999999999991e-01 2.2724823437728885e-32 6.8589077879737041e-33  1.4999999999999997e-01 8.3463907525119115e-32 1.5875640591762994e-32  1.5000000000000011e-01 2.7251259278368502e-34 2.5806881332314360e-33  1.4999999999999972e-01 2.9736485186470960e-32 7.1896248216341219e-34  1.4999999999999905e-01 1.3350307333236631e-31 4.5262787448633382e-31  1.4999999999999833e-01 1.4741001789685905e-32 3.0265232019002403e-30  1.4999999999999739e-01 1.5139074125657971e-32 5.9565239411460355e-30  1.4999999999999808e-01 1.6008611306375323e-31 3.2605609559693026e-30  1.5000000000000036e-01 4.2555045810714206e-31 2.4379488506178705e-31  1.5000000000000255e-01 1.1793401031452216e-31 7.6809339891591184e-30  1.5000000000000302e-01 2.5480560477965533e-32 7.8332182411683074e-30  1.5000000000000155e-01 2.6021702065955857e-31 1.6996859910206454e-30  1.4999999999999983e-01 1.2770463639309050e-31 4.2053476763979815e-31  1.4999999999999966e-01 1.1433350897771232e-31 5.6503441553853402e-31  1.5000000000000011e-01 1.7372004363712376e-32 1.7938021725551351e-31  1.5000000000000027e-01 1.9792488405671910e-32 1.0942750598420871e-31  1.5000000000000013e-01 9.7594717659130022e-32 8.1720323520752240e-32  1.5000000000000011e-01 8.8197123559809830e-33 3.8354005661301644e-32  1.5000000000000005e-01 8.3882282281563909e-33 4.6488269429572042e-34  1.5000000000000011e-01 5.2033545608615452e-32 1.7019688037064235e-33  1.5000000000000011e-01 9.2698486916856461e-34 2.5278777723499117e-35  1.5000000000000013e-01 1.9874003764563716e-32 2.0127713741105660e-32  1.5000000000000011e-01 3.4150302766748359e-33 1.6919570315139546e-32  1.5000000000000019e-01 7.7306142043546799e-33 1.6064050311889896e-32  1.5000000000000011e-01 1.0684741180063948e-31 1.8731441763388458e-35  1.5000000000000013e-01 1.6318418501725861e-31 3.2611258685157400e-32  1.4999999999999980e-01 6.3180079986325318e-34 1.7090323150874409e-33  1.5000000000000049e-01 1.5732571273625513e-32 3.0470815667777930e-34  1.5000000000000011e-01 1.7063336624505241e-32 8.9257589946497092e-33  1.5000000000000013e-01 1.0255161278690179e-31 5.0499455015879057e-32  1.5000000000000013e-01 2.4735456651184407e-32 3.8852525932410758e-32  1.4999999999999997e-01 7.4958212731006670e-33 1.2668321295159526e-32  1.5000000000000019e-01 2.3382665540964801e-32 7.0987305105572014e-34  1.5000000000000013e-01 1.1216590764134379e-32 9.4436228184548244e-33  1.5000000000000022e-01 1.2925094147503317e-32 6.1072815887301257e-32  1.5000000000000022e-01 1.3654197235068283e-31 2.8888249347783097e-32  1.4999999999999983e-01 8.1148315194502265e-32 4.8869329257323717e-33  1.5000000000000019e-01 1.4036269781276079e-31 5.6024310968652809e-32  1.4999999999999997e-01 1.2089383281762288e-31 3.4825275603852488e-32  1.5000000000000027e-01 1.7636751155288989e-31 2.0058799203617276e-32  1.5000000000000013e-01 1.9712613582833089e-32 1.8450396951032206e-32  1.5000000000000005e-01 6.1059336305436704e-34 6.3300821476526963e-33  1.5000000000000013e-01 2.3110861317605131e-32 3.0948711425384135e-32  1.5000000000000005e-01 3.2525840221541672e-35 8.9633725080091415e-33  1.5000000000000027e-01 1.3636207318034800e-31 1.6910660566348509e-32  1.5000000000000002e-01 9.8922655396855956e-33 3.2129100865800904e-32  1.4999999999999991e-01 7.3687454106090872e-34 4.5535850809109078e-34  1.5000000000000036e-01 7.8932458029276200e-36 1.9081514721600207e-33  1.5000000000000011e-01 3.4806060882647513e-32 3.5471757494868418e-33  1.5000000000000027e-01 7.2836326337645469e-33 2.1399580567036349e-32  1.5000000000000013e-01 2.7548275731514717e-32 4.0852693265183120e-33  1.5000000000000002e-01 9.4927597774925038e-33 9.1156076233276411e-32  1.5000000000000019e-01 1.7650400631723200e-32 1.9266052199968064e-33  1.5000000000000022e-01 2.8492462176623505e-33 6.2704138056797851e-32  1.4999999999999983e-01 9.5254116377598167e-32 6.7632883748707991e-32  1.5000000000000022e-01 8.0803779437888453e-32 1.9353664252958324e-32  1.5000000000000030e-01 4.2441160069416390e-32 3.3970700759860915e-34  1.5000000000000002e-01 1.7343674743679106e-31 1.1873253199236499e-32  1.5000000000000022e-01 8.7491142927090779e-33 1.5692919381457352e-33  1.4999999999999997e-01 5.9596690241453605e-32 4.0298044390838530e-33  1.4999999999999974e-01 1.9391827048741423e-32 2.3240687236415707e-31  1.5000000000000005e-01 9.2191274776213773e-33 4.6474004875516225e-32  1.5000000000000011e-01 1.3725109570000363e-32 4.8088096174822465e-34  1.5000000000000002e-01 5.9210802394312198e-32 1.5276974898697300e-32  1.5000000000000019e-01 1.8911500045513609e-34 2.2722073041540288e-33  1.5000000000000011e-01 2.4870510066562403e-32 3.8792730477106303e-32  1.4999999999999997e-01 3.0661698353283349e-32 1.0232838334749767e-32  1.5000000000000005e-01 1.8711908444462932e-32 4.8838660929731472e-32  1.5000000000000013e-01 3.1795716643187240e-32 1.4730405969402001e-33  1.5000000000000013e-01 8.2151713820693061e-34 1.0061860227055649e-31  1.5000000000000013e-01 4.4705702967547168e-32 3.1494768228075038e-34  1.5000000000000019e-01 6.2718320091313910e-32 5.7741289833417613e-33  1.5000000000000005e-01 1.1251436204296720e-31 5.1196210412159619e-32  1.5000000000000030e-01 6.6726382983763780e-32 7.0176521391835502e-33  1.5000000000000013e-01 2.7904737395838757e-33 7.1754532649820902e-33  1.5000000000000013e-01 1.2926346885697641e-35 1.3167682506898359e-31  1.4999999999999991e-01 9.1901939962038907e-34 2.6374272434892016e-34  1.5000000000000022e-01 8.4775924848645106e-34 6.0643141666274177e-33  1.5000000000000011e-01 1.3101464140836288e-31 1.3988805860561970e-33  1.5000000000000005e-01 3.8361264676015991e-33 9.5673894391195587e-33  1.5000000000000019e-01 2.4227905873037343e-32 9.0799727458603719e-33  1.5000000000000011e-01 4.2029353158518527e-32 8.0653093528305337e-33  1.4999999999999983e-01 0.0000000000000000e+00 1.8561339043891785e-32  1.5000000000000030e-01 0.0000000000000000e+00 3.0001535320255396e-32  1.5000000000000013e-01 1.5695262735233864e-31 3.5515422135558246e-34  1.5000000000000044e-01 1.8683957090117288e-31 6.9600568615930483e-32  1.5000000000000019e-01 7.9378727786419009e-33 6.3736981837224536e-33  1.5000000000000002e-01 1.2917553923581833e-33 6.0516218486261447e-32  1.5000000000000030e-01 8.0771737257969059e-34 7.6875785104583115e-33  1.5000000000000013e-01 3.8407676230101134e-36 8.4276103607471547e-32  1.4999999999999997e-01 1.7486742552464569e-31 1.7893820343483958e-32  1.5000000000000019e-01 1.0525812331724478e-34 9.5308249967023076e-32  1.5000000000000011e-01 5.6035723206655639e-33 4.9701185628307695e-34  1.5000000000000002e-01 7.8710121283217373e-33 1.7407882625148945e-32  1.5000000000000027e-01 8.6649553581331469e-32 1.1899906259860697e-32  1.5000000000000005e-01 4.3693745694591298e-32 1.2280895119583775e-34  1.5000000000000019e-01 1.0942708360604735e-33 4.0529810128540280e-32  1.5000000000000022e-01 2.4692289934452273e-33 2.5728433564251513e-32  1.5000000000000005e-01 2.0689474982630672e-31 3.8879477873019230e-32  1.4999999999999991e-01 3.2364840541367755e-33 6.3172737224445460e-33  1.5000000000000022e-01 1.0213723963618153e-32 1.1577268144540255e-34  1.5000000000000002e-01 1.4679091204768254e-34 2.8439873584609692e-33  1.5000000000000011e-01 1.2334829429085089e-31 2.5241803222605469e-33  1.5000000000000002e-01 1.3246926647144096e-33 8.7136096067605203e-32  1.5000000000000013e-01 3.8129622620071794e-33 2.3776927281771055e-32  1.5000000000000099e-01 1.9276314881454732e-31 6.9784581559076186e-31  1.5000000000000269e-01 3.6031498182064245e-31 1.3269933643609891e-29  1.5000000000000466e-01 9.1459085851659691e-32 4.0693136823680563e-29  1.5000000000000513e-01 9.6902407606194241e-32 3.9937435448200752e-29  1.5000000000000135e-01 1.0651837584655033e-30 4.4132549269638119e-30  1.4999999999999669e-01 7.2808120426510305e-31 2.5146097050139286e-29  1.4999999999999372e-01 2.5245477130189966e-31 7.1544685390147898e-29  1.4999999999999558e-01 2.3499755864047757e-31 3.3437228668238333e-29  1.4999999999999974e-01 4.3856406932197503e-31 7.3000642437592518e-31  1.5000000000000163e-01 2.1709197140830498e-31 5.5046250300513518e-30  1.5000000000000127e-01 4.4974918369737904e-33 2.9473620578674189e-30  1.5000000000000011e-01 6.2752829985423970e-34 2.3381354894014300e-33  1.4999999999999936e-01 4.9984778650745289e-33 3.8383144655107399e-31  1.5000000000000022e-01 5.5874816960016329e-32 1.8984658350340662e-32  1.4999999999999997e-01 1.1805115754321488e-32 3.6407006793289003e-32  1.5000000000000027e-01 9.1976700566242158e-33 1.0272495617346429e-32  1.5000000000000019e-01 4.2404547123759120e-32 3.5913987994179035e-34  1.5000000000000030e-01 8.0952599285544658e-34 9.2231957334670762e-34  1.4999999999999983e-01 2.8103369067292161e-32 1.8077701573226778e-33  1.5000000000000019e-01 1.3170225745804117e-31 1.3572064486002042e-32  1.5000000000000011e-01 2.3226524958583290e-33 1.6833841552848403e-33  1.5000000000000011e-01 1.1167643324952938e-32 3.4657014790661437e-33  1.5000000000000011e-01 2.3112912866425516e-32 2.0261787437001586e-31  1.5000000000000036e-01 8.3196546651689841e-32 5.4929724055033778e-34  1.5000000000000005e-01 4.1297821841601926e-33 7.0254424153555199e-32  1.5000000000000022e-01 1.8668412530550996e-33 1.1550112201097447e-32  1.5000000000000030e-01 9.4470542491538690e-32 1.2363758375987352e-32  1.5000000000000022e-01 1.1279161609089571e-32 1.6425324986349267e-33  1.5000000000000013e-01 1.2208613713733432e-32 3.0509180518663834e-32  1.5000000000000013e-01 2.0893968880257073e-33 3.8494617530111134e-33  1.4999999999999983e-01 4.0262912455075177e-32 7.6009576596332686e-33  1.5000000000000005e-01 1.6721779207572501e-35 4.8245862321702187e-32  1.5000000000000011e-01 9.2644255962640448e-33 6.3705759594181782e-32  1.5000000000000027e-01 9.6076937896599223e-33 1.3977650826214985e-32  1.4999999999999991e-01 1.3931837080363076e-31 3.3168617889240139e-33  1.5000000000000036e-01 1.9300033278829309e-33 6.2317318642434972e-35  1.5000000000000002e-01 6.4141729326993740e-32 1.2465936333371882e-31  1.5000000000000027e-01 2.0558318699743104e-33 3.0821591514160635e-32  1.5000000000000002e-01 1.4922065124678981e-33 1.8085388656962802e-34  1.5000000000000044e-01 8.3754265347099402e-33 5.1831543717620010e-32  1.5000000000000013e-01 2.2712644325314396e-33 8.8483519824474522e-35  1.5000000000000036e-01 1.1496683212780236e-33 2.2397746011769113e-33  1.4999999999999983e-01 1.4770283664475570e-31 6.9540620197960379e-32  1.5000000000000049e-01 1.3439027108870170e-32 3.8933082948019957e-32  1.5000000000000019e-01 4.6657149922763161e-33 7.3854934569354569e-35  1.5000000000000030e-01 1.7221013700163893e-32 1.1544082249572538e-32  1.5000000000000013e-01 9.3062762409512898e-32 4.3456348683126940e-33  1.5000000000000019e-01 5.0440320878051143e-32 1.0873085510011957e-34  1.5000000000000044e-01 2.2466826612107107e-32 1.3588012375134866e-33  1.5000000000000027e-01 7.9692147924009511e-32 2.9797233723199220e-32  1.5000000000000005e-01 2.0977613252506084e-31 4.4970964382550749e-34  1.5000000000000011e-01 4.4387762885044445e-33 2.9679238533606144e-33  1.5000000000000002e-01 2.7079002817710956e-32 1.5261244152428116e-32  1.5000000000000011e-01 1.3161915680466548e-33 2.7548542193523657e-32  1.5000000000000002e-01 2.4394178816687334e-31 2.5273677526981821e-32  1.5000000000000027e-01 9.0401453310235770e-32 1.4407389222229291e-32  1.5000000000000013e-01 4.1532797939417906e-33 5.7715475246410060e-35  1.5000000000000019e-01 4.0155688968159288e-34 8.6698406294372576e-33  1.5000000000000013e-01 7.6870269329400812e-34 4.3657884680537311e-32  1.5000000000000013e-01 1.1824296811073675e-32 2.1251388703943204e-32  1.5000000000