<?xml version="1.0"?>
<VTKFile type="UnstructuredGrid"  version="0.1"  >
<UnstructuredGrid>
<Piece  NumberOfPoints="10201" NumberOfCells="20000">
<Points>
<DataArray  type="Float64"  NumberOfComponents="3"  format="ascii">-5 -5 0  -4.9 -5 0  -4.8 -5 0  -4.7 -5 0  -4.6 -5 0  -4.5 -5 0  -4.4 -5 0  -4.3 -5 0  -4.2 -5 0  -4.1 -5 0  -4 -5 0  -3.9 -5 0  -3.8 -5 0  -3.7 -5 0  -3.6 -5 0  -3.5 -5 0  -3.4 -5 0  -3.3 -5 0  -3.2 -5 0  -3.1 -5 0  -3 -5 0  -2.9 -5 0  -2.8 -5 0  -2.7 -5 0  -2.6 -5 0  -2.5 -5 0  -2.4 -5 0  -2.3 -5 0  -2.2 -5 0  -2.1 -5 0  -2 -5 0  -1.9 -5 0  -1.8 -5 0  -1.7 -5 0  -1.6 -5 0  -1.5 -5 0  -1.4 -5 0  -1.3 -5 0  -1.2 -5 0  -1.1 -5 0  -1 -5 0  -0.9000000000000004 -5 0  -0.7999999999999998 -5 0  -0.7000000000000002 -5 0  -0.5999999999999996 -5 0  -0.5 -5 0  -0.4000000000000004 -5 0  -0.2999999999999998 -5 0  -0.2000000000000002 -5 0  -0.09999999999999964 -5 0  0 -5 0  0.09999999999999964 -5 0  0.2000000000000002 -5 0  0.2999999999999998 -5 0  0.4000000000000004 -5 0  0.5 -5 0  0.5999999999999996 -5 0  0.7000000000000002 -5 0  0.7999999999999998 -5 0  0.9000000000000004 -5 0  1 -5 0  1.1 -5 0  1.2 -5 0  1.3 -5 0  1.4 -5 0  1.5 -5 0  1.6 -5 0  1.7 -5 0  1.8 -5 0  1.9 -5 0  2 -5 0  2.1 -5 0  2.2 -5 0  2.3 -5 0  2.4 -5 0  2.5 -5 0  2.6 -5 0  2.7 -5 0  2.8 -5 0  2.9 -5 0  3 -5 0  3.1 -5 0  3.199999999999999 -5 0  3.300000000000001 -5 0  3.4 -5 0  3.5 -5 0  3.6 -5 0  3.699999999999999 -5 0  3.800000000000001 -5 0  3.9 -5 0  4 -5 0  4.1 -5 0  4.199999999999999 -5 0  4.300000000000001 -5 0  4.4 -5 0  4.5 -5 0  4.6 -5 0  4.699999999999999 -5 0  4.800000000000001 -5 0  4.9 -5 0  5 -5 0  -5 -4.9 0  -4.9 -4.9 0  -4.8 -4.9 0  -4.7 -4.9 0  -4.6 -4.9 0  -4.5 -4.9 0  -4.4 -4.9 0  -4.3 -4.9 0  -4.2 -4.9 0  -4.1 -4.9 0  -4 -4.9 0  -3.9 -4.9 0  -3.8 -4.9 0  -3.7 -4.9 0  -3.6 -4.9 0  -3.5 -4.9 0  -3.4 -4.9 0  -3.3 -4.9 0  -3.2 -4.9 0  -3.1 -4.9 0  -3 -4.9 0  -2.9 -4.9 0  -2.8 -4.9 0  -2.7 -4.9 0  -2.6 -4.9 0  -2.5 -4.9 0  -2.4 -4.9 0  -2.3 -4.9 0  -2.2 -4.9 0  -2.1 -4.9 0  -2 -4.9 0  -1.9 -4.9 0  -1.8 -4.9 0  -1.7 -4.9 0  -1.6 -4.9 0  -1.5 -4.9 0  -1.4 -4.9 0  -1.3 -4.9 0  -1.2 -4.9 0  -1.1 -4.9 0  -1 -4.9 0  -0.9000000000000004 -4.9 0  -0.7999999999999998 -4.9 0  -0.7000000000000002 -4.9 0  -0.5999999999999996 -4.9 0  -0.5 -4.9 0  -0.4000000000000004 -4.9 0  -0.2999999999999998 -4.9 0  -0.2000000000000002 -4.9 0  -0.09999999999999964 -4.9 0  0 -4.9 0  0.09999999999999964 -4.9 0  0.2000000000000002 -4.9 0  0.2999999999999998 -4.9 0  0.4000000000000004 -4.9 0  0.5 -4.9 0  0.5999999999999996 -4.9 0  0.7000000000000002 -4.9 0  0.7999999999999998 -4.9 0  0.9000000000000004 -4.9 0  1 -4.9 0  1.1 -4.9 0  1.2 -4.9 0  1.3 -4.9 0  1.4 -4.9 0  1.5 -4.9 0  1.6 -4.9 0  1.7 -4.9 0  1.8 -4.9 0  1.9 -4.9 0  2 -4.9 0  2.1 -4.9 0  2.2 -4.9 0  2.3 -4.9 0  2.4 -4.9 0  2.5 -4.9 0  2.6 -4.9 0  2.7 -4.9 0  2.8 -4.9 0  2.9 -4.9 0  3 -4.9 0  3.1 -4.9 0  3.199999999999999 -4.9 0  3.300000000000001 -4.9 0  3.4 -4.9 0  3.5 -4.9 0  3.6 -4.9 0  3.699999999999999 -4.9 0  3.800000000000001 -4.9 0  3.9 -4.9 0  4 -4.9 0  4.1 -4.9 0  4.199999999999999 -4.9 0  4.300000000000001 -4.9 0  4.4 -4.9 0  4.5 -4.9 0  4.6 -4.9 0  4.699999999999999 -4.9 0  4.800000000000001 -4.9 0  4.9 -4.9 0  5 -4.9 0  -5 -4.8 0  -4.9 -4.8 0  -4.8 -4.8 0  -4.7 -4.8 0  -4.6 -4.8 0  -4.5 -4.8 0  -4.4 -4.8 0  -4.3 -4.8 0  -4.2 -4.8 0  -4.1 -4.8 0  -4 -4.8 0  -3.9 -4.8 0  -3.8 -4.8 0  -3.7 -4.8 0  -3.6 -4.8 0  -3.5 -4.8 0  -3.4 -4.8 0  -3.3 -4.8 0  -3.2 -4.8 0  -3.1 -4.8 0  -3 -4.8 0  -2.9 -4.8 0  -2.8 -4.8 0  -2.7 -4.8 0  -2.6 -4.8 0  -2.5 -4.8 0  -2.4 -4.8 0  -2.3 -4.8 0  -2.2 -4.8 0  -2.1 -4.8 0  -2 -4.8 0  -1.9 -4.8 0  -1.8 -4.8 0  -1.7 -4.8 0  -1.6 -4.8 0  -1.5 -4.8 0  -1.4 -4.8 0  -1.3 -4.8 0  -1.2 -4.8 0  -1.1 -4.8 0  -1 -4.8 0  -0.9000000000000004 -4.8 0  -0.7999999999999998 -4.8 0  -0.7000000000000002 -4.8 0  -0.5999999999999996 -4.8 0  -0.5 -4.8 0  -0.4000000000000004 -4.8 0  -0.2999999999999998 -4.8 0  -0.2000000000000002 -4.8 0  -0.09999999999999964 -4.8 0  0 -4.8 0  0.09999999999999964 -4.8 0  0.2000000000000002 -4.8 0  0.2999999999999998 -4.8 0  0.4000000000000004 -4.8 0  0.5 -4.8 0  0.5999999999999996 -4.8 0  0.7000000000000002 -4.8 0  0.7999999999999998 -4.8 0  0.9000000000000004 -4.8 0  1 -4.8 0  1.1 -4.8 0  1.2 -4.8 0  1.3 -4.8 0  1.4 -4.8 0  1.5 -4.8 0  1.6 -4.8 0  1.7 -4.8 0  1.8 -4.8 0  1.9 -4.8 0  2 -4.8 0  2.1 -4.8 0  2.2 -4.8 0  2.3 -4.8 0  2.4 -4.8 0  2.5 -4.8 0  2.6 -4.8 0  2.7 -4.8 0  2.8 -4.8 0  2.9 -4.8 0  3 -4.8 0  3.1 -4.8 0  3.199999999999999 -4.8 0  3.300000000000001 -4.8 0  3.4 -4.8 0  3.5 -4.8 0  3.6 -4.8 0  3.699999999999999 -4.8 0  3.800000000000001 -4.8 0  3.9 -4.8 0  4 -4.8 0  4.1 -4.8 0  4.199999999999999 -4.8 0  4.300000000000001 -4.8 0  4.4 -4.8 0  4.5 -4.8 0  4.6 -4.8 0  4.699999999999999 -4.8 0  4.800000000000001 -4.8 0  4.9 -4.8 0  5 -4.8 0  -5 -4.7 0  -4.9 -4.7 0  -4.8 -4.7 0  -4.7 -4.7 0  -4.6 -4.7 0  -4.5 -4.7 0  -4.4 -4.7 0  -4.3 -4.7 0  -4.2 -4.7 0  -4.1 -4.7 0  -4 -4.7 0  -3.9 -4.7 0  -3.8 -4.7 0  -3.7 -4.7 0  -3.6 -4.7 0  -3.5 -4.7 0  -3.4 -4.7 0  -3.3 -4.7 0  -3.2 -4.7 0  -3.1 -4.7 0  -3 -4.7 0  -2.9 -4.7 0  -2.8 -4.7 0  -2.7 -4.7 0  -2.6 -4.7 0  -2.5 -4.7 0  -2.4 -4.7 0  -2.3 -4.7 0  -2.2 -4.7 0  -2.1 -4.7 0  -2 -4.7 0  -1.9 -4.7 0  -1.8 -4.7 0  -1.7 -4.7 0  -1.6 -4.7 0  -1.5 -4.7 0  -1.4 -4.7 0  -1.3 -4.7 0  -1.2 -4.7 0  -1.1 -4.7 0  -1 -4.7 0  -0.9000000000000004 -4.7 0  -0.7999999999999998 -4.7 0  -0.7000000000000002 -4.7 0  -0.5999999999999996 -4.7 0  -0.5 -4.7 0  -0.4000000000000004 -4.7 0  -0.2999999999999998 -4.7 0  -0.2000000000000002 -4.7 0  -0.09999999999999964 -4.7 0  0 -4.7 0  0.09999999999999964 -4.7 0  0.2000000000000002 -4.7 0  0.2999999999999998 -4.7 0  0.4000000000000004 -4.7 0  0.5 -4.7 0  0.5999999999999996 -4.7 0  0.7000000000000002 -4.7 0  0.7999999999999998 -4.7 0  0.9000000000000004 -4.7 0  1 -4.7 0  1.1 -4.7 0  1.2 -4.7 0  1.3 -4.7 0  1.4 -4.7 0  1.5 -4.7 0  1.6 -4.7 0  1.7 -4.7 0  1.8 -4.7 0  1.9 -4.7 0  2 -4.7 0  2.1 -4.7 0  2.2 -4.7 0  2.3 -4.7 0  2.4 -4.7 0  2.5 -4.7 0  2.6 -4.7 0  2.7 -4.7 0  2.8 -4.7 0  2.9 -4.7 0  3 -4.7 0  3.1 -4.7 0  3.199999999999999 -4.7 0  3.300000000000001 -4.7 0  3.4 -4.7 0  3.5 -4.7 0  3.6 -4.7 0  3.699999999999999 -4.7 0  3.800000000000001 -4.7 0  3.9 -4.7 0  4 -4.7 0  4.1 -4.7 0  4.199999999999999 -4.7 0  4.300000000000001 -4.7 0  4.4 -4.7 0  4.5 -4.7 0  4.6 -4.7 0  4.699999999999999 -4.7 0  4.800000000000001 -4.7 0  4.9 -4.7 0  5 -4.7 0  -5 -4.6 0  -4.9 -4.6 0  -4.8 -4.6 0  -4.7 -4.6 0  -4.6 -4.6 0  -4.5 -4.6 0  -4.4 -4.6 0  -4.3 -4.6 0  -4.2 -4.6 0  -4.1 -4.6 0  -4 -4.6 0  -3.9 -4.6 0  -3.8 -4.6 0  -3.7 -4.6 0  -3.6 -4.6 0  -3.5 -4.6 0  -3.4 -4.6 0  -3.3 -4.6 0  -3.2 -4.6 0  -3.1 -4.6 0  -3 -4.6 0  -2.9 -4.6 0  -2.8 -4.6 0  -2.7 -4.6 0  -2.6 -4.6 0  -2.5 -4.6 0  -2.4 -4.6 0  -2.3 -4.6 0  -2.2 -4.6 0  -2.1 -4.6 0  -2 -4.6 0  -1.9 -4.6 0  -1.8 -4.6 0  -1.7 -4.6 0  -1.6 -4.6 0  -1.5 -4.6 0  -1.4 -4.6 0  -1.3 -4.6 0  -1.2 -4.6 0  -1.1 -4.6 0  -1 -4.6 0  -0.9000000000000004 -4.6 0  -0.7999999999999998 -4.6 0  -0.7000000000000002 -4.6 0  -0.5999999999999996 -4.6 0  -0.5 -4.6 0  -0.4000000000000004 -4.6 0  -0.2999999999999998 -4.6 0  -0.2000000000000002 -4.6 0  -0.09999999999999964 -4.6 0  0 -4.6 0  0.09999999999999964 -4.6 0  0.2000000000000002 -4.6 0  0.2999999999999998 -4.6 0  0.4000000000000004 -4.6 0  0.5 -4.6 0  0.5999999999999996 -4.6 0  0.7000000000000002 -4.6 0  0.7999999999999998 -4.6 0  0.9000000000000004 -4.6 0  1 -4.6 0  1.1 -4.6 0  1.2 -4.6 0  1.3 -4.6 0  1.4 -4.6 0  1.5 -4.6 0  1.6 -4.6 0  1.7 -4.6 0  1.8 -4.6 0  1.9 -4.6 0  2 -4.6 0  2.1 -4.6 0  2.2 -4.6 0  2.3 -4.6 0  2.4 -4.6 0  2.5 -4.6 0  2.6 -4.6 0  2.7 -4.6 0  2.8 -4.6 0  2.9 -4.6 0  3 -4.6 0  3.1 -4.6 0  3.199999999999999 -4.6 0  3.300000000000001 -4.6 0  3.4 -4.6 0  3.5 -4.6 0  3.6 -4.6 0  3.699999999999999 -4.6 0  3.800000000000001 -4.6 0  3.9 -4.6 0  4 -4.6 0  4.1 -4.6 0  4.199999999999999 -4.6 0  4.300000000000001 -4.6 0  4.4 -4.6 0  4.5 -4.6 0  4.6 -4.6 0  4.699999999999999 -4.6 0  4.800000000000001 -4.6 0  4.9 -4.6 0  5 -4.6 0  -5 -4.5 0  -4.9 -4.5 0  -4.8 -4.5 0  -4.7 -4.5 0  -4.6 -4.5 0  -4.5 -4.5 0  -4.4 -4.5 0  -4.3 -4.5 0  -4.2 -4.5 0  -4.1 -4.5 0  -4 -4.5 0  -3.9 -4.5 0  -3.8 -4.5 0  -3.7 -4.5 0  -3.6 -4.5 0  -3.5 -4.5 0  -3.4 -4.5 0  -3.3 -4.5 0  -3.2 -4.5 0  -3.1 -4.5 0  -3 -4.5 0  -2.9 -4.5 0  -2.8 -4.5 0  -2.7 -4.5 0  -2.6 -4.5 0  -2.5 -4.5 0  -2.4 -4.5 0  -2.3 -4.5 0  -2.2 -4.5 0  -2.1 -4.5 0  -2 -4.5 0  -1.9 -4.5 0  -1.8 -4.5 0  -1.7 -4.5 0  -1.6 -4.5 0  -1.5 -4.5 0  -1.4 -4.5 0  -1.3 -4.5 0  -1.2 -4.5 0  -1.1 -4.5 0  -1 -4.5 0  -0.9000000000000004 -4.5 0  -0.7999999999999998 -4.5 0  -0.7000000000000002 -4.5 0  -0.5999999999999996 -4.5 0  -0.5 -4.5 0  -0.4000000000000004 -4.5 0  -0.2999999999999998 -4.5 0  -0.2000000000000002 -4.5 0  -0.09999999999999964 -4.5 0  0 -4.5 0  0.09999999999999964 -4.5 0  0.2000000000000002 -4.5 0  0.2999999999999998 -4.5 0  0.4000000000000004 -4.5 0  0.5 -4.5 0  0.5999999999999996 -4.5 0  0.7000000000000002 -4.5 0  0.7999999999999998 -4.5 0  0.9000000000000004 -4.5 0  1 -4.5 0  1.1 -4.5 0  1.2 -4.5 0  1.3 -4.5 0  1.4 -4.5 0  1.5 -4.5 0  1.6 -4.5 0  1.7 -4.5 0  1.8 -4.5 0  1.9 -4.5 0  2 -4.5 0  2.1 -4.5 0  2.2 -4.5 0  2.3 -4.5 0  2.4 -4.5 0  2.5 -4.5 0  2.6 -4.5 0  2.7 -4.5 0  2.8 -4.5 0  2.9 -4.5 0  3 -4.5 0  3.1 -4.5 0  3.199999999999999 -4.5 0  3.300000000000001 -4.5 0  3.4 -4.5 0  3.5 -4.5 0  3.6 -4.5 0  3.699999999999999 -4.5 0  3.800000000000001 -4.5 0  3.9 -4.5 0  4 -4.5 0  4.1 -4.5 0  4.199999999999999 -4.5 0  4.300000000000001 -4.5 0  4.4 -4.5 0  4.5 -4.5 0  4.6 -4.5 0  4.699999999999999 -4.5 0  4.800000000000001 -4.5 0  4.9 -4.5 0  5 -4.5 0  -5 -4.4 0  -4.9 -4.4 0  -4.8 -4.4 0  -4.7 -4.4 0  -4.6 -4.4 0  -4.5 -4.4 0  -4.4 -4.4 0  -4.3 -4.4 0  -4.2 -4.4 0  -4.1 -4.4 0  -4 -4.4 0  -3.9 -4.4 0  -3.8 -4.4 0  -3.7 -4.4 0  -3.6 -4.4 0  -3.5 -4.4 0  -3.4 -4.4 0  -3.3 -4.4 0  -3.2 -4.4 0  -3.1 -4.4 0  -3 -4.4 0  -2.9 -4.4 0  -2.8 -4.4 0  -2.7 -4.4 0  -2.6 -4.4 0  -2.5 -4.4 0  -2.4 -4.4 0  -2.3 -4.4 0  -2.2 -4.4 0  -2.1 -4.4 0  -2 -4.4 0  -1.9 -4.4 0  -1.8 -4.
[...]
<PointData  Vectors="f_17"> 
<DataArray  type="Float64"  Name="f_17"  NumberOfComponents="3" format="ascii">1.5000000000000022e-01 0.0000000000000000e+00 0.0000000000000000e+00  1.5000000000000008e-01 -7.9003024653202941e-17 0.0000000000000000e+00  1.5000000000000002e-01 7.1238580453613087e-17 0.0000000000000000e+00  1.5000000000000019e-01 -9.0400017582180974e-17 0.0000000000000000e+00  1.5000000000000005e-01 3.8569893816918161e-16 0.0000000000000000e+00  1.4999999999999999e-01 2.2919373764543528e-16 0.0000000000000000e+00  1.5000000000000016e-01 -4.3876436367141886e-16 0.0000000000000000e+00  1.4999999999999986e-01 3.0019428942073507e-16 0.0000000000000000e+00  1.5000000000000008e-01 3.4699170326253468e-16 0.0000000000000000e+00  1.5000000000000013e-01 3.9242739689243741e-19 0.0000000000000000e+00  1.5000000000000002e-01 -2.2296882627532240e-16 0.0000000000000000e+00  1.4999999999999999e-01 3.5412393543259772e-16 0.0000000000000000e+00  1.4999999999999988e-01 -1.8544423868997785e-16 0.0000000000000000e+00  1.5000000000000005e-01 -1.4483269363699909e-16 0.0000000000000000e+00  1.4999999999999988e-01 4.8270264889434464e-16 0.0000000000000000e+00  1.4999999999999938e-01 3.9001393633719102e-18 0.0000000000000000e+00  1.4999999999999927e-01 6.6646739965435484e-17 0.0000000000000000e+00  1.4999999999999991e-01 -3.6983066536243486e-15 0.0000000000000000e+00  1.5000000000000524e-01 -1.2431543889652990e-14 0.0000000000000000e+00  1.5000000000001912e-01 -9.1301659616772947e-15 0.0000000000000000e+00  1.5000000000001895e-01 5.0336609928819353e-14 0.0000000000000000e+00  1.4999999999992139e-01 1.8616708108964612e-13 0.0000000000000000e+00  1.4999999999962657e-01 3.3388284707045612e-13 0.0000000000000000e+00  1.4999999999917613e-01 3.4230379771838090e-13 0.0000000000000000e+00  1.4999999999885519e-01 1.1881883568202769e-13 0.0000000000000000e+00  1.4999999999898955e-01 -2.3445758723772126e-13 0.0000000000000000e+00  1.4999999999956268e-01 -4.6242792910528011e-13 0.0000000000000000e+00  1.5000000000014133e-01 -3.9686366347286677e-13 0.0000000000000000e+00  1.5000000000031879e-01 -1.2510987625783355e-13 0.0000000000000000e+00  1.5000000000013905e-01 1.0059866244750625e-13 0.0000000000000000e+00  1.4999999999995287e-01 1.2635595514092199e-13 0.0000000000000000e+00  1.4999999999994423e-01 2.8460315864937685e-14 0.0000000000000000e+00  1.5000000000000693e-01 -3.6850349838750364e-14 0.0000000000000000e+00  1.5000000000001418e-01 -1.8707186788070806e-14 0.0000000000000000e+00  1.4999999999999100e-01 1.0822696502145677e-14 0.0000000000000000e+00  1.4999999999999480e-01 6.4751497539117604e-15 0.0000000000000000e+00  1.5000000000000860e-01 -6.6154079368134330e-15 0.0000000000000000e+00  1.5000000000000308e-01 -1.8412727506629381e-15 0.0000000000000000e+00  1.4999999999999447e-01 4.7775405192061604e-15 0.0000000000000000e+00  1.4999999999999841e-01 1.0178473296959804e-15 0.0000000000000000e+00  1.5000000000000316e-01 -3.3276661726879230e-15 0.0000000000000000e+00  1.5000000000000066e-01 -3.9664398584059450e-16 0.0000000000000000e+00  1.4999999999999836e-01 1.5543823849115127e-15 0.0000000000000000e+00  1.5000000000000008e-01 2.1054899045644897e-16 0.0000000000000000e+00  1.5000000000000085e-01 -1.0806681607797014e-15 0.0000000000000000e+00  1.4999999999999983e-01 2.5518211506334790e-16 0.0000000000000000e+00  1.4999999999999980e-01 1.9087819684255093e-16 0.0000000000000000e+00  1.5000000000000019e-01 -6.2347721885129766e-16 0.0000000000000000e+00  1.5000000000000016e-01 5.6517684036915480e-17 0.0000000000000000e+00  1.4999999999999999e-01 6.4978215667550540e-17 0.0000000000000000e+00  1.5000000000000011e-01 2.0722795754736150e-16 0.0000000000000000e+00  1.5000000000000011e-01 2.0645147580105483e-16 0.0000000000000000e+00  1.4999999999999986e-01 1.1306607142578745e-16 0.0000000000000000e+00  1.5000000000000016e-01 -1.6634104291802150e-16 0.0000000000000000e+00  1.5000000000000033e-01 3.7446949155657346e-17 0.0000000000000000e+00  1.4999999999999986e-01 -4.0559236462811807e-16 0.0000000000000000e+00  1.5000000000000008e-01 -4.3599798704473470e-17 0.0000000000000000e+00  1.5000000000000011e-01 2.5396546043716324e-16 0.0000000000000000e+00  1.5000000000000036e-01 3.4916030313940749e-16 0.0000000000000000e+00  1.5000000000000002e-01 1.9732170573465538e-17 0.0000000000000000e+00  1.5000000000000002e-01 -5.6499264188535681e-17 0.0000000000000000e+00  1.5000000000000002e-01 -3.8028788680793773e-18 0.0000000000000000e+00  1.5000000000000005e-01 7.2996673314302999e-17 0.0000000000000000e+00  1.5000000000000002e-01 -1.3466079251365440e-16 0.0000000000000000e+00  1.5000000000000008e-01 -9.3387192484987841e-17 0.0000000000000000e+00  1.5000000000000008e-01 -6.0970084674328919e-16 0.0000000000000000e+00  1.5000000000000008e-01 -9.9383367264314502e-17 0.0000000000000000e+00  1.5000000000000016e-01 -2.5853313637126075e-16 0.0000000000000000e+00  1.5000000000000016e-01 5.5631806430144127e-16 0.0000000000000000e+00  1.4999999999999997e-01 4.1371154826814108e-17 0.0000000000000000e+00  1.5000000000000024e-01 1.7478305140033236e-16 0.0000000000000000e+00  1.5000000000000005e-01 4.9511905414938751e-17 0.0000000000000000e+00  1.5000000000000005e-01 5.2065385079920138e-16 0.0000000000000000e+00  1.4999999999999988e-01 -8.5944823606634783e-18 0.0000000000000000e+00  1.5000000000000002e-01 -2.5012353973842858e-16 0.0000000000000000e+00  1.5000000000000011e-01 4.4162775193665372e-16 0.0000000000000000e+00  1.5000000000000013e-01 -2.9235942638201946e-16 0.0000000000000000e+00  1.4999999999999991e-01 3.0147791110262880e-16 0.0000000000000000e+00  1.5000000000000005e-01 -2.4595000257934987e-16 0.0000000000000000e+00  1.5000000000000011e-01 -1.0186664478512036e-16 0.0000000000000000e+00  1.5000000000000016e-01 -3.8714100327240500e-16 0.0000000000000000e+00  1.4999999999999997e-01 1.3400589375002020e-16 0.0000000000000000e+00  1.4999999999999999e-01 -2.5485375229919349e-16 0.0000000000000000e+00  1.5000000000000022e-01 -1.3904936101900758e-16 0.0000000000000000e+00  1.4999999999999999e-01 7.5983570043060951e-16 0.0000000000000000e+00  1.4999999999999983e-01 3.6508099226179125e-16 0.0000000000000000e+00  1.4999999999999999e-01 -1.7280363971135190e-17 0.0000000000000000e+00  1.4999999999999994e-01 1.5426397019023991e-17 0.0000000000000000e+00  1.5000000000000005e-01 -3.0207127051230892e-16 0.0000000000000000e+00  1.4999999999999994e-01 -7.5713854312977042e-17 0.0000000000000000e+00  1.4999999999999999e-01 -6.0900843995543083e-16 0.0000000000000000e+00  1.5000000000000002e-01 7.3913461728818202e-17 0.0000000000000000e+00  1.5000000000000002e-01 -4.8851874657298236e-16 0.0000000000000000e+00  1.5000000000000027e-01 6.0625637882406692e-16 0.0000000000000000e+00  1.5000000000000002e-01 3.5418054089984024e-16 0.0000000000000000e+00  1.5000000000000002e-01 5.2605854117419474e-18 0.0000000000000000e+00  1.5000000000000008e-01 -4.8947215294768157e-16 0.0000000000000000e+00  1.4999999999999997e-01 -8.4427328263868804e-17 0.0000000000000000e+00  1.4999999999999999e-01 2.8314558251013840e-17 0.0000000000000000e+00  1.5000000000000008e-01 4.7937232524450394e-17 0.0000000000000000e+00  1.4999999999999991e-01 0.0000000000000000e+00 0.0000000000000000e+00  1.4999999999999999e-01 0.0000000000000000e+00 -7.8472224831921464e-16  1.4999999999999999e-01 4.5793966967388167e-17 2.1827751582576004e-16  1.5000000000000005e-01 -1.1743042037902323e-16 -9.4327318355853733e-17  1.5000000000000005e-01 -5.8672628095728877e-16 1.8761918957149741e-16  1.5000000000000005e-01 1.6339348759405154e-16 -2.1738423017449347e-16  1.5000000000000008e-01 -2.5549420892792784e-16 -1.1741083317036499e-16  1.5000000000000005e-01 6.6867647410163326e-16 -5.2665591677789872e-16  1.5000000000000008e-01 -4.0750025059114393e-16 1.1551277164470877e-16  1.5000000000000011e-01 4.6027605423216153e-16 8.4424478802732831e-17  1.4999999999999999e-01 -5.2307049749412147e-17 -6.1780964522026960e-17  1.5000000000000002e-01 -4.8758679492149135e-18 -2.6587215552834156e-19  1.5000000000000002e-01 3.1810918297756580e-16 1.8433934010533997e-16  1.5000000000000005e-01 1.3285289135563696e-16 -6.7668450621655568e-17  1.4999999999999999e-01 -3.8114568991469419e-17 4.2077458059016743e-18  1.4999999999999999e-01 6.4026320703063579e-17 2.0029924531147412e-16  1.5000000000000058e-01 -6.3305732655817913e-16 9.7981133102368349e-16  1.5000000000000119e-01 -9.1061402350488562e-16 2.5466210149022000e-15  1.5000000000000102e-01 1.7234306804272257e-15 2.8975246706700069e-15  1.4999999999999789e-01 1.0206845919422511e-14 -5.9454891669743489e-15  1.4999999999998431e-01 1.9716927110409182e-14 -4.1641261640972299e-14  1.4999999999996935e-01 -1.8527280027659879e-14 -7.5665694549142964e-14  1.5000000000002572e-01 -1.5978716494554610e-13 8.0150534018206742e-14  1.5000000000029148e-01 -3.7360315694637546e-13 7.6215288751906089e-13  1.5000000000081978e-01 -4.8763124423164593e-13 2.0617583126857434e-12  1.5000000000136832e-01 -3.1045506873380334e-13 3.3368906165316414e-12  1.5000000000147215e-01 1.2928742134889165e-13 3.4559253024341606e-12  1.5000000000091410e-01 5.3555658304669328e-13 1.9833285168333877e-12  1.5000000000007405e-01 5.9947133836364818e-13 -4.8896083228270449e-14  1.4999999999959601e-01 3.1060343732881125e-13 -1.0784394187748226e-12  1.4999999999969166e-01 -4.1306003014848498e-14 -7.1648371984272590e-13  1.4999999999998917e-01 -1.7777550354601658e-13 3.2755299672778172e-14  1.5000000000009381e-01 -9.1307280438723442e-14 2.4058515609943492e-13  1.5000000000001942e-01 2.4645654432653579e-14 3.0679122682475138e-14  1.4999999999997474e-01 4.0183251030647133e-14 -6.4922482522623326e-14  1.5000000000000302e-01 -1.8900816538396766e-15 1.5253728607618224e-14  1.5000000000001418e-01 -1.4146180487347753e-14 3.4088326890195492e-14  1.4999999999999278e-01 3.3489860756735432e-15 -2.2582507143978569e-14  1.4999999999999000e-01 7.1846456178761077e-15 -2.4152746102251628e-14  1.5000000000000530e-01 -3.5714204323385488e-15 1.5857682761832116e-14  1.5000000000000624e-01 -4.5376700688737348e-15 1.4684185036197212e-14  1.4999999999999691e-01 2.8580433042220774e-15 -9.7728093830823727e-15  1.4999999999999686e-01 2.4683580312176400e-15 -7.3050906503823100e-15  1.5000000000000202e-01 -2.2696496114862832e-15 5.4697073104688744e-15  1.5000000000000144e-01 -1.0952084884079527e-15 2.9890280862706430e-15  1.4999999999999891e-01 8.5408148322374526e-16 -3.6497772814244521e-15  1.4999999999999969e-01 4.2912274332667319e-16 -7.1901691377525376e-16  1.5000000000000069e-01 -5.1811984891701078e-16 1.4828848525590536e-15  1.4999999999999997e-01 5.4145627535718834e-17 -2.6681672491633919e-16  1.4999999999999983e-01 4.0600473418000702e-16 -2.3269299479402200e-16  1.5000000000000013e-01 -5.5136010976019213e-17 -1.1127513184741824e-16  1.5000000000000016e-01 -1.5399838996538282e-16 1.0458698771567563e-16  1.5000000000000002e-01 6.7450786101913175e-16 -9.8852436221875616e-17  1.5000000000000008e-01 -1.4161954202320367e-16 -1.5994857927874605e-16  1.5000000000000005e-01 2.9415295694332062e-17 1.4584750985931282e-16  1.5000000000000013e-01 1.4342426371484823e-16 5.9789339783337431e-17  1.5000000000000008e-01 1.5572244228018270e-16 -2.5746089396432634e-16  1.4999999999999997e-01 1.6718239326862492e-16 3.4382104012769212e-16  1.5000000000000002e-01 -4.8824380075709567e-16 1.8854527883434460e-16  1.5000000000000005e-01 1.8812328570659988e-16 -2.9531245031390251e-16  1.5000000000000008e-01 -9.5805377456464817e-17 5.2137098033100213e-17  1.5000000000000002e-01 -1.5086012286276134e-16 -1.5603352663288956e-16  1.5000000000000005e-01 -2.4627171764429868e-16 -2.4016056288726157e-16  1.5000000000000005e-01 6.8103367735671946e-17 -2.1255573910820966e-16  1.5000000000000008e-01 -3.2268182467615447e-16 1.1505721401532279e-16  1.5000000000000008e-01 -1.7643857042481582e-16 -7.0425806104196314e-17  1.5000000000000008e-01 -1.5799897111513406e-16 3.1253807843286835e-16  1.5000000000000011e-01 -1.1804934545856796e-16 2.6085249280467429e-16  1.4999999999999999e-01 1.7545210849906664e-16 2.2381276247757350e-16  1.5000000000000008e-01 3.9278969387610210e-16 4.8944152068175997e-16  1.5000000000000002e-01 1.0807110236616687e-16 -1.1129360619802251e-17  1.4999999999999991e-01 1.1868603828072988e-16 -2.2904208274985807e-16  1.5000000000000008e-01 9.9375640015196427e-17 2.1620697229737731e-17  1.5000000000000005e-01 9.3585065999843427e-17 9.1896514005107138e-17  1.4999999999999999e-01 2.7513268707737266e-16 -2.9381459493505160e-16  1.5000000000000005e-01 -2.9194760112720954e-16 -7.2971596469484143e-17  1.5000000000000002e-01 -5.5328390854003379e-17 -4.4670185948520748e-17  1.5000000000000008e-01 -4.7559393488280306e-16 -1.1691366217761751e-16  1.5000000000000016e-01 -4.7376957903337854e-16 -4.9321514830466104e-17  1.5000000000000005e-01 -4.4694627684628142e-18 -4.8465210535731299e-17  1.5000000000000013e-01 4.5475421089305550e-16 -2.2950447904258547e-16  1.5000000000000005e-01 2.3237994559365013e-16 -3.6273111838019405e-17  1.5000000000000016e-01 2.6432855776602595e-16 6.4123554306285576e-17  1.5000000000000013e-01 -1.8028758386929873e-16 -2.5623296470807482e-17  1.5000000000000008e-01 8.3235203534550486e-17 -6.0783240435006198e-17  1.5000000000000005e-01 -9.0475977039244528e-17 1.5805668019090378e-16  1.5000000000000008e-01 -5.7472658169706143e-17 -3.6622273156728534e-16  1.5000000000000005e-01 3.0825701310490392e-16 -2.9328110316127005e-17  1.5000000000000005e-01 -7.7297955098430555e-17 -4.7502244839495357e-17  1.5000000000000008e-01 1.9526279051834559e-17 1.5495841462873299e-16  1.4999999999999999e-01 1.5046994430038072e-17 2.8926860629910562e-16  1.5000000000000005e-01 -4.1239271542246508e-16 2.2127564020936971e-16  1.4999999999999999e-01 3.2490725984761612e-16 1.1838602113618461e-17  1.5000000000000033e-01 2.6828957272160710e-16 5.1494486896258315e-17  1.5000000000000016e-01 9.1314480429280854e-17 6.6318653536594002e-16  1.5000000000000005e-01 -2.1579303747103660e-16 9.4545177823513665e-17  1.5000000000000005e-01 -2.8655340233760774e-18 -3.0543128042099190e-17  1.4999999999999991e-01 2.1393131574661754e-16 -1.4962275751626037e-16  1.5000000000000002e-01 -2.5032431312409153e-16 2.8049370260516534e-16  1.5000000000000016e-01 2.3092813429515661e-16 8.6569903007872878e-17  1.5000000000000005e-01 -5.6117933153185260e-18 -4.9178765067665153e-16  1.4999999999999999e-01 0.0000000000000000e+00 1.6577713851821287e-16  1.5000000000000011e-01 0.0000000000000000e+00 1.4249459399782668e-16  1.5000000000000013e-01 1.8153388863998129e-17 -1.4693619387268759e-16  1.4999999999999999e-01 4.5004520402364610e-17 -3.3596017157569297e-16  1.5000000000000005e-01 -1.4977411528324151e-16 1.6428202090525051e-16  1.5000000000000022e-01 3.4968523204971003e-18 -1.5192808863076240e-16  1.5000000000000008e-01 1.7619136848552608e-16 -2.4321202252323323e-16  1.4999999999999991e-01 2.6854606339926787e-16 -3.5282365565162392e-16  1.5000000000000005e-01 -2.5573808030397788e-16 5.9787745415622775e-17  1.5000000000000011e-01 7.4585786053679800e-16 -6.5708247367711425e-16  1.5000000000000002e-01 -2.2428430049404705e-16 -4.3982051604390646e-16  1.5000000000000002e-01 2.6860138364243375e-16 -3.5859354692759817e-16  1.5000000000000005e-01 9.8002058312515259e-17 -2.2713815084718126e-16  1.4999999999999994e-01 -7.1936932244672905e-17 -3.8160782337270316e-16  1.4999999999999991e-01 -1.3672648595991082e-16 -1.1055365688433205e-16  1.5000000000000008e-01 2.5402442747107969e-16 -1.2272648717236377e-16  1.4999999999999961e-01 1.3076723098386267e-16 -1.4766031373291864e-15  1.4999999999999844e-01 8.0618389928257036e-16 -4.8511471096109990e-15  1.4999999999999775e-01 7.0345093654512265e-17 -9.1077292089235838e-15  1.4999999999999947e-01 -9.1016577059372954e-15 -4.6668110579554078e-15  1.5000000000001315e-01 -3.1437653415412111e-14 4.4345272804752982e-14  1.5000000000004429e-01 -1.8137846288133779e-14 1.5875414475641844e-13  1.5000000000002794e-01 1.4628242691091779e-13 1.1121460086338594e-13  1.4999999999975397e-01 5.0927068741490481e-13 -8.2599963519622970e-13  1.4999999999899477e-01 8.6754105295806174e-13 -3.4176976936108405e-12  1.4999999999790853e-01 8.1645295258708472e-13 -7.0897543156105778e-12  1.4999999999724103e-01 1.6481194676866243e-13 -9.2843817677275826e-12  1.4999999999774155e-01 -7.2472855502608819e-13 -7.4876783627347369e-12  1.4999999999921904e-01 -1.1796693408045841e-12 -2.4309161676731901e-12  1.5000000000052546e-01 -8.7902857006002430e-13 1.9420601828256630e-12  1.5000000000076819e-01 -1.7546314502941022e-13 2.6510113693865601e-12  1.5000000000024413e-01 2.9746637710107397e-13 7.9904343289820681e-13  1.4999999999984565e-01 2.7737632640116896e-13 -5.5275663850185844e-13  1.4999999999989427e-01 2.8828199394228944e-14 -3.6294834427050536e-13  1.5000000000003705e-01 -8.8265777129362860e-14 1.2764066032722688e-13  1.5000000000001895e-01 -2.8488223848831359e-14 6.0684796487101245e-14  1.4999999999996733e-01 2.8560348431959659e-14 -1.1097666991749213e-13  1.4999999999999800e-01 6.8896905328854229e-15 -2.7228310352335166e-15  1.5000000000002731e-01 -1.7576553061288028e-14 9.3157536530265541e-14  1.5000000000000088e-01 8.2117015176100697e-17 3.7531508127401486e-17  1.4999999999998259e-01 1.2606299924741735e-14 -5.9879250037675772e-14  1.5000000000000002e-01 -9.8422949399945351e-16 1.4507748432318062e-15  1.5000000000000968e-01 -8.4822096828566770e-15 3.2931163311077400e-14  1.4999999999999933e-01 1.1236931681544417e-15 -3.3307636466872250e-15  1.4999999999999533e-01 4.5129288438436166e-15 -1.6182211214524683e-14  1.5000000000000124e-01 -1.3843583462826886e-15 4.3182120712506964e-15  1.5000000000000213e-01 -1.8430899296248396e-15 7.3036265558412576e-15  1.4999999999999919e-01 9.6937304726136805e-16 -3.3294026819336704e-15  1.4999999999999933e-01 8.3630417385208623e-16 -1.8062017316983936e-15  1.5000000000000069e-01 -9.3260577157828698e-16 2.2744990463902360e-15  1.5000000000000011e-01 -5.8721223518831177e-16 3.7279015359039964e-16  1.4999999999999974e-01 8.0423197192545011e-16 -4.1186287031975188e-16  1.5000000000000011e-01 1.0675917802170664e-16 1.1196948896489830e-16  1.5000000000000013e-01 -1.7162718809272194e-16 3.7100652666552740e-17  1.4999999999999997e-01 3.6556178657495980e-16 -1.9551384958053775e-16  1.5000000000000005e-01 -3.2077271446855115e-16 -3.7233366743252632e-16  1.5000000000000002e-01 -1.2220898695331010e-17 -1.1792846236891040e-16  1.5000000000000002e-01 -3.8085158080947070e-17 -1.6218124201525644e-16  1.5000000000000011e-01 -5.0167275817700213e-16 -3.9348066535138198e-16  1.5000000000000016e-01 5.3518043382652579e-16 -7.5749343912559956e-17  1.5000000000000002e-01 -4.3785476163975809e-17 -9.0744626420193451e-17  1.4999999999999994e-01 -1.7306206848824532e-17 -5.9109422919935690e-16  1.5000000000000016e-01 4.7919440414351341e-17 2.7127711427657606e-16  1.5000000000000005e-01 -8.3984564008527129e-18 3.1793374788889964e-16  1.5000000000000005e-01 2.4889295057653081e-16 -1.8942972045732821e-16  1.5000000000000002e-01 1.2948542812473052e-16 5.2617371722231588e-16  1.5000000000000002e-01 -1.9415835968751749e-16 4.6153782758089019e-16  1.5000000000000005e-01 -1.9452645790285383e-16 2.8399580049390586e-16  1.5000000000000005e-01 -1.8711054989875631e-17 7.3766114862288574e-16  1.5000000000000002e-01 4.8007618302892960e-17 1.8081646148386215e-16  1.5000000000000005e-01 -1.5367152190099470e-16 7.6048467850283790e-17  1.5000000000000013e-01 -1.2092764446256524e-16 4.8602355348957099e-16  1.5000000000000005e-01 3.1825312661406135e-16 2.4673955948937332e-16  1.5000000000000005e-01 1.8105774571502026e-16 5.2594167195866588e-17  1.5000000000000002e-01 -1.2456855778650717e-16 -1.6712461787653068e-16  1.5000000000000005e-01 -9.9527303704979096e-17 -4.3332145298392534e-16  1.5000000000000005e-01 1.4660241374322331e-16 -2.2211194306680338e-16  1.4999999999999983e-01 -1.7603706582447576e-16 -1.9796732230230375e-16  1.4999999999999999e-01 2.6121720543997227e-16 -4.5770324511396712e-17  1.5000000000000008e-01 3.3970542559476645e-16 1.9806425976852164