<?xml version="1.0"?>
<VTKFile type="UnstructuredGrid"  version="0.1"  >
<UnstructuredGrid>
<Piece  NumberOfPoints="10201" NumberOfCells="20000">
<Points>
<DataArray  type="Float64"  NumberOfComponents="3"  format="ascii">-5 -5 0  -4.9 -5 0  -4.8 -5 0  -4.7 -5 0  -4.6 -5 0  -4.5 -5 0  -4.4 -5 0  -4.3 -5 0  -4.2 -5 0  -4.1 -5 0  -4 -5 0  -3.9 -5 0  -3.8 -5 0  -3.7 -5 0  -3.6 -5 0  -3.5 -5 0  -3.4 -5 0  -3.3 -5 0  -3.2 -5 0  -3.1 -5 0  -3 -5 0  -2.9 -5 0  -2.8 -5 0  -2.7 -5 0  -2.6 -5 0  -2.5 -5 0  -2.4 -5 0  -2.3 -5 0  -2.2 -5 0  -2.1 -5 0  -2 -5 0  -1.9 -5 0  -1.8 -5 0  -1.7 -5 0  -1.6 -5 0  -1.5 -5 0  -1.4 -5 0  -1.3 -5 0  -1.2 -5 0  -1.1 -5 0  -1 -5 0  -0.9000000000000004 -5 0  -0.7999999999999998 -5 0  -0.7000000000000002 -5 0  -0.5999999999999996 -5 0  -0.5 -5 0  -0.4000000000000004 -5 0  -0.2999999999999998 -5 0  -0.2000000000000002 -5 0  -0.09999999999999964 -5 0  0 -5 0  0.09999999999999964 -5 0  0.2000000000000002 -5 0  0.2999999999999998 -5 0  0.4000000000000004 -5 0  0.5 -5 0  0.5999999999999996 -5 0  0.7000000000000002 -5 0  0.7999999999999998 -5 0  0.9000000000000004 -5 0  1 -5 0  1.1 -5 0  1.2 -5 0  1.3 -5 0  1.4 -5 0  1.5 -5 0  1.6 -5 0  1.7 -5 0  1.8 -5 0  1.9 -5 0  2 -5 0  2.1 -5 0  2.2 -5 0  2.3 -5 0  2.4 -5 0  2.5 -5 0  2.6 -5 0  2.7 -5 0  2.8 -5 0  2.9 -5 0  3 -5 0  3.1 -5 0  3.199999999999999 -5 0  3.300000000000001 -5 0  3.4 -5 0  3.5 -5 0  3.6 -5 0  3.699999999999999 -5 0  3.800000000000001 -5 0  3.9 -5 0  4 -5 0  4.1 -5 0  4.199999999999999 -5 0  4.300000000000001 -5 0  4.4 -5 0  4.5 -5 0  4.6 -5 0  4.699999999999999 -5 0  4.800000000000001 -5 0  4.9 -5 0  5 -5 0  -5 -4.9 0  -4.9 -4.9 0  -4.8 -4.9 0  -4.7 -4.9 0  -4.6 -4.9 0  -4.5 -4.9 0  -4.4 -4.9 0  -4.3 -4.9 0  -4.2 -4.9 0  -4.1 -4.9 0  -4 -4.9 0  -3.9 -4.9 0  -3.8 -4.9 0  -3.7 -4.9 0  -3.6 -4.9 0  -3.5 -4.9 0  -3.4 -4.9 0  -3.3 -4.9 0  -3.2 -4.9 0  -3.1 -4.9 0  -3 -4.9 0  -2.9 -4.9 0  -2.8 -4.9 0  -2.7 -4.9 0  -2.6 -4.9 0  -2.5 -4.9 0  -2.4 -4.9 0  -2.3 -4.9 0  -2.2 -4.9 0  -2.1 -4.9 0  -2 -4.9 0  -1.9 -4.9 0  -1.8 -4.9 0  -1.7 -4.9 0  -1.6 -4.9 0  -1.5 -4.9 0  -1.4 -4.9 0  -1.3 -4.9 0  -1.2 -4.9 0  -1.1 -4.9 0  -1 -4.9 0  -0.9000000000000004 -4.9 0  -0.7999999999999998 -4.9 0  -0.7000000000000002 -4.9 0  -0.5999999999999996 -4.9 0  -0.5 -4.9 0  -0.4000000000000004 -4.9 0  -0.2999999999999998 -4.9 0  -0.2000000000000002 -4.9 0  -0.09999999999999964 -4.9 0  0 -4.9 0  0.09999999999999964 -4.9 0  0.2000000000000002 -4.9 0  0.2999999999999998 -4.9 0  0.4000000000000004 -4.9 0  0.5 -4.9 0  0.5999999999999996 -4.9 0  0.7000000000000002 -4.9 0  0.7999999999999998 -4.9 0  0.9000000000000004 -4.9 0  1 -4.9 0  1.1 -4.9 0  1.2 -4.9 0  1.3 -4.9 0  1.4 -4.9 0  1.5 -4.9 0  1.6 -4.9 0  1.7 -4.9 0  1.8 -4.9 0  1.9 -4.9 0  2 -4.9 0  2.1 -4.9 0  2.2 -4.9 0  2.3 -4.9 0  2.4 -4.9 0  2.5 -4.9 0  2.6 -4.9 0  2.7 -4.9 0  2.8 -4.9 0  2.9 -4.9 0  3 -4.9 0  3.1 -4.9 0  3.199999999999999 -4.9 0  3.300000000000001 -4.9 0  3.4 -4.9 0  3.5 -4.9 0  3.6 -4.9 0  3.699999999999999 -4.9 0  3.800000000000001 -4.9 0  3.9 -4.9 0  4 -4.9 0  4.1 -4.9 0  4.199999999999999 -4.9 0  4.300000000000001 -4.9 0  4.4 -4.9 0  4.5 -4.9 0  4.6 -4.9 0  4.699999999999999 -4.9 0  4.800000000000001 -4.9 0  4.9 -4.9 0  5 -4.9 0  -5 -4.8 0  -4.9 -4.8 0  -4.8 -4.8 0  -4.7 -4.8 0  -4.6 -4.8 0  -4.5 -4.8 0  -4.4 -4.8 0  -4.3 -4.8 0  -4.2 -4.8 0  -4.1 -4.8 0  -4 -4.8 0  -3.9 -4.8 0  -3.8 -4.8 0  -3.7 -4.8 0  -3.6 -4.8 0  -3.5 -4.8 0  -3.4 -4.8 0  -3.3 -4.8 0  -3.2 -4.8 0  -3.1 -4.8 0  -3 -4.8 0  -2.9 -4.8 0  -2.8 -4.8 0  -2.7 -4.8 0  -2.6 -4.8 0  -2.5 -4.8 0  -2.4 -4.8 0  -2.3 -4.8 0  -2.2 -4.8 0  -2.1 -4.8 0  -2 -4.8 0  -1.9 -4.8 0  -1.8 -4.8 0  -1.7 -4.8 0  -1.6 -4.8 0  -1.5 -4.8 0  -1.4 -4.8 0  -1.3 -4.8 0  -1.2 -4.8 0  -1.1 -4.8 0  -1 -4.8 0  -0.9000000000000004 -4.8 0  -0.7999999999999998 -4.8 0  -0.7000000000000002 -4.8 0  -0.5999999999999996 -4.8 0  -0.5 -4.8 0  -0.4000000000000004 -4.8 0  -0.2999999999999998 -4.8 0  -0.2000000000000002 -4.8 0  -0.09999999999999964 -4.8 0  0 -4.8 0  0.09999999999999964 -4.8 0  0.2000000000000002 -4.8 0  0.2999999999999998 -4.8 0  0.4000000000000004 -4.8 0  0.5 -4.8 0  0.5999999999999996 -4.8 0  0.7000000000000002 -4.8 0  0.7999999999999998 -4.8 0  0.9000000000000004 -4.8 0  1 -4.8 0  1.1 -4.8 0  1.2 -4.8 0  1.3 -4.8 0  1.4 -4.8 0  1.5 -4.8 0  1.6 -4.8 0  1.7 -4.8 0  1.8 -4.8 0  1.9 -4.8 0  2 -4.8 0  2.1 -4.8 0  2.2 -4.8 0  2.3 -4.8 0  2.4 -4.8 0  2.5 -4.8 0  2.6 -4.8 0  2.7 -4.8 0  2.8 -4.8 0  2.9 -4.8 0  3 -4.8 0  3.1 -4.8 0  3.199999999999999 -4.8 0  3.300000000000001 -4.8 0  3.4 -4.8 0  3.5 -4.8 0  3.6 -4.8 0  3.699999999999999 -4.8 0  3.800000000000001 -4.8 0  3.9 -4.8 0  4 -4.8 0  4.1 -4.8 0  4.199999999999999 -4.8 0  4.300000000000001 -4.8 0  4.4 -4.8 0  4.5 -4.8 0  4.6 -4.8 0  4.699999999999999 -4.8 0  4.800000000000001 -4.8 0  4.9 -4.8 0  5 -4.8 0  -5 -4.7 0  -4.9 -4.7 0  -4.8 -4.7 0  -4.7 -4.7 0  -4.6 -4.7 0  -4.5 -4.7 0  -4.4 -4.7 0  -4.3 -4.7 0  -4.2 -4.7 0  -4.1 -4.7 0  -4 -4.7 0  -3.9 -4.7 0  -3.8 -4.7 0  -3.7 -4.7 0  -3.6 -4.7 0  -3.5 -4.7 0  -3.4 -4.7 0  -3.3 -4.7 0  -3.2 -4.7 0  -3.1 -4.7 0  -3 -4.7 0  -2.9 -4.7 0  -2.8 -4.7 0  -2.7 -4.7 0  -2.6 -4.7 0  -2.5 -4.7 0  -2.4 -4.7 0  -2.3 -4.7 0  -2.2 -4.7 0  -2.1 -4.7 0  -2 -4.7 0  -1.9 -4.7 0  -1.8 -4.7 0  -1.7 -4.7 0  -1.6 -4.7 0  -1.5 -4.7 0  -1.4 -4.7 0  -1.3 -4.7 0  -1.2 -4.7 0  -1.1 -4.7 0  -1 -4.7 0  -0.9000000000000004 -4.7 0  -0.7999999999999998 -4.7 0  -0.7000000000000002 -4.7 0  -0.5999999999999996 -4.7 0  -0.5 -4.7 0  -0.4000000000000004 -4.7 0  -0.2999999999999998 -4.7 0  -0.2000000000000002 -4.7 0  -0.09999999999999964 -4.7 0  0 -4.7 0  0.09999999999999964 -4.7 0  0.2000000000000002 -4.7 0  0.2999999999999998 -4.7 0  0.4000000000000004 -4.7 0  0.5 -4.7 0  0.5999999999999996 -4.7 0  0.7000000000000002 -4.7 0  0.7999999999999998 -4.7 0  0.9000000000000004 -4.7 0  1 -4.7 0  1.1 -4.7 0  1.2 -4.7 0  1.3 -4.7 0  1.4 -4.7 0  1.5 -4.7 0  1.6 -4.7 0  1.7 -4.7 0  1.8 -4.7 0  1.9 -4.7 0  2 -4.7 0  2.1 -4.7 0  2.2 -4.7 0  2.3 -4.7 0  2.4 -4.7 0  2.5 -4.7 0  2.6 -4.7 0  2.7 -4.7 0  2.8 -4.7 0  2.9 -4.7 0  3 -4.7 0  3.1 -4.7 0  3.199999999999999 -4.7 0  3.300000000000001 -4.7 0  3.4 -4.7 0  3.5 -4.7 0  3.6 -4.7 0  3.699999999999999 -4.7 0  3.800000000000001 -4.7 0  3.9 -4.7 0  4 -4.7 0  4.1 -4.7 0  4.199999999999999 -4.7 0  4.300000000000001 -4.7 0  4.4 -4.7 0  4.5 -4.7 0  4.6 -4.7 0  4.699999999999999 -4.7 0  4.800000000000001 -4.7 0  4.9 -4.7 0  5 -4.7 0  -5 -4.6 0  -4.9 -4.6 0  -4.8 -4.6 0  -4.7 -4.6 0  -4.6 -4.6 0  -4.5 -4.6 0  -4.4 -4.6 0  -4.3 -4.6 0  -4.2 -4.6 0  -4.1 -4.6 0  -4 -4.6 0  -3.9 -4.6 0  -3.8 -4.6 0  -3.7 -4.6 0  -3.6 -4.6 0  -3.5 -4.6 0  -3.4 -4.6 0  -3.3 -4.6 0  -3.2 -4.6 0  -3.1 -4.6 0  -3 -4.6 0  -2.9 -4.6 0  -2.8 -4.6 0  -2.7 -4.6 0  -2.6 -4.6 0  -2.5 -4.6 0  -2.4 -4.6 0  -2.3 -4.6 0  -2.2 -4.6 0  -2.1 -4.6 0  -2 -4.6 0  -1.9 -4.6 0  -1.8 -4.6 0  -1.7 -4.6 0  -1.6 -4.6 0  -1.5 -4.6 0  -1.4 -4.6 0  -1.3 -4.6 0  -1.2 -4.6 0  -1.1 -4.6 0  -1 -4.6 0  -0.9000000000000004 -4.6 0  -0.7999999999999998 -4.6 0  -0.7000000000000002 -4.6 0  -0.5999999999999996 -4.6 0  -0.5 -4.6 0  -0.4000000000000004 -4.6 0  -0.2999999999999998 -4.6 0  -0.2000000000000002 -4.6 0  -0.09999999999999964 -4.6 0  0 -4.6 0  0.09999999999999964 -4.6 0  0.2000000000000002 -4.6 0  0.2999999999999998 -4.6 0  0.4000000000000004 -4.6 0  0.5 -4.6 0  0.5999999999999996 -4.6 0  0.7000000000000002 -4.6 0  0.7999999999999998 -4.6 0  0.9000000000000004 -4.6 0  1 -4.6 0  1.1 -4.6 0  1.2 -4.6 0  1.3 -4.6 0  1.4 -4.6 0  1.5 -4.6 0  1.6 -4.6 0  1.7 -4.6 0  1.8 -4.6 0  1.9 -4.6 0  2 -4.6 0  2.1 -4.6 0  2.2 -4.6 0  2.3 -4.6 0  2.4 -4.6 0  2.5 -4.6 0  2.6 -4.6 0  2.7 -4.6 0  2.8 -4.6 0  2.9 -4.6 0  3 -4.6 0  3.1 -4.6 0  3.199999999999999 -4.6 0  3.300000000000001 -4.6 0  3.4 -4.6 0  3.5 -4.6 0  3.6 -4.6 0  3.699999999999999 -4.6 0  3.800000000000001 -4.6 0  3.9 -4.6 0  4 -4.6 0  4.1 -4.6 0  4.199999999999999 -4.6 0  4.300000000000001 -4.6 0  4.4 -4.6 0  4.5 -4.6 0  4.6 -4.6 0  4.699999999999999 -4.6 0  4.800000000000001 -4.6 0  4.9 -4.6 0  5 -4.6 0  -5 -4.5 0  -4.9 -4.5 0  -4.8 -4.5 0  -4.7 -4.5 0  -4.6 -4.5 0  -4.5 -4.5 0  -4.4 -4.5 0  -4.3 -4.5 0  -4.2 -4.5 0  -4.1 -4.5 0  -4 -4.5 0  -3.9 -4.5 0  -3.8 -4.5 0  -3.7 -4.5 0  -3.6 -4.5 0  -3.5 -4.5 0  -3.4 -4.5 0  -3.3 -4.5 0  -3.2 -4.5 0  -3.1 -4.5 0  -3 -4.5 0  -2.9 -4.5 0  -2.8 -4.5 0  -2.7 -4.5 0  -2.6 -4.5 0  -2.5 -4.5 0  -2.4 -4.5 0  -2.3 -4.5 0  -2.2 -4.5 0  -2.1 -4.5 0  -2 -4.5 0  -1.9 -4.5 0  -1.8 -4.5 0  -1.7 -4.5 0  -1.6 -4.5 0  -1.5 -4.5 0  -1.4 -4.5 0  -1.3 -4.5 0  -1.2 -4.5 0  -1.1 -4.5 0  -1 -4.5 0  -0.9000000000000004 -4.5 0  -0.7999999999999998 -4.5 0  -0.7000000000000002 -4.5 0  -0.5999999999999996 -4.5 0  -0.5 -4.5 0  -0.4000000000000004 -4.5 0  -0.2999999999999998 -4.5 0  -0.2000000000000002 -4.5 0  -0.09999999999999964 -4.5 0  0 -4.5 0  0.09999999999999964 -4.5 0  0.2000000000000002 -4.5 0  0.2999999999999998 -4.5 0  0.4000000000000004 -4.5 0  0.5 -4.5 0  0.5999999999999996 -4.5 0  0.7000000000000002 -4.5 0  0.7999999999999998 -4.5 0  0.9000000000000004 -4.5 0  1 -4.5 0  1.1 -4.5 0  1.2 -4.5 0  1.3 -4.5 0  1.4 -4.5 0  1.5 -4.5 0  1.6 -4.5 0  1.7 -4.5 0  1.8 -4.5 0  1.9 -4.5 0  2 -4.5 0  2.1 -4.5 0  2.2 -4.5 0  2.3 -4.5 0  2.4 -4.5 0  2.5 -4.5 0  2.6 -4.5 0  2.7 -4.5 0  2.8 -4.5 0  2.9 -4.5 0  3 -4.5 0  3.1 -4.5 0  3.199999999999999 -4.5 0  3.300000000000001 -4.5 0  3.4 -4.5 0  3.5 -4.5 0  3.6 -4.5 0  3.699999999999999 -4.5 0  3.800000000000001 -4.5 0  3.9 -4.5 0  4 -4.5 0  4.1 -4.5 0  4.199999999999999 -4.5 0  4.300000000000001 -4.5 0  4.4 -4.5 0  4.5 -4.5 0  4.6 -4.5 0  4.699999999999999 -4.5 0  4.800000000000001 -4.5 0  4.9 -4.5 0  5 -4.5 0  -5 -4.4 0  -4.9 -4.4 0  -4.8 -4.4 0  -4.7 -4.4 0  -4.6 -4.4 0  -4.5 -4.4 0  -4.4 -4.4 0  -4.3 -4.4 0  -4.2 -4.4 0  -4.1 -4.4 0  -4 -4.4 0  -3.9 -4.4 0  -3.8 -4.4 0  -3.7 -4.4 0  -3.6 -4.4 0  -3.5 -4.4 0  -3.4 -4.4 0  -3.3 -4.4 0  -3.2 -4.4 0  -3.1 -4.4 0  -3 -4.4 0  -2.9 -4.4 0  -2.8 -4.4 0  -2.7 -4.4 0  -2.6 -4.4 0  -2.5 -4.4 0  -2.4 -4.4 0  -2.3 -4.4 0  -2.2 -4.4 0  -2.1 -4.4 0  -2 -4.4 0  -1.9 -4.4 0  -1.8 -4.
[...]
<PointData  Vectors="f_17"> 
<DataArray  type="Float64"  Name="f_17"  NumberOfComponents="3" format="ascii">1.5091545574797741e-01 0.0000000000000000e+00 0.0000000000000000e+00  1.4978782113080305e-01 -9.7712895569983574e-04 0.0000000000000000e+00  1.5081204786842164e-01 3.7870071628352310e-04 0.0000000000000000e+00  1.4990788557970822e-01 -1.0507800132725663e-03 0.0000000000000000e+00  1.5063784546649187e-01 8.6671523851763099e-04 0.0000000000000000e+00  1.4991060725536265e-01 -8.1820355746098838e-04 0.0000000000000000e+00  1.5049861157741420e-01 1.1008728386047971e-03 0.0000000000000000e+00  1.5000940122747522e-01 -7.0453569393603348e-04 0.0000000000000000e+00  1.5055641534786687e-01 8.2325164556074852e-04 0.0000000000000000e+00  1.5023240816166922e-01 -7.8877463984392514e-04 0.0000000000000000e+00  1.5063139894914077e-01 6.0203567372407664e-04 0.0000000000000000e+00  1.5021545018899007e-01 -4.0776859125872203e-04 0.0000000000000000e+00  1.5031670108178741e-01 9.4775657724053544e-04 0.0000000000000000e+00  1.4987786361837419e-01 3.4734670679323652e-04 0.0000000000000000e+00  1.4993518587251614e-01 1.1535466947118162e-03 0.0000000000000000e+00  1.4969544712196545e-01 3.7117591016447033e-04 0.0000000000000000e+00  1.4985756241791851e-01 7.7449228681586045e-04 0.0000000000000000e+00  1.4969207427769826e-01 3.3663653507264588e-04 0.0000000000000000e+00  1.4968448651393917e-01 7.6264016035069873e-04 0.0000000000000000e+00  1.4952651669569827e-01 5.3238453119797157e-04 0.0000000000000000e+00  1.4959279108171161e-01 5.5894676869901140e-04 0.0000000000000000e+00  1.4958131632555441e-01 -2.6814618947438866e-05 0.0000000000000000e+00  1.4971549170137552e-01 -1.6456054300735719e-04 0.0000000000000000e+00  1.4975221302604724e-01 -3.6870479881003773e-04 0.0000000000000000e+00  1.4980407754643682e-01 -4.5627977768474801e-04 0.0000000000000000e+00  1.4986064282855233e-01 -6.5496065159324649e-04 0.0000000000000000e+00  1.4994027928061762e-01 -4.9406040586021712e-04 0.0000000000000000e+00  1.4985088426648593e-01 -2.9984075128785783e-04 0.0000000000000000e+00  1.4980401254266743e-01 -1.7523201745662587e-04 0.0000000000000000e+00  1.4989162610111251e-01 -2.6037432984204491e-04 0.0000000000000000e+00  1.4992747929242764e-01 -3.0338989063443696e-04 0.0000000000000000e+00  1.4985081187526572e-01 -7.7826076959181198e-05 0.0000000000000000e+00  1.4990128115423293e-01 1.4998941479005983e-04 0.0000000000000000e+00  1.5005598100714376e-01 -2.2695358902442519e-04 0.0000000000000000e+00  1.5011066345143498e-01 -5.2445501703766669e-04 0.0000000000000000e+00  1.4998351007688107e-01 1.7074433480038931e-04 0.0000000000000000e+00  1.4981850151007778e-01 6.9511788206939797e-04 0.0000000000000000e+00  1.4991448113301473e-01 -1.5214638828582163e-04 0.0000000000000000e+00  1.5021760692615654e-01 -7.6286493800634516e-04 0.0000000000000000e+00  1.5017481719365272e-01 4.0696433039551298e-05 0.0000000000000000e+00  1.4982258322925343e-01 5.4754468549928620e-04 0.0000000000000000e+00  1.4983836658107796e-01 4.5560581864171785e-05 0.0000000000000000e+00  1.5010160739994080e-01 -1.0092738326273499e-04 0.0000000000000000e+00  1.5005673800726932e-01 -4.7293136025829959e-05 0.0000000000000000e+00  1.4997942650069918e-01 -3.1864972475834725e-04 0.0000000000000000e+00  1.5003537872447548e-01 1.6565454713411132e-04 0.0000000000000000e+00  1.4988416957573145e-01 6.6266188683009248e-04 0.0000000000000000e+00  1.4992211365695743e-01 -4.1592926156922477e-04 0.0000000000000000e+00  1.5027482609468390e-01 -8.1177166219950614e-04 0.0000000000000000e+00  1.5001221370258735e-01 7.7055582890730263e-04 0.0000000000000000e+00  1.4958784406750114e-01 7.2389221553091599e-04 0.0000000000000000e+00  1.5016818768321946e-01 -1.1301046189642395e-03 0.0000000000000000e+00  1.5044010518341572e-01 -3.8467827444699535e-04 0.0000000000000000e+00  1.4958554962351359e-01 1.3338268254757728e-03 0.0000000000000000e+00  1.4967838822093779e-01 -9.3871101045709407e-05 0.0000000000000000e+00  1.5061743236783978e-01 -1.3231964670206871e-03 0.0000000000000000e+00  1.5003192515216354e-01 6.2976648785446519e-04 0.0000000000000000e+00  1.4934735672069943e-01 9.8689227230569585e-04 0.0000000000000000e+00  1.5029296792623562e-01 -9.8320441521033584e-04 0.0000000000000000e+00  1.5048490778226187e-01 -5.2200263057769968e-04 0.0000000000000000e+00  1.4945480956530505e-01 1.1525777298666739e-03 0.0000000000000000e+00  1.4986984567746175e-01 -1.2168080398761344e-04 0.0000000000000000e+00  1.5054072389266193e-01 -8.7982260969622780e-04 0.0000000000000000e+00  1.4981152960426761e-01 4.9721422254421401e-04 0.0000000000000000e+00  1.4964843388861943e-01 5.3246267216656073e-04 0.0000000000000000e+00  1.5038862073421636e-01 -7.6378524371999385e-04 0.0000000000000000e+00  1.5001551655059064e-01 8.1415660526940753e-05 0.0000000000000000e+00  1.4970139287873602e-01 4.8520114639482675e-04 0.0000000000000000e+00  1.5017311564003946e-01 -2.9292893840471334e-04 0.0000000000000000e+00  1.5012591952014842e-01 -2.6264886339436429e-04 0.0000000000000000e+00  1.4975880402174815e-01 4.8290287484478137e-04 0.0000000000000000e+00  1.5010358618311986e-01 -2.1659463109218095e-04 0.0000000000000000e+00  1.5008161814269436e-01 -1.3033953021741000e-04 0.0000000000000000e+00  1.4987967906230834e-01 1.8027589535596534e-04 0.0000000000000000e+00  1.5001521497096817e-01 4.2512195278534136e-05 0.0000000000000000e+00  1.5009665274663034e-01 -2.5315267478491651e-04 0.0000000000000000e+00  1.4988726239109740e-01 2.5983703458411331e-04 0.0000000000000000e+00  1.5004780630103079e-01 -1.1716871518131270e-04 0.0000000000000000e+00  1.5001598240246475e-01 2.9581354502643418e-06 0.0000000000000000e+00  1.4997792984930350e-01 -1.9955906363845150e-05 0.0000000000000000e+00  1.4997960411836769e-01 1.2856858795626451e-04 0.0000000000000000e+00  1.5006550299932617e-01 -2.2460342962281880e-04 0.0000000000000000e+00  1.4991987891227052e-01 2.4705683532320823e-04 0.0000000000000000e+00  1.5006613268749130e-01 -2.1423220739099732e-04 0.0000000000000000e+00  1.4995283483938124e-01 1.8415007498361657e-04 0.0000000000000000e+00  1.5004299098792351e-01 -1.9489525855138443e-04 0.0000000000000000e+00  1.4994413061310230e-01 2.4166576673772776e-04 0.0000000000000000e+00  1.5007459615787377e-01 -2.9267255371965791e-04 0.0000000000000000e+00  1.4991270272877197e-01 3.2154210310168064e-04 0.0000000000000000e+00  1.5008907145604916e-01 -3.2150852107966371e-04 0.0000000000000000e+00  1.4991568379268688e-01 3.0701646825786528e-04 0.0000000000000000e+00  1.5007701193975836e-01 -2.8907144579146132e-04 0.0000000000000000e+00  1.4992495225141728e-01 2.8198746745757095e-04 0.0000000000000000e+00  1.5007087489678553e-01 -2.7032342201264937e-04 0.0000000000000000e+00  1.4992439023692211e-01 2.6687464857873332e-04 0.0000000000000000e+00  1.5006468986869814e-01 -2.3407029130689965e-04 0.0000000000000000e+00  1.4992674059263306e-01 2.1688112073999215e-04 0.0000000000000000e+00  1.5004762725151957e-01 -1.5250236659270026e-04 0.0000000000000000e+00  1.4993000101720672e-01 1.2715879318732611e-04 0.0000000000000000e+00  1.5002839002765223e-01 -5.2244045138808242e-05 0.0000000000000000e+00  1.4992301175470646e-01 0.0000000000000000e+00 0.0000000000000000e+00  1.4978782113080313e-01 0.0000000000000000e+00 -9.7712895570027224e-04  1.4960696368320309e-01 4.5040817476239592e-04 4.5040817476373600e-04  1.4974496955878722e-01 3.1804442099793380e-04 -5.5273012676896097e-04  1.4960882812449058e-01 2.2286715315823796e-04 3.4123606869172925e-04  1.4978266250089611e-01 1.8000266651467864e-04 -2.4979537813857208e-04  1.4969345738675013e-01 -9.4208200554029062e-05 3.5103725588086148e-04  1.4984785542530679e-01 -5.3720967554424717e-05 -1.6744337044263417e-04  1.4970382619864311e-01 -2.2961496754618456e-04 2.0368664537882573e-04  1.4975920121258671e-01 -8.1959489569405190e-06 -3.5377260431045885e-04  1.4956998109616990e-01 -4.1180518727696582e-05 -5.2360886366502481e-06  1.4960784023077003e-01 8.6800666805780807e-05 -4.1413502239890428e-04  1.4954413972124328e-01 -1.4602824952227131e-04 1.1259761026911438e-04  1.4976887642626821e-01 -2.7103205590461356e-04 -9.1627672987273218e-05  1.4985958478942332e-01 -6.4806403767580373e-04 3.9150950013975921e-04  1.5009644635514968e-01 -7.2123009673826974e-04 5.5685574945357036e-05  1.5014127493325372e-01 -7.3331884164722896e-04 3.0348137716927815e-04  1.5023847812581032e-01 -5.5183615233437287e-04 -1.8224769476136333e-05  1.5020139651241968e-01 -5.9727888823302448e-04 2.6702430342590944e-04  1.5033728501347832e-01 -5.6900819241490614e-04 1.7042219245191301e-04  1.5037929132925798e-01 -6.5681808256998382e-04 3.9289071783315377e-04  1.5042997644690054e-01 -5.4215655385450438e-04 1.2345323899664356e-04  1.5037905410821531e-01 -2.6892536188693209e-04 8.9063479006261872e-05  1.5035389712031511e-01 1.1550569010969788e-04 -1.0682085050407355e-04  1.5025034251796690e-01 2.3701176334630440e-04 -4.7058216938188112e-05  1.5022912763358601e-01 3.8346999257224656e-04 -1.0825616868175986e-04  1.5017746186370609e-01 5.5626603703396956e-04 -6.7902820918480154e-05  1.5010047214629410e-01 5.8054480942485451e-04 -1.1071441503827489e-04  1.5009659397419520e-01 3.8857108513283035e-04 2.9712396506355570e-05  1.5019859888739723e-01 2.5044442361161389e-04 1.2670253708127550e-04  1.5016908250648267e-01 2.0037620222738210e-04 1.0959209693928561e-04  1.5008668622184487e-01 2.6255153353807497e-04 5.1269683456886782e-05  1.5011334160394163e-01 2.6053879957711127e-04 1.2671685373349614e-04  1.5012522620845983e-01 2.0159350541959464e-05 6.9431997166415757e-05  1.5001291682217185e-01 -3.6608068947639413e-05 -1.2435318696404560e-04  1.4993160142024634e-01 3.4318512086857532e-04 -1.3517136847211955e-04  1.4995886941492256e-01 2.5447635513281623e-04 1.0178473872462207e-04  1.5007689553887765e-01 -4.4137973278478017e-04 2.1090114401935495e-04  1.5014272980128565e-01 -3.2809485593485692e-04 7.0586363933846942e-06  1.4995029870168128e-01 5.2304859354209083e-04 -2.2821178232804030e-04  1.4976883456296355e-01 3.9086807036390340e-04 -8.4221158215747936e-05  1.4999753546609812e-01 -3.8877801284992566e-04 2.5155713534288926e-04  1.5021292212086404e-01 -2.7730139138098023e-04 2.0464427592821821e-04  1.5000364725677953e-01 1.1088717503613371e-04 -9.1414879763582787e-05  1.4988027959021716e-01 -5.4842346471320566e-06 -1.1263823945309024e-04  1.5002085772092311e-01 1.4625389953707362e-04 -5.5255597439629234e-05  1.4998487514920150e-01 1.9894653686418627e-04 -1.2282243298381587e-04  1.4998890976908136e-01 -4.5188702659620646e-04 -3.8442167172952783e-05  1.5015829961756386e-01 -2.5303850209357540e-04 -9.3504273433608388e-05  1.4993980394333487e-01 7.1782806146517583e-04 -4.2352282770736528e-04  1.4976931882445960e-01 1.1601051390851879e-04 -1.9258033235119244e-04  1.5024369355014056e-01 -8.9413847185226716e-04 2.1597969536749241e-04  1.5024315181819348e-01 1.7833440699360022e-04 -3.3958393978880463e-04  1.4961172632289491e-01 8.9735572554769166e-04 -6.1931754714058445e-04  1.4993680390683431e-01 -5.0188735217972919e-04 2.8419023222478099e-04  1.5052663137710992e-01 -7.3096905124699465e-04 2.0367949701056087e-04  1.4981996640918915e-01 7.9326223631665622e-04 -8.1360450662477577e-04  1.4953008984300850e-01 4.0003427990474279e-04 -1.2410727082385773e-04  1.5042578247039037e-01 -8.8801395202740363e-04 7.5628107754843439e-04  1.5023941103353072e-01 -2.6980687759230479e-05 -3.6650231700541009e-04  1.4942270466489849e-01 8.6302926317137496e-04 -6.0096550447014455e-04  1.5007534374631704e-01 -3.5697079419889254e-04 7.3594017439045339e-04  1.5047134810840740e-01 -5.8513793561380952e-04 2.5523440312022434e-04  1.4966351225753818e-01 5.5332172703311954e-04 -7.4043567548680506e-04  1.4978131624758148e-01 2.6056728690255181e-04 2.4895991038766525e-04  1.5042515403019202e-01 -6.3108134688530935e-04 4.9551481040235629e-04  1.4990994826387860e-01 1.4146134457689860e-04 -5.3280036985761756e-04  1.4972231546362663e-01 4.1780596881654114e-04 -7.7166346152555268e-05  1.5024824415620880e-01 -3.3068022699999760e-04 4.7641560926693914e-04  1.5005372478784360e-01 -1.5657492793295000e-04 -2.6665703862073460e-04  1.4976556436771499e-01 3.8428550110020397e-04 -1.8322482989659478e-04  1.5013457133439120e-01 -1.5365009853716708e-04 3.4496537162099491e-04  1.5007016435066944e-01 -1.7225025888645984e-04 -1.2296288028472530e-04  1.4985260199910852e-01 2.2194621840861031e-04 -1.6673509604468284e-04  1.5005645506874021e-01 -1.0957405649722517e-05 2.2367859192203886e-04  1.5007020199330409e-01 -1.8325802529009220e-04 -5.2988004625414514e-05  1.4989438346972520e-01 1.7651294756912780e-04 -1.2711381732983271e-04  1.5004471031735911e-01 -3.1092028207629144e-05 1.4989066140497613e-04  1.5002914356666106e-01 -7.5058921824943376e-05 -3.7758026397674838e-05  1.4995381787465997e-01 4.8908676171202248e-05 -7.4427157995305990e-05  1.5000676781598682e-01 5.8246057342985304e-05 9.0793084591388510e-05  1.5004152246437588e-01 -1.3934983307707871e-04 -2.4216071516704149e-05  1.4994100773999267e-01 1.4131163148043148e-04 -4.8636462750116234e-05  1.5004366758693224e-01 -9.3205936305830258e-05 6.9930727936057193e-05  1.4997982312256761e-01 5.6653882628686435e-05 -4.0898233340264239e-05  1.5001138749760065e-01 -6.4940332284646384e-05 1.4534953737092535e-06  1.4997870505236804e-01 1.0522312169732200e-04 1.2684961042732631e-05  1.5003848673748893e-01 -1.4265009296206117e-04 4.9739057732410186e-06  1.4995031466441269e-01 1.5334179643039441e-04 -3.6798379827747551e-05  1.5005010948239547e-01 -1.3845050378652135e-04 6.1664149593920338e-05  1.4995685097159234e-01 1.1430914642497934e-04 -6.9812132939633424e-05  1.5003628878570069e-01 -9.7731940433348047e-05 6.6483809602300639e-05  1.4996798209037440e-01 9.0353682781102186e-05 -5.9535349393662214e-05  1.5003337639507180e-01 -9.1861143586064202e-05 6.0591838901254049e-05  1.4996827893184347e-01 8.4343105832270562e-05 -6.2192218639527697e-05  1.5003544790512921e-01 -8.0248035473413508e-05 7.5297312082159886e-05  1.4997482635959430e-01 5.4035627575554648e-05 -6.9756097875816041e-05  1.5003176040768809e-01 -5.0861441275097124e-05 8.3089283032973134e-05  1.4999066453032339e-01 1.6338972843098104e-05 -5.1722877645455995e-05  1.5002904950773926e-01 -3.1979036943634810e-05 7.2273834546153948e-05  1.5000994813363439e-01 9.8698755422444128e-06 -9.8698755432461648e-06  1.5002839002765270e-01 0.0000000000000000e+00 5.2244045138226656e-05  1.5081204786842123e-01 0.0000000000000000e+00 3.7870071628435154e-04  1.4974496955878724e-01 -5.5273012676961713e-04 3.1804442099803810e-04  1.5075906859571375e-01 -1.3271641806191801e-05 -1.3271641806267961e-05  1.4988932223830062e-01 -7.9224848511991056e-04 3.7692249887877214e-04  1.5061463857101734e-01 3.6907576199287208e-04 -3.3107097879754322e-04  1.4993513866034924e-01 -6.6326797267906787e-04 2.1288500326625964e-04  1.5045508424873799e-01 6.5043197472793512e-04 -5.2240002883032280e-04  1.4997327825083820e-01 -4.5897856688103806e-04 2.7189919262863828e-04  1.5045117150092358e-01 6.3607075461631819e-04 -2.5193169195561336e-04  1.5014119189754133e-01 -4.8295679630980563e-04 6.3536591745092929e-04  1.5056474419176102e-01 4.0803840564910887e-04 9.5330538143731044e-05  1.5028882474631122e-01 -3.5517031737417591e-04 6.8711642184917971e-04  1.5048937523081510e-01 5.5957392108508673e-04 -1.3663409428011215e-04  1.5009338167702510e-01 1.4362967399741278e-04 1.1679480452949629e-04  1.5016010624985612e-01 9.6156636029856904e-04 -5.5215259427975939e-04  1.4981845159051574e-01 5.1365339319209670e-04 -1.2995940088587218e-04  1.4989665287351736e-01 8.4599886771626542e-04 -5.1237914113240620e-04  1.4971256709206279e-01 4.2685667349125699e-04 -1.1635816771496541e-04  1.4979033895435889e-01 7.5821335621065124e-04 -5.2781807340369349e-04  1.4958737855375179e-01 4.9611748374071623e-04 -3.8582663481182244e-04  1.4965673467414325e-01 7.0501199751116564e-04 -5.7264291439824619e-04  1.4959842708911705e-01 3.4718320057562695e-04 -1.3315729552101796e-04  1.4968590823032826e-01 1.4460040136266719e-04 -1.1732667915883546e-04  1.4968650420902405e-01 -2.2288331697238020e-04 1.3811466933763005e-04  1.4979568814512351e-01 -2.1987510025279808e-04 7.8572778223454665e-05  1.4978382508143831e-01 -4.9282603594900519e-04 1.8169074665191516e-04  1.4987517015378424e-01 -5.7881111769474754e-04 1.4009722406213438e-04  1.4990509024352702e-01 -4.9508212255476266e-04 1.3920397552592080e-04  1.4983900223557770e-01 -2.7323732993688658e-04 -1.7420056720510380e-04  1.4977558777778383e-01 -2.3118168282900090e-04 -2.5775617012880540e-04  1.4987999452989478e-01 -2.2813456675318739e-04 -1.3354699912804049e-04  1.4989866815859113e-01 -3.0748976760790935e-04 -1.4228263642186411e-04  1.4985185962530326e-01 -1.9908271684483303e-04 -2.7332007138738891e-04  1.4992731900431713e-01 3.2020885314881106e-05 -6.0459811592770596e-06  1.5004526649085367e-01 -1.1008710442543975e-04 2.7493607426404190e-04  1.5003827066168293e-01 -3.8752623487768660e-04 1.0760879876365929e-04  1.4997749470163615e-01 7.0059208119848044e-05 -2.1942479964480200e-04  1.4989513522192244e-01 5.1295678292734379e-04 -2.2737858509231447e-04  1.4992948455623395e-01 -1.2274899468784839e-04 7.7411164708215811e-05  1.5015143202153156e-01 -6.1900778472208861e-04 2.6664731738393268e-04  1.5016589762119725e-01 4.5810959025042489e-05 -1.2856914399442235e-04  1.4988748295085583e-01 4.4756680553074952e-04 -5.9245529887874801e-04  1.4989796737626937e-01 8.4644373061067238e-06 -3.1353504380731670e-04  1.5015977178951700e-01 -7.1499585190516881e-05 1.2326754236272253e-04  1.5012530510084993e-01 -4.0748115922553863e-07 7.3508171745313624e-05  1.5002497644673368e-01 -2.8899090835732950e-04 1.2621086472297074e-04  1.5008478983179205e-01 1.0168526023637719e-04 2.3209068267314667e-04  1.4994872979696394e-01 5.5621570439422859e-04 4.7289946479035711e-05  1.4990269000704767e-01 -3.1086517460714516e-04 4.1530763486792533e-04  1.5018669047223293e-01 -6.5749124117818610e-04 8.7603931070848022e-04  1.4999653979319510e-01 5.9541349211699899e-04 1.0760356726884954e-04  1.4961697675938640e-01 5.1779723346794101e-04 -1.3353741870729811e-04  1.5006040551989425e-01 -8.1537413867508260e-04 1.0816572426887688e-03  1.5032673903498311e-01 -2.4378980512532514e-04 6.7938588740236049e-04  1.4966089228770263e-01 9.3595345345174610e-04 -7.8517667747582160e-04  1.4979463942875801e-01 -1.5705674316094726e-04 3.7122361429867416e-04  1.5053693085881242e-01 -8.0469143338824213e-04 1.2416164013966148e-03  1.5006011194559249e-01 4.4954047851463380e-04 -8.1936757338216682e-04  1.4958192518206712e-01 6.0414957275123121e-04 -8.8937387463455917e-04  1.5039288900294456e-01 -7.0436168440441425e-04 1.1712541313851812e-03  1.5034820090394188e-01 -1.9328410594115749e-04 -1.0718703149332194e-04  1.4956100244979256e-01 6.7446783089053811e-04 -1.4302975241672802e-03  1.4998179180526278e-01 -7.8383704256086877e-05 6.2703960007063080e-04  1.5041242968512850e-01 -5.8540689158843504e-04 7.6882258131662988e-04  1.4971942556826043e-01 4.2311589081264409e-04 -1.0724691443006029e-03  1.4982841153192961e-01 2.1342919565284875e-04 1.0227837581236411e-04  1.5031585714359938e-01 -4.1295555857550617e-04 8.6527726837029085e-04  1.4994159350315095e-01 8.8638730864574839e-07 -6.2572739793271214e-04  1.4977953578080194e-01 3.8873853037410381e-04 -2.7977873878649715e-04  1.5022045895769073e-01 -3.0522166967293781e-04 7.1047576109028012e-04  1.4998739976021652e-01 -3.8555985910431832e-05 -3.4408738331536613e-04  1.4986224128620948e-01 2.0060158789879335e-04 -2.6000168192823821e-04  1.5009745308118891e-01 -4.9970353353285743e-05 4.4688557556704970e-04  1.5004434146033299e-01 -1.8473920603216711e-04 -1.3728750882841721e-04  1.4987081910554295e-01 2.5460897000576042e-04 -2.5316282673458392e-04  1.5009815935695497e-01 -1.4320486110029943e-04 3.4377611300592651e-04  1.4998526135160808e-01 1.4650360483290603e-05 -1.3302592667766572e-04  1.4997016708700495e-01 -4.4608939730962966e-06 -1.1058893980986184e-04  1.5000496697819815e-01 1.0448323960142991e-04 1.64354411