<?xml version="1.0"?>
<VTKFile type="UnstructuredGrid"  version="0.1"  >
<UnstructuredGrid>
<Piece  NumberOfPoints="10201" NumberOfCells="20000">
<Points>
<DataArray  type="Float64"  NumberOfComponents="3"  format="ascii">-5 -5 0  -4.9 -5 0  -4.8 -5 0  -4.7 -5 0  -4.6 -5 0  -4.5 -5 0  -4.4 -5 0  -4.3 -5 0  -4.2 -5 0  -4.1 -5 0  -4 -5 0  -3.9 -5 0  -3.8 -5 0  -3.7 -5 0  -3.6 -5 0  -3.5 -5 0  -3.4 -5 0  -3.3 -5 0  -3.2 -5 0  -3.1 -5 0  -3 -5 0  -2.9 -5 0  -2.8 -5 0  -2.7 -5 0  -2.6 -5 0  -2.5 -5 0  -2.4 -5 0  -2.3 -5 0  -2.2 -5 0  -2.1 -5 0  -2 -5 0  -1.9 -5 0  -1.8 -5 0  -1.7 -5 0  -1.6 -5 0  -1.5 -5 0  -1.4 -5 0  -1.3 -5 0  -1.2 -5 0  -1.1 -5 0  -1 -5 0  -0.9000000000000004 -5 0  -0.7999999999999998 -5 0  -0.7000000000000002 -5 0  -0.5999999999999996 -5 0  -0.5 -5 0  -0.4000000000000004 -5 0  -0.2999999999999998 -5 0  -0.2000000000000002 -5 0  -0.09999999999999964 -5 0  0 -5 0  0.09999999999999964 -5 0  0.2000000000000002 -5 0  0.2999999999999998 -5 0  0.4000000000000004 -5 0  0.5 -5 0  0.5999999999999996 -5 0  0.7000000000000002 -5 0  0.7999999999999998 -5 0  0.9000000000000004 -5 0  1 -5 0  1.1 -5 0  1.2 -5 0  1.3 -5 0  1.4 -5 0  1.5 -5 0  1.6 -5 0  1.7 -5 0  1.8 -5 0  1.9 -5 0  2 -5 0  2.1 -5 0  2.2 -5 0  2.3 -5 0  2.4 -5 0  2.5 -5 0  2.6 -5 0  2.7 -5 0  2.8 -5 0  2.9 -5 0  3 -5 0  3.1 -5 0  3.199999999999999 -5 0  3.300000000000001 -5 0  3.4 -5 0  3.5 -5 0  3.6 -5 0  3.699999999999999 -5 0  3.800000000000001 -5 0  3.9 -5 0  4 -5 0  4.1 -5 0  4.199999999999999 -5 0  4.300000000000001 -5 0  4.4 -5 0  4.5 -5 0  4.6 -5 0  4.699999999999999 -5 0  4.800000000000001 -5 0  4.9 -5 0  5 -5 0  -5 -4.9 0  -4.9 -4.9 0  -4.8 -4.9 0  -4.7 -4.9 0  -4.6 -4.9 0  -4.5 -4.9 0  -4.4 -4.9 0  -4.3 -4.9 0  -4.2 -4.9 0  -4.1 -4.9 0  -4 -4.9 0  -3.9 -4.9 0  -3.8 -4.9 0  -3.7 -4.9 0  -3.6 -4.9 0  -3.5 -4.9 0  -3.4 -4.9 0  -3.3 -4.9 0  -3.2 -4.9 0  -3.1 -4.9 0  -3 -4.9 0  -2.9 -4.9 0  -2.8 -4.9 0  -2.7 -4.9 0  -2.6 -4.9 0  -2.5 -4.9 0  -2.4 -4.9 0  -2.3 -4.9 0  -2.2 -4.9 0  -2.1 -4.9 0  -2 -4.9 0  -1.9 -4.9 0  -1.8 -4.9 0  -1.7 -4.9 0  -1.6 -4.9 0  -1.5 -4.9 0  -1.4 -4.9 0  -1.3 -4.9 0  -1.2 -4.9 0  -1.1 -4.9 0  -1 -4.9 0  -0.9000000000000004 -4.9 0  -0.7999999999999998 -4.9 0  -0.7000000000000002 -4.9 0  -0.5999999999999996 -4.9 0  -0.5 -4.9 0  -0.4000000000000004 -4.9 0  -0.2999999999999998 -4.9 0  -0.2000000000000002 -4.9 0  -0.09999999999999964 -4.9 0  0 -4.9 0  0.09999999999999964 -4.9 0  0.2000000000000002 -4.9 0  0.2999999999999998 -4.9 0  0.4000000000000004 -4.9 0  0.5 -4.9 0  0.5999999999999996 -4.9 0  0.7000000000000002 -4.9 0  0.7999999999999998 -4.9 0  0.9000000000000004 -4.9 0  1 -4.9 0  1.1 -4.9 0  1.2 -4.9 0  1.3 -4.9 0  1.4 -4.9 0  1.5 -4.9 0  1.6 -4.9 0  1.7 -4.9 0  1.8 -4.9 0  1.9 -4.9 0  2 -4.9 0  2.1 -4.9 0  2.2 -4.9 0  2.3 -4.9 0  2.4 -4.9 0  2.5 -4.9 0  2.6 -4.9 0  2.7 -4.9 0  2.8 -4.9 0  2.9 -4.9 0  3 -4.9 0  3.1 -4.9 0  3.199999999999999 -4.9 0  3.300000000000001 -4.9 0  3.4 -4.9 0  3.5 -4.9 0  3.6 -4.9 0  3.699999999999999 -4.9 0  3.800000000000001 -4.9 0  3.9 -4.9 0  4 -4.9 0  4.1 -4.9 0  4.199999999999999 -4.9 0  4.300000000000001 -4.9 0  4.4 -4.9 0  4.5 -4.9 0  4.6 -4.9 0  4.699999999999999 -4.9 0  4.800000000000001 -4.9 0  4.9 -4.9 0  5 -4.9 0  -5 -4.8 0  -4.9 -4.8 0  -4.8 -4.8 0  -4.7 -4.8 0  -4.6 -4.8 0  -4.5 -4.8 0  -4.4 -4.8 0  -4.3 -4.8 0  -4.2 -4.8 0  -4.1 -4.8 0  -4 -4.8 0  -3.9 -4.8 0  -3.8 -4.8 0  -3.7 -4.8 0  -3.6 -4.8 0  -3.5 -4.8 0  -3.4 -4.8 0  -3.3 -4.8 0  -3.2 -4.8 0  -3.1 -4.8 0  -3 -4.8 0  -2.9 -4.8 0  -2.8 -4.8 0  -2.7 -4.8 0  -2.6 -4.8 0  -2.5 -4.8 0  -2.4 -4.8 0  -2.3 -4.8 0  -2.2 -4.8 0  -2.1 -4.8 0  -2 -4.8 0  -1.9 -4.8 0  -1.8 -4.8 0  -1.7 -4.8 0  -1.6 -4.8 0  -1.5 -4.8 0  -1.4 -4.8 0  -1.3 -4.8 0  -1.2 -4.8 0  -1.1 -4.8 0  -1 -4.8 0  -0.9000000000000004 -4.8 0  -0.7999999999999998 -4.8 0  -0.7000000000000002 -4.8 0  -0.5999999999999996 -4.8 0  -0.5 -4.8 0  -0.4000000000000004 -4.8 0  -0.2999999999999998 -4.8 0  -0.2000000000000002 -4.8 0  -0.09999999999999964 -4.8 0  0 -4.8 0  0.09999999999999964 -4.8 0  0.2000000000000002 -4.8 0  0.2999999999999998 -4.8 0  0.4000000000000004 -4.8 0  0.5 -4.8 0  0.5999999999999996 -4.8 0  0.7000000000000002 -4.8 0  0.7999999999999998 -4.8 0  0.9000000000000004 -4.8 0  1 -4.8 0  1.1 -4.8 0  1.2 -4.8 0  1.3 -4.8 0  1.4 -4.8 0  1.5 -4.8 0  1.6 -4.8 0  1.7 -4.8 0  1.8 -4.8 0  1.9 -4.8 0  2 -4.8 0  2.1 -4.8 0  2.2 -4.8 0  2.3 -4.8 0  2.4 -4.8 0  2.5 -4.8 0  2.6 -4.8 0  2.7 -4.8 0  2.8 -4.8 0  2.9 -4.8 0  3 -4.8 0  3.1 -4.8 0  3.199999999999999 -4.8 0  3.300000000000001 -4.8 0  3.4 -4.8 0  3.5 -4.8 0  3.6 -4.8 0  3.699999999999999 -4.8 0  3.800000000000001 -4.8 0  3.9 -4.8 0  4 -4.8 0  4.1 -4.8 0  4.199999999999999 -4.8 0  4.300000000000001 -4.8 0  4.4 -4.8 0  4.5 -4.8 0  4.6 -4.8 0  4.699999999999999 -4.8 0  4.800000000000001 -4.8 0  4.9 -4.8 0  5 -4.8 0  -5 -4.7 0  -4.9 -4.7 0  -4.8 -4.7 0  -4.7 -4.7 0  -4.6 -4.7 0  -4.5 -4.7 0  -4.4 -4.7 0  -4.3 -4.7 0  -4.2 -4.7 0  -4.1 -4.7 0  -4 -4.7 0  -3.9 -4.7 0  -3.8 -4.7 0  -3.7 -4.7 0  -3.6 -4.7 0  -3.5 -4.7 0  -3.4 -4.7 0  -3.3 -4.7 0  -3.2 -4.7 0  -3.1 -4.7 0  -3 -4.7 0  -2.9 -4.7 0  -2.8 -4.7 0  -2.7 -4.7 0  -2.6 -4.7 0  -2.5 -4.7 0  -2.4 -4.7 0  -2.3 -4.7 0  -2.2 -4.7 0  -2.1 -4.7 0  -2 -4.7 0  -1.9 -4.7 0  -1.8 -4.7 0  -1.7 -4.7 0  -1.6 -4.7 0  -1.5 -4.7 0  -1.4 -4.7 0  -1.3 -4.7 0  -1.2 -4.7 0  -1.1 -4.7 0  -1 -4.7 0  -0.9000000000000004 -4.7 0  -0.7999999999999998 -4.7 0  -0.7000000000000002 -4.7 0  -0.5999999999999996 -4.7 0  -0.5 -4.7 0  -0.4000000000000004 -4.7 0  -0.2999999999999998 -4.7 0  -0.2000000000000002 -4.7 0  -0.09999999999999964 -4.7 0  0 -4.7 0  0.09999999999999964 -4.7 0  0.2000000000000002 -4.7 0  0.2999999999999998 -4.7 0  0.4000000000000004 -4.7 0  0.5 -4.7 0  0.5999999999999996 -4.7 0  0.7000000000000002 -4.7 0  0.7999999999999998 -4.7 0  0.9000000000000004 -4.7 0  1 -4.7 0  1.1 -4.7 0  1.2 -4.7 0  1.3 -4.7 0  1.4 -4.7 0  1.5 -4.7 0  1.6 -4.7 0  1.7 -4.7 0  1.8 -4.7 0  1.9 -4.7 0  2 -4.7 0  2.1 -4.7 0  2.2 -4.7 0  2.3 -4.7 0  2.4 -4.7 0  2.5 -4.7 0  2.6 -4.7 0  2.7 -4.7 0  2.8 -4.7 0  2.9 -4.7 0  3 -4.7 0  3.1 -4.7 0  3.199999999999999 -4.7 0  3.300000000000001 -4.7 0  3.4 -4.7 0  3.5 -4.7 0  3.6 -4.7 0  3.699999999999999 -4.7 0  3.800000000000001 -4.7 0  3.9 -4.7 0  4 -4.7 0  4.1 -4.7 0  4.199999999999999 -4.7 0  4.300000000000001 -4.7 0  4.4 -4.7 0  4.5 -4.7 0  4.6 -4.7 0  4.699999999999999 -4.7 0  4.800000000000001 -4.7 0  4.9 -4.7 0  5 -4.7 0  -5 -4.6 0  -4.9 -4.6 0  -4.8 -4.6 0  -4.7 -4.6 0  -4.6 -4.6 0  -4.5 -4.6 0  -4.4 -4.6 0  -4.3 -4.6 0  -4.2 -4.6 0  -4.1 -4.6 0  -4 -4.6 0  -3.9 -4.6 0  -3.8 -4.6 0  -3.7 -4.6 0  -3.6 -4.6 0  -3.5 -4.6 0  -3.4 -4.6 0  -3.3 -4.6 0  -3.2 -4.6 0  -3.1 -4.6 0  -3 -4.6 0  -2.9 -4.6 0  -2.8 -4.6 0  -2.7 -4.6 0  -2.6 -4.6 0  -2.5 -4.6 0  -2.4 -4.6 0  -2.3 -4.6 0  -2.2 -4.6 0  -2.1 -4.6 0  -2 -4.6 0  -1.9 -4.6 0  -1.8 -4.6 0  -1.7 -4.6 0  -1.6 -4.6 0  -1.5 -4.6 0  -1.4 -4.6 0  -1.3 -4.6 0  -1.2 -4.6 0  -1.1 -4.6 0  -1 -4.6 0  -0.9000000000000004 -4.6 0  -0.7999999999999998 -4.6 0  -0.7000000000000002 -4.6 0  -0.5999999999999996 -4.6 0  -0.5 -4.6 0  -0.4000000000000004 -4.6 0  -0.2999999999999998 -4.6 0  -0.2000000000000002 -4.6 0  -0.09999999999999964 -4.6 0  0 -4.6 0  0.09999999999999964 -4.6 0  0.2000000000000002 -4.6 0  0.2999999999999998 -4.6 0  0.4000000000000004 -4.6 0  0.5 -4.6 0  0.5999999999999996 -4.6 0  0.7000000000000002 -4.6 0  0.7999999999999998 -4.6 0  0.9000000000000004 -4.6 0  1 -4.6 0  1.1 -4.6 0  1.2 -4.6 0  1.3 -4.6 0  1.4 -4.6 0  1.5 -4.6 0  1.6 -4.6 0  1.7 -4.6 0  1.8 -4.6 0  1.9 -4.6 0  2 -4.6 0  2.1 -4.6 0  2.2 -4.6 0  2.3 -4.6 0  2.4 -4.6 0  2.5 -4.6 0  2.6 -4.6 0  2.7 -4.6 0  2.8 -4.6 0  2.9 -4.6 0  3 -4.6 0  3.1 -4.6 0  3.199999999999999 -4.6 0  3.300000000000001 -4.6 0  3.4 -4.6 0  3.5 -4.6 0  3.6 -4.6 0  3.699999999999999 -4.6 0  3.800000000000001 -4.6 0  3.9 -4.6 0  4 -4.6 0  4.1 -4.6 0  4.199999999999999 -4.6 0  4.300000000000001 -4.6 0  4.4 -4.6 0  4.5 -4.6 0  4.6 -4.6 0  4.699999999999999 -4.6 0  4.800000000000001 -4.6 0  4.9 -4.6 0  5 -4.6 0  -5 -4.5 0  -4.9 -4.5 0  -4.8 -4.5 0  -4.7 -4.5 0  -4.6 -4.5 0  -4.5 -4.5 0  -4.4 -4.5 0  -4.3 -4.5 0  -4.2 -4.5 0  -4.1 -4.5 0  -4 -4.5 0  -3.9 -4.5 0  -3.8 -4.5 0  -3.7 -4.5 0  -3.6 -4.5 0  -3.5 -4.5 0  -3.4 -4.5 0  -3.3 -4.5 0  -3.2 -4.5 0  -3.1 -4.5 0  -3 -4.5 0  -2.9 -4.5 0  -2.8 -4.5 0  -2.7 -4.5 0  -2.6 -4.5 0  -2.5 -4.5 0  -2.4 -4.5 0  -2.3 -4.5 0  -2.2 -4.5 0  -2.1 -4.5 0  -2 -4.5 0  -1.9 -4.5 0  -1.8 -4.5 0  -1.7 -4.5 0  -1.6 -4.5 0  -1.5 -4.5 0  -1.4 -4.5 0  -1.3 -4.5 0  -1.2 -4.5 0  -1.1 -4.5 0  -1 -4.5 0  -0.9000000000000004 -4.5 0  -0.7999999999999998 -4.5 0  -0.7000000000000002 -4.5 0  -0.5999999999999996 -4.5 0  -0.5 -4.5 0  -0.4000000000000004 -4.5 0  -0.2999999999999998 -4.5 0  -0.2000000000000002 -4.5 0  -0.09999999999999964 -4.5 0  0 -4.5 0  0.09999999999999964 -4.5 0  0.2000000000000002 -4.5 0  0.2999999999999998 -4.5 0  0.4000000000000004 -4.5 0  0.5 -4.5 0  0.5999999999999996 -4.5 0  0.7000000000000002 -4.5 0  0.7999999999999998 -4.5 0  0.9000000000000004 -4.5 0  1 -4.5 0  1.1 -4.5 0  1.2 -4.5 0  1.3 -4.5 0  1.4 -4.5 0  1.5 -4.5 0  1.6 -4.5 0  1.7 -4.5 0  1.8 -4.5 0  1.9 -4.5 0  2 -4.5 0  2.1 -4.5 0  2.2 -4.5 0  2.3 -4.5 0  2.4 -4.5 0  2.5 -4.5 0  2.6 -4.5 0  2.7 -4.5 0  2.8 -4.5 0  2.9 -4.5 0  3 -4.5 0  3.1 -4.5 0  3.199999999999999 -4.5 0  3.300000000000001 -4.5 0  3.4 -4.5 0  3.5 -4.5 0  3.6 -4.5 0  3.699999999999999 -4.5 0  3.800000000000001 -4.5 0  3.9 -4.5 0  4 -4.5 0  4.1 -4.5 0  4.199999999999999 -4.5 0  4.300000000000001 -4.5 0  4.4 -4.5 0  4.5 -4.5 0  4.6 -4.5 0  4.699999999999999 -4.5 0  4.800000000000001 -4.5 0  4.9 -4.5 0  5 -4.5 0  -5 -4.4 0  -4.9 -4.4 0  -4.8 -4.4 0  -4.7 -4.4 0  -4.6 -4.4 0  -4.5 -4.4 0  -4.4 -4.4 0  -4.3 -4.4 0  -4.2 -4.4 0  -4.1 -4.4 0  -4 -4.4 0  -3.9 -4.4 0  -3.8 -4.4 0  -3.7 -4.4 0  -3.6 -4.4 0  -3.5 -4.4 0  -3.4 -4.4 0  -3.3 -4.4 0  -3.2 -4.4 0  -3.1 -4.4 0  -3 -4.4 0  -2.9 -4.4 0  -2.8 -4.4 0  -2.7 -4.4 0  -2.6 -4.4 0  -2.5 -4.4 0  -2.4 -4.4 0  -2.3 -4.4 0  -2.2 -4.4 0  -2.1 -4.4 0  -2 -4.4 0  -1.9 -4.4 0  -1.8 -4.
[...]
<PointData  Vectors="f_17"> 
<DataArray  type="Float64"  Name="f_17"  NumberOfComponents="3" format="ascii">1.5002156065929109e-01 0.0000000000000000e+00 0.0000000000000000e+00  1.5000060038754670e-01 -4.0668294069682224e-05 0.0000000000000000e+00  1.5003061507003662e-01 2.4191774187969006e-06 0.0000000000000000e+00  1.5002030945659622e-01 -6.4358458991086535e-05 0.0000000000000000e+00  1.5005048650755284e-01 -8.7426206972266829e-06 0.0000000000000000e+00  1.5004178410330637e-01 -6.9899946751426215e-05 0.0000000000000000e+00  1.5006466554237025e-01 6.4230567697126704e-06 0.0000000000000000e+00  1.5004388243828501e-01 -2.2494062667535995e-05 0.0000000000000000e+00  1.5004590144529723e-01 7.9123360419349742e-05 0.0000000000000000e+00  1.5000918848587017e-01 7.9205504679151346e-05 0.0000000000000000e+00  1.4999917467685442e-01 1.5990468827317347e-04 0.0000000000000000e+00  1.4997503851021210e-01 1.2086054383468843e-04 0.0000000000000000e+00  1.4999364809606122e-01 1.1423435066939065e-04 0.0000000000000000e+00  1.5001171417040113e-01 1.1666599804573808e-05 0.0000000000000000e+00  1.5005116904588425e-01 -3.5729855041047998e-05 0.0000000000000000e+00  1.5006451205702617e-01 -8.0623892027036753e-05 0.0000000000000000e+00  1.5005832980175501e-01 -3.7064057578447201e-05 0.0000000000000000e+00  1.5001485454274041e-01 2.7256170218653335e-06 0.0000000000000000e+00  1.4997405317845722e-01 5.1158221531438390e-05 0.0000000000000000e+00  1.4994348882503425e-01 4.8537671011653217e-05 0.0000000000000000e+00  1.4993118302068240e-01 2.5395379855629529e-05 0.0000000000000000e+00  1.4992610819043464e-01 -5.8427162333359493e-06 0.0000000000000000e+00  1.4992798169448029e-01 -1.5785547542395808e-05 0.0000000000000000e+00  1.4992435652946207e-01 -3.5801706673916485e-05 0.0000000000000000e+00  1.4992150664891091e-01 -4.5108298144513325e-05 0.0000000000000000e+00  1.4992470830814592e-01 -1.9528523954882644e-05 0.0000000000000000e+00  1.4993213526397708e-01 -1.0428158726433258e-05 0.0000000000000000e+00  1.4995404928409126e-01 -7.3047932393469501e-05 0.0000000000000000e+00  1.4999419042753842e-01 -1.0772538741837255e-04 0.0000000000000000e+00  1.5000503464109960e-01 -2.8215309655704578e-05 0.0000000000000000e+00  1.4997602299015017e-01 4.4720619714151820e-05 0.0000000000000000e+00  1.4998326567836798e-01 -8.6015005137166333e-06 0.0000000000000000e+00  1.5003209612273344e-01 -7.0917286087009347e-05 0.0000000000000000e+00  1.5002291559225350e-01 -9.8033810903812849e-06 0.0000000000000000e+00  1.4996681746838716e-01 7.4914320381279430e-05 0.0000000000000000e+00  1.4997652895941160e-01 3.6598333580378683e-05 0.0000000000000000e+00  1.5002989763233915e-01 -6.4008725568266819e-05 0.0000000000000000e+00  1.5002550274016291e-01 -6.3794804033378985e-05 0.0000000000000000e+00  1.4998757223824721e-01 4.3460075759004932e-05 0.0000000000000000e+00  1.4998168562785608e-01 8.9369472788106534e-05 0.0000000000000000e+00  1.4999347273138133e-01 -9.6374812084535176e-06 0.0000000000000000e+00  1.5000967839806498e-01 -9.6190484219952152e-05 0.0000000000000000e+00  1.5002526709564923e-01 -1.9120558270602113e-05 0.0000000000000000e+00  1.4999865723642500e-01 9.0570225516376049e-05 0.0000000000000000e+00  1.4996114673491256e-01 3.8266535443843129e-05 0.0000000000000000e+00  1.4999889119010631e-01 -7.8987031167356057e-05 0.0000000000000000e+00  1.5004844747356860e-01 -4.7110286935955635e-05 0.0000000000000000e+00  1.4999735248777804e-01 6.9363676223364759e-05 0.0000000000000000e+00  1.4994662158396185e-01 4.9668637121405871e-05 0.0000000000000000e+00  1.5001183397290888e-01 -6.4395923914068416e-05 0.0000000000000000e+00  1.5005223882780322e-01 -4.6681504884896615e-05 0.0000000000000000e+00  1.4997595823945953e-01 6.4307108196892085e-05 0.0000000000000000e+00  1.4995636946750382e-01 3.7172524174440522e-05 0.0000000000000000e+00  1.5003522585294057e-01 -6.6241028127832981e-05 0.0000000000000000e+00  1.5002790943357255e-01 -2.0522159852967595e-05 0.0000000000000000e+00  1.4995935827711390e-01 6.5061930018309603e-05 0.0000000000000000e+00  1.4999157206246500e-01 -9.6532822712053523e-07 0.0000000000000000e+00  1.5003701202111616e-01 -5.5795938132055116e-05 0.0000000000000000e+00  1.4999093404428057e-01 2.1306989852771597e-05 0.0000000000000000e+00  1.4997503829444503e-01 3.7288844335844770e-05 0.0000000000000000e+00  1.5001890078079358e-01 -3.3171426195602761e-05 0.0000000000000000e+00  1.5000926064420428e-01 -1.3997073491839347e-05 0.0000000000000000e+00  1.4998114985737179e-01 3.2512060927292240e-05 0.0000000000000000e+00  1.5000374968176888e-01 -6.5204557480464459e-06 0.0000000000000000e+00  1.5001120139410762e-01 -2.0262325824407551e-05 0.0000000000000000e+00  1.4999075849478871e-01 1.5978855077190845e-05 0.0000000000000000e+00  1.4999784720481804e-01 5.5193716660389961e-06 0.0000000000000000e+00  1.5000788381940280e-01 -1.5395557780917887e-05 0.0000000000000000e+00  1.4999601439159291e-01 6.8122096974048814e-06 0.0000000000000000e+00  1.4999766507886800e-01 5.2772037563384487e-06 0.0000000000000000e+00  1.5000405978094042e-01 -7.3632621484741477e-06 0.0000000000000000e+00  1.4999887641268456e-01 5.4215869003145271e-07 0.0000000000000000e+00  1.4999783007321077e-01 5.8504161279288255e-06 0.0000000000000000e+00  1.5000278192590033e-01 -6.1545975102744996e-06 0.0000000000000000e+00  1.4999883890041990e-01 2.2547540982301589e-06 0.0000000000000000e+00  1.4999949776060489e-01 9.2906934908728517e-07 0.0000000000000000e+00  1.5000080066658947e-01 -8.6123694760414253e-07 0.0000000000000000e+00  1.5000004193952313e-01 -1.3647062145712235e-06 0.0000000000000000e+00  1.4999901862377873e-01 3.2887064537178278e-06 0.0000000000000000e+00  1.5000128123583734e-01 -3.5647604107547291e-06 0.0000000000000000e+00  1.4999904303167785e-01 2.6063261253534903e-06 0.0000000000000000e+00  1.5000048574254729e-01 -1.6427503589156232e-06 0.0000000000000000e+00  1.4999970776172555e-01 1.5247988181117035e-06 0.0000000000000000e+00  1.5000046633384445e-01 -2.2437035956158796e-06 0.0000000000000000e+00  1.4999918116405322e-01 3.2292405264966300e-06 0.0000000000000000e+00  1.5000110689963839e-01 -3.9254043121194512e-06 0.0000000000000000e+00  1.4999878726554247e-01 4.1496910009220130e-06 0.0000000000000000e+00  1.5000117417781109e-01 -4.0745469293659784e-06 0.0000000000000000e+00  1.4999889784523260e-01 3.9806414169709360e-06 0.0000000000000000e+00  1.5000107997013570e-01 -4.0229425831621323e-06 0.0000000000000000e+00  1.4999888259450708e-01 4.1610734059035197e-06 0.0000000000000000e+00  1.5000116385053766e-01 -4.2312157106903309e-06 0.0000000000000000e+00  1.4999883375248380e-01 4.0973965105283167e-06 0.0000000000000000e+00  1.5000108017565630e-01 -3.6893515395081798e-06 0.0000000000000000e+00  1.4999905342139408e-01 3.1176460679328987e-06 0.0000000000000000e+00  1.5000073139255873e-01 -2.4018484506374201e-06 0.0000000000000000e+00  1.4999939400664242e-01 1.8121455287127581e-06 0.0000000000000000e+00  1.5000036540246900e-01 -1.1743586819098543e-06 0.0000000000000000e+00  1.4999960535876647e-01 7.9961885277264008e-07 0.0000000000000000e+00  1.5000015356063851e-01 -3.6367991517500907e-07 0.0000000000000000e+00  1.4999961570989775e-01 0.0000000000000000e+00 0.0000000000000000e+00  1.5000060038754656e-01 0.0000000000000000e+00 -4.0668294069579347e-05  1.4998248272378931e-01 3.0148702449128095e-06 3.0148702454002380e-06  1.4998919905879959e-01 3.8853525610354715e-05 -3.7973402070930868e-05  1.4996683667078334e-01 1.1926173849344423e-05 -2.5400201935403655e-05  1.4996963285626863e-01 5.9653409497733790e-05 -6.0265541288132087e-05  1.4994484248005557e-01 2.0653313973072459e-05 -4.9056093334934541e-05  1.4995113479236513e-01 5.3817489434996583e-05 -7.7282139205598867e-05  1.4993637658153758e-01 -1.0075692592593832e-05 -5.0286832216762523e-05  1.4995885998888139e-01 -9.4024141084125871e-06 -6.0761240676519177e-05  1.4996367708767533e-01 -9.5220919701005701e-05 -1.9190557519548578e-05  1.4999799134873226e-01 -1.0397321292248604e-04 -2.8650818496499637e-05  1.5000454250507911e-01 -1.5001902285441450e-04 -8.7845384880122517e-06  1.5001560418922630e-01 -1.0259138955067902e-04 -5.3431798062812379e-05  1.4998918310608186e-01 -6.9934443849060639e-05 -7.3188010020625786e-05  1.4996887532284783e-01 1.8250558813700916e-05 -1.1824061203932872e-04  1.4993971106792542e-01 4.5003332138821894e-05 -1.0197831509550179e-04  1.4994272035968456e-01 4.9516899979554414e-05 -7.3988284736960041e-05  1.4996563497510279e-01 -2.4025182833424652e-07 -1.0725917530168618e-06  1.5001037272177947e-01 -2.9850180825322361e-05 4.2123639098407493e-05  1.5004034394282145e-01 -5.1113670660868159e-05 6.3569242387945477e-05  1.5006148688976453e-01 -3.1890300802237937e-05 5.1795361907642392e-05  1.5007133626181107e-01 -7.4643625183798280e-06 5.4444060730083942e-05  1.5007614106380243e-01 8.6295581277643894e-06 6.1952379957565389e-05  1.5007723226819111e-01 1.7797375106958504e-05 7.7508557948648875e-05  1.5008197362263279e-01 4.1856544868451797e-05 8.3109634847054016e-05  1.5007929401022135e-01 3.9873809958859405e-05 7.9080534196428271e-05  1.5007137913832647e-01 1.7399523051498700e-05 6.4317824869137419e-05  1.5005911515779832e-01 4.3446546623346553e-05 3.8912699309245117e-05  1.5002864611265487e-01 9.9025626809129009e-05 3.0356962665863305e-07  1.4999761108056850e-01 7.0161300988515085e-05 -8.6025556461682316e-06  1.5000866487851461e-01 -1.3944120195132287e-05 2.4999233275143145e-05  1.5002516740757851e-01 -1.5457911165833699e-05 2.0260097510296586e-05  1.4999060197112868e-01 4.5665344705303652e-05 -4.0447440277258188e-05  1.4996634122117913e-01 3.5093342667592941e-05 -3.2656730751034940e-05  1.5000980138220005e-01 -3.7180110042547340e-05 4.8081928844487974e-05  1.5003458473354686e-01 -5.1209455639785732e-05 4.0320750165929233e-05  1.4999045908306491e-01 1.4661540310220551e-05 -4.5611312813661070e-05  1.4996766867823971e-01 6.3233733961589960e-05 -4.2085680527150529e-05  1.4999906177370187e-01 1.4928532706715987e-05 2.5724672067236162e-05  1.5001663606031659e-01 -7.1945222689047883e-05 2.8472581018469903e-05  1.5000982498350657e-01 -5.1358232924977027e-05 1.0805268905406704e-06  1.5000108584441316e-01 6.4885879950825055e-05 -7.1038782162135883e-06  1.4998042257166141e-01 7.4340398393284179e-05 -3.0799262643893865e-05  1.4998212860329510e-01 -5.3322017666748349e-05 -1.4830295678852710e-05  1.5002741291847008e-01 -8.2840439369790469e-05 5.7287076944076709e-05  1.5002707278165298e-01 4.2077296693745449e-05 2.5193481187424220e-05  1.4996400540548707e-01 7.9271512337969759e-05 -8.1557369809116440e-05  1.4997138384418474e-01 -3.5105894920705592e-05 -2.0353105326477086e-05  1.5004428191512237e-01 -7.0760722888238452e-05 1.0038048920602431e-04  1.5002259265441173e-01 3.1191463862029381e-05 5.1190479437015324e-07  1.4994965209487204e-01 6.0989212476833777e-05 -1.0799619083002721e-04  1.4998965406853432e-01 -3.0097606838133576e-05 2.9323536352930921e-05  1.5005118175454479e-01 -5.1175271276583754e-05 9.8211492511278816e-05  1.4999451023455071e-01 3.1773154367784250e-05 -6.0013576869233083e-05  1.4995540210919939e-01 4.0541827876433230e-05 -6.9858943390081800e-05  1.5002034973146969e-01 -3.5200363179659173e-05 7.9755106852902839e-05  1.5003060985811720e-01 -2.7430912245397579e-05 2.9168412400146685e-05  1.4997091665322293e-01 3.7632694067702713e-05 -7.9228582762436839e-05  1.4998750097784624e-01 1.1635027125003179e-05 1.1128366973004880e-05  1.5002853754117709e-01 -3.5300581885976175e-05 5.7864655764201858e-05  1.4999618932960504e-01 4.0233223548597559e-06 -3.6988825009080087e-05  1.4998033190619470e-01 2.6717791264077730e-05 -2.4956534919982613e-05  1.5001313840595945e-01 -1.5618311474808960e-05 4.0995175430228649e-05  1.5000700721931221e-01 -1.2585233330682850e-05 -4.8297844642084593e-06  1.4998673659513068e-01 1.7965734748486931e-05 -2.6665657130679362e-05  1.5000282085432118e-01 -3.5898049948155725e-08 1.9630960590504269e-05  1.5000762586751099e-01 -1.3757663699830186e-05 6.4022230294764288e-06  1.4999298168283784e-01 9.1042555628991574e-06 -1.7979646444301462e-05  1.4999970472842883e-01 3.2370285329316039e-06 7.9466062887676255e-06  1.5000467857113126e-01 -7.6733118293909840e-06 6.5280447007054480e-06  1.4999715382468012e-01 2.0255656571296053e-06 -9.8685608302387907e-06  1.4999867318509655e-01 4.9236333337989082e-06 2.6303263849265944e-06  1.5000320320688812e-01 -6.0931366181980132e-06 4.9790381330972532e-06  1.4999806258195372e-01 2.3317635243763656e-06 -6.0640945804182059e-06  1.4999976010084135e-01 1.2713407235532294e-06 1.9546574508144333e-06  1.5000115076109766e-01 -1.5597584497691961e-06 2.0446050918126407e-06  1.4999951812845430e-01 -6.3538510639487856e-07 -2.6387209536495895e-06  1.4999931639850089e-01 2.6865457280341696e-06 5.0066469343996793e-07  1.5000126890098117e-01 -3.0129137145043615e-06 1.7564542169927340e-06  1.4999896060408452e-01 1.9736421630588821e-06 -2.3505183044935637e-06  1.5000046508314235e-01 -8.8943211262351888e-07 1.3890019919477535e-06  1.4999988822014468e-01 6.9650276928084712e-07 -1.0119896767922117e-07  1.5000019534351638e-01 -1.3846951797256314e-06 -4.6190452374240402e-07  1.4999944723296474e-01 2.3252255415386871e-06 1.1044563883539806e-07  1.5000088859477578e-01 -2.9171510939961333e-06 6.6109281529450138e-07  1.4999897831393083e-01 2.9843066897348714e-06 -1.2558087270518110e-06  1.5000096451925224e-01 -2.7425558640722636e-06 1.4098547254742195e-06  1.4999915577057019e-01 2.5144885364010338e-06 -1.2459515380471689e-06  1.5000077651683391e-01 -2.4711529054513346e-06 1.0538136624868915e-06  1.4999920781162568e-01 2.5619089081271902e-06 -1.0419179047493896e-06  1.5000084564225843e-01 -2.6153206020238259e-06 1.2299893529053571e-06  1.4999913348370386e-01 2.4821715633890791e-06 -1.4905767899989561e-06  1.5000081720476019e-01 -2.1374678005768709e-06 1.6776120243714519e-06  1.4999931010140127e-01 1.6391177274426208e-06 -1.6825460697623539e-06  1.5000054333784180e-01 -1.1493803200899832e-06 1.5491879565846919e-06  1.4999963766922927e-01 6.8713962081856639e-07 -1.2408478497034453e-06  1.5000028373502050e-01 -4.4384036318788623e-07 1.0291594566855547e-06  1.4999988757819122e-01 1.8738240485775452e-07 -6.0838735062749125e-07  1.5000018062144135e-01 -1.9505433222166149e-07 6.0791024548856462e-07  1.5000003437324039e-01 1.2306722541802018e-07 -1.2306722593009085e-07  1.5000015356063856e-01 0.0000000000000000e+00 3.6367991361470456e-07  1.5003061507003665e-01 0.0000000000000000e+00 2.4191774177356602e-06  1.4998919905879965e-01 -3.7973402071720303e-05 3.8853525610019669e-05  1.5003303216336053e-01 1.7193685736558021e-05 1.7193685736092810e-05  1.5000765288437207e-01 -7.7251715953610155e-05 7.8634722308557224e-05  1.5005229313891946e-01 1.1501488438898135e-05 5.7827150386800222e-05  1.5003079070763140e-01 -9.9910007203993001e-05 1.3118166622268812e-04  1.5007512049622310e-01 1.0660751648405875e-05 9.9106554944723837e-05  1.5004715699655616e-01 -8.0343907175397803e-05 1.6068781164602661e-04  1.5007633113475016e-01 5.5612135050933079e-05 9.4882367527380292e-05  1.5003182066604223e-01 1.8472945077142370e-06 1.2347298841755862e-04  1.5004132309428209e-01 1.4218049367826832e-04 3.8383252639522212e-05  1.4999349730182845e-01 8.8200409026784830e-05 6.9986224830132244e-05  1.5000768838025713e-01 1.5946523793348126e-04 3.3015100852189042e-05  1.4999410001762348e-01 5.7273309498699237e-05 1.2534584739903689e-04  1.5003470972336488e-01 5.2095011701185920e-05 1.4613542368173288e-04  1.5004149969451508e-01 -4.8283217740890427e-05 2.1315694806509894e-04  1.5006559606558126e-01 -2.1095005647336765e-05 1.6233959986946520e-04  1.5004112324286298e-01 -2.0333876382588851e-05 1.0821830472245070e-04  1.5001419166052088e-01 4.0850443877055131e-05 -1.6347722404072080e-05  1.4997149845912122e-01 4.2190115476663965e-05 -6.9598969800833206e-05  1.4995370580492781e-01 5.3739693993451683e-05 -1.0062344013254041e-04  1.4993173383365235e-01 2.0305515544181726e-05 -9.7698285800651861e-05  1.4992156978069238e-01 9.0469515209787333e-06 -1.2569937929208516e-04  1.4991475766866935e-01 -3.7836964281763193e-06 -1.4186339204399343e-04  1.4991332019624184e-01 -2.2957860314519105e-05 -1.6257405705474054e-04  1.4991098601789324e-01 -5.1443233185355413e-05 -1.6162797666496805e-04  1.4991928780723732e-01 -3.3525015445410625e-05 -1.4770159701078480e-04  1.4992871279286088e-01 -2.7962353844913037e-05 -1.1996190696028667e-04  1.4994941069015491e-01 -8.4286546483587602e-05 -6.5656442181733391e-05  1.4998629853650669e-01 -1.0943443272563921e-04 5.2906126373530914e-06  1.4999925968999067e-01 -2.8694046206844703e-05 -4.2450981185491793e-06  1.4997673542926232e-01 2.5918963957157133e-05 -5.8468545160363673e-05  1.4998886275510301e-01 -2.5539912768964481e-05 1.3597208646207256e-06  1.5003158286310744e-01 -5.3858303659451254e-05 9.0652555579495291e-05  1.5001315786764621e-01 1.1761748097470203e-05 -2.9499524317798532e-07  1.4996421136524926e-01 5.5643911916672873e-05 -1.0835245711575165e-04  1.4998822481562060e-01 1.2048895222599993e-05 -2.7658783726660897e-06  1.5003404538681872e-01 -4.7046665096154220e-05 1.0253413483941094e-04  1.5001408235745486e-01 -4.2960865004570002e-05 1.3534276002247054e-05  1.4998431538679127e-01 3.0983800446929318e-05 -5.6608501502248357e-05  1.4999065758617569e-01 7.8947608648667153e-05 -1.5066717039527713e-05  1.4999378146455100e-01 -1.8581818756839434e-06 -7.8561567787241623e-06  1.5000578962034669e-01 -9.8910065378051402e-05 1.6520261451816168e-05  1.5002940111826804e-01 -2.0831357574496584e-05 7.6962609239804994e-05  1.4999605927936682e-01 1.0627184744204125e-04 -2.2617368717319044e-05  1.4995416148394408e-01 3.2102301654033213e-05 -1.2885929044291437e-04  1.5000969431639477e-01 -1.0378930286735357e-04 4.8328630081123448e-05  1.5005537011507866e-01 -3.0346661486238977e-05 1.5747348934277847e-04  1.4997863625060198e-01 9.7731425017747291e-05 -9.1690417228813115e-05  1.4994448989159737e-01 2.1400894965067186e-05 -1.5517909611459667e-04  1.5003657251918504e-01 -8.9498187569072405e-05 1.4227278290407077e-04  1.5004615161754054e-01 -8.8963962684194597e-06 1.1906586120724682e-04  1.4995064445387707e-01 7.9720907495789591e-05 -1.8035815010744517e-04  1.4997248070271324e-01 -5.0099528455152436e-06 -5.3284671279732660e-05  1.5005482815083238e-01 -6.7897194404643280e-05 1.8786937412611140e-04  1.5000428908295188e-01 1.8937937897649331e-05 -2.4095563434816936e-05  1.4995084673466960e-01 5.2984755934387840e-05 -1.5512602462601889e-04  1.5001665065612318e-01 -3.0943919495363135e-05 8.6496520040165722e-05  1.5003280497142027e-01 -3.3941930748292165e-05 8.9084288941237421e-05  1.4997173466674174e-01 3.6825194912847398e-05 -1.1154621779384418e-04  1.4998809643151884e-01 1.3446766076147711e-05 -1.4499564131326884e-05  1.5002763682048689e-01 -3.5214170184718686e-05 9.2964386935159680e-05  1.4999394974651020e-01 6.3312534807338656e-06 -3.9826690769955174e-05  1.4998345849872069e-01 2.2803236267827356e-05 -4.5619850749317366e-05  1.5001366246135159e-01 -1.5464049724087911e-05 5.5635084793950228e-05  1.5000378354759722e-01 -9.7114682417126262e-06 -1.3650507824851075e-06  1.4998763095877873e-01 1.8573608148816906e-05 -3.8866703523886009e-05  1.5000598101031579e-01 -6.2087029055788710e-06 2.7275111104997448e-05  1.5000386414755545e-01 -7.2476458558689066e-06 7.5830241645789496e-06  1.4999383138578234e-01 7.0262928497432508e-06 -2.3382970842925990e-05  1.5000118752940764e-01 2.5882980256358971e-06 1.1010747527648544e-05  1.5000398579124030e-01 -9.2955115493289652e-06 8.6373320594560246e-06  1.4999538530766163e-01 7.7417442840926799e-06 -1.5243677329620274e-05  1.5000173963228333e-01 -2.1397099778335597e-06 7.4059572139728576e-06  1.5000091905318635e-01 -1.0603683903448855e-06 3.1177635425766458e-06  1.4999883338853129e-01 -2.5569276558296096e-07 -6.4641199750963261e-06  1.4999959357712359e-01 3.6044339333723035e-06 2.2644810421165514e-06  1.5000194960795721e-01 -5.6588969842136922e-06 3.5746027442237440e-06  1.4999770516288013e-01 5.2887941910239726e-06 -5.9202373833219194e-