<?xml version="1.0"?>
<VTKFile type="UnstructuredGrid"  version="0.1"  >
<UnstructuredGrid>
<Piece  NumberOfPoints="10201" NumberOfCells="20000">
<Points>
<DataArray  type="Float64"  NumberOfComponents="3"  format="ascii">-5 -5 0  -4.9 -5 0  -4.8 -5 0  -4.7 -5 0  -4.6 -5 0  -4.5 -5 0  -4.4 -5 0  -4.3 -5 0  -4.2 -5 0  -4.1 -5 0  -4 -5 0  -3.9 -5 0  -3.8 -5 0  -3.7 -5 0  -3.6 -5 0  -3.5 -5 0  -3.4 -5 0  -3.3 -5 0  -3.2 -5 0  -3.1 -5 0  -3 -5 0  -2.9 -5 0  -2.8 -5 0  -2.7 -5 0  -2.6 -5 0  -2.5 -5 0  -2.4 -5 0  -2.3 -5 0  -2.2 -5 0  -2.1 -5 0  -2 -5 0  -1.9 -5 0  -1.8 -5 0  -1.7 -5 0  -1.6 -5 0  -1.5 -5 0  -1.4 -5 0  -1.3 -5 0  -1.2 -5 0  -1.1 -5 0  -1 -5 0  -0.9000000000000004 -5 0  -0.7999999999999998 -5 0  -0.7000000000000002 -5 0  -0.5999999999999996 -5 0  -0.5 -5 0  -0.4000000000000004 -5 0  -0.2999999999999998 -5 0  -0.2000000000000002 -5 0  -0.09999999999999964 -5 0  0 -5 0  0.09999999999999964 -5 0  0.2000000000000002 -5 0  0.2999999999999998 -5 0  0.4000000000000004 -5 0  0.5 -5 0  0.5999999999999996 -5 0  0.7000000000000002 -5 0  0.7999999999999998 -5 0  0.9000000000000004 -5 0  1 -5 0  1.1 -5 0  1.2 -5 0  1.3 -5 0  1.4 -5 0  1.5 -5 0  1.6 -5 0  1.7 -5 0  1.8 -5 0  1.9 -5 0  2 -5 0  2.1 -5 0  2.2 -5 0  2.3 -5 0  2.4 -5 0  2.5 -5 0  2.6 -5 0  2.7 -5 0  2.8 -5 0  2.9 -5 0  3 -5 0  3.1 -5 0  3.199999999999999 -5 0  3.300000000000001 -5 0  3.4 -5 0  3.5 -5 0  3.6 -5 0  3.699999999999999 -5 0  3.800000000000001 -5 0  3.9 -5 0  4 -5 0  4.1 -5 0  4.199999999999999 -5 0  4.300000000000001 -5 0  4.4 -5 0  4.5 -5 0  4.6 -5 0  4.699999999999999 -5 0  4.800000000000001 -5 0  4.9 -5 0  5 -5 0  -5 -4.9 0  -4.9 -4.9 0  -4.8 -4.9 0  -4.7 -4.9 0  -4.6 -4.9 0  -4.5 -4.9 0  -4.4 -4.9 0  -4.3 -4.9 0  -4.2 -4.9 0  -4.1 -4.9 0  -4 -4.9 0  -3.9 -4.9 0  -3.8 -4.9 0  -3.7 -4.9 0  -3.6 -4.9 0  -3.5 -4.9 0  -3.4 -4.9 0  -3.3 -4.9 0  -3.2 -4.9 0  -3.1 -4.9 0  -3 -4.9 0  -2.9 -4.9 0  -2.8 -4.9 0  -2.7 -4.9 0  -2.6 -4.9 0  -2.5 -4.9 0  -2.4 -4.9 0  -2.3 -4.9 0  -2.2 -4.9 0  -2.1 -4.9 0  -2 -4.9 0  -1.9 -4.9 0  -1.8 -4.9 0  -1.7 -4.9 0  -1.6 -4.9 0  -1.5 -4.9 0  -1.4 -4.9 0  -1.3 -4.9 0  -1.2 -4.9 0  -1.1 -4.9 0  -1 -4.9 0  -0.9000000000000004 -4.9 0  -0.7999999999999998 -4.9 0  -0.7000000000000002 -4.9 0  -0.5999999999999996 -4.9 0  -0.5 -4.9 0  -0.4000000000000004 -4.9 0  -0.2999999999999998 -4.9 0  -0.2000000000000002 -4.9 0  -0.09999999999999964 -4.9 0  0 -4.9 0  0.09999999999999964 -4.9 0  0.2000000000000002 -4.9 0  0.2999999999999998 -4.9 0  0.4000000000000004 -4.9 0  0.5 -4.9 0  0.5999999999999996 -4.9 0  0.7000000000000002 -4.9 0  0.7999999999999998 -4.9 0  0.9000000000000004 -4.9 0  1 -4.9 0  1.1 -4.9 0  1.2 -4.9 0  1.3 -4.9 0  1.4 -4.9 0  1.5 -4.9 0  1.6 -4.9 0  1.7 -4.9 0  1.8 -4.9 0  1.9 -4.9 0  2 -4.9 0  2.1 -4.9 0  2.2 -4.9 0  2.3 -4.9 0  2.4 -4.9 0  2.5 -4.9 0  2.6 -4.9 0  2.7 -4.9 0  2.8 -4.9 0  2.9 -4.9 0  3 -4.9 0  3.1 -4.9 0  3.199999999999999 -4.9 0  3.300000000000001 -4.9 0  3.4 -4.9 0  3.5 -4.9 0  3.6 -4.9 0  3.699999999999999 -4.9 0  3.800000000000001 -4.9 0  3.9 -4.9 0  4 -4.9 0  4.1 -4.9 0  4.199999999999999 -4.9 0  4.300000000000001 -4.9 0  4.4 -4.9 0  4.5 -4.9 0  4.6 -4.9 0  4.699999999999999 -4.9 0  4.800000000000001 -4.9 0  4.9 -4.9 0  5 -4.9 0  -5 -4.8 0  -4.9 -4.8 0  -4.8 -4.8 0  -4.7 -4.8 0  -4.6 -4.8 0  -4.5 -4.8 0  -4.4 -4.8 0  -4.3 -4.8 0  -4.2 -4.8 0  -4.1 -4.8 0  -4 -4.8 0  -3.9 -4.8 0  -3.8 -4.8 0  -3.7 -4.8 0  -3.6 -4.8 0  -3.5 -4.8 0  -3.4 -4.8 0  -3.3 -4.8 0  -3.2 -4.8 0  -3.1 -4.8 0  -3 -4.8 0  -2.9 -4.8 0  -2.8 -4.8 0  -2.7 -4.8 0  -2.6 -4.8 0  -2.5 -4.8 0  -2.4 -4.8 0  -2.3 -4.8 0  -2.2 -4.8 0  -2.1 -4.8 0  -2 -4.8 0  -1.9 -4.8 0  -1.8 -4.8 0  -1.7 -4.8 0  -1.6 -4.8 0  -1.5 -4.8 0  -1.4 -4.8 0  -1.3 -4.8 0  -1.2 -4.8 0  -1.1 -4.8 0  -1 -4.8 0  -0.9000000000000004 -4.8 0  -0.7999999999999998 -4.8 0  -0.7000000000000002 -4.8 0  -0.5999999999999996 -4.8 0  -0.5 -4.8 0  -0.4000000000000004 -4.8 0  -0.2999999999999998 -4.8 0  -0.2000000000000002 -4.8 0  -0.09999999999999964 -4.8 0  0 -4.8 0  0.09999999999999964 -4.8 0  0.2000000000000002 -4.8 0  0.2999999999999998 -4.8 0  0.4000000000000004 -4.8 0  0.5 -4.8 0  0.5999999999999996 -4.8 0  0.7000000000000002 -4.8 0  0.7999999999999998 -4.8 0  0.9000000000000004 -4.8 0  1 -4.8 0  1.1 -4.8 0  1.2 -4.8 0  1.3 -4.8 0  1.4 -4.8 0  1.5 -4.8 0  1.6 -4.8 0  1.7 -4.8 0  1.8 -4.8 0  1.9 -4.8 0  2 -4.8 0  2.1 -4.8 0  2.2 -4.8 0  2.3 -4.8 0  2.4 -4.8 0  2.5 -4.8 0  2.6 -4.8 0  2.7 -4.8 0  2.8 -4.8 0  2.9 -4.8 0  3 -4.8 0  3.1 -4.8 0  3.199999999999999 -4.8 0  3.300000000000001 -4.8 0  3.4 -4.8 0  3.5 -4.8 0  3.6 -4.8 0  3.699999999999999 -4.8 0  3.800000000000001 -4.8 0  3.9 -4.8 0  4 -4.8 0  4.1 -4.8 0  4.199999999999999 -4.8 0  4.300000000000001 -4.8 0  4.4 -4.8 0  4.5 -4.8 0  4.6 -4.8 0  4.699999999999999 -4.8 0  4.800000000000001 -4.8 0  4.9 -4.8 0  5 -4.8 0  -5 -4.7 0  -4.9 -4.7 0  -4.8 -4.7 0  -4.7 -4.7 0  -4.6 -4.7 0  -4.5 -4.7 0  -4.4 -4.7 0  -4.3 -4.7 0  -4.2 -4.7 0  -4.1 -4.7 0  -4 -4.7 0  -3.9 -4.7 0  -3.8 -4.7 0  -3.7 -4.7 0  -3.6 -4.7 0  -3.5 -4.7 0  -3.4 -4.7 0  -3.3 -4.7 0  -3.2 -4.7 0  -3.1 -4.7 0  -3 -4.7 0  -2.9 -4.7 0  -2.8 -4.7 0  -2.7 -4.7 0  -2.6 -4.7 0  -2.5 -4.7 0  -2.4 -4.7 0  -2.3 -4.7 0  -2.2 -4.7 0  -2.1 -4.7 0  -2 -4.7 0  -1.9 -4.7 0  -1.8 -4.7 0  -1.7 -4.7 0  -1.6 -4.7 0  -1.5 -4.7 0  -1.4 -4.7 0  -1.3 -4.7 0  -1.2 -4.7 0  -1.1 -4.7 0  -1 -4.7 0  -0.9000000000000004 -4.7 0  -0.7999999999999998 -4.7 0  -0.7000000000000002 -4.7 0  -0.5999999999999996 -4.7 0  -0.5 -4.7 0  -0.4000000000000004 -4.7 0  -0.2999999999999998 -4.7 0  -0.2000000000000002 -4.7 0  -0.09999999999999964 -4.7 0  0 -4.7 0  0.09999999999999964 -4.7 0  0.2000000000000002 -4.7 0  0.2999999999999998 -4.7 0  0.4000000000000004 -4.7 0  0.5 -4.7 0  0.5999999999999996 -4.7 0  0.7000000000000002 -4.7 0  0.7999999999999998 -4.7 0  0.9000000000000004 -4.7 0  1 -4.7 0  1.1 -4.7 0  1.2 -4.7 0  1.3 -4.7 0  1.4 -4.7 0  1.5 -4.7 0  1.6 -4.7 0  1.7 -4.7 0  1.8 -4.7 0  1.9 -4.7 0  2 -4.7 0  2.1 -4.7 0  2.2 -4.7 0  2.3 -4.7 0  2.4 -4.7 0  2.5 -4.7 0  2.6 -4.7 0  2.7 -4.7 0  2.8 -4.7 0  2.9 -4.7 0  3 -4.7 0  3.1 -4.7 0  3.199999999999999 -4.7 0  3.300000000000001 -4.7 0  3.4 -4.7 0  3.5 -4.7 0  3.6 -4.7 0  3.699999999999999 -4.7 0  3.800000000000001 -4.7 0  3.9 -4.7 0  4 -4.7 0  4.1 -4.7 0  4.199999999999999 -4.7 0  4.300000000000001 -4.7 0  4.4 -4.7 0  4.5 -4.7 0  4.6 -4.7 0  4.699999999999999 -4.7 0  4.800000000000001 -4.7 0  4.9 -4.7 0  5 -4.7 0  -5 -4.6 0  -4.9 -4.6 0  -4.8 -4.6 0  -4.7 -4.6 0  -4.6 -4.6 0  -4.5 -4.6 0  -4.4 -4.6 0  -4.3 -4.6 0  -4.2 -4.6 0  -4.1 -4.6 0  -4 -4.6 0  -3.9 -4.6 0  -3.8 -4.6 0  -3.7 -4.6 0  -3.6 -4.6 0  -3.5 -4.6 0  -3.4 -4.6 0  -3.3 -4.6 0  -3.2 -4.6 0  -3.1 -4.6 0  -3 -4.6 0  -2.9 -4.6 0  -2.8 -4.6 0  -2.7 -4.6 0  -2.6 -4.6 0  -2.5 -4.6 0  -2.4 -4.6 0  -2.3 -4.6 0  -2.2 -4.6 0  -2.1 -4.6 0  -2 -4.6 0  -1.9 -4.6 0  -1.8 -4.6 0  -1.7 -4.6 0  -1.6 -4.6 0  -1.5 -4.6 0  -1.4 -4.6 0  -1.3 -4.6 0  -1.2 -4.6 0  -1.1 -4.6 0  -1 -4.6 0  -0.9000000000000004 -4.6 0  -0.7999999999999998 -4.6 0  -0.7000000000000002 -4.6 0  -0.5999999999999996 -4.6 0  -0.5 -4.6 0  -0.4000000000000004 -4.6 0  -0.2999999999999998 -4.6 0  -0.2000000000000002 -4.6 0  -0.09999999999999964 -4.6 0  0 -4.6 0  0.09999999999999964 -4.6 0  0.2000000000000002 -4.6 0  0.2999999999999998 -4.6 0  0.4000000000000004 -4.6 0  0.5 -4.6 0  0.5999999999999996 -4.6 0  0.7000000000000002 -4.6 0  0.7999999999999998 -4.6 0  0.9000000000000004 -4.6 0  1 -4.6 0  1.1 -4.6 0  1.2 -4.6 0  1.3 -4.6 0  1.4 -4.6 0  1.5 -4.6 0  1.6 -4.6 0  1.7 -4.6 0  1.8 -4.6 0  1.9 -4.6 0  2 -4.6 0  2.1 -4.6 0  2.2 -4.6 0  2.3 -4.6 0  2.4 -4.6 0  2.5 -4.6 0  2.6 -4.6 0  2.7 -4.6 0  2.8 -4.6 0  2.9 -4.6 0  3 -4.6 0  3.1 -4.6 0  3.199999999999999 -4.6 0  3.300000000000001 -4.6 0  3.4 -4.6 0  3.5 -4.6 0  3.6 -4.6 0  3.699999999999999 -4.6 0  3.800000000000001 -4.6 0  3.9 -4.6 0  4 -4.6 0  4.1 -4.6 0  4.199999999999999 -4.6 0  4.300000000000001 -4.6 0  4.4 -4.6 0  4.5 -4.6 0  4.6 -4.6 0  4.699999999999999 -4.6 0  4.800000000000001 -4.6 0  4.9 -4.6 0  5 -4.6 0  -5 -4.5 0  -4.9 -4.5 0  -4.8 -4.5 0  -4.7 -4.5 0  -4.6 -4.5 0  -4.5 -4.5 0  -4.4 -4.5 0  -4.3 -4.5 0  -4.2 -4.5 0  -4.1 -4.5 0  -4 -4.5 0  -3.9 -4.5 0  -3.8 -4.5 0  -3.7 -4.5 0  -3.6 -4.5 0  -3.5 -4.5 0  -3.4 -4.5 0  -3.3 -4.5 0  -3.2 -4.5 0  -3.1 -4.5 0  -3 -4.5 0  -2.9 -4.5 0  -2.8 -4.5 0  -2.7 -4.5 0  -2.6 -4.5 0  -2.5 -4.5 0  -2.4 -4.5 0  -2.3 -4.5 0  -2.2 -4.5 0  -2.1 -4.5 0  -2 -4.5 0  -1.9 -4.5 0  -1.8 -4.5 0  -1.7 -4.5 0  -1.6 -4.5 0  -1.5 -4.5 0  -1.4 -4.5 0  -1.3 -4.5 0  -1.2 -4.5 0  -1.1 -4.5 0  -1 -4.5 0  -0.9000000000000004 -4.5 0  -0.7999999999999998 -4.5 0  -0.7000000000000002 -4.5 0  -0.5999999999999996 -4.5 0  -0.5 -4.5 0  -0.4000000000000004 -4.5 0  -0.2999999999999998 -4.5 0  -0.2000000000000002 -4.5 0  -0.09999999999999964 -4.5 0  0 -4.5 0  0.09999999999999964 -4.5 0  0.2000000000000002 -4.5 0  0.2999999999999998 -4.5 0  0.4000000000000004 -4.5 0  0.5 -4.5 0  0.5999999999999996 -4.5 0  0.7000000000000002 -4.5 0  0.7999999999999998 -4.5 0  0.9000000000000004 -4.5 0  1 -4.5 0  1.1 -4.5 0  1.2 -4.5 0  1.3 -4.5 0  1.4 -4.5 0  1.5 -4.5 0  1.6 -4.5 0  1.7 -4.5 0  1.8 -4.5 0  1.9 -4.5 0  2 -4.5 0  2.1 -4.5 0  2.2 -4.5 0  2.3 -4.5 0  2.4 -4.5 0  2.5 -4.5 0  2.6 -4.5 0  2.7 -4.5 0  2.8 -4.5 0  2.9 -4.5 0  3 -4.5 0  3.1 -4.5 0  3.199999999999999 -4.5 0  3.300000000000001 -4.5 0  3.4 -4.5 0  3.5 -4.5 0  3.6 -4.5 0  3.699999999999999 -4.5 0  3.800000000000001 -4.5 0  3.9 -4.5 0  4 -4.5 0  4.1 -4.5 0  4.199999999999999 -4.5 0  4.300000000000001 -4.5 0  4.4 -4.5 0  4.5 -4.5 0  4.6 -4.5 0  4.699999999999999 -4.5 0  4.800000000000001 -4.5 0  4.9 -4.5 0  5 -4.5 0  -5 -4.4 0  -4.9 -4.4 0  -4.8 -4.4 0  -4.7 -4.4 0  -4.6 -4.4 0  -4.5 -4.4 0  -4.4 -4.4 0  -4.3 -4.4 0  -4.2 -4.4 0  -4.1 -4.4 0  -4 -4.4 0  -3.9 -4.4 0  -3.8 -4.4 0  -3.7 -4.4 0  -3.6 -4.4 0  -3.5 -4.4 0  -3.4 -4.4 0  -3.3 -4.4 0  -3.2 -4.4 0  -3.1 -4.4 0  -3 -4.4 0  -2.9 -4.4 0  -2.8 -4.4 0  -2.7 -4.4 0  -2.6 -4.4 0  -2.5 -4.4 0  -2.4 -4.4 0  -2.3 -4.4 0  -2.2 -4.4 0  -2.1 -4.4 0  -2 -4.4 0  -1.9 -4.4 0  -1.8 -4.
[...]
<PointData  Vectors="f_23"> 
<DataArray  type="Float64"  Name="f_23"  NumberOfComponents="3" format="ascii">1.5000000001573566e-01 0.0000000000000000e+00 0.0000000000000000e+00  1.5000000004031247e-01 1.9594149153231343e-21 0.0000000000000000e+00  1.5000000018814016e-01 3.0452456763890242e-20 0.0000000000000000e+00  1.5000000071271019e-01 4.0685882992987993e-19 0.0000000000000000e+00  1.5000000245534470e-01 3.8615007710108501e-18 0.0000000000000000e+00  1.5000000737212599e-01 2.9896641554568894e-17 0.0000000000000000e+00  1.5000001983090985e-01 1.8453637970695979e-16 0.0000000000000000e+00  1.5000004829836189e-01 8.8941458829393461e-16 0.0000000000000000e+00  1.5000010574949066e-01 3.3698389863619350e-15 0.0000000000000000e+00  1.5000020743520681e-01 9.8251334657918843e-15 0.0000000000000000e+00  1.5000036310742598e-01 2.0858252729345523e-14 0.0000000000000000e+00  1.5000056001483050e-01 2.9235175458271433e-14 0.0000000000000000e+00  1.5000074344161773e-01 2.0676024315164270e-14 0.0000000000000000e+00  1.5000081437145987e-01 8.1073371206227487e-16 0.0000000000000000e+00  1.5000065732860715e-01 3.3476878948599956e-14 0.0000000000000000e+00  1.5000019964721176e-01 1.9985338348803344e-13 0.0000000000000000e+00  1.4999948748597380e-01 4.6051100039208663e-13 0.0000000000000000e+00  1.4999871670258275e-01 6.2750595672631548e-13 0.0000000000000000e+00  1.4999815940997030e-01 5.0730282232384290e-13 0.0000000000000000e+00  1.4999805527201313e-01 1.2322097321893642e-13 0.0000000000000000e+00  1.4999856094123806e-01 1.1042487820962520e-13 0.0000000000000000e+00  1.4999965720805389e-01 1.3290204625800951e-12 0.0000000000000000e+00  1.5000095939348451e-01 2.6233971936126772e-12 0.0000000000000000e+00  1.5000176015718572e-01 1.5496478107508930e-12 0.0000000000000000e+00  1.5000155516762392e-01 1.8889786655848777e-14 0.0000000000000000e+00  1.5000060833384313e-01 7.0983122132832259e-13 0.0000000000000000e+00  1.4999982676163412e-01 8.4700915447225584e-13 0.0000000000000000e+00  1.4999985519435130e-01 1.1374015003028435e-13 0.0000000000000000e+00  1.5000035160697495e-01 1.1306352541908303e-14 0.0000000000000000e+00  1.5000058002176112e-01 5.6355395383555855e-14 0.0000000000000000e+00  1.5000054813217115e-01 9.7733325699630783e-14 0.0000000000000000e+00  1.5000055777290355e-01 2.7321784679302231e-15 0.0000000000000000e+00  1.5000010429670160e-01 4.2259158736905139e-13 0.0000000000000000e+00  1.4999914635753828e-01 5.0952568530417887e-13 0.0000000000000000e+00  1.4999932959071058e-01 1.5812479182161086e-13 0.0000000000000000e+00  1.5000094635757233e-01 1.0163359248867790e-12 0.0000000000000000e+00  1.5000113978687013e-01 1.1589061562411869e-14 0.0000000000000000e+00  1.4999913078230728e-01 1.1453354112901922e-12 0.0000000000000000e+00  1.4999868207199996e-01 9.8802924379878941e-15 0.0000000000000000e+00  1.5000081755399280e-01 9.6687437855861703e-13 0.0000000000000000e+00  1.5000124451900090e-01 2.7969604718386879e-14 0.0000000000000000e+00  1.4999917141406785e-01 7.1366940053167880e-13 0.0000000000000000e+00  1.4999901139843133e-01 1.5962368799830946e-14 0.0000000000000000e+00  1.5000086271855204e-01 4.8874259799097426e-13 0.0000000000000000e+00  1.5000063333499894e-01 7.3145405617880475e-16 0.0000000000000000e+00  1.4999914944087070e-01 3.0911259977607969e-13 0.0000000000000000e+00  1.4999973871803560e-01 6.9391020491685105e-15 0.0000000000000000e+00  1.5000074496489607e-01 1.6899488132260462e-13 0.0000000000000000e+00  1.4999994856585233e-01 2.8818760855972054e-14 0.0000000000000000e+00  1.4999945262562014e-01 6.9703630650437638e-14 0.0000000000000000e+00  1.5000024811539564e-01 4.4679965869782584e-14 0.0000000000000000e+00  1.5000030450609952e-01 1.5711811119182654e-14 0.0000000000000000e+00  1.4999969171529329e-01 4.0840799303774924e-14 0.0000000000000000e+00  1.4999991692208944e-01 1.7614665692276109e-16 0.0000000000000000e+00  1.5000025498419628e-01 2.2918947302187008e-14 0.0000000000000000e+00  1.4999993718721613e-01 3.1297411241179893e-15 0.0000000000000000e+00  1.4999985653926567e-01 6.5938532306642207e-15 0.0000000000000000e+00  1.5000011507055472e-01 5.9978546344044244e-15 0.0000000000000000e+00  1.5000003494100334e-01 3.0152459894954160e-16 0.0000000000000000e+00  1.4999990559025095e-01 3.7842349664753232e-15 0.0000000000000000e+00  1.5000003016703176e-01 4.5653524028077324e-16 0.0000000000000000e+00  1.5000004308653661e-01 8.3668864464060911e-16 0.0000000000000000e+00  1.4999995530110058e-01 9.4284194892617828e-16 0.0000000000000000e+00  1.5000000026149374e-01 2.6526877809254530e-19 0.0000000000000000e+00  1.5000002762072437e-01 4.0402825070637440e-16 0.0000000000000000e+00  1.4999998203967566e-01 1.5406806236315873e-16 0.0000000000000000e+00  1.4999999499504799e-01 2.1458638130496697e-17 0.0000000000000000e+00  1.5000001428536980e-01 1.1904768709038270e-16 0.0000000000000000e+00  1.4999999309108841e-01 2.1461041239440692e-17 0.0000000000000000e+00  1.4999999636893119e-01 1.2136484412701963e-17 0.0000000000000000e+00  1.5000000675144495e-01 2.8974712921931223e-17 0.0000000000000000e+00  1.4999999711752032e-01 3.5088091674735397e-18 0.0000000000000000e+00  1.4999999822529189e-01 3.4206641388801561e-18 0.0000000000000000e+00  1.5000000306854472e-01 6.6432150449095199e-18 0.0000000000000000e+00  1.4999999859412030e-01 8.8429497454760465e-19 0.0000000000000000e+00  1.4999999935839420e-01 6.1510225761113576e-19 0.0000000000000000e+00  1.5000000134984184e-01 1.4942343473330467e-18 0.0000000000000000e+00  1.4999999922316176e-01 3.3436671362956477e-19 0.0000000000000000e+00  1.4999999989550564e-01 4.9971784157924602e-20 0.0000000000000000e+00  1.5000000054111262e-01 2.9786484604625208e-19 0.0000000000000000e+00  1.4999999956839191e-01 1.3565125657303305e-19 0.0000000000000000e+00  1.5000000009025216e-01 5.2444652379516576e-22 0.0000000000000000e+00  1.5000000015977744e-01 3.6931907249354380e-20 0.0000000000000000e+00  1.4999999979900897e-01 3.7375189614654889e-20 0.0000000000000000e+00  1.5000000009821152e-01 4.4738655525242289e-21 0.0000000000000000e+00  1.5000000002744543e-01 3.7913125383809860e-21 0.0000000000000000e+00  1.4999999990360524e-01 1.4238308384338214e-20 0.0000000000000000e+00  1.5000000009562772e-01 1.0666837523727247e-20 0.0000000000000000e+00  1.4999999994613133e-01 2.4498568414658743e-21 0.0000000000000000e+00  1.5000000000673813e-01 1.2421615357517093e-23 0.0000000000000000e+00  1.5000000002400046e-01 1.2022477826247890e-21 0.0000000000000000e+00  1.4999999996626440e-01 1.7333524100197477e-21 0.0000000000000000e+00  1.5000000002850036e-01 1.0718082156337715e-21 0.0000000000000000e+00  1.4999999998289446e-01 3.3348751414869194e-22 0.0000000000000000e+00  1.5000000000619648e-01 2.9880897227704936e-23 0.0000000000000000e+00  1.5000000000128125e-01 7.5164823388586681e-24 0.0000000000000000e+00  1.4999999999546446e-01 3.8743471765923658e-23 0.0000000000000000e+00  1.5000000000543212e-01 3.9701844156868201e-23 0.0000000000000000e+00  1.4999999999499486e-01 2.6781517751221050e-23 0.0000000000000000e+00  1.5000000000267852e-01 7.5723357340536852e-24 0.0000000000000000e+00  1.4999999999458397e-01 0.0000000000000000e+00 0.0000000000000000e+00  1.5000000004031233e-01 0.0000000000000000e+00 1.9593650761682496e-21  1.4999999995619426e-01 7.4680157917195633e-23 7.4668888896996714e-23  1.4999999989543858e-01 1.2021270351979805e-20 7.9827535311678115e-21  1.4999999954829996e-01 1.6611380551562996e-19 9.1054317848837679e-20  1.4999999838470848e-01 1.8394554900616274e-18 1.2598269054764537e-18  1.4999999485237511e-01 1.5452094984576468e-17 1.2768468367517746e-17  1.4999998555245969e-01 1.0643961836079916e-16 1.0194598134240665e-16  1.4999996332636462e-01 5.7298402283266961e-16 6.5839354457733867e-16  1.4999991601056442e-01 2.4112885209024636e-15 3.4386220021381265e-15  1.4999982755829849e-01 7.9016336636650737e-15 1.4350959185231982e-14  1.4999968347137024e-01 1.9364194616673570e-14 4.7418701900445074e-14  1.4999948467115062e-01 3.2816725548072078e-14 1.2153034573398206e-13  1.4999926956354268e-01 3.2597922503988146e-14 2.3160229481621643e-13  1.4999912688076497e-01 9.3963338435143630e-15 3.0368139964144954e-13  1.4999917857641429e-01 8.7605261532998528e-15 2.2797006824547256e-13  1.4999952853023477e-01 1.3407686196671713e-13 4.3063615297120460e-14  1.5000018467876616e-01 4.0590772248641045e-13 5.2252604665964785e-14  1.5000099564313554e-01 6.4816951039394886e-13 4.7787217143195159e-13  1.5000168535607447e-01 6.3006701149881515e-13 9.7069587296834883e-13  1.5000198360909145e-01 2.8498517532135303e-13 9.3451402464640020e-13  1.5000171536684434e-01 1.3964736610998487e-15 3.5833064054096025e-13  1.5000083717627430e-01 7.1026779788264705e-13 2.3377405447901712e-15  1.4999957282663462e-01 2.2887490897410138e-12 5.5441962277203462e-13  1.4999851126455854e-01 2.2939975282102220e-12 1.2083952576486484e-12  1.4999828621762010e-01 4.3189225080004902e-13 6.9838747775842154e-13  1.4999897224000647e-01 2.3539542177971259e-13 2.4945317448099201e-14  1.4999988979544948e-01 9.5736078983226757e-13 1.0896068953899510e-13  1.5000019959063274e-01 3.5180544603069138e-13 5.2293250509841509e-14  1.4999980029196544e-01 1.1914444965865717e-15 4.4483696760441125e-14  1.4999939503728479e-01 3.3479141347778421e-14 2.0406849199626456e-13  1.4999939779652086e-01 7.5137626150081299e-14 1.6604574200333735e-13  1.4999946089476998e-01 4.4037829599392047e-14 1.0444072933718928e-13  1.4999963820616255e-01 1.4493939957845443e-13 1.6621504289589443e-15  1.5000044076078201e-01 7.0445584014717539e-13 2.8578075209638925e-13  1.5000094240686510e-01 7.9651936510123236e-15 2.5709560428993276e-13  1.4999977251770258e-01 9.1223250435920353e-13 2.8773370322103983e-13  1.4999861704921272e-01 1.8376168504404967e-13 8.0778553728154140e-13  1.4999994401956104e-01 7.7123889576691576e-13 1.6807474905382410e-13  1.5000154159151130e-01 3.6342823556064813e-13 1.1518367839483387e-12  1.5000016430713017e-01 5.1827320846418166e-13 1.1203031324201414e-13  1.4999848289060283e-01 3.6798370600574981e-13 1.1313925886747303e-12  1.4999992270884796e-01 3.3542809324869328e-13 1.2685211292130564e-13  1.5000136187188948e-01 2.5751465465836389e-13 8.4021343759324369e-13  1.4999986077790495e-01 2.3094219902342476e-13 1.9664225067176009e-13  1.4999889292372984e-01 1.3271282288494245e-13 4.6167461565768689e-13  1.5000037666781083e-01 1.7126558209258138e-13 2.7793913381241392e-13  1.5000077915997961e-01 4.6601877613846416e-14 1.5874558461705517e-13  1.4999946342259080e-01 1.2732342665866736e-13 2.9673812618453100e-13  1.4999957688766985e-01 6.9108197967195280e-15 1.5696709937290797e-14  1.5000056437395931e-01 8.5125061238539154e-14 2.2055890248857908e-13  1.5000010329863583e-01 4.6126326848959231e-16 7.5731723484896764e-15  1.4999953744321159e-01 4.5092948347147524e-14 1.0229365088873854e-13  1.5000011889803072e-01 7.8606409013535643e-15 4.0427042072943393e-14  1.5000028242563815e-01 1.5517426600048091e-14 2.1096356587312680e-14  1.4999978679282711e-01 1.2907915156909396e-14 4.4760823674149069e-14  1.4999990287544399e-01 1.8626483879979877e-15 3.7010161401349465e-18  1.5000019452238950e-01 1.0040521177853285e-14 2.1981498435590321e-14  1.4999996746617536e-01 2.4296695781334875e-16 5.5595582273449122e-15  1.4999988681274307e-01 3.9043216433816077e-15 3.6742751930140035e-15  1.5000008268336087e-01 1.7886020717233920e-15 6.8557530277202066e-15  1.5000002766138731e-01 4.1509027466578419e-16 4.8345669322742201e-17  1.4999993084325067e-01 1.5748811726684224e-15 2.4670505759695298e-15  1.5000002332807680e-01 8.0324118955265320e-17 1.1739762230917663e-15  1.5000002936241658e-01 4.3792042952718640e-16 1.0718044002834093e-16  1.4999996707328517e-01 3.4602359980370660e-16 7.8907390956336668e-16  1.5000000301744984e-01 3.4512465835829216e-18 1.4107977402262861e-16  1.5000001817805722e-01 1.7273253031521453e-16 8.7836757824255179e-17  1.4999998587633850e-01 5.7576301829270107e-17 1.8763861606554939e-16  1.4999999882608789e-01 9.5490591176566730e-18 1.5599100961178035e-17  1.5000000928753851e-01 4.8083397567632880e-17 2.9252113868147201e-17  1.4999999395177169e-01 9.5954868155154215e-18 4.0390900046248486e-17  1.4999999900692695e-01 3.9380447155357736e-18 2.4980439651432355e-18  1.5000000430725946e-01 1.1631228680062881e-17 6.4511733839383893e-18  1.4999999723594190e-01 2.0818303159391889e-18 8.6201955497780811e-18  1.4999999968622052e-01 8.5523698617986879e-19 7.7505754722393452e-19  1.5000000185886961e-01 2.6602016567921469e-18 9.7971611133436272e-19  1.4999999863846905e-01 6.5034088935402704e-19 1.8201358120517329e-18  1.5000000008260095e-01 8.5316044108764401e-20 3.4739947380885983e-19  1.5000000071333117e-01 5.5150972734962101e-19 6.8838552255661290e-20  1.4999999931741911e-01 2.4542190574341283e-19 3.3401961488223741e-19  1.5000000021364343e-01 2.9471684457871621e-22 1.4522268173227881e-19  1.5000000018700960e-01 7.2916886917430012e-20 6.4315823799389887e-22  1.4999999970941522e-01 6.5677778987687665e-20 3.7787199853327034e-20  1.5000000016248211e-01 5.5010236864189053e-21 4.1009242778893042e-20  1.5000000001943778e-01 9.3008516132260831e-21 7.2403753729213945e-21  1.4999999987323392e-01 2.5728048784453116e-20 1.4684580563466202e-21  1.5000000013181622e-01 1.5432428098453276e-20 9.8300739193425948e-21  1.4999999992548604e-01 2.0567423297552398e-21 8.6342689664117594e-21  1.5000000000819144e-01 5.0341632143185059e-22 2.5663812430664403e-21  1.5000000003419506e-01 2.9831334878904974e-21 3.6761839910429192e-23  1.4999999995402802e-01 2.8860045019721092e-21 4.7762843472520471e-22  1.5000000003665936e-01 1.2219632160449125e-21 9.0529245472696810e-22  1.4999999998043864e-01 1.7651076898646396e-22 6.1843621404168758e-22  1.5000000000430358e-01 6.7914599763735223e-24 2.0787554952306789e-22  1.5000000000509492e-01 1.0918194943136729e-22 2.1683591998931288e-23  1.4999999999121391e-01 1.4405568038762554e-22 3.3111621433452378e-24  1.5000000000832694e-01 9.8127210915612116e-23 2.0202044134648671e-23  1.4999999999336500e-01 4.4336964335128615e-23 2.6133188828602656e-23  1.5000000000432379e-01 1.7407033853639991e-23 1.7278087050443040e-23  1.4999999999852798e-01 3.4254605846710143e-24 3.4253085977339877e-24  1.5000000000267816e-01 0.0000000000000000e+00 7.5709358019280538e-24  1.5000000018814072e-01 0.0000000000000000e+00 3.0452440588393419e-20  1.4999999989543869e-01 7.9827479469313227e-21 1.2021249674206686e-20  1.5000000013655510e-01 3.2836112614620205e-24 3.2833371599334243e-24  1.5000000025449020e-01 9.4747893910671042e-20 1.0134654036283608e-19  1.5000000112080653e-01 9.4269847651233442e-19 1.0655488479187925e-18  1.5000000372509009e-01 9.3748487154173156e-18 1.3697788341867329e-17  1.5000001116079081e-01 7.0911625962990172e-17 1.2564304914434341e-16  1.5000002969094325e-01 4.3866832749635343e-16 9.2803594465125498e-16  1.5000007173854937e-01 2.0921580192192332e-15 5.5725627174420849e-15  1.5000015571045600e-01 7.8129029303433453e-15 2.6941065049546092e-14  1.5000030237916251e-01 2.2327480124269537e-14 1.0360837979144576e-13  1.5000052308565531e-01 4.6026689022338727e-14 3.1391356094799824e-13  1.5000079588296383e-01 6.1111117171284357e-14 7.2851231160876036e-13  1.5000103882538268e-01 3.8239968105047636e-14 1.2293029281577215e-12  1.5000111287284276e-01 2.0329684984124761e-16 1.3686665151218472e-12  1.5000087016172492e-01 8.7392108223295138e-14 7.7181520967864041e-13  1.5000024009817492e-01 4.2279287147579407e-13 3.2570735160020839e-14  1.4999932689813963e-01 8.2573404764066751e-13 5.8905052924091612e-13  1.4999842944833244e-01 9.2164260830846096e-13 2.5757330061394230e-12  1.4999789885861509e-01 5.6873012121822143e-13 3.8539614109060321e-12  1.4999795846160344e-01 6.1878667539738307e-14 2.8017577887692936e-12  1.4999867035372866e-01 3.0570368710106868e-13 5.9838136729713228e-13  1.4999990847505751e-01 1.9978285325130805e-12 2.7096738398004146e-13  1.5000120213907100e-01 3.2456774869696283e-12 2.8085130815235198e-12  1.5000183444542867e-01 1.5798172404808979e-12 3.8745884041636494e-12  1.5000143685695871e-01 1.6356306600464683e-18 1.3356366299900058e-12  1.5000045690728037e-01 9.5686869629201811e-13 2.5748568524575143e-15  1.4999983012429891e-01 8.3263017624466717e-13 3.0360037871705731e-13  1.5000006018081213e-01 5.1624126961428602e-14 4.7003865388641968e-16  1.5000065074641200e-01 2.5938515335709932e-14 5.2210781782494261e-13  1.5000081384647584e-01 4.7905520200036332e-14 7.6661557574577945e-13  1.5000063766561861e-01 8.2744352380506005e-14 4.9357491159473503e-13  1.5000052036156863e-01 4.9344479018159648e-15 2.6681817103221183e-13  1.4999995851924033e-01 7.6553159763529085e-13 8.5344232146910590e-14  1.4999901784288375e-01 4.8527882183260786e-13 1.5753346029739319e-12  1.4999950044351329e-01 5.4053768619183437e-13 9.4653257029055987e-14  1.5000130239522730e-01 1.1861784202191960e-12 2.9890535593729880e-12  1.5000105042902931e-01 2.4531073369837687e-13 8.8092133087565635e-13  1.4999863827052912e-01 1.4943264433344073e-12 3.4282589418209273e-12  1.4999871939793025e-01 7.5496016408309890e-14 1.4822696179473251e-12  1.5000136857540680e-01 1.3037165217477060e-12 3.4067504468205819e-12  1.5000119085538310e-01 2.8386098291821754e-14 1.2490693052456067e-12  1.4999863408196543e-01 9.2399726837752047e-13 3.1793712990568137e-12  1.4999914637764411e-01 2.6128666005138377e-14 5.3052145682397113e-13  1.5000132212138081e-01 5.6435008604375688e-13 2.7143901837660177e-12  1.5000039333253953e-01 4.3723368270783588e-14 4.3069082404949598e-14  1.4999882328245481e-01 2.9750535182350886e-13 1.9309505296263726e-12  1.5000005573493444e-01 6.9739852960087989e-14 7.7088541651771831e-14  1.5000090449594508e-01 1.2532191976531289e-13 9.9687220179531618e-13  1.4999962054134819e-01 8.6064771507280268e-14 3.5273450969278062e-13  1.4999945537281895e-01 3.3112869788832555e-14 2.8554014633774977e-13  1.5000051310820273e-01 7.8489574915939041e-14 4.5840018654973341e-13  1.5000018560393769e-01 1.5537046937606870e-15 1.1486762488802450e-14  1.4999953920628120e-01 5.0104092398778121e-14 3.0215459544706458e-13  1.5000007955381056e-01 3.5251350318669806e-15 3.2067999535607849e-14  1.5000028991868214e-01 1.9329632126852385e-14 9.3972633991223407e-14  1.4999980022315049e-01 1.0883270562759195e-14 7.8052416530879976e-14  1.4999990273918684e-01 2.6005546111207583e-15 4.5485564228464174e-15  1.5000018719195216e-01 9.6918844186263762e-15 5.1206235314321078e-14  1.4999996260589840e-01 2.0986230944010787e-16 6.3528433876723652e-15  1.4999989759178772e-01 3.6161136077290158e-15 1.0878417811744837e-14  1.5000008391334632e-01 1.8522831827544905e-15 1.2833897840805111e-14  1.5000001566273249e-01 2.5011650300210188e-16 1.4731389219819738e-18  1.4999993696629405e-01 1.4469821499856732e-15 5.1123448519528998e-15  1.5000003002891468e-01 1.6752353452867367e-16 2.1609273174953787e-15  1.5000001977625030e-01 2.7567275021626094e-16 2.0024778749482010e-16  1.4999996826747450e-01 3.6962870691403687e-16 1.4684729841890721e-15  1.5000000958961010e-01 5.3736923633153667e-18 3.1693818550130909e-16  1.5000001255578951e-01 1.1256253340616197e-16 1.1501680305906932e-16  1.4999998520163868e-01 8.1483857713593017e-17 3.4396956851581094e-16  1.5000000336298805e-01 7.0835796031282295e-22 5.3928036568540263e-17  1.5000000627029567e-01 3.1624203762944897e-17 3.0019369247823748e-17  1.4999999319034624e-01 1.8552127877186409e-17 7.4232984840601131e-17  1.5000000166497510e-01 3.6513433435463543e-21 1.3084735635051520e-17  1.5000000265231708e-01 7.2065380587014735e-18 4.5109019233706050e-18  1.4999999684561929e-01 4.7753218653786674e-18 1.5111796455288876e-17  1.5000000110739004e-01 4.7860508094997797e-20 4.2776394734375652e-18  1.5000000088587223e-01 1.3080483215720918e-18 2.1614690916255077e-19  1.4999999856660276e-01 1.3616589501067530e-18 2.6164523676816606e-18  1.5000000079395176e-01 1.5763262571165157e-19 1.4521162591592089e-18  1.5000000007725553e-01 9.1453543115473639e-20 3.5503339780500642e-20  1.4999999949376158e-01 2.4097052051133900e-19 2.6059196233840473e-19  1.5000000041