<?xml version="1.0"?>
<VTKFile type="UnstructuredGrid"  version="0.1"  >
<UnstructuredGrid>
<Piece  NumberOfPoints="10201" NumberOfCells="20000">
<Points>
<DataArray  type="Float64"  NumberOfComponents="3"  format="ascii">-5 -5 0  -4.9 -5 0  -4.8 -5 0  -4.7 -5 0  -4.6 -5 0  -4.5 -5 0  -4.4 -5 0  -4.3 -5 0  -4.2 -5 0  -4.1 -5 0  -4 -5 0  -3.9 -5 0  -3.8 -5 0  -3.7 -5 0  -3.6 -5 0  -3.5 -5 0  -3.4 -5 0  -3.3 -5 0  -3.2 -5 0  -3.1 -5 0  -3 -5 0  -2.9 -5 0  -2.8 -5 0  -2.7 -5 0  -2.6 -5 0  -2.5 -5 0  -2.4 -5 0  -2.3 -5 0  -2.2 -5 0  -2.1 -5 0  -2 -5 0  -1.9 -5 0  -1.8 -5 0  -1.7 -5 0  -1.6 -5 0  -1.5 -5 0  -1.4 -5 0  -1.3 -5 0  -1.2 -5 0  -1.1 -5 0  -1 -5 0  -0.9000000000000004 -5 0  -0.7999999999999998 -5 0  -0.7000000000000002 -5 0  -0.5999999999999996 -5 0  -0.5 -5 0  -0.4000000000000004 -5 0  -0.2999999999999998 -5 0  -0.2000000000000002 -5 0  -0.09999999999999964 -5 0  0 -5 0  0.09999999999999964 -5 0  0.2000000000000002 -5 0  0.2999999999999998 -5 0  0.4000000000000004 -5 0  0.5 -5 0  0.5999999999999996 -5 0  0.7000000000000002 -5 0  0.7999999999999998 -5 0  0.9000000000000004 -5 0  1 -5 0  1.1 -5 0  1.2 -5 0  1.3 -5 0  1.4 -5 0  1.5 -5 0  1.6 -5 0  1.7 -5 0  1.8 -5 0  1.9 -5 0  2 -5 0  2.1 -5 0  2.2 -5 0  2.3 -5 0  2.4 -5 0  2.5 -5 0  2.6 -5 0  2.7 -5 0  2.8 -5 0  2.9 -5 0  3 -5 0  3.1 -5 0  3.199999999999999 -5 0  3.300000000000001 -5 0  3.4 -5 0  3.5 -5 0  3.6 -5 0  3.699999999999999 -5 0  3.800000000000001 -5 0  3.9 -5 0  4 -5 0  4.1 -5 0  4.199999999999999 -5 0  4.300000000000001 -5 0  4.4 -5 0  4.5 -5 0  4.6 -5 0  4.699999999999999 -5 0  4.800000000000001 -5 0  4.9 -5 0  5 -5 0  -5 -4.9 0  -4.9 -4.9 0  -4.8 -4.9 0  -4.7 -4.9 0  -4.6 -4.9 0  -4.5 -4.9 0  -4.4 -4.9 0  -4.3 -4.9 0  -4.2 -4.9 0  -4.1 -4.9 0  -4 -4.9 0  -3.9 -4.9 0  -3.8 -4.9 0  -3.7 -4.9 0  -3.6 -4.9 0  -3.5 -4.9 0  -3.4 -4.9 0  -3.3 -4.9 0  -3.2 -4.9 0  -3.1 -4.9 0  -3 -4.9 0  -2.9 -4.9 0  -2.8 -4.9 0  -2.7 -4.9 0  -2.6 -4.9 0  -2.5 -4.9 0  -2.4 -4.9 0  -2.3 -4.9 0  -2.2 -4.9 0  -2.1 -4.9 0  -2 -4.9 0  -1.9 -4.9 0  -1.8 -4.9 0  -1.7 -4.9 0  -1.6 -4.9 0  -1.5 -4.9 0  -1.4 -4.9 0  -1.3 -4.9 0  -1.2 -4.9 0  -1.1 -4.9 0  -1 -4.9 0  -0.9000000000000004 -4.9 0  -0.7999999999999998 -4.9 0  -0.7000000000000002 -4.9 0  -0.5999999999999996 -4.9 0  -0.5 -4.9 0  -0.4000000000000004 -4.9 0  -0.2999999999999998 -4.9 0  -0.2000000000000002 -4.9 0  -0.09999999999999964 -4.9 0  0 -4.9 0  0.09999999999999964 -4.9 0  0.2000000000000002 -4.9 0  0.2999999999999998 -4.9 0  0.4000000000000004 -4.9 0  0.5 -4.9 0  0.5999999999999996 -4.9 0  0.7000000000000002 -4.9 0  0.7999999999999998 -4.9 0  0.9000000000000004 -4.9 0  1 -4.9 0  1.1 -4.9 0  1.2 -4.9 0  1.3 -4.9 0  1.4 -4.9 0  1.5 -4.9 0  1.6 -4.9 0  1.7 -4.9 0  1.8 -4.9 0  1.9 -4.9 0  2 -4.9 0  2.1 -4.9 0  2.2 -4.9 0  2.3 -4.9 0  2.4 -4.9 0  2.5 -4.9 0  2.6 -4.9 0  2.7 -4.9 0  2.8 -4.9 0  2.9 -4.9 0  3 -4.9 0  3.1 -4.9 0  3.199999999999999 -4.9 0  3.300000000000001 -4.9 0  3.4 -4.9 0  3.5 -4.9 0  3.6 -4.9 0  3.699999999999999 -4.9 0  3.800000000000001 -4.9 0  3.9 -4.9 0  4 -4.9 0  4.1 -4.9 0  4.199999999999999 -4.9 0  4.300000000000001 -4.9 0  4.4 -4.9 0  4.5 -4.9 0  4.6 -4.9 0  4.699999999999999 -4.9 0  4.800000000000001 -4.9 0  4.9 -4.9 0  5 -4.9 0  -5 -4.8 0  -4.9 -4.8 0  -4.8 -4.8 0  -4.7 -4.8 0  -4.6 -4.8 0  -4.5 -4.8 0  -4.4 -4.8 0  -4.3 -4.8 0  -4.2 -4.8 0  -4.1 -4.8 0  -4 -4.8 0  -3.9 -4.8 0  -3.8 -4.8 0  -3.7 -4.8 0  -3.6 -4.8 0  -3.5 -4.8 0  -3.4 -4.8 0  -3.3 -4.8 0  -3.2 -4.8 0  -3.1 -4.8 0  -3 -4.8 0  -2.9 -4.8 0  -2.8 -4.8 0  -2.7 -4.8 0  -2.6 -4.8 0  -2.5 -4.8 0  -2.4 -4.8 0  -2.3 -4.8 0  -2.2 -4.8 0  -2.1 -4.8 0  -2 -4.8 0  -1.9 -4.8 0  -1.8 -4.8 0  -1.7 -4.8 0  -1.6 -4.8 0  -1.5 -4.8 0  -1.4 -4.8 0  -1.3 -4.8 0  -1.2 -4.8 0  -1.1 -4.8 0  -1 -4.8 0  -0.9000000000000004 -4.8 0  -0.7999999999999998 -4.8 0  -0.7000000000000002 -4.8 0  -0.5999999999999996 -4.8 0  -0.5 -4.8 0  -0.4000000000000004 -4.8 0  -0.2999999999999998 -4.8 0  -0.2000000000000002 -4.8 0  -0.09999999999999964 -4.8 0  0 -4.8 0  0.09999999999999964 -4.8 0  0.2000000000000002 -4.8 0  0.2999999999999998 -4.8 0  0.4000000000000004 -4.8 0  0.5 -4.8 0  0.5999999999999996 -4.8 0  0.7000000000000002 -4.8 0  0.7999999999999998 -4.8 0  0.9000000000000004 -4.8 0  1 -4.8 0  1.1 -4.8 0  1.2 -4.8 0  1.3 -4.8 0  1.4 -4.8 0  1.5 -4.8 0  1.6 -4.8 0  1.7 -4.8 0  1.8 -4.8 0  1.9 -4.8 0  2 -4.8 0  2.1 -4.8 0  2.2 -4.8 0  2.3 -4.8 0  2.4 -4.8 0  2.5 -4.8 0  2.6 -4.8 0  2.7 -4.8 0  2.8 -4.8 0  2.9 -4.8 0  3 -4.8 0  3.1 -4.8 0  3.199999999999999 -4.8 0  3.300000000000001 -4.8 0  3.4 -4.8 0  3.5 -4.8 0  3.6 -4.8 0  3.699999999999999 -4.8 0  3.800000000000001 -4.8 0  3.9 -4.8 0  4 -4.8 0  4.1 -4.8 0  4.199999999999999 -4.8 0  4.300000000000001 -4.8 0  4.4 -4.8 0  4.5 -4.8 0  4.6 -4.8 0  4.699999999999999 -4.8 0  4.800000000000001 -4.8 0  4.9 -4.8 0  5 -4.8 0  -5 -4.7 0  -4.9 -4.7 0  -4.8 -4.7 0  -4.7 -4.7 0  -4.6 -4.7 0  -4.5 -4.7 0  -4.4 -4.7 0  -4.3 -4.7 0  -4.2 -4.7 0  -4.1 -4.7 0  -4 -4.7 0  -3.9 -4.7 0  -3.8 -4.7 0  -3.7 -4.7 0  -3.6 -4.7 0  -3.5 -4.7 0  -3.4 -4.7 0  -3.3 -4.7 0  -3.2 -4.7 0  -3.1 -4.7 0  -3 -4.7 0  -2.9 -4.7 0  -2.8 -4.7 0  -2.7 -4.7 0  -2.6 -4.7 0  -2.5 -4.7 0  -2.4 -4.7 0  -2.3 -4.7 0  -2.2 -4.7 0  -2.1 -4.7 0  -2 -4.7 0  -1.9 -4.7 0  -1.8 -4.7 0  -1.7 -4.7 0  -1.6 -4.7 0  -1.5 -4.7 0  -1.4 -4.7 0  -1.3 -4.7 0  -1.2 -4.7 0  -1.1 -4.7 0  -1 -4.7 0  -0.9000000000000004 -4.7 0  -0.7999999999999998 -4.7 0  -0.7000000000000002 -4.7 0  -0.5999999999999996 -4.7 0  -0.5 -4.7 0  -0.4000000000000004 -4.7 0  -0.2999999999999998 -4.7 0  -0.2000000000000002 -4.7 0  -0.09999999999999964 -4.7 0  0 -4.7 0  0.09999999999999964 -4.7 0  0.2000000000000002 -4.7 0  0.2999999999999998 -4.7 0  0.4000000000000004 -4.7 0  0.5 -4.7 0  0.5999999999999996 -4.7 0  0.7000000000000002 -4.7 0  0.7999999999999998 -4.7 0  0.9000000000000004 -4.7 0  1 -4.7 0  1.1 -4.7 0  1.2 -4.7 0  1.3 -4.7 0  1.4 -4.7 0  1.5 -4.7 0  1.6 -4.7 0  1.7 -4.7 0  1.8 -4.7 0  1.9 -4.7 0  2 -4.7 0  2.1 -4.7 0  2.2 -4.7 0  2.3 -4.7 0  2.4 -4.7 0  2.5 -4.7 0  2.6 -4.7 0  2.7 -4.7 0  2.8 -4.7 0  2.9 -4.7 0  3 -4.7 0  3.1 -4.7 0  3.199999999999999 -4.7 0  3.300000000000001 -4.7 0  3.4 -4.7 0  3.5 -4.7 0  3.6 -4.7 0  3.699999999999999 -4.7 0  3.800000000000001 -4.7 0  3.9 -4.7 0  4 -4.7 0  4.1 -4.7 0  4.199999999999999 -4.7 0  4.300000000000001 -4.7 0  4.4 -4.7 0  4.5 -4.7 0  4.6 -4.7 0  4.699999999999999 -4.7 0  4.800000000000001 -4.7 0  4.9 -4.7 0  5 -4.7 0  -5 -4.6 0  -4.9 -4.6 0  -4.8 -4.6 0  -4.7 -4.6 0  -4.6 -4.6 0  -4.5 -4.6 0  -4.4 -4.6 0  -4.3 -4.6 0  -4.2 -4.6 0  -4.1 -4.6 0  -4 -4.6 0  -3.9 -4.6 0  -3.8 -4.6 0  -3.7 -4.6 0  -3.6 -4.6 0  -3.5 -4.6 0  -3.4 -4.6 0  -3.3 -4.6 0  -3.2 -4.6 0  -3.1 -4.6 0  -3 -4.6 0  -2.9 -4.6 0  -2.8 -4.6 0  -2.7 -4.6 0  -2.6 -4.6 0  -2.5 -4.6 0  -2.4 -4.6 0  -2.3 -4.6 0  -2.2 -4.6 0  -2.1 -4.6 0  -2 -4.6 0  -1.9 -4.6 0  -1.8 -4.6 0  -1.7 -4.6 0  -1.6 -4.6 0  -1.5 -4.6 0  -1.4 -4.6 0  -1.3 -4.6 0  -1.2 -4.6 0  -1.1 -4.6 0  -1 -4.6 0  -0.9000000000000004 -4.6 0  -0.7999999999999998 -4.6 0  -0.7000000000000002 -4.6 0  -0.5999999999999996 -4.6 0  -0.5 -4.6 0  -0.4000000000000004 -4.6 0  -0.2999999999999998 -4.6 0  -0.2000000000000002 -4.6 0  -0.09999999999999964 -4.6 0  0 -4.6 0  0.09999999999999964 -4.6 0  0.2000000000000002 -4.6 0  0.2999999999999998 -4.6 0  0.4000000000000004 -4.6 0  0.5 -4.6 0  0.5999999999999996 -4.6 0  0.7000000000000002 -4.6 0  0.7999999999999998 -4.6 0  0.9000000000000004 -4.6 0  1 -4.6 0  1.1 -4.6 0  1.2 -4.6 0  1.3 -4.6 0  1.4 -4.6 0  1.5 -4.6 0  1.6 -4.6 0  1.7 -4.6 0  1.8 -4.6 0  1.9 -4.6 0  2 -4.6 0  2.1 -4.6 0  2.2 -4.6 0  2.3 -4.6 0  2.4 -4.6 0  2.5 -4.6 0  2.6 -4.6 0  2.7 -4.6 0  2.8 -4.6 0  2.9 -4.6 0  3 -4.6 0  3.1 -4.6 0  3.199999999999999 -4.6 0  3.300000000000001 -4.6 0  3.4 -4.6 0  3.5 -4.6 0  3.6 -4.6 0  3.699999999999999 -4.6 0  3.800000000000001 -4.6 0  3.9 -4.6 0  4 -4.6 0  4.1 -4.6 0  4.199999999999999 -4.6 0  4.300000000000001 -4.6 0  4.4 -4.6 0  4.5 -4.6 0  4.6 -4.6 0  4.699999999999999 -4.6 0  4.800000000000001 -4.6 0  4.9 -4.6 0  5 -4.6 0  -5 -4.5 0  -4.9 -4.5 0  -4.8 -4.5 0  -4.7 -4.5 0  -4.6 -4.5 0  -4.5 -4.5 0  -4.4 -4.5 0  -4.3 -4.5 0  -4.2 -4.5 0  -4.1 -4.5 0  -4 -4.5 0  -3.9 -4.5 0  -3.8 -4.5 0  -3.7 -4.5 0  -3.6 -4.5 0  -3.5 -4.5 0  -3.4 -4.5 0  -3.3 -4.5 0  -3.2 -4.5 0  -3.1 -4.5 0  -3 -4.5 0  -2.9 -4.5 0  -2.8 -4.5 0  -2.7 -4.5 0  -2.6 -4.5 0  -2.5 -4.5 0  -2.4 -4.5 0  -2.3 -4.5 0  -2.2 -4.5 0  -2.1 -4.5 0  -2 -4.5 0  -1.9 -4.5 0  -1.8 -4.5 0  -1.7 -4.5 0  -1.6 -4.5 0  -1.5 -4.5 0  -1.4 -4.5 0  -1.3 -4.5 0  -1.2 -4.5 0  -1.1 -4.5 0  -1 -4.5 0  -0.9000000000000004 -4.5 0  -0.7999999999999998 -4.5 0  -0.7000000000000002 -4.5 0  -0.5999999999999996 -4.5 0  -0.5 -4.5 0  -0.4000000000000004 -4.5 0  -0.2999999999999998 -4.5 0  -0.2000000000000002 -4.5 0  -0.09999999999999964 -4.5 0  0 -4.5 0  0.09999999999999964 -4.5 0  0.2000000000000002 -4.5 0  0.2999999999999998 -4.5 0  0.4000000000000004 -4.5 0  0.5 -4.5 0  0.5999999999999996 -4.5 0  0.7000000000000002 -4.5 0  0.7999999999999998 -4.5 0  0.9000000000000004 -4.5 0  1 -4.5 0  1.1 -4.5 0  1.2 -4.5 0  1.3 -4.5 0  1.4 -4.5 0  1.5 -4.5 0  1.6 -4.5 0  1.7 -4.5 0  1.8 -4.5 0  1.9 -4.5 0  2 -4.5 0  2.1 -4.5 0  2.2 -4.5 0  2.3 -4.5 0  2.4 -4.5 0  2.5 -4.5 0  2.6 -4.5 0  2.7 -4.5 0  2.8 -4.5 0  2.9 -4.5 0  3 -4.5 0  3.1 -4.5 0  3.199999999999999 -4.5 0  3.300000000000001 -4.5 0  3.4 -4.5 0  3.5 -4.5 0  3.6 -4.5 0  3.699999999999999 -4.5 0  3.800000000000001 -4.5 0  3.9 -4.5 0  4 -4.5 0  4.1 -4.5 0  4.199999999999999 -4.5 0  4.300000000000001 -4.5 0  4.4 -4.5 0  4.5 -4.5 0  4.6 -4.5 0  4.699999999999999 -4.5 0  4.800000000000001 -4.5 0  4.9 -4.5 0  5 -4.5 0  -5 -4.4 0  -4.9 -4.4 0  -4.8 -4.4 0  -4.7 -4.4 0  -4.6 -4.4 0  -4.5 -4.4 0  -4.4 -4.4 0  -4.3 -4.4 0  -4.2 -4.4 0  -4.1 -4.4 0  -4 -4.4 0  -3.9 -4.4 0  -3.8 -4.4 0  -3.7 -4.4 0  -3.6 -4.4 0  -3.5 -4.4 0  -3.4 -4.4 0  -3.3 -4.4 0  -3.2 -4.4 0  -3.1 -4.4 0  -3 -4.4 0  -2.9 -4.4 0  -2.8 -4.4 0  -2.7 -4.4 0  -2.6 -4.4 0  -2.5 -4.4 0  -2.4 -4.4 0  -2.3 -4.4 0  -2.2 -4.4 0  -2.1 -4.4 0  -2 -4.4 0  -1.9 -4.4 0  -1.8 -4.
[...]
<PointData  Vectors="f_23"> 
<DataArray  type="Float64"  Name="f_23"  NumberOfComponents="3" format="ascii">1.5000000000000027e-01 0.0000000000000000e+00 0.0000000000000000e+00  1.5000000000000022e-01 4.8103855229747118e-33 0.0000000000000000e+00  1.5000000000000013e-01 1.4283987359616991e-33 0.0000000000000000e+00  1.5000000000000030e-01 2.9244607748028895e-32 0.0000000000000000e+00  1.5000000000000011e-01 8.9577983444077366e-32 0.0000000000000000e+00  1.4999999999999997e-01 5.0700732862290239e-33 0.0000000000000000e+00  1.5000000000000066e-01 4.9829293591419777e-32 0.0000000000000000e+00  1.5000000000000052e-01 1.2053207804347717e-32 0.0000000000000000e+00  1.5000000000000002e-01 6.4645972331649245e-33 0.0000000000000000e+00  1.5000000000000066e-01 3.4221337371945621e-32 0.0000000000000000e+00  1.5000000000000011e-01 2.4948165379847499e-31 0.0000000000000000e+00  1.4999999999999974e-01 4.2111983212287543e-31 0.0000000000000000e+00  1.4999999999999825e-01 4.1015858776660071e-30 0.0000000000000000e+00  1.4999999999998856e-01 5.3026656336819908e-29 0.0000000000000000e+00  1.4999999999996574e-01 1.6893899997018582e-28 0.0000000000000000e+00  1.4999999999994271e-01 1.4054655662644430e-28 0.0000000000000000e+00  1.5000000000004984e-01 2.1724623853007829e-26 0.0000000000000000e+00  1.5000000000067265e-01 2.6134619065928739e-25 0.0000000000000000e+00  1.5000000000243310e-01 1.2547494812129427e-24 0.0000000000000000e+00  1.5000000000565702e-01 2.6600596367222953e-24 0.0000000000000000e+00  1.5000000000916164e-01 1.4256263628195280e-24 0.0000000000000000e+00  1.5000000000927402e-01 1.1513364287040900e-24 0.0000000000000000e+00  1.5000000000127914e-01 2.3350479708026205e-23 0.0000000000000000e+00  1.4999999998447394e-01 5.9287679819559075e-23 0.0000000000000000e+00  1.4999999996682184e-01 4.2748514423137703e-23 0.0000000000000000e+00  1.4999999996150981e-01 4.1327608656059167e-25 0.0000000000000000e+00  1.4999999997482066e-01 4.1279720288122200e-23 0.0000000000000000e+00  1.4999999999788258e-01 8.6500712186171513e-23 0.0000000000000000e+00  1.5000000001401748e-01 3.5001061125961856e-23 0.0000000000000000e+00  1.5000000001452365e-01 8.4205113805003191e-26 0.0000000000000000e+00  1.5000000000465788e-01 1.5331446043468455e-23 0.0000000000000000e+00  1.4999999999547062e-01 8.9944032033263123e-24 0.0000000000000000e+00  1.4999999999363814e-01 6.2681692301539448e-27 0.0000000000000000e+00  1.4999999999817842e-01 2.3491588099193896e-24 0.0000000000000000e+00  1.5000000000298244e-01 1.1298510025970144e-24 0.0000000000000000e+00  1.5000000000290595e-01 1.8747424528194796e-26 0.0000000000000000e+00  1.4999999999934449e-01 4.9262593282979193e-25 0.0000000000000000e+00  1.4999999999784147e-01 1.1460944084948718e-25 0.0000000000000000e+00  1.4999999999982289e-01 7.9571049518859484e-26 0.0000000000000000e+00  1.5000000000131397e-01 1.2433766041256233e-25 0.0000000000000000e+00  1.5000000000027605e-01 5.6506780561214071e-27 0.0000000000000000e+00  1.4999999999924460e-01 6.4265939545343396e-26 0.0000000000000000e+00  1.4999999999983563e-01 1.8990336511210251e-28 0.0000000000000000e+00  1.5000000000042901e-01 2.6231495455237867e-26 0.0000000000000000e+00  1.5000000000005281e-01 8.3373070068390740e-29 0.0000000000000000e+00  1.4999999999976346e-01 9.2779077566085126e-27 0.0000000000000000e+00  1.5000000000001298e-01 2.8046117299245848e-28 0.0000000000000000e+00  1.5000000000011982e-01 2.7575303353396167e-27 0.0000000000000000e+00  1.4999999999996416e-01 4.1002266669713754e-28 0.0000000000000000e+00  1.4999999999995040e-01 5.6369961490128936e-28 0.0000000000000000e+00  1.5000000000003300e-01 3.0559198431143125e-28 0.0000000000000000e+00  1.5000000000001359e-01 4.1322314498484934e-29 0.0000000000000000e+00  1.4999999999997962e-01 1.3521656033704293e-28 0.0000000000000000e+00  1.5000000000000160e-01 4.5945910347889237e-31 0.0000000000000000e+00  1.5000000000000965e-01 3.6004244322138058e-29 0.0000000000000000e+00  1.4999999999999536e-01 9.2292084376786641e-30 0.0000000000000000e+00  1.4999999999999794e-01 1.7254453595554224e-30 0.0000000000000000e+00  1.5000000000000310e-01 6.0243051182242530e-30 0.0000000000000000e+00  1.4999999999999936e-01 3.5473142215534761e-31 0.0000000000000000e+00  1.4999999999999958e-01 8.9387185323595803e-31 0.0000000000000000e+00  1.5000000000000091e-01 2.4187452211548145e-31 0.0000000000000000e+00  1.5000000000000041e-01 1.1595381200277664e-31 0.0000000000000000e+00  1.4999999999999988e-01 1.1116951754038276e-31 0.0000000000000000e+00  1.4999999999999972e-01 1.7607262846583692e-32 0.0000000000000000e+00  1.5000000000000058e-01 1.6792778893204029e-34 0.0000000000000000e+00  1.4999999999999974e-01 3.0073441665316133e-31 0.0000000000000000e+00  1.5000000000000030e-01 9.6616091388563155e-32 0.0000000000000000e+00  1.5000000000000013e-01 6.7154358417934057e-32 0.0000000000000000e+00  1.5000000000000019e-01 1.0090376843584755e-31 0.0000000000000000e+00  1.5000000000000005e-01 1.0508235586735219e-32 0.0000000000000000e+00  1.4999999999999997e-01 1.2018602477311193e-33 0.0000000000000000e+00  1.5000000000000044e-01 6.2830070431852591e-31 0.0000000000000000e+00  1.5000000000000013e-01 9.5020038400500928e-32 0.0000000000000000e+00  1.5000000000000027e-01 1.3908882936210694e-35 0.0000000000000000e+00  1.5000000000000011e-01 3.3538768297780864e-32 0.0000000000000000e+00  1.4999999999999955e-01 3.2724034356828682e-32 0.0000000000000000e+00  1.5000000000000002e-01 2.4409161083423685e-32 0.0000000000000000e+00  1.4999999999999988e-01 5.9304979530282818e-33 0.0000000000000000e+00  1.5000000000000058e-01 9.2484561158268322e-33 0.0000000000000000e+00  1.4999999999999983e-01 7.0312852675449236e-32 0.0000000000000000e+00  1.4999999999999988e-01 2.5886905757124480e-31 0.0000000000000000e+00  1.5000000000000011e-01 8.5090493729487152e-33 0.0000000000000000e+00  1.5000000000000030e-01 2.6120679491395645e-32 0.0000000000000000e+00  1.4999999999999974e-01 1.1388367535257945e-32 0.0000000000000000e+00  1.5000000000000019e-01 5.6186944119615027e-33 0.0000000000000000e+00  1.5000000000000002e-01 3.6653477262321513e-32 0.0000000000000000e+00  1.4999999999999988e-01 1.0907496244640034e-32 0.0000000000000000e+00  1.4999999999999983e-01 1.6153922729859609e-31 0.0000000000000000e+00  1.5000000000000011e-01 3.2498100628054691e-34 0.0000000000000000e+00  1.5000000000000005e-01 4.1762228000125647e-32 0.0000000000000000e+00  1.5000000000000002e-01 6.0103861558318593e-34 0.0000000000000000e+00  1.5000000000000058e-01 1.0999336053270034e-32 0.0000000000000000e+00  1.5000000000000022e-01 5.0103434934191173e-33 0.0000000000000000e+00  1.5000000000000041e-01 7.4750395956434616e-32 0.0000000000000000e+00  1.5000000000000027e-01 2.0734819584642092e-31 0.0000000000000000e+00  1.5000000000000061e-01 1.3739755925899816e-33 0.0000000000000000e+00  1.4999999999999983e-01 1.3853006605079488e-31 0.0000000000000000e+00  1.5000000000000041e-01 3.5106824137224443e-31 0.0000000000000000e+00  1.5000000000000002e-01 2.7114282323825627e-31 0.0000000000000000e+00  1.5000000000000019e-01 4.0256496852298803e-33 0.0000000000000000e+00  1.5000000000000036e-01 0.0000000000000000e+00 0.0000000000000000e+00  1.5000000000000027e-01 0.0000000000000000e+00 6.3810428294084768e-34  1.5000000000000005e-01 9.7887094624611163e-32 4.7871994805648498e-33  1.5000000000000019e-01 4.5852925243711254e-32 1.2818890497522411e-32  1.5000000000000022e-01 1.7980625174022523e-32 2.3112150218479523e-32  1.5000000000000013e-01 2.5435725924616759e-32 1.2858580654625525e-31  1.5000000000000058e-01 4.8048567344165790e-32 1.2187578978387028e-32  1.5000000000000027e-01 2.7818984933547123e-32 6.7702514265818638e-32  1.5000000000000011e-01 3.2911008863406494e-36 2.5230705278762297e-32  1.5000000000000027e-01 4.8419090076579157e-32 5.7424900475351842e-38  1.5000000000000011e-01 1.1846671441734909e-33 6.6307493948803094e-33  1.5000000000000019e-01 1.5991120556007369e-32 6.7134080364124790e-32  1.5000000000000027e-01 1.4979147339884807e-33 1.2952006123552990e-32  1.5000000000000074e-01 1.9446511102725506e-30 1.3388306953686588e-31  1.5000000000000810e-01 3.4915081087451487e-29 4.9797910977034319e-29  1.5000000000002894e-01 2.0920974183186784e-28 7.5938331317496163e-28  1.5000000000006575e-01 1.0164436155228599e-28 4.2679681812228017e-27  1.5000000000003733e-01 6.9899594162812692e-27 1.6074393384911027e-27  1.4999999999961458e-01 1.6410821123454811e-25 1.2782327757717364e-25  1.4999999999811856e-01 1.1276104035341783e-24 3.0551977526915662e-24  1.4999999999487057e-01 3.4123644788884316e-24 2.2025305785843551e-23  1.4999999999039706e-01 3.6924219403238651e-24 7.2940699142212384e-23  1.4999999998798727e-01 1.2138558353414028e-27 1.0142365529079923e-22  1.4999999999342364e-01 1.7458374019911193e-23 1.6928956856239173e-23  1.5000000001035094e-01 7.4925724144991124e-23 1.3995537434611090e-22  1.5000000003333072e-01 8.8374048112409680e-23 9.9980396836077075e-22  1.5000000004732686e-01 1.5847783681924783e-23 1.7115488736724260e-21  1.5000000003950756e-01 2.5090606732626113e-23 9.7235616215710324e-22  1.5000000001354394e-01 1.2277987345341638e-22 4.7730150663650412e-23  1.4999999998833224e-01 9.2726690826354698e-23 1.8718393412907532e-22  1.4999999998010208e-01 6.4158551871819922e-24 3.2265343480375846e-22  1.4999999998863700e-01 1.4125700285255438e-23 7.4065751274840698e-23  1.5000000000174435e-01 2.2192692199297292e-23 8.5611247931637409e-24  1.5000000000825453e-01 2.3270805693024032e-24 6.0150162920948708e-23  1.5000000000529209e-01 2.1355382544515451e-24 1.8743013462930065e-23  1.4999999999821914e-01 3.1988800140158478e-24 4.8386502239517905e-24  1.4999999999530442e-01 1.3881770305751230e-25 1.9491655980546095e-23  1.4999999999887689e-01 5.7073996768407977e-25 4.6248064977110978e-25  1.5000000000272501e-01 4.5769770608110386e-25 7.6753682008815620e-24  1.5000000000156685e-01 8.5883466178744713e-27 1.6562335412045645e-24  1.4999999999860969e-01 2.4035522248338000e-25 2.2721816957318194e-24  1.4999999999882757e-01 1.6686377817297511e-26 1.0315744687977580e-24  1.5000000000073538e-01 8.5597848511849190e-26 6.8681208496505523e-25  1.5000000000069977e-01 2.0306462648783072e-26 3.6982841990926244e-25  1.4999999999956479e-01 3.0153215402805174e-26 2.4141948776600507e-25  1.4999999999964661e-01 9.1563665861848818e-27 8.7629845987714340e-26  1.5000000000027805e-01 1.2122542566748497e-26 9.2031320809125611e-26  1.5000000000014307e-01 2.2412456636773280e-27 1.1263833330677740e-26  1.4999999999982724e-01 5.0622416359527848e-27 3.2254726981206883e-26  1.4999999999996771e-01 1.7965230436459231e-28 1.1690666487431101e-28  1.5000000000009611e-01 1.8064485122690936e-27 8.7511295817075998e-27  1.4999999999998762e-01 1.8343252229643262e-29 5.3550606279072191e-28  1.4999999999995692e-01 4.7597025383331996e-28 1.4546336388335095e-27  1.5000000000002142e-01 9.0076777929816847e-29 6.2525101513233465e-28  1.5000000000001265e-01 5.8901591433327344e-29 6.3866216111668537e-29  1.4999999999998478e-01 6.4948608880625152e-29 2.4825317389824836e-28  1.5000000000000113e-01 1.5024479633564172e-31 9.6817009009040132e-30  1.5000000000000710e-01 1.7113392783061506e-29 3.2424982477605082e-29  1.4999999999999622e-01 3.1536402387630293e-30 1.8541540436201752e-29  1.4999999999999897e-01 1.0125822613068855e-30 1.4712562284593619e-31  1.5000000000000224e-01 2.3086838865057922e-30 5.8019170266679978e-30  1.4999999999999966e-01 4.7464384723781890e-32 1.0820171922229089e-30  1.4999999999999949e-01 4.6162728683612440e-31 2.7260401089255786e-31  1.5000000000000041e-01 1.7371102896093248e-31 4.4427096702808823e-31  1.5000000000000005e-01 2.2864155402168018e-31 4.9125441896294979e-32  1.5000000000000013e-01 4.9567838840701172e-32 1.7598819455593930e-31  1.5000000000000041e-01 2.2742029234615493e-32 2.9801986304631977e-33  1.5000000000000002e-01 1.7674676988475292e-32 4.1648677102538812e-32  1.5000000000000005e-01 7.1409129783214894e-34 2.2923171418196497e-32  1.5000000000000036e-01 2.5394119373725677e-33 7.7902292673544505e-32  1.5000000000000022e-01 1.6479561507163329e-32 2.8126591975981135e-33  1.5000000000000019e-01 2.1388313335321548e-32 2.6147952804954673e-35  1.5000000000000002e-01 3.9831035846049999e-33 1.5169679892811463e-35  1.4999999999999997e-01 2.1892440799828151e-32 1.0139237829347462e-31  1.5000000000000019e-01 1.5349251864129767e-32 2.3472602106844380e-34  1.4999999999999974e-01 1.9323869220737960e-32 2.2209522394517198e-32  1.5000000000000022e-01 7.6237348688930452e-33 9.3635171198613066e-33  1.5000000000000022e-01 3.4096957956941357e-32 2.5870030223713105e-32  1.5000000000000019e-01 6.7736369290046236e-32 1.5784655580671314e-32  1.5000000000000022e-01 5.1027818921353439e-33 8.4538147203785602e-34  1.5000000000000022e-01 4.0035278732754850e-33 2.2824968031397118e-31  1.5000000000000011e-01 2.2910240379182135e-32 3.1632848062026893e-32  1.5000000000000002e-01 2.1184674533094293e-33 5.6262828669801896e-34  1.4999999999999980e-01 1.2288318812242381e-32 5.0900817730119709e-32  1.5000000000000011e-01 1.2907027391829320e-32 5.5356354477867974e-32  1.4999999999999997e-01 2.4060163683093693e-33 5.4127117922601703e-33  1.5000000000000022e-01 1.2052231173246306e-31 2.2459883467489989e-32  1.5000000000000013e-01 3.1864695533575140e-32 3.4160690481664696e-32  1.5000000000000013e-01 9.9505578958056914e-33 1.4223964515023793e-32  1.5000000000000013e-01 8.7257168826226479e-33 5.2647918158904446e-32  1.5000000000000005e-01 5.3868288586168368e-33 5.3029799727061516e-34  1.5000000000000041e-01 1.0693428999745570e-32 4.4365693479146820e-33  1.5000000000000027e-01 1.4640400415336365e-32 7.6385039473758898e-33  1.5000000000000013e-01 1.5191085487227977e-31 7.3484806997521746e-32  1.5000000000000005e-01 3.5658336628645794e-32 8.3508650844031510e-33  1.5000000000000005e-01 9.2715614187816769e-33 3.7520910807452845e-32  1.4999999999999997e-01 4.0496118787373716e-34 3.2642255235993097e-33  1.5000000000000013e-01 2.7821760336085086e-34 6.7480953141056354e-35  1.5000000000000005e-01 5.5833290213310781e-32 3.5179461359537462e-32  1.5000000000000019e-01 8.9472734857541847e-33 9.4086074254258426e-34  1.5000000000000011e-01 1.4759981459962587e-33 4.6913493893307885e-33  1.5000000000000027e-01 0.0000000000000000e+00 1.4456865005265480e-31  1.4999999999999988e-01 0.0000000000000000e+00 6.2053078157038693e-34  1.5000000000000013e-01 8.1972506795797861e-33 5.6413560770715461e-32  1.5000000000000013e-01 1.7602937090752233e-33 1.7453832604415267e-31  1.5000000000000019e-01 5.1888024712493344e-32 1.6290498444310665e-32  1.5000000000000036e-01 9.3695945390428268e-33 3.4350947168645447e-32  1.5000000000000011e-01 6.5468562908069417e-32 2.3211901592003177e-31  1.5000000000000013e-01 1.2676970360324281e-33 7.0048162626956457e-32  1.5000000000000036e-01 1.5304849274094904e-33 4.8731529915778941e-34  1.5000000000000027e-01 1.3448656340354699e-31 1.0694905661313031e-31  1.5000000000000022e-01 8.7637057562883798e-33 5.0555160298680214e-32  1.4999999999999988e-01 1.3240644554656573e-33 1.0367613344151937e-32  1.5000000000000019e-01 9.1211750131968899e-36 5.5849229934203613e-32  1.5000000000000022e-01 7.5020241251557087e-31 3.1064742939765541e-31  1.4999999999999489e-01 2.9871778678098121e-29 2.8407186653526806e-29  1.4999999999997279e-01 3.2982435549409112e-28 1.1617749182565146e-27  1.4999999999991775e-01 9.8605123468922379e-28 1.2130901276120207e-26  1.4999999999987421e-01 9.6114038093269804e-28 3.4378199100831751e-26  1.5000000000015429e-01 1.3058564771086917e-25 1.8880662715969797e-26  1.5000000000162403e-01 1.4538822008594835e-24 3.9203066345660594e-24  1.5000000000555511e-01 6.3570003513707976e-24 4.9090601015101862e-23  1.5000000001226962e-01 1.1466106002175348e-23 2.4413239245735556e-22  1.5000000001852928e-01 3.3560527246117088e-24 5.5397290219791780e-22  1.5000000001607938e-01 1.4013214031993983e-23 3.9703473837346904e-22  1.4999999999604852e-01 1.3828924926292226e-22 4.2331588813391810e-23  1.4999999996011962e-01 2.6834196938770082e-22 2.7924131833192545e-21  1.4999999992788088e-01 1.3311854712137851e-22 8.6508549135661732e-21  1.4999999992532992e-01 4.9304057616551028e-24 8.7938509791474222e-21  1.4999999995904550e-01 2.5042082137985753e-22 2.3405731814339826e-21  1.5000000000533578e-01 3.5817309722809672e-22 1.2142684739361318e-22  1.5000000003187158e-01 9.6386330232106935e-23 1.8522775514497676e-21  1.5000000002753197e-01 7.9300080370035957e-24 1.2394555405968847e-21  1.5000000000635397e-01 7.5128542283448928e-23 4.8885824476579571e-23  1.4999999998886401e-01 2.9987011905427240e-23 2.3329874543171146e-22  1.4999999998664237e-01 5.1986363872291197e-25 3.0389609164776714e-22  1.4999999999751648e-01 1.2223475288086043e-23 8.0304670071350011e-24  1.5000000000784358e-01 3.8070203379155535e-24 1.1171834021521370e-22  1.5000000000598923e-01 4.9016980459797520e-25 6.0245043283461966e-23  1.4999999999707084e-01 2.5511344947428678e-24 1.6685847000758034e-23  1.4999999999497196e-01 2.3736471416382862e-25 4.3779288124277118e-23  1.5000000000071748e-01 6.5982685619866201e-25 1.2012673370143215e-24  1.5000000000330260e-01 4.4987041625528236e-25 1.9023118281232189e-23  1.4999999999987690e-01 1.1883939631943043e-25 6.7205854500128626e-26  1.4999999999803698e-01 2.7682044499262328e-25 6.6898775359424780e-24  1.5000000000010780e-01 2.5699608160873076e-26 4.1430074965479497e-26  1.5000000000109556e-01 1.1877727903748803e-25 2.0461961869275055e-24  1.4999999999981650e-01 1.1245140996423407e-26 7.7255204324768301e-26  1.4999999999944033e-01 4.0264709916609913e-26 5.1793313555862811e-25  1.5000000000020589e-01 8.0217605516973873e-27 8.3067321876890104e-26  1.5000000000024261e-01 9.9358077788751327e-27 9.1797833328055396e-26  1.4999999999983124e-01 5.3593937938658212e-27 5.1668959606523258e-26  1.4999999999992839e-01 1.2686737643796097e-27 6.8196726047442855e-27  1.5000000000010777e-01 2.5472158236370596e-27 1.9495225031923348e-26  1.4999999999999683e-01 3.4097664515873876e-30 1.0935093695833623e-28  1.4999999999994948e-01 7.4376358146285080e-28 4.0114913789862237e-27  1.5000000000002306e-01 9.7920826701194837e-29 9.7885404897163013e-28  1.5000000000001459e-01 9.1407269149141952e-29 2.5127301050279359e-28  1.4999999999998281e-01 8.8980278562473276e-29 4.9119438032617635e-28  1.5000000000000191e-01 3.7181445092819045e-33 1.2387521999095147e-29  1.5000000000000727e-01 2.4558736552269845e-29 7.2445270179152753e-29  1.4999999999999583e-01 8.1155787940635275e-30 4.1359211385859031e-29  1.4999999999999925e-01 8.8415828781924716e-31 1.3199868608988787e-31  1.5000000000000255e-01 3.3861377041891154e-30 9.5304590044014577e-30  1.4999999999999897e-01 1.0768588596749393e-31 3.0804145209354190e-30  1.4999999999999966e-01 5.8087234106188418e-32 2.1848244325175460e-31  1.5000000000000083e-01 1.6454063694650095e-31 7.5235873487166255e-31  1.4999999999999972e-01 2.6421783053630976e-32 2.2543189888104718e-32  1.5000000000000002e-01 2.8770248006426897e-33 1.2051516786867692e-32  1.5000000000000049e-01 2.1885957317762058e-32 3.3371230475424565e-32  1.4999999999999997e-01 1.5037939395829481e-32 2.6414819659079141e-32  1.5000000000000041e-01 1.2899242217569375e-32 6.5209681046992173e-32  1.5000000000000002e-01 6.6323523377717479e-34 2.1666700310197968e-32  1.5000000000000027e-01 4.9150056278995748e-32 7.9971786705431040e-34  1.4999999999999997e-01 8.7793234474617467e-33 1.0359020607142599e-33  1.5000000000000011e-01 1.4704442899765883e-32 3.5437881738904714e-32  1.5000000000000030e-01 1.8477092090131430e-33 3.6237884402001552e-32  1.5000000000000022e-01 4.0306103246205353e-32 1.7212292920970733e-32  1.5000000000000030e-01 4.2333013683222625e-32 4.0501510882407600e-33  1.5000000000000022e-01 4.3722966010585174e-32 6.2320397779839407e-33  1.5000000000000013e-01 9.3438642621353457e-32 1.9664975178410654e-31  1.5000000000000005e-01 3.1655747118772175e-35 8.3917217734175325e-32  1.4999999999999983e-01 3.2214764158692259e-32 1.0835561667588885e-32  1.5000000000000013e-01 4.1973654923562063e-33 9.2732817754613808e-32  1.5000000000