<?xml version="1.0"?>
<VTKFile type="UnstructuredGrid"  version="0.1"  >
<UnstructuredGrid>
<Piece  NumberOfPoints="10201" NumberOfCells="20000">
<Points>
<DataArray  type="Float64"  NumberOfComponents="3"  format="ascii">-5 -5 0  -4.9 -5 0  -4.8 -5 0  -4.7 -5 0  -4.6 -5 0  -4.5 -5 0  -4.4 -5 0  -4.3 -5 0  -4.2 -5 0  -4.1 -5 0  -4 -5 0  -3.9 -5 0  -3.8 -5 0  -3.7 -5 0  -3.6 -5 0  -3.5 -5 0  -3.4 -5 0  -3.3 -5 0  -3.2 -5 0  -3.1 -5 0  -3 -5 0  -2.9 -5 0  -2.8 -5 0  -2.7 -5 0  -2.6 -5 0  -2.5 -5 0  -2.4 -5 0  -2.3 -5 0  -2.2 -5 0  -2.1 -5 0  -2 -5 0  -1.9 -5 0  -1.8 -5 0  -1.7 -5 0  -1.6 -5 0  -1.5 -5 0  -1.4 -5 0  -1.3 -5 0  -1.2 -5 0  -1.1 -5 0  -1 -5 0  -0.9000000000000004 -5 0  -0.7999999999999998 -5 0  -0.7000000000000002 -5 0  -0.5999999999999996 -5 0  -0.5 -5 0  -0.4000000000000004 -5 0  -0.2999999999999998 -5 0  -0.2000000000000002 -5 0  -0.09999999999999964 -5 0  0 -5 0  0.09999999999999964 -5 0  0.2000000000000002 -5 0  0.2999999999999998 -5 0  0.4000000000000004 -5 0  0.5 -5 0  0.5999999999999996 -5 0  0.7000000000000002 -5 0  0.7999999999999998 -5 0  0.9000000000000004 -5 0  1 -5 0  1.1 -5 0  1.2 -5 0  1.3 -5 0  1.4 -5 0  1.5 -5 0  1.6 -5 0  1.7 -5 0  1.8 -5 0  1.9 -5 0  2 -5 0  2.1 -5 0  2.2 -5 0  2.3 -5 0  2.4 -5 0  2.5 -5 0  2.6 -5 0  2.7 -5 0  2.8 -5 0  2.9 -5 0  3 -5 0  3.1 -5 0  3.199999999999999 -5 0  3.300000000000001 -5 0  3.4 -5 0  3.5 -5 0  3.6 -5 0  3.699999999999999 -5 0  3.800000000000001 -5 0  3.9 -5 0  4 -5 0  4.1 -5 0  4.199999999999999 -5 0  4.300000000000001 -5 0  4.4 -5 0  4.5 -5 0  4.6 -5 0  4.699999999999999 -5 0  4.800000000000001 -5 0  4.9 -5 0  5 -5 0  -5 -4.9 0  -4.9 -4.9 0  -4.8 -4.9 0  -4.7 -4.9 0  -4.6 -4.9 0  -4.5 -4.9 0  -4.4 -4.9 0  -4.3 -4.9 0  -4.2 -4.9 0  -4.1 -4.9 0  -4 -4.9 0  -3.9 -4.9 0  -3.8 -4.9 0  -3.7 -4.9 0  -3.6 -4.9 0  -3.5 -4.9 0  -3.4 -4.9 0  -3.3 -4.9 0  -3.2 -4.9 0  -3.1 -4.9 0  -3 -4.9 0  -2.9 -4.9 0  -2.8 -4.9 0  -2.7 -4.9 0  -2.6 -4.9 0  -2.5 -4.9 0  -2.4 -4.9 0  -2.3 -4.9 0  -2.2 -4.9 0  -2.1 -4.9 0  -2 -4.9 0  -1.9 -4.9 0  -1.8 -4.9 0  -1.7 -4.9 0  -1.6 -4.9 0  -1.5 -4.9 0  -1.4 -4.9 0  -1.3 -4.9 0  -1.2 -4.9 0  -1.1 -4.9 0  -1 -4.9 0  -0.9000000000000004 -4.9 0  -0.7999999999999998 -4.9 0  -0.7000000000000002 -4.9 0  -0.5999999999999996 -4.9 0  -0.5 -4.9 0  -0.4000000000000004 -4.9 0  -0.2999999999999998 -4.9 0  -0.2000000000000002 -4.9 0  -0.09999999999999964 -4.9 0  0 -4.9 0  0.09999999999999964 -4.9 0  0.2000000000000002 -4.9 0  0.2999999999999998 -4.9 0  0.4000000000000004 -4.9 0  0.5 -4.9 0  0.5999999999999996 -4.9 0  0.7000000000000002 -4.9 0  0.7999999999999998 -4.9 0  0.9000000000000004 -4.9 0  1 -4.9 0  1.1 -4.9 0  1.2 -4.9 0  1.3 -4.9 0  1.4 -4.9 0  1.5 -4.9 0  1.6 -4.9 0  1.7 -4.9 0  1.8 -4.9 0  1.9 -4.9 0  2 -4.9 0  2.1 -4.9 0  2.2 -4.9 0  2.3 -4.9 0  2.4 -4.9 0  2.5 -4.9 0  2.6 -4.9 0  2.7 -4.9 0  2.8 -4.9 0  2.9 -4.9 0  3 -4.9 0  3.1 -4.9 0  3.199999999999999 -4.9 0  3.300000000000001 -4.9 0  3.4 -4.9 0  3.5 -4.9 0  3.6 -4.9 0  3.699999999999999 -4.9 0  3.800000000000001 -4.9 0  3.9 -4.9 0  4 -4.9 0  4.1 -4.9 0  4.199999999999999 -4.9 0  4.300000000000001 -4.9 0  4.4 -4.9 0  4.5 -4.9 0  4.6 -4.9 0  4.699999999999999 -4.9 0  4.800000000000001 -4.9 0  4.9 -4.9 0  5 -4.9 0  -5 -4.8 0  -4.9 -4.8 0  -4.8 -4.8 0  -4.7 -4.8 0  -4.6 -4.8 0  -4.5 -4.8 0  -4.4 -4.8 0  -4.3 -4.8 0  -4.2 -4.8 0  -4.1 -4.8 0  -4 -4.8 0  -3.9 -4.8 0  -3.8 -4.8 0  -3.7 -4.8 0  -3.6 -4.8 0  -3.5 -4.8 0  -3.4 -4.8 0  -3.3 -4.8 0  -3.2 -4.8 0  -3.1 -4.8 0  -3 -4.8 0  -2.9 -4.8 0  -2.8 -4.8 0  -2.7 -4.8 0  -2.6 -4.8 0  -2.5 -4.8 0  -2.4 -4.8 0  -2.3 -4.8 0  -2.2 -4.8 0  -2.1 -4.8 0  -2 -4.8 0  -1.9 -4.8 0  -1.8 -4.8 0  -1.7 -4.8 0  -1.6 -4.8 0  -1.5 -4.8 0  -1.4 -4.8 0  -1.3 -4.8 0  -1.2 -4.8 0  -1.1 -4.8 0  -1 -4.8 0  -0.9000000000000004 -4.8 0  -0.7999999999999998 -4.8 0  -0.7000000000000002 -4.8 0  -0.5999999999999996 -4.8 0  -0.5 -4.8 0  -0.4000000000000004 -4.8 0  -0.2999999999999998 -4.8 0  -0.2000000000000002 -4.8 0  -0.09999999999999964 -4.8 0  0 -4.8 0  0.09999999999999964 -4.8 0  0.2000000000000002 -4.8 0  0.2999999999999998 -4.8 0  0.4000000000000004 -4.8 0  0.5 -4.8 0  0.5999999999999996 -4.8 0  0.7000000000000002 -4.8 0  0.7999999999999998 -4.8 0  0.9000000000000004 -4.8 0  1 -4.8 0  1.1 -4.8 0  1.2 -4.8 0  1.3 -4.8 0  1.4 -4.8 0  1.5 -4.8 0  1.6 -4.8 0  1.7 -4.8 0  1.8 -4.8 0  1.9 -4.8 0  2 -4.8 0  2.1 -4.8 0  2.2 -4.8 0  2.3 -4.8 0  2.4 -4.8 0  2.5 -4.8 0  2.6 -4.8 0  2.7 -4.8 0  2.8 -4.8 0  2.9 -4.8 0  3 -4.8 0  3.1 -4.8 0  3.199999999999999 -4.8 0  3.300000000000001 -4.8 0  3.4 -4.8 0  3.5 -4.8 0  3.6 -4.8 0  3.699999999999999 -4.8 0  3.800000000000001 -4.8 0  3.9 -4.8 0  4 -4.8 0  4.1 -4.8 0  4.199999999999999 -4.8 0  4.300000000000001 -4.8 0  4.4 -4.8 0  4.5 -4.8 0  4.6 -4.8 0  4.699999999999999 -4.8 0  4.800000000000001 -4.8 0  4.9 -4.8 0  5 -4.8 0  -5 -4.7 0  -4.9 -4.7 0  -4.8 -4.7 0  -4.7 -4.7 0  -4.6 -4.7 0  -4.5 -4.7 0  -4.4 -4.7 0  -4.3 -4.7 0  -4.2 -4.7 0  -4.1 -4.7 0  -4 -4.7 0  -3.9 -4.7 0  -3.8 -4.7 0  -3.7 -4.7 0  -3.6 -4.7 0  -3.5 -4.7 0  -3.4 -4.7 0  -3.3 -4.7 0  -3.2 -4.7 0  -3.1 -4.7 0  -3 -4.7 0  -2.9 -4.7 0  -2.8 -4.7 0  -2.7 -4.7 0  -2.6 -4.7 0  -2.5 -4.7 0  -2.4 -4.7 0  -2.3 -4.7 0  -2.2 -4.7 0  -2.1 -4.7 0  -2 -4.7 0  -1.9 -4.7 0  -1.8 -4.7 0  -1.7 -4.7 0  -1.6 -4.7 0  -1.5 -4.7 0  -1.4 -4.7 0  -1.3 -4.7 0  -1.2 -4.7 0  -1.1 -4.7 0  -1 -4.7 0  -0.9000000000000004 -4.7 0  -0.7999999999999998 -4.7 0  -0.7000000000000002 -4.7 0  -0.5999999999999996 -4.7 0  -0.5 -4.7 0  -0.4000000000000004 -4.7 0  -0.2999999999999998 -4.7 0  -0.2000000000000002 -4.7 0  -0.09999999999999964 -4.7 0  0 -4.7 0  0.09999999999999964 -4.7 0  0.2000000000000002 -4.7 0  0.2999999999999998 -4.7 0  0.4000000000000004 -4.7 0  0.5 -4.7 0  0.5999999999999996 -4.7 0  0.7000000000000002 -4.7 0  0.7999999999999998 -4.7 0  0.9000000000000004 -4.7 0  1 -4.7 0  1.1 -4.7 0  1.2 -4.7 0  1.3 -4.7 0  1.4 -4.7 0  1.5 -4.7 0  1.6 -4.7 0  1.7 -4.7 0  1.8 -4.7 0  1.9 -4.7 0  2 -4.7 0  2.1 -4.7 0  2.2 -4.7 0  2.3 -4.7 0  2.4 -4.7 0  2.5 -4.7 0  2.6 -4.7 0  2.7 -4.7 0  2.8 -4.7 0  2.9 -4.7 0  3 -4.7 0  3.1 -4.7 0  3.199999999999999 -4.7 0  3.300000000000001 -4.7 0  3.4 -4.7 0  3.5 -4.7 0  3.6 -4.7 0  3.699999999999999 -4.7 0  3.800000000000001 -4.7 0  3.9 -4.7 0  4 -4.7 0  4.1 -4.7 0  4.199999999999999 -4.7 0  4.300000000000001 -4.7 0  4.4 -4.7 0  4.5 -4.7 0  4.6 -4.7 0  4.699999999999999 -4.7 0  4.800000000000001 -4.7 0  4.9 -4.7 0  5 -4.7 0  -5 -4.6 0  -4.9 -4.6 0  -4.8 -4.6 0  -4.7 -4.6 0  -4.6 -4.6 0  -4.5 -4.6 0  -4.4 -4.6 0  -4.3 -4.6 0  -4.2 -4.6 0  -4.1 -4.6 0  -4 -4.6 0  -3.9 -4.6 0  -3.8 -4.6 0  -3.7 -4.6 0  -3.6 -4.6 0  -3.5 -4.6 0  -3.4 -4.6 0  -3.3 -4.6 0  -3.2 -4.6 0  -3.1 -4.6 0  -3 -4.6 0  -2.9 -4.6 0  -2.8 -4.6 0  -2.7 -4.6 0  -2.6 -4.6 0  -2.5 -4.6 0  -2.4 -4.6 0  -2.3 -4.6 0  -2.2 -4.6 0  -2.1 -4.6 0  -2 -4.6 0  -1.9 -4.6 0  -1.8 -4.6 0  -1.7 -4.6 0  -1.6 -4.6 0  -1.5 -4.6 0  -1.4 -4.6 0  -1.3 -4.6 0  -1.2 -4.6 0  -1.1 -4.6 0  -1 -4.6 0  -0.9000000000000004 -4.6 0  -0.7999999999999998 -4.6 0  -0.7000000000000002 -4.6 0  -0.5999999999999996 -4.6 0  -0.5 -4.6 0  -0.4000000000000004 -4.6 0  -0.2999999999999998 -4.6 0  -0.2000000000000002 -4.6 0  -0.09999999999999964 -4.6 0  0 -4.6 0  0.09999999999999964 -4.6 0  0.2000000000000002 -4.6 0  0.2999999999999998 -4.6 0  0.4000000000000004 -4.6 0  0.5 -4.6 0  0.5999999999999996 -4.6 0  0.7000000000000002 -4.6 0  0.7999999999999998 -4.6 0  0.9000000000000004 -4.6 0  1 -4.6 0  1.1 -4.6 0  1.2 -4.6 0  1.3 -4.6 0  1.4 -4.6 0  1.5 -4.6 0  1.6 -4.6 0  1.7 -4.6 0  1.8 -4.6 0  1.9 -4.6 0  2 -4.6 0  2.1 -4.6 0  2.2 -4.6 0  2.3 -4.6 0  2.4 -4.6 0  2.5 -4.6 0  2.6 -4.6 0  2.7 -4.6 0  2.8 -4.6 0  2.9 -4.6 0  3 -4.6 0  3.1 -4.6 0  3.199999999999999 -4.6 0  3.300000000000001 -4.6 0  3.4 -4.6 0  3.5 -4.6 0  3.6 -4.6 0  3.699999999999999 -4.6 0  3.800000000000001 -4.6 0  3.9 -4.6 0  4 -4.6 0  4.1 -4.6 0  4.199999999999999 -4.6 0  4.300000000000001 -4.6 0  4.4 -4.6 0  4.5 -4.6 0  4.6 -4.6 0  4.699999999999999 -4.6 0  4.800000000000001 -4.6 0  4.9 -4.6 0  5 -4.6 0  -5 -4.5 0  -4.9 -4.5 0  -4.8 -4.5 0  -4.7 -4.5 0  -4.6 -4.5 0  -4.5 -4.5 0  -4.4 -4.5 0  -4.3 -4.5 0  -4.2 -4.5 0  -4.1 -4.5 0  -4 -4.5 0  -3.9 -4.5 0  -3.8 -4.5 0  -3.7 -4.5 0  -3.6 -4.5 0  -3.5 -4.5 0  -3.4 -4.5 0  -3.3 -4.5 0  -3.2 -4.5 0  -3.1 -4.5 0  -3 -4.5 0  -2.9 -4.5 0  -2.8 -4.5 0  -2.7 -4.5 0  -2.6 -4.5 0  -2.5 -4.5 0  -2.4 -4.5 0  -2.3 -4.5 0  -2.2 -4.5 0  -2.1 -4.5 0  -2 -4.5 0  -1.9 -4.5 0  -1.8 -4.5 0  -1.7 -4.5 0  -1.6 -4.5 0  -1.5 -4.5 0  -1.4 -4.5 0  -1.3 -4.5 0  -1.2 -4.5 0  -1.1 -4.5 0  -1 -4.5 0  -0.9000000000000004 -4.5 0  -0.7999999999999998 -4.5 0  -0.7000000000000002 -4.5 0  -0.5999999999999996 -4.5 0  -0.5 -4.5 0  -0.4000000000000004 -4.5 0  -0.2999999999999998 -4.5 0  -0.2000000000000002 -4.5 0  -0.09999999999999964 -4.5 0  0 -4.5 0  0.09999999999999964 -4.5 0  0.2000000000000002 -4.5 0  0.2999999999999998 -4.5 0  0.4000000000000004 -4.5 0  0.5 -4.5 0  0.5999999999999996 -4.5 0  0.7000000000000002 -4.5 0  0.7999999999999998 -4.5 0  0.9000000000000004 -4.5 0  1 -4.5 0  1.1 -4.5 0  1.2 -4.5 0  1.3 -4.5 0  1.4 -4.5 0  1.5 -4.5 0  1.6 -4.5 0  1.7 -4.5 0  1.8 -4.5 0  1.9 -4.5 0  2 -4.5 0  2.1 -4.5 0  2.2 -4.5 0  2.3 -4.5 0  2.4 -4.5 0  2.5 -4.5 0  2.6 -4.5 0  2.7 -4.5 0  2.8 -4.5 0  2.9 -4.5 0  3 -4.5 0  3.1 -4.5 0  3.199999999999999 -4.5 0  3.300000000000001 -4.5 0  3.4 -4.5 0  3.5 -4.5 0  3.6 -4.5 0  3.699999999999999 -4.5 0  3.800000000000001 -4.5 0  3.9 -4.5 0  4 -4.5 0  4.1 -4.5 0  4.199999999999999 -4.5 0  4.300000000000001 -4.5 0  4.4 -4.5 0  4.5 -4.5 0  4.6 -4.5 0  4.699999999999999 -4.5 0  4.800000000000001 -4.5 0  4.9 -4.5 0  5 -4.5 0  -5 -4.4 0  -4.9 -4.4 0  -4.8 -4.4 0  -4.7 -4.4 0  -4.6 -4.4 0  -4.5 -4.4 0  -4.4 -4.4 0  -4.3 -4.4 0  -4.2 -4.4 0  -4.1 -4.4 0  -4 -4.4 0  -3.9 -4.4 0  -3.8 -4.4 0  -3.7 -4.4 0  -3.6 -4.4 0  -3.5 -4.4 0  -3.4 -4.4 0  -3.3 -4.4 0  -3.2 -4.4 0  -3.1 -4.4 0  -3 -4.4 0  -2.9 -4.4 0  -2.8 -4.4 0  -2.7 -4.4 0  -2.6 -4.4 0  -2.5 -4.4 0  -2.4 -4.4 0  -2.3 -4.4 0  -2.2 -4.4 0  -2.1 -4.4 0  -2 -4.4 0  -1.9 -4.4 0  -1.8 -4.
[...]
<PointData  Vectors="f_17"> 
<DataArray  type="Float64"  Name="f_17"  NumberOfComponents="3" format="ascii">1.5000000000000005e-01 0.0000000000000000e+00 0.0000000000000000e+00  1.5000000000000008e-01 -4.5390697283374937e-16 0.0000000000000000e+00  1.5000000000000002e-01 5.4061532124427193e-16 0.0000000000000000e+00  1.5000000000000019e-01 2.4450670671949458e-17 0.0000000000000000e+00  1.5000000000000005e-01 -3.0870010818596055e-16 0.0000000000000000e+00  1.5000000000000005e-01 -6.7072260075935722e-16 0.0000000000000000e+00  1.5000000000000024e-01 6.5301623893527995e-16 0.0000000000000000e+00  1.4999999999999988e-01 8.5406034847490217e-16 0.0000000000000000e+00  1.4999999999999999e-01 -5.4694681958294248e-16 0.0000000000000000e+00  1.4999999999999988e-01 -4.3591676743375973e-17 0.0000000000000000e+00  1.5000000000000008e-01 -1.5559349268097302e-16 0.0000000000000000e+00  1.4999999999999999e-01 -2.2955135291001860e-16 0.0000000000000000e+00  1.5000000000000002e-01 -1.2077500038933291e-16 0.0000000000000000e+00  1.5000000000000005e-01 7.5133383040820253e-17 0.0000000000000000e+00  1.4999999999999999e-01 2.0157676881376338e-16 0.0000000000000000e+00  1.5000000000000022e-01 1.6167053668662467e-16 0.0000000000000000e+00  1.5000000000000008e-01 4.5446692689783282e-16 0.0000000000000000e+00  1.4999999999999997e-01 -5.7240982024677541e-16 0.0000000000000000e+00  1.5000000000000005e-01 1.1451818322567797e-16 0.0000000000000000e+00  1.5000000000000022e-01 -2.8622780005118610e-16 0.0000000000000000e+00  1.5000000000000011e-01 1.3378035621601460e-16 0.0000000000000000e+00  1.5000000000000022e-01 -2.5853561641976125e-16 0.0000000000000000e+00  1.5000000000000002e-01 2.8749928810402638e-16 0.0000000000000000e+00  1.5000000000000022e-01 1.7352775801497280e-16 0.0000000000000000e+00  1.5000000000000019e-01 -2.7295330167717008e-16 0.0000000000000000e+00  1.4999999999999997e-01 1.9650746214972863e-16 0.0000000000000000e+00  1.5000000000000019e-01 1.4062342999143147e-16 0.0000000000000000e+00  1.4999999999999999e-01 -2.5350238597426323e-16 0.0000000000000000e+00  1.4999999999999999e-01 1.7640961149688084e-16 0.0000000000000000e+00  1.5000000000000002e-01 -1.9661598143677156e-16 0.0000000000000000e+00  1.4999999999999999e-01 3.9508243314945410e-16 0.0000000000000000e+00  1.4999999999999999e-01 -6.4958235241281548e-17 0.0000000000000000e+00  1.5000000000000002e-01 1.4356529924134664e-16 0.0000000000000000e+00  1.5000000000000005e-01 -9.1240986468528689e-16 0.0000000000000000e+00  1.5000000000000027e-01 3.6565055137812958e-16 0.0000000000000000e+00  1.4999999999999999e-01 5.2615214306969798e-16 0.0000000000000000e+00  1.4999999999999997e-01 3.2230353879224911e-16 0.0000000000000000e+00  1.4999999999999999e-01 -6.5903837694267732e-16 0.0000000000000000e+00  1.5000000000000005e-01 1.9692817602937233e-16 0.0000000000000000e+00  1.4999999999999997e-01 -2.1533206265916909e-17 0.0000000000000000e+00  1.5000000000000005e-01 -3.7559241201761971e-16 0.0000000000000000e+00  1.5000000000000002e-01 6.5921917975182366e-17 0.0000000000000000e+00  1.5000000000000008e-01 2.4390930913582440e-16 0.0000000000000000e+00  1.4999999999999999e-01 -4.5461985819910234e-16 0.0000000000000000e+00  1.4999999999999999e-01 1.9902468004440081e-16 0.0000000000000000e+00  1.5000000000000022e-01 -2.5089307673954160e-16 0.0000000000000000e+00  1.4999999999999997e-01 3.8839496025275456e-16 0.0000000000000000e+00  1.5000000000000008e-01 -2.3418457901017323e-16 0.0000000000000000e+00  1.5000000000000016e-01 6.5905639072432675e-17 0.0000000000000000e+00  1.4999999999999997e-01 -1.5636539111731624e-16 0.0000000000000000e+00  1.5000000000000011e-01 -8.0286144356879678e-17 0.0000000000000000e+00  1.5000000000000002e-01 3.2367630406414038e-16 0.0000000000000000e+00  1.5000000000000013e-01 3.0264532639464406e-16 0.0000000000000000e+00  1.5000000000000005e-01 -5.2251429583152733e-16 0.0000000000000000e+00  1.4999999999999991e-01 5.1018528738578218e-16 0.0000000000000000e+00  1.5000000000000005e-01 -2.5595064623028773e-16 0.0000000000000000e+00  1.5000000000000013e-01 1.2901977053101394e-16 0.0000000000000000e+00  1.4999999999999991e-01 -2.1154789267778205e-16 0.0000000000000000e+00  1.5000000000000013e-01 4.6456490623507091e-17 0.0000000000000000e+00  1.4999999999999999e-01 -1.1349255696016077e-17 0.0000000000000000e+00  1.5000000000000002e-01 6.5762704558426481e-17 0.0000000000000000e+00  1.5000000000000002e-01 -9.6844157480913180e-17 0.0000000000000000e+00  1.5000000000000005e-01 1.5621221218232377e-16 0.0000000000000000e+00  1.5000000000000002e-01 -1.2549548717801718e-17 0.0000000000000000e+00  1.4999999999999999e-01 1.7985900736540845e-17 0.0000000000000000e+00  1.5000000000000008e-01 -5.0055649541463410e-16 0.0000000000000000e+00  1.5000000000000011e-01 3.4653640907425360e-16 0.0000000000000000e+00  1.4999999999999999e-01 8.5011547522073381e-17 0.0000000000000000e+00  1.5000000000000016e-01 -5.5571653560782139e-16 0.0000000000000000e+00  1.5000000000000005e-01 -2.4226394421738443e-17 0.0000000000000000e+00  1.5000000000000002e-01 4.5232577149847695e-17 0.0000000000000000e+00  1.5000000000000005e-01 5.3623070896251736e-16 0.0000000000000000e+00  1.5000000000000005e-01 -4.0876953517660601e-16 0.0000000000000000e+00  1.5000000000000011e-01 2.5585393981043055e-16 0.0000000000000000e+00  1.5000000000000005e-01 1.9023771170223012e-16 0.0000000000000000e+00  1.4999999999999997e-01 -3.9487760002376779e-16 0.0000000000000000e+00  1.4999999999999991e-01 2.4977299630272511e-16 0.0000000000000000e+00  1.4999999999999999e-01 6.3336517999459586e-16 0.0000000000000000e+00  1.5000000000000002e-01 -4.9495971608299441e-16 0.0000000000000000e+00  1.4999999999999994e-01 -6.5758146939906719e-17 0.0000000000000000e+00  1.4999999999999999e-01 -4.0408090946703215e-16 0.0000000000000000e+00  1.5000000000000002e-01 9.6634807040336582e-17 0.0000000000000000e+00  1.5000000000000005e-01 6.7039278939639519e-17 0.0000000000000000e+00  1.4999999999999997e-01 -5.3659411403722909e-17 0.0000000000000000e+00  1.5000000000000005e-01 -1.3609584412531876e-16 0.0000000000000000e+00  1.5000000000000013e-01 2.3650969211170430e-16 0.0000000000000000e+00  1.4999999999999999e-01 5.5677676747912498e-17 0.0000000000000000e+00  1.4999999999999994e-01 5.7616191849294152e-16 0.0000000000000000e+00  1.5000000000000005e-01 -7.4799676770185019e-16 0.0000000000000000e+00  1.4999999999999999e-01 2.8922464114390767e-16 0.0000000000000000e+00  1.5000000000000008e-01 -5.2784615605034630e-16 0.0000000000000000e+00  1.4999999999999999e-01 2.5011618734524906e-16 0.0000000000000000e+00  1.5000000000000008e-01 5.9090817347671325e-16 0.0000000000000000e+00  1.4999999999999969e-01 3.6003868008517421e-17 0.0000000000000000e+00  1.5000000000000002e-01 -2.6426084738404186e-16 0.0000000000000000e+00  1.5000000000000002e-01 -1.7261535887477618e-17 0.0000000000000000e+00  1.5000000000000002e-01 -4.2170159022765913e-17 0.0000000000000000e+00  1.4999999999999988e-01 -7.6409497927163056e-18 0.0000000000000000e+00  1.5000000000000005e-01 -5.1164954943395229e-16 0.0000000000000000e+00  1.5000000000000008e-01 1.7427820082223650e-16 0.0000000000000000e+00  1.5000000000000011e-01 0.0000000000000000e+00 0.0000000000000000e+00  1.4999999999999999e-01 0.0000000000000000e+00 -1.5030638869730447e-16  1.4999999999999999e-01 1.0798031654912515e-16 -4.3103447442615258e-17  1.5000000000000005e-01 -8.2204836110907862e-17 -1.2489298333672428e-16  1.5000000000000005e-01 -1.4248503388620365e-17 -2.3982748189813271e-16  1.5000000000000005e-01 -1.3781527956979986e-16 -9.1108464689310863e-17  1.5000000000000008e-01 -2.1683285830494015e-16 -1.4516557184295788e-16  1.5000000000000008e-01 4.1225817009046736e-16 3.5146637193188928e-19  1.4999999999999999e-01 2.7438093269267032e-16 -1.4179591376547992e-16  1.5000000000000002e-01 -3.7366473746829797e-16 -1.2199343668469434e-16  1.5000000000000011e-01 4.5049138441797897e-18 -1.3462617023567723e-16  1.4999999999999999e-01 1.5646950801130372e-16 -1.9856840280264961e-17  1.5000000000000002e-01 3.5435698367328737e-16 -1.4179675029577073e-17  1.5000000000000005e-01 -3.9499785206302549e-16 6.9751787910208137e-17  1.4999999999999999e-01 4.3235995156245582e-16 5.8829790026193114e-18  1.4999999999999997e-01 -5.9764781381079801e-17 -8.6416008152215687e-17  1.4999999999999999e-01 -1.8950562741987342e-16 -2.1358616566078134e-17  1.4999999999999983e-01 1.5298961712262262e-16 -2.8576106338545105e-16  1.5000000000000005e-01 -2.2868756145591421e-16 -1.4234602520443822e-16  1.5000000000000005e-01 -1.5929933641166991e-16 -3.3824106019318275e-17  1.4999999999999999e-01 7.7163479595971324e-17 -2.5754017488969502e-16  1.4999999999999999e-01 -2.2799465515664306e-16 1.9644444037377843e-16  1.5000000000000008e-01 -2.9011965680689003e-16 -1.2078851093551205e-17  1.5000000000000005e-01 5.8948351241478451e-16 -4.1853418681476003e-17  1.5000000000000008e-01 3.2593045251869178e-16 -2.9116571889173872e-16  1.4999999999999983e-01 -2.5435019409136742e-16 -5.2818768459480014e-17  1.5000000000000008e-01 1.5953250840594013e-16 -9.9968118461063356e-17  1.4999999999999997e-01 -6.4492719004087899e-16 -4.9623511041078844e-17  1.5000000000000011e-01 1.5378696223699258e-16 5.4989996242517274e-17  1.5000000000000013e-01 -1.6114014658544371e-16 -2.0050475572984258e-16  1.5000000000000013e-01 4.1472182143088505e-16 -5.5724861885460965e-16  1.4999999999999994e-01 2.3354055596622015e-16 -2.3217956529326475e-16  1.5000000000000005e-01 -5.2792173165754831e-16 -1.9438564425179914e-16  1.5000000000000005e-01 -1.9813904715476984e-16 8.7591283619824380e-17  1.5000000000000011e-01 1.0975379255855507e-16 -3.8628396222408758e-16  1.5000000000000002e-01 6.6619461969061429e-17 -1.2851227839896269e-16  1.4999999999999999e-01 2.5487716736263864e-16 -6.5275743964964214e-17  1.5000000000000008e-01 -5.1670684695851369e-16 -4.4046375187081625e-16  1.5000000000000008e-01 3.7694764872356924e-16 -3.7549256537473363e-16  1.5000000000000002e-01 1.8370920788368454e-16 1.5129534607970646e-16  1.5000000000000002e-01 9.4184801330464716e-18 -2.8217071273549907e-16  1.5000000000000005e-01 -3.5512770689061120e-16 1.5919707080772973e-16  1.5000000000000008e-01 8.0195473017854363e-17 1.1092996285903391e-16  1.5000000000000005e-01 -1.3584502088967883e-18 -1.4698446696026589e-16  1.5000000000000011e-01 9.6685177448988031e-17 2.4057733641814578e-17  1.5000000000000011e-01 -1.0523512632956051e-16 -1.2746705215715106e-16  1.5000000000000013e-01 2.0998334759247725e-18 2.4676142795145655e-16  1.5000000000000011e-01 1.8042569439939564e-16 -2.0339396751024692e-16  1.5000000000000027e-01 -1.3245000816739345e-16 2.3824767136237917e-17  1.5000000000000002e-01 3.5076973732425150e-17 1.5903124526906864e-16  1.5000000000000011e-01 -8.8065872071558485e-17 -2.3804575071564886e-16  1.5000000000000002e-01 2.5786952097047037e-16 1.5991380537406774e-17  1.5000000000000002e-01 -5.2298961758219783e-17 3.0999467763331876e-16  1.5000000000000008e-01 4.5268209945715302e-18 -3.0586210930533423e-16  1.4999999999999994e-01 3.5425174993546331e-16 -3.6154097483970290e-16  1.4999999999999999e-01 -2.9821478352496722e-16 4.5522796208999356e-16  1.5000000000000005e-01 7.2541297242547350e-18 -4.2320277303217074e-16  1.5000000000000005e-01 -2.6657307399511885e-16 -1.0532427043872866e-16  1.5000000000000002e-01 3.4409840255622478e-16 -1.3211660273354672e-16  1.5000000000000008e-01 -2.8216034922616854e-16 1.2297320706632068e-16  1.5000000000000002e-01 2.6020906448707866e-16 9.4164485515134200e-17  1.5000000000000002e-01 -3.5837222442303097e-16 2.0969973287910307e-17  1.5000000000000008e-01 4.3848275653174392e-17 -2.9093550699395596e-16  1.5000000000000005e-01 1.1697487262511870e-16 -7.1926012069971159e-17  1.5000000000000008e-01 -2.0592230866721322e-16 1.1538925779314949e-16  1.5000000000000011e-01 -1.2030951131425959e-16 -1.8549761638528054e-16  1.5000000000000008e-01 -1.8385343864252378e-16 1.0887156664664611e-16  1.5000000000000011e-01 1.7779775089140305e-16 2.4485147943994636e-18  1.5000000000000024e-01 6.4556925884856594e-17 -1.1940689762918060e-16  1.5000000000000008e-01 -9.2248726697851758e-17 -8.5699135047531939e-17  1.5000000000000002e-01 2.7900360440476430e-16 4.9005540826867172e-17  1.5000000000000013e-01 3.6840557159429392e-16 4.4317864223774687e-16  1.5000000000000005e-01 -2.5531472667456350e-16 3.7632201417290907e-16  1.5000000000000005e-01 -1.8952120099438607e-16 8.3677675475931825e-17  1.4999999999999999e-01 -3.3848835728404211e-18 1.5103005909321280e-16  1.5000000000000002e-01 1.6327462355731705e-16 7.5896217160187394e-18  1.5000000000000005e-01 6.7297648799463189e-17 1.6117903603139015e-17  1.5000000000000005e-01 -3.2492115520407048e-16 4.0275900650952645e-16  1.5000000000000016e-01 2.7546667012522819e-16 -2.5757418379206251e-16  1.5000000000000011e-01 -2.5193489761345742e-16 -2.3735023128382597e-16  1.5000000000000013e-01 -2.1904814156361039e-16 1.4465826628544385e-16  1.5000000000000005e-01 3.3190782873589946e-16 -9.5826139068310344e-17  1.4999999999999994e-01 1.7675939616728921e-16 8.5278381889195044e-17  1.5000000000000013e-01 2.3053893730376177e-16 1.8643793036193496e-16  1.5000000000000008e-01 -1.4796291747928289e-16 1.1433897439590239e-16  1.5000000000000005e-01 -2.7935782383966268e-16 5.9849968224420492e-17  1.5000000000000008e-01 -1.9675964453495615e-16 2.5333631896739678e-17  1.5000000000000005e-01 4.7751236735538416e-16 2.9876828304251750e-17  1.5000000000000005e-01 -1.1638656796627217e-16 2.5428716976377782e-16  1.5000000000000008e-01 -7.8438561920549246e-17 2.2023325980309523e-16  1.4999999999999999e-01 -4.1555078334653130e-16 4.1693620518175579e-16  1.5000000000000005e-01 2.6994334478397300e-16 5.0140236378476433e-17  1.5000000000000008e-01 2.1055086084726324e-16 1.1498574182738310e-16  1.5000000000000005e-01 4.1794157660677739e-16 -1.1319031736321659e-16  1.4999999999999997e-01 1.6305164488827019e-16 -3.3094209041933723e-16  1.5000000000000002e-01 -6.9117880646600998e-16 -2.2141198958602308e-17  1.5000000000000005e-01 -3.2834991353679453e-16 1.5093687273875569e-16  1.5000000000000011e-01 2.5870752084040702e-16 -3.3362470359206287e-16  1.5000000000000002e-01 6.3058263114094994e-16 -2.7241877216576030e-16  1.4999999999999997e-01 -3.2146998303837251e-17 3.4789793010400320e-16  1.5000000000000005e-01 -3.0355809214881741e-16 9.2282380346796796e-18  1.4999999999999999e-01 0.0000000000000000e+00 1.7333905809027098e-16  1.5000000000000011e-01 0.0000000000000000e+00 6.6952393513184113e-17  1.5000000000000013e-01 -4.1920416480239185e-16 2.1252116213616380e-16  1.5000000000000011e-01 -1.5503650435135711e-16 -3.4202888341159559e-16  1.5000000000000005e-01 3.9733541487810797e-16 4.1516546321029152e-18  1.4999999999999994e-01 -1.7698007664216983e-16 -1.9499323843950055e-16  1.5000000000000008e-01 -2.1403238964269498e-16 -7.6679848548637730e-17  1.5000000000000011e-01 -1.5103418396040160e-16 5.7688559815211707e-17  1.5000000000000005e-01 5.5036818445690540e-16 -5.5671966230845103e-16  1.5000000000000005e-01 2.8290750848707054e-16 -4.4780607496172397e-16  1.4999999999999999e-01 -5.2395336197615118e-17 1.9885142687137541e-16  1.5000000000000002e-01 -7.1201678010407301e-17 2.1473048988404958e-16  1.5000000000000005e-01 1.1463035416447289e-17 -2.5291855771328727e-16  1.4999999999999994e-01 -6.5978174161440387e-16 9.7414243012902288e-17  1.4999999999999994e-01 3.8670787036075227e-16 -4.7524010604766594e-16  1.5000000000000005e-01 -4.1654222423923556e-16 -1.6044604106486226e-16  1.4999999999999994e-01 1.1959347171394798e-16 -6.5818904246654187e-16  1.5000000000000008e-01 3.4300414093538136e-16 -4.9196562632249305e-16  1.5000000000000005e-01 1.6158044858175937e-17 -3.7048115192845893e-16  1.4999999999999999e-01 -7.3810781916224489e-18 -1.9524934387457727e-16  1.5000000000000011e-01 -2.3463192413823230e-16 1.5905414025796593e-16  1.5000000000000005e-01 1.8609253173079302e-16 -3.0710807843162883e-16  1.5000000000000002e-01 -2.4434140153588600e-17 1.4754612875557065e-16  1.5000000000000005e-01 7.3193312601924176e-17 2.0253284313708395e-18  1.4999999999999999e-01 -1.1986723000465948e-16 -1.6774831056737243e-16  1.5000000000000008e-01 2.4085640929987649e-17 -1.8826418958629751e-16  1.4999999999999999e-01 -2.1444863207794138e-16 -3.2613503202817413e-16  1.4999999999999997e-01 -5.1357703777933495e-17 -3.9209463002700836e-16  1.4999999999999980e-01 5.1987201523469404e-16 -7.7702117881231610e-16  1.4999999999999999e-01 -4.0005752139997610e-16 -8.1589213002066805e-17  1.4999999999999997e-01 -1.8641483854767320e-16 -8.3701063100313568e-18  1.5000000000000011e-01 3.0302443721841253e-16 -4.1364690566657410e-16  1.5000000000000002e-01 6.1784752945824405e-17 1.2106583129751844e-16  1.5000000000000005e-01 3.4606058025858081e-16 -1.0853083108511360e-16  1.4999999999999999e-01 -2.6951710074534366e-16 1.0318442633858905e-16  1.5000000000000005e-01 -3.6512317673215250e-16 6.3352850306209341e-16  1.5000000000000008e-01 3.1566087738170977e-17 -2.8521725528271018e-16  1.5000000000000008e-01 3.0565617150616559e-16 -2.6444763018579895e-16  1.4999999999999997e-01 6.1638637041533103e-16 3.8986796657733348e-16  1.4999999999999999e-01 -3.4208137452197182e-16 9.9910453785104961e-17  1.4999999999999997e-01 -2.9327924713253118e-16 -1.1291735860155674e-16  1.5000000000000005e-01 1.9622508226910663e-16 -2.5215291126413583e-16  1.4999999999999999e-01 -1.1949364727936956e-16 -1.4365229189042357e-16  1.5000000000000005e-01 -1.7296187659657671e-17 1.9779287797314061e-16  1.5000000000000005e-01 7.0522163319273298e-18 -1.4949396941268259e-16  1.4999999999999999e-01 -2.4788103245898634e-16 9.4942125823647115e-17  1.5000000000000008e-01 3.1290998656024947e-16 -8.6543728730390105e-17  1.4999999999999991e-01 -5.0189059052318887e-16 -7.3397793817780541e-17  1.5000000000000002e-01 4.1843846255134018e-16 -3.1678754097931729e-16  1.5000000000000008e-01 8.3240637695049846e-17 -1.5817260909745794e-16  1.5000000000000016e-01 -5.9945520204141658e-16 1.7153862983701502e-16  1.5000000000000005e-01 5.3663917718706512e-16 -2.7979424162966449e-16  1.5000000000000008e-01 -1.8447221048745437e-16 -2.0335090011097727e-16  1.5000000000000002e-01 -6.7128331204186950e-17 -2.5240986045624768e-16  1.5000000000000008e-01 2.1542236777379999e-16 -9.3924371227054410e-17  1.5000000000000005e-01 -9.6919827143345642e-17 -5.4489458389158449e-16  1.5000000000000005e-01 -2.1076668213007579e-17 -3.6528432009499503e-16  1.5000000000000002e-01 -6.0775079186095248e-17 2.6389776184217621e-16  1.5000000000000013e-01 4.0919759369126887e-16 -1.2613011936156924e-16  1.4999999999999994e-01 -1.6484850489016596e-16 2.1126755179393375e-16  1.5000000000000002e-01 1.3051392259550131e-17 -2.4076614825234953e-16  1.5000000000000005e-01 -2.1077953175409443e-16 -2.3321800501993278e-16  1.5000000000000013e-01 -1.4751417151492049e-16 1.1811747673213497e-16  1.5000000000000005e-01 2.2298233855345614e-16 -1.9569501024175029e-16  1.5000000000000005e-01 1.5903850655870764e-16 -2.7106140730730702e-16  1.5000000000000002e-01 -3.7253394741647927e-18 2.9128078419146646e-16  1.5000000000000002e-01 -3.0591584902703658e-17 3.3255205085036728e-16  1.5000000000000005e-01 -2.5456263163410590e-16 1.0074054369826086e-16  1.5000000000000005e-01 2.1012501055975236e-16 8.1854688247865932e-17  1.5000000000000005e-01 -2.5725905527165045e-16 9.3618857125580584e-17  1.5000000000000016e-01 1.7610768962085847e-16 7.7210646963343690e-17  1.4999999999999994e-01 2.8331153882730308e-16 -1.3637772557981824e-17  1.5000000000000005e-01 -4.7240654723395474e-16 -2.4633751867857878e-16  1.5000000000000005e-01 3.8720469136784153e-16 -4.0935389533812469e-16  1.5000000000000002e-01 -2.6110145766054047e-16 2.4078254880777792e-16  1.5000000000000005e-01 1.1582947789546585e-16 -2.0651840955583514e-16  1.5000000000000005e-01 2.0342852199802979e-16 -2.3999462979339515e-16  1.5000000000000022e-01 -1.3077936141362547e-16 1.6153432348326411e-16  1.5000000000000005e-01 -1.6161434392974973e-16 1.1062668123450255e-16  1.4999999999999999e-01 2.4010524957647985e-16 -1.423