<?xml version="1.0"?>
<VTKFile type="UnstructuredGrid"  version="0.1"  >
<UnstructuredGrid>
<Piece  NumberOfPoints="10201" NumberOfCells="20000">
<Points>
<DataArray  type="Float64"  NumberOfComponents="3"  format="ascii">-5 -5 0  -4.9 -5 0  -4.8 -5 0  -4.7 -5 0  -4.6 -5 0  -4.5 -5 0  -4.4 -5 0  -4.3 -5 0  -4.2 -5 0  -4.1 -5 0  -4 -5 0  -3.9 -5 0  -3.8 -5 0  -3.7 -5 0  -3.6 -5 0  -3.5 -5 0  -3.4 -5 0  -3.3 -5 0  -3.2 -5 0  -3.1 -5 0  -3 -5 0  -2.9 -5 0  -2.8 -5 0  -2.7 -5 0  -2.6 -5 0  -2.5 -5 0  -2.4 -5 0  -2.3 -5 0  -2.2 -5 0  -2.1 -5 0  -2 -5 0  -1.9 -5 0  -1.8 -5 0  -1.7 -5 0  -1.6 -5 0  -1.5 -5 0  -1.4 -5 0  -1.3 -5 0  -1.2 -5 0  -1.1 -5 0  -1 -5 0  -0.9000000000000004 -5 0  -0.7999999999999998 -5 0  -0.7000000000000002 -5 0  -0.5999999999999996 -5 0  -0.5 -5 0  -0.4000000000000004 -5 0  -0.2999999999999998 -5 0  -0.2000000000000002 -5 0  -0.09999999999999964 -5 0  0 -5 0  0.09999999999999964 -5 0  0.2000000000000002 -5 0  0.2999999999999998 -5 0  0.4000000000000004 -5 0  0.5 -5 0  0.5999999999999996 -5 0  0.7000000000000002 -5 0  0.7999999999999998 -5 0  0.9000000000000004 -5 0  1 -5 0  1.1 -5 0  1.2 -5 0  1.3 -5 0  1.4 -5 0  1.5 -5 0  1.6 -5 0  1.7 -5 0  1.8 -5 0  1.9 -5 0  2 -5 0  2.1 -5 0  2.2 -5 0  2.3 -5 0  2.4 -5 0  2.5 -5 0  2.6 -5 0  2.7 -5 0  2.8 -5 0  2.9 -5 0  3 -5 0  3.1 -5 0  3.199999999999999 -5 0  3.300000000000001 -5 0  3.4 -5 0  3.5 -5 0  3.6 -5 0  3.699999999999999 -5 0  3.800000000000001 -5 0  3.9 -5 0  4 -5 0  4.1 -5 0  4.199999999999999 -5 0  4.300000000000001 -5 0  4.4 -5 0  4.5 -5 0  4.6 -5 0  4.699999999999999 -5 0  4.800000000000001 -5 0  4.9 -5 0  5 -5 0  -5 -4.9 0  -4.9 -4.9 0  -4.8 -4.9 0  -4.7 -4.9 0  -4.6 -4.9 0  -4.5 -4.9 0  -4.4 -4.9 0  -4.3 -4.9 0  -4.2 -4.9 0  -4.1 -4.9 0  -4 -4.9 0  -3.9 -4.9 0  -3.8 -4.9 0  -3.7 -4.9 0  -3.6 -4.9 0  -3.5 -4.9 0  -3.4 -4.9 0  -3.3 -4.9 0  -3.2 -4.9 0  -3.1 -4.9 0  -3 -4.9 0  -2.9 -4.9 0  -2.8 -4.9 0  -2.7 -4.9 0  -2.6 -4.9 0  -2.5 -4.9 0  -2.4 -4.9 0  -2.3 -4.9 0  -2.2 -4.9 0  -2.1 -4.9 0  -2 -4.9 0  -1.9 -4.9 0  -1.8 -4.9 0  -1.7 -4.9 0  -1.6 -4.9 0  -1.5 -4.9 0  -1.4 -4.9 0  -1.3 -4.9 0  -1.2 -4.9 0  -1.1 -4.9 0  -1 -4.9 0  -0.9000000000000004 -4.9 0  -0.7999999999999998 -4.9 0  -0.7000000000000002 -4.9 0  -0.5999999999999996 -4.9 0  -0.5 -4.9 0  -0.4000000000000004 -4.9 0  -0.2999999999999998 -4.9 0  -0.2000000000000002 -4.9 0  -0.09999999999999964 -4.9 0  0 -4.9 0  0.09999999999999964 -4.9 0  0.2000000000000002 -4.9 0  0.2999999999999998 -4.9 0  0.4000000000000004 -4.9 0  0.5 -4.9 0  0.5999999999999996 -4.9 0  0.7000000000000002 -4.9 0  0.7999999999999998 -4.9 0  0.9000000000000004 -4.9 0  1 -4.9 0  1.1 -4.9 0  1.2 -4.9 0  1.3 -4.9 0  1.4 -4.9 0  1.5 -4.9 0  1.6 -4.9 0  1.7 -4.9 0  1.8 -4.9 0  1.9 -4.9 0  2 -4.9 0  2.1 -4.9 0  2.2 -4.9 0  2.3 -4.9 0  2.4 -4.9 0  2.5 -4.9 0  2.6 -4.9 0  2.7 -4.9 0  2.8 -4.9 0  2.9 -4.9 0  3 -4.9 0  3.1 -4.9 0  3.199999999999999 -4.9 0  3.300000000000001 -4.9 0  3.4 -4.9 0  3.5 -4.9 0  3.6 -4.9 0  3.699999999999999 -4.9 0  3.800000000000001 -4.9 0  3.9 -4.9 0  4 -4.9 0  4.1 -4.9 0  4.199999999999999 -4.9 0  4.300000000000001 -4.9 0  4.4 -4.9 0  4.5 -4.9 0  4.6 -4.9 0  4.699999999999999 -4.9 0  4.800000000000001 -4.9 0  4.9 -4.9 0  5 -4.9 0  -5 -4.8 0  -4.9 -4.8 0  -4.8 -4.8 0  -4.7 -4.8 0  -4.6 -4.8 0  -4.5 -4.8 0  -4.4 -4.8 0  -4.3 -4.8 0  -4.2 -4.8 0  -4.1 -4.8 0  -4 -4.8 0  -3.9 -4.8 0  -3.8 -4.8 0  -3.7 -4.8 0  -3.6 -4.8 0  -3.5 -4.8 0  -3.4 -4.8 0  -3.3 -4.8 0  -3.2 -4.8 0  -3.1 -4.8 0  -3 -4.8 0  -2.9 -4.8 0  -2.8 -4.8 0  -2.7 -4.8 0  -2.6 -4.8 0  -2.5 -4.8 0  -2.4 -4.8 0  -2.3 -4.8 0  -2.2 -4.8 0  -2.1 -4.8 0  -2 -4.8 0  -1.9 -4.8 0  -1.8 -4.8 0  -1.7 -4.8 0  -1.6 -4.8 0  -1.5 -4.8 0  -1.4 -4.8 0  -1.3 -4.8 0  -1.2 -4.8 0  -1.1 -4.8 0  -1 -4.8 0  -0.9000000000000004 -4.8 0  -0.7999999999999998 -4.8 0  -0.7000000000000002 -4.8 0  -0.5999999999999996 -4.8 0  -0.5 -4.8 0  -0.4000000000000004 -4.8 0  -0.2999999999999998 -4.8 0  -0.2000000000000002 -4.8 0  -0.09999999999999964 -4.8 0  0 -4.8 0  0.09999999999999964 -4.8 0  0.2000000000000002 -4.8 0  0.2999999999999998 -4.8 0  0.4000000000000004 -4.8 0  0.5 -4.8 0  0.5999999999999996 -4.8 0  0.7000000000000002 -4.8 0  0.7999999999999998 -4.8 0  0.9000000000000004 -4.8 0  1 -4.8 0  1.1 -4.8 0  1.2 -4.8 0  1.3 -4.8 0  1.4 -4.8 0  1.5 -4.8 0  1.6 -4.8 0  1.7 -4.8 0  1.8 -4.8 0  1.9 -4.8 0  2 -4.8 0  2.1 -4.8 0  2.2 -4.8 0  2.3 -4.8 0  2.4 -4.8 0  2.5 -4.8 0  2.6 -4.8 0  2.7 -4.8 0  2.8 -4.8 0  2.9 -4.8 0  3 -4.8 0  3.1 -4.8 0  3.199999999999999 -4.8 0  3.300000000000001 -4.8 0  3.4 -4.8 0  3.5 -4.8 0  3.6 -4.8 0  3.699999999999999 -4.8 0  3.800000000000001 -4.8 0  3.9 -4.8 0  4 -4.8 0  4.1 -4.8 0  4.199999999999999 -4.8 0  4.300000000000001 -4.8 0  4.4 -4.8 0  4.5 -4.8 0  4.6 -4.8 0  4.699999999999999 -4.8 0  4.800000000000001 -4.8 0  4.9 -4.8 0  5 -4.8 0  -5 -4.7 0  -4.9 -4.7 0  -4.8 -4.7 0  -4.7 -4.7 0  -4.6 -4.7 0  -4.5 -4.7 0  -4.4 -4.7 0  -4.3 -4.7 0  -4.2 -4.7 0  -4.1 -4.7 0  -4 -4.7 0  -3.9 -4.7 0  -3.8 -4.7 0  -3.7 -4.7 0  -3.6 -4.7 0  -3.5 -4.7 0  -3.4 -4.7 0  -3.3 -4.7 0  -3.2 -4.7 0  -3.1 -4.7 0  -3 -4.7 0  -2.9 -4.7 0  -2.8 -4.7 0  -2.7 -4.7 0  -2.6 -4.7 0  -2.5 -4.7 0  -2.4 -4.7 0  -2.3 -4.7 0  -2.2 -4.7 0  -2.1 -4.7 0  -2 -4.7 0  -1.9 -4.7 0  -1.8 -4.7 0  -1.7 -4.7 0  -1.6 -4.7 0  -1.5 -4.7 0  -1.4 -4.7 0  -1.3 -4.7 0  -1.2 -4.7 0  -1.1 -4.7 0  -1 -4.7 0  -0.9000000000000004 -4.7 0  -0.7999999999999998 -4.7 0  -0.7000000000000002 -4.7 0  -0.5999999999999996 -4.7 0  -0.5 -4.7 0  -0.4000000000000004 -4.7 0  -0.2999999999999998 -4.7 0  -0.2000000000000002 -4.7 0  -0.09999999999999964 -4.7 0  0 -4.7 0  0.09999999999999964 -4.7 0  0.2000000000000002 -4.7 0  0.2999999999999998 -4.7 0  0.4000000000000004 -4.7 0  0.5 -4.7 0  0.5999999999999996 -4.7 0  0.7000000000000002 -4.7 0  0.7999999999999998 -4.7 0  0.9000000000000004 -4.7 0  1 -4.7 0  1.1 -4.7 0  1.2 -4.7 0  1.3 -4.7 0  1.4 -4.7 0  1.5 -4.7 0  1.6 -4.7 0  1.7 -4.7 0  1.8 -4.7 0  1.9 -4.7 0  2 -4.7 0  2.1 -4.7 0  2.2 -4.7 0  2.3 -4.7 0  2.4 -4.7 0  2.5 -4.7 0  2.6 -4.7 0  2.7 -4.7 0  2.8 -4.7 0  2.9 -4.7 0  3 -4.7 0  3.1 -4.7 0  3.199999999999999 -4.7 0  3.300000000000001 -4.7 0  3.4 -4.7 0  3.5 -4.7 0  3.6 -4.7 0  3.699999999999999 -4.7 0  3.800000000000001 -4.7 0  3.9 -4.7 0  4 -4.7 0  4.1 -4.7 0  4.199999999999999 -4.7 0  4.300000000000001 -4.7 0  4.4 -4.7 0  4.5 -4.7 0  4.6 -4.7 0  4.699999999999999 -4.7 0  4.800000000000001 -4.7 0  4.9 -4.7 0  5 -4.7 0  -5 -4.6 0  -4.9 -4.6 0  -4.8 -4.6 0  -4.7 -4.6 0  -4.6 -4.6 0  -4.5 -4.6 0  -4.4 -4.6 0  -4.3 -4.6 0  -4.2 -4.6 0  -4.1 -4.6 0  -4 -4.6 0  -3.9 -4.6 0  -3.8 -4.6 0  -3.7 -4.6 0  -3.6 -4.6 0  -3.5 -4.6 0  -3.4 -4.6 0  -3.3 -4.6 0  -3.2 -4.6 0  -3.1 -4.6 0  -3 -4.6 0  -2.9 -4.6 0  -2.8 -4.6 0  -2.7 -4.6 0  -2.6 -4.6 0  -2.5 -4.6 0  -2.4 -4.6 0  -2.3 -4.6 0  -2.2 -4.6 0  -2.1 -4.6 0  -2 -4.6 0  -1.9 -4.6 0  -1.8 -4.6 0  -1.7 -4.6 0  -1.6 -4.6 0  -1.5 -4.6 0  -1.4 -4.6 0  -1.3 -4.6 0  -1.2 -4.6 0  -1.1 -4.6 0  -1 -4.6 0  -0.9000000000000004 -4.6 0  -0.7999999999999998 -4.6 0  -0.7000000000000002 -4.6 0  -0.5999999999999996 -4.6 0  -0.5 -4.6 0  -0.4000000000000004 -4.6 0  -0.2999999999999998 -4.6 0  -0.2000000000000002 -4.6 0  -0.09999999999999964 -4.6 0  0 -4.6 0  0.09999999999999964 -4.6 0  0.2000000000000002 -4.6 0  0.2999999999999998 -4.6 0  0.4000000000000004 -4.6 0  0.5 -4.6 0  0.5999999999999996 -4.6 0  0.7000000000000002 -4.6 0  0.7999999999999998 -4.6 0  0.9000000000000004 -4.6 0  1 -4.6 0  1.1 -4.6 0  1.2 -4.6 0  1.3 -4.6 0  1.4 -4.6 0  1.5 -4.6 0  1.6 -4.6 0  1.7 -4.6 0  1.8 -4.6 0  1.9 -4.6 0  2 -4.6 0  2.1 -4.6 0  2.2 -4.6 0  2.3 -4.6 0  2.4 -4.6 0  2.5 -4.6 0  2.6 -4.6 0  2.7 -4.6 0  2.8 -4.6 0  2.9 -4.6 0  3 -4.6 0  3.1 -4.6 0  3.199999999999999 -4.6 0  3.300000000000001 -4.6 0  3.4 -4.6 0  3.5 -4.6 0  3.6 -4.6 0  3.699999999999999 -4.6 0  3.800000000000001 -4.6 0  3.9 -4.6 0  4 -4.6 0  4.1 -4.6 0  4.199999999999999 -4.6 0  4.300000000000001 -4.6 0  4.4 -4.6 0  4.5 -4.6 0  4.6 -4.6 0  4.699999999999999 -4.6 0  4.800000000000001 -4.6 0  4.9 -4.6 0  5 -4.6 0  -5 -4.5 0  -4.9 -4.5 0  -4.8 -4.5 0  -4.7 -4.5 0  -4.6 -4.5 0  -4.5 -4.5 0  -4.4 -4.5 0  -4.3 -4.5 0  -4.2 -4.5 0  -4.1 -4.5 0  -4 -4.5 0  -3.9 -4.5 0  -3.8 -4.5 0  -3.7 -4.5 0  -3.6 -4.5 0  -3.5 -4.5 0  -3.4 -4.5 0  -3.3 -4.5 0  -3.2 -4.5 0  -3.1 -4.5 0  -3 -4.5 0  -2.9 -4.5 0  -2.8 -4.5 0  -2.7 -4.5 0  -2.6 -4.5 0  -2.5 -4.5 0  -2.4 -4.5 0  -2.3 -4.5 0  -2.2 -4.5 0  -2.1 -4.5 0  -2 -4.5 0  -1.9 -4.5 0  -1.8 -4.5 0  -1.7 -4.5 0  -1.6 -4.5 0  -1.5 -4.5 0  -1.4 -4.5 0  -1.3 -4.5 0  -1.2 -4.5 0  -1.1 -4.5 0  -1 -4.5 0  -0.9000000000000004 -4.5 0  -0.7999999999999998 -4.5 0  -0.7000000000000002 -4.5 0  -0.5999999999999996 -4.5 0  -0.5 -4.5 0  -0.4000000000000004 -4.5 0  -0.2999999999999998 -4.5 0  -0.2000000000000002 -4.5 0  -0.09999999999999964 -4.5 0  0 -4.5 0  0.09999999999999964 -4.5 0  0.2000000000000002 -4.5 0  0.2999999999999998 -4.5 0  0.4000000000000004 -4.5 0  0.5 -4.5 0  0.5999999999999996 -4.5 0  0.7000000000000002 -4.5 0  0.7999999999999998 -4.5 0  0.9000000000000004 -4.5 0  1 -4.5 0  1.1 -4.5 0  1.2 -4.5 0  1.3 -4.5 0  1.4 -4.5 0  1.5 -4.5 0  1.6 -4.5 0  1.7 -4.5 0  1.8 -4.5 0  1.9 -4.5 0  2 -4.5 0  2.1 -4.5 0  2.2 -4.5 0  2.3 -4.5 0  2.4 -4.5 0  2.5 -4.5 0  2.6 -4.5 0  2.7 -4.5 0  2.8 -4.5 0  2.9 -4.5 0  3 -4.5 0  3.1 -4.5 0  3.199999999999999 -4.5 0  3.300000000000001 -4.5 0  3.4 -4.5 0  3.5 -4.5 0  3.6 -4.5 0  3.699999999999999 -4.5 0  3.800000000000001 -4.5 0  3.9 -4.5 0  4 -4.5 0  4.1 -4.5 0  4.199999999999999 -4.5 0  4.300000000000001 -4.5 0  4.4 -4.5 0  4.5 -4.5 0  4.6 -4.5 0  4.699999999999999 -4.5 0  4.800000000000001 -4.5 0  4.9 -4.5 0  5 -4.5 0  -5 -4.4 0  -4.9 -4.4 0  -4.8 -4.4 0  -4.7 -4.4 0  -4.6 -4.4 0  -4.5 -4.4 0  -4.4 -4.4 0  -4.3 -4.4 0  -4.2 -4.4 0  -4.1 -4.4 0  -4 -4.4 0  -3.9 -4.4 0  -3.8 -4.4 0  -3.7 -4.4 0  -3.6 -4.4 0  -3.5 -4.4 0  -3.4 -4.4 0  -3.3 -4.4 0  -3.2 -4.4 0  -3.1 -4.4 0  -3 -4.4 0  -2.9 -4.4 0  -2.8 -4.4 0  -2.7 -4.4 0  -2.6 -4.4 0  -2.5 -4.4 0  -2.4 -4.4 0  -2.3 -4.4 0  -2.2 -4.4 0  -2.1 -4.4 0  -2 -4.4 0  -1.9 -4.4 0  -1.8 -4.
[...]
<PointData  Vectors="f_23"> 
<DataArray  type="Float64"  Name="f_23"  NumberOfComponents="3" format="ascii">1.5000000000000013e-01 0.0000000000000000e+00 0.0000000000000000e+00  1.5000000000000019e-01 2.3566148606757329e-31 0.0000000000000000e+00  1.4999999999999980e-01 1.1600867628676219e-34 0.0000000000000000e+00  1.5000000000000044e-01 1.8472148348860257e-32 0.0000000000000000e+00  1.5000000000000022e-01 1.0992449099530446e-32 0.0000000000000000e+00  1.4999999999999974e-01 5.9880059030307635e-31 0.0000000000000000e+00  1.5000000000000269e-01 1.1241210239902980e-29 0.0000000000000000e+00  1.5000000000002281e-01 2.7215888499338587e-28 0.0000000000000000e+00  1.5000000000010097e-01 4.0867046350266443e-27 0.0000000000000000e+00  1.5000000000035152e-01 2.5204647778605167e-26 0.0000000000000000e+00  1.5000000000097866e-01 6.8234007803618721e-26 0.0000000000000000e+00  1.5000000000216121e-01 9.3636290120740849e-26 0.0000000000000000e+00  1.5000000000419075e-01 2.3286067349075448e-25 0.0000000000000000e+00  1.5000000000872868e-01 6.9176035313366263e-24 0.0000000000000000e+00  1.5000000002301853e-01 1.8217266427431224e-22 0.0000000000000000e+00  1.5000000006907330e-01 2.1356442463603469e-21 0.0000000000000000e+00  1.5000000018970233e-01 1.1901830865587565e-20 0.0000000000000000e+00  1.5000000041949516e-01 3.0263593668066036e-20 0.0000000000000000e+00  1.5000000068759906e-01 2.0677195997806065e-20 0.0000000000000000e+00  1.5000000069813474e-01 1.3781196372272879e-20 0.0000000000000000e+00  1.4999999997331534e-01 4.0555258071490782e-19 0.0000000000000000e+00  1.4999999825750807e-01 1.3284767159127773e-18 0.0000000000000000e+00  1.4999999612039883e-01 1.3611802074063600e-18 0.0000000000000000e+00  1.4999999501840619e-01 1.4465770586384565e-19 0.0000000000000000e+00  1.4999999618897808e-01 7.2346466968025494e-19 0.0000000000000000e+00  1.4999999917448692e-01 2.7728915145557163e-18 0.0000000000000000e+00  1.5000000191160598e-01 2.1487176676195883e-18 0.0000000000000000e+00  1.5000000273557848e-01 2.2840473951932239e-19 0.0000000000000000e+00  1.5000000183081533e-01 2.7489602304064883e-19 0.0000000000000000e+00  1.5000000035221012e-01 8.4636927616635827e-19 0.0000000000000000e+00  1.4999999910098788e-01 3.7562081498603885e-19 0.0000000000000000e+00  1.4999999870639560e-01 2.0978123812539844e-21 0.0000000000000000e+00  1.4999999963856780e-01 2.5278633855951806e-19 0.0000000000000000e+00  1.5000000097643401e-01 1.4446618223458038e-19 0.0000000000000000e+00  1.5000000090198740e-01 1.6299440291379956e-20 0.0000000000000000e+00  1.4999999953873738e-01 1.4883985479017708e-19 0.0000000000000000e+00  1.4999999908992517e-01 9.9630974239124257e-21 0.0000000000000000e+00  1.5000000014449827e-01 6.8265579458028035e-20 0.0000000000000000e+00  1.5000000072243483e-01 2.8316094647371058e-20 0.0000000000000000e+00  1.4999999997387956e-01 2.3300362998015918e-20 0.0000000000000000e+00  1.4999999948538542e-01 2.4190160372928461e-20 0.0000000000000000e+00  1.5000000001511798e-01 8.0250479565969151e-21 0.0000000000000000e+00  1.5000000034284322e-01 1.3686559003128963e-20 0.0000000000000000e+00  1.4999999996198340e-01 3.5636215663456967e-21 0.0000000000000000e+00  1.4999999978722514e-01 5.9914815695820874e-21 0.0000000000000000e+00  1.5000000005715172e-01 2.0908509329991078e-21 0.0000000000000000e+00  1.5000000011829329e-01 1.9969945893155228e-21 0.0000000000000000e+00  1.4999999993934846e-01 1.3352670246113724e-21 0.0000000000000000e+00  1.4999999994617272e-01 4.2243507867191602e-22 0.0000000000000000e+00  1.5000000005032721e-01 7.5329717422090244e-22 0.0000000000000000e+00  1.5000000001482869e-01 2.4186012965709976e-23 0.0000000000000000e+00  1.4999999996673025e-01 3.2040337620515056e-22 0.0000000000000000e+00  1.5000000000398508e-01 1.0001982561846749e-23 0.0000000000000000e+00  1.5000000001665093e-01 8.5300689899334407e-23 0.0000000000000000e+00  1.4999999999091046e-01 2.9978175037226641e-23 0.0000000000000000e+00  1.4999999999507288e-01 8.5284895105934213e-24 0.0000000000000000e+00  1.5000000000711045e-01 1.9225861067618121e-23 0.0000000000000000e+00  1.4999999999914282e-01 2.1175478131713107e-25 0.0000000000000000e+00  1.4999999999672098e-01 4.7638898390118807e-24 0.0000000000000000e+00  1.5000000000217922e-01 1.9400357902085523e-24 0.0000000000000000e+00  1.5000000000048960e-01 1.7572447338426787e-25 0.0000000000000000e+00  1.4999999999860630e-01 9.7082579824515354e-25 0.0000000000000000e+00  1.5000000000057565e-01 1.2873333799952637e-25 0.0000000000000000e+00  1.5000000000035293e-01 9.0748830650750123e-26 0.0000000000000000e+00  1.4999999999948849e-01 1.4363509436318895e-25 0.0000000000000000e+00  1.5000000000015709e-01 8.2695900452719024e-27 0.0000000000000000e+00  1.5000000000014926e-01 1.8304916939649050e-26 0.0000000000000000e+00  1.4999999999981972e-01 1.9948933222009207e-26 0.0000000000000000e+00  1.5000000000005476e-01 1.0257023456241442e-27 0.0000000000000000e+00  1.5000000000004923e-01 2.3709869705477409e-27 0.0000000000000000e+00  1.4999999999993696e-01 2.8495838514340319e-27 0.0000000000000000e+00  1.5000000000002517e-01 2.7876197314809558e-28 0.0000000000000000e+00  1.5000000000001137e-01 1.7476515365550087e-28 0.0000000000000000e+00  1.4999999999997932e-01 3.8610756714668999e-28 0.0000000000000000e+00  1.5000000000001235e-01 9.3259914337276214e-29 0.0000000000000000e+00  1.5000000000000036e-01 1.6499986334245340e-30 0.0000000000000000e+00  1.4999999999999480e-01 3.4497009324549729e-29 0.0000000000000000e+00  1.5000000000000543e-01 1.8067273580485116e-29 0.0000000000000000e+00  1.4999999999999808e-01 1.5683864686406116e-30 0.0000000000000000e+00  1.4999999999999983e-01 6.6428255034572052e-31 0.0000000000000000e+00  1.5000000000000163e-01 3.0126419397160564e-30 0.0000000000000000e+00  1.4999999999999905e-01 3.0142760875778785e-30 0.0000000000000000e+00  1.5000000000000005e-01 3.1458753854175584e-31 0.0000000000000000e+00  1.5000000000000052e-01 5.3457550101426135e-32 0.0000000000000000e+00  1.4999999999999963e-01 1.2852786980463138e-32 0.0000000000000000e+00  1.5000000000000030e-01 9.8519607495752774e-32 0.0000000000000000e+00  1.5000000000000030e-01 1.1495566557631783e-31 0.0000000000000000e+00  1.5000000000000036e-01 6.3573414712330750e-32 0.0000000000000000e+00  1.5000000000000022e-01 2.1775269850893289e-32 0.0000000000000000e+00  1.5000000000000011e-01 4.5769582810436704e-32 0.0000000000000000e+00  1.5000000000000011e-01 3.1417203892864448e-32 0.0000000000000000e+00  1.4999999999999980e-01 4.0430131061639147e-33 0.0000000000000000e+00  1.4999999999999991e-01 1.2229828319082975e-34 0.0000000000000000e+00  1.4999999999999980e-01 2.5029171179771370e-32 0.0000000000000000e+00  1.4999999999999997e-01 1.4423395693881642e-33 0.0000000000000000e+00  1.5000000000000036e-01 4.4110635974039081e-32 0.0000000000000000e+00  1.4999999999999955e-01 1.9857223629637027e-31 0.0000000000000000e+00  1.5000000000000041e-01 1.1855798791504230e-34 0.0000000000000000e+00  1.4999999999999991e-01 1.6013216624196915e-33 0.0000000000000000e+00  1.5000000000000030e-01 1.5853603137058872e-32 0.0000000000000000e+00  1.5000000000000002e-01 0.0000000000000000e+00 0.0000000000000000e+00  1.5000000000000019e-01 0.0000000000000000e+00 6.1485984272791039e-34  1.5000000000000019e-01 5.7111343254809112e-32 3.3945059317053159e-34  1.5000000000000036e-01 4.3751894528396782e-33 6.5208159694226974e-34  1.5000000000000049e-01 9.0898702744990243e-33 1.6053596809560885e-32  1.5000000000000041e-01 3.4353578104000471e-31 3.7885835664700466e-32  1.5000000000000083e-01 7.8761585059853402e-32 4.0769937524958464e-31  1.5000000000000036e-01 7.3243470180455032e-30 1.8753912306877786e-31  1.4999999999998689e-01 1.2442527223969191e-28 1.2759371903203949e-28  1.4999999999992808e-01 2.3038630378673191e-27 4.5273787830641187e-27  1.4999999999972405e-01 2.2990334884361143e-26 7.2263374694492851e-26  1.4999999999914129e-01 9.7084089873008606e-26 7.2318594116455369e-25  1.4999999999788061e-01 2.0621759169211739e-25 4.5404771598447249e-24  1.4999999999564687e-01 3.4099459435177829e-25 1.9634184792011952e-23  1.4999999999142968e-01 2.6333709272225164e-24 7.2773721613359843e-23  1.4999999998051586e-01 6.9956389799845314e-23 3.2536677433994320e-22  1.4999999994658292e-01 1.1164839122085191e-21 2.1270232322483655e-21  1.4999999985086679e-01 8.5196666190052012e-21 1.5438420311668488e-20  1.4999999964279587e-01 3.0835037423294090e-20 8.4641629054482045e-20  1.4999999933743546e-01 4.1674839789682772e-20 2.7329070101306780e-19  1.4999999915758030e-01 5.3326785631937881e-22 3.8190644418521075e-19  1.4999999959216240e-01 2.3032359121916794e-19 2.9424043859403741e-20  1.5000000111315251e-01 1.3130023168251522e-18 1.3140435735958349e-18  1.5000000351220244e-01 2.1185538793759517e-18 9.2075177084043921e-18  1.5000000545547387e-01 7.8726416628278380e-19 1.8502782909488045e-17  1.5000000520327075e-01 2.0650062599637832e-19 1.3204589362620078e-17  1.5000000237691502e-01 2.8678967751784148e-18 1.1115303922533469e-18  1.4999999881180098e-01 3.6725502861082429e-18 2.8098706613035447e-18  1.4999999692231739e-01 1.0804315746289436e-18 7.3495691975990929e-18  1.4999999733494024e-01 4.0055999486748193e-20 3.7493093358535013e-18  1.4999999890124119e-01 9.6487854348448162e-19 2.7751268646394082e-19  1.5000000050437959e-01 8.9727599612577101e-19 4.6193093584605233e-19  1.5000000147974896e-01 7.1031127842599358e-20 1.6189491377262052e-18  1.5000000104105207e-01 2.1453703732424628e-19 4.7729049308342230e-19  1.4999999939953951e-01 3.4796851898271396e-19 5.1641209098921142e-19  1.4999999861639177e-01 4.0388772982720140e-21 1.3293772931241970e-18  1.4999999987089579e-01 1.7615720536450976e-19 9.6147183128706562e-21  1.5000000114552681e-01 7.4430835350697067e-20 1.0961790122015077e-18  1.5000000041875614e-01 3.8165745869225726e-20 4.1941406998751407e-20  1.4999999918339607e-01 7.7632991673773173e-20 6.2481755756240561e-19  1.4999999957947308e-01 3.3632629777955557e-21 6.5798748923847345e-20  1.5000000056139487e-01 4.7278717463625716e-20 3.1295504824776035e-19  1.5000000030503996e-01 3.8714787974159974e-24 3.6135696597257001e-20  1.4999999961082081e-01 2.3716027805521109e-20 1.5027518902262460e-19  1.4999999982662443e-01 7.4198237844489670e-23 9.4153585055486509e-21  1.5000000026934412e-01 1.1065625874296226e-20 6.8386886959875634e-20  1.5000000006877298e-01 2.0706701178021968e-24 4.4661886041527785e-22  1.4999999982189757e-01 4.8393406246521137e-21 2.7317136236634976e-20  1.4999999999720656e-01 7.1645038102816250e-23 5.7304306339265336e-22  1.5000000010603828e-01 1.8365836227065165e-21 8.4626398266339716e-21  1.4999999997210589e-01 2.1398470884038253e-22 1.6097262974929356e-21  1.4999999994783414e-01 5.1617396879619172e-22 1.6201230048662323e-21  1.5000000003320996e-01 2.3978301376873429e-22 1.3283593503696510e-21  1.5000000001707206e-01 7.3891668294085179e-23 8.2060277548872674e-23  1.4999999997511462e-01 1.4886164316284093e-22 5.6042116734223351e-22  1.5000000000095359e-01 9.5899581286624102e-26 2.4847098190494701e-23  1.5000000001298774e-01 5.1183525007371846e-23 1.1155399989802069e-22  1.4999999999352887e-01 8.9006269447663659e-24 5.7708139010760820e-23  1.4999999999625474e-01 6.9254598676272609e-24 3.4865619506914560e-24  1.5000000000527966e-01 8.7708419160169729e-24 2.4441224914174703e-23  1.4999999999917082e-01 6.8604684399619696e-27 2.7904553618791682e-24  1.4999999999772945e-01 2.4797268285957285e-24 2.6431897866141989e-24  1.5000000000171501e-01 8.7586198896200665e-25 3.2216870932474034e-24  1.5000000000014654e-01 8.7675605455638849e-26 5.9889178739939838e-26  1.4999999999904359e-01 4.6232005966694221e-25 5.7467857495821111e-25  1.5000000000052838e-01 7.4530019147317465e-26 3.6863299941463661e-25  1.5000000000013533e-01 3.2193366583946315e-26 4.0299847369347454e-28  1.4999999999964672e-01 6.9466486425117576e-26 8.3443255206085364e-26  1.5000000000017658e-01 8.2217438844391927e-27 4.4822426905552695e-26  1.5000000000004943e-01 5.0795391030348628e-27 9.3768996931308936e-29  1.4999999999987743e-01 9.8577658956356514e-27 9.3737754131397622e-27  1.5000000000006783e-01 1.4900963604059578e-27 6.1487465925440889e-27  1.5000000000000810e-01 4.1249509135639246e-28 1.8345016593082495e-28  1.4999999999996100e-01 1.3184964072838032e-27 7.3593970590688623e-28  1.5000000000002767e-01 3.7046569720469282e-28 8.0778134508837504e-28  1.4999999999999619e-01 3.1514077040141597e-30 1.1735634521432276e-28  1.4999999999999039e-01 1.2465248464635173e-28 2.0062457911525626e-29  1.5000000000001051e-01 8.7622685003979172e-29 8.4558007505207666e-29  1.4999999999999528e-01 8.4679993333330149e-30 3.5504148493646917e-29  1.4999999999999988e-01 4.3453926152212535e-30 8.3079818275276781e-31  1.5000000000000294e-01 9.4116902251672433e-30 3.2117986975365289e-30  1.4999999999999783e-01 5.4938182679601529e-30 4.1965318166347225e-30  1.5000000000000147e-01 9.4796073006915393e-32 1.9921137598965072e-30  1.5000000000000030e-01 1.8131520278649940e-31 1.6049309379591055e-31  1.4999999999999958e-01 2.1802510063417961e-31 1.2773895573744959e-31  1.5000000000000083e-01 5.3847052025709742e-31 2.4119589031961446e-31  1.4999999999999997e-01 3.9875776749907521e-32 1.2851183832422758e-31  1.5000000000000011e-01 2.8518059442916969e-31 1.5733677414201188e-31  1.5000000000000011e-01 1.4780756399837774e-32 6.4297136612995157e-32  1.5000000000000005e-01 2.9384711108111518e-35 6.0483940795167156e-32  1.5000000000000022e-01 3.8874377190631843e-32 3.8484739449184537e-32  1.4999999999999997e-01 8.7698916048845789e-33 2.4330372619758830e-32  1.5000000000000005e-01 1.2283390367413592e-34 3.9067243320379959e-33  1.5000000000000013e-01 2.1908371322038028e-32 1.6056598021953173e-34  1.5000000000000044e-01 3.3001494758771063e-32 5.4883482846348577e-33  1.5000000000000044e-01 7.8908469733568733e-33 1.0426444183436232e-34  1.5000000000000013e-01 1.4854667092955847e-31 3.5460307357228805e-35  1.5000000000000041e-01 5.8218539626826703e-33 6.8431727459849920e-32  1.5000000000000022e-01 3.7545140156221969e-32 2.9494520836607665e-33  1.5000000000000002e-01 2.0876700700170436e-32 2.2135397065956964e-32  1.5000000000000052e-01 1.4950102143348603e-32 3.3644557949216312e-35  1.5000000000000011e-01 0.0000000000000000e+00 1.7762316971557142e-32  1.5000000000000011e-01 0.0000000000000000e+00 8.5433306524715230e-33  1.5000000000000022e-01 1.1190283454208385e-32 1.0190999153827744e-32  1.5000000000000027e-01 4.1812060728320393e-32 7.0593524944370402e-33  1.4999999999999958e-01 1.9013126254961865e-32 1.8750735804393149e-32  1.5000000000000013e-01 3.7907623783039099e-32 6.1164718425305871e-32  1.5000000000000027e-01 9.7638741437304994e-31 2.8238328460062545e-34  1.4999999999999841e-01 2.1444939840754038e-30 3.2958787008584827e-30  1.5000000000000668e-01 9.1230991750571140e-29 3.7394018711716539e-29  1.5000000000006222e-01 1.8979279399960279e-27 5.1487333450583500e-27  1.5000000000026978e-01 2.9096815472364627e-26 1.1175179079557318e-25  1.5000000000094482e-01 2.0775406207047063e-25 1.4850835259718115e-24  1.5000000000268673e-01 7.4544750541832946e-25 1.2535580945838164e-23  1.5000000000618380e-01 1.7369328729100062e-24 6.8230893697829001e-23  1.5000000001241065e-01 4.6277854412577734e-24 2.7120107296636551e-22  1.5000000002467992e-01 4.2248635018139961e-23 9.7784927750775843e-22  1.5000000005532776e-01 6.9777190665589851e-22 4.3335326898926316e-21  1.5000000014043063e-01 7.2778584901496356e-21 2.6549507372303523e-20  1.5000000034775024e-01 3.8062528721038709e-20 1.6606937291331858e-19  1.5000000072053768e-01 8.7341141311911289e-20 7.3501639965014447e-19  1.5000000110505804e-01 4.0448621527038256e-20 1.7500360271332684e-18  1.5000000096453853e-01 1.0400037051135478e-19 1.2771661975935195e-18  1.4999999951726836e-01 1.6034862363045145e-18 4.7819592319595975e-19  1.4999999649420770e-01 4.3014524674487339e-18 1.9587984272227032e-17  1.4999999311215245e-01 3.4057834629008022e-18 7.1618004015648991e-17  1.4999999191837166e-01 5.0247271871076792e-20 9.2330050684223305e-17  1.4999999464471919e-01 3.5852159963094482e-18 3.4628444812007850e-17  1.4999999987936732e-01 8.6978750009075402e-18 4.5291077576556146e-19  1.5000000390729182e-01 4.9150301205086048e-18 2.8697289717389093e-17  1.5000000448373818e-01 1.8318345251152475e-19 3.1493619223153899e-17  1.5000000262300170e-01 1.2437767661395099e-18 8.9912441609453021e-18  1.5000000024817678e-01 2.5619580798802814e-18 1.9608199402515939e-22  1.4999999828201538e-01 8.9229040947451342e-19 5.5394224319033062e-18  1.4999999780615098e-01 7.6205569226778820e-20 7.4792852096633785e-18  1.4999999974047232e-01 9.9253212731543447e-19 1.8366358802766646e-20  1.5000000203788291e-01 2.9423848654598836e-19 7.2562522846460987e-18  1.5000000134374247e-01 1.9597830314070274e-19 2.5687749948524646e-18  1.4999999870741482e-01 4.5673295718898101e-19 3.1495093880669346e-18  1.4999999847236900e-01 5.8514350845439608e-22 3.6087309843647878e-18  1.5000000072226877e-01 2.7568486209417533e-19 1.0592056401651345e-18  1.5000000128702001e-01 2.3260378055641002e-20 2.6244297279264202e-18  1.4999999956835644e-01 1.2159331989901172e-19 3.9771857466923377e-19  1.4999999906484304e-01 3.2213761628089998e-20 1.3871752432022211e-18  1.5000000031868665e-01 5.0833735008212007e-20 2.1303089864541157e-19  1.5000000060873636e-01 2.0723434800525082e-20 5.7813483247179210e-19  1.4999999972637584e-01 2.3421435820912197e-20 1.4733216177755344e-19  1.4999999965055741e-01 8.7062301519779169e-21 1.8331615495075452e-19  1.5000000023415466e-01 1.2078240083981570e-20 1.0087717298929406e-19  1.5000000016360995e-01 2.2434069964403272e-21 3.6891613707252516e-20  1.4999999981903933e-01 6.2591158998781662e-21 5.6680675296356158e-20  1.4999999995367766e-01 1.7703215510219578e-22 2.1159698453930506e-21  1.5000000011923129e-01 2.7861344847164950e-21 2.3091229046132481e-20  1.4999999998656505e-01 4.8713516374523231e-23 6.4090320486574090e-22  1.4999999993763280e-01 8.8471553995254910e-22 5.7882678912188023e-21  1.5000000003168054e-01 2.1639597767470075e-22 1.9287215828946157e-21  1.5000000002121436e-01 1.4074493303977723e-22 5.4388198860033086e-22  1.4999999997347271e-01 1.8182356071751875e-22 1.1648382861513171e-21  1.5000000000082317e-01 7.1395831093561993e-25 1.1745235510267058e-23  1.5000000001375369e-01 6.5034050414589211e-23 2.7069003147448360e-22  1.4999999999258237e-01 1.2463899184284383e-23 1.0498962869753206e-22  1.4999999999671654e-01 7.0144957041893690e-24 9.6475969419614089e-24  1.5000000000567276e-01 1.1534494583035126e-23 4.9562587154486986e-23  1.4999999999844635e-01 2.3895342091438838e-25 6.1288653899245932e-24  1.4999999999801197e-01 2.4093353556102413e-24 4.4614294451366847e-24  1.5000000000201583e-01 1.4898686168263712e-24 6.5919632644589427e-24  1.4999999999972741e-01 2.3957940428661814e-27 3.3659263539270801e-25  1.4999999999916247e-01 4.6249711889333095e-25 8.1831119309784719e-25  1.5000000000070407e-01 1.9302716322471104e-25 8.2090976137540066e-25  1.4999999999992839e-01 2.1674089299026433e-27 3.4904614892579341e-26  1.4999999999970121e-01 6.9157211576967904e-26 9.7729878548528250e-26  1.5000000000025593e-01 2.9752953809693867e-26 1.0517957413820136e-25  1.4999999999995370e-01 6.8132062281302072e-30 8.7940145855801372e-27  1.4999999999991026e-01 8.2643416912644821e-27 7.1400743065394261e-27  1.5000000000009484e-01 5.2987417540422816e-27 1.2908254564050120e-26  1.4999999999996652e-01 2.1425064458851227e-28 2.7637423322849084e-27  1.4999999999998243e-01 6.0284938997210528e-28 1.1071308990981159e-28  1.5000000000003177e-01 8.3650050795098930e-28 1.1423463778044576e-27  1.4999999999998062e-01 1.9383824827194846e-28 6.4947319507044917e-28  1.5000000000000294e-01 3.7501622829292282e-30 3.9479534794115336e-29  1.5000000000000710e-01 7.1523365490944873e-29 3.5523198618216880e-29  1.4999999999999244e-01 5.9477870733720253e-29 7.2228350588779884e-29  1.5000000000000452e-01 1.3160736357061670e-29 3.0141963284565527e-29  1.4999999999999949e-01 2.0972775443078864e-34 3.8279937010176563e-30  1.4999999999