<?xml version="1.0"?>
<VTKFile type="UnstructuredGrid"  version="0.1"  >
<UnstructuredGrid>
<Piece  NumberOfPoints="10201" NumberOfCells="20000">
<Points>
<DataArray  type="Float64"  NumberOfComponents="3"  format="ascii">-5 -5 0  -4.9 -5 0  -4.8 -5 0  -4.7 -5 0  -4.6 -5 0  -4.5 -5 0  -4.4 -5 0  -4.3 -5 0  -4.2 -5 0  -4.1 -5 0  -4 -5 0  -3.9 -5 0  -3.8 -5 0  -3.7 -5 0  -3.6 -5 0  -3.5 -5 0  -3.4 -5 0  -3.3 -5 0  -3.2 -5 0  -3.1 -5 0  -3 -5 0  -2.9 -5 0  -2.8 -5 0  -2.7 -5 0  -2.6 -5 0  -2.5 -5 0  -2.4 -5 0  -2.3 -5 0  -2.2 -5 0  -2.1 -5 0  -2 -5 0  -1.9 -5 0  -1.8 -5 0  -1.7 -5 0  -1.6 -5 0  -1.5 -5 0  -1.4 -5 0  -1.3 -5 0  -1.2 -5 0  -1.1 -5 0  -1 -5 0  -0.9000000000000004 -5 0  -0.7999999999999998 -5 0  -0.7000000000000002 -5 0  -0.5999999999999996 -5 0  -0.5 -5 0  -0.4000000000000004 -5 0  -0.2999999999999998 -5 0  -0.2000000000000002 -5 0  -0.09999999999999964 -5 0  0 -5 0  0.09999999999999964 -5 0  0.2000000000000002 -5 0  0.2999999999999998 -5 0  0.4000000000000004 -5 0  0.5 -5 0  0.5999999999999996 -5 0  0.7000000000000002 -5 0  0.7999999999999998 -5 0  0.9000000000000004 -5 0  1 -5 0  1.1 -5 0  1.2 -5 0  1.3 -5 0  1.4 -5 0  1.5 -5 0  1.6 -5 0  1.7 -5 0  1.8 -5 0  1.9 -5 0  2 -5 0  2.1 -5 0  2.2 -5 0  2.3 -5 0  2.4 -5 0  2.5 -5 0  2.6 -5 0  2.7 -5 0  2.8 -5 0  2.9 -5 0  3 -5 0  3.1 -5 0  3.199999999999999 -5 0  3.300000000000001 -5 0  3.4 -5 0  3.5 -5 0  3.6 -5 0  3.699999999999999 -5 0  3.800000000000001 -5 0  3.9 -5 0  4 -5 0  4.1 -5 0  4.199999999999999 -5 0  4.300000000000001 -5 0  4.4 -5 0  4.5 -5 0  4.6 -5 0  4.699999999999999 -5 0  4.800000000000001 -5 0  4.9 -5 0  5 -5 0  -5 -4.9 0  -4.9 -4.9 0  -4.8 -4.9 0  -4.7 -4.9 0  -4.6 -4.9 0  -4.5 -4.9 0  -4.4 -4.9 0  -4.3 -4.9 0  -4.2 -4.9 0  -4.1 -4.9 0  -4 -4.9 0  -3.9 -4.9 0  -3.8 -4.9 0  -3.7 -4.9 0  -3.6 -4.9 0  -3.5 -4.9 0  -3.4 -4.9 0  -3.3 -4.9 0  -3.2 -4.9 0  -3.1 -4.9 0  -3 -4.9 0  -2.9 -4.9 0  -2.8 -4.9 0  -2.7 -4.9 0  -2.6 -4.9 0  -2.5 -4.9 0  -2.4 -4.9 0  -2.3 -4.9 0  -2.2 -4.9 0  -2.1 -4.9 0  -2 -4.9 0  -1.9 -4.9 0  -1.8 -4.9 0  -1.7 -4.9 0  -1.6 -4.9 0  -1.5 -4.9 0  -1.4 -4.9 0  -1.3 -4.9 0  -1.2 -4.9 0  -1.1 -4.9 0  -1 -4.9 0  -0.9000000000000004 -4.9 0  -0.7999999999999998 -4.9 0  -0.7000000000000002 -4.9 0  -0.5999999999999996 -4.9 0  -0.5 -4.9 0  -0.4000000000000004 -4.9 0  -0.2999999999999998 -4.9 0  -0.2000000000000002 -4.9 0  -0.09999999999999964 -4.9 0  0 -4.9 0  0.09999999999999964 -4.9 0  0.2000000000000002 -4.9 0  0.2999999999999998 -4.9 0  0.4000000000000004 -4.9 0  0.5 -4.9 0  0.5999999999999996 -4.9 0  0.7000000000000002 -4.9 0  0.7999999999999998 -4.9 0  0.9000000000000004 -4.9 0  1 -4.9 0  1.1 -4.9 0  1.2 -4.9 0  1.3 -4.9 0  1.4 -4.9 0  1.5 -4.9 0  1.6 -4.9 0  1.7 -4.9 0  1.8 -4.9 0  1.9 -4.9 0  2 -4.9 0  2.1 -4.9 0  2.2 -4.9 0  2.3 -4.9 0  2.4 -4.9 0  2.5 -4.9 0  2.6 -4.9 0  2.7 -4.9 0  2.8 -4.9 0  2.9 -4.9 0  3 -4.9 0  3.1 -4.9 0  3.199999999999999 -4.9 0  3.300000000000001 -4.9 0  3.4 -4.9 0  3.5 -4.9 0  3.6 -4.9 0  3.699999999999999 -4.9 0  3.800000000000001 -4.9 0  3.9 -4.9 0  4 -4.9 0  4.1 -4.9 0  4.199999999999999 -4.9 0  4.300000000000001 -4.9 0  4.4 -4.9 0  4.5 -4.9 0  4.6 -4.9 0  4.699999999999999 -4.9 0  4.800000000000001 -4.9 0  4.9 -4.9 0  5 -4.9 0  -5 -4.8 0  -4.9 -4.8 0  -4.8 -4.8 0  -4.7 -4.8 0  -4.6 -4.8 0  -4.5 -4.8 0  -4.4 -4.8 0  -4.3 -4.8 0  -4.2 -4.8 0  -4.1 -4.8 0  -4 -4.8 0  -3.9 -4.8 0  -3.8 -4.8 0  -3.7 -4.8 0  -3.6 -4.8 0  -3.5 -4.8 0  -3.4 -4.8 0  -3.3 -4.8 0  -3.2 -4.8 0  -3.1 -4.8 0  -3 -4.8 0  -2.9 -4.8 0  -2.8 -4.8 0  -2.7 -4.8 0  -2.6 -4.8 0  -2.5 -4.8 0  -2.4 -4.8 0  -2.3 -4.8 0  -2.2 -4.8 0  -2.1 -4.8 0  -2 -4.8 0  -1.9 -4.8 0  -1.8 -4.8 0  -1.7 -4.8 0  -1.6 -4.8 0  -1.5 -4.8 0  -1.4 -4.8 0  -1.3 -4.8 0  -1.2 -4.8 0  -1.1 -4.8 0  -1 -4.8 0  -0.9000000000000004 -4.8 0  -0.7999999999999998 -4.8 0  -0.7000000000000002 -4.8 0  -0.5999999999999996 -4.8 0  -0.5 -4.8 0  -0.4000000000000004 -4.8 0  -0.2999999999999998 -4.8 0  -0.2000000000000002 -4.8 0  -0.09999999999999964 -4.8 0  0 -4.8 0  0.09999999999999964 -4.8 0  0.2000000000000002 -4.8 0  0.2999999999999998 -4.8 0  0.4000000000000004 -4.8 0  0.5 -4.8 0  0.5999999999999996 -4.8 0  0.7000000000000002 -4.8 0  0.7999999999999998 -4.8 0  0.9000000000000004 -4.8 0  1 -4.8 0  1.1 -4.8 0  1.2 -4.8 0  1.3 -4.8 0  1.4 -4.8 0  1.5 -4.8 0  1.6 -4.8 0  1.7 -4.8 0  1.8 -4.8 0  1.9 -4.8 0  2 -4.8 0  2.1 -4.8 0  2.2 -4.8 0  2.3 -4.8 0  2.4 -4.8 0  2.5 -4.8 0  2.6 -4.8 0  2.7 -4.8 0  2.8 -4.8 0  2.9 -4.8 0  3 -4.8 0  3.1 -4.8 0  3.199999999999999 -4.8 0  3.300000000000001 -4.8 0  3.4 -4.8 0  3.5 -4.8 0  3.6 -4.8 0  3.699999999999999 -4.8 0  3.800000000000001 -4.8 0  3.9 -4.8 0  4 -4.8 0  4.1 -4.8 0  4.199999999999999 -4.8 0  4.300000000000001 -4.8 0  4.4 -4.8 0  4.5 -4.8 0  4.6 -4.8 0  4.699999999999999 -4.8 0  4.800000000000001 -4.8 0  4.9 -4.8 0  5 -4.8 0  -5 -4.7 0  -4.9 -4.7 0  -4.8 -4.7 0  -4.7 -4.7 0  -4.6 -4.7 0  -4.5 -4.7 0  -4.4 -4.7 0  -4.3 -4.7 0  -4.2 -4.7 0  -4.1 -4.7 0  -4 -4.7 0  -3.9 -4.7 0  -3.8 -4.7 0  -3.7 -4.7 0  -3.6 -4.7 0  -3.5 -4.7 0  -3.4 -4.7 0  -3.3 -4.7 0  -3.2 -4.7 0  -3.1 -4.7 0  -3 -4.7 0  -2.9 -4.7 0  -2.8 -4.7 0  -2.7 -4.7 0  -2.6 -4.7 0  -2.5 -4.7 0  -2.4 -4.7 0  -2.3 -4.7 0  -2.2 -4.7 0  -2.1 -4.7 0  -2 -4.7 0  -1.9 -4.7 0  -1.8 -4.7 0  -1.7 -4.7 0  -1.6 -4.7 0  -1.5 -4.7 0  -1.4 -4.7 0  -1.3 -4.7 0  -1.2 -4.7 0  -1.1 -4.7 0  -1 -4.7 0  -0.9000000000000004 -4.7 0  -0.7999999999999998 -4.7 0  -0.7000000000000002 -4.7 0  -0.5999999999999996 -4.7 0  -0.5 -4.7 0  -0.4000000000000004 -4.7 0  -0.2999999999999998 -4.7 0  -0.2000000000000002 -4.7 0  -0.09999999999999964 -4.7 0  0 -4.7 0  0.09999999999999964 -4.7 0  0.2000000000000002 -4.7 0  0.2999999999999998 -4.7 0  0.4000000000000004 -4.7 0  0.5 -4.7 0  0.5999999999999996 -4.7 0  0.7000000000000002 -4.7 0  0.7999999999999998 -4.7 0  0.9000000000000004 -4.7 0  1 -4.7 0  1.1 -4.7 0  1.2 -4.7 0  1.3 -4.7 0  1.4 -4.7 0  1.5 -4.7 0  1.6 -4.7 0  1.7 -4.7 0  1.8 -4.7 0  1.9 -4.7 0  2 -4.7 0  2.1 -4.7 0  2.2 -4.7 0  2.3 -4.7 0  2.4 -4.7 0  2.5 -4.7 0  2.6 -4.7 0  2.7 -4.7 0  2.8 -4.7 0  2.9 -4.7 0  3 -4.7 0  3.1 -4.7 0  3.199999999999999 -4.7 0  3.300000000000001 -4.7 0  3.4 -4.7 0  3.5 -4.7 0  3.6 -4.7 0  3.699999999999999 -4.7 0  3.800000000000001 -4.7 0  3.9 -4.7 0  4 -4.7 0  4.1 -4.7 0  4.199999999999999 -4.7 0  4.300000000000001 -4.7 0  4.4 -4.7 0  4.5 -4.7 0  4.6 -4.7 0  4.699999999999999 -4.7 0  4.800000000000001 -4.7 0  4.9 -4.7 0  5 -4.7 0  -5 -4.6 0  -4.9 -4.6 0  -4.8 -4.6 0  -4.7 -4.6 0  -4.6 -4.6 0  -4.5 -4.6 0  -4.4 -4.6 0  -4.3 -4.6 0  -4.2 -4.6 0  -4.1 -4.6 0  -4 -4.6 0  -3.9 -4.6 0  -3.8 -4.6 0  -3.7 -4.6 0  -3.6 -4.6 0  -3.5 -4.6 0  -3.4 -4.6 0  -3.3 -4.6 0  -3.2 -4.6 0  -3.1 -4.6 0  -3 -4.6 0  -2.9 -4.6 0  -2.8 -4.6 0  -2.7 -4.6 0  -2.6 -4.6 0  -2.5 -4.6 0  -2.4 -4.6 0  -2.3 -4.6 0  -2.2 -4.6 0  -2.1 -4.6 0  -2 -4.6 0  -1.9 -4.6 0  -1.8 -4.6 0  -1.7 -4.6 0  -1.6 -4.6 0  -1.5 -4.6 0  -1.4 -4.6 0  -1.3 -4.6 0  -1.2 -4.6 0  -1.1 -4.6 0  -1 -4.6 0  -0.9000000000000004 -4.6 0  -0.7999999999999998 -4.6 0  -0.7000000000000002 -4.6 0  -0.5999999999999996 -4.6 0  -0.5 -4.6 0  -0.4000000000000004 -4.6 0  -0.2999999999999998 -4.6 0  -0.2000000000000002 -4.6 0  -0.09999999999999964 -4.6 0  0 -4.6 0  0.09999999999999964 -4.6 0  0.2000000000000002 -4.6 0  0.2999999999999998 -4.6 0  0.4000000000000004 -4.6 0  0.5 -4.6 0  0.5999999999999996 -4.6 0  0.7000000000000002 -4.6 0  0.7999999999999998 -4.6 0  0.9000000000000004 -4.6 0  1 -4.6 0  1.1 -4.6 0  1.2 -4.6 0  1.3 -4.6 0  1.4 -4.6 0  1.5 -4.6 0  1.6 -4.6 0  1.7 -4.6 0  1.8 -4.6 0  1.9 -4.6 0  2 -4.6 0  2.1 -4.6 0  2.2 -4.6 0  2.3 -4.6 0  2.4 -4.6 0  2.5 -4.6 0  2.6 -4.6 0  2.7 -4.6 0  2.8 -4.6 0  2.9 -4.6 0  3 -4.6 0  3.1 -4.6 0  3.199999999999999 -4.6 0  3.300000000000001 -4.6 0  3.4 -4.6 0  3.5 -4.6 0  3.6 -4.6 0  3.699999999999999 -4.6 0  3.800000000000001 -4.6 0  3.9 -4.6 0  4 -4.6 0  4.1 -4.6 0  4.199999999999999 -4.6 0  4.300000000000001 -4.6 0  4.4 -4.6 0  4.5 -4.6 0  4.6 -4.6 0  4.699999999999999 -4.6 0  4.800000000000001 -4.6 0  4.9 -4.6 0  5 -4.6 0  -5 -4.5 0  -4.9 -4.5 0  -4.8 -4.5 0  -4.7 -4.5 0  -4.6 -4.5 0  -4.5 -4.5 0  -4.4 -4.5 0  -4.3 -4.5 0  -4.2 -4.5 0  -4.1 -4.5 0  -4 -4.5 0  -3.9 -4.5 0  -3.8 -4.5 0  -3.7 -4.5 0  -3.6 -4.5 0  -3.5 -4.5 0  -3.4 -4.5 0  -3.3 -4.5 0  -3.2 -4.5 0  -3.1 -4.5 0  -3 -4.5 0  -2.9 -4.5 0  -2.8 -4.5 0  -2.7 -4.5 0  -2.6 -4.5 0  -2.5 -4.5 0  -2.4 -4.5 0  -2.3 -4.5 0  -2.2 -4.5 0  -2.1 -4.5 0  -2 -4.5 0  -1.9 -4.5 0  -1.8 -4.5 0  -1.7 -4.5 0  -1.6 -4.5 0  -1.5 -4.5 0  -1.4 -4.5 0  -1.3 -4.5 0  -1.2 -4.5 0  -1.1 -4.5 0  -1 -4.5 0  -0.9000000000000004 -4.5 0  -0.7999999999999998 -4.5 0  -0.7000000000000002 -4.5 0  -0.5999999999999996 -4.5 0  -0.5 -4.5 0  -0.4000000000000004 -4.5 0  -0.2999999999999998 -4.5 0  -0.2000000000000002 -4.5 0  -0.09999999999999964 -4.5 0  0 -4.5 0  0.09999999999999964 -4.5 0  0.2000000000000002 -4.5 0  0.2999999999999998 -4.5 0  0.4000000000000004 -4.5 0  0.5 -4.5 0  0.5999999999999996 -4.5 0  0.7000000000000002 -4.5 0  0.7999999999999998 -4.5 0  0.9000000000000004 -4.5 0  1 -4.5 0  1.1 -4.5 0  1.2 -4.5 0  1.3 -4.5 0  1.4 -4.5 0  1.5 -4.5 0  1.6 -4.5 0  1.7 -4.5 0  1.8 -4.5 0  1.9 -4.5 0  2 -4.5 0  2.1 -4.5 0  2.2 -4.5 0  2.3 -4.5 0  2.4 -4.5 0  2.5 -4.5 0  2.6 -4.5 0  2.7 -4.5 0  2.8 -4.5 0  2.9 -4.5 0  3 -4.5 0  3.1 -4.5 0  3.199999999999999 -4.5 0  3.300000000000001 -4.5 0  3.4 -4.5 0  3.5 -4.5 0  3.6 -4.5 0  3.699999999999999 -4.5 0  3.800000000000001 -4.5 0  3.9 -4.5 0  4 -4.5 0  4.1 -4.5 0  4.199999999999999 -4.5 0  4.300000000000001 -4.5 0  4.4 -4.5 0  4.5 -4.5 0  4.6 -4.5 0  4.699999999999999 -4.5 0  4.800000000000001 -4.5 0  4.9 -4.5 0  5 -4.5 0  -5 -4.4 0  -4.9 -4.4 0  -4.8 -4.4 0  -4.7 -4.4 0  -4.6 -4.4 0  -4.5 -4.4 0  -4.4 -4.4 0  -4.3 -4.4 0  -4.2 -4.4 0  -4.1 -4.4 0  -4 -4.4 0  -3.9 -4.4 0  -3.8 -4.4 0  -3.7 -4.4 0  -3.6 -4.4 0  -3.5 -4.4 0  -3.4 -4.4 0  -3.3 -4.4 0  -3.2 -4.4 0  -3.1 -4.4 0  -3 -4.4 0  -2.9 -4.4 0  -2.8 -4.4 0  -2.7 -4.4 0  -2.6 -4.4 0  -2.5 -4.4 0  -2.4 -4.4 0  -2.3 -4.4 0  -2.2 -4.4 0  -2.1 -4.4 0  -2 -4.4 0  -1.9 -4.4 0  -1.8 -4.
[...]
<PointData  Vectors="f_23"> 
<DataArray  type="Float64"  Name="f_23"  NumberOfComponents="3" format="ascii">1.4999999999998587e-01 0.0000000000000000e+00 0.0000000000000000e+00  1.5000000000004468e-01 1.9059899883186380e-27 0.0000000000000000e+00  1.4999999999996802e-01 2.3503808057017914e-26 0.0000000000000000e+00  1.5000000000061503e-01 5.5286153311389448e-25 0.0000000000000000e+00  1.5000000000417932e-01 1.1916319499601665e-23 0.0000000000000000e+00  1.5000000001794248e-01 2.1335772476363344e-22 0.0000000000000000e+00  1.5000000006739225e-01 2.3491748283090918e-21 0.0000000000000000e+00  1.5000000021870380e-01 1.8605281011292372e-20 0.0000000000000000e+00  1.5000000061249819e-01 1.1467317189235952e-19 0.0000000000000000e+00  1.5000000151491741e-01 5.3572950473561032e-19 0.0000000000000000e+00  1.5000000332993091e-01 1.8694948337271479e-18 0.0000000000000000e+00  1.5000000647048017e-01 4.9346342775346435e-18 0.0000000000000000e+00  1.5000001108912739e-01 9.8478694732225496e-18 0.0000000000000000e+00  1.5000001672997204e-01 1.4499955761880972e-17 0.0000000000000000e+00  1.5000002194306344e-01 1.4872457724524836e-17 0.0000000000000000e+00  1.5000002410677357e-01 7.0193656382223609e-18 0.0000000000000000e+00  1.5000001944535798e-01 3.1997852126891121e-18 0.0000000000000000e+00  1.5000000226396709e-01 1.8376744196035410e-16 0.0000000000000000e+00  1.4999996424891998e-01 1.2812293526286122e-15 0.0000000000000000e+00  1.4999989996051658e-01 3.8896790178229308e-15 0.0000000000000000e+00  1.4999982240845430e-01 5.1347148428891408e-15 0.0000000000000000e+00  1.4999977521031851e-01 1.3764830222773031e-15 0.0000000000000000e+00  1.4999981403400009e-01 1.7575117958517395e-15 0.0000000000000000e+00  1.4999995138520647e-01 1.4020424351685203e-14 0.0000000000000000e+00  1.5000011440945865e-01 1.6455950138039151e-14 0.0000000000000000e+00  1.5000018932167947e-01 3.5036903101030721e-15 0.0000000000000000e+00  1.5000013751180655e-01 8.3255134541018612e-16 0.0000000000000000e+00  1.5000003847585316e-01 5.0402250400237301e-15 0.0000000000000000e+00  1.4999997962852676e-01 3.7618384482627531e-15 0.0000000000000000e+00  1.4999995908446664e-01 7.3298611623503305e-16 0.0000000000000000e+00  1.4999995894529813e-01 2.9111064684941778e-16 0.0000000000000000e+00  1.5000001095284424e-01 2.3199846294927938e-15 0.0000000000000000e+00  1.5000008174570961e-01 6.8336825817914013e-16 0.0000000000000000e+00  1.5000004741603493e-01 1.2001362766918665e-15 0.0000000000000000e+00  1.4999992765900064e-01 2.4366271577743927e-15 0.0000000000000000e+00  1.4999992255941166e-01 9.7608963142977696e-17 0.0000000000000000e+00  1.5000005320712756e-01 2.5035672717515803e-15 0.0000000000000000e+00  1.5000008306148532e-01 4.1107113946107678e-17 0.0000000000000000e+00  1.4999996113181380e-01 1.7509448352428397e-15 0.0000000000000000e+00  1.4999992652461017e-01 1.6292088650278720e-16 0.0000000000000000e+00  1.5000003225050076e-01 1.0619968108996936e-15 0.0000000000000000e+00  1.5000005704352593e-01 1.5343736506127866e-16 0.0000000000000000e+00  1.4999996976391186e-01 6.2965609024007530e-16 0.0000000000000000e+00  1.4999996107301075e-01 7.6748449623354513e-17 0.0000000000000000e+00  1.5000002885616767e-01 3.7635989143201623e-16 0.0000000000000000e+00  1.5000002215687802e-01 1.8185432810615302e-17 0.0000000000000000e+00  1.4999997439817486e-01 2.1663497449995409e-16 0.0000000000000000e+00  1.4999999136233000e-01 7.7470893702669386e-20 0.0000000000000000e+00  1.5000001998000995e-01 1.0904665931062294e-16 0.0000000000000000e+00  1.4999999949632484e-01 6.0945624316723964e-18 0.0000000000000000e+00  1.4999998697650455e-01 4.1727490828983373e-17 0.0000000000000000e+00  1.5000000505306180e-01 1.3727771506873489e-17 0.0000000000000000e+00  1.5000000639246072e-01 9.2548106099341964e-18 0.0000000000000000e+00  1.4999999420322477e-01 1.2725459902775718e-17 0.0000000000000000e+00  1.4999999850713180e-01 3.1993269703813565e-19 0.0000000000000000e+00  1.5000000423831961e-01 6.4042726126668943e-18 0.0000000000000000e+00  1.4999999890917412e-01 5.9222927577134842e-19 0.0000000000000000e+00  1.4999999798900529e-01 1.5068436163039789e-18 0.0000000000000000e+00  1.5000000167835698e-01 1.1734227555945004e-18 0.0000000000000000e+00  1.5000000029223351e-01 3.8612250575365626e-20 0.0000000000000000e+00  1.4999999885938273e-01 5.8592860793090139e-19 0.0000000000000000e+00  1.5000000048126694e-01 9.5664762279661166e-20 0.0000000000000000e+00  1.5000000037125080e-01 7.7678592815576039e-20 0.0000000000000000e+00  1.4999999950016676e-01 1.2325798531705185e-19 0.0000000000000000e+00  1.5000000010299019e-01 2.8995309746029421e-21 0.0000000000000000e+00  1.5000000021456092e-01 2.9203238382377406e-20 0.0000000000000000e+00  1.4999999980022613e-01 2.0815487573210802e-20 0.0000000000000000e+00  1.5000000001686303e-01 2.5449305899479588e-25 0.0000000000000000e+00  1.5000000009862746e-01 6.9280011746855572e-21 0.0000000000000000e+00  1.4999999991995933e-01 3.5557218076079157e-21 0.0000000000000000e+00  1.5000000000486197e-01 1.0609026813837957e-23 0.0000000000000000e+00  1.5000000004001246e-01 1.3139071609984923e-21 0.0000000000000000e+00  1.4999999996644017e-01 6.9609984022566210e-22 0.0000000000000000e+00  1.5000000000485961e-01 4.5774379320622347e-25 0.0000000000000000e+00  1.5000000001421629e-01 2.0288007519478444e-22 0.0000000000000000e+00  1.4999999998558552e-01 1.5177997850647686e-22 0.0000000000000000e+00  1.5000000000457195e-01 6.8698592499499353e-24 0.0000000000000000e+00  1.5000000000379773e-01 2.0944762839168502e-23 0.0000000000000000e+00  1.4999999999415467e-01 3.1288742727075177e-23 0.0000000000000000e+00  1.5000000000327665e-01 6.7977238004749405e-24 0.0000000000000000e+00  1.5000000000011005e-01 4.5680365537531568e-25 0.0000000000000000e+00  1.4999999999810351e-01 4.6012105777093639e-24 0.0000000000000000e+00  1.5000000000182068e-01 3.1859442092660289e-24 0.0000000000000000e+00  1.4999999999918870e-01 3.9962486848591826e-25 0.0000000000000000e+00  1.4999999999984379e-01 1.2131696287944520e-25 0.0000000000000000e+00  1.5000000000062280e-01 5.6757956233820723e-25 0.0000000000000000e+00  1.4999999999938843e-01 4.4174899972420601e-25 0.0000000000000000e+00  1.5000000000036073e-01 1.2606579119196243e-25 0.0000000000000000e+00  1.4999999999990718e-01 3.2851586019320890e-27 0.0000000000000000e+00  1.4999999999992036e-01 1.4523104045182034e-26 0.0000000000000000e+00  1.5000000000014260e-01 3.0731193323816012e-26 0.0000000000000000e+00  1.4999999999986835e-01 2.3380555203196603e-26 0.0000000000000000e+00  1.5000000000008987e-01 1.0260874194644848e-26 0.0000000000000000e+00  1.4999999999995259e-01 2.6138573836046425e-27 0.0000000000000000e+00  1.5000000000001776e-01 3.0184929462280688e-28 0.0000000000000000e+00  1.4999999999999911e-01 5.5470514942979812e-32 0.0000000000000000e+00  1.4999999999999480e-01 4.9259082804915087e-29 0.0000000000000000e+00  1.5000000000000685e-01 5.0516589579076820e-29 0.0000000000000000e+00  1.4999999999999433e-01 3.2699853485015678e-29 0.0000000000000000e+00  1.5000000000000255e-01 9.2740694907114938e-30 0.0000000000000000e+00  1.4999999999999419e-01 0.0000000000000000e+00 0.0000000000000000e+00  1.5000000000004451e-01 0.0000000000000000e+00 1.9162294738969343e-27  1.4999999999997093e-01 6.4031550618808885e-28 6.4562801148716613e-28  1.4999999999998589e-01 9.1960087116290949e-31 1.2580248732137383e-28  1.4999999999984368e-01 2.4695581087322112e-25 2.4547544187397540e-26  1.4999999999760188e-01 4.2293339175944713e-24 3.2421218001838250e-24  1.4999999998834077e-01 8.8492226229218769e-23 8.5614990129531163e-23  1.4999999995408617e-01 1.2224170059152181e-21 1.3878401852556316e-21  1.4999999984115045e-01 1.1068919487165948e-20 1.6785538609643093e-20  1.4999999952749454e-01 7.6180901347974466e-20 1.4998746790623637e-19  1.4999999877185036e-01 4.0463704978050037e-19 1.0201739807774811e-18  1.4999999716560661e-01 1.6036874122474323e-18 5.4099553774827792e-18  1.4999999420440593e-01 4.7351461878310242e-18 2.2278404495467922e-17  1.4999998955782434e-01 1.0483180812652009e-17 7.0404787624844605e-17  1.4999998346011192e-01 1.6989021077451314e-17 1.6869806362555343e-16  1.4999997715699759e-01 1.8956332146579916e-17 2.9794899418089424e-16  1.4999997323613723e-01 1.1622100975322453e-17 3.5944625544757260e-16  1.4999997549131924e-01 2.8682914731192684e-21 2.3176156533615661e-16  1.4999998891041547e-01 8.1953361914483565e-17 8.1411310817231803e-18  1.5000002062887280e-01 8.0566341711731040e-16 4.9290603477481589e-16  1.5000007808660795e-01 3.2027528600023572e-15 3.9904568912163315e-15  1.5000015726363647e-01 5.9586126450796997e-15 1.2936612022242087e-14  1.5000022577200312e-01 3.7104620281429169e-15 2.1745671481798886e-14  1.5000022598993368e-01 6.9779703039589168e-17 1.5677400185241265e-14  1.5000011913615630e-01 1.0050800438523241e-14 1.0133330138164772e-15  1.4999994405350292e-01 2.1039160037901195e-14 7.6469085745766827e-15  1.4999981475477953e-01 1.0002341157394944e-14 2.1885199162422988e-14  1.4999981854341465e-01 1.5784248949842851e-17 1.1930103703495960e-14  1.4999991736832177e-01 4.1411752159144003e-15 6.3935975129871891e-16  1.5000000202899916e-01 5.4526940500341750e-15 6.1918363432395584e-16  1.5000003434027923e-01 2.2188696468410370e-15 1.1059260554048424e-15  1.5000004502824324e-01 5.2150155996133967e-18 8.5227672342652622e-16  1.5000001802046728e-01 1.9719465480172185e-15 5.2840731530198337e-18  1.4999993825670940e-01 2.0992866792392747e-15 3.5255521026913689e-15  1.4999991561272305e-01 2.1454339063083953e-16 2.7563783482187264e-15  1.5000002679135338e-01 3.4098299363799386e-15 1.8985068854170088e-15  1.5000010658302182e-01 2.4132349563282664e-16 6.2357311667764255e-15  1.5000000297474692e-01 2.2605488893208643e-15 4.9588796590663008e-16  1.4999989589319590e-01 8.4173262967386133e-16 6.8894674982493117e-15  1.4999998357301123e-01 1.0803918079034866e-15 8.9591434079064112e-17  1.5000009068211317e-01 9.2609329809186954e-16 5.5432842732698178e-15  1.5000001512093730e-01 4.7004610555322788e-16 4.7476616497263972e-17  1.4999992575790996e-01 6.7233822714567289e-16 3.6838002690801460e-15  1.4999999414883189e-01 2.2902729239328516e-16 1.0930384261203096e-16  1.5000005740884853e-01 3.8614266304891408e-16 2.0578250074494335e-15  1.4999999506539563e-01 1.4072075041648211e-16 2.3514445201412420e-16  1.4999995914312958e-01 1.8216109332480208e-16 9.1358730783045306e-16  1.5000001290102799e-01 1.0314183785774962e-16 3.2818181875222257e-16  1.5000002532839560e-01 6.5775219368133031e-17 2.7575585829107783e-16  1.4999998385395608e-01 7.6763366271471166e-17 3.0374400859950767e-16  1.4999998786056715e-01 1.3797571933577386e-17 3.3944342414539885e-17  1.5000001484651135e-01 4.9703400251884104e-17 1.8759812322657730e-16  1.5000000262848023e-01 2.4537036380498030e-19 1.3184849092300030e-18  1.4999998940427389e-01 2.4405331578618041e-17 7.1581193280847487e-17  1.5000000261249377e-01 1.9705588338255703e-18 1.7709066298535333e-17  1.5000000553585793e-01 7.4791794851144068e-18 1.2387264089330599e-17  1.4999999590479962e-01 4.1203299578939810e-18 1.7799956534474083e-17  1.4999999853299556e-01 7.8557431220425507e-19 2.4695615832379452e-20  1.5000000319239104e-01 2.8963817559019136e-18 6.9731992740039603e-18  1.4999999925152946e-01 6.9197821493615457e-20 1.6148459091115722e-18  1.4999999850729101e-01 8.6346960768634535e-19 7.8679260550821911e-19  1.5000000125728385e-01 4.2946694617190779e-19 1.5426210198486490e-18  1.5000000015284570e-01 4.2628678621196077e-20 3.9507474497696251e-20  1.4999999918651374e-01 2.6639635836938926e-19 3.5970219906193032e-19  1.5000000040531636e-01 3.3740593912724151e-20 2.3312006483161579e-19  1.5000000020816909e-01 3.7768486287484696e-20 1.2555958484609024e-21  1.4999999963804284e-01 5.4159483589815125e-20 8.7676434467446424e-20  1.5000000012282422e-01 1.5315717679125275e-21 3.1984711577705316e-20  1.5000000011780562e-01 1.1926807323587046e-20 1.7610939724483996e-21  1.4999999984990814e-01 9.8059193607368435e-21 1.6647805310877809e-20  1.5000000004264580e-01 6.7900288532712990e-23 4.9844918892061653e-21  1.5000000005087097e-01 2.5694996744551659e-21 3.3545784654745041e-22  1.4999999993845298e-01 1.8633843962805091e-21 2.7724972685955237e-21  1.5000000001984382e-01 2.3265135132286230e-23 9.7593030252681224e-22  1.5000000001764222e-01 4.2320883582652842e-22 1.2757481489707790e-23  1.4999999997501037e-01 3.8303107228563864e-22 3.9492677889260799e-22  1.5000000001120262e-01 2.3637481615777057e-23 2.1847014812841448e-22  1.5000000000393598e-01 4.6271830010441399e-23 3.9646904698907702e-24  1.4999999999056274e-01 7.6110537591310960e-23 3.8745969606152334e-23  1.5000000000627672e-01 1.6539422974423568e-23 4.4866784590009999e-23  1.4999999999936664e-01 1.3071996333326604e-24 8.0344997889394513e-24  1.4999999999719160e-01 1.1583483923508693e-23 8.8794398473282970e-25  1.5000000000305633e-01 7.3475792587907351e-24 6.0816020743680124e-24  1.4999999999850147e-01 6.6173406977030746e-25 3.8586768999271675e-24  1.4999999999985247e-01 4.9680111818991238e-25 4.6229142392135682e-25  1.5000000000098893e-01 1.5366408919672921e-24 1.2629423654361927e-25  1.4999999999899793e-01 9.8609025252400255e-25 5.8195721940392960e-25  1.5000000000058777e-01 2.0088026560953232e-25 4.4082240190734230e-25  1.4999999999986333e-01 3.4905920020228555e-28 1.2469345653379530e-25  1.4999999999985208e-01 6.7204026996918589e-26 3.7789082991918172e-27  1.5000000000024347e-01 8.9242352155926767e-26 1.1733781968817170e-26  1.4999999999978503e-01 5.1937685635409360e-26 2.5530893906033988e-26  1.5000000000013972e-01 1.6763679767416098e-26 1.8964888235208264e-26  1.4999999999993324e-01 2.4912774325336899e-27 8.0518058688882329e-27  1.5000000000001829e-01 1.2725580254436959e-29 2.0398308816482832e-27  1.5000000000000613e-01 2.5918383012301036e-28 2.0616724121522008e-28  1.4999999999998642e-01 3.8014925065811121e-28 1.6043486813896818e-30  1.5000000000001304e-01 2.2592150987359247e-28 4.7156954719114626e-29  1.4999999999999072e-01 9.1434623765338363e-29 5.3149341848391827e-29  1.5000000000000582e-01 2.7714950550470751e-29 3.2072043222764969e-29  1.4999999999999830e-01 5.9874016172918678e-30 6.6571543469912440e-30  1.5000000000000310e-01 0.0000000000000000e+00 1.1740649067947502e-29  1.4999999999996780e-01 0.0000000000000000e+00 2.3729686467241285e-26  1.4999999999998573e-01 1.2593934135688853e-28 1.6619585576639442e-31  1.5000000000005742e-01 3.8520105111948345e-27 3.8406250034845564e-27  1.5000000000003208e-01 5.3397594236072908e-26 1.8089026117723994e-27  1.5000000000115604e-01 2.6435942960637063e-24 1.3537961195151766e-24  1.5000000000837760e-01 4.5233867336365005e-23 7.2574860712123693e-23  1.5000000003518765e-01 8.1155371266797564e-22 1.4533445956524736e-21  1.5000000012973758e-01 8.9923312766164411e-21 2.0922025486730564e-20  1.5000000041662534e-01 7.0323472034085221e-20 2.2488031015457770e-19  1.5000000115547846e-01 4.2751082082467325e-19 1.7935948671521673e-18  1.5000000282511280e-01 1.9713007486062627e-18 1.1027627363320327e-17  1.5000000613151215e-01 6.6940507379509180e-18 5.2866544201531154e-17  1.5000001172783195e-01 1.6723888574813372e-17 1.9502318965795645e-16  1.5000001964802193e-01 3.0112690781792219e-17 5.4594243178014244e-16  1.5000002864218481e-01 3.6081564713585905e-17 1.1382553963095538e-15  1.5000003558633740e-01 2.3318237645448007e-17 1.6841187268767871e-15  1.5000003558775915e-01 1.4157499067161377e-18 1.5562374153211582e-15  1.5000002307427496e-01 4.9666798856751460e-17 5.3550064126914684e-16  1.4999999192183094e-01 6.1438869508478139e-16 1.8436809118325840e-16  1.4999993452866556e-01 3.0610744244690026e-15 6.0817723232270783e-15  1.4999984817215786e-01 7.8231853800369905e-15 2.9635381373689740e-14  1.4999975439856675e-01 8.6533446690327164e-15 7.2958800371654676e-14  1.4999971189477307e-01 1.2169300498960437e-15 9.1960350741900022e-14  1.4999978681340462e-01 6.1942576582614186e-15 3.9505699135120644e-14  1.4999997984190888e-01 3.0446368717425495e-14 1.0070339507849144e-15  1.5000018218876468e-01 2.7999836681957134e-14 6.2063509278217782e-14  1.5000025020282781e-01 3.4076209031183618e-15 8.5307184107898521e-14  1.5000015861021451e-01 3.1254253286971746e-15 2.4572561061485033e-14  1.5000003126386308e-01 9.4585393899063253e-15 2.1829700512535105e-17  1.4999997156986911e-01 6.0090515094429749e-15 2.8729405573705787e-15  1.4999995328026394e-01 9.9846583991201814e-16 4.0123831426830510e-15  1.4999995533659960e-01 1.0481541234307907e-15 2.2318362392055460e-15  1.5000003209548188e-01 5.1805009068764022e-15 3.0268537164817095e-15  1.5000011987109910e-01 5.0945506113773158e-16 2.2235392601519786e-14  1.5000004232028136e-01 4.5082641809656782e-15 1.1073727817205376e-15  1.4999987504547457e-01 3.7081646322509016e-15 2.7015983262244481e-14  1.4999991250501918e-01 1.4547062598639736e-15 8.5283304716607638e-15  1.5000010860730514e-01 4.6675586683286513e-15 2.1556881717675538e-14  1.5000010051934318e-01 2.2058182298269291e-16 1.2459168459815622e-14  1.4999990923779247e-01 3.6542548171277098e-15 1.5358518443218144e-14  1.4999991043094574e-01 6.6380788249783703e-18 1.0043565927890856e-14  1.5000007819792707e-01 2.3141489388078021e-15 1.1189558036404744e-14  1.5000006611202285e-01 9.0714266231430061e-19 5.2584903823700694e-15  1.4999993116675878e-01 1.3328905036787341e-15 8.2801539873949473e-15  1.4999996086916909e-01 9.5961790550200240e-20 1.6201689953732123e-15  1.5000005874275937e-01 7.2488280437799515e-16 5.6888153384908650e-15  1.5000001486192305e-01 1.0540711699151818e-17 1.3479431315841147e-16  1.4999995420554846e-01 3.6008128171637096e-16 3.2354441700185749e-15  1.5000000284004877e-01 3.5005636460424207e-17 7.2531926493299534e-17  1.5000003066908590e-01 1.4715781485846966e-16 1.3324866539202789e-15  1.4999998765341457e-01 5.3145525985679516e-17 3.3528102066943304e-16  1.4999998404122322e-01 3.9681999404086752e-17 3.1026394520019694e-16  1.5000001425668869e-01 4.9370355576035138e-17 3.5634992527367362e-16  1.5000000448540191e-01 3.2285609486447973e-18 1.2852707122561183e-17  1.4999998900156242e-01 2.8978233341661229e-17 1.8393265404871868e-16  1.5000000215152917e-01 1.0191170435050224e-18 1.5522245034562425e-17  1.5000000579203288e-01 9.4471689718064469e-18 4.2367641679339499e-17  1.4999999582733820e-01 4.2741462240685855e-18 3.1952098608168323e-17  1.4999999864292080e-01 9.1089796501033370e-19 9.9201352080743796e-19  1.5000000321906107e-01 3.2059765152450121e-18 1.5320941272161034e-17  1.4999999902099864e-01 1.3033540481976250e-19 2.5641291004631471e-18  1.4999999867404318e-01 8.1847249400770669e-19 1.8632656413502608e-18  1.5000000135447794e-01 5.5563946987884117e-19 3.0518486189037547e-18  1.4999999993567220e-01 9.9827276313707782e-21 8.6345280301715604e-20  1.4999999926602239e-01 2.6056458238444051e-19 6.5733714927777892e-19  1.5000000051318352e-01 7.2643636510812411e-20 4.8804385269803620e-19  1.5000000007106143e-01 1.5076872558531498e-20 2.1832809414361939e-22  1.4999999966353009e-01 5.8939198793295442e-20 1.4505989127026608e-19  1.5000000019779616e-01 9.9852854914828986e-21 7.8178194046441333e-20  1.5000000004332190e-01 4.6669859809979398e-21 4.1150900407021553e-23  1.4999999985861487e-01 1.1850819882837216e-20 2.5249682687317463e-20  1.5000000008395589e-01 1.9726049915343474e-21 1.4093721557871283e-20  1.5000000001183603e-01 7.4363783615806462e-22 4.5486849929413769e-23  1.4999999994467636e-01 2.2503615306365914e-21 3.5078356950630370e-21  1.5000000003895386e-01 5.7274703686287121e-22 2.7747779389977490e-21  1.4999999999732591e-01 4.2332259192566876e-23 1.5719842214825841e-22  1.4999999998115732e-01 3.7017012537656635e-22 3.1097775387664867e-22  1.5000000001806227e-01 1.8348324335954257e-22 5.0489453134231753e-22  1.4999999999393632e-01 2.2721874917421838e-24 1.1945652318660102e-22  1.4999999999573982e-01 4.0271389752857226e-23 3.9342706543055226e-24  1.5000000000742086e-01 5.0336147160816967e-23 6.2016233804453778e-23  1.4999999999504604e-01 1.2196488163612949e-23 4.5094728279304741e-23  1.5000000000