<?xml version="1.0"?>
<VTKFile type="UnstructuredGrid"  version="0.1"  >
<UnstructuredGrid>
<Piece  NumberOfPoints="10201" NumberOfCells="20000">
<Points>
<DataArray  type="Float64"  NumberOfComponents="3"  format="ascii">-5 -5 0  -4.9 -5 0  -4.8 -5 0  -4.7 -5 0  -4.6 -5 0  -4.5 -5 0  -4.4 -5 0  -4.3 -5 0  -4.2 -5 0  -4.1 -5 0  -4 -5 0  -3.9 -5 0  -3.8 -5 0  -3.7 -5 0  -3.6 -5 0  -3.5 -5 0  -3.4 -5 0  -3.3 -5 0  -3.2 -5 0  -3.1 -5 0  -3 -5 0  -2.9 -5 0  -2.8 -5 0  -2.7 -5 0  -2.6 -5 0  -2.5 -5 0  -2.4 -5 0  -2.3 -5 0  -2.2 -5 0  -2.1 -5 0  -2 -5 0  -1.9 -5 0  -1.8 -5 0  -1.7 -5 0  -1.6 -5 0  -1.5 -5 0  -1.4 -5 0  -1.3 -5 0  -1.2 -5 0  -1.1 -5 0  -1 -5 0  -0.9000000000000004 -5 0  -0.7999999999999998 -5 0  -0.7000000000000002 -5 0  -0.5999999999999996 -5 0  -0.5 -5 0  -0.4000000000000004 -5 0  -0.2999999999999998 -5 0  -0.2000000000000002 -5 0  -0.09999999999999964 -5 0  0 -5 0  0.09999999999999964 -5 0  0.2000000000000002 -5 0  0.2999999999999998 -5 0  0.4000000000000004 -5 0  0.5 -5 0  0.5999999999999996 -5 0  0.7000000000000002 -5 0  0.7999999999999998 -5 0  0.9000000000000004 -5 0  1 -5 0  1.1 -5 0  1.2 -5 0  1.3 -5 0  1.4 -5 0  1.5 -5 0  1.6 -5 0  1.7 -5 0  1.8 -5 0  1.9 -5 0  2 -5 0  2.1 -5 0  2.2 -5 0  2.3 -5 0  2.4 -5 0  2.5 -5 0  2.6 -5 0  2.7 -5 0  2.8 -5 0  2.9 -5 0  3 -5 0  3.1 -5 0  3.199999999999999 -5 0  3.300000000000001 -5 0  3.4 -5 0  3.5 -5 0  3.6 -5 0  3.699999999999999 -5 0  3.800000000000001 -5 0  3.9 -5 0  4 -5 0  4.1 -5 0  4.199999999999999 -5 0  4.300000000000001 -5 0  4.4 -5 0  4.5 -5 0  4.6 -5 0  4.699999999999999 -5 0  4.800000000000001 -5 0  4.9 -5 0  5 -5 0  -5 -4.9 0  -4.9 -4.9 0  -4.8 -4.9 0  -4.7 -4.9 0  -4.6 -4.9 0  -4.5 -4.9 0  -4.4 -4.9 0  -4.3 -4.9 0  -4.2 -4.9 0  -4.1 -4.9 0  -4 -4.9 0  -3.9 -4.9 0  -3.8 -4.9 0  -3.7 -4.9 0  -3.6 -4.9 0  -3.5 -4.9 0  -3.4 -4.9 0  -3.3 -4.9 0  -3.2 -4.9 0  -3.1 -4.9 0  -3 -4.9 0  -2.9 -4.9 0  -2.8 -4.9 0  -2.7 -4.9 0  -2.6 -4.9 0  -2.5 -4.9 0  -2.4 -4.9 0  -2.3 -4.9 0  -2.2 -4.9 0  -2.1 -4.9 0  -2 -4.9 0  -1.9 -4.9 0  -1.8 -4.9 0  -1.7 -4.9 0  -1.6 -4.9 0  -1.5 -4.9 0  -1.4 -4.9 0  -1.3 -4.9 0  -1.2 -4.9 0  -1.1 -4.9 0  -1 -4.9 0  -0.9000000000000004 -4.9 0  -0.7999999999999998 -4.9 0  -0.7000000000000002 -4.9 0  -0.5999999999999996 -4.9 0  -0.5 -4.9 0  -0.4000000000000004 -4.9 0  -0.2999999999999998 -4.9 0  -0.2000000000000002 -4.9 0  -0.09999999999999964 -4.9 0  0 -4.9 0  0.09999999999999964 -4.9 0  0.2000000000000002 -4.9 0  0.2999999999999998 -4.9 0  0.4000000000000004 -4.9 0  0.5 -4.9 0  0.5999999999999996 -4.9 0  0.7000000000000002 -4.9 0  0.7999999999999998 -4.9 0  0.9000000000000004 -4.9 0  1 -4.9 0  1.1 -4.9 0  1.2 -4.9 0  1.3 -4.9 0  1.4 -4.9 0  1.5 -4.9 0  1.6 -4.9 0  1.7 -4.9 0  1.8 -4.9 0  1.9 -4.9 0  2 -4.9 0  2.1 -4.9 0  2.2 -4.9 0  2.3 -4.9 0  2.4 -4.9 0  2.5 -4.9 0  2.6 -4.9 0  2.7 -4.9 0  2.8 -4.9 0  2.9 -4.9 0  3 -4.9 0  3.1 -4.9 0  3.199999999999999 -4.9 0  3.300000000000001 -4.9 0  3.4 -4.9 0  3.5 -4.9 0  3.6 -4.9 0  3.699999999999999 -4.9 0  3.800000000000001 -4.9 0  3.9 -4.9 0  4 -4.9 0  4.1 -4.9 0  4.199999999999999 -4.9 0  4.300000000000001 -4.9 0  4.4 -4.9 0  4.5 -4.9 0  4.6 -4.9 0  4.699999999999999 -4.9 0  4.800000000000001 -4.9 0  4.9 -4.9 0  5 -4.9 0  -5 -4.8 0  -4.9 -4.8 0  -4.8 -4.8 0  -4.7 -4.8 0  -4.6 -4.8 0  -4.5 -4.8 0  -4.4 -4.8 0  -4.3 -4.8 0  -4.2 -4.8 0  -4.1 -4.8 0  -4 -4.8 0  -3.9 -4.8 0  -3.8 -4.8 0  -3.7 -4.8 0  -3.6 -4.8 0  -3.5 -4.8 0  -3.4 -4.8 0  -3.3 -4.8 0  -3.2 -4.8 0  -3.1 -4.8 0  -3 -4.8 0  -2.9 -4.8 0  -2.8 -4.8 0  -2.7 -4.8 0  -2.6 -4.8 0  -2.5 -4.8 0  -2.4 -4.8 0  -2.3 -4.8 0  -2.2 -4.8 0  -2.1 -4.8 0  -2 -4.8 0  -1.9 -4.8 0  -1.8 -4.8 0  -1.7 -4.8 0  -1.6 -4.8 0  -1.5 -4.8 0  -1.4 -4.8 0  -1.3 -4.8 0  -1.2 -4.8 0  -1.1 -4.8 0  -1 -4.8 0  -0.9000000000000004 -4.8 0  -0.7999999999999998 -4.8 0  -0.7000000000000002 -4.8 0  -0.5999999999999996 -4.8 0  -0.5 -4.8 0  -0.4000000000000004 -4.8 0  -0.2999999999999998 -4.8 0  -0.2000000000000002 -4.8 0  -0.09999999999999964 -4.8 0  0 -4.8 0  0.09999999999999964 -4.8 0  0.2000000000000002 -4.8 0  0.2999999999999998 -4.8 0  0.4000000000000004 -4.8 0  0.5 -4.8 0  0.5999999999999996 -4.8 0  0.7000000000000002 -4.8 0  0.7999999999999998 -4.8 0  0.9000000000000004 -4.8 0  1 -4.8 0  1.1 -4.8 0  1.2 -4.8 0  1.3 -4.8 0  1.4 -4.8 0  1.5 -4.8 0  1.6 -4.8 0  1.7 -4.8 0  1.8 -4.8 0  1.9 -4.8 0  2 -4.8 0  2.1 -4.8 0  2.2 -4.8 0  2.3 -4.8 0  2.4 -4.8 0  2.5 -4.8 0  2.6 -4.8 0  2.7 -4.8 0  2.8 -4.8 0  2.9 -4.8 0  3 -4.8 0  3.1 -4.8 0  3.199999999999999 -4.8 0  3.300000000000001 -4.8 0  3.4 -4.8 0  3.5 -4.8 0  3.6 -4.8 0  3.699999999999999 -4.8 0  3.800000000000001 -4.8 0  3.9 -4.8 0  4 -4.8 0  4.1 -4.8 0  4.199999999999999 -4.8 0  4.300000000000001 -4.8 0  4.4 -4.8 0  4.5 -4.8 0  4.6 -4.8 0  4.699999999999999 -4.8 0  4.800000000000001 -4.8 0  4.9 -4.8 0  5 -4.8 0  -5 -4.7 0  -4.9 -4.7 0  -4.8 -4.7 0  -4.7 -4.7 0  -4.6 -4.7 0  -4.5 -4.7 0  -4.4 -4.7 0  -4.3 -4.7 0  -4.2 -4.7 0  -4.1 -4.7 0  -4 -4.7 0  -3.9 -4.7 0  -3.8 -4.7 0  -3.7 -4.7 0  -3.6 -4.7 0  -3.5 -4.7 0  -3.4 -4.7 0  -3.3 -4.7 0  -3.2 -4.7 0  -3.1 -4.7 0  -3 -4.7 0  -2.9 -4.7 0  -2.8 -4.7 0  -2.7 -4.7 0  -2.6 -4.7 0  -2.5 -4.7 0  -2.4 -4.7 0  -2.3 -4.7 0  -2.2 -4.7 0  -2.1 -4.7 0  -2 -4.7 0  -1.9 -4.7 0  -1.8 -4.7 0  -1.7 -4.7 0  -1.6 -4.7 0  -1.5 -4.7 0  -1.4 -4.7 0  -1.3 -4.7 0  -1.2 -4.7 0  -1.1 -4.7 0  -1 -4.7 0  -0.9000000000000004 -4.7 0  -0.7999999999999998 -4.7 0  -0.7000000000000002 -4.7 0  -0.5999999999999996 -4.7 0  -0.5 -4.7 0  -0.4000000000000004 -4.7 0  -0.2999999999999998 -4.7 0  -0.2000000000000002 -4.7 0  -0.09999999999999964 -4.7 0  0 -4.7 0  0.09999999999999964 -4.7 0  0.2000000000000002 -4.7 0  0.2999999999999998 -4.7 0  0.4000000000000004 -4.7 0  0.5 -4.7 0  0.5999999999999996 -4.7 0  0.7000000000000002 -4.7 0  0.7999999999999998 -4.7 0  0.9000000000000004 -4.7 0  1 -4.7 0  1.1 -4.7 0  1.2 -4.7 0  1.3 -4.7 0  1.4 -4.7 0  1.5 -4.7 0  1.6 -4.7 0  1.7 -4.7 0  1.8 -4.7 0  1.9 -4.7 0  2 -4.7 0  2.1 -4.7 0  2.2 -4.7 0  2.3 -4.7 0  2.4 -4.7 0  2.5 -4.7 0  2.6 -4.7 0  2.7 -4.7 0  2.8 -4.7 0  2.9 -4.7 0  3 -4.7 0  3.1 -4.7 0  3.199999999999999 -4.7 0  3.300000000000001 -4.7 0  3.4 -4.7 0  3.5 -4.7 0  3.6 -4.7 0  3.699999999999999 -4.7 0  3.800000000000001 -4.7 0  3.9 -4.7 0  4 -4.7 0  4.1 -4.7 0  4.199999999999999 -4.7 0  4.300000000000001 -4.7 0  4.4 -4.7 0  4.5 -4.7 0  4.6 -4.7 0  4.699999999999999 -4.7 0  4.800000000000001 -4.7 0  4.9 -4.7 0  5 -4.7 0  -5 -4.6 0  -4.9 -4.6 0  -4.8 -4.6 0  -4.7 -4.6 0  -4.6 -4.6 0  -4.5 -4.6 0  -4.4 -4.6 0  -4.3 -4.6 0  -4.2 -4.6 0  -4.1 -4.6 0  -4 -4.6 0  -3.9 -4.6 0  -3.8 -4.6 0  -3.7 -4.6 0  -3.6 -4.6 0  -3.5 -4.6 0  -3.4 -4.6 0  -3.3 -4.6 0  -3.2 -4.6 0  -3.1 -4.6 0  -3 -4.6 0  -2.9 -4.6 0  -2.8 -4.6 0  -2.7 -4.6 0  -2.6 -4.6 0  -2.5 -4.6 0  -2.4 -4.6 0  -2.3 -4.6 0  -2.2 -4.6 0  -2.1 -4.6 0  -2 -4.6 0  -1.9 -4.6 0  -1.8 -4.6 0  -1.7 -4.6 0  -1.6 -4.6 0  -1.5 -4.6 0  -1.4 -4.6 0  -1.3 -4.6 0  -1.2 -4.6 0  -1.1 -4.6 0  -1 -4.6 0  -0.9000000000000004 -4.6 0  -0.7999999999999998 -4.6 0  -0.7000000000000002 -4.6 0  -0.5999999999999996 -4.6 0  -0.5 -4.6 0  -0.4000000000000004 -4.6 0  -0.2999999999999998 -4.6 0  -0.2000000000000002 -4.6 0  -0.09999999999999964 -4.6 0  0 -4.6 0  0.09999999999999964 -4.6 0  0.2000000000000002 -4.6 0  0.2999999999999998 -4.6 0  0.4000000000000004 -4.6 0  0.5 -4.6 0  0.5999999999999996 -4.6 0  0.7000000000000002 -4.6 0  0.7999999999999998 -4.6 0  0.9000000000000004 -4.6 0  1 -4.6 0  1.1 -4.6 0  1.2 -4.6 0  1.3 -4.6 0  1.4 -4.6 0  1.5 -4.6 0  1.6 -4.6 0  1.7 -4.6 0  1.8 -4.6 0  1.9 -4.6 0  2 -4.6 0  2.1 -4.6 0  2.2 -4.6 0  2.3 -4.6 0  2.4 -4.6 0  2.5 -4.6 0  2.6 -4.6 0  2.7 -4.6 0  2.8 -4.6 0  2.9 -4.6 0  3 -4.6 0  3.1 -4.6 0  3.199999999999999 -4.6 0  3.300000000000001 -4.6 0  3.4 -4.6 0  3.5 -4.6 0  3.6 -4.6 0  3.699999999999999 -4.6 0  3.800000000000001 -4.6 0  3.9 -4.6 0  4 -4.6 0  4.1 -4.6 0  4.199999999999999 -4.6 0  4.300000000000001 -4.6 0  4.4 -4.6 0  4.5 -4.6 0  4.6 -4.6 0  4.699999999999999 -4.6 0  4.800000000000001 -4.6 0  4.9 -4.6 0  5 -4.6 0  -5 -4.5 0  -4.9 -4.5 0  -4.8 -4.5 0  -4.7 -4.5 0  -4.6 -4.5 0  -4.5 -4.5 0  -4.4 -4.5 0  -4.3 -4.5 0  -4.2 -4.5 0  -4.1 -4.5 0  -4 -4.5 0  -3.9 -4.5 0  -3.8 -4.5 0  -3.7 -4.5 0  -3.6 -4.5 0  -3.5 -4.5 0  -3.4 -4.5 0  -3.3 -4.5 0  -3.2 -4.5 0  -3.1 -4.5 0  -3 -4.5 0  -2.9 -4.5 0  -2.8 -4.5 0  -2.7 -4.5 0  -2.6 -4.5 0  -2.5 -4.5 0  -2.4 -4.5 0  -2.3 -4.5 0  -2.2 -4.5 0  -2.1 -4.5 0  -2 -4.5 0  -1.9 -4.5 0  -1.8 -4.5 0  -1.7 -4.5 0  -1.6 -4.5 0  -1.5 -4.5 0  -1.4 -4.5 0  -1.3 -4.5 0  -1.2 -4.5 0  -1.1 -4.5 0  -1 -4.5 0  -0.9000000000000004 -4.5 0  -0.7999999999999998 -4.5 0  -0.7000000000000002 -4.5 0  -0.5999999999999996 -4.5 0  -0.5 -4.5 0  -0.4000000000000004 -4.5 0  -0.2999999999999998 -4.5 0  -0.2000000000000002 -4.5 0  -0.09999999999999964 -4.5 0  0 -4.5 0  0.09999999999999964 -4.5 0  0.2000000000000002 -4.5 0  0.2999999999999998 -4.5 0  0.4000000000000004 -4.5 0  0.5 -4.5 0  0.5999999999999996 -4.5 0  0.7000000000000002 -4.5 0  0.7999999999999998 -4.5 0  0.9000000000000004 -4.5 0  1 -4.5 0  1.1 -4.5 0  1.2 -4.5 0  1.3 -4.5 0  1.4 -4.5 0  1.5 -4.5 0  1.6 -4.5 0  1.7 -4.5 0  1.8 -4.5 0  1.9 -4.5 0  2 -4.5 0  2.1 -4.5 0  2.2 -4.5 0  2.3 -4.5 0  2.4 -4.5 0  2.5 -4.5 0  2.6 -4.5 0  2.7 -4.5 0  2.8 -4.5 0  2.9 -4.5 0  3 -4.5 0  3.1 -4.5 0  3.199999999999999 -4.5 0  3.300000000000001 -4.5 0  3.4 -4.5 0  3.5 -4.5 0  3.6 -4.5 0  3.699999999999999 -4.5 0  3.800000000000001 -4.5 0  3.9 -4.5 0  4 -4.5 0  4.1 -4.5 0  4.199999999999999 -4.5 0  4.300000000000001 -4.5 0  4.4 -4.5 0  4.5 -4.5 0  4.6 -4.5 0  4.699999999999999 -4.5 0  4.800000000000001 -4.5 0  4.9 -4.5 0  5 -4.5 0  -5 -4.4 0  -4.9 -4.4 0  -4.8 -4.4 0  -4.7 -4.4 0  -4.6 -4.4 0  -4.5 -4.4 0  -4.4 -4.4 0  -4.3 -4.4 0  -4.2 -4.4 0  -4.1 -4.4 0  -4 -4.4 0  -3.9 -4.4 0  -3.8 -4.4 0  -3.7 -4.4 0  -3.6 -4.4 0  -3.5 -4.4 0  -3.4 -4.4 0  -3.3 -4.4 0  -3.2 -4.4 0  -3.1 -4.4 0  -3 -4.4 0  -2.9 -4.4 0  -2.8 -4.4 0  -2.7 -4.4 0  -2.6 -4.4 0  -2.5 -4.4 0  -2.4 -4.4 0  -2.3 -4.4 0  -2.2 -4.4 0  -2.1 -4.4 0  -2 -4.4 0  -1.9 -4.4 0  -1.8 -4.
[...]
<PointData  Vectors="f_23"> 
<DataArray  type="Float64"  Name="f_23"  NumberOfComponents="3" format="ascii">1.5000000000000030e-01 0.0000000000000000e+00 0.0000000000000000e+00  1.5000000000000022e-01 4.0253322043281843e-33 0.0000000000000000e+00  1.5000000000000019e-01 2.2780979337877025e-32 0.0000000000000000e+00  1.5000000000000027e-01 5.9022906066154571e-37 0.0000000000000000e+00  1.5000000000000027e-01 6.8565303930631735e-34 0.0000000000000000e+00  1.4999999999999997e-01 8.8071189429643048e-32 0.0000000000000000e+00  1.5000000000000013e-01 3.2985318607562546e-32 0.0000000000000000e+00  1.5000000000000011e-01 1.7256049999902797e-34 0.0000000000000000e+00  1.5000000000000022e-01 6.6551363704644855e-32 0.0000000000000000e+00  1.4999999999999997e-01 1.6530634603384633e-34 0.0000000000000000e+00  1.5000000000000011e-01 4.9252037984623172e-33 0.0000000000000000e+00  1.5000000000000036e-01 2.6723177889152506e-31 0.0000000000000000e+00  1.4999999999999997e-01 7.7570274546255218e-32 0.0000000000000000e+00  1.5000000000000030e-01 5.6916600708576834e-32 0.0000000000000000e+00  1.5000000000000022e-01 3.7535915674311615e-32 0.0000000000000000e+00  1.5000000000000022e-01 1.3096942541437665e-31 0.0000000000000000e+00  1.4999999999999983e-01 1.7011755047823130e-31 0.0000000000000000e+00  1.4999999999999949e-01 1.0113658182406029e-31 0.0000000000000000e+00  1.5000000000000246e-01 5.6022366963160615e-30 0.0000000000000000e+00  1.5000000000001509e-01 7.3074594373626643e-29 0.0000000000000000e+00  1.5000000000004884e-01 3.0402954047891583e-28 0.0000000000000000e+00  1.5000000000010913e-01 5.2117095253832471e-28 0.0000000000000000e+00  1.5000000000016298e-01 1.0371372789160340e-28 0.0000000000000000e+00  1.5000000000013855e-01 6.5473314520585813e-28 0.0000000000000000e+00  1.4999999999998148e-01 3.9428013402433395e-27 0.0000000000000000e+00  1.4999999999975075e-01 4.6921592728167067e-27 0.0000000000000000e+00  1.4999999999961608e-01 6.7712529269001389e-28 0.0000000000000000e+00  1.4999999999970079e-01 1.2864610203485521e-27 0.0000000000000000e+00  1.4999999999993052e-01 4.4353505995419253e-27 0.0000000000000000e+00  1.5000000000010463e-01 2.1710540141682910e-27 0.0000000000000000e+00  1.5000000000011074e-01 2.0196280332799919e-30 0.0000000000000000e+00  1.5000000000002053e-01 5.2391672435475713e-28 0.0000000000000000e+00  1.4999999999996214e-01 2.1943283684436346e-28 0.0000000000000000e+00  1.4999999999997216e-01 3.2006633159163190e-30 0.0000000000000000e+00  1.5000000000000255e-01 5.4522788404175470e-29 0.0000000000000000e+00  1.5000000000001218e-01 4.6839463753088282e-30 0.0000000000000000e+00  1.5000000000000388e-01 3.7123016258876998e-30 0.0000000000000000e+00  1.4999999999999683e-01 2.2900743625112447e-30 0.0000000000000000e+00  1.4999999999999705e-01 2.0841642544977610e-32 0.0000000000000000e+00  1.5000000000000049e-01 2.5998121534862128e-31 0.0000000000000000e+00  1.5000000000000163e-01 2.6779263522270104e-32 0.0000000000000000e+00  1.5000000000000066e-01 7.2478620297050258e-35 0.0000000000000000e+00  1.4999999999999888e-01 9.4775504137395611e-34 0.0000000000000000e+00  1.5000000000000013e-01 1.1156537257123852e-32 0.0000000000000000e+00  1.5000000000000074e-01 2.5626399435901948e-32 0.0000000000000000e+00  1.5000000000000002e-01 5.0064913780793253e-32 0.0000000000000000e+00  1.5000000000000030e-01 1.1161648471622816e-33 0.0000000000000000e+00  1.5000000000000030e-01 1.2016977939723950e-32 0.0000000000000000e+00  1.5000000000000049e-01 1.1064036616785210e-32 0.0000000000000000e+00  1.5000000000000027e-01 1.8833271513557300e-34 0.0000000000000000e+00  1.5000000000000022e-01 3.7340885584005821e-32 0.0000000000000000e+00  1.5000000000000022e-01 2.0105826303600455e-33 0.0000000000000000e+00  1.4999999999999958e-01 5.6436183564091541e-33 0.0000000000000000e+00  1.5000000000000019e-01 3.7951841113707562e-32 0.0000000000000000e+00  1.5000000000000019e-01 6.0019439719421616e-33 0.0000000000000000e+00  1.4999999999999988e-01 1.0517889446550808e-31 0.0000000000000000e+00  1.5000000000000036e-01 2.0134651868676515e-31 0.0000000000000000e+00  1.5000000000000030e-01 3.1543670405078252e-31 0.0000000000000000e+00  1.5000000000000041e-01 3.9327201599067784e-33 0.0000000000000000e+00  1.5000000000000022e-01 9.8200426391190797e-33 0.0000000000000000e+00  1.4999999999999980e-01 2.2918168837148108e-33 0.0000000000000000e+00  1.5000000000000049e-01 5.6170413691682469e-32 0.0000000000000000e+00  1.5000000000000002e-01 1.0744401802173445e-31 0.0000000000000000e+00  1.5000000000000044e-01 3.6297596084960140e-32 0.0000000000000000e+00  1.4999999999999963e-01 3.3124025686034389e-32 0.0000000000000000e+00  1.5000000000000027e-01 2.3317314622926391e-34 0.0000000000000000e+00  1.5000000000000036e-01 1.1808777266746018e-32 0.0000000000000000e+00  1.5000000000000013e-01 2.3741761856760694e-32 0.0000000000000000e+00  1.5000000000000036e-01 1.6589603726280276e-32 0.0000000000000000e+00  1.5000000000000061e-01 8.0155933946604268e-33 0.0000000000000000e+00  1.5000000000000011e-01 1.2963140117971834e-33 0.0000000000000000e+00  1.4999999999999997e-01 1.4320708340005786e-33 0.0000000000000000e+00  1.4999999999999974e-01 5.5658781703801164e-32 0.0000000000000000e+00  1.5000000000000005e-01 1.7400064104936352e-33 0.0000000000000000e+00  1.5000000000000005e-01 3.5334455442713538e-33 0.0000000000000000e+00  1.5000000000000013e-01 8.9568123705237606e-33 0.0000000000000000e+00  1.5000000000000002e-01 7.5982572636640752e-32 0.0000000000000000e+00  1.5000000000000013e-01 2.0630143297669046e-32 0.0000000000000000e+00  1.4999999999999980e-01 5.3068448024690370e-32 0.0000000000000000e+00  1.5000000000000002e-01 1.8703212109366033e-32 0.0000000000000000e+00  1.5000000000000027e-01 9.9140988964434458e-35 0.0000000000000000e+00  1.5000000000000013e-01 7.0905545125828686e-32 0.0000000000000000e+00  1.4999999999999991e-01 1.1034034035086092e-33 0.0000000000000000e+00  1.5000000000000041e-01 2.6071694122671662e-32 0.0000000000000000e+00  1.5000000000000022e-01 4.0703944947023404e-34 0.0000000000000000e+00  1.5000000000000011e-01 9.9148787082285922e-32 0.0000000000000000e+00  1.4999999999999983e-01 3.0695891254102285e-32 0.0000000000000000e+00  1.5000000000000002e-01 2.1975742025570137e-32 0.0000000000000000e+00  1.5000000000000011e-01 1.2461839374880872e-33 0.0000000000000000e+00  1.5000000000000013e-01 5.6947443307339973e-33 0.0000000000000000e+00  1.5000000000000002e-01 1.0831085494914760e-31 0.0000000000000000e+00  1.5000000000000013e-01 3.0563590957665580e-32 0.0000000000000000e+00  1.5000000000000022e-01 6.4490153048344189e-32 0.0000000000000000e+00  1.5000000000000041e-01 1.7533916570102484e-31 0.0000000000000000e+00  1.5000000000000019e-01 1.3537386174216216e-31 0.0000000000000000e+00  1.5000000000000002e-01 5.9526182684489189e-32 0.0000000000000000e+00  1.5000000000000013e-01 8.0643854849613924e-34 0.0000000000000000e+00  1.5000000000000019e-01 5.6940833793980808e-33 0.0000000000000000e+00  1.5000000000000005e-01 8.3766238593151276e-33 0.0000000000000000e+00  1.5000000000000011e-01 2.5230995994075794e-33 0.0000000000000000e+00  1.4999999999999988e-01 0.0000000000000000e+00 0.0000000000000000e+00  1.5000000000000027e-01 0.0000000000000000e+00 3.1692883141280026e-32  1.5000000000000002e-01 4.6546889600300139e-33 3.0841378755122488e-32  1.5000000000000005e-01 1.2044751181301168e-32 1.3938782449798652e-32  1.5000000000000019e-01 1.5896596510917013e-31 3.5614556685093702e-33  1.5000000000000011e-01 6.2484387831743204e-32 1.3498835206891239e-32  1.5000000000000019e-01 5.1545165209086543e-37 1.6554848698130026e-32  1.5000000000000027e-01 2.3869916661417095e-32 5.6382313470728407e-33  1.5000000000000013e-01 1.0801248236735488e-32 1.0355729992946994e-31  1.5000000000000011e-01 6.2196227510086947e-33 1.6457415779361432e-33  1.5000000000000022e-01 3.3661859300804530e-32 6.7770661315601024e-33  1.5000000000000002e-01 6.4331529109237456e-32 1.7529417695271443e-32  1.5000000000000030e-01 9.2153789958301816e-32 3.7290950073662754e-33  1.5000000000000022e-01 5.8981372126716628e-32 7.0014467191046115e-33  1.5000000000000002e-01 5.2360464745831502e-32 3.4679312522456289e-32  1.5000000000000036e-01 2.4600760144912383e-32 8.2934531974253452e-33  1.5000000000000027e-01 8.6875429620722653e-33 4.1391268531153212e-32  1.5000000000000013e-01 5.2015405017333163e-32 2.0580375329174648e-32  1.5000000000000097e-01 1.1306553261000036e-32 4.4444038116940281e-31  1.4999999999999905e-01 3.4591231809326056e-30 6.6629332031956521e-31  1.4999999999998981e-01 4.9974332443006137e-29 1.1657595212058582e-28  1.4999999999995853e-01 3.2323336105646365e-28 1.7195605190266490e-27  1.4999999999989425e-01 8.4422523188645342e-28 1.0684896059934942e-26  1.4999999999981417e-01 5.3101779927895115e-28 3.0481173856718205e-26  1.4999999999979444e-01 1.7766465955541794e-28 3.2512918599594373e-26  1.4999999999992916e-01 4.5239783872838010e-27 1.3691774305377760e-27  1.5000000000021080e-01 8.9951960771128723e-27 5.3713932128867683e-26  1.5000000000046157e-01 3.7433811943486167e-27 2.0148666726754539e-25  1.5000000000046795e-01 3.3788803237885947e-28 1.7903660416963756e-25  1.5000000000021549e-01 6.4717827789229479e-27 2.7930125816255481e-26  1.4999999999992983e-01 6.0052520084180998e-27 8.6719610273366418e-27  1.4999999999983349e-01 5.5422843767647273e-28 2.5964532138242380e-26  1.4999999999992253e-01 4.9585589402647931e-28 4.1224603317298699e-27  1.5000000000003028e-01 7.3820854036083864e-28 1.2763708455563041e-27  1.5000000000005023e-01 2.2882319708052194e-29 2.2551821463444732e-27  1.5000000000001176e-01 7.8170899475934744e-29 7.9948928335946521e-29  1.4999999999998523e-01 3.7968643093963851e-29 2.4004584039991021e-28  1.4999999999998878e-01 4.1815455319157203e-31 1.2076257043254549e-28  1.5000000000000147e-01 6.1437251146260810e-30 2.8923546480879316e-30  1.5000000000000552e-01 4.5284046532197514e-31 3.1250412880922770e-29  1.5000000000000144e-01 7.2731697326166680e-32 1.5975100323249232e-30  1.4999999999999794e-01 2.4227012324835113e-31 7.2423111552654176e-30  1.4999999999999888e-01 2.7879832840142369e-34 1.5186495104950076e-30  1.5000000000000105e-01 5.3254212285991566e-32 9.2032890735446182e-31  1.5000000000000074e-01 5.2798874554595293e-32 4.0900584464709186e-31  1.4999999999999991e-01 5.6451100713828031e-33 5.5076977246080643e-31  1.4999999999999997e-01 1.0800696541270354e-33 3.0653258597392238e-31  1.5000000000000066e-01 2.9615399837203405e-35 1.7440848570459368e-31  1.5000000000000013e-01 4.9985900059001494e-33 1.1167629224230926e-32  1.5000000000000011e-01 2.6756512329189428e-32 1.5507354333660690e-32  1.5000000000000041e-01 2.2831686433563429e-33 3.3576256879894885e-32  1.5000000000000019e-01 7.1227597692501943e-32 2.4696334668827381e-32  1.5000000000000022e-01 1.7022900911862976e-33 5.2226018504298429e-34  1.4999999999999997e-01 4.9901423055524617e-32 6.9019457635605043e-33  1.5000000000000013e-01 4.4450940882834768e-32 6.3089487979948810e-32  1.5000000000000005e-01 3.6758846297229932e-32 1.6272552434104721e-32  1.5000000000000022e-01 1.1838313412202836e-33 2.4923928509118214e-32  1.5000000000000002e-01 4.3992924556782189e-32 5.8461275656952549e-32  1.5000000000000027e-01 3.5846977601960876e-32 1.7100890471845802e-32  1.5000000000000013e-01 4.1502813634894997e-33 5.9839197111097649e-33  1.5000000000000005e-01 1.7914533286396521e-32 7.4936877877735840e-32  1.5000000000000019e-01 3.3958985102279661e-32 8.5040964148945963e-33  1.5000000000000011e-01 2.2357236533293146e-32 9.5928205908175884e-34  1.5000000000000002e-01 7.4123205709281224e-32 4.8405613442787971e-32  1.5000000000000011e-01 2.0509109301398268e-31 9.9535416083247234e-33  1.5000000000000011e-01 6.2461006444162300e-32 1.8409219796768509e-31  1.5000000000000019e-01 5.9854611084002610e-32 2.3003853267378375e-32  1.5000000000000011e-01 4.5125273532248391e-32 1.0014830125201988e-33  1.5000000000000005e-01 6.7772246781560184e-34 5.1974669895141033e-32  1.5000000000000030e-01 1.5263640742205850e-31 6.9986196158803961e-34  1.5000000000000002e-01 1.3084623131939438e-31 5.3068619840031123e-34  1.5000000000000019e-01 7.2785985830206213e-33 2.3168992971186628e-34  1.5000000000000022e-01 4.8187847715677503e-32 3.3926922423666471e-32  1.4999999999999983e-01 1.9764405445264943e-31 1.4217528762897043e-31  1.5000000000000022e-01 8.4037727121650001e-32 1.5358329995577161e-32  1.5000000000000002e-01 1.7857256953879670e-33 6.6712840315788594e-33  1.5000000000000022e-01 2.2188185844149275e-31 9.4431603354617092e-32  1.5000000000000022e-01 4.2183064261802297e-32 1.9214935119730421e-32  1.5000000000000019e-01 6.8148951832591995e-34 1.8009036620955907e-33  1.4999999999999980e-01 1.2088308884572901e-31 7.7545304480943111e-33  1.4999999999999983e-01 2.4791461248807741e-31 9.6927736634059541e-33  1.5000000000000005e-01 6.5740062559232997e-34 2.4150483133779528e-32  1.4999999999999991e-01 2.8535071832750114e-33 5.2886115510382552e-32  1.5000000000000030e-01 8.6185571556152067e-33 3.1060641615924843e-33  1.5000000000000011e-01 2.1954325632110222e-33 4.0556305003625747e-32  1.4999999999999997e-01 1.1071935835951665e-32 3.9845108941114554e-33  1.4999999999999983e-01 8.7057390608524533e-32 8.2655625475990473e-32  1.5000000000000013e-01 1.7877923404746281e-33 3.7266537551369792e-32  1.5000000000000013e-01 1.4232097654163326e-32 2.2006864144084748e-31  1.5000000000000013e-01 1.5281469650849915e-32 3.6488880492880963e-35  1.5000000000000005e-01 2.3782704731034639e-32 2.0949072263689395e-34  1.5000000000000041e-01 4.7044654044649215e-32 1.7259214223942464e-31  1.5000000000000030e-01 4.7307238014934477e-32 1.6099006466074025e-33  1.5000000000000013e-01 2.2548227186727681e-32 1.8144338679037022e-32  1.5000000000000005e-01 1.0083093821691649e-32 5.9903459568639666e-32  1.5000000000000005e-01 1.7274616287885347e-35 2.5842390831992866e-34  1.4999999999999997e-01 2.7209929994884254e-32 3.0403824667919712e-31  1.5000000000000013e-01 2.6158899443345299e-33 9.3987416496592887e-33  1.5000000000000005e-01 6.9241065530194401e-33 2.1929819297778130e-32  1.5000000000000019e-01 2.7479626046343539e-32 3.4227389251657757e-32  1.5000000000000011e-01 7.7888133125369809e-32 5.4482350943541216e-34  1.5000000000000013e-01 0.0000000000000000e+00 1.5183391473470934e-32  1.5000000000000044e-01 0.0000000000000000e+00 1.8682691306289996e-33  1.5000000000000013e-01 1.5852176987774013e-32 7.3833148032061556e-32  1.5000000000000013e-01 2.0113426532893798e-32 2.8670198324558871e-33  1.5000000000000019e-01 7.9205133140084341e-32 5.0005142970169529e-32  1.5000000000000049e-01 7.2516566051510017e-33 8.1138797253286202e-32  1.5000000000000011e-01 4.2389504134627290e-32 3.2891388368494396e-32  1.5000000000000013e-01 9.9689621980382379e-32 3.0005954378476322e-31  1.5000000000000036e-01 2.5472185090601438e-32 1.2069069404772741e-33  1.5000000000000027e-01 2.3322705766941091e-32 3.7354485080154804e-33  1.5000000000000005e-01 2.2021553174990692e-32 1.6820711725325608e-31  1.5000000000000052e-01 5.2828652392206048e-33 1.1461155421845525e-33  1.5000000000000002e-01 3.6117814939181994e-33 1.1616778881318788e-31  1.5000000000000005e-01 2.3005098461852874e-32 3.1592605769489532e-34  1.5000000000000019e-01 1.1070291071691382e-31 5.9447570460397689e-33  1.4999999999999958e-01 2.5563862545456029e-33 1.9711010696926808e-32  1.5000000000000005e-01 6.4698568611578370e-34 1.9124987394974660e-31  1.4999999999999983e-01 1.2660128475100120e-31 6.2183186191682621e-31  1.4999999999999888e-01 6.6906308011413324e-33 3.4546087977007216e-30  1.4999999999999949e-01 1.3225211000841951e-30 2.4343073888187749e-30  1.5000000000000860e-01 5.4755850852012166e-29 9.8102461621156868e-29  1.5000000000004421e-01 5.1898782861885829e-28 3.2353564410323116e-27  1.5000000000013206e-01 2.0207373251050542e-27 2.9786602591203696e-26  1.5000000000027008e-01 2.7056649700465637e-27 1.2516723575694275e-25  1.5000000000036912e-01 9.6917882891137440e-29 2.2930771652948616e-25  1.5000000000025426e-01 6.8802752373100898e-27 1.0104265351291227e-25  1.4999999999983438e-01 2.7396116744166698e-26 5.8606489984558084e-26  1.4999999999930425e-01 2.3862981470506628e-26 8.7004589526205887e-25  1.4999999999907632e-01 9.5536896285661903e-28 1.4678529234364253e-24  1.4999999999937227e-01 1.3258745643395606e-26 6.4193022260324364e-25  1.4999999999993638e-01 2.7299464547309409e-26 3.1015918270250000e-27  1.5000000000028932e-01 8.7129881266731183e-27 1.5653086988646339e-25  1.5000000000024191e-01 1.9795208594645083e-28 1.0114595650812755e-25  1.5000000000001742e-01 3.3552044073410402e-27 3.0588214537579830e-28  1.4999999999990168e-01 8.6027019933883093e-28 1.7617243764708549e-26  1.4999999999994032e-01 9.4963355727423111e-29 6.2282647336231453e-27  1.5000000000001185e-01 2.8643607711755841e-28 2.6665538264859478e-28  1.5000000000003105e-01 9.9220876557546286e-30 1.7144536710714092e-27  1.5000000000000946e-01 1.9067517750127555e-29 1.4937235019865584e-28  1.4999999999998964e-01 9.3748178986501669e-30 2.0617774399968638e-28  1.4999999999999150e-01 4.6349698426388216e-32 1.3782149448959664e-28  1.5000000000000294e-01 9.8288800160052300e-31 1.2042335691730999e-29  1.5000000000000538e-01 6.5931325850422240e-31 4.7109502441828911e-29  1.4999999999999925e-01 3.2728184372451965e-32 9.9295219840579191e-31  1.4999999999999769e-01 4.8199531501104690e-31 1.2334482590178436e-29  1.5000000000000074e-01 2.9607452920033292e-31 3.3992598873925466e-31  1.5000000000000147e-01 1.9172911329474603e-31 2.6357830689757233e-30  1.4999999999999980e-01 6.2652942430948630e-32 4.4618678853493788e-31  1.4999999999999955e-01 1.3467848706687401e-33 4.1549758055971024e-31  1.5000000000000044e-01 7.3148996806389525e-33 2.1692356334484787e-31  1.5000000000000027e-01 7.8851538703753464e-34 1.6857960954949903e-33  1.5000000000000013e-01 1.1334260865327610e-32 8.1884913170306810e-33  1.5000000000000013e-01 7.3320897667338967e-33 2.5922642966108876e-32  1.5000000000000052e-01 1.5927559905409228e-32 6.4467477117770943e-32  1.5000000000000011e-01 3.3553392887779470e-32 6.0132782815684731e-37  1.5000000000000011e-01 1.4610512190521280e-32 7.1132601103352301e-33  1.5000000000000027e-01 3.8680675910874609e-32 1.6839616507984256e-32  1.4999999999999991e-01 3.7105082985474028e-32 6.5977020515225653e-32  1.5000000000000030e-01 1.1417320276634402e-32 4.1199623297190318e-35  1.4999999999999988e-01 1.4698014129241664e-31 2.4945856215564627e-32  1.5000000000000030e-01 2.8761111338238634e-32 2.6678997745927060e-37  1.5000000000000022e-01 1.7315764822520772e-33 2.3116063582276940e-33  1.5000000000000002e-01 2.2590120509374963e-34 1.6436819239969782e-31  1.5000000000000027e-01 1.4490510418468412e-32 9.1240845797129185e-32  1.5000000000000036e-01 3.0402613689388982e-33 6.7831940942559591e-32  1.5000000000000030e-01 2.3012764518639860e-32 1.6396943485648460e-31  1.5000000000000005e-01 6.5580235113403312e-32 2.2551305775615015e-32  1.5000000000000013e-01 4.9012567832139830e-32 3.4917369828293590e-33  1.5000000000000027e-01 9.8794183645391012e-35 2.4725313258510400e-32  1.5000000000000019e-01 1.7604281065068281e-31 1.4965504989623936e-33  1.5000000000000019e-01 1.3889203882239719e-31 1.7104166881716762e-32  1.5000000000000030e-01 2.2913547580620348e-32 2.6833442390079014e-32  1.4999999999999983e-01 1.1936625526358806e-32 3.2795206843418295e-33  1.5000000000000036e-01 2.2998634024657245e-31 2.9155716430994788e-32  1.5000000000000011e-01 1.1192185431327160e-32 5.4565887562214427e-32  1.5000000000000011e-01 3.6913601468733986e-34 7.7419331349472226e-32  1.5000000000000022e-01 2.2508225473651923e-32 1.5490025204187518e-32  1.5000000000000002e-01 7.4155180739390777e-32 1.1912145687214192e-31  1.4999999999999972e-01 2.9216303864493177e-33 8.7516549584623661e-36  1.5000000000000022e-01 1.9276433822078162e-32 9.7602858728130786e-32  1.5000000000000027e-01 3.6025744461730990e-33 4.3901449171287130e-32  1.5000000000000019e-01 9.1153356177023667e-35 5.1207004877288620e-33  1.5000000000000013e-01 7.2992237723437147e-32 1.0593355400399489e-31  1.5000000000