<?xml version="1.0"?>
<VTKFile type="UnstructuredGrid"  version="0.1"  >
<UnstructuredGrid>
<Piece  NumberOfPoints="10201" NumberOfCells="20000">
<Points>
<DataArray  type="Float64"  NumberOfComponents="3"  format="ascii">-5 -5 0  -4.9 -5 0  -4.8 -5 0  -4.7 -5 0  -4.6 -5 0  -4.5 -5 0  -4.4 -5 0  -4.3 -5 0  -4.2 -5 0  -4.1 -5 0  -4 -5 0  -3.9 -5 0  -3.8 -5 0  -3.7 -5 0  -3.6 -5 0  -3.5 -5 0  -3.4 -5 0  -3.3 -5 0  -3.2 -5 0  -3.1 -5 0  -3 -5 0  -2.9 -5 0  -2.8 -5 0  -2.7 -5 0  -2.6 -5 0  -2.5 -5 0  -2.4 -5 0  -2.3 -5 0  -2.2 -5 0  -2.1 -5 0  -2 -5 0  -1.9 -5 0  -1.8 -5 0  -1.7 -5 0  -1.6 -5 0  -1.5 -5 0  -1.4 -5 0  -1.3 -5 0  -1.2 -5 0  -1.1 -5 0  -1 -5 0  -0.9000000000000004 -5 0  -0.7999999999999998 -5 0  -0.7000000000000002 -5 0  -0.5999999999999996 -5 0  -0.5 -5 0  -0.4000000000000004 -5 0  -0.2999999999999998 -5 0  -0.2000000000000002 -5 0  -0.09999999999999964 -5 0  0 -5 0  0.09999999999999964 -5 0  0.2000000000000002 -5 0  0.2999999999999998 -5 0  0.4000000000000004 -5 0  0.5 -5 0  0.5999999999999996 -5 0  0.7000000000000002 -5 0  0.7999999999999998 -5 0  0.9000000000000004 -5 0  1 -5 0  1.1 -5 0  1.2 -5 0  1.3 -5 0  1.4 -5 0  1.5 -5 0  1.6 -5 0  1.7 -5 0  1.8 -5 0  1.9 -5 0  2 -5 0  2.1 -5 0  2.2 -5 0  2.3 -5 0  2.4 -5 0  2.5 -5 0  2.6 -5 0  2.7 -5 0  2.8 -5 0  2.9 -5 0  3 -5 0  3.1 -5 0  3.199999999999999 -5 0  3.300000000000001 -5 0  3.4 -5 0  3.5 -5 0  3.6 -5 0  3.699999999999999 -5 0  3.800000000000001 -5 0  3.9 -5 0  4 -5 0  4.1 -5 0  4.199999999999999 -5 0  4.300000000000001 -5 0  4.4 -5 0  4.5 -5 0  4.6 -5 0  4.699999999999999 -5 0  4.800000000000001 -5 0  4.9 -5 0  5 -5 0  -5 -4.9 0  -4.9 -4.9 0  -4.8 -4.9 0  -4.7 -4.9 0  -4.6 -4.9 0  -4.5 -4.9 0  -4.4 -4.9 0  -4.3 -4.9 0  -4.2 -4.9 0  -4.1 -4.9 0  -4 -4.9 0  -3.9 -4.9 0  -3.8 -4.9 0  -3.7 -4.9 0  -3.6 -4.9 0  -3.5 -4.9 0  -3.4 -4.9 0  -3.3 -4.9 0  -3.2 -4.9 0  -3.1 -4.9 0  -3 -4.9 0  -2.9 -4.9 0  -2.8 -4.9 0  -2.7 -4.9 0  -2.6 -4.9 0  -2.5 -4.9 0  -2.4 -4.9 0  -2.3 -4.9 0  -2.2 -4.9 0  -2.1 -4.9 0  -2 -4.9 0  -1.9 -4.9 0  -1.8 -4.9 0  -1.7 -4.9 0  -1.6 -4.9 0  -1.5 -4.9 0  -1.4 -4.9 0  -1.3 -4.9 0  -1.2 -4.9 0  -1.1 -4.9 0  -1 -4.9 0  -0.9000000000000004 -4.9 0  -0.7999999999999998 -4.9 0  -0.7000000000000002 -4.9 0  -0.5999999999999996 -4.9 0  -0.5 -4.9 0  -0.4000000000000004 -4.9 0  -0.2999999999999998 -4.9 0  -0.2000000000000002 -4.9 0  -0.09999999999999964 -4.9 0  0 -4.9 0  0.09999999999999964 -4.9 0  0.2000000000000002 -4.9 0  0.2999999999999998 -4.9 0  0.4000000000000004 -4.9 0  0.5 -4.9 0  0.5999999999999996 -4.9 0  0.7000000000000002 -4.9 0  0.7999999999999998 -4.9 0  0.9000000000000004 -4.9 0  1 -4.9 0  1.1 -4.9 0  1.2 -4.9 0  1.3 -4.9 0  1.4 -4.9 0  1.5 -4.9 0  1.6 -4.9 0  1.7 -4.9 0  1.8 -4.9 0  1.9 -4.9 0  2 -4.9 0  2.1 -4.9 0  2.2 -4.9 0  2.3 -4.9 0  2.4 -4.9 0  2.5 -4.9 0  2.6 -4.9 0  2.7 -4.9 0  2.8 -4.9 0  2.9 -4.9 0  3 -4.9 0  3.1 -4.9 0  3.199999999999999 -4.9 0  3.300000000000001 -4.9 0  3.4 -4.9 0  3.5 -4.9 0  3.6 -4.9 0  3.699999999999999 -4.9 0  3.800000000000001 -4.9 0  3.9 -4.9 0  4 -4.9 0  4.1 -4.9 0  4.199999999999999 -4.9 0  4.300000000000001 -4.9 0  4.4 -4.9 0  4.5 -4.9 0  4.6 -4.9 0  4.699999999999999 -4.9 0  4.800000000000001 -4.9 0  4.9 -4.9 0  5 -4.9 0  -5 -4.8 0  -4.9 -4.8 0  -4.8 -4.8 0  -4.7 -4.8 0  -4.6 -4.8 0  -4.5 -4.8 0  -4.4 -4.8 0  -4.3 -4.8 0  -4.2 -4.8 0  -4.1 -4.8 0  -4 -4.8 0  -3.9 -4.8 0  -3.8 -4.8 0  -3.7 -4.8 0  -3.6 -4.8 0  -3.5 -4.8 0  -3.4 -4.8 0  -3.3 -4.8 0  -3.2 -4.8 0  -3.1 -4.8 0  -3 -4.8 0  -2.9 -4.8 0  -2.8 -4.8 0  -2.7 -4.8 0  -2.6 -4.8 0  -2.5 -4.8 0  -2.4 -4.8 0  -2.3 -4.8 0  -2.2 -4.8 0  -2.1 -4.8 0  -2 -4.8 0  -1.9 -4.8 0  -1.8 -4.8 0  -1.7 -4.8 0  -1.6 -4.8 0  -1.5 -4.8 0  -1.4 -4.8 0  -1.3 -4.8 0  -1.2 -4.8 0  -1.1 -4.8 0  -1 -4.8 0  -0.9000000000000004 -4.8 0  -0.7999999999999998 -4.8 0  -0.7000000000000002 -4.8 0  -0.5999999999999996 -4.8 0  -0.5 -4.8 0  -0.4000000000000004 -4.8 0  -0.2999999999999998 -4.8 0  -0.2000000000000002 -4.8 0  -0.09999999999999964 -4.8 0  0 -4.8 0  0.09999999999999964 -4.8 0  0.2000000000000002 -4.8 0  0.2999999999999998 -4.8 0  0.4000000000000004 -4.8 0  0.5 -4.8 0  0.5999999999999996 -4.8 0  0.7000000000000002 -4.8 0  0.7999999999999998 -4.8 0  0.9000000000000004 -4.8 0  1 -4.8 0  1.1 -4.8 0  1.2 -4.8 0  1.3 -4.8 0  1.4 -4.8 0  1.5 -4.8 0  1.6 -4.8 0  1.7 -4.8 0  1.8 -4.8 0  1.9 -4.8 0  2 -4.8 0  2.1 -4.8 0  2.2 -4.8 0  2.3 -4.8 0  2.4 -4.8 0  2.5 -4.8 0  2.6 -4.8 0  2.7 -4.8 0  2.8 -4.8 0  2.9 -4.8 0  3 -4.8 0  3.1 -4.8 0  3.199999999999999 -4.8 0  3.300000000000001 -4.8 0  3.4 -4.8 0  3.5 -4.8 0  3.6 -4.8 0  3.699999999999999 -4.8 0  3.800000000000001 -4.8 0  3.9 -4.8 0  4 -4.8 0  4.1 -4.8 0  4.199999999999999 -4.8 0  4.300000000000001 -4.8 0  4.4 -4.8 0  4.5 -4.8 0  4.6 -4.8 0  4.699999999999999 -4.8 0  4.800000000000001 -4.8 0  4.9 -4.8 0  5 -4.8 0  -5 -4.7 0  -4.9 -4.7 0  -4.8 -4.7 0  -4.7 -4.7 0  -4.6 -4.7 0  -4.5 -4.7 0  -4.4 -4.7 0  -4.3 -4.7 0  -4.2 -4.7 0  -4.1 -4.7 0  -4 -4.7 0  -3.9 -4.7 0  -3.8 -4.7 0  -3.7 -4.7 0  -3.6 -4.7 0  -3.5 -4.7 0  -3.4 -4.7 0  -3.3 -4.7 0  -3.2 -4.7 0  -3.1 -4.7 0  -3 -4.7 0  -2.9 -4.7 0  -2.8 -4.7 0  -2.7 -4.7 0  -2.6 -4.7 0  -2.5 -4.7 0  -2.4 -4.7 0  -2.3 -4.7 0  -2.2 -4.7 0  -2.1 -4.7 0  -2 -4.7 0  -1.9 -4.7 0  -1.8 -4.7 0  -1.7 -4.7 0  -1.6 -4.7 0  -1.5 -4.7 0  -1.4 -4.7 0  -1.3 -4.7 0  -1.2 -4.7 0  -1.1 -4.7 0  -1 -4.7 0  -0.9000000000000004 -4.7 0  -0.7999999999999998 -4.7 0  -0.7000000000000002 -4.7 0  -0.5999999999999996 -4.7 0  -0.5 -4.7 0  -0.4000000000000004 -4.7 0  -0.2999999999999998 -4.7 0  -0.2000000000000002 -4.7 0  -0.09999999999999964 -4.7 0  0 -4.7 0  0.09999999999999964 -4.7 0  0.2000000000000002 -4.7 0  0.2999999999999998 -4.7 0  0.4000000000000004 -4.7 0  0.5 -4.7 0  0.5999999999999996 -4.7 0  0.7000000000000002 -4.7 0  0.7999999999999998 -4.7 0  0.9000000000000004 -4.7 0  1 -4.7 0  1.1 -4.7 0  1.2 -4.7 0  1.3 -4.7 0  1.4 -4.7 0  1.5 -4.7 0  1.6 -4.7 0  1.7 -4.7 0  1.8 -4.7 0  1.9 -4.7 0  2 -4.7 0  2.1 -4.7 0  2.2 -4.7 0  2.3 -4.7 0  2.4 -4.7 0  2.5 -4.7 0  2.6 -4.7 0  2.7 -4.7 0  2.8 -4.7 0  2.9 -4.7 0  3 -4.7 0  3.1 -4.7 0  3.199999999999999 -4.7 0  3.300000000000001 -4.7 0  3.4 -4.7 0  3.5 -4.7 0  3.6 -4.7 0  3.699999999999999 -4.7 0  3.800000000000001 -4.7 0  3.9 -4.7 0  4 -4.7 0  4.1 -4.7 0  4.199999999999999 -4.7 0  4.300000000000001 -4.7 0  4.4 -4.7 0  4.5 -4.7 0  4.6 -4.7 0  4.699999999999999 -4.7 0  4.800000000000001 -4.7 0  4.9 -4.7 0  5 -4.7 0  -5 -4.6 0  -4.9 -4.6 0  -4.8 -4.6 0  -4.7 -4.6 0  -4.6 -4.6 0  -4.5 -4.6 0  -4.4 -4.6 0  -4.3 -4.6 0  -4.2 -4.6 0  -4.1 -4.6 0  -4 -4.6 0  -3.9 -4.6 0  -3.8 -4.6 0  -3.7 -4.6 0  -3.6 -4.6 0  -3.5 -4.6 0  -3.4 -4.6 0  -3.3 -4.6 0  -3.2 -4.6 0  -3.1 -4.6 0  -3 -4.6 0  -2.9 -4.6 0  -2.8 -4.6 0  -2.7 -4.6 0  -2.6 -4.6 0  -2.5 -4.6 0  -2.4 -4.6 0  -2.3 -4.6 0  -2.2 -4.6 0  -2.1 -4.6 0  -2 -4.6 0  -1.9 -4.6 0  -1.8 -4.6 0  -1.7 -4.6 0  -1.6 -4.6 0  -1.5 -4.6 0  -1.4 -4.6 0  -1.3 -4.6 0  -1.2 -4.6 0  -1.1 -4.6 0  -1 -4.6 0  -0.9000000000000004 -4.6 0  -0.7999999999999998 -4.6 0  -0.7000000000000002 -4.6 0  -0.5999999999999996 -4.6 0  -0.5 -4.6 0  -0.4000000000000004 -4.6 0  -0.2999999999999998 -4.6 0  -0.2000000000000002 -4.6 0  -0.09999999999999964 -4.6 0  0 -4.6 0  0.09999999999999964 -4.6 0  0.2000000000000002 -4.6 0  0.2999999999999998 -4.6 0  0.4000000000000004 -4.6 0  0.5 -4.6 0  0.5999999999999996 -4.6 0  0.7000000000000002 -4.6 0  0.7999999999999998 -4.6 0  0.9000000000000004 -4.6 0  1 -4.6 0  1.1 -4.6 0  1.2 -4.6 0  1.3 -4.6 0  1.4 -4.6 0  1.5 -4.6 0  1.6 -4.6 0  1.7 -4.6 0  1.8 -4.6 0  1.9 -4.6 0  2 -4.6 0  2.1 -4.6 0  2.2 -4.6 0  2.3 -4.6 0  2.4 -4.6 0  2.5 -4.6 0  2.6 -4.6 0  2.7 -4.6 0  2.8 -4.6 0  2.9 -4.6 0  3 -4.6 0  3.1 -4.6 0  3.199999999999999 -4.6 0  3.300000000000001 -4.6 0  3.4 -4.6 0  3.5 -4.6 0  3.6 -4.6 0  3.699999999999999 -4.6 0  3.800000000000001 -4.6 0  3.9 -4.6 0  4 -4.6 0  4.1 -4.6 0  4.199999999999999 -4.6 0  4.300000000000001 -4.6 0  4.4 -4.6 0  4.5 -4.6 0  4.6 -4.6 0  4.699999999999999 -4.6 0  4.800000000000001 -4.6 0  4.9 -4.6 0  5 -4.6 0  -5 -4.5 0  -4.9 -4.5 0  -4.8 -4.5 0  -4.7 -4.5 0  -4.6 -4.5 0  -4.5 -4.5 0  -4.4 -4.5 0  -4.3 -4.5 0  -4.2 -4.5 0  -4.1 -4.5 0  -4 -4.5 0  -3.9 -4.5 0  -3.8 -4.5 0  -3.7 -4.5 0  -3.6 -4.5 0  -3.5 -4.5 0  -3.4 -4.5 0  -3.3 -4.5 0  -3.2 -4.5 0  -3.1 -4.5 0  -3 -4.5 0  -2.9 -4.5 0  -2.8 -4.5 0  -2.7 -4.5 0  -2.6 -4.5 0  -2.5 -4.5 0  -2.4 -4.5 0  -2.3 -4.5 0  -2.2 -4.5 0  -2.1 -4.5 0  -2 -4.5 0  -1.9 -4.5 0  -1.8 -4.5 0  -1.7 -4.5 0  -1.6 -4.5 0  -1.5 -4.5 0  -1.4 -4.5 0  -1.3 -4.5 0  -1.2 -4.5 0  -1.1 -4.5 0  -1 -4.5 0  -0.9000000000000004 -4.5 0  -0.7999999999999998 -4.5 0  -0.7000000000000002 -4.5 0  -0.5999999999999996 -4.5 0  -0.5 -4.5 0  -0.4000000000000004 -4.5 0  -0.2999999999999998 -4.5 0  -0.2000000000000002 -4.5 0  -0.09999999999999964 -4.5 0  0 -4.5 0  0.09999999999999964 -4.5 0  0.2000000000000002 -4.5 0  0.2999999999999998 -4.5 0  0.4000000000000004 -4.5 0  0.5 -4.5 0  0.5999999999999996 -4.5 0  0.7000000000000002 -4.5 0  0.7999999999999998 -4.5 0  0.9000000000000004 -4.5 0  1 -4.5 0  1.1 -4.5 0  1.2 -4.5 0  1.3 -4.5 0  1.4 -4.5 0  1.5 -4.5 0  1.6 -4.5 0  1.7 -4.5 0  1.8 -4.5 0  1.9 -4.5 0  2 -4.5 0  2.1 -4.5 0  2.2 -4.5 0  2.3 -4.5 0  2.4 -4.5 0  2.5 -4.5 0  2.6 -4.5 0  2.7 -4.5 0  2.8 -4.5 0  2.9 -4.5 0  3 -4.5 0  3.1 -4.5 0  3.199999999999999 -4.5 0  3.300000000000001 -4.5 0  3.4 -4.5 0  3.5 -4.5 0  3.6 -4.5 0  3.699999999999999 -4.5 0  3.800000000000001 -4.5 0  3.9 -4.5 0  4 -4.5 0  4.1 -4.5 0  4.199999999999999 -4.5 0  4.300000000000001 -4.5 0  4.4 -4.5 0  4.5 -4.5 0  4.6 -4.5 0  4.699999999999999 -4.5 0  4.800000000000001 -4.5 0  4.9 -4.5 0  5 -4.5 0  -5 -4.4 0  -4.9 -4.4 0  -4.8 -4.4 0  -4.7 -4.4 0  -4.6 -4.4 0  -4.5 -4.4 0  -4.4 -4.4 0  -4.3 -4.4 0  -4.2 -4.4 0  -4.1 -4.4 0  -4 -4.4 0  -3.9 -4.4 0  -3.8 -4.4 0  -3.7 -4.4 0  -3.6 -4.4 0  -3.5 -4.4 0  -3.4 -4.4 0  -3.3 -4.4 0  -3.2 -4.4 0  -3.1 -4.4 0  -3 -4.4 0  -2.9 -4.4 0  -2.8 -4.4 0  -2.7 -4.4 0  -2.6 -4.4 0  -2.5 -4.4 0  -2.4 -4.4 0  -2.3 -4.4 0  -2.2 -4.4 0  -2.1 -4.4 0  -2 -4.4 0  -1.9 -4.4 0  -1.8 -4.
[...]
<PointData  Vectors="f_17"> 
<DataArray  type="Float64"  Name="f_17"  NumberOfComponents="3" format="ascii">1.5001979507804394e-01 0.0000000000000000e+00 0.0000000000000000e+00  1.5000063761137680e-01 -3.7551131083405009e-05 0.0000000000000000e+00  1.5002832632377799e-01 1.9052683863527823e-06 0.0000000000000000e+00  1.5001915964292525e-01 -5.9871639915206222e-05 0.0000000000000000e+00  1.5004728129666345e-01 -9.2562502297651913e-06 0.0000000000000000e+00  1.5003982660093682e-01 -6.5878302023665770e-05 0.0000000000000000e+00  1.5006134324477152e-01 4.0782356942337085e-06 0.0000000000000000e+00  1.5004247613452984e-01 -2.1811042460378029e-05 0.0000000000000000e+00  1.5004400040828866e-01 7.3399204977298298e-05 0.0000000000000000e+00  1.5000913872813693e-01 7.6689543482684635e-05 0.0000000000000000e+00  1.4999809655802404e-01 1.5460334876275019e-04 0.0000000000000000e+00  1.4997397797023021e-01 1.2183880416137758e-04 0.0000000000000000e+00  1.4998996352158370e-01 1.1617918791657707e-04 0.0000000000000000e+00  1.5000704983060462e-01 1.8577066276417329e-05 0.0000000000000000e+00  1.5004550097472116e-01 -3.1389143639481501e-05 0.0000000000000000e+00  1.5006067252439839e-01 -7.8967486606836115e-05 0.0000000000000000e+00  1.5005671416940594e-01 -4.2329659183071837e-05 0.0000000000000000e+00  1.5001617589142632e-01 -4.8068161357668859e-06 0.0000000000000000e+00  1.4997636224814814e-01 4.3446114168737808e-05 0.0000000000000000e+00  1.4994578957674531e-01 4.4351872775024279e-05 0.0000000000000000e+00  1.4993305933696749e-01 2.3678321563234996e-05 0.0000000000000000e+00  1.4992844704580680e-01 -5.9207787520134273e-06 0.0000000000000000e+00  1.4993082835629815e-01 -1.6174323708958433e-05 0.0000000000000000e+00  1.4992781821702117e-01 -3.6094551293408158e-05 0.0000000000000000e+00  1.4992530183972880e-01 -4.5229155581998311e-05 0.0000000000000000e+00  1.4992815696865100e-01 -1.8828388285433482e-05 0.0000000000000000e+00  1.4993426301736085e-01 -7.1738025705541946e-06 0.0000000000000000e+00  1.4995467085608385e-01 -6.6802740363927448e-05 0.0000000000000000e+00  1.4999430322245788e-01 -1.0357992051231442e-04 0.0000000000000000e+00  1.5000613963963796e-01 -2.9557950841057639e-05 0.0000000000000000e+00  1.4997742174542261e-01 4.3671697222710789e-05 0.0000000000000000e+00  1.4998246585959479e-01 -4.2934368067896204e-06 0.0000000000000000e+00  1.5003010349114132e-01 -6.7978624944896321e-05 0.0000000000000000e+00  1.5002383074916828e-01 -1.4276754582020881e-05 0.0000000000000000e+00  1.4996953453672007e-01 7.0787809962766059e-05 0.0000000000000000e+00  1.4997581591914025e-01 4.0544230019619735e-05 0.0000000000000000e+00  1.5002690016621761e-01 -5.8911178290394349e-05 0.0000000000000000e+00  1.5002569478986194e-01 -6.6073497849839644e-05 0.0000000000000000e+00  1.4998996509654822e-01 3.8203095676751434e-05 0.0000000000000000e+00  1.4998191177633918e-01 8.9113488025581276e-05 0.0000000000000000e+00  1.4999225016178755e-01 -5.5826623797017422e-06 0.0000000000000000e+00  1.5000907131017993e-01 -9.3690318566875305e-05 0.0000000000000000e+00  1.5002497599725836e-01 -2.1390164273876196e-05 0.0000000000000000e+00  1.4999954460752821e-01 8.6388427089727652e-05 0.0000000000000000e+00  1.4996271420629989e-01 3.8835294381634388e-05 0.0000000000000000e+00  1.4999747066033686e-01 -7.3710220955708615e-05 0.0000000000000000e+00  1.5004600995299699e-01 -4.6677844795497765e-05 0.0000000000000000e+00  1.4999956485394228e-01 6.3260309998374031e-05 0.0000000000000000e+00  1.4994929090178341e-01 4.9035384478336532e-05 0.0000000000000000e+00  1.5000866807845870e-01 -5.7725366620104257e-05 0.0000000000000000e+00  1.5005002575800597e-01 -4.6638736638131790e-05 0.0000000000000000e+00  1.4997987343304239e-01 5.7484213752391289e-05 0.0000000000000000e+00  1.4995745074292080e-01 3.8347088381643987e-05 0.0000000000000000e+00  1.5003108243790492e-01 -5.9932113420986695e-05 0.0000000000000000e+00  1.5002829690434646e-01 -2.3191371667117183e-05 0.0000000000000000e+00  1.4996295650536837e-01 6.0072949243069792e-05 0.0000000000000000e+00  1.4998985960745700e-01 2.9517325310300299e-06 0.0000000000000000e+00  1.5003466775341481e-01 -5.2832476741347624e-05 0.0000000000000000e+00  1.4999334626536168e-01 1.6920264398171638e-05 0.0000000000000000e+00  1.4997581996032569e-01 3.6613809072550360e-05 0.0000000000000000e+00  1.5001665257911648e-01 -2.9382066182506491e-05 0.0000000000000000e+00  1.5000978295729972e-01 -1.5176870002518437e-05 0.0000000000000000e+00  1.4998255872514066e-01 3.0150452881698087e-05 0.0000000000000000e+00  1.5000259170384259e-01 -4.4044274814246496e-06 0.0000000000000000e+00  1.5001085363534958e-01 -1.9674525866120294e-05 0.0000000000000000e+00  1.4999177520842108e-01 1.4145651005587675e-05 0.0000000000000000e+00  1.4999748153418607e-01 6.1121363873913473e-06 0.0000000000000000e+00  1.5000739384183689e-01 -1.4382111078805507e-05 0.0000000000000000e+00  1.4999660783094473e-01 5.6742655967731871e-06 0.0000000000000000e+00  1.4999757268529906e-01 5.4029995897005012e-06 0.0000000000000000e+00  1.5000374923994786e-01 -6.7561790903803305e-06 0.0000000000000000e+00  1.4999913410698884e-01 1.3566285666575619e-07 0.0000000000000000e+00  1.4999787700532591e-01 5.6134005783376279e-06 0.0000000000000000e+00  1.5000254201980204e-01 -5.5778821449725353e-06 0.0000000000000000e+00  1.4999902935363565e-01 1.8467592225355926e-06 0.0000000000000000e+00  1.4999946971257974e-01 9.8675256649226051e-07 0.0000000000000000e+00  1.5000073170430053e-01 -7.5832954581206979e-07 0.0000000000000000e+00  1.5000008410405125e-01 -1.3610044344693598e-06 0.0000000000000000e+00  1.4999906354862513e-01 3.0840602882042016e-06 0.0000000000000000e+00  1.5000117699799143e-01 -3.2532397252356772e-06 0.0000000000000000e+00  1.4999914441883239e-01 2.3286910859434571e-06 0.0000000000000000e+00  1.5000042382818721e-01 -1.4591389721544582e-06 0.0000000000000000e+00  1.4999973781986009e-01 1.3942505871025589e-06 0.0000000000000000e+00  1.5000043675092406e-01 -2.0862685431950604e-06 0.0000000000000000e+00  1.4999923531408341e-01 2.9950594687729648e-06 0.0000000000000000e+00  1.5000102445520516e-01 -3.6191531836481502e-06 0.0000000000000000e+00  1.4999888520213703e-01 3.8096330346418740e-06 0.0000000000000000e+00  1.5000107615675320e-01 -3.7370232188648627e-06 0.0000000000000000e+00  1.4999898834355829e-01 3.6590611516575352e-06 0.0000000000000000e+00  1.5000099547401236e-01 -3.7101714183754875e-06 0.0000000000000000e+00  1.4999896665235088e-01 3.8449095687925461e-06 0.0000000000000000e+00  1.5000107698785664e-01 -3.9092961337311964e-06 0.0000000000000000e+00  1.4999892249672961e-01 3.7795674349329865e-06 0.0000000000000000e+00  1.5000099572508260e-01 -3.3958796927979258e-06 0.0000000000000000e+00  1.4999913011788041e-01 2.8624522161518726e-06 0.0000000000000000e+00  1.5000067083247789e-01 -2.2010053238692359e-06 0.0000000000000000e+00  1.4999944604449478e-01 1.6570189961571922e-06 0.0000000000000000e+00  1.5000033392905737e-01 -1.0729920768989531e-06 0.0000000000000000e+00  1.4999964056710047e-01 7.2969682275006280e-07 0.0000000000000000e+00  1.5000013994513578e-01 -3.3204956990866824e-07 0.0000000000000000e+00  1.4999965019728753e-01 0.0000000000000000e+00 0.0000000000000000e+00  1.5000063761137664e-01 0.0000000000000000e+00 -3.7551131083309070e-05  1.4998380162392300e-01 2.7040483229708882e-06 2.7040483234361363e-06  1.4998997208620574e-01 3.6164361542217952e-05 -3.5329137318129286e-05  1.4996907918705851e-01 1.1350271364656755e-05 -2.4040628501192100e-05  1.4997139974550436e-01 5.6070431024030307e-05 -5.6793943419488245e-05  1.4994799777519846e-01 2.0312085082700459e-05 -4.7008508472568637e-05  1.4995336190081510e-01 5.1500664741632472e-05 -7.3749851783202878e-05  1.4993930137017744e-01 -7.8909581706818581e-06 -4.9018253125611092e-05  1.4996013579319126e-01 -8.1594984229821533e-06 -5.8450618427489250e-05  1.4996517252421479e-01 -9.0007193547854766e-05 -1.8942103088914293e-05  1.4999829857302041e-01 -1.0116190736358804e-04 -2.6225904123407713e-05  1.5000606847750977e-01 -1.4715202102972853e-04 -6.6224606978416803e-06  1.5001773945432031e-01 -1.0489802070249243e-04 -4.8117659802632967e-05  1.4999356555938728e-01 -7.3572761327085840e-05 -6.8493284747755793e-05  1.4997358547032236e-01 1.2569986186636192e-05 -1.1367119159537230e-04  1.4994425389273805e-01 4.2961325158017872e-05 -1.0174154880498461e-04  1.4994498349774010e-01 5.1470780583985606e-05 -7.6346385743008733e-05  1.4996580517408670e-01 6.4555080790802018e-06 -5.8959630500520311e-06  1.5000862248148938e-01 -2.2875060906030172e-05 3.8795560412879260e-05  1.5003843380235241e-01 -4.5488656130889193e-05 6.2025019277175413e-05  1.5005957641717790e-01 -2.9022851901226161e-05 5.1781561526099115e-05  1.5006915875733473e-01 -6.1080645955097584e-06 5.3034404650914658e-05  1.5007323725326588e-01 9.2505683959666507e-06 5.9047060040301187e-05  1.5007397101322628e-01 1.8417803084880592e-05 7.3883579519783517e-05  1.5007835649585352e-01 4.1796977178504486e-05 8.0117819988564495e-05  1.5007574270844290e-01 3.9174161051095475e-05 7.6939159933160468e-05  1.5006862013549360e-01 1.5343761786826354e-05 6.3636481954772802e-05  1.5005769209263892e-01 3.8800850798452158e-05 3.9531048377112908e-05  1.5002820606930994e-01 9.3665840330074058e-05 8.4611295012865595e-07  1.4999703234143164e-01 6.8681782701669213e-05 -9.7065371539159583e-06  1.5000736693392214e-01 -1.2717459089827013e-05 2.3702874604867666e-05  1.5002478817888060e-01 -1.7324528980469981e-05 2.1687792093046008e-05  1.4999215614985686e-01 4.1974575257556700e-05 -3.8012551867447012e-05  1.4996693859277382e-01 3.6356793103334806e-05 -3.4294574398867006e-05  1.5000762116510666e-01 -3.2770861483121133e-05 4.4267941075257192e-05  1.5003353353952664e-01 -5.1718493697923866e-05 4.1458018809897591e-05  1.4999282487771626e-01 9.9688174137245796e-06 -4.1216496910350412e-05  1.4996909028132618e-01 6.2264022332128834e-05 -4.2478729925495774e-05  1.4999723706847043e-01 1.8868615194006488e-05 2.1883208264279629e-05  1.5001535088309373e-01 -6.9230173533230794e-05 2.8122225364000183e-05  1.5001070190038307e-01 -5.3360180680632061e-05 3.1706420708419898e-06  1.5000192947295038e-01 6.1129448293195416e-05 -6.2827766813951110e-06  1.4998079591173125e-01 7.4247952903414482e-05 -3.0446132567369672e-05  1.4998192715891051e-01 -4.9122309142239749e-05 -1.5921083870738227e-05  1.5002591358469416e-01 -8.1066817128375108e-05 5.4709033482542538e-05  1.5002699337158840e-01 3.7828527107729268e-05 2.7102194109118995e-05  1.4996654509341326e-01 7.6604874656654559e-05 -7.7201486141628941e-05  1.4997129238536563e-01 -3.0789441371568654e-05 -2.3608311305865372e-05  1.5004103469279464e-01 -6.7848717930479516e-05 9.5380440483529207e-05  1.5002340294550248e-01 2.6745286177069295e-05 5.7424965404011364e-06  1.4995316788276936e-01 5.8352387793500592e-05 -1.0346896692610379e-04  1.4998786997229371e-01 -2.5509245846951083e-05 2.2410767542397015e-05  1.5004810651368222e-01 -4.9242325098524917e-05 9.5633425893360181e-05  1.4999725912622772e-01 2.7162719440857256e-05 -5.2210068202038645e-05  1.4995741477139468e-01 3.9656257123329546e-05 -7.0026661919130425e-05  1.5001711242834398e-01 -3.0838163523744599e-05 7.2596715450163571e-05  1.5003005245953557e-01 -2.7768241431163167e-05 3.2070804773446739e-05  1.4997391490238557e-01 3.3937505503355094e-05 -7.4240596339988425e-05  1.4998668816806934e-01 1.3113622955619643e-05 6.5425179737634887e-06  1.5002647727646123e-01 -3.2763429346277435e-05 5.5886321574641407e-05  1.4999779165643076e-01 1.8567482474628552e-06 -3.2416825738139848e-05  1.4998113002123825e-01 2.5575857533182696e-05 -2.5719082538215407e-05  1.5001151568910159e-01 -1.3381757204149360e-05 3.7939221420938060e-05  1.5000730592069497e-01 -1.2814456095414027e-05 -2.5755499847326752e-06  1.4998773112906599e-01 1.6433701372321227e-05 -2.5735344956788957e-05  1.5000203738533197e-01 9.0763828174705887e-07 1.7457224229502813e-05  1.5000738832461979e-01 -1.3106196206461510e-05 7.0817423786122944e-06  1.4999369507821916e-01 7.9656025832439287e-06 -1.6873579853596663e-05  1.4999938034259266e-01 3.5481437720576511e-06 6.7193986241853135e-06  1.5000443397568577e-01 -7.1427862297350547e-06 6.6263060138520466e-06  1.4999752053367429e-01 1.5327802233857154e-06 -9.1168912800607183e-06  1.4999859851153188e-01 4.8095023200480871e-06 2.0388020257449908e-06  1.5000298726874589e-01 -5.5811968720881834e-06 4.8846189146779309e-06  1.4999830347385903e-01 1.9435449478800120e-06 -5.5597392956113615e-06  1.4999968865339830e-01 1.3006655007155047e-06 1.5864087598408103e-06  1.5000107404096918e-01 -1.3983947089074470e-06 2.0360572000346619e-06  1.4999960331032355e-01 -7.0510587310038648e-07 -2.4150071991847685e-06  1.4999932120631188e-01 2.5517988382083393e-06 3.4688812054133559e-07  1.5000118164611068e-01 -2.7658541939275636e-06 1.7084119416827207e-06  1.4999906157526344e-01 1.7636697152094849e-06 -2.1727390328440892e-06  1.5000040454608482e-01 -7.8234347250337701e-07 1.2294280682549165e-06  1.4999990505418118e-01 6.4974380885971715e-07 -4.4323717925844260e-08  1.5000018976863708e-01 -1.3146873973065440e-06 -4.3621062681884836e-07  1.4999947393120597e-01 2.1822515110652247e-06 7.6954286494739299e-08  1.5000083129164821e-01 -2.7101954522010436e-06 6.4371821988717150e-07  1.4999905410253483e-01 2.7562068249695861e-06 -1.1789591397720027e-06  1.5000088848233006e-01 -2.5307823983207979e-06 1.3026136261032361e-06  1.4999922154002643e-01 2.3296502351476704e-06 -1.1421595017489018e-06  1.5000072023380709e-01 -2.3014432639837009e-06 9.6813124518594707e-07  1.4999926144457507e-01 2.3913075842416325e-06 -9.6716507246483449e-07  1.5000078902807620e-01 -2.4384739878877382e-06 1.1494623815492693e-06  1.4999919328527134e-01 2.3079616618785133e-06 -1.3927686559484683e-06  1.5000075812024058e-01 -1.9809169259425963e-06 1.5619344607308040e-06  1.4999936206730974e-01 1.5147313000616556e-06 -1.5602500335530325e-06  1.5000050052371361e-01 -1.0591085168990595e-06 1.4302808128936635e-06  1.4999966669664105e-01 6.3265218894798613e-07 -1.1422716478239276e-06  1.5000025988959190e-01 -4.0757146954491940e-07 9.4379823838721162e-07  1.4999989653400922e-01 1.7290494613414465e-07 -5.5759107818953696e-07  1.5000016482515888e-01 -1.7871160581303335e-07 5.5543728692006694e-07  1.5000003087023986e-01 1.1278576191879645e-07 -1.1278576239729949e-07  1.5000013994513592e-01 0.0000000000000000e+00 3.3204956837790278e-07  1.5002832632377805e-01 0.0000000000000000e+00 1.9052683853927859e-06  1.4998997208620576e-01 -3.5329137318940805e-05 3.6164361541908948e-05  1.5003061403170062e-01 1.6031591656040028e-05 1.6031591655534735e-05  1.5000725761874500e-01 -7.2025179438319783e-05 7.3573623668026885e-05  1.5004890152900904e-01 1.0136066751309642e-05 5.4873838185030790e-05  1.5002933966757781e-01 -9.3888232806622348e-05 1.2402141818014615e-04  1.5007100650626834e-01 8.4291420302745705e-06 9.5375091658219332e-05  1.5004549593555264e-01 -7.6414965553602029e-05 1.5360881440223463e-04  1.5007287215820553e-01 5.0490033717672168e-05 9.2777878366569105e-05  1.5003125723417723e-01 1.9090536066246569e-06 1.1863670915595033e-04  1.5003924672848121e-01 1.3513039390696438e-04 3.7574997530945097e-05  1.4999329347860293e-01 8.7862258098001718e-05 6.4496881092363255e-05  1.5000504582203991e-01 1.5678542643451121e-04 2.8585699669404474e-05  1.4999159527604555e-01 6.2012326686694801e-05 1.1559337086545990e-04  1.5002984429306790e-01 5.4772906361782146e-05 1.3898395832729861e-04  1.5003780294682331e-01 -4.3430512477162685e-05 2.0699388463643549e-04  1.5006228368104499e-01 -2.2455178679014043e-05 1.6372806234890127e-04  1.5004048125783853e-01 -2.4039379179298675e-05 1.1249580485667118e-04  1.5001469152154603e-01 3.3419131989036698e-05 -9.2588968812558781e-06  1.4997325784056173e-01 3.6680067143572875e-05 -6.5686379169214588e-05  1.4995515976798657e-01 4.8973560203087464e-05 -9.8459598559681624e-05  1.4993391251946939e-01 1.7821260011096574e-05 -9.6043307241467919e-05  1.4992440775230984e-01 7.1536611824543652e-06 -1.2084906283238854e-04  1.4991819957868857e-01 -4.5961695542896806e-06 -1.3582590930322143e-04  1.4991671630946110e-01 -2.3275984209890138e-05 -1.5657624850006963e-04  1.4991460266538043e-01 -5.0698857403607797e-05 -1.5667960083884827e-04  1.4992251717019583e-01 -3.2209050850351297e-05 -1.4395510462199970e-04  1.4993087346897208e-01 -2.4578605240846974e-05 -1.1893188253025869e-04  1.4995030027231263e-01 -7.8644769619471100e-05 -6.6612134999825004e-05  1.4998680553537924e-01 -1.0541297014590573e-04 5.2757907697137043e-06  1.5000033907857216e-01 -2.9002883045891544e-05 -1.6950915101777467e-06  1.4997776673221641e-01 2.6165249174681679e-05 -5.7499030654918619e-05  1.4998808310697687e-01 -2.1744764511637669e-05 -2.4512777111757753e-06  1.5003024992901925e-01 -5.2552160291955112e-05 8.8518825253494957e-05  1.5001437859041442e-01 7.6052623122147816e-06 5.2149304537722163e-06  1.4996628559428229e-01 5.3637890424983998e-05 -1.0421997964272652e-04  1.4998700268348455e-01 1.6059541091407320e-05 -8.4366077401264819e-06  1.5003163508198106e-01 -4.4029313380886516e-05 9.7404751511820430e-05  1.5001489420443329e-01 -4.5484228281126987e-05 1.8097428539882155e-05  1.4998630808664579e-01 2.7344475962052826e-05 -5.1963147078942975e-05  1.4999040307640857e-01 7.8860907988294389e-05 -1.7188186016683131e-05  1.4999276000989220e-01 1.4143884697809908e-06 -1.0227769216892309e-05  1.5000530745239135e-01 -9.6310631178684206e-05 1.5574706620962149e-05  1.5002907155320835e-01 -2.3361456622969893e-05 7.6137825804068011e-05  1.4999717197240126e-01 1.0176178543616174e-04 -1.8738126786787770e-05  1.4995540498796278e-01 3.4033239275380587e-05 -1.2606644298788794e-04  1.5000761558647552e-01 -9.8241930427653864e-05 4.0835166908575920e-05  1.5005363370035144e-01 -3.2273116263591854e-05 1.5413176995903363e-04  1.4998163753662819e-01 9.1835399608919554e-05 -8.1124182684168199e-05  1.4994583861050353e-01 2.3823714544425428e-05 -1.5394793815299337e-04  1.5003264544774503e-01 -8.3861995912752374e-05 1.2922705383096149e-04  1.5004571893987284e-01 -1.2079007682252454e-05 1.2139191166211822e-04  1.4995482516117331e-01 7.4874815588288842e-05 -1.6738838737275977e-04  1.4997144708807739e-01 -1.1100626340921548e-06 -6.0235021977077996e-05  1.5005107568315887e-01 -6.4364275422281955e-05 1.7750928157975933e-04  1.5000661117817302e-01 1.4577546502627384e-05 -1.3706351701453060e-05  1.4995331127731440e-01 5.1061073659580481e-05 -1.4983738163880961e-04  1.5001360531897154e-01 -2.6604304744034716e-05 7.5174110090244967e-05  1.5003205873588754e-01 -3.3753674188383967e-05 8.9580211103141715e-05  1.4997457464397546e-01 3.3227157499561453e-05 -1.0241142528437741e-04  1.4998735503336114e-01 1.4629705873986723e-05 -1.9289663973667491e-05  1.5002578666306665e-01 -3.2796187220390242e-05 8.8248161712182422e-05  1.4999550012772545e-01 4.2563458619607086e-06 -3.3652462137549971e-05  1.4998395613012941e-01 2.2036771370056280e-05 -4.5547788343835771e-05  1.5001227496170985e-01 -1.3625234028809426e-05 5.1076285223441759e-05  1.5000422112629735e-01 -1.0002680133844047e-05 1.3090537892031749e-06  1.4998838280685087e-01 1.7245415815453882e-05 -3.7236933960308723e-05  1.5000514507630386e-01 -5.0452122147724433e-06 2.4265068270188123e-05  1.5000394797162964e-01 -7.1929525216736136e-06 8.5266469912915146e-06  1.4999429849279228e-01 6.3442000482847144e-06 -2.2008315770672187e-05  1.5000085119539430e-01 2.8215521557145180e-06 9.4444872627268488e-06  1.5000385826637658e-01 -8.7823952941973215e-06 8.7682476829583476e-06  1.4999576828610986e-01 7.0022890755975489e-06 -1.4183548249331013e-05  1.5000146882502247e-01 -1.7380734798633783e-06 6.3989175210439841e-06  1.5000093586304009e-01 -1.0577258598253101e-06 3.2931071218783632e-06  1.4999894351053872e-01 -3.3940702217921554e-07 -6.0122639920685316e-06  1.4999954894620429e-01 3.4727119170473514e-06 1.8525430193587419e-06  1.5000185325921678e-01 -5.2858880349062457e-06 3.5351674194477240e-06  1.4999788195385075e-01 4.8475383110803694e-06 -5.5179487990951072e-06  