<?xml version="1.0"?>
<VTKFile type="UnstructuredGrid"  version="0.1"  >
<UnstructuredGrid>
<Piece  NumberOfPoints="10201" NumberOfCells="20000">
<Points>
<DataArray  type="Float64"  NumberOfComponents="3"  format="ascii">-5 -5 0  -4.9 -5 0  -4.8 -5 0  -4.7 -5 0  -4.6 -5 0  -4.5 -5 0  -4.4 -5 0  -4.3 -5 0  -4.2 -5 0  -4.1 -5 0  -4 -5 0  -3.9 -5 0  -3.8 -5 0  -3.7 -5 0  -3.6 -5 0  -3.5 -5 0  -3.4 -5 0  -3.3 -5 0  -3.2 -5 0  -3.1 -5 0  -3 -5 0  -2.9 -5 0  -2.8 -5 0  -2.7 -5 0  -2.6 -5 0  -2.5 -5 0  -2.4 -5 0  -2.3 -5 0  -2.2 -5 0  -2.1 -5 0  -2 -5 0  -1.9 -5 0  -1.8 -5 0  -1.7 -5 0  -1.6 -5 0  -1.5 -5 0  -1.4 -5 0  -1.3 -5 0  -1.2 -5 0  -1.1 -5 0  -1 -5 0  -0.9000000000000004 -5 0  -0.7999999999999998 -5 0  -0.7000000000000002 -5 0  -0.5999999999999996 -5 0  -0.5 -5 0  -0.4000000000000004 -5 0  -0.2999999999999998 -5 0  -0.2000000000000002 -5 0  -0.09999999999999964 -5 0  0 -5 0  0.09999999999999964 -5 0  0.2000000000000002 -5 0  0.2999999999999998 -5 0  0.4000000000000004 -5 0  0.5 -5 0  0.5999999999999996 -5 0  0.7000000000000002 -5 0  0.7999999999999998 -5 0  0.9000000000000004 -5 0  1 -5 0  1.1 -5 0  1.2 -5 0  1.3 -5 0  1.4 -5 0  1.5 -5 0  1.6 -5 0  1.7 -5 0  1.8 -5 0  1.9 -5 0  2 -5 0  2.1 -5 0  2.2 -5 0  2.3 -5 0  2.4 -5 0  2.5 -5 0  2.6 -5 0  2.7 -5 0  2.8 -5 0  2.9 -5 0  3 -5 0  3.1 -5 0  3.199999999999999 -5 0  3.300000000000001 -5 0  3.4 -5 0  3.5 -5 0  3.6 -5 0  3.699999999999999 -5 0  3.800000000000001 -5 0  3.9 -5 0  4 -5 0  4.1 -5 0  4.199999999999999 -5 0  4.300000000000001 -5 0  4.4 -5 0  4.5 -5 0  4.6 -5 0  4.699999999999999 -5 0  4.800000000000001 -5 0  4.9 -5 0  5 -5 0  -5 -4.9 0  -4.9 -4.9 0  -4.8 -4.9 0  -4.7 -4.9 0  -4.6 -4.9 0  -4.5 -4.9 0  -4.4 -4.9 0  -4.3 -4.9 0  -4.2 -4.9 0  -4.1 -4.9 0  -4 -4.9 0  -3.9 -4.9 0  -3.8 -4.9 0  -3.7 -4.9 0  -3.6 -4.9 0  -3.5 -4.9 0  -3.4 -4.9 0  -3.3 -4.9 0  -3.2 -4.9 0  -3.1 -4.9 0  -3 -4.9 0  -2.9 -4.9 0  -2.8 -4.9 0  -2.7 -4.9 0  -2.6 -4.9 0  -2.5 -4.9 0  -2.4 -4.9 0  -2.3 -4.9 0  -2.2 -4.9 0  -2.1 -4.9 0  -2 -4.9 0  -1.9 -4.9 0  -1.8 -4.9 0  -1.7 -4.9 0  -1.6 -4.9 0  -1.5 -4.9 0  -1.4 -4.9 0  -1.3 -4.9 0  -1.2 -4.9 0  -1.1 -4.9 0  -1 -4.9 0  -0.9000000000000004 -4.9 0  -0.7999999999999998 -4.9 0  -0.7000000000000002 -4.9 0  -0.5999999999999996 -4.9 0  -0.5 -4.9 0  -0.4000000000000004 -4.9 0  -0.2999999999999998 -4.9 0  -0.2000000000000002 -4.9 0  -0.09999999999999964 -4.9 0  0 -4.9 0  0.09999999999999964 -4.9 0  0.2000000000000002 -4.9 0  0.2999999999999998 -4.9 0  0.4000000000000004 -4.9 0  0.5 -4.9 0  0.5999999999999996 -4.9 0  0.7000000000000002 -4.9 0  0.7999999999999998 -4.9 0  0.9000000000000004 -4.9 0  1 -4.9 0  1.1 -4.9 0  1.2 -4.9 0  1.3 -4.9 0  1.4 -4.9 0  1.5 -4.9 0  1.6 -4.9 0  1.7 -4.9 0  1.8 -4.9 0  1.9 -4.9 0  2 -4.9 0  2.1 -4.9 0  2.2 -4.9 0  2.3 -4.9 0  2.4 -4.9 0  2.5 -4.9 0  2.6 -4.9 0  2.7 -4.9 0  2.8 -4.9 0  2.9 -4.9 0  3 -4.9 0  3.1 -4.9 0  3.199999999999999 -4.9 0  3.300000000000001 -4.9 0  3.4 -4.9 0  3.5 -4.9 0  3.6 -4.9 0  3.699999999999999 -4.9 0  3.800000000000001 -4.9 0  3.9 -4.9 0  4 -4.9 0  4.1 -4.9 0  4.199999999999999 -4.9 0  4.300000000000001 -4.9 0  4.4 -4.9 0  4.5 -4.9 0  4.6 -4.9 0  4.699999999999999 -4.9 0  4.800000000000001 -4.9 0  4.9 -4.9 0  5 -4.9 0  -5 -4.8 0  -4.9 -4.8 0  -4.8 -4.8 0  -4.7 -4.8 0  -4.6 -4.8 0  -4.5 -4.8 0  -4.4 -4.8 0  -4.3 -4.8 0  -4.2 -4.8 0  -4.1 -4.8 0  -4 -4.8 0  -3.9 -4.8 0  -3.8 -4.8 0  -3.7 -4.8 0  -3.6 -4.8 0  -3.5 -4.8 0  -3.4 -4.8 0  -3.3 -4.8 0  -3.2 -4.8 0  -3.1 -4.8 0  -3 -4.8 0  -2.9 -4.8 0  -2.8 -4.8 0  -2.7 -4.8 0  -2.6 -4.8 0  -2.5 -4.8 0  -2.4 -4.8 0  -2.3 -4.8 0  -2.2 -4.8 0  -2.1 -4.8 0  -2 -4.8 0  -1.9 -4.8 0  -1.8 -4.8 0  -1.7 -4.8 0  -1.6 -4.8 0  -1.5 -4.8 0  -1.4 -4.8 0  -1.3 -4.8 0  -1.2 -4.8 0  -1.1 -4.8 0  -1 -4.8 0  -0.9000000000000004 -4.8 0  -0.7999999999999998 -4.8 0  -0.7000000000000002 -4.8 0  -0.5999999999999996 -4.8 0  -0.5 -4.8 0  -0.4000000000000004 -4.8 0  -0.2999999999999998 -4.8 0  -0.2000000000000002 -4.8 0  -0.09999999999999964 -4.8 0  0 -4.8 0  0.09999999999999964 -4.8 0  0.2000000000000002 -4.8 0  0.2999999999999998 -4.8 0  0.4000000000000004 -4.8 0  0.5 -4.8 0  0.5999999999999996 -4.8 0  0.7000000000000002 -4.8 0  0.7999999999999998 -4.8 0  0.9000000000000004 -4.8 0  1 -4.8 0  1.1 -4.8 0  1.2 -4.8 0  1.3 -4.8 0  1.4 -4.8 0  1.5 -4.8 0  1.6 -4.8 0  1.7 -4.8 0  1.8 -4.8 0  1.9 -4.8 0  2 -4.8 0  2.1 -4.8 0  2.2 -4.8 0  2.3 -4.8 0  2.4 -4.8 0  2.5 -4.8 0  2.6 -4.8 0  2.7 -4.8 0  2.8 -4.8 0  2.9 -4.8 0  3 -4.8 0  3.1 -4.8 0  3.199999999999999 -4.8 0  3.300000000000001 -4.8 0  3.4 -4.8 0  3.5 -4.8 0  3.6 -4.8 0  3.699999999999999 -4.8 0  3.800000000000001 -4.8 0  3.9 -4.8 0  4 -4.8 0  4.1 -4.8 0  4.199999999999999 -4.8 0  4.300000000000001 -4.8 0  4.4 -4.8 0  4.5 -4.8 0  4.6 -4.8 0  4.699999999999999 -4.8 0  4.800000000000001 -4.8 0  4.9 -4.8 0  5 -4.8 0  -5 -4.7 0  -4.9 -4.7 0  -4.8 -4.7 0  -4.7 -4.7 0  -4.6 -4.7 0  -4.5 -4.7 0  -4.4 -4.7 0  -4.3 -4.7 0  -4.2 -4.7 0  -4.1 -4.7 0  -4 -4.7 0  -3.9 -4.7 0  -3.8 -4.7 0  -3.7 -4.7 0  -3.6 -4.7 0  -3.5 -4.7 0  -3.4 -4.7 0  -3.3 -4.7 0  -3.2 -4.7 0  -3.1 -4.7 0  -3 -4.7 0  -2.9 -4.7 0  -2.8 -4.7 0  -2.7 -4.7 0  -2.6 -4.7 0  -2.5 -4.7 0  -2.4 -4.7 0  -2.3 -4.7 0  -2.2 -4.7 0  -2.1 -4.7 0  -2 -4.7 0  -1.9 -4.7 0  -1.8 -4.7 0  -1.7 -4.7 0  -1.6 -4.7 0  -1.5 -4.7 0  -1.4 -4.7 0  -1.3 -4.7 0  -1.2 -4.7 0  -1.1 -4.7 0  -1 -4.7 0  -0.9000000000000004 -4.7 0  -0.7999999999999998 -4.7 0  -0.7000000000000002 -4.7 0  -0.5999999999999996 -4.7 0  -0.5 -4.7 0  -0.4000000000000004 -4.7 0  -0.2999999999999998 -4.7 0  -0.2000000000000002 -4.7 0  -0.09999999999999964 -4.7 0  0 -4.7 0  0.09999999999999964 -4.7 0  0.2000000000000002 -4.7 0  0.2999999999999998 -4.7 0  0.4000000000000004 -4.7 0  0.5 -4.7 0  0.5999999999999996 -4.7 0  0.7000000000000002 -4.7 0  0.7999999999999998 -4.7 0  0.9000000000000004 -4.7 0  1 -4.7 0  1.1 -4.7 0  1.2 -4.7 0  1.3 -4.7 0  1.4 -4.7 0  1.5 -4.7 0  1.6 -4.7 0  1.7 -4.7 0  1.8 -4.7 0  1.9 -4.7 0  2 -4.7 0  2.1 -4.7 0  2.2 -4.7 0  2.3 -4.7 0  2.4 -4.7 0  2.5 -4.7 0  2.6 -4.7 0  2.7 -4.7 0  2.8 -4.7 0  2.9 -4.7 0  3 -4.7 0  3.1 -4.7 0  3.199999999999999 -4.7 0  3.300000000000001 -4.7 0  3.4 -4.7 0  3.5 -4.7 0  3.6 -4.7 0  3.699999999999999 -4.7 0  3.800000000000001 -4.7 0  3.9 -4.7 0  4 -4.7 0  4.1 -4.7 0  4.199999999999999 -4.7 0  4.300000000000001 -4.7 0  4.4 -4.7 0  4.5 -4.7 0  4.6 -4.7 0  4.699999999999999 -4.7 0  4.800000000000001 -4.7 0  4.9 -4.7 0  5 -4.7 0  -5 -4.6 0  -4.9 -4.6 0  -4.8 -4.6 0  -4.7 -4.6 0  -4.6 -4.6 0  -4.5 -4.6 0  -4.4 -4.6 0  -4.3 -4.6 0  -4.2 -4.6 0  -4.1 -4.6 0  -4 -4.6 0  -3.9 -4.6 0  -3.8 -4.6 0  -3.7 -4.6 0  -3.6 -4.6 0  -3.5 -4.6 0  -3.4 -4.6 0  -3.3 -4.6 0  -3.2 -4.6 0  -3.1 -4.6 0  -3 -4.6 0  -2.9 -4.6 0  -2.8 -4.6 0  -2.7 -4.6 0  -2.6 -4.6 0  -2.5 -4.6 0  -2.4 -4.6 0  -2.3 -4.6 0  -2.2 -4.6 0  -2.1 -4.6 0  -2 -4.6 0  -1.9 -4.6 0  -1.8 -4.6 0  -1.7 -4.6 0  -1.6 -4.6 0  -1.5 -4.6 0  -1.4 -4.6 0  -1.3 -4.6 0  -1.2 -4.6 0  -1.1 -4.6 0  -1 -4.6 0  -0.9000000000000004 -4.6 0  -0.7999999999999998 -4.6 0  -0.7000000000000002 -4.6 0  -0.5999999999999996 -4.6 0  -0.5 -4.6 0  -0.4000000000000004 -4.6 0  -0.2999999999999998 -4.6 0  -0.2000000000000002 -4.6 0  -0.09999999999999964 -4.6 0  0 -4.6 0  0.09999999999999964 -4.6 0  0.2000000000000002 -4.6 0  0.2999999999999998 -4.6 0  0.4000000000000004 -4.6 0  0.5 -4.6 0  0.5999999999999996 -4.6 0  0.7000000000000002 -4.6 0  0.7999999999999998 -4.6 0  0.9000000000000004 -4.6 0  1 -4.6 0  1.1 -4.6 0  1.2 -4.6 0  1.3 -4.6 0  1.4 -4.6 0  1.5 -4.6 0  1.6 -4.6 0  1.7 -4.6 0  1.8 -4.6 0  1.9 -4.6 0  2 -4.6 0  2.1 -4.6 0  2.2 -4.6 0  2.3 -4.6 0  2.4 -4.6 0  2.5 -4.6 0  2.6 -4.6 0  2.7 -4.6 0  2.8 -4.6 0  2.9 -4.6 0  3 -4.6 0  3.1 -4.6 0  3.199999999999999 -4.6 0  3.300000000000001 -4.6 0  3.4 -4.6 0  3.5 -4.6 0  3.6 -4.6 0  3.699999999999999 -4.6 0  3.800000000000001 -4.6 0  3.9 -4.6 0  4 -4.6 0  4.1 -4.6 0  4.199999999999999 -4.6 0  4.300000000000001 -4.6 0  4.4 -4.6 0  4.5 -4.6 0  4.6 -4.6 0  4.699999999999999 -4.6 0  4.800000000000001 -4.6 0  4.9 -4.6 0  5 -4.6 0  -5 -4.5 0  -4.9 -4.5 0  -4.8 -4.5 0  -4.7 -4.5 0  -4.6 -4.5 0  -4.5 -4.5 0  -4.4 -4.5 0  -4.3 -4.5 0  -4.2 -4.5 0  -4.1 -4.5 0  -4 -4.5 0  -3.9 -4.5 0  -3.8 -4.5 0  -3.7 -4.5 0  -3.6 -4.5 0  -3.5 -4.5 0  -3.4 -4.5 0  -3.3 -4.5 0  -3.2 -4.5 0  -3.1 -4.5 0  -3 -4.5 0  -2.9 -4.5 0  -2.8 -4.5 0  -2.7 -4.5 0  -2.6 -4.5 0  -2.5 -4.5 0  -2.4 -4.5 0  -2.3 -4.5 0  -2.2 -4.5 0  -2.1 -4.5 0  -2 -4.5 0  -1.9 -4.5 0  -1.8 -4.5 0  -1.7 -4.5 0  -1.6 -4.5 0  -1.5 -4.5 0  -1.4 -4.5 0  -1.3 -4.5 0  -1.2 -4.5 0  -1.1 -4.5 0  -1 -4.5 0  -0.9000000000000004 -4.5 0  -0.7999999999999998 -4.5 0  -0.7000000000000002 -4.5 0  -0.5999999999999996 -4.5 0  -0.5 -4.5 0  -0.4000000000000004 -4.5 0  -0.2999999999999998 -4.5 0  -0.2000000000000002 -4.5 0  -0.09999999999999964 -4.5 0  0 -4.5 0  0.09999999999999964 -4.5 0  0.2000000000000002 -4.5 0  0.2999999999999998 -4.5 0  0.4000000000000004 -4.5 0  0.5 -4.5 0  0.5999999999999996 -4.5 0  0.7000000000000002 -4.5 0  0.7999999999999998 -4.5 0  0.9000000000000004 -4.5 0  1 -4.5 0  1.1 -4.5 0  1.2 -4.5 0  1.3 -4.5 0  1.4 -4.5 0  1.5 -4.5 0  1.6 -4.5 0  1.7 -4.5 0  1.8 -4.5 0  1.9 -4.5 0  2 -4.5 0  2.1 -4.5 0  2.2 -4.5 0  2.3 -4.5 0  2.4 -4.5 0  2.5 -4.5 0  2.6 -4.5 0  2.7 -4.5 0  2.8 -4.5 0  2.9 -4.5 0  3 -4.5 0  3.1 -4.5 0  3.199999999999999 -4.5 0  3.300000000000001 -4.5 0  3.4 -4.5 0  3.5 -4.5 0  3.6 -4.5 0  3.699999999999999 -4.5 0  3.800000000000001 -4.5 0  3.9 -4.5 0  4 -4.5 0  4.1 -4.5 0  4.199999999999999 -4.5 0  4.300000000000001 -4.5 0  4.4 -4.5 0  4.5 -4.5 0  4.6 -4.5 0  4.699999999999999 -4.5 0  4.800000000000001 -4.5 0  4.9 -4.5 0  5 -4.5 0  -5 -4.4 0  -4.9 -4.4 0  -4.8 -4.4 0  -4.7 -4.4 0  -4.6 -4.4 0  -4.5 -4.4 0  -4.4 -4.4 0  -4.3 -4.4 0  -4.2 -4.4 0  -4.1 -4.4 0  -4 -4.4 0  -3.9 -4.4 0  -3.8 -4.4 0  -3.7 -4.4 0  -3.6 -4.4 0  -3.5 -4.4 0  -3.4 -4.4 0  -3.3 -4.4 0  -3.2 -4.4 0  -3.1 -4.4 0  -3 -4.4 0  -2.9 -4.4 0  -2.8 -4.4 0  -2.7 -4.4 0  -2.6 -4.4 0  -2.5 -4.4 0  -2.4 -4.4 0  -2.3 -4.4 0  -2.2 -4.4 0  -2.1 -4.4 0  -2 -4.4 0  -1.9 -4.4 0  -1.8 -4.
[...]
<PointData  Vectors="f_23"> 
<DataArray  type="Float64"  Name="f_23"  NumberOfComponents="3" format="ascii">1.5000000000000030e-01 0.0000000000000000e+00 0.0000000000000000e+00  1.5000000000000022e-01 6.6355836564859024e-33 0.0000000000000000e+00  1.5000000000000019e-01 2.5014164746098093e-32 0.0000000000000000e+00  1.5000000000000027e-01 1.7266437051726881e-33 0.0000000000000000e+00  1.5000000000000030e-01 8.8837273685237088e-33 0.0000000000000000e+00  1.5000000000000002e-01 4.8169641310988543e-32 0.0000000000000000e+00  1.5000000000000011e-01 4.1011560971629567e-32 0.0000000000000000e+00  1.4999999999999997e-01 5.6047751572556025e-33 0.0000000000000000e+00  1.5000000000000027e-01 8.5156002976098424e-32 0.0000000000000000e+00  1.5000000000000002e-01 2.8072498558838253e-32 0.0000000000000000e+00  1.5000000000000013e-01 1.3765863265971879e-31 0.0000000000000000e+00  1.5000000000000011e-01 3.6194535777498080e-31 0.0000000000000000e+00  1.5000000000000022e-01 3.0054260307571762e-32 0.0000000000000000e+00  1.5000000000000011e-01 1.7806256517413736e-31 0.0000000000000000e+00  1.4999999999999983e-01 2.1729966155265395e-32 0.0000000000000000e+00  1.5000000000000022e-01 3.3263237966547353e-33 0.0000000000000000e+00  1.4999999999999991e-01 4.4604093163923297e-32 0.0000000000000000e+00  1.5000000000000013e-01 1.3527757665939058e-31 0.0000000000000000e+00  1.4999999999999991e-01 1.1687469782494687e-31 0.0000000000000000e+00  1.5000000000000011e-01 5.7914425073563546e-31 0.0000000000000000e+00  1.5000000000000202e-01 5.2521974661563776e-31 0.0000000000000000e+00  1.5000000000000716e-01 5.8459561404285357e-30 0.0000000000000000e+00  1.5000000000001584e-01 7.5794133370252458e-30 0.0000000000000000e+00  1.5000000000002126e-01 3.1849324682424190e-34 0.0000000000000000e+00  1.5000000000001437e-01 1.4870420845067366e-29 0.0000000000000000e+00  1.4999999999999308e-01 3.7458810337242979e-29 0.0000000000000000e+00  1.4999999999997091e-01 2.3136653248926328e-29 0.0000000000000000e+00  1.4999999999996674e-01 3.4139209256249045e-32 0.0000000000000000e+00  1.4999999999998290e-01 1.5725486175688749e-29 0.0000000000000000e+00  1.5000000000000308e-01 2.1677356976252127e-29 0.0000000000000000e+00  1.5000000000001076e-01 2.3660941264531367e-30 0.0000000000000000e+00  1.5000000000000457e-01 6.1038487234277090e-31 0.0000000000000000e+00  1.4999999999999833e-01 1.4693113232327116e-30 0.0000000000000000e+00  1.4999999999999716e-01 7.1588537057798631e-36 0.0000000000000000e+00  1.4999999999999955e-01 1.3134712546041245e-32 0.0000000000000000e+00  1.5000000000000074e-01 6.0146395787789250e-32 0.0000000000000000e+00  1.5000000000000027e-01 1.6102792335590347e-31 0.0000000000000000e+00  1.4999999999999997e-01 1.8988097750629078e-32 0.0000000000000000e+00  1.4999999999999974e-01 1.9214008244364125e-32 0.0000000000000000e+00  1.5000000000000013e-01 6.1003334182769731e-33 0.0000000000000000e+00  1.4999999999999997e-01 1.0198294545300085e-31 0.0000000000000000e+00  1.5000000000000027e-01 4.1573140186039621e-32 0.0000000000000000e+00  1.4999999999999980e-01 2.1744125997955525e-31 0.0000000000000000e+00  1.5000000000000019e-01 1.4200808820021253e-31 0.0000000000000000e+00  1.5000000000000005e-01 1.3090567080803399e-31 0.0000000000000000e+00  1.4999999999999997e-01 1.2107792670183817e-32 0.0000000000000000e+00  1.5000000000000041e-01 1.0069457625765951e-32 0.0000000000000000e+00  1.5000000000000030e-01 1.1873047731170002e-33 0.0000000000000000e+00  1.5000000000000049e-01 2.4334583846989179e-32 0.0000000000000000e+00  1.5000000000000030e-01 4.8628768029299212e-32 0.0000000000000000e+00  1.5000000000000019e-01 6.5832935928456609e-32 0.0000000000000000e+00  1.5000000000000022e-01 1.9751727983319186e-31 0.0000000000000000e+00  1.4999999999999997e-01 5.5430298398714199e-32 0.0000000000000000e+00  1.5000000000000013e-01 6.5681746409541341e-32 0.0000000000000000e+00  1.4999999999999997e-01 5.7010447266044552e-33 0.0000000000000000e+00  1.4999999999999988e-01 1.8154904138890605e-31 0.0000000000000000e+00  1.5000000000000041e-01 1.8371228945865339e-36 0.0000000000000000e+00  1.5000000000000036e-01 1.9845435577377544e-31 0.0000000000000000e+00  1.5000000000000019e-01 1.9401421327740325e-33 0.0000000000000000e+00  1.5000000000000011e-01 1.3531480987502372e-32 0.0000000000000000e+00  1.4999999999999997e-01 8.2832421676630808e-34 0.0000000000000000e+00  1.5000000000000019e-01 1.2088823744531952e-32 0.0000000000000000e+00  1.5000000000000002e-01 7.7705438436645038e-32 0.0000000000000000e+00  1.5000000000000049e-01 1.2097859887841823e-31 0.0000000000000000e+00  1.5000000000000013e-01 5.2712399408811873e-32 0.0000000000000000e+00  1.5000000000000022e-01 4.1185139041035961e-33 0.0000000000000000e+00  1.5000000000000027e-01 1.1742438981291216e-32 0.0000000000000000e+00  1.5000000000000013e-01 2.7641339592971363e-32 0.0000000000000000e+00  1.5000000000000027e-01 7.4859404271546797e-32 0.0000000000000000e+00  1.5000000000000049e-01 9.0913441870630540e-33 0.0000000000000000e+00  1.5000000000000011e-01 9.8735907851097880e-32 0.0000000000000000e+00  1.4999999999999997e-01 3.4357735082937023e-32 0.0000000000000000e+00  1.5000000000000044e-01 3.0243953243968305e-31 0.0000000000000000e+00  1.4999999999999980e-01 8.8074040471813998e-32 0.0000000000000000e+00  1.5000000000000027e-01 3.7643276909665394e-32 0.0000000000000000e+00  1.5000000000000019e-01 3.8069500261340543e-32 0.0000000000000000e+00  1.5000000000000002e-01 1.3419782551146164e-31 0.0000000000000000e+00  1.5000000000000013e-01 3.0091801543756951e-32 0.0000000000000000e+00  1.4999999999999980e-01 4.4476679074570315e-32 0.0000000000000000e+00  1.5000000000000011e-01 5.7475862306317056e-32 0.0000000000000000e+00  1.5000000000000027e-01 2.1995724738239793e-32 0.0000000000000000e+00  1.5000000000000013e-01 6.9838668975987199e-32 0.0000000000000000e+00  1.4999999999999991e-01 1.6251225968353912e-33 0.0000000000000000e+00  1.5000000000000041e-01 4.2556840884714772e-33 0.0000000000000000e+00  1.5000000000000022e-01 6.2230702738310317e-32 0.0000000000000000e+00  1.5000000000000030e-01 9.1155385128023758e-32 0.0000000000000000e+00  1.5000000000000013e-01 6.6779751027632795e-32 0.0000000000000000e+00  1.5000000000000036e-01 6.2128954234885661e-32 0.0000000000000000e+00  1.5000000000000011e-01 1.3701899504828375e-33 0.0000000000000000e+00  1.5000000000000041e-01 2.5885075429945422e-33 0.0000000000000000e+00  1.5000000000000013e-01 8.9131216354227405e-32 0.0000000000000000e+00  1.5000000000000013e-01 3.8507352187424510e-32 0.0000000000000000e+00  1.5000000000000022e-01 1.1597899553516179e-32 0.0000000000000000e+00  1.5000000000000041e-01 1.6739131361382389e-31 0.0000000000000000e+00  1.5000000000000011e-01 8.4284450208612838e-34 0.0000000000000000e+00  1.4999999999999974e-01 1.0866853583887220e-32 0.0000000000000000e+00  1.5000000000000013e-01 4.8428756726461411e-33 0.0000000000000000e+00  1.4999999999999991e-01 2.5995979322758901e-34 0.0000000000000000e+00  1.5000000000000005e-01 2.6736222053967970e-32 0.0000000000000000e+00  1.5000000000000011e-01 2.2228742180963886e-33 0.0000000000000000e+00  1.5000000000000005e-01 0.0000000000000000e+00 0.0000000000000000e+00  1.5000000000000027e-01 0.0000000000000000e+00 8.2135602714047329e-34  1.5000000000000002e-01 3.3229882270920190e-32 9.2672507025973400e-32  1.5000000000000011e-01 4.4568521659800841e-33 4.1971943854120145e-32  1.5000000000000011e-01 1.9777243909294873e-31 6.6611371214218259e-33  1.5000000000000011e-01 4.3611752559559409e-32 6.6366257609609952e-33  1.5000000000000019e-01 2.5082130716054312e-33 4.0908669255301602e-33  1.5000000000000005e-01 3.4952117366796143e-33 4.3735479201821260e-35  1.5000000000000019e-01 4.7358521124980569e-32 1.6758288013828009e-32  1.5000000000000011e-01 4.0971771423531263e-33 1.3154858393978794e-32  1.4999999999999991e-01 4.9401699057917397e-32 3.2593099952041877e-32  1.5000000000000013e-01 6.5297067514424392e-32 1.5054425053070122e-32  1.5000000000000011e-01 1.8920012985642388e-31 1.6614696110185018e-32  1.5000000000000022e-01 1.3722291426091204e-31 3.0514005933751642e-34  1.5000000000000002e-01 4.3698152496660426e-32 4.7829256456326042e-33  1.5000000000000036e-01 9.2466503287997196e-33 2.3532991440018446e-31  1.5000000000000030e-01 1.2721542084405540e-31 2.7056541966590040e-34  1.4999999999999974e-01 6.8543940817137979e-32 6.6134508299762734e-32  1.5000000000000013e-01 1.5927035787954201e-32 4.4642650731717674e-34  1.4999999999999997e-01 3.4598374844609590e-32 6.1318553589115133e-32  1.5000000000000002e-01 2.1948517361091914e-31 4.6828107045752562e-32  1.4999999999999886e-01 7.5483347135294788e-31 1.5615711385761650e-30  1.4999999999999392e-01 6.9102298376868988e-30 4.1911061571766698e-29  1.4999999999998384e-01 1.1183376743249078e-29 2.5403178021067527e-28  1.4999999999997390e-01 2.1376159051806720e-30 6.1789349205125156e-28  1.4999999999997515e-01 9.0619735794634869e-30 4.7496020646343511e-28  1.4999999999999725e-01 5.9695456777177198e-29 2.1691571143773486e-31  1.5000000000002919e-01 6.7914881460879716e-29 9.8210105482960760e-28  1.5000000000004679e-01 6.7352346130343328e-30 2.0898341257492508e-27  1.5000000000003433e-01 1.4879681836610282e-29 9.7064394044905485e-28  1.5000000000000546e-01 4.9027056068861114e-29 6.9373737678458018e-30  1.4999999999998745e-01 1.5975586775371470e-29 1.9162238258507543e-28  1.4999999999998970e-01 2.0644229492341396e-31 9.9262139085982393e-29  1.4999999999999997e-01 4.2298778220214428e-30 1.6277610430503960e-31  1.5000000000000441e-01 6.6429336924963155e-31 1.9615777538883674e-29  1.5000000000000155e-01 2.2023215314965149e-31 2.4979677698802837e-30  1.4999999999999933e-01 5.3439071573921870e-31 1.1096309609559746e-30  1.4999999999999925e-01 2.4952411668793875e-32 4.9344353771744480e-31  1.5000000000000011e-01 1.5431163205226109e-31 6.4830060069668785e-33  1.5000000000000011e-01 1.4100764125958868e-32 1.0471207727809749e-33  1.5000000000000013e-01 1.7635155367868479e-32 2.8328213873756838e-34  1.5000000000000011e-01 1.9733048902518025e-33 4.8325498635840544e-33  1.5000000000000013e-01 1.4887229115285229e-32 4.1468563970644959e-32  1.5000000000000011e-01 5.3306144253101813e-32 3.6683350172160349e-33  1.5000000000000011e-01 1.1994675218823847e-31 2.4732112484337581e-32  1.5000000000000027e-01 3.0249539023072168e-33 1.5758706746901415e-33  1.5000000000000027e-01 2.5565267598348584e-32 1.8561412540787315e-32  1.5000000000000036e-01 2.7696509020643699e-32 5.0240841196752049e-33  1.5000000000000013e-01 6.2065983456326680e-32 5.0607590690275547e-32  1.5000000000000013e-01 4.6803186006229308e-32 1.8165504704285277e-32  1.4999999999999997e-01 5.4703574724573064e-33 3.9999549565709739e-33  1.5000000000000019e-01 8.4187220719681476e-32 8.7214556799801291e-33  1.5000000000000022e-01 1.4755135057610962e-32 1.0244365944760037e-32  1.5000000000000002e-01 8.4644210891434960e-33 1.1675177880291857e-31  1.5000000000000019e-01 1.9883757406164487e-31 3.7948287146204173e-32  1.5000000000000005e-01 7.2991272420406809e-32 1.7125453013347453e-32  1.5000000000000022e-01 6.3919892394819212e-32 9.4799815978311329e-33  1.4999999999999991e-01 1.1640712674246178e-32 4.5469306284572813e-33  1.5000000000000027e-01 1.1696495855594285e-31 2.7602243329162886e-34  1.5000000000000013e-01 1.6645964060549686e-32 7.4710105070426061e-33  1.5000000000000005e-01 5.5956785857595653e-33 4.4332675133258736e-32  1.5000000000000013e-01 6.1148929384998841e-32 1.3017950338885954e-32  1.5000000000000011e-01 4.7282660198935347e-34 7.5146081160810773e-34  1.5000000000000027e-01 1.9795622123371691e-31 3.4363005279453590e-35  1.5000000000000002e-01 1.9571631660080553e-31 2.3226162786618601e-32  1.4999999999999983e-01 6.6852846921842837e-32 1.4417629590320613e-31  1.5000000000000036e-01 2.1270064808994524e-33 2.4686023190992049e-32  1.5000000000000011e-01 2.4189557938407570e-32 5.2213598288933609e-34  1.5000000000000027e-01 1.5166500132328455e-33 4.5762767135172247e-32  1.5000000000000013e-01 8.2792938755083868e-32 1.1075349539290904e-33  1.5000000000000002e-01 3.5791339675431749e-32 5.4261724177185028e-32  1.5000000000000019e-01 4.3504890526427895e-32 1.3414332910913048e-32  1.5000000000000022e-01 4.4698291591927388e-32 2.5499070191631798e-34  1.4999999999999983e-01 2.5921770699990214e-31 2.8880137282480937e-31  1.5000000000000022e-01 1.2863805960499882e-31 8.9735510468188082e-33  1.5000000000000013e-01 1.1846225497579997e-34 2.0079654018395492e-34  1.5000000000000022e-01 3.6016801353534691e-31 5.7794039415515794e-32  1.5000000000000022e-01 1.3669924834302613e-33 4.8309196572071815e-34  1.5000000000000019e-01 3.2542401826363588e-33 3.1932310828647367e-32  1.4999999999999974e-01 4.2128513626733909e-34 9.3241194347482229e-32  1.4999999999999983e-01 7.8062712911185380e-32 3.5067983211887945e-32  1.5000000000000005e-01 5.1871724226507811e-33 2.6444948019294343e-33  1.4999999999999991e-01 2.4330014802157685e-32 2.0957909490660982e-33  1.5000000000000030e-01 9.4734900069173918e-34 2.3241076964926374e-36  1.5000000000000011e-01 5.8343216466536609e-33 4.8715072791050697e-32  1.4999999999999997e-01 1.3845842436104107e-34 2.1218978202796141e-33  1.4999999999999983e-01 6.5577351373351489e-32 1.1614299750164764e-31  1.5000000000000013e-01 1.1198300444575942e-32 2.1637849183947415e-32  1.5000000000000013e-01 8.6687875905291339e-33 2.4576373154102098e-31  1.5000000000000013e-01 2.4526250798707160e-32 1.6800736939326358e-33  1.5000000000000019e-01 4.7980646014530191e-32 1.6961402272582933e-35  1.5000000000000005e-01 9.9230399260317787e-32 1.4740068954660737e-31  1.5000000000000030e-01 8.9371580138558345e-32 3.1159592786911904e-33  1.5000000000000013e-01 1.7920524822981372e-33 1.1047546555267161e-32  1.5000000000000005e-01 6.0951799702060492e-33 1.1015924557082507e-31  1.5000000000000005e-01 1.5152468963940872e-34 1.7833179791561608e-35  1.4999999999999997e-01 5.0448911034573619e-33 1.1891934957604990e-31  1.5000000000000013e-01 2.5342743573195160e-32 7.4612793538992327e-33  1.5000000000000005e-01 1.3003334278133976e-33 5.1373692690721376e-33  1.5000000000000019e-01 4.3017975920254865e-32 3.4315727627492797e-32  1.5000000000000011e-01 1.2130593574846194e-31 8.4097814634249295e-38  1.4999999999999991e-01 0.0000000000000000e+00 1.3167293374657988e-32  1.5000000000000052e-01 0.0000000000000000e+00 5.1618773328389859e-33  1.5000000000000013e-01 4.0203611963920352e-32 1.1301293902522284e-32  1.5000000000000022e-01 9.2047075508119151e-32 4.1339064559352738e-32  1.5000000000000019e-01 7.6159989872623836e-32 1.1829311318516301e-32  1.5000000000000011e-01 2.0978456603254641e-33 9.8432202836513361e-32  1.5000000000000030e-01 5.3766866188786603e-32 6.2037099745208087e-33  1.5000000000000013e-01 7.5510793051618995e-32 2.5458824903561889e-31  1.5000000000000011e-01 6.9332790970968866e-32 2.8225688655686748e-33  1.5000000000000027e-01 2.0554021807964661e-34 6.5218203193618314e-32  1.5000000000000005e-01 1.4932708045716213e-33 1.3864091043668683e-31  1.5000000000000030e-01 2.0325791338438754e-35 1.6713682731257848e-36  1.5000000000000027e-01 7.8959231728717211e-32 5.3352136007079206e-32  1.5000000000000005e-01 1.2636683140000326e-32 1.1715471830986885e-32  1.5000000000000019e-01 2.4278212412476096e-33 1.1307049787327052e-31  1.4999999999999972e-01 9.1681476527498379e-34 1.7699167083029373e-33  1.5000000000000011e-01 1.1422302395728743e-31 1.1493923624973747e-33  1.5000000000000022e-01 1.2867892493000929e-32 2.3900438388702118e-34  1.5000000000000022e-01 2.9157172213990615e-32 7.2609092793749843e-33  1.5000000000000005e-01 1.1580677762382346e-32 1.7228768101953145e-31  1.5000000000000005e-01 1.0851676609419209e-31 2.4152629180446855e-31  1.5000000000000099e-01 1.1611756577710073e-30 8.1983755890755126e-31  1.5000000000000654e-01 1.1439879903362405e-29 6.8655485430408679e-29  1.5000000000002103e-01 4.0378668716831393e-29 7.4670321192786770e-28  1.5000000000004179e-01 3.0516334010588612e-29 3.0046678567909864e-27  1.5000000000005068e-01 2.3970357177981083e-30 4.3916751676649859e-27  1.5000000000002611e-01 1.3577945049670798e-28 1.0249317578987200e-27  1.4999999999996796e-01 2.8715127604746946e-28 2.0003174301164754e-27  1.4999999999991706e-01 1.0918296529191123e-28 1.2477190276398962e-26  1.4999999999991659e-01 7.4901275936970641e-30 1.2130359665049997e-26  1.4999999999996538e-01 1.6593420246651591e-28 1.9269660906384771e-27  1.5000000000001523e-01 1.3485106993839641e-28 4.7299500272439891e-28  1.5000000000002706e-01 8.9252221709623905e-30 1.3202622684755730e-27  1.5000000000000871e-01 1.3002285886610423e-29 1.3305514720445603e-28  1.4999999999999322e-01 1.2647658484570719e-29 8.6757497192704830e-29  1.4999999999999347e-01 3.7128844669837116e-32 7.0082048459026358e-29  1.5000000000000069e-01 1.6972078733640820e-30 2.6156802920695196e-31  1.5000000000000238e-01 1.6837588524127213e-31 8.1700813897964281e-30  1.5000000000000061e-01 4.5103096811558292e-33 3.4255011547290252e-31  1.4999999999999941e-01 1.9394987271772874e-31 6.6203930190260272e-31  1.5000000000000005e-01 6.7953863171085595e-33 8.2777110586202777e-32  1.5000000000000030e-01 5.6347363213612349e-32 7.4006465838066936e-33  1.5000000000000030e-01 1.6906140577751905e-31 5.9107296683559253e-32  1.5000000000000005e-01 9.1066795544326436e-33 3.3730521844739324e-33  1.5000000000000011e-01 5.4546379284231259e-33 2.5277332751584589e-33  1.5000000000000036e-01 1.1529335349305743e-31 1.1919384454581140e-31  1.5000000000000036e-01 3.4847857617133728e-32 9.4846607712156535e-33  1.5000000000000005e-01 3.4942801205954438e-33 3.8141822527179776e-32  1.5000000000000019e-01 3.7194732697850127e-32 1.1865422038226499e-33  1.5000000000000030e-01 7.4976549918904096e-32 1.4312477732414034e-32  1.5000000000000022e-01 1.7470719971795100e-33 5.5674168599888636e-32  1.5000000000000013e-01 5.1524853576897865e-33 6.3810059783128977e-33  1.5000000000000013e-01 1.7144677905266979e-32 1.5963009482220093e-33  1.5000000000000030e-01 4.6489769577441577e-32 2.4619233537712960e-32  1.5000000000000005e-01 1.6237250273694156e-33 6.0361442934627445e-32  1.5000000000000011e-01 1.0358994408670698e-32 3.3302596689865604e-32  1.5000000000000027e-01 2.4874799245341019e-32 2.6483190631529834e-34  1.4999999999999991e-01 7.1357445004374769e-32 3.4377839071592375e-32  1.5000000000000036e-01 2.1202452639147391e-33 8.3340756862683984e-37  1.4999999999999988e-01 8.7179251961000199e-32 9.4825443036499578e-32  1.5000000000000030e-01 3.5274731775124156e-34 2.4678501782772063e-32  1.5000000000000011e-01 4.3521217850254684e-33 9.6521242306449636e-33  1.5000000000000036e-01 1.3018603807144220e-32 1.2820367290699815e-31  1.5000000000000013e-01 1.7231098087595645e-33 2.9757001393252440e-33  1.5000000000000044e-01 8.0509113080467949e-33 1.3831813168681040e-32  1.4999999999999997e-01 1.1230654829278384e-31 8.4664322851285050e-33  1.5000000000000030e-01 2.5031464269422751e-32 5.0877584329281379e-32  1.5000000000000019e-01 1.8661254611075746e-32 1.0837916296523727e-33  1.5000000000000030e-01 2.9889977086497471e-33 2.4489436970662629e-32  1.5000000000000013e-01 1.8101979113936742e-31 1.1729440892561593e-34  1.5000000000000019e-01 1.5058720898544879e-31 2.2249593018035746e-34  1.5000000000000044e-01 1.2226286508731022e-32 1.0457405105377892e-33  1.5000000000000011e-01 2.6856782726071790e-32 7.3615897023781729e-33  1.5000000000000030e-01 3.6741207425898201e-31 3.5285592876014985e-32  1.5000000000000011e-01 3.6478341931744186e-33 4.5516320181448074e-33  1.5000000000000002e-01 6.7449576971826846e-33 1.6180916203021933e-32  1.5000000000000022e-01 2.6115695098510109e-32 1.2059163123099681e-32  1.5000000000000002e-01 3.4216182858361405e-31 5.5820367780191467e-32  1.4999999999999983e-01 7.6683441901165718e-32 5.1183139606064916e-33  1.5000000000000022e-01 6.4674985634858057e-36 1.4489270006632524e-32  1.5000000000000027e-01 2.0005600178595447e-33 4.6504102218865203e-33  1.5000000000000019e-01 1.4452796638696462e-34 3.5084564855681688e-32  1.5000000000000013e-01 2.3832992166337675e-33 7.6319648395244497e-34  1.5000000000