<?xml version="1.0"?>
<VTKFile type="UnstructuredGrid"  version="0.1"  >
<UnstructuredGrid>
<Piece  NumberOfPoints="10201" NumberOfCells="20000">
<Points>
<DataArray  type="Float64"  NumberOfComponents="3"  format="ascii">-5 -5 0  -4.9 -5 0  -4.8 -5 0  -4.7 -5 0  -4.6 -5 0  -4.5 -5 0  -4.4 -5 0  -4.3 -5 0  -4.2 -5 0  -4.1 -5 0  -4 -5 0  -3.9 -5 0  -3.8 -5 0  -3.7 -5 0  -3.6 -5 0  -3.5 -5 0  -3.4 -5 0  -3.3 -5 0  -3.2 -5 0  -3.1 -5 0  -3 -5 0  -2.9 -5 0  -2.8 -5 0  -2.7 -5 0  -2.6 -5 0  -2.5 -5 0  -2.4 -5 0  -2.3 -5 0  -2.2 -5 0  -2.1 -5 0  -2 -5 0  -1.9 -5 0  -1.8 -5 0  -1.7 -5 0  -1.6 -5 0  -1.5 -5 0  -1.4 -5 0  -1.3 -5 0  -1.2 -5 0  -1.1 -5 0  -1 -5 0  -0.9000000000000004 -5 0  -0.7999999999999998 -5 0  -0.7000000000000002 -5 0  -0.5999999999999996 -5 0  -0.5 -5 0  -0.4000000000000004 -5 0  -0.2999999999999998 -5 0  -0.2000000000000002 -5 0  -0.09999999999999964 -5 0  0 -5 0  0.09999999999999964 -5 0  0.2000000000000002 -5 0  0.2999999999999998 -5 0  0.4000000000000004 -5 0  0.5 -5 0  0.5999999999999996 -5 0  0.7000000000000002 -5 0  0.7999999999999998 -5 0  0.9000000000000004 -5 0  1 -5 0  1.1 -5 0  1.2 -5 0  1.3 -5 0  1.4 -5 0  1.5 -5 0  1.6 -5 0  1.7 -5 0  1.8 -5 0  1.9 -5 0  2 -5 0  2.1 -5 0  2.2 -5 0  2.3 -5 0  2.4 -5 0  2.5 -5 0  2.6 -5 0  2.7 -5 0  2.8 -5 0  2.9 -5 0  3 -5 0  3.1 -5 0  3.199999999999999 -5 0  3.300000000000001 -5 0  3.4 -5 0  3.5 -5 0  3.6 -5 0  3.699999999999999 -5 0  3.800000000000001 -5 0  3.9 -5 0  4 -5 0  4.1 -5 0  4.199999999999999 -5 0  4.300000000000001 -5 0  4.4 -5 0  4.5 -5 0  4.6 -5 0  4.699999999999999 -5 0  4.800000000000001 -5 0  4.9 -5 0  5 -5 0  -5 -4.9 0  -4.9 -4.9 0  -4.8 -4.9 0  -4.7 -4.9 0  -4.6 -4.9 0  -4.5 -4.9 0  -4.4 -4.9 0  -4.3 -4.9 0  -4.2 -4.9 0  -4.1 -4.9 0  -4 -4.9 0  -3.9 -4.9 0  -3.8 -4.9 0  -3.7 -4.9 0  -3.6 -4.9 0  -3.5 -4.9 0  -3.4 -4.9 0  -3.3 -4.9 0  -3.2 -4.9 0  -3.1 -4.9 0  -3 -4.9 0  -2.9 -4.9 0  -2.8 -4.9 0  -2.7 -4.9 0  -2.6 -4.9 0  -2.5 -4.9 0  -2.4 -4.9 0  -2.3 -4.9 0  -2.2 -4.9 0  -2.1 -4.9 0  -2 -4.9 0  -1.9 -4.9 0  -1.8 -4.9 0  -1.7 -4.9 0  -1.6 -4.9 0  -1.5 -4.9 0  -1.4 -4.9 0  -1.3 -4.9 0  -1.2 -4.9 0  -1.1 -4.9 0  -1 -4.9 0  -0.9000000000000004 -4.9 0  -0.7999999999999998 -4.9 0  -0.7000000000000002 -4.9 0  -0.5999999999999996 -4.9 0  -0.5 -4.9 0  -0.4000000000000004 -4.9 0  -0.2999999999999998 -4.9 0  -0.2000000000000002 -4.9 0  -0.09999999999999964 -4.9 0  0 -4.9 0  0.09999999999999964 -4.9 0  0.2000000000000002 -4.9 0  0.2999999999999998 -4.9 0  0.4000000000000004 -4.9 0  0.5 -4.9 0  0.5999999999999996 -4.9 0  0.7000000000000002 -4.9 0  0.7999999999999998 -4.9 0  0.9000000000000004 -4.9 0  1 -4.9 0  1.1 -4.9 0  1.2 -4.9 0  1.3 -4.9 0  1.4 -4.9 0  1.5 -4.9 0  1.6 -4.9 0  1.7 -4.9 0  1.8 -4.9 0  1.9 -4.9 0  2 -4.9 0  2.1 -4.9 0  2.2 -4.9 0  2.3 -4.9 0  2.4 -4.9 0  2.5 -4.9 0  2.6 -4.9 0  2.7 -4.9 0  2.8 -4.9 0  2.9 -4.9 0  3 -4.9 0  3.1 -4.9 0  3.199999999999999 -4.9 0  3.300000000000001 -4.9 0  3.4 -4.9 0  3.5 -4.9 0  3.6 -4.9 0  3.699999999999999 -4.9 0  3.800000000000001 -4.9 0  3.9 -4.9 0  4 -4.9 0  4.1 -4.9 0  4.199999999999999 -4.9 0  4.300000000000001 -4.9 0  4.4 -4.9 0  4.5 -4.9 0  4.6 -4.9 0  4.699999999999999 -4.9 0  4.800000000000001 -4.9 0  4.9 -4.9 0  5 -4.9 0  -5 -4.8 0  -4.9 -4.8 0  -4.8 -4.8 0  -4.7 -4.8 0  -4.6 -4.8 0  -4.5 -4.8 0  -4.4 -4.8 0  -4.3 -4.8 0  -4.2 -4.8 0  -4.1 -4.8 0  -4 -4.8 0  -3.9 -4.8 0  -3.8 -4.8 0  -3.7 -4.8 0  -3.6 -4.8 0  -3.5 -4.8 0  -3.4 -4.8 0  -3.3 -4.8 0  -3.2 -4.8 0  -3.1 -4.8 0  -3 -4.8 0  -2.9 -4.8 0  -2.8 -4.8 0  -2.7 -4.8 0  -2.6 -4.8 0  -2.5 -4.8 0  -2.4 -4.8 0  -2.3 -4.8 0  -2.2 -4.8 0  -2.1 -4.8 0  -2 -4.8 0  -1.9 -4.8 0  -1.8 -4.8 0  -1.7 -4.8 0  -1.6 -4.8 0  -1.5 -4.8 0  -1.4 -4.8 0  -1.3 -4.8 0  -1.2 -4.8 0  -1.1 -4.8 0  -1 -4.8 0  -0.9000000000000004 -4.8 0  -0.7999999999999998 -4.8 0  -0.7000000000000002 -4.8 0  -0.5999999999999996 -4.8 0  -0.5 -4.8 0  -0.4000000000000004 -4.8 0  -0.2999999999999998 -4.8 0  -0.2000000000000002 -4.8 0  -0.09999999999999964 -4.8 0  0 -4.8 0  0.09999999999999964 -4.8 0  0.2000000000000002 -4.8 0  0.2999999999999998 -4.8 0  0.4000000000000004 -4.8 0  0.5 -4.8 0  0.5999999999999996 -4.8 0  0.7000000000000002 -4.8 0  0.7999999999999998 -4.8 0  0.9000000000000004 -4.8 0  1 -4.8 0  1.1 -4.8 0  1.2 -4.8 0  1.3 -4.8 0  1.4 -4.8 0  1.5 -4.8 0  1.6 -4.8 0  1.7 -4.8 0  1.8 -4.8 0  1.9 -4.8 0  2 -4.8 0  2.1 -4.8 0  2.2 -4.8 0  2.3 -4.8 0  2.4 -4.8 0  2.5 -4.8 0  2.6 -4.8 0  2.7 -4.8 0  2.8 -4.8 0  2.9 -4.8 0  3 -4.8 0  3.1 -4.8 0  3.199999999999999 -4.8 0  3.300000000000001 -4.8 0  3.4 -4.8 0  3.5 -4.8 0  3.6 -4.8 0  3.699999999999999 -4.8 0  3.800000000000001 -4.8 0  3.9 -4.8 0  4 -4.8 0  4.1 -4.8 0  4.199999999999999 -4.8 0  4.300000000000001 -4.8 0  4.4 -4.8 0  4.5 -4.8 0  4.6 -4.8 0  4.699999999999999 -4.8 0  4.800000000000001 -4.8 0  4.9 -4.8 0  5 -4.8 0  -5 -4.7 0  -4.9 -4.7 0  -4.8 -4.7 0  -4.7 -4.7 0  -4.6 -4.7 0  -4.5 -4.7 0  -4.4 -4.7 0  -4.3 -4.7 0  -4.2 -4.7 0  -4.1 -4.7 0  -4 -4.7 0  -3.9 -4.7 0  -3.8 -4.7 0  -3.7 -4.7 0  -3.6 -4.7 0  -3.5 -4.7 0  -3.4 -4.7 0  -3.3 -4.7 0  -3.2 -4.7 0  -3.1 -4.7 0  -3 -4.7 0  -2.9 -4.7 0  -2.8 -4.7 0  -2.7 -4.7 0  -2.6 -4.7 0  -2.5 -4.7 0  -2.4 -4.7 0  -2.3 -4.7 0  -2.2 -4.7 0  -2.1 -4.7 0  -2 -4.7 0  -1.9 -4.7 0  -1.8 -4.7 0  -1.7 -4.7 0  -1.6 -4.7 0  -1.5 -4.7 0  -1.4 -4.7 0  -1.3 -4.7 0  -1.2 -4.7 0  -1.1 -4.7 0  -1 -4.7 0  -0.9000000000000004 -4.7 0  -0.7999999999999998 -4.7 0  -0.7000000000000002 -4.7 0  -0.5999999999999996 -4.7 0  -0.5 -4.7 0  -0.4000000000000004 -4.7 0  -0.2999999999999998 -4.7 0  -0.2000000000000002 -4.7 0  -0.09999999999999964 -4.7 0  0 -4.7 0  0.09999999999999964 -4.7 0  0.2000000000000002 -4.7 0  0.2999999999999998 -4.7 0  0.4000000000000004 -4.7 0  0.5 -4.7 0  0.5999999999999996 -4.7 0  0.7000000000000002 -4.7 0  0.7999999999999998 -4.7 0  0.9000000000000004 -4.7 0  1 -4.7 0  1.1 -4.7 0  1.2 -4.7 0  1.3 -4.7 0  1.4 -4.7 0  1.5 -4.7 0  1.6 -4.7 0  1.7 -4.7 0  1.8 -4.7 0  1.9 -4.7 0  2 -4.7 0  2.1 -4.7 0  2.2 -4.7 0  2.3 -4.7 0  2.4 -4.7 0  2.5 -4.7 0  2.6 -4.7 0  2.7 -4.7 0  2.8 -4.7 0  2.9 -4.7 0  3 -4.7 0  3.1 -4.7 0  3.199999999999999 -4.7 0  3.300000000000001 -4.7 0  3.4 -4.7 0  3.5 -4.7 0  3.6 -4.7 0  3.699999999999999 -4.7 0  3.800000000000001 -4.7 0  3.9 -4.7 0  4 -4.7 0  4.1 -4.7 0  4.199999999999999 -4.7 0  4.300000000000001 -4.7 0  4.4 -4.7 0  4.5 -4.7 0  4.6 -4.7 0  4.699999999999999 -4.7 0  4.800000000000001 -4.7 0  4.9 -4.7 0  5 -4.7 0  -5 -4.6 0  -4.9 -4.6 0  -4.8 -4.6 0  -4.7 -4.6 0  -4.6 -4.6 0  -4.5 -4.6 0  -4.4 -4.6 0  -4.3 -4.6 0  -4.2 -4.6 0  -4.1 -4.6 0  -4 -4.6 0  -3.9 -4.6 0  -3.8 -4.6 0  -3.7 -4.6 0  -3.6 -4.6 0  -3.5 -4.6 0  -3.4 -4.6 0  -3.3 -4.6 0  -3.2 -4.6 0  -3.1 -4.6 0  -3 -4.6 0  -2.9 -4.6 0  -2.8 -4.6 0  -2.7 -4.6 0  -2.6 -4.6 0  -2.5 -4.6 0  -2.4 -4.6 0  -2.3 -4.6 0  -2.2 -4.6 0  -2.1 -4.6 0  -2 -4.6 0  -1.9 -4.6 0  -1.8 -4.6 0  -1.7 -4.6 0  -1.6 -4.6 0  -1.5 -4.6 0  -1.4 -4.6 0  -1.3 -4.6 0  -1.2 -4.6 0  -1.1 -4.6 0  -1 -4.6 0  -0.9000000000000004 -4.6 0  -0.7999999999999998 -4.6 0  -0.7000000000000002 -4.6 0  -0.5999999999999996 -4.6 0  -0.5 -4.6 0  -0.4000000000000004 -4.6 0  -0.2999999999999998 -4.6 0  -0.2000000000000002 -4.6 0  -0.09999999999999964 -4.6 0  0 -4.6 0  0.09999999999999964 -4.6 0  0.2000000000000002 -4.6 0  0.2999999999999998 -4.6 0  0.4000000000000004 -4.6 0  0.5 -4.6 0  0.5999999999999996 -4.6 0  0.7000000000000002 -4.6 0  0.7999999999999998 -4.6 0  0.9000000000000004 -4.6 0  1 -4.6 0  1.1 -4.6 0  1.2 -4.6 0  1.3 -4.6 0  1.4 -4.6 0  1.5 -4.6 0  1.6 -4.6 0  1.7 -4.6 0  1.8 -4.6 0  1.9 -4.6 0  2 -4.6 0  2.1 -4.6 0  2.2 -4.6 0  2.3 -4.6 0  2.4 -4.6 0  2.5 -4.6 0  2.6 -4.6 0  2.7 -4.6 0  2.8 -4.6 0  2.9 -4.6 0  3 -4.6 0  3.1 -4.6 0  3.199999999999999 -4.6 0  3.300000000000001 -4.6 0  3.4 -4.6 0  3.5 -4.6 0  3.6 -4.6 0  3.699999999999999 -4.6 0  3.800000000000001 -4.6 0  3.9 -4.6 0  4 -4.6 0  4.1 -4.6 0  4.199999999999999 -4.6 0  4.300000000000001 -4.6 0  4.4 -4.6 0  4.5 -4.6 0  4.6 -4.6 0  4.699999999999999 -4.6 0  4.800000000000001 -4.6 0  4.9 -4.6 0  5 -4.6 0  -5 -4.5 0  -4.9 -4.5 0  -4.8 -4.5 0  -4.7 -4.5 0  -4.6 -4.5 0  -4.5 -4.5 0  -4.4 -4.5 0  -4.3 -4.5 0  -4.2 -4.5 0  -4.1 -4.5 0  -4 -4.5 0  -3.9 -4.5 0  -3.8 -4.5 0  -3.7 -4.5 0  -3.6 -4.5 0  -3.5 -4.5 0  -3.4 -4.5 0  -3.3 -4.5 0  -3.2 -4.5 0  -3.1 -4.5 0  -3 -4.5 0  -2.9 -4.5 0  -2.8 -4.5 0  -2.7 -4.5 0  -2.6 -4.5 0  -2.5 -4.5 0  -2.4 -4.5 0  -2.3 -4.5 0  -2.2 -4.5 0  -2.1 -4.5 0  -2 -4.5 0  -1.9 -4.5 0  -1.8 -4.5 0  -1.7 -4.5 0  -1.6 -4.5 0  -1.5 -4.5 0  -1.4 -4.5 0  -1.3 -4.5 0  -1.2 -4.5 0  -1.1 -4.5 0  -1 -4.5 0  -0.9000000000000004 -4.5 0  -0.7999999999999998 -4.5 0  -0.7000000000000002 -4.5 0  -0.5999999999999996 -4.5 0  -0.5 -4.5 0  -0.4000000000000004 -4.5 0  -0.2999999999999998 -4.5 0  -0.2000000000000002 -4.5 0  -0.09999999999999964 -4.5 0  0 -4.5 0  0.09999999999999964 -4.5 0  0.2000000000000002 -4.5 0  0.2999999999999998 -4.5 0  0.4000000000000004 -4.5 0  0.5 -4.5 0  0.5999999999999996 -4.5 0  0.7000000000000002 -4.5 0  0.7999999999999998 -4.5 0  0.9000000000000004 -4.5 0  1 -4.5 0  1.1 -4.5 0  1.2 -4.5 0  1.3 -4.5 0  1.4 -4.5 0  1.5 -4.5 0  1.6 -4.5 0  1.7 -4.5 0  1.8 -4.5 0  1.9 -4.5 0  2 -4.5 0  2.1 -4.5 0  2.2 -4.5 0  2.3 -4.5 0  2.4 -4.5 0  2.5 -4.5 0  2.6 -4.5 0  2.7 -4.5 0  2.8 -4.5 0  2.9 -4.5 0  3 -4.5 0  3.1 -4.5 0  3.199999999999999 -4.5 0  3.300000000000001 -4.5 0  3.4 -4.5 0  3.5 -4.5 0  3.6 -4.5 0  3.699999999999999 -4.5 0  3.800000000000001 -4.5 0  3.9 -4.5 0  4 -4.5 0  4.1 -4.5 0  4.199999999999999 -4.5 0  4.300000000000001 -4.5 0  4.4 -4.5 0  4.5 -4.5 0  4.6 -4.5 0  4.699999999999999 -4.5 0  4.800000000000001 -4.5 0  4.9 -4.5 0  5 -4.5 0  -5 -4.4 0  -4.9 -4.4 0  -4.8 -4.4 0  -4.7 -4.4 0  -4.6 -4.4 0  -4.5 -4.4 0  -4.4 -4.4 0  -4.3 -4.4 0  -4.2 -4.4 0  -4.1 -4.4 0  -4 -4.4 0  -3.9 -4.4 0  -3.8 -4.4 0  -3.7 -4.4 0  -3.6 -4.4 0  -3.5 -4.4 0  -3.4 -4.4 0  -3.3 -4.4 0  -3.2 -4.4 0  -3.1 -4.4 0  -3 -4.4 0  -2.9 -4.4 0  -2.8 -4.4 0  -2.7 -4.4 0  -2.6 -4.4 0  -2.5 -4.4 0  -2.4 -4.4 0  -2.3 -4.4 0  -2.2 -4.4 0  -2.1 -4.4 0  -2 -4.4 0  -1.9 -4.4 0  -1.8 -4.
[...]
<PointData  Vectors="f_23"> 
<DataArray  type="Float64"  Name="f_23"  NumberOfComponents="3" format="ascii">1.5000000000000019e-01 0.0000000000000000e+00 0.0000000000000000e+00  1.5000000000000002e-01 1.9956841906289712e-32 0.0000000000000000e+00  1.5000000000000019e-01 8.3260049659597883e-32 0.0000000000000000e+00  1.4999999999999997e-01 8.2498448442954189e-35 0.0000000000000000e+00  1.5000000000000030e-01 3.1684855195494960e-34 0.0000000000000000e+00  1.5000000000000002e-01 1.4282388694209702e-32 0.0000000000000000e+00  1.5000000000000011e-01 7.3516328236019611e-32 0.0000000000000000e+00  1.4999999999999991e-01 5.6770708065711222e-32 0.0000000000000000e+00  1.5000000000000027e-01 1.7088957781506409e-31 0.0000000000000000e+00  1.5000000000000002e-01 5.2717052230569280e-33 0.0000000000000000e+00  1.5000000000000019e-01 1.1543446245286926e-32 0.0000000000000000e+00  1.4999999999999972e-01 8.3854315929755326e-32 0.0000000000000000e+00  1.5000000000000041e-01 3.9546147365198689e-32 0.0000000000000000e+00  1.5000000000000002e-01 5.8001394962845952e-32 0.0000000000000000e+00  1.4999999999999941e-01 2.9372688571675295e-31 0.0000000000000000e+00  1.5000000000000022e-01 3.4455052173433421e-33 0.0000000000000000e+00  1.4999999999999980e-01 1.4687931491813112e-33 0.0000000000000000e+00  1.5000000000000019e-01 5.0025329802704335e-32 0.0000000000000000e+00  1.5000000000000013e-01 3.1246111280066955e-34 0.0000000000000000e+00  1.4999999999999974e-01 1.4687926120079214e-32 0.0000000000000000e+00  1.5000000000000030e-01 1.1648249168218681e-31 0.0000000000000000e+00  1.4999999999999997e-01 1.9768329657307647e-31 0.0000000000000000e+00  1.5000000000000005e-01 1.5891800002155146e-31 0.0000000000000000e+00  1.5000000000000074e-01 8.4278035043031189e-32 0.0000000000000000e+00  1.5000000000000030e-01 1.3599589636156013e-32 0.0000000000000000e+00  1.5000000000000030e-01 1.2847162732405354e-34 0.0000000000000000e+00  1.5000000000000013e-01 8.1194250918728903e-33 0.0000000000000000e+00  1.4999999999999983e-01 3.8061246644619614e-33 0.0000000000000000e+00  1.5000000000000002e-01 1.2458797235494976e-33 0.0000000000000000e+00  1.4999999999999983e-01 1.1085055159394996e-32 0.0000000000000000e+00  1.4999999999999991e-01 1.3077978236682848e-31 0.0000000000000000e+00  1.5000000000000005e-01 1.4527333209552134e-31 0.0000000000000000e+00  1.5000000000000002e-01 4.4887771996878800e-33 0.0000000000000000e+00  1.5000000000000036e-01 4.3854119282488355e-31 0.0000000000000000e+00  1.5000000000000005e-01 2.0358762735962436e-31 0.0000000000000000e+00  1.5000000000000019e-01 7.9305985261298397e-35 0.0000000000000000e+00  1.5000000000000002e-01 1.4355534686621076e-31 0.0000000000000000e+00  1.5000000000000002e-01 7.3039016761961219e-32 0.0000000000000000e+00  1.4999999999999974e-01 1.5414902574495901e-33 0.0000000000000000e+00  1.5000000000000013e-01 4.2454771865862297e-33 0.0000000000000000e+00  1.4999999999999997e-01 6.4310640913578437e-32 0.0000000000000000e+00  1.4999999999999974e-01 2.8452455560245681e-32 0.0000000000000000e+00  1.5000000000000036e-01 5.1786965668246721e-33 0.0000000000000000e+00  1.5000000000000027e-01 3.4701558895548909e-33 0.0000000000000000e+00  1.5000000000000005e-01 5.0162015735364293e-33 0.0000000000000000e+00  1.5000000000000013e-01 2.4034217354557197e-33 0.0000000000000000e+00  1.5000000000000005e-01 1.8775177985345169e-32 0.0000000000000000e+00  1.5000000000000030e-01 2.4098182351208854e-32 0.0000000000000000e+00  1.5000000000000019e-01 5.1696799112488922e-35 0.0000000000000000e+00  1.5000000000000030e-01 4.6930706755262778e-32 0.0000000000000000e+00  1.5000000000000019e-01 1.5762874951881814e-32 0.0000000000000000e+00  1.5000000000000022e-01 1.6170993379358154e-31 0.0000000000000000e+00  1.5000000000000036e-01 1.3138677377470504e-31 0.0000000000000000e+00  1.5000000000000013e-01 2.3302043467477437e-31 0.0000000000000000e+00  1.4999999999999980e-01 3.5644508518106690e-31 0.0000000000000000e+00  1.5000000000000052e-01 1.7947703450265001e-31 0.0000000000000000e+00  1.5000000000000011e-01 1.8136630221860041e-31 0.0000000000000000e+00  1.5000000000000036e-01 5.4248702178074130e-33 0.0000000000000000e+00  1.5000000000000002e-01 8.1087235715661046e-32 0.0000000000000000e+00  1.5000000000000011e-01 5.0827711273643070e-33 0.0000000000000000e+00  1.5000000000000030e-01 1.8112718102987182e-32 0.0000000000000000e+00  1.5000000000000005e-01 1.3390936347006965e-33 0.0000000000000000e+00  1.5000000000000013e-01 2.8796827460985058e-33 0.0000000000000000e+00  1.5000000000000049e-01 1.7153379181703572e-31 0.0000000000000000e+00  1.5000000000000019e-01 8.5120766592047422e-32 0.0000000000000000e+00  1.5000000000000022e-01 1.7758528984622916e-32 0.0000000000000000e+00  1.5000000000000027e-01 5.6222964217024165e-32 0.0000000000000000e+00  1.5000000000000013e-01 7.1179965536478288e-33 0.0000000000000000e+00  1.5000000000000022e-01 6.4645805232636226e-32 0.0000000000000000e+00  1.5000000000000002e-01 1.0022065815920697e-32 0.0000000000000000e+00  1.5000000000000022e-01 8.3400580032680440e-32 0.0000000000000000e+00  1.5000000000000027e-01 2.9481799156860064e-32 0.0000000000000000e+00  1.5000000000000061e-01 2.1678157798601924e-31 0.0000000000000000e+00  1.4999999999999963e-01 2.0090444747979812e-31 0.0000000000000000e+00  1.5000000000000049e-01 2.8656743055339988e-31 0.0000000000000000e+00  1.5000000000000019e-01 1.5582822836125266e-31 0.0000000000000000e+00  1.5000000000000002e-01 7.8871190560072776e-32 0.0000000000000000e+00  1.5000000000000013e-01 6.2529695801025803e-32 0.0000000000000000e+00  1.5000000000000036e-01 1.0686825046713789e-32 0.0000000000000000e+00  1.5000000000000005e-01 1.5435004404536876e-31 0.0000000000000000e+00  1.5000000000000022e-01 5.4997717669646663e-32 0.0000000000000000e+00  1.5000000000000013e-01 2.2801674406313588e-32 0.0000000000000000e+00  1.4999999999999997e-01 2.1491192878368780e-32 0.0000000000000000e+00  1.5000000000000041e-01 1.0178694212762572e-31 0.0000000000000000e+00  1.5000000000000011e-01 1.3100697826758231e-31 0.0000000000000000e+00  1.5000000000000036e-01 8.9209730727763037e-32 0.0000000000000000e+00  1.5000000000000013e-01 2.6450592193651033e-32 0.0000000000000000e+00  1.5000000000000052e-01 2.6922097530809868e-32 0.0000000000000000e+00  1.5000000000000011e-01 5.1255210223998149e-33 0.0000000000000000e+00  1.5000000000000049e-01 2.8639951400576828e-32 0.0000000000000000e+00  1.5000000000000013e-01 5.1597832586064919e-32 0.0000000000000000e+00  1.5000000000000013e-01 1.1264441168314137e-32 0.0000000000000000e+00  1.5000000000000022e-01 1.1122765127861005e-32 0.0000000000000000e+00  1.5000000000000011e-01 3.7982305596870264e-32 0.0000000000000000e+00  1.5000000000000011e-01 1.2225406558892773e-31 0.0000000000000000e+00  1.4999999999999983e-01 3.3295436607634317e-34 0.0000000000000000e+00  1.5000000000000019e-01 1.5259000819945188e-33 0.0000000000000000e+00  1.4999999999999983e-01 3.3282009287385188e-33 0.0000000000000000e+00  1.5000000000000005e-01 7.1626256873651400e-33 0.0000000000000000e+00  1.5000000000000011e-01 1.1548869781639995e-32 0.0000000000000000e+00  1.5000000000000027e-01 0.0000000000000000e+00 0.0000000000000000e+00  1.5000000000000005e-01 0.0000000000000000e+00 3.2847288795775930e-32  1.5000000000000019e-01 6.3583869589304327e-32 5.5314635075622502e-32  1.5000000000000013e-01 5.7614500376875027e-34 2.5837696911159256e-33  1.5000000000000011e-01 3.1170160455224768e-32 9.1357889140366901e-33  1.4999999999999988e-01 1.2018364205182316e-32 4.9262515062752933e-32  1.5000000000000019e-01 4.5564557123217073e-32 1.2036207750242777e-32  1.5000000000000005e-01 2.7810059084029463e-33 2.3679560252836819e-33  1.5000000000000019e-01 4.3667794274133149e-32 1.2810950869761481e-34  1.5000000000000013e-01 1.4128146367533649e-32 2.9646113254296423e-33  1.4999999999999988e-01 1.1710081218400602e-32 2.8161645168087485e-33  1.5000000000000013e-01 2.3653662128153980e-32 2.2943127713438125e-33  1.5000000000000011e-01 2.8049685439198307e-32 1.9153979448761244e-32  1.5000000000000022e-01 5.2071799099748683e-34 2.2392760619969713e-32  1.5000000000000013e-01 2.5706318421671082e-37 2.2239933283797342e-33  1.5000000000000013e-01 1.4811011739975714e-32 3.5494364315153418e-34  1.5000000000000019e-01 9.6539131643011243e-32 6.2715944930882202e-33  1.5000000000000022e-01 8.3835225237998156e-33 8.6390534477444130e-37  1.5000000000000005e-01 5.2390063816379087e-32 4.3580657475105348e-33  1.4999999999999991e-01 3.0223314137661782e-32 3.7131030538494230e-34  1.4999999999999997e-01 6.5578475772092396e-32 4.8471075051886876e-34  1.5000000000000011e-01 1.7782544682148833e-33 7.1136847548152000e-34  1.4999999999999972e-01 1.9025901963536008e-31 5.9055342365708723e-32  1.4999999999999980e-01 7.8966016053995749e-32 2.4758218767132611e-33  1.4999999999999988e-01 4.9472597697297898e-32 1.4773899279440778e-31  1.4999999999999958e-01 1.3739929570489711e-33 1.2390894295922428e-31  1.4999999999999949e-01 1.7199447484072983e-32 2.1425134200742753e-31  1.4999999999999997e-01 6.1490474160919282e-33 6.6755131483963088e-32  1.5000000000000041e-01 9.0520378535236442e-33 2.1035828968648009e-31  1.5000000000000066e-01 6.7361041413547903e-33 7.1003409788869690e-32  1.5000000000000052e-01 4.8678416296528616e-32 2.1867821089484293e-31  1.5000000000000011e-01 1.0745651847779492e-32 1.7737720043188492e-33  1.5000000000000027e-01 9.2665117175777233e-32 2.5139089976374947e-33  1.5000000000000036e-01 7.0895506151780431e-33 4.0799927355760187e-33  1.5000000000000011e-01 3.6437690624198660e-32 1.2064815692124492e-32  1.5000000000000011e-01 1.4033443403780721e-31 5.2136825540277238e-33  1.5000000000000011e-01 1.7175845549913481e-33 5.0121879984556095e-32  1.5000000000000011e-01 1.3824764808126597e-32 2.9363282833819211e-35  1.5000000000000011e-01 5.3984261590886658e-32 6.3194661205451611e-33  1.5000000000000011e-01 4.2581859986361283e-34 3.7575721826012074e-32  1.5000000000000013e-01 1.3052907165351141e-32 3.2728069241344021e-32  1.5000000000000011e-01 1.9919229170276329e-34 8.2967629275824800e-34  1.5000000000000019e-01 2.9233489492610319e-32 3.7156155623098005e-33  1.5000000000000011e-01 5.8501333642413809e-32 4.3906209734624038e-33  1.5000000000000013e-01 3.7899233092817782e-32 1.9894039007499909e-32  1.4999999999999963e-01 3.2829992462257220e-32 1.4418024502449728e-33  1.5000000000000049e-01 5.1611318481816308e-34 3.2145374756699893e-34  1.5000000000000011e-01 1.4650521578315988e-34 8.3754921946619469e-35  1.5000000000000013e-01 6.7508210213937089e-32 5.4593279896532126e-32  1.5000000000000013e-01 3.2831959391400688e-33 2.1035870170492278e-32  1.4999999999999997e-01 2.5606763820856519e-33 3.5275348590412410e-32  1.5000000000000019e-01 8.5016434530102517e-33 9.0242799565759333e-33  1.5000000000000013e-01 6.8257839689467321e-33 1.3931486302254666e-33  1.5000000000000027e-01 5.9776381021706561e-34 2.0028209038904879e-33  1.5000000000000022e-01 4.6449049162024991e-32 3.9452347293055108e-32  1.4999999999999983e-01 6.2367580399764587e-32 4.3215539975680865e-32  1.5000000000000019e-01 8.7347904786189934e-32 1.7002884449678185e-32  1.5000000000000011e-01 1.4238726974931989e-31 9.2452443265810101e-32  1.5000000000000027e-01 1.5505192392372667e-31 3.3084494857621076e-32  1.5000000000000013e-01 6.5885972645784125e-33 1.8763319845143091e-32  1.5000000000000005e-01 4.4254333422629859e-33 8.2857407756891118e-34  1.5000000000000013e-01 2.3690091795200100e-33 1.4487641013084395e-32  1.5000000000000005e-01 5.5484088158636810e-33 2.7783045466580752e-32  1.5000000000000027e-01 8.2625558519424001e-32 2.5277562828496962e-32  1.5000000000000005e-01 1.9121438050420155e-33 9.7680695283315371e-33  1.5000000000000019e-01 4.4679689592065934e-32 2.9847485773010087e-32  1.5000000000000030e-01 5.0585446793695311e-33 9.5290337551811233e-33  1.5000000000000011e-01 4.8669350388156169e-32 9.1432788109192493e-33  1.5000000000000027e-01 1.3045956653402834e-32 1.0851890680663996e-32  1.5000000000000013e-01 1.2316024506594228e-32 5.8338411182957600e-33  1.5000000000000002e-01 8.6785038856469921e-33 5.4104516381398923e-32  1.5000000000000019e-01 1.0126909549249450e-33 1.9052065007189843e-34  1.5000000000000022e-01 5.7610576952090409e-32 8.8601714710487442e-32  1.4999999999999988e-01 2.8957460675070592e-32 3.2509251663465957e-34  1.5000000000000022e-01 5.1759703872498323e-32 3.0690517102444016e-32  1.5000000000000030e-01 1.1686092414953967e-31 4.8343893160455843e-35  1.5000000000000002e-01 6.6859035759764124e-32 3.0318297020986003e-35  1.5000000000000022e-01 2.2981692971506162e-32 1.0742330688986251e-33  1.4999999999999997e-01 1.7413849219885034e-31 9.9560644662924091e-33  1.4999999999999974e-01 3.1858763092641526e-33 1.1708728460548763e-31  1.5000000000000027e-01 3.7534472285062100e-34 1.9637497244846200e-32  1.5000000000000011e-01 1.4241118134108627e-32 3.7327570377161659e-35  1.5000000000000011e-01 5.5137505954417532e-32 3.0794348640416252e-32  1.5000000000000011e-01 2.0471532354935636e-34 4.5793579286123838e-33  1.5000000000000011e-01 1.7284120677131630e-32 1.1324280376537947e-32  1.4999999999999997e-01 6.2447009104354752e-32 3.7252858838515756e-32  1.5000000000000013e-01 2.8921436971244391e-34 7.5051760068961437e-33  1.5000000000000013e-01 1.4815766404376695e-32 1.6572707102052964e-33  1.5000000000000013e-01 8.5857156396272457e-34 2.6423363038487314e-32  1.5000000000000013e-01 6.2779422095991969e-32 1.1169774468089389e-35  1.5000000000000019e-01 7.4799815192092550e-32 9.0463523667298497e-33  1.5000000000000005e-01 1.1613171625581365e-31 1.8867502357032417e-32  1.5000000000000030e-01 5.4378397562687192e-32 9.0909161363006994e-33  1.5000000000000013e-01 5.7128095874047773e-33 8.9992676890240801e-33  1.5000000000000013e-01 1.2029256744108609e-32 8.6746876696747411e-32  1.4999999999999991e-01 1.4964323172606985e-32 1.3509955430233819e-33  1.5000000000000022e-01 3.3832547695624265e-33 4.4823981942789253e-33  1.5000000000000011e-01 1.3420961734565579e-31 1.6228906960555015e-36  1.5000000000000005e-01 3.0009488490933047e-33 1.0750460581564814e-32  1.5000000000000019e-01 1.7329324212793669e-32 5.1337704002493919e-36  1.5000000000000011e-01 6.5489607718951667e-33 1.1068535847132695e-32  1.4999999999999983e-01 0.0000000000000000e+00 1.0808876150859018e-33  1.5000000000000019e-01 0.0000000000000000e+00 2.9657277921483015e-32  1.5000000000000013e-01 1.0321095768831502e-31 3.3330794984950812e-33  1.5000000000000044e-01 1.8357886819712849e-31 5.4711753555270524e-32  1.5000000000000019e-01 5.7034612590737376e-35 1.3378931272949292e-32  1.5000000000000002e-01 4.8586679079116828e-33 2.4295187263049805e-32  1.5000000000000030e-01 1.5698902496308415e-32 6.8808073667445087e-33  1.5000000000000013e-01 4.1478685979517997e-32 2.0447922165555584e-32  1.4999999999999997e-01 2.3679637448712223e-31 2.5959803740966840e-32  1.5000000000000011e-01 4.1730485287092949e-34 6.5567340402407976e-32  1.5000000000000011e-01 5.2759041063416701e-33 1.4402357027013628e-32  1.5000000000000002e-01 8.3119039056945256e-33 7.1718885797628426e-32  1.5000000000000027e-01 4.0282577898840477e-32 6.2679958292188269e-33  1.5000000000000005e-01 8.8512839331921435e-32 9.2924621460770660e-33  1.5000000000000027e-01 8.4602102003573649e-34 1.1494834485200724e-35  1.5000000000000030e-01 4.0232733056923173e-33 7.4801982636157016e-32  1.5000000000000005e-01 9.0763851164987339e-32 1.8517979962356888e-32  1.4999999999999980e-01 5.5124395931671260e-33 2.5174925505397322e-33  1.5000000000000022e-01 4.0990164212529228e-35 4.2739519671453552e-33  1.4999999999999991e-01 2.9814357241282291e-33 1.9991967082639655e-33  1.5000000000000019e-01 1.0283667615349218e-31 1.3062144923218553e-32  1.5000000000000005e-01 1.2058231621834936e-33 4.4020609022318349e-32  1.5000000000000002e-01 4.5548590134215727e-32 9.4459873230459702e-33  1.5000000000000027e-01 1.5908130913922378e-32 2.5782094613372018e-34  1.5000000000000030e-01 3.3679807747268201e-32 4.1712782342635021e-31  1.5000000000000088e-01 1.7222959469858433e-35 1.4061055402356253e-30  1.5000000000000130e-01 4.7178837707045952e-33 2.0680071556146079e-30  1.5000000000000058e-01 2.1547686843065638e-32 1.3793396431720983e-30  1.4999999999999997e-01 3.7743321210070232e-33 2.0358192487894321e-31  1.4999999999999902e-01 6.9691949393639516e-33 1.7461454441927834e-30  1.4999999999999902e-01 6.3555804415692474e-33 1.8180176015317161e-30  1.4999999999999997e-01 1.0409325404414108e-33 5.3487256493014585e-31  1.5000000000000027e-01 1.2925354636594396e-32 6.4082648422156484e-32  1.5000000000000030e-01 6.0834683142684216e-33 7.7313838747078900e-32  1.5000000000000019e-01 9.6144295959714002e-32 5.9597753260589604e-32  1.4999999999999997e-01 8.2058913419694166e-34 5.5869529974481374e-34  1.5000000000000022e-01 7.5406291543315118e-32 9.0464204096537756e-35  1.4999999999999983e-01 1.6417270287557140e-32 6.1567188760333176e-33  1.5000000000000027e-01 9.3555244328096785e-33 4.3727168247174380e-34  1.5000000000000030e-01 3.1344780145311337e-32 1.4097536260808510e-33  1.5000000000000030e-01 1.2388961923709336e-32 6.0590955639799551e-33  1.4999999999999974e-01 7.9815987450560725e-33 3.5761059287151247e-35  1.5000000000000019e-01 3.5758568673862608e-32 1.1633933336851803e-33  1.5000000000000011e-01 1.3906289739097130e-33 5.4733703500444519e-34  1.5000000000000011e-01 1.1840616459291235e-32 6.6487128076994097e-33  1.5000000000000002e-01 1.8070505770736434e-32 9.2384567024603973e-32  1.5000000000000036e-01 2.6902448977952895e-32 2.8155583444113184e-36  1.5000000000000005e-01 4.6259916090433086e-32 7.8762827729449118e-32  1.5000000000000022e-01 6.4239129680844911e-33 2.3945058253349595e-32  1.5000000000000030e-01 1.0244901163484421e-31 9.8837873632834774e-33  1.5000000000000022e-01 3.8711876051445249e-32 5.9122782540736325e-33  1.5000000000000013e-01 2.0654244682046033e-32 4.8176795285724039e-32  1.5000000000000013e-01 1.2102630208016283e-32 1.8087020937294347e-33  1.4999999999999980e-01 4.1737256835060076e-32 9.5063819678591383e-36  1.5000000000000005e-01 1.3227214464468438e-32 1.1822250530163648e-32  1.5000000000000011e-01 1.6696519702002026e-32 5.0861565248232851e-32  1.5000000000000013e-01 4.7416101988480293e-33 1.5877533539533916e-32  1.4999999999999997e-01 1.6257067431854963e-31 5.8721048174723060e-36  1.5000000000000036e-01 1.5058986134909303e-32 5.0976712095514442e-34  1.5000000000000005e-01 4.9597360976779753e-32 9.9335240490032830e-32  1.5000000000000019e-01 7.6784201513369734e-35 6.2700769875282084e-33  1.5000000000000002e-01 1.5881059263474067e-32 5.3941029331693158e-33  1.5000000000000044e-01 1.9958771722109470e-33 2.7582099883494966e-32  1.5000000000000013e-01 1.1082081208145251e-33 5.2740678090757517e-33  1.5000000000000030e-01 3.5790160237504448e-32 1.9309302948565849e-32  1.4999999999999983e-01 9.2653407641991110e-32 1.1936879358577696e-31  1.5000000000000049e-01 6.4191420699378109e-32 1.0515093085584405e-32  1.5000000000000019e-01 3.3223070823077334e-32 3.5194505109345380e-35  1.5000000000000030e-01 2.9825323297993614e-32 7.5997450996802408e-33  1.5000000000000013e-01 4.7097170447002162e-32 1.1006251897311122e-32  1.5000000000000019e-01 8.6966409883795088e-33 3.4127545181822136e-34  1.5000000000000044e-01 2.2114237666552376e-32 6.6018769967020308e-33  1.5000000000000027e-01 1.1188519697446760e-31 3.4424734083004577e-32  1.5000000000000005e-01 8.3701775459214065e-32 4.5365977840897021e-32  1.5000000000000011e-01 1.2833677272155254e-33 9.3212533715117748e-33  1.5000000000000002e-01 2.1819069126071022e-32 3.8920255122932971e-32  1.5000000000000011e-01 2.5880927370247499e-33 3.7647611686763799e-32  1.5000000000000002e-01 9.5136956399786168e-32 2.2496709369177415e-32  1.5000000000000027e-01 5.3078137449365045e-32 1.6592583500164883e-32  1.5000000000000013e-01 5.3310335665635944e-34 4.5097148268746429e-33  1.5000000000000002e-01 8.9707624414744077e-34 2.5367408252213144e-32  1.5000000000000011e-01 3.3320989934975493e-33 2.5725911370196929e-32  1.5000000000000013e-01 1.5826487239151583e-32 1.7885550965772519e-32  1.5000000000