<?xml version="1.0"?>
<VTKFile type="UnstructuredGrid"  version="0.1"  >
<UnstructuredGrid>
<Piece  NumberOfPoints="10201" NumberOfCells="20000">
<Points>
<DataArray  type="Float64"  NumberOfComponents="3"  format="ascii">-5 -5 0  -4.9 -5 0  -4.8 -5 0  -4.7 -5 0  -4.6 -5 0  -4.5 -5 0  -4.4 -5 0  -4.3 -5 0  -4.2 -5 0  -4.1 -5 0  -4 -5 0  -3.9 -5 0  -3.8 -5 0  -3.7 -5 0  -3.6 -5 0  -3.5 -5 0  -3.4 -5 0  -3.3 -5 0  -3.2 -5 0  -3.1 -5 0  -3 -5 0  -2.9 -5 0  -2.8 -5 0  -2.7 -5 0  -2.6 -5 0  -2.5 -5 0  -2.4 -5 0  -2.3 -5 0  -2.2 -5 0  -2.1 -5 0  -2 -5 0  -1.9 -5 0  -1.8 -5 0  -1.7 -5 0  -1.6 -5 0  -1.5 -5 0  -1.4 -5 0  -1.3 -5 0  -1.2 -5 0  -1.1 -5 0  -1 -5 0  -0.9000000000000004 -5 0  -0.7999999999999998 -5 0  -0.7000000000000002 -5 0  -0.5999999999999996 -5 0  -0.5 -5 0  -0.4000000000000004 -5 0  -0.2999999999999998 -5 0  -0.2000000000000002 -5 0  -0.09999999999999964 -5 0  0 -5 0  0.09999999999999964 -5 0  0.2000000000000002 -5 0  0.2999999999999998 -5 0  0.4000000000000004 -5 0  0.5 -5 0  0.5999999999999996 -5 0  0.7000000000000002 -5 0  0.7999999999999998 -5 0  0.9000000000000004 -5 0  1 -5 0  1.1 -5 0  1.2 -5 0  1.3 -5 0  1.4 -5 0  1.5 -5 0  1.6 -5 0  1.7 -5 0  1.8 -5 0  1.9 -5 0  2 -5 0  2.1 -5 0  2.2 -5 0  2.3 -5 0  2.4 -5 0  2.5 -5 0  2.6 -5 0  2.7 -5 0  2.8 -5 0  2.9 -5 0  3 -5 0  3.1 -5 0  3.199999999999999 -5 0  3.300000000000001 -5 0  3.4 -5 0  3.5 -5 0  3.6 -5 0  3.699999999999999 -5 0  3.800000000000001 -5 0  3.9 -5 0  4 -5 0  4.1 -5 0  4.199999999999999 -5 0  4.300000000000001 -5 0  4.4 -5 0  4.5 -5 0  4.6 -5 0  4.699999999999999 -5 0  4.800000000000001 -5 0  4.9 -5 0  5 -5 0  -5 -4.9 0  -4.9 -4.9 0  -4.8 -4.9 0  -4.7 -4.9 0  -4.6 -4.9 0  -4.5 -4.9 0  -4.4 -4.9 0  -4.3 -4.9 0  -4.2 -4.9 0  -4.1 -4.9 0  -4 -4.9 0  -3.9 -4.9 0  -3.8 -4.9 0  -3.7 -4.9 0  -3.6 -4.9 0  -3.5 -4.9 0  -3.4 -4.9 0  -3.3 -4.9 0  -3.2 -4.9 0  -3.1 -4.9 0  -3 -4.9 0  -2.9 -4.9 0  -2.8 -4.9 0  -2.7 -4.9 0  -2.6 -4.9 0  -2.5 -4.9 0  -2.4 -4.9 0  -2.3 -4.9 0  -2.2 -4.9 0  -2.1 -4.9 0  -2 -4.9 0  -1.9 -4.9 0  -1.8 -4.9 0  -1.7 -4.9 0  -1.6 -4.9 0  -1.5 -4.9 0  -1.4 -4.9 0  -1.3 -4.9 0  -1.2 -4.9 0  -1.1 -4.9 0  -1 -4.9 0  -0.9000000000000004 -4.9 0  -0.7999999999999998 -4.9 0  -0.7000000000000002 -4.9 0  -0.5999999999999996 -4.9 0  -0.5 -4.9 0  -0.4000000000000004 -4.9 0  -0.2999999999999998 -4.9 0  -0.2000000000000002 -4.9 0  -0.09999999999999964 -4.9 0  0 -4.9 0  0.09999999999999964 -4.9 0  0.2000000000000002 -4.9 0  0.2999999999999998 -4.9 0  0.4000000000000004 -4.9 0  0.5 -4.9 0  0.5999999999999996 -4.9 0  0.7000000000000002 -4.9 0  0.7999999999999998 -4.9 0  0.9000000000000004 -4.9 0  1 -4.9 0  1.1 -4.9 0  1.2 -4.9 0  1.3 -4.9 0  1.4 -4.9 0  1.5 -4.9 0  1.6 -4.9 0  1.7 -4.9 0  1.8 -4.9 0  1.9 -4.9 0  2 -4.9 0  2.1 -4.9 0  2.2 -4.9 0  2.3 -4.9 0  2.4 -4.9 0  2.5 -4.9 0  2.6 -4.9 0  2.7 -4.9 0  2.8 -4.9 0  2.9 -4.9 0  3 -4.9 0  3.1 -4.9 0  3.199999999999999 -4.9 0  3.300000000000001 -4.9 0  3.4 -4.9 0  3.5 -4.9 0  3.6 -4.9 0  3.699999999999999 -4.9 0  3.800000000000001 -4.9 0  3.9 -4.9 0  4 -4.9 0  4.1 -4.9 0  4.199999999999999 -4.9 0  4.300000000000001 -4.9 0  4.4 -4.9 0  4.5 -4.9 0  4.6 -4.9 0  4.699999999999999 -4.9 0  4.800000000000001 -4.9 0  4.9 -4.9 0  5 -4.9 0  -5 -4.8 0  -4.9 -4.8 0  -4.8 -4.8 0  -4.7 -4.8 0  -4.6 -4.8 0  -4.5 -4.8 0  -4.4 -4.8 0  -4.3 -4.8 0  -4.2 -4.8 0  -4.1 -4.8 0  -4 -4.8 0  -3.9 -4.8 0  -3.8 -4.8 0  -3.7 -4.8 0  -3.6 -4.8 0  -3.5 -4.8 0  -3.4 -4.8 0  -3.3 -4.8 0  -3.2 -4.8 0  -3.1 -4.8 0  -3 -4.8 0  -2.9 -4.8 0  -2.8 -4.8 0  -2.7 -4.8 0  -2.6 -4.8 0  -2.5 -4.8 0  -2.4 -4.8 0  -2.3 -4.8 0  -2.2 -4.8 0  -2.1 -4.8 0  -2 -4.8 0  -1.9 -4.8 0  -1.8 -4.8 0  -1.7 -4.8 0  -1.6 -4.8 0  -1.5 -4.8 0  -1.4 -4.8 0  -1.3 -4.8 0  -1.2 -4.8 0  -1.1 -4.8 0  -1 -4.8 0  -0.9000000000000004 -4.8 0  -0.7999999999999998 -4.8 0  -0.7000000000000002 -4.8 0  -0.5999999999999996 -4.8 0  -0.5 -4.8 0  -0.4000000000000004 -4.8 0  -0.2999999999999998 -4.8 0  -0.2000000000000002 -4.8 0  -0.09999999999999964 -4.8 0  0 -4.8 0  0.09999999999999964 -4.8 0  0.2000000000000002 -4.8 0  0.2999999999999998 -4.8 0  0.4000000000000004 -4.8 0  0.5 -4.8 0  0.5999999999999996 -4.8 0  0.7000000000000002 -4.8 0  0.7999999999999998 -4.8 0  0.9000000000000004 -4.8 0  1 -4.8 0  1.1 -4.8 0  1.2 -4.8 0  1.3 -4.8 0  1.4 -4.8 0  1.5 -4.8 0  1.6 -4.8 0  1.7 -4.8 0  1.8 -4.8 0  1.9 -4.8 0  2 -4.8 0  2.1 -4.8 0  2.2 -4.8 0  2.3 -4.8 0  2.4 -4.8 0  2.5 -4.8 0  2.6 -4.8 0  2.7 -4.8 0  2.8 -4.8 0  2.9 -4.8 0  3 -4.8 0  3.1 -4.8 0  3.199999999999999 -4.8 0  3.300000000000001 -4.8 0  3.4 -4.8 0  3.5 -4.8 0  3.6 -4.8 0  3.699999999999999 -4.8 0  3.800000000000001 -4.8 0  3.9 -4.8 0  4 -4.8 0  4.1 -4.8 0  4.199999999999999 -4.8 0  4.300000000000001 -4.8 0  4.4 -4.8 0  4.5 -4.8 0  4.6 -4.8 0  4.699999999999999 -4.8 0  4.800000000000001 -4.8 0  4.9 -4.8 0  5 -4.8 0  -5 -4.7 0  -4.9 -4.7 0  -4.8 -4.7 0  -4.7 -4.7 0  -4.6 -4.7 0  -4.5 -4.7 0  -4.4 -4.7 0  -4.3 -4.7 0  -4.2 -4.7 0  -4.1 -4.7 0  -4 -4.7 0  -3.9 -4.7 0  -3.8 -4.7 0  -3.7 -4.7 0  -3.6 -4.7 0  -3.5 -4.7 0  -3.4 -4.7 0  -3.3 -4.7 0  -3.2 -4.7 0  -3.1 -4.7 0  -3 -4.7 0  -2.9 -4.7 0  -2.8 -4.7 0  -2.7 -4.7 0  -2.6 -4.7 0  -2.5 -4.7 0  -2.4 -4.7 0  -2.3 -4.7 0  -2.2 -4.7 0  -2.1 -4.7 0  -2 -4.7 0  -1.9 -4.7 0  -1.8 -4.7 0  -1.7 -4.7 0  -1.6 -4.7 0  -1.5 -4.7 0  -1.4 -4.7 0  -1.3 -4.7 0  -1.2 -4.7 0  -1.1 -4.7 0  -1 -4.7 0  -0.9000000000000004 -4.7 0  -0.7999999999999998 -4.7 0  -0.7000000000000002 -4.7 0  -0.5999999999999996 -4.7 0  -0.5 -4.7 0  -0.4000000000000004 -4.7 0  -0.2999999999999998 -4.7 0  -0.2000000000000002 -4.7 0  -0.09999999999999964 -4.7 0  0 -4.7 0  0.09999999999999964 -4.7 0  0.2000000000000002 -4.7 0  0.2999999999999998 -4.7 0  0.4000000000000004 -4.7 0  0.5 -4.7 0  0.5999999999999996 -4.7 0  0.7000000000000002 -4.7 0  0.7999999999999998 -4.7 0  0.9000000000000004 -4.7 0  1 -4.7 0  1.1 -4.7 0  1.2 -4.7 0  1.3 -4.7 0  1.4 -4.7 0  1.5 -4.7 0  1.6 -4.7 0  1.7 -4.7 0  1.8 -4.7 0  1.9 -4.7 0  2 -4.7 0  2.1 -4.7 0  2.2 -4.7 0  2.3 -4.7 0  2.4 -4.7 0  2.5 -4.7 0  2.6 -4.7 0  2.7 -4.7 0  2.8 -4.7 0  2.9 -4.7 0  3 -4.7 0  3.1 -4.7 0  3.199999999999999 -4.7 0  3.300000000000001 -4.7 0  3.4 -4.7 0  3.5 -4.7 0  3.6 -4.7 0  3.699999999999999 -4.7 0  3.800000000000001 -4.7 0  3.9 -4.7 0  4 -4.7 0  4.1 -4.7 0  4.199999999999999 -4.7 0  4.300000000000001 -4.7 0  4.4 -4.7 0  4.5 -4.7 0  4.6 -4.7 0  4.699999999999999 -4.7 0  4.800000000000001 -4.7 0  4.9 -4.7 0  5 -4.7 0  -5 -4.6 0  -4.9 -4.6 0  -4.8 -4.6 0  -4.7 -4.6 0  -4.6 -4.6 0  -4.5 -4.6 0  -4.4 -4.6 0  -4.3 -4.6 0  -4.2 -4.6 0  -4.1 -4.6 0  -4 -4.6 0  -3.9 -4.6 0  -3.8 -4.6 0  -3.7 -4.6 0  -3.6 -4.6 0  -3.5 -4.6 0  -3.4 -4.6 0  -3.3 -4.6 0  -3.2 -4.6 0  -3.1 -4.6 0  -3 -4.6 0  -2.9 -4.6 0  -2.8 -4.6 0  -2.7 -4.6 0  -2.6 -4.6 0  -2.5 -4.6 0  -2.4 -4.6 0  -2.3 -4.6 0  -2.2 -4.6 0  -2.1 -4.6 0  -2 -4.6 0  -1.9 -4.6 0  -1.8 -4.6 0  -1.7 -4.6 0  -1.6 -4.6 0  -1.5 -4.6 0  -1.4 -4.6 0  -1.3 -4.6 0  -1.2 -4.6 0  -1.1 -4.6 0  -1 -4.6 0  -0.9000000000000004 -4.6 0  -0.7999999999999998 -4.6 0  -0.7000000000000002 -4.6 0  -0.5999999999999996 -4.6 0  -0.5 -4.6 0  -0.4000000000000004 -4.6 0  -0.2999999999999998 -4.6 0  -0.2000000000000002 -4.6 0  -0.09999999999999964 -4.6 0  0 -4.6 0  0.09999999999999964 -4.6 0  0.2000000000000002 -4.6 0  0.2999999999999998 -4.6 0  0.4000000000000004 -4.6 0  0.5 -4.6 0  0.5999999999999996 -4.6 0  0.7000000000000002 -4.6 0  0.7999999999999998 -4.6 0  0.9000000000000004 -4.6 0  1 -4.6 0  1.1 -4.6 0  1.2 -4.6 0  1.3 -4.6 0  1.4 -4.6 0  1.5 -4.6 0  1.6 -4.6 0  1.7 -4.6 0  1.8 -4.6 0  1.9 -4.6 0  2 -4.6 0  2.1 -4.6 0  2.2 -4.6 0  2.3 -4.6 0  2.4 -4.6 0  2.5 -4.6 0  2.6 -4.6 0  2.7 -4.6 0  2.8 -4.6 0  2.9 -4.6 0  3 -4.6 0  3.1 -4.6 0  3.199999999999999 -4.6 0  3.300000000000001 -4.6 0  3.4 -4.6 0  3.5 -4.6 0  3.6 -4.6 0  3.699999999999999 -4.6 0  3.800000000000001 -4.6 0  3.9 -4.6 0  4 -4.6 0  4.1 -4.6 0  4.199999999999999 -4.6 0  4.300000000000001 -4.6 0  4.4 -4.6 0  4.5 -4.6 0  4.6 -4.6 0  4.699999999999999 -4.6 0  4.800000000000001 -4.6 0  4.9 -4.6 0  5 -4.6 0  -5 -4.5 0  -4.9 -4.5 0  -4.8 -4.5 0  -4.7 -4.5 0  -4.6 -4.5 0  -4.5 -4.5 0  -4.4 -4.5 0  -4.3 -4.5 0  -4.2 -4.5 0  -4.1 -4.5 0  -4 -4.5 0  -3.9 -4.5 0  -3.8 -4.5 0  -3.7 -4.5 0  -3.6 -4.5 0  -3.5 -4.5 0  -3.4 -4.5 0  -3.3 -4.5 0  -3.2 -4.5 0  -3.1 -4.5 0  -3 -4.5 0  -2.9 -4.5 0  -2.8 -4.5 0  -2.7 -4.5 0  -2.6 -4.5 0  -2.5 -4.5 0  -2.4 -4.5 0  -2.3 -4.5 0  -2.2 -4.5 0  -2.1 -4.5 0  -2 -4.5 0  -1.9 -4.5 0  -1.8 -4.5 0  -1.7 -4.5 0  -1.6 -4.5 0  -1.5 -4.5 0  -1.4 -4.5 0  -1.3 -4.5 0  -1.2 -4.5 0  -1.1 -4.5 0  -1 -4.5 0  -0.9000000000000004 -4.5 0  -0.7999999999999998 -4.5 0  -0.7000000000000002 -4.5 0  -0.5999999999999996 -4.5 0  -0.5 -4.5 0  -0.4000000000000004 -4.5 0  -0.2999999999999998 -4.5 0  -0.2000000000000002 -4.5 0  -0.09999999999999964 -4.5 0  0 -4.5 0  0.09999999999999964 -4.5 0  0.2000000000000002 -4.5 0  0.2999999999999998 -4.5 0  0.4000000000000004 -4.5 0  0.5 -4.5 0  0.5999999999999996 -4.5 0  0.7000000000000002 -4.5 0  0.7999999999999998 -4.5 0  0.9000000000000004 -4.5 0  1 -4.5 0  1.1 -4.5 0  1.2 -4.5 0  1.3 -4.5 0  1.4 -4.5 0  1.5 -4.5 0  1.6 -4.5 0  1.7 -4.5 0  1.8 -4.5 0  1.9 -4.5 0  2 -4.5 0  2.1 -4.5 0  2.2 -4.5 0  2.3 -4.5 0  2.4 -4.5 0  2.5 -4.5 0  2.6 -4.5 0  2.7 -4.5 0  2.8 -4.5 0  2.9 -4.5 0  3 -4.5 0  3.1 -4.5 0  3.199999999999999 -4.5 0  3.300000000000001 -4.5 0  3.4 -4.5 0  3.5 -4.5 0  3.6 -4.5 0  3.699999999999999 -4.5 0  3.800000000000001 -4.5 0  3.9 -4.5 0  4 -4.5 0  4.1 -4.5 0  4.199999999999999 -4.5 0  4.300000000000001 -4.5 0  4.4 -4.5 0  4.5 -4.5 0  4.6 -4.5 0  4.699999999999999 -4.5 0  4.800000000000001 -4.5 0  4.9 -4.5 0  5 -4.5 0  -5 -4.4 0  -4.9 -4.4 0  -4.8 -4.4 0  -4.7 -4.4 0  -4.6 -4.4 0  -4.5 -4.4 0  -4.4 -4.4 0  -4.3 -4.4 0  -4.2 -4.4 0  -4.1 -4.4 0  -4 -4.4 0  -3.9 -4.4 0  -3.8 -4.4 0  -3.7 -4.4 0  -3.6 -4.4 0  -3.5 -4.4 0  -3.4 -4.4 0  -3.3 -4.4 0  -3.2 -4.4 0  -3.1 -4.4 0  -3 -4.4 0  -2.9 -4.4 0  -2.8 -4.4 0  -2.7 -4.4 0  -2.6 -4.4 0  -2.5 -4.4 0  -2.4 -4.4 0  -2.3 -4.4 0  -2.2 -4.4 0  -2.1 -4.4 0  -2 -4.4 0  -1.9 -4.4 0  -1.8 -4.
[...]
<PointData  Vectors="f_17"> 
<DataArray  type="Float64"  Name="f_17"  NumberOfComponents="3" format="ascii">1.5000000000000008e-01 0.0000000000000000e+00 0.0000000000000000e+00  1.5000000000000008e-01 -3.8867459855730221e-16 0.0000000000000000e+00  1.5000000000000002e-01 2.7360470038501287e-16 0.0000000000000000e+00  1.5000000000000019e-01 -4.2507741737563888e-17 0.0000000000000000e+00  1.5000000000000005e-01 9.2251197659976753e-17 0.0000000000000000e+00  1.4999999999999999e-01 -2.9399199183795525e-16 0.0000000000000000e+00  1.4999999999999977e-01 7.4386774304831329e-17 0.0000000000000000e+00  1.5000000000000038e-01 7.2729649892597568e-16 0.0000000000000000e+00  1.5000000000000002e-01 1.3756309501039658e-17 0.0000000000000000e+00  1.5000000000000005e-01 5.1696233624566174e-17 0.0000000000000000e+00  1.5000000000000005e-01 -5.5734029596626384e-16 0.0000000000000000e+00  1.4999999999999999e-01 2.0301693781413307e-16 0.0000000000000000e+00  1.4999999999999988e-01 -1.6549928256394983e-16 0.0000000000000000e+00  1.5000000000000005e-01 -6.4707688245715359e-17 0.0000000000000000e+00  1.4999999999999997e-01 -8.1162236961343403e-17 0.0000000000000000e+00  1.4999999999999986e-01 1.6996532463188450e-16 0.0000000000000000e+00  1.5000000000000022e-01 5.5068767256646975e-17 0.0000000000000000e+00  1.4999999999999997e-01 1.5778424358825605e-16 0.0000000000000000e+00  1.5000000000000008e-01 -5.8504883746873737e-16 0.0000000000000000e+00  1.5000000000000027e-01 -7.5231538465211146e-16 0.0000000000000000e+00  1.5000000000000066e-01 2.3421857305004377e-16 0.0000000000000000e+00  1.5000000000000080e-01 8.6347469186950415e-16 0.0000000000000000e+00  1.4999999999999869e-01 2.7397240633606523e-15 0.0000000000000000e+00  1.4999999999999314e-01 4.6267712827603653e-15 0.0000000000000000e+00  1.4999999999998592e-01 3.5503307884622574e-15 0.0000000000000000e+00  1.4999999999998262e-01 7.2338561203304198e-16 0.0000000000000000e+00  1.4999999999998667e-01 -3.6082200060998946e-15 0.0000000000000000e+00  1.4999999999999544e-01 -5.2445392290865132e-15 0.0000000000000000e+00  1.5000000000000241e-01 -3.9238425685465993e-15 0.0000000000000000e+00  1.5000000000000327e-01 -6.0676189282878833e-16 0.0000000000000000e+00  1.5000000000000110e-01 1.2282378727240404e-15 0.0000000000000000e+00  1.4999999999999933e-01 1.2119565758778212e-15 0.0000000000000000e+00  1.4999999999999969e-01 -3.1290821543299364e-16 0.0000000000000000e+00  1.5000000000000024e-01 -7.1991490934531201e-16 0.0000000000000000e+00  1.4999999999999997e-01 8.5434128937182369e-17 0.0000000000000000e+00  1.5000000000000002e-01 2.5398038407816748e-16 0.0000000000000000e+00  1.5000000000000027e-01 5.1836968996014185e-16 0.0000000000000000e+00  1.5000000000000002e-01 -3.3333897811157363e-16 0.0000000000000000e+00  1.5000000000000005e-01 1.8921774571582847e-16 0.0000000000000000e+00  1.4999999999999997e-01 3.1787305417470454e-17 0.0000000000000000e+00  1.5000000000000005e-01 -5.8775173393887028e-16 0.0000000000000000e+00  1.5000000000000002e-01 1.5040279888041653e-16 0.0000000000000000e+00  1.5000000000000008e-01 8.2586049314946779e-17 0.0000000000000000e+00  1.4999999999999999e-01 -1.7558098355921662e-17 0.0000000000000000e+00  1.4999999999999999e-01 -2.6236971907174817e-16 0.0000000000000000e+00  1.4999999999999999e-01 1.1519185388601083e-16 0.0000000000000000e+00  1.4999999999999997e-01 -7.1562798413318418e-17 0.0000000000000000e+00  1.5000000000000008e-01 -1.1506792366234290e-16 0.0000000000000000e+00  1.5000000000000016e-01 -2.2445439657849974e-17 0.0000000000000000e+00  1.4999999999999997e-01 1.3352570641778663e-17 0.0000000000000000e+00  1.5000000000000011e-01 -9.7747550922054586e-18 0.0000000000000000e+00  1.5000000000000002e-01 4.4947894903446043e-17 0.0000000000000000e+00  1.5000000000000011e-01 1.7188104125239553e-16 0.0000000000000000e+00  1.5000000000000008e-01 6.0905244233049032e-16 0.0000000000000000e+00  1.4999999999999988e-01 -2.9599745654425975e-16 0.0000000000000000e+00  1.5000000000000027e-01 -8.0648616219123365e-16 0.0000000000000000e+00  1.5000000000000011e-01 4.6218149515104219e-16 0.0000000000000000e+00  1.5000000000000016e-01 2.1536038043098673e-16 0.0000000000000000e+00  1.4999999999999986e-01 1.6924370947785742e-16 0.0000000000000000e+00  1.5000000000000008e-01 -2.6313968772537261e-16 0.0000000000000000e+00  1.5000000000000002e-01 3.0097611166882327e-17 0.0000000000000000e+00  1.5000000000000002e-01 -3.7883356765139494e-17 0.0000000000000000e+00  1.5000000000000005e-01 1.2605692444634866e-16 0.0000000000000000e+00  1.5000000000000002e-01 -8.0936549851209673e-17 0.0000000000000000e+00  1.5000000000000008e-01 -2.2378909096538074e-17 0.0000000000000000e+00  1.5000000000000008e-01 -5.1202264492399039e-16 0.0000000000000000e+00  1.5000000000000011e-01 -1.1026155975221093e-16 0.0000000000000000e+00  1.5000000000000016e-01 1.8385676486647901e-16 0.0000000000000000e+00  1.5000000000000016e-01 -1.0894889833512794e-16 0.0000000000000000e+00  1.4999999999999999e-01 3.9773845888677973e-17 0.0000000000000000e+00  1.4999999999999994e-01 3.7100637787504548e-16 0.0000000000000000e+00  1.5000000000000005e-01 -3.5319876307232368e-17 0.0000000000000000e+00  1.5000000000000005e-01 -1.0334607101322347e-16 0.0000000000000000e+00  1.4999999999999983e-01 9.2436495343530467e-17 0.0000000000000000e+00  1.5000000000000005e-01 2.9459525827585689e-16 0.0000000000000000e+00  1.5000000000000002e-01 3.5838656402058478e-16 0.0000000000000000e+00  1.4999999999999986e-01 -4.0033452371579481e-16 0.0000000000000000e+00  1.5000000000000011e-01 1.9974924615083245e-16 0.0000000000000000e+00  1.5000000000000005e-01 -1.2854653901132838e-17 0.0000000000000000e+00  1.4999999999999994e-01 -8.7049282548536169e-17 0.0000000000000000e+00  1.5000000000000016e-01 -2.8919553762408896e-16 0.0000000000000000e+00  1.4999999999999997e-01 -3.6389735756772340e-16 0.0000000000000000e+00  1.4999999999999999e-01 3.6086520799332907e-16 0.0000000000000000e+00  1.5000000000000019e-01 -1.1724577967045533e-16 0.0000000000000000e+00  1.5000000000000002e-01 -1.2436413681003842e-16 0.0000000000000000e+00  1.4999999999999983e-01 3.9596767467297015e-16 0.0000000000000000e+00  1.4999999999999999e-01 2.0451158201688712e-16 0.0000000000000000e+00  1.4999999999999994e-01 2.5400853873334959e-16 0.0000000000000000e+00  1.5000000000000005e-01 -5.1672466925809465e-16 0.0000000000000000e+00  1.4999999999999994e-01 7.3956995284324325e-17 0.0000000000000000e+00  1.5000000000000008e-01 -6.2394631613514065e-16 0.0000000000000000e+00  1.4999999999999999e-01 2.1789851904544238e-16 0.0000000000000000e+00  1.5000000000000011e-01 4.8973738257638306e-16 0.0000000000000000e+00  1.5000000000000036e-01 2.6605965934078517e-16 0.0000000000000000e+00  1.5000000000000002e-01 -2.8102506520829690e-16 0.0000000000000000e+00  1.5000000000000002e-01 -1.3078563598893642e-16 0.0000000000000000e+00  1.5000000000000008e-01 -1.1937216224770881e-18 0.0000000000000000e+00  1.5000000000000022e-01 -1.0600763527150070e-16 0.0000000000000000e+00  1.4999999999999999e-01 -3.5440231386001639e-16 0.0000000000000000e+00  1.5000000000000008e-01 -4.8367779082636282e-17 0.0000000000000000e+00  1.5000000000000011e-01 0.0000000000000000e+00 0.0000000000000000e+00  1.4999999999999999e-01 0.0000000000000000e+00 -6.3482293009443286e-16  1.4999999999999999e-01 -2.9241460526256688e-17 3.6788822076440006e-17  1.5000000000000005e-01 -8.4141399746805717e-17 -1.8007337127579163e-16  1.5000000000000005e-01 -2.3585526851743421e-16 9.9221875410475509e-17  1.5000000000000005e-01 -4.4706742334491717e-17 1.0432773804074412e-16  1.5000000000000008e-01 -2.4863479195242022e-16 -1.6746228484280119e-16  1.5000000000000005e-01 5.8276055796391098e-16 -2.8515570336987511e-16  1.5000000000000008e-01 1.2264050937868365e-18 4.2684657099783540e-17  1.5000000000000002e-01 -1.4767830756923731e-16 1.1523166390092780e-16  1.4999999999999999e-01 9.5105176423463055e-17 -4.1361131742342383e-16  1.5000000000000002e-01 3.5957982160369313e-17 -1.0637979254310479e-16  1.5000000000000002e-01 3.9067124683783949e-16 1.7929759977677833e-16  1.5000000000000005e-01 -1.5699799984076897e-16 1.2288577021792799e-18  1.4999999999999999e-01 1.7600956381833641e-16 5.8854542398900467e-17  1.4999999999999997e-01 2.7359090922961847e-16 -5.2085100824797741e-17  1.5000000000000008e-01 -1.1320827238437290e-16 3.1173596910500962e-17  1.4999999999999999e-01 -5.5580596378008618e-17 1.4158809058542995e-16  1.5000000000000005e-01 -3.2957360693755937e-16 1.7710764063633856e-16  1.5000000000000005e-01 -1.9323393419499825e-16 -1.1266965132512219e-16  1.4999999999999991e-01 4.0343914883958695e-16 -1.1219113230635720e-16  1.4999999999999955e-01 2.9418905884753686e-16 -1.3685669216688564e-15  1.4999999999999875e-01 -7.4938845220428289e-16 -2.9919109645632037e-15  1.5000000000000005e-01 -2.2831588744571130e-15 8.4755346149109493e-16  1.5000000000000588e-01 -5.5864204804188107e-15 1.5747555990148201e-14  1.5000000000001551e-01 -5.5563680809660970e-15 4.0400573722077955e-14  1.5000000000002314e-01 -2.7395812964311771e-15 5.9046059708532734e-14  1.5000000000002200e-01 2.5197098714605603e-15 5.4254821460171948e-14  1.5000000000001143e-01 6.3479875713449499e-15 2.6688190805173860e-14  1.4999999999999977e-01 6.6909134362788420e-15 -2.9404599983830265e-15  1.4999999999999519e-01 2.9529855308295901e-15 -1.2964035423804078e-14  1.4999999999999739e-01 -3.9656730461950719e-16 -6.7808700091826660e-15  1.5000000000000052e-01 -1.9833847268103855e-15 1.2905441762374475e-15  1.5000000000000097e-01 -8.8400275429921134e-16 2.5988191139970080e-15  1.5000000000000005e-01 3.7698974987269051e-16 -1.9722723458038946e-16  1.4999999999999972e-01 5.3540937857690860e-16 -8.8652567938241344e-16  1.5000000000000019e-01 -1.7503483749427851e-16 9.7555403379507991e-17  1.5000000000000008e-01 -3.8091911676913910e-16 1.2365743964408444e-16  1.5000000000000005e-01 4.5669587511032867e-16 -2.6364754116167914e-16  1.5000000000000002e-01 3.5973564756642105e-16 7.6907153322742071e-17  1.5000000000000008e-01 -1.7093361975847945e-16 -1.7727239585233657e-17  1.5000000000000005e-01 -4.1339593298138089e-16 1.5772571422811593e-16  1.5000000000000008e-01 8.7706296093342702e-17 1.4329650809094598e-16  1.5000000000000005e-01 -1.5277543990607590e-16 -9.6365799097583842e-17  1.5000000000000011e-01 1.5970493757381957e-16 1.6476060678702562e-16  1.5000000000000011e-01 -3.8136568735683024e-16 -2.6049550438271305e-16  1.5000000000000013e-01 1.4529443951528082e-16 3.0691901048446546e-16  1.5000000000000011e-01 -1.3000580524286901e-16 2.3118831383485030e-16  1.5000000000000024e-01 -1.1084558997419240e-17 -2.7515727960693419e-16  1.5000000000000002e-01 3.2112113225293096e-16 1.0904726651520041e-16  1.5000000000000011e-01 3.9612479442372020e-18 -3.7464370833641185e-16  1.5000000000000016e-01 6.7505959427271402e-17 -9.6736482660271761e-17  1.5000000000000002e-01 3.5565633746593414e-16 1.4966396889729350e-16  1.5000000000000008e-01 -2.7751182847807759e-16 1.2628184854371627e-16  1.5000000000000008e-01 4.4435688501421799e-16 -1.4285761684294686e-16  1.5000000000000005e-01 1.2957726179368772e-16 -3.7933892341289273e-16  1.5000000000000005e-01 -4.0050087748986421e-16 -1.1887134605614840e-16  1.4999999999999994e-01 1.3932800294522844e-16 3.0877477704318560e-16  1.5000000000000002e-01 -1.4650339380874851e-16 -3.8155601319319633e-17  1.5000000000000005e-01 9.5257913995113122e-17 -3.6091011891428098e-16  1.5000000000000002e-01 -6.9648991079877010e-17 -5.3605356935914639e-17  1.5000000000000002e-01 -1.8134501110435775e-16 -1.0246523050739867e-16  1.5000000000000008e-01 -1.5466428556907543e-16 -2.0688606463837903e-16  1.5000000000000005e-01 1.1549889764264487e-16 -1.5591097214650985e-16  1.5000000000000008e-01 -3.1319436668351764e-16 1.2444871599511504e-16  1.5000000000000013e-01 -1.2920174443078804e-16 -1.8411659513510352e-16  1.5000000000000008e-01 -1.2214453950810319e-16 1.5837021957400770e-16  1.5000000000000011e-01 -2.5799163674116598e-16 3.0806538656704323e-16  1.5000000000000019e-01 1.4863655287500615e-16 -4.8209469391017588e-17  1.5000000000000008e-01 4.2922834052917690e-16 9.3724356640480933e-18  1.5000000000000002e-01 -5.1151916890859213e-17 2.3850157832381375e-16  1.5000000000000022e-01 3.5496684173523259e-16 -1.4786338873388525e-16  1.5000000000000005e-01 2.3964484743238456e-18 -1.2213022180337012e-17  1.5000000000000005e-01 2.7510738976562586e-17 9.9004368290888040e-17  1.4999999999999999e-01 3.3715267670771238e-17 1.6315231108718909e-16  1.5000000000000002e-01 9.2534545293504406e-17 1.2452483930111671e-16  1.5000000000000005e-01 -2.8337956782367723e-16 -3.2857613687851878e-16  1.5000000000000005e-01 -4.6580405619532908e-17 -6.4593071848517801e-16  1.5000000000000016e-01 -4.4531253173583317e-16 1.5268439360685655e-16  1.5000000000000016e-01 -1.4682067778422632e-17 -1.1743020158039455e-17  1.5000000000000013e-01 1.5500334009140940e-16 -1.8466421196791419e-16  1.5000000000000005e-01 5.2705351332847288e-16 -3.7070332884732742e-16  1.5000000000000002e-01 1.7477343113823010e-16 9.8926937726498898e-17  1.5000000000000013e-01 -2.4968233013308189e-16 3.7003658201359484e-16  1.5000000000000008e-01 1.5007576610623135e-16 -2.9125355423047072e-16  1.5000000000000005e-01 -3.1734075087464406e-16 4.3455205184118972e-17  1.5000000000000008e-01 -1.1347796320326259e-16 7.4206896146263577e-17  1.5000000000000005e-01 4.4741997936544491e-16 7.5007761184125326e-17  1.5000000000000005e-01 -1.3670297695359758e-16 8.1688118704164145e-17  1.5000000000000008e-01 -1.7716234343357863e-17 1.7729596521273952e-16  1.4999999999999999e-01 -1.6347984500001178e-16 3.5207923441971888e-16  1.5000000000000005e-01 -1.7527127198674284e-16 2.3202349577488686e-16  1.5000000000000008e-01 4.2122445545929164e-16 -2.8304115646382263e-17  1.5000000000000005e-01 3.9390910649035703e-16 -2.5008993709584676e-17  1.5000000000000013e-01 2.6759528768673813e-16 -2.2269690666874109e-16  1.5000000000000005e-01 -7.8769275144366189e-16 -1.1559682556070244e-16  1.5000000000000005e-01 -2.4430936511825955e-16 1.5819575657570303e-16  1.4999999999999991e-01 2.7821129221224095e-16 -1.8264361678431678e-16  1.5000000000000002e-01 3.2500119396806165e-16 -8.2496268124089892e-17  1.5000000000000016e-01 7.7027072676337629e-17 1.3901719049391242e-16  1.5000000000000005e-01 -1.4746292712497417e-16 -2.6699308559274645e-16  1.4999999999999999e-01 0.0000000000000000e+00 3.3540850237208944e-16  1.5000000000000011e-01 0.0000000000000000e+00 1.0576567355244632e-16  1.5000000000000013e-01 -3.8641884111226310e-16 -1.4278667172276067e-17  1.4999999999999999e-01 7.3857986709690646e-17 -5.4823185724317450e-16  1.5000000000000005e-01 3.6990919499012171e-16 6.1699202075223232e-17  1.5000000000000019e-01 -1.4657941130737175e-16 -3.1364750817159474e-16  1.5000000000000008e-01 -2.7481841686360173e-16 -3.4528032177507977e-16  1.4999999999999999e-01 1.0708202653929914e-16 -2.7849737414439132e-16  1.5000000000000005e-01 2.3400663182343733e-16 -3.1937939043980730e-16  1.5000000000000011e-01 5.9463278918233024e-16 -6.7969717085668933e-16  1.5000000000000002e-01 -2.5432133197654692e-16 7.6962660885688058e-17  1.5000000000000002e-01 1.3573993989189098e-16 4.2654967165324238e-17  1.5000000000000005e-01 4.3130600825982907e-17 -3.1029920000687835e-16  1.4999999999999994e-01 -3.5111953658696756e-16 -1.5968086537645488e-16  1.4999999999999991e-01 1.5978515737181103e-16 -3.1509054171070055e-16  1.5000000000000005e-01 -2.4582813719625240e-16 -1.8157022674084042e-16  1.4999999999999988e-01 -3.1663787664285366e-16 -4.7595880630147758e-16  1.5000000000000008e-01 4.4300264182139835e-16 -9.0721849369331014e-16  1.5000000000000013e-01 -1.9132129600090623e-16 -6.4964852083617588e-16  1.5000000000000002e-01 8.2629907209018132e-17 -5.4743568051884009e-16  1.5000000000000002e-01 -4.3730816090978932e-16 -9.7734637381727702e-17  1.5000000000000063e-01 -1.2493243743914356e-15 1.8366368545738624e-15  1.5000000000000208e-01 -7.2978925524268330e-17 6.6307485538675217e-15  1.5000000000000194e-01 3.5420183589762753e-15 6.0283087057790772e-15  1.4999999999999514e-01 8.6747867416155072e-15 -1.7102597979437448e-14  1.4999999999997871e-01 1.2950223098709531e-14 -7.4357775667684715e-14  1.4999999999995919e-01 9.1844093413165345e-15 -1.4060034100378543e-13  1.4999999999995242e-01 -4.6192091145590902e-16 -1.6341560610904026e-13  1.4999999999996624e-01 -1.1443337759827607e-14 -1.1404342095503997e-13  1.4999999999999158e-01 -1.4873440484442186e-14 -2.7458448941701638e-14  1.5000000000000799e-01 -9.1705447128861076e-15 2.9451321207828528e-14  1.5000000000000860e-01 -1.6131258099254398e-15 2.9704769442224993e-14  1.5000000000000135e-01 3.2602405874739705e-15 4.3023522910372525e-15  1.4999999999999786e-01 2.8593501647329025e-15 -8.2354272676866081e-15  1.4999999999999922e-01 -3.7276455504118607e-16 -3.0928870592632538e-15  1.5000000000000063e-01 -1.0386230979294609e-15 2.4271190781619699e-15  1.5000000000000016e-01 -3.6663728971630474e-16 6.7510758207101446e-16  1.4999999999999986e-01 8.3956453848222033e-16 -1.0321880330165787e-15  1.4999999999999994e-01 5.0549613824408095e-16 1.1765785678542666e-16  1.5000000000000019e-01 -2.0586836006274704e-16 1.4561989067314840e-16  1.4999999999999991e-01 -2.4898386341726813e-16 -1.9746284488404673e-16  1.4999999999999997e-01 1.7232636917954769e-17 -3.4364628119920337e-16  1.4999999999999999e-01 -2.3433306494629262e-16 -1.7344318226485519e-16  1.5000000000000008e-01 9.2369305621449632e-17 2.2110605397547383e-16  1.5000000000000005e-01 -1.9429341922249973e-16 -3.2790882232514671e-16  1.4999999999999999e-01 -1.7053894797033592e-17 -1.8504827256899346e-16  1.5000000000000008e-01 3.5236217853100262e-16 3.1306104195895522e-16  1.4999999999999994e-01 -1.3196944290112865e-16 -1.8597574850776815e-16  1.4999999999999999e-01 -2.8485470420346695e-16 5.3022444373230058e-16  1.5000000000000008e-01 1.3059257480545985e-16 1.9635946268239800e-16  1.5000000000000011e-01 -6.9328182667284755e-16 1.2403095170678396e-16  1.5000000000000002e-01 6.8339623009453020e-16 8.1388041459301805e-17  1.5000000000000008e-01 -1.3123572891009922e-16 -9.0303192451691921e-17  1.5000000000000002e-01 6.2234359145707822e-17 -4.6244204347413032e-16  1.4999999999999999e-01 2.3274003926966799e-16 -4.6520958923017721e-17  1.5000000000000005e-01 -2.7748268754979634e-16 -4.6675417217999638e-16  1.5000000000000005e-01 1.7866054401986133e-17 -3.8211281012386718e-16  1.5000000000000002e-01 -3.8719238351315330e-17 -1.2357838274724273e-17  1.5000000000000011e-01 2.1694584213446748e-17 -2.5524758502063295e-16  1.5000000000000016e-01 1.7201877326709814e-16 2.3224374983156130e-16  1.5000000000000002e-01 -1.5623628999455920e-16 -7.6598870726452279e-17  1.5000000000000016e-01 -6.7980900865414440e-17 -4.7187953422023089e-16  1.4999999999999994e-01 -3.1183127239673565e-17 8.2857761654983132e-17  1.5000000000000005e-01 1.5645723923423081e-16 -4.9780827315629528e-17  1.5000000000000005e-01 1.8586989416401446e-16 -1.9212968277696128e-16  1.5000000000000002e-01 6.3119142081267982e-17 4.9648205378064001e-16  1.5000000000000002e-01 -1.2483012972503119e-16 4.7250432938351427e-16  1.5000000000000005e-01 -1.6333104630843146e-16 9.1361448860211109e-17  1.5000000000000005e-01 -3.9309240840653882e-17 7.0592199251224813e-16  1.5000000000000005e-01 -4.6009655885685922e-17 2.7612978854854948e-16  1.5000000000000002e-01 1.1364665240143599e-16 -1.4327146013814425e-16  1.5000000000000013e-01 -4.8115878323193447e-17 4.7818035988389067e-16  1.5000000000000005e-01 2.0471046097985914e-17 1.6320434175979194e-16  1.5000000000000005e-01 2.2287964522447619e-16 -1.5200215676640502e-16  1.5000000000000002e-01 -1.8542747163006473e-16 -1.1323006969966918e-17  1.5000000000000005e-01 7.9118133096782946e-17 -4.8052568718034156e-16  1.5000000000000005e-01 -3.0021681342809013e-16 -7.8265073737323775e-18  1.5000000000000013e-01 -1.2180164991517325e-16 3.5557202087091069e-17  1.5000000000000002e-01 4.5957139269424668e-16 -3.5053898466552900e-16  1.4999999999999999e-01 3.7037906151512421e-16 -1.1344