<?xml version="1.0"?>
<VTKFile type="UnstructuredGrid"  version="0.1"  >
<UnstructuredGrid>
<Piece  NumberOfPoints="10201" NumberOfCells="20000">
<Points>
<DataArray  type="Float64"  NumberOfComponents="3"  format="ascii">-5 -5 0  -4.9 -5 0  -4.8 -5 0  -4.7 -5 0  -4.6 -5 0  -4.5 -5 0  -4.4 -5 0  -4.3 -5 0  -4.2 -5 0  -4.1 -5 0  -4 -5 0  -3.9 -5 0  -3.8 -5 0  -3.7 -5 0  -3.6 -5 0  -3.5 -5 0  -3.4 -5 0  -3.3 -5 0  -3.2 -5 0  -3.1 -5 0  -3 -5 0  -2.9 -5 0  -2.8 -5 0  -2.7 -5 0  -2.6 -5 0  -2.5 -5 0  -2.4 -5 0  -2.3 -5 0  -2.2 -5 0  -2.1 -5 0  -2 -5 0  -1.9 -5 0  -1.8 -5 0  -1.7 -5 0  -1.6 -5 0  -1.5 -5 0  -1.4 -5 0  -1.3 -5 0  -1.2 -5 0  -1.1 -5 0  -1 -5 0  -0.9000000000000004 -5 0  -0.7999999999999998 -5 0  -0.7000000000000002 -5 0  -0.5999999999999996 -5 0  -0.5 -5 0  -0.4000000000000004 -5 0  -0.2999999999999998 -5 0  -0.2000000000000002 -5 0  -0.09999999999999964 -5 0  0 -5 0  0.09999999999999964 -5 0  0.2000000000000002 -5 0  0.2999999999999998 -5 0  0.4000000000000004 -5 0  0.5 -5 0  0.5999999999999996 -5 0  0.7000000000000002 -5 0  0.7999999999999998 -5 0  0.9000000000000004 -5 0  1 -5 0  1.1 -5 0  1.2 -5 0  1.3 -5 0  1.4 -5 0  1.5 -5 0  1.6 -5 0  1.7 -5 0  1.8 -5 0  1.9 -5 0  2 -5 0  2.1 -5 0  2.2 -5 0  2.3 -5 0  2.4 -5 0  2.5 -5 0  2.6 -5 0  2.7 -5 0  2.8 -5 0  2.9 -5 0  3 -5 0  3.1 -5 0  3.199999999999999 -5 0  3.300000000000001 -5 0  3.4 -5 0  3.5 -5 0  3.6 -5 0  3.699999999999999 -5 0  3.800000000000001 -5 0  3.9 -5 0  4 -5 0  4.1 -5 0  4.199999999999999 -5 0  4.300000000000001 -5 0  4.4 -5 0  4.5 -5 0  4.6 -5 0  4.699999999999999 -5 0  4.800000000000001 -5 0  4.9 -5 0  5 -5 0  -5 -4.9 0  -4.9 -4.9 0  -4.8 -4.9 0  -4.7 -4.9 0  -4.6 -4.9 0  -4.5 -4.9 0  -4.4 -4.9 0  -4.3 -4.9 0  -4.2 -4.9 0  -4.1 -4.9 0  -4 -4.9 0  -3.9 -4.9 0  -3.8 -4.9 0  -3.7 -4.9 0  -3.6 -4.9 0  -3.5 -4.9 0  -3.4 -4.9 0  -3.3 -4.9 0  -3.2 -4.9 0  -3.1 -4.9 0  -3 -4.9 0  -2.9 -4.9 0  -2.8 -4.9 0  -2.7 -4.9 0  -2.6 -4.9 0  -2.5 -4.9 0  -2.4 -4.9 0  -2.3 -4.9 0  -2.2 -4.9 0  -2.1 -4.9 0  -2 -4.9 0  -1.9 -4.9 0  -1.8 -4.9 0  -1.7 -4.9 0  -1.6 -4.9 0  -1.5 -4.9 0  -1.4 -4.9 0  -1.3 -4.9 0  -1.2 -4.9 0  -1.1 -4.9 0  -1 -4.9 0  -0.9000000000000004 -4.9 0  -0.7999999999999998 -4.9 0  -0.7000000000000002 -4.9 0  -0.5999999999999996 -4.9 0  -0.5 -4.9 0  -0.4000000000000004 -4.9 0  -0.2999999999999998 -4.9 0  -0.2000000000000002 -4.9 0  -0.09999999999999964 -4.9 0  0 -4.9 0  0.09999999999999964 -4.9 0  0.2000000000000002 -4.9 0  0.2999999999999998 -4.9 0  0.4000000000000004 -4.9 0  0.5 -4.9 0  0.5999999999999996 -4.9 0  0.7000000000000002 -4.9 0  0.7999999999999998 -4.9 0  0.9000000000000004 -4.9 0  1 -4.9 0  1.1 -4.9 0  1.2 -4.9 0  1.3 -4.9 0  1.4 -4.9 0  1.5 -4.9 0  1.6 -4.9 0  1.7 -4.9 0  1.8 -4.9 0  1.9 -4.9 0  2 -4.9 0  2.1 -4.9 0  2.2 -4.9 0  2.3 -4.9 0  2.4 -4.9 0  2.5 -4.9 0  2.6 -4.9 0  2.7 -4.9 0  2.8 -4.9 0  2.9 -4.9 0  3 -4.9 0  3.1 -4.9 0  3.199999999999999 -4.9 0  3.300000000000001 -4.9 0  3.4 -4.9 0  3.5 -4.9 0  3.6 -4.9 0  3.699999999999999 -4.9 0  3.800000000000001 -4.9 0  3.9 -4.9 0  4 -4.9 0  4.1 -4.9 0  4.199999999999999 -4.9 0  4.300000000000001 -4.9 0  4.4 -4.9 0  4.5 -4.9 0  4.6 -4.9 0  4.699999999999999 -4.9 0  4.800000000000001 -4.9 0  4.9 -4.9 0  5 -4.9 0  -5 -4.8 0  -4.9 -4.8 0  -4.8 -4.8 0  -4.7 -4.8 0  -4.6 -4.8 0  -4.5 -4.8 0  -4.4 -4.8 0  -4.3 -4.8 0  -4.2 -4.8 0  -4.1 -4.8 0  -4 -4.8 0  -3.9 -4.8 0  -3.8 -4.8 0  -3.7 -4.8 0  -3.6 -4.8 0  -3.5 -4.8 0  -3.4 -4.8 0  -3.3 -4.8 0  -3.2 -4.8 0  -3.1 -4.8 0  -3 -4.8 0  -2.9 -4.8 0  -2.8 -4.8 0  -2.7 -4.8 0  -2.6 -4.8 0  -2.5 -4.8 0  -2.4 -4.8 0  -2.3 -4.8 0  -2.2 -4.8 0  -2.1 -4.8 0  -2 -4.8 0  -1.9 -4.8 0  -1.8 -4.8 0  -1.7 -4.8 0  -1.6 -4.8 0  -1.5 -4.8 0  -1.4 -4.8 0  -1.3 -4.8 0  -1.2 -4.8 0  -1.1 -4.8 0  -1 -4.8 0  -0.9000000000000004 -4.8 0  -0.7999999999999998 -4.8 0  -0.7000000000000002 -4.8 0  -0.5999999999999996 -4.8 0  -0.5 -4.8 0  -0.4000000000000004 -4.8 0  -0.2999999999999998 -4.8 0  -0.2000000000000002 -4.8 0  -0.09999999999999964 -4.8 0  0 -4.8 0  0.09999999999999964 -4.8 0  0.2000000000000002 -4.8 0  0.2999999999999998 -4.8 0  0.4000000000000004 -4.8 0  0.5 -4.8 0  0.5999999999999996 -4.8 0  0.7000000000000002 -4.8 0  0.7999999999999998 -4.8 0  0.9000000000000004 -4.8 0  1 -4.8 0  1.1 -4.8 0  1.2 -4.8 0  1.3 -4.8 0  1.4 -4.8 0  1.5 -4.8 0  1.6 -4.8 0  1.7 -4.8 0  1.8 -4.8 0  1.9 -4.8 0  2 -4.8 0  2.1 -4.8 0  2.2 -4.8 0  2.3 -4.8 0  2.4 -4.8 0  2.5 -4.8 0  2.6 -4.8 0  2.7 -4.8 0  2.8 -4.8 0  2.9 -4.8 0  3 -4.8 0  3.1 -4.8 0  3.199999999999999 -4.8 0  3.300000000000001 -4.8 0  3.4 -4.8 0  3.5 -4.8 0  3.6 -4.8 0  3.699999999999999 -4.8 0  3.800000000000001 -4.8 0  3.9 -4.8 0  4 -4.8 0  4.1 -4.8 0  4.199999999999999 -4.8 0  4.300000000000001 -4.8 0  4.4 -4.8 0  4.5 -4.8 0  4.6 -4.8 0  4.699999999999999 -4.8 0  4.800000000000001 -4.8 0  4.9 -4.8 0  5 -4.8 0  -5 -4.7 0  -4.9 -4.7 0  -4.8 -4.7 0  -4.7 -4.7 0  -4.6 -4.7 0  -4.5 -4.7 0  -4.4 -4.7 0  -4.3 -4.7 0  -4.2 -4.7 0  -4.1 -4.7 0  -4 -4.7 0  -3.9 -4.7 0  -3.8 -4.7 0  -3.7 -4.7 0  -3.6 -4.7 0  -3.5 -4.7 0  -3.4 -4.7 0  -3.3 -4.7 0  -3.2 -4.7 0  -3.1 -4.7 0  -3 -4.7 0  -2.9 -4.7 0  -2.8 -4.7 0  -2.7 -4.7 0  -2.6 -4.7 0  -2.5 -4.7 0  -2.4 -4.7 0  -2.3 -4.7 0  -2.2 -4.7 0  -2.1 -4.7 0  -2 -4.7 0  -1.9 -4.7 0  -1.8 -4.7 0  -1.7 -4.7 0  -1.6 -4.7 0  -1.5 -4.7 0  -1.4 -4.7 0  -1.3 -4.7 0  -1.2 -4.7 0  -1.1 -4.7 0  -1 -4.7 0  -0.9000000000000004 -4.7 0  -0.7999999999999998 -4.7 0  -0.7000000000000002 -4.7 0  -0.5999999999999996 -4.7 0  -0.5 -4.7 0  -0.4000000000000004 -4.7 0  -0.2999999999999998 -4.7 0  -0.2000000000000002 -4.7 0  -0.09999999999999964 -4.7 0  0 -4.7 0  0.09999999999999964 -4.7 0  0.2000000000000002 -4.7 0  0.2999999999999998 -4.7 0  0.4000000000000004 -4.7 0  0.5 -4.7 0  0.5999999999999996 -4.7 0  0.7000000000000002 -4.7 0  0.7999999999999998 -4.7 0  0.9000000000000004 -4.7 0  1 -4.7 0  1.1 -4.7 0  1.2 -4.7 0  1.3 -4.7 0  1.4 -4.7 0  1.5 -4.7 0  1.6 -4.7 0  1.7 -4.7 0  1.8 -4.7 0  1.9 -4.7 0  2 -4.7 0  2.1 -4.7 0  2.2 -4.7 0  2.3 -4.7 0  2.4 -4.7 0  2.5 -4.7 0  2.6 -4.7 0  2.7 -4.7 0  2.8 -4.7 0  2.9 -4.7 0  3 -4.7 0  3.1 -4.7 0  3.199999999999999 -4.7 0  3.300000000000001 -4.7 0  3.4 -4.7 0  3.5 -4.7 0  3.6 -4.7 0  3.699999999999999 -4.7 0  3.800000000000001 -4.7 0  3.9 -4.7 0  4 -4.7 0  4.1 -4.7 0  4.199999999999999 -4.7 0  4.300000000000001 -4.7 0  4.4 -4.7 0  4.5 -4.7 0  4.6 -4.7 0  4.699999999999999 -4.7 0  4.800000000000001 -4.7 0  4.9 -4.7 0  5 -4.7 0  -5 -4.6 0  -4.9 -4.6 0  -4.8 -4.6 0  -4.7 -4.6 0  -4.6 -4.6 0  -4.5 -4.6 0  -4.4 -4.6 0  -4.3 -4.6 0  -4.2 -4.6 0  -4.1 -4.6 0  -4 -4.6 0  -3.9 -4.6 0  -3.8 -4.6 0  -3.7 -4.6 0  -3.6 -4.6 0  -3.5 -4.6 0  -3.4 -4.6 0  -3.3 -4.6 0  -3.2 -4.6 0  -3.1 -4.6 0  -3 -4.6 0  -2.9 -4.6 0  -2.8 -4.6 0  -2.7 -4.6 0  -2.6 -4.6 0  -2.5 -4.6 0  -2.4 -4.6 0  -2.3 -4.6 0  -2.2 -4.6 0  -2.1 -4.6 0  -2 -4.6 0  -1.9 -4.6 0  -1.8 -4.6 0  -1.7 -4.6 0  -1.6 -4.6 0  -1.5 -4.6 0  -1.4 -4.6 0  -1.3 -4.6 0  -1.2 -4.6 0  -1.1 -4.6 0  -1 -4.6 0  -0.9000000000000004 -4.6 0  -0.7999999999999998 -4.6 0  -0.7000000000000002 -4.6 0  -0.5999999999999996 -4.6 0  -0.5 -4.6 0  -0.4000000000000004 -4.6 0  -0.2999999999999998 -4.6 0  -0.2000000000000002 -4.6 0  -0.09999999999999964 -4.6 0  0 -4.6 0  0.09999999999999964 -4.6 0  0.2000000000000002 -4.6 0  0.2999999999999998 -4.6 0  0.4000000000000004 -4.6 0  0.5 -4.6 0  0.5999999999999996 -4.6 0  0.7000000000000002 -4.6 0  0.7999999999999998 -4.6 0  0.9000000000000004 -4.6 0  1 -4.6 0  1.1 -4.6 0  1.2 -4.6 0  1.3 -4.6 0  1.4 -4.6 0  1.5 -4.6 0  1.6 -4.6 0  1.7 -4.6 0  1.8 -4.6 0  1.9 -4.6 0  2 -4.6 0  2.1 -4.6 0  2.2 -4.6 0  2.3 -4.6 0  2.4 -4.6 0  2.5 -4.6 0  2.6 -4.6 0  2.7 -4.6 0  2.8 -4.6 0  2.9 -4.6 0  3 -4.6 0  3.1 -4.6 0  3.199999999999999 -4.6 0  3.300000000000001 -4.6 0  3.4 -4.6 0  3.5 -4.6 0  3.6 -4.6 0  3.699999999999999 -4.6 0  3.800000000000001 -4.6 0  3.9 -4.6 0  4 -4.6 0  4.1 -4.6 0  4.199999999999999 -4.6 0  4.300000000000001 -4.6 0  4.4 -4.6 0  4.5 -4.6 0  4.6 -4.6 0  4.699999999999999 -4.6 0  4.800000000000001 -4.6 0  4.9 -4.6 0  5 -4.6 0  -5 -4.5 0  -4.9 -4.5 0  -4.8 -4.5 0  -4.7 -4.5 0  -4.6 -4.5 0  -4.5 -4.5 0  -4.4 -4.5 0  -4.3 -4.5 0  -4.2 -4.5 0  -4.1 -4.5 0  -4 -4.5 0  -3.9 -4.5 0  -3.8 -4.5 0  -3.7 -4.5 0  -3.6 -4.5 0  -3.5 -4.5 0  -3.4 -4.5 0  -3.3 -4.5 0  -3.2 -4.5 0  -3.1 -4.5 0  -3 -4.5 0  -2.9 -4.5 0  -2.8 -4.5 0  -2.7 -4.5 0  -2.6 -4.5 0  -2.5 -4.5 0  -2.4 -4.5 0  -2.3 -4.5 0  -2.2 -4.5 0  -2.1 -4.5 0  -2 -4.5 0  -1.9 -4.5 0  -1.8 -4.5 0  -1.7 -4.5 0  -1.6 -4.5 0  -1.5 -4.5 0  -1.4 -4.5 0  -1.3 -4.5 0  -1.2 -4.5 0  -1.1 -4.5 0  -1 -4.5 0  -0.9000000000000004 -4.5 0  -0.7999999999999998 -4.5 0  -0.7000000000000002 -4.5 0  -0.5999999999999996 -4.5 0  -0.5 -4.5 0  -0.4000000000000004 -4.5 0  -0.2999999999999998 -4.5 0  -0.2000000000000002 -4.5 0  -0.09999999999999964 -4.5 0  0 -4.5 0  0.09999999999999964 -4.5 0  0.2000000000000002 -4.5 0  0.2999999999999998 -4.5 0  0.4000000000000004 -4.5 0  0.5 -4.5 0  0.5999999999999996 -4.5 0  0.7000000000000002 -4.5 0  0.7999999999999998 -4.5 0  0.9000000000000004 -4.5 0  1 -4.5 0  1.1 -4.5 0  1.2 -4.5 0  1.3 -4.5 0  1.4 -4.5 0  1.5 -4.5 0  1.6 -4.5 0  1.7 -4.5 0  1.8 -4.5 0  1.9 -4.5 0  2 -4.5 0  2.1 -4.5 0  2.2 -4.5 0  2.3 -4.5 0  2.4 -4.5 0  2.5 -4.5 0  2.6 -4.5 0  2.7 -4.5 0  2.8 -4.5 0  2.9 -4.5 0  3 -4.5 0  3.1 -4.5 0  3.199999999999999 -4.5 0  3.300000000000001 -4.5 0  3.4 -4.5 0  3.5 -4.5 0  3.6 -4.5 0  3.699999999999999 -4.5 0  3.800000000000001 -4.5 0  3.9 -4.5 0  4 -4.5 0  4.1 -4.5 0  4.199999999999999 -4.5 0  4.300000000000001 -4.5 0  4.4 -4.5 0  4.5 -4.5 0  4.6 -4.5 0  4.699999999999999 -4.5 0  4.800000000000001 -4.5 0  4.9 -4.5 0  5 -4.5 0  -5 -4.4 0  -4.9 -4.4 0  -4.8 -4.4 0  -4.7 -4.4 0  -4.6 -4.4 0  -4.5 -4.4 0  -4.4 -4.4 0  -4.3 -4.4 0  -4.2 -4.4 0  -4.1 -4.4 0  -4 -4.4 0  -3.9 -4.4 0  -3.8 -4.4 0  -3.7 -4.4 0  -3.6 -4.4 0  -3.5 -4.4 0  -3.4 -4.4 0  -3.3 -4.4 0  -3.2 -4.4 0  -3.1 -4.4 0  -3 -4.4 0  -2.9 -4.4 0  -2.8 -4.4 0  -2.7 -4.4 0  -2.6 -4.4 0  -2.5 -4.4 0  -2.4 -4.4 0  -2.3 -4.4 0  -2.2 -4.4 0  -2.1 -4.4 0  -2 -4.4 0  -1.9 -4.4 0  -1.8 -4.
[...]
<PointData  Vectors="f_17"> 
<DataArray  type="Float64"  Name="f_17"  NumberOfComponents="3" format="ascii">1.5108510682209994e-01 0.0000000000000000e+00 0.0000000000000000e+00  1.4968964985213784e-01 -9.2613014402017344e-04 0.0000000000000000e+00  1.5088829039741283e-01 3.7350874793281100e-04 0.0000000000000000e+00  1.4975001039338481e-01 -9.1481933944108395e-04 0.0000000000000000e+00  1.5061735428464454e-01 9.4502308317568533e-04 0.0000000000000000e+00  1.4978694460324865e-01 -7.9701864658692921e-04 0.0000000000000000e+00  1.5051560122224500e-01 1.0474545013719975e-03 0.0000000000000000e+00  1.5003227224198559e-01 -9.2519566526880626e-04 0.0000000000000000e+00  1.5067172406191928e-01 6.8088909993895116e-04 0.0000000000000000e+00  1.5030095600469123e-01 -9.4485608178633508e-04 0.0000000000000000e+00  1.5067918277198117e-01 8.0644609768995828e-04 0.0000000000000000e+00  1.5014160800166856e-01 -1.4613272650577957e-04 0.0000000000000000e+00  1.5022215369735920e-01 1.4351730758360615e-03 0.0000000000000000e+00  1.4976034595300033e-01 6.0470887000316817e-04 0.0000000000000000e+00  1.4990333914828122e-01 1.3939434187989414e-03 0.0000000000000000e+00  1.4964484783134649e-01 3.4531115580507533e-04 0.0000000000000000e+00  1.4981615416646130e-01 9.1989010784677852e-04 0.0000000000000000e+00  1.4956420910782051e-01 4.5148305889755147e-04 0.0000000000000000e+00  1.4957091757564250e-01 9.7759254710638624e-04 0.0000000000000000e+00  1.4945229960943035e-01 5.0755011146320981e-04 0.0000000000000000e+00  1.4965065482068357e-01 4.7740490593016662e-04 0.0000000000000000e+00  1.4966207124845940e-01 -2.4178421096954616e-04 0.0000000000000000e+00  1.4980648801364518e-01 -2.7133084222668994e-04 0.0000000000000000e+00  1.4982065625383617e-01 -4.8501101224676126e-04 0.0000000000000000e+00  1.4988072162601382e-01 -5.5261237859402165e-04 0.0000000000000000e+00  1.4989682648898750e-01 -7.3802744028227129e-04 0.0000000000000000e+00  1.4992301257540949e-01 -4.0365654022461359e-04 0.0000000000000000e+00  1.4976955379870532e-01 -2.0257773068283814e-04 0.0000000000000000e+00  1.4973835178825654e-01 -2.0628614929745184e-04 0.0000000000000000e+00  1.4985942099431451e-01 -3.4442945733524844e-04 0.0000000000000000e+00  1.4986398853386593e-01 -2.8411855808467763e-04 0.0000000000000000e+00  1.4977826099751335e-01 -1.2052196977318380e-04 0.0000000000000000e+00  1.4995647638428858e-01 -8.8178241750688961e-05 0.0000000000000000e+00  1.5015402230472147e-01 -4.1995820323767426e-04 0.0000000000000000e+00  1.5003818047770742e-01 -3.4600078072229834e-04 0.0000000000000000e+00  1.4982464154536956e-01 4.8062721180700381e-04 0.0000000000000000e+00  1.4983087573946588e-01 5.8488519508964479e-04 0.0000000000000000e+00  1.5005524078327931e-01 -5.8150418390613375e-04 0.0000000000000000e+00  1.5024702068175524e-01 -8.0495188158219834e-04 0.0000000000000000e+00  1.5006444200801380e-01 4.5261113028368939e-04 0.0000000000000000e+00  1.4974510591799817e-01 7.1597159773171984e-04 0.0000000000000000e+00  1.4988956692225378e-01 -2.1501043587313518e-04 0.0000000000000000e+00  1.5020327326915800e-01 -3.0154464226994930e-04 0.0000000000000000e+00  1.5008800244242029e-01 -1.6837858867055382e-05 0.0000000000000000e+00  1.4992606323408109e-01 -1.8532604394276773e-04 0.0000000000000000e+00  1.4998738721421800e-01 3.0251901907310286e-04 0.0000000000000000e+00  1.4992772936260096e-01 5.1711348102379201e-04 0.0000000000000000e+00  1.5001630307128536e-01 -7.2174487769987260e-04 0.0000000000000000e+00  1.5025074588145734e-01 -5.7969699738564650e-04 0.0000000000000000e+00  1.4990013892732848e-01 1.1657706767929802e-03 0.0000000000000000e+00  1.4966578515332007e-01 3.2934206866544485e-04 0.0000000000000000e+00  1.5035206618300773e-01 -1.5047651630915361e-03 0.0000000000000000e+00  1.5032508563748345e-01 2.2787235870510065e-04 0.0000000000000000e+00  1.4942539786264383e-01 1.5494543333244642e-03 0.0000000000000000e+00  1.4990715268827867e-01 -8.3354890612907025e-04 0.0000000000000000e+00  1.5073603078300229e-01 -1.2778824295420245e-03 0.0000000000000000e+00  1.4969758693096627e-01 1.4237292491630312e-03 0.0000000000000000e+00  1.4933117325411044e-01 6.3974679390964089e-04 0.0000000000000000e+00  1.5061719263148399e-01 -1.5810733633180390e-03 0.0000000000000000e+00  1.5031640085822512e-01 5.5074039627921585e-05 0.0000000000000000e+00  1.4917511306143655e-01 1.5067543535644626e-03 0.0000000000000000e+00  1.5016370426884562e-01 -8.2310091404247767e-04 0.0000000000000000e+00  1.5063871741895585e-01 -8.6363751717323154e-04 0.0000000000000000e+00  1.4950071672842927e-01 1.0602772067220471e-03 0.0000000000000000e+00  1.4973403402797480e-01 2.5691806033004437e-04 0.0000000000000000e+00  1.5060788939367531e-01 -1.1125136510122240e-03 0.0000000000000000e+00  1.4980513992085609e-01 5.2426271282294884e-04 0.0000000000000000e+00  1.4966352285503765e-01 4.9511569648600805e-04 0.0000000000000000e+00  1.5036232141353317e-01 -6.2829937356387604e-04 0.0000000000000000e+00  1.5003048168245442e-01 -8.2559934218754419e-05 0.0000000000000000e+00  1.4967410930754760e-01 6.4857873197807561e-04 0.0000000000000000e+00  1.5024362486457110e-01 -4.8997109128773536e-04 0.0000000000000000e+00  1.5003670405413849e-01 -4.3450907834368721e-05 0.0000000000000000e+00  1.4981301289469978e-01 3.0446210670016750e-04 0.0000000000000000e+00  1.5009577268216229e-01 -9.1708890235233970e-05 0.0000000000000000e+00  1.5008852879272339e-01 -2.7311364313128722e-04 0.0000000000000000e+00  1.4982618464984249e-01 4.1107244266562221e-04 0.0000000000000000e+00  1.5011409937300565e-01 -2.6378793072525048e-04 0.0000000000000000e+00  1.4999335065167602e-01 5.7018347126686196e-05 0.0000000000000000e+00  1.4996233849291940e-01 -9.7990466188186828e-06 0.0000000000000000e+00  1.4999433833443937e-01 1.4206910949510126e-04 0.0000000000000000e+00  1.5008131597834143e-01 -3.1619877518562431e-04 0.0000000000000000e+00  1.4987466019579726e-01 4.0182845009103526e-04 0.0000000000000000e+00  1.5011953911713538e-01 -3.8115289168827633e-04 0.0000000000000000e+00  1.4990933104038703e-01 3.2908108788541591e-04 0.0000000000000000e+00  1.5007443157169956e-01 -3.2151229218450194e-04 0.0000000000000000e+00  1.4991476349330859e-01 3.7681505906260232e-04 0.0000000000000000e+00  1.5011220368146350e-01 -4.5691340000912715e-04 0.0000000000000000e+00  1.4986371772860238e-01 5.1558053810538118e-04 0.0000000000000000e+00  1.5014450421909925e-01 -5.2816991293585863e-04 0.0000000000000000e+00  1.4985962341709991e-01 5.1051583376877637e-04 0.0000000000000000e+00  1.5012769641985743e-01 -4.7677849389930890e-04 0.0000000000000000e+00  1.4987700080587352e-01 4.5977564678410690e-04 0.0000000000000000e+00  1.5011268282721163e-01 -4.3396904330384307e-04 0.0000000000000000e+00  1.4987798614939080e-01 4.3192512355990086e-04 0.0000000000000000e+00  1.5010292297017472e-01 -3.7926163210701965e-04 0.0000000000000000e+00  1.4987648436965570e-01 3.6235772245832092e-04 0.0000000000000000e+00  1.5007978403818881e-01 -2.5401741593201853e-04 0.0000000000000000e+00  1.4987440566340945e-01 2.2182742494764152e-04 0.0000000000000000e+00  1.5005094246949843e-01 -8.6802962302225874e-05 0.0000000000000000e+00  1.4985931816290726e-01 0.0000000000000000e+00 0.0000000000000000e+00  1.4968964985213812e-01 0.0000000000000000e+00 -9.2613014402027211e-04  1.4961998344546160e-01 6.4874027801656861e-04 6.4874027801730067e-04  1.4972079254823917e-01 7.3039996076112681e-05 -5.0334881211537628e-04  1.4969806218727233e-01 3.5570710058517065e-04 6.2614466121156968e-04  1.4982248418122610e-01 -1.1806993365745263e-04 -1.4978755588950283e-04  1.4981033861798085e-01 3.9947483755140928e-05 5.3274505430096937e-04  1.4985450537275302e-01 -1.8377258697609638e-04 -1.5292024026883558e-04  1.4972065826313211e-01 5.1573899707086443e-05 2.1227886857532708e-04  1.4965640069303440e-01 4.8499240196232246e-05 -4.0861267373246542e-04  1.4950923600484350e-01 2.0663964437523579e-04 1.4197266002217784e-05  1.4952763214491716e-01 -2.0988593169380936e-05 -3.5557984556994584e-04  1.4956576317594369e-01 -3.0182718874314222e-04 2.4534060553921326e-04  1.4982836525222884e-01 -6.7290347098742775e-04 -2.3988627033500397e-05  1.4995950981238895e-01 -9.5332626142614224e-04 4.1709630565179889e-04  1.5015607738383896e-01 -1.0038910538115646e-03 -5.0928938803449650e-05  1.5018728396718831e-01 -8.4304098820849082e-04 2.6000818944758787e-04  1.5029571262379005e-01 -6.5366260991689071e-04 -3.0919055189481803e-05  1.5028712933724098e-01 -7.2742884134633441e-04 3.7306982186560125e-04  1.5045140852791108e-01 -7.2029614873889722e-04 1.7707141585982897e-04  1.5045630195838569e-01 -7.1116892524773539e-04 3.2358114459499020e-04  1.5042786548933007e-01 -4.8134256791462353e-04 -1.1244389234262913e-04  1.5030282095191932e-01 -1.4181190693053172e-04 -1.0706996655642795e-04  1.5027958066812536e-01 2.5532269157042429e-04 -2.6483276511734546e-04  1.5017333167789246e-01 3.3544635646601403e-04 -1.2113804367465786e-04  1.5015738421634997e-01 4.8142402089703035e-04 -2.1069377689680998e-04  1.5012029822297621e-01 6.4899115878084602e-04 -1.0461755166414911e-04  1.5009512500012823e-01 5.7622002321837515e-04 -7.4433888962319579e-05  1.5014999900620507e-01 2.8144457106995814e-04 1.4539731026674686e-04  1.5028380086402598e-01 2.1007387842543631e-04 2.0420133587456304e-04  1.5021556806103489e-01 2.6393015803160175e-04 1.4104399287779887e-04  1.5012074700938910e-01 3.1381923171766444e-04 7.3930197953638282e-05  1.5018154199340908e-01 2.9342831895176017e-04 1.3816556919480540e-04  1.5014613930685056e-01 1.5128834267920583e-04 -2.8430886859777982e-05  1.4993218775149378e-01 1.4251397582614310e-04 -2.1027095057526233e-04  1.4991290784795550e-01 3.6420744743439023e-04 -3.8869331024022966e-06  1.5007855254358321e-01 5.9382786761344863e-05 3.1217504580046838e-04  1.5014760118191683e-01 -5.5283207885054985e-04 1.8250568037109804e-04  1.5006046384955066e-01 -9.7281420522324149e-05 -1.5852800929174420e-04  1.4986773176657706e-01 7.7114606669860454e-04 -2.4526786085741895e-04  1.4980940322899436e-01 2.1303056504211768e-04 -4.5534689304338233e-05  1.5009294244891253e-01 -7.0510425719201293e-04 9.4277817791074272e-05  1.5024303497036384e-01 -2.1798704364383280e-04 -1.1145367975036684e-04  1.4995819297020987e-01 3.6001263202689110e-04 -3.7716709454292766e-04  1.4986128882245686e-01 4.3053367963549166e-05 -2.6275823856996785e-04  1.5009504924482883e-01 6.5199387722109908e-05 -2.9762420533021807e-05  1.5009537140839593e-01 1.0319237340999484e-04 3.8778647850312283e-05  1.5005272152752119e-01 -4.9948532566372226e-04 1.3433488383050616e-04  1.5014471104857721e-01 -6.6175231148296829e-05 1.1685013800570849e-04  1.4991785341573988e-01 8.3393709629650742e-04 2.0157419391159620e-06  1.4984178294508904e-01 -1.8796858093591751e-04 3.3397795209003664e-04  1.5030429806282664e-01 -1.0008693443903979e-03 5.3649723562900441e-04  1.5011832348331003e-01 5.8989985745028250e-04 -4.2159523591174528e-05  1.4954114012279532e-01 8.7158629204111518e-04 -3.7080041881261965e-05  1.5011354259620469e-01 -9.6666020592608537e-04 7.2850787840944954e-04  1.5056600790486807e-01 -5.3631826526146420e-04 1.8616922630312085e-04  1.4964764872121225e-01 1.2193733832254316e-03 -6.6557008500097012e-04  1.4969543635721455e-01 1.0286563364854180e-05 3.0673391922731276e-04  1.5073448653265548e-01 -1.1722443069648563e-03 6.1288687263171535e-04  1.5012148964907446e-01 4.5617944031838150e-04 -8.6744649020080423e-04  1.4935536805314545e-01 9.3829698548498466e-04 -5.1235734358665811e-04  1.5039946225184711e-01 -8.5824486931728101e-04 8.1721056522930115e-04  1.5046696898270071e-01 -4.3479032492930970e-04 -2.7572542213614824e-04  1.4938605556054985e-01 9.5852301681102748e-04 -8.7137001218403633e-04  1.4992628477800984e-01 -3.5299085728127188e-05 6.6834579993019325e-04  1.5056359238890851e-01 -8.3131740576388087e-04 3.8028081757092593e-04  1.4968527629712833e-01 4.9288064354456650e-04 -7.5274176964266256e-04  1.4973759513935955e-01 3.9924630746903967e-04 2.1820182437985546e-04  1.5042497428698631e-01 -6.2055874191622800e-04 4.9988383719458049e-04  1.4992458730312216e-01 2.8647545873984915e-05 -5.3879662563664462e-04  1.4971666946441844e-01 5.0366677276007278e-04 -2.0819138204003460e-05  1.5026877376351030e-01 -3.7156212032819031e-04 4.3740650605544868e-04  1.5001108048811074e-01 -1.2410325248734356e-04 -3.1480217967782832e-04  1.4979369673480555e-01 3.6054265774271006e-04 -9.6419342945532486e-05  1.5014672106528631e-01 -1.4748354132293836e-04 3.2395599774747206e-04  1.5004386388239321e-01 -1.9237259170028199e-04 -1.9378252415347972e-04  1.4984685445615170e-01 2.9592055459039983e-04 -8.4190073705204204e-05  1.5010565823797095e-01 -1.2931570591311273e-04 2.1699792534456442e-04  1.5000957024722436e-01 -7.1160612445363117e-05 -1.2292303974438984e-04  1.4993087886993200e-01 1.0016298507742737e-04 -5.5555010988127792e-05  1.5003450154173420e-01 3.6969435574757331e-05 1.4178111158145651e-04  1.5004132889789890e-01 -1.8959954106712533e-04 -8.7464970684224692e-05  1.4991236086710352e-01 2.3664197165630004e-04 -2.5764960073066663e-05  1.5008009029611560e-01 -1.8115352694708572e-04 9.3508441406068489e-05  1.4995496894718607e-01 1.1016325304764700e-04 -8.0257745626304976e-05  1.5002167141000552e-01 -9.6114909603073603e-05 2.4760366960048374e-05  1.4997299763976243e-01 1.4303679460884729e-04 1.3483903140760379e-05  1.5005053044764285e-01 -2.0405966648150210e-04 -5.6147103850924008e-06  1.4992882720639858e-01 2.3280907516780319e-04 -3.5650338431316059e-05  1.5007688230600486e-01 -2.1839965675286851e-04 7.9505214824290035e-05  1.4993158128978526e-01 1.7981172464878460e-04 -1.0276826208230065e-04  1.5005713199273624e-01 -1.4696031385448024e-04 1.0557551993868933e-04  1.4995264394517707e-01 1.2702866147545959e-04 -9.4985989469986685e-05  1.5004805945322383e-01 -1.2751154618547163e-04 9.3085881105452157e-05  1.4995642151967187e-01 1.1559402616389721e-04 -8.8595436199684921e-05  1.5005234488496469e-01 -1.1681816443569907e-04 1.0799624691266654e-04  1.4996488272427247e-01 7.6511570537924088e-05 -9.6616283146362704e-05  1.5005121740487740e-01 -8.0153300314258260e-05 1.2416766826728678e-04  1.4998804595463441e-01 2.0279596366967945e-05 -7.3810099396625086e-05  1.5005057631773563e-01 -5.5045038135562246e-05 1.1487920500392162e-04  1.5001993352568369e-01 1.1318930747963926e-05 -1.1318930748578923e-05  1.5005094246949852e-01 0.0000000000000000e+00 8.6802962301805935e-05  1.5088829039741275e-01 0.0000000000000000e+00 3.7350874793464601e-04  1.4972079254823922e-01 -5.0334881211644411e-04 7.3039996076244046e-05  1.5081605691018024e-01 -1.6700433029575689e-04 -1.6700433029632390e-04  1.4979691012587448e-01 -5.3244648248645281e-04 -6.3799549299015744e-06  1.5057416025933126e-01 2.4791654421424484e-04 -5.8833683008535545e-04  1.4984179017122920e-01 -4.0842346495284585e-04 -1.4531959574813288e-04  1.5039429686378225e-01 4.8918954593827019e-04 -6.4696983359539047e-04  1.4996961432228034e-01 -4.2581836572400025e-04 1.5364703765054173e-04  1.5048721642428350e-01 3.6842163844695650e-04 -1.6273862640842380e-04  1.5023503761114276e-01 -5.8785844109659699e-04 6.4475043820095819e-04  1.5063167743389808e-01 2.7210683699597257e-04 9.1882154905501944e-05  1.5033130611046208e-01 -2.3364899608461931e-04 5.3503020854487834e-04  1.5046298020557516e-01 8.1467722068160112e-04 -3.0728375980682856e-04  1.5001810969044047e-01 4.6963992177518937e-04 -1.3738079571111173e-05  1.5009421959340594e-01 1.2864415086873814e-03 -5.5761747163559662e-04  1.4975771687877204e-01 7.1416875795662406e-04 -1.5546238775701403e-05  1.4985405382854280e-01 1.0085945394278460e-03 -4.7312974161450584e-04  1.4963086937240366e-01 5.1449507112962716e-04 -1.3269730633265825e-04  1.4971950125009231e-01 9.2399732880105309e-04 -6.1638662228595249e-04  1.4949683813826067e-01 5.3711832821597030e-04 -3.1364146712931627e-04  1.4964728367168822e-01 7.0718699608668866e-04 -3.6791055426842396e-04  1.4963776217863964e-01 2.3019940192078192e-04 2.5667977368495004e-04  1.4977206841578913e-01 5.5965862315883714e-05 1.8646772873349472e-04  1.4975009522556615e-01 -3.4729535077278415e-04 3.9367381924064796e-04  1.4988377335788550e-01 -2.9265604462058855e-04 2.6226594428865906e-04  1.4984828097511665e-01 -5.9834954815249591e-04 3.6311515026959918e-04  1.4990580070208856e-01 -6.0340866656219644e-04 1.5168977378007763e-04  1.4986812315784881e-01 -4.1136726484930015e-04 1.5832076111355774e-05  1.4976303188028500e-01 -1.7646976028967403e-04 -3.6808379243886367e-04  1.4970509938088664e-01 -2.7343810838682776e-04 -3.5294092433956349e-04  1.4985172421713666e-01 -2.9129876955534523e-04 -1.7101236048140930e-04  1.4984350659166853e-01 -3.3251892443314751e-04 -1.9260581303673496e-04  1.4979393520787945e-01 -2.7742499320737352e-04 -2.3355577322067635e-04  1.4996300479301261e-01 -1.5408565501826284e-04 2.3322433385826563e-04  1.5010940899944542e-01 -2.2209996520424903e-04 3.1912230150224870e-04  1.4997176533886700e-01 -3.0365212028564013e-04 -2.9345711782834762e-04  1.4987743070748177e-01 2.2502105143294268e-04 -6.0447256134588730e-04  1.4994337824187853e-01 4.5924031744779957e-04 -2.0462404878558938e-04  1.5006720842248045e-01 -3.8434184012546893e-04 1.8701341526519816e-04  1.5022259011810374e-01 -6.7629830713948754e-04 2.6709874658971519e-04  1.5013515369514868e-01 3.3061290335452702e-04 1.0126429076691724e-04  1.4979088169072330e-01 6.0839301520900771e-04 4.6699438434891766e-05  1.4977281247209051e-01 -1.7143897585536436e-04 5.4573640299280179e-04  1.4997031840936373e-01 -2.3472805698435161e-04 1.0047317465821436e-03  1.4977260311426824e-01 6.8964885635955535e-05 7.8900220750193514e-04  1.4952043101446214e-01 -1.3791104571460452e-04 5.7068171568544674e-04  1.4957270408276710e-01 2.3635966355777311e-04 5.8752857845058954e-04  1.4953090655154713e-01 5.2285005147812379e-04 5.1022640285275399e-04  1.4955291903094581e-01 -4.6645125876076981e-04 7.4963922073238015e-04  1.4983405371308681e-01 -5.2262797263982264e-04 8.4767742068165414e-04  1.4963119363683247e-01 8.9465571906127228e-04 1.1967140082448318e-04  1.4937282634891777e-01 3.2280723330830598e-04 2.5050755203833016e-04  1.4989583490585864e-01 -1.0734389895421150e-03 1.3225450707455783e-03  1.4997507499954060e-01 4.5872070052300939e-05 6.4522330351321792e-04  1.4917698210169658e-01 1.0693788498960335e-03 -2.4599009732958343e-04  1.4947465058815740e-01 -6.0984907458781019e-04 1.4358996751559071e-03  1.5011621954739493e-01 -8.4654298313630299e-04 1.7598982764043499e-03  1.4934348807895806e-01 8.0704396903337450e-04 -3.4976532906466108e-04  1.4909106576634826e-01 4.0291279390921447e-04 4.8530033508595706e-04  1.5023107625752849e-01 -1.0554895198239161e-03 2.1904129198556418e-03  1.5001059351136714e-01 1.0853972275866222e-04 -1.9203989756398881e-04  1.4935168446005539e-01 8.4618520082731013e-04 -1.0420707412951234e-03  1.5025729716325303e-01 -4.3168523499116022e-04 1.3193617472422516e-03  1.5055592320673092e-01 -5.8682578439727328e-04 2.5865367789297111e-04  1.4958317553250297e-01 7.4668326035968720e-04 -1.6093688273541107e-03  1.4994366659279171e-01 7.2456808100886743e-05 5.3303859638539669e-04  1.5041604138155787e-01 -5.8738392370273932e-04 7.8472291211837482e-04  1.4977180640036838e-01 2.2353764124300046e-04 -1.0370881098405401e-03  1.4978730320732134e-01 4.1055245009611279e-04 9.8840878492379735e-05  1.5033994308527493e-01 -5.1029747667879707e-04 8.3914344325350463e-04  1.4989307155441661e-01 7.5849050801909769e-05 -7.2262268948060046e-04  1.4984644212721726e-01 2.7421382281027926e-04 -7.9674176279810474e-05  1.5017768976432139e-01 -1.7209936080634901e-04 5.9640164476479774e-04  1.4999794420260243e-01 -1.7202255708887416e-04 -3.9920479776908312e-04  1.4984169752561916e-01 3.6318767814190478e-04 -1.5706415531502394e-04  1.5016525036777395e-01 -2.6919447099127799e-04 4.7167932245669467e-04  1.4993947547921918e-01 7.3194357452115763e-05 -3.2236371922131628e-04  1.4997332087943285e-01 -5.6242047724267676e-06 -3.6647775038892273e-05  1.5002003878768369e-01 1.1855966342416897e-04 2.3205175165139839e-