<?xml version="1.0"?>
<VTKFile type="UnstructuredGrid"  version="0.1"  >
<UnstructuredGrid>
<Piece  NumberOfPoints="10201" NumberOfCells="20000">
<Points>
<DataArray  type="Float64"  NumberOfComponents="3"  format="ascii">-5 -5 0  -4.9 -5 0  -4.8 -5 0  -4.7 -5 0  -4.6 -5 0  -4.5 -5 0  -4.4 -5 0  -4.3 -5 0  -4.2 -5 0  -4.1 -5 0  -4 -5 0  -3.9 -5 0  -3.8 -5 0  -3.7 -5 0  -3.6 -5 0  -3.5 -5 0  -3.4 -5 0  -3.3 -5 0  -3.2 -5 0  -3.1 -5 0  -3 -5 0  -2.9 -5 0  -2.8 -5 0  -2.7 -5 0  -2.6 -5 0  -2.5 -5 0  -2.4 -5 0  -2.3 -5 0  -2.2 -5 0  -2.1 -5 0  -2 -5 0  -1.9 -5 0  -1.8 -5 0  -1.7 -5 0  -1.6 -5 0  -1.5 -5 0  -1.4 -5 0  -1.3 -5 0  -1.2 -5 0  -1.1 -5 0  -1 -5 0  -0.9000000000000004 -5 0  -0.7999999999999998 -5 0  -0.7000000000000002 -5 0  -0.5999999999999996 -5 0  -0.5 -5 0  -0.4000000000000004 -5 0  -0.2999999999999998 -5 0  -0.2000000000000002 -5 0  -0.09999999999999964 -5 0  0 -5 0  0.09999999999999964 -5 0  0.2000000000000002 -5 0  0.2999999999999998 -5 0  0.4000000000000004 -5 0  0.5 -5 0  0.5999999999999996 -5 0  0.7000000000000002 -5 0  0.7999999999999998 -5 0  0.9000000000000004 -5 0  1 -5 0  1.1 -5 0  1.2 -5 0  1.3 -5 0  1.4 -5 0  1.5 -5 0  1.6 -5 0  1.7 -5 0  1.8 -5 0  1.9 -5 0  2 -5 0  2.1 -5 0  2.2 -5 0  2.3 -5 0  2.4 -5 0  2.5 -5 0  2.6 -5 0  2.7 -5 0  2.8 -5 0  2.9 -5 0  3 -5 0  3.1 -5 0  3.199999999999999 -5 0  3.300000000000001 -5 0  3.4 -5 0  3.5 -5 0  3.6 -5 0  3.699999999999999 -5 0  3.800000000000001 -5 0  3.9 -5 0  4 -5 0  4.1 -5 0  4.199999999999999 -5 0  4.300000000000001 -5 0  4.4 -5 0  4.5 -5 0  4.6 -5 0  4.699999999999999 -5 0  4.800000000000001 -5 0  4.9 -5 0  5 -5 0  -5 -4.9 0  -4.9 -4.9 0  -4.8 -4.9 0  -4.7 -4.9 0  -4.6 -4.9 0  -4.5 -4.9 0  -4.4 -4.9 0  -4.3 -4.9 0  -4.2 -4.9 0  -4.1 -4.9 0  -4 -4.9 0  -3.9 -4.9 0  -3.8 -4.9 0  -3.7 -4.9 0  -3.6 -4.9 0  -3.5 -4.9 0  -3.4 -4.9 0  -3.3 -4.9 0  -3.2 -4.9 0  -3.1 -4.9 0  -3 -4.9 0  -2.9 -4.9 0  -2.8 -4.9 0  -2.7 -4.9 0  -2.6 -4.9 0  -2.5 -4.9 0  -2.4 -4.9 0  -2.3 -4.9 0  -2.2 -4.9 0  -2.1 -4.9 0  -2 -4.9 0  -1.9 -4.9 0  -1.8 -4.9 0  -1.7 -4.9 0  -1.6 -4.9 0  -1.5 -4.9 0  -1.4 -4.9 0  -1.3 -4.9 0  -1.2 -4.9 0  -1.1 -4.9 0  -1 -4.9 0  -0.9000000000000004 -4.9 0  -0.7999999999999998 -4.9 0  -0.7000000000000002 -4.9 0  -0.5999999999999996 -4.9 0  -0.5 -4.9 0  -0.4000000000000004 -4.9 0  -0.2999999999999998 -4.9 0  -0.2000000000000002 -4.9 0  -0.09999999999999964 -4.9 0  0 -4.9 0  0.09999999999999964 -4.9 0  0.2000000000000002 -4.9 0  0.2999999999999998 -4.9 0  0.4000000000000004 -4.9 0  0.5 -4.9 0  0.5999999999999996 -4.9 0  0.7000000000000002 -4.9 0  0.7999999999999998 -4.9 0  0.9000000000000004 -4.9 0  1 -4.9 0  1.1 -4.9 0  1.2 -4.9 0  1.3 -4.9 0  1.4 -4.9 0  1.5 -4.9 0  1.6 -4.9 0  1.7 -4.9 0  1.8 -4.9 0  1.9 -4.9 0  2 -4.9 0  2.1 -4.9 0  2.2 -4.9 0  2.3 -4.9 0  2.4 -4.9 0  2.5 -4.9 0  2.6 -4.9 0  2.7 -4.9 0  2.8 -4.9 0  2.9 -4.9 0  3 -4.9 0  3.1 -4.9 0  3.199999999999999 -4.9 0  3.300000000000001 -4.9 0  3.4 -4.9 0  3.5 -4.9 0  3.6 -4.9 0  3.699999999999999 -4.9 0  3.800000000000001 -4.9 0  3.9 -4.9 0  4 -4.9 0  4.1 -4.9 0  4.199999999999999 -4.9 0  4.300000000000001 -4.9 0  4.4 -4.9 0  4.5 -4.9 0  4.6 -4.9 0  4.699999999999999 -4.9 0  4.800000000000001 -4.9 0  4.9 -4.9 0  5 -4.9 0  -5 -4.8 0  -4.9 -4.8 0  -4.8 -4.8 0  -4.7 -4.8 0  -4.6 -4.8 0  -4.5 -4.8 0  -4.4 -4.8 0  -4.3 -4.8 0  -4.2 -4.8 0  -4.1 -4.8 0  -4 -4.8 0  -3.9 -4.8 0  -3.8 -4.8 0  -3.7 -4.8 0  -3.6 -4.8 0  -3.5 -4.8 0  -3.4 -4.8 0  -3.3 -4.8 0  -3.2 -4.8 0  -3.1 -4.8 0  -3 -4.8 0  -2.9 -4.8 0  -2.8 -4.8 0  -2.7 -4.8 0  -2.6 -4.8 0  -2.5 -4.8 0  -2.4 -4.8 0  -2.3 -4.8 0  -2.2 -4.8 0  -2.1 -4.8 0  -2 -4.8 0  -1.9 -4.8 0  -1.8 -4.8 0  -1.7 -4.8 0  -1.6 -4.8 0  -1.5 -4.8 0  -1.4 -4.8 0  -1.3 -4.8 0  -1.2 -4.8 0  -1.1 -4.8 0  -1 -4.8 0  -0.9000000000000004 -4.8 0  -0.7999999999999998 -4.8 0  -0.7000000000000002 -4.8 0  -0.5999999999999996 -4.8 0  -0.5 -4.8 0  -0.4000000000000004 -4.8 0  -0.2999999999999998 -4.8 0  -0.2000000000000002 -4.8 0  -0.09999999999999964 -4.8 0  0 -4.8 0  0.09999999999999964 -4.8 0  0.2000000000000002 -4.8 0  0.2999999999999998 -4.8 0  0.4000000000000004 -4.8 0  0.5 -4.8 0  0.5999999999999996 -4.8 0  0.7000000000000002 -4.8 0  0.7999999999999998 -4.8 0  0.9000000000000004 -4.8 0  1 -4.8 0  1.1 -4.8 0  1.2 -4.8 0  1.3 -4.8 0  1.4 -4.8 0  1.5 -4.8 0  1.6 -4.8 0  1.7 -4.8 0  1.8 -4.8 0  1.9 -4.8 0  2 -4.8 0  2.1 -4.8 0  2.2 -4.8 0  2.3 -4.8 0  2.4 -4.8 0  2.5 -4.8 0  2.6 -4.8 0  2.7 -4.8 0  2.8 -4.8 0  2.9 -4.8 0  3 -4.8 0  3.1 -4.8 0  3.199999999999999 -4.8 0  3.300000000000001 -4.8 0  3.4 -4.8 0  3.5 -4.8 0  3.6 -4.8 0  3.699999999999999 -4.8 0  3.800000000000001 -4.8 0  3.9 -4.8 0  4 -4.8 0  4.1 -4.8 0  4.199999999999999 -4.8 0  4.300000000000001 -4.8 0  4.4 -4.8 0  4.5 -4.8 0  4.6 -4.8 0  4.699999999999999 -4.8 0  4.800000000000001 -4.8 0  4.9 -4.8 0  5 -4.8 0  -5 -4.7 0  -4.9 -4.7 0  -4.8 -4.7 0  -4.7 -4.7 0  -4.6 -4.7 0  -4.5 -4.7 0  -4.4 -4.7 0  -4.3 -4.7 0  -4.2 -4.7 0  -4.1 -4.7 0  -4 -4.7 0  -3.9 -4.7 0  -3.8 -4.7 0  -3.7 -4.7 0  -3.6 -4.7 0  -3.5 -4.7 0  -3.4 -4.7 0  -3.3 -4.7 0  -3.2 -4.7 0  -3.1 -4.7 0  -3 -4.7 0  -2.9 -4.7 0  -2.8 -4.7 0  -2.7 -4.7 0  -2.6 -4.7 0  -2.5 -4.7 0  -2.4 -4.7 0  -2.3 -4.7 0  -2.2 -4.7 0  -2.1 -4.7 0  -2 -4.7 0  -1.9 -4.7 0  -1.8 -4.7 0  -1.7 -4.7 0  -1.6 -4.7 0  -1.5 -4.7 0  -1.4 -4.7 0  -1.3 -4.7 0  -1.2 -4.7 0  -1.1 -4.7 0  -1 -4.7 0  -0.9000000000000004 -4.7 0  -0.7999999999999998 -4.7 0  -0.7000000000000002 -4.7 0  -0.5999999999999996 -4.7 0  -0.5 -4.7 0  -0.4000000000000004 -4.7 0  -0.2999999999999998 -4.7 0  -0.2000000000000002 -4.7 0  -0.09999999999999964 -4.7 0  0 -4.7 0  0.09999999999999964 -4.7 0  0.2000000000000002 -4.7 0  0.2999999999999998 -4.7 0  0.4000000000000004 -4.7 0  0.5 -4.7 0  0.5999999999999996 -4.7 0  0.7000000000000002 -4.7 0  0.7999999999999998 -4.7 0  0.9000000000000004 -4.7 0  1 -4.7 0  1.1 -4.7 0  1.2 -4.7 0  1.3 -4.7 0  1.4 -4.7 0  1.5 -4.7 0  1.6 -4.7 0  1.7 -4.7 0  1.8 -4.7 0  1.9 -4.7 0  2 -4.7 0  2.1 -4.7 0  2.2 -4.7 0  2.3 -4.7 0  2.4 -4.7 0  2.5 -4.7 0  2.6 -4.7 0  2.7 -4.7 0  2.8 -4.7 0  2.9 -4.7 0  3 -4.7 0  3.1 -4.7 0  3.199999999999999 -4.7 0  3.300000000000001 -4.7 0  3.4 -4.7 0  3.5 -4.7 0  3.6 -4.7 0  3.699999999999999 -4.7 0  3.800000000000001 -4.7 0  3.9 -4.7 0  4 -4.7 0  4.1 -4.7 0  4.199999999999999 -4.7 0  4.300000000000001 -4.7 0  4.4 -4.7 0  4.5 -4.7 0  4.6 -4.7 0  4.699999999999999 -4.7 0  4.800000000000001 -4.7 0  4.9 -4.7 0  5 -4.7 0  -5 -4.6 0  -4.9 -4.6 0  -4.8 -4.6 0  -4.7 -4.6 0  -4.6 -4.6 0  -4.5 -4.6 0  -4.4 -4.6 0  -4.3 -4.6 0  -4.2 -4.6 0  -4.1 -4.6 0  -4 -4.6 0  -3.9 -4.6 0  -3.8 -4.6 0  -3.7 -4.6 0  -3.6 -4.6 0  -3.5 -4.6 0  -3.4 -4.6 0  -3.3 -4.6 0  -3.2 -4.6 0  -3.1 -4.6 0  -3 -4.6 0  -2.9 -4.6 0  -2.8 -4.6 0  -2.7 -4.6 0  -2.6 -4.6 0  -2.5 -4.6 0  -2.4 -4.6 0  -2.3 -4.6 0  -2.2 -4.6 0  -2.1 -4.6 0  -2 -4.6 0  -1.9 -4.6 0  -1.8 -4.6 0  -1.7 -4.6 0  -1.6 -4.6 0  -1.5 -4.6 0  -1.4 -4.6 0  -1.3 -4.6 0  -1.2 -4.6 0  -1.1 -4.6 0  -1 -4.6 0  -0.9000000000000004 -4.6 0  -0.7999999999999998 -4.6 0  -0.7000000000000002 -4.6 0  -0.5999999999999996 -4.6 0  -0.5 -4.6 0  -0.4000000000000004 -4.6 0  -0.2999999999999998 -4.6 0  -0.2000000000000002 -4.6 0  -0.09999999999999964 -4.6 0  0 -4.6 0  0.09999999999999964 -4.6 0  0.2000000000000002 -4.6 0  0.2999999999999998 -4.6 0  0.4000000000000004 -4.6 0  0.5 -4.6 0  0.5999999999999996 -4.6 0  0.7000000000000002 -4.6 0  0.7999999999999998 -4.6 0  0.9000000000000004 -4.6 0  1 -4.6 0  1.1 -4.6 0  1.2 -4.6 0  1.3 -4.6 0  1.4 -4.6 0  1.5 -4.6 0  1.6 -4.6 0  1.7 -4.6 0  1.8 -4.6 0  1.9 -4.6 0  2 -4.6 0  2.1 -4.6 0  2.2 -4.6 0  2.3 -4.6 0  2.4 -4.6 0  2.5 -4.6 0  2.6 -4.6 0  2.7 -4.6 0  2.8 -4.6 0  2.9 -4.6 0  3 -4.6 0  3.1 -4.6 0  3.199999999999999 -4.6 0  3.300000000000001 -4.6 0  3.4 -4.6 0  3.5 -4.6 0  3.6 -4.6 0  3.699999999999999 -4.6 0  3.800000000000001 -4.6 0  3.9 -4.6 0  4 -4.6 0  4.1 -4.6 0  4.199999999999999 -4.6 0  4.300000000000001 -4.6 0  4.4 -4.6 0  4.5 -4.6 0  4.6 -4.6 0  4.699999999999999 -4.6 0  4.800000000000001 -4.6 0  4.9 -4.6 0  5 -4.6 0  -5 -4.5 0  -4.9 -4.5 0  -4.8 -4.5 0  -4.7 -4.5 0  -4.6 -4.5 0  -4.5 -4.5 0  -4.4 -4.5 0  -4.3 -4.5 0  -4.2 -4.5 0  -4.1 -4.5 0  -4 -4.5 0  -3.9 -4.5 0  -3.8 -4.5 0  -3.7 -4.5 0  -3.6 -4.5 0  -3.5 -4.5 0  -3.4 -4.5 0  -3.3 -4.5 0  -3.2 -4.5 0  -3.1 -4.5 0  -3 -4.5 0  -2.9 -4.5 0  -2.8 -4.5 0  -2.7 -4.5 0  -2.6 -4.5 0  -2.5 -4.5 0  -2.4 -4.5 0  -2.3 -4.5 0  -2.2 -4.5 0  -2.1 -4.5 0  -2 -4.5 0  -1.9 -4.5 0  -1.8 -4.5 0  -1.7 -4.5 0  -1.6 -4.5 0  -1.5 -4.5 0  -1.4 -4.5 0  -1.3 -4.5 0  -1.2 -4.5 0  -1.1 -4.5 0  -1 -4.5 0  -0.9000000000000004 -4.5 0  -0.7999999999999998 -4.5 0  -0.7000000000000002 -4.5 0  -0.5999999999999996 -4.5 0  -0.5 -4.5 0  -0.4000000000000004 -4.5 0  -0.2999999999999998 -4.5 0  -0.2000000000000002 -4.5 0  -0.09999999999999964 -4.5 0  0 -4.5 0  0.09999999999999964 -4.5 0  0.2000000000000002 -4.5 0  0.2999999999999998 -4.5 0  0.4000000000000004 -4.5 0  0.5 -4.5 0  0.5999999999999996 -4.5 0  0.7000000000000002 -4.5 0  0.7999999999999998 -4.5 0  0.9000000000000004 -4.5 0  1 -4.5 0  1.1 -4.5 0  1.2 -4.5 0  1.3 -4.5 0  1.4 -4.5 0  1.5 -4.5 0  1.6 -4.5 0  1.7 -4.5 0  1.8 -4.5 0  1.9 -4.5 0  2 -4.5 0  2.1 -4.5 0  2.2 -4.5 0  2.3 -4.5 0  2.4 -4.5 0  2.5 -4.5 0  2.6 -4.5 0  2.7 -4.5 0  2.8 -4.5 0  2.9 -4.5 0  3 -4.5 0  3.1 -4.5 0  3.199999999999999 -4.5 0  3.300000000000001 -4.5 0  3.4 -4.5 0  3.5 -4.5 0  3.6 -4.5 0  3.699999999999999 -4.5 0  3.800000000000001 -4.5 0  3.9 -4.5 0  4 -4.5 0  4.1 -4.5 0  4.199999999999999 -4.5 0  4.300000000000001 -4.5 0  4.4 -4.5 0  4.5 -4.5 0  4.6 -4.5 0  4.699999999999999 -4.5 0  4.800000000000001 -4.5 0  4.9 -4.5 0  5 -4.5 0  -5 -4.4 0  -4.9 -4.4 0  -4.8 -4.4 0  -4.7 -4.4 0  -4.6 -4.4 0  -4.5 -4.4 0  -4.4 -4.4 0  -4.3 -4.4 0  -4.2 -4.4 0  -4.1 -4.4 0  -4 -4.4 0  -3.9 -4.4 0  -3.8 -4.4 0  -3.7 -4.4 0  -3.6 -4.4 0  -3.5 -4.4 0  -3.4 -4.4 0  -3.3 -4.4 0  -3.2 -4.4 0  -3.1 -4.4 0  -3 -4.4 0  -2.9 -4.4 0  -2.8 -4.4 0  -2.7 -4.4 0  -2.6 -4.4 0  -2.5 -4.4 0  -2.4 -4.4 0  -2.3 -4.4 0  -2.2 -4.4 0  -2.1 -4.4 0  -2 -4.4 0  -1.9 -4.4 0  -1.8 -4.
[...]
<PointData  Vectors="f_23"> 
<DataArray  type="Float64"  Name="f_23"  NumberOfComponents="3" format="ascii">1.5000000048843384e-01 0.0000000000000000e+00 0.0000000000000000e+00  1.5000000050287970e-01 6.1320818346687360e-19 0.0000000000000000e+00  1.5000000258731555e-01 3.2551876625080545e-18 0.0000000000000000e+00  1.5000000747060502e-01 3.8972772229182826e-17 0.0000000000000000e+00  1.5000002213960481e-01 2.6751070285094815e-16 0.0000000000000000e+00  1.5000005765911470e-01 1.6651476789587124e-15 0.0000000000000000e+00  1.5000013788478608e-01 8.1779119833727906e-15 0.0000000000000000e+00  1.5000029994297856e-01 3.2351025026390705e-14 0.0000000000000000e+00  1.5000059234252033e-01 9.9682273734968716e-14 0.0000000000000000e+00  1.5000105080832241e-01 2.3432082794567188e-13 0.0000000000000000e+00  1.5000166287566341e-01 3.8705154299598068e-13 0.0000000000000000e+00  1.5000230884804153e-01 3.7846232969293460e-13 0.0000000000000000e+00  1.5000272699890443e-01 1.1089141634263198e-13 0.0000000000000000e+00  1.5000257286888205e-01 8.3353089871087789e-14 0.0000000000000000e+00  1.5000159541041910e-01 1.3270741212380366e-12 0.0000000000000000e+00  1.4999984576705125e-01 3.7878151145626572e-12 0.0000000000000000e+00  1.4999781485130348e-01 5.1329278443178698e-12 0.0000000000000000e+00  1.4999633155357853e-01 3.4790241792836750e-12 0.0000000000000000e+00  1.4999611624822884e-01 6.1764688662683960e-13 0.0000000000000000e+00  1.4999732376714753e-01 5.4998453947478854e-13 0.0000000000000000e+00  1.4999952087983467e-01 5.3675579545939396e-12 0.0000000000000000e+00  1.5000186820012432e-01 1.0587628477286604e-11 0.0000000000000000e+00  1.5000322908948535e-01 7.8650042755061895e-12 0.0000000000000000e+00  1.5000277315032201e-01 8.1648829331094866e-13 0.0000000000000000e+00  1.5000099263867903e-01 1.6319669082681496e-12 0.0000000000000000e+00  1.4999956509620851e-01 4.0784588622624212e-12 0.0000000000000000e+00  1.4999972651489735e-01 7.8313426217966063e-13 0.0000000000000000e+00  1.5000108669927292e-01 2.8911486549688328e-13 0.0000000000000000e+00  1.5000215380655807e-01 4.9991254561254830e-13 0.0000000000000000e+00  1.5000194841752248e-01 2.5040342917573115e-14 0.0000000000000000e+00  1.5000100271192870e-01 2.6988439954304671e-14 0.0000000000000000e+00  1.5000013723703640e-01 7.1456505348445080e-13 0.0000000000000000e+00  1.4999914835288911e-01 2.7348411101443709e-12 0.0000000000000000e+00  1.4999869384902670e-01 1.8439649765637458e-13 0.0000000000000000e+00  1.5000057265128919e-01 4.3376466164447891e-12 0.0000000000000000e+00  1.5000268391126043e-01 2.1109987283897642e-12 0.0000000000000000e+00  1.5000034967550299e-01 4.2483379541506526e-12 0.0000000000000000e+00  1.4999663077625688e-01 4.7140014903344200e-12 0.0000000000000000e+00  1.4999905979034381e-01 3.0129783696419225e-12 0.0000000000000000e+00  1.5000364348134915e-01 5.5841717813844532e-12 0.0000000000000000e+00  1.5000099049791746e-01 2.1218472799564480e-12 0.0000000000000000e+00  1.4999639681890400e-01 4.7039744145611220e-12 0.0000000000000000e+00  1.4999948711572836e-01 1.7357555050119537e-12 0.0000000000000000e+00  1.5000329528703626e-01 3.0295575683858316e-12 0.0000000000000000e+00  1.4999974203494154e-01 1.6567633949078810e-12 0.0000000000000000e+00  1.4999729402103137e-01 1.4536025080083546e-12 0.0000000000000000e+00  1.5000101474743760e-01 1.6157219560448915e-12 0.0000000000000000e+00  1.5000186628582710e-01 4.2546664332295330e-13 0.0000000000000000e+00  1.4999851009810974e-01 1.3939940938088465e-12 0.0000000000000000e+00  1.4999908932241229e-01 2.2933804873954782e-14 0.0000000000000000e+00  1.5000154366912533e-01 9.4514531742355348e-13 0.0000000000000000e+00  1.5000005156006646e-01 5.3033570042688997e-14 0.0000000000000000e+00  1.4999879348325812e-01 4.3669514400330510e-13 0.0000000000000000e+00  1.5000051261180777e-01 1.9440262936358133e-13 0.0000000000000000e+00  1.5000065487535599e-01 9.7561500706149557e-14 0.0000000000000000e+00  1.4999930598552993e-01 2.1752968674016688e-13 0.0000000000000000e+00  1.4999987745009596e-01 2.1489327159511758e-16 0.0000000000000000e+00  1.5000055506154922e-01 1.1948128634274014e-13 0.0000000000000000e+00  1.4999978930293403e-01 2.6351156243745928e-14 0.0000000000000000e+00  1.4999973417576049e-01 2.5685834106551381e-14 0.0000000000000000e+00  1.5000029317031463e-01 3.9897204839913860e-14 0.0000000000000000e+00  1.5000000742941694e-01 4.8060198236651087e-19 0.0000000000000000e+00  1.4999980174404395e-01 1.8486574515368336e-14 0.0000000000000000e+00  1.5000011681126582e-01 6.6233320595043113e-15 0.0000000000000000e+00  1.5000005461037710e-01 1.6757407189641293e-15 0.0000000000000000e+00  1.4999988997337241e-01 6.3573489294591688e-15 0.0000000000000000e+00  1.5000003820119481e-01 6.2441891285297196e-16 0.0000000000000000e+00  1.5000004323879759e-01 1.2344944929319941e-15 0.0000000000000000e+00  1.4999994619609569e-01 1.6162786574673762e-15 0.0000000000000000e+00  1.5000001144917133e-01 3.3578484609476366e-17 0.0000000000000000e+00  1.5000002473402427e-01 4.5693636398134091e-16 0.0000000000000000e+00  1.4999997464839473e-01 3.7907971402732932e-16 0.0000000000000000e+00  1.5000000424330165e-01 1.7965976396871355e-18 0.0000000000000000e+00  1.5000001198622642e-01 1.2301829256384625e-16 0.0000000000000000e+00  1.4999998797743738e-01 9.2304830210053269e-17 0.0000000000000000e+00  1.5000000255408041e-01 8.6303417730634046e-19 0.0000000000000000e+00  1.5000000503900546e-01 2.6338036463136460e-17 0.0000000000000000e+00  1.4999999425841740e-01 2.3894493610437727e-17 0.0000000000000000e+00  1.5000000192706017e-01 1.0957437449279459e-18 0.0000000000000000e+00  1.5000000174058226e-01 4.4920344044955382e-18 0.0000000000000000e+00  1.4999999724769228e-01 6.9239869667732315e-18 0.0000000000000000e+00  1.5000000156107235e-01 1.5186355549791296e-18 0.0000000000000000e+00  1.5000000008543474e-01 1.1053835151097406e-19 0.0000000000000000e+00  1.4999999908359532e-01 9.0613105540996787e-19 0.0000000000000000e+00  1.5000000075017419e-01 3.6672596169653217e-19 0.0000000000000000e+00  1.4999999989224433e-01 1.1229715948363250e-20 0.0000000000000000e+00  1.4999999956937596e-01 3.7026292905113601e-19 0.0000000000000000e+00  1.5000000059603238e-01 4.6923873584988265e-19 0.0000000000000000e+00  1.4999999955968482e-01 1.9531523629674139e-19 0.0000000000000000e+00  1.5000000016019488e-01 1.1693068002451301e-20 0.0000000000000000e+00  1.5000000007132966e-01 1.8942739281036255e-20 0.0000000000000000e+00  1.4999999982124113e-01 5.3473810790279142e-20 0.0000000000000000e+00  1.5000000017316489e-01 4.0106377330036799e-20 0.0000000000000000e+00  1.4999999989366797e-01 1.1955680670586038e-20 0.0000000000000000e+00  1.5000000002925543e-01 2.7699834717279665e-22 0.0000000000000000e+00  1.5000000002906841e-01 2.2782299883973156e-21 0.0000000000000000e+00  1.4999999994445185e-01 5.7065745165458279e-21 0.0000000000000000e+00  1.5000000006213945e-01 5.3149724818876138e-21 0.0000000000000000e+00  1.4999999994083218e-01 3.6587204836998654e-21 0.0000000000000000e+00  1.5000000003165345e-01 9.9770783101501187e-22 0.0000000000000000e+00  1.4999999993388646e-01 0.0000000000000000e+00 0.0000000000000000e+00  1.5000000050287904e-01 0.0000000000000000e+00 6.1320888114027887e-19  1.4999999915400880e-01 5.5074839818617899e-21 5.5075303521170302e-21  1.4999999866553643e-01 2.4857990371555154e-18 1.9174376900678824e-18  1.4999999455430940e-01 1.4861127587080645e-17 1.1650481933652067e-17  1.4999998479449289e-01 1.4674627472648104e-16 1.1415440555520143e-16  1.4999995768067848e-01 9.0059163717993311e-16 7.9472644456911870e-16  1.4999989626921079e-01 5.0200877731683260e-15 4.8364692587278297e-15  1.4999976536961612e-01 2.1646486235005434e-14 2.4008620678948839e-14  1.4999951878462919e-01 7.4655687779821046e-14 9.9291150367265788e-14  1.4999910769883923e-01 1.9728744968984100e-13 3.3130577367316500e-13  1.4999852012935821e-01 3.8404988538823188e-13 8.7999615302165785e-13  1.4999782572715770e-01 4.8422119597372605e-13 1.8018156012027285e-12  1.4999723712839846e-01 2.8368620015252244e-13 2.6972320361722396e-12  1.4999709300806244e-01 4.3351962589468769e-16 2.6425609548406163e-12  1.4999772024909158e-01 6.6276405803386832e-13 1.2653468889145003e-12  1.4999921329488364e-01 2.9947481717587078e-12 2.6799327420735693e-14  1.5000125589474383e-01 5.3163498734419055e-12 9.0769662866435441e-13  1.5000310353028545e-01 4.7559470970981378e-12 2.9296585915340252e-12  1.5000390603950434e-01 1.7033919048610749e-12 2.8239382670887004e-12  1.5000325812686180e-01 1.0632675539295322e-14 7.0603466076049535e-13  1.5000142807034555e-01 2.8880555885651235e-12 1.5566535475891612e-13  1.4999912613229396e-01 8.6472103019400027e-12 2.1282020260478841e-12  1.4999733089923953e-01 9.6003925007839441e-12 3.3457130157704254e-12  1.4999702897188857e-01 3.2145621475936209e-12 1.4466994215298422e-12  1.4999832513989697e-01 1.1851305876932837e-13 3.0155493966077352e-15  1.4999994663737917e-01 3.1825362723201947e-12 7.7093592538530270e-13  1.5000038341574320e-01 2.0000941191553326e-12 2.6100980853551079e-13  1.4999939486387956e-01 1.7952675790462558e-15 3.6135641255329861e-13  1.4999808206244131e-01 5.8031943262999916e-13 1.8318553267640280e-12  1.4999774829734402e-01 1.0616129025528312e-13 1.4367353449285611e-12  1.4999857636595534e-01 1.9144394852584015e-14 2.6801357709493449e-13  1.4999959648650596e-01 2.7586085610424919e-13 1.7675913527532947e-14  1.5000039111732685e-01 1.8826318928393906e-12 4.3746317104838408e-13  1.5000109734301503e-01 1.3478373229036276e-12 5.4333865418829081e-13  1.5000041090540048e-01 1.2750266035733972e-12 1.5996866543625094e-13  1.4999807103555435e-01 4.4040621705181712e-12 2.7592311136067923e-12  1.4999817816664701e-01 4.7634008818732390e-13 1.5400471147704970e-13  1.5000204437280737e-01 6.8795363961568400e-12 4.3331298747134725e-12  1.5000271677838029e-01 2.8998363125483436e-14 9.9126049226272324e-13  1.4999792169518072e-01 6.8744842387149640e-12 5.0173126038418133e-12  1.4999700038269631e-01 8.2489548041082977e-15 1.4371969073643222e-12  1.5000219546800597e-01 5.4997779115042210e-12 5.1143869338598514e-12  1.5000266243179688e-01 7.8857338170363566e-15 9.2847315135790925e-13  1.4999760741742538e-01 3.8176331040033942e-12 4.7976411025984239e-12  1.4999813573045945e-01 7.9226212144409815e-15 1.7681847948125400e-13  1.5000249282156342e-01 2.3700858835424752e-12 3.8941978950861648e-12  1.5000083636707068e-01 1.0587748891329128e-13 5.0485336013564503e-14  1.4999768708866723e-01 1.2758427991128063e-12 2.4240864052437673e-12  1.5000015254466179e-01 2.7670534219678996e-13 5.7306457015692436e-13  1.5000179243057415e-01 5.3191566490350437e-13 9.3670029589374459e-13  1.4999914514864621e-01 3.9818714511740454e-13 1.0326393619688198e-12  1.4999896158236051e-01 1.2525718299011977e-13 1.0910265107290917e-13  1.5000112457824891e-01 3.7696823587261721e-13 9.0450642170576069e-13  1.5000027414915851e-01 1.4287395225486336e-15 3.4701235375733330e-14  1.4999902458927303e-01 2.3364613765171531e-13 4.0617210236936594e-13  1.5000027504569341e-01 3.1124401350942476e-14 2.0642994789921515e-13  1.5000057063377378e-01 7.9924526918602821e-14 5.7102193744339218e-14  1.4999950706289800e-01 6.8607421572960620e-14 2.0614462413891067e-13  1.4999986155184358e-01 6.2180772106165863e-15 5.5406873347289673e-15  1.5000041781272158e-01 5.2286361042377566e-14 7.6582650988508754e-14  1.4999985850420736e-01 4.1546708579585502e-15 4.3801659987428912e-14  1.4999980066164612e-01 1.5732239358920861e-14 4.2600350445768430e-15  1.5000021302776620e-01 1.3443222183287110e-14 3.2320785870484209e-14  1.5000000046648440e-01 3.2549563258657311e-16 4.6587455136015747e-15  1.4999986137299995e-01 8.0438917807036666e-15 5.5098729602589909e-15  1.5000008902800716e-01 1.9368780596148004e-15 8.5885841083173633e-15  1.5000002936039056e-01 9.7889346229497780e-16 2.1007004614792147e-16  1.4999992408027268e-01 2.4748303388523217e-15 2.3889453447657359e-15  1.5000003420797497e-01 1.8147192332044812e-16 1.8885713815257982e-15  1.5000002279150532e-01 5.2001183068880890e-16 5.6669548325186208e-19  1.4999996246766045e-01 6.2771490975610294e-16 6.9479058863613196e-16  1.5000001389383205e-01 1.5392939813717671e-17 4.1213187685904086e-16  1.5000001222181769e-01 1.6636811012596597e-16 2.2797569425291295e-19  1.4999998219018640e-01 1.5462028878200193e-16 1.6107923180274809e-16  1.5000000674673977e-01 3.1625705828637300e-18 9.7919932847200792e-17  1.5000000515224512e-01 3.9242245747584763e-17 2.3616413799809078e-19  1.4999999179424334e-01 3.8785511345331670e-17 3.0376283273577697e-17  1.5000000379807593e-01 1.7631893109076499e-18 2.4934689608890210e-17  1.5000000164283883e-01 7.6978081674761777e-18 1.1347062756170097e-18  1.4999999624746685e-01 1.1411799021806058e-17 4.1659071441818671e-18  1.5000000248728845e-01 2.1967548901481759e-18 6.3876288429145858e-18  1.4999999982205758e-01 3.0831074334335930e-19 1.4085364789512389e-18  1.4999999882083648e-01 1.6414886069477277e-18 1.0181143551114275e-19  1.5000000111257022e-01 5.5739246430897424e-19 9.1669945032573960e-19  1.4999999972388880e-01 3.7285954644509020e-20 4.8607248504718449e-19  1.4999999951109846e-01 6.1610762510604842e-19 4.4268100406039323e-21  1.5000000075590708e-01 6.4005923167986510e-19 1.7744992370562589e-19  1.4999999942907144e-01 1.9096025376892664e-19 3.0940501165042765e-19  1.5000000020573945e-01 3.3581610620365633e-22 1.6568696274450371e-19  1.5000000009459266e-01 5.7345092177884561e-20 2.4041702288552099e-20  1.4999999977516512e-01 8.3408118528840690e-20 2.4351546880204087e-21  1.5000000020424073e-01 3.8557072810663171e-20 2.0702119691553663e-20  1.4999999989243845e-01 3.4657001813196704e-21 1.9748545733168397e-20  1.5000000000542515e-01 2.8233240418323785e-21 7.1838730678728415e-21  1.5000000006340863e-01 1.2419313475960564e-20 4.0303843155340446e-22  1.4999999990832405e-01 1.4838413347320969e-20 7.8781739640686162e-22  1.5000000008616726e-01 1.0214222440308526e-20 2.4296780980473238e-21  1.4999999993068538e-01 4.7526217003851050e-21 2.9083360931685548e-21  1.5000000004767278e-01 2.0162534029056755e-21 2.0827825868503848e-21  1.4999999998473335e-01 3.8533242855935220e-22 3.8532281741761338e-22  1.5000000003165290e-01 0.0000000000000000e+00 9.9770886761096671e-22  1.5000000258731638e-01 0.0000000000000000e+00 3.2551861729484302e-18  1.4999999866553626e-01 1.9174360753052187e-18 2.4857982083700189e-18  1.5000000233882571e-01 7.2104535648781118e-20 7.2104574471032051e-20  1.5000000289855678e-01 1.6574597389466950e-17 2.0995807897945992e-17  1.5000001247167002e-01 6.3070827692250462e-17 1.1900063318194412e-16  1.5000003168058851e-01 6.3390384783459447e-16 1.0788314982010281e-15  1.5000008436105947e-01 3.3113433256173062e-15 6.8196044216216178e-15  1.5000019429821465e-01 1.7073961069579744e-14 3.8411948726269090e-14  1.5000041875266287e-01 6.4433077280104380e-14 1.7660300176933478e-13  1.5000081185871483e-01 1.9745227865176101e-13 6.7753176786249170e-13  1.5000142220942261e-01 4.4913362681178464e-13 2.0833796417155614e-12  1.5000221620835244e-01 7.2377473891728599e-13 5.0823059147487023e-12  1.5000303637037224e-01 6.6909409234386967e-13 9.4467740164513582e-12  1.5000353705621308e-01 1.6890161648185429e-13 1.2561519832505692e-11  1.5000330203214995e-01 1.8900615681671075e-13 1.0435607120393727e-11  1.5000206629891916e-01 2.3889634832535826e-12 3.6186288356160223e-12  1.4999997384669039e-01 6.1497971698792184e-12 4.2003895658313245e-14  1.4999768009137773e-01 7.3225640309384570e-12 5.2872400432822902e-12  1.4999617705217608e-01 4.0000997279539946e-12 1.1177840110264302e-11  1.4999619619621199e-01 3.4335968237741494e-13 7.5695683626610921e-12  1.4999767930653987e-01 1.2554674952734590e-12 7.7857493224550965e-13  1.4999993443048976e-01 7.0456240385359011e-12 1.7179321566495765e-12  1.5000205157735583e-01 1.1331755828236040e-11 8.2557629633116569e-12  1.5000300547471410e-01 7.0300830403709109e-12 8.8657486958046166e-12  1.5000220171528600e-01 4.4376746378897200e-13 1.9015506054426417e-12  1.5000046621599095e-01 1.7907793201890527e-12 5.1602461882457419e-13  1.4999955366529466e-01 3.2650703999072788e-12 1.8380520327639344e-12  1.5000024987444480e-01 2.7970923278061612e-13 7.0164114701843123e-18  1.5000173028190730e-01 6.0394114706441548e-13 3.6161593146064678e-12  1.5000260474162111e-01 4.0132912013876876e-13 6.9219831730290723e-12  1.5000211353670995e-01 1.8425406555979249e-14 3.3751401214313891e-12  1.5000084263198371e-01 1.9527276778186708e-13 2.5268689328990313e-13  1.4999985430524157e-01 1.1033287238447875e-12 2.9452827899709098e-13  1.4999916853026890e-01 2.8355579898822973e-12 1.6543139508284861e-12  1.4999914323982691e-01 4.0835537281187142e-15 6.1139008727623960e-13  1.5000104954862470e-01 5.7989647972744606e-12 3.3285214263032898e-12  1.5000259004930849e-01 9.5879819803291390e-13 7.9506105654755081e-12  1.4999965441070900e-01 7.3531531632934502e-12 1.7264977993830037e-12  1.4999637447868083e-01 3.0131140461718225e-12 1.7025236411011685e-11  1.4999987961949851e-01 6.3655020875236715e-12 7.7677553086478172e-13  1.5000413445369323e-01 3.8135449401585059e-12 2.2134985005148786e-11  1.5000009340065534e-01 4.9223223629163749e-12 8.0485791138036396e-13  1.4999589016905773e-01 3.0452428913186766e-12 2.0799938475310360e-11  1.5000045582611721e-01 3.7382886125920443e-12 1.9969927797945056e-12  1.5000360806280430e-01 1.6387868617733268e-12 1.4498051575651144e-11  1.4999875059502504e-01 2.8771491350046603e-12 4.5257249526840624e-12  1.4999731232681518e-01 5.2868266488262090e-13 6.7089453445086377e-12  1.5000190943013200e-01 2.1417916202215461e-12 6.8941878542237406e-12  1.5000149727730963e-01 4.1579267624121212e-14 1.3112918012376561e-12  1.4999786532958723e-01 1.4061635809150383e-12 6.7753670072510539e-12  1.4999970063750734e-01 4.5630166069278231e-14 3.6817332961034508e-14  1.5000182836889664e-01 7.1417209227026706e-13 4.0264208313206104e-12  1.4999939376182933e-01 2.2632695463219673e-13 1.1820309810344822e-12  1.4999886869770007e-01 2.1856344204530081e-13 1.1117557340112077e-12  1.5000101670085009e-01 3.1126406597612187e-13 1.8466763344809025e-12  1.5000034130205120e-01 1.3424650223843714e-14 1.3199738382402944e-14  1.4999907165365398e-01 2.2430147929556465e-13 1.1512613913727038e-12  1.5000024281230187e-01 1.8700461671060730e-14 2.3675533019653023e-13  1.5000053211479447e-01 7.9534300396756783e-14 2.5601240283528242e-13  1.4999953225682874e-01 5.9450740674605568e-14 3.9477964611922082e-13  1.4999989949735601e-01 5.3312299162465293e-15 1.1293585073435249e-16  1.5000037831557622e-01 4.5496673523799035e-14 1.8004783949961120e-13  1.4999983906571346e-01 5.0179743344362317e-15 7.0632286178019012e-14  1.4999984856745963e-01 1.1184045415514409e-14 1.3598521528604435e-14  1.5000020184985408e-01 1.2808250322837901e-14 6.2443137353354598e-14  1.4999996656575035e-01 1.6148882065072770e-20 7.8597656966156261e-15  1.4999989291668184e-01 5.7515254678237353e-15 1.0213963554295320e-14  1.5000009444723361e-01 2.5644257611393417e-15 1.5974393879576960e-14  1.5000000123352850e-01 2.2493679425833156e-16 6.5711591095287402e-16  1.4999994021673216e-01 1.9014609272456221e-15 3.6706920994852297e-15  1.5000004306654874e-01 4.8337497713609461e-16 3.7030829345330303e-15  1.5000000440923525e-01 1.3372572003285742e-16 7.7297202004624827e-17  1.4999997036662543e-01 5.2117544199673204e-16 9.2618222926059435e-16  1.5000002056447928e-01 1.1245081522865494e-16 8.6664881432443521e-16  1.5000000131762856e-01 3.2808571773409422e-17 2.9227942442894923e-17  1.4999998672579934e-01 1.2404488194410345e-16 1.7505672374128336e-16  1.5000001013019329e-01 3.0756037452452473e-17 2.0614220937574898e-16  1.4999999945120168e-01 5.8396043906953461e-18 1.9320003355722541e-17  1.4999999424130803e-01 3.4393052908481108e-17 2.2931942575058989e-17  1.5000000571540006e-01 1.7130109059779197e-17 4.9739879854328568e-17  1.4999999791043667e-01 3.4956990787631091e-19 1.4373870195436002e-17  1.4999999887910573e-01 2.4686168642851370e-18 2.0726626881956371e-19  1.5000000198