<?xml version="1.0"?>
<VTKFile type="UnstructuredGrid"  version="0.1"  >
<UnstructuredGrid>
<Piece  NumberOfPoints="10201" NumberOfCells="20000">
<Points>
<DataArray  type="Float64"  NumberOfComponents="3"  format="ascii">-5 -5 0  -4.9 -5 0  -4.8 -5 0  -4.7 -5 0  -4.6 -5 0  -4.5 -5 0  -4.4 -5 0  -4.3 -5 0  -4.2 -5 0  -4.1 -5 0  -4 -5 0  -3.9 -5 0  -3.8 -5 0  -3.7 -5 0  -3.6 -5 0  -3.5 -5 0  -3.4 -5 0  -3.3 -5 0  -3.2 -5 0  -3.1 -5 0  -3 -5 0  -2.9 -5 0  -2.8 -5 0  -2.7 -5 0  -2.6 -5 0  -2.5 -5 0  -2.4 -5 0  -2.3 -5 0  -2.2 -5 0  -2.1 -5 0  -2 -5 0  -1.9 -5 0  -1.8 -5 0  -1.7 -5 0  -1.6 -5 0  -1.5 -5 0  -1.4 -5 0  -1.3 -5 0  -1.2 -5 0  -1.1 -5 0  -1 -5 0  -0.9000000000000004 -5 0  -0.7999999999999998 -5 0  -0.7000000000000002 -5 0  -0.5999999999999996 -5 0  -0.5 -5 0  -0.4000000000000004 -5 0  -0.2999999999999998 -5 0  -0.2000000000000002 -5 0  -0.09999999999999964 -5 0  0 -5 0  0.09999999999999964 -5 0  0.2000000000000002 -5 0  0.2999999999999998 -5 0  0.4000000000000004 -5 0  0.5 -5 0  0.5999999999999996 -5 0  0.7000000000000002 -5 0  0.7999999999999998 -5 0  0.9000000000000004 -5 0  1 -5 0  1.1 -5 0  1.2 -5 0  1.3 -5 0  1.4 -5 0  1.5 -5 0  1.6 -5 0  1.7 -5 0  1.8 -5 0  1.9 -5 0  2 -5 0  2.1 -5 0  2.2 -5 0  2.3 -5 0  2.4 -5 0  2.5 -5 0  2.6 -5 0  2.7 -5 0  2.8 -5 0  2.9 -5 0  3 -5 0  3.1 -5 0  3.199999999999999 -5 0  3.300000000000001 -5 0  3.4 -5 0  3.5 -5 0  3.6 -5 0  3.699999999999999 -5 0  3.800000000000001 -5 0  3.9 -5 0  4 -5 0  4.1 -5 0  4.199999999999999 -5 0  4.300000000000001 -5 0  4.4 -5 0  4.5 -5 0  4.6 -5 0  4.699999999999999 -5 0  4.800000000000001 -5 0  4.9 -5 0  5 -5 0  -5 -4.9 0  -4.9 -4.9 0  -4.8 -4.9 0  -4.7 -4.9 0  -4.6 -4.9 0  -4.5 -4.9 0  -4.4 -4.9 0  -4.3 -4.9 0  -4.2 -4.9 0  -4.1 -4.9 0  -4 -4.9 0  -3.9 -4.9 0  -3.8 -4.9 0  -3.7 -4.9 0  -3.6 -4.9 0  -3.5 -4.9 0  -3.4 -4.9 0  -3.3 -4.9 0  -3.2 -4.9 0  -3.1 -4.9 0  -3 -4.9 0  -2.9 -4.9 0  -2.8 -4.9 0  -2.7 -4.9 0  -2.6 -4.9 0  -2.5 -4.9 0  -2.4 -4.9 0  -2.3 -4.9 0  -2.2 -4.9 0  -2.1 -4.9 0  -2 -4.9 0  -1.9 -4.9 0  -1.8 -4.9 0  -1.7 -4.9 0  -1.6 -4.9 0  -1.5 -4.9 0  -1.4 -4.9 0  -1.3 -4.9 0  -1.2 -4.9 0  -1.1 -4.9 0  -1 -4.9 0  -0.9000000000000004 -4.9 0  -0.7999999999999998 -4.9 0  -0.7000000000000002 -4.9 0  -0.5999999999999996 -4.9 0  -0.5 -4.9 0  -0.4000000000000004 -4.9 0  -0.2999999999999998 -4.9 0  -0.2000000000000002 -4.9 0  -0.09999999999999964 -4.9 0  0 -4.9 0  0.09999999999999964 -4.9 0  0.2000000000000002 -4.9 0  0.2999999999999998 -4.9 0  0.4000000000000004 -4.9 0  0.5 -4.9 0  0.5999999999999996 -4.9 0  0.7000000000000002 -4.9 0  0.7999999999999998 -4.9 0  0.9000000000000004 -4.9 0  1 -4.9 0  1.1 -4.9 0  1.2 -4.9 0  1.3 -4.9 0  1.4 -4.9 0  1.5 -4.9 0  1.6 -4.9 0  1.7 -4.9 0  1.8 -4.9 0  1.9 -4.9 0  2 -4.9 0  2.1 -4.9 0  2.2 -4.9 0  2.3 -4.9 0  2.4 -4.9 0  2.5 -4.9 0  2.6 -4.9 0  2.7 -4.9 0  2.8 -4.9 0  2.9 -4.9 0  3 -4.9 0  3.1 -4.9 0  3.199999999999999 -4.9 0  3.300000000000001 -4.9 0  3.4 -4.9 0  3.5 -4.9 0  3.6 -4.9 0  3.699999999999999 -4.9 0  3.800000000000001 -4.9 0  3.9 -4.9 0  4 -4.9 0  4.1 -4.9 0  4.199999999999999 -4.9 0  4.300000000000001 -4.9 0  4.4 -4.9 0  4.5 -4.9 0  4.6 -4.9 0  4.699999999999999 -4.9 0  4.800000000000001 -4.9 0  4.9 -4.9 0  5 -4.9 0  -5 -4.8 0  -4.9 -4.8 0  -4.8 -4.8 0  -4.7 -4.8 0  -4.6 -4.8 0  -4.5 -4.8 0  -4.4 -4.8 0  -4.3 -4.8 0  -4.2 -4.8 0  -4.1 -4.8 0  -4 -4.8 0  -3.9 -4.8 0  -3.8 -4.8 0  -3.7 -4.8 0  -3.6 -4.8 0  -3.5 -4.8 0  -3.4 -4.8 0  -3.3 -4.8 0  -3.2 -4.8 0  -3.1 -4.8 0  -3 -4.8 0  -2.9 -4.8 0  -2.8 -4.8 0  -2.7 -4.8 0  -2.6 -4.8 0  -2.5 -4.8 0  -2.4 -4.8 0  -2.3 -4.8 0  -2.2 -4.8 0  -2.1 -4.8 0  -2 -4.8 0  -1.9 -4.8 0  -1.8 -4.8 0  -1.7 -4.8 0  -1.6 -4.8 0  -1.5 -4.8 0  -1.4 -4.8 0  -1.3 -4.8 0  -1.2 -4.8 0  -1.1 -4.8 0  -1 -4.8 0  -0.9000000000000004 -4.8 0  -0.7999999999999998 -4.8 0  -0.7000000000000002 -4.8 0  -0.5999999999999996 -4.8 0  -0.5 -4.8 0  -0.4000000000000004 -4.8 0  -0.2999999999999998 -4.8 0  -0.2000000000000002 -4.8 0  -0.09999999999999964 -4.8 0  0 -4.8 0  0.09999999999999964 -4.8 0  0.2000000000000002 -4.8 0  0.2999999999999998 -4.8 0  0.4000000000000004 -4.8 0  0.5 -4.8 0  0.5999999999999996 -4.8 0  0.7000000000000002 -4.8 0  0.7999999999999998 -4.8 0  0.9000000000000004 -4.8 0  1 -4.8 0  1.1 -4.8 0  1.2 -4.8 0  1.3 -4.8 0  1.4 -4.8 0  1.5 -4.8 0  1.6 -4.8 0  1.7 -4.8 0  1.8 -4.8 0  1.9 -4.8 0  2 -4.8 0  2.1 -4.8 0  2.2 -4.8 0  2.3 -4.8 0  2.4 -4.8 0  2.5 -4.8 0  2.6 -4.8 0  2.7 -4.8 0  2.8 -4.8 0  2.9 -4.8 0  3 -4.8 0  3.1 -4.8 0  3.199999999999999 -4.8 0  3.300000000000001 -4.8 0  3.4 -4.8 0  3.5 -4.8 0  3.6 -4.8 0  3.699999999999999 -4.8 0  3.800000000000001 -4.8 0  3.9 -4.8 0  4 -4.8 0  4.1 -4.8 0  4.199999999999999 -4.8 0  4.300000000000001 -4.8 0  4.4 -4.8 0  4.5 -4.8 0  4.6 -4.8 0  4.699999999999999 -4.8 0  4.800000000000001 -4.8 0  4.9 -4.8 0  5 -4.8 0  -5 -4.7 0  -4.9 -4.7 0  -4.8 -4.7 0  -4.7 -4.7 0  -4.6 -4.7 0  -4.5 -4.7 0  -4.4 -4.7 0  -4.3 -4.7 0  -4.2 -4.7 0  -4.1 -4.7 0  -4 -4.7 0  -3.9 -4.7 0  -3.8 -4.7 0  -3.7 -4.7 0  -3.6 -4.7 0  -3.5 -4.7 0  -3.4 -4.7 0  -3.3 -4.7 0  -3.2 -4.7 0  -3.1 -4.7 0  -3 -4.7 0  -2.9 -4.7 0  -2.8 -4.7 0  -2.7 -4.7 0  -2.6 -4.7 0  -2.5 -4.7 0  -2.4 -4.7 0  -2.3 -4.7 0  -2.2 -4.7 0  -2.1 -4.7 0  -2 -4.7 0  -1.9 -4.7 0  -1.8 -4.7 0  -1.7 -4.7 0  -1.6 -4.7 0  -1.5 -4.7 0  -1.4 -4.7 0  -1.3 -4.7 0  -1.2 -4.7 0  -1.1 -4.7 0  -1 -4.7 0  -0.9000000000000004 -4.7 0  -0.7999999999999998 -4.7 0  -0.7000000000000002 -4.7 0  -0.5999999999999996 -4.7 0  -0.5 -4.7 0  -0.4000000000000004 -4.7 0  -0.2999999999999998 -4.7 0  -0.2000000000000002 -4.7 0  -0.09999999999999964 -4.7 0  0 -4.7 0  0.09999999999999964 -4.7 0  0.2000000000000002 -4.7 0  0.2999999999999998 -4.7 0  0.4000000000000004 -4.7 0  0.5 -4.7 0  0.5999999999999996 -4.7 0  0.7000000000000002 -4.7 0  0.7999999999999998 -4.7 0  0.9000000000000004 -4.7 0  1 -4.7 0  1.1 -4.7 0  1.2 -4.7 0  1.3 -4.7 0  1.4 -4.7 0  1.5 -4.7 0  1.6 -4.7 0  1.7 -4.7 0  1.8 -4.7 0  1.9 -4.7 0  2 -4.7 0  2.1 -4.7 0  2.2 -4.7 0  2.3 -4.7 0  2.4 -4.7 0  2.5 -4.7 0  2.6 -4.7 0  2.7 -4.7 0  2.8 -4.7 0  2.9 -4.7 0  3 -4.7 0  3.1 -4.7 0  3.199999999999999 -4.7 0  3.300000000000001 -4.7 0  3.4 -4.7 0  3.5 -4.7 0  3.6 -4.7 0  3.699999999999999 -4.7 0  3.800000000000001 -4.7 0  3.9 -4.7 0  4 -4.7 0  4.1 -4.7 0  4.199999999999999 -4.7 0  4.300000000000001 -4.7 0  4.4 -4.7 0  4.5 -4.7 0  4.6 -4.7 0  4.699999999999999 -4.7 0  4.800000000000001 -4.7 0  4.9 -4.7 0  5 -4.7 0  -5 -4.6 0  -4.9 -4.6 0  -4.8 -4.6 0  -4.7 -4.6 0  -4.6 -4.6 0  -4.5 -4.6 0  -4.4 -4.6 0  -4.3 -4.6 0  -4.2 -4.6 0  -4.1 -4.6 0  -4 -4.6 0  -3.9 -4.6 0  -3.8 -4.6 0  -3.7 -4.6 0  -3.6 -4.6 0  -3.5 -4.6 0  -3.4 -4.6 0  -3.3 -4.6 0  -3.2 -4.6 0  -3.1 -4.6 0  -3 -4.6 0  -2.9 -4.6 0  -2.8 -4.6 0  -2.7 -4.6 0  -2.6 -4.6 0  -2.5 -4.6 0  -2.4 -4.6 0  -2.3 -4.6 0  -2.2 -4.6 0  -2.1 -4.6 0  -2 -4.6 0  -1.9 -4.6 0  -1.8 -4.6 0  -1.7 -4.6 0  -1.6 -4.6 0  -1.5 -4.6 0  -1.4 -4.6 0  -1.3 -4.6 0  -1.2 -4.6 0  -1.1 -4.6 0  -1 -4.6 0  -0.9000000000000004 -4.6 0  -0.7999999999999998 -4.6 0  -0.7000000000000002 -4.6 0  -0.5999999999999996 -4.6 0  -0.5 -4.6 0  -0.4000000000000004 -4.6 0  -0.2999999999999998 -4.6 0  -0.2000000000000002 -4.6 0  -0.09999999999999964 -4.6 0  0 -4.6 0  0.09999999999999964 -4.6 0  0.2000000000000002 -4.6 0  0.2999999999999998 -4.6 0  0.4000000000000004 -4.6 0  0.5 -4.6 0  0.5999999999999996 -4.6 0  0.7000000000000002 -4.6 0  0.7999999999999998 -4.6 0  0.9000000000000004 -4.6 0  1 -4.6 0  1.1 -4.6 0  1.2 -4.6 0  1.3 -4.6 0  1.4 -4.6 0  1.5 -4.6 0  1.6 -4.6 0  1.7 -4.6 0  1.8 -4.6 0  1.9 -4.6 0  2 -4.6 0  2.1 -4.6 0  2.2 -4.6 0  2.3 -4.6 0  2.4 -4.6 0  2.5 -4.6 0  2.6 -4.6 0  2.7 -4.6 0  2.8 -4.6 0  2.9 -4.6 0  3 -4.6 0  3.1 -4.6 0  3.199999999999999 -4.6 0  3.300000000000001 -4.6 0  3.4 -4.6 0  3.5 -4.6 0  3.6 -4.6 0  3.699999999999999 -4.6 0  3.800000000000001 -4.6 0  3.9 -4.6 0  4 -4.6 0  4.1 -4.6 0  4.199999999999999 -4.6 0  4.300000000000001 -4.6 0  4.4 -4.6 0  4.5 -4.6 0  4.6 -4.6 0  4.699999999999999 -4.6 0  4.800000000000001 -4.6 0  4.9 -4.6 0  5 -4.6 0  -5 -4.5 0  -4.9 -4.5 0  -4.8 -4.5 0  -4.7 -4.5 0  -4.6 -4.5 0  -4.5 -4.5 0  -4.4 -4.5 0  -4.3 -4.5 0  -4.2 -4.5 0  -4.1 -4.5 0  -4 -4.5 0  -3.9 -4.5 0  -3.8 -4.5 0  -3.7 -4.5 0  -3.6 -4.5 0  -3.5 -4.5 0  -3.4 -4.5 0  -3.3 -4.5 0  -3.2 -4.5 0  -3.1 -4.5 0  -3 -4.5 0  -2.9 -4.5 0  -2.8 -4.5 0  -2.7 -4.5 0  -2.6 -4.5 0  -2.5 -4.5 0  -2.4 -4.5 0  -2.3 -4.5 0  -2.2 -4.5 0  -2.1 -4.5 0  -2 -4.5 0  -1.9 -4.5 0  -1.8 -4.5 0  -1.7 -4.5 0  -1.6 -4.5 0  -1.5 -4.5 0  -1.4 -4.5 0  -1.3 -4.5 0  -1.2 -4.5 0  -1.1 -4.5 0  -1 -4.5 0  -0.9000000000000004 -4.5 0  -0.7999999999999998 -4.5 0  -0.7000000000000002 -4.5 0  -0.5999999999999996 -4.5 0  -0.5 -4.5 0  -0.4000000000000004 -4.5 0  -0.2999999999999998 -4.5 0  -0.2000000000000002 -4.5 0  -0.09999999999999964 -4.5 0  0 -4.5 0  0.09999999999999964 -4.5 0  0.2000000000000002 -4.5 0  0.2999999999999998 -4.5 0  0.4000000000000004 -4.5 0  0.5 -4.5 0  0.5999999999999996 -4.5 0  0.7000000000000002 -4.5 0  0.7999999999999998 -4.5 0  0.9000000000000004 -4.5 0  1 -4.5 0  1.1 -4.5 0  1.2 -4.5 0  1.3 -4.5 0  1.4 -4.5 0  1.5 -4.5 0  1.6 -4.5 0  1.7 -4.5 0  1.8 -4.5 0  1.9 -4.5 0  2 -4.5 0  2.1 -4.5 0  2.2 -4.5 0  2.3 -4.5 0  2.4 -4.5 0  2.5 -4.5 0  2.6 -4.5 0  2.7 -4.5 0  2.8 -4.5 0  2.9 -4.5 0  3 -4.5 0  3.1 -4.5 0  3.199999999999999 -4.5 0  3.300000000000001 -4.5 0  3.4 -4.5 0  3.5 -4.5 0  3.6 -4.5 0  3.699999999999999 -4.5 0  3.800000000000001 -4.5 0  3.9 -4.5 0  4 -4.5 0  4.1 -4.5 0  4.199999999999999 -4.5 0  4.300000000000001 -4.5 0  4.4 -4.5 0  4.5 -4.5 0  4.6 -4.5 0  4.699999999999999 -4.5 0  4.800000000000001 -4.5 0  4.9 -4.5 0  5 -4.5 0  -5 -4.4 0  -4.9 -4.4 0  -4.8 -4.4 0  -4.7 -4.4 0  -4.6 -4.4 0  -4.5 -4.4 0  -4.4 -4.4 0  -4.3 -4.4 0  -4.2 -4.4 0  -4.1 -4.4 0  -4 -4.4 0  -3.9 -4.4 0  -3.8 -4.4 0  -3.7 -4.4 0  -3.6 -4.4 0  -3.5 -4.4 0  -3.4 -4.4 0  -3.3 -4.4 0  -3.2 -4.4 0  -3.1 -4.4 0  -3 -4.4 0  -2.9 -4.4 0  -2.8 -4.4 0  -2.7 -4.4 0  -2.6 -4.4 0  -2.5 -4.4 0  -2.4 -4.4 0  -2.3 -4.4 0  -2.2 -4.4 0  -2.1 -4.4 0  -2 -4.4 0  -1.9 -4.4 0  -1.8 -4.
[...]
<PointData  Vectors="f_23"> 
<DataArray  type="Float64"  Name="f_23"  NumberOfComponents="3" format="ascii">1.4999999999995722e-01 0.0000000000000000e+00 0.0000000000000000e+00  1.5000000000010894e-01 4.5446372800620001e-27 0.0000000000000000e+00  1.5000000000008240e-01 1.8140418099150380e-25 0.0000000000000000e+00  1.5000000000184796e-01 4.2547136774681362e-24 0.0000000000000000e+00  1.5000000001071831e-01 7.8322494773503444e-23 0.0000000000000000e+00  1.5000000004344755e-01 1.1909432956949430e-21 0.0000000000000000e+00  1.5000000015422046e-01 1.2025167787155304e-20 0.0000000000000000e+00  1.5000000047897016e-01 8.8821697167259502e-20 0.0000000000000000e+00  1.5000000129604524e-01 5.1237835845469843e-19 0.0000000000000000e+00  1.5000000310719641e-01 2.2582955874048454e-18 0.0000000000000000e+00  1.5000000663218488e-01 7.4467229656751599e-18 0.0000000000000000e+00  1.5000001252343528e-01 1.8341266169866221e-17 0.0000000000000000e+00  1.5000002080362129e-01 3.3037553635229699e-17 0.0000000000000000e+00  1.5000003018970126e-01 4.0459821023145473e-17 0.0000000000000000e+00  1.5000003746695864e-01 2.7264160553305764e-17 0.0000000000000000e+00  1.5000003745828200e-01 1.4688893487450708e-18 0.0000000000000000e+00  1.5000002381057212e-01 6.8974299254180398e-17 0.0000000000000000e+00  1.4999998910159970e-01 7.9771751845895877e-16 0.0000000000000000e+00  1.4999992495665984e-01 3.7093941514069549e-15 0.0000000000000000e+00  1.4999983015489549e-01 8.9110038462271961e-15 0.0000000000000000e+00  1.4999973059059210e-01 9.2903824077980002e-15 0.0000000000000000e+00  1.4999969004268243e-01 1.0984629989186671e-15 0.0000000000000000e+00  1.4999977636617759e-01 7.3868289634124485e-15 0.0000000000000000e+00  1.4999998557404154e-01 3.4278301848025318e-14 0.0000000000000000e+00  1.5000019998025690e-01 3.1373282831096984e-14 0.0000000000000000e+00  1.5000026946406367e-01 3.7832992186806174e-15 0.0000000000000000e+00  1.5000016923372503e-01 3.8860808682581321e-15 0.0000000000000000e+00  1.5000002974790971e-01 1.1474952845853725e-14 0.0000000000000000e+00  1.4999996351885023e-01 6.4855063506930796e-15 0.0000000000000000e+00  1.4999994877415168e-01 7.8023579035568240e-16 0.0000000000000000e+00  1.4999995757357551e-01 1.1134533957217501e-15 0.0000000000000000e+00  1.5000003472993492e-01 4.9572624032673049e-15 0.0000000000000000e+00  1.5000012020259496e-01 6.9966948916368604e-16 0.0000000000000000e+00  1.5000004499125558e-01 4.0140968314517006e-15 0.0000000000000000e+00  1.4999987694025393e-01 4.6350783117088406e-15 0.0000000000000000e+00  1.4999990603934954e-01 9.5518313594183474e-16 0.0000000000000000e+00  1.5000010346294204e-01 5.8465606091653567e-15 0.0000000000000000e+00  1.5000010919732001e-01 3.0902476338521698e-17 0.0000000000000000e+00  1.4999991651644626e-01 4.6809096786709372e-15 0.0000000000000000e+00  1.4999990045246020e-01 4.6682235621609796e-17 0.0000000000000000e+00  1.5000007074643187e-01 3.0933546281591387e-15 0.0000000000000000e+00  1.5000007687237962e-01 8.0330005052838362e-17 0.0000000000000000e+00  1.4999993694329122e-01 1.8944180286939967e-15 0.0000000000000000e+00  1.4999994999192354e-01 3.0177276025205791e-17 0.0000000000000000e+00  1.5000005584491866e-01 1.1086439910890091e-15 0.0000000000000000e+00  1.5000002485008535e-01 3.2770662320661059e-20 0.0000000000000000e+00  1.4999995393722595e-01 5.9691366304884337e-16 0.0000000000000000e+00  1.4999999487252794e-01 2.0850006411913298e-17 0.0000000000000000e+00  1.5000003346011700e-01 2.6901315450169538e-16 0.0000000000000000e+00  1.4999999278381351e-01 5.5482238476135882e-17 0.0000000000000000e+00  1.4999998002325576e-01 8.5576652852542445e-17 0.0000000000000000e+00  1.5000001209077177e-01 6.4653748244778979e-17 0.0000000000000000e+00  1.5000000829762478e-01 1.2160067300988604e-17 0.0000000000000000e+00  1.4999998884033627e-01 4.4412180906058191e-17 0.0000000000000000e+00  1.4999999957023966e-01 1.2106775090309460e-19 0.0000000000000000e+00  1.5000000716155329e-01 1.7574105801254941e-17 0.0000000000000000e+00  1.4999999687665305e-01 4.3897321546549367e-18 0.0000000000000000e+00  1.4999999717461587e-01 2.8287665097316883e-18 0.0000000000000000e+00  1.5000000333330696e-01 4.6108216668432853e-18 0.0000000000000000e+00  1.4999999991175697e-01 3.4798482221912050e-21 0.0000000000000000e+00  1.4999999807733064e-01 1.6706513468779418e-18 0.0000000000000000e+00  1.5000000114889428e-01 5.7433351484209458e-19 0.0000000000000000e+00  1.5000000044064066e-01 1.1822720232668291e-19 0.0000000000000000e+00  1.4999999906942785e-01 4.3766828032224403e-19 0.0000000000000000e+00  1.5000000033033445e-01 4.2143085704036860e-20 0.0000000000000000e+00  1.5000000031648611e-01 6.7672600647534750e-20 0.0000000000000000e+00  1.4999999960362551e-01 8.5452820263334792e-20 0.0000000000000000e+00  1.5000000009185069e-01 2.1737103065040767e-21 0.0000000000000000e+00  1.5000000015741644e-01 1.8823719712133005e-20 0.0000000000000000e+00  1.4999999983612591e-01 1.5740072698456483e-20 0.0000000000000000e+00  1.5000000003319194e-01 1.8608774186242505e-22 0.0000000000000000e+00  1.5000000006541106e-01 3.7813700750807371e-21 0.0000000000000000e+00  1.4999999993131888e-01 3.0823840854419311e-21 0.0000000000000000e+00  1.5000000001838543e-01 8.5531741080836783e-23 0.0000000000000000e+00  1.5000000002267699e-01 5.7178002593631673e-22 0.0000000000000000e+00  1.4999999997121269e-01 6.3550552651635875e-22 0.0000000000000000e+00  1.5000000001202157e-01 6.5340085023658694e-23 0.0000000000000000e+00  1.5000000000525232e-01 5.0803283057063411e-23 0.0000000000000000e+00  1.4999999998880145e-01 1.2003289085444454e-22 0.0000000000000000e+00  1.5000000000729757e-01 3.6526810780690102e-23 0.0000000000000000e+00  1.4999999999934732e-01 2.7696811371139648e-25 0.0000000000000000e+00  1.4999999999659697e-01 1.5864925506951197e-23 0.0000000000000000e+00  1.5000000000371816e-01 1.3693288841363092e-23 0.0000000000000000e+00  1.4999999999812863e-01 2.3112257822357067e-24 0.0000000000000000e+00  1.4999999999986327e-01 2.9508938799745155e-25 0.0000000000000000e+00  1.5000000000121566e-01 2.2675357386748521e-24 0.0000000000000000e+00  1.4999999999871064e-01 2.0042487930358491e-24 0.0000000000000000e+00  1.5000000000080493e-01 6.3981785446697625e-25 0.0000000000000000e+00  1.4999999999976438e-01 2.5817682484267222e-26 0.0000000000000000e+00  1.4999999999984789e-01 5.9181120140989895e-26 0.0000000000000000e+00  1.5000000000030650e-01 1.4588870873967332e-25 0.0000000000000000e+00  1.4999999999970659e-01 1.1782787833313796e-25 0.0000000000000000e+00  1.5000000000020564e-01 5.3693329736397476e-26 0.0000000000000000e+00  1.4999999999988903e-01 1.4254026266039055e-26 0.0000000000000000e+00  1.5000000000004152e-01 1.6672907764736141e-27 0.0000000000000000e+00  1.4999999999999822e-01 2.6767909503789945e-30 0.0000000000000000e+00  1.4999999999998681e-01 3.2276751537472816e-28 0.0000000000000000e+00  1.5000000000001679e-01 3.4664788761250321e-28 0.0000000000000000e+00  1.4999999999998564e-01 2.2135633034099080e-28 0.0000000000000000e+00  1.5000000000000702e-01 6.2329946787559970e-29 0.0000000000000000e+00  1.4999999999998556e-01 0.0000000000000000e+00 0.0000000000000000e+00  1.5000000000010880e-01 0.0000000000000000e+00 4.5848149358924672e-27  1.4999999999994498e-01 1.3843821255025122e-27 1.3841191705912773e-27  1.4999999999988697e-01 3.2902933764226882e-27 1.3753489631620998e-27  1.4999999999929436e-01 1.7820959453904406e-24 3.7231477846241882e-25  1.4999999999367963e-01 2.9887773202445777e-23 2.2440652141677172e-23  1.4999999997142394e-01 5.1768011502272521e-22 4.9926920558470994e-22  1.4999999989358609e-01 6.3535358998113787e-21 7.1885517144619300e-21  1.4999999964971025e-01 5.3468452304254843e-20 7.8759948401517705e-20  1.4999999899652774e-01 3.4364367953124660e-19 6.5156481090120967e-19  1.4999999747413534e-01 1.7139346021317684e-18 4.1481320382662860e-18  1.4999999434361982e-01 6.4174460315444153e-18 2.0684851115264283e-17  1.4999998876202594e-01 1.7809954876737651e-17 8.0300157636060981e-17  1.4999998034069312e-01 3.6246273276057067e-17 2.3875581272775265e-16  1.4999996991531789e-01 5.1131029434463519e-17 5.3267857420774736e-16  1.4999996031529250e-01 4.2537266185780044e-17 8.5414569363897500e-16  1.4999995672626942e-01 9.4439078396080645e-18 8.7843515578611726e-16  1.4999996588045322e-01 2.3866452593897702e-17 3.8299513898582735e-16  1.4999999483700005e-01 4.5656724454852588e-16 2.4318925220468435e-17  1.5000005106260808e-01 2.5917868537289065e-15 2.2053430558885894e-15  1.5000013926749151e-01 7.8412064620021054e-15 1.1325719428604814e-14  1.5000024600562142e-01 1.1732289361998630e-14 2.8689440684411861e-14  1.5000032071670036e-01 4.9834454111952933e-15 3.8974418490665226e-14  1.5000028819384845e-01 1.4871591233744492e-15 2.0570397510785924e-14  1.5000011341735756e-01 2.7267512021888517e-14 5.3043416299172268e-18  1.4999987154376287e-01 4.3572868643691489e-14 2.2722364050991509e-14  1.4999972269285122e-01 1.5093011653650120e-14 4.1966522056090262e-14  1.4999976345185473e-01 3.7791059033087174e-16 1.6343234616048619e-14  1.4999991306367347e-01 1.0835746924284512e-14 1.3309361973491005e-16  1.5000001810820715e-01 1.0340951645256823e-14 1.7783198789312095e-15  1.5000004567907105e-01 3.1552062375750378e-15 1.6109956030230552e-15  1.5000004960650137e-01 6.0602277699016699e-17 7.5472547728141686e-16  1.5000000512202452e-01 4.7046728506428012e-15 3.6646571748730235e-16  1.4999989981692793e-01 3.3446464496629188e-15 7.8417505805399547e-15  1.4999989455789167e-01 1.3552134061545281e-15 3.1941306033470591e-15  1.5000006563550491e-01 7.6839980457647208e-15 6.6290807465275786e-15  1.5000014963639596e-01 5.3466528323041101e-17 1.0317284540849731e-14  1.4999997259807626e-01 6.3181242997842862e-15 3.3343066788818908e-15  1.4999984413986994e-01 9.8514316430457128e-16 1.3238435839829276e-14  1.5000000594736496e-01 3.6804289022596510e-15 1.5620038400651828e-15  1.5000014037472248e-01 1.4276839839264664e-15 1.1415651843233620e-14  1.4999999626609137e-01 1.9019796169332704e-15 1.0795785675804365e-15  1.4999988422839680e-01 1.1461743345073004e-15 7.6624707502604747e-15  1.5000001293464876e-01 1.0222813976542054e-15 1.1553599995188064e-15  1.5000008804220097e-01 6.6545344386488227e-16 4.0790553829147500e-15  1.4999997548594221e-01 6.1847053079541188e-16 1.3523273238265539e-15  1.4999993988327273e-01 2.9049720033069340e-16 1.5985566670170946e-15  1.5000003193968034e-01 4.0867676239603854e-16 1.3321216938146640e-15  1.5000003437756074e-01 8.3380472933861085e-17 3.5695649538961744e-16  1.4999996758436296e-01 2.6484371263785995e-16 9.8638938635997900e-16  1.4999998658815303e-01 7.5914299359785360e-18 9.0891374132422762e-18  1.5000002654401459e-01 1.4782055002500529e-16 5.0651603310892875e-16  1.4999999929245969e-01 2.7202499933990479e-18 3.9403033949658180e-17  1.4999998284583996e-01 6.1105049639262388e-17 1.5438596049154137e-16  1.5000000744854458e-01 1.4985018939819980e-17 8.5058683160355869e-17  1.5000000773955147e-01 1.4197698646976393e-17 1.5660056376011819e-17  1.4999999183622290e-01 1.6777536647098530e-17 5.8347993026654023e-17  1.4999999903578165e-01 4.7787487860137653e-19 1.3816661597966912e-18  1.5000000547873757e-01 8.7916337877300511e-18 1.7006897169439226e-17  1.4999999778826464e-01 9.7850968506757015e-19 8.1385930323802776e-18  1.4999999788605389e-01 1.8886192436078600e-18 9.0477994932542582e-19  1.5000000247443052e-01 1.8137185806162809e-18 4.9855742398740633e-18  1.4999999983740947e-01 1.1768807283694164e-20 5.2715194017937150e-19  1.4999999865257743e-01 7.9054284393111058e-19 7.6634370673300739e-19  1.5000000091010468e-01 2.1454310984779600e-19 9.2207243183065443e-19  1.5000000020530357e-01 6.3069009243758269e-20 1.0770697249670217e-20  1.4999999934956487e-01 1.9117660765241684e-19 2.3228596763056576e-19  1.5000000031343938e-01 1.9070002232677464e-20 1.4613451713188061e-19  1.5000000015312412e-01 2.7062087765340180e-20 7.8990307258551587e-23  1.4999999971803291e-01 3.8280435364953473e-20 4.8860151365616181e-20  1.5000000011638023e-01 1.9707357597048524e-21 2.4173535535521050e-20  1.5000000007078920e-01 6.5142468392308825e-21 5.1945403834246073e-23  1.4999999988266888e-01 7.5112168370969938e-21 8.3884702584633169e-21  1.5000000005145003e-01 4.3872101393631970e-22 4.5702951900902800e-21  1.5000000002363420e-01 1.0811588027083701e-21 1.4190780675193317e-23  1.4999999995285626e-01 1.5039672396810013e-21 1.1536050694840606e-21  1.5000000002609781e-01 1.8958281528607170e-22 9.3350067144341329e-22  1.5000000000352839e-01 1.0351910800576460e-22 5.9227532307243942e-23  1.4999999998279401e-01 2.7952327057897153e-22 9.7973755694771418e-23  1.5000000001332192e-01 8.5873714477638249e-23 1.7176931044991719e-22  1.4999999999727373e-01 9.1935020258160718e-25 4.4561469783544642e-23  1.4999999999525571e-01 3.8674777768219560e-23 7.6335644255777349e-25  1.5000000000604946e-01 3.0744707139674363e-23 2.0530692379780311e-23  1.4999999999665586e-01 4.0040817023151962e-24 1.6423504378945970e-23  1.5000000000002636e-01 1.3352578900326621e-24 2.7402721071207820e-24  1.5000000000186503e-01 5.9790012805590145e-24 2.5838626059988340e-25  1.4999999999793776e-01 4.3486642361640137e-24 2.2102874839479002e-24  1.5000000000128633e-01 1.0134878424903254e-24 1.9436702892695713e-24  1.4999999999964950e-01 2.4660418297064891e-28 6.2716096532898468e-25  1.4999999999972150e-01 2.7894506107429106e-25 3.1258911862614579e-26  1.5000000000051211e-01 4.1042089869239153e-25 4.2361106455457522e-26  1.4999999999953043e-01 2.5165608034527140e-25 1.1355084210285320e-25  1.5000000000031205e-01 8.4372201674970557e-26 9.1395761223829417e-26  1.4999999999984792e-01 1.2935553123398446e-26 4.0895465970443440e-26  1.5000000000004188e-01 5.0164851821314662e-29 1.0704660795915143e-26  1.5000000000001490e-01 1.5096368049198604e-27 1.1297159655658014e-27  1.4999999999996652e-01 2.1956454380079270e-27 1.1578734381366010e-29  1.5000000000003158e-01 1.3670614522430578e-27 2.7885658657181875e-28  1.4999999999997657e-01 5.6301444785713046e-28 3.3263216171417393e-28  1.5000000000001429e-01 1.8517311441103471e-28 1.9219815012439795e-28  1.4999999999999536e-01 3.9243948530736998e-29 4.1831633700257024e-29  1.5000000000000774e-01 0.0000000000000000e+00 6.5790795844538985e-29  1.5000000000008201e-01 0.0000000000000000e+00 1.8224132938884452e-25  1.4999999999988689e-01 1.3771285012834192e-27 3.3306707360633941e-27  1.5000000000016861e-01 9.2717626770402676e-27 9.2553285283732648e-27  1.5000000000033695e-01 4.3131319983928405e-25 4.2805697655918188e-26  1.5000000000337596e-01 1.8007728195567805e-23 1.1579826867080468e-23  1.5000000002053437e-01 2.7839843761173104e-22 4.3738260042908559e-22  1.5000000008178963e-01 4.2476524124284797e-21 7.7452705514362464e-21  1.5000000028609389e-01 4.3050019914125293e-20 9.9961182587849015e-20  1.5000000088016432e-01 3.1451024954626881e-19 9.8491059476314800e-19  1.5000000236012437e-01 1.7886329070819313e-18 7.3301136597981742e-18  1.5000000559593740e-01 7.7676588820798846e-18 4.2343467921851504e-17  1.5000001179559105e-01 2.4895888212017702e-17 1.9141611974297008e-16  1.5000002192856382e-01 5.8028440874312550e-17 6.6696024441533441e-16  1.5000003562996114e-01 9.4335133890457408e-17 1.7564243825271885e-15  1.5000005002469852e-01 9.2999102647134992e-17 3.3984166276182490e-15  1.5000005891763071e-01 3.3104821175076252e-17 4.5146454724739586e-15  1.5000005349727916e-01 9.5045412719854587e-18 3.4040161016170816e-15  1.5000002521602790e-01 3.6560105279175323e-16 5.3662380688256561e-16  1.4999996765517756e-01 2.2538819510364803e-15 1.8673373663426036e-15  1.4999987607485787e-01 8.0491571927176571e-15 2.0642785080716098e-14  1.4999975542447280e-01 1.6369759097232837e-14 7.3499109401980185e-14  1.4999964355131565e-01 1.3947727328506046e-14 1.4558816039637935e-13  1.4999962088839330e-01 3.8890559391817459e-16 1.4718514416534367e-13  1.4999976162905393e-01 2.0508555676140095e-14 3.9886815801654803e-14  1.5000003925990207e-01 6.7413904069509870e-14 1.4832415874603345e-14  1.5000029044482541e-01 4.8451782843301729e-14 1.4303048566426943e-13  1.5000033738215537e-01 2.4900630809638511e-15 1.4314960461544396e-13  1.5000018351905647e-01 1.0469991248459342e-14 2.7121486444770607e-14  1.5000001579839090e-01 1.9311834603202623e-14 7.4014587682604552e-16  1.4999995708236799e-01 9.4223553382566817e-15 5.6842314166053093e-15  1.4999994862148122e-01 8.8808503619543992e-16 4.6988671390268528e-15  1.4999996146824804e-01 3.1785653832126407e-15 1.2071057584543692e-15  1.5000006846165045e-01 9.8480946859150457e-15 1.0898997029633920e-14  1.5000016472112168e-01 1.6523939369621288e-16 3.9486942661452144e-14  1.5000002408156771e-01 1.2191639564173776e-14 1.3215931195163797e-19  1.4999980624630696e-01 5.5939171725725911e-15 6.1472336733743596e-14  1.4999990994425011e-01 5.8691810202764250e-15 6.9330794030783320e-15  1.5000018393900974e-01 8.9338003709471065e-15 5.8046627927843048e-14  1.5000011565370935e-01 1.8759259702563869e-15 1.4103832280723023e-14  1.4999983815748633e-01 7.9478449859589086e-15 4.5557587540448028e-14  1.4999989435045291e-01 4.9981689017363043e-16 1.2094576413628295e-14  1.5000014058220909e-01 5.4022691684439280e-15 3.3797802231426063e-14  1.5000007501847823e-01 1.8146115992728532e-16 5.6352249116237842e-15  1.4999987950543894e-01 3.1781868922213150e-15 2.3867370737680408e-14  1.4999996223454420e-01 1.4542021489495263e-16 1.0171526750705580e-15  1.5000009828178834e-01 1.6800302126851087e-15 1.5041653049271322e-14  1.5000000450900491e-01 1.8708484633308566e-16 3.5442339269185933e-17  1.4999992760894781e-01 7.6979735865805726e-16 7.6124122795257981e-15  1.5000001821462322e-01 2.3267047773912642e-16 9.2219684899974789e-16  1.5000004485867596e-01 2.6896024872185634e-16 2.6325208349687850e-15  1.4999997195907130e-01 2.2850858894482818e-16 1.5091761956387711e-15  1.4999997991666267e-01 5.0242919365214922e-17 4.1431611458136197e-16  1.5000002653280606e-01 1.6358247505625883e-16 1.1518016786879356e-15  1.5000000225633042e-01 1.2474912782744629e-19 5.6629474898346566e-19  1.4999998187200916e-01 7.7482231202086434e-17 4.6701513370363739e-16  1.5000000679216277e-01 1.1270961281332969e-17 1.0798529199013041e-16  1.5000000816969708e-01 1.9011727349213269e-17 7.3889212715986465e-17  1.4999999174111614e-01 1.7649479895588909e-17 1.1548761267617620e-16  1.4999999924546564e-01 6.0233531461121544e-19 1.0644094675026223e-19  1.5000000541060587e-01 9.4757683062247150e-18 4.0147796726852660e-17  1.4999999745255499e-01 1.3253561083130896e-18 1.4036620106169844e-17  1.4999999824756569e-01 1.6504460748386039e-18 2.5268577910154221e-18  1.5000000253844592e-01 2.1211624535610563e-18 9.9646022545841734e-18  1.4999999946970202e-01 7.4473781781476583e-21 1.0494937393948657e-18  1.4999999886478327e-01 6.9292074033115594e-19 1.3777031567430368e-18  1.5000000104167233e-01 3.4519669648727671e-19 1.8447461839818795e-18  1.4999999995230673e-01 1.1739425221915764e-20 6.0921966554025740e-20  1.4999999944206119e-01 1.7940945662211601e-19 3.5821389840588219e-19  1.5000000042005823e-01 5.5070733927099544e-20 3.1925345379909077e-19  1.5000000000904870e-01 6.1590093038325346e-21 5.9911213171198202e-21  1.4999999975887948e-01 3.8263736725451993e-20 6.6038223223630241e-20  1.5000000017839749e-01 1.0880055431833940e-20 5.7742830935974284e-20  1.4999999999436761e-01 9.6764348048678231e-22 2.2149202198261574e-21  1.4999999990607080e-01 7.2685635884499085e-21 8.9137030456830282e-21  1.5000000007998959e-01 2.7857251653390919e-21 1.0773534038821974e-20  1.4999999998449523e-01 1.5862785006965307e-23 1.2979405384996117e-21  1.4999999996948718e-01 1.1298700950690632e-21 6.5462289725645625e-22  1.5000000003528041e-01 7.6563737332961901e-22 1.7950259867521588e-21  1.4999999998501679e-01 3.6162345860251814e-23 5.9866110665029254e-22  1.4999999999436778e-01 1.0677383047355001e-22 2.1601529602122459e-25  1.5000000001367511e-01 1.8343551326020329e-22 1.9441949876612041e-22  1.4999999998977620e-01 5.6381374351840459e-23 1.8191885032351923e-22  1.5000000000