<?xml version="1.0"?>
<VTKFile type="UnstructuredGrid"  version="0.1"  >
<UnstructuredGrid>
<Piece  NumberOfPoints="10201" NumberOfCells="20000">
<Points>
<DataArray  type="Float64"  NumberOfComponents="3"  format="ascii">-5 -5 0  -4.9 -5 0  -4.8 -5 0  -4.7 -5 0  -4.6 -5 0  -4.5 -5 0  -4.4 -5 0  -4.3 -5 0  -4.2 -5 0  -4.1 -5 0  -4 -5 0  -3.9 -5 0  -3.8 -5 0  -3.7 -5 0  -3.6 -5 0  -3.5 -5 0  -3.4 -5 0  -3.3 -5 0  -3.2 -5 0  -3.1 -5 0  -3 -5 0  -2.9 -5 0  -2.8 -5 0  -2.7 -5 0  -2.6 -5 0  -2.5 -5 0  -2.4 -5 0  -2.3 -5 0  -2.2 -5 0  -2.1 -5 0  -2 -5 0  -1.9 -5 0  -1.8 -5 0  -1.7 -5 0  -1.6 -5 0  -1.5 -5 0  -1.4 -5 0  -1.3 -5 0  -1.2 -5 0  -1.1 -5 0  -1 -5 0  -0.9000000000000004 -5 0  -0.7999999999999998 -5 0  -0.7000000000000002 -5 0  -0.5999999999999996 -5 0  -0.5 -5 0  -0.4000000000000004 -5 0  -0.2999999999999998 -5 0  -0.2000000000000002 -5 0  -0.09999999999999964 -5 0  0 -5 0  0.09999999999999964 -5 0  0.2000000000000002 -5 0  0.2999999999999998 -5 0  0.4000000000000004 -5 0  0.5 -5 0  0.5999999999999996 -5 0  0.7000000000000002 -5 0  0.7999999999999998 -5 0  0.9000000000000004 -5 0  1 -5 0  1.1 -5 0  1.2 -5 0  1.3 -5 0  1.4 -5 0  1.5 -5 0  1.6 -5 0  1.7 -5 0  1.8 -5 0  1.9 -5 0  2 -5 0  2.1 -5 0  2.2 -5 0  2.3 -5 0  2.4 -5 0  2.5 -5 0  2.6 -5 0  2.7 -5 0  2.8 -5 0  2.9 -5 0  3 -5 0  3.1 -5 0  3.199999999999999 -5 0  3.300000000000001 -5 0  3.4 -5 0  3.5 -5 0  3.6 -5 0  3.699999999999999 -5 0  3.800000000000001 -5 0  3.9 -5 0  4 -5 0  4.1 -5 0  4.199999999999999 -5 0  4.300000000000001 -5 0  4.4 -5 0  4.5 -5 0  4.6 -5 0  4.699999999999999 -5 0  4.800000000000001 -5 0  4.9 -5 0  5 -5 0  -5 -4.9 0  -4.9 -4.9 0  -4.8 -4.9 0  -4.7 -4.9 0  -4.6 -4.9 0  -4.5 -4.9 0  -4.4 -4.9 0  -4.3 -4.9 0  -4.2 -4.9 0  -4.1 -4.9 0  -4 -4.9 0  -3.9 -4.9 0  -3.8 -4.9 0  -3.7 -4.9 0  -3.6 -4.9 0  -3.5 -4.9 0  -3.4 -4.9 0  -3.3 -4.9 0  -3.2 -4.9 0  -3.1 -4.9 0  -3 -4.9 0  -2.9 -4.9 0  -2.8 -4.9 0  -2.7 -4.9 0  -2.6 -4.9 0  -2.5 -4.9 0  -2.4 -4.9 0  -2.3 -4.9 0  -2.2 -4.9 0  -2.1 -4.9 0  -2 -4.9 0  -1.9 -4.9 0  -1.8 -4.9 0  -1.7 -4.9 0  -1.6 -4.9 0  -1.5 -4.9 0  -1.4 -4.9 0  -1.3 -4.9 0  -1.2 -4.9 0  -1.1 -4.9 0  -1 -4.9 0  -0.9000000000000004 -4.9 0  -0.7999999999999998 -4.9 0  -0.7000000000000002 -4.9 0  -0.5999999999999996 -4.9 0  -0.5 -4.9 0  -0.4000000000000004 -4.9 0  -0.2999999999999998 -4.9 0  -0.2000000000000002 -4.9 0  -0.09999999999999964 -4.9 0  0 -4.9 0  0.09999999999999964 -4.9 0  0.2000000000000002 -4.9 0  0.2999999999999998 -4.9 0  0.4000000000000004 -4.9 0  0.5 -4.9 0  0.5999999999999996 -4.9 0  0.7000000000000002 -4.9 0  0.7999999999999998 -4.9 0  0.9000000000000004 -4.9 0  1 -4.9 0  1.1 -4.9 0  1.2 -4.9 0  1.3 -4.9 0  1.4 -4.9 0  1.5 -4.9 0  1.6 -4.9 0  1.7 -4.9 0  1.8 -4.9 0  1.9 -4.9 0  2 -4.9 0  2.1 -4.9 0  2.2 -4.9 0  2.3 -4.9 0  2.4 -4.9 0  2.5 -4.9 0  2.6 -4.9 0  2.7 -4.9 0  2.8 -4.9 0  2.9 -4.9 0  3 -4.9 0  3.1 -4.9 0  3.199999999999999 -4.9 0  3.300000000000001 -4.9 0  3.4 -4.9 0  3.5 -4.9 0  3.6 -4.9 0  3.699999999999999 -4.9 0  3.800000000000001 -4.9 0  3.9 -4.9 0  4 -4.9 0  4.1 -4.9 0  4.199999999999999 -4.9 0  4.300000000000001 -4.9 0  4.4 -4.9 0  4.5 -4.9 0  4.6 -4.9 0  4.699999999999999 -4.9 0  4.800000000000001 -4.9 0  4.9 -4.9 0  5 -4.9 0  -5 -4.8 0  -4.9 -4.8 0  -4.8 -4.8 0  -4.7 -4.8 0  -4.6 -4.8 0  -4.5 -4.8 0  -4.4 -4.8 0  -4.3 -4.8 0  -4.2 -4.8 0  -4.1 -4.8 0  -4 -4.8 0  -3.9 -4.8 0  -3.8 -4.8 0  -3.7 -4.8 0  -3.6 -4.8 0  -3.5 -4.8 0  -3.4 -4.8 0  -3.3 -4.8 0  -3.2 -4.8 0  -3.1 -4.8 0  -3 -4.8 0  -2.9 -4.8 0  -2.8 -4.8 0  -2.7 -4.8 0  -2.6 -4.8 0  -2.5 -4.8 0  -2.4 -4.8 0  -2.3 -4.8 0  -2.2 -4.8 0  -2.1 -4.8 0  -2 -4.8 0  -1.9 -4.8 0  -1.8 -4.8 0  -1.7 -4.8 0  -1.6 -4.8 0  -1.5 -4.8 0  -1.4 -4.8 0  -1.3 -4.8 0  -1.2 -4.8 0  -1.1 -4.8 0  -1 -4.8 0  -0.9000000000000004 -4.8 0  -0.7999999999999998 -4.8 0  -0.7000000000000002 -4.8 0  -0.5999999999999996 -4.8 0  -0.5 -4.8 0  -0.4000000000000004 -4.8 0  -0.2999999999999998 -4.8 0  -0.2000000000000002 -4.8 0  -0.09999999999999964 -4.8 0  0 -4.8 0  0.09999999999999964 -4.8 0  0.2000000000000002 -4.8 0  0.2999999999999998 -4.8 0  0.4000000000000004 -4.8 0  0.5 -4.8 0  0.5999999999999996 -4.8 0  0.7000000000000002 -4.8 0  0.7999999999999998 -4.8 0  0.9000000000000004 -4.8 0  1 -4.8 0  1.1 -4.8 0  1.2 -4.8 0  1.3 -4.8 0  1.4 -4.8 0  1.5 -4.8 0  1.6 -4.8 0  1.7 -4.8 0  1.8 -4.8 0  1.9 -4.8 0  2 -4.8 0  2.1 -4.8 0  2.2 -4.8 0  2.3 -4.8 0  2.4 -4.8 0  2.5 -4.8 0  2.6 -4.8 0  2.7 -4.8 0  2.8 -4.8 0  2.9 -4.8 0  3 -4.8 0  3.1 -4.8 0  3.199999999999999 -4.8 0  3.300000000000001 -4.8 0  3.4 -4.8 0  3.5 -4.8 0  3.6 -4.8 0  3.699999999999999 -4.8 0  3.800000000000001 -4.8 0  3.9 -4.8 0  4 -4.8 0  4.1 -4.8 0  4.199999999999999 -4.8 0  4.300000000000001 -4.8 0  4.4 -4.8 0  4.5 -4.8 0  4.6 -4.8 0  4.699999999999999 -4.8 0  4.800000000000001 -4.8 0  4.9 -4.8 0  5 -4.8 0  -5 -4.7 0  -4.9 -4.7 0  -4.8 -4.7 0  -4.7 -4.7 0  -4.6 -4.7 0  -4.5 -4.7 0  -4.4 -4.7 0  -4.3 -4.7 0  -4.2 -4.7 0  -4.1 -4.7 0  -4 -4.7 0  -3.9 -4.7 0  -3.8 -4.7 0  -3.7 -4.7 0  -3.6 -4.7 0  -3.5 -4.7 0  -3.4 -4.7 0  -3.3 -4.7 0  -3.2 -4.7 0  -3.1 -4.7 0  -3 -4.7 0  -2.9 -4.7 0  -2.8 -4.7 0  -2.7 -4.7 0  -2.6 -4.7 0  -2.5 -4.7 0  -2.4 -4.7 0  -2.3 -4.7 0  -2.2 -4.7 0  -2.1 -4.7 0  -2 -4.7 0  -1.9 -4.7 0  -1.8 -4.7 0  -1.7 -4.7 0  -1.6 -4.7 0  -1.5 -4.7 0  -1.4 -4.7 0  -1.3 -4.7 0  -1.2 -4.7 0  -1.1 -4.7 0  -1 -4.7 0  -0.9000000000000004 -4.7 0  -0.7999999999999998 -4.7 0  -0.7000000000000002 -4.7 0  -0.5999999999999996 -4.7 0  -0.5 -4.7 0  -0.4000000000000004 -4.7 0  -0.2999999999999998 -4.7 0  -0.2000000000000002 -4.7 0  -0.09999999999999964 -4.7 0  0 -4.7 0  0.09999999999999964 -4.7 0  0.2000000000000002 -4.7 0  0.2999999999999998 -4.7 0  0.4000000000000004 -4.7 0  0.5 -4.7 0  0.5999999999999996 -4.7 0  0.7000000000000002 -4.7 0  0.7999999999999998 -4.7 0  0.9000000000000004 -4.7 0  1 -4.7 0  1.1 -4.7 0  1.2 -4.7 0  1.3 -4.7 0  1.4 -4.7 0  1.5 -4.7 0  1.6 -4.7 0  1.7 -4.7 0  1.8 -4.7 0  1.9 -4.7 0  2 -4.7 0  2.1 -4.7 0  2.2 -4.7 0  2.3 -4.7 0  2.4 -4.7 0  2.5 -4.7 0  2.6 -4.7 0  2.7 -4.7 0  2.8 -4.7 0  2.9 -4.7 0  3 -4.7 0  3.1 -4.7 0  3.199999999999999 -4.7 0  3.300000000000001 -4.7 0  3.4 -4.7 0  3.5 -4.7 0  3.6 -4.7 0  3.699999999999999 -4.7 0  3.800000000000001 -4.7 0  3.9 -4.7 0  4 -4.7 0  4.1 -4.7 0  4.199999999999999 -4.7 0  4.300000000000001 -4.7 0  4.4 -4.7 0  4.5 -4.7 0  4.6 -4.7 0  4.699999999999999 -4.7 0  4.800000000000001 -4.7 0  4.9 -4.7 0  5 -4.7 0  -5 -4.6 0  -4.9 -4.6 0  -4.8 -4.6 0  -4.7 -4.6 0  -4.6 -4.6 0  -4.5 -4.6 0  -4.4 -4.6 0  -4.3 -4.6 0  -4.2 -4.6 0  -4.1 -4.6 0  -4 -4.6 0  -3.9 -4.6 0  -3.8 -4.6 0  -3.7 -4.6 0  -3.6 -4.6 0  -3.5 -4.6 0  -3.4 -4.6 0  -3.3 -4.6 0  -3.2 -4.6 0  -3.1 -4.6 0  -3 -4.6 0  -2.9 -4.6 0  -2.8 -4.6 0  -2.7 -4.6 0  -2.6 -4.6 0  -2.5 -4.6 0  -2.4 -4.6 0  -2.3 -4.6 0  -2.2 -4.6 0  -2.1 -4.6 0  -2 -4.6 0  -1.9 -4.6 0  -1.8 -4.6 0  -1.7 -4.6 0  -1.6 -4.6 0  -1.5 -4.6 0  -1.4 -4.6 0  -1.3 -4.6 0  -1.2 -4.6 0  -1.1 -4.6 0  -1 -4.6 0  -0.9000000000000004 -4.6 0  -0.7999999999999998 -4.6 0  -0.7000000000000002 -4.6 0  -0.5999999999999996 -4.6 0  -0.5 -4.6 0  -0.4000000000000004 -4.6 0  -0.2999999999999998 -4.6 0  -0.2000000000000002 -4.6 0  -0.09999999999999964 -4.6 0  0 -4.6 0  0.09999999999999964 -4.6 0  0.2000000000000002 -4.6 0  0.2999999999999998 -4.6 0  0.4000000000000004 -4.6 0  0.5 -4.6 0  0.5999999999999996 -4.6 0  0.7000000000000002 -4.6 0  0.7999999999999998 -4.6 0  0.9000000000000004 -4.6 0  1 -4.6 0  1.1 -4.6 0  1.2 -4.6 0  1.3 -4.6 0  1.4 -4.6 0  1.5 -4.6 0  1.6 -4.6 0  1.7 -4.6 0  1.8 -4.6 0  1.9 -4.6 0  2 -4.6 0  2.1 -4.6 0  2.2 -4.6 0  2.3 -4.6 0  2.4 -4.6 0  2.5 -4.6 0  2.6 -4.6 0  2.7 -4.6 0  2.8 -4.6 0  2.9 -4.6 0  3 -4.6 0  3.1 -4.6 0  3.199999999999999 -4.6 0  3.300000000000001 -4.6 0  3.4 -4.6 0  3.5 -4.6 0  3.6 -4.6 0  3.699999999999999 -4.6 0  3.800000000000001 -4.6 0  3.9 -4.6 0  4 -4.6 0  4.1 -4.6 0  4.199999999999999 -4.6 0  4.300000000000001 -4.6 0  4.4 -4.6 0  4.5 -4.6 0  4.6 -4.6 0  4.699999999999999 -4.6 0  4.800000000000001 -4.6 0  4.9 -4.6 0  5 -4.6 0  -5 -4.5 0  -4.9 -4.5 0  -4.8 -4.5 0  -4.7 -4.5 0  -4.6 -4.5 0  -4.5 -4.5 0  -4.4 -4.5 0  -4.3 -4.5 0  -4.2 -4.5 0  -4.1 -4.5 0  -4 -4.5 0  -3.9 -4.5 0  -3.8 -4.5 0  -3.7 -4.5 0  -3.6 -4.5 0  -3.5 -4.5 0  -3.4 -4.5 0  -3.3 -4.5 0  -3.2 -4.5 0  -3.1 -4.5 0  -3 -4.5 0  -2.9 -4.5 0  -2.8 -4.5 0  -2.7 -4.5 0  -2.6 -4.5 0  -2.5 -4.5 0  -2.4 -4.5 0  -2.3 -4.5 0  -2.2 -4.5 0  -2.1 -4.5 0  -2 -4.5 0  -1.9 -4.5 0  -1.8 -4.5 0  -1.7 -4.5 0  -1.6 -4.5 0  -1.5 -4.5 0  -1.4 -4.5 0  -1.3 -4.5 0  -1.2 -4.5 0  -1.1 -4.5 0  -1 -4.5 0  -0.9000000000000004 -4.5 0  -0.7999999999999998 -4.5 0  -0.7000000000000002 -4.5 0  -0.5999999999999996 -4.5 0  -0.5 -4.5 0  -0.4000000000000004 -4.5 0  -0.2999999999999998 -4.5 0  -0.2000000000000002 -4.5 0  -0.09999999999999964 -4.5 0  0 -4.5 0  0.09999999999999964 -4.5 0  0.2000000000000002 -4.5 0  0.2999999999999998 -4.5 0  0.4000000000000004 -4.5 0  0.5 -4.5 0  0.5999999999999996 -4.5 0  0.7000000000000002 -4.5 0  0.7999999999999998 -4.5 0  0.9000000000000004 -4.5 0  1 -4.5 0  1.1 -4.5 0  1.2 -4.5 0  1.3 -4.5 0  1.4 -4.5 0  1.5 -4.5 0  1.6 -4.5 0  1.7 -4.5 0  1.8 -4.5 0  1.9 -4.5 0  2 -4.5 0  2.1 -4.5 0  2.2 -4.5 0  2.3 -4.5 0  2.4 -4.5 0  2.5 -4.5 0  2.6 -4.5 0  2.7 -4.5 0  2.8 -4.5 0  2.9 -4.5 0  3 -4.5 0  3.1 -4.5 0  3.199999999999999 -4.5 0  3.300000000000001 -4.5 0  3.4 -4.5 0  3.5 -4.5 0  3.6 -4.5 0  3.699999999999999 -4.5 0  3.800000000000001 -4.5 0  3.9 -4.5 0  4 -4.5 0  4.1 -4.5 0  4.199999999999999 -4.5 0  4.300000000000001 -4.5 0  4.4 -4.5 0  4.5 -4.5 0  4.6 -4.5 0  4.699999999999999 -4.5 0  4.800000000000001 -4.5 0  4.9 -4.5 0  5 -4.5 0  -5 -4.4 0  -4.9 -4.4 0  -4.8 -4.4 0  -4.7 -4.4 0  -4.6 -4.4 0  -4.5 -4.4 0  -4.4 -4.4 0  -4.3 -4.4 0  -4.2 -4.4 0  -4.1 -4.4 0  -4 -4.4 0  -3.9 -4.4 0  -3.8 -4.4 0  -3.7 -4.4 0  -3.6 -4.4 0  -3.5 -4.4 0  -3.4 -4.4 0  -3.3 -4.4 0  -3.2 -4.4 0  -3.1 -4.4 0  -3 -4.4 0  -2.9 -4.4 0  -2.8 -4.4 0  -2.7 -4.4 0  -2.6 -4.4 0  -2.5 -4.4 0  -2.4 -4.4 0  -2.3 -4.4 0  -2.2 -4.4 0  -2.1 -4.4 0  -2 -4.4 0  -1.9 -4.4 0  -1.8 -4.
[...]
<PointData  Vectors="f_17"> 
<DataArray  type="Float64"  Name="f_17"  NumberOfComponents="3" format="ascii">1.5000000000000022e-01 0.0000000000000000e+00 0.0000000000000000e+00  1.4999999999999999e-01 1.4033150903367717e-16 0.0000000000000000e+00  1.5000000000000008e-01 -6.5279249144691521e-18 0.0000000000000000e+00  1.5000000000000011e-01 -2.6011983866880319e-16 0.0000000000000000e+00  1.5000000000000024e-01 4.6192413786488669e-16 0.0000000000000000e+00  1.4999999999999999e-01 -2.0293646548019896e-16 0.0000000000000000e+00  1.5000000000000027e-01 8.0591534254770887e-16 0.0000000000000000e+00  1.5000000000000019e-01 2.0892602242895142e-16 0.0000000000000000e+00  1.4999999999999988e-01 -6.9701084123169331e-16 0.0000000000000000e+00  1.5000000000000044e-01 2.9152662163900303e-16 0.0000000000000000e+00  1.5000000000000069e-01 1.6346154708056382e-15 0.0000000000000000e+00  1.4999999999999816e-01 9.6965190975591198e-16 0.0000000000000000e+00  1.4999999999999206e-01 1.8798706212742579e-14 0.0000000000000000e+00  1.4999999999996466e-01 7.8573125140948642e-14 0.0000000000000000e+00  1.4999999999986333e-01 1.5626301078038158e-13 0.0000000000000000e+00  1.4999999999965810e-01 1.8928450437099411e-13 0.0000000000000000e+00  1.4999999999940902e-01 1.2196959870666124e-13 0.0000000000000000e+00  1.4999999999910985e-01 2.3448832376394517e-13 0.0000000000000000e+00  1.4999999999803823e-01 2.4959903530990188e-12 0.0000000000000000e+00  1.4999999999303121e-01 1.1873420089419738e-11 0.0000000000000000e+00  1.4999999997628777e-01 3.2444387384326129e-11 0.0000000000000000e+00  1.4999999993842500e-01 5.6585191864811383e-11 0.0000000000000000e+00  1.4999999988320414e-01 6.0316114683581048e-11 0.0000000000000000e+00  1.4999999984239265e-01 2.2111067605160597e-11 0.0000000000000000e+00  1.4999999985996845e-01 -4.5623908374803989e-11 0.0000000000000000e+00  1.4999999994224070e-01 -9.3885639385635771e-11 0.0000000000000000e+00  1.5000000003252936e-01 -8.1702022856777358e-11 0.0000000000000000e+00  1.5000000006295122e-01 -2.2577366151270072e-11 0.0000000000000000e+00  1.5000000003062097e-01 2.7741345698696238e-11 0.0000000000000000e+00  1.4999999999319374e-01 3.2331653836334766e-11 0.0000000000000000e+00  1.4999999998917407e-01 7.6933262397894107e-12 0.0000000000000000e+00  1.5000000000072583e-01 -8.1254812514421580e-12 0.0000000000000000e+00  1.5000000000146721e-01 -4.2642820338732901e-12 0.0000000000000000e+00  1.4999999999694325e-01 2.0512331396928087e-12 0.0000000000000000e+00  1.5000000000001673e-01 2.5563976625564522e-13 0.0000000000000000e+00  1.5000000000388850e-01 -2.0119022080720464e-12 0.0000000000000000e+00  1.5000000000037422e-01 6.3722171992116261e-13 0.0000000000000000e+00  1.4999999999684388e-01 2.1859210372805716e-12 0.0000000000000000e+00  1.4999999999950811e-01 -4.4246328909651603e-13 0.0000000000000000e+00  1.5000000000212052e-01 -1.7983474568199897e-12 0.0000000000000000e+00  1.5000000000030009e-01 2.5233928848895708e-13 0.0000000000000000e+00  1.4999999999870683e-01 1.2377111864430589e-12 0.0000000000000000e+00  1.4999999999992980e-01 -2.0473750820698593e-13 0.0000000000000000e+00  1.5000000000073141e-01 -7.5450197384187403e-13 0.0000000000000000e+00  1.4999999999992958e-01 2.0430399565572753e-13 0.0000000000000000e+00  1.4999999999962596e-01 4.0695772691159830e-13 0.0000000000000000e+00  1.5000000000011590e-01 -1.8798323487618423e-13 0.0000000000000000e+00  1.5000000000016175e-01 -1.8297820211378235e-13 0.0000000000000000e+00  1.4999999999989866e-01 1.4514408107798860e-13 0.0000000000000000e+00  1.4999999999995056e-01 5.6761254086717792e-14 0.0000000000000000e+00  1.5000000000006491e-01 -9.2719480277341028e-14 0.0000000000000000e+00  1.5000000000000094e-01 2.2322497739270075e-15 0.0000000000000000e+00  1.4999999999996941e-01 4.6133837400135159e-14 0.0000000000000000e+00  1.5000000000001176e-01 -1.9148263120685337e-14 0.0000000000000000e+00  1.5000000000000949e-01 -1.4560571331853984e-14 0.0000000000000000e+00  1.4999999999999047e-01 1.5306291590373359e-14 0.0000000000000000e+00  1.5000000000000033e-01 -1.4759801189787858e-16 0.0000000000000000e+00  1.5000000000000427e-01 -7.5125898598830657e-15 0.0000000000000000e+00  1.4999999999999761e-01 3.9527004539445408e-15 0.0000000000000000e+00  1.4999999999999947e-01 1.8785347957613227e-15 0.0000000000000000e+00  1.5000000000000152e-01 -2.3254708669564213e-15 0.0000000000000000e+00  1.4999999999999963e-01 5.3704464038048950e-16 0.0000000000000000e+00  1.4999999999999969e-01 9.9935831242871344e-16 0.0000000000000000e+00  1.5000000000000044e-01 -1.1144109541602013e-15 0.0000000000000000e+00  1.5000000000000008e-01 4.7560879162265573e-17 0.0000000000000000e+00  1.4999999999999974e-01 -2.1026127165109651e-16 0.0000000000000000e+00  1.5000000000000011e-01 -2.0657341619424208e-16 0.0000000000000000e+00  1.4999999999999991e-01 -2.0385777340193076e-16 0.0000000000000000e+00  1.4999999999999988e-01 9.6299089464412871e-17 0.0000000000000000e+00  1.5000000000000033e-01 3.8167332357490723e-18 0.0000000000000000e+00  1.4999999999999974e-01 2.2997912093470827e-16 0.0000000000000000e+00  1.5000000000000005e-01 4.4717810910540328e-16 0.0000000000000000e+00  1.5000000000000005e-01 2.0014453822330541e-16 0.0000000000000000e+00  1.5000000000000019e-01 1.5055804104338062e-16 0.0000000000000000e+00  1.4999999999999999e-01 -1.2120910503310306e-16 0.0000000000000000e+00  1.5000000000000011e-01 -9.3191381468490560e-17 0.0000000000000000e+00  1.5000000000000011e-01 -1.0341710539892299e-16 0.0000000000000000e+00  1.5000000000000022e-01 6.0321637216121326e-16 0.0000000000000000e+00  1.5000000000000005e-01 -6.8852314095493064e-16 0.0000000000000000e+00  1.5000000000000011e-01 6.9411693159490570e-17 0.0000000000000000e+00  1.5000000000000011e-01 -3.7674344520818281e-16 0.0000000000000000e+00  1.5000000000000005e-01 6.4933154768412414e-16 0.0000000000000000e+00  1.5000000000000008e-01 -3.7634784289771866e-16 0.0000000000000000e+00  1.4999999999999991e-01 9.7440527738791971e-17 0.0000000000000000e+00  1.4999999999999999e-01 4.1728944152805382e-16 0.0000000000000000e+00  1.5000000000000022e-01 3.5911381412593140e-16 0.0000000000000000e+00  1.5000000000000011e-01 3.1235390952113591e-16 0.0000000000000000e+00  1.4999999999999997e-01 -1.6434951024898887e-16 0.0000000000000000e+00  1.4999999999999991e-01 3.6613280993321615e-17 0.0000000000000000e+00  1.4999999999999997e-01 -2.7808928272473856e-16 0.0000000000000000e+00  1.4999999999999997e-01 -3.5592843608644644e-16 0.0000000000000000e+00  1.5000000000000002e-01 -4.6692339025556055e-16 0.0000000000000000e+00  1.4999999999999994e-01 -1.9418026445179875e-16 0.0000000000000000e+00  1.4999999999999999e-01 4.3680447709416696e-16 0.0000000000000000e+00  1.5000000000000002e-01 1.0929926401222070e-16 0.0000000000000000e+00  1.5000000000000002e-01 2.2387955816321068e-16 0.0000000000000000e+00  1.5000000000000008e-01 -7.8419295188680199e-17 0.0000000000000000e+00  1.4999999999999986e-01 -1.2033223852618164e-16 0.0000000000000000e+00  1.4999999999999999e-01 -3.2133669362463769e-16 0.0000000000000000e+00  1.5000000000000008e-01 1.4097930137314945e-16 0.0000000000000000e+00  1.4999999999999994e-01 0.0000000000000000e+00 0.0000000000000000e+00  1.4999999999999999e-01 0.0000000000000000e+00 -4.2364814386587499e-17  1.4999999999999999e-01 3.0862903108733341e-16 2.8228885993309864e-16  1.5000000000000022e-01 -4.6495088343459845e-16 2.3100524858591244e-16  1.5000000000000005e-01 -3.5389077552809339e-16 -1.4623290863194907e-16  1.4999999999999980e-01 -1.4820675557134778e-16 -1.9977531710616720e-16  1.5000000000000024e-01 3.3405115776105258e-16 -2.6214357938730961e-17  1.5000000000000005e-01 -2.2198123890601537e-17 4.9701356281821605e-16  1.4999999999999969e-01 6.9007099451028877e-17 -5.2250065021017739e-16  1.5000000000000033e-01 5.3267743375192779e-18 2.9293666584436673e-16  1.5000000000000016e-01 1.2316135126648523e-15 4.2547088140409747e-17  1.4999999999999900e-01 -1.4396424587631734e-15 -2.0569354009262756e-15  1.5000000000000022e-01 -1.1443251858057136e-15 -2.0250140773857055e-16  1.5000000000000591e-01 -7.0142490027893184e-15 1.1211604455232404e-14  1.5000000000002356e-01 -5.9044670133308404e-14 5.5191016927939736e-14  1.5000000000010111e-01 -1.6396166232559847e-13 2.4734626707461708e-13  1.5000000000030933e-01 -2.5033930286168083e-13 7.5383848770335888e-13  1.5000000000062869e-01 -2.3260957302371462e-13 1.5491650406212418e-12  1.5000000000098729e-01 -1.7571339949473187e-13 2.4497657815274890e-12  1.5000000000176711e-01 -1.3074637495923941e-12 4.3029454059018195e-12  1.5000000000526723e-01 -8.2551315517085204e-12 1.2748697848680027e-11  1.5000000001843930e-01 -2.8019182796627950e-11 4.4604588390597999e-11  1.5000000005306999e-01 -5.9125513929135504e-11 1.2644927160070765e-10  1.5000000011406245e-01 -7.8745379409750742e-11 2.6486444545261473e-10  1.5000000017761947e-01 -5.3119968170386870e-11 3.9833275901895247e-10  1.5000000019045245e-01 2.2813531300628944e-11 4.0527121281276615e-10  1.5000000011788917e-01 1.0074110283794949e-10 2.2137112759455007e-10  1.4999999999946814e-01 1.1626573205141315e-10 -4.4257972456705431e-11  1.4999999992583080e-01 5.8357251966223084e-11 -1.8494495832183293e-10  1.4999999994055249e-01 -1.5439208210700834e-11 -1.2506376047039099e-10  1.4999999999361932e-01 -4.3129697958168149e-11 4.1710243609881572e-13  1.5000000001590058e-01 -2.2062348393486574e-11 3.9919817861974369e-11  1.5000000000410060e-01 4.4468489001301589e-12 6.0967900228581583e-12  1.4999999999665911e-01 8.1951062435635062e-12 -8.0730178502496323e-12  1.5000000000252692e-01 7.7568257942224524e-14 7.4419572071429771e-12  1.5000000000256250e-01 -1.4966268709231514e-12 4.8507390883186110e-12  1.4999999999584412e-01 1.7327008282483800e-12 -1.1375531505860223e-11  1.4999999999691199e-01 5.8043235221016573e-13 -6.1598352489104632e-12  1.5000000000328120e-01 -2.3938662791510989e-12 9.1971993787329103e-12  1.5000000000263489e-01 -8.4767360447812523e-13 5.4740089454150758e-12  1.4999999999782865e-01 1.9884131107978446e-12 -6.1808535449691650e-12  1.4999999999826499e-01 8.2841921265901383e-13 -3.6139122884578485e-12  1.5000000000139296e-01 -1.3909745084790755e-12 3.9317288523111321e-12  1.5000000000092883e-01 -5.6055188682529704e-13 1.8568875083479156e-12  1.4999999999911257e-01 9.1494754935546157e-13 -2.4297607908322502e-12  1.4999999999961153e-01 2.6911693895841011e-13 -6.7783010294513710e-13  1.5000000000054139e-01 -5.7615616715599029e-13 1.4180242835657591e-12  1.5000000000009328e-01 -6.2937679033710250e-14 6.1303952684035500e-14  1.4999999999970118e-01 3.3529522025660085e-13 -7.3964171014524575e-13  1.5000000000003147e-01 -4.2454471824017162e-14 1.6612048919848860e-13  1.5000000000013883e-01 -1.6885306352744580e-13 3.1648590941225272e-13  1.4999999999994088e-01 7.2167720326504837e-14 -1.8258235657641672e-13  1.4999999999995364e-01 6.4186496511297408e-14 -8.8090858167304136e-14  1.5000000000004521e-01 -5.9012585581548576e-14 1.1975409475661048e-13  1.5000000000000424e-01 -1.0225696411813466e-14 -6.2576859526216247e-15  1.4999999999997723e-01 3.3860237395370101e-14 -5.3135355246769624e-14  1.5000000000000821e-01 -9.7832787655574258e-15 2.6631961465306976e-14  1.5000000000000702e-01 -1.1930434150944893e-14 1.1724044865823039e-14  1.4999999999999328e-01 1.0559760502742524e-14 -1.7823397489770854e-14  1.5000000000000055e-01 2.6145290408315391e-16 3.9243615404175901e-15  1.5000000000000294e-01 -4.9402701826871143e-15 6.0478694173909407e-15  1.4999999999999838e-01 2.6741738589260471e-15 -5.1464215781397155e-15  1.4999999999999969e-01 7.2176698842235879e-16 1.3153650460349788e-16  1.5000000000000102e-01 -2.0055182386237065e-15 2.1301839365891097e-15  1.4999999999999963e-01 3.7193096328474358e-16 -1.5419793230472716e-15  1.4999999999999986e-01 1.9365675338981498e-16 -1.3378050048713607e-16  1.5000000000000027e-01 -5.4355892183657478e-16 8.9056550295417465e-16  1.4999999999999977e-01 2.5044493054905837e-16 -2.9838669695487952e-16  1.4999999999999997e-01 1.4249533279004796e-16 3.1824690364653287e-16  1.5000000000000011e-01 2.0746693411178912e-16 3.5524957691891138e-16  1.5000000000000002e-01 5.3832300524468295e-16 5.1019613094280323e-17  1.4999999999999997e-01 2.6275798141758916e-17 4.7431607727123093e-16  1.5000000000000008e-01 -3.5732479742092885e-16 2.0005289853706935e-16  1.5000000000000005e-01 3.4157011430352740e-16 -4.1283008391312234e-17  1.5000000000000013e-01 -1.3387603368930077e-16 2.1575838038230909e-16  1.5000000000000011e-01 -6.8291376904005277e-17 -1.7989244993524128e-16  1.5000000000000013e-01 -3.3334692679717384e-16 1.2813876375678768e-16  1.5000000000000008e-01 -2.7533755424583030e-17 1.7163028315649307e-16  1.4999999999999997e-01 -5.3811273440263398e-16 2.2740425954248486e-16  1.5000000000000002e-01 -1.1714528636352971e-16 9.7944329205849577e-17  1.5000000000000013e-01 2.9126711233071013e-16 1.0245021697566970e-16  1.5000000000000005e-01 1.8029151023537049e-17 3.3071887821334496e-16  1.5000000000000016e-01 2.3798519452466937e-16 -9.0209343228649209e-17  1.5000000000000013e-01 -4.7946380590168118e-17 -3.5455104086503723e-16  1.5000000000000008e-01 3.1210395002825666e-16 -3.5668187587445726e-16  1.5000000000000005e-01 2.2167429011300905e-17 -1.5210754836093094e-16  1.5000000000000005e-01 2.7945947004432168e-17 -2.2375779842648899e-16  1.5000000000000002e-01 1.7361831021365539e-16 9.8095053436244599e-17  1.5000000000000005e-01 2.6725055304339390e-17 -4.9100060982612863e-16  1.5000000000000008e-01 -1.3766867241900520e-17 1.9791588170788073e-16  1.5000000000000002e-01 2.1449082386143014e-16 2.2641160538320094e-16  1.5000000000000005e-01 -3.8931088518976527e-16 -4.3968591897170779e-17  1.4999999999999999e-01 -4.0081607570941106e-16 4.9734489173516890e-16  1.4999999999999997e-01 -1.7149233392231865e-16 -1.5474132473625164e-16  1.5000000000000016e-01 6.0053953136943401e-16 -6.6255710536609318e-17  1.5000000000000005e-01 1.9790997369071373e-16 -9.7868069694062944e-17  1.5000000000000005e-01 6.3596318626056019e-16 -2.3944091164660084e-16  1.4999999999999991e-01 -1.9291060188616162e-16 3.3711527318285841e-17  1.5000000000000002e-01 -5.2441004317497588e-16 -4.3727736471138430e-16  1.5000000000000016e-01 -4.5510054124556891e-17 -4.5195263496562193e-16  1.5000000000000005e-01 -1.7162162348585407e-18 -4.6080463048735163e-16  1.5000000000000024e-01 0.0000000000000000e+00 -4.0311969634008406e-16  1.4999999999999983e-01 0.0000000000000000e+00 1.3148894302105174e-16  1.5000000000000011e-01 -2.6353577961719500e-16 -9.0381163500169109e-17  1.4999999999999999e-01 -8.7667408884724758e-19 -1.3150127517249495e-16  1.5000000000000005e-01 -8.1595509496927391e-16 3.1084877227055595e-16  1.5000000000000019e-01 3.7579984577395078e-16 7.3940208016854188e-18  1.5000000000000008e-01 6.2634315649325035e-16 7.4957162910650993e-17  1.4999999999999997e-01 8.3238718327157964e-17 -5.3180078149097959e-16  1.5000000000000024e-01 4.9260854756097293e-16 3.4122277431461028e-16  1.4999999999999991e-01 1.2547938019113174e-16 4.6981434907940637e-16  1.4999999999999944e-01 -1.1792937012980304e-15 -1.7582910957758315e-15  1.5000000000000077e-01 -1.1375228357979659e-16 2.1312119489168622e-15  1.5000000000000213e-01 4.4433244070622818e-15 6.0907122008207304e-15  1.4999999999999619e-01 2.5852599418064411e-15 -8.5261043556336678e-15  1.4999999999997973e-01 4.1675472448932102e-14 -5.5241061176726412e-14  1.4999999999991515e-01 1.9178979994735124e-13 -2.6961570814602212e-13  1.4999999999967442e-01 4.0321929109248121e-13 -1.0755338290038092e-12  1.4999999999916461e-01 5.2296724011679946e-13 -2.8104356474273259e-12  1.4999999999847621e-01 4.8851663646403393e-13 -5.1824230766648115e-12  1.4999999999748098e-01 1.0397738126323480e-12 -8.3044372973458300e-12  1.4999999999432667e-01 6.6183397231396103e-12 -1.7713663051953183e-11  1.4999999998194818e-01 2.8050921669820159e-11 -5.6937826789069098e-11  1.4999999994428206e-01 7.3167251570783187e-11 -1.8051044448935850e-10  1.4999999986409696e-01 1.2220433046251880e-10 -4.4560617386034281e-10  1.4999999975412048e-01 1.2050718460813291e-10 -8.0592858929253129e-10  1.4999999968400121e-01 2.6752932867690411e-11 -1.0258579839380292e-09  1.4999999973948017e-01 -1.1833484071912603e-10 -8.2519364485087456e-10  1.4999999991755503e-01 -2.0226843167386764e-10 -2.2833216281135788e-10  1.5000000008956665e-01 -1.5239868694814566e-10 3.2805498348252817e-10  1.5000000012655695e-01 -2.2219560857349796e-11 4.2554124214750367e-10  1.5000000004781422e-01 6.6669974973519563e-11 1.4843753816529281e-10  1.4999999997975183e-01 5.9274567649363508e-11 -7.6125272427449999e-11  1.4999999998268362e-01 8.1380792569524272e-12 -5.9122220653595391e-11  1.5000000000444744e-01 -1.5573881578628195e-11 1.5146236887620489e-11  1.4999999999975808e-01 -5.4369937218969450e-12 -1.5925322481942701e-12  1.4999999999252481e-01 3.1453029779845327e-12 -2.4502165518653465e-11  1.5000000000337813e-01 -1.5447196977186112e-12 1.2926319703994742e-11  1.5000000000901614e-01 -2.9696997097234067e-12 3.0128572905481174e-11  1.4999999999789676e-01 3.1226837715449832e-12 -8.4069938570146205e-12  1.4999999999255875e-01 3.7020633043634403e-12 -2.5045766074407347e-11  1.5000000000109112e-01 -2.3797170050632309e-12 4.5553259042546146e-12  1.5000000000502708e-01 -3.2580016083243032e-12 1.6901609553661613e-11  1.4999999999920824e-01 1.5595968730105930e-12 -3.1999498770306971e-12  1.4999999999701286e-01 2.2856206335741031e-12 -9.9708092206974620e-12  1.5000000000074359e-01 -1.0848844928642340e-12 2.8001635628299454e-12  1.5000000000157546e-01 -1.3590014804779543e-12 5.1852294698937691e-12  1.4999999999933622e-01 8.0719147317539644e-13 -2.3760032998033199e-12  1.4999999999929586e-01 6.7385033273765666e-13 -2.2609480336807666e-12  1.5000000000050515e-01 -5.8616329019252184e-13 1.7457110789305014e-12  1.5000000000022806e-01 -2.4338589026695841e-13 6.8784024944611218e-13  1.4999999999968214e-01 3.8140391349796085e-13 -1.0667875166640875e-12  1.4999999999998770e-01 1.9454805763536130e-14 1.8924421728159140e-15  1.5000000000015865e-01 -2.0589978978373855e-13 5.1381693036796977e-13  1.4999999999994787e-01 6.2178855739042500e-14 -1.9137069501993340e-13  1.4999999999994520e-01 8.0965743124057942e-14 -1.6653252895404956e-13  1.5000000000004760e-01 -6.3835278191130951e-14 1.5938475129551760e-13  1.5000000000000477e-01 -1.3020747496594027e-14 6.3628609589401244e-15  1.4999999999997607e-01 3.7253163805998912e-14 -7.6132841669496316e-14  1.5000000000000940e-01 -1.1959884507929648e-14 3.4363591394662720e-14  1.5000000000000602e-01 -1.1909345641176447e-14 1.6527334804250815e-14  1.4999999999999261e-01 1.2436377155170743e-14 -2.4317327271156524e-14  1.5000000000000158e-01 -1.0759516484889286e-15 6.1218703493887347e-15  1.5000000000000238e-01 -4.9750496962574257e-15 7.1805097124005389e-15  1.4999999999999783e-01 3.4996603860074808e-15 -6.9284405132176912e-15  1.5000000000000019e-01 1.1301689660328495e-16 1.3037135660732186e-15  1.5000000000000102e-01 -1.6885834158988176e-15 2.8057564908889148e-15  1.4999999999999955e-01 1.1419886405509139e-15 -1.8195521923886256e-15  1.5000000000000013e-01 -9.3528007294385601e-17 7.7861330152464690e-16  1.5000000000000024e-01 -5.2495251073051253e-16 1.2123936621242530e-15  1.4999999999999997e-01 4.3708541482610523e-16 -9.7011579536954583e-17  1.5000000000000002e-01 -2.5131005256767729e-16 7.5520737105767461e-16  1.4999999999999994e-01 -7.2183265347146784e-17 -6.0308195155873311e-17  1.5000000000000002e-01 1.8082491493318577e-16 1.4387386940012488e-16  1.5000000000000005e-01 2.4892938462897953e-16 3.9223783822406114e-16  1.5000000000000002e-01 -3.9108720577792805e-17 -3.2520721251822384e-16  1.5000000000000005e-01 -1.3364892998164129e-16 -2.9402451461470275e-16  1.4999999999999999e-01 1.9994649537310901e-16 4.2954831131502836e-17  1.5000000000000019e-01 -1.7736221616630093e-16 -1.1454510050657268e-16  1.4999999999999999e-01 2.7580832324587740e-16 -9.7776362944301691e-18  1.5000000000000011e-01 1.7328114307158255e-16 1.7567857628867865e-16  1.500000