<?xml version="1.0"?>
<VTKFile type="UnstructuredGrid"  version="0.1"  >
<UnstructuredGrid>
<Piece  NumberOfPoints="10201" NumberOfCells="20000">
<Points>
<DataArray  type="Float64"  NumberOfComponents="3"  format="ascii">-5 -5 0  -4.9 -5 0  -4.8 -5 0  -4.7 -5 0  -4.6 -5 0  -4.5 -5 0  -4.4 -5 0  -4.3 -5 0  -4.2 -5 0  -4.1 -5 0  -4 -5 0  -3.9 -5 0  -3.8 -5 0  -3.7 -5 0  -3.6 -5 0  -3.5 -5 0  -3.4 -5 0  -3.3 -5 0  -3.2 -5 0  -3.1 -5 0  -3 -5 0  -2.9 -5 0  -2.8 -5 0  -2.7 -5 0  -2.6 -5 0  -2.5 -5 0  -2.4 -5 0  -2.3 -5 0  -2.2 -5 0  -2.1 -5 0  -2 -5 0  -1.9 -5 0  -1.8 -5 0  -1.7 -5 0  -1.6 -5 0  -1.5 -5 0  -1.4 -5 0  -1.3 -5 0  -1.2 -5 0  -1.1 -5 0  -1 -5 0  -0.9000000000000004 -5 0  -0.7999999999999998 -5 0  -0.7000000000000002 -5 0  -0.5999999999999996 -5 0  -0.5 -5 0  -0.4000000000000004 -5 0  -0.2999999999999998 -5 0  -0.2000000000000002 -5 0  -0.09999999999999964 -5 0  0 -5 0  0.09999999999999964 -5 0  0.2000000000000002 -5 0  0.2999999999999998 -5 0  0.4000000000000004 -5 0  0.5 -5 0  0.5999999999999996 -5 0  0.7000000000000002 -5 0  0.7999999999999998 -5 0  0.9000000000000004 -5 0  1 -5 0  1.1 -5 0  1.2 -5 0  1.3 -5 0  1.4 -5 0  1.5 -5 0  1.6 -5 0  1.7 -5 0  1.8 -5 0  1.9 -5 0  2 -5 0  2.1 -5 0  2.2 -5 0  2.3 -5 0  2.4 -5 0  2.5 -5 0  2.6 -5 0  2.7 -5 0  2.8 -5 0  2.9 -5 0  3 -5 0  3.1 -5 0  3.199999999999999 -5 0  3.300000000000001 -5 0  3.4 -5 0  3.5 -5 0  3.6 -5 0  3.699999999999999 -5 0  3.800000000000001 -5 0  3.9 -5 0  4 -5 0  4.1 -5 0  4.199999999999999 -5 0  4.300000000000001 -5 0  4.4 -5 0  4.5 -5 0  4.6 -5 0  4.699999999999999 -5 0  4.800000000000001 -5 0  4.9 -5 0  5 -5 0  -5 -4.9 0  -4.9 -4.9 0  -4.8 -4.9 0  -4.7 -4.9 0  -4.6 -4.9 0  -4.5 -4.9 0  -4.4 -4.9 0  -4.3 -4.9 0  -4.2 -4.9 0  -4.1 -4.9 0  -4 -4.9 0  -3.9 -4.9 0  -3.8 -4.9 0  -3.7 -4.9 0  -3.6 -4.9 0  -3.5 -4.9 0  -3.4 -4.9 0  -3.3 -4.9 0  -3.2 -4.9 0  -3.1 -4.9 0  -3 -4.9 0  -2.9 -4.9 0  -2.8 -4.9 0  -2.7 -4.9 0  -2.6 -4.9 0  -2.5 -4.9 0  -2.4 -4.9 0  -2.3 -4.9 0  -2.2 -4.9 0  -2.1 -4.9 0  -2 -4.9 0  -1.9 -4.9 0  -1.8 -4.9 0  -1.7 -4.9 0  -1.6 -4.9 0  -1.5 -4.9 0  -1.4 -4.9 0  -1.3 -4.9 0  -1.2 -4.9 0  -1.1 -4.9 0  -1 -4.9 0  -0.9000000000000004 -4.9 0  -0.7999999999999998 -4.9 0  -0.7000000000000002 -4.9 0  -0.5999999999999996 -4.9 0  -0.5 -4.9 0  -0.4000000000000004 -4.9 0  -0.2999999999999998 -4.9 0  -0.2000000000000002 -4.9 0  -0.09999999999999964 -4.9 0  0 -4.9 0  0.09999999999999964 -4.9 0  0.2000000000000002 -4.9 0  0.2999999999999998 -4.9 0  0.4000000000000004 -4.9 0  0.5 -4.9 0  0.5999999999999996 -4.9 0  0.7000000000000002 -4.9 0  0.7999999999999998 -4.9 0  0.9000000000000004 -4.9 0  1 -4.9 0  1.1 -4.9 0  1.2 -4.9 0  1.3 -4.9 0  1.4 -4.9 0  1.5 -4.9 0  1.6 -4.9 0  1.7 -4.9 0  1.8 -4.9 0  1.9 -4.9 0  2 -4.9 0  2.1 -4.9 0  2.2 -4.9 0  2.3 -4.9 0  2.4 -4.9 0  2.5 -4.9 0  2.6 -4.9 0  2.7 -4.9 0  2.8 -4.9 0  2.9 -4.9 0  3 -4.9 0  3.1 -4.9 0  3.199999999999999 -4.9 0  3.300000000000001 -4.9 0  3.4 -4.9 0  3.5 -4.9 0  3.6 -4.9 0  3.699999999999999 -4.9 0  3.800000000000001 -4.9 0  3.9 -4.9 0  4 -4.9 0  4.1 -4.9 0  4.199999999999999 -4.9 0  4.300000000000001 -4.9 0  4.4 -4.9 0  4.5 -4.9 0  4.6 -4.9 0  4.699999999999999 -4.9 0  4.800000000000001 -4.9 0  4.9 -4.9 0  5 -4.9 0  -5 -4.8 0  -4.9 -4.8 0  -4.8 -4.8 0  -4.7 -4.8 0  -4.6 -4.8 0  -4.5 -4.8 0  -4.4 -4.8 0  -4.3 -4.8 0  -4.2 -4.8 0  -4.1 -4.8 0  -4 -4.8 0  -3.9 -4.8 0  -3.8 -4.8 0  -3.7 -4.8 0  -3.6 -4.8 0  -3.5 -4.8 0  -3.4 -4.8 0  -3.3 -4.8 0  -3.2 -4.8 0  -3.1 -4.8 0  -3 -4.8 0  -2.9 -4.8 0  -2.8 -4.8 0  -2.7 -4.8 0  -2.6 -4.8 0  -2.5 -4.8 0  -2.4 -4.8 0  -2.3 -4.8 0  -2.2 -4.8 0  -2.1 -4.8 0  -2 -4.8 0  -1.9 -4.8 0  -1.8 -4.8 0  -1.7 -4.8 0  -1.6 -4.8 0  -1.5 -4.8 0  -1.4 -4.8 0  -1.3 -4.8 0  -1.2 -4.8 0  -1.1 -4.8 0  -1 -4.8 0  -0.9000000000000004 -4.8 0  -0.7999999999999998 -4.8 0  -0.7000000000000002 -4.8 0  -0.5999999999999996 -4.8 0  -0.5 -4.8 0  -0.4000000000000004 -4.8 0  -0.2999999999999998 -4.8 0  -0.2000000000000002 -4.8 0  -0.09999999999999964 -4.8 0  0 -4.8 0  0.09999999999999964 -4.8 0  0.2000000000000002 -4.8 0  0.2999999999999998 -4.8 0  0.4000000000000004 -4.8 0  0.5 -4.8 0  0.5999999999999996 -4.8 0  0.7000000000000002 -4.8 0  0.7999999999999998 -4.8 0  0.9000000000000004 -4.8 0  1 -4.8 0  1.1 -4.8 0  1.2 -4.8 0  1.3 -4.8 0  1.4 -4.8 0  1.5 -4.8 0  1.6 -4.8 0  1.7 -4.8 0  1.8 -4.8 0  1.9 -4.8 0  2 -4.8 0  2.1 -4.8 0  2.2 -4.8 0  2.3 -4.8 0  2.4 -4.8 0  2.5 -4.8 0  2.6 -4.8 0  2.7 -4.8 0  2.8 -4.8 0  2.9 -4.8 0  3 -4.8 0  3.1 -4.8 0  3.199999999999999 -4.8 0  3.300000000000001 -4.8 0  3.4 -4.8 0  3.5 -4.8 0  3.6 -4.8 0  3.699999999999999 -4.8 0  3.800000000000001 -4.8 0  3.9 -4.8 0  4 -4.8 0  4.1 -4.8 0  4.199999999999999 -4.8 0  4.300000000000001 -4.8 0  4.4 -4.8 0  4.5 -4.8 0  4.6 -4.8 0  4.699999999999999 -4.8 0  4.800000000000001 -4.8 0  4.9 -4.8 0  5 -4.8 0  -5 -4.7 0  -4.9 -4.7 0  -4.8 -4.7 0  -4.7 -4.7 0  -4.6 -4.7 0  -4.5 -4.7 0  -4.4 -4.7 0  -4.3 -4.7 0  -4.2 -4.7 0  -4.1 -4.7 0  -4 -4.7 0  -3.9 -4.7 0  -3.8 -4.7 0  -3.7 -4.7 0  -3.6 -4.7 0  -3.5 -4.7 0  -3.4 -4.7 0  -3.3 -4.7 0  -3.2 -4.7 0  -3.1 -4.7 0  -3 -4.7 0  -2.9 -4.7 0  -2.8 -4.7 0  -2.7 -4.7 0  -2.6 -4.7 0  -2.5 -4.7 0  -2.4 -4.7 0  -2.3 -4.7 0  -2.2 -4.7 0  -2.1 -4.7 0  -2 -4.7 0  -1.9 -4.7 0  -1.8 -4.7 0  -1.7 -4.7 0  -1.6 -4.7 0  -1.5 -4.7 0  -1.4 -4.7 0  -1.3 -4.7 0  -1.2 -4.7 0  -1.1 -4.7 0  -1 -4.7 0  -0.9000000000000004 -4.7 0  -0.7999999999999998 -4.7 0  -0.7000000000000002 -4.7 0  -0.5999999999999996 -4.7 0  -0.5 -4.7 0  -0.4000000000000004 -4.7 0  -0.2999999999999998 -4.7 0  -0.2000000000000002 -4.7 0  -0.09999999999999964 -4.7 0  0 -4.7 0  0.09999999999999964 -4.7 0  0.2000000000000002 -4.7 0  0.2999999999999998 -4.7 0  0.4000000000000004 -4.7 0  0.5 -4.7 0  0.5999999999999996 -4.7 0  0.7000000000000002 -4.7 0  0.7999999999999998 -4.7 0  0.9000000000000004 -4.7 0  1 -4.7 0  1.1 -4.7 0  1.2 -4.7 0  1.3 -4.7 0  1.4 -4.7 0  1.5 -4.7 0  1.6 -4.7 0  1.7 -4.7 0  1.8 -4.7 0  1.9 -4.7 0  2 -4.7 0  2.1 -4.7 0  2.2 -4.7 0  2.3 -4.7 0  2.4 -4.7 0  2.5 -4.7 0  2.6 -4.7 0  2.7 -4.7 0  2.8 -4.7 0  2.9 -4.7 0  3 -4.7 0  3.1 -4.7 0  3.199999999999999 -4.7 0  3.300000000000001 -4.7 0  3.4 -4.7 0  3.5 -4.7 0  3.6 -4.7 0  3.699999999999999 -4.7 0  3.800000000000001 -4.7 0  3.9 -4.7 0  4 -4.7 0  4.1 -4.7 0  4.199999999999999 -4.7 0  4.300000000000001 -4.7 0  4.4 -4.7 0  4.5 -4.7 0  4.6 -4.7 0  4.699999999999999 -4.7 0  4.800000000000001 -4.7 0  4.9 -4.7 0  5 -4.7 0  -5 -4.6 0  -4.9 -4.6 0  -4.8 -4.6 0  -4.7 -4.6 0  -4.6 -4.6 0  -4.5 -4.6 0  -4.4 -4.6 0  -4.3 -4.6 0  -4.2 -4.6 0  -4.1 -4.6 0  -4 -4.6 0  -3.9 -4.6 0  -3.8 -4.6 0  -3.7 -4.6 0  -3.6 -4.6 0  -3.5 -4.6 0  -3.4 -4.6 0  -3.3 -4.6 0  -3.2 -4.6 0  -3.1 -4.6 0  -3 -4.6 0  -2.9 -4.6 0  -2.8 -4.6 0  -2.7 -4.6 0  -2.6 -4.6 0  -2.5 -4.6 0  -2.4 -4.6 0  -2.3 -4.6 0  -2.2 -4.6 0  -2.1 -4.6 0  -2 -4.6 0  -1.9 -4.6 0  -1.8 -4.6 0  -1.7 -4.6 0  -1.6 -4.6 0  -1.5 -4.6 0  -1.4 -4.6 0  -1.3 -4.6 0  -1.2 -4.6 0  -1.1 -4.6 0  -1 -4.6 0  -0.9000000000000004 -4.6 0  -0.7999999999999998 -4.6 0  -0.7000000000000002 -4.6 0  -0.5999999999999996 -4.6 0  -0.5 -4.6 0  -0.4000000000000004 -4.6 0  -0.2999999999999998 -4.6 0  -0.2000000000000002 -4.6 0  -0.09999999999999964 -4.6 0  0 -4.6 0  0.09999999999999964 -4.6 0  0.2000000000000002 -4.6 0  0.2999999999999998 -4.6 0  0.4000000000000004 -4.6 0  0.5 -4.6 0  0.5999999999999996 -4.6 0  0.7000000000000002 -4.6 0  0.7999999999999998 -4.6 0  0.9000000000000004 -4.6 0  1 -4.6 0  1.1 -4.6 0  1.2 -4.6 0  1.3 -4.6 0  1.4 -4.6 0  1.5 -4.6 0  1.6 -4.6 0  1.7 -4.6 0  1.8 -4.6 0  1.9 -4.6 0  2 -4.6 0  2.1 -4.6 0  2.2 -4.6 0  2.3 -4.6 0  2.4 -4.6 0  2.5 -4.6 0  2.6 -4.6 0  2.7 -4.6 0  2.8 -4.6 0  2.9 -4.6 0  3 -4.6 0  3.1 -4.6 0  3.199999999999999 -4.6 0  3.300000000000001 -4.6 0  3.4 -4.6 0  3.5 -4.6 0  3.6 -4.6 0  3.699999999999999 -4.6 0  3.800000000000001 -4.6 0  3.9 -4.6 0  4 -4.6 0  4.1 -4.6 0  4.199999999999999 -4.6 0  4.300000000000001 -4.6 0  4.4 -4.6 0  4.5 -4.6 0  4.6 -4.6 0  4.699999999999999 -4.6 0  4.800000000000001 -4.6 0  4.9 -4.6 0  5 -4.6 0  -5 -4.5 0  -4.9 -4.5 0  -4.8 -4.5 0  -4.7 -4.5 0  -4.6 -4.5 0  -4.5 -4.5 0  -4.4 -4.5 0  -4.3 -4.5 0  -4.2 -4.5 0  -4.1 -4.5 0  -4 -4.5 0  -3.9 -4.5 0  -3.8 -4.5 0  -3.7 -4.5 0  -3.6 -4.5 0  -3.5 -4.5 0  -3.4 -4.5 0  -3.3 -4.5 0  -3.2 -4.5 0  -3.1 -4.5 0  -3 -4.5 0  -2.9 -4.5 0  -2.8 -4.5 0  -2.7 -4.5 0  -2.6 -4.5 0  -2.5 -4.5 0  -2.4 -4.5 0  -2.3 -4.5 0  -2.2 -4.5 0  -2.1 -4.5 0  -2 -4.5 0  -1.9 -4.5 0  -1.8 -4.5 0  -1.7 -4.5 0  -1.6 -4.5 0  -1.5 -4.5 0  -1.4 -4.5 0  -1.3 -4.5 0  -1.2 -4.5 0  -1.1 -4.5 0  -1 -4.5 0  -0.9000000000000004 -4.5 0  -0.7999999999999998 -4.5 0  -0.7000000000000002 -4.5 0  -0.5999999999999996 -4.5 0  -0.5 -4.5 0  -0.4000000000000004 -4.5 0  -0.2999999999999998 -4.5 0  -0.2000000000000002 -4.5 0  -0.09999999999999964 -4.5 0  0 -4.5 0  0.09999999999999964 -4.5 0  0.2000000000000002 -4.5 0  0.2999999999999998 -4.5 0  0.4000000000000004 -4.5 0  0.5 -4.5 0  0.5999999999999996 -4.5 0  0.7000000000000002 -4.5 0  0.7999999999999998 -4.5 0  0.9000000000000004 -4.5 0  1 -4.5 0  1.1 -4.5 0  1.2 -4.5 0  1.3 -4.5 0  1.4 -4.5 0  1.5 -4.5 0  1.6 -4.5 0  1.7 -4.5 0  1.8 -4.5 0  1.9 -4.5 0  2 -4.5 0  2.1 -4.5 0  2.2 -4.5 0  2.3 -4.5 0  2.4 -4.5 0  2.5 -4.5 0  2.6 -4.5 0  2.7 -4.5 0  2.8 -4.5 0  2.9 -4.5 0  3 -4.5 0  3.1 -4.5 0  3.199999999999999 -4.5 0  3.300000000000001 -4.5 0  3.4 -4.5 0  3.5 -4.5 0  3.6 -4.5 0  3.699999999999999 -4.5 0  3.800000000000001 -4.5 0  3.9 -4.5 0  4 -4.5 0  4.1 -4.5 0  4.199999999999999 -4.5 0  4.300000000000001 -4.5 0  4.4 -4.5 0  4.5 -4.5 0  4.6 -4.5 0  4.699999999999999 -4.5 0  4.800000000000001 -4.5 0  4.9 -4.5 0  5 -4.5 0  -5 -4.4 0  -4.9 -4.4 0  -4.8 -4.4 0  -4.7 -4.4 0  -4.6 -4.4 0  -4.5 -4.4 0  -4.4 -4.4 0  -4.3 -4.4 0  -4.2 -4.4 0  -4.1 -4.4 0  -4 -4.4 0  -3.9 -4.4 0  -3.8 -4.4 0  -3.7 -4.4 0  -3.6 -4.4 0  -3.5 -4.4 0  -3.4 -4.4 0  -3.3 -4.4 0  -3.2 -4.4 0  -3.1 -4.4 0  -3 -4.4 0  -2.9 -4.4 0  -2.8 -4.4 0  -2.7 -4.4 0  -2.6 -4.4 0  -2.5 -4.4 0  -2.4 -4.4 0  -2.3 -4.4 0  -2.2 -4.4 0  -2.1 -4.4 0  -2 -4.4 0  -1.9 -4.4 0  -1.8 -4.
[...]
<PointData  Vectors="f_23"> 
<DataArray  type="Float64"  Name="f_23"  NumberOfComponents="3" format="ascii">1.5000000000000013e-01 0.0000000000000000e+00 0.0000000000000000e+00  1.5000000000000002e-01 3.5947470000353959e-32 0.0000000000000000e+00  1.5000000000000019e-01 1.4577538100357171e-31 0.0000000000000000e+00  1.4999999999999997e-01 5.6386975052266111e-32 0.0000000000000000e+00  1.5000000000000002e-01 5.9083620672464225e-32 0.0000000000000000e+00  1.5000000000000019e-01 4.4396699861642549e-32 0.0000000000000000e+00  1.5000000000000011e-01 2.0548683096273719e-32 0.0000000000000000e+00  1.4999999999999988e-01 6.8089485809348795e-32 0.0000000000000000e+00  1.5000000000000011e-01 9.4044397300048886e-32 0.0000000000000000e+00  1.5000000000000002e-01 3.7486358214165371e-34 0.0000000000000000e+00  1.5000000000000019e-01 1.9271965915665991e-32 0.0000000000000000e+00  1.5000000000000005e-01 7.0017111404190017e-36 0.0000000000000000e+00  1.5000000000000002e-01 5.5107787732750096e-32 0.0000000000000000e+00  1.5000000000000061e-01 2.6181415882583913e-31 0.0000000000000000e+00  1.5000000000000002e-01 8.9619818571592092e-32 0.0000000000000000e+00  1.5000000000000002e-01 4.7183304293360659e-32 0.0000000000000000e+00  1.4999999999999997e-01 9.5598549506961271e-33 0.0000000000000000e+00  1.5000000000000019e-01 7.5171366737994010e-33 0.0000000000000000e+00  1.5000000000000013e-01 1.2518247170266181e-31 0.0000000000000000e+00  1.5000000000000027e-01 2.1447013968625244e-32 0.0000000000000000e+00  1.4999999999999988e-01 3.9503517242888548e-32 0.0000000000000000e+00  1.5000000000000041e-01 6.8719043100301548e-32 0.0000000000000000e+00  1.4999999999999988e-01 3.4137942470493908e-32 0.0000000000000000e+00  1.5000000000000005e-01 8.5689765734633680e-34 0.0000000000000000e+00  1.5000000000000013e-01 2.2511713802739490e-32 0.0000000000000000e+00  1.4999999999999997e-01 1.0985953309294007e-32 0.0000000000000000e+00  1.5000000000000019e-01 1.6388885961098468e-33 0.0000000000000000e+00  1.5000000000000005e-01 3.6533012324997245e-33 0.0000000000000000e+00  1.4999999999999997e-01 8.4060412460442887e-35 0.0000000000000000e+00  1.5000000000000044e-01 9.4043091049054557e-32 0.0000000000000000e+00  1.4999999999999983e-01 5.7954098468558819e-32 0.0000000000000000e+00  1.5000000000000011e-01 7.5222997036273611e-33 0.0000000000000000e+00  1.4999999999999997e-01 1.4035426399732905e-32 0.0000000000000000e+00  1.5000000000000044e-01 1.0008480959583055e-31 0.0000000000000000e+00  1.5000000000000013e-01 1.4500423356842587e-32 0.0000000000000000e+00  1.5000000000000022e-01 1.1097842900090381e-33 0.0000000000000000e+00  1.5000000000000002e-01 2.6457759044680615e-32 0.0000000000000000e+00  1.5000000000000030e-01 1.7794753618716493e-32 0.0000000000000000e+00  1.5000000000000013e-01 1.7320647685816781e-33 0.0000000000000000e+00  1.5000000000000013e-01 3.1467268489970976e-33 0.0000000000000000e+00  1.4999999999999997e-01 1.2248994134946000e-32 0.0000000000000000e+00  1.5000000000000041e-01 3.0362883769408397e-33 0.0000000000000000e+00  1.4999999999999983e-01 1.7798392193446131e-31 0.0000000000000000e+00  1.5000000000000027e-01 3.6995343005790146e-31 0.0000000000000000e+00  1.4999999999999997e-01 5.5846387343762683e-32 0.0000000000000000e+00  1.5000000000000019e-01 7.3900396410172226e-32 0.0000000000000000e+00  1.5000000000000005e-01 7.1561281259692440e-32 0.0000000000000000e+00  1.5000000000000011e-01 2.5969656522700604e-32 0.0000000000000000e+00  1.5000000000000002e-01 1.7931671109953442e-33 0.0000000000000000e+00  1.5000000000000002e-01 1.9434390491300873e-34 0.0000000000000000e+00  1.5000000000000011e-01 1.6261991026375771e-33 0.0000000000000000e+00  1.5000000000000022e-01 1.1783995803183638e-32 0.0000000000000000e+00  1.5000000000000005e-01 7.4641017862226018e-32 0.0000000000000000e+00  1.5000000000000052e-01 5.4162359105645350e-31 0.0000000000000000e+00  1.5000000000000005e-01 4.7927603880267352e-31 0.0000000000000000e+00  1.5000000000000011e-01 7.3776136218355498e-32 0.0000000000000000e+00  1.5000000000000002e-01 6.8832823195402438e-32 0.0000000000000000e+00  1.5000000000000019e-01 2.5254625735346382e-32 0.0000000000000000e+00  1.4999999999999997e-01 3.3588985211479041e-31 0.0000000000000000e+00  1.5000000000000013e-01 1.6782584251342524e-31 0.0000000000000000e+00  1.5000000000000022e-01 7.8367821930518190e-32 0.0000000000000000e+00  1.5000000000000011e-01 1.8850012321601061e-33 0.0000000000000000e+00  1.5000000000000013e-01 1.4469074846419592e-32 0.0000000000000000e+00  1.5000000000000049e-01 6.6399794912824743e-32 0.0000000000000000e+00  1.5000000000000011e-01 1.1463380541389948e-32 0.0000000000000000e+00  1.5000000000000052e-01 2.0646469100795470e-33 0.0000000000000000e+00  1.5000000000000005e-01 4.7782603701550399e-35 0.0000000000000000e+00  1.5000000000000019e-01 4.7034658897053290e-32 0.0000000000000000e+00  1.5000000000000022e-01 1.1477848153791385e-33 0.0000000000000000e+00  1.5000000000000002e-01 7.0923924572051453e-35 0.0000000000000000e+00  1.5000000000000022e-01 1.0789272884848443e-32 0.0000000000000000e+00  1.5000000000000041e-01 1.2921841328381273e-32 0.0000000000000000e+00  1.5000000000000011e-01 1.8814346886569561e-35 0.0000000000000000e+00  1.5000000000000036e-01 9.0484845985514213e-32 0.0000000000000000e+00  1.4999999999999997e-01 2.5678430997077255e-31 0.0000000000000000e+00  1.5000000000000022e-01 1.5812054871175723e-31 0.0000000000000000e+00  1.5000000000000002e-01 1.7399140737169452e-32 0.0000000000000000e+00  1.5000000000000049e-01 2.4296756948916572e-34 0.0000000000000000e+00  1.5000000000000019e-01 2.3830583687597529e-33 0.0000000000000000e+00  1.5000000000000005e-01 2.5655406478905081e-33 0.0000000000000000e+00  1.5000000000000022e-01 5.0281305601391473e-34 0.0000000000000000e+00  1.5000000000000011e-01 3.7665200926247496e-34 0.0000000000000000e+00  1.5000000000000019e-01 3.5993989077002634e-32 0.0000000000000000e+00  1.4999999999999980e-01 2.8326936707506627e-32 0.0000000000000000e+00  1.4999999999999997e-01 4.9186351264029438e-33 0.0000000000000000e+00  1.5000000000000022e-01 6.9757656066563585e-32 0.0000000000000000e+00  1.5000000000000022e-01 1.0317499126238221e-33 0.0000000000000000e+00  1.5000000000000013e-01 1.4824634409420833e-33 0.0000000000000000e+00  1.5000000000000011e-01 3.2417378143483100e-32 0.0000000000000000e+00  1.5000000000000044e-01 2.7412182003484071e-32 0.0000000000000000e+00  1.5000000000000013e-01 1.8152425090788499e-33 0.0000000000000000e+00  1.5000000000000019e-01 7.7618638027032785e-34 0.0000000000000000e+00  1.4999999999999997e-01 1.5814796166048234e-32 0.0000000000000000e+00  1.5000000000000005e-01 3.5082520818202326e-35 0.0000000000000000e+00  1.5000000000000011e-01 1.9256255306442316e-32 0.0000000000000000e+00  1.5000000000000005e-01 1.0758838924611114e-36 0.0000000000000000e+00  1.5000000000000019e-01 2.0629145278631016e-32 0.0000000000000000e+00  1.5000000000000002e-01 1.0165569090606561e-32 0.0000000000000000e+00  1.5000000000000005e-01 1.0040159585114865e-31 0.0000000000000000e+00  1.5000000000000011e-01 4.5508845791465001e-33 0.0000000000000000e+00  1.5000000000000013e-01 0.0000000000000000e+00 0.0000000000000000e+00  1.5000000000000002e-01 0.0000000000000000e+00 6.4320259187401703e-33  1.5000000000000019e-01 1.5917695876537036e-33 4.1897067624543046e-34  1.5000000000000013e-01 3.2700857184760640e-32 4.8002276865494468e-32  1.5000000000000011e-01 1.6162258517211672e-33 1.5532850016372322e-34  1.4999999999999997e-01 6.4538150890200404e-33 2.4869556940805944e-32  1.4999999999999988e-01 1.7504710654307600e-36 7.2345571091952009e-34  1.5000000000000013e-01 2.8797114028647076e-32 1.4159419202816692e-32  1.5000000000000019e-01 7.7595709358010208e-32 1.3790874894694553e-33  1.5000000000000013e-01 3.0144285470347613e-36 1.2145286441852817e-32  1.5000000000000030e-01 6.5669588116326511e-33 2.9222857872796372e-33  1.5000000000000013e-01 8.8037392974534206e-32 2.5458189654427508e-32  1.5000000000000005e-01 4.5126143435397613e-34 2.5489178115510512e-32  1.5000000000000022e-01 1.5810050205067600e-33 1.1318587690934765e-33  1.4999999999999963e-01 3.9434858347388069e-34 4.6785954415795654e-36  1.5000000000000013e-01 1.4139639828793839e-32 9.3389071470439832e-32  1.5000000000000011e-01 2.7544601431912370e-34 5.2383838241454325e-34  1.5000000000000013e-01 7.9697325781412599e-32 1.6421452648626444e-32  1.5000000000000005e-01 3.2538348727447539e-33 7.7872676885975511e-32  1.4999999999999991e-01 5.8100985425240951e-32 9.8770642052747918e-32  1.4999999999999997e-01 8.7720232065611985e-32 1.2807743448472785e-32  1.5000000000000011e-01 4.0098908675900767e-32 4.7019724569198822e-34  1.4999999999999972e-01 5.0694827195699562e-32 3.3184852873762348e-33  1.5000000000000022e-01 4.4923747653154784e-32 8.4185436427672951e-32  1.5000000000000002e-01 4.6328167946504393e-34 3.2941699543553379e-32  1.5000000000000005e-01 3.4853746520429203e-33 5.0862631557631411e-33  1.5000000000000022e-01 8.5537076064597519e-33 5.5523525760486106e-33  1.5000000000000013e-01 5.0341245837573636e-33 2.6261319638193865e-32  1.5000000000000005e-01 1.7927105737016187e-33 1.9101017768797579e-32  1.5000000000000027e-01 1.1063777656639777e-32 6.4374826506208990e-32  1.4999999999999988e-01 3.0009142636096569e-32 7.1126893416845079e-35  1.5000000000000011e-01 8.9470373122990838e-33 1.6891338855312797e-32  1.5000000000000011e-01 6.6807013507500631e-33 1.0601782067367504e-32  1.5000000000000041e-01 3.7301917024115935e-32 8.9659099183483448e-32  1.5000000000000011e-01 4.0493778384734918e-32 5.1584882882631089e-36  1.5000000000000022e-01 5.9012414483016922e-32 8.4461814091620069e-33  1.5000000000000005e-01 1.8457872559247077e-34 4.8240959146525565e-33  1.5000000000000011e-01 2.3501480563884556e-33 1.1797654758929319e-34  1.4999999999999983e-01 3.6552452311571452e-32 3.9660939934607911e-32  1.5000000000000013e-01 7.6803138866288439e-33 2.9272426291249701e-32  1.5000000000000013e-01 1.1996943001398803e-32 8.4833518211138905e-33  1.5000000000000011e-01 2.2905093140479019e-33 1.5630960447601227e-32  1.5000000000000005e-01 3.6596139866413584e-32 7.5621884207489326e-32  1.5000000000000022e-01 2.6024258901105875e-32 1.3164881346058465e-32  1.5000000000000013e-01 2.4395069063048132e-32 4.3103114067940985e-34  1.5000000000000022e-01 1.1021639393770773e-31 1.3512063024136605e-32  1.4999999999999983e-01 1.0736089986957637e-32 1.9446422585657689e-34  1.5000000000000011e-01 3.8496260252444722e-33 4.0406994408295916e-33  1.5000000000000019e-01 7.6013988073361681e-32 9.1297793065083781e-33  1.5000000000000013e-01 1.3896282154725458e-33 2.3417215524011548e-33  1.5000000000000027e-01 1.2869823633716218e-34 3.9707916664601094e-32  1.5000000000000019e-01 4.3159646235678889e-34 3.4080783739448865e-32  1.5000000000000013e-01 1.0549636063865006e-32 1.5557578651496640e-32  1.5000000000000027e-01 1.3366500675263094e-32 4.5903098115417297e-32  1.4999999999999980e-01 7.4662510595860302e-33 6.4726016296434906e-33  1.5000000000000027e-01 1.4236303013898181e-32 5.7743264161472045e-32  1.5000000000000002e-01 4.3088328803156022e-33 3.3951992894965409e-32  1.5000000000000013e-01 3.2513532722383326e-32 5.5227346891528534e-32  1.5000000000000005e-01 6.3486537505945157e-32 2.4650144098065409e-32  1.5000000000000011e-01 2.1976632106906161e-33 4.2491518334702461e-32  1.5000000000000030e-01 3.8746589617607148e-33 1.3598791457256974e-33  1.5000000000000002e-01 1.4166217823365743e-34 1.3177909893999115e-32  1.5000000000000005e-01 2.8926301369428310e-33 6.4889068011150613e-35  1.5000000000000027e-01 3.4967806075146697e-32 3.5644737144453295e-32  1.5000000000000013e-01 4.4179099918436305e-33 3.2036422189433329e-32  1.5000000000000030e-01 1.4820747426111400e-32 2.6766957539191080e-32  1.5000000000000013e-01 3.4614720486819823e-33 7.2265186613552181e-33  1.5000000000000022e-01 4.7891133090328993e-32 3.4344048897095736e-32  1.5000000000000019e-01 2.2712745125204486e-32 6.6399754375128344e-33  1.5000000000000013e-01 4.9239282902768714e-33 6.4210939151897859e-34  1.5000000000000002e-01 1.6681463618223505e-34 5.2134615363726831e-33  1.5000000000000019e-01 3.2080160627947419e-33 1.1693030458475058e-32  1.5000000000000022e-01 2.3988240055516775e-32 1.2703328118991710e-32  1.5000000000000030e-01 2.5001579231633033e-32 1.3950530595915758e-31  1.5000000000000022e-01 2.0651268335768291e-32 2.5413951986005419e-32  1.5000000000000030e-01 1.7572793014501857e-31 1.3646925178443913e-32  1.4999999999999997e-01 9.1009548643748372e-34 3.4916686015070024e-32  1.5000000000000013e-01 2.1726315580194809e-32 6.4018454150643996e-34  1.4999999999999997e-01 3.7908933731648628e-31 7.1423745319601709e-32  1.5000000000000022e-01 2.6786842891249986e-32 2.1904592237885746e-32  1.5000000000000027e-01 6.3960674514580873e-33 1.0320562243360758e-33  1.5000000000000011e-01 6.7256263544481385e-33 3.3854808547705558e-33  1.5000000000000011e-01 2.1126668177072100e-32 8.4664092845033547e-32  1.5000000000000011e-01 6.7233191822588981e-35 6.3277450767040293e-34  1.5000000000000005e-01 2.1488538937259429e-32 1.4509347502798368e-33  1.5000000000000027e-01 1.1128800944911132e-31 2.1181030482604543e-32  1.5000000000000013e-01 6.5191276720281087e-32 3.5018607890587339e-32  1.5000000000000013e-01 2.8288001956760284e-33 1.3010876866482268e-33  1.5000000000000013e-01 2.8389335090149829e-32 5.1416218837454989e-32  1.5000000000000022e-01 8.2187886502944547e-32 7.9106176453092174e-35  1.5000000000000019e-01 7.2439337924149571e-32 2.4979840544284217e-32  1.5000000000000005e-01 2.1956045464090967e-32 1.1558321523398742e-32  1.5000000000000002e-01 7.8203633482292069e-33 1.6061278036350735e-35  1.5000000000000013e-01 1.6555200652882384e-34 5.3977250916200308e-33  1.5000000000000022e-01 7.4012862340793396e-32 2.3903734311499953e-33  1.4999999999999991e-01 2.1172616686820805e-32 5.9432214491100838e-33  1.5000000000000022e-01 8.1826398402791201e-33 2.7769353743655550e-33  1.5000000000000011e-01 2.0352895589116527e-32 1.8374495633497794e-32  1.5000000000000002e-01 1.2461750567311168e-32 7.0444083589119666e-33  1.5000000000000019e-01 1.4028573619479760e-32 1.0877903165743160e-31  1.5000000000000011e-01 3.0501389875449201e-32 7.6177477197279807e-33  1.5000000000000019e-01 0.0000000000000000e+00 4.9313516509047406e-32  1.5000000000000013e-01 0.0000000000000000e+00 3.1479314207388857e-34  1.5000000000000013e-01 7.7926805676553733e-33 3.3058680236091834e-32  1.5000000000000027e-01 1.7482939729753217e-32 3.7112873090334720e-32  1.4999999999999991e-01 7.6562146103683223e-33 6.4782013186634934e-34  1.5000000000000027e-01 6.8691596749484004e-33 6.0207506451595702e-33  1.5000000000000002e-01 6.0504879979496216e-32 2.1822391239868146e-32  1.5000000000000022e-01 1.2843024674554249e-31 7.1474111089305039e-33  1.4999999999999997e-01 1.1167155869566554e-31 1.1282166443554699e-32  1.4999999999999991e-01 4.3765975604966593e-33 8.1149164995202605e-34  1.5000000000000002e-01 2.0685596796663433e-32 2.0912153669678570e-35  1.5000000000000002e-01 1.7400480601092665e-32 2.0165336952058993e-31  1.4999999999999991e-01 2.1459795336439535e-33 1.5886877655078946e-33  1.5000000000000005e-01 3.1880761907129505e-33 3.3200103239330114e-34  1.5000000000000030e-01 2.7823924243388362e-33 3.4506375062078052e-33  1.5000000000000013e-01 4.5410800279106710e-33 7.2036904688757251e-33  1.5000000000000002e-01 2.3586541948417485e-32 9.0601408166652672e-33  1.5000000000000005e-01 3.0461217704204196e-32 1.0647516326223554e-32  1.5000000000000002e-01 1.9733920583620727e-32 5.6605596780394845e-32  1.4999999999999991e-01 2.9469030115668774e-32 8.6894246612479277e-32  1.5000000000000019e-01 2.5866045717059336e-32 4.3594133891815221e-32  1.5000000000000005e-01 3.8137431742468519e-33 3.8187951282978845e-32  1.5000000000000002e-01 8.6953341455380513e-32 9.0691168456041164e-32  1.5000000000000027e-01 2.7442184902364658e-38 1.3307368375502466e-32  1.5000000000000002e-01 6.3041477969709675e-32 1.0533077292447929e-33  1.5000000000000019e-01 3.1959195579425367e-32 1.6052142387093227e-33  1.5000000000000002e-01 4.3863212234097924e-32 6.8722249458272148e-34  1.5000000000000011e-01 9.6539061489300475e-33 5.0757268668693867e-34  1.5000000000000013e-01 6.9864052721162776e-33 2.0709731368050020e-32  1.5000000000000013e-01 1.7331733175807157e-33 7.5238507863409185e-34  1.5000000000000013e-01 2.0916407809195173e-33 1.5797787131204921e-34  1.5000000000000005e-01 1.9534014651398512e-32 6.3686355225784555e-32  1.5000000000000013e-01 2.0823378332722722e-33 1.6355161233420520e-32  1.4999999999999997e-01 1.2048459500059941e-32 1.6340082520088543e-31  1.5000000000000013e-01 1.0040824680064071e-31 1.2754696997841848e-34  1.5000000000000013e-01 4.8499478856707549e-33 1.0977439197583010e-32  1.5000000000000011e-01 2.6658487214906031e-34 3.1931777042283221e-32  1.5000000000000019e-01 1.9759031583065431e-33 1.9733995796745319e-33  1.5000000000000027e-01 7.8591338360146584e-32 9.3357376416068733e-34  1.4999999999999997e-01 2.0014649472879546e-33 5.2033523842737703e-32  1.4999999999999983e-01 1.1372673822652680e-31 2.5079479065451430e-32  1.5000000000000019e-01 1.2411275910400793e-35 1.2032578701865537e-33  1.4999999999999991e-01 2.1170739555170417e-32 1.8428460422722554e-32  1.5000000000000011e-01 1.7369729623461986e-32 8.4204416267465004e-33  1.5000000000000011e-01 7.6737454671027996e-33 2.5567251527783702e-33  1.5000000000000002e-01 8.4767554214159317e-35 1.8225004329304612e-33  1.5000000000000036e-01 2.9237038037963649e-34 5.6823995105308159e-32  1.5000000000000005e-01 1.0762247145058841e-31 4.2333479299070990e-32  1.5000000000000041e-01 2.5744780648714060e-32 2.6197727058709614e-32  1.4999999999999991e-01 4.5032157637676718e-32 8.9994448327535297e-34  1.5000000000000022e-01 2.3793402453785968e-32 1.4677377526152916e-32  1.5000000000000013e-01 1.5281434077896150e-32 8.4783652633452038e-32  1.5000000000000022e-01 1.2793485482295938e-31 1.6210229975124316e-33  1.5000000000000019e-01 4.3493464625130673e-32 1.7949565283286355e-32  1.5000000000000005e-01 1.7320095419677674e-32 2.1307241923213383e-32  1.5000000000000002e-01 6.4784099454989442e-34 3.5694410548629903e-34  1.5000000000000011e-01 8.1804973012113510e-33 2.8522622616818488e-34  1.5000000000000019e-01 2.2843680397571257e-32 5.4847329009078098e-33  1.5000000000000030e-01 1.1220669986181764e-32 9.0114850284124173e-36  1.5000000000000022e-01 8.2221815065921477e-33 1.1984438200154085e-32  1.5000000000000002e-01 9.4863216881224571e-33 1.6879168372930132e-32  1.5000000000000022e-01 6.1089042612101041e-33 3.0866221793922895e-33  1.4999999999999997e-01 2.5138233391546092e-33 4.0395763933206558e-33  1.4999999999999997e-01 2.2246832298833457e-32 5.2938931417306848e-32  1.5000000000000013e-01 1.0442624312789700e-31 2.4975222897199474e-32  1.5000000000000036e-01 2.6545513390470261e-33 5.0347731094819122e-32  1.5000000000000011e-01 2.3374936508047435e-33 2.5758649040266699e-32  1.5000000000000019e-01 1.2132004425517419e-32 8.3461909736767065e-35  1.5000000000000030e-01 2.9223209274667635e-32 6.2441850118205396e-33  1.5000000000000013e-01 2.5907823710108908e-34 1.0442132644200618e-32  1.5000000000000005e-01 6.1644161117035869e-32 2.8687265053840734e-33  1.5000000000000022e-01 2.8511346882615303e-34 1.0185425995517563e-31  1.4999999999999997e-01 2.4156751516601329e-31 8.4865239095795501e-33  1.5000000000000041e-01 2.8063888549077183e-32 1.0010768602754885e-31  1.5000000000000011e-01 1.2226392205188455e-32 2.1423545315206214e-32  1.5000000000000002e-01 1.2799476833848549e-32 4.0683314718574283e-32  1.5000000000000011e-01 3.5876588414838175e-32 6.7884963254781523e-32  1.5000000000000019e-01 3.0901832575003091e-33 2.2852519478676220e-32  1.4999999999999983e-01 1.9965374051232293e-34 4.8358802848011576e-33  1.5000000000000013e-01 8.7996980718848882e-36 1.1515530270228179e-32  1.5000000000000002e-01 1.6649122727137114e-32 4.5965985869598777e-32  1.5000000000000011e-01 5.9362909101580240e-33 2.1531189135047008e-33  1.5000000000000013e-01 2.9665755979113131e-32 2.0000368071387481e-32  1.5000000000