<?xml version="1.0"?>
<VTKFile type="UnstructuredGrid"  version="0.1"  >
<UnstructuredGrid>
<Piece  NumberOfPoints="10201" NumberOfCells="20000">
<Points>
<DataArray  type="Float64"  NumberOfComponents="3"  format="ascii">-5 -5 0  -4.9 -5 0  -4.8 -5 0  -4.7 -5 0  -4.6 -5 0  -4.5 -5 0  -4.4 -5 0  -4.3 -5 0  -4.2 -5 0  -4.1 -5 0  -4 -5 0  -3.9 -5 0  -3.8 -5 0  -3.7 -5 0  -3.6 -5 0  -3.5 -5 0  -3.4 -5 0  -3.3 -5 0  -3.2 -5 0  -3.1 -5 0  -3 -5 0  -2.9 -5 0  -2.8 -5 0  -2.7 -5 0  -2.6 -5 0  -2.5 -5 0  -2.4 -5 0  -2.3 -5 0  -2.2 -5 0  -2.1 -5 0  -2 -5 0  -1.9 -5 0  -1.8 -5 0  -1.7 -5 0  -1.6 -5 0  -1.5 -5 0  -1.4 -5 0  -1.3 -5 0  -1.2 -5 0  -1.1 -5 0  -1 -5 0  -0.9000000000000004 -5 0  -0.7999999999999998 -5 0  -0.7000000000000002 -5 0  -0.5999999999999996 -5 0  -0.5 -5 0  -0.4000000000000004 -5 0  -0.2999999999999998 -5 0  -0.2000000000000002 -5 0  -0.09999999999999964 -5 0  0 -5 0  0.09999999999999964 -5 0  0.2000000000000002 -5 0  0.2999999999999998 -5 0  0.4000000000000004 -5 0  0.5 -5 0  0.5999999999999996 -5 0  0.7000000000000002 -5 0  0.7999999999999998 -5 0  0.9000000000000004 -5 0  1 -5 0  1.1 -5 0  1.2 -5 0  1.3 -5 0  1.4 -5 0  1.5 -5 0  1.6 -5 0  1.7 -5 0  1.8 -5 0  1.9 -5 0  2 -5 0  2.1 -5 0  2.2 -5 0  2.3 -5 0  2.4 -5 0  2.5 -5 0  2.6 -5 0  2.7 -5 0  2.8 -5 0  2.9 -5 0  3 -5 0  3.1 -5 0  3.199999999999999 -5 0  3.300000000000001 -5 0  3.4 -5 0  3.5 -5 0  3.6 -5 0  3.699999999999999 -5 0  3.800000000000001 -5 0  3.9 -5 0  4 -5 0  4.1 -5 0  4.199999999999999 -5 0  4.300000000000001 -5 0  4.4 -5 0  4.5 -5 0  4.6 -5 0  4.699999999999999 -5 0  4.800000000000001 -5 0  4.9 -5 0  5 -5 0  -5 -4.9 0  -4.9 -4.9 0  -4.8 -4.9 0  -4.7 -4.9 0  -4.6 -4.9 0  -4.5 -4.9 0  -4.4 -4.9 0  -4.3 -4.9 0  -4.2 -4.9 0  -4.1 -4.9 0  -4 -4.9 0  -3.9 -4.9 0  -3.8 -4.9 0  -3.7 -4.9 0  -3.6 -4.9 0  -3.5 -4.9 0  -3.4 -4.9 0  -3.3 -4.9 0  -3.2 -4.9 0  -3.1 -4.9 0  -3 -4.9 0  -2.9 -4.9 0  -2.8 -4.9 0  -2.7 -4.9 0  -2.6 -4.9 0  -2.5 -4.9 0  -2.4 -4.9 0  -2.3 -4.9 0  -2.2 -4.9 0  -2.1 -4.9 0  -2 -4.9 0  -1.9 -4.9 0  -1.8 -4.9 0  -1.7 -4.9 0  -1.6 -4.9 0  -1.5 -4.9 0  -1.4 -4.9 0  -1.3 -4.9 0  -1.2 -4.9 0  -1.1 -4.9 0  -1 -4.9 0  -0.9000000000000004 -4.9 0  -0.7999999999999998 -4.9 0  -0.7000000000000002 -4.9 0  -0.5999999999999996 -4.9 0  -0.5 -4.9 0  -0.4000000000000004 -4.9 0  -0.2999999999999998 -4.9 0  -0.2000000000000002 -4.9 0  -0.09999999999999964 -4.9 0  0 -4.9 0  0.09999999999999964 -4.9 0  0.2000000000000002 -4.9 0  0.2999999999999998 -4.9 0  0.4000000000000004 -4.9 0  0.5 -4.9 0  0.5999999999999996 -4.9 0  0.7000000000000002 -4.9 0  0.7999999999999998 -4.9 0  0.9000000000000004 -4.9 0  1 -4.9 0  1.1 -4.9 0  1.2 -4.9 0  1.3 -4.9 0  1.4 -4.9 0  1.5 -4.9 0  1.6 -4.9 0  1.7 -4.9 0  1.8 -4.9 0  1.9 -4.9 0  2 -4.9 0  2.1 -4.9 0  2.2 -4.9 0  2.3 -4.9 0  2.4 -4.9 0  2.5 -4.9 0  2.6 -4.9 0  2.7 -4.9 0  2.8 -4.9 0  2.9 -4.9 0  3 -4.9 0  3.1 -4.9 0  3.199999999999999 -4.9 0  3.300000000000001 -4.9 0  3.4 -4.9 0  3.5 -4.9 0  3.6 -4.9 0  3.699999999999999 -4.9 0  3.800000000000001 -4.9 0  3.9 -4.9 0  4 -4.9 0  4.1 -4.9 0  4.199999999999999 -4.9 0  4.300000000000001 -4.9 0  4.4 -4.9 0  4.5 -4.9 0  4.6 -4.9 0  4.699999999999999 -4.9 0  4.800000000000001 -4.9 0  4.9 -4.9 0  5 -4.9 0  -5 -4.8 0  -4.9 -4.8 0  -4.8 -4.8 0  -4.7 -4.8 0  -4.6 -4.8 0  -4.5 -4.8 0  -4.4 -4.8 0  -4.3 -4.8 0  -4.2 -4.8 0  -4.1 -4.8 0  -4 -4.8 0  -3.9 -4.8 0  -3.8 -4.8 0  -3.7 -4.8 0  -3.6 -4.8 0  -3.5 -4.8 0  -3.4 -4.8 0  -3.3 -4.8 0  -3.2 -4.8 0  -3.1 -4.8 0  -3 -4.8 0  -2.9 -4.8 0  -2.8 -4.8 0  -2.7 -4.8 0  -2.6 -4.8 0  -2.5 -4.8 0  -2.4 -4.8 0  -2.3 -4.8 0  -2.2 -4.8 0  -2.1 -4.8 0  -2 -4.8 0  -1.9 -4.8 0  -1.8 -4.8 0  -1.7 -4.8 0  -1.6 -4.8 0  -1.5 -4.8 0  -1.4 -4.8 0  -1.3 -4.8 0  -1.2 -4.8 0  -1.1 -4.8 0  -1 -4.8 0  -0.9000000000000004 -4.8 0  -0.7999999999999998 -4.8 0  -0.7000000000000002 -4.8 0  -0.5999999999999996 -4.8 0  -0.5 -4.8 0  -0.4000000000000004 -4.8 0  -0.2999999999999998 -4.8 0  -0.2000000000000002 -4.8 0  -0.09999999999999964 -4.8 0  0 -4.8 0  0.09999999999999964 -4.8 0  0.2000000000000002 -4.8 0  0.2999999999999998 -4.8 0  0.4000000000000004 -4.8 0  0.5 -4.8 0  0.5999999999999996 -4.8 0  0.7000000000000002 -4.8 0  0.7999999999999998 -4.8 0  0.9000000000000004 -4.8 0  1 -4.8 0  1.1 -4.8 0  1.2 -4.8 0  1.3 -4.8 0  1.4 -4.8 0  1.5 -4.8 0  1.6 -4.8 0  1.7 -4.8 0  1.8 -4.8 0  1.9 -4.8 0  2 -4.8 0  2.1 -4.8 0  2.2 -4.8 0  2.3 -4.8 0  2.4 -4.8 0  2.5 -4.8 0  2.6 -4.8 0  2.7 -4.8 0  2.8 -4.8 0  2.9 -4.8 0  3 -4.8 0  3.1 -4.8 0  3.199999999999999 -4.8 0  3.300000000000001 -4.8 0  3.4 -4.8 0  3.5 -4.8 0  3.6 -4.8 0  3.699999999999999 -4.8 0  3.800000000000001 -4.8 0  3.9 -4.8 0  4 -4.8 0  4.1 -4.8 0  4.199999999999999 -4.8 0  4.300000000000001 -4.8 0  4.4 -4.8 0  4.5 -4.8 0  4.6 -4.8 0  4.699999999999999 -4.8 0  4.800000000000001 -4.8 0  4.9 -4.8 0  5 -4.8 0  -5 -4.7 0  -4.9 -4.7 0  -4.8 -4.7 0  -4.7 -4.7 0  -4.6 -4.7 0  -4.5 -4.7 0  -4.4 -4.7 0  -4.3 -4.7 0  -4.2 -4.7 0  -4.1 -4.7 0  -4 -4.7 0  -3.9 -4.7 0  -3.8 -4.7 0  -3.7 -4.7 0  -3.6 -4.7 0  -3.5 -4.7 0  -3.4 -4.7 0  -3.3 -4.7 0  -3.2 -4.7 0  -3.1 -4.7 0  -3 -4.7 0  -2.9 -4.7 0  -2.8 -4.7 0  -2.7 -4.7 0  -2.6 -4.7 0  -2.5 -4.7 0  -2.4 -4.7 0  -2.3 -4.7 0  -2.2 -4.7 0  -2.1 -4.7 0  -2 -4.7 0  -1.9 -4.7 0  -1.8 -4.7 0  -1.7 -4.7 0  -1.6 -4.7 0  -1.5 -4.7 0  -1.4 -4.7 0  -1.3 -4.7 0  -1.2 -4.7 0  -1.1 -4.7 0  -1 -4.7 0  -0.9000000000000004 -4.7 0  -0.7999999999999998 -4.7 0  -0.7000000000000002 -4.7 0  -0.5999999999999996 -4.7 0  -0.5 -4.7 0  -0.4000000000000004 -4.7 0  -0.2999999999999998 -4.7 0  -0.2000000000000002 -4.7 0  -0.09999999999999964 -4.7 0  0 -4.7 0  0.09999999999999964 -4.7 0  0.2000000000000002 -4.7 0  0.2999999999999998 -4.7 0  0.4000000000000004 -4.7 0  0.5 -4.7 0  0.5999999999999996 -4.7 0  0.7000000000000002 -4.7 0  0.7999999999999998 -4.7 0  0.9000000000000004 -4.7 0  1 -4.7 0  1.1 -4.7 0  1.2 -4.7 0  1.3 -4.7 0  1.4 -4.7 0  1.5 -4.7 0  1.6 -4.7 0  1.7 -4.7 0  1.8 -4.7 0  1.9 -4.7 0  2 -4.7 0  2.1 -4.7 0  2.2 -4.7 0  2.3 -4.7 0  2.4 -4.7 0  2.5 -4.7 0  2.6 -4.7 0  2.7 -4.7 0  2.8 -4.7 0  2.9 -4.7 0  3 -4.7 0  3.1 -4.7 0  3.199999999999999 -4.7 0  3.300000000000001 -4.7 0  3.4 -4.7 0  3.5 -4.7 0  3.6 -4.7 0  3.699999999999999 -4.7 0  3.800000000000001 -4.7 0  3.9 -4.7 0  4 -4.7 0  4.1 -4.7 0  4.199999999999999 -4.7 0  4.300000000000001 -4.7 0  4.4 -4.7 0  4.5 -4.7 0  4.6 -4.7 0  4.699999999999999 -4.7 0  4.800000000000001 -4.7 0  4.9 -4.7 0  5 -4.7 0  -5 -4.6 0  -4.9 -4.6 0  -4.8 -4.6 0  -4.7 -4.6 0  -4.6 -4.6 0  -4.5 -4.6 0  -4.4 -4.6 0  -4.3 -4.6 0  -4.2 -4.6 0  -4.1 -4.6 0  -4 -4.6 0  -3.9 -4.6 0  -3.8 -4.6 0  -3.7 -4.6 0  -3.6 -4.6 0  -3.5 -4.6 0  -3.4 -4.6 0  -3.3 -4.6 0  -3.2 -4.6 0  -3.1 -4.6 0  -3 -4.6 0  -2.9 -4.6 0  -2.8 -4.6 0  -2.7 -4.6 0  -2.6 -4.6 0  -2.5 -4.6 0  -2.4 -4.6 0  -2.3 -4.6 0  -2.2 -4.6 0  -2.1 -4.6 0  -2 -4.6 0  -1.9 -4.6 0  -1.8 -4.6 0  -1.7 -4.6 0  -1.6 -4.6 0  -1.5 -4.6 0  -1.4 -4.6 0  -1.3 -4.6 0  -1.2 -4.6 0  -1.1 -4.6 0  -1 -4.6 0  -0.9000000000000004 -4.6 0  -0.7999999999999998 -4.6 0  -0.7000000000000002 -4.6 0  -0.5999999999999996 -4.6 0  -0.5 -4.6 0  -0.4000000000000004 -4.6 0  -0.2999999999999998 -4.6 0  -0.2000000000000002 -4.6 0  -0.09999999999999964 -4.6 0  0 -4.6 0  0.09999999999999964 -4.6 0  0.2000000000000002 -4.6 0  0.2999999999999998 -4.6 0  0.4000000000000004 -4.6 0  0.5 -4.6 0  0.5999999999999996 -4.6 0  0.7000000000000002 -4.6 0  0.7999999999999998 -4.6 0  0.9000000000000004 -4.6 0  1 -4.6 0  1.1 -4.6 0  1.2 -4.6 0  1.3 -4.6 0  1.4 -4.6 0  1.5 -4.6 0  1.6 -4.6 0  1.7 -4.6 0  1.8 -4.6 0  1.9 -4.6 0  2 -4.6 0  2.1 -4.6 0  2.2 -4.6 0  2.3 -4.6 0  2.4 -4.6 0  2.5 -4.6 0  2.6 -4.6 0  2.7 -4.6 0  2.8 -4.6 0  2.9 -4.6 0  3 -4.6 0  3.1 -4.6 0  3.199999999999999 -4.6 0  3.300000000000001 -4.6 0  3.4 -4.6 0  3.5 -4.6 0  3.6 -4.6 0  3.699999999999999 -4.6 0  3.800000000000001 -4.6 0  3.9 -4.6 0  4 -4.6 0  4.1 -4.6 0  4.199999999999999 -4.6 0  4.300000000000001 -4.6 0  4.4 -4.6 0  4.5 -4.6 0  4.6 -4.6 0  4.699999999999999 -4.6 0  4.800000000000001 -4.6 0  4.9 -4.6 0  5 -4.6 0  -5 -4.5 0  -4.9 -4.5 0  -4.8 -4.5 0  -4.7 -4.5 0  -4.6 -4.5 0  -4.5 -4.5 0  -4.4 -4.5 0  -4.3 -4.5 0  -4.2 -4.5 0  -4.1 -4.5 0  -4 -4.5 0  -3.9 -4.5 0  -3.8 -4.5 0  -3.7 -4.5 0  -3.6 -4.5 0  -3.5 -4.5 0  -3.4 -4.5 0  -3.3 -4.5 0  -3.2 -4.5 0  -3.1 -4.5 0  -3 -4.5 0  -2.9 -4.5 0  -2.8 -4.5 0  -2.7 -4.5 0  -2.6 -4.5 0  -2.5 -4.5 0  -2.4 -4.5 0  -2.3 -4.5 0  -2.2 -4.5 0  -2.1 -4.5 0  -2 -4.5 0  -1.9 -4.5 0  -1.8 -4.5 0  -1.7 -4.5 0  -1.6 -4.5 0  -1.5 -4.5 0  -1.4 -4.5 0  -1.3 -4.5 0  -1.2 -4.5 0  -1.1 -4.5 0  -1 -4.5 0  -0.9000000000000004 -4.5 0  -0.7999999999999998 -4.5 0  -0.7000000000000002 -4.5 0  -0.5999999999999996 -4.5 0  -0.5 -4.5 0  -0.4000000000000004 -4.5 0  -0.2999999999999998 -4.5 0  -0.2000000000000002 -4.5 0  -0.09999999999999964 -4.5 0  0 -4.5 0  0.09999999999999964 -4.5 0  0.2000000000000002 -4.5 0  0.2999999999999998 -4.5 0  0.4000000000000004 -4.5 0  0.5 -4.5 0  0.5999999999999996 -4.5 0  0.7000000000000002 -4.5 0  0.7999999999999998 -4.5 0  0.9000000000000004 -4.5 0  1 -4.5 0  1.1 -4.5 0  1.2 -4.5 0  1.3 -4.5 0  1.4 -4.5 0  1.5 -4.5 0  1.6 -4.5 0  1.7 -4.5 0  1.8 -4.5 0  1.9 -4.5 0  2 -4.5 0  2.1 -4.5 0  2.2 -4.5 0  2.3 -4.5 0  2.4 -4.5 0  2.5 -4.5 0  2.6 -4.5 0  2.7 -4.5 0  2.8 -4.5 0  2.9 -4.5 0  3 -4.5 0  3.1 -4.5 0  3.199999999999999 -4.5 0  3.300000000000001 -4.5 0  3.4 -4.5 0  3.5 -4.5 0  3.6 -4.5 0  3.699999999999999 -4.5 0  3.800000000000001 -4.5 0  3.9 -4.5 0  4 -4.5 0  4.1 -4.5 0  4.199999999999999 -4.5 0  4.300000000000001 -4.5 0  4.4 -4.5 0  4.5 -4.5 0  4.6 -4.5 0  4.699999999999999 -4.5 0  4.800000000000001 -4.5 0  4.9 -4.5 0  5 -4.5 0  -5 -4.4 0  -4.9 -4.4 0  -4.8 -4.4 0  -4.7 -4.4 0  -4.6 -4.4 0  -4.5 -4.4 0  -4.4 -4.4 0  -4.3 -4.4 0  -4.2 -4.4 0  -4.1 -4.4 0  -4 -4.4 0  -3.9 -4.4 0  -3.8 -4.4 0  -3.7 -4.4 0  -3.6 -4.4 0  -3.5 -4.4 0  -3.4 -4.4 0  -3.3 -4.4 0  -3.2 -4.4 0  -3.1 -4.4 0  -3 -4.4 0  -2.9 -4.4 0  -2.8 -4.4 0  -2.7 -4.4 0  -2.6 -4.4 0  -2.5 -4.4 0  -2.4 -4.4 0  -2.3 -4.4 0  -2.2 -4.4 0  -2.1 -4.4 0  -2 -4.4 0  -1.9 -4.4 0  -1.8 -4.
[...]
<PointData  Vectors="f_17"> 
<DataArray  type="Float64"  Name="f_17"  NumberOfComponents="3" format="ascii">1.5025637067959741e-01 0.0000000000000000e+00 0.0000000000000000e+00  1.4967295198307376e-01 8.2823161468414258e-04 0.0000000000000000e+00  1.5016228196982814e-01 -5.2681089847750068e-04 0.0000000000000000e+00  1.4949693126765362e-01 8.6751005656222923e-04 0.0000000000000000e+00  1.5026649330111427e-01 -8.0061495772378911e-04 0.0000000000000000e+00  1.4992540994518050e-01 -1.7261094986727516e-04 0.0000000000000000e+00  1.5066165183717217e-01 -1.1092924404521750e-03 0.0000000000000000e+00  1.5040101676803089e-01 -8.1067179908608658e-04 0.0000000000000000e+00  1.5070289835009071e-01 -1.6166265849719628e-04 0.0000000000000000e+00  1.5012573104940999e-01 9.6553976885089187e-05 0.0000000000000000e+00  1.5018748149014141e-01 1.7475302567517674e-03 0.0000000000000000e+00  1.4966940308455903e-01 1.2464409177323113e-03 0.0000000000000000e+00  1.4989364517567230e-01 2.2129496887251304e-03 0.0000000000000000e+00  1.4966572263457090e-01 8.9961843087968266e-04 0.0000000000000000e+00  1.4997903108004457e-01 1.8423282268373062e-03 0.0000000000000000e+00  1.4952732438962421e-01 6.8721958579004872e-04 0.0000000000000000e+00  1.4969165384056460e-01 1.7322045123901698e-03 0.0000000000000000e+00  1.4947276063195514e-01 5.2809784418983365e-04 0.0000000000000000e+00  1.4986811052579260e-01 6.3423359948105854e-04 0.0000000000000000e+00  1.4994773669900016e-01 -7.2465803415404297e-04 0.0000000000000000e+00  1.5037972018026594e-01 -2.0370771669441336e-04 0.0000000000000000e+00  1.5018947039776220e-01 -7.3614843360037463e-04 0.0000000000000000e+00  1.5025625996372244e-01 -2.2653471213186991e-04 0.0000000000000000e+00  1.5013766633940256e-01 -5.0194075373230344e-04 0.0000000000000000e+00  1.5002595810459043e-01 -1.3556351458422015e-04 0.0000000000000000e+00  1.4963758269774499e-01 -4.4391534044016626e-05 0.0000000000000000e+00  1.4953806251943361e-01 4.9536088267620516e-04 0.0000000000000000e+00  1.4941892082899286e-01 -1.5114998850310654e-04 0.0000000000000000e+00  1.4958418113209404e-01 -6.8042966454514024e-04 0.0000000000000000e+00  1.4978902692129528e-01 -6.0835571002299275e-04 0.0000000000000000e+00  1.4977458429427515e-01 -3.6151146231403695e-04 0.0000000000000000e+00  1.4972657068802689e-01 -9.6411320039318138e-04 0.0000000000000000e+00  1.5006461338917143e-01 -7.9398825817965314e-04 0.0000000000000000e+00  1.4995960311418138e-01 1.7091648111467882e-04 0.0000000000000000e+00  1.4952563846653599e-01 4.7315228498538491e-04 0.0000000000000000e+00  1.4992904603865517e-01 -2.5275312268715426e-04 0.0000000000000000e+00  1.5062426440837867e-01 -8.3499108820472238e-04 0.0000000000000000e+00  1.5025258578043996e-01 -6.1242271654042232e-04 0.0000000000000000e+00  1.4959062272087964e-01 6.0702455462069589e-04 0.0000000000000000e+00  1.4948519055973225e-01 1.2336760489394878e-03 0.0000000000000000e+00  1.4942720695357189e-01 -6.4053908598964097e-05 0.0000000000000000e+00  1.4937306986257232e-01 -1.1603983669785944e-03 0.0000000000000000e+00  1.4946125213602576e-01 4.1830360490655018e-05 0.0000000000000000e+00  1.4927712472818780e-01 1.0483820964021686e-03 0.0000000000000000e+00  1.4936057566218455e-01 3.1289094652595204e-04 0.0000000000000000e+00  1.5030722212364339e-01 -7.6996362234762347e-05 0.0000000000000000e+00  1.5109605018581829e-01 -1.0436063024534872e-04 0.0000000000000000e+00  1.5137489940601764e-01 -5.4799498650574341e-04 0.0000000000000000e+00  1.5181396623927529e-01 4.9452222969566218e-04 0.0000000000000000e+00  1.5228493422847025e-01 8.5852647078942434e-04 0.0000000000000000e+00  1.5263408752214475e-01 -1.1783685362874391e-03 0.0000000000000000e+00  1.5305802918383762e-01 -9.1673668272872493e-04 0.0000000000000000e+00  1.5273798722556728e-01 1.8556675846420473e-03 0.0000000000000000e+00  1.5238625499573433e-01 1.4250917007623432e-04 0.0000000000000000e+00  1.5297076668028955e-01 -2.0601076766798617e-03 0.0000000000000000e+00  1.5258447659122823e-01 9.1341007752366817e-04 0.0000000000000000e+00  1.5098399489090705e-01 1.9821829400081255e-03 0.0000000000000000e+00  1.5131781090311655e-01 -2.0634281725795765e-03 0.0000000000000000e+00  1.5148940861503132e-01 -1.1616166966051471e-03 0.0000000000000000e+00  1.4919693592836250e-01 2.2962522477553509e-03 0.0000000000000000e+00  1.4878338956373471e-01 -3.2880200497655048e-04 0.0000000000000000e+00  1.5039930306171773e-01 -2.7063628541133290e-03 0.0000000000000000e+00  1.4905251101505204e-01 1.3177563483968047e-03 0.0000000000000000e+00  1.4827586977362817e-01 1.5254826795388136e-03 0.0000000000000000e+00  1.5067082416959104e-01 -2.0892837779265131e-03 0.0000000000000000e+00  1.5063460769859857e-01 -3.5877052615596435e-04 0.0000000000000000e+00  1.4901679145073282e-01 2.1429515434478077e-03 0.0000000000000000e+00  1.5043531624393136e-01 -9.7156727277525887e-04 0.0000000000000000e+00  1.5074495425292808e-01 -1.0866243722843533e-03 0.0000000000000000e+00  1.4918328394898728e-01 1.4536957555488315e-03 0.0000000000000000e+00  1.4994909582150012e-01 3.5838342276330608e-05 0.0000000000000000e+00  1.5068359936298417e-01 -1.3161338393683168e-03 0.0000000000000000e+00  1.4946915641996600e-01 1.0441350649136847e-03 0.0000000000000000e+00  1.4993156882707187e-01 1.0359951555346691e-04 0.0000000000000000e+00  1.5042496165763650e-01 -7.0310272510500245e-04 0.0000000000000000e+00  1.4975410528462704e-01 2.4058880044007771e-04 0.0000000000000000e+00  1.4981370793769966e-01 6.4476831360910005e-04 0.0000000000000000e+00  1.5043285873112142e-01 -1.0747995117977719e-03 0.0000000000000000e+00  1.4965963437777818e-01 8.3480341067156561e-04 0.0000000000000000e+00  1.5009815988487130e-01 -3.8544435622848262e-04 0.0000000000000000e+00  1.5002512560711456e-01 2.7187977077234795e-04 0.0000000000000000e+00  1.5006427835822270e-01 -6.0245147061398371e-04 0.0000000000000000e+00  1.4974328896656258e-01 1.0774458369412761e-03 0.0000000000000000e+00  1.5039136879910983e-01 -1.3580307783929459e-03 0.0000000000000000e+00  1.4959752556713637e-01 1.3646311254505432e-03 0.0000000000000000e+00  1.5033861914079080e-01 -1.2449032343369933e-03 0.0000000000000000e+00  1.4971095750568914e-01 1.2066264960001779e-03 0.0000000000000000e+00  1.5029645762651617e-01 -1.3021921224119365e-03 0.0000000000000000e+00  1.4964850224405035e-01 1.4749035703768214e-03 0.0000000000000000e+00  1.5039749938517669e-01 -1.5802868608103854e-03 0.0000000000000000e+00  1.4957363676569516e-01 1.6093794066813630e-03 0.0000000000000000e+00  1.5039510677300474e-01 -1.4973292064692342e-03 0.0000000000000000e+00  1.4960876579340154e-01 1.4290069331717391e-03 0.0000000000000000e+00  1.5031841491590225e-01 -1.2487338367181845e-03 0.0000000000000000e+00  1.4963155412074916e-01 1.2549460374524791e-03 0.0000000000000000e+00  1.5026319418014897e-01 -1.0225712856690985e-03 0.0000000000000000e+00  1.4959631054531358e-01 1.0740742094928661e-03 0.0000000000000000e+00  1.5022385319139014e-01 -6.7180480013415492e-04 0.0000000000000000e+00  1.4952137596822307e-01 7.1021770246007478e-04 0.0000000000000000e+00  1.5018278670669249e-01 -2.0056805794916398e-04 0.0000000000000000e+00  1.4945496024895766e-01 0.0000000000000000e+00 0.0000000000000000e+00  1.4967295198307376e-01 0.0000000000000000e+00 8.2823161468368841e-04  1.5021850041079940e-01 6.9809041610380002e-04 6.9809041610402348e-04  1.4993991278348553e-01 -1.0944051729754954e-03 -3.4906568320255678e-05  1.5029272031151919e-01 8.4077682911341627e-04 8.5293608415107000e-04  1.4991439464862577e-01 -8.6439350259296050e-04 -5.6876463458590610e-04  1.5001306760841118e-01 1.1897774541511053e-03 2.3379867140448522e-04  1.4956562885914559e-01 1.0031829687945079e-04 -8.5440357458016600e-04  1.4957932466646617e-01 1.3619889021113140e-03 -1.4753071184398671e-05  1.4937745138816691e-01 1.1766644147578430e-04 -4.2589361529086535e-04  1.4966967679561216e-01 3.0173883071665656e-04 4.9161829862721723e-04  1.4980802451018896e-01 -1.0517335388166534e-03 2.2383161661256598e-04  1.5007043595457328e-01 -1.2895067518302592e-03 6.8051011411988493e-04  1.5019096130750512e-01 -1.7821012438131972e-03 6.4872593891305056e-05  1.5021809296002600e-01 -1.4298425741219225e-03 3.3782514086746769e-04  1.5016911616820092e-01 -1.5177413050634469e-03 -2.1315664879107457e-04  1.5022031359345053e-01 -1.2583854015930430e-03 2.7034022126131503e-04  1.5039125696065161e-01 -1.2204042075200892e-03 -1.8063871785838672e-04  1.5034132808118977e-01 -1.0527206667511231e-03 2.2134815309120576e-05  1.5031001977615302e-01 -5.9559073181236094e-04 -7.0757528022127891e-04  1.5008484486227508e-01 8.6371188584975683e-05 -4.7427206370320566e-04  1.4986591708716210e-01 3.5666220785041293e-04 -8.4207744395902676e-04  1.4970212659417612e-01 4.0337281167152832e-04 -3.7516057712567806e-04  1.4982163469788434e-01 4.4357281018757831e-04 -4.8598192426153658e-04  1.4979963513136973e-01 3.3949861628765484e-04 -1.1035917444352236e-04  1.4993184933662115e-01 2.1318731871921421e-04 -1.0101295159631344e-04  1.5019563044592518e-01 1.1534445814384069e-04 4.3720199675104804e-04  1.5042899506476318e-01 -2.2037121148697983e-04 4.5245839611617760e-04  1.5049219772258582e-01 -2.2234642587479390e-04 4.6171308763825385e-04  1.5053238034668151e-01 4.9518966140989912e-04 1.7229139016789778e-04  1.5028153557833260e-01 7.3192643135320189e-04 1.9120552287406407e-05  1.5016094618647488e-01 4.3830032014751139e-04 -1.7462904682310939e-04  1.5032139514891110e-01 6.1835432939080120e-04 -8.6741340655181135e-05  1.5022695699458882e-01 8.7872127670742754e-04 -1.4401962325573855e-04  1.4997440864591638e-01 2.6994548004644807e-04 1.7323703286069691e-04  1.5026377619579101e-01 -2.3194681630755252e-04 6.8432661676885969e-04  1.5028243573877470e-01 4.2941810259027334e-05 5.6139024995946528e-04  1.4950304849891319e-01 4.2874410841014420e-04 8.9666374851813440e-05  1.4921638412643040e-01 6.8177828359904471e-04 5.1191636294753862e-04  1.4982807304191689e-01 4.0434331686006687e-04 9.4289768929897906e-04  1.5027518220217720e-01 -7.2527004979231391e-04 1.4749520678163086e-04  1.5065344881882067e-01 -7.5941196447005426e-04 -1.1396418066108652e-03  1.5123417095096572e-01 6.3641348220912317e-04 -2.3441449074786277e-03  1.5155651622276786e-01 4.7886692545052784e-04 -4.0578411519069379e-03  1.5189225520156546e-01 -1.0992895464000069e-03 -5.7252065187016060e-03  1.5231023224928028e-01 -1.2225648923696326e-03 -6.8451276711639199e-03  1.5185357106471403e-01 -5.6935738097507467e-04 -7.8151182551954076e-03  1.5079849036122206e-01 -7.4352373191694464e-04 -7.9701985432686969e-03  1.5011488492712777e-01 -2.2499834305091603e-04 -6.6139854438529832e-03  1.4947129215227725e-01 -3.6203496183230718e-05 -4.5666114960204235e-03  1.4863612067723223e-01 -1.2467224266475361e-03 -2.4263065544010772e-03  1.4805619361114306e-01 -4.4116204760034645e-04 -3.1904864000010803e-04  1.4731195194310745e-01 1.5109352692599224e-03 1.2708061452730030e-03  1.4693656308723041e-01 -2.6258895604040143e-04 2.2833200216912856e-03  1.4762067435310663e-01 -1.6325034214642459e-03 2.6249872137949111e-03  1.4770180273427388e-01 1.1503840845207948e-03 1.3527942085591867e-03  1.4735014037897254e-01 1.5330870233006744e-03 -6.4646625897983644e-04  1.4897572525324695e-01 -1.3963611521318395e-03 -2.5489935375752636e-03  1.5044862779987397e-01 5.9702828343500189e-05 -5.5762379228493537e-03  1.4991726432975844e-01 2.8179499740204898e-03 -8.4699928167055807e-03  1.5112238660713845e-01 3.7989113964102925e-04 -8.6307331824318750e-03  1.5315895950031960e-01 -8.7892506696932474e-04 -8.6679327515841158e-03  1.5187848679812679e-01 2.0606046141736106e-03 -8.4834453086613734e-03  1.5090152364339762e-01 1.4577820876854868e-03 -4.7356609790971636e-03  1.5216079374105340e-01 -1.7469255012222927e-03 -9.5513651407986026e-04  1.5066083784218429e-01 -1.5201840125836282e-04 -7.3083126727289428e-04  1.4864334800933016e-01 1.5029799362122182e-03 7.5979014012156234e-04  1.5000759173433467e-01 -1.0354048177411894e-03 2.2954805180632237e-03  1.5032520148596534e-01 -1.0749188726196588e-03 2.2100106285846653e-04  1.4906531695077127e-01 1.3779438632139504e-03 -7.1475610249463180e-04  1.5017199883663060e-01 2.4525321693896036e-05 8.0596251528593373e-04  1.5070737754431168e-01 -1.1543756389030128e-03 -2.0433000231178530e-04  1.4944764022411083e-01 8.2559425657155667e-04 -7.1197886961253730e-04  1.4992147671323905e-01 3.3906666186586415e-04 6.0262059216580446e-04  1.5046368707572932e-01 -8.3594376718356062e-04 9.8424420334461280e-05  1.4969129054505706e-01 2.6476056337121004e-04 -5.8329104650897484e-04  1.4987735640229796e-01 5.6830642870786411e-04 4.8709689410240432e-04  1.5037191503512212e-01 -8.1175092872803271e-04 -1.1298324728517756e-05  1.4973121334114362e-01 4.0795771868016960e-04 -3.3919689037329473e-04  1.5000677752209937e-01 7.7122804199239507e-05 2.7443300727677980e-04  1.5013532388907491e-01 -1.4199002446000589e-04 5.7236549239350160e-05  1.4993914298110345e-01 -2.0165223374449444e-04 -3.1027869568785502e-04  1.4988502710823023e-01 5.7975491150472503e-04 2.9196401089594319e-04  1.5022647335336997e-01 -6.8431463893977597e-04 -8.2817254476771541e-05  1.4979061706298538e-01 5.1901297766104805e-04 -1.0932610116796172e-04  1.5012150820416936e-01 -3.0178069375535316e-04 1.5177410583661185e-04  1.4994542366888669e-01 2.2396162004345821e-04 -6.9253430741841808e-05  1.5005386701318968e-01 -3.0098597980690443e-04 -2.5469756735066224e-05  1.4990531631915674e-01 4.1141356351385777e-04 4.8435245163685698e-05  1.5013493513700987e-01 -4.4771614220278901e-04 1.5041952491151102e-05  1.4986399379479873e-01 3.6794671831041204e-04 -1.0546281820835338e-04  1.5012006955393681e-01 -2.5672886266768085e-04 1.8917135240684689e-04  1.4992456425366296e-01 1.2922381662838447e-04 -2.0514521355444025e-04  1.5007575432231227e-01 -1.1139808618189192e-04 2.2436466107305541e-04  1.4996842274315803e-01 3.9187405458760184e-05 -1.6251661569928141e-04  1.5008797986238456e-01 -1.2119882406357034e-04 2.0453971923337110e-04  1.4999494222695656e-01 -8.1550975420668468e-06 -9.9147990193173920e-05  1.5012488754904471e-01 -1.2798931561466508e-04 2.1389570220621819e-04  1.5004203167462921e-01 -9.4702004256999960e-05 -3.3467878123861199e-05  1.5016574842778763e-01 -1.4962612766116255e-04 2.2152106106442220e-04  1.5011876541452054e-01 -5.7069203649193678e-05 5.7069203649750098e-05  1.5018278670669230e-01 0.0000000000000000e+00 2.0056805794997236e-04  1.5016228196982817e-01 0.0000000000000000e+00 -5.2681089847666433e-04  1.4993991278348573e-01 -3.4906568318998972e-05 -1.0944051729765386e-03  1.5021805369877478e-01 -3.5835637113222900e-04 -3.5835637113073497e-04  1.4964084590940571e-01 7.7271575422789779e-04 -1.0505340977909198e-03  1.5024187307037978e-01 -7.3653895216872268e-04 6.7242243668147960e-05  1.4983478603730724e-01 3.1250687037603805e-04 -1.1354548791531435e-04  1.5049015423313239e-01 -9.5949894758247964e-04 7.8630682378325457e-04  1.5023713956058632e-01 -6.7724263065895333e-04 5.6930887746458822e-04  1.5071889490644486e-01 -6.3392064963117259e-04 5.5506849973731992e-04  1.5029528504714879e-01 -4.9331361352203428e-04 5.6637461081840284e-05  1.5039076010021266e-01 6.1640488730899448e-04 -7.0841307319819292e-04  1.4988270182661426e-01 7.0313458603351632e-04 -7.3794276450323795e-04  1.4999659864860940e-01 1.9408931382047792e-03 -1.0346632634627765e-03  1.4960708673388065e-01 1.1472170765615688e-03 -3.7075566154338307e-04  1.4993729062889938e-01 1.8914507540968369e-03 -4.5376491276927911e-04  1.4970582239249255e-01 1.0165762890329904e-03 2.7041257946352522e-04  1.4987546411983252e-01 1.5882888125835460e-03 -2.2600102537207790e-04  1.4956887279805334e-01 7.5961640704749278e-04 3.8822707664533146e-04  1.4985801536691859e-01 1.1870448477404392e-03 2.8926684445182335e-04  1.4970289984246776e-01 1.2416666030291411e-05 1.1021993267119766e-03  1.5009262065311260e-01 5.7765799593525526e-06 8.5933249879844664e-04  1.5014533417494424e-01 -4.9337736257798481e-04 1.3503977214117250e-03  1.5030022076357480e-01 -2.2556409189208420e-04 7.4397861204467748e-04  1.5011477550307797e-01 -4.8270782589743917e-04 7.6421436831103676e-04  1.5019240673137774e-01 -7.6532258266718238e-05 2.3394860965278726e-04  1.4987342628402778e-01 -1.6296247375823154e-04 -6.3074510356178623e-05  1.4967677967214726e-01 1.4932499110053492e-04 -7.9888030719855346e-04  1.4952612621951566e-01 2.4566560837981175e-04 -7.1381108129001992e-04  1.4952525120023147e-01 -8.5719355214890553e-05 -7.7180045376765941e-04  1.4956268391403438e-01 -8.5546028946484451e-04 -3.9576753141887315e-04  1.4990157672741236e-01 -4.9548341515380664e-04 -4.6085739836135885e-06  1.4977725651802842e-01 -4.1873462869932088e-04 2.6655059163794914e-04  1.4953504219886254e-01 -8.1689199616174265e-04 2.8119609294566901e-04  1.4961573119775870e-01 -6.0635814348208308e-04 6.7552394917067731e-04  1.4957070218577895e-01 2.3862907566643522e-04 7.0307258153668177e-05  1.4944729389736028e-01 2.3223416339028936e-04 -7.6764664737407544e-04  1.5041015311796979e-01 -2.8932779596090919e-04 -6.2871038080002301e-04  1.5176713150238486e-01 -7.5614726697917529e-04 -1.6789068656786067e-03  1.5208619237691773e-01 -1.2469247027263874e-03 -5.1767814840336700e-03  1.5172214673661374e-01 -1.1553454804833251e-03 -7.5314121602872899e-03  1.5107271664643915e-01 -3.1508169573451209e-04 -6.7793649969290545e-03  1.4945656276402583e-01 -8.5930406337815361e-04 -3.4362457401518774e-03  1.4732545894533833e-01 -1.3173531460096205e-03 3.7001152091109576e-03  1.4514441529453095e-01 8.9040752240084466e-04 1.4975227986774623e-02  1.4242965808643490e-01 3.1512781044365965e-03 2.7203591091143304e-02  1.4020861562816658e-01 3.6522251165018995e-03 3.8867531674586918e-02  1.3940234296461423e-01 4.1911632628669829e-03 4.9334057668809543e-02  1.3908542236000554e-01 4.2512591900867079e-03 5.5056105048746633e-02  1.3895901720037360e-01 3.5874403810697143e-03 5.5256220712188588e-02  1.3972607139589707e-01 3.5017923776686131e-03 5.2865705279432733e-02  1.4073932769003811e-01 3.2047978631828998e-03 4.8423176488258446e-02  1.4170123146590233e-01 8.8345222461770102e-04 4.3363544515136035e-02  1.4285856952672815e-01 -2.4602696639110613e-04 4.0030349522239952e-02  1.4288548043245597e-01 8.4660252682772306e-04 3.8050760403311408e-02  1.4189659397068199e-01 -3.2360893727991972e-04 3.8826874457660455e-02  1.4186962092326938e-01 -3.2146600191577290e-03 4.3949223626386896e-02  1.4092787846954394e-01 -2.8474496260852762e-03 4.9323098985700947e-02  1.3834575982713035e-01 -2.2789094584747256e-03 5.3855477632135766e-02  1.3794858261947365e-01 -5.3356931145960677e-03 5.8963033045365661e-02  1.3893905341030352e-01 -6.2519405267758670e-03 5.8060085089678318e-02  1.3850127052079231e-01 -3.1336709199097906e-03 4.8758887928382726e-02  1.4044333329978109e-01 -2.8109038106150612e-03 3.7541432730281293e-02  1.4514063907310254e-01 -3.1621741907691295e-03 2.2366749437527388e-02  1.4749276106355139e-01 7.8893767179249931e-04 3.3762501911625813e-03  1.4930538692722550e-01 2.9253271738699208e-03 -6.7713672656202952e-03  1.5261205239166914e-01 5.6358670615232491e-04 -8.0264061700571331e-03  1.5260574634597404e-01 6.2458682819785936e-04 -8.8090796822166730e-03  1.5049842555630830e-01 1.6583621233574406e-03 -4.5181108723419509e-03  1.5049073378482994e-01 -4.2757302100101510e-04 2.1290211967113708e-03  1.5014675956168708e-01 -1.3599814175028076e-03 1.2233452731266398e-03  1.4900097198079043e-01 8.5676109427488590e-04 -5.9595339701224261e-04  1.5002919560225542e-01 7.2576125604485909e-05 1.2704908495784280e-03  1.5045523293737381e-01 -6.2973378210586688e-04 -8.1160867806373001e-05  1.4973600179346849e-01 2.1170044248294614e-04 -1.0669051011816945e-03  1.4988886506950130e-01 6.4200133792003159e-04 7.9956521131460993e-04  1.5037566874665831e-01 -9.5386036160145988e-04 1.2968517467704587e-04  1.4965360966845948e-01 6.3085406058399727e-04 -8.0194852596295020e-04  1.5013864471062627e-01 -2.2369973715213710e-04 7.2400525833719279e-04  1.4999923439912027e-01 1.9829678622414825e-04 -1.3449783536860946