<?xml version="1.0"?>
<VTKFile type="UnstructuredGrid"  version="0.1"  >
<UnstructuredGrid>
<Piece  NumberOfPoints="10201" NumberOfCells="20000">
<Points>
<DataArray  type="Float64"  NumberOfComponents="3"  format="ascii">-5 -5 0  -4.9 -5 0  -4.8 -5 0  -4.7 -5 0  -4.6 -5 0  -4.5 -5 0  -4.4 -5 0  -4.3 -5 0  -4.2 -5 0  -4.1 -5 0  -4 -5 0  -3.9 -5 0  -3.8 -5 0  -3.7 -5 0  -3.6 -5 0  -3.5 -5 0  -3.4 -5 0  -3.3 -5 0  -3.2 -5 0  -3.1 -5 0  -3 -5 0  -2.9 -5 0  -2.8 -5 0  -2.7 -5 0  -2.6 -5 0  -2.5 -5 0  -2.4 -5 0  -2.3 -5 0  -2.2 -5 0  -2.1 -5 0  -2 -5 0  -1.9 -5 0  -1.8 -5 0  -1.7 -5 0  -1.6 -5 0  -1.5 -5 0  -1.4 -5 0  -1.3 -5 0  -1.2 -5 0  -1.1 -5 0  -1 -5 0  -0.9000000000000004 -5 0  -0.7999999999999998 -5 0  -0.7000000000000002 -5 0  -0.5999999999999996 -5 0  -0.5 -5 0  -0.4000000000000004 -5 0  -0.2999999999999998 -5 0  -0.2000000000000002 -5 0  -0.09999999999999964 -5 0  0 -5 0  0.09999999999999964 -5 0  0.2000000000000002 -5 0  0.2999999999999998 -5 0  0.4000000000000004 -5 0  0.5 -5 0  0.5999999999999996 -5 0  0.7000000000000002 -5 0  0.7999999999999998 -5 0  0.9000000000000004 -5 0  1 -5 0  1.1 -5 0  1.2 -5 0  1.3 -5 0  1.4 -5 0  1.5 -5 0  1.6 -5 0  1.7 -5 0  1.8 -5 0  1.9 -5 0  2 -5 0  2.1 -5 0  2.2 -5 0  2.3 -5 0  2.4 -5 0  2.5 -5 0  2.6 -5 0  2.7 -5 0  2.8 -5 0  2.9 -5 0  3 -5 0  3.1 -5 0  3.199999999999999 -5 0  3.300000000000001 -5 0  3.4 -5 0  3.5 -5 0  3.6 -5 0  3.699999999999999 -5 0  3.800000000000001 -5 0  3.9 -5 0  4 -5 0  4.1 -5 0  4.199999999999999 -5 0  4.300000000000001 -5 0  4.4 -5 0  4.5 -5 0  4.6 -5 0  4.699999999999999 -5 0  4.800000000000001 -5 0  4.9 -5 0  5 -5 0  -5 -4.9 0  -4.9 -4.9 0  -4.8 -4.9 0  -4.7 -4.9 0  -4.6 -4.9 0  -4.5 -4.9 0  -4.4 -4.9 0  -4.3 -4.9 0  -4.2 -4.9 0  -4.1 -4.9 0  -4 -4.9 0  -3.9 -4.9 0  -3.8 -4.9 0  -3.7 -4.9 0  -3.6 -4.9 0  -3.5 -4.9 0  -3.4 -4.9 0  -3.3 -4.9 0  -3.2 -4.9 0  -3.1 -4.9 0  -3 -4.9 0  -2.9 -4.9 0  -2.8 -4.9 0  -2.7 -4.9 0  -2.6 -4.9 0  -2.5 -4.9 0  -2.4 -4.9 0  -2.3 -4.9 0  -2.2 -4.9 0  -2.1 -4.9 0  -2 -4.9 0  -1.9 -4.9 0  -1.8 -4.9 0  -1.7 -4.9 0  -1.6 -4.9 0  -1.5 -4.9 0  -1.4 -4.9 0  -1.3 -4.9 0  -1.2 -4.9 0  -1.1 -4.9 0  -1 -4.9 0  -0.9000000000000004 -4.9 0  -0.7999999999999998 -4.9 0  -0.7000000000000002 -4.9 0  -0.5999999999999996 -4.9 0  -0.5 -4.9 0  -0.4000000000000004 -4.9 0  -0.2999999999999998 -4.9 0  -0.2000000000000002 -4.9 0  -0.09999999999999964 -4.9 0  0 -4.9 0  0.09999999999999964 -4.9 0  0.2000000000000002 -4.9 0  0.2999999999999998 -4.9 0  0.4000000000000004 -4.9 0  0.5 -4.9 0  0.5999999999999996 -4.9 0  0.7000000000000002 -4.9 0  0.7999999999999998 -4.9 0  0.9000000000000004 -4.9 0  1 -4.9 0  1.1 -4.9 0  1.2 -4.9 0  1.3 -4.9 0  1.4 -4.9 0  1.5 -4.9 0  1.6 -4.9 0  1.7 -4.9 0  1.8 -4.9 0  1.9 -4.9 0  2 -4.9 0  2.1 -4.9 0  2.2 -4.9 0  2.3 -4.9 0  2.4 -4.9 0  2.5 -4.9 0  2.6 -4.9 0  2.7 -4.9 0  2.8 -4.9 0  2.9 -4.9 0  3 -4.9 0  3.1 -4.9 0  3.199999999999999 -4.9 0  3.300000000000001 -4.9 0  3.4 -4.9 0  3.5 -4.9 0  3.6 -4.9 0  3.699999999999999 -4.9 0  3.800000000000001 -4.9 0  3.9 -4.9 0  4 -4.9 0  4.1 -4.9 0  4.199999999999999 -4.9 0  4.300000000000001 -4.9 0  4.4 -4.9 0  4.5 -4.9 0  4.6 -4.9 0  4.699999999999999 -4.9 0  4.800000000000001 -4.9 0  4.9 -4.9 0  5 -4.9 0  -5 -4.8 0  -4.9 -4.8 0  -4.8 -4.8 0  -4.7 -4.8 0  -4.6 -4.8 0  -4.5 -4.8 0  -4.4 -4.8 0  -4.3 -4.8 0  -4.2 -4.8 0  -4.1 -4.8 0  -4 -4.8 0  -3.9 -4.8 0  -3.8 -4.8 0  -3.7 -4.8 0  -3.6 -4.8 0  -3.5 -4.8 0  -3.4 -4.8 0  -3.3 -4.8 0  -3.2 -4.8 0  -3.1 -4.8 0  -3 -4.8 0  -2.9 -4.8 0  -2.8 -4.8 0  -2.7 -4.8 0  -2.6 -4.8 0  -2.5 -4.8 0  -2.4 -4.8 0  -2.3 -4.8 0  -2.2 -4.8 0  -2.1 -4.8 0  -2 -4.8 0  -1.9 -4.8 0  -1.8 -4.8 0  -1.7 -4.8 0  -1.6 -4.8 0  -1.5 -4.8 0  -1.4 -4.8 0  -1.3 -4.8 0  -1.2 -4.8 0  -1.1 -4.8 0  -1 -4.8 0  -0.9000000000000004 -4.8 0  -0.7999999999999998 -4.8 0  -0.7000000000000002 -4.8 0  -0.5999999999999996 -4.8 0  -0.5 -4.8 0  -0.4000000000000004 -4.8 0  -0.2999999999999998 -4.8 0  -0.2000000000000002 -4.8 0  -0.09999999999999964 -4.8 0  0 -4.8 0  0.09999999999999964 -4.8 0  0.2000000000000002 -4.8 0  0.2999999999999998 -4.8 0  0.4000000000000004 -4.8 0  0.5 -4.8 0  0.5999999999999996 -4.8 0  0.7000000000000002 -4.8 0  0.7999999999999998 -4.8 0  0.9000000000000004 -4.8 0  1 -4.8 0  1.1 -4.8 0  1.2 -4.8 0  1.3 -4.8 0  1.4 -4.8 0  1.5 -4.8 0  1.6 -4.8 0  1.7 -4.8 0  1.8 -4.8 0  1.9 -4.8 0  2 -4.8 0  2.1 -4.8 0  2.2 -4.8 0  2.3 -4.8 0  2.4 -4.8 0  2.5 -4.8 0  2.6 -4.8 0  2.7 -4.8 0  2.8 -4.8 0  2.9 -4.8 0  3 -4.8 0  3.1 -4.8 0  3.199999999999999 -4.8 0  3.300000000000001 -4.8 0  3.4 -4.8 0  3.5 -4.8 0  3.6 -4.8 0  3.699999999999999 -4.8 0  3.800000000000001 -4.8 0  3.9 -4.8 0  4 -4.8 0  4.1 -4.8 0  4.199999999999999 -4.8 0  4.300000000000001 -4.8 0  4.4 -4.8 0  4.5 -4.8 0  4.6 -4.8 0  4.699999999999999 -4.8 0  4.800000000000001 -4.8 0  4.9 -4.8 0  5 -4.8 0  -5 -4.7 0  -4.9 -4.7 0  -4.8 -4.7 0  -4.7 -4.7 0  -4.6 -4.7 0  -4.5 -4.7 0  -4.4 -4.7 0  -4.3 -4.7 0  -4.2 -4.7 0  -4.1 -4.7 0  -4 -4.7 0  -3.9 -4.7 0  -3.8 -4.7 0  -3.7 -4.7 0  -3.6 -4.7 0  -3.5 -4.7 0  -3.4 -4.7 0  -3.3 -4.7 0  -3.2 -4.7 0  -3.1 -4.7 0  -3 -4.7 0  -2.9 -4.7 0  -2.8 -4.7 0  -2.7 -4.7 0  -2.6 -4.7 0  -2.5 -4.7 0  -2.4 -4.7 0  -2.3 -4.7 0  -2.2 -4.7 0  -2.1 -4.7 0  -2 -4.7 0  -1.9 -4.7 0  -1.8 -4.7 0  -1.7 -4.7 0  -1.6 -4.7 0  -1.5 -4.7 0  -1.4 -4.7 0  -1.3 -4.7 0  -1.2 -4.7 0  -1.1 -4.7 0  -1 -4.7 0  -0.9000000000000004 -4.7 0  -0.7999999999999998 -4.7 0  -0.7000000000000002 -4.7 0  -0.5999999999999996 -4.7 0  -0.5 -4.7 0  -0.4000000000000004 -4.7 0  -0.2999999999999998 -4.7 0  -0.2000000000000002 -4.7 0  -0.09999999999999964 -4.7 0  0 -4.7 0  0.09999999999999964 -4.7 0  0.2000000000000002 -4.7 0  0.2999999999999998 -4.7 0  0.4000000000000004 -4.7 0  0.5 -4.7 0  0.5999999999999996 -4.7 0  0.7000000000000002 -4.7 0  0.7999999999999998 -4.7 0  0.9000000000000004 -4.7 0  1 -4.7 0  1.1 -4.7 0  1.2 -4.7 0  1.3 -4.7 0  1.4 -4.7 0  1.5 -4.7 0  1.6 -4.7 0  1.7 -4.7 0  1.8 -4.7 0  1.9 -4.7 0  2 -4.7 0  2.1 -4.7 0  2.2 -4.7 0  2.3 -4.7 0  2.4 -4.7 0  2.5 -4.7 0  2.6 -4.7 0  2.7 -4.7 0  2.8 -4.7 0  2.9 -4.7 0  3 -4.7 0  3.1 -4.7 0  3.199999999999999 -4.7 0  3.300000000000001 -4.7 0  3.4 -4.7 0  3.5 -4.7 0  3.6 -4.7 0  3.699999999999999 -4.7 0  3.800000000000001 -4.7 0  3.9 -4.7 0  4 -4.7 0  4.1 -4.7 0  4.199999999999999 -4.7 0  4.300000000000001 -4.7 0  4.4 -4.7 0  4.5 -4.7 0  4.6 -4.7 0  4.699999999999999 -4.7 0  4.800000000000001 -4.7 0  4.9 -4.7 0  5 -4.7 0  -5 -4.6 0  -4.9 -4.6 0  -4.8 -4.6 0  -4.7 -4.6 0  -4.6 -4.6 0  -4.5 -4.6 0  -4.4 -4.6 0  -4.3 -4.6 0  -4.2 -4.6 0  -4.1 -4.6 0  -4 -4.6 0  -3.9 -4.6 0  -3.8 -4.6 0  -3.7 -4.6 0  -3.6 -4.6 0  -3.5 -4.6 0  -3.4 -4.6 0  -3.3 -4.6 0  -3.2 -4.6 0  -3.1 -4.6 0  -3 -4.6 0  -2.9 -4.6 0  -2.8 -4.6 0  -2.7 -4.6 0  -2.6 -4.6 0  -2.5 -4.6 0  -2.4 -4.6 0  -2.3 -4.6 0  -2.2 -4.6 0  -2.1 -4.6 0  -2 -4.6 0  -1.9 -4.6 0  -1.8 -4.6 0  -1.7 -4.6 0  -1.6 -4.6 0  -1.5 -4.6 0  -1.4 -4.6 0  -1.3 -4.6 0  -1.2 -4.6 0  -1.1 -4.6 0  -1 -4.6 0  -0.9000000000000004 -4.6 0  -0.7999999999999998 -4.6 0  -0.7000000000000002 -4.6 0  -0.5999999999999996 -4.6 0  -0.5 -4.6 0  -0.4000000000000004 -4.6 0  -0.2999999999999998 -4.6 0  -0.2000000000000002 -4.6 0  -0.09999999999999964 -4.6 0  0 -4.6 0  0.09999999999999964 -4.6 0  0.2000000000000002 -4.6 0  0.2999999999999998 -4.6 0  0.4000000000000004 -4.6 0  0.5 -4.6 0  0.5999999999999996 -4.6 0  0.7000000000000002 -4.6 0  0.7999999999999998 -4.6 0  0.9000000000000004 -4.6 0  1 -4.6 0  1.1 -4.6 0  1.2 -4.6 0  1.3 -4.6 0  1.4 -4.6 0  1.5 -4.6 0  1.6 -4.6 0  1.7 -4.6 0  1.8 -4.6 0  1.9 -4.6 0  2 -4.6 0  2.1 -4.6 0  2.2 -4.6 0  2.3 -4.6 0  2.4 -4.6 0  2.5 -4.6 0  2.6 -4.6 0  2.7 -4.6 0  2.8 -4.6 0  2.9 -4.6 0  3 -4.6 0  3.1 -4.6 0  3.199999999999999 -4.6 0  3.300000000000001 -4.6 0  3.4 -4.6 0  3.5 -4.6 0  3.6 -4.6 0  3.699999999999999 -4.6 0  3.800000000000001 -4.6 0  3.9 -4.6 0  4 -4.6 0  4.1 -4.6 0  4.199999999999999 -4.6 0  4.300000000000001 -4.6 0  4.4 -4.6 0  4.5 -4.6 0  4.6 -4.6 0  4.699999999999999 -4.6 0  4.800000000000001 -4.6 0  4.9 -4.6 0  5 -4.6 0  -5 -4.5 0  -4.9 -4.5 0  -4.8 -4.5 0  -4.7 -4.5 0  -4.6 -4.5 0  -4.5 -4.5 0  -4.4 -4.5 0  -4.3 -4.5 0  -4.2 -4.5 0  -4.1 -4.5 0  -4 -4.5 0  -3.9 -4.5 0  -3.8 -4.5 0  -3.7 -4.5 0  -3.6 -4.5 0  -3.5 -4.5 0  -3.4 -4.5 0  -3.3 -4.5 0  -3.2 -4.5 0  -3.1 -4.5 0  -3 -4.5 0  -2.9 -4.5 0  -2.8 -4.5 0  -2.7 -4.5 0  -2.6 -4.5 0  -2.5 -4.5 0  -2.4 -4.5 0  -2.3 -4.5 0  -2.2 -4.5 0  -2.1 -4.5 0  -2 -4.5 0  -1.9 -4.5 0  -1.8 -4.5 0  -1.7 -4.5 0  -1.6 -4.5 0  -1.5 -4.5 0  -1.4 -4.5 0  -1.3 -4.5 0  -1.2 -4.5 0  -1.1 -4.5 0  -1 -4.5 0  -0.9000000000000004 -4.5 0  -0.7999999999999998 -4.5 0  -0.7000000000000002 -4.5 0  -0.5999999999999996 -4.5 0  -0.5 -4.5 0  -0.4000000000000004 -4.5 0  -0.2999999999999998 -4.5 0  -0.2000000000000002 -4.5 0  -0.09999999999999964 -4.5 0  0 -4.5 0  0.09999999999999964 -4.5 0  0.2000000000000002 -4.5 0  0.2999999999999998 -4.5 0  0.4000000000000004 -4.5 0  0.5 -4.5 0  0.5999999999999996 -4.5 0  0.7000000000000002 -4.5 0  0.7999999999999998 -4.5 0  0.9000000000000004 -4.5 0  1 -4.5 0  1.1 -4.5 0  1.2 -4.5 0  1.3 -4.5 0  1.4 -4.5 0  1.5 -4.5 0  1.6 -4.5 0  1.7 -4.5 0  1.8 -4.5 0  1.9 -4.5 0  2 -4.5 0  2.1 -4.5 0  2.2 -4.5 0  2.3 -4.5 0  2.4 -4.5 0  2.5 -4.5 0  2.6 -4.5 0  2.7 -4.5 0  2.8 -4.5 0  2.9 -4.5 0  3 -4.5 0  3.1 -4.5 0  3.199999999999999 -4.5 0  3.300000000000001 -4.5 0  3.4 -4.5 0  3.5 -4.5 0  3.6 -4.5 0  3.699999999999999 -4.5 0  3.800000000000001 -4.5 0  3.9 -4.5 0  4 -4.5 0  4.1 -4.5 0  4.199999999999999 -4.5 0  4.300000000000001 -4.5 0  4.4 -4.5 0  4.5 -4.5 0  4.6 -4.5 0  4.699999999999999 -4.5 0  4.800000000000001 -4.5 0  4.9 -4.5 0  5 -4.5 0  -5 -4.4 0  -4.9 -4.4 0  -4.8 -4.4 0  -4.7 -4.4 0  -4.6 -4.4 0  -4.5 -4.4 0  -4.4 -4.4 0  -4.3 -4.4 0  -4.2 -4.4 0  -4.1 -4.4 0  -4 -4.4 0  -3.9 -4.4 0  -3.8 -4.4 0  -3.7 -4.4 0  -3.6 -4.4 0  -3.5 -4.4 0  -3.4 -4.4 0  -3.3 -4.4 0  -3.2 -4.4 0  -3.1 -4.4 0  -3 -4.4 0  -2.9 -4.4 0  -2.8 -4.4 0  -2.7 -4.4 0  -2.6 -4.4 0  -2.5 -4.4 0  -2.4 -4.4 0  -2.3 -4.4 0  -2.2 -4.4 0  -2.1 -4.4 0  -2 -4.4 0  -1.9 -4.4 0  -1.8 -4.
[...]
<PointData  Vectors="f_17"> 
<DataArray  type="Float64"  Name="f_17"  NumberOfComponents="3" format="ascii">1.5089313697674786e-01 0.0000000000000000e+00 0.0000000000000000e+00  1.4979722628578196e-01 -9.6959470442734919e-04 0.0000000000000000e+00  1.5079833675913143e-01 3.7361867299693692e-04 0.0000000000000000e+00  1.4992103847171398e-01 -1.0498727060868429e-03 0.0000000000000000e+00  1.5063470996611669e-01 8.4868305619414095e-04 0.0000000000000000e+00  1.4992279559144001e-01 -8.1323442258587442e-04 0.0000000000000000e+00  1.5049532345039546e-01 1.0910953861236088e-03 0.0000000000000000e+00  1.5000969073968512e-01 -6.8102738897722463e-04 0.0000000000000000e+00  1.5054389854467581e-01 8.2838853039742140e-04 0.0000000000000000e+00  1.5022507653749015e-01 -7.6547304427606255e-04 0.0000000000000000e+00  1.5062213513875655e-01 5.8553400613611643e-04 0.0000000000000000e+00  1.5021985060927839e-01 -4.2310000887916746e-04 0.0000000000000000e+00  1.5032377436235037e-01 9.0055893019887700e-04 0.0000000000000000e+00  1.4989112316183639e-01 3.2052827271480055e-04 0.0000000000000000e+00  1.4994087757055641e-01 1.1249648812773083e-03 0.0000000000000000e+00  1.4970194454723451e-01 3.7328168417012267e-04 0.0000000000000000e+00  1.4986052158366525e-01 7.6416311069985705e-04 0.0000000000000000e+00  1.4970293258227799e-01 3.2912225385538029e-04 0.0000000000000000e+00  1.4969635505000903e-01 7.3986868558193559e-04 0.0000000000000000e+00  1.4953766860405690e-01 5.2610889123839847e-04 0.0000000000000000e+00  1.4959276365439708e-01 5.5928804848299921e-04 0.0000000000000000e+00  1.4957751102733730e-01 -9.1342648242713439e-06 0.0000000000000000e+00  1.4970908018198595e-01 -1.5281195980889492e-04 0.0000000000000000e+00  1.4974743174730917e-01 -3.5657321816901308e-04 0.0000000000000000e+00  1.4979832843315766e-01 -4.4518780920349132e-04 0.0000000000000000e+00  1.4985678484798173e-01 -6.4257822031813655e-04 0.0000000000000000e+00  1.4993995113329450e-01 -4.9670677245542349e-04 0.0000000000000000e+00  1.4985698163598474e-01 -3.0750721881818335e-04 0.0000000000000000e+00  1.4980987642078905e-01 -1.7363586866442265e-04 0.0000000000000000e+00  1.4989407186507178e-01 -2.5138287635009023e-04 0.0000000000000000e+00  1.4993285590472985e-01 -3.0382737321767611e-04 0.0000000000000000e+00  1.4985937336926602e-01 -7.9806847854413293e-05 0.0000000000000000e+00  1.4989924832227475e-01 1.6563975058761499e-04 0.0000000000000000e+00  1.5004565262342620e-01 -2.0324515588275596e-04 0.0000000000000000e+00  1.5011214071412290e-01 -5.3020207815385732e-04 0.0000000000000000e+00  1.4999706408998476e-01 1.3852693312613114e-04 0.0000000000000000e+00  1.4982167258016887e-01 6.9222624132508936e-04 0.0000000000000000e+00  1.4990242826193792e-01 -1.1209921640230726e-04 0.0000000000000000e+00  1.5021033664017827e-01 -7.4544212883171951e-04 0.0000000000000000e+00  1.5018355580916418e-01 7.0872124776564860e-06 0.0000000000000000e+00  1.4983460726000461e-01 5.2201171439518153e-04 0.0000000000000000e+00  1.4983874580355439e-01 6.0151855271172366e-05 0.0000000000000000e+00  1.5009369107041939e-01 -8.2842103540265911e-05 0.0000000000000000e+00  1.5005245670276751e-01 -4.5065261571226372e-05 0.0000000000000000e+00  1.4998182329856941e-01 -3.2763908779217372e-04 0.0000000000000000e+00  1.5003943027663719e-01 1.4775054778226073e-04 0.0000000000000000e+00  1.4988192440076498e-01 6.6920348008011926e-04 0.0000000000000000e+00  1.4991165994148845e-01 -3.8065764399840762e-04 0.0000000000000000e+00  1.5027303280139026e-01 -8.2238113866985160e-04 0.0000000000000000e+00  1.5002570237114957e-01 7.2509495314146725e-04 0.0000000000000000e+00  1.4958717954136524e-01 7.4952833777922740e-04 0.0000000000000000e+00  1.5014918173466113e-01 -1.0816504980359065e-03 0.0000000000000000e+00  1.5044755946436275e-01 -4.3187496797089816e-04 0.0000000000000000e+00  1.4960817158674120e-01 1.2943276847215193e-03 0.0000000000000000e+00  1.4966207256942141e-01 -3.0740911954817205e-05 0.0000000000000000e+00  1.5059766789949255e-01 -1.3051172375537533e-03 0.0000000000000000e+00  1.5005942636041142e-01 5.5536548543902941e-04 0.0000000000000000e+00  1.4935657202947900e-01 9.9780577618820468e-04 0.0000000000000000e+00  1.5025970295051869e-01 -9.1684368469062286e-04 0.0000000000000000e+00  1.5048988792827800e-01 -5.5583563627471886e-04 0.0000000000000000e+00  1.4948504066564128e-01 1.1056124206481486e-03 0.0000000000000000e+00  1.4984961721637913e-01 -6.6982213487433003e-05 0.0000000000000000e+00  1.5052486772172063e-01 -8.6504287153973448e-04 0.0000000000000000e+00  1.4983782471301607e-01 4.4557694267335235e-04 0.0000000000000000e+00  1.4964776803714919e-01 5.4248508487845268e-04 0.0000000000000000e+00  1.5036621916617715e-01 -7.2478578260741196e-04 0.0000000000000000e+00  1.5003012957959741e-01 4.9392777883944728e-05 0.0000000000000000e+00  1.4970942109721755e-01 4.7507183662616015e-04 0.0000000000000000e+00  1.5015693395778301e-01 -2.6394059381097196e-04 0.0000000000000000e+00  1.5013025818974096e-01 -2.7062279118186393e-04 0.0000000000000000e+00  1.4976872377831923e-01 4.6323007690989736e-04 0.0000000000000000e+00  1.5009249914973635e-01 -1.9473331464322572e-04 0.0000000000000000e+00  1.5008292645012941e-01 -1.3305426517073394e-04 0.0000000000000000e+00  1.4988646292106381e-01 1.6797454470584086e-04 0.0000000000000000e+00  1.5000951241485830e-01 5.1254834469513875e-05 0.0000000000000000e+00  1.5009554019314822e-01 -2.4785040372999619e-04 0.0000000000000000e+00  1.4989309089805475e-01 2.4601890269211965e-04 0.0000000000000000e+00  1.5004295092316663e-01 -1.0654069654618108e-04 0.0000000000000000e+00  1.5001680018143859e-01 5.7270124839236304e-07 0.0000000000000000e+00  1.4997965072146813e-01 -2.1416330117313571e-05 0.0000000000000000e+00  1.4997874843811571e-01 1.2655527538552735e-04 0.0000000000000000e+00  1.5006361503232138e-01 -2.1600312884543629e-04 0.0000000000000000e+00  1.4992381676072461e-01 2.3428305999512649e-04 0.0000000000000000e+00  1.5006202183033837e-01 -2.0153654273114317e-04 0.0000000000000000e+00  1.4995591866614705e-01 1.7357386937658366e-04 0.0000000000000000e+00  1.5004076463256094e-01 -1.8539266302323876e-04 0.0000000000000000e+00  1.4994644828402082e-01 2.3088206980085492e-04 0.0000000000000000e+00  1.5007144137918546e-01 -2.7924765572286890e-04 0.0000000000000000e+00  1.4991676861419417e-01 3.0583969547549682e-04 0.0000000000000000e+00  1.5008459201095886e-01 -3.0507412900476571e-04 0.0000000000000000e+00  1.4992009732274705e-01 2.9106431451731790e-04 0.0000000000000000e+00  1.5007304566362226e-01 -2.7434746878581055e-04 0.0000000000000000e+00  1.4992871161762558e-01 2.6794482732895095e-04 0.0000000000000000e+00  1.5006750369480340e-01 -2.5716599608263788e-04 0.0000000000000000e+00  1.4992811071848117e-01 2.5360110150901772e-04 0.0000000000000000e+00  1.5006154604898750e-01 -2.2228944976359309e-04 0.0000000000000000e+00  1.4993068917308597e-01 2.0531566132561788e-04 0.0000000000000000e+00  1.5004505863203216e-01 -1.4433842640311644e-04 0.0000000000000000e+00  1.4993419649257300e-01 1.1982299941502054e-04 0.0000000000000000e+00  1.5002667902042582e-01 -4.9429700026800995e-05 0.0000000000000000e+00  1.4992777301493676e-01 0.0000000000000000e+00 0.0000000000000000e+00  1.4979722628578199e-01 0.0000000000000000e+00 -9.6959470442782754e-04  1.4961023671443199e-01 4.3144776268514047e-04 4.3144776268650277e-04  1.4974922414886688e-01 3.3268866099176489e-04 -5.5192234742726734e-04  1.4960558634221763e-01 2.1216084844835647e-04 3.1575857655133279e-04  1.4978061366566914e-01 2.0177817809236069e-04 -2.5867001230204422e-04  1.4968560792711136e-01 -1.0066369127001956e-04 3.3116229391298550e-04  1.4984637722921842e-01 -4.0923731365226310e-05 -1.7156074759623366e-04  1.4970274493314870e-01 -2.4764551986595655e-04 1.9902732980446995e-04  1.4976759677531390e-01 -1.3043658312913219e-05 -3.4842576243287993e-04  1.4957763147840419e-01 -6.3227048546334226e-05 -6.5600653340345843e-06  1.4961754746417821e-01 9.0797057145260629e-05 -4.1613871542341726e-04  1.4954594403275245e-01 -1.3592170773704036e-04 9.9785390910781088e-05  1.4976498298219065e-01 -2.3719624230607409e-04 -9.9628184944120174e-05  1.4985045042335371e-01 -6.1722351337666222e-04 3.8416409311434473e-04  1.5008867576142032e-01 -6.9170679279836357e-04 6.3447972084024757e-05  1.5013535928539815e-01 -7.2083354811545270e-04 3.0774082939547106e-04  1.5023270391255705e-01 -5.4398311289259170e-04 -1.4241436079314948e-05  1.5019399726038249e-01 -5.8714370151960438e-04 2.5686956415053153e-04  1.5032581728718616e-01 -5.5403140606323574e-04 1.6474718143538714e-04  1.5036917362587882e-01 -6.4578683944455941e-04 3.9155001621593154e-04  1.5042575273754225e-01 -5.4087393799842750e-04 1.4004618465056457e-04  1.5038220175992587e-01 -2.7697120356761089e-04 1.0660763120404687e-04  1.5035824279756957e-01 1.0244069593618161e-04 -9.0743149716442418e-05  1.5025565196870225e-01 2.2683498709007778e-04 -3.9464597388413334e-05  1.5023417027131847e-01 3.7286052310304095e-04 -9.8614772666566079e-05  1.5018240559977306e-01 5.4420240638487511e-04 -6.2047937061910919e-05  1.5010241303939317e-01 5.7536829271360339e-04 -1.1012344906728121e-04  1.5009341960824235e-01 3.9480286055213691e-04 2.1432028931416606e-05  1.5019139369114567e-01 2.5448182707570217e-04 1.1941525128927991e-04  1.5016484352794782e-01 1.9525434568255844e-04 1.0630363896897121e-04  1.5008391685050254e-01 2.5675368954369225e-04 4.8152894655301261e-05  1.5010650834050640e-01 2.5891335207485049e-04 1.2217146340371844e-04  1.5012089401670439e-01 1.3423635750069925e-05 7.5366470207874844e-05  1.5001909439906932e-01 -5.2217120455499313e-05 -1.1269069113028208e-04  1.4993639764552369e-01 3.3436976483778241e-04 -1.3911729107714992e-04  1.4995139167595656e-01 2.6902037274186599e-04 8.5409119941795423e-05  1.5006910976974044e-01 -4.2432267849511652e-04 2.1045607938702325e-04  1.5014760027302243e-01 -3.4428973918055271e-04 2.0214449781282806e-05  1.4995945770557301e-01 4.9328194045499170e-04 -2.3131238495086248e-04  1.4976779091351938e-01 3.9875691589735964e-04 -1.0537641991427376e-04  1.4998733251936339e-01 -3.5631764238866828e-04 2.4011708196242662e-04  1.5020734026710764e-01 -2.7290487101302020e-04 2.1579354389652088e-04  1.5000879218142360e-01 9.2448813847885358e-05 -6.6854970815379483e-05  1.4988684744512243e-01 -1.2378900294587059e-05 -8.4108832975857115e-05  1.5002051999251362e-01 1.4995085808940431e-04 -2.7817135201807850e-05  1.4998008559491607e-01 2.0789609144953190e-04 -9.7599452922353172e-05  1.4998431078057595e-01 -4.4324162119273444e-04 -7.0812285727282645e-06  1.5015816150063008e-01 -2.6952138859177540e-04 -5.6281992597704949e-05  1.4994104600224087e-01 6.9979119157373372e-04 -4.0210621011770682e-04  1.4975845711183969e-01 1.4115690920853664e-04 -1.8713705462138547e-04  1.5022695545255632e-01 -8.7639195623274069e-04 2.4014184374539864e-04  1.5024443354623415e-01 1.4148433906094118e-04 -3.0331233030199628e-04  1.4961392168999640e-01 8.8962567736635735e-04 -6.1404664974945697e-04  1.4991344173534757e-01 -4.5683841845521790e-04 2.8701870325280608e-04  1.5051329132527191e-01 -7.3719709951852632e-04 2.5434508386505911e-04  1.4983711561458263e-01 7.4849875153261392e-04 -7.7097846847353011e-04  1.4952417859641995e-01 4.2552254715206992e-04 -1.3189118598248395e-04  1.5040052224433939e-01 -8.5279218809170476e-04 7.7851364450295404e-04  1.5025433738350880e-01 -6.5352308068209920e-05 -3.0638678230788657e-04  1.4944322874318522e-01 8.4207374395644803e-04 -6.0474610003161794e-04  1.5005356161107866e-01 -3.1430258386195041e-04 7.0176339165035776e-04  1.5046704296792612e-01 -5.8691947825295317e-04 2.7921181379206148e-04  1.4968888443149947e-01 5.1489124954580564e-04 -7.3016025976045695e-04  1.4977226059965346e-01 2.7911926006472657e-04 2.0669012971480150e-04  1.5040784675145966e-01 -6.0531255066581199e-04 4.9953841862343670e-04  1.4992756750116173e-01 1.1384397599170536e-04 -5.0189223739068088e-04  1.4972573169570780e-01 4.1118359259488622e-04 -9.6616444915019782e-05  1.5023187731370821e-01 -3.0491961717496365e-04 4.6585406305438054e-04  1.5006179947547063e-01 -1.6655235756998096e-04 -2.4286897368802705e-04  1.4977269525509215e-01 3.6989300438297336e-04 -1.9207865861177901e-04  1.5012334315619041e-01 -1.3659064460670996e-04 3.3245248235061616e-04  1.5007289991566131e-01 -1.7229918638568534e-04 -1.0697935252332229e-04  1.4985907224255948e-01 2.0867094232856494e-04 -1.6874543248070114e-04  1.5004944248927848e-01 -1.4805380078918395e-06 2.1252916164042016e-04  1.5007081747452164e-01 -1.7980095478561817e-04 -4.2216314339489432e-05  1.4989920750557992e-01 1.6604912506092986e-04 -1.2769232037838132e-04  1.5004011094138894e-01 -2.4636202849265870e-05 1.4252109922067345e-04  1.5002974497741431e-01 -7.3526002872651905e-05 -3.1355540843300674e-05  1.4995625004999588e-01 4.4298664550035161e-05 -7.4201289450833924e-05  1.5000473452073165e-01 5.9077368727571110e-05 8.5625906475176098e-05  1.5004095704229267e-01 -1.3428850343075082e-04 -1.9567358649013151e-05  1.4994367960023325e-01 1.3347109640621501e-04 -4.9213700884572281e-05  1.5004081041172501e-01 -8.6754836787244398e-05 6.7099025967167872e-05  1.4998151642835067e-01 5.3036693114383357e-05 -3.7664855281462587e-05  1.5001077021716125e-01 -6.2578155239979938e-05 7.7533235650980953e-08  1.4997920831369979e-01 1.0175037447114075e-04 1.2192548929380644e-05  1.5003729112402589e-01 -1.3707457675202678e-04 5.7924968461685526e-06  1.4995229010813177e-01 1.4646557680340837e-04 -3.6444973368142237e-05  1.5004780114866340e-01 -1.3178396023186698e-04 5.9682634523251008e-05  1.4995895232655690e-01 1.0889784391931102e-04 -6.6778196170089440e-05  1.5003457749365037e-01 -9.3551527750490986e-05 6.3203455068032205e-05  1.4996930081934520e-01 8.6984531977158091e-05 -5.6665194753248617e-05  1.5003207544922284e-01 -8.8480420918373215e-05 5.7954726080807357e-05  1.4996942424410270e-01 8.1242123662471775e-05 -5.9879691852346443e-05  1.5003394753124774e-01 -7.6875126202702163e-05 7.2391703554836506e-05  1.4997581167151239e-01 5.1813756945640093e-05 -6.7177482692716835e-05  1.5003015301645528e-01 -4.8339010848394292e-05 7.9457525477234447e-05  1.4999100212038805e-01 1.5763975847391447e-05 -4.9590314413317835e-05  1.5002737955732887e-01 -3.0150069590426182e-05 6.8672910801984312e-05  1.5000925965656808e-01 9.5816127478616769e-06 -9.5816127488639558e-06  1.5002667902042632e-01 0.0000000000000000e+00 4.9429700026247185e-05  1.5079833675913101e-01 0.0000000000000000e+00 3.7361867299767689e-04  1.4974922414886688e-01 -5.5192234742783947e-04 3.3268866099185352e-04  1.5074777018955227e-01 -1.1796514023329926e-06 -1.1796514023224494e-06  1.4989738027683885e-01 -8.0506937382136931e-04 4.0377553603920520e-04  1.5061355389175610e-01 3.7338590826435490e-04 -3.0433524069664033e-04  1.4994407613452931e-01 -6.7912252569076457e-04 2.4404524293907397e-04  1.5045872936318913e-01 6.5485604138574563e-04 -5.0106571721380514e-04  1.4997586294594287e-01 -4.6072149124534674e-04 2.8540004635477001e-04  1.5044738463036214e-01 6.5213578530441869e-04 -2.5231673364353643e-04  1.5013346198986577e-01 -4.7060552856168040e-04 6.3183486326562853e-04  1.5055569345495456e-01 4.2030875800192776e-04 9.4667349048239849e-05  1.5028253237385231e-01 -3.5988034944126990e-04 6.9494510802565145e-04  1.5048830412541422e-01 5.3862076158693356e-04 -1.2000596694944692e-04  1.5009932975412044e-01 1.1514894763928379e-04 1.3076391648767231e-04  1.5016619316781893e-01 9.2855133609185422e-04 -5.4539633304502859e-04  1.4982578287474768e-01 4.9301712409186851e-04 -1.3828083408550415e-04  1.4990152311447044e-01 8.3010569207388749e-04 -5.1544918162454241e-04  1.4972075458107126e-01 4.1969026382793364e-04 -1.1577368374878458e-04  1.4979775536769860e-01 7.4255565765799598e-04 -5.1479922182411022e-04  1.4959809700402957e-01 4.8871830389058898e-04 -3.8284162545816695e-04  1.4966095712604074e-01 6.9895484281272467e-04 -5.8111921285891599e-04  1.4959826766496234e-01 3.5346969844029049e-04 -1.6374307518068513e-04  1.4968069232804113e-01 1.5148785558633378e-04 -1.4477920377928223e-04  1.4968271070154410e-01 -2.1103466717508200e-04 1.1379812141114868e-04  1.4978928677656991e-01 -2.1226392316748153e-04 6.1268270019334918e-05  1.4977860311107197e-01 -4.8015905273350720e-04 1.6247711843436264e-04  1.4987136108773397e-01 -5.7116957772283079e-04 1.3287097281152141e-04  1.4990682818266457e-01 -4.9796303415976771e-04 1.4473087275841006e-04  1.4984512401345848e-01 -2.8149856664502092e-04 -1.5833450853840306e-04  1.4978177164127635e-01 -2.2872257784897849e-04 -2.4906356220206170e-04  1.4988210607119606e-01 -2.2112706451433547e-04 -1.2985313923625217e-04  1.4990375296805317e-01 -3.0412361027742820e-04 -1.3253932680944465e-04  1.4985933828397591e-01 -1.9576360107846047e-04 -2.6661678493037131e-04  1.4992650207701869e-01 4.4144926757571553e-05 -2.4906110789750399e-05  1.5003809373810423e-01 -9.7480550652216067e-05 2.5490358902623600e-04  1.5004022004813322e-01 -3.8958223545683223e-04 1.1998119183934723e-04  1.4998619761360502e-01 5.4371132172861419e-05 -1.9741242063069773e-04  1.4989589012930532e-01 5.1248078874687126e-04 -2.2802656878181515e-04  1.4992198463819967e-01 -9.6636725708240979e-05 8.1800797571481687e-05  1.5014617936374042e-01 -6.0572614892261134e-04 3.0511610241975949e-04  1.5016658939435532e-01 2.1712896280000038e-05 -8.4047083142860655e-05  1.4988794139497388e-01 4.2549931747095949e-04 -5.8152108176213720e-04  1.4988963053130458e-01 1.8384794269350888e-05 -3.4455404290187813e-04  1.5014539748295239e-01 -5.5115995400708084e-05 6.0452590156482626e-05  1.5011915517056937e-01 1.1948594490921135e-06 -4.3088176132130859e-06  1.5003397595921653e-01 -2.9562658328551131e-04 4.9359435900129902e-05  1.5010378602868910e-01 9.0569819144862597e-05 1.5158401989410312e-04  1.4997202752067962e-01 5.5968714241338838e-04 -5.4939269126627705e-05  1.4993032160363570e-01 -2.8877260975047962e-04 3.0793141823036863e-04  1.5022515765495922e-01 -6.6154196087785165e-04 7.9958164272051608e-04  1.5004877539352635e-01 5.6555904320224201e-04 3.6956974053955641e-05  1.4966439057993172e-01 5.3114824385504548e-04 -2.4490051539073502e-04  1.5009606592571423e-01 -7.8621242992218780e-04 9.7659501529875513e-04  1.5037358130497397e-01 -2.6832307710247290e-04 6.2528693660322322e-04  1.4971371426258501e-01 9.1254667200543489e-04 -8.6677805359352384e-04  1.4981555376833347e-01 -1.2135281908695515e-04 2.3867806771076241e-04  1.5054516274297208e-01 -7.9736862038289481e-04 1.1791107076860733e-03  1.5008461829025577e-01 4.1029291187314479e-04 -8.2639969888397989e-04  1.4958207742996454e-01 6.1019170008014105e-04 -9.6510019751832753e-04  1.5035806408404576e-01 -6.6895109379573874e-04 1.1138534010011983e-03  1.5033917047978360e-01 -2.1453919425198405e-04 -4.2386576037282168e-05  1.4956611208317838e-01 6.5287912871235131e-04 -1.3950505214198352e-03  1.4995977412507180e-01 -5.0295933122307855e-05 5.9069303563132947e-04  1.5040552991411982e-01 -5.7890702556972161e-04 8.0908921000574774e-04  1.4974201287570021e-01 3.9226069818401751e-04 -1.0228304987864394e-03  1.4982502887955829e-01 2.2134290620008076e-04 5.0202743636562794e-05  1.5030322803682225e-01 -3.9267442320507610e-04 8.4849450922374117e-04  1.4995335995963327e-01 -1.4632627144838931e-05 -5.8362720249981962e-04  1.4978155392415182e-01 3.8153169558568909e-04 -2.9944845084600176e-04  1.5020930894932596e-01 -2.8763135348127626e-04 6.9147885894074322e-04  1.4999416341845292e-01 -4.5471171590676115e-05 -3.1190246817003315e-04  1.4986531864024419e-01 1.9254925672739813e-04 -2.6923539224697464e-04  1.5009035950298705e-01 -4.0394359075647024e-05 4.2864805702412620e-04  1.5004715993672119e-01 -1.8373062372724949e-04 -1.1596493050823249e-04  1.4987443932441744e-01 2.4436041000552508e-04 -2.5590165516677370e-04  1.5009234555165374e-01 -1.3333137561197082e-04 3.2917560210651007e-04  1.4998837698110978e-01 1.1207265966334449e-05 -1.1798038396278677e-04  1.4997067293031172e-01 -5.1400470870096267e-06 -1.1324265613872332e-04  1.5000354086888198e-01 1.0300831766388684e-04 1.563499