<?xml version="1.0"?>
<VTKFile type="UnstructuredGrid"  version="0.1"  >
<UnstructuredGrid>
<Piece  NumberOfPoints="10201" NumberOfCells="20000">
<Points>
<DataArray  type="Float64"  NumberOfComponents="3"  format="ascii">-5 -5 0  -4.9 -5 0  -4.8 -5 0  -4.7 -5 0  -4.6 -5 0  -4.5 -5 0  -4.4 -5 0  -4.3 -5 0  -4.2 -5 0  -4.1 -5 0  -4 -5 0  -3.9 -5 0  -3.8 -5 0  -3.7 -5 0  -3.6 -5 0  -3.5 -5 0  -3.4 -5 0  -3.3 -5 0  -3.2 -5 0  -3.1 -5 0  -3 -5 0  -2.9 -5 0  -2.8 -5 0  -2.7 -5 0  -2.6 -5 0  -2.5 -5 0  -2.4 -5 0  -2.3 -5 0  -2.2 -5 0  -2.1 -5 0  -2 -5 0  -1.9 -5 0  -1.8 -5 0  -1.7 -5 0  -1.6 -5 0  -1.5 -5 0  -1.4 -5 0  -1.3 -5 0  -1.2 -5 0  -1.1 -5 0  -1 -5 0  -0.9000000000000004 -5 0  -0.7999999999999998 -5 0  -0.7000000000000002 -5 0  -0.5999999999999996 -5 0  -0.5 -5 0  -0.4000000000000004 -5 0  -0.2999999999999998 -5 0  -0.2000000000000002 -5 0  -0.09999999999999964 -5 0  0 -5 0  0.09999999999999964 -5 0  0.2000000000000002 -5 0  0.2999999999999998 -5 0  0.4000000000000004 -5 0  0.5 -5 0  0.5999999999999996 -5 0  0.7000000000000002 -5 0  0.7999999999999998 -5 0  0.9000000000000004 -5 0  1 -5 0  1.1 -5 0  1.2 -5 0  1.3 -5 0  1.4 -5 0  1.5 -5 0  1.6 -5 0  1.7 -5 0  1.8 -5 0  1.9 -5 0  2 -5 0  2.1 -5 0  2.2 -5 0  2.3 -5 0  2.4 -5 0  2.5 -5 0  2.6 -5 0  2.7 -5 0  2.8 -5 0  2.9 -5 0  3 -5 0  3.1 -5 0  3.199999999999999 -5 0  3.300000000000001 -5 0  3.4 -5 0  3.5 -5 0  3.6 -5 0  3.699999999999999 -5 0  3.800000000000001 -5 0  3.9 -5 0  4 -5 0  4.1 -5 0  4.199999999999999 -5 0  4.300000000000001 -5 0  4.4 -5 0  4.5 -5 0  4.6 -5 0  4.699999999999999 -5 0  4.800000000000001 -5 0  4.9 -5 0  5 -5 0  -5 -4.9 0  -4.9 -4.9 0  -4.8 -4.9 0  -4.7 -4.9 0  -4.6 -4.9 0  -4.5 -4.9 0  -4.4 -4.9 0  -4.3 -4.9 0  -4.2 -4.9 0  -4.1 -4.9 0  -4 -4.9 0  -3.9 -4.9 0  -3.8 -4.9 0  -3.7 -4.9 0  -3.6 -4.9 0  -3.5 -4.9 0  -3.4 -4.9 0  -3.3 -4.9 0  -3.2 -4.9 0  -3.1 -4.9 0  -3 -4.9 0  -2.9 -4.9 0  -2.8 -4.9 0  -2.7 -4.9 0  -2.6 -4.9 0  -2.5 -4.9 0  -2.4 -4.9 0  -2.3 -4.9 0  -2.2 -4.9 0  -2.1 -4.9 0  -2 -4.9 0  -1.9 -4.9 0  -1.8 -4.9 0  -1.7 -4.9 0  -1.6 -4.9 0  -1.5 -4.9 0  -1.4 -4.9 0  -1.3 -4.9 0  -1.2 -4.9 0  -1.1 -4.9 0  -1 -4.9 0  -0.9000000000000004 -4.9 0  -0.7999999999999998 -4.9 0  -0.7000000000000002 -4.9 0  -0.5999999999999996 -4.9 0  -0.5 -4.9 0  -0.4000000000000004 -4.9 0  -0.2999999999999998 -4.9 0  -0.2000000000000002 -4.9 0  -0.09999999999999964 -4.9 0  0 -4.9 0  0.09999999999999964 -4.9 0  0.2000000000000002 -4.9 0  0.2999999999999998 -4.9 0  0.4000000000000004 -4.9 0  0.5 -4.9 0  0.5999999999999996 -4.9 0  0.7000000000000002 -4.9 0  0.7999999999999998 -4.9 0  0.9000000000000004 -4.9 0  1 -4.9 0  1.1 -4.9 0  1.2 -4.9 0  1.3 -4.9 0  1.4 -4.9 0  1.5 -4.9 0  1.6 -4.9 0  1.7 -4.9 0  1.8 -4.9 0  1.9 -4.9 0  2 -4.9 0  2.1 -4.9 0  2.2 -4.9 0  2.3 -4.9 0  2.4 -4.9 0  2.5 -4.9 0  2.6 -4.9 0  2.7 -4.9 0  2.8 -4.9 0  2.9 -4.9 0  3 -4.9 0  3.1 -4.9 0  3.199999999999999 -4.9 0  3.300000000000001 -4.9 0  3.4 -4.9 0  3.5 -4.9 0  3.6 -4.9 0  3.699999999999999 -4.9 0  3.800000000000001 -4.9 0  3.9 -4.9 0  4 -4.9 0  4.1 -4.9 0  4.199999999999999 -4.9 0  4.300000000000001 -4.9 0  4.4 -4.9 0  4.5 -4.9 0  4.6 -4.9 0  4.699999999999999 -4.9 0  4.800000000000001 -4.9 0  4.9 -4.9 0  5 -4.9 0  -5 -4.8 0  -4.9 -4.8 0  -4.8 -4.8 0  -4.7 -4.8 0  -4.6 -4.8 0  -4.5 -4.8 0  -4.4 -4.8 0  -4.3 -4.8 0  -4.2 -4.8 0  -4.1 -4.8 0  -4 -4.8 0  -3.9 -4.8 0  -3.8 -4.8 0  -3.7 -4.8 0  -3.6 -4.8 0  -3.5 -4.8 0  -3.4 -4.8 0  -3.3 -4.8 0  -3.2 -4.8 0  -3.1 -4.8 0  -3 -4.8 0  -2.9 -4.8 0  -2.8 -4.8 0  -2.7 -4.8 0  -2.6 -4.8 0  -2.5 -4.8 0  -2.4 -4.8 0  -2.3 -4.8 0  -2.2 -4.8 0  -2.1 -4.8 0  -2 -4.8 0  -1.9 -4.8 0  -1.8 -4.8 0  -1.7 -4.8 0  -1.6 -4.8 0  -1.5 -4.8 0  -1.4 -4.8 0  -1.3 -4.8 0  -1.2 -4.8 0  -1.1 -4.8 0  -1 -4.8 0  -0.9000000000000004 -4.8 0  -0.7999999999999998 -4.8 0  -0.7000000000000002 -4.8 0  -0.5999999999999996 -4.8 0  -0.5 -4.8 0  -0.4000000000000004 -4.8 0  -0.2999999999999998 -4.8 0  -0.2000000000000002 -4.8 0  -0.09999999999999964 -4.8 0  0 -4.8 0  0.09999999999999964 -4.8 0  0.2000000000000002 -4.8 0  0.2999999999999998 -4.8 0  0.4000000000000004 -4.8 0  0.5 -4.8 0  0.5999999999999996 -4.8 0  0.7000000000000002 -4.8 0  0.7999999999999998 -4.8 0  0.9000000000000004 -4.8 0  1 -4.8 0  1.1 -4.8 0  1.2 -4.8 0  1.3 -4.8 0  1.4 -4.8 0  1.5 -4.8 0  1.6 -4.8 0  1.7 -4.8 0  1.8 -4.8 0  1.9 -4.8 0  2 -4.8 0  2.1 -4.8 0  2.2 -4.8 0  2.3 -4.8 0  2.4 -4.8 0  2.5 -4.8 0  2.6 -4.8 0  2.7 -4.8 0  2.8 -4.8 0  2.9 -4.8 0  3 -4.8 0  3.1 -4.8 0  3.199999999999999 -4.8 0  3.300000000000001 -4.8 0  3.4 -4.8 0  3.5 -4.8 0  3.6 -4.8 0  3.699999999999999 -4.8 0  3.800000000000001 -4.8 0  3.9 -4.8 0  4 -4.8 0  4.1 -4.8 0  4.199999999999999 -4.8 0  4.300000000000001 -4.8 0  4.4 -4.8 0  4.5 -4.8 0  4.6 -4.8 0  4.699999999999999 -4.8 0  4.800000000000001 -4.8 0  4.9 -4.8 0  5 -4.8 0  -5 -4.7 0  -4.9 -4.7 0  -4.8 -4.7 0  -4.7 -4.7 0  -4.6 -4.7 0  -4.5 -4.7 0  -4.4 -4.7 0  -4.3 -4.7 0  -4.2 -4.7 0  -4.1 -4.7 0  -4 -4.7 0  -3.9 -4.7 0  -3.8 -4.7 0  -3.7 -4.7 0  -3.6 -4.7 0  -3.5 -4.7 0  -3.4 -4.7 0  -3.3 -4.7 0  -3.2 -4.7 0  -3.1 -4.7 0  -3 -4.7 0  -2.9 -4.7 0  -2.8 -4.7 0  -2.7 -4.7 0  -2.6 -4.7 0  -2.5 -4.7 0  -2.4 -4.7 0  -2.3 -4.7 0  -2.2 -4.7 0  -2.1 -4.7 0  -2 -4.7 0  -1.9 -4.7 0  -1.8 -4.7 0  -1.7 -4.7 0  -1.6 -4.7 0  -1.5 -4.7 0  -1.4 -4.7 0  -1.3 -4.7 0  -1.2 -4.7 0  -1.1 -4.7 0  -1 -4.7 0  -0.9000000000000004 -4.7 0  -0.7999999999999998 -4.7 0  -0.7000000000000002 -4.7 0  -0.5999999999999996 -4.7 0  -0.5 -4.7 0  -0.4000000000000004 -4.7 0  -0.2999999999999998 -4.7 0  -0.2000000000000002 -4.7 0  -0.09999999999999964 -4.7 0  0 -4.7 0  0.09999999999999964 -4.7 0  0.2000000000000002 -4.7 0  0.2999999999999998 -4.7 0  0.4000000000000004 -4.7 0  0.5 -4.7 0  0.5999999999999996 -4.7 0  0.7000000000000002 -4.7 0  0.7999999999999998 -4.7 0  0.9000000000000004 -4.7 0  1 -4.7 0  1.1 -4.7 0  1.2 -4.7 0  1.3 -4.7 0  1.4 -4.7 0  1.5 -4.7 0  1.6 -4.7 0  1.7 -4.7 0  1.8 -4.7 0  1.9 -4.7 0  2 -4.7 0  2.1 -4.7 0  2.2 -4.7 0  2.3 -4.7 0  2.4 -4.7 0  2.5 -4.7 0  2.6 -4.7 0  2.7 -4.7 0  2.8 -4.7 0  2.9 -4.7 0  3 -4.7 0  3.1 -4.7 0  3.199999999999999 -4.7 0  3.300000000000001 -4.7 0  3.4 -4.7 0  3.5 -4.7 0  3.6 -4.7 0  3.699999999999999 -4.7 0  3.800000000000001 -4.7 0  3.9 -4.7 0  4 -4.7 0  4.1 -4.7 0  4.199999999999999 -4.7 0  4.300000000000001 -4.7 0  4.4 -4.7 0  4.5 -4.7 0  4.6 -4.7 0  4.699999999999999 -4.7 0  4.800000000000001 -4.7 0  4.9 -4.7 0  5 -4.7 0  -5 -4.6 0  -4.9 -4.6 0  -4.8 -4.6 0  -4.7 -4.6 0  -4.6 -4.6 0  -4.5 -4.6 0  -4.4 -4.6 0  -4.3 -4.6 0  -4.2 -4.6 0  -4.1 -4.6 0  -4 -4.6 0  -3.9 -4.6 0  -3.8 -4.6 0  -3.7 -4.6 0  -3.6 -4.6 0  -3.5 -4.6 0  -3.4 -4.6 0  -3.3 -4.6 0  -3.2 -4.6 0  -3.1 -4.6 0  -3 -4.6 0  -2.9 -4.6 0  -2.8 -4.6 0  -2.7 -4.6 0  -2.6 -4.6 0  -2.5 -4.6 0  -2.4 -4.6 0  -2.3 -4.6 0  -2.2 -4.6 0  -2.1 -4.6 0  -2 -4.6 0  -1.9 -4.6 0  -1.8 -4.6 0  -1.7 -4.6 0  -1.6 -4.6 0  -1.5 -4.6 0  -1.4 -4.6 0  -1.3 -4.6 0  -1.2 -4.6 0  -1.1 -4.6 0  -1 -4.6 0  -0.9000000000000004 -4.6 0  -0.7999999999999998 -4.6 0  -0.7000000000000002 -4.6 0  -0.5999999999999996 -4.6 0  -0.5 -4.6 0  -0.4000000000000004 -4.6 0  -0.2999999999999998 -4.6 0  -0.2000000000000002 -4.6 0  -0.09999999999999964 -4.6 0  0 -4.6 0  0.09999999999999964 -4.6 0  0.2000000000000002 -4.6 0  0.2999999999999998 -4.6 0  0.4000000000000004 -4.6 0  0.5 -4.6 0  0.5999999999999996 -4.6 0  0.7000000000000002 -4.6 0  0.7999999999999998 -4.6 0  0.9000000000000004 -4.6 0  1 -4.6 0  1.1 -4.6 0  1.2 -4.6 0  1.3 -4.6 0  1.4 -4.6 0  1.5 -4.6 0  1.6 -4.6 0  1.7 -4.6 0  1.8 -4.6 0  1.9 -4.6 0  2 -4.6 0  2.1 -4.6 0  2.2 -4.6 0  2.3 -4.6 0  2.4 -4.6 0  2.5 -4.6 0  2.6 -4.6 0  2.7 -4.6 0  2.8 -4.6 0  2.9 -4.6 0  3 -4.6 0  3.1 -4.6 0  3.199999999999999 -4.6 0  3.300000000000001 -4.6 0  3.4 -4.6 0  3.5 -4.6 0  3.6 -4.6 0  3.699999999999999 -4.6 0  3.800000000000001 -4.6 0  3.9 -4.6 0  4 -4.6 0  4.1 -4.6 0  4.199999999999999 -4.6 0  4.300000000000001 -4.6 0  4.4 -4.6 0  4.5 -4.6 0  4.6 -4.6 0  4.699999999999999 -4.6 0  4.800000000000001 -4.6 0  4.9 -4.6 0  5 -4.6 0  -5 -4.5 0  -4.9 -4.5 0  -4.8 -4.5 0  -4.7 -4.5 0  -4.6 -4.5 0  -4.5 -4.5 0  -4.4 -4.5 0  -4.3 -4.5 0  -4.2 -4.5 0  -4.1 -4.5 0  -4 -4.5 0  -3.9 -4.5 0  -3.8 -4.5 0  -3.7 -4.5 0  -3.6 -4.5 0  -3.5 -4.5 0  -3.4 -4.5 0  -3.3 -4.5 0  -3.2 -4.5 0  -3.1 -4.5 0  -3 -4.5 0  -2.9 -4.5 0  -2.8 -4.5 0  -2.7 -4.5 0  -2.6 -4.5 0  -2.5 -4.5 0  -2.4 -4.5 0  -2.3 -4.5 0  -2.2 -4.5 0  -2.1 -4.5 0  -2 -4.5 0  -1.9 -4.5 0  -1.8 -4.5 0  -1.7 -4.5 0  -1.6 -4.5 0  -1.5 -4.5 0  -1.4 -4.5 0  -1.3 -4.5 0  -1.2 -4.5 0  -1.1 -4.5 0  -1 -4.5 0  -0.9000000000000004 -4.5 0  -0.7999999999999998 -4.5 0  -0.7000000000000002 -4.5 0  -0.5999999999999996 -4.5 0  -0.5 -4.5 0  -0.4000000000000004 -4.5 0  -0.2999999999999998 -4.5 0  -0.2000000000000002 -4.5 0  -0.09999999999999964 -4.5 0  0 -4.5 0  0.09999999999999964 -4.5 0  0.2000000000000002 -4.5 0  0.2999999999999998 -4.5 0  0.4000000000000004 -4.5 0  0.5 -4.5 0  0.5999999999999996 -4.5 0  0.7000000000000002 -4.5 0  0.7999999999999998 -4.5 0  0.9000000000000004 -4.5 0  1 -4.5 0  1.1 -4.5 0  1.2 -4.5 0  1.3 -4.5 0  1.4 -4.5 0  1.5 -4.5 0  1.6 -4.5 0  1.7 -4.5 0  1.8 -4.5 0  1.9 -4.5 0  2 -4.5 0  2.1 -4.5 0  2.2 -4.5 0  2.3 -4.5 0  2.4 -4.5 0  2.5 -4.5 0  2.6 -4.5 0  2.7 -4.5 0  2.8 -4.5 0  2.9 -4.5 0  3 -4.5 0  3.1 -4.5 0  3.199999999999999 -4.5 0  3.300000000000001 -4.5 0  3.4 -4.5 0  3.5 -4.5 0  3.6 -4.5 0  3.699999999999999 -4.5 0  3.800000000000001 -4.5 0  3.9 -4.5 0  4 -4.5 0  4.1 -4.5 0  4.199999999999999 -4.5 0  4.300000000000001 -4.5 0  4.4 -4.5 0  4.5 -4.5 0  4.6 -4.5 0  4.699999999999999 -4.5 0  4.800000000000001 -4.5 0  4.9 -4.5 0  5 -4.5 0  -5 -4.4 0  -4.9 -4.4 0  -4.8 -4.4 0  -4.7 -4.4 0  -4.6 -4.4 0  -4.5 -4.4 0  -4.4 -4.4 0  -4.3 -4.4 0  -4.2 -4.4 0  -4.1 -4.4 0  -4 -4.4 0  -3.9 -4.4 0  -3.8 -4.4 0  -3.7 -4.4 0  -3.6 -4.4 0  -3.5 -4.4 0  -3.4 -4.4 0  -3.3 -4.4 0  -3.2 -4.4 0  -3.1 -4.4 0  -3 -4.4 0  -2.9 -4.4 0  -2.8 -4.4 0  -2.7 -4.4 0  -2.6 -4.4 0  -2.5 -4.4 0  -2.4 -4.4 0  -2.3 -4.4 0  -2.2 -4.4 0  -2.1 -4.4 0  -2 -4.4 0  -1.9 -4.4 0  -1.8 -4.
[...]
<PointData  Vectors="f_17"> 
<DataArray  type="Float64"  Name="f_17"  NumberOfComponents="3" format="ascii">1.5056007504956515e-01 0.0000000000000000e+00 0.0000000000000000e+00  1.4961382013583602e-01 4.5381544481748394e-04 0.0000000000000000e+00  1.5035960180326646e-01 -3.0724007321552302e-04 0.0000000000000000e+00  1.4945186390895490e-01 5.6466077829723290e-04 0.0000000000000000e+00  1.5029029221378049e-01 -3.0755095969840687e-04 0.0000000000000000e+00  1.4980910714952653e-01 -2.6044485019361693e-04 0.0000000000000000e+00  1.5059674000794188e-01 -6.2659191242014261e-04 0.0000000000000000e+00  1.5033803213666272e-01 -9.5515186688620605e-04 0.0000000000000000e+00  1.5074972571681136e-01 -9.7005932200293815e-05 0.0000000000000000e+00  1.5023608406590208e-01 -2.4442192070483977e-04 0.0000000000000000e+00  1.5033425038993339e-01 1.5733991680167904e-03 0.0000000000000000e+00  1.4977200778025757e-01 1.0445170288254941e-03 0.0000000000000000e+00  1.4994084304776997e-01 2.2065399966796450e-03 0.0000000000000000e+00  1.4966934368835069e-01 9.1386380657272409e-04 0.0000000000000000e+00  1.4996594077496886e-01 1.7641109120117144e-03 0.0000000000000000e+00  1.4954297212239231e-01 5.8507614940164071e-04 0.0000000000000000e+00  1.4967521867160136e-01 1.6210589979037018e-03 0.0000000000000000e+00  1.4940011800383426e-01 6.2703886765254813e-04 0.0000000000000000e+00  1.4971646933024829e-01 8.3437322713995302e-04 0.0000000000000000e+00  1.4979485096106235e-01 -4.4631292950460380e-04 0.0000000000000000e+00  1.5023287294867774e-01 -1.1173027931280755e-04 0.0000000000000000e+00  1.5009674977089155e-01 -7.1613968567968748e-04 0.0000000000000000e+00  1.5018233590608107e-01 -2.8753543863188819e-04 0.0000000000000000e+00  1.5010237699728873e-01 -5.7962843406812845e-04 0.0000000000000000e+00  1.5005342207437880e-01 -3.3794480392326462e-04 0.0000000000000000e+00  1.4974324023454294e-01 -2.7126714749361411e-04 0.0000000000000000e+00  1.4962367839145749e-01 3.3142434395122696e-04 0.0000000000000000e+00  1.4946510295605236e-01 -7.9652623262691636e-05 0.0000000000000000e+00  1.4959713948668835e-01 -5.5551756992929001e-04 0.0000000000000000e+00  1.4979009992050410e-01 -5.6396401726295107e-04 0.0000000000000000e+00  1.4976098314588251e-01 -3.2023697039262905e-04 0.0000000000000000e+00  1.4972452903933486e-01 -7.7665735693359492e-04 0.0000000000000000e+00  1.5009092460413237e-01 -7.4476777722747012e-04 0.0000000000000000e+00  1.5004709482498629e-01 -2.5506677213015005e-05 0.0000000000000000e+00  1.4957413881079437e-01 4.4329040745267972e-04 0.0000000000000000e+00  1.4978765468850228e-01 7.7067831096688227e-05 0.0000000000000000e+00  1.5043985753387512e-01 -6.6668823628604024e-04 0.0000000000000000e+00  1.5034190831177680e-01 -8.8255075759585840e-04 0.0000000000000000e+00  1.4990713765231109e-01 2.9282867468110062e-04 0.0000000000000000e+00  1.4982436717558412e-01 1.2814661792658897e-03 0.0000000000000000e+00  1.4983120389464805e-01 1.5822526388457417e-04 0.0000000000000000e+00  1.4986625976922890e-01 -1.1447115400657329e-03 0.0000000000000000e+00  1.4982445731791896e-01 -2.1860067361551545e-04 0.0000000000000000e+00  1.4929164230665359e-01 7.6449505353030835e-04 0.0000000000000000e+00  1.4887873914615396e-01 2.7216149693185053e-04 0.0000000000000000e+00  1.4919648651688311e-01 1.0511524238143346e-04 0.0000000000000000e+00  1.4945857681395311e-01 1.5230669396795452e-05 0.0000000000000000e+00  1.4942467534260195e-01 -5.9659334336883973e-04 0.0000000000000000e+00  1.4955211308394981e-01 4.9288091070974049e-04 0.0000000000000000e+00  1.4969197296714609e-01 1.1754620473213005e-03 0.0000000000000000e+00  1.4993665771370196e-01 -9.3368161601505831e-04 0.0000000000000000e+00  1.5038677790856853e-01 -1.1185562259719110e-03 0.0000000000000000e+00  1.4999460996601258e-01 1.7417807276137733e-03 0.0000000000000000e+00  1.4956455540378638e-01 4.1974114341584257e-04 0.0000000000000000e+00  1.5027195896339601e-01 -2.2145028526494126e-03 0.0000000000000000e+00  1.5010399479940098e-01 3.6580863560383564e-04 0.0000000000000000e+00  1.4864244494378587e-01 2.0779091364735128e-03 0.0000000000000000e+00  1.4925568013804272e-01 -1.7599559701057677e-03 0.0000000000000000e+00  1.5013804981055953e-01 -1.5428576680519153e-03 0.0000000000000000e+00  1.4857317409649667e-01 2.1523562335173203e-03 0.0000000000000000e+00  1.4852175177909260e-01 3.5856874429980676e-04 0.0000000000000000e+00  1.5069512123554449e-01 -2.5147271450914922e-03 0.0000000000000000e+00  1.4993739053542879e-01 9.3100994610995124e-04 0.0000000000000000e+00  1.4892208339863694e-01 1.7713420070932036e-03 0.0000000000000000e+00  1.5080740235872828e-01 -1.6557171388751728e-03 0.0000000000000000e+00  1.5081163046706828e-01 -7.4051896637031538e-04 0.0000000000000000e+00  1.4901437719483190e-01 1.9899462756626089e-03 0.0000000000000000e+00  1.5010917738057653e-01 -5.8478700362749904e-04 0.0000000000000000e+00  1.5072034618521232e-01 -1.1798666234584347e-03 0.0000000000000000e+00  1.4937187384455425e-01 1.1432148457313994e-03 0.0000000000000000e+00  1.4984107772992744e-01 2.9041536901142046e-04 0.0000000000000000e+00  1.5064483034946191e-01 -1.2416090365742957e-03 0.0000000000000000e+00  1.4959676439173550e-01 7.9647452723780184e-04 0.0000000000000000e+00  1.4985451240863487e-01 2.4361770264426185e-04 0.0000000000000000e+00  1.5039017019139600e-01 -6.3636508729396574e-04 0.0000000000000000e+00  1.4983678516309126e-01 1.0459710938122274e-04 0.0000000000000000e+00  1.4978062972894729e-01 6.6059132681978519e-04 0.0000000000000000e+00  1.5038384405272984e-01 -9.2594261949129845e-04 0.0000000000000000e+00  1.4974465421419153e-01 6.2854507470864562e-04 0.0000000000000000e+00  1.5004041255049250e-01 -2.4361425723121101e-04 0.0000000000000000e+00  1.5003561531669460e-01 2.1278868483380790e-04 0.0000000000000000e+00  1.5007213091559143e-01 -5.5229840296370299e-04 0.0000000000000000e+00  1.4975641502280956e-01 9.5949942039014657e-04 0.0000000000000000e+00  1.5034326639435716e-01 -1.1599166003550352e-03 0.0000000000000000e+00  1.4966559392976295e-01 1.1307321537351238e-03 0.0000000000000000e+00  1.5027449581062541e-01 -1.0280389202160871e-03 0.0000000000000000e+00  1.4975953929155117e-01 1.0217042988629730e-03 0.0000000000000000e+00  1.5026003895169582e-01 -1.1344425037436942e-03 0.0000000000000000e+00  1.4968517313896978e-01 1.2961860077347232e-03 0.0000000000000000e+00  1.5035557562916543e-01 -1.3858861041039670e-03 0.0000000000000000e+00  1.4962508531308738e-01 1.3992290465255019e-03 0.0000000000000000e+00  1.5034630071825700e-01 -1.3019377883723032e-03 0.0000000000000000e+00  1.4966172740194200e-01 1.2399575245902481e-03 0.0000000000000000e+00  1.5028178011521828e-01 -1.1010470586854766e-03 0.0000000000000000e+00  1.4968052039591553e-01 1.1033284741459642e-03 0.0000000000000000e+00  1.5023905821993588e-01 -9.2074200852565815e-04 0.0000000000000000e+00  1.4965346248690470e-01 9.4921512267419502e-04 0.0000000000000000e+00  1.5020156094131737e-01 -6.1642771098351860e-04 0.0000000000000000e+00  1.4959765231878985e-01 6.2448066924942103e-04 0.0000000000000000e+00  1.5015665287220806e-01 -1.9291469988144097e-04 0.0000000000000000e+00  1.4954038814087880e-01 0.0000000000000000e+00 0.0000000000000000e+00  1.4961382013583599e-01 0.0000000000000000e+00 4.5381544481713928e-04  1.5009190884684190e-01 8.1355273086069590e-04 8.1355273086100674e-04  1.4987962340898611e-01 -9.9227760513125019e-04 -7.4258686875804762e-05  1.5022900862398930e-01 7.8737466403211865e-04 9.8403421589989817e-04  1.4993578257777523e-01 -9.0650612963287915e-04 -3.4918989153616729e-04  1.5006927346449433e-01 9.7263149083902834e-04 3.9796979237279761e-04  1.4965222012523519e-01 -7.4630306053100528e-05 -6.5576954672851191e-04  1.4964012945199362e-01 1.2199483410529730e-03 -1.5584092357679683e-05  1.4937727150305374e-01 1.4774632409744631e-04 -4.6904565558638061e-04  1.4959003936118942e-01 4.5347149434882690e-04 3.2002588737738629e-04  1.4967404060547074e-01 -8.3801459840208016e-04 9.2821935126011047e-05  1.4994628563264623e-01 -1.0973979288191290e-03 5.8637402769328470e-04  1.5010896099860571e-01 -1.6875403907522742e-03 4.5573115995686017e-05  1.5018169106809423e-01 -1.4186867235001918e-03 3.2004355582737539e-04  1.5017019396334680e-01 -1.4799417501700025e-03 -2.2316280144431657e-04  1.5022604155859803e-01 -1.1756572003228970e-03 2.7563216647334221e-04  1.5040327405692130e-01 -1.1359134056248030e-03 -8.4889376847008263e-05  1.5039396497303442e-01 -1.0627188931927299e-03 1.8500412515067341e-04  1.5041977149338573e-01 -7.1529066928212467e-04 -4.9878664982223148e-04  1.5021773720534637e-01 -1.3698477032067499e-04 -3.6364606617885604e-04  1.5000162258124547e-01 1.9623788696598589e-04 -7.9644907449417783e-04  1.4981692800303875e-01 3.3490157175852499e-04 -3.9829195973317645e-04  1.4990269882790141e-01 4.6708925275160373e-04 -4.9764105353980567e-04  1.4984910498198636e-01 4.0638071400124091e-04 -1.7963647317849666e-04  1.4993330540479502e-01 3.7038278259323961e-04 -2.1500445923800096e-04  1.5012779245389402e-01 3.1737189473096173e-04 2.7569267309464991e-04  1.5033814292443007e-01 -3.5596203799230038e-05 3.6880503970675773e-04  1.5043917724045766e-01 -1.7365589932720601e-04 4.5267562013283417e-04  1.5050526012771845e-01 3.7682643199202334e-04 2.1214188849363999e-04  1.5028064121254675e-01 6.3671388010514763e-04 8.7446938156676167e-05  1.5016799459655850e-01 4.3579977767653830e-04 -2.2976215927695813e-05  1.5030114991689569e-01 5.4713562565761396e-04 2.1966174839168892e-05  1.5017393119691536e-01 7.4722085817210200e-04 -2.1827004981625416e-04  1.4990527600422110e-01 2.9965314010641338e-04 -1.3844916908758911e-04  1.5021861022034630e-01 -1.3215696553110911e-04 3.0114683023446296e-04  1.5042046521593805e-01 -1.0318552999877316e-04 3.0183171337500037e-04  1.4986120492776120e-01 1.4342739066838263e-04 -6.1752412938330774e-05  1.4947772552591884e-01 6.3588300437243694e-04 3.8946099969793229e-04  1.4969427106261021e-01 5.7802198524857138e-04 1.0964053904372237e-03  1.4978483721626021e-01 -6.1953657162858232e-04 9.1230698030426516e-04  1.4983000163830559e-01 -8.0685229951865027e-04 3.2044298976371992e-04  1.5004026517346980e-01 6.8126888267597393e-04 -1.1873263512969133e-04  1.5021291855322480e-01 9.0130060637247324e-04 -8.4490810065008517e-04  1.5076105598424516e-01 -4.2156895842548241e-04 -1.6792265751053284e-03  1.5168843066186891e-01 -6.0650120154958937e-04 -2.6158571619026602e-03  1.5202374920719136e-01 -1.7995112881656470e-04 -4.1440013232689936e-03  1.5190524787775037e-01 -5.2703752447611169e-04 -5.7433309051919592e-03  1.5203746819383990e-01 -4.3456473547504857e-05 -6.7382392754032870e-03  1.5207838554816877e-01 1.6460037479634570e-04 -7.3985732623861019e-03  1.5195203800028481e-01 -1.2448307266654400e-03 -7.8926506945489437e-03  1.5195982528541027e-01 -7.6025831509118620e-04 -8.2458340144970985e-03  1.5151037281680921e-01 1.3620961596610237e-03 -8.5678353907584458e-03  1.5125839445167269e-01 -2.2457742321281296e-05 -8.5292423198083840e-03  1.5200189048463159e-01 -1.5865539326547127e-03 -8.3459385088862619e-03  1.5199305363486657e-01 9.8111248601279047e-04 -8.8675140861307171e-03  1.5121829673471168e-01 1.7967370504231044e-03 -8.9296799006627296e-03  1.5218826729704155e-01 -1.1072953898017867e-03 -7.9673866263346819e-03  1.5296423452244673e-01 -3.2867147792285277e-04 -7.7691708134691086e-03  1.5149537933926110e-01 2.2798335505849424e-03 -7.3087418361509190e-03  1.5141427589923726e-01 1.5315709392879441e-04 -4.3672978995968103e-03  1.5248450841213373e-01 -1.6389286651320111e-03 -2.3607280647707377e-03  1.5068792288230315e-01 9.6475736927753141e-04 -2.0262766949570451e-03  1.4922579434457878e-01 1.0980939561321839e-03 3.6820914966042905e-04  1.5053737990019972e-01 -1.7153407093065114e-03 2.2909727319367634e-03  1.4995959077498411e-01 -4.6512143590043107e-04 4.1781144569677325e-04  1.4859715238322596e-01 1.5222577580558732e-03 9.1271724303718552e-05  1.5013645932618275e-01 -5.6473095485683894e-04 1.3197129853587508e-03  1.5073438475611078e-01 -1.0756789706198729e-03 -1.9323625668680390e-04  1.4936730087265029e-01 1.1330569118555103e-03 -9.9472984013704324e-04  1.4999586213484803e-01 2.3452522017713021e-04 6.8492294168106583e-04  1.5060196217374272e-01 -1.0626828997940616e-03 5.3855215276366739e-05  1.4955983690472610e-01 5.6528785241224467e-04 -6.6308924231495224e-04  1.4986033900155138e-01 4.2786645724684515e-04 4.8912493982900809e-04  1.5043215753644734e-01 -7.2197599771561566e-04 1.8973323088199794e-04  1.4977157250854725e-01 1.3601175495266848e-04 -5.7849179140985734e-04  1.4984156265653781e-01 5.5741596061182762e-04 3.7539566527033897e-04  1.5033318075627899e-01 -6.7137842954131824e-04 9.5228210069471384e-05  1.4979916827830561e-01 2.6529642110954436e-04 -3.4861456786625485e-04  1.4996852748635497e-01 1.2384946010522360e-04 2.0783545141936130e-04  1.5012663183482169e-01 -1.0959886554005451e-04 1.1199681373643867e-04  1.4996676927884517e-01 -2.2698764794531467e-04 -2.9427209908765398e-04  1.4987469436257778e-01 5.3904994599862828e-04 2.1977987925495709e-04  1.5020815345673186e-01 -5.9171342743012450e-04 -1.1615191074030224e-05  1.4982184866439185e-01 4.3127360083674752e-04 -1.3802168716506281e-04  1.5009909213983866e-01 -2.6018291780959885e-04 1.4053905378199824e-04  1.4994969512780604e-01 2.2594564927872599e-04 -4.9377550697060156e-05  1.5006139261469165e-01 -3.1647662500490704e-04 -2.6790563508960800e-05  1.4989648076193271e-01 4.1698736461926502e-04 2.5306578288412769e-05  1.5013777623171021e-01 -4.3966896673959419e-04 4.7456355589380919e-05  1.4986412987316969e-01 3.6405990803539619e-04 -1.3170162546287135e-04  1.5011799053234032e-01 -2.6513580426313591e-04 1.9637432818388694e-04  1.4991942462290014e-01 1.6305022360919695e-04 -2.0167517674371014e-04  1.5007891466683748e-01 -1.4801662813118113e-04 2.0879959756382992e-04  1.4995378755220451e-01 9.3787516174969997e-05 -1.5949089758407372e-04  1.5008897682606170e-01 -1.5082004878803416e-04 1.9574866235192416e-04  1.4997514812734544e-01 4.3591008918685685e-05 -1.1892139011734622e-04  1.5011526217663579e-01 -1.3767046858593836e-04 2.1532120932963114e-04  1.5001908471144540e-01 -4.7932223695285014e-05 -6.6893586643555875e-05  1.5014412953684161e-01 -1.3776734623870962e-04 2.2231333841094217e-04  1.5009157721057786e-01 -3.1234686537218567e-05 3.1234686537855455e-05  1.5015665287220778e-01 0.0000000000000000e+00 1.9291469988226573e-04  1.5035960180326677e-01 0.0000000000000000e+00 -3.0724007321421260e-04  1.4987962340898625e-01 -7.4258686874529198e-05 -9.9227760513221318e-04  1.5036857462022596e-01 -4.3893532638291510e-04 -4.3893532638111251e-04  1.4962442406094745e-01 6.8267211148061928e-04 -1.0901151876244058e-03  1.5025211761930973e-01 -5.8955741044545160e-04 -2.8727481229444505e-04  1.4978275099442173e-01 3.5951934025393054e-04 -3.8629528449033357e-04  1.5038616916779299e-01 -7.2974991902724604e-04 3.8091857607625555e-04  1.5018670099602346e-01 -5.5108668898427176e-04 4.1729487104881404e-04  1.5066372609660378e-01 -6.0038540182865102e-04 5.2275826697899697e-04  1.5036575608728678e-01 -5.6961830009307380e-04 2.6408526237283662e-04  1.5049097043867707e-01 3.9669768494962837e-04 -4.0977889749036389e-04  1.5004922469473098e-01 5.3821418872529588e-04 -4.5229539699682866e-04  1.5010529798024905e-01 1.7465901638616095e-03 -8.5783819162614777e-04  1.4969853756777346e-01 1.1405934617514581e-03 -3.0109234678423288e-04  1.4995378980511062e-01 1.8540259280464128e-03 -4.2832839875722826e-04  1.4970590882914536e-01 1.0222028931997297e-03 2.3528635580534693e-04  1.4984628423524271e-01 1.4941586627621984e-03 -3.0917984971993046e-04  1.4954119434924867e-01 7.5406968011138887e-04 1.8800166937087511e-04  1.4977446723261928e-01 1.2009284226422732e-03 1.8571576819635769e-05  1.4960473865008822e-01 1.7063218330954903e-04 8.1988070049089114e-04  1.4997477999068090e-01 1.7846916259795482e-04 7.0727327091278061e-04  1.5003431864956285e-01 -3.7150478041552917e-04 1.2747107048834663e-03  1.5020595368983003e-01 -2.0214433478493634e-04 7.5127354327435931e-04  1.5006336007718724e-01 -5.2487154203847356e-04 8.2204752818122533e-04  1.5017333995266116e-01 -2.1072405350163506e-04 3.8417881233898806e-04  1.4991734351389183e-01 -3.4742465780584683e-04 1.4765506063424931e-04  1.4975205606272129e-01 -4.4549645360655707e-05 -5.8217298511598493e-04  1.4958876092197745e-01 1.5753894737922041e-04 -6.0163421627721563e-04  1.4954300397043646e-01 -4.5941832073788728e-05 -6.9144387116536177e-04  1.4956209796627129e-01 -7.1769858699925434e-04 -3.9925334818391694e-04  1.4986123369093513e-01 -4.8786315539758700e-04 -2.2337438191208822e-04  1.4980350920879659e-01 -4.2902595438100395e-04 -1.7174638178961532e-04  1.4972207991368058e-01 -7.3553039034934429e-04 -2.3991558565655034e-05  1.4991258699785831e-01 -6.1277233890444599e-04 7.0881349085084953e-04  1.4977600659011411e-01 6.3461379204146363e-05 4.4455847559426694e-04  1.4923997924626387e-01 2.1615480458402536e-04 -1.7428039030939574e-04  1.4951558745847721e-01 8.2448363355050306e-05 3.9098799996049811e-04  1.5041568555612433e-01 -1.7117508632602239e-04 5.0397968608897285e-04  1.5095053183980556e-01 -6.7658139945457130e-04 -1.6055778164956295e-03  1.5139831342534038e-01 -5.1865862986530484e-04 -3.8967078274960271e-03  1.5194895513733553e-01 2.6307677676847593e-04 -5.3510770571765865e-03  1.5188797393193307e-01 -7.0813823169577051e-04 -6.7738726212830235e-03  1.5138622383998587e-01 -2.1383105499161626e-03 -7.0135274818241911e-03  1.5045977013171485e-01 -1.2779791489095024e-03 -4.7236897037694191e-03  1.4849016463580339e-01 7.4664444624439075e-05 -6.8618332773429341e-04  1.4634411564071545e-01 1.8145735510049542e-04 5.6937395929721217e-03  1.4485899528504595e-01 7.0209899346531225e-04 1.4830177603339942e-02  1.4337261461872214e-01 1.2369116909578932e-03 2.3956268945473248e-02  1.4176250886513775e-01 1.0266418984871920e-03 3.1577345742892789e-02  1.4073991543950165e-01 1.6746742992200681e-03 3.8337564401760803e-02  1.3990545976301719e-01 2.4468731829120514e-03 4.3473445403225473e-02  1.3936604261709895e-01 5.1529493322904386e-04 4.7045267133402117e-02  1.3954135321715461e-01 -6.5357278653540131e-04 4.9417366268641585e-02  1.3924335986401437e-01 8.0400190365722038e-04 4.9558519054327364e-02  1.3864218692626998e-01 5.5903599341647014e-05 4.8644104089354337e-02  1.3969291074296625e-01 -2.7849819111752799e-03 4.7701654826476099e-02  1.4064075630234088e-01 -1.8560941540183061e-03 4.3270667600079707e-02  1.4045286617296399e-01 -1.3550568435817496e-04 3.5972792476430079e-02  1.4232106922313403e-01 -2.0051066176582774e-03 2.9236091906696862e-02  1.4541042987256073e-01 -2.1268145409949002e-03 1.9165788962839075e-02  1.4642338893702103e-01 1.3398000225385935e-03 6.0045129372271969e-03  1.4832905906201266e-01 1.5003551172759547e-03 -1.7003409039146897e-03  1.5175612662392518e-01 -1.1805749419080335e-04 -6.1206339238465681e-03  1.5214953797181280e-01 1.5897619289404260e-03 -1.1090243988900704e-02  1.5126074843766504e-01 2.3242001216558740e-03 -8.8479618148488721e-03  1.5209087027287688e-01 -5.3358328533024393e-04 -2.0271862419791440e-03  1.5103947174403801e-01 -7.4608507323820409e-04 -9.4217219408141361e-04  1.4900699357918720e-01 8.7464369333969147e-04 -2.2076092740632607e-04  1.4966122349363462e-01 -2.2015015324347009e-04 2.5998958128934583e-03  1.5030398242590839e-01 -1.0719065467963819e-03 5.4605856088776720e-04  1.4949854357963827e-01 7.8577700423920034e-04 -1.3686780970156428e-03  1.5009271313958078e-01 2.0628184516959422e-04 8.6774009076091808e-04  1.5037211133916439e-01 -5.6151759157135395e-04 1.6322280533826572e-04  1.4974724026276634e-01 9.3631089215053407e-05 -9.8641817647819900e-04  1.4987238678269413e-01 5.9601611481609944e-04 6.6047644410035090e-04  1.5035084393528039e-01 -8.0510830129325490e-04 2.6992246976823790e-04  1.4970979680818008e-01 4.9811597958349997e-04 -8.0557999471551651e-04  1.5009482096177698e-01 -1.6195970645480331e-04 5.8030664681583196e-04  1.5001434776729997e-01 1.8119016124305647e-04 1.1122608725593