<?xml version="1.0"?>
<VTKFile type="UnstructuredGrid"  version="0.1"  >
<UnstructuredGrid>
<Piece  NumberOfPoints="10201" NumberOfCells="20000">
<Points>
<DataArray  type="Float64"  NumberOfComponents="3"  format="ascii">-5 -5 0  -4.9 -5 0  -4.8 -5 0  -4.7 -5 0  -4.6 -5 0  -4.5 -5 0  -4.4 -5 0  -4.3 -5 0  -4.2 -5 0  -4.1 -5 0  -4 -5 0  -3.9 -5 0  -3.8 -5 0  -3.7 -5 0  -3.6 -5 0  -3.5 -5 0  -3.4 -5 0  -3.3 -5 0  -3.2 -5 0  -3.1 -5 0  -3 -5 0  -2.9 -5 0  -2.8 -5 0  -2.7 -5 0  -2.6 -5 0  -2.5 -5 0  -2.4 -5 0  -2.3 -5 0  -2.2 -5 0  -2.1 -5 0  -2 -5 0  -1.9 -5 0  -1.8 -5 0  -1.7 -5 0  -1.6 -5 0  -1.5 -5 0  -1.4 -5 0  -1.3 -5 0  -1.2 -5 0  -1.1 -5 0  -1 -5 0  -0.9000000000000004 -5 0  -0.7999999999999998 -5 0  -0.7000000000000002 -5 0  -0.5999999999999996 -5 0  -0.5 -5 0  -0.4000000000000004 -5 0  -0.2999999999999998 -5 0  -0.2000000000000002 -5 0  -0.09999999999999964 -5 0  0 -5 0  0.09999999999999964 -5 0  0.2000000000000002 -5 0  0.2999999999999998 -5 0  0.4000000000000004 -5 0  0.5 -5 0  0.5999999999999996 -5 0  0.7000000000000002 -5 0  0.7999999999999998 -5 0  0.9000000000000004 -5 0  1 -5 0  1.1 -5 0  1.2 -5 0  1.3 -5 0  1.4 -5 0  1.5 -5 0  1.6 -5 0  1.7 -5 0  1.8 -5 0  1.9 -5 0  2 -5 0  2.1 -5 0  2.2 -5 0  2.3 -5 0  2.4 -5 0  2.5 -5 0  2.6 -5 0  2.7 -5 0  2.8 -5 0  2.9 -5 0  3 -5 0  3.1 -5 0  3.199999999999999 -5 0  3.300000000000001 -5 0  3.4 -5 0  3.5 -5 0  3.6 -5 0  3.699999999999999 -5 0  3.800000000000001 -5 0  3.9 -5 0  4 -5 0  4.1 -5 0  4.199999999999999 -5 0  4.300000000000001 -5 0  4.4 -5 0  4.5 -5 0  4.6 -5 0  4.699999999999999 -5 0  4.800000000000001 -5 0  4.9 -5 0  5 -5 0  -5 -4.9 0  -4.9 -4.9 0  -4.8 -4.9 0  -4.7 -4.9 0  -4.6 -4.9 0  -4.5 -4.9 0  -4.4 -4.9 0  -4.3 -4.9 0  -4.2 -4.9 0  -4.1 -4.9 0  -4 -4.9 0  -3.9 -4.9 0  -3.8 -4.9 0  -3.7 -4.9 0  -3.6 -4.9 0  -3.5 -4.9 0  -3.4 -4.9 0  -3.3 -4.9 0  -3.2 -4.9 0  -3.1 -4.9 0  -3 -4.9 0  -2.9 -4.9 0  -2.8 -4.9 0  -2.7 -4.9 0  -2.6 -4.9 0  -2.5 -4.9 0  -2.4 -4.9 0  -2.3 -4.9 0  -2.2 -4.9 0  -2.1 -4.9 0  -2 -4.9 0  -1.9 -4.9 0  -1.8 -4.9 0  -1.7 -4.9 0  -1.6 -4.9 0  -1.5 -4.9 0  -1.4 -4.9 0  -1.3 -4.9 0  -1.2 -4.9 0  -1.1 -4.9 0  -1 -4.9 0  -0.9000000000000004 -4.9 0  -0.7999999999999998 -4.9 0  -0.7000000000000002 -4.9 0  -0.5999999999999996 -4.9 0  -0.5 -4.9 0  -0.4000000000000004 -4.9 0  -0.2999999999999998 -4.9 0  -0.2000000000000002 -4.9 0  -0.09999999999999964 -4.9 0  0 -4.9 0  0.09999999999999964 -4.9 0  0.2000000000000002 -4.9 0  0.2999999999999998 -4.9 0  0.4000000000000004 -4.9 0  0.5 -4.9 0  0.5999999999999996 -4.9 0  0.7000000000000002 -4.9 0  0.7999999999999998 -4.9 0  0.9000000000000004 -4.9 0  1 -4.9 0  1.1 -4.9 0  1.2 -4.9 0  1.3 -4.9 0  1.4 -4.9 0  1.5 -4.9 0  1.6 -4.9 0  1.7 -4.9 0  1.8 -4.9 0  1.9 -4.9 0  2 -4.9 0  2.1 -4.9 0  2.2 -4.9 0  2.3 -4.9 0  2.4 -4.9 0  2.5 -4.9 0  2.6 -4.9 0  2.7 -4.9 0  2.8 -4.9 0  2.9 -4.9 0  3 -4.9 0  3.1 -4.9 0  3.199999999999999 -4.9 0  3.300000000000001 -4.9 0  3.4 -4.9 0  3.5 -4.9 0  3.6 -4.9 0  3.699999999999999 -4.9 0  3.800000000000001 -4.9 0  3.9 -4.9 0  4 -4.9 0  4.1 -4.9 0  4.199999999999999 -4.9 0  4.300000000000001 -4.9 0  4.4 -4.9 0  4.5 -4.9 0  4.6 -4.9 0  4.699999999999999 -4.9 0  4.800000000000001 -4.9 0  4.9 -4.9 0  5 -4.9 0  -5 -4.8 0  -4.9 -4.8 0  -4.8 -4.8 0  -4.7 -4.8 0  -4.6 -4.8 0  -4.5 -4.8 0  -4.4 -4.8 0  -4.3 -4.8 0  -4.2 -4.8 0  -4.1 -4.8 0  -4 -4.8 0  -3.9 -4.8 0  -3.8 -4.8 0  -3.7 -4.8 0  -3.6 -4.8 0  -3.5 -4.8 0  -3.4 -4.8 0  -3.3 -4.8 0  -3.2 -4.8 0  -3.1 -4.8 0  -3 -4.8 0  -2.9 -4.8 0  -2.8 -4.8 0  -2.7 -4.8 0  -2.6 -4.8 0  -2.5 -4.8 0  -2.4 -4.8 0  -2.3 -4.8 0  -2.2 -4.8 0  -2.1 -4.8 0  -2 -4.8 0  -1.9 -4.8 0  -1.8 -4.8 0  -1.7 -4.8 0  -1.6 -4.8 0  -1.5 -4.8 0  -1.4 -4.8 0  -1.3 -4.8 0  -1.2 -4.8 0  -1.1 -4.8 0  -1 -4.8 0  -0.9000000000000004 -4.8 0  -0.7999999999999998 -4.8 0  -0.7000000000000002 -4.8 0  -0.5999999999999996 -4.8 0  -0.5 -4.8 0  -0.4000000000000004 -4.8 0  -0.2999999999999998 -4.8 0  -0.2000000000000002 -4.8 0  -0.09999999999999964 -4.8 0  0 -4.8 0  0.09999999999999964 -4.8 0  0.2000000000000002 -4.8 0  0.2999999999999998 -4.8 0  0.4000000000000004 -4.8 0  0.5 -4.8 0  0.5999999999999996 -4.8 0  0.7000000000000002 -4.8 0  0.7999999999999998 -4.8 0  0.9000000000000004 -4.8 0  1 -4.8 0  1.1 -4.8 0  1.2 -4.8 0  1.3 -4.8 0  1.4 -4.8 0  1.5 -4.8 0  1.6 -4.8 0  1.7 -4.8 0  1.8 -4.8 0  1.9 -4.8 0  2 -4.8 0  2.1 -4.8 0  2.2 -4.8 0  2.3 -4.8 0  2.4 -4.8 0  2.5 -4.8 0  2.6 -4.8 0  2.7 -4.8 0  2.8 -4.8 0  2.9 -4.8 0  3 -4.8 0  3.1 -4.8 0  3.199999999999999 -4.8 0  3.300000000000001 -4.8 0  3.4 -4.8 0  3.5 -4.8 0  3.6 -4.8 0  3.699999999999999 -4.8 0  3.800000000000001 -4.8 0  3.9 -4.8 0  4 -4.8 0  4.1 -4.8 0  4.199999999999999 -4.8 0  4.300000000000001 -4.8 0  4.4 -4.8 0  4.5 -4.8 0  4.6 -4.8 0  4.699999999999999 -4.8 0  4.800000000000001 -4.8 0  4.9 -4.8 0  5 -4.8 0  -5 -4.7 0  -4.9 -4.7 0  -4.8 -4.7 0  -4.7 -4.7 0  -4.6 -4.7 0  -4.5 -4.7 0  -4.4 -4.7 0  -4.3 -4.7 0  -4.2 -4.7 0  -4.1 -4.7 0  -4 -4.7 0  -3.9 -4.7 0  -3.8 -4.7 0  -3.7 -4.7 0  -3.6 -4.7 0  -3.5 -4.7 0  -3.4 -4.7 0  -3.3 -4.7 0  -3.2 -4.7 0  -3.1 -4.7 0  -3 -4.7 0  -2.9 -4.7 0  -2.8 -4.7 0  -2.7 -4.7 0  -2.6 -4.7 0  -2.5 -4.7 0  -2.4 -4.7 0  -2.3 -4.7 0  -2.2 -4.7 0  -2.1 -4.7 0  -2 -4.7 0  -1.9 -4.7 0  -1.8 -4.7 0  -1.7 -4.7 0  -1.6 -4.7 0  -1.5 -4.7 0  -1.4 -4.7 0  -1.3 -4.7 0  -1.2 -4.7 0  -1.1 -4.7 0  -1 -4.7 0  -0.9000000000000004 -4.7 0  -0.7999999999999998 -4.7 0  -0.7000000000000002 -4.7 0  -0.5999999999999996 -4.7 0  -0.5 -4.7 0  -0.4000000000000004 -4.7 0  -0.2999999999999998 -4.7 0  -0.2000000000000002 -4.7 0  -0.09999999999999964 -4.7 0  0 -4.7 0  0.09999999999999964 -4.7 0  0.2000000000000002 -4.7 0  0.2999999999999998 -4.7 0  0.4000000000000004 -4.7 0  0.5 -4.7 0  0.5999999999999996 -4.7 0  0.7000000000000002 -4.7 0  0.7999999999999998 -4.7 0  0.9000000000000004 -4.7 0  1 -4.7 0  1.1 -4.7 0  1.2 -4.7 0  1.3 -4.7 0  1.4 -4.7 0  1.5 -4.7 0  1.6 -4.7 0  1.7 -4.7 0  1.8 -4.7 0  1.9 -4.7 0  2 -4.7 0  2.1 -4.7 0  2.2 -4.7 0  2.3 -4.7 0  2.4 -4.7 0  2.5 -4.7 0  2.6 -4.7 0  2.7 -4.7 0  2.8 -4.7 0  2.9 -4.7 0  3 -4.7 0  3.1 -4.7 0  3.199999999999999 -4.7 0  3.300000000000001 -4.7 0  3.4 -4.7 0  3.5 -4.7 0  3.6 -4.7 0  3.699999999999999 -4.7 0  3.800000000000001 -4.7 0  3.9 -4.7 0  4 -4.7 0  4.1 -4.7 0  4.199999999999999 -4.7 0  4.300000000000001 -4.7 0  4.4 -4.7 0  4.5 -4.7 0  4.6 -4.7 0  4.699999999999999 -4.7 0  4.800000000000001 -4.7 0  4.9 -4.7 0  5 -4.7 0  -5 -4.6 0  -4.9 -4.6 0  -4.8 -4.6 0  -4.7 -4.6 0  -4.6 -4.6 0  -4.5 -4.6 0  -4.4 -4.6 0  -4.3 -4.6 0  -4.2 -4.6 0  -4.1 -4.6 0  -4 -4.6 0  -3.9 -4.6 0  -3.8 -4.6 0  -3.7 -4.6 0  -3.6 -4.6 0  -3.5 -4.6 0  -3.4 -4.6 0  -3.3 -4.6 0  -3.2 -4.6 0  -3.1 -4.6 0  -3 -4.6 0  -2.9 -4.6 0  -2.8 -4.6 0  -2.7 -4.6 0  -2.6 -4.6 0  -2.5 -4.6 0  -2.4 -4.6 0  -2.3 -4.6 0  -2.2 -4.6 0  -2.1 -4.6 0  -2 -4.6 0  -1.9 -4.6 0  -1.8 -4.6 0  -1.7 -4.6 0  -1.6 -4.6 0  -1.5 -4.6 0  -1.4 -4.6 0  -1.3 -4.6 0  -1.2 -4.6 0  -1.1 -4.6 0  -1 -4.6 0  -0.9000000000000004 -4.6 0  -0.7999999999999998 -4.6 0  -0.7000000000000002 -4.6 0  -0.5999999999999996 -4.6 0  -0.5 -4.6 0  -0.4000000000000004 -4.6 0  -0.2999999999999998 -4.6 0  -0.2000000000000002 -4.6 0  -0.09999999999999964 -4.6 0  0 -4.6 0  0.09999999999999964 -4.6 0  0.2000000000000002 -4.6 0  0.2999999999999998 -4.6 0  0.4000000000000004 -4.6 0  0.5 -4.6 0  0.5999999999999996 -4.6 0  0.7000000000000002 -4.6 0  0.7999999999999998 -4.6 0  0.9000000000000004 -4.6 0  1 -4.6 0  1.1 -4.6 0  1.2 -4.6 0  1.3 -4.6 0  1.4 -4.6 0  1.5 -4.6 0  1.6 -4.6 0  1.7 -4.6 0  1.8 -4.6 0  1.9 -4.6 0  2 -4.6 0  2.1 -4.6 0  2.2 -4.6 0  2.3 -4.6 0  2.4 -4.6 0  2.5 -4.6 0  2.6 -4.6 0  2.7 -4.6 0  2.8 -4.6 0  2.9 -4.6 0  3 -4.6 0  3.1 -4.6 0  3.199999999999999 -4.6 0  3.300000000000001 -4.6 0  3.4 -4.6 0  3.5 -4.6 0  3.6 -4.6 0  3.699999999999999 -4.6 0  3.800000000000001 -4.6 0  3.9 -4.6 0  4 -4.6 0  4.1 -4.6 0  4.199999999999999 -4.6 0  4.300000000000001 -4.6 0  4.4 -4.6 0  4.5 -4.6 0  4.6 -4.6 0  4.699999999999999 -4.6 0  4.800000000000001 -4.6 0  4.9 -4.6 0  5 -4.6 0  -5 -4.5 0  -4.9 -4.5 0  -4.8 -4.5 0  -4.7 -4.5 0  -4.6 -4.5 0  -4.5 -4.5 0  -4.4 -4.5 0  -4.3 -4.5 0  -4.2 -4.5 0  -4.1 -4.5 0  -4 -4.5 0  -3.9 -4.5 0  -3.8 -4.5 0  -3.7 -4.5 0  -3.6 -4.5 0  -3.5 -4.5 0  -3.4 -4.5 0  -3.3 -4.5 0  -3.2 -4.5 0  -3.1 -4.5 0  -3 -4.5 0  -2.9 -4.5 0  -2.8 -4.5 0  -2.7 -4.5 0  -2.6 -4.5 0  -2.5 -4.5 0  -2.4 -4.5 0  -2.3 -4.5 0  -2.2 -4.5 0  -2.1 -4.5 0  -2 -4.5 0  -1.9 -4.5 0  -1.8 -4.5 0  -1.7 -4.5 0  -1.6 -4.5 0  -1.5 -4.5 0  -1.4 -4.5 0  -1.3 -4.5 0  -1.2 -4.5 0  -1.1 -4.5 0  -1 -4.5 0  -0.9000000000000004 -4.5 0  -0.7999999999999998 -4.5 0  -0.7000000000000002 -4.5 0  -0.5999999999999996 -4.5 0  -0.5 -4.5 0  -0.4000000000000004 -4.5 0  -0.2999999999999998 -4.5 0  -0.2000000000000002 -4.5 0  -0.09999999999999964 -4.5 0  0 -4.5 0  0.09999999999999964 -4.5 0  0.2000000000000002 -4.5 0  0.2999999999999998 -4.5 0  0.4000000000000004 -4.5 0  0.5 -4.5 0  0.5999999999999996 -4.5 0  0.7000000000000002 -4.5 0  0.7999999999999998 -4.5 0  0.9000000000000004 -4.5 0  1 -4.5 0  1.1 -4.5 0  1.2 -4.5 0  1.3 -4.5 0  1.4 -4.5 0  1.5 -4.5 0  1.6 -4.5 0  1.7 -4.5 0  1.8 -4.5 0  1.9 -4.5 0  2 -4.5 0  2.1 -4.5 0  2.2 -4.5 0  2.3 -4.5 0  2.4 -4.5 0  2.5 -4.5 0  2.6 -4.5 0  2.7 -4.5 0  2.8 -4.5 0  2.9 -4.5 0  3 -4.5 0  3.1 -4.5 0  3.199999999999999 -4.5 0  3.300000000000001 -4.5 0  3.4 -4.5 0  3.5 -4.5 0  3.6 -4.5 0  3.699999999999999 -4.5 0  3.800000000000001 -4.5 0  3.9 -4.5 0  4 -4.5 0  4.1 -4.5 0  4.199999999999999 -4.5 0  4.300000000000001 -4.5 0  4.4 -4.5 0  4.5 -4.5 0  4.6 -4.5 0  4.699999999999999 -4.5 0  4.800000000000001 -4.5 0  4.9 -4.5 0  5 -4.5 0  -5 -4.4 0  -4.9 -4.4 0  -4.8 -4.4 0  -4.7 -4.4 0  -4.6 -4.4 0  -4.5 -4.4 0  -4.4 -4.4 0  -4.3 -4.4 0  -4.2 -4.4 0  -4.1 -4.4 0  -4 -4.4 0  -3.9 -4.4 0  -3.8 -4.4 0  -3.7 -4.4 0  -3.6 -4.4 0  -3.5 -4.4 0  -3.4 -4.4 0  -3.3 -4.4 0  -3.2 -4.4 0  -3.1 -4.4 0  -3 -4.4 0  -2.9 -4.4 0  -2.8 -4.4 0  -2.7 -4.4 0  -2.6 -4.4 0  -2.5 -4.4 0  -2.4 -4.4 0  -2.3 -4.4 0  -2.2 -4.4 0  -2.1 -4.4 0  -2 -4.4 0  -1.9 -4.4 0  -1.8 -4.
[...]
<PointData  Vectors="f_23"> 
<DataArray  type="Float64"  Name="f_23"  NumberOfComponents="3" format="ascii">1.5000029762694858e-01 0.0000000000000000e+00 0.0000000000000000e+00  1.5000008522496172e-01 8.0942809713705747e-14 0.0000000000000000e+00  1.5000068440500816e-01 1.8987348666940819e-14 0.0000000000000000e+00  1.5000099973110598e-01 6.6495627285945095e-13 0.0000000000000000e+00  1.5000240612708721e-01 1.0743154157975367e-12 0.0000000000000000e+00  1.5000406260150059e-01 5.7029351425599853e-12 0.0000000000000000e+00  1.5000743125922883e-01 1.1677905268269762e-11 0.0000000000000000e+00  1.5001154279042495e-01 3.0679637034772322e-11 0.0000000000000000e+00  1.5001734825428004e-01 4.6136909541522138e-11 0.0000000000000000e+00  1.5002287385684290e-01 6.0745264670334648e-11 0.0000000000000000e+00  1.5002755184991209e-01 3.7983066803878683e-11 0.0000000000000000e+00  1.5002856677815177e-01 5.4144827215381968e-12 0.0000000000000000e+00  1.5002539372677853e-01 1.9421209779661570e-11 0.0000000000000000e+00  1.5001755981330123e-01 1.2291852426897305e-10 0.0000000000000000e+00  1.5000830033356136e-01 2.3765553103346485e-10 0.0000000000000000e+00  1.5000100346088605e-01 2.0280996046305118e-10 0.0000000000000000e+00  1.4999875786917585e-01 5.9613551944716208e-11 0.0000000000000000e+00  1.5000121982506615e-01 2.1738931097951387e-12 0.0000000000000000e+00  1.5000576406813471e-01 6.7053521975142170e-11 0.0000000000000000e+00  1.5000781506337107e-01 9.1362650107538804e-11 0.0000000000000000e+00  1.5000494948860893e-01 3.4548549338184233e-11 0.0000000000000000e+00  1.4999879481182099e-01 1.1624553447758704e-13 0.0000000000000000e+00  1.4999306456411846e-01 2.7238877345674215e-11 0.0000000000000000e+00  1.4999132968611417e-01 1.8733397635815708e-11 0.0000000000000000e+00  1.4999696736221133e-01 4.8359704807222779e-12 0.0000000000000000e+00  1.5000772072627155e-01 6.2076687950576923e-11 0.0000000000000000e+00  1.5001326053167161e-01 4.7717232715445853e-11 0.0000000000000000e+00  1.5000836775126755e-01 1.3543152971094985e-13 0.0000000000000000e+00  1.5000105323469104e-01 3.6732952844397592e-11 0.0000000000000000e+00  1.4999811986229561e-01 5.4348629660825494e-11 0.0000000000000000e+00  1.4999790144030178e-01 1.1360269681903514e-11 0.0000000000000000e+00  1.5000139895269318e-01 1.6492862755266053e-12 0.0000000000000000e+00  1.5000864835764383e-01 1.1918788673375153e-11 0.0000000000000000e+00  1.5000932487644641e-01 8.5502169193910584e-12 0.0000000000000000e+00  1.4999930511835055e-01 6.8207842397755920e-12 0.0000000000000000e+00  1.4999130977023883e-01 9.1632682431797904e-11 0.0000000000000000e+00  1.4999539967194161e-01 1.4274352751222080e-11 0.0000000000000000e+00  1.5000663802197661e-01 1.3454787847457807e-10 0.0000000000000000e+00  1.5001052293663139e-01 7.4906151466197427e-11 0.0000000000000000e+00  1.4999733061776410e-01 1.4727480878362181e-10 0.0000000000000000e+00  1.4998570799651362e-01 1.3111755006151114e-10 0.0000000000000000e+00  1.5000067131199882e-01 1.3937867287143289e-10 0.0000000000000000e+00  1.5001641176252853e-01 1.2968600355841021e-10 0.0000000000000000e+00  1.4999840391409472e-01 1.3482390031239862e-10 0.0000000000000000e+00  1.4998356931564460e-01 8.3060946788877328e-11 0.0000000000000000e+00  1.5000499997332964e-01 1.3177306565170524e-10 0.0000000000000000e+00  1.5001389205231003e-01 2.9844319668293766e-11 0.0000000000000000e+00  1.4999094118854095e-01 1.1907446536200148e-10 0.0000000000000000e+00  1.4999119232743813e-01 1.8020309752749122e-12 0.0000000000000000e+00  1.5001157502122639e-01 8.8283316194315226e-11 0.0000000000000000e+00  1.5000227604151173e-01 5.5835999917585020e-12 0.0000000000000000e+00  1.4998896619522972e-01 4.5921844258918782e-11 0.0000000000000000e+00  1.5000369631867955e-01 2.3515464261606527e-11 0.0000000000000000e+00  1.5000741502469730e-01 1.1624629095050333e-11 0.0000000000000000e+00  1.4999288338388159e-01 3.1311338035262454e-11 0.0000000000000000e+00  1.4999774584887871e-01 7.3719467734419934e-15 0.0000000000000000e+00  1.5000709370663451e-01 2.1139433422128658e-11 0.0000000000000000e+00  1.4999780141676014e-01 5.2256429574111679e-12 0.0000000000000000e+00  1.4999564267900864e-01 6.0389653299728998e-12 0.0000000000000000e+00  1.5000425418655577e-01 9.7347032265917523e-12 0.0000000000000000e+00  1.5000080235674371e-01 3.0726647164362120e-14 0.0000000000000000e+00  1.4999632303062324e-01 6.1514896328461650e-12 0.0000000000000000e+00  1.5000167473124304e-01 1.7305203356383741e-12 0.0000000000000000e+00  1.5000161375364102e-01 1.1032395167024475e-12 0.0000000000000000e+00  1.4999776997871050e-01 2.5821687927260853e-12 0.0000000000000000e+00  1.5000032360154822e-01 6.4874795465425277e-14 0.0000000000000000e+00  1.5000133121986609e-01 9.6185053217759772e-13 0.0000000000000000e+00  1.4999887140222032e-01 6.8743474074936198e-13 0.0000000000000000e+00  1.4999988353099999e-01 1.4646883249155074e-14 0.0000000000000000e+00  1.5000083889530469e-01 4.3236109393478022e-13 0.0000000000000000e+00  1.4999946751970966e-01 1.5126332013086673e-13 0.0000000000000000e+00  1.4999984709830033e-01 2.4301195773268748e-14 0.0000000000000000e+00  1.5000045570132339e-01 1.3638498654833244e-13 0.0000000000000000e+00  1.4999975504451993e-01 2.8309632388335159e-14 0.0000000000000000e+00  1.4999989302067263e-01 1.5304507653705835e-14 0.0000000000000000e+00  1.5000024962694503e-01 4.8981493987048481e-14 0.0000000000000000e+00  1.4999985395317630e-01 1.2959496776554486e-14 0.0000000000000000e+00  1.4999997656420549e-01 1.0437902735007483e-15 0.0000000000000000e+00  1.5000009796899411e-01 6.8408271246919270e-15 0.0000000000000000e+00  1.4999994344517414e-01 1.0329792626681090e-15 0.0000000000000000e+00  1.4999997574727933e-01 1.8634563166769246e-15 0.0000000000000000e+00  1.5000006982645683e-01 6.0477051115661499e-15 0.0000000000000000e+00  1.4999993810758616e-01 3.8508975213065682e-15 0.0000000000000000e+00  1.5000002742959115e-01 6.9051052339778185e-16 0.0000000000000000e+00  1.4999999988332230e-01 5.3999227091989478e-18 0.0000000000000000e+00  1.4999999445910672e-01 8.3431908525554888e-19 0.0000000000000000e+00  1.4999999536782499e-01 1.7770300681052404e-16 0.0000000000000000e+00  1.5000001723088580e-01 6.4550387173587652e-16 0.0000000000000000e+00  1.4999997698093021e-01 8.3386465902499687e-16 0.0000000000000000e+00  1.5000002069643806e-01 5.7595436706983664e-16 0.0000000000000000e+00  1.4999998581342497e-01 2.5100812555657894e-16 0.0000000000000000e+00  1.5000000813606346e-01 8.8220912344624208e-17 0.0000000000000000e+00  1.4999999488806146e-01 4.7236697295595281e-17 0.0000000000000000e+00  1.5000000511864564e-01 5.9436062133979219e-17 0.0000000000000000e+00  1.4999999322428653e-01 9.8637849714020250e-17 0.0000000000000000e+00  1.5000000845694031e-01 1.3756732753610357e-16 0.0000000000000000e+00  1.4999999075924431e-01 1.4685032778520844e-16 0.0000000000000000e+00  1.5000000855299231e-01 1.0646480079654546e-16 0.0000000000000000e+00  1.4999999117090806e-01 7.3679177188939322e-17 0.0000000000000000e+00  1.5000000454932899e-01 1.7716589353394251e-17 0.0000000000000000e+00  1.4999998973496759e-01 0.0000000000000000e+00 0.0000000000000000e+00  1.5000008522496183e-01 0.0000000000000000e+00 8.0942809451536244e-14  1.4999965432475593e-01 1.8117792759438148e-16 1.8117794134457517e-16  1.4999971381365013e-01 1.6492220510066771e-13 1.6603017091871201e-13  1.4999892126015582e-01 1.0315488926102422e-13 3.1727076331523769e-13  1.4999830481467030e-01 1.4527035699568370e-12 1.8414727270350091e-12  1.4999631105497718e-01 2.6571043884540601e-12 4.8921021954876843e-12  1.4999395763548334e-01 1.1102733526472219e-11 1.6288971183707676e-11  1.4998960727939634e-01 2.1073701274388862e-11 3.7041668748568600e-11  1.4998469087293609e-01 4.6440523543526191e-11 8.2729044275682637e-11  1.4997836805623158e-01 5.7813121864509713e-11 1.3721222130239727e-10  1.4997336590162183e-01 5.8177503705617677e-11 1.9721982790959536e-10  1.4997017881307367e-01 1.9076195633440193e-11 2.0376607242483869e-10  1.4997165401594237e-01 9.5603906055966723e-13 1.6264683317812616e-10  1.4997720685492621e-01 6.9304677635647731e-11 8.0554714668037386e-11  1.4998624514234657e-01 1.9092822621533326e-10 2.5797762862596875e-11  1.4999446138628025e-01 2.4093692319532341e-10 5.3167322398251936e-12  1.4999929980570414e-01 1.2769271590400896e-10 5.0697059026704887e-12  1.4999921075561165e-01 1.0443358019927183e-11 1.3515185639087349e-11  1.4999621286799569e-01 2.3557355454728941e-11 2.4430402195313718e-11  1.4999349388562544e-01 7.2259311206983014e-11 1.4809165348783660e-11  1.4999466563536643e-01 5.1098393208585579e-11 8.8989569914158349e-14  1.4999947683687564e-01 5.6772188392618657e-12 1.5758957071755134e-11  1.5000490613398859e-01 8.0912720313003371e-12 3.9258205239596929e-11  1.5000790570492223e-01 2.0112188437334208e-11 2.9500336471628899e-11  1.5000567689687566e-01 2.8748872274246830e-14 1.9525912810456658e-12  1.4999701528673004e-01 3.5779029426178664e-11 1.6744388758086722e-11  1.4998859579679624e-01 5.5025132943648254e-11 4.0335998160949718e-11  1.4998951384429091e-01 8.9309604033282827e-12 6.0020266810390895e-12  1.4999686410029883e-01 1.1467064410554214e-11 8.8328327933912652e-12  1.5000105006569467e-01 5.0386140342092622e-11 1.6083335481089631e-11  1.5000141850961204e-01 2.6875515613224706e-11 2.8412533402878569e-12  1.4999992477253346e-01 4.3904769276698012e-15 1.9499134449958203e-12  1.4999415488722465e-01 8.1774383465414276e-12 2.5331960780555826e-11  1.4998997558542274e-01 4.6090790413901903e-12 2.8085037544444196e-11  1.4999655282509786e-01 3.2930670309648519e-13 1.0051068871490500e-12  1.5000622860473056e-01 3.3790954089992968e-11 3.9143716089694625e-11  1.5000605165437053e-01 4.4849564335438902e-11 5.3017728838144653e-12  1.4999783126925570e-01 1.7983783889790370e-11 2.8786150674315780e-11  1.4999132234158710e-01 1.2474144288243609e-10 3.2100950850032211e-11  1.4999597695145434e-01 6.4325522231106934e-12 6.7234039731848952e-12  1.5000947539978277e-01 1.8693170359533267e-10 5.6766702906301075e-11  1.5000821123426794e-01 1.6940817356255314e-12 2.2521027689538505e-13  1.4998930090448365e-01 1.9053570671554983e-10 7.3064532728084152e-11  1.4999057407244706e-01 2.2255790817659725e-12 2.4099593761255735e-15  1.5001241257206635e-01 1.5316275448694625e-10 7.6787111747700996e-11  1.5000723652169073e-01 7.4169457649414908e-12 1.3905753588997582e-12  1.4998632296863093e-01 9.8916632796637124e-11 6.2976063327691988e-11  1.4999756102045977e-01 1.8332731007565639e-11 1.1626324282760075e-11  1.5001304825583356e-01 4.8169337656351278e-11 3.3287692786624032e-11  1.4999680347117578e-01 2.9667089795444878e-11 2.9172698822233712e-11  1.4999023806601172e-01 1.3839847860719867e-11 6.0603903281841699e-12  1.5000747032778416e-01 3.2826825444057217e-11 3.5910951456086137e-11  1.5000445070130916e-01 4.8155641343542926e-13 1.1748606623877957e-12  1.4999128760757541e-01 2.4464171688792513e-11 2.1998410710399504e-11  1.5000105627212343e-01 2.7875350120429936e-12 1.3186768684724046e-11  1.5000668985197749e-01 1.0630815127605171e-11 4.0380025135965367e-12  1.4999530508701364e-01 8.7267434986541473e-12 1.8389779348470741e-11  1.4999726300811281e-01 1.3648500707706247e-12 6.3257484642371610e-13  1.5000536550697471e-01 8.9223051153337404e-12 9.4870892276836018e-12  1.4999897603498510e-01 4.2485081697248870e-13 6.0884445350938149e-12  1.4999646719869406e-01 4.0061820786202793e-12 9.1076256521541778e-13  1.5000293300006623e-01 2.6536594725188281e-12 6.2095261201259229e-12  1.5000081279859295e-01 3.5790133339931561e-13 6.8063089095733032e-13  1.4999733937989074e-01 2.5169008874307253e-12 1.7678513664637729e-12  1.5000112573517055e-01 2.6801004703508269e-13 2.1352563341408460e-12  1.5000114776782153e-01 7.1260771532405875e-13 9.4818415212832806e-17  1.4999844789159111e-01 8.3845950174707438e-13 1.0522475939039749e-12  1.5000026549922579e-01 3.3869461809289009e-17 5.0773983002407110e-13  1.5000087273182119e-01 4.3091830163957504e-13 4.1559937263082796e-14  1.4999920007024686e-01 2.0690128767153407e-13 3.9657279135489015e-13  1.5000000371662583e-01 1.5744946705551590e-14 1.0591964322241320e-13  1.5000051559304756e-01 1.5465386551832517e-13 2.9737533927959755e-14  1.4999961877715612e-01 3.7980959639683355e-14 1.1732865221894801e-13  1.4999995039128436e-01 1.6858233619540731e-14 2.2868115267071765e-14  1.5000029250149688e-01 6.0062107936010908e-14 1.0936177161242280e-14  1.4999978707737954e-01 1.5407584189013481e-14 3.4599954229004978e-14  1.5000000180401360e-01 1.8700206562231228e-15 8.6090143019957343e-15  1.5000011741505873e-01 9.7237238680644212e-15 1.0725688877887408e-15  1.4999991430207146e-01 1.3720005157182668e-15 6.2847567321999767e-15  1.4999998711878498e-01 2.4208679395976342e-15 1.7353423853341146e-15  1.5000007732039858e-01 7.0070303087797621e-15 3.7985192980879505e-16  1.4999992606607371e-01 3.5390544759270802e-15 2.5998112901876575e-15  1.5000003236670115e-01 2.5829398163954457e-16 1.8230774108603093e-15  1.5000000338209449e-01 8.0245050848826957e-17 2.6255720310612717e-16  1.4999998782562840e-01 3.8587267965153528e-17 1.4187517492309431e-17  1.5000000002423253e-01 1.1647969767070277e-16 5.2043833882234323e-17  1.5000001603591195e-01 6.0290361347299143e-16 1.2653280615786663e-18  1.4999997610315602e-01 7.2190801992858264e-16 1.2633811733633615e-16  1.5000002173869847e-01 4.0547065753816054e-16 2.6420660332379002e-16  1.4999998549825352e-01 1.2911250624928372e-16 2.2758507638060545e-16  1.5000000795977819e-01 3.6127492773176507e-17 1.1077428827885410e-16  1.4999999492274757e-01 3.0190570599164324e-17 3.6228452988827829e-17  1.5000000566615027e-01 6.5517403264738169e-17 1.2964286866046029e-17  1.4999999217946955e-01 1.2367898226117924e-16 1.1811411392819119e-17  1.5000000968374255e-01 1.5997795382562480e-16 2.1359331820883153e-17  1.4999998983826096e-01 1.4740599589319929e-16 3.4875621781073018e-17  1.5000000923185947e-01 1.0040929764725984e-16 4.2693660374979679e-17  1.4999999282300022e-01 4.7186286669156662e-17 3.6917705978096654e-17  1.5000000588066281e-01 2.4944692283287550e-17 3.2244586809226153e-17  1.4999999867825786e-01 4.2504481743000579e-18 4.2504469251135601e-18  1.5000000454932963e-01 0.0000000000000000e+00 1.7716586698622173e-17  1.5000068440500783e-01 0.0000000000000000e+00 1.8987348664127614e-14  1.4999971381365021e-01 1.6603017138383813e-13 1.6492220577036735e-13  1.5000080338519975e-01 4.6102756311444895e-14 4.6102756260725436e-14  1.5000043302333926e-01 9.2884449320460472e-13 1.2899926557669509e-12  1.5000215735424494e-01 1.2033101966617726e-13 2.4640901835134083e-12  1.5000280573882474e-01 5.2425495582748243e-12 1.3348221866186188e-11  1.5000635334228019e-01 5.1950521648545625e-12 3.1981840918571596e-11  1.5000928322327967e-01 2.7817188556469055e-11 1.0034888078697752e-10  1.5001567583006573e-01 3.6119054764318631e-11 2.0658017071320030e-10  1.5002114014382673e-01 8.2091916968336870e-11 4.3183801982304084e-10  1.5002860365333354e-01 7.0252938149628513e-11 6.5024296745512954e-10  1.5003231541814196e-01 6.1003559271485500e-11 8.6977208000497047e-10  1.5003416493679547e-01 3.8772471015368388e-12 8.1960143335951755e-10  1.5002956330443548e-01 1.8712582022907365e-11 6.1897237809541347e-10  1.5002225197476318e-01 1.5613940700967800e-10 2.9111159471767091e-10  1.5001231561815917e-01 2.5806492449468767e-10 1.0653478653472467e-10  1.5000583708025625e-01 2.4102684238868159e-10 3.4570693515044095e-11  1.5000270838027627e-01 7.3294152159026990e-11 3.7075689973721522e-11  1.5000382393510897e-01 2.7162869086447653e-14 5.5280051333617424e-11  1.5000540990263000e-01 3.9199618965162310e-11 6.0398125429249820e-11  1.5000519903809684e-01 5.1034401849338084e-11 1.4880130405610183e-11  1.5000108317590960e-01 1.9235333245673699e-11 8.0889640071834345e-12  1.4999596588250394e-01 1.8410863139857326e-13 7.8596545900093166e-11  1.4999245210984144e-01 1.4772834136076108e-11 1.1343391045673165e-10  1.4999256296072849e-01 4.3524027806592029e-12 5.8953810074727150e-11  1.4999847990719861e-01 1.8520685990590891e-11 1.1357710045607447e-13  1.5000823891383849e-01 6.5900341516503513e-11 8.1522144942288278e-11  1.5001165596739804e-01 2.7721658022951295e-11 8.1540018839753597e-11  1.5000504665267886e-01 9.1311876292415599e-13 9.8853826293828166e-14  1.4999881187458747e-01 3.4867604824012800e-11 4.5064016622509435e-11  1.4999872743944748e-01 4.2426863623736854e-11 2.3100992715112371e-11  1.4999989400384747e-01 3.8350970944405385e-12 4.4126707215823860e-13  1.5000346956526281e-01 7.5139183417627160e-12 2.3790688442844362e-11  1.5001015302205553e-01 6.7182055392414807e-12 1.1603096353408698e-10  1.5000806791429031e-01 3.3061510394697201e-14 3.8348888726433374e-11  1.4999623234567092e-01 1.4416332344217382e-11 4.8135952327907614e-11  1.4999216270411928e-01 5.0556052948614048e-11 8.5028806590811386e-11  1.5000002396156106e-01 2.4121493834132972e-12 6.3425887404948208e-12  1.5000725745560961e-01 1.0172362785775740e-10 1.1220489721847798e-10  1.5000625360070291e-01 3.1786453908507707e-11 1.9671783774399623e-11  1.4999603591104732e-01 1.3891130665594686e-10 7.6766476616769315e-11  1.4998914003035937e-01 6.7403734138737981e-11 9.0629345910534573e-11  1.5000229117636593e-01 1.4346937130261868e-10 5.8324601484782625e-11  1.5001385510222240e-01 6.5707290050298395e-11 1.4795156499786922e-10  1.4999676219770430e-01 1.3481276606726605e-10 6.9876853747253686e-11  1.4998569605326098e-01 3.6142536522759905e-11 1.3495331468900815e-10  1.5000639374568461e-01 1.1589147438970589e-10 1.0964908104724859e-10  1.5001169192961167e-01 8.2208899061454496e-12 6.1801874875407819e-11  1.4999019351742748e-01 8.6916773601051444e-11 1.4628388549970030e-10  1.4999364542171370e-01 1.2902639391804067e-13 3.5597207914172262e-12  1.5001122190878571e-01 5.1588619637216036e-11 1.2754344847874614e-10  1.4999988609906531e-01 8.4649729171724978e-12 1.8003119826763810e-11  1.4999059715546795e-01 2.0058772066469715e-11 5.5420877573343953e-11  1.5000532185189089e-01 1.8259150915535768e-11 6.5072616367320084e-11  1.5000486032841454e-01 2.5969844235410657e-12 2.9405245200296998e-12  1.4999263867505019e-01 1.8074742341310310e-11 6.6128550056721957e-11  1.5000035195427458e-01 6.9768424355064032e-13 1.1942831741742304e-11  1.5000589194271038e-01 9.1938555615232274e-12 2.3715926634650073e-11  1.4999611398092746e-01 5.2584867454013931e-12 3.4546008421656011e-11  1.4999765388623776e-01 1.4284976487631635e-12 1.6235083241871918e-13  1.5000452227441013e-01 6.2268697569576390e-12 2.4752817918650616e-11  1.4999897802755111e-01 2.3329611545480734e-13 7.8158284071191519e-12  1.4999721912412950e-01 2.7373071068457881e-12 4.2055289391509293e-12  1.5000255308174806e-01 1.8511097575417361e-12 1.1742746987200030e-11  1.5000035822853824e-01 1.6738390547837546e-13 5.4061755244074581e-13  1.4999793183833590e-01 1.5956026262325192e-12 3.9694362548084311e-12  1.5000114435198661e-01 2.5886566211051032e-13 3.5445281306510663e-12  1.5000065450478314e-01 3.4287689988767891e-13 7.8969114022740419e-15  1.4999874588382950e-01 5.9962732806013247e-13 1.8688005193355538e-12  1.5000047001058167e-01 2.1288274348086160e-14 8.7147106457650842e-13  1.5000047612715070e-01 1.6785183727593204e-13 5.0497205904538330e-14  1.4999935652153107e-01 1.3650016039581102e-13 6.1208088427425871e-13  1.5000015388999294e-01 1.3398595713523814e-15 1.9618828828940411e-13  1.5000032308306732e-01 9.8626905513056907e-14 3.0799184702086976e-14  1.4999961705633197e-01 6.8507444746513661e-14 1.9498029864514416e-13  1.5000013578906177e-01 2.0755871634651737e-15 7.0302491956353910e-14  1.5000009463764152e-01 7.7414696278462449e-15 1.6575216715418062e-15  1.4999987179173949e-01 3.1324120145055676e-15 3.2792093890275311e-14  1.5000001536120799e-01 3.0589655566951226e-15 1.2009019746523118e-14  1.5000009984105894e-01 1.6507092393626462e-14 1.4411171833418788e-15  1.4999986914328814e-01 1.4723805499178438e-14 1.5275680634317059e-14  1.5000008894596892e-01 4.7459736376557793e-15 1.2260359747605098e-14  1.4999996763