<?xml version="1.0"?>
<VTKFile type="UnstructuredGrid"  version="0.1"  >
<UnstructuredGrid>
<Piece  NumberOfPoints="10201" NumberOfCells="20000">
<Points>
<DataArray  type="Float64"  NumberOfComponents="3"  format="ascii">-5 -5 0  -4.9 -5 0  -4.8 -5 0  -4.7 -5 0  -4.6 -5 0  -4.5 -5 0  -4.4 -5 0  -4.3 -5 0  -4.2 -5 0  -4.1 -5 0  -4 -5 0  -3.9 -5 0  -3.8 -5 0  -3.7 -5 0  -3.6 -5 0  -3.5 -5 0  -3.4 -5 0  -3.3 -5 0  -3.2 -5 0  -3.1 -5 0  -3 -5 0  -2.9 -5 0  -2.8 -5 0  -2.7 -5 0  -2.6 -5 0  -2.5 -5 0  -2.4 -5 0  -2.3 -5 0  -2.2 -5 0  -2.1 -5 0  -2 -5 0  -1.9 -5 0  -1.8 -5 0  -1.7 -5 0  -1.6 -5 0  -1.5 -5 0  -1.4 -5 0  -1.3 -5 0  -1.2 -5 0  -1.1 -5 0  -1 -5 0  -0.9000000000000004 -5 0  -0.7999999999999998 -5 0  -0.7000000000000002 -5 0  -0.5999999999999996 -5 0  -0.5 -5 0  -0.4000000000000004 -5 0  -0.2999999999999998 -5 0  -0.2000000000000002 -5 0  -0.09999999999999964 -5 0  0 -5 0  0.09999999999999964 -5 0  0.2000000000000002 -5 0  0.2999999999999998 -5 0  0.4000000000000004 -5 0  0.5 -5 0  0.5999999999999996 -5 0  0.7000000000000002 -5 0  0.7999999999999998 -5 0  0.9000000000000004 -5 0  1 -5 0  1.1 -5 0  1.2 -5 0  1.3 -5 0  1.4 -5 0  1.5 -5 0  1.6 -5 0  1.7 -5 0  1.8 -5 0  1.9 -5 0  2 -5 0  2.1 -5 0  2.2 -5 0  2.3 -5 0  2.4 -5 0  2.5 -5 0  2.6 -5 0  2.7 -5 0  2.8 -5 0  2.9 -5 0  3 -5 0  3.1 -5 0  3.199999999999999 -5 0  3.300000000000001 -5 0  3.4 -5 0  3.5 -5 0  3.6 -5 0  3.699999999999999 -5 0  3.800000000000001 -5 0  3.9 -5 0  4 -5 0  4.1 -5 0  4.199999999999999 -5 0  4.300000000000001 -5 0  4.4 -5 0  4.5 -5 0  4.6 -5 0  4.699999999999999 -5 0  4.800000000000001 -5 0  4.9 -5 0  5 -5 0  -5 -4.9 0  -4.9 -4.9 0  -4.8 -4.9 0  -4.7 -4.9 0  -4.6 -4.9 0  -4.5 -4.9 0  -4.4 -4.9 0  -4.3 -4.9 0  -4.2 -4.9 0  -4.1 -4.9 0  -4 -4.9 0  -3.9 -4.9 0  -3.8 -4.9 0  -3.7 -4.9 0  -3.6 -4.9 0  -3.5 -4.9 0  -3.4 -4.9 0  -3.3 -4.9 0  -3.2 -4.9 0  -3.1 -4.9 0  -3 -4.9 0  -2.9 -4.9 0  -2.8 -4.9 0  -2.7 -4.9 0  -2.6 -4.9 0  -2.5 -4.9 0  -2.4 -4.9 0  -2.3 -4.9 0  -2.2 -4.9 0  -2.1 -4.9 0  -2 -4.9 0  -1.9 -4.9 0  -1.8 -4.9 0  -1.7 -4.9 0  -1.6 -4.9 0  -1.5 -4.9 0  -1.4 -4.9 0  -1.3 -4.9 0  -1.2 -4.9 0  -1.1 -4.9 0  -1 -4.9 0  -0.9000000000000004 -4.9 0  -0.7999999999999998 -4.9 0  -0.7000000000000002 -4.9 0  -0.5999999999999996 -4.9 0  -0.5 -4.9 0  -0.4000000000000004 -4.9 0  -0.2999999999999998 -4.9 0  -0.2000000000000002 -4.9 0  -0.09999999999999964 -4.9 0  0 -4.9 0  0.09999999999999964 -4.9 0  0.2000000000000002 -4.9 0  0.2999999999999998 -4.9 0  0.4000000000000004 -4.9 0  0.5 -4.9 0  0.5999999999999996 -4.9 0  0.7000000000000002 -4.9 0  0.7999999999999998 -4.9 0  0.9000000000000004 -4.9 0  1 -4.9 0  1.1 -4.9 0  1.2 -4.9 0  1.3 -4.9 0  1.4 -4.9 0  1.5 -4.9 0  1.6 -4.9 0  1.7 -4.9 0  1.8 -4.9 0  1.9 -4.9 0  2 -4.9 0  2.1 -4.9 0  2.2 -4.9 0  2.3 -4.9 0  2.4 -4.9 0  2.5 -4.9 0  2.6 -4.9 0  2.7 -4.9 0  2.8 -4.9 0  2.9 -4.9 0  3 -4.9 0  3.1 -4.9 0  3.199999999999999 -4.9 0  3.300000000000001 -4.9 0  3.4 -4.9 0  3.5 -4.9 0  3.6 -4.9 0  3.699999999999999 -4.9 0  3.800000000000001 -4.9 0  3.9 -4.9 0  4 -4.9 0  4.1 -4.9 0  4.199999999999999 -4.9 0  4.300000000000001 -4.9 0  4.4 -4.9 0  4.5 -4.9 0  4.6 -4.9 0  4.699999999999999 -4.9 0  4.800000000000001 -4.9 0  4.9 -4.9 0  5 -4.9 0  -5 -4.8 0  -4.9 -4.8 0  -4.8 -4.8 0  -4.7 -4.8 0  -4.6 -4.8 0  -4.5 -4.8 0  -4.4 -4.8 0  -4.3 -4.8 0  -4.2 -4.8 0  -4.1 -4.8 0  -4 -4.8 0  -3.9 -4.8 0  -3.8 -4.8 0  -3.7 -4.8 0  -3.6 -4.8 0  -3.5 -4.8 0  -3.4 -4.8 0  -3.3 -4.8 0  -3.2 -4.8 0  -3.1 -4.8 0  -3 -4.8 0  -2.9 -4.8 0  -2.8 -4.8 0  -2.7 -4.8 0  -2.6 -4.8 0  -2.5 -4.8 0  -2.4 -4.8 0  -2.3 -4.8 0  -2.2 -4.8 0  -2.1 -4.8 0  -2 -4.8 0  -1.9 -4.8 0  -1.8 -4.8 0  -1.7 -4.8 0  -1.6 -4.8 0  -1.5 -4.8 0  -1.4 -4.8 0  -1.3 -4.8 0  -1.2 -4.8 0  -1.1 -4.8 0  -1 -4.8 0  -0.9000000000000004 -4.8 0  -0.7999999999999998 -4.8 0  -0.7000000000000002 -4.8 0  -0.5999999999999996 -4.8 0  -0.5 -4.8 0  -0.4000000000000004 -4.8 0  -0.2999999999999998 -4.8 0  -0.2000000000000002 -4.8 0  -0.09999999999999964 -4.8 0  0 -4.8 0  0.09999999999999964 -4.8 0  0.2000000000000002 -4.8 0  0.2999999999999998 -4.8 0  0.4000000000000004 -4.8 0  0.5 -4.8 0  0.5999999999999996 -4.8 0  0.7000000000000002 -4.8 0  0.7999999999999998 -4.8 0  0.9000000000000004 -4.8 0  1 -4.8 0  1.1 -4.8 0  1.2 -4.8 0  1.3 -4.8 0  1.4 -4.8 0  1.5 -4.8 0  1.6 -4.8 0  1.7 -4.8 0  1.8 -4.8 0  1.9 -4.8 0  2 -4.8 0  2.1 -4.8 0  2.2 -4.8 0  2.3 -4.8 0  2.4 -4.8 0  2.5 -4.8 0  2.6 -4.8 0  2.7 -4.8 0  2.8 -4.8 0  2.9 -4.8 0  3 -4.8 0  3.1 -4.8 0  3.199999999999999 -4.8 0  3.300000000000001 -4.8 0  3.4 -4.8 0  3.5 -4.8 0  3.6 -4.8 0  3.699999999999999 -4.8 0  3.800000000000001 -4.8 0  3.9 -4.8 0  4 -4.8 0  4.1 -4.8 0  4.199999999999999 -4.8 0  4.300000000000001 -4.8 0  4.4 -4.8 0  4.5 -4.8 0  4.6 -4.8 0  4.699999999999999 -4.8 0  4.800000000000001 -4.8 0  4.9 -4.8 0  5 -4.8 0  -5 -4.7 0  -4.9 -4.7 0  -4.8 -4.7 0  -4.7 -4.7 0  -4.6 -4.7 0  -4.5 -4.7 0  -4.4 -4.7 0  -4.3 -4.7 0  -4.2 -4.7 0  -4.1 -4.7 0  -4 -4.7 0  -3.9 -4.7 0  -3.8 -4.7 0  -3.7 -4.7 0  -3.6 -4.7 0  -3.5 -4.7 0  -3.4 -4.7 0  -3.3 -4.7 0  -3.2 -4.7 0  -3.1 -4.7 0  -3 -4.7 0  -2.9 -4.7 0  -2.8 -4.7 0  -2.7 -4.7 0  -2.6 -4.7 0  -2.5 -4.7 0  -2.4 -4.7 0  -2.3 -4.7 0  -2.2 -4.7 0  -2.1 -4.7 0  -2 -4.7 0  -1.9 -4.7 0  -1.8 -4.7 0  -1.7 -4.7 0  -1.6 -4.7 0  -1.5 -4.7 0  -1.4 -4.7 0  -1.3 -4.7 0  -1.2 -4.7 0  -1.1 -4.7 0  -1 -4.7 0  -0.9000000000000004 -4.7 0  -0.7999999999999998 -4.7 0  -0.7000000000000002 -4.7 0  -0.5999999999999996 -4.7 0  -0.5 -4.7 0  -0.4000000000000004 -4.7 0  -0.2999999999999998 -4.7 0  -0.2000000000000002 -4.7 0  -0.09999999999999964 -4.7 0  0 -4.7 0  0.09999999999999964 -4.7 0  0.2000000000000002 -4.7 0  0.2999999999999998 -4.7 0  0.4000000000000004 -4.7 0  0.5 -4.7 0  0.5999999999999996 -4.7 0  0.7000000000000002 -4.7 0  0.7999999999999998 -4.7 0  0.9000000000000004 -4.7 0  1 -4.7 0  1.1 -4.7 0  1.2 -4.7 0  1.3 -4.7 0  1.4 -4.7 0  1.5 -4.7 0  1.6 -4.7 0  1.7 -4.7 0  1.8 -4.7 0  1.9 -4.7 0  2 -4.7 0  2.1 -4.7 0  2.2 -4.7 0  2.3 -4.7 0  2.4 -4.7 0  2.5 -4.7 0  2.6 -4.7 0  2.7 -4.7 0  2.8 -4.7 0  2.9 -4.7 0  3 -4.7 0  3.1 -4.7 0  3.199999999999999 -4.7 0  3.300000000000001 -4.7 0  3.4 -4.7 0  3.5 -4.7 0  3.6 -4.7 0  3.699999999999999 -4.7 0  3.800000000000001 -4.7 0  3.9 -4.7 0  4 -4.7 0  4.1 -4.7 0  4.199999999999999 -4.7 0  4.300000000000001 -4.7 0  4.4 -4.7 0  4.5 -4.7 0  4.6 -4.7 0  4.699999999999999 -4.7 0  4.800000000000001 -4.7 0  4.9 -4.7 0  5 -4.7 0  -5 -4.6 0  -4.9 -4.6 0  -4.8 -4.6 0  -4.7 -4.6 0  -4.6 -4.6 0  -4.5 -4.6 0  -4.4 -4.6 0  -4.3 -4.6 0  -4.2 -4.6 0  -4.1 -4.6 0  -4 -4.6 0  -3.9 -4.6 0  -3.8 -4.6 0  -3.7 -4.6 0  -3.6 -4.6 0  -3.5 -4.6 0  -3.4 -4.6 0  -3.3 -4.6 0  -3.2 -4.6 0  -3.1 -4.6 0  -3 -4.6 0  -2.9 -4.6 0  -2.8 -4.6 0  -2.7 -4.6 0  -2.6 -4.6 0  -2.5 -4.6 0  -2.4 -4.6 0  -2.3 -4.6 0  -2.2 -4.6 0  -2.1 -4.6 0  -2 -4.6 0  -1.9 -4.6 0  -1.8 -4.6 0  -1.7 -4.6 0  -1.6 -4.6 0  -1.5 -4.6 0  -1.4 -4.6 0  -1.3 -4.6 0  -1.2 -4.6 0  -1.1 -4.6 0  -1 -4.6 0  -0.9000000000000004 -4.6 0  -0.7999999999999998 -4.6 0  -0.7000000000000002 -4.6 0  -0.5999999999999996 -4.6 0  -0.5 -4.6 0  -0.4000000000000004 -4.6 0  -0.2999999999999998 -4.6 0  -0.2000000000000002 -4.6 0  -0.09999999999999964 -4.6 0  0 -4.6 0  0.09999999999999964 -4.6 0  0.2000000000000002 -4.6 0  0.2999999999999998 -4.6 0  0.4000000000000004 -4.6 0  0.5 -4.6 0  0.5999999999999996 -4.6 0  0.7000000000000002 -4.6 0  0.7999999999999998 -4.6 0  0.9000000000000004 -4.6 0  1 -4.6 0  1.1 -4.6 0  1.2 -4.6 0  1.3 -4.6 0  1.4 -4.6 0  1.5 -4.6 0  1.6 -4.6 0  1.7 -4.6 0  1.8 -4.6 0  1.9 -4.6 0  2 -4.6 0  2.1 -4.6 0  2.2 -4.6 0  2.3 -4.6 0  2.4 -4.6 0  2.5 -4.6 0  2.6 -4.6 0  2.7 -4.6 0  2.8 -4.6 0  2.9 -4.6 0  3 -4.6 0  3.1 -4.6 0  3.199999999999999 -4.6 0  3.300000000000001 -4.6 0  3.4 -4.6 0  3.5 -4.6 0  3.6 -4.6 0  3.699999999999999 -4.6 0  3.800000000000001 -4.6 0  3.9 -4.6 0  4 -4.6 0  4.1 -4.6 0  4.199999999999999 -4.6 0  4.300000000000001 -4.6 0  4.4 -4.6 0  4.5 -4.6 0  4.6 -4.6 0  4.699999999999999 -4.6 0  4.800000000000001 -4.6 0  4.9 -4.6 0  5 -4.6 0  -5 -4.5 0  -4.9 -4.5 0  -4.8 -4.5 0  -4.7 -4.5 0  -4.6 -4.5 0  -4.5 -4.5 0  -4.4 -4.5 0  -4.3 -4.5 0  -4.2 -4.5 0  -4.1 -4.5 0  -4 -4.5 0  -3.9 -4.5 0  -3.8 -4.5 0  -3.7 -4.5 0  -3.6 -4.5 0  -3.5 -4.5 0  -3.4 -4.5 0  -3.3 -4.5 0  -3.2 -4.5 0  -3.1 -4.5 0  -3 -4.5 0  -2.9 -4.5 0  -2.8 -4.5 0  -2.7 -4.5 0  -2.6 -4.5 0  -2.5 -4.5 0  -2.4 -4.5 0  -2.3 -4.5 0  -2.2 -4.5 0  -2.1 -4.5 0  -2 -4.5 0  -1.9 -4.5 0  -1.8 -4.5 0  -1.7 -4.5 0  -1.6 -4.5 0  -1.5 -4.5 0  -1.4 -4.5 0  -1.3 -4.5 0  -1.2 -4.5 0  -1.1 -4.5 0  -1 -4.5 0  -0.9000000000000004 -4.5 0  -0.7999999999999998 -4.5 0  -0.7000000000000002 -4.5 0  -0.5999999999999996 -4.5 0  -0.5 -4.5 0  -0.4000000000000004 -4.5 0  -0.2999999999999998 -4.5 0  -0.2000000000000002 -4.5 0  -0.09999999999999964 -4.5 0  0 -4.5 0  0.09999999999999964 -4.5 0  0.2000000000000002 -4.5 0  0.2999999999999998 -4.5 0  0.4000000000000004 -4.5 0  0.5 -4.5 0  0.5999999999999996 -4.5 0  0.7000000000000002 -4.5 0  0.7999999999999998 -4.5 0  0.9000000000000004 -4.5 0  1 -4.5 0  1.1 -4.5 0  1.2 -4.5 0  1.3 -4.5 0  1.4 -4.5 0  1.5 -4.5 0  1.6 -4.5 0  1.7 -4.5 0  1.8 -4.5 0  1.9 -4.5 0  2 -4.5 0  2.1 -4.5 0  2.2 -4.5 0  2.3 -4.5 0  2.4 -4.5 0  2.5 -4.5 0  2.6 -4.5 0  2.7 -4.5 0  2.8 -4.5 0  2.9 -4.5 0  3 -4.5 0  3.1 -4.5 0  3.199999999999999 -4.5 0  3.300000000000001 -4.5 0  3.4 -4.5 0  3.5 -4.5 0  3.6 -4.5 0  3.699999999999999 -4.5 0  3.800000000000001 -4.5 0  3.9 -4.5 0  4 -4.5 0  4.1 -4.5 0  4.199999999999999 -4.5 0  4.300000000000001 -4.5 0  4.4 -4.5 0  4.5 -4.5 0  4.6 -4.5 0  4.699999999999999 -4.5 0  4.800000000000001 -4.5 0  4.9 -4.5 0  5 -4.5 0  -5 -4.4 0  -4.9 -4.4 0  -4.8 -4.4 0  -4.7 -4.4 0  -4.6 -4.4 0  -4.5 -4.4 0  -4.4 -4.4 0  -4.3 -4.4 0  -4.2 -4.4 0  -4.1 -4.4 0  -4 -4.4 0  -3.9 -4.4 0  -3.8 -4.4 0  -3.7 -4.4 0  -3.6 -4.4 0  -3.5 -4.4 0  -3.4 -4.4 0  -3.3 -4.4 0  -3.2 -4.4 0  -3.1 -4.4 0  -3 -4.4 0  -2.9 -4.4 0  -2.8 -4.4 0  -2.7 -4.4 0  -2.6 -4.4 0  -2.5 -4.4 0  -2.4 -4.4 0  -2.3 -4.4 0  -2.2 -4.4 0  -2.1 -4.4 0  -2 -4.4 0  -1.9 -4.4 0  -1.8 -4.
[...]
<PointData  Vectors="f_23"> 
<DataArray  type="Float64"  Name="f_23"  NumberOfComponents="3" format="ascii">1.4999999999999794e-01 0.0000000000000000e+00 0.0000000000000000e+00  1.5000000000001870e-01 5.6111930681703667e-28 0.0000000000000000e+00  1.4999999999995775e-01 2.9246550455173071e-27 0.0000000000000000e+00  1.5000000000017966e-01 5.9958700320506030e-26 0.0000000000000000e+00  1.5000000000153518e-01 1.5980046499349818e-24 0.0000000000000000e+00  1.5000000000703012e-01 3.5138405495526497e-23 0.0000000000000000e+00  1.5000000002821734e-01 4.2472718445987986e-22 0.0000000000000000e+00  1.5000000009612294e-01 3.6208262293161363e-21 0.0000000000000000e+00  1.5000000027914373e-01 2.3913349441517873e-20 0.0000000000000000e+00  1.5000000071310926e-01 1.1836209074303178e-19 0.0000000000000000e+00  1.5000000161498969e-01 4.3598574821753735e-19 0.0000000000000000e+00  1.5000000322891541e-01 1.2296042976058453e-18 0.0000000000000000e+00  1.5000000570780006e-01 2.7095108046048315e-18 0.0000000000000000e+00  1.5000000895323162e-01 4.7434162187460488e-18 0.0000000000000000e+00  1.5000001241167421e-01 6.7860733144421606e-18 0.0000000000000000e+00  1.5000001491716977e-01 6.9256730799774743e-18 0.0000000000000000e+00  1.5000001444947803e-01 8.7507140440477231e-19 0.0000000000000000e+00  1.5000000710878253e-01 3.0965616206686786e-17 0.0000000000000000e+00  1.4999998599959666e-01 3.9721282857643293e-16 0.0000000000000000e+00  1.4999994452778828e-01 1.5615020572814876e-15 0.0000000000000000e+00  1.4999988773496101e-01 2.5614854839512656e-15 0.0000000000000000e+00  1.4999984365806754e-01 1.1301080491151991e-15 0.0000000000000000e+00  1.4999985475396790e-01 2.7277602058975857e-16 0.0000000000000000e+00  1.4999993998262198e-01 5.2229693850855266e-15 0.0000000000000000e+00  1.5000005777028394e-01 7.9113783604587974e-15 0.0000000000000000e+00  1.5000012654512049e-01 2.5514615831058227e-15 0.0000000000000000e+00  1.5000010565630292e-01 8.4302809274909349e-17 0.0000000000000000e+00  1.5000003938680434e-01 1.9865342803073303e-15 0.0000000000000000e+00  1.4999999158127769e-01 1.9710081190865133e-15 0.0000000000000000e+00  1.4999997023486689e-01 5.4825303064396967e-16 0.0000000000000000e+00  1.4999996508700553e-01 5.0231528399244247e-17 0.0000000000000000e+00  1.4999999797244537e-01 9.8378769382970234e-16 0.0000000000000000e+00  1.5000005235396263e-01 4.8671026676099937e-16 0.0000000000000000e+00  1.5000004179296059e-01 2.9222372544193222e-16 0.0000000000000000e+00  1.4999996124892459e-01 1.1256328005912234e-15 0.0000000000000000e+00  1.4999994167584166e-01 1.1658685309460471e-19 0.0000000000000000e+00  1.5000002304354476e-01 9.4582719410040131e-16 0.0000000000000000e+00  1.5000005853940251e-01 1.0038714527896936e-16 0.0000000000000000e+00  1.4999998628117162e-01 5.6862521458710114e-16 0.0000000000000000e+00  1.4999994970283670e-01 1.6167088647117980e-16 0.0000000000000000e+00  1.5000001099481688e-01 3.1044642618479093e-16 0.0000000000000000e+00  1.5000003902826820e-01 1.2847804463737662e-16 0.0000000000000000e+00  1.4999998820905652e-01 1.7636232427341147e-16 0.0000000000000000e+00  1.4999997255352576e-01 6.8320074827857416e-17 0.0000000000000000e+00  1.5000001305300426e-01 1.0792655900458505e-16 0.0000000000000000e+00  1.5000001688590450e-01 2.4010138461879057e-17 0.0000000000000000e+00  1.4999998704527137e-01 6.6877537159773254e-17 0.0000000000000000e+00  1.4999999180461274e-01 3.8221655920200925e-18 0.0000000000000000e+00  1.5000001103678418e-01 3.7544623943235443e-17 0.0000000000000000e+00  1.5000000198071645e-01 4.0756110557395838e-20 0.0000000000000000e+00  1.4999999216458934e-01 1.6750637693216041e-17 0.0000000000000000e+00  1.5000000154888454e-01 2.0051985721933413e-18 0.0000000000000000e+00  1.5000000434648911e-01 4.8963634493870322e-18 0.0000000000000000e+00  1.4999999727606408e-01 3.0179355888794347e-18 0.0000000000000000e+00  1.4999999849714643e-01 5.3783294486627311e-19 0.0000000000000000e+00  1.5000000232523308e-01 1.9892051917862089e-18 0.0000000000000000e+00  1.4999999980754691e-01 2.8610630825065539e-20 0.0000000000000000e+00  1.4999999871650890e-01 6.3161679029357327e-19 0.0000000000000000e+00  1.5000000076867837e-01 2.4571249020226497e-19 0.0000000000000000e+00  1.5000000033772981e-01 5.1482317552158350e-20 0.0000000000000000e+00  1.4999999937136857e-01 1.7663317846438670e-19 0.0000000000000000e+00  1.5000000016531706e-01 9.9886405268103396e-21 0.0000000000000000e+00  1.5000000025891760e-01 3.6269197751614519e-20 0.0000000000000000e+00  1.4999999974961695e-01 3.0009394895349978e-20 0.0000000000000000e+00  1.5000000001216388e-01 9.6659897161995173e-24 0.0000000000000000e+00  1.5000000013120296e-01 1.0441326255108498e-20 0.0000000000000000e+00  1.4999999990623533e-01 4.3437913711448428e-21 0.0000000000000000e+00  1.4999999999188637e-01 1.7952485960224705e-22 0.0000000000000000e+00  1.5000000005691505e-01 2.1945915065258006e-21 0.0000000000000000e+00  1.4999999996351479e-01 6.8829382248976548e-22 0.0000000000000000e+00  1.4999999999605876e-01 4.7721753303152417e-23 0.0000000000000000e+00  1.5000000002266972e-01 3.9830231848648809e-22 0.0000000000000000e+00  1.4999999998456762e-01 1.3751726189377802e-22 0.0000000000000000e+00  1.5000000000007843e-01 2.9451243971662872e-24 0.0000000000000000e+00  1.5000000000819613e-01 6.2686908928439396e-23 0.0000000000000000e+00  1.4999999999314217e-01 3.2602707422199529e-23 0.0000000000000000e+00  1.5000000000146516e-01 2.9302114669938721e-25 0.0000000000000000e+00  1.5000000000238356e-01 7.1895174238778417e-24 0.0000000000000000e+00  1.4999999999708796e-01 7.4569591941631320e-24 0.0000000000000000e+00  1.5000000000139180e-01 1.1041851247961362e-24 0.0000000000000000e+00  1.5000000000025723e-01 2.6876870138202120e-25 0.0000000000000000e+00  1.4999999999899954e-01 1.2134026147162546e-24 0.0000000000000000e+00  1.5000000000085778e-01 6.8657296569831284e-25 0.0000000000000000e+00  1.4999999999966548e-01 6.0939629830412490e-26 0.0000000000000000e+00  1.4999999999988597e-01 4.0666865442264394e-26 0.0000000000000000e+00  1.5000000000030664e-01 1.3214463677737052e-25 0.0000000000000000e+00  1.4999999999971922e-01 9.1383848914506024e-26 0.0000000000000000e+00  1.5000000000015648e-01 2.3330336405724112e-26 0.0000000000000000e+00  1.4999999999996527e-01 3.3949715574482342e-28 0.0000000000000000e+00  1.4999999999996041e-01 3.2961145995508191e-27 0.0000000000000000e+00  1.5000000000006425e-01 6.0711259883626370e-27 0.0000000000000000e+00  1.4999999999994257e-01 4.3644874765345533e-27 0.0000000000000000e+00  1.5000000000003816e-01 1.8497303517258388e-27 0.0000000000000000e+00  1.4999999999998054e-01 4.4829848620017942e-28 0.0000000000000000e+00  1.5000000000000749e-01 5.1247416974031254e-29 0.0000000000000000e+00  1.4999999999999958e-01 2.0893354122825369e-32 0.0000000000000000e+00  1.4999999999999811e-01 7.2173877164135262e-30 0.0000000000000000e+00  1.5000000000000288e-01 6.5137887780590368e-30 0.0000000000000000e+00  1.4999999999999772e-01 4.1150639129141145e-30 0.0000000000000000e+00  1.5000000000000091e-01 1.3281734755189923e-30 0.0000000000000000e+00  1.4999999999999769e-01 0.0000000000000000e+00 0.0000000000000000e+00  1.5000000000001854e-01 0.0000000000000000e+00 5.6050563048140382e-28  1.4999999999998273e-01 2.3322394725544951e-28 2.4087183060863094e-28  1.5000000000000946e-01 7.6845804015827168e-29 2.4558852425919830e-28  1.4999999999999927e-01 3.0714386646449557e-26 2.8969150525644726e-28  1.4999999999914818e-01 5.0737112407130044e-25 4.0203171505497212e-25  1.4999999999549998e-01 1.3729954480930137e-23 1.3088226266392793e-23  1.4999999998108529e-01 2.1735587756872589e-22 2.4394173093327869e-22  1.4999999993074795e-01 2.1257729636058632e-21 3.3007700655261693e-21  1.4999999978552592e-01 1.5726893271451530e-20 3.2047028840964080e-20  1.4999999942352227e-01 8.9083748469384580e-20 2.3363329458040007e-19  1.4999999862772956e-01 3.7312015662166249e-19 1.3198800576630422e-18  1.4999999711170228e-01 1.1688454640580992e-18 5.7676466537511733e-18  1.4999999464113750e-01 2.8060357077671168e-18 1.9363046782787789e-17  1.4999999121477045e-01 5.1917617665388257e-18 4.9794180344354213e-17  1.4999998729438682e-01 7.4725939025125474e-18 9.6776235065373487e-17  1.4999998402479678e-01 8.1046971709656975e-18 1.3609215777819499e-16  1.4999998333008827e-01 3.3838431641283052e-18 1.2075500980164531e-16  1.4999998838002354e-01 7.6241766116708891e-18 3.1021144831177511e-17  1.5000000489405743e-01 2.1727997213847637e-16 6.9186487972638517e-17  1.5000004042312340e-01 1.1989312045497607e-15 1.2246359636742091e-15  1.5000009606876147e-01 2.7671991392392567e-15 5.3085872928128495e-15  1.5000015267021055e-01 2.3214074958777249e-15 1.1031713867364329e-14  1.5000016871378360e-01 4.1262738613812321e-17 1.0284529326377857e-14  1.5000010841779754e-01 3.2854250021359221e-15 1.8993703614914440e-15  1.4999998762612690e-01 9.3637279673365421e-15 1.9545253846653454e-15  1.4999988324068830e-01 5.8769814839486788e-15 1.0210521104296503e-14  1.4999986736088836e-01 2.1971753806085027e-16 7.5956144104675054e-15  1.4999992815466154e-01 1.3675024827804099e-15 9.2273476434952939e-16  1.4999999204406186e-01 2.6131084773973659e-15 1.3882264094628677e-16  1.5000002307524860e-01 1.3727517681018332e-15 6.1427685255823871e-16  1.5000003657656588e-01 4.9409995491701161e-17 6.8459895032839452e-16  1.5000002216062894e-01 7.3734498555208683e-16 4.3209646572082176e-17  1.4999996514667086e-01 1.1483000320523796e-15 1.3700522716558976e-15  1.4999993707766165e-01 7.9534937751217189e-18 1.8821774727834829e-15  1.5000000487182416e-01 1.3558052799391294e-15 3.7748643086887807e-16  1.5000007142286195e-01 2.7083396693865687e-16 3.2420612097975470e-15  1.5000001613216435e-01 7.0085596691812688e-16 7.4944399451735505e-18  1.4999993467619338e-01 5.3258065279595384e-16 3.1217838908831981e-15  1.4999997648594018e-01 2.5485990743070664e-16 2.8086386011277416e-17  1.5000005486800849e-01 4.8717778392425569e-16 2.3421444889450127e-15  1.5000002053323011e-01 8.3035417495632497e-17 2.8929063470516323e-17  1.4999995547314354e-01 3.2555969318279724e-16 1.5338930021698493e-15  1.4999998749691537e-01 3.3406117934525645e-17 1.3318080199501745e-18  1.5000003496932726e-01 1.8362240219765824e-16 8.8887011063802791e-16  1.5000000371379102e-01 2.1361720897139659e-17 1.5217718833091947e-17  1.4999997418913105e-01 9.0563122591322831e-17 4.3261772120441684e-16  1.5000000315584666e-01 1.9188151883444134e-17 5.6338932142296300e-17  1.5000001702871785e-01 3.7202552557355317e-17 1.5726748492158328e-16  1.4999999307746240e-01 1.7857291863877116e-17 7.5922410085719617e-17  1.4999999076583326e-01 1.0830311684483882e-17 3.2569377544394035e-17  1.5000000760327195e-01 1.4050762902335874e-17 5.8937454198674887e-17  1.5000000325678328e-01 1.3081912158368371e-18 8.7311419442557774e-19  1.4999999393295629e-01 8.2741592849734877e-18 2.7756880780891568e-17  1.5000000039642181e-01 6.4080225576829346e-20 2.4336248042465368e-18  1.5000000358063759e-01 3.1738281271663580e-18 6.7652931330729624e-18  1.4999999816303744e-01 7.8901052544390421e-19 4.5497210138902962e-18  1.4999999869995481e-01 5.6239925283488651e-19 3.1764467256934650e-19  1.5000000172816053e-01 8.1680111385311296e-19 2.4198755736534881e-18  1.4999999988824211e-01 8.8683464899526616e-22 2.1996931943564538e-19  1.4999999905065897e-01 3.2738527875038406e-19 4.3566738316899495e-19  1.5000000058471957e-01 8.1669970550260744e-20 4.0901205917673073e-19  1.5000000021221924e-01 3.5168827290355308e-20 1.2689049474226481e-22  1.4999999954323351e-01 7.7948990919762619e-20 1.3811604141108964e-19  1.5000000015691889e-01 3.0792604428380811e-21 4.9358364204876209e-20  1.5000000015776283e-01 1.6934091643391967e-20 4.6299253194118795e-21  1.4999999981128578e-01 1.3384746527814299e-20 2.8383213777352696e-20  1.5000000003765948e-01 7.2095470802446988e-25 5.6882238245751458e-21  1.5000000007808442e-01 4.3747165114028384e-21 1.6691909896393342e-21  1.4999999992487104e-01 2.1942712341329639e-21 4.9498857042032425e-21  1.5000000001140243e-01 1.5398631805678901e-23 8.3562226025824257e-22  1.5000000003229147e-01 8.6831883621607726e-22 2.7737639236941303e-22  1.4999999996949451e-01 4.0862485527793169e-22 8.0646995398606612e-22  1.5000000000623354e-01 5.8379900484510867e-25 1.7686285739331388e-22  1.5000000001140215e-01 1.4226303451363795e-22 2.0966254422405835e-23  1.4999999998741972e-01 8.7930231319440949e-23 1.1884623696834228e-22  1.5000000000437472e-01 1.5936201462513719e-24 4.5450686618112989e-23  1.5000000000297509e-01 1.6985117578430796e-23 2.2558098512848341e-29  1.4999999999507885e-01 1.8949795665989963e-23 1.3002253688755141e-23  1.5000000000281175e-01 2.7736326071283541e-24 1.0670410574892238e-23  1.5000000000005226e-01 7.6485611327295946e-25 1.2259780181165880e-24  1.4999999999844268e-01 3.1621808224175343e-24 4.8464321696836974e-25  1.5000000000148397e-01 1.6268954033913175e-24 1.6346225955602719e-24  1.4999999999935998e-01 9.2568434590308710e-26 8.3617973786049746e-25  1.4999999999985497e-01 1.5926223557291519e-25 6.6907261357680351e-26  1.5000000000050276e-01 3.6806551668660818e-25 4.7154185445612252e-26  1.4999999999952895e-01 2.0975502948499544e-25 1.4165050507762471e-25  1.5000000000026004e-01 3.7197805928287792e-26 9.3473885395559966e-26  1.4999999999995023e-01 4.0072127736791099e-28 2.3157761267491123e-26  1.4999999999992533e-01 1.5035606885034372e-26 3.4588133376327572e-28  1.5000000000011199e-01 1.8191950376719883e-26 2.9358186954784546e-27  1.4999999999990474e-01 1.0090993280237792e-26 5.3678195232621234e-27  1.5000000000006058e-01 3.1319214621825583e-27 3.6946768545435395e-27  1.4999999999997168e-01 4.4075433789339077e-28 1.4867587079787074e-27  1.5000000000000757e-01 2.5872768905629734e-30 3.6591832244619076e-28  1.5000000000000260e-01 4.2590946221777351e-29 3.6137993789763832e-29  1.4999999999999478e-01 6.4718548769784359e-29 1.7049528688139020e-31  1.5000000000000535e-01 3.5074038002462446e-29 7.2080527197412430e-30  1.4999999999999658e-01 1.3929303432994078e-29 8.0982899557354241e-30  1.5000000000000230e-01 3.5463702745581437e-30 5.4711823704357917e-30  1.4999999999999955e-01 7.3789874290808064e-31 8.5448371121453636e-31  1.5000000000000113e-01 0.0000000000000000e+00 2.7456434458168925e-30  1.4999999999995761e-01 0.0000000000000000e+00 2.9735463161720058e-27  1.5000000000000935e-01 2.4584293758687817e-28 6.5062066062195063e-29  1.5000000000002156e-01 1.3541915852961393e-27 1.3438625773965738e-27  1.4999999999995894e-01 6.5311194919363482e-27 6.1066007089012592e-27  1.5000000000034416e-01 3.3444137894732044e-25 1.1490360237103448e-25  1.5000000000323185e-01 6.4738347895768834e-24 1.0648998410887511e-23  1.5000000001439676e-01 1.4263556482134588e-22 2.4568953658327931e-22  1.5000000005643141e-01 1.7411988272104500e-21 4.0194078916215566e-21  1.5000000019000592e-01 1.4629364599328635e-20 4.7581586200209834e-20  1.5000000054608223e-01 9.5380557291669908e-20 4.0849715259188662e-19  1.5000000137848671e-01 4.6713928916482812e-19 2.6805622391120622e-18  1.5000000308243244e-01 1.6775782781057646e-18 1.3646319659474320e-17  1.5000000606640734e-01 4.4802434500816375e-18 5.3302757803358564e-17  1.5000001047798248e-01 8.8970313994502873e-18 1.5853871104136919e-16  1.5000001585929912e-01 1.2746114380842893e-17 3.5598649255254423e-16  1.5000002078217151e-01 1.2598511624723250e-17 5.8583130053378101e-16  1.5000002276701016e-01 6.2866108912601805e-18 6.5449352689824109e-16  1.5000001852372954e-01 1.4439610327147779e-18 3.7903993330911876e-16  1.5000000325093338e-01 1.3509433455189565e-16 1.0225577369899643e-18  1.4999996931898996e-01 1.0539490430056499e-15 1.4323586180098206e-15  1.4999991061278489e-01 3.4341700861123680e-15 1.0721138722446981e-14  1.4999983755866114e-01 4.7850230448686255e-15 3.3459991274861649e-14  1.4999979038541247e-01 1.3993480922008272e-15 5.1880039519576648e-14  1.4999982312947358e-01 1.4738135743681454e-15 3.1153468036940481e-14  1.4999995052593756e-01 1.2618931453815871e-14 3.9784082011901897e-16  1.5000010488616675e-01 1.4796889332567768e-14 2.3264619346543331e-14  1.5000017689514072e-01 3.1109520900534006e-15 4.5757920085869934e-14  1.5000012901680174e-01 6.7489915247450760e-16 1.8576902258186646e-14  1.5000003785736316e-01 4.1867334937187245e-15 5.4535438898064111e-16  1.4999998458840619e-01 3.4447594770833360e-15 1.1199806347039224e-15  1.4999996259999387e-01 8.4710666987360425e-16 2.6728326435913745e-15  1.4999995779215944e-01 2.7007219116235560e-16 2.2921253924008438e-15  1.5000000944288136e-01 2.4590862337435775e-15 5.1300523517723042e-16  1.5000008221653036e-01 5.6746462320257620e-16 1.1033911528918149e-14  1.5000004575392703e-01 1.4515257301779003e-15 2.0671699249463133e-15  1.4999992500741227e-01 2.0774918357918998e-15 1.0316866763606940e-14  1.4999992600504991e-01 2.4538597211640259e-16 6.9833275643701579e-15  1.5000005826172413e-01 2.1339508679343375e-15 6.7107200526778265e-15  1.5000007875009380e-01 2.8547399855571333e-19 8.4145482696957038e-15  1.4999995465475413e-01 1.4716973642886326e-15 4.2131886767027527e-15  1.4999993143075438e-01 3.5243749453838171e-17 6.4421605005736372e-15  1.5000003881186300e-01 8.6218136643642981e-16 3.0169350086442516e-15  1.5000005155346580e-01 4.3156295349608359e-17 3.5518077876640543e-15  1.4999996431677193e-01 4.8264573966109800e-16 2.3952458685441043e-15  1.4999996696530010e-01 1.9293120703290421e-17 1.3602004881480952e-15  1.5000003237800014e-01 2.6832425094361472e-16 1.8351903451275005e-15  1.5000001637085655e-01 2.0275063310926691e-18 2.7712125201762529e-16  1.4999997308013613e-01 1.4284460009706051e-16 1.1816869108708049e-15  1.4999999633543146e-01 1.4560726118268888e-18 2.6510705495176012e-18  1.5000001938661925e-01 6.5951175523073947e-17 5.6697966464366715e-16  1.4999999595333610e-01 8.5096185591954236e-18 4.8608699043829163e-17  1.4999998874352494e-01 2.2325826470448588e-17 1.7092373020991403e-16  1.5000000691159512e-01 1.2176553047609723e-17 9.1087001956211506e-17  1.5000000435232189e-01 3.7439940831723432e-18 1.9301434464885586e-17  1.4999999381300155e-01 9.2323822588782875e-18 6.1903007689159274e-17  1.5000000009072123e-01 4.6319969363642208e-22 7.4167679643656263e-19  1.5000000372988156e-01 3.8647028721200274e-18 1.9209432479417201e-17  1.4999999811132078e-01 7.9791341306915861e-19 7.2729779983418418e-18  1.4999999874572209e-01 6.4329250974205901e-19 1.4669806943865250e-18  1.5000000178173517e-01 9.3308835802943541e-19 5.0191059589601422e-18  1.4999999974713266e-01 5.2547347143213891e-22 2.9785210946696005e-19  1.4999999911416345e-01 3.3215081607216588e-19 9.5730442191855321e-19  1.5000000066963576e-01 1.2159731427517342e-19 8.0668946858748223e-19  1.5000000009448294e-01 1.8184157006637203e-20 8.2398696485531039e-25  1.4999999956223245e-01 8.4919661561489031e-20 2.5713711132021777e-19  1.5000000023145929e-01 1.1851873948795869e-20 1.1044520235655996e-19  1.5000000008917672e-01 9.5776593888183006e-21 3.3264576077619510e-21  1.4999999981044804e-01 1.7069302473073759e-20 5.0108087659062924e-20  1.5000000008479020e-01 1.3040106182037553e-21 1.6374606081121206e-20  1.5000000004242103e-01 2.3714176189304926e-21 8.2818523117770328e-22  1.4999999992212393e-01 3.2707508329981398e-21 8.3404235474728511e-21  1.5000000003641811e-01 2.6935477027829717e-22 2.9996315999820975e-21  1.5000000001367589e-01 3.7626834882584313e-22 3.7051906866060511e-23  1.4999999996934404e-01 6.2688851696569717e-22 1.1855590963776176e-21  1.5000000001785155e-01 9.9411727952854248e-23 6.3963665277411338e-22  1.5000000000144809e-01 3.0620721621035783e-23 9.1678129856845326e-24  1.4999999998914987e-01 1.0932377596283588e-22 1.1904831855711785e-22  1.5000000000882696e-01 3.9815219534226593e-23 1.2906089761397855e-22  1.4999999999783875e-01 3.4996684294360472e-27 2.0695310974544100e-23  1.4999999999722757e-01 1.3301511509843526e-23 3.3486076728090544e-24  1.5000000000385150e-01 1.2751307639113437e-23 1.7823871467634744e-23  1.4999999999769781e-01 2.4003345356386741e-24 1.0305094339595134e-23  1.5000000000