<?xml version="1.0"?>
<VTKFile type="UnstructuredGrid"  version="0.1"  >
<UnstructuredGrid>
<Piece  NumberOfPoints="10201" NumberOfCells="20000">
<Points>
<DataArray  type="Float64"  NumberOfComponents="3"  format="ascii">-5 -5 0  -4.9 -5 0  -4.8 -5 0  -4.7 -5 0  -4.6 -5 0  -4.5 -5 0  -4.4 -5 0  -4.3 -5 0  -4.2 -5 0  -4.1 -5 0  -4 -5 0  -3.9 -5 0  -3.8 -5 0  -3.7 -5 0  -3.6 -5 0  -3.5 -5 0  -3.4 -5 0  -3.3 -5 0  -3.2 -5 0  -3.1 -5 0  -3 -5 0  -2.9 -5 0  -2.8 -5 0  -2.7 -5 0  -2.6 -5 0  -2.5 -5 0  -2.4 -5 0  -2.3 -5 0  -2.2 -5 0  -2.1 -5 0  -2 -5 0  -1.9 -5 0  -1.8 -5 0  -1.7 -5 0  -1.6 -5 0  -1.5 -5 0  -1.4 -5 0  -1.3 -5 0  -1.2 -5 0  -1.1 -5 0  -1 -5 0  -0.9000000000000004 -5 0  -0.7999999999999998 -5 0  -0.7000000000000002 -5 0  -0.5999999999999996 -5 0  -0.5 -5 0  -0.4000000000000004 -5 0  -0.2999999999999998 -5 0  -0.2000000000000002 -5 0  -0.09999999999999964 -5 0  0 -5 0  0.09999999999999964 -5 0  0.2000000000000002 -5 0  0.2999999999999998 -5 0  0.4000000000000004 -5 0  0.5 -5 0  0.5999999999999996 -5 0  0.7000000000000002 -5 0  0.7999999999999998 -5 0  0.9000000000000004 -5 0  1 -5 0  1.1 -5 0  1.2 -5 0  1.3 -5 0  1.4 -5 0  1.5 -5 0  1.6 -5 0  1.7 -5 0  1.8 -5 0  1.9 -5 0  2 -5 0  2.1 -5 0  2.2 -5 0  2.3 -5 0  2.4 -5 0  2.5 -5 0  2.6 -5 0  2.7 -5 0  2.8 -5 0  2.9 -5 0  3 -5 0  3.1 -5 0  3.199999999999999 -5 0  3.300000000000001 -5 0  3.4 -5 0  3.5 -5 0  3.6 -5 0  3.699999999999999 -5 0  3.800000000000001 -5 0  3.9 -5 0  4 -5 0  4.1 -5 0  4.199999999999999 -5 0  4.300000000000001 -5 0  4.4 -5 0  4.5 -5 0  4.6 -5 0  4.699999999999999 -5 0  4.800000000000001 -5 0  4.9 -5 0  5 -5 0  -5 -4.9 0  -4.9 -4.9 0  -4.8 -4.9 0  -4.7 -4.9 0  -4.6 -4.9 0  -4.5 -4.9 0  -4.4 -4.9 0  -4.3 -4.9 0  -4.2 -4.9 0  -4.1 -4.9 0  -4 -4.9 0  -3.9 -4.9 0  -3.8 -4.9 0  -3.7 -4.9 0  -3.6 -4.9 0  -3.5 -4.9 0  -3.4 -4.9 0  -3.3 -4.9 0  -3.2 -4.9 0  -3.1 -4.9 0  -3 -4.9 0  -2.9 -4.9 0  -2.8 -4.9 0  -2.7 -4.9 0  -2.6 -4.9 0  -2.5 -4.9 0  -2.4 -4.9 0  -2.3 -4.9 0  -2.2 -4.9 0  -2.1 -4.9 0  -2 -4.9 0  -1.9 -4.9 0  -1.8 -4.9 0  -1.7 -4.9 0  -1.6 -4.9 0  -1.5 -4.9 0  -1.4 -4.9 0  -1.3 -4.9 0  -1.2 -4.9 0  -1.1 -4.9 0  -1 -4.9 0  -0.9000000000000004 -4.9 0  -0.7999999999999998 -4.9 0  -0.7000000000000002 -4.9 0  -0.5999999999999996 -4.9 0  -0.5 -4.9 0  -0.4000000000000004 -4.9 0  -0.2999999999999998 -4.9 0  -0.2000000000000002 -4.9 0  -0.09999999999999964 -4.9 0  0 -4.9 0  0.09999999999999964 -4.9 0  0.2000000000000002 -4.9 0  0.2999999999999998 -4.9 0  0.4000000000000004 -4.9 0  0.5 -4.9 0  0.5999999999999996 -4.9 0  0.7000000000000002 -4.9 0  0.7999999999999998 -4.9 0  0.9000000000000004 -4.9 0  1 -4.9 0  1.1 -4.9 0  1.2 -4.9 0  1.3 -4.9 0  1.4 -4.9 0  1.5 -4.9 0  1.6 -4.9 0  1.7 -4.9 0  1.8 -4.9 0  1.9 -4.9 0  2 -4.9 0  2.1 -4.9 0  2.2 -4.9 0  2.3 -4.9 0  2.4 -4.9 0  2.5 -4.9 0  2.6 -4.9 0  2.7 -4.9 0  2.8 -4.9 0  2.9 -4.9 0  3 -4.9 0  3.1 -4.9 0  3.199999999999999 -4.9 0  3.300000000000001 -4.9 0  3.4 -4.9 0  3.5 -4.9 0  3.6 -4.9 0  3.699999999999999 -4.9 0  3.800000000000001 -4.9 0  3.9 -4.9 0  4 -4.9 0  4.1 -4.9 0  4.199999999999999 -4.9 0  4.300000000000001 -4.9 0  4.4 -4.9 0  4.5 -4.9 0  4.6 -4.9 0  4.699999999999999 -4.9 0  4.800000000000001 -4.9 0  4.9 -4.9 0  5 -4.9 0  -5 -4.8 0  -4.9 -4.8 0  -4.8 -4.8 0  -4.7 -4.8 0  -4.6 -4.8 0  -4.5 -4.8 0  -4.4 -4.8 0  -4.3 -4.8 0  -4.2 -4.8 0  -4.1 -4.8 0  -4 -4.8 0  -3.9 -4.8 0  -3.8 -4.8 0  -3.7 -4.8 0  -3.6 -4.8 0  -3.5 -4.8 0  -3.4 -4.8 0  -3.3 -4.8 0  -3.2 -4.8 0  -3.1 -4.8 0  -3 -4.8 0  -2.9 -4.8 0  -2.8 -4.8 0  -2.7 -4.8 0  -2.6 -4.8 0  -2.5 -4.8 0  -2.4 -4.8 0  -2.3 -4.8 0  -2.2 -4.8 0  -2.1 -4.8 0  -2 -4.8 0  -1.9 -4.8 0  -1.8 -4.8 0  -1.7 -4.8 0  -1.6 -4.8 0  -1.5 -4.8 0  -1.4 -4.8 0  -1.3 -4.8 0  -1.2 -4.8 0  -1.1 -4.8 0  -1 -4.8 0  -0.9000000000000004 -4.8 0  -0.7999999999999998 -4.8 0  -0.7000000000000002 -4.8 0  -0.5999999999999996 -4.8 0  -0.5 -4.8 0  -0.4000000000000004 -4.8 0  -0.2999999999999998 -4.8 0  -0.2000000000000002 -4.8 0  -0.09999999999999964 -4.8 0  0 -4.8 0  0.09999999999999964 -4.8 0  0.2000000000000002 -4.8 0  0.2999999999999998 -4.8 0  0.4000000000000004 -4.8 0  0.5 -4.8 0  0.5999999999999996 -4.8 0  0.7000000000000002 -4.8 0  0.7999999999999998 -4.8 0  0.9000000000000004 -4.8 0  1 -4.8 0  1.1 -4.8 0  1.2 -4.8 0  1.3 -4.8 0  1.4 -4.8 0  1.5 -4.8 0  1.6 -4.8 0  1.7 -4.8 0  1.8 -4.8 0  1.9 -4.8 0  2 -4.8 0  2.1 -4.8 0  2.2 -4.8 0  2.3 -4.8 0  2.4 -4.8 0  2.5 -4.8 0  2.6 -4.8 0  2.7 -4.8 0  2.8 -4.8 0  2.9 -4.8 0  3 -4.8 0  3.1 -4.8 0  3.199999999999999 -4.8 0  3.300000000000001 -4.8 0  3.4 -4.8 0  3.5 -4.8 0  3.6 -4.8 0  3.699999999999999 -4.8 0  3.800000000000001 -4.8 0  3.9 -4.8 0  4 -4.8 0  4.1 -4.8 0  4.199999999999999 -4.8 0  4.300000000000001 -4.8 0  4.4 -4.8 0  4.5 -4.8 0  4.6 -4.8 0  4.699999999999999 -4.8 0  4.800000000000001 -4.8 0  4.9 -4.8 0  5 -4.8 0  -5 -4.7 0  -4.9 -4.7 0  -4.8 -4.7 0  -4.7 -4.7 0  -4.6 -4.7 0  -4.5 -4.7 0  -4.4 -4.7 0  -4.3 -4.7 0  -4.2 -4.7 0  -4.1 -4.7 0  -4 -4.7 0  -3.9 -4.7 0  -3.8 -4.7 0  -3.7 -4.7 0  -3.6 -4.7 0  -3.5 -4.7 0  -3.4 -4.7 0  -3.3 -4.7 0  -3.2 -4.7 0  -3.1 -4.7 0  -3 -4.7 0  -2.9 -4.7 0  -2.8 -4.7 0  -2.7 -4.7 0  -2.6 -4.7 0  -2.5 -4.7 0  -2.4 -4.7 0  -2.3 -4.7 0  -2.2 -4.7 0  -2.1 -4.7 0  -2 -4.7 0  -1.9 -4.7 0  -1.8 -4.7 0  -1.7 -4.7 0  -1.6 -4.7 0  -1.5 -4.7 0  -1.4 -4.7 0  -1.3 -4.7 0  -1.2 -4.7 0  -1.1 -4.7 0  -1 -4.7 0  -0.9000000000000004 -4.7 0  -0.7999999999999998 -4.7 0  -0.7000000000000002 -4.7 0  -0.5999999999999996 -4.7 0  -0.5 -4.7 0  -0.4000000000000004 -4.7 0  -0.2999999999999998 -4.7 0  -0.2000000000000002 -4.7 0  -0.09999999999999964 -4.7 0  0 -4.7 0  0.09999999999999964 -4.7 0  0.2000000000000002 -4.7 0  0.2999999999999998 -4.7 0  0.4000000000000004 -4.7 0  0.5 -4.7 0  0.5999999999999996 -4.7 0  0.7000000000000002 -4.7 0  0.7999999999999998 -4.7 0  0.9000000000000004 -4.7 0  1 -4.7 0  1.1 -4.7 0  1.2 -4.7 0  1.3 -4.7 0  1.4 -4.7 0  1.5 -4.7 0  1.6 -4.7 0  1.7 -4.7 0  1.8 -4.7 0  1.9 -4.7 0  2 -4.7 0  2.1 -4.7 0  2.2 -4.7 0  2.3 -4.7 0  2.4 -4.7 0  2.5 -4.7 0  2.6 -4.7 0  2.7 -4.7 0  2.8 -4.7 0  2.9 -4.7 0  3 -4.7 0  3.1 -4.7 0  3.199999999999999 -4.7 0  3.300000000000001 -4.7 0  3.4 -4.7 0  3.5 -4.7 0  3.6 -4.7 0  3.699999999999999 -4.7 0  3.800000000000001 -4.7 0  3.9 -4.7 0  4 -4.7 0  4.1 -4.7 0  4.199999999999999 -4.7 0  4.300000000000001 -4.7 0  4.4 -4.7 0  4.5 -4.7 0  4.6 -4.7 0  4.699999999999999 -4.7 0  4.800000000000001 -4.7 0  4.9 -4.7 0  5 -4.7 0  -5 -4.6 0  -4.9 -4.6 0  -4.8 -4.6 0  -4.7 -4.6 0  -4.6 -4.6 0  -4.5 -4.6 0  -4.4 -4.6 0  -4.3 -4.6 0  -4.2 -4.6 0  -4.1 -4.6 0  -4 -4.6 0  -3.9 -4.6 0  -3.8 -4.6 0  -3.7 -4.6 0  -3.6 -4.6 0  -3.5 -4.6 0  -3.4 -4.6 0  -3.3 -4.6 0  -3.2 -4.6 0  -3.1 -4.6 0  -3 -4.6 0  -2.9 -4.6 0  -2.8 -4.6 0  -2.7 -4.6 0  -2.6 -4.6 0  -2.5 -4.6 0  -2.4 -4.6 0  -2.3 -4.6 0  -2.2 -4.6 0  -2.1 -4.6 0  -2 -4.6 0  -1.9 -4.6 0  -1.8 -4.6 0  -1.7 -4.6 0  -1.6 -4.6 0  -1.5 -4.6 0  -1.4 -4.6 0  -1.3 -4.6 0  -1.2 -4.6 0  -1.1 -4.6 0  -1 -4.6 0  -0.9000000000000004 -4.6 0  -0.7999999999999998 -4.6 0  -0.7000000000000002 -4.6 0  -0.5999999999999996 -4.6 0  -0.5 -4.6 0  -0.4000000000000004 -4.6 0  -0.2999999999999998 -4.6 0  -0.2000000000000002 -4.6 0  -0.09999999999999964 -4.6 0  0 -4.6 0  0.09999999999999964 -4.6 0  0.2000000000000002 -4.6 0  0.2999999999999998 -4.6 0  0.4000000000000004 -4.6 0  0.5 -4.6 0  0.5999999999999996 -4.6 0  0.7000000000000002 -4.6 0  0.7999999999999998 -4.6 0  0.9000000000000004 -4.6 0  1 -4.6 0  1.1 -4.6 0  1.2 -4.6 0  1.3 -4.6 0  1.4 -4.6 0  1.5 -4.6 0  1.6 -4.6 0  1.7 -4.6 0  1.8 -4.6 0  1.9 -4.6 0  2 -4.6 0  2.1 -4.6 0  2.2 -4.6 0  2.3 -4.6 0  2.4 -4.6 0  2.5 -4.6 0  2.6 -4.6 0  2.7 -4.6 0  2.8 -4.6 0  2.9 -4.6 0  3 -4.6 0  3.1 -4.6 0  3.199999999999999 -4.6 0  3.300000000000001 -4.6 0  3.4 -4.6 0  3.5 -4.6 0  3.6 -4.6 0  3.699999999999999 -4.6 0  3.800000000000001 -4.6 0  3.9 -4.6 0  4 -4.6 0  4.1 -4.6 0  4.199999999999999 -4.6 0  4.300000000000001 -4.6 0  4.4 -4.6 0  4.5 -4.6 0  4.6 -4.6 0  4.699999999999999 -4.6 0  4.800000000000001 -4.6 0  4.9 -4.6 0  5 -4.6 0  -5 -4.5 0  -4.9 -4.5 0  -4.8 -4.5 0  -4.7 -4.5 0  -4.6 -4.5 0  -4.5 -4.5 0  -4.4 -4.5 0  -4.3 -4.5 0  -4.2 -4.5 0  -4.1 -4.5 0  -4 -4.5 0  -3.9 -4.5 0  -3.8 -4.5 0  -3.7 -4.5 0  -3.6 -4.5 0  -3.5 -4.5 0  -3.4 -4.5 0  -3.3 -4.5 0  -3.2 -4.5 0  -3.1 -4.5 0  -3 -4.5 0  -2.9 -4.5 0  -2.8 -4.5 0  -2.7 -4.5 0  -2.6 -4.5 0  -2.5 -4.5 0  -2.4 -4.5 0  -2.3 -4.5 0  -2.2 -4.5 0  -2.1 -4.5 0  -2 -4.5 0  -1.9 -4.5 0  -1.8 -4.5 0  -1.7 -4.5 0  -1.6 -4.5 0  -1.5 -4.5 0  -1.4 -4.5 0  -1.3 -4.5 0  -1.2 -4.5 0  -1.1 -4.5 0  -1 -4.5 0  -0.9000000000000004 -4.5 0  -0.7999999999999998 -4.5 0  -0.7000000000000002 -4.5 0  -0.5999999999999996 -4.5 0  -0.5 -4.5 0  -0.4000000000000004 -4.5 0  -0.2999999999999998 -4.5 0  -0.2000000000000002 -4.5 0  -0.09999999999999964 -4.5 0  0 -4.5 0  0.09999999999999964 -4.5 0  0.2000000000000002 -4.5 0  0.2999999999999998 -4.5 0  0.4000000000000004 -4.5 0  0.5 -4.5 0  0.5999999999999996 -4.5 0  0.7000000000000002 -4.5 0  0.7999999999999998 -4.5 0  0.9000000000000004 -4.5 0  1 -4.5 0  1.1 -4.5 0  1.2 -4.5 0  1.3 -4.5 0  1.4 -4.5 0  1.5 -4.5 0  1.6 -4.5 0  1.7 -4.5 0  1.8 -4.5 0  1.9 -4.5 0  2 -4.5 0  2.1 -4.5 0  2.2 -4.5 0  2.3 -4.5 0  2.4 -4.5 0  2.5 -4.5 0  2.6 -4.5 0  2.7 -4.5 0  2.8 -4.5 0  2.9 -4.5 0  3 -4.5 0  3.1 -4.5 0  3.199999999999999 -4.5 0  3.300000000000001 -4.5 0  3.4 -4.5 0  3.5 -4.5 0  3.6 -4.5 0  3.699999999999999 -4.5 0  3.800000000000001 -4.5 0  3.9 -4.5 0  4 -4.5 0  4.1 -4.5 0  4.199999999999999 -4.5 0  4.300000000000001 -4.5 0  4.4 -4.5 0  4.5 -4.5 0  4.6 -4.5 0  4.699999999999999 -4.5 0  4.800000000000001 -4.5 0  4.9 -4.5 0  5 -4.5 0  -5 -4.4 0  -4.9 -4.4 0  -4.8 -4.4 0  -4.7 -4.4 0  -4.6 -4.4 0  -4.5 -4.4 0  -4.4 -4.4 0  -4.3 -4.4 0  -4.2 -4.4 0  -4.1 -4.4 0  -4 -4.4 0  -3.9 -4.4 0  -3.8 -4.4 0  -3.7 -4.4 0  -3.6 -4.4 0  -3.5 -4.4 0  -3.4 -4.4 0  -3.3 -4.4 0  -3.2 -4.4 0  -3.1 -4.4 0  -3 -4.4 0  -2.9 -4.4 0  -2.8 -4.4 0  -2.7 -4.4 0  -2.6 -4.4 0  -2.5 -4.4 0  -2.4 -4.4 0  -2.3 -4.4 0  -2.2 -4.4 0  -2.1 -4.4 0  -2 -4.4 0  -1.9 -4.4 0  -1.8 -4.
[...]
<PointData  Vectors="f_23"> 
<DataArray  type="Float64"  Name="f_23"  NumberOfComponents="3" format="ascii">1.4999999999999997e-01 0.0000000000000000e+00 0.0000000000000000e+00  1.5000000000000022e-01 5.5932910344592256e-33 0.0000000000000000e+00  1.5000000000000013e-01 4.4344608458669596e-35 0.0000000000000000e+00  1.5000000000000030e-01 4.2319460903575863e-32 0.0000000000000000e+00  1.5000000000000027e-01 6.5257149218751882e-32 0.0000000000000000e+00  1.5000000000000019e-01 5.4590587883835819e-34 0.0000000000000000e+00  1.5000000000000066e-01 2.1550973874635596e-31 0.0000000000000000e+00  1.5000000000000036e-01 1.4455676774030078e-31 0.0000000000000000e+00  1.5000000000000005e-01 1.8786825824082316e-33 0.0000000000000000e+00  1.5000000000000105e-01 2.3059659994223396e-32 0.0000000000000000e+00  1.5000000000000069e-01 1.0910933018142731e-31 0.0000000000000000e+00  1.4999999999999816e-01 2.6365202127020005e-29 0.0000000000000000e+00  1.4999999999997859e-01 4.2423365998621997e-28 0.0000000000000000e+00  1.4999999999991084e-01 2.6792700460136911e-27 0.0000000000000000e+00  1.4999999999979838e-01 1.3399597211732271e-27 0.0000000000000000e+00  1.4999999999988534e-01 7.5822445733316263e-26 0.0000000000000000e+00  1.5000000000120153e-01 1.9211603852795137e-24 0.0000000000000000e+00  1.5000000000597735e-01 1.3721661769894259e-23 0.0000000000000000e+00  1.5000000001659150e-01 4.2631189779157306e-23 0.0000000000000000e+00  1.5000000003156938e-01 4.7641265238723926e-23 0.0000000000000000e+00  1.5000000004005323e-01 7.3411840129999629e-26 0.0000000000000000e+00  1.5000000002202779e-01 2.2916852812124857e-22 0.0000000000000000e+00  1.4999999996323371e-01 1.0630405631586080e-21 0.0000000000000000e+00  1.4999999987972462e-01 1.4098176498433248e-21 0.0000000000000000e+00  1.4999999982343587e-01 3.6649165822560867e-22 0.0000000000000000e+00  1.4999999984443629e-01 2.4988451638483767e-22 0.0000000000000000e+00  1.4999999993736984e-01 1.9027681102319972e-21 0.0000000000000000e+00  1.5000000003744002e-01 1.8760804809163955e-21 0.0000000000000000e+00  1.5000000008043007e-01 2.8346639741069090e-22 0.0000000000000000e+00  1.5000000005725939e-01 1.5503802127718311e-22 0.0000000000000000e+00  1.5000000000555153e-01 5.0471797641771877e-22 0.0000000000000000e+00  1.4999999996835919e-01 1.3877827755282313e-22 0.0000000000000000e+00  1.4999999996886920e-01 1.4702821431450148e-23 0.0000000000000000e+00  1.4999999999917915e-01 9.7273417910679568e-23 0.0000000000000000e+00  1.5000000002282163e-01 2.2982811771851759e-23 0.0000000000000000e+00  1.5000000001276759e-01 8.9368600470776741e-24 0.0000000000000000e+00  1.4999999998873770e-01 2.5894754920326389e-23 0.0000000000000000e+00  1.4999999998732316e-01 5.7373203526305013e-25 0.0000000000000000e+00  1.5000000000462288e-01 1.0532329761328562e-23 0.0000000000000000e+00  1.5000000000912039e-01 3.0247233590107514e-24 0.0000000000000000e+00  1.4999999999800434e-01 3.1708765123628412e-24 0.0000000000000000e+00  1.4999999999428462e-01 2.3465296844270860e-24 0.0000000000000000e+00  1.5000000000123054e-01 1.0150321934647744e-24 0.0000000000000000e+00  1.5000000000327018e-01 1.0862021415903072e-24 0.0000000000000000e+00  1.4999999999898114e-01 4.2158587581789641e-25 0.0000000000000000e+00  1.4999999999831531e-01 3.5802869267576527e-25 0.0000000000000000e+00  1.5000000000085431e-01 2.1282806526213134e-25 0.0000000000000000e+00  1.5000000000072614e-01 7.6866945003250372e-26 0.0000000000000000e+00  1.4999999999936953e-01 1.0423151497170841e-25 0.0000000000000000e+00  1.4999999999979591e-01 6.1398099986367501e-27 0.0000000000000000e+00  1.5000000000038721e-01 4.0535759586603929e-26 0.0000000000000000e+00  1.4999999999997435e-01 4.1245854844506474e-28 0.0000000000000000e+00  1.4999999999981506e-01 1.0412833965404000e-26 0.0000000000000000e+00  1.5000000000008556e-01 2.3758051130025485e-27 0.0000000000000000e+00  1.5000000000005650e-01 1.1794536016723923e-27 0.0000000000000000e+00  1.4999999999993358e-01 1.6329775058786887e-27 0.0000000000000000e+00  1.5000000000000388e-01 7.6291986149023700e-31 0.0000000000000000e+00  1.5000000000003011e-01 4.1447562218999197e-28 0.0000000000000000e+00  1.4999999999998276e-01 1.1319305101503309e-28 0.0000000000000000e+00  1.4999999999999525e-01 1.8254307866512036e-29 0.0000000000000000e+00  1.5000000000001115e-01 5.4636860151080664e-29 0.0000000000000000e+00  1.4999999999999658e-01 3.9064470292829628e-30 0.0000000000000000e+00  1.4999999999999739e-01 7.5443644197231446e-30 0.0000000000000000e+00  1.5000000000000302e-01 7.4091389159674768e-30 0.0000000000000000e+00  1.4999999999999991e-01 6.8894237098539017e-32 0.0000000000000000e+00  1.4999999999999897e-01 5.0654204010292246e-31 0.0000000000000000e+00  1.5000000000000105e-01 5.7414172384876405e-31 0.0000000000000000e+00  1.4999999999999983e-01 1.1066889497595740e-34 0.0000000000000000e+00  1.4999999999999972e-01 3.1293603120521711e-31 0.0000000000000000e+00  1.5000000000000052e-01 1.7714086238337785e-32 0.0000000000000000e+00  1.4999999999999983e-01 1.0848944173348080e-33 0.0000000000000000e+00  1.5000000000000044e-01 3.7083993799689978e-31 0.0000000000000000e+00  1.5000000000000061e-01 1.2995934644144627e-31 0.0000000000000000e+00  1.5000000000000011e-01 1.4004235470199351e-31 0.0000000000000000e+00  1.5000000000000013e-01 4.5175079243428681e-32 0.0000000000000000e+00  1.4999999999999991e-01 7.1510499424210492e-32 0.0000000000000000e+00  1.5000000000000030e-01 5.9051918667472521e-32 0.0000000000000000e+00  1.4999999999999988e-01 5.9613161025757066e-32 0.0000000000000000e+00  1.5000000000000013e-01 5.6735571587307831e-34 0.0000000000000000e+00  1.5000000000000041e-01 3.0098649390167602e-31 0.0000000000000000e+00  1.4999999999999988e-01 2.7982805945185752e-31 0.0000000000000000e+00  1.5000000000000011e-01 2.0468879691105165e-33 0.0000000000000000e+00  1.5000000000000030e-01 1.7449254784043375e-32 0.0000000000000000e+00  1.4999999999999974e-01 1.5132892971579223e-32 0.0000000000000000e+00  1.5000000000000019e-01 4.8039949583420128e-32 0.0000000000000000e+00  1.4999999999999997e-01 1.1415117277781818e-31 0.0000000000000000e+00  1.5000000000000036e-01 2.0347885902879654e-32 0.0000000000000000e+00  1.4999999999999991e-01 1.7584700474476041e-31 0.0000000000000000e+00  1.5000000000000011e-01 1.2932550976757827e-33 0.0000000000000000e+00  1.5000000000000005e-01 6.3736400242151917e-32 0.0000000000000000e+00  1.5000000000000002e-01 4.2314046298222216e-32 0.0000000000000000e+00  1.5000000000000049e-01 3.8933091911324110e-32 0.0000000000000000e+00  1.5000000000000019e-01 2.9470135351143323e-33 0.0000000000000000e+00  1.5000000000000022e-01 3.4565565112074801e-32 0.0000000000000000e+00  1.5000000000000013e-01 1.8496854875298018e-31 0.0000000000000000e+00  1.5000000000000061e-01 6.4990015887295010e-34 0.0000000000000000e+00  1.5000000000000019e-01 2.5632016976289814e-31 0.0000000000000000e+00  1.5000000000000041e-01 3.3443130200942233e-31 0.0000000000000000e+00  1.4999999999999991e-01 4.3605056121784969e-31 0.0000000000000000e+00  1.5000000000000022e-01 1.2916887881114206e-31 0.0000000000000000e+00  1.5000000000000036e-01 0.0000000000000000e+00 0.0000000000000000e+00  1.5000000000000022e-01 0.0000000000000000e+00 7.3757908075328507e-33  1.5000000000000019e-01 6.3817561554556451e-32 6.1277159102039384e-34  1.5000000000000044e-01 5.1043516270673325e-32 1.9485246856911161e-32  1.5000000000000022e-01 4.1905898504329178e-33 3.3043693079345285e-32  1.5000000000000013e-01 5.6618299632099122e-34 2.9571985819945610e-32  1.5000000000000061e-01 3.8676847385069376e-32 4.2901595788434736e-32  1.5000000000000027e-01 4.1222495068730646e-33 6.1999777675432905e-32  1.5000000000000011e-01 3.7056186610889899e-33 7.4362628386805871e-33  1.5000000000000030e-01 7.0528466667186342e-32 3.6973926699934870e-32  1.4999999999999997e-01 1.7878622161640264e-32 1.3025981023316565e-33  1.4999999999999941e-01 5.3776036126513662e-32 8.3437641011475882e-31  1.4999999999999944e-01 4.4463546403518374e-30 2.0504626881961002e-30  1.5000000000001093e-01 2.2348121522148964e-28 6.9182688133382453e-29  1.5000000000006394e-01 2.2271193520800020e-27 3.1275442725423940e-27  1.5000000000018732e-01 5.8363206668780935e-27 2.9957127279718156e-26  1.5000000000026223e-01 7.1565496082206812e-27 6.4690666982908773e-26  1.4999999999953190e-01 8.9398335471601500e-25 1.6174127678520693e-25  1.4999999999590369e-01 1.0063358280681228e-23 1.3629448842762394e-23  1.4999999998623972e-01 4.4437780057122058e-23 1.5166698720980380e-22  1.4999999996967547e-01 8.0500443616128851e-23 7.0552206355976447e-22  1.4999999995418162e-01 2.3199648093653374e-23 1.4777776912289331e-21  1.4999999996047469e-01 1.0574716648353585e-22 8.4785290851743725e-22  1.5000000001173011e-01 1.0600637859781042e-21 4.0280558550144618e-22  1.5000000010585662e-01 2.1651573741448130e-21 1.0488341847017784e-20  1.5000000019469698e-01 1.2168920910738683e-21 2.9309091614755042e-20  1.5000000020890275e-01 8.3820087481900156e-24 2.8281538631300906e-20  1.5000000012395454e-01 1.8874143627177379e-21 6.8249704355354842e-21  1.4999999999586797e-01 3.2518020665456045e-21 7.1886378310834010e-22  1.4999999991236812e-01 1.2078667669865894e-21 7.3406860736998509e-21  1.4999999991233978e-01 8.8242353788212044e-24 5.1872645199162404e-21  1.4999999996720778e-01 6.7718715228083440e-22 3.7916049881246997e-22  1.5000000002435945e-01 4.6752319183689909e-22 7.4580527908903081e-22  1.5000000004460787e-01 4.5513847006919682e-24 1.5601345227494499e-21  1.5000000001877709e-01 1.2733909675282291e-22 1.6490388166087699e-22  1.4999999997918853e-01 8.7670661239448206e-23 4.7984281955891632e-22  1.4999999997366034e-01 4.0946571537524100e-25 5.2503405655563584e-22  1.5000000000349203e-01 4.0322298368816298e-23 3.8168885993288329e-23  1.5000000002029490e-01 1.0276630822503611e-23 3.6246711344204009e-22  1.5000000000295857e-01 7.2567541710448785e-24 4.1549467539976419e-25  1.4999999998692323e-01 1.1184807264473891e-23 1.6386401333758068e-22  1.4999999999648683e-01 5.4763211939055927e-25 3.7250584732451214e-24  1.5000000000798239e-01 6.1217616418093944e-24 6.3425894967542708e-23  1.5000000000220545e-01 6.6543085073846787e-27 1.4620271688666474e-24  1.4999999999518840e-01 2.6836857674942861e-24 2.2886211463237571e-23  1.4999999999913913e-01 7.4702440079010523e-29 7.0014898166221150e-26  1.5000000000282410e-01 1.0609368006975676e-24 7.5036956332451755e-24  1.5000000000000735e-01 9.2545117364344505e-27 1.0555146417565566e-25  1.4999999999846655e-01 3.6705740108857190e-25 2.0157645351912433e-24  1.5000000000035957e-01 2.8211427999078498e-26 2.6905156029821571e-25  1.5000000000070932e-01 9.7051105020086391e-26 3.6387769802992754e-25  1.4999999999960115e-01 3.1652383119392761e-26 2.0609454879975297e-25  1.4999999999976862e-01 1.4518491696316405e-26 2.4310476845522056e-26  1.5000000000028457e-01 1.8980921122054389e-26 8.2095640831232971e-26  1.5000000000000646e-01 2.1091665114983952e-28 1.2176421628234927e-27  1.4999999999985678e-01 6.2557950123059597e-27 1.6284011054589586e-26  1.5000000000005964e-01 6.7368298101404092e-28 5.4078702588828276e-27  1.5000000000004271e-01 8.6589011123835588e-28 7.4815635768279042e-28  1.4999999999995089e-01 7.6676424613138254e-28 2.4123344091460146e-27  1.5000000000000480e-01 7.8573242265372862e-31 1.4289232059453281e-28  1.5000000000002103e-01 2.1408635134701851e-28 2.9256073974623637e-28  1.4999999999998642e-01 5.5967179236686231e-29 2.2219762579801804e-28  1.4999999999999822e-01 9.7280254823936813e-30 5.8715597634344138e-31  1.5000000000000749e-01 2.9092440190763979e-29 4.5391564007214064e-29  1.4999999999999658e-01 2.1711669652203454e-30 2.1544888006650098e-29  1.4999999999999894e-01 1.1397736311861770e-30 2.9404144783020563e-32  1.5000000000000255e-01 2.1821129892759888e-30 3.4091444085381690e-30  1.4999999999999894e-01 2.8829372463988197e-31 1.5334815039083542e-30  1.5000000000000005e-01 1.4272512630717533e-31 4.1254164705068494e-33  1.5000000000000097e-01 4.7154040810643514e-31 5.1866547200259896e-31  1.4999999999999988e-01 9.6960078351333390e-32 3.4665635560941282e-31  1.5000000000000019e-01 6.2241910919220825e-32 1.0145134951981718e-33  1.5000000000000013e-01 9.5966031248800456e-33 1.7237186262152921e-32  1.4999999999999991e-01 1.7244326082995895e-32 1.0028003932333684e-33  1.5000000000000019e-01 4.2782429999093567e-34 4.3954007131175944e-34  1.4999999999999974e-01 9.6159487465785182e-33 2.3727813830897377e-32  1.5000000000000019e-01 3.0020385005527583e-33 1.0525308430306815e-31  1.5000000000000022e-01 8.3456238340672312e-33 1.7056288164206717e-31  1.5000000000000019e-01 1.1680582587357535e-31 1.0250207454960391e-31  1.5000000000000030e-01 1.3290833113953629e-33 1.2018502665471348e-32  1.5000000000000022e-01 3.6673031890899359e-32 4.8505223980312118e-32  1.5000000000000013e-01 3.8623403275205721e-33 6.6267934193432348e-32  1.5000000000000002e-01 3.0508423763540245e-32 3.6515643529227595e-32  1.4999999999999980e-01 3.7511207449640455e-32 1.1415064401890952e-32  1.5000000000000011e-01 2.0493640418500728e-32 7.8826643248401352e-33  1.4999999999999997e-01 1.0250622802639029e-32 6.9203452437063302e-33  1.5000000000000022e-01 1.2785981132546548e-31 5.2995299864348310e-32  1.5000000000000013e-01 4.2413298283975483e-32 6.2218153255099091e-32  1.5000000000000013e-01 2.4344961385412850e-34 6.9927189058365909e-32  1.5000000000000013e-01 1.0700265694169747e-32 8.8870258828916136e-32  1.5000000000000005e-01 3.5743246592900165e-32 7.4923009080347214e-33  1.5000000000000036e-01 2.5749053434778418e-32 8.7731793634571135e-33  1.5000000000000022e-01 2.8699696608153436e-32 2.6224296720307572e-32  1.5000000000000013e-01 2.6001496906597213e-31 1.1752930633402672e-31  1.5000000000000005e-01 6.2122903699457123e-32 5.8702452397376629e-33  1.5000000000000030e-01 4.0201930398349943e-33 1.7578108231840187e-31  1.4999999999999997e-01 2.5253751559123820e-35 2.1598511194549414e-32  1.5000000000000013e-01 3.1889540625848415e-35 1.3684838733800131e-32  1.5000000000000022e-01 8.0822342998890226e-32 1.3795648372570913e-32  1.5000000000000005e-01 1.0114995541779744e-32 2.8226863674325341e-35  1.5000000000000030e-01 1.2283226751986311e-33 3.1977752221452441e-33  1.5000000000000019e-01 0.0000000000000000e+00 1.2531550601463701e-33  1.4999999999999991e-01 0.0000000000000000e+00 2.4092094397837948e-33  1.5000000000000013e-01 6.4270289994646888e-34 3.3676386083420523e-32  1.5000000000000013e-01 2.9774993785439812e-32 1.4826773609614599e-31  1.5000000000000019e-01 2.5129353990470068e-32 1.4952313104230807e-32  1.5000000000000013e-01 2.7604815549424076e-32 5.5725490094123000e-32  1.5000000000000011e-01 2.5884170677693157e-32 7.4481079531315991e-32  1.5000000000000013e-01 2.2409231983670356e-34 3.8309298600898273e-34  1.5000000000000036e-01 8.1625481113864775e-35 1.5361387530085883e-32  1.5000000000000013e-01 9.9978288555021531e-32 7.8328471839596994e-32  1.5000000000000052e-01 1.8266397248827598e-34 3.1606871160291163e-33  1.5000000000000083e-01 4.0153729949811299e-31 1.7377687426943644e-30  1.5000000000000260e-01 3.0370204152714918e-33 1.9010979655514342e-29  1.4999999999999838e-01 1.1534025203530458e-28 8.9272162239941853e-31  1.4999999999995559e-01 2.1744264845355340e-27 2.2843735303930650e-27  1.4999999999981606e-01 1.3305706835744242e-26 5.2138278582094198e-26  1.4999999999959418e-01 6.0738736033635565e-27 3.1071642482346979e-25  1.4999999999986194e-01 3.9942179600248788e-25 1.2578208441810424e-25  1.5000000000282390e-01 9.5398292327298774e-24 1.0119510287073046e-23  1.5000000001298133e-01 6.3937139814927891e-23 2.5194118886453904e-22  1.5000000003439287e-01 1.7897575602384506e-22 1.8492976211738370e-21  1.5000000006201789e-01 1.5365983490407668e-22 6.0752569065987911e-21  1.5000000007152242e-01 1.7280739194221959e-23 7.9114277119653072e-21  1.5000000002354763e-01 1.3999582151668513e-21 6.4881764619383711e-22  1.4999999989804846e-01 4.8417534372337109e-21 1.8547874416651018e-20  1.4999999974070105e-01 4.9079485773076170e-21 1.1138275766641874e-19  1.4999999965944644e-01 5.4688864502725785e-22 1.8273633412105957e-19  1.4999999973584088e-01 2.2010350771607798e-21 1.0117276715449539e-19  1.4999999992979615e-01 8.3191091574651278e-21 4.3336320964393429e-21  1.5000000010429362e-01 5.9755522325961824e-21 2.2534223805133191e-20  1.5000000015670650e-01 4.1266996711407500e-22 4.1771946503039494e-20  1.5000000009636780e-01 1.0473878202744996e-21 1.3942653513414687e-20  1.4999999999756986e-01 1.9648288351698703e-21 1.0416625012504206e-22  1.4999999993134402e-01 3.5029735347260647e-22 8.4510425040877375e-21  1.4999999994045843e-01 1.4655216716342204e-22 5.7402204243034536e-21  1.5000000000848349e-01 4.2617863314133470e-22 2.0122545305648400e-22  1.5000000005261466e-01 4.7097344129646666e-23 4.8404070122643224e-21  1.5000000001948305e-01 7.8839338583029403e-23 5.6266266088368339e-22  1.4999999996800120e-01 9.6705049566521176e-23 1.8612196037569933e-21  1.4999999997676799e-01 8.9368832803360976e-25 8.7263780991455212e-22  1.5000000001735284e-01 5.2910588635532033e-23 5.6343358188988764e-22  1.5000000001783212e-01 3.7543716230253216e-24 5.2246086714490272e-22  1.4999999999017588e-01 2.0491913404965812e-23 1.8326175077806942e-22  1.4999999998873434e-01 4.7404399948045463e-24 2.0716547801854583e-22  1.5000000000628644e-01 7.7737865218708791e-24 7.4374444646359269e-23  1.5000000000612457e-01 2.3769462655223868e-24 5.9625219819843352e-23  1.4999999999565494e-01 3.2844758482751479e-24 3.4546185666136502e-23  1.4999999999726474e-01 6.7261912445117341e-25 1.1186508205206501e-23  1.5000000000293293e-01 1.4658609927862640e-24 1.5140369271790298e-23  1.5000000000079286e-01 7.5815596289582879e-26 7.6433456851179741e-25  1.4999999999822936e-01 5.9069162251503723e-25 5.2625410268331310e-24  1.5000000000011332e-01 1.7804699095522543e-27 5.7073401508539609e-26  1.5000000000087840e-01 1.7694496741864606e-25 1.2094657397020892e-24  1.4999999999962829e-01 2.6734415284549305e-26 2.6998175801145520e-25  1.4999999999969996e-01 2.8874435752245755e-26 1.2229522150123412e-25  1.5000000000030972e-01 2.4188308838000204e-26 1.6287093866239351e-25  1.5000000000001365e-01 5.7240495945405101e-28 4.5796726107754390e-29  1.4999999999984215e-01 8.6235523522569547e-27 3.7522840644015741e-26  1.5000000000007069e-01 1.0455837911309678e-27 9.6601160416752645e-27  1.5000000000004018e-01 1.0008524666370990e-27 1.7956357793820028e-27  1.4999999999994507e-01 1.1266748631616123e-27 4.8631207037658582e-27  1.5000000000001176e-01 6.8211635395203121e-30 3.5775004688630592e-28  1.5000000000001956e-01 2.3022736544424913e-28 4.7200549911626307e-28  1.4999999999998315e-01 1.0668797228214086e-28 4.9399976467470225e-28  1.5000000000000138e-01 2.4310503939933414e-31 1.1990992097696534e-29  1.5000000000000707e-01 2.8797808651742284e-29 5.9541463135558777e-29  1.4999999999999478e-01 1.0545350733433366e-29 4.0736678394664000e-29  1.5000000000000061e-01 8.4375158659172856e-32 1.4498344333697446e-30  1.5000000000000230e-01 3.6517264532107379e-30 5.1058902233820956e-30  1.4999999999999838e-01 1.4060782495263605e-30 4.2796632173050937e-30  1.5000000000000074e-01 5.1662110136917427e-32 3.5644020814221586e-31  1.5000000000000036e-01 3.4167386962252499e-31 2.9792446555216966e-31  1.4999999999999983e-01 5.7186506388327782e-31 4.6595652048416389e-31  1.5000000000000019e-01 2.1195800447452210e-33 2.7355110536298824e-33  1.5000000000000022e-01 2.5252539447238477e-32 2.5633812592660173e-33  1.5000000000000013e-01 8.8704974134606765e-33 5.6630384519250101e-33  1.5000000000000022e-01 4.6585871041382343e-33 1.8671679756242941e-32  1.5000000000000030e-01 4.3305947768266542e-32 8.9665396262055284e-33  1.5000000000000022e-01 4.8562666247704122e-33 1.8785577473922948e-32  1.5000000000000013e-01 2.9827314948188970e-32 9.6927882546447234e-32  1.4999999999999966e-01 1.8011684901455051e-32 1.1133185016427815e-31  1.4999999999999991e-01 3.7185095620101432e-33 6.4700594691301413e-33  1.5000000000000011e-01 9.3480470799073843e-32 2.3721274735556230e-32  1.5000000000