<?xml version="1.0"?>
<VTKFile type="UnstructuredGrid"  version="0.1"  >
<UnstructuredGrid>
<Piece  NumberOfPoints="10201" NumberOfCells="20000">
<Points>
<DataArray  type="Float64"  NumberOfComponents="3"  format="ascii">-5 -5 0  -4.9 -5 0  -4.8 -5 0  -4.7 -5 0  -4.6 -5 0  -4.5 -5 0  -4.4 -5 0  -4.3 -5 0  -4.2 -5 0  -4.1 -5 0  -4 -5 0  -3.9 -5 0  -3.8 -5 0  -3.7 -5 0  -3.6 -5 0  -3.5 -5 0  -3.4 -5 0  -3.3 -5 0  -3.2 -5 0  -3.1 -5 0  -3 -5 0  -2.9 -5 0  -2.8 -5 0  -2.7 -5 0  -2.6 -5 0  -2.5 -5 0  -2.4 -5 0  -2.3 -5 0  -2.2 -5 0  -2.1 -5 0  -2 -5 0  -1.9 -5 0  -1.8 -5 0  -1.7 -5 0  -1.6 -5 0  -1.5 -5 0  -1.4 -5 0  -1.3 -5 0  -1.2 -5 0  -1.1 -5 0  -1 -5 0  -0.9000000000000004 -5 0  -0.7999999999999998 -5 0  -0.7000000000000002 -5 0  -0.5999999999999996 -5 0  -0.5 -5 0  -0.4000000000000004 -5 0  -0.2999999999999998 -5 0  -0.2000000000000002 -5 0  -0.09999999999999964 -5 0  0 -5 0  0.09999999999999964 -5 0  0.2000000000000002 -5 0  0.2999999999999998 -5 0  0.4000000000000004 -5 0  0.5 -5 0  0.5999999999999996 -5 0  0.7000000000000002 -5 0  0.7999999999999998 -5 0  0.9000000000000004 -5 0  1 -5 0  1.1 -5 0  1.2 -5 0  1.3 -5 0  1.4 -5 0  1.5 -5 0  1.6 -5 0  1.7 -5 0  1.8 -5 0  1.9 -5 0  2 -5 0  2.1 -5 0  2.2 -5 0  2.3 -5 0  2.4 -5 0  2.5 -5 0  2.6 -5 0  2.7 -5 0  2.8 -5 0  2.9 -5 0  3 -5 0  3.1 -5 0  3.199999999999999 -5 0  3.300000000000001 -5 0  3.4 -5 0  3.5 -5 0  3.6 -5 0  3.699999999999999 -5 0  3.800000000000001 -5 0  3.9 -5 0  4 -5 0  4.1 -5 0  4.199999999999999 -5 0  4.300000000000001 -5 0  4.4 -5 0  4.5 -5 0  4.6 -5 0  4.699999999999999 -5 0  4.800000000000001 -5 0  4.9 -5 0  5 -5 0  -5 -4.9 0  -4.9 -4.9 0  -4.8 -4.9 0  -4.7 -4.9 0  -4.6 -4.9 0  -4.5 -4.9 0  -4.4 -4.9 0  -4.3 -4.9 0  -4.2 -4.9 0  -4.1 -4.9 0  -4 -4.9 0  -3.9 -4.9 0  -3.8 -4.9 0  -3.7 -4.9 0  -3.6 -4.9 0  -3.5 -4.9 0  -3.4 -4.9 0  -3.3 -4.9 0  -3.2 -4.9 0  -3.1 -4.9 0  -3 -4.9 0  -2.9 -4.9 0  -2.8 -4.9 0  -2.7 -4.9 0  -2.6 -4.9 0  -2.5 -4.9 0  -2.4 -4.9 0  -2.3 -4.9 0  -2.2 -4.9 0  -2.1 -4.9 0  -2 -4.9 0  -1.9 -4.9 0  -1.8 -4.9 0  -1.7 -4.9 0  -1.6 -4.9 0  -1.5 -4.9 0  -1.4 -4.9 0  -1.3 -4.9 0  -1.2 -4.9 0  -1.1 -4.9 0  -1 -4.9 0  -0.9000000000000004 -4.9 0  -0.7999999999999998 -4.9 0  -0.7000000000000002 -4.9 0  -0.5999999999999996 -4.9 0  -0.5 -4.9 0  -0.4000000000000004 -4.9 0  -0.2999999999999998 -4.9 0  -0.2000000000000002 -4.9 0  -0.09999999999999964 -4.9 0  0 -4.9 0  0.09999999999999964 -4.9 0  0.2000000000000002 -4.9 0  0.2999999999999998 -4.9 0  0.4000000000000004 -4.9 0  0.5 -4.9 0  0.5999999999999996 -4.9 0  0.7000000000000002 -4.9 0  0.7999999999999998 -4.9 0  0.9000000000000004 -4.9 0  1 -4.9 0  1.1 -4.9 0  1.2 -4.9 0  1.3 -4.9 0  1.4 -4.9 0  1.5 -4.9 0  1.6 -4.9 0  1.7 -4.9 0  1.8 -4.9 0  1.9 -4.9 0  2 -4.9 0  2.1 -4.9 0  2.2 -4.9 0  2.3 -4.9 0  2.4 -4.9 0  2.5 -4.9 0  2.6 -4.9 0  2.7 -4.9 0  2.8 -4.9 0  2.9 -4.9 0  3 -4.9 0  3.1 -4.9 0  3.199999999999999 -4.9 0  3.300000000000001 -4.9 0  3.4 -4.9 0  3.5 -4.9 0  3.6 -4.9 0  3.699999999999999 -4.9 0  3.800000000000001 -4.9 0  3.9 -4.9 0  4 -4.9 0  4.1 -4.9 0  4.199999999999999 -4.9 0  4.300000000000001 -4.9 0  4.4 -4.9 0  4.5 -4.9 0  4.6 -4.9 0  4.699999999999999 -4.9 0  4.800000000000001 -4.9 0  4.9 -4.9 0  5 -4.9 0  -5 -4.8 0  -4.9 -4.8 0  -4.8 -4.8 0  -4.7 -4.8 0  -4.6 -4.8 0  -4.5 -4.8 0  -4.4 -4.8 0  -4.3 -4.8 0  -4.2 -4.8 0  -4.1 -4.8 0  -4 -4.8 0  -3.9 -4.8 0  -3.8 -4.8 0  -3.7 -4.8 0  -3.6 -4.8 0  -3.5 -4.8 0  -3.4 -4.8 0  -3.3 -4.8 0  -3.2 -4.8 0  -3.1 -4.8 0  -3 -4.8 0  -2.9 -4.8 0  -2.8 -4.8 0  -2.7 -4.8 0  -2.6 -4.8 0  -2.5 -4.8 0  -2.4 -4.8 0  -2.3 -4.8 0  -2.2 -4.8 0  -2.1 -4.8 0  -2 -4.8 0  -1.9 -4.8 0  -1.8 -4.8 0  -1.7 -4.8 0  -1.6 -4.8 0  -1.5 -4.8 0  -1.4 -4.8 0  -1.3 -4.8 0  -1.2 -4.8 0  -1.1 -4.8 0  -1 -4.8 0  -0.9000000000000004 -4.8 0  -0.7999999999999998 -4.8 0  -0.7000000000000002 -4.8 0  -0.5999999999999996 -4.8 0  -0.5 -4.8 0  -0.4000000000000004 -4.8 0  -0.2999999999999998 -4.8 0  -0.2000000000000002 -4.8 0  -0.09999999999999964 -4.8 0  0 -4.8 0  0.09999999999999964 -4.8 0  0.2000000000000002 -4.8 0  0.2999999999999998 -4.8 0  0.4000000000000004 -4.8 0  0.5 -4.8 0  0.5999999999999996 -4.8 0  0.7000000000000002 -4.8 0  0.7999999999999998 -4.8 0  0.9000000000000004 -4.8 0  1 -4.8 0  1.1 -4.8 0  1.2 -4.8 0  1.3 -4.8 0  1.4 -4.8 0  1.5 -4.8 0  1.6 -4.8 0  1.7 -4.8 0  1.8 -4.8 0  1.9 -4.8 0  2 -4.8 0  2.1 -4.8 0  2.2 -4.8 0  2.3 -4.8 0  2.4 -4.8 0  2.5 -4.8 0  2.6 -4.8 0  2.7 -4.8 0  2.8 -4.8 0  2.9 -4.8 0  3 -4.8 0  3.1 -4.8 0  3.199999999999999 -4.8 0  3.300000000000001 -4.8 0  3.4 -4.8 0  3.5 -4.8 0  3.6 -4.8 0  3.699999999999999 -4.8 0  3.800000000000001 -4.8 0  3.9 -4.8 0  4 -4.8 0  4.1 -4.8 0  4.199999999999999 -4.8 0  4.300000000000001 -4.8 0  4.4 -4.8 0  4.5 -4.8 0  4.6 -4.8 0  4.699999999999999 -4.8 0  4.800000000000001 -4.8 0  4.9 -4.8 0  5 -4.8 0  -5 -4.7 0  -4.9 -4.7 0  -4.8 -4.7 0  -4.7 -4.7 0  -4.6 -4.7 0  -4.5 -4.7 0  -4.4 -4.7 0  -4.3 -4.7 0  -4.2 -4.7 0  -4.1 -4.7 0  -4 -4.7 0  -3.9 -4.7 0  -3.8 -4.7 0  -3.7 -4.7 0  -3.6 -4.7 0  -3.5 -4.7 0  -3.4 -4.7 0  -3.3 -4.7 0  -3.2 -4.7 0  -3.1 -4.7 0  -3 -4.7 0  -2.9 -4.7 0  -2.8 -4.7 0  -2.7 -4.7 0  -2.6 -4.7 0  -2.5 -4.7 0  -2.4 -4.7 0  -2.3 -4.7 0  -2.2 -4.7 0  -2.1 -4.7 0  -2 -4.7 0  -1.9 -4.7 0  -1.8 -4.7 0  -1.7 -4.7 0  -1.6 -4.7 0  -1.5 -4.7 0  -1.4 -4.7 0  -1.3 -4.7 0  -1.2 -4.7 0  -1.1 -4.7 0  -1 -4.7 0  -0.9000000000000004 -4.7 0  -0.7999999999999998 -4.7 0  -0.7000000000000002 -4.7 0  -0.5999999999999996 -4.7 0  -0.5 -4.7 0  -0.4000000000000004 -4.7 0  -0.2999999999999998 -4.7 0  -0.2000000000000002 -4.7 0  -0.09999999999999964 -4.7 0  0 -4.7 0  0.09999999999999964 -4.7 0  0.2000000000000002 -4.7 0  0.2999999999999998 -4.7 0  0.4000000000000004 -4.7 0  0.5 -4.7 0  0.5999999999999996 -4.7 0  0.7000000000000002 -4.7 0  0.7999999999999998 -4.7 0  0.9000000000000004 -4.7 0  1 -4.7 0  1.1 -4.7 0  1.2 -4.7 0  1.3 -4.7 0  1.4 -4.7 0  1.5 -4.7 0  1.6 -4.7 0  1.7 -4.7 0  1.8 -4.7 0  1.9 -4.7 0  2 -4.7 0  2.1 -4.7 0  2.2 -4.7 0  2.3 -4.7 0  2.4 -4.7 0  2.5 -4.7 0  2.6 -4.7 0  2.7 -4.7 0  2.8 -4.7 0  2.9 -4.7 0  3 -4.7 0  3.1 -4.7 0  3.199999999999999 -4.7 0  3.300000000000001 -4.7 0  3.4 -4.7 0  3.5 -4.7 0  3.6 -4.7 0  3.699999999999999 -4.7 0  3.800000000000001 -4.7 0  3.9 -4.7 0  4 -4.7 0  4.1 -4.7 0  4.199999999999999 -4.7 0  4.300000000000001 -4.7 0  4.4 -4.7 0  4.5 -4.7 0  4.6 -4.7 0  4.699999999999999 -4.7 0  4.800000000000001 -4.7 0  4.9 -4.7 0  5 -4.7 0  -5 -4.6 0  -4.9 -4.6 0  -4.8 -4.6 0  -4.7 -4.6 0  -4.6 -4.6 0  -4.5 -4.6 0  -4.4 -4.6 0  -4.3 -4.6 0  -4.2 -4.6 0  -4.1 -4.6 0  -4 -4.6 0  -3.9 -4.6 0  -3.8 -4.6 0  -3.7 -4.6 0  -3.6 -4.6 0  -3.5 -4.6 0  -3.4 -4.6 0  -3.3 -4.6 0  -3.2 -4.6 0  -3.1 -4.6 0  -3 -4.6 0  -2.9 -4.6 0  -2.8 -4.6 0  -2.7 -4.6 0  -2.6 -4.6 0  -2.5 -4.6 0  -2.4 -4.6 0  -2.3 -4.6 0  -2.2 -4.6 0  -2.1 -4.6 0  -2 -4.6 0  -1.9 -4.6 0  -1.8 -4.6 0  -1.7 -4.6 0  -1.6 -4.6 0  -1.5 -4.6 0  -1.4 -4.6 0  -1.3 -4.6 0  -1.2 -4.6 0  -1.1 -4.6 0  -1 -4.6 0  -0.9000000000000004 -4.6 0  -0.7999999999999998 -4.6 0  -0.7000000000000002 -4.6 0  -0.5999999999999996 -4.6 0  -0.5 -4.6 0  -0.4000000000000004 -4.6 0  -0.2999999999999998 -4.6 0  -0.2000000000000002 -4.6 0  -0.09999999999999964 -4.6 0  0 -4.6 0  0.09999999999999964 -4.6 0  0.2000000000000002 -4.6 0  0.2999999999999998 -4.6 0  0.4000000000000004 -4.6 0  0.5 -4.6 0  0.5999999999999996 -4.6 0  0.7000000000000002 -4.6 0  0.7999999999999998 -4.6 0  0.9000000000000004 -4.6 0  1 -4.6 0  1.1 -4.6 0  1.2 -4.6 0  1.3 -4.6 0  1.4 -4.6 0  1.5 -4.6 0  1.6 -4.6 0  1.7 -4.6 0  1.8 -4.6 0  1.9 -4.6 0  2 -4.6 0  2.1 -4.6 0  2.2 -4.6 0  2.3 -4.6 0  2.4 -4.6 0  2.5 -4.6 0  2.6 -4.6 0  2.7 -4.6 0  2.8 -4.6 0  2.9 -4.6 0  3 -4.6 0  3.1 -4.6 0  3.199999999999999 -4.6 0  3.300000000000001 -4.6 0  3.4 -4.6 0  3.5 -4.6 0  3.6 -4.6 0  3.699999999999999 -4.6 0  3.800000000000001 -4.6 0  3.9 -4.6 0  4 -4.6 0  4.1 -4.6 0  4.199999999999999 -4.6 0  4.300000000000001 -4.6 0  4.4 -4.6 0  4.5 -4.6 0  4.6 -4.6 0  4.699999999999999 -4.6 0  4.800000000000001 -4.6 0  4.9 -4.6 0  5 -4.6 0  -5 -4.5 0  -4.9 -4.5 0  -4.8 -4.5 0  -4.7 -4.5 0  -4.6 -4.5 0  -4.5 -4.5 0  -4.4 -4.5 0  -4.3 -4.5 0  -4.2 -4.5 0  -4.1 -4.5 0  -4 -4.5 0  -3.9 -4.5 0  -3.8 -4.5 0  -3.7 -4.5 0  -3.6 -4.5 0  -3.5 -4.5 0  -3.4 -4.5 0  -3.3 -4.5 0  -3.2 -4.5 0  -3.1 -4.5 0  -3 -4.5 0  -2.9 -4.5 0  -2.8 -4.5 0  -2.7 -4.5 0  -2.6 -4.5 0  -2.5 -4.5 0  -2.4 -4.5 0  -2.3 -4.5 0  -2.2 -4.5 0  -2.1 -4.5 0  -2 -4.5 0  -1.9 -4.5 0  -1.8 -4.5 0  -1.7 -4.5 0  -1.6 -4.5 0  -1.5 -4.5 0  -1.4 -4.5 0  -1.3 -4.5 0  -1.2 -4.5 0  -1.1 -4.5 0  -1 -4.5 0  -0.9000000000000004 -4.5 0  -0.7999999999999998 -4.5 0  -0.7000000000000002 -4.5 0  -0.5999999999999996 -4.5 0  -0.5 -4.5 0  -0.4000000000000004 -4.5 0  -0.2999999999999998 -4.5 0  -0.2000000000000002 -4.5 0  -0.09999999999999964 -4.5 0  0 -4.5 0  0.09999999999999964 -4.5 0  0.2000000000000002 -4.5 0  0.2999999999999998 -4.5 0  0.4000000000000004 -4.5 0  0.5 -4.5 0  0.5999999999999996 -4.5 0  0.7000000000000002 -4.5 0  0.7999999999999998 -4.5 0  0.9000000000000004 -4.5 0  1 -4.5 0  1.1 -4.5 0  1.2 -4.5 0  1.3 -4.5 0  1.4 -4.5 0  1.5 -4.5 0  1.6 -4.5 0  1.7 -4.5 0  1.8 -4.5 0  1.9 -4.5 0  2 -4.5 0  2.1 -4.5 0  2.2 -4.5 0  2.3 -4.5 0  2.4 -4.5 0  2.5 -4.5 0  2.6 -4.5 0  2.7 -4.5 0  2.8 -4.5 0  2.9 -4.5 0  3 -4.5 0  3.1 -4.5 0  3.199999999999999 -4.5 0  3.300000000000001 -4.5 0  3.4 -4.5 0  3.5 -4.5 0  3.6 -4.5 0  3.699999999999999 -4.5 0  3.800000000000001 -4.5 0  3.9 -4.5 0  4 -4.5 0  4.1 -4.5 0  4.199999999999999 -4.5 0  4.300000000000001 -4.5 0  4.4 -4.5 0  4.5 -4.5 0  4.6 -4.5 0  4.699999999999999 -4.5 0  4.800000000000001 -4.5 0  4.9 -4.5 0  5 -4.5 0  -5 -4.4 0  -4.9 -4.4 0  -4.8 -4.4 0  -4.7 -4.4 0  -4.6 -4.4 0  -4.5 -4.4 0  -4.4 -4.4 0  -4.3 -4.4 0  -4.2 -4.4 0  -4.1 -4.4 0  -4 -4.4 0  -3.9 -4.4 0  -3.8 -4.4 0  -3.7 -4.4 0  -3.6 -4.4 0  -3.5 -4.4 0  -3.4 -4.4 0  -3.3 -4.4 0  -3.2 -4.4 0  -3.1 -4.4 0  -3 -4.4 0  -2.9 -4.4 0  -2.8 -4.4 0  -2.7 -4.4 0  -2.6 -4.4 0  -2.5 -4.4 0  -2.4 -4.4 0  -2.3 -4.4 0  -2.2 -4.4 0  -2.1 -4.4 0  -2 -4.4 0  -1.9 -4.4 0  -1.8 -4.
[...]
<PointData  Vectors="f_17"> 
<DataArray  type="Float64"  Name="f_17"  NumberOfComponents="3" format="ascii">1.5000059175203007e-01 0.0000000000000000e+00 0.0000000000000000e+00  1.5000013190118366e-01 -1.3741756261576432e-06 0.0000000000000000e+00  1.5000116504904534e-01 -5.2231623322688590e-07 0.0000000000000000e+00  1.5000143205115476e-01 -3.1269442992356754e-06 0.0000000000000000e+00  1.5000316344750192e-01 -2.9628560386231384e-06 0.0000000000000000e+00  1.5000444071428679e-01 -6.1847802767870999e-06 0.0000000000000000e+00  1.5000693234200141e-01 -5.9471978515366931e-06 0.0000000000000000e+00  1.5000831030333475e-01 -6.9230929927294629e-06 0.0000000000000000e+00  1.5000924195897439e-01 -1.2954843793624525e-06 0.0000000000000000e+00  1.5000661675654223e-01 7.7195578746422729e-06 0.0000000000000000e+00  1.5000043004762767e-01 2.5716041765954857e-05 0.0000000000000000e+00  1.4998923300669717e-01 4.6788923057945176e-05 0.0000000000000000e+00  1.4997570313024516e-01 6.7713763544068690e-05 0.0000000000000000e+00  1.4996272929020085e-01 7.5097971509050890e-05 0.0000000000000000e+00  1.4995645263581320e-01 6.3196572828906429e-05 0.0000000000000000e+00  1.4995967886235992e-01 2.9649174207937647e-05 0.0000000000000000e+00  1.4997107445193575e-01 -1.4564803669988841e-05 0.0000000000000000e+00  1.4998462182532735e-01 -5.2524582458102380e-05 0.0000000000000000e+00  1.4999436777327840e-01 -6.7567220849882936e-05 0.0000000000000000e+00  1.4999596080850985e-01 -5.9822252345016286e-05 0.0000000000000000e+00  1.4999102965509406e-01 -4.0238734152668186e-05 0.0000000000000000e+00  1.4998557327354553e-01 -1.8871907388670769e-05 0.0000000000000000e+00  1.4998304716325694e-01 -4.4006786790326602e-06 0.0000000000000000e+00  1.4998385628602290e-01 -6.4984497621978375e-06 0.0000000000000000e+00  1.4999009234077137e-01 -1.9317626327169194e-05 0.0000000000000000e+00  1.4999820981173437e-01 -1.9823855235433159e-05 0.0000000000000000e+00  1.4999730450100629e-01 3.0102864102246383e-07 0.0000000000000000e+00  1.4998944998972455e-01 1.7554415283278491e-05 0.0000000000000000e+00  1.4999154317814142e-01 8.7864637193197336e-06 0.0000000000000000e+00  1.5000368225378602e-01 -1.2307750307464789e-05 0.0000000000000000e+00  1.5000629055196779e-01 -1.1132847243325665e-05 0.0000000000000000e+00  1.4999662355430599e-01 1.2523476551139030e-05 0.0000000000000000e+00  1.4999340614806003e-01 1.5195285008706478e-05 0.0000000000000000e+00  1.5000281275894506e-01 -1.4949476982520078e-05 0.0000000000000000e+00  1.5000907936900268e-01 -2.2100924414133306e-05 0.0000000000000000e+00  1.5000070016979586e-01 1.6266213393682204e-05 0.0000000000000000e+00  1.4999020324769521e-01 2.9596896990859762e-05 0.0000000000000000e+00  1.4999675853472008e-01 -1.4263786636289365e-05 0.0000000000000000e+00  1.5001062656373740e-01 -3.2561828531110848e-05 0.0000000000000000e+00  1.5000556560737821e-01 1.1937871678546824e-05 0.0000000000000000e+00  1.4999030058523583e-01 3.1088642489566796e-05 0.0000000000000000e+00  1.4999419815025763e-01 -9.3708835035696478e-06 0.0000000000000000e+00  1.5000772506602861e-01 -2.4729604413126350e-05 0.0000000000000000e+00  1.5000448081496065e-01 7.7627209839028488e-06 0.0000000000000000e+00  1.4999501602252999e-01 1.5953161234495534e-05 0.0000000000000000e+00  1.4999730352862781e-01 -6.3435811648802320e-06 0.0000000000000000e+00  1.5000202088618531e-01 -7.2196157652848011e-06 0.0000000000000000e+00  1.5000166454764671e-01 4.1075480079123632e-06 0.0000000000000000e+00  1.5000055173791202e-01 5.0907142899718344e-07 0.0000000000000000e+00  1.4999818243178745e-01 -7.6330408764585147e-07 0.0000000000000000e+00  1.4999799818588300e-01 3.0545696869495954e-06 0.0000000000000000e+00  1.5000278977317055e-01 -2.9101032016143991e-06 0.0000000000000000e+00  1.5000195703761690e-01 -3.3157710792189583e-06 0.0000000000000000e+00  1.4999629395242753e-01 5.6035635450191923e-06 0.0000000000000000e+00  1.4999930398251279e-01 1.1821264115911226e-06 0.0000000000000000e+00  1.5000377312636573e-01 -6.2799673921283012e-06 0.0000000000000000e+00  1.4999905162293264e-01 1.7129641543283082e-06 0.0000000000000000e+00  1.4999722510756053e-01 4.8150237672369168e-06 0.0000000000000000e+00  1.5000205673606704e-01 -3.7320051374366378e-06 0.0000000000000000e+00  1.5000116616121872e-01 -2.0962134105209554e-06 0.0000000000000000e+00  1.4999785486022318e-01 3.9888026517205551e-06 0.0000000000000000e+00  1.5000027583000600e-01 -4.8759617186254845e-07 0.0000000000000000e+00  1.5000138370282412e-01 -2.6929509449684138e-06 0.0000000000000000e+00  1.4999902212438557e-01 1.8600255002667895e-06 0.0000000000000000e+00  1.4999962643462472e-01 8.3015030073598209e-07 0.0000000000000000e+00  1.5000088261395852e-01 -1.7858821136418999e-06 0.0000000000000000e+00  1.4999969593185339e-01 5.3301226605559071e-07 0.0000000000000000e+00  1.4999962247291987e-01 8.5917730774148419e-07 0.0000000000000000e+00  1.5000044323869313e-01 -9.1038077738002963e-07 0.0000000000000000e+00  1.4999993865412389e-01 4.5163988910014330e-08 0.0000000000000000e+00  1.4999976399584963e-01 5.6544138658440531e-07 0.0000000000000000e+00  1.5000021088337470e-01 -4.4464399909224458e-07 0.0000000000000000e+00  1.4999998373060988e-01 -1.4640521499290294e-08 0.0000000000000000e+00  1.4999989027482516e-01 2.6947464114817808e-07 0.0000000000000000e+00  1.5000008927772948e-01 -1.7722489818086393e-07 0.0000000000000000e+00  1.5000000050948489e-01 -4.9925626074209033e-08 0.0000000000000000e+00  1.4999993914606818e-01 1.7686189273876048e-07 0.0000000000000000e+00  1.5000005945713193e-01 -1.4735929918305154e-07 0.0000000000000000e+00  1.4999997572376836e-01 4.9194847286019368e-08 0.0000000000000000e+00  1.4999999481476725e-01 1.6597252559362086e-08 0.0000000000000000e+00  1.5000001093511262e-01 -1.4778009807651449e-08 0.0000000000000000e+00  1.5000000178367723e-01 -2.9896307188390531e-08 0.0000000000000000e+00  1.4999998113012888e-01 7.6703322979489801e-08 0.0000000000000000e+00  1.5000003002579543e-01 -1.0206900930953602e-07 0.0000000000000000e+00  1.4999996706128696e-01 1.0612223381136540e-07 0.0000000000000000e+00  1.5000003105130966e-01 -1.0217931255966095e-07 0.0000000000000000e+00  1.4999997070705798e-01 1.0350271070516658e-07 0.0000000000000000e+00  1.5000003078710999e-01 -1.1554279352176831e-07 0.0000000000000000e+00  1.4999996434279439e-01 1.3507987024681827e-07 0.0000000000000000e+00  1.5000004172175133e-01 -1.5397581639757124e-07 0.0000000000000000e+00  1.4999995384928552e-01 1.6424030489153681e-07 0.0000000000000000e+00  1.5000004697792732e-01 -1.6164136777677357e-07 0.0000000000000000e+00  1.4999995613062780e-01 1.4685390893145874e-07 0.0000000000000000e+00  1.5000003767359577e-01 -1.2367687892161646e-07 0.0000000000000000e+00  1.4999996960295439e-01 9.7948951566525857e-08 0.0000000000000000e+00  1.5000002256338668e-01 -7.2584802217835719e-08 0.0000000000000000e+00  1.4999998268439141e-01 5.2649709256220057e-08 0.0000000000000000e+00  1.5000001079271691e-01 -3.4264606139342501e-08 0.0000000000000000e+00  1.4999998949444590e-01 2.3074979295695886e-08 0.0000000000000000e+00  1.5000000432480365e-01 -1.0824770897157697e-08 0.0000000000000000e+00  1.4999998974106915e-01 0.0000000000000000e+00 0.0000000000000000e+00  1.5000013190118369e-01 0.0000000000000000e+00 -1.3741756261196470e-06  1.4999937923860773e-01 3.3564039850715044e-08 3.3564040237392029e-08  1.4999952195143143e-01 1.7280431062987732e-06 -1.6918674403186461e-06  1.4999836206383788e-01 1.2047769001261539e-06 -1.8935077597865741e-06  1.4999778007300188e-01 4.0461725925776451e-06 -4.3569110886220603e-06  1.4999567916588091e-01 4.1665481996343945e-06 -5.8425594269611026e-06  1.4999415504356117e-01 7.2526339264753484e-06 -9.3689297362031859e-06  1.4999162853248346e-01 6.3078707764753990e-06 -1.0948729762247423e-05  1.4999082733183064e-01 5.3180391418621772e-06 -1.2761691446505274e-05  1.4999118778111745e-01 -3.4836185996629323e-06 -1.0026416318147979e-05  1.4999602268617790e-01 -1.6214857215339233e-05 -4.6747086696219258e-06  1.5000443565305702e-01 -3.7164965584724541e-05 5.9638320756683987e-06  1.5001700687323097e-01 -5.7820881800518074e-05 1.6240070822160030e-05  1.5002974437223368e-01 -7.2721247294182226e-05 2.4041283202981190e-05  1.5003916267254749e-01 -6.9217160193488857e-05 2.2000254575186516e-05  1.5003990806780373e-01 -4.6390039376123403e-05 1.0147047732521992e-05  1.5003247412306517e-01 -7.1970608651309021e-06 -7.9380044931447928e-06  1.5002065015150845e-01 3.3130437594682085e-05 -2.0626813740878353e-05  1.5001048681453330e-01 5.8576403324385327e-05 -2.1462538180240209e-05  1.5000604440687385e-01 6.0688393437811389e-05 -9.5424073483176859e-06  1.5000861748185768e-01 4.7888993186903128e-05 7.2152787542474971e-06  1.5001362845261601e-01 2.9800429096763776e-05 1.8914402126592877e-05  1.5001646961986262e-01 1.2887411515142328e-05 2.1219851456045509e-05  1.5001691205580880e-01 6.4974725690265197e-06 1.8739977985421841e-05  1.5001413403753433e-01 1.4802146910447957e-05 1.3606555799617755e-05  1.5000673366355438e-01 2.1195368641789234e-05 7.2176548288339763e-06  1.5000242403861866e-01 9.0825388256242899e-06 8.9578339967642618e-06  1.5000770200775468e-01 -9.8649089022233826e-06 1.9208139358987207e-05  1.5001088573738472e-01 -1.1851220684930579e-05 1.6732756638733701e-05  1.5000159090158993e-01 3.4454724079921901e-06 -3.2790057109902447e-06  1.4999350791440130e-01 1.1802339437997683e-05 -1.0687922307121551e-05  1.4999924807422793e-01 -1.6178416091210603e-06 5.3044291754786567e-06  1.5000624523487918e-01 -1.5011502544433423e-05 1.2304192941020936e-05  1.5000132022753565e-01 3.3206916521164529e-07 -4.5492383376687817e-06  1.4999294325613124e-01 2.1230992068693964e-05 -1.5136553075388566e-05  1.4999498217091167e-01 2.8643006648479089e-06 -3.9396487904894361e-07  1.5000540279662208e-01 -2.7438179976677337e-05 1.4858398679612846e-05  1.5000757823419317e-01 -8.1801042721137092e-06 4.8495423127240328e-06  1.4999556375857179e-01 2.9244621203416458e-05 -1.4005417037528309e-05  1.4998987120157520e-01 1.1300747512867633e-05 -9.5137034525627241e-06  1.5000276092410314e-01 -2.7936817607289297e-05 1.0550296817311168e-05  1.5001035890355227e-01 -1.2187870858286083e-05 1.1320583958393868e-05  1.4999835123441324e-01 2.3160230433021573e-05 -6.1338979885585121e-06  1.4999127762083395e-01 9.8472032244101268e-06 -1.0632132615066761e-05  1.5000086635860654e-01 -1.7001076204346400e-05 1.5869704549573024e-06  1.5000603755042419e-01 -5.9284650531326253e-06 8.8818611605170164e-06  1.4999994744177322e-01 1.0670719909967039e-05 2.2918626314959472e-06  1.4999646851754284e-01 2.3525155718605539e-06 -7.8990417005880071e-06  1.4999891900361773e-01 -4.9533857443444178e-06 -4.9687603459351941e-06  1.5000201626903251e-01 -4.4267168665227790e-07 8.2793534499397093e-06  1.5000219702558396e-01 4.6040913015010779e-07 5.6327562563446376e-06  1.4999823914831817e-01 4.5306846881881200e-07 -9.4875595919592581e-06  1.4999729479473972e-01 2.2092637070915832e-06 -3.9644588795125341e-06  1.5000235103000320e-01 -1.7596149492146153e-06 1.0179888224004432e-05  1.5000222873449742e-01 -2.8062713457414120e-06 5.9362462716904543e-07  1.4999701884285380e-01 3.2491909476535952e-06 -9.1722831014735988e-06  1.4999905769916838e-01 1.6967446164328381e-06 2.9572808774590135e-06  1.5000295683032724e-01 -3.8942736870996323e-06 6.2582803689073466e-06  1.4999949260864176e-01 1.8352891825131194e-07 -5.0649134381406221e-06  1.4999789040911388e-01 3.2658412166407687e-06 -2.4193429798912887e-06  1.5000141670269374e-01 -1.7275054459416782e-06 4.9441508771316734e-06  1.5000084046694481e-01 -1.7147939649297876e-06 -7.9668636433700690e-07  1.4999852960896365e-01 2.2207495628288617e-06 -3.0694255935294547e-06  1.5000022533126653e-01 6.6428940805174908e-08 2.2781305457113527e-06  1.5000088105671600e-01 -1.6474771602301965e-06 7.5763694535056876e-07  1.4999932264981439e-01 9.1771898913804093e-07 -1.9841073018479015e-06  1.4999983624527982e-01 5.8473247500490374e-07 7.4586929275745817e-07  1.5000054197936966e-01 -9.8366416126942097e-07 8.0617555947374401e-07  1.4999975206778993e-01 2.3216136363277763e-07 -1.0191770960665224e-06  1.4999982275594839e-01 5.0852561645233089e-07 1.9163586013732591e-07  1.5000028179920483e-01 -5.1734340325583562e-07 5.0749086499332370e-07  1.4999990102363242e-01 6.0196852162729745e-08 -4.9798876626656471e-07  1.4999990911824454e-01 2.6024773190355412e-07 6.9915726299446728e-08  1.5000012073714658e-01 -2.0638948683595725e-07 2.4445523672099670e-07  1.4999996775473912e-01 -3.0782274342227845e-08 -2.3096128628117566e-07  1.4999994599905811e-01 1.8162628666338219e-07 3.1485995010810698e-08  1.5000007305889340e-01 -1.6075224527116013e-07 1.2664616477599411e-07  1.4999995959625484e-01 5.5777278129264354e-08 -1.4363316040829659e-07  1.5000000211893130e-01 1.8808631389539889e-08 6.4266582744835148e-08  1.5000001272903452e-01 -1.9731975304974570e-08 1.8265795288045975e-08  1.4999999648033507e-01 -2.7062411770813726e-08 -4.7361961128796053e-08  1.4999998467365400e-01 7.6440441543185235e-08 2.4078215779605622e-08  1.5000003025389996e-01 -1.0224259229614515e-07 1.8323812907823587e-08  1.4999996411041180e-01 1.0448085835788820e-07 -4.8254586762299991e-08  1.5000003433281819e-01 -9.7381782043914206e-08 5.4080443454817601e-08  1.4999996906107058e-01 9.5045981151564595e-08 -4.3329381801793688e-08  1.5000003019012675e-01 -1.0337451325733768e-07 3.1298377480608544e-08  1.4999996655012607e-01 1.1923441708126455e-07 -2.9469309961759219e-08  1.5000003899983505e-01 -1.3435991315477999e-07 4.0057303717657141e-08  1.4999995630959526e-01 1.4068801077953859e-07 -5.7422971914402009e-08  1.5000004493289520e-01 -1.3429765064929899e-07 7.3208717900946141e-08  1.4999995811519989e-01 1.1643334204497801e-07 -8.1197136637145872e-08  1.5000003549267610e-01 -9.2014216849890991e-08 7.9609388609964836e-08  1.4999997250079350e-01 6.6571014820023984e-08 -7.0222150003632216e-08  1.5000001997203921e-01 -4.4926740180588476e-08 5.7308944063900102e-08  1.4999998674089943e-01 2.7894644861249348e-08 -4.2842669014771228e-08  1.5000000948070685e-01 -1.7779508259493695e-08 3.2519769330324941e-08  1.4999999525725144e-01 9.3095938893194438e-09 -1.9819577114866031e-08  1.5000000540464484e-01 -7.5394647862633638e-09 1.7980329749539262e-08  1.5000000019685561e-01 4.3919347948219979e-09 -4.3919337319252468e-09  1.5000000432480357e-01 0.0000000000000000e+00 1.0824771380050238e-08  1.5000116504904520e-01 0.0000000000000000e+00 -5.2231623254613643e-07  1.4999952195143162e-01 -1.6918674395453984e-06 1.7280431060940127e-06  1.5000130159215394e-01 7.4241654245202289e-07 7.4241654392174237e-07  1.5000060514210406e-01 -3.7136186804552301e-06 4.2092025642760564e-06  1.5000291525953366e-01 -9.9081782908109376e-07 4.8293265018110120e-06  1.5000315966319080e-01 -6.9504465582573118e-06 1.0660457885602497e-05  1.5000658644897172e-01 -4.5469679751570122e-06 1.3548065555071640e-05  1.5000764356635540e-01 -1.0132490137446111e-05 2.1132121025179848e-05  1.5001090786521887e-01 -5.3369967623805022e-06 2.3183272784375862e-05  1.5001022026451424e-01 -4.2843738989934731e-06 2.6194387294028953e-05  1.5000895361610081e-01 1.0487246744128586e-05 1.8669391092752307e-05  1.5000125990299193e-01 2.4725655236285539e-05 7.5304119436813547e-06  1.4999168998056353e-01 4.9607943858222497e-05 -1.2903604134702996e-05  1.4997838068995034e-01 6.6340135710437237e-05 -2.9030388506733760e-05  1.4996832866121734e-01 7.4824877036570349e-05 -3.9259493616957996e-05  1.4996330945341271e-01 5.9628755515162570e-05 -2.9721321578416564e-05  1.4996799232258837e-01 2.9668899715229996e-05 -6.2621264330168672e-06  1.4997715733218583e-01 -1.1613556278581603e-05 2.1798440225910969e-05  1.4998685642638215e-01 -4.3873791676345443e-05 3.4281574401456025e-05  1.4999182128646016e-01 -5.7321740444840772e-05 2.7227302333969663e-05  1.4999112218776001e-01 -5.1098514352454296e-05 2.8842139513793477e-06  1.4998613952250800e-01 -3.8327065611425981e-05 -2.2694431906584810e-05  1.4998267940003648e-01 -2.2373939469864486e-05 -3.6214865702344543e-05  1.4998160500540808e-01 -9.4130219535073217e-06 -3.8222779789812258e-05  1.4998182233465987e-01 -1.0472889546971113e-05 -3.7165757268285223e-05  1.4998633971441738e-01 -2.1611405485682263e-05 -2.8106505658580171e-05  1.4999374904603477e-01 -1.8962925318323241e-05 -1.7046976470444005e-05  1.4999312972971940e-01 8.2075142327701642e-07 -2.5954933404094907e-05  1.4998695772344625e-01 1.2052842536050029e-05 -4.0367766855785098e-05  1.4999207281519641e-01 1.4239801857285312e-06 -1.9362982617684711e-05  1.5000479664920999e-01 -1.1898431701079883e-05 1.5729134759524030e-05  1.5000441893902694e-01 -5.7265093007462204e-06 8.5316314925521097e-06  1.4999456741133779e-01 1.1949796190613504e-05 -2.0372672294388733e-05  1.4999550834386507e-01 9.4130235619353206e-06 -1.0996853768378887e-05  1.5000531268661876e-01 -1.5627181342571867e-05 2.0753870314709785e-05  1.5000717870093996e-01 -1.6892341435096525e-05 1.8714648176855241e-05  1.4999846975779202e-01 1.8099084280040274e-05 -1.2602944537952993e-05  1.4999189020080303e-01 2.5576998611147807e-05 -2.2705315347186420e-05  1.4999852049584703e-01 -1.6585966028511458e-05 4.5678718556080739e-06  1.5000964842874084e-01 -2.9905607418262318e-05 2.6737124304240883e-05  1.5000496515878833e-01 1.4140001445815469e-05 5.6855547287570903e-06  1.4999069270075574e-01 3.0262295672129544e-05 -2.5063331616916914e-05  1.4999345343818546e-01 -1.0373315182264891e-05 -1.2666101628764388e-05  1.5000792083831008e-01 -2.5616315207177935e-05 1.9821793900432484e-05  1.5000655663881154e-01 7.2536196204663720e-06 1.6399108964975057e-05  1.4999416071109481e-01 1.8500051961837186e-05 -1.3247798606829769e-05  1.4999425386380374e-01 -4.6991849282554027e-06 -1.8113920762751930e-05  1.5000381247992969e-01 -1.1358596943082603e-05 8.3653179322170459e-06  1.5000512620734890e-01 2.2238581590501121e-06 1.9534182071153838e-05  1.4999765288084194e-01 5.9719637373863646e-06 -6.6166687183222799e-06  1.4999511335011564e-01 3.4132182931504322e-07 -2.0131794163380641e-05  1.5000188410565851e-01 -3.0584933044860524e-06 8.3678331136332510e-06  1.5000466024909215e-01 -2.4598583000546763e-06 1.8468939966008078e-05  1.4999765312498844e-01 2.4431522553297324e-06 -1.2028456506161495e-05  1.4999611466400520e-01 3.4056411998835783e-06 -1.3505439016141579e-05  1.5000314758859370e-01 -3.1801358881441349e-06 1.4875731592375568e-05  1.5000237190115787e-01 -2.8305845163255717e-06 6.0415855791596761e-06  1.4999649921761499e-01 3.9985255840209501e-06 -1.4504070889210406e-05  1.4999949921767150e-01 1.0969410153870708e-06 1.4249483799253066e-06  1.5000294913102999e-01 -3.9060174202810460e-06 1.0435026123851437e-05  1.4999899622099178e-01 8.3742042440840307e-07 -6.1097976121318607e-06  1.4999833314256808e-01 2.7000202287146244e-06 -4.4466506816896604e-06  1.5000159235704522e-01 -2.0045610668255880e-06 6.7177533220278760e-06  1.5000028995452330e-01 -9.4648774680588809e-07 -6.8166756629418847e-07  1.4999874256968102e-01 1.9859435686268018e-06 -4.1814751920451404e-06  1.5000056097284223e-01 -4.9712910653928459e-07 3.0009695810952516e-06  1.5000047442386202e-01 -1.0546651559398398e-06 8.6612300285322705e-07  1.4999933818802455e-01 9.7237206898962173e-07 -2.5183147723709084e-06  1.5000012894192619e-01 1.0798890129535089e-07 1.1393916587957928e-06  1.5000034060823689e-01 -7.5989835668899046e-07 8.1905566640721567e-07  1.4999966083124552e-01 5.1815086150085865e-07 -1.3283478522837120e-06  1.5000005834367927e-01 4.8088614238406241e-08 4.9978756332760064e-07  1.5000014355634483e-01 -2.9557369579857425e-07 4.1742267971882368e-07  1.4999987184151789e-01 1.2491282050517218e-07 -6.1377652378913530e-07  1.4999999523715465e-01 1.6335352097318871e-07 2.1287205459718828e-07  1.5000010577816261e-01 -2.9570498891268136e-07 2.3612052699123647e-07  1.4999988569290904e-01 2.3550636080457629e-07 -3.7615153819816083e-07  1.5000006291368909e-01 -1.0702333342628590e-07 2.2760918215651640e-07  1.4999998789115795e-01 3.3262117532291860e-08 -8.3640333390496701e-09  1