<?xml version="1.0"?>
<VTKFile type="UnstructuredGrid"  version="0.1"  >
<UnstructuredGrid>
<Piece  NumberOfPoints="10201" NumberOfCells="20000">
<Points>
<DataArray  type="Float64"  NumberOfComponents="3"  format="ascii">-5 -5 0  -4.9 -5 0  -4.8 -5 0  -4.7 -5 0  -4.6 -5 0  -4.5 -5 0  -4.4 -5 0  -4.3 -5 0  -4.2 -5 0  -4.1 -5 0  -4 -5 0  -3.9 -5 0  -3.8 -5 0  -3.7 -5 0  -3.6 -5 0  -3.5 -5 0  -3.4 -5 0  -3.3 -5 0  -3.2 -5 0  -3.1 -5 0  -3 -5 0  -2.9 -5 0  -2.8 -5 0  -2.7 -5 0  -2.6 -5 0  -2.5 -5 0  -2.4 -5 0  -2.3 -5 0  -2.2 -5 0  -2.1 -5 0  -2 -5 0  -1.9 -5 0  -1.8 -5 0  -1.7 -5 0  -1.6 -5 0  -1.5 -5 0  -1.4 -5 0  -1.3 -5 0  -1.2 -5 0  -1.1 -5 0  -1 -5 0  -0.9000000000000004 -5 0  -0.7999999999999998 -5 0  -0.7000000000000002 -5 0  -0.5999999999999996 -5 0  -0.5 -5 0  -0.4000000000000004 -5 0  -0.2999999999999998 -5 0  -0.2000000000000002 -5 0  -0.09999999999999964 -5 0  0 -5 0  0.09999999999999964 -5 0  0.2000000000000002 -5 0  0.2999999999999998 -5 0  0.4000000000000004 -5 0  0.5 -5 0  0.5999999999999996 -5 0  0.7000000000000002 -5 0  0.7999999999999998 -5 0  0.9000000000000004 -5 0  1 -5 0  1.1 -5 0  1.2 -5 0  1.3 -5 0  1.4 -5 0  1.5 -5 0  1.6 -5 0  1.7 -5 0  1.8 -5 0  1.9 -5 0  2 -5 0  2.1 -5 0  2.2 -5 0  2.3 -5 0  2.4 -5 0  2.5 -5 0  2.6 -5 0  2.7 -5 0  2.8 -5 0  2.9 -5 0  3 -5 0  3.1 -5 0  3.199999999999999 -5 0  3.300000000000001 -5 0  3.4 -5 0  3.5 -5 0  3.6 -5 0  3.699999999999999 -5 0  3.800000000000001 -5 0  3.9 -5 0  4 -5 0  4.1 -5 0  4.199999999999999 -5 0  4.300000000000001 -5 0  4.4 -5 0  4.5 -5 0  4.6 -5 0  4.699999999999999 -5 0  4.800000000000001 -5 0  4.9 -5 0  5 -5 0  -5 -4.9 0  -4.9 -4.9 0  -4.8 -4.9 0  -4.7 -4.9 0  -4.6 -4.9 0  -4.5 -4.9 0  -4.4 -4.9 0  -4.3 -4.9 0  -4.2 -4.9 0  -4.1 -4.9 0  -4 -4.9 0  -3.9 -4.9 0  -3.8 -4.9 0  -3.7 -4.9 0  -3.6 -4.9 0  -3.5 -4.9 0  -3.4 -4.9 0  -3.3 -4.9 0  -3.2 -4.9 0  -3.1 -4.9 0  -3 -4.9 0  -2.9 -4.9 0  -2.8 -4.9 0  -2.7 -4.9 0  -2.6 -4.9 0  -2.5 -4.9 0  -2.4 -4.9 0  -2.3 -4.9 0  -2.2 -4.9 0  -2.1 -4.9 0  -2 -4.9 0  -1.9 -4.9 0  -1.8 -4.9 0  -1.7 -4.9 0  -1.6 -4.9 0  -1.5 -4.9 0  -1.4 -4.9 0  -1.3 -4.9 0  -1.2 -4.9 0  -1.1 -4.9 0  -1 -4.9 0  -0.9000000000000004 -4.9 0  -0.7999999999999998 -4.9 0  -0.7000000000000002 -4.9 0  -0.5999999999999996 -4.9 0  -0.5 -4.9 0  -0.4000000000000004 -4.9 0  -0.2999999999999998 -4.9 0  -0.2000000000000002 -4.9 0  -0.09999999999999964 -4.9 0  0 -4.9 0  0.09999999999999964 -4.9 0  0.2000000000000002 -4.9 0  0.2999999999999998 -4.9 0  0.4000000000000004 -4.9 0  0.5 -4.9 0  0.5999999999999996 -4.9 0  0.7000000000000002 -4.9 0  0.7999999999999998 -4.9 0  0.9000000000000004 -4.9 0  1 -4.9 0  1.1 -4.9 0  1.2 -4.9 0  1.3 -4.9 0  1.4 -4.9 0  1.5 -4.9 0  1.6 -4.9 0  1.7 -4.9 0  1.8 -4.9 0  1.9 -4.9 0  2 -4.9 0  2.1 -4.9 0  2.2 -4.9 0  2.3 -4.9 0  2.4 -4.9 0  2.5 -4.9 0  2.6 -4.9 0  2.7 -4.9 0  2.8 -4.9 0  2.9 -4.9 0  3 -4.9 0  3.1 -4.9 0  3.199999999999999 -4.9 0  3.300000000000001 -4.9 0  3.4 -4.9 0  3.5 -4.9 0  3.6 -4.9 0  3.699999999999999 -4.9 0  3.800000000000001 -4.9 0  3.9 -4.9 0  4 -4.9 0  4.1 -4.9 0  4.199999999999999 -4.9 0  4.300000000000001 -4.9 0  4.4 -4.9 0  4.5 -4.9 0  4.6 -4.9 0  4.699999999999999 -4.9 0  4.800000000000001 -4.9 0  4.9 -4.9 0  5 -4.9 0  -5 -4.8 0  -4.9 -4.8 0  -4.8 -4.8 0  -4.7 -4.8 0  -4.6 -4.8 0  -4.5 -4.8 0  -4.4 -4.8 0  -4.3 -4.8 0  -4.2 -4.8 0  -4.1 -4.8 0  -4 -4.8 0  -3.9 -4.8 0  -3.8 -4.8 0  -3.7 -4.8 0  -3.6 -4.8 0  -3.5 -4.8 0  -3.4 -4.8 0  -3.3 -4.8 0  -3.2 -4.8 0  -3.1 -4.8 0  -3 -4.8 0  -2.9 -4.8 0  -2.8 -4.8 0  -2.7 -4.8 0  -2.6 -4.8 0  -2.5 -4.8 0  -2.4 -4.8 0  -2.3 -4.8 0  -2.2 -4.8 0  -2.1 -4.8 0  -2 -4.8 0  -1.9 -4.8 0  -1.8 -4.8 0  -1.7 -4.8 0  -1.6 -4.8 0  -1.5 -4.8 0  -1.4 -4.8 0  -1.3 -4.8 0  -1.2 -4.8 0  -1.1 -4.8 0  -1 -4.8 0  -0.9000000000000004 -4.8 0  -0.7999999999999998 -4.8 0  -0.7000000000000002 -4.8 0  -0.5999999999999996 -4.8 0  -0.5 -4.8 0  -0.4000000000000004 -4.8 0  -0.2999999999999998 -4.8 0  -0.2000000000000002 -4.8 0  -0.09999999999999964 -4.8 0  0 -4.8 0  0.09999999999999964 -4.8 0  0.2000000000000002 -4.8 0  0.2999999999999998 -4.8 0  0.4000000000000004 -4.8 0  0.5 -4.8 0  0.5999999999999996 -4.8 0  0.7000000000000002 -4.8 0  0.7999999999999998 -4.8 0  0.9000000000000004 -4.8 0  1 -4.8 0  1.1 -4.8 0  1.2 -4.8 0  1.3 -4.8 0  1.4 -4.8 0  1.5 -4.8 0  1.6 -4.8 0  1.7 -4.8 0  1.8 -4.8 0  1.9 -4.8 0  2 -4.8 0  2.1 -4.8 0  2.2 -4.8 0  2.3 -4.8 0  2.4 -4.8 0  2.5 -4.8 0  2.6 -4.8 0  2.7 -4.8 0  2.8 -4.8 0  2.9 -4.8 0  3 -4.8 0  3.1 -4.8 0  3.199999999999999 -4.8 0  3.300000000000001 -4.8 0  3.4 -4.8 0  3.5 -4.8 0  3.6 -4.8 0  3.699999999999999 -4.8 0  3.800000000000001 -4.8 0  3.9 -4.8 0  4 -4.8 0  4.1 -4.8 0  4.199999999999999 -4.8 0  4.300000000000001 -4.8 0  4.4 -4.8 0  4.5 -4.8 0  4.6 -4.8 0  4.699999999999999 -4.8 0  4.800000000000001 -4.8 0  4.9 -4.8 0  5 -4.8 0  -5 -4.7 0  -4.9 -4.7 0  -4.8 -4.7 0  -4.7 -4.7 0  -4.6 -4.7 0  -4.5 -4.7 0  -4.4 -4.7 0  -4.3 -4.7 0  -4.2 -4.7 0  -4.1 -4.7 0  -4 -4.7 0  -3.9 -4.7 0  -3.8 -4.7 0  -3.7 -4.7 0  -3.6 -4.7 0  -3.5 -4.7 0  -3.4 -4.7 0  -3.3 -4.7 0  -3.2 -4.7 0  -3.1 -4.7 0  -3 -4.7 0  -2.9 -4.7 0  -2.8 -4.7 0  -2.7 -4.7 0  -2.6 -4.7 0  -2.5 -4.7 0  -2.4 -4.7 0  -2.3 -4.7 0  -2.2 -4.7 0  -2.1 -4.7 0  -2 -4.7 0  -1.9 -4.7 0  -1.8 -4.7 0  -1.7 -4.7 0  -1.6 -4.7 0  -1.5 -4.7 0  -1.4 -4.7 0  -1.3 -4.7 0  -1.2 -4.7 0  -1.1 -4.7 0  -1 -4.7 0  -0.9000000000000004 -4.7 0  -0.7999999999999998 -4.7 0  -0.7000000000000002 -4.7 0  -0.5999999999999996 -4.7 0  -0.5 -4.7 0  -0.4000000000000004 -4.7 0  -0.2999999999999998 -4.7 0  -0.2000000000000002 -4.7 0  -0.09999999999999964 -4.7 0  0 -4.7 0  0.09999999999999964 -4.7 0  0.2000000000000002 -4.7 0  0.2999999999999998 -4.7 0  0.4000000000000004 -4.7 0  0.5 -4.7 0  0.5999999999999996 -4.7 0  0.7000000000000002 -4.7 0  0.7999999999999998 -4.7 0  0.9000000000000004 -4.7 0  1 -4.7 0  1.1 -4.7 0  1.2 -4.7 0  1.3 -4.7 0  1.4 -4.7 0  1.5 -4.7 0  1.6 -4.7 0  1.7 -4.7 0  1.8 -4.7 0  1.9 -4.7 0  2 -4.7 0  2.1 -4.7 0  2.2 -4.7 0  2.3 -4.7 0  2.4 -4.7 0  2.5 -4.7 0  2.6 -4.7 0  2.7 -4.7 0  2.8 -4.7 0  2.9 -4.7 0  3 -4.7 0  3.1 -4.7 0  3.199999999999999 -4.7 0  3.300000000000001 -4.7 0  3.4 -4.7 0  3.5 -4.7 0  3.6 -4.7 0  3.699999999999999 -4.7 0  3.800000000000001 -4.7 0  3.9 -4.7 0  4 -4.7 0  4.1 -4.7 0  4.199999999999999 -4.7 0  4.300000000000001 -4.7 0  4.4 -4.7 0  4.5 -4.7 0  4.6 -4.7 0  4.699999999999999 -4.7 0  4.800000000000001 -4.7 0  4.9 -4.7 0  5 -4.7 0  -5 -4.6 0  -4.9 -4.6 0  -4.8 -4.6 0  -4.7 -4.6 0  -4.6 -4.6 0  -4.5 -4.6 0  -4.4 -4.6 0  -4.3 -4.6 0  -4.2 -4.6 0  -4.1 -4.6 0  -4 -4.6 0  -3.9 -4.6 0  -3.8 -4.6 0  -3.7 -4.6 0  -3.6 -4.6 0  -3.5 -4.6 0  -3.4 -4.6 0  -3.3 -4.6 0  -3.2 -4.6 0  -3.1 -4.6 0  -3 -4.6 0  -2.9 -4.6 0  -2.8 -4.6 0  -2.7 -4.6 0  -2.6 -4.6 0  -2.5 -4.6 0  -2.4 -4.6 0  -2.3 -4.6 0  -2.2 -4.6 0  -2.1 -4.6 0  -2 -4.6 0  -1.9 -4.6 0  -1.8 -4.6 0  -1.7 -4.6 0  -1.6 -4.6 0  -1.5 -4.6 0  -1.4 -4.6 0  -1.3 -4.6 0  -1.2 -4.6 0  -1.1 -4.6 0  -1 -4.6 0  -0.9000000000000004 -4.6 0  -0.7999999999999998 -4.6 0  -0.7000000000000002 -4.6 0  -0.5999999999999996 -4.6 0  -0.5 -4.6 0  -0.4000000000000004 -4.6 0  -0.2999999999999998 -4.6 0  -0.2000000000000002 -4.6 0  -0.09999999999999964 -4.6 0  0 -4.6 0  0.09999999999999964 -4.6 0  0.2000000000000002 -4.6 0  0.2999999999999998 -4.6 0  0.4000000000000004 -4.6 0  0.5 -4.6 0  0.5999999999999996 -4.6 0  0.7000000000000002 -4.6 0  0.7999999999999998 -4.6 0  0.9000000000000004 -4.6 0  1 -4.6 0  1.1 -4.6 0  1.2 -4.6 0  1.3 -4.6 0  1.4 -4.6 0  1.5 -4.6 0  1.6 -4.6 0  1.7 -4.6 0  1.8 -4.6 0  1.9 -4.6 0  2 -4.6 0  2.1 -4.6 0  2.2 -4.6 0  2.3 -4.6 0  2.4 -4.6 0  2.5 -4.6 0  2.6 -4.6 0  2.7 -4.6 0  2.8 -4.6 0  2.9 -4.6 0  3 -4.6 0  3.1 -4.6 0  3.199999999999999 -4.6 0  3.300000000000001 -4.6 0  3.4 -4.6 0  3.5 -4.6 0  3.6 -4.6 0  3.699999999999999 -4.6 0  3.800000000000001 -4.6 0  3.9 -4.6 0  4 -4.6 0  4.1 -4.6 0  4.199999999999999 -4.6 0  4.300000000000001 -4.6 0  4.4 -4.6 0  4.5 -4.6 0  4.6 -4.6 0  4.699999999999999 -4.6 0  4.800000000000001 -4.6 0  4.9 -4.6 0  5 -4.6 0  -5 -4.5 0  -4.9 -4.5 0  -4.8 -4.5 0  -4.7 -4.5 0  -4.6 -4.5 0  -4.5 -4.5 0  -4.4 -4.5 0  -4.3 -4.5 0  -4.2 -4.5 0  -4.1 -4.5 0  -4 -4.5 0  -3.9 -4.5 0  -3.8 -4.5 0  -3.7 -4.5 0  -3.6 -4.5 0  -3.5 -4.5 0  -3.4 -4.5 0  -3.3 -4.5 0  -3.2 -4.5 0  -3.1 -4.5 0  -3 -4.5 0  -2.9 -4.5 0  -2.8 -4.5 0  -2.7 -4.5 0  -2.6 -4.5 0  -2.5 -4.5 0  -2.4 -4.5 0  -2.3 -4.5 0  -2.2 -4.5 0  -2.1 -4.5 0  -2 -4.5 0  -1.9 -4.5 0  -1.8 -4.5 0  -1.7 -4.5 0  -1.6 -4.5 0  -1.5 -4.5 0  -1.4 -4.5 0  -1.3 -4.5 0  -1.2 -4.5 0  -1.1 -4.5 0  -1 -4.5 0  -0.9000000000000004 -4.5 0  -0.7999999999999998 -4.5 0  -0.7000000000000002 -4.5 0  -0.5999999999999996 -4.5 0  -0.5 -4.5 0  -0.4000000000000004 -4.5 0  -0.2999999999999998 -4.5 0  -0.2000000000000002 -4.5 0  -0.09999999999999964 -4.5 0  0 -4.5 0  0.09999999999999964 -4.5 0  0.2000000000000002 -4.5 0  0.2999999999999998 -4.5 0  0.4000000000000004 -4.5 0  0.5 -4.5 0  0.5999999999999996 -4.5 0  0.7000000000000002 -4.5 0  0.7999999999999998 -4.5 0  0.9000000000000004 -4.5 0  1 -4.5 0  1.1 -4.5 0  1.2 -4.5 0  1.3 -4.5 0  1.4 -4.5 0  1.5 -4.5 0  1.6 -4.5 0  1.7 -4.5 0  1.8 -4.5 0  1.9 -4.5 0  2 -4.5 0  2.1 -4.5 0  2.2 -4.5 0  2.3 -4.5 0  2.4 -4.5 0  2.5 -4.5 0  2.6 -4.5 0  2.7 -4.5 0  2.8 -4.5 0  2.9 -4.5 0  3 -4.5 0  3.1 -4.5 0  3.199999999999999 -4.5 0  3.300000000000001 -4.5 0  3.4 -4.5 0  3.5 -4.5 0  3.6 -4.5 0  3.699999999999999 -4.5 0  3.800000000000001 -4.5 0  3.9 -4.5 0  4 -4.5 0  4.1 -4.5 0  4.199999999999999 -4.5 0  4.300000000000001 -4.5 0  4.4 -4.5 0  4.5 -4.5 0  4.6 -4.5 0  4.699999999999999 -4.5 0  4.800000000000001 -4.5 0  4.9 -4.5 0  5 -4.5 0  -5 -4.4 0  -4.9 -4.4 0  -4.8 -4.4 0  -4.7 -4.4 0  -4.6 -4.4 0  -4.5 -4.4 0  -4.4 -4.4 0  -4.3 -4.4 0  -4.2 -4.4 0  -4.1 -4.4 0  -4 -4.4 0  -3.9 -4.4 0  -3.8 -4.4 0  -3.7 -4.4 0  -3.6 -4.4 0  -3.5 -4.4 0  -3.4 -4.4 0  -3.3 -4.4 0  -3.2 -4.4 0  -3.1 -4.4 0  -3 -4.4 0  -2.9 -4.4 0  -2.8 -4.4 0  -2.7 -4.4 0  -2.6 -4.4 0  -2.5 -4.4 0  -2.4 -4.4 0  -2.3 -4.4 0  -2.2 -4.4 0  -2.1 -4.4 0  -2 -4.4 0  -1.9 -4.4 0  -1.8 -4.
[...]
<PointData  Vectors="f_17"> 
<DataArray  type="Float64"  Name="f_17"  NumberOfComponents="3" format="ascii">1.5000000000000022e-01 0.0000000000000000e+00 0.0000000000000000e+00  1.5000000000000008e-01 -1.9567569171818946e-16 0.0000000000000000e+00  1.5000000000000002e-01 1.3412090162525271e-16 0.0000000000000000e+00  1.5000000000000019e-01 -7.7553579955132150e-17 0.0000000000000000e+00  1.5000000000000005e-01 2.8718693018755350e-16 0.0000000000000000e+00  1.4999999999999999e-01 2.0593119210763336e-16 0.0000000000000000e+00  1.4999999999999994e-01 -4.6069164200496611e-16 0.0000000000000000e+00  1.5000000000000013e-01 3.5866933956507267e-16 0.0000000000000000e+00  1.5000000000000005e-01 4.1540232302909338e-16 0.0000000000000000e+00  1.5000000000000013e-01 -1.2536442660329290e-17 0.0000000000000000e+00  1.5000000000000002e-01 -3.4445432357645121e-16 0.0000000000000000e+00  1.4999999999999999e-01 3.1510723677316798e-16 0.0000000000000000e+00  1.4999999999999988e-01 -1.6958618151909138e-16 0.0000000000000000e+00  1.5000000000000005e-01 -1.8533281907367511e-16 0.0000000000000000e+00  1.4999999999999997e-01 2.5363627326019089e-16 0.0000000000000000e+00  1.4999999999999972e-01 -1.1533384636599437e-16 0.0000000000000000e+00  1.4999999999999991e-01 7.1705562913371221e-17 0.0000000000000000e+00  1.4999999999999991e-01 -6.7970283272718145e-16 0.0000000000000000e+00  1.5000000000000130e-01 -4.0064714608625022e-15 0.0000000000000000e+00  1.5000000000000610e-01 -5.2835351122347072e-15 0.0000000000000000e+00  1.5000000000001060e-01 8.8794850842178471e-15 0.0000000000000000e+00  1.4999999999999106e-01 4.4974811045178955e-14 0.0000000000000000e+00  1.4999999999991245e-01 9.1312425564997153e-14 0.0000000000000000e+00  1.4999999999977459e-01 1.0540524962023227e-13 0.0000000000000000e+00  1.4999999999965521e-01 5.3634696487066945e-14 0.0000000000000000e+00  1.4999999999966268e-01 -4.5846830854540187e-14 0.0000000000000000e+00  1.4999999999981864e-01 -1.2420391417468266e-13 0.0000000000000000e+00  1.5000000000000721e-01 -1.2456025491637583e-13 0.0000000000000000e+00  1.5000000000009109e-01 -5.5423301504595494e-14 0.0000000000000000e+00  1.5000000000005412e-01 1.6715285582549839e-14 0.0000000000000000e+00  1.4999999999999389e-01 3.6907329285664361e-14 0.0000000000000000e+00  1.4999999999998104e-01 1.4652602025326261e-14 0.0000000000000000e+00  1.4999999999999891e-01 -8.6985415171564997e-15 0.0000000000000000e+00  1.5000000000000543e-01 -7.2763834467886319e-15 0.0000000000000000e+00  1.4999999999999897e-01 1.7276049103620390e-15 0.0000000000000000e+00  1.4999999999999764e-01 2.8093827537860060e-15 0.0000000000000000e+00  1.5000000000000158e-01 -9.8821068054579591e-16 0.0000000000000000e+00  1.5000000000000133e-01 -9.4637559461338638e-16 0.0000000000000000e+00  1.4999999999999905e-01 9.9370631075897136e-16 0.0000000000000000e+00  1.4999999999999938e-01 6.3700141489465279e-16 0.0000000000000000e+00  1.5000000000000052e-01 -1.0245138942697201e-15 0.0000000000000000e+00  1.5000000000000027e-01 -2.2659435331108687e-16 0.0000000000000000e+00  1.4999999999999974e-01 2.5042869475890251e-16 0.0000000000000000e+00  1.4999999999999999e-01 3.1820987019510825e-16 0.0000000000000000e+00  1.5000000000000019e-01 -4.7148700657168470e-16 0.0000000000000000e+00  1.4999999999999999e-01 1.5072644505758873e-16 0.0000000000000000e+00  1.4999999999999999e-01 -1.5840106398028960e-16 0.0000000000000000e+00  1.5000000000000011e-01 -3.4799346936828845e-16 0.0000000000000000e+00  1.5000000000000016e-01 8.6527063170223889e-17 0.0000000000000000e+00  1.5000000000000002e-01 1.0837004883646729e-17 0.0000000000000000e+00  1.5000000000000011e-01 1.2463273814997794e-16 0.0000000000000000e+00  1.5000000000000002e-01 1.3336859553483889e-16 0.0000000000000000e+00  1.4999999999999986e-01 1.0825148093683580e-16 0.0000000000000000e+00  1.5000000000000016e-01 2.4458962513282531e-16 0.0000000000000000e+00  1.5000000000000030e-01 -1.7929289244779087e-16 0.0000000000000000e+00  1.4999999999999991e-01 -6.5008303497179265e-16 0.0000000000000000e+00  1.5000000000000011e-01 1.8989407653192505e-16 0.0000000000000000e+00  1.5000000000000013e-01 3.7326579124209105e-16 0.0000000000000000e+00  1.5000000000000022e-01 3.2778074830376233e-16 0.0000000000000000e+00  1.5000000000000002e-01 -2.2960626829676458e-16 0.0000000000000000e+00  1.5000000000000002e-01 -1.2108662259775069e-17 0.0000000000000000e+00  1.5000000000000002e-01 1.1222596891943918e-17 0.0000000000000000e+00  1.5000000000000005e-01 7.6681411748511134e-17 0.0000000000000000e+00  1.5000000000000002e-01 -1.2402849979382537e-16 0.0000000000000000e+00  1.5000000000000008e-01 -6.4895323209130914e-17 0.0000000000000000e+00  1.5000000000000008e-01 -5.8146269592933277e-16 0.0000000000000000e+00  1.5000000000000008e-01 -1.2633662052183971e-16 0.0000000000000000e+00  1.5000000000000016e-01 -1.0595013375420632e-16 0.0000000000000000e+00  1.5000000000000016e-01 3.8081610950319725e-16 0.0000000000000000e+00  1.4999999999999997e-01 4.4755884636101744e-17 0.0000000000000000e+00  1.5000000000000022e-01 3.4719332522917023e-16 0.0000000000000000e+00  1.5000000000000005e-01 -1.3907430273727669e-16 0.0000000000000000e+00  1.5000000000000005e-01 3.6709145420473157e-16 0.0000000000000000e+00  1.4999999999999983e-01 1.7933100993160363e-17 0.0000000000000000e+00  1.5000000000000005e-01 -1.0655066922165447e-16 0.0000000000000000e+00  1.5000000000000008e-01 5.2447403710308945e-16 0.0000000000000000e+00  1.5000000000000013e-01 -3.9078621966660488e-16 0.0000000000000000e+00  1.4999999999999991e-01 1.4755094750326532e-16 0.0000000000000000e+00  1.5000000000000005e-01 1.4678235009380206e-17 0.0000000000000000e+00  1.5000000000000008e-01 -1.4368183111105188e-16 0.0000000000000000e+00  1.5000000000000016e-01 -3.9368619020703959e-16 0.0000000000000000e+00  1.4999999999999997e-01 -3.5971970810466115e-17 0.0000000000000000e+00  1.4999999999999999e-01 -5.9261465178580109e-17 0.0000000000000000e+00  1.5000000000000022e-01 -1.3873856102353988e-16 0.0000000000000000e+00  1.4999999999999999e-01 5.0135758326962430e-16 0.0000000000000000e+00  1.4999999999999983e-01 3.7331115835569639e-16 0.0000000000000000e+00  1.4999999999999999e-01 4.8038919415015404e-17 0.0000000000000000e+00  1.4999999999999994e-01 8.6036702130493895e-17 0.0000000000000000e+00  1.5000000000000005e-01 -3.6745681740822628e-16 0.0000000000000000e+00  1.4999999999999994e-01 -3.4983658122193545e-17 0.0000000000000000e+00  1.5000000000000002e-01 -6.7484572537002407e-16 0.0000000000000000e+00  1.4999999999999999e-01 2.4162390040543477e-16 0.0000000000000000e+00  1.5000000000000011e-01 -3.3451634410702842e-16 0.0000000000000000e+00  1.5000000000000041e-01 5.6743096822763254e-16 0.0000000000000000e+00  1.5000000000000002e-01 1.9074343576737888e-16 0.0000000000000000e+00  1.5000000000000002e-01 -3.8378823155878367e-17 0.0000000000000000e+00  1.5000000000000008e-01 -4.2591786047250177e-16 0.0000000000000000e+00  1.5000000000000013e-01 -8.1236001417961707e-17 0.0000000000000000e+00  1.4999999999999999e-01 -3.6310279171261602e-18 0.0000000000000000e+00  1.5000000000000008e-01 -4.5262425808184819e-17 0.0000000000000000e+00  1.4999999999999991e-01 0.0000000000000000e+00 0.0000000000000000e+00  1.4999999999999999e-01 0.0000000000000000e+00 -7.6761436901798045e-16  1.4999999999999999e-01 1.3750611145321176e-17 1.5504835328821298e-16  1.5000000000000005e-01 -1.0325098229392786e-16 -1.1751907919854030e-16  1.5000000000000005e-01 -4.8645502456381852e-16 1.6316576227905140e-16  1.5000000000000005e-01 1.1517551843490312e-16 -1.1550543851656766e-16  1.5000000000000008e-01 -2.9646037317858922e-16 -1.0315309285959965e-16  1.5000000000000005e-01 7.4268270659730368e-16 -6.1019812126136401e-16  1.5000000000000008e-01 -4.0999270001201922e-16 2.1789284804842022e-16  1.5000000000000005e-01 3.9719752735118797e-16 1.5426561040070174e-16  1.4999999999999999e-01 -7.2629195398029069e-17 -1.7822694894031880e-16  1.5000000000000002e-01 5.6977542214476335e-18 -2.6126227640136659e-17  1.5000000000000002e-01 3.4693041474949877e-16 1.8003244182526816e-16  1.5000000000000005e-01 3.8590218470888636e-17 -4.7017237296757256e-17  1.4999999999999999e-01 2.8186502124912204e-17 4.5414118384404551e-17  1.4999999999999997e-01 2.9230507620983516e-16 2.9932844633028162e-17  1.5000000000000022e-01 -3.1426158766554696e-16 1.3772654077010222e-16  1.5000000000000041e-01 -5.0349314266764670e-16 5.5149090630323652e-16  1.5000000000000030e-01 2.9411175851239878e-16 7.6285779558403193e-16  1.4999999999999977e-01 2.4068911334395583e-15 -9.9966870020085322e-16  1.4999999999999555e-01 7.2634438965807333e-15 -1.2257614219454452e-14  1.4999999999998753e-01 4.9190315097275729e-16 -3.2048740955179390e-14  1.4999999999999447e-01 -3.5802949510288821e-14 -1.0498799855373602e-14  1.5000000000006078e-01 -9.8962287052889729e-14 1.6420266496829225e-13  1.5000000000021588e-01 -1.4460098562498984e-13 5.5464507620012643e-13  1.5000000000040245e-01 -1.1062965130309404e-13 1.0028588289273164e-12  1.5000000000047603e-01 7.0578078418809242e-15 1.1483301709835635e-12  1.5000000000034114e-01 1.3582202116735489e-13 7.7718799375415236e-13  1.5000000000008210e-01 1.7923922265584788e-13 1.3219751163632472e-13  1.4999999999989941e-01 1.1435549535987679e-13 -2.8566426670269977e-13  1.4999999999989475e-01 9.8164067105579845e-15 -2.5674894571125809e-13  1.4999999999998126e-01 -4.6253920073237859e-14 -2.9383368510744418e-14  1.5000000000002733e-01 -3.3390068775947553e-14 7.3621106142039261e-14  1.5000000000001149e-01 1.4296914020176730e-15 2.4255519960412749e-14  1.4999999999999283e-01 1.2709243921052447e-14 -1.9825295437075116e-14  1.4999999999999791e-01 2.0835051266599569e-15 -3.3257980568841928e-15  1.5000000000000435e-01 -4.5795989971564869e-15 1.0943181714166618e-14  1.4999999999999974e-01 -5.0921205726856366e-16 -1.3581897518774690e-15  1.4999999999999722e-01 2.4176488717242988e-15 -7.2693445993474005e-15  1.5000000000000047e-01 1.2817392360045833e-16 1.5086348231673512e-15  1.5000000000000180e-01 -1.4910653969136878e-15 4.2956472546199260e-15  1.4999999999999983e-01 8.5783943459383226e-17 -1.1019085916769507e-15  1.4999999999999911e-01 7.6120843939138512e-16 -2.1169944546329680e-15  1.5000000000000030e-01 -5.1780084647564617e-16 6.3531988093542954e-16  1.5000000000000049e-01 -2.4214628996798968e-16 1.0817104055750823e-15  1.4999999999999991e-01 -2.2972547355697098e-16 -9.4284685131138847e-16  1.4999999999999999e-01 2.4527761054132641e-16 -2.1944079598616547e-16  1.5000000000000024e-01 -6.7317525357635926e-17 2.8941272830981360e-16  1.4999999999999999e-01 2.3312877349574203e-17 -2.1651950243757106e-16  1.5000000000000002e-01 2.4610043424758907e-16 1.8583524112892316e-16  1.5000000000000011e-01 -3.1270967811794967e-18 -3.8177654718461316e-16  1.5000000000000016e-01 -3.3044631819430396e-17 -1.1036894161835962e-16  1.5000000000000002e-01 5.8213532606596218e-16 4.8431666256514457e-17  1.5000000000000008e-01 -2.4002767254306155e-16 4.2699558691830670e-18  1.5000000000000005e-01 1.7779953456307882e-16 5.3786712510306247e-17  1.5000000000000013e-01 2.0886270450880411e-16 -2.1064624470043248e-16  1.5000000000000008e-01 -1.2573145668318098e-16 -1.4009695213046095e-16  1.4999999999999994e-01 2.5073698989277572e-16 3.8382505827850841e-16  1.5000000000000002e-01 -4.6689267236305818e-16 1.6553804286956874e-16  1.5000000000000005e-01 2.9488420338337591e-16 -4.7959113830258537e-16  1.5000000000000008e-01 -2.3783957915767381e-16 -5.4564490854099731e-17  1.5000000000000002e-01 -5.9002430836255758e-17 -1.4918127133287081e-16  1.5000000000000005e-01 -2.9759220761458221e-16 -1.4159619338303405e-16  1.5000000000000005e-01 1.2661133989964603e-16 -2.3792508812506888e-16  1.5000000000000008e-01 -3.3619554649807135e-16 1.2919334361036994e-16  1.5000000000000008e-01 -1.6285099688151076e-16 -1.0707325895452779e-16  1.5000000000000008e-01 -1.3316546142645074e-16 2.5824802413022969e-16  1.5000000000000011e-01 -1.9116322203031460e-16 2.9695058089204980e-16  1.4999999999999999e-01 1.6727315549360430e-16 1.4082718283134830e-16  1.5000000000000008e-01 4.5321148057008902e-16 3.3670448769892672e-16  1.5000000000000002e-01 -8.1095912735504856e-17 1.5914884487430793e-16  1.4999999999999997e-01 2.5628573800786165e-16 -3.5477389132360973e-16  1.5000000000000008e-01 1.1401800092940307e-16 -9.1292435648838753e-17  1.5000000000000005e-01 8.6559387294570964e-17 1.1629092904004346e-16  1.4999999999999999e-01 2.0229441241625270e-16 -1.7102474162288065e-16  1.5000000000000005e-01 -1.6589422059354930e-16 -1.0879513238975579e-17  1.5000000000000002e-01 -1.6549498165979184e-16 -1.5452308462405703e-16  1.5000000000000008e-01 -2.6702953903039416e-16 -4.4922064683389533e-16  1.5000000000000016e-01 -5.8328045883328448e-16 8.6265986417820706e-17  1.5000000000000005e-01 9.4880640025906919e-18 1.6013368503167836e-17  1.5000000000000013e-01 4.3995963601697638e-16 -3.2680758410872416e-16  1.5000000000000005e-01 3.0518426741581092e-16 -1.5569128482653877e-16  1.5000000000000016e-01 2.5545350238542357e-16 8.6547710562934583e-17  1.5000000000000013e-01 -2.3043697956547363e-16 1.0872577824462368e-16  1.5000000000000008e-01 1.0137155430706442e-16 -1.2850932595845371e-16  1.5000000000000005e-01 -1.5692131055742840e-16 1.2559845115640093e-16  1.5000000000000008e-01 -7.1443743499523843e-17 -2.3260737860493768e-16  1.5000000000000005e-01 3.4616015669398113e-16 6.3042406393037056e-18  1.5000000000000005e-01 -9.4664210969232337e-17 -1.2274192785547866e-17  1.5000000000000008e-01 8.6145267839890847e-18 1.5946851425896317e-16  1.4999999999999999e-01 -2.5812219295903784e-17 3.0239873236584708e-16  1.5000000000000005e-01 -3.9979216800822018e-16 2.6304454684263402e-16  1.5000000000000002e-01 4.5547829747993549e-16 -7.6205979135687945e-17  1.5000000000000022e-01 3.4596823266933161e-16 4.3976514675363345e-17  1.5000000000000013e-01 3.4236534058950728e-17 5.2910369152415558e-16  1.5000000000000005e-01 -3.6187357018479762e-16 2.4917716987723208e-17  1.5000000000000005e-01 -1.0575101627573843e-16 2.8933293998002438e-17  1.4999999999999991e-01 2.9855076094509875e-16 -1.2641947070419943e-16  1.5000000000000002e-01 -1.6513772710439875e-16 3.5275460502398992e-16  1.5000000000000016e-01 2.4391735293854534e-16 1.1290546435216156e-16  1.5000000000000005e-01 -6.5409588933334429e-17 -4.4817306627969152e-16  1.4999999999999999e-01 0.0000000000000000e+00 2.7019814158077630e-16  1.5000000000000011e-01 0.0000000000000000e+00 1.3443285034384458e-16  1.5000000000000013e-01 -9.7959478098197256e-17 -1.0291544720260360e-16  1.4999999999999999e-01 5.3120846640915180e-17 -3.9992990655412865e-16  1.5000000000000005e-01 9.3460171530067389e-18 1.3493199164603841e-16  1.5000000000000022e-01 -4.9802767054131192e-17 -2.1535680243090692e-16  1.5000000000000008e-01 3.5282433373920624e-17 -3.2930500475815268e-16  1.4999999999999991e-01 2.2558109800868799e-16 -3.4042040749631572e-16  1.5000000000000005e-01 -1.2099330838688892e-16 -4.6963580010536851e-17  1.5000000000000011e-01 7.4993673784025860e-16 -7.3882849193162541e-16  1.5000000000000002e-01 -3.0283765241955116e-16 -3.3185942676818191e-16  1.5000000000000002e-01 2.8333705856040628e-16 -3.2019032972866333e-16  1.5000000000000005e-01 5.7301968911022305e-17 -2.3967351732197294e-16  1.4999999999999994e-01 -1.4174033403047040e-16 -3.1192381174995948e-16  1.4999999999999991e-01 -3.6733373175499009e-17 -1.9867403852850176e-16  1.5000000000000005e-01 -1.5024779805798266e-17 -1.4686445613927755e-16  1.4999999999999988e-01 -3.2085046885545147e-16 -5.2701638027417097e-16  1.4999999999999961e-01 2.9768091835318341e-16 -1.3025585048589920e-15  1.4999999999999963e-01 5.2937967051255038e-17 -2.4108793644583653e-15  1.4999999999999972e-01 -1.9242696224118539e-15 -2.5801021698046369e-15  1.5000000000000349e-01 -1.0054700128415735e-14 1.1011779552267458e-14  1.5000000000001582e-01 -1.2611058856945751e-14 5.5818840835578930e-14  1.5000000000002328e-01 2.7055633479610894e-14 8.4214808891940811e-14  1.4999999999996330e-01 1.3020806832014891e-13 -1.2273949068060894e-13  1.4999999999974928e-01 2.5008105580783610e-13 -8.5809205751870503e-13  1.4999999999939775e-01 2.6782840707543969e-13 -2.0552109177299252e-12  1.4999999999912472e-01 1.0378435282963092e-13 -2.9686736082970143e-12  1.4999999999919908e-01 -1.6314573142395312e-13 -2.6865188978277065e-12  1.4999999999962937e-01 -3.3883395008323938e-13 -1.2016151990092534e-12  1.5000000000008631e-01 -2.9680751840914712e-13 3.4503120575023441e-13  1.5000000000023977e-01 -1.0191220035415029e-13 8.3734869150093925e-13  1.5000000000011027e-01 6.2947783093419030e-14 3.7071931865636221e-13  1.4999999999996633e-01 8.9126285532244567e-14 -1.2332323468901134e-13  1.4999999999995792e-01 2.3422467397015105e-14 -1.4601143031617218e-13  1.5000000000000546e-01 -2.3556672087572442e-14 1.8776257933948949e-14  1.5000000000001115e-01 -1.3971781286735595e-14 3.7107216833096939e-14  1.4999999999999308e-01 6.5414724421515492e-15 -2.3551140194722673e-14  1.4999999999999564e-01 5.4772072827819040e-15 -1.4018671042259873e-14  1.5000000000000610e-01 -3.9781618100267325e-15 2.0797177426077505e-14  1.5000000000000258e-01 -1.9028534502106999e-15 7.6823219592832980e-15  1.4999999999999622e-01 2.8448117498782983e-15 -1.3190421670661280e-14  1.4999999999999883e-01 8.3263277666736567e-16 -3.7597617189443359e-15  1.5000000000000210e-01 -2.2769329109765301e-15 7.2481282890960064e-15  1.5000000000000052e-01 -2.7258645045074295e-16 1.3363400492851791e-15  1.4999999999999897e-01 9.8633756786204615e-16 -3.9403362388763895e-15  1.5000000000000008e-01 -3.4042792665549669e-17 6.2693472233775831e-17  1.5000000000000058e-01 -2.5656328050342270e-16 2.2260956569530465e-15  1.5000000000000005e-01 3.6899162620903043e-17 -4.4358588577970137e-16  1.4999999999999983e-01 5.4394148100300019e-17 -5.8543829994906571e-17  1.5000000000000013e-01 -1.9704303238615622e-16 5.5698966504726950e-16  1.5000000000000011e-01 -5.9689156939643822e-16 2.1797876756469317e-16  1.4999999999999994e-01 6.3281049109218348e-16 3.3450927457421609e-16  1.5000000000000008e-01 2.6219728790078063e-17 -3.9517161215877272e-17  1.5000000000000002e-01 1.9721965262811473e-17 -3.8909661280402060e-16  1.4999999999999999e-01 3.0422841703640765e-16 -2.9019304409697286e-17  1.5000000000000005e-01 -3.8158539606245482e-16 -3.4497222700392995e-16  1.5000000000000002e-01 5.9580413482366894e-17 -2.7813488260822428e-16  1.5000000000000002e-01 -5.4891759105583226e-17 -1.1079173152179192e-16  1.5000000000000011e-01 -3.5365354701166536e-16 -3.6727328568201492e-16  1.5000000000000016e-01 4.4549226141166280e-16 4.0478337337665107e-17  1.5000000000000002e-01 -1.8332461169505434e-16 -1.3119427284922055e-17  1.4999999999999997e-01 5.5770721243634531e-17 -6.3781617303171017e-16  1.5000000000000005e-01 1.1538089711400691e-16 1.8925668846103293e-16  1.5000000000000005e-01 -5.3114039903732070e-17 3.0476513006779048e-16  1.5000000000000005e-01 2.3615556750006906e-16 -1.8962982525124120e-16  1.5000000000000002e-01 1.0967071759261630e-16 5.2281339971214514e-16  1.5000000000000002e-01 -1.7115919219528091e-16 4.7386785946124521e-16  1.5000000000000005e-01 -1.8377639571811991e-16 2.1802905029228804e-16  1.5000000000000005e-01 -3.0631534961819421e-17 7.5753407933020804e-16  1.5000000000000002e-01 9.6396386994653222e-18 1.9249907676321364e-16  1.5000000000000005e-01 -1.6150162062498728e-17 -8.9656293045611591e-17  1.5000000000000013e-01 -1.8276050280991874e-16 6.2550731758015070e-16  1.5000000000000005e-01 2.8890606145081205e-16 2.9983918182863688e-16  1.5000000000000005e-01 1.7181684301079673e-16 -8.0765318878562100e-18  1.5000000000000002e-01 -1.4454128335005225e-16 -1.1993931322490870e-16  1.5000000000000005e-01 -3.4623881970050695e-17 -4.5705750939884868e-16  1.5000000000000005e-01 -6.0259095217931645e-17 -1.2528774452190991e-16  1.4999999999999983e-01 -1.7627839324130883e-16 -1.2200681253737718e-16  1.4999999999999999e-01 4.2755019335169711e-16 -1.9588914316207690e-16  1.5000000000000008e-01 3.4921491751952412e-16 1.50012723306