<?xml version="1.0"?>
<VTKFile type="UnstructuredGrid"  version="0.1"  >
<UnstructuredGrid>
<Piece  NumberOfPoints="10201" NumberOfCells="20000">
<Points>
<DataArray  type="Float64"  NumberOfComponents="3"  format="ascii">-5 -5 0  -4.9 -5 0  -4.8 -5 0  -4.7 -5 0  -4.6 -5 0  -4.5 -5 0  -4.4 -5 0  -4.3 -5 0  -4.2 -5 0  -4.1 -5 0  -4 -5 0  -3.9 -5 0  -3.8 -5 0  -3.7 -5 0  -3.6 -5 0  -3.5 -5 0  -3.4 -5 0  -3.3 -5 0  -3.2 -5 0  -3.1 -5 0  -3 -5 0  -2.9 -5 0  -2.8 -5 0  -2.7 -5 0  -2.6 -5 0  -2.5 -5 0  -2.4 -5 0  -2.3 -5 0  -2.2 -5 0  -2.1 -5 0  -2 -5 0  -1.9 -5 0  -1.8 -5 0  -1.7 -5 0  -1.6 -5 0  -1.5 -5 0  -1.4 -5 0  -1.3 -5 0  -1.2 -5 0  -1.1 -5 0  -1 -5 0  -0.9000000000000004 -5 0  -0.7999999999999998 -5 0  -0.7000000000000002 -5 0  -0.5999999999999996 -5 0  -0.5 -5 0  -0.4000000000000004 -5 0  -0.2999999999999998 -5 0  -0.2000000000000002 -5 0  -0.09999999999999964 -5 0  0 -5 0  0.09999999999999964 -5 0  0.2000000000000002 -5 0  0.2999999999999998 -5 0  0.4000000000000004 -5 0  0.5 -5 0  0.5999999999999996 -5 0  0.7000000000000002 -5 0  0.7999999999999998 -5 0  0.9000000000000004 -5 0  1 -5 0  1.1 -5 0  1.2 -5 0  1.3 -5 0  1.4 -5 0  1.5 -5 0  1.6 -5 0  1.7 -5 0  1.8 -5 0  1.9 -5 0  2 -5 0  2.1 -5 0  2.2 -5 0  2.3 -5 0  2.4 -5 0  2.5 -5 0  2.6 -5 0  2.7 -5 0  2.8 -5 0  2.9 -5 0  3 -5 0  3.1 -5 0  3.199999999999999 -5 0  3.300000000000001 -5 0  3.4 -5 0  3.5 -5 0  3.6 -5 0  3.699999999999999 -5 0  3.800000000000001 -5 0  3.9 -5 0  4 -5 0  4.1 -5 0  4.199999999999999 -5 0  4.300000000000001 -5 0  4.4 -5 0  4.5 -5 0  4.6 -5 0  4.699999999999999 -5 0  4.800000000000001 -5 0  4.9 -5 0  5 -5 0  -5 -4.9 0  -4.9 -4.9 0  -4.8 -4.9 0  -4.7 -4.9 0  -4.6 -4.9 0  -4.5 -4.9 0  -4.4 -4.9 0  -4.3 -4.9 0  -4.2 -4.9 0  -4.1 -4.9 0  -4 -4.9 0  -3.9 -4.9 0  -3.8 -4.9 0  -3.7 -4.9 0  -3.6 -4.9 0  -3.5 -4.9 0  -3.4 -4.9 0  -3.3 -4.9 0  -3.2 -4.9 0  -3.1 -4.9 0  -3 -4.9 0  -2.9 -4.9 0  -2.8 -4.9 0  -2.7 -4.9 0  -2.6 -4.9 0  -2.5 -4.9 0  -2.4 -4.9 0  -2.3 -4.9 0  -2.2 -4.9 0  -2.1 -4.9 0  -2 -4.9 0  -1.9 -4.9 0  -1.8 -4.9 0  -1.7 -4.9 0  -1.6 -4.9 0  -1.5 -4.9 0  -1.4 -4.9 0  -1.3 -4.9 0  -1.2 -4.9 0  -1.1 -4.9 0  -1 -4.9 0  -0.9000000000000004 -4.9 0  -0.7999999999999998 -4.9 0  -0.7000000000000002 -4.9 0  -0.5999999999999996 -4.9 0  -0.5 -4.9 0  -0.4000000000000004 -4.9 0  -0.2999999999999998 -4.9 0  -0.2000000000000002 -4.9 0  -0.09999999999999964 -4.9 0  0 -4.9 0  0.09999999999999964 -4.9 0  0.2000000000000002 -4.9 0  0.2999999999999998 -4.9 0  0.4000000000000004 -4.9 0  0.5 -4.9 0  0.5999999999999996 -4.9 0  0.7000000000000002 -4.9 0  0.7999999999999998 -4.9 0  0.9000000000000004 -4.9 0  1 -4.9 0  1.1 -4.9 0  1.2 -4.9 0  1.3 -4.9 0  1.4 -4.9 0  1.5 -4.9 0  1.6 -4.9 0  1.7 -4.9 0  1.8 -4.9 0  1.9 -4.9 0  2 -4.9 0  2.1 -4.9 0  2.2 -4.9 0  2.3 -4.9 0  2.4 -4.9 0  2.5 -4.9 0  2.6 -4.9 0  2.7 -4.9 0  2.8 -4.9 0  2.9 -4.9 0  3 -4.9 0  3.1 -4.9 0  3.199999999999999 -4.9 0  3.300000000000001 -4.9 0  3.4 -4.9 0  3.5 -4.9 0  3.6 -4.9 0  3.699999999999999 -4.9 0  3.800000000000001 -4.9 0  3.9 -4.9 0  4 -4.9 0  4.1 -4.9 0  4.199999999999999 -4.9 0  4.300000000000001 -4.9 0  4.4 -4.9 0  4.5 -4.9 0  4.6 -4.9 0  4.699999999999999 -4.9 0  4.800000000000001 -4.9 0  4.9 -4.9 0  5 -4.9 0  -5 -4.8 0  -4.9 -4.8 0  -4.8 -4.8 0  -4.7 -4.8 0  -4.6 -4.8 0  -4.5 -4.8 0  -4.4 -4.8 0  -4.3 -4.8 0  -4.2 -4.8 0  -4.1 -4.8 0  -4 -4.8 0  -3.9 -4.8 0  -3.8 -4.8 0  -3.7 -4.8 0  -3.6 -4.8 0  -3.5 -4.8 0  -3.4 -4.8 0  -3.3 -4.8 0  -3.2 -4.8 0  -3.1 -4.8 0  -3 -4.8 0  -2.9 -4.8 0  -2.8 -4.8 0  -2.7 -4.8 0  -2.6 -4.8 0  -2.5 -4.8 0  -2.4 -4.8 0  -2.3 -4.8 0  -2.2 -4.8 0  -2.1 -4.8 0  -2 -4.8 0  -1.9 -4.8 0  -1.8 -4.8 0  -1.7 -4.8 0  -1.6 -4.8 0  -1.5 -4.8 0  -1.4 -4.8 0  -1.3 -4.8 0  -1.2 -4.8 0  -1.1 -4.8 0  -1 -4.8 0  -0.9000000000000004 -4.8 0  -0.7999999999999998 -4.8 0  -0.7000000000000002 -4.8 0  -0.5999999999999996 -4.8 0  -0.5 -4.8 0  -0.4000000000000004 -4.8 0  -0.2999999999999998 -4.8 0  -0.2000000000000002 -4.8 0  -0.09999999999999964 -4.8 0  0 -4.8 0  0.09999999999999964 -4.8 0  0.2000000000000002 -4.8 0  0.2999999999999998 -4.8 0  0.4000000000000004 -4.8 0  0.5 -4.8 0  0.5999999999999996 -4.8 0  0.7000000000000002 -4.8 0  0.7999999999999998 -4.8 0  0.9000000000000004 -4.8 0  1 -4.8 0  1.1 -4.8 0  1.2 -4.8 0  1.3 -4.8 0  1.4 -4.8 0  1.5 -4.8 0  1.6 -4.8 0  1.7 -4.8 0  1.8 -4.8 0  1.9 -4.8 0  2 -4.8 0  2.1 -4.8 0  2.2 -4.8 0  2.3 -4.8 0  2.4 -4.8 0  2.5 -4.8 0  2.6 -4.8 0  2.7 -4.8 0  2.8 -4.8 0  2.9 -4.8 0  3 -4.8 0  3.1 -4.8 0  3.199999999999999 -4.8 0  3.300000000000001 -4.8 0  3.4 -4.8 0  3.5 -4.8 0  3.6 -4.8 0  3.699999999999999 -4.8 0  3.800000000000001 -4.8 0  3.9 -4.8 0  4 -4.8 0  4.1 -4.8 0  4.199999999999999 -4.8 0  4.300000000000001 -4.8 0  4.4 -4.8 0  4.5 -4.8 0  4.6 -4.8 0  4.699999999999999 -4.8 0  4.800000000000001 -4.8 0  4.9 -4.8 0  5 -4.8 0  -5 -4.7 0  -4.9 -4.7 0  -4.8 -4.7 0  -4.7 -4.7 0  -4.6 -4.7 0  -4.5 -4.7 0  -4.4 -4.7 0  -4.3 -4.7 0  -4.2 -4.7 0  -4.1 -4.7 0  -4 -4.7 0  -3.9 -4.7 0  -3.8 -4.7 0  -3.7 -4.7 0  -3.6 -4.7 0  -3.5 -4.7 0  -3.4 -4.7 0  -3.3 -4.7 0  -3.2 -4.7 0  -3.1 -4.7 0  -3 -4.7 0  -2.9 -4.7 0  -2.8 -4.7 0  -2.7 -4.7 0  -2.6 -4.7 0  -2.5 -4.7 0  -2.4 -4.7 0  -2.3 -4.7 0  -2.2 -4.7 0  -2.1 -4.7 0  -2 -4.7 0  -1.9 -4.7 0  -1.8 -4.7 0  -1.7 -4.7 0  -1.6 -4.7 0  -1.5 -4.7 0  -1.4 -4.7 0  -1.3 -4.7 0  -1.2 -4.7 0  -1.1 -4.7 0  -1 -4.7 0  -0.9000000000000004 -4.7 0  -0.7999999999999998 -4.7 0  -0.7000000000000002 -4.7 0  -0.5999999999999996 -4.7 0  -0.5 -4.7 0  -0.4000000000000004 -4.7 0  -0.2999999999999998 -4.7 0  -0.2000000000000002 -4.7 0  -0.09999999999999964 -4.7 0  0 -4.7 0  0.09999999999999964 -4.7 0  0.2000000000000002 -4.7 0  0.2999999999999998 -4.7 0  0.4000000000000004 -4.7 0  0.5 -4.7 0  0.5999999999999996 -4.7 0  0.7000000000000002 -4.7 0  0.7999999999999998 -4.7 0  0.9000000000000004 -4.7 0  1 -4.7 0  1.1 -4.7 0  1.2 -4.7 0  1.3 -4.7 0  1.4 -4.7 0  1.5 -4.7 0  1.6 -4.7 0  1.7 -4.7 0  1.8 -4.7 0  1.9 -4.7 0  2 -4.7 0  2.1 -4.7 0  2.2 -4.7 0  2.3 -4.7 0  2.4 -4.7 0  2.5 -4.7 0  2.6 -4.7 0  2.7 -4.7 0  2.8 -4.7 0  2.9 -4.7 0  3 -4.7 0  3.1 -4.7 0  3.199999999999999 -4.7 0  3.300000000000001 -4.7 0  3.4 -4.7 0  3.5 -4.7 0  3.6 -4.7 0  3.699999999999999 -4.7 0  3.800000000000001 -4.7 0  3.9 -4.7 0  4 -4.7 0  4.1 -4.7 0  4.199999999999999 -4.7 0  4.300000000000001 -4.7 0  4.4 -4.7 0  4.5 -4.7 0  4.6 -4.7 0  4.699999999999999 -4.7 0  4.800000000000001 -4.7 0  4.9 -4.7 0  5 -4.7 0  -5 -4.6 0  -4.9 -4.6 0  -4.8 -4.6 0  -4.7 -4.6 0  -4.6 -4.6 0  -4.5 -4.6 0  -4.4 -4.6 0  -4.3 -4.6 0  -4.2 -4.6 0  -4.1 -4.6 0  -4 -4.6 0  -3.9 -4.6 0  -3.8 -4.6 0  -3.7 -4.6 0  -3.6 -4.6 0  -3.5 -4.6 0  -3.4 -4.6 0  -3.3 -4.6 0  -3.2 -4.6 0  -3.1 -4.6 0  -3 -4.6 0  -2.9 -4.6 0  -2.8 -4.6 0  -2.7 -4.6 0  -2.6 -4.6 0  -2.5 -4.6 0  -2.4 -4.6 0  -2.3 -4.6 0  -2.2 -4.6 0  -2.1 -4.6 0  -2 -4.6 0  -1.9 -4.6 0  -1.8 -4.6 0  -1.7 -4.6 0  -1.6 -4.6 0  -1.5 -4.6 0  -1.4 -4.6 0  -1.3 -4.6 0  -1.2 -4.6 0  -1.1 -4.6 0  -1 -4.6 0  -0.9000000000000004 -4.6 0  -0.7999999999999998 -4.6 0  -0.7000000000000002 -4.6 0  -0.5999999999999996 -4.6 0  -0.5 -4.6 0  -0.4000000000000004 -4.6 0  -0.2999999999999998 -4.6 0  -0.2000000000000002 -4.6 0  -0.09999999999999964 -4.6 0  0 -4.6 0  0.09999999999999964 -4.6 0  0.2000000000000002 -4.6 0  0.2999999999999998 -4.6 0  0.4000000000000004 -4.6 0  0.5 -4.6 0  0.5999999999999996 -4.6 0  0.7000000000000002 -4.6 0  0.7999999999999998 -4.6 0  0.9000000000000004 -4.6 0  1 -4.6 0  1.1 -4.6 0  1.2 -4.6 0  1.3 -4.6 0  1.4 -4.6 0  1.5 -4.6 0  1.6 -4.6 0  1.7 -4.6 0  1.8 -4.6 0  1.9 -4.6 0  2 -4.6 0  2.1 -4.6 0  2.2 -4.6 0  2.3 -4.6 0  2.4 -4.6 0  2.5 -4.6 0  2.6 -4.6 0  2.7 -4.6 0  2.8 -4.6 0  2.9 -4.6 0  3 -4.6 0  3.1 -4.6 0  3.199999999999999 -4.6 0  3.300000000000001 -4.6 0  3.4 -4.6 0  3.5 -4.6 0  3.6 -4.6 0  3.699999999999999 -4.6 0  3.800000000000001 -4.6 0  3.9 -4.6 0  4 -4.6 0  4.1 -4.6 0  4.199999999999999 -4.6 0  4.300000000000001 -4.6 0  4.4 -4.6 0  4.5 -4.6 0  4.6 -4.6 0  4.699999999999999 -4.6 0  4.800000000000001 -4.6 0  4.9 -4.6 0  5 -4.6 0  -5 -4.5 0  -4.9 -4.5 0  -4.8 -4.5 0  -4.7 -4.5 0  -4.6 -4.5 0  -4.5 -4.5 0  -4.4 -4.5 0  -4.3 -4.5 0  -4.2 -4.5 0  -4.1 -4.5 0  -4 -4.5 0  -3.9 -4.5 0  -3.8 -4.5 0  -3.7 -4.5 0  -3.6 -4.5 0  -3.5 -4.5 0  -3.4 -4.5 0  -3.3 -4.5 0  -3.2 -4.5 0  -3.1 -4.5 0  -3 -4.5 0  -2.9 -4.5 0  -2.8 -4.5 0  -2.7 -4.5 0  -2.6 -4.5 0  -2.5 -4.5 0  -2.4 -4.5 0  -2.3 -4.5 0  -2.2 -4.5 0  -2.1 -4.5 0  -2 -4.5 0  -1.9 -4.5 0  -1.8 -4.5 0  -1.7 -4.5 0  -1.6 -4.5 0  -1.5 -4.5 0  -1.4 -4.5 0  -1.3 -4.5 0  -1.2 -4.5 0  -1.1 -4.5 0  -1 -4.5 0  -0.9000000000000004 -4.5 0  -0.7999999999999998 -4.5 0  -0.7000000000000002 -4.5 0  -0.5999999999999996 -4.5 0  -0.5 -4.5 0  -0.4000000000000004 -4.5 0  -0.2999999999999998 -4.5 0  -0.2000000000000002 -4.5 0  -0.09999999999999964 -4.5 0  0 -4.5 0  0.09999999999999964 -4.5 0  0.2000000000000002 -4.5 0  0.2999999999999998 -4.5 0  0.4000000000000004 -4.5 0  0.5 -4.5 0  0.5999999999999996 -4.5 0  0.7000000000000002 -4.5 0  0.7999999999999998 -4.5 0  0.9000000000000004 -4.5 0  1 -4.5 0  1.1 -4.5 0  1.2 -4.5 0  1.3 -4.5 0  1.4 -4.5 0  1.5 -4.5 0  1.6 -4.5 0  1.7 -4.5 0  1.8 -4.5 0  1.9 -4.5 0  2 -4.5 0  2.1 -4.5 0  2.2 -4.5 0  2.3 -4.5 0  2.4 -4.5 0  2.5 -4.5 0  2.6 -4.5 0  2.7 -4.5 0  2.8 -4.5 0  2.9 -4.5 0  3 -4.5 0  3.1 -4.5 0  3.199999999999999 -4.5 0  3.300000000000001 -4.5 0  3.4 -4.5 0  3.5 -4.5 0  3.6 -4.5 0  3.699999999999999 -4.5 0  3.800000000000001 -4.5 0  3.9 -4.5 0  4 -4.5 0  4.1 -4.5 0  4.199999999999999 -4.5 0  4.300000000000001 -4.5 0  4.4 -4.5 0  4.5 -4.5 0  4.6 -4.5 0  4.699999999999999 -4.5 0  4.800000000000001 -4.5 0  4.9 -4.5 0  5 -4.5 0  -5 -4.4 0  -4.9 -4.4 0  -4.8 -4.4 0  -4.7 -4.4 0  -4.6 -4.4 0  -4.5 -4.4 0  -4.4 -4.4 0  -4.3 -4.4 0  -4.2 -4.4 0  -4.1 -4.4 0  -4 -4.4 0  -3.9 -4.4 0  -3.8 -4.4 0  -3.7 -4.4 0  -3.6 -4.4 0  -3.5 -4.4 0  -3.4 -4.4 0  -3.3 -4.4 0  -3.2 -4.4 0  -3.1 -4.4 0  -3 -4.4 0  -2.9 -4.4 0  -2.8 -4.4 0  -2.7 -4.4 0  -2.6 -4.4 0  -2.5 -4.4 0  -2.4 -4.4 0  -2.3 -4.4 0  -2.2 -4.4 0  -2.1 -4.4 0  -2 -4.4 0  -1.9 -4.4 0  -1.8 -4.
[...]
<PointData  Vectors="f_23"> 
<DataArray  type="Float64"  Name="f_23"  NumberOfComponents="3" format="ascii">1.5000111630049687e-01 0.0000000000000000e+00 0.0000000000000000e+00  1.5000024023917341e-01 1.0021814667837060e-12 0.0000000000000000e+00  1.5000229116845415e-01 8.7702423504653488e-14 0.0000000000000000e+00  1.5000287245365879e-01 6.0686524522622588e-12 0.0000000000000000e+00  1.5000682624009046e-01 5.8667731169474378e-12 0.0000000000000000e+00  1.5001026479432336e-01 3.5069320839215919e-11 0.0000000000000000e+00  1.5001791975169168e-01 5.0076400440609553e-11 0.0000000000000000e+00  1.5002525349512147e-01 1.2816181822886754e-10 0.0000000000000000e+00  1.5003569419624921e-01 1.4023619819168563e-10 0.0000000000000000e+00  1.5004303255939577e-01 1.6293672241991378e-10 0.0000000000000000e+00  1.5004849960541569e-01 5.7550615687276722e-11 0.0000000000000000e+00  1.5004622811131069e-01 4.0815366238987378e-13 0.0000000000000000e+00  1.5003903787496589e-01 1.1248830492437814e-10 0.0000000000000000e+00  1.5002629872134080e-01 3.4766242544718890e-10 0.0000000000000000e+00  1.5001529034117483e-01 5.0039827354999356e-10 0.0000000000000000e+00  1.5000862839316756e-01 3.0025709355018254e-10 0.0000000000000000e+00  1.5000877623617970e-01 5.3146791847787046e-11 0.0000000000000000e+00  1.5001114145502564e-01 1.5066425479920123e-11 0.0000000000000000e+00  1.5001206794934147e-01 7.9692192813326549e-11 0.0000000000000000e+00  1.5000723721813253e-01 4.8229883694152601e-11 0.0000000000000000e+00  1.4999772823452845e-01 3.4287336508655783e-13 0.0000000000000000e+00  1.4998871504445918e-01 2.8425213958577020e-11 0.0000000000000000e+00  1.4998581093820804e-01 4.5783389704564432e-11 0.0000000000000000e+00  1.4999041327514220e-01 5.0915502284705834e-14 0.0000000000000000e+00  1.5000218955518982e-01 1.0181683076131640e-10 0.0000000000000000e+00  1.5001461722653944e-01 1.7586808986579613e-10 0.0000000000000000e+00  1.5001477572794528e-01 2.7769414031413721e-11 0.0000000000000000e+00  1.5000196922883777e-01 2.9922121684433687e-11 0.0000000000000000e+00  1.4999331735293267e-01 1.0355298984873696e-10 0.0000000000000000e+00  1.4999618757661470e-01 5.2003704458256580e-11 0.0000000000000000e+00  1.5000148486690459e-01 1.3432488826545208e-13 0.0000000000000000e+00  1.5000796859757479e-01 3.6496971823536384e-11 0.0000000000000000e+00  1.5001539177461531e-01 2.0137793581805258e-11 0.0000000000000000e+00  1.5000897822617554e-01 6.4350514730356987e-12 0.0000000000000000e+00  1.4999061496584704e-01 9.3578429412881961e-11 0.0000000000000000e+00  1.4998783962083548e-01 8.8572831292352677e-11 0.0000000000000000e+00  1.5000481022617601e-01 1.8591814863763671e-11 0.0000000000000000e+00  1.5001478096691162e-01 2.5791068947936478e-10 0.0000000000000000e+00  1.5000468423104965e-01 1.3882152455872849e-12 0.0000000000000000e+00  1.4998777798625498e-01 4.1522979126752103e-10 0.0000000000000000e+00  1.4998802079508011e-01 3.3201637915946612e-11 0.0000000000000000e+00  1.5001041971004733e-01 4.6547232189236021e-10 0.0000000000000000e+00  1.5001662641701544e-01 4.6420794078764447e-11 0.0000000000000000e+00  1.4998897343512213e-01 4.4912904519348232e-10 0.0000000000000000e+00  1.4998277734107679e-01 2.1709381227230524e-11 0.0000000000000000e+00  1.5001406465575259e-01 3.8357168192745055e-10 0.0000000000000000e+00  1.5001342531098927e-01 1.7157365584423061e-13 0.0000000000000000e+00  1.4998279359422553e-01 2.7831272368183479e-10 0.0000000000000000e+00  1.4999409514726056e-01 1.8977779473035169e-11 0.0000000000000000e+00  1.5001768927461101e-01 1.5226494585467328e-10 0.0000000000000000e+00  1.4999702432520323e-01 6.6274831396480474e-11 0.0000000000000000e+00  1.4998610316366040e-01 4.7189417393381289e-11 0.0000000000000000e+00  1.5000993598167106e-01 9.5333143226412653e-11 0.0000000000000000e+00  1.5000657621436198e-01 1.4108096219692871e-12 0.0000000000000000e+00  1.4998769232544235e-01 7.6430635027149851e-11 0.0000000000000000e+00  1.5000144935107596e-01 1.1522899388303552e-11 0.0000000000000000e+00  1.5000959599498426e-01 3.0599333548432901e-11 0.0000000000000000e+00  1.4999314003097738e-01 3.2754302687771520e-11 0.0000000000000000e+00  1.4999618799654263e-01 2.0772227975894874e-12 0.0000000000000000e+00  1.5000782137831528e-01 2.9306130259196530e-11 0.0000000000000000e+00  1.4999826763505814e-01 3.5873579809513002e-12 0.0000000000000000e+00  1.4999499646245487e-01 9.9778591800151233e-12 0.0000000000000000e+00  1.5000444707868182e-01 1.1032078711295522e-11 0.0000000000000000e+00  1.5000091406899818e-01 1.6240758705522975e-13 0.0000000000000000e+00  1.4999614212007223e-01 7.4981789879307859e-12 0.0000000000000000e+00  1.5000188060214414e-01 2.0512716772639519e-12 0.0000000000000000e+00  1.5000148129199198e-01 1.1383985868818855e-12 0.0000000000000000e+00  1.4999767246998691e-01 2.9975021367909642e-12 0.0000000000000000e+00  1.5000059101429553e-01 1.6499443813117387e-13 0.0000000000000000e+00  1.5000117857340431e-01 8.9722907028971752e-13 0.0000000000000000e+00  1.4999873616189355e-01 9.4408872905761266e-13 0.0000000000000000e+00  1.5000016176437456e-01 5.8824195751009591e-15 0.0000000000000000e+00  1.5000069263459431e-01 3.3097311687484424e-13 0.0000000000000000e+00  1.4999938827582432e-01 2.0451398723226622e-13 0.0000000000000000e+00  1.5000000023122631e-01 5.6877174247074798e-15 0.0000000000000000e+00  1.5000042455829377e-01 1.6385276809263732e-13 0.0000000000000000e+00  1.4999962120757579e-01 1.0637566757301089e-13 0.0000000000000000e+00  1.5000008126532879e-01 3.2109772831536289e-15 0.0000000000000000e+00  1.5000013053463243e-01 1.1871162306281977e-14 0.0000000000000000e+00  1.4999987763170744e-01 5.4146749055704261e-15 0.0000000000000000e+00  1.4999998555628885e-01 3.7990128270751275e-15 0.0000000000000000e+00  1.5000012760640088e-01 2.4454153721528884e-14 0.0000000000000000e+00  1.4999985588184495e-01 2.4005275560680647e-14 0.0000000000000000e+00  1.5000009007066939e-01 8.7513237447297549e-15 0.0000000000000000e+00  1.4999997038467500e-01 1.3209895832467614e-15 0.0000000000000000e+00  1.5000000414061490e-01 3.4455208331233190e-16 0.0000000000000000e+00  1.4999998558611874e-01 1.1926791901234692e-15 0.0000000000000000e+00  1.5000003796016773e-01 3.4550372889525619e-15 0.0000000000000000e+00  1.4999994638711078e-01 5.0308996546784917e-15 0.0000000000000000e+00  1.5000005399186278e-01 4.4083146960647760e-15 0.0000000000000000e+00  1.4999995613997644e-01 2.7592469042383526e-15 0.0000000000000000e+00  1.5000003198696557e-01 1.5409106127285448e-15 0.0000000000000000e+00  1.4999997541795526e-01 1.0490490232504427e-15 0.0000000000000000e+00  1.5000002283620509e-01 1.0262616214440619e-15 0.0000000000000000e+00  1.4999997519722569e-01 1.2143693911267797e-15 0.0000000000000000e+00  1.5000002696181713e-01 1.3654230485659618e-15 0.0000000000000000e+00  1.4999997200893639e-01 1.3227475826810798e-15 0.0000000000000000e+00  1.5000002483344280e-01 9.0969013016663087e-16 0.0000000000000000e+00  1.4999997372206683e-01 6.2956002698165490e-16 0.0000000000000000e+00  1.5000001332709667e-01 1.4558075370008086e-16 0.0000000000000000e+00  1.4999996932823731e-01 0.0000000000000000e+00 0.0000000000000000e+00  1.5000024023917291e-01 0.0000000000000000e+00 1.0021814658655062e-12  1.4999879305447300e-01 1.8636628404476031e-15 1.8636628766629620e-15  1.4999908349274974e-01 1.7542094168281290e-12 1.7726399075208454e-12  1.4999663458421886e-01 6.6986539920416665e-13 2.6924744753181344e-12  1.4999528469965812e-01 1.1283819710888303e-11 1.4663472698501206e-11  1.4999012233563624e-01 1.4088421066205623e-11 3.1414306604117223e-11  1.4998539636810412e-01 5.9433464665740733e-11 9.4516344482320675e-11  1.4997620386120736e-01 8.2457315267891747e-11 1.7502362620457083e-10  1.4996807291035066e-01 1.6959223062071249e-10 3.4390690903101508e-10  1.4995763836626358e-01 1.5200876619722113e-10 4.6331019767661617e-10  1.4995224952124356e-01 1.2753896399922098e-10 5.7650872654098487e-10  1.4994983471561599e-01 1.3769190710130088e-11 4.8005498303156645e-10  1.4995586878714903e-01 2.3177434443893703e-11 3.3999290624371795e-10  1.4996539570565681e-01 2.4685047390635388e-10 1.4954781315290779e-10  1.4997819033118842e-01 4.3602861507509665e-10 6.9039438586806011e-11  1.4998636754838457e-01 4.2822272998581619e-10 3.8656090973177348e-11  1.4998999893066622e-01 1.5822906925667650e-10 5.8573303678001986e-11  1.4998888708844940e-01 5.5810536273683457e-12 6.6825296324977784e-11  1.4998865287164714e-01 3.4205667629326768e-11 4.2433181677867555e-11  1.4999142996701079e-01 4.6579865073202597e-11 1.0835966962923104e-12  1.4999935515726351e-01 8.9580917041158302e-12 2.7685097706166942e-11  1.5000827672462325e-01 5.7502445145325998e-12 8.9785123289733157e-11  1.5001306228835015e-01 2.9423814933009743e-11 7.4863694911949475e-11  1.5001113910574065e-01 7.6553703733975360e-12 1.5171446048681058e-11  1.5000317606093655e-01 3.6653494969025077e-11 6.3071545911295567e-12  1.4999120657747142e-01 1.5461875679638425e-10 4.9174095063255873e-11  1.4998506302085285e-01 7.2401037504946047e-11 2.5800594789813143e-11  1.4999313063510078e-01 1.9894711468761478e-12 1.0564074817327006e-11  1.5000489122179222e-01 6.4403714480108827e-11 7.6296951888097645e-11  1.5000533523664947e-01 6.7873254316986130e-11 2.7145528708809336e-11  1.4999931296316010e-01 7.1504796571376016e-12 1.8695250993687170e-12  1.4999460507459064e-01 2.0626864401109272e-11 2.9743480883719278e-11  1.4998786305746328e-01 2.8098327695469773e-11 5.7218400807287156e-11  1.4998698673531843e-01 1.3432151619127361e-12 1.3957215125846303e-11  1.5000176138896465e-01 4.9192184271714589e-11 3.8380812350416931e-11  1.5001251291526457e-01 6.5594219332472997e-11 5.9588331661788806e-11  1.5000154512439015e-01 3.9700862549340636e-12 1.5734036725854070e-11  1.4998821662189710e-01 9.5637094596832275e-11 1.0522896697811078e-10  1.4999172594826979e-01 8.1033653186722697e-11 1.1951789945775326e-12  1.5000472680907787e-01 1.0732224878070872e-10 7.5824664170847532e-11  1.5001208403714994e-01 2.1047675011256895e-10 2.4696718794588438e-11  1.5000121548719322e-01 9.2206103446216355e-11 4.2758471170665318e-11  1.4998448357568900e-01 2.6239806006829900e-10 5.8062819090945481e-11  1.4999604217521656e-01 9.0609073012018080e-11 2.8104895223024369e-11  1.5001812697838943e-01 2.2025760497721317e-10 7.2611100535302990e-11  1.5000208192053366e-01 1.0131597245051872e-10 3.3566708053119400e-11  1.4998105002016940e-01 1.2848771764304848e-10 5.6155189770275018e-11  1.5000325556566818e-01 1.1339653065988392e-10 5.2036128186083865e-11  1.5001640434551897e-01 4.5230030279033068e-11 1.9638566530116631e-11  1.4999061776133465e-01 1.0994527246268930e-10 6.5908233842878565e-11  1.4998982244225018e-01 3.8053879408875080e-12 9.7751084626665178e-15  1.5001305432198095e-01 8.2691779587827514e-11 5.1184679193810748e-11  1.5000187489614741e-01 4.4798499549494167e-12 1.5902076495401413e-11  1.4998776253610777e-01 4.1521300943729983e-11 1.6533932963572176e-11  1.5000544559200593e-01 2.2381909335197861e-11 3.7508089066799723e-11  1.5000725505603632e-01 9.0614181419861096e-12 6.3605088464719071e-15  1.4999101643179313e-01 2.9620745966598474e-11 3.0043386968057274e-11  1.4999933309030014e-01 1.1173046185330450e-13 1.1792618227759578e-11  1.5000786581154341e-01 1.8609088310051470e-11 7.1096799929473624e-12  1.4999571649226909e-01 6.8749944282467765e-12 2.0679908381907019e-11  1.4999634623355598e-01 4.1502930152421068e-12 3.5015907720731007e-13  1.5000565009997846e-01 1.0613046190814954e-11 1.0919683057027768e-11  1.4999924380228685e-01 8.3955971543609404e-14 6.4920075437375914e-12  1.4999621213062986e-01 5.5775170380993967e-12 8.4130658352544171e-13  1.5000302771025276e-01 2.7825592002062779e-12 6.3478803572668855e-12  1.5000075668728019e-01 5.3688981868404380e-13 9.8194071015350667e-13  1.4999732577653005e-01 2.8981304170506850e-12 1.3486395695012225e-12  1.5000128717537820e-01 3.2290115190369789e-13 2.2714380876250698e-12  1.5000097531660764e-01 7.5277305353473135e-13 5.7584033175559965e-14  1.4999840980474499e-01 1.0536177588282806e-12 7.6810132258659584e-13  1.5000050768284787e-01 1.9210365983875328e-14 6.5596645885671981e-13  1.5000066651133820e-01 3.4069162217269219e-13 3.5386825757309811e-16  1.4999919266863462e-01 2.3819662399138451e-13 2.6767495102901257e-13  1.5000014879613602e-01 5.4045717421033176e-15 1.6177703706403043e-13  1.5000044124729633e-01 1.8719661843780691e-13 1.1505861888467620e-15  1.4999951897041475e-01 1.1497762124109634e-13 9.2163317213776305e-14  1.5000014533752251e-01 1.1788575155339615e-15 6.0116632253578039e-14  1.5000014473361531e-01 2.1071611547653679e-14 9.5942039309886242e-16  1.4999982748444177e-01 8.8884258465893645e-15 1.1771774717003014e-14  1.5000001847383113e-01 3.7784182511349333e-15 8.6641265146552446e-15  1.5000012716618910e-01 2.5288976670583598e-14 3.8321875245894361e-17  1.4999984190505200e-01 2.0467624144387179e-14 7.0748002481477416e-15  1.5000009664236941e-01 4.3608457086180678e-15 8.7602873708810368e-15  1.4999997784688637e-01 2.4499183270377644e-17 3.0146805799169639e-15  1.4999998954283314e-01 2.7073583997145993e-17 1.6077815267257800e-16  1.4999999809825845e-01 4.4362153048782051e-16 2.3050249933931181e-17  1.5000003141039223e-01 2.5584693947291553e-15 8.7695355890357781e-18  1.4999994858698823e-01 3.8174302963592303e-15 4.2193743326085612e-16  1.5000005286896639e-01 2.9030859834003723e-15 1.0957484171824105e-15  1.4999995802855248e-01 1.4792608283036630e-15 1.2248632952914744e-15  1.5000002954710498e-01 7.3201713171149757e-16 8.4204883289158864e-16  1.4999997738822082e-01 5.8546095658331353e-16 4.4581942165199141e-16  1.5000002216936315e-01 7.6744212536141516e-16 2.5183880330591808e-16  1.4999997489872557e-01 1.0562055692859117e-15 2.1095413171902080e-16  1.5000002787589442e-01 1.1909718007315499e-15 2.5691414891638700e-16  1.4999997221602604e-01 1.0366422560306004e-15 3.1850344310830827e-16  1.5000002516115338e-01 7.0411128625443545e-16 3.5321768512097978e-16  1.4999998087181987e-01 3.2614950308134318e-16 2.7997229194545999e-16  1.5000001662935991e-01 1.8519422541157537e-16 2.5930042422087932e-16  1.4999999685833781e-01 3.0090825736759889e-17 3.0090825350183853e-17  1.5000001332709700e-01 0.0000000000000000e+00 1.4558073776454680e-16  1.5000229116845462e-01 0.0000000000000000e+00 8.7702423505231906e-14  1.4999908349274990e-01 1.7726399083683473e-12 1.7542094180546225e-12  1.5000268815620005e-01 5.2323027633969609e-13 5.2323027657442918e-13  1.5000123282996669e-01 9.2931188003802995e-12 1.2457244819125738e-11  1.5000644498015872e-01 3.7092562493205599e-13 1.9229594536820332e-11  1.5000725624341246e-01 3.9100082203961790e-11 9.8424743644861720e-11  1.5001631793178946e-01 2.1376098374082601e-11 1.8948556376784841e-10  1.5002110184416395e-01 1.4177629095898274e-10 5.4344363714518611e-10  1.5003441421190272e-01 1.1377510397414923e-10 9.0536626127499741e-10  1.5004160803714109e-01 2.7868743882753535e-10 1.6807487066669885e-09  1.5005365066312057e-01 1.3717627975163688e-10 2.0416151429109335e-09  1.5005472086796717e-01 1.1447273235506404e-10 2.3946331756872359e-09  1.5005525278191298e-01 2.7672360155965340e-12 1.8156893825649739e-09  1.5004400962200065e-01 9.0007447868736086e-11 1.2704676122351251e-09  1.5003404079050456e-01 4.4813402127938309e-10 5.5792955403780773e-10  1.5002086345610072e-01 4.7913623035821689e-10 3.1988313989894031e-10  1.5001631671220433e-01 3.8901095182889279e-10 2.0687041534463290e-10  1.5001325245925456e-01 7.9736547488280093e-11 2.6385853675214483e-10  1.5001349552686141e-01 3.1795720774512390e-13 1.9122161518743550e-10  1.5000943774104250e-01 2.5976076754161945e-11 6.6021828585823763e-11  1.5000317773862354e-01 9.9136826427631028e-12 8.4843826944008849e-12  1.4999350649979690e-01 8.1645592642764872e-15 1.5520505670358421e-10  1.4998752756226663e-01 1.4084192483327632e-11 2.7934543614122289e-10  1.4998729689919166e-01 1.3808245329182306e-11 1.5657081792874157e-10  1.4999290932235798e-01 4.9853101372299259e-12 1.5723899949516292e-11  1.5000265070940211e-01 1.2415183996803749e-10 3.7531251084999842e-11  1.5001232711314089e-01 1.3554172170958315e-10 1.2470695384176610e-10  1.5001010391190731e-01 5.8845149049462342e-12 1.0690295472898279e-11  1.4999706913546018e-01 3.7290778582004393e-11 1.3418979080682496e-10  1.4999173238958496e-01 6.3098889381051792e-11 2.0355987637899017e-10  1.4999875128806964e-01 2.2489946460724278e-11 1.2895736451484952e-11  1.5000456195706457e-01 4.6704676812731264e-12 2.8353382042857803e-11  1.5000921747022261e-01 4.4090198337461111e-11 1.1685607460628934e-10  1.5001495052994271e-01 2.8686904273788008e-12 1.7634814569613825e-10  1.5000640163512485e-01 4.2182290349723517e-11 9.2865435794658780e-13  1.4998897125521782e-01 7.2886328379749578e-11 2.2064033965149745e-10  1.4999229317878643e-01 2.0528141238650317e-11 3.3744393913523432e-11  1.5001010412827551e-01 2.1184125475780089e-11 2.1973503830947453e-10  1.5001135233649801e-01 1.2158252232636722e-10 1.4486712684780912e-10  1.4999851342852624e-01 8.7909847998769986e-13 4.8126485707346588e-11  1.4999044323921720e-01 2.6978561620539268e-10 1.6835460814626770e-10  1.4999388525975721e-01 7.5001453403937414e-12 4.4011403319684963e-13  1.5000862465073073e-01 3.3969421488639910e-10 1.7682971998864859e-10  1.5001197432132335e-01 1.2164931545910459e-11 3.7207178099245711e-11  1.4999027036812212e-01 3.3479021849254314e-10 2.0015172293973332e-10  1.4998629872432159e-01 2.9831163642079909e-12 5.0181881306080875e-11  1.5001295518708155e-01 2.6924210652044013e-10 2.4533539786109311e-10  1.5001074491987587e-01 2.1478769383388211e-12 1.3444777708813013e-11  1.4998424723054021e-01 1.7305006494969710e-10 2.4663968322000165e-10  1.4999612512006347e-01 2.1871672840294463e-11 7.0598866059097791e-12  1.5001548031700773e-01 7.9182706231111836e-11 1.5555230900340419e-10  1.4999592499569392e-01 4.6270605017834537e-11 7.5115295550049891e-11  1.4998908612168169e-01 1.7974735076792537e-11 3.3612978230364916e-11  1.5000961418794723e-01 5.1754907123145814e-11 1.2546802722461070e-10  1.5000347965196159e-01 7.0835655860878292e-16 4.1263883129644078e-12  1.4998966731738078e-01 3.3507017843855203e-11 7.7668151413112972e-11  1.5000360267665713e-01 9.3459857707022238e-12 5.8576192793878714e-11  1.5000647626532179e-01 9.6638105269334576e-12 8.6143991934953260e-12  1.4999277737605846e-01 1.8019427210194964e-11 7.5443443323784358e-11  1.4999926674214364e-01 2.7198955288874864e-14 9.2194367707071123e-12  1.5000639214271233e-01 1.2714883045115924e-11 2.9129826334134830e-11  1.4999644451963343e-01 3.7871318200155583e-12 3.5646771642328000e-11  1.4999728712003119e-01 2.8753766069071111e-12 2.1821784706474013e-13  1.5000453115568316e-01 6.5968085901158836e-12 2.4831937332349926e-11  1.4999902220233582e-01 8.5338971935544789e-14 8.7019259624823331e-12  1.4999732198539886e-01 3.0595967415182081e-12 3.0425839892482329e-12  1.5000251877319654e-01 1.7336772759351808e-12 1.1280313558890935e-11  1.5000019179934973e-01 2.1746062601219868e-13 1.1602113247363127e-12  1.4999805838848043e-01 1.7714782740285968e-12 2.6563183324071192e-12  1.5000130950903706e-01 4.2981905350256952e-13 3.8061534374901432e-12  1.5000030749739537e-01 1.5749795172190740e-13 1.1711552100453427e-13  1.4999895930598264e-01 4.2486712080705474e-13 1.0766520068745571e-12  1.5000050815541555e-01 1.0687710048288298e-14 9.7891508147050222e-13  1.5000037262670884e-01 2.3107601439142342e-13 1.9066162149921328e-15  1.4999929022731490e-01 3.1578349047016818e-13 4.3768356703378688e-13  1.5000042133117988e-01 6.1322653913057329e-14 3.8182073717296130e-13  1.5000001150964895e-01 1.9987174821795327e-15 2.0108135605662595e-14  1.4999982212623750e-01 5.2238583384398319e-15 4.6777209657205682e-14  1.5000004836696473e-01 8.4033308602701161e-15 4.6897212399181886e-14  1.5000015939096537e-01 5.8995535835250423e-14 2.4251159838939610e-17  1.4999974411690542e-01 7.0172450862221189e-14 3.8752665567190081e-14  1.5000021291933377e-01 3.4678698563072605e-14 5.3250439828328976e-14  1.4999988493