<?xml version="1.0"?>
<VTKFile type="UnstructuredGrid"  version="0.1"  >
<UnstructuredGrid>
<Piece  NumberOfPoints="10201" NumberOfCells="20000">
<Points>
<DataArray  type="Float64"  NumberOfComponents="3"  format="ascii">-5 -5 0  -4.9 -5 0  -4.8 -5 0  -4.7 -5 0  -4.6 -5 0  -4.5 -5 0  -4.4 -5 0  -4.3 -5 0  -4.2 -5 0  -4.1 -5 0  -4 -5 0  -3.9 -5 0  -3.8 -5 0  -3.7 -5 0  -3.6 -5 0  -3.5 -5 0  -3.4 -5 0  -3.3 -5 0  -3.2 -5 0  -3.1 -5 0  -3 -5 0  -2.9 -5 0  -2.8 -5 0  -2.7 -5 0  -2.6 -5 0  -2.5 -5 0  -2.4 -5 0  -2.3 -5 0  -2.2 -5 0  -2.1 -5 0  -2 -5 0  -1.9 -5 0  -1.8 -5 0  -1.7 -5 0  -1.6 -5 0  -1.5 -5 0  -1.4 -5 0  -1.3 -5 0  -1.2 -5 0  -1.1 -5 0  -1 -5 0  -0.9000000000000004 -5 0  -0.7999999999999998 -5 0  -0.7000000000000002 -5 0  -0.5999999999999996 -5 0  -0.5 -5 0  -0.4000000000000004 -5 0  -0.2999999999999998 -5 0  -0.2000000000000002 -5 0  -0.09999999999999964 -5 0  0 -5 0  0.09999999999999964 -5 0  0.2000000000000002 -5 0  0.2999999999999998 -5 0  0.4000000000000004 -5 0  0.5 -5 0  0.5999999999999996 -5 0  0.7000000000000002 -5 0  0.7999999999999998 -5 0  0.9000000000000004 -5 0  1 -5 0  1.1 -5 0  1.2 -5 0  1.3 -5 0  1.4 -5 0  1.5 -5 0  1.6 -5 0  1.7 -5 0  1.8 -5 0  1.9 -5 0  2 -5 0  2.1 -5 0  2.2 -5 0  2.3 -5 0  2.4 -5 0  2.5 -5 0  2.6 -5 0  2.7 -5 0  2.8 -5 0  2.9 -5 0  3 -5 0  3.1 -5 0  3.199999999999999 -5 0  3.300000000000001 -5 0  3.4 -5 0  3.5 -5 0  3.6 -5 0  3.699999999999999 -5 0  3.800000000000001 -5 0  3.9 -5 0  4 -5 0  4.1 -5 0  4.199999999999999 -5 0  4.300000000000001 -5 0  4.4 -5 0  4.5 -5 0  4.6 -5 0  4.699999999999999 -5 0  4.800000000000001 -5 0  4.9 -5 0  5 -5 0  -5 -4.9 0  -4.9 -4.9 0  -4.8 -4.9 0  -4.7 -4.9 0  -4.6 -4.9 0  -4.5 -4.9 0  -4.4 -4.9 0  -4.3 -4.9 0  -4.2 -4.9 0  -4.1 -4.9 0  -4 -4.9 0  -3.9 -4.9 0  -3.8 -4.9 0  -3.7 -4.9 0  -3.6 -4.9 0  -3.5 -4.9 0  -3.4 -4.9 0  -3.3 -4.9 0  -3.2 -4.9 0  -3.1 -4.9 0  -3 -4.9 0  -2.9 -4.9 0  -2.8 -4.9 0  -2.7 -4.9 0  -2.6 -4.9 0  -2.5 -4.9 0  -2.4 -4.9 0  -2.3 -4.9 0  -2.2 -4.9 0  -2.1 -4.9 0  -2 -4.9 0  -1.9 -4.9 0  -1.8 -4.9 0  -1.7 -4.9 0  -1.6 -4.9 0  -1.5 -4.9 0  -1.4 -4.9 0  -1.3 -4.9 0  -1.2 -4.9 0  -1.1 -4.9 0  -1 -4.9 0  -0.9000000000000004 -4.9 0  -0.7999999999999998 -4.9 0  -0.7000000000000002 -4.9 0  -0.5999999999999996 -4.9 0  -0.5 -4.9 0  -0.4000000000000004 -4.9 0  -0.2999999999999998 -4.9 0  -0.2000000000000002 -4.9 0  -0.09999999999999964 -4.9 0  0 -4.9 0  0.09999999999999964 -4.9 0  0.2000000000000002 -4.9 0  0.2999999999999998 -4.9 0  0.4000000000000004 -4.9 0  0.5 -4.9 0  0.5999999999999996 -4.9 0  0.7000000000000002 -4.9 0  0.7999999999999998 -4.9 0  0.9000000000000004 -4.9 0  1 -4.9 0  1.1 -4.9 0  1.2 -4.9 0  1.3 -4.9 0  1.4 -4.9 0  1.5 -4.9 0  1.6 -4.9 0  1.7 -4.9 0  1.8 -4.9 0  1.9 -4.9 0  2 -4.9 0  2.1 -4.9 0  2.2 -4.9 0  2.3 -4.9 0  2.4 -4.9 0  2.5 -4.9 0  2.6 -4.9 0  2.7 -4.9 0  2.8 -4.9 0  2.9 -4.9 0  3 -4.9 0  3.1 -4.9 0  3.199999999999999 -4.9 0  3.300000000000001 -4.9 0  3.4 -4.9 0  3.5 -4.9 0  3.6 -4.9 0  3.699999999999999 -4.9 0  3.800000000000001 -4.9 0  3.9 -4.9 0  4 -4.9 0  4.1 -4.9 0  4.199999999999999 -4.9 0  4.300000000000001 -4.9 0  4.4 -4.9 0  4.5 -4.9 0  4.6 -4.9 0  4.699999999999999 -4.9 0  4.800000000000001 -4.9 0  4.9 -4.9 0  5 -4.9 0  -5 -4.8 0  -4.9 -4.8 0  -4.8 -4.8 0  -4.7 -4.8 0  -4.6 -4.8 0  -4.5 -4.8 0  -4.4 -4.8 0  -4.3 -4.8 0  -4.2 -4.8 0  -4.1 -4.8 0  -4 -4.8 0  -3.9 -4.8 0  -3.8 -4.8 0  -3.7 -4.8 0  -3.6 -4.8 0  -3.5 -4.8 0  -3.4 -4.8 0  -3.3 -4.8 0  -3.2 -4.8 0  -3.1 -4.8 0  -3 -4.8 0  -2.9 -4.8 0  -2.8 -4.8 0  -2.7 -4.8 0  -2.6 -4.8 0  -2.5 -4.8 0  -2.4 -4.8 0  -2.3 -4.8 0  -2.2 -4.8 0  -2.1 -4.8 0  -2 -4.8 0  -1.9 -4.8 0  -1.8 -4.8 0  -1.7 -4.8 0  -1.6 -4.8 0  -1.5 -4.8 0  -1.4 -4.8 0  -1.3 -4.8 0  -1.2 -4.8 0  -1.1 -4.8 0  -1 -4.8 0  -0.9000000000000004 -4.8 0  -0.7999999999999998 -4.8 0  -0.7000000000000002 -4.8 0  -0.5999999999999996 -4.8 0  -0.5 -4.8 0  -0.4000000000000004 -4.8 0  -0.2999999999999998 -4.8 0  -0.2000000000000002 -4.8 0  -0.09999999999999964 -4.8 0  0 -4.8 0  0.09999999999999964 -4.8 0  0.2000000000000002 -4.8 0  0.2999999999999998 -4.8 0  0.4000000000000004 -4.8 0  0.5 -4.8 0  0.5999999999999996 -4.8 0  0.7000000000000002 -4.8 0  0.7999999999999998 -4.8 0  0.9000000000000004 -4.8 0  1 -4.8 0  1.1 -4.8 0  1.2 -4.8 0  1.3 -4.8 0  1.4 -4.8 0  1.5 -4.8 0  1.6 -4.8 0  1.7 -4.8 0  1.8 -4.8 0  1.9 -4.8 0  2 -4.8 0  2.1 -4.8 0  2.2 -4.8 0  2.3 -4.8 0  2.4 -4.8 0  2.5 -4.8 0  2.6 -4.8 0  2.7 -4.8 0  2.8 -4.8 0  2.9 -4.8 0  3 -4.8 0  3.1 -4.8 0  3.199999999999999 -4.8 0  3.300000000000001 -4.8 0  3.4 -4.8 0  3.5 -4.8 0  3.6 -4.8 0  3.699999999999999 -4.8 0  3.800000000000001 -4.8 0  3.9 -4.8 0  4 -4.8 0  4.1 -4.8 0  4.199999999999999 -4.8 0  4.300000000000001 -4.8 0  4.4 -4.8 0  4.5 -4.8 0  4.6 -4.8 0  4.699999999999999 -4.8 0  4.800000000000001 -4.8 0  4.9 -4.8 0  5 -4.8 0  -5 -4.7 0  -4.9 -4.7 0  -4.8 -4.7 0  -4.7 -4.7 0  -4.6 -4.7 0  -4.5 -4.7 0  -4.4 -4.7 0  -4.3 -4.7 0  -4.2 -4.7 0  -4.1 -4.7 0  -4 -4.7 0  -3.9 -4.7 0  -3.8 -4.7 0  -3.7 -4.7 0  -3.6 -4.7 0  -3.5 -4.7 0  -3.4 -4.7 0  -3.3 -4.7 0  -3.2 -4.7 0  -3.1 -4.7 0  -3 -4.7 0  -2.9 -4.7 0  -2.8 -4.7 0  -2.7 -4.7 0  -2.6 -4.7 0  -2.5 -4.7 0  -2.4 -4.7 0  -2.3 -4.7 0  -2.2 -4.7 0  -2.1 -4.7 0  -2 -4.7 0  -1.9 -4.7 0  -1.8 -4.7 0  -1.7 -4.7 0  -1.6 -4.7 0  -1.5 -4.7 0  -1.4 -4.7 0  -1.3 -4.7 0  -1.2 -4.7 0  -1.1 -4.7 0  -1 -4.7 0  -0.9000000000000004 -4.7 0  -0.7999999999999998 -4.7 0  -0.7000000000000002 -4.7 0  -0.5999999999999996 -4.7 0  -0.5 -4.7 0  -0.4000000000000004 -4.7 0  -0.2999999999999998 -4.7 0  -0.2000000000000002 -4.7 0  -0.09999999999999964 -4.7 0  0 -4.7 0  0.09999999999999964 -4.7 0  0.2000000000000002 -4.7 0  0.2999999999999998 -4.7 0  0.4000000000000004 -4.7 0  0.5 -4.7 0  0.5999999999999996 -4.7 0  0.7000000000000002 -4.7 0  0.7999999999999998 -4.7 0  0.9000000000000004 -4.7 0  1 -4.7 0  1.1 -4.7 0  1.2 -4.7 0  1.3 -4.7 0  1.4 -4.7 0  1.5 -4.7 0  1.6 -4.7 0  1.7 -4.7 0  1.8 -4.7 0  1.9 -4.7 0  2 -4.7 0  2.1 -4.7 0  2.2 -4.7 0  2.3 -4.7 0  2.4 -4.7 0  2.5 -4.7 0  2.6 -4.7 0  2.7 -4.7 0  2.8 -4.7 0  2.9 -4.7 0  3 -4.7 0  3.1 -4.7 0  3.199999999999999 -4.7 0  3.300000000000001 -4.7 0  3.4 -4.7 0  3.5 -4.7 0  3.6 -4.7 0  3.699999999999999 -4.7 0  3.800000000000001 -4.7 0  3.9 -4.7 0  4 -4.7 0  4.1 -4.7 0  4.199999999999999 -4.7 0  4.300000000000001 -4.7 0  4.4 -4.7 0  4.5 -4.7 0  4.6 -4.7 0  4.699999999999999 -4.7 0  4.800000000000001 -4.7 0  4.9 -4.7 0  5 -4.7 0  -5 -4.6 0  -4.9 -4.6 0  -4.8 -4.6 0  -4.7 -4.6 0  -4.6 -4.6 0  -4.5 -4.6 0  -4.4 -4.6 0  -4.3 -4.6 0  -4.2 -4.6 0  -4.1 -4.6 0  -4 -4.6 0  -3.9 -4.6 0  -3.8 -4.6 0  -3.7 -4.6 0  -3.6 -4.6 0  -3.5 -4.6 0  -3.4 -4.6 0  -3.3 -4.6 0  -3.2 -4.6 0  -3.1 -4.6 0  -3 -4.6 0  -2.9 -4.6 0  -2.8 -4.6 0  -2.7 -4.6 0  -2.6 -4.6 0  -2.5 -4.6 0  -2.4 -4.6 0  -2.3 -4.6 0  -2.2 -4.6 0  -2.1 -4.6 0  -2 -4.6 0  -1.9 -4.6 0  -1.8 -4.6 0  -1.7 -4.6 0  -1.6 -4.6 0  -1.5 -4.6 0  -1.4 -4.6 0  -1.3 -4.6 0  -1.2 -4.6 0  -1.1 -4.6 0  -1 -4.6 0  -0.9000000000000004 -4.6 0  -0.7999999999999998 -4.6 0  -0.7000000000000002 -4.6 0  -0.5999999999999996 -4.6 0  -0.5 -4.6 0  -0.4000000000000004 -4.6 0  -0.2999999999999998 -4.6 0  -0.2000000000000002 -4.6 0  -0.09999999999999964 -4.6 0  0 -4.6 0  0.09999999999999964 -4.6 0  0.2000000000000002 -4.6 0  0.2999999999999998 -4.6 0  0.4000000000000004 -4.6 0  0.5 -4.6 0  0.5999999999999996 -4.6 0  0.7000000000000002 -4.6 0  0.7999999999999998 -4.6 0  0.9000000000000004 -4.6 0  1 -4.6 0  1.1 -4.6 0  1.2 -4.6 0  1.3 -4.6 0  1.4 -4.6 0  1.5 -4.6 0  1.6 -4.6 0  1.7 -4.6 0  1.8 -4.6 0  1.9 -4.6 0  2 -4.6 0  2.1 -4.6 0  2.2 -4.6 0  2.3 -4.6 0  2.4 -4.6 0  2.5 -4.6 0  2.6 -4.6 0  2.7 -4.6 0  2.8 -4.6 0  2.9 -4.6 0  3 -4.6 0  3.1 -4.6 0  3.199999999999999 -4.6 0  3.300000000000001 -4.6 0  3.4 -4.6 0  3.5 -4.6 0  3.6 -4.6 0  3.699999999999999 -4.6 0  3.800000000000001 -4.6 0  3.9 -4.6 0  4 -4.6 0  4.1 -4.6 0  4.199999999999999 -4.6 0  4.300000000000001 -4.6 0  4.4 -4.6 0  4.5 -4.6 0  4.6 -4.6 0  4.699999999999999 -4.6 0  4.800000000000001 -4.6 0  4.9 -4.6 0  5 -4.6 0  -5 -4.5 0  -4.9 -4.5 0  -4.8 -4.5 0  -4.7 -4.5 0  -4.6 -4.5 0  -4.5 -4.5 0  -4.4 -4.5 0  -4.3 -4.5 0  -4.2 -4.5 0  -4.1 -4.5 0  -4 -4.5 0  -3.9 -4.5 0  -3.8 -4.5 0  -3.7 -4.5 0  -3.6 -4.5 0  -3.5 -4.5 0  -3.4 -4.5 0  -3.3 -4.5 0  -3.2 -4.5 0  -3.1 -4.5 0  -3 -4.5 0  -2.9 -4.5 0  -2.8 -4.5 0  -2.7 -4.5 0  -2.6 -4.5 0  -2.5 -4.5 0  -2.4 -4.5 0  -2.3 -4.5 0  -2.2 -4.5 0  -2.1 -4.5 0  -2 -4.5 0  -1.9 -4.5 0  -1.8 -4.5 0  -1.7 -4.5 0  -1.6 -4.5 0  -1.5 -4.5 0  -1.4 -4.5 0  -1.3 -4.5 0  -1.2 -4.5 0  -1.1 -4.5 0  -1 -4.5 0  -0.9000000000000004 -4.5 0  -0.7999999999999998 -4.5 0  -0.7000000000000002 -4.5 0  -0.5999999999999996 -4.5 0  -0.5 -4.5 0  -0.4000000000000004 -4.5 0  -0.2999999999999998 -4.5 0  -0.2000000000000002 -4.5 0  -0.09999999999999964 -4.5 0  0 -4.5 0  0.09999999999999964 -4.5 0  0.2000000000000002 -4.5 0  0.2999999999999998 -4.5 0  0.4000000000000004 -4.5 0  0.5 -4.5 0  0.5999999999999996 -4.5 0  0.7000000000000002 -4.5 0  0.7999999999999998 -4.5 0  0.9000000000000004 -4.5 0  1 -4.5 0  1.1 -4.5 0  1.2 -4.5 0  1.3 -4.5 0  1.4 -4.5 0  1.5 -4.5 0  1.6 -4.5 0  1.7 -4.5 0  1.8 -4.5 0  1.9 -4.5 0  2 -4.5 0  2.1 -4.5 0  2.2 -4.5 0  2.3 -4.5 0  2.4 -4.5 0  2.5 -4.5 0  2.6 -4.5 0  2.7 -4.5 0  2.8 -4.5 0  2.9 -4.5 0  3 -4.5 0  3.1 -4.5 0  3.199999999999999 -4.5 0  3.300000000000001 -4.5 0  3.4 -4.5 0  3.5 -4.5 0  3.6 -4.5 0  3.699999999999999 -4.5 0  3.800000000000001 -4.5 0  3.9 -4.5 0  4 -4.5 0  4.1 -4.5 0  4.199999999999999 -4.5 0  4.300000000000001 -4.5 0  4.4 -4.5 0  4.5 -4.5 0  4.6 -4.5 0  4.699999999999999 -4.5 0  4.800000000000001 -4.5 0  4.9 -4.5 0  5 -4.5 0  -5 -4.4 0  -4.9 -4.4 0  -4.8 -4.4 0  -4.7 -4.4 0  -4.6 -4.4 0  -4.5 -4.4 0  -4.4 -4.4 0  -4.3 -4.4 0  -4.2 -4.4 0  -4.1 -4.4 0  -4 -4.4 0  -3.9 -4.4 0  -3.8 -4.4 0  -3.7 -4.4 0  -3.6 -4.4 0  -3.5 -4.4 0  -3.4 -4.4 0  -3.3 -4.4 0  -3.2 -4.4 0  -3.1 -4.4 0  -3 -4.4 0  -2.9 -4.4 0  -2.8 -4.4 0  -2.7 -4.4 0  -2.6 -4.4 0  -2.5 -4.4 0  -2.4 -4.4 0  -2.3 -4.4 0  -2.2 -4.4 0  -2.1 -4.4 0  -2 -4.4 0  -1.9 -4.4 0  -1.8 -4.
[...]
<PointData  Vectors="f_23"> 
<DataArray  type="Float64"  Name="f_23"  NumberOfComponents="3" format="ascii">1.5004638555530864e-01 0.0000000000000000e+00 0.0000000000000000e+00  1.5000224649718372e-01 1.2128464339644391e-09 0.0000000000000000e+00  1.5007041921777872e-01 2.8794344762821951e-12 0.0000000000000000e+00  1.5005302375375162e-01 3.7383175177681568e-09 0.0000000000000000e+00  1.5013337966229601e-01 3.1475227317530866e-10 0.0000000000000000e+00  1.5013217427144299e-01 7.4960639755591459e-09 0.0000000000000000e+00  1.5021759272545204e-01 1.1819421257402487e-09 0.0000000000000000e+00  1.5020971062647245e-01 7.4887089625652945e-09 0.0000000000000000e+00  1.5026493717553713e-01 2.2811323181159070e-10 0.0000000000000000e+00  1.5021902268345505e-01 1.2740832356572769e-09 0.0000000000000000e+00  1.5022228414000691e-01 1.9703836759955941e-09 0.0000000000000000e+00  1.5014937548147403e-01 9.6720554520379406e-10 0.0000000000000000e+00  1.5014099040262016e-01 6.2667494721350078e-09 0.0000000000000000e+00  1.5009770648095502e-01 1.7423019884345225e-09 0.0000000000000000e+00  1.5011291404171689e-01 2.5614498397721748e-09 0.0000000000000000e+00  1.5009251273374946e-01 2.8879857703665922e-10 0.0000000000000000e+00  1.5008727244520922e-01 1.3103725228274344e-09 0.0000000000000000e+00  1.5003480476984191e-01 1.0841453902549726e-09 0.0000000000000000e+00  1.4999626210195471e-01 2.6117704262109892e-09 0.0000000000000000e+00  1.4995871829638407e-01 1.3344395489506822e-09 0.0000000000000000e+00  1.4995887726851317e-01 3.7715888298397123e-10 0.0000000000000000e+00  1.4997327693433166e-01 1.8966968370343047e-10 0.0000000000000000e+00  1.5000503762636139e-01 7.9343431575738509e-10 0.0000000000000000e+00  1.5001615599333765e-01 1.0756516523905886e-09 0.0000000000000000e+00  1.5000133186734213e-01 2.2579073379555505e-10 0.0000000000000000e+00  1.4996776438833398e-01 2.9723494721124757e-10 0.0000000000000000e+00  1.4994047646005454e-01 1.3754461052404519e-09 0.0000000000000000e+00  1.4994102710311330e-01 1.0184150836431806e-10 0.0000000000000000e+00  1.4998655792007004e-01 9.2867953941598760e-10 0.0000000000000000e+00  1.5003393900522050e-01 1.4195870476764808e-09 0.0000000000000000e+00  1.5003188487434096e-01 3.6295869910403979e-10 0.0000000000000000e+00  1.5000711239009026e-01 7.4516144247586391e-12 0.0000000000000000e+00  1.4999887678536075e-01 8.6183382890088253e-10 0.0000000000000000e+00  1.4998886498840447e-01 1.1031494813279165e-09 0.0000000000000000e+00  1.4999680916830418e-01 8.3706335075823005e-11 0.0000000000000000e+00  1.5004657419588149e-01 1.4834867157068293e-09 0.0000000000000000e+00  1.5004596893925790e-01 5.5128282825443863e-12 0.0000000000000000e+00  1.4996385564582868e-01 1.7075324870195863e-09 0.0000000000000000e+00  1.4994981038983027e-01 5.9965729815819680e-10 0.0000000000000000e+00  1.5003183695118644e-01 5.3244668465232821e-10 0.0000000000000000e+00  1.5004639791633459e-01 1.1235823765877973e-09 0.0000000000000000e+00  1.4998222594393301e-01 5.2824150243022371e-11 0.0000000000000000e+00  1.4996929414881827e-01 1.5206327290193607e-09 0.0000000000000000e+00  1.5000356464894915e-01 1.4857858452588333e-11 0.0000000000000000e+00  1.5001860440404280e-01 1.6562732015194626e-09 0.0000000000000000e+00  1.5001063667710227e-01 3.8044735757648545e-11 0.0000000000000000e+00  1.4998494249628322e-01 1.6286915238356442e-09 0.0000000000000000e+00  1.4998092438618144e-01 2.2830479581796563e-12 0.0000000000000000e+00  1.5001960151004745e-01 1.3403116492037669e-09 0.0000000000000000e+00  1.5001715971896615e-01 5.1599429972622883e-11 0.0000000000000000e+00  1.4997430376160023e-01 8.1126778248879121e-10 0.0000000000000000e+00  1.4999457450585613e-01 2.4535472497410097e-10 0.0000000000000000e+00  1.5002534029255671e-01 2.6906667565433554e-10 0.0000000000000000e+00  1.4999025678397285e-01 4.0040916759470932e-10 0.0000000000000000e+00  1.4998475351972598e-01 7.4456476644727694e-12 0.0000000000000000e+00  1.5001902108377174e-01 3.2206895938274839e-10 0.0000000000000000e+00  1.4999919542438064e-01 7.5338014009581116e-11 0.0000000000000000e+00  1.4998302298107283e-01 1.0129257548617251e-10 0.0000000000000000e+00  1.5001401898554009e-01 2.0285269545612382e-10 0.0000000000000000e+00  1.5000554102908967e-01 3.3672429299253426e-14 0.0000000000000000e+00  1.4998263030564157e-01 1.6181176426949619e-10 0.0000000000000000e+00  1.5000745390919937e-01 7.0343318797526487e-11 0.0000000000000000e+00  1.5001022805843325e-01 3.1669002945201099e-11 0.0000000000000000e+00  1.4998654550691298e-01 1.1115976744538625e-10 0.0000000000000000e+00  1.5000047588118973e-01 3.0208510352878785e-12 0.0000000000000000e+00  1.5001094862804526e-01 6.2087489136859456e-11 0.0000000000000000e+00  1.4999171408336520e-01 4.8842767265897606e-11 0.0000000000000000e+00  1.4999765541663618e-01 1.0045525812010318e-12 0.0000000000000000e+00  1.5000749452341133e-01 2.8896662402953452e-11 0.0000000000000000e+00  1.4999693489469648e-01 4.4599209718567722e-12 0.0000000000000000e+00  1.4999612335890700e-01 1.1938560312583642e-11 0.0000000000000000e+00  1.5000574587092255e-01 2.5352254973131585e-11 0.0000000000000000e+00  1.4999767640011236e-01 5.2129207862248950e-12 0.0000000000000000e+00  1.4999860774119894e-01 4.6460145040126175e-13 0.0000000000000000e+00  1.5000177796112824e-01 6.9585130392358578e-13 0.0000000000000000e+00  1.5000045632151920e-01 1.3325755824286902e-12 0.0000000000000000e+00  1.4999753871641378e-01 7.8881935771238878e-12 0.0000000000000000e+00  1.5000259993485654e-01 7.7331579220858590e-12 0.0000000000000000e+00  1.4999856572921957e-01 2.7973565920973646e-12 0.0000000000000000e+00  1.5000039907407539e-01 6.2427332840240694e-13 0.0000000000000000e+00  1.4999974182611042e-01 5.7209994051834522e-13 0.0000000000000000e+00  1.5000075154601966e-01 1.5645331868246810e-12 0.0000000000000000e+00  1.4999877580120954e-01 2.7033225914030082e-12 0.0000000000000000e+00  1.5000130275380016e-01 2.6521604078599789e-12 0.0000000000000000e+00  1.4999893821959231e-01 1.7745116582462781e-12 0.0000000000000000e+00  1.5000077884268298e-01 1.0967453873356319e-12 0.0000000000000000e+00  1.4999935104872464e-01 9.0131258122957968e-13 0.0000000000000000e+00  1.5000068606184411e-01 1.0423510792433761e-12 0.0000000000000000e+00  1.4999920564586275e-01 1.3107502558049790e-12 0.0000000000000000e+00  1.5000087823649808e-01 1.4962671946529612e-12 0.0000000000000000e+00  1.4999909801857617e-01 1.5140114428831720e-12 0.0000000000000000e+00  1.5000087792878006e-01 1.4214939590299009e-12 0.0000000000000000e+00  1.4999915800674971e-01 1.3160502024177705e-12 0.0000000000000000e+00  1.5000080381556424e-01 1.2221844183226492e-12 0.0000000000000000e+00  1.4999921373940378e-01 1.1462003558808574e-12 0.0000000000000000e+00  1.5000073122216911e-01 9.9520255297662892e-13 0.0000000000000000e+00  1.4999927156828030e-01 8.4679022035391340e-13 0.0000000000000000e+00  1.5000057754334684e-01 5.1210094957794528e-13 0.0000000000000000e+00  1.4999931621645310e-01 3.6520037788452159e-13 0.0000000000000000e+00  1.5000032564994842e-01 7.2225155830352610e-14 0.0000000000000000e+00  1.4999919710023174e-01 0.0000000000000000e+00 0.0000000000000000e+00  1.5000224649718419e-01 0.0000000000000000e+00 1.2128464339823279e-09  1.4996040216843920e-01 8.8877293658359479e-13 8.8877293667803878e-13  1.4997486347139877e-01 1.2690470524538157e-09 1.2255953297215887e-09  1.4991913050591330e-01 1.4090828727999865e-10 7.9458537986378924e-10  1.4991803584770169e-01 3.8597237671727095e-09 4.1180446987539726e-09  1.4984355162313295e-01 1.1913679442854397e-09 4.0632031898482522e-09  1.4983446854466795e-01 6.9187744793319658e-09 1.0287411631487658e-08  1.4976130817792363e-01 1.8426359467569961e-09 8.4060676165453900e-09  1.4977163980321387e-01 4.8776702237758524e-09 1.3178942048896610e-08  1.4973690489329475e-01 5.6839739328708436e-11 6.7308176222271129e-09  1.4978983369801874e-01 8.1971804099560360e-11 7.1209948473779067e-09  1.4979916415563241e-01 2.8553644790155505e-09 1.7143521631336704e-09  1.4986469295196544e-01 1.9677786524542296e-09 2.1395264446364286e-09  1.4986809261254785e-01 5.0466129219233008e-09 5.2545121779921840e-10  1.4990021791712363e-01 1.4314464185075350e-09 1.7493119333376642e-09  1.4988733025806067e-01 1.7589412289230390e-09 7.3033373309195757e-10  1.4991412566976386e-01 5.9452046276198555e-10 9.5346019674201618e-10  1.4993354954618354e-01 1.9034440045126464e-09 2.3962726053333558e-12  1.4998881408464687e-01 1.7160547742137061e-09 6.3009823426215750e-11  1.5001847127667742e-01 2.1924752239648533e-09 4.9263400478138665e-10  1.5004037829376449e-01 5.8806400573312737e-10 8.3684331010011704e-11  1.5002956376468388e-01 2.0542830156031985e-12 2.3749990941116244e-13  1.5001110036591675e-01 5.3690799394018500e-10 1.6939909757235919e-10  1.4998880561946690e-01 7.2591237840476925e-10 8.4598423702609046e-11  1.4999583562212734e-01 4.6580644278183428e-10 1.6270598288764052e-11  1.5002053003772575e-01 6.5381147943036480e-12 6.9817634328636479e-10  1.5004887246539617e-01 7.9168659322457419e-10 1.3565235742877515e-09  1.5005994103933878e-01 5.1684223883187508e-10 8.5367942547290620e-10  1.5003656734654555e-01 2.7181806567690574e-10 8.7185573688825681e-12  1.4998577984774747e-01 1.3972146449325683e-09 3.2151964859740777e-10  1.4996561718419640e-01 6.2412403733453736e-10 1.7220835711600613e-10  1.4998727947993262e-01 3.5902084982092394e-11 2.9768994047793680e-11  1.4999962981230988e-01 2.2295986919178451e-10 1.0977633597522886e-10  1.4999932209750499e-01 1.0081125796376912e-09 2.4751887692485655e-11  1.5000581161531232e-01 9.9881312117659194e-11 3.2285135046576500e-11  1.4998043986519310e-01 7.3894765122020855e-10 5.6799876233185199e-10  1.4994874634042688e-01 2.4041916616320871e-10 3.4489800562223170e-10  1.4999650394930569e-01 6.2419411183597462e-10 4.5614281398406744e-10  1.5005213687934249e-01 7.3877925221281616e-10 7.3775576917432788e-10  1.5000345033786983e-01 1.0932646800609489e-11 4.0537155187053867e-10  1.4995154827518828e-01 5.0805159021149795e-10 8.7033565276135726e-10  1.4999413717417182e-01 1.5693904408617730e-10 2.2666302856953992e-10  1.5002927808024813e-01 3.4527108067276403e-10 5.0694570990390023e-10  1.5000540434990001e-01 6.1171951065136939e-10 1.0507101471773171e-10  1.4999024445498621e-01 2.6041872978260685e-10 1.8045399527614925e-10  1.4998934675545567e-01 8.6732852752814570e-10 1.9377451143914024e-11  1.4999623574258936e-01 3.1322672997833280e-10 4.0365377032014060e-11  1.5001996636819365e-01 7.7362190758806261e-10 2.0589412832492542e-12  1.5000574142657991e-01 4.3538724015042992e-10 1.1331146189308384e-11  1.4997249963127426e-01 4.2894914563210787e-10 2.5113809829048557e-11  1.5000275648296535e-01 5.2786487567145639e-10 1.3135518143059706e-11  1.5002667141477530e-01 1.0812582029357282e-10 2.3015685687972053e-11  1.4998531477405777e-01 4.7792061722216363e-10 1.9384709732591643e-11  1.4998434980943792e-01 6.4413513386182797e-14 2.5660152515809939e-12  1.5002107618728172e-01 2.8013415880249442e-10 1.0518283255471312e-11  1.4999963905663211e-01 6.9323511351576476e-11 2.3154622398107783e-12  1.4998322457382612e-01 7.3701326606654731e-11 1.3600993583502947e-13  1.5001276358421639e-01 1.3501641411412823e-10 4.5776324519508493e-12  1.5000456696112238e-01 1.1049015537885375e-14 1.5874966522635856e-11  1.4998484978728316e-01 9.7253956789446994e-11 1.9053141977464553e-13  1.5000790334277023e-01 4.4743937239342516e-11 2.4863578725042531e-11  1.5000764724744958e-01 1.6648012275018569e-11 1.6362300268509314e-11  1.4998722720444230e-01 6.9506242741189775e-11 6.6615120629058875e-12  1.5000245846932561e-01 2.6789552220743573e-12 3.2006426505614220e-11  1.5000945227836429e-01 4.1169059039533228e-11 1.6115718603450190e-12  1.4999088359845186e-01 3.6132793575248765e-11 1.7718515467632058e-11  1.4999916497171009e-01 6.6119837900061796e-13 1.5719527833372163e-11  1.5000739366311083e-01 2.3115384700668506e-11 3.9766996175135504e-13  1.4999583763571231e-01 3.7127890688375701e-12 1.1712795411868065e-11  1.4999687564647260e-01 1.0071568137491683e-11 3.0565191690276258e-12  1.5000594680696511e-01 2.0271574446092241e-11 2.2721794899692418e-12  1.4999724409366741e-01 2.7961863532960509e-12 6.7733090800711061e-12  1.4999850378835386e-01 1.5106973601577239e-12 1.2383175935816317e-12  1.5000235383908769e-01 1.4766537657291864e-12 4.7715285960092065e-13  1.4999993406797715e-01 7.6570981573271308e-13 9.5533402731627175e-13  1.4999776024525802e-01 5.8071319452394270e-12 1.5115789942699065e-15  1.5000248732534188e-01 4.4365717308760929e-12 1.0581182932261557e-12  1.4999883000514830e-01 6.4123106961843574e-13 1.3510890250527066e-12  1.4999995901065361e-01 2.5883054169962189e-15 4.2223936752536609e-13  1.5000019881373325e-01 9.3716421090785456e-15 2.3512607260074033e-14  1.5000039858933617e-01 5.3395373797197823e-13 3.0520374956517149e-15  1.4999904446930862e-01 1.2442126059341811e-12 7.0204501721619093e-14  1.5000102952137473e-01 9.9434334081076808e-13 2.4073956161169218e-13  1.4999926299115809e-01 3.9515828950983869e-13 3.0197088444538086e-13  1.5000042862889812e-01 1.3766522214810052e-13 2.0828944026092249e-13  1.4999967452460394e-01 1.3787392186343892e-13 1.0665123348047367e-13  1.5000041397232092e-01 2.8844296116896817e-13 6.3663931070886494e-14  1.4999944109491220e-01 4.9087722967619108e-13 6.4052431599752834e-14  1.5000065034868026e-01 5.8844125421610674e-13 8.8466378706369729e-14  1.4999933686802697e-01 5.5598564380957866e-13 1.1939065618520621e-13  1.5000063273251296e-01 4.8463976605864783e-13 1.4198077112907588e-13  1.4999940081245219e-01 4.4012246901792605e-13 1.5173746730560951e-13  1.5000058431841534e-01 4.2933632815353891e-13 1.5696496646765999e-13  1.4999942749069681e-01 4.1539265425135365e-13 1.5909003480117621e-13  1.5000056338570736e-01 3.7734489909861601e-13 1.6851778872738036e-13  1.4999949478134594e-01 2.8327864094801989e-13 1.5772727557803334e-13  1.5000047547495221e-01 1.9835535489168996e-13 1.6393160044616519e-13  1.4999968201923131e-01 8.0491796188651401e-14 1.0035069686511823e-13  1.5000036375167222e-01 6.4932585407125221e-14 1.2066345805990984e-13  1.4999998873579418e-01 7.7316613721120075e-15 7.7316613246097936e-15  1.5000032564994800e-01 0.0000000000000000e+00 7.2225155730280265e-14  1.5007041921777806e-01 0.0000000000000000e+00 2.8794344768870980e-12  1.4997486347139899e-01 1.2255953297126224e-09 1.2690470524229311e-09  1.5007737184927750e-01 3.1449556565228872e-10 3.1449556564749020e-10  1.5002031523598844e-01 5.3796142765695941e-09 5.8940568640141043e-09  1.5013288836863467e-01 5.1423587544179673e-11 4.2072564259531274e-09  1.5009258731261821e-01 1.1407726325010692e-08 2.0923459989649280e-08  1.5022154650315944e-01 1.8733802291059426e-10 1.7660795606679834e-08  1.5018223121046118e-01 1.4908763116292123e-08 4.5997451990724907e-08  1.5029711808798221e-01 1.2471353691491278e-10 3.1795818636055553e-08  1.5022828154313553e-01 7.9092537930920027e-09 5.1366319250117498e-08  1.5029150452634160e-01 1.4118129078325931e-09 2.1996708045589253e-08  1.5018516317626196e-01 1.9594453392578041e-10 2.5527334027920514e-08  1.5020757152890751e-01 8.1732757889521675e-09 5.3220973089083804e-09  1.5011334566851761e-01 9.6785180100221955e-10 8.9126352498358217e-09  1.5014624876012325e-01 7.2856561707162308e-09 2.2970269111704316e-09  1.5009330055055062e-01 3.8839995394825224e-10 7.4702062661752013e-09  1.5012381890945564e-01 3.0594047574743906e-09 2.4710961629069490e-09  1.5006989738626783e-01 6.1460129602769758e-10 3.1074990777292299e-09  1.5005585753035824e-01 3.8136346755696835e-09 2.8951057669013975e-12  1.4999161022685209e-01 1.6002404849610806e-09 1.2861798826216845e-10  1.4998251484134317e-01 2.1232665226612903e-09 1.0851402304774228e-09  1.4996363479746605e-01 5.9769895437582927e-11 6.5436464046629124e-11  1.4998487996579551e-01 6.4601765430352779e-11 5.3489322806728285e-13  1.4999707389271991e-01 7.5955378192849375e-10 3.9030207084893164e-10  1.5000870308237449e-01 3.7585494480872540e-10 2.5721464980114321e-11  1.4998405714638152e-01 1.0235575993614458e-10 4.8804930959649304e-10  1.4995887415501957e-01 3.5124239219006005e-10 3.2625030649707722e-09  1.4993885149113528e-01 8.3531145665326464e-10 4.1438699295389816e-09  1.4994697113259445e-01 1.2058877109535831e-12 1.8014304449999790e-09  1.4998705350624034e-01 1.3416900120716238e-09 1.8658958551927445e-11  1.5002787736814011e-01 1.1491438551447743e-09 7.6297033138443547e-10  1.5001987494389557e-01 2.0114499349176301e-10 6.4102859900121961e-11  1.4999951117047666e-01 1.8978448268930229e-12 1.8160893631235194e-10  1.5000380438986388e-01 5.3892500833335651e-10 6.5100922584524727e-11  1.5000234926395950e-01 6.8640543805045448e-10 1.7761662750392177e-12  1.5000465165052718e-01 1.5424809920671704e-10 3.0697610793567736e-10  1.5004205412304278e-01 7.8792164180223162e-10 2.1540045258121305e-09  1.5003441186467495e-01 1.4434713755355523e-10 1.5029639186356553e-10  1.4996269907964033e-01 1.1526654943115413e-09 2.8282982970189996e-09  1.4996674975391067e-01 3.5824180114900623e-11 3.0926509908130519e-10  1.5004101853464286e-01 2.9716131205187184e-10 3.2472486071593101e-09  1.5002873763754263e-01 1.8687343338752451e-10 3.3107297161237221e-10  1.4997104120278099e-01 1.1181968249526866e-11 2.0254973105687610e-09  1.4998725619936099e-01 4.7163471348857886e-10 7.8907240691106441e-11  1.5001278917217251e-01 5.2875271572032041e-11 7.6537470849448859e-10  1.5000181948280128e-01 7.1983847708726165e-10 2.0513315557549063e-12  1.5000652480812293e-01 9.5024137630007743e-11 7.8613232675045702e-11  1.4999909125587493e-01 9.0605469989133560e-10 4.4621121862663343e-13  1.4997970143432623e-01 3.5827940117292803e-11 2.3330932681978892e-11  1.5001015574578333e-01 8.7966512211528167e-10 3.6869915313895184e-11  1.5002325862001270e-01 1.3777759695234804e-12 9.6536540105162072e-11  1.4997889820693039e-01 6.2690298769057610e-10 1.3383932257490837e-10  1.4998635266932350e-01 6.8597625090283668e-11 3.7020314850888894e-11  1.5002582213604365e-01 2.8639495270016599e-10 1.5273870186682110e-10  1.4999859078551958e-01 1.5684099336883102e-10 3.3036288759731849e-13  1.4998014803153234e-01 5.3357885714933591e-11 5.5742620297252180e-11  1.5001238649873816e-01 1.5407360493380231e-10 1.2432978440918713e-11  1.5000656334019166e-01 8.2375419870625145e-13 1.8698837552621519e-16  1.4998607288669732e-01 7.6032052208568994e-11 1.3321989592428605e-12  1.5000593864452874e-01 4.0327151466186962e-11 1.5678657620307502e-11  1.5000604312723320e-01 5.2155771081329071e-12 1.7709866633205259e-11  1.4999005161270174e-01 4.0841931021900293e-11 4.1806916636604045e-12  1.5000285460833482e-01 4.1509588183443788e-12 5.0732672111725230e-11  1.5000698228812320e-01 2.2938285395848606e-11 7.6586896964359281e-12  1.4999124403450989e-01 3.6058648799505325e-11 3.1460603065503521e-11  1.5000152114442883e-01 1.2657061425998902e-12 4.6617296249010774e-11  1.5000532937396996e-01 9.1716683414415363e-12 7.6787275212604866e-15  1.4999579116600856e-01 2.3897757889546863e-12 2.7991962553902010e-11  1.4999773592954901e-01 9.2595018861967327e-12 1.0519355306224110e-11  1.5000620888832858e-01 2.6492381626022490e-11 6.2368442257279956e-12  1.4999570766515222e-01 1.0064623093395572e-11 2.5032909002000335e-11  1.5000012297173640e-01 1.2687080635257040e-13 6.8247240035434498e-12  1.5000143311148428e-01 1.3078119483798053e-16 6.5869636514584284e-13  1.5000042636759509e-01 3.5315401389844493e-12 2.3762683698599750e-12  1.4999708290249911e-01 1.2607172758435045e-11 1.1350612158916157e-13  1.5000354930394713e-01 1.1872185898429785e-11 5.2471021252271246e-12  1.4999761488885408e-01 4.7860174244286722e-12 6.6510209010777773e-12  1.5000107101316759e-01 1.6176288131936087e-12 2.4099441079402619e-12  1.4999923588752553e-01 1.8557630995800264e-12 3.0434512935492621e-13  1.5000129871365081e-01 3.8906672817078221e-12 1.3382752568632767e-13  1.4999814578456017e-01 5.3901767636014977e-12 6.3206473004529973e-13  1.5000192041226346e-01 4.5717439377737208e-12 1.5019416687425696e-12  1.4999840196