<?xml version="1.0"?>
<VTKFile type="UnstructuredGrid"  version="0.1"  >
<UnstructuredGrid>
<Piece  NumberOfPoints="10201" NumberOfCells="20000">
<Points>
<DataArray  type="Float64"  NumberOfComponents="3"  format="ascii">-5 -5 0  -4.9 -5 0  -4.8 -5 0  -4.7 -5 0  -4.6 -5 0  -4.5 -5 0  -4.4 -5 0  -4.3 -5 0  -4.2 -5 0  -4.1 -5 0  -4 -5 0  -3.9 -5 0  -3.8 -5 0  -3.7 -5 0  -3.6 -5 0  -3.5 -5 0  -3.4 -5 0  -3.3 -5 0  -3.2 -5 0  -3.1 -5 0  -3 -5 0  -2.9 -5 0  -2.8 -5 0  -2.7 -5 0  -2.6 -5 0  -2.5 -5 0  -2.4 -5 0  -2.3 -5 0  -2.2 -5 0  -2.1 -5 0  -2 -5 0  -1.9 -5 0  -1.8 -5 0  -1.7 -5 0  -1.6 -5 0  -1.5 -5 0  -1.4 -5 0  -1.3 -5 0  -1.2 -5 0  -1.1 -5 0  -1 -5 0  -0.9000000000000004 -5 0  -0.7999999999999998 -5 0  -0.7000000000000002 -5 0  -0.5999999999999996 -5 0  -0.5 -5 0  -0.4000000000000004 -5 0  -0.2999999999999998 -5 0  -0.2000000000000002 -5 0  -0.09999999999999964 -5 0  0 -5 0  0.09999999999999964 -5 0  0.2000000000000002 -5 0  0.2999999999999998 -5 0  0.4000000000000004 -5 0  0.5 -5 0  0.5999999999999996 -5 0  0.7000000000000002 -5 0  0.7999999999999998 -5 0  0.9000000000000004 -5 0  1 -5 0  1.1 -5 0  1.2 -5 0  1.3 -5 0  1.4 -5 0  1.5 -5 0  1.6 -5 0  1.7 -5 0  1.8 -5 0  1.9 -5 0  2 -5 0  2.1 -5 0  2.2 -5 0  2.3 -5 0  2.4 -5 0  2.5 -5 0  2.6 -5 0  2.7 -5 0  2.8 -5 0  2.9 -5 0  3 -5 0  3.1 -5 0  3.199999999999999 -5 0  3.300000000000001 -5 0  3.4 -5 0  3.5 -5 0  3.6 -5 0  3.699999999999999 -5 0  3.800000000000001 -5 0  3.9 -5 0  4 -5 0  4.1 -5 0  4.199999999999999 -5 0  4.300000000000001 -5 0  4.4 -5 0  4.5 -5 0  4.6 -5 0  4.699999999999999 -5 0  4.800000000000001 -5 0  4.9 -5 0  5 -5 0  -5 -4.9 0  -4.9 -4.9 0  -4.8 -4.9 0  -4.7 -4.9 0  -4.6 -4.9 0  -4.5 -4.9 0  -4.4 -4.9 0  -4.3 -4.9 0  -4.2 -4.9 0  -4.1 -4.9 0  -4 -4.9 0  -3.9 -4.9 0  -3.8 -4.9 0  -3.7 -4.9 0  -3.6 -4.9 0  -3.5 -4.9 0  -3.4 -4.9 0  -3.3 -4.9 0  -3.2 -4.9 0  -3.1 -4.9 0  -3 -4.9 0  -2.9 -4.9 0  -2.8 -4.9 0  -2.7 -4.9 0  -2.6 -4.9 0  -2.5 -4.9 0  -2.4 -4.9 0  -2.3 -4.9 0  -2.2 -4.9 0  -2.1 -4.9 0  -2 -4.9 0  -1.9 -4.9 0  -1.8 -4.9 0  -1.7 -4.9 0  -1.6 -4.9 0  -1.5 -4.9 0  -1.4 -4.9 0  -1.3 -4.9 0  -1.2 -4.9 0  -1.1 -4.9 0  -1 -4.9 0  -0.9000000000000004 -4.9 0  -0.7999999999999998 -4.9 0  -0.7000000000000002 -4.9 0  -0.5999999999999996 -4.9 0  -0.5 -4.9 0  -0.4000000000000004 -4.9 0  -0.2999999999999998 -4.9 0  -0.2000000000000002 -4.9 0  -0.09999999999999964 -4.9 0  0 -4.9 0  0.09999999999999964 -4.9 0  0.2000000000000002 -4.9 0  0.2999999999999998 -4.9 0  0.4000000000000004 -4.9 0  0.5 -4.9 0  0.5999999999999996 -4.9 0  0.7000000000000002 -4.9 0  0.7999999999999998 -4.9 0  0.9000000000000004 -4.9 0  1 -4.9 0  1.1 -4.9 0  1.2 -4.9 0  1.3 -4.9 0  1.4 -4.9 0  1.5 -4.9 0  1.6 -4.9 0  1.7 -4.9 0  1.8 -4.9 0  1.9 -4.9 0  2 -4.9 0  2.1 -4.9 0  2.2 -4.9 0  2.3 -4.9 0  2.4 -4.9 0  2.5 -4.9 0  2.6 -4.9 0  2.7 -4.9 0  2.8 -4.9 0  2.9 -4.9 0  3 -4.9 0  3.1 -4.9 0  3.199999999999999 -4.9 0  3.300000000000001 -4.9 0  3.4 -4.9 0  3.5 -4.9 0  3.6 -4.9 0  3.699999999999999 -4.9 0  3.800000000000001 -4.9 0  3.9 -4.9 0  4 -4.9 0  4.1 -4.9 0  4.199999999999999 -4.9 0  4.300000000000001 -4.9 0  4.4 -4.9 0  4.5 -4.9 0  4.6 -4.9 0  4.699999999999999 -4.9 0  4.800000000000001 -4.9 0  4.9 -4.9 0  5 -4.9 0  -5 -4.8 0  -4.9 -4.8 0  -4.8 -4.8 0  -4.7 -4.8 0  -4.6 -4.8 0  -4.5 -4.8 0  -4.4 -4.8 0  -4.3 -4.8 0  -4.2 -4.8 0  -4.1 -4.8 0  -4 -4.8 0  -3.9 -4.8 0  -3.8 -4.8 0  -3.7 -4.8 0  -3.6 -4.8 0  -3.5 -4.8 0  -3.4 -4.8 0  -3.3 -4.8 0  -3.2 -4.8 0  -3.1 -4.8 0  -3 -4.8 0  -2.9 -4.8 0  -2.8 -4.8 0  -2.7 -4.8 0  -2.6 -4.8 0  -2.5 -4.8 0  -2.4 -4.8 0  -2.3 -4.8 0  -2.2 -4.8 0  -2.1 -4.8 0  -2 -4.8 0  -1.9 -4.8 0  -1.8 -4.8 0  -1.7 -4.8 0  -1.6 -4.8 0  -1.5 -4.8 0  -1.4 -4.8 0  -1.3 -4.8 0  -1.2 -4.8 0  -1.1 -4.8 0  -1 -4.8 0  -0.9000000000000004 -4.8 0  -0.7999999999999998 -4.8 0  -0.7000000000000002 -4.8 0  -0.5999999999999996 -4.8 0  -0.5 -4.8 0  -0.4000000000000004 -4.8 0  -0.2999999999999998 -4.8 0  -0.2000000000000002 -4.8 0  -0.09999999999999964 -4.8 0  0 -4.8 0  0.09999999999999964 -4.8 0  0.2000000000000002 -4.8 0  0.2999999999999998 -4.8 0  0.4000000000000004 -4.8 0  0.5 -4.8 0  0.5999999999999996 -4.8 0  0.7000000000000002 -4.8 0  0.7999999999999998 -4.8 0  0.9000000000000004 -4.8 0  1 -4.8 0  1.1 -4.8 0  1.2 -4.8 0  1.3 -4.8 0  1.4 -4.8 0  1.5 -4.8 0  1.6 -4.8 0  1.7 -4.8 0  1.8 -4.8 0  1.9 -4.8 0  2 -4.8 0  2.1 -4.8 0  2.2 -4.8 0  2.3 -4.8 0  2.4 -4.8 0  2.5 -4.8 0  2.6 -4.8 0  2.7 -4.8 0  2.8 -4.8 0  2.9 -4.8 0  3 -4.8 0  3.1 -4.8 0  3.199999999999999 -4.8 0  3.300000000000001 -4.8 0  3.4 -4.8 0  3.5 -4.8 0  3.6 -4.8 0  3.699999999999999 -4.8 0  3.800000000000001 -4.8 0  3.9 -4.8 0  4 -4.8 0  4.1 -4.8 0  4.199999999999999 -4.8 0  4.300000000000001 -4.8 0  4.4 -4.8 0  4.5 -4.8 0  4.6 -4.8 0  4.699999999999999 -4.8 0  4.800000000000001 -4.8 0  4.9 -4.8 0  5 -4.8 0  -5 -4.7 0  -4.9 -4.7 0  -4.8 -4.7 0  -4.7 -4.7 0  -4.6 -4.7 0  -4.5 -4.7 0  -4.4 -4.7 0  -4.3 -4.7 0  -4.2 -4.7 0  -4.1 -4.7 0  -4 -4.7 0  -3.9 -4.7 0  -3.8 -4.7 0  -3.7 -4.7 0  -3.6 -4.7 0  -3.5 -4.7 0  -3.4 -4.7 0  -3.3 -4.7 0  -3.2 -4.7 0  -3.1 -4.7 0  -3 -4.7 0  -2.9 -4.7 0  -2.8 -4.7 0  -2.7 -4.7 0  -2.6 -4.7 0  -2.5 -4.7 0  -2.4 -4.7 0  -2.3 -4.7 0  -2.2 -4.7 0  -2.1 -4.7 0  -2 -4.7 0  -1.9 -4.7 0  -1.8 -4.7 0  -1.7 -4.7 0  -1.6 -4.7 0  -1.5 -4.7 0  -1.4 -4.7 0  -1.3 -4.7 0  -1.2 -4.7 0  -1.1 -4.7 0  -1 -4.7 0  -0.9000000000000004 -4.7 0  -0.7999999999999998 -4.7 0  -0.7000000000000002 -4.7 0  -0.5999999999999996 -4.7 0  -0.5 -4.7 0  -0.4000000000000004 -4.7 0  -0.2999999999999998 -4.7 0  -0.2000000000000002 -4.7 0  -0.09999999999999964 -4.7 0  0 -4.7 0  0.09999999999999964 -4.7 0  0.2000000000000002 -4.7 0  0.2999999999999998 -4.7 0  0.4000000000000004 -4.7 0  0.5 -4.7 0  0.5999999999999996 -4.7 0  0.7000000000000002 -4.7 0  0.7999999999999998 -4.7 0  0.9000000000000004 -4.7 0  1 -4.7 0  1.1 -4.7 0  1.2 -4.7 0  1.3 -4.7 0  1.4 -4.7 0  1.5 -4.7 0  1.6 -4.7 0  1.7 -4.7 0  1.8 -4.7 0  1.9 -4.7 0  2 -4.7 0  2.1 -4.7 0  2.2 -4.7 0  2.3 -4.7 0  2.4 -4.7 0  2.5 -4.7 0  2.6 -4.7 0  2.7 -4.7 0  2.8 -4.7 0  2.9 -4.7 0  3 -4.7 0  3.1 -4.7 0  3.199999999999999 -4.7 0  3.300000000000001 -4.7 0  3.4 -4.7 0  3.5 -4.7 0  3.6 -4.7 0  3.699999999999999 -4.7 0  3.800000000000001 -4.7 0  3.9 -4.7 0  4 -4.7 0  4.1 -4.7 0  4.199999999999999 -4.7 0  4.300000000000001 -4.7 0  4.4 -4.7 0  4.5 -4.7 0  4.6 -4.7 0  4.699999999999999 -4.7 0  4.800000000000001 -4.7 0  4.9 -4.7 0  5 -4.7 0  -5 -4.6 0  -4.9 -4.6 0  -4.8 -4.6 0  -4.7 -4.6 0  -4.6 -4.6 0  -4.5 -4.6 0  -4.4 -4.6 0  -4.3 -4.6 0  -4.2 -4.6 0  -4.1 -4.6 0  -4 -4.6 0  -3.9 -4.6 0  -3.8 -4.6 0  -3.7 -4.6 0  -3.6 -4.6 0  -3.5 -4.6 0  -3.4 -4.6 0  -3.3 -4.6 0  -3.2 -4.6 0  -3.1 -4.6 0  -3 -4.6 0  -2.9 -4.6 0  -2.8 -4.6 0  -2.7 -4.6 0  -2.6 -4.6 0  -2.5 -4.6 0  -2.4 -4.6 0  -2.3 -4.6 0  -2.2 -4.6 0  -2.1 -4.6 0  -2 -4.6 0  -1.9 -4.6 0  -1.8 -4.6 0  -1.7 -4.6 0  -1.6 -4.6 0  -1.5 -4.6 0  -1.4 -4.6 0  -1.3 -4.6 0  -1.2 -4.6 0  -1.1 -4.6 0  -1 -4.6 0  -0.9000000000000004 -4.6 0  -0.7999999999999998 -4.6 0  -0.7000000000000002 -4.6 0  -0.5999999999999996 -4.6 0  -0.5 -4.6 0  -0.4000000000000004 -4.6 0  -0.2999999999999998 -4.6 0  -0.2000000000000002 -4.6 0  -0.09999999999999964 -4.6 0  0 -4.6 0  0.09999999999999964 -4.6 0  0.2000000000000002 -4.6 0  0.2999999999999998 -4.6 0  0.4000000000000004 -4.6 0  0.5 -4.6 0  0.5999999999999996 -4.6 0  0.7000000000000002 -4.6 0  0.7999999999999998 -4.6 0  0.9000000000000004 -4.6 0  1 -4.6 0  1.1 -4.6 0  1.2 -4.6 0  1.3 -4.6 0  1.4 -4.6 0  1.5 -4.6 0  1.6 -4.6 0  1.7 -4.6 0  1.8 -4.6 0  1.9 -4.6 0  2 -4.6 0  2.1 -4.6 0  2.2 -4.6 0  2.3 -4.6 0  2.4 -4.6 0  2.5 -4.6 0  2.6 -4.6 0  2.7 -4.6 0  2.8 -4.6 0  2.9 -4.6 0  3 -4.6 0  3.1 -4.6 0  3.199999999999999 -4.6 0  3.300000000000001 -4.6 0  3.4 -4.6 0  3.5 -4.6 0  3.6 -4.6 0  3.699999999999999 -4.6 0  3.800000000000001 -4.6 0  3.9 -4.6 0  4 -4.6 0  4.1 -4.6 0  4.199999999999999 -4.6 0  4.300000000000001 -4.6 0  4.4 -4.6 0  4.5 -4.6 0  4.6 -4.6 0  4.699999999999999 -4.6 0  4.800000000000001 -4.6 0  4.9 -4.6 0  5 -4.6 0  -5 -4.5 0  -4.9 -4.5 0  -4.8 -4.5 0  -4.7 -4.5 0  -4.6 -4.5 0  -4.5 -4.5 0  -4.4 -4.5 0  -4.3 -4.5 0  -4.2 -4.5 0  -4.1 -4.5 0  -4 -4.5 0  -3.9 -4.5 0  -3.8 -4.5 0  -3.7 -4.5 0  -3.6 -4.5 0  -3.5 -4.5 0  -3.4 -4.5 0  -3.3 -4.5 0  -3.2 -4.5 0  -3.1 -4.5 0  -3 -4.5 0  -2.9 -4.5 0  -2.8 -4.5 0  -2.7 -4.5 0  -2.6 -4.5 0  -2.5 -4.5 0  -2.4 -4.5 0  -2.3 -4.5 0  -2.2 -4.5 0  -2.1 -4.5 0  -2 -4.5 0  -1.9 -4.5 0  -1.8 -4.5 0  -1.7 -4.5 0  -1.6 -4.5 0  -1.5 -4.5 0  -1.4 -4.5 0  -1.3 -4.5 0  -1.2 -4.5 0  -1.1 -4.5 0  -1 -4.5 0  -0.9000000000000004 -4.5 0  -0.7999999999999998 -4.5 0  -0.7000000000000002 -4.5 0  -0.5999999999999996 -4.5 0  -0.5 -4.5 0  -0.4000000000000004 -4.5 0  -0.2999999999999998 -4.5 0  -0.2000000000000002 -4.5 0  -0.09999999999999964 -4.5 0  0 -4.5 0  0.09999999999999964 -4.5 0  0.2000000000000002 -4.5 0  0.2999999999999998 -4.5 0  0.4000000000000004 -4.5 0  0.5 -4.5 0  0.5999999999999996 -4.5 0  0.7000000000000002 -4.5 0  0.7999999999999998 -4.5 0  0.9000000000000004 -4.5 0  1 -4.5 0  1.1 -4.5 0  1.2 -4.5 0  1.3 -4.5 0  1.4 -4.5 0  1.5 -4.5 0  1.6 -4.5 0  1.7 -4.5 0  1.8 -4.5 0  1.9 -4.5 0  2 -4.5 0  2.1 -4.5 0  2.2 -4.5 0  2.3 -4.5 0  2.4 -4.5 0  2.5 -4.5 0  2.6 -4.5 0  2.7 -4.5 0  2.8 -4.5 0  2.9 -4.5 0  3 -4.5 0  3.1 -4.5 0  3.199999999999999 -4.5 0  3.300000000000001 -4.5 0  3.4 -4.5 0  3.5 -4.5 0  3.6 -4.5 0  3.699999999999999 -4.5 0  3.800000000000001 -4.5 0  3.9 -4.5 0  4 -4.5 0  4.1 -4.5 0  4.199999999999999 -4.5 0  4.300000000000001 -4.5 0  4.4 -4.5 0  4.5 -4.5 0  4.6 -4.5 0  4.699999999999999 -4.5 0  4.800000000000001 -4.5 0  4.9 -4.5 0  5 -4.5 0  -5 -4.4 0  -4.9 -4.4 0  -4.8 -4.4 0  -4.7 -4.4 0  -4.6 -4.4 0  -4.5 -4.4 0  -4.4 -4.4 0  -4.3 -4.4 0  -4.2 -4.4 0  -4.1 -4.4 0  -4 -4.4 0  -3.9 -4.4 0  -3.8 -4.4 0  -3.7 -4.4 0  -3.6 -4.4 0  -3.5 -4.4 0  -3.4 -4.4 0  -3.3 -4.4 0  -3.2 -4.4 0  -3.1 -4.4 0  -3 -4.4 0  -2.9 -4.4 0  -2.8 -4.4 0  -2.7 -4.4 0  -2.6 -4.4 0  -2.5 -4.4 0  -2.4 -4.4 0  -2.3 -4.4 0  -2.2 -4.4 0  -2.1 -4.4 0  -2 -4.4 0  -1.9 -4.4 0  -1.8 -4.
[...]
<PointData  Vectors="f_23"> 
<DataArray  type="Float64"  Name="f_23"  NumberOfComponents="3" format="ascii">1.5175512389404741e-01 0.0000000000000000e+00 0.0000000000000000e+00  1.4972349402071145e-01 8.0801739203603418e-07 0.0000000000000000e+00  1.5173500689578298e-01 4.9498304677596813e-08 0.0000000000000000e+00  1.5018772637520270e-01 1.2076312975563145e-06 0.0000000000000000e+00  1.5161844623732673e-01 2.1698889378637278e-07 0.0000000000000000e+00  1.5020022089595580e-01 8.0535528345272211e-07 0.0000000000000000e+00  1.5117692828869453e-01 6.1049498802311685e-07 0.0000000000000000e+00  1.4990903644861947e-01 2.4771769330178079e-07 0.0000000000000000e+00  1.5071486185572638e-01 8.4741941898622964e-07 0.0000000000000000e+00  1.4981954413696130e-01 9.7424971671780376e-08 0.0000000000000000e+00  1.5066559078679279e-01 4.9648556173530873e-07 0.0000000000000000e+00  1.5009871289202525e-01 1.2032810960951561e-07 0.0000000000000000e+00  1.5076694373641916e-01 2.2172112135102972e-07 0.0000000000000000e+00  1.5022881052969328e-01 3.6386456260658328e-08 0.0000000000000000e+00  1.5056720637208823e-01 2.6058733029738457e-07 0.0000000000000000e+00  1.5008146948349307e-01 1.6919224547557687e-09 0.0000000000000000e+00  1.5037422204722958e-01 1.9549528174810644e-07 0.0000000000000000e+00  1.5015660024141941e-01 1.0421904509970589e-12 0.0000000000000000e+00  1.5042269182830106e-01 3.8510245694742453e-08 0.0000000000000000e+00  1.5023731917869865e-01 2.2241419264738066e-09 0.0000000000000000e+00  1.5026498927994697e-01 3.8024745680588352e-08 0.0000000000000000e+00  1.4993381840630740e-01 1.4152573076509223e-08 0.0000000000000000e+00  1.4983748184282775e-01 8.1350908810134044e-08 0.0000000000000000e+00  1.4968452349451358e-01 2.8867298771496831e-08 0.0000000000000000e+00  1.4977620962840404e-01 6.3245111698404672e-09 0.0000000000000000e+00  1.4988426167582755e-01 2.6946470223467775e-08 0.0000000000000000e+00  1.5007229020912694e-01 3.5791901320990201e-08 0.0000000000000000e+00  1.5000470637343497e-01 2.2108493546973008e-08 0.0000000000000000e+00  1.4987603953843845e-01 5.2469894656818574e-12 0.0000000000000000e+00  1.4983782994278053e-01 1.7650191689674137e-09 0.0000000000000000e+00  1.4994340013993326e-01 2.1323436390057874e-09 0.0000000000000000e+00  1.5004661270378766e-01 3.3837582438812387e-08 0.0000000000000000e+00  1.5014840296522475e-01 1.4362691215008916e-08 0.0000000000000000e+00  1.5009509700043541e-01 5.3907686735755362e-10 0.0000000000000000e+00  1.4994667993964342e-01 7.2089233480676438e-09 0.0000000000000000e+00  1.4994738826725959e-01 1.0017396146231378e-08 0.0000000000000000e+00  1.5008887088538178e-01 1.3022164018952809e-09 0.0000000000000000e+00  1.5014753007023446e-01 1.7917471553828905e-08 0.0000000000000000e+00  1.5010777544944826e-01 5.1521274566951499e-09 0.0000000000000000e+00  1.4995083811945037e-01 4.5956154212573520e-08 0.0000000000000000e+00  1.4984039929542700e-01 1.9544890420474942e-08 0.0000000000000000e+00  1.5007196183162091e-01 4.1520296850911173e-08 0.0000000000000000e+00  1.5025473218002147e-01 1.2702821276638571e-08 0.0000000000000000e+00  1.4992326455424471e-01 3.8775777716151786e-08 0.0000000000000000e+00  1.4976805657680539e-01 4.2846871772787221e-09 0.0000000000000000e+00  1.5015180954925239e-01 2.4654712514673166e-08 0.0000000000000000e+00  1.5017720681946167e-01 6.7781426229133095e-11 0.0000000000000000e+00  1.4981260989034673e-01 1.0161709637709633e-08 0.0000000000000000e+00  1.4993473780119318e-01 9.3670806774451303e-10 0.0000000000000000e+00  1.5016266292805072e-01 1.0600200558213899e-09 0.0000000000000000e+00  1.4993996567790013e-01 1.9150263614723361e-09 0.0000000000000000e+00  1.4990984910945301e-01 7.8497688912684429e-10 0.0000000000000000e+00  1.5011731401993714e-01 7.2717098188221650e-10 0.0000000000000000e+00  1.4997314032942441e-01 4.1016400122779819e-09 0.0000000000000000e+00  1.4988627969968249e-01 8.6464873389172516e-14 0.0000000000000000e+00  1.5012423830827301e-01 6.4631648619348722e-09 0.0000000000000000e+00  1.5004141351014239e-01 1.7799788870786439e-09 0.0000000000000000e+00  1.4985976444322469e-01 3.6990372700070394e-09 0.0000000000000000e+00  1.5004987661703745e-01 2.8264713051331901e-09 0.0000000000000000e+00  1.5011837744598436e-01 1.8996916348840533e-09 0.0000000000000000e+00  1.4988712185707923e-01 6.2559502216578489e-09 0.0000000000000000e+00  1.4997560875159913e-01 1.3730369039793357e-10 0.0000000000000000e+00  1.5009309765420745e-01 1.9859082706885222e-09 0.0000000000000000e+00  1.4997136639927086e-01 1.7076938658220109e-10 0.0000000000000000e+00  1.4993593054250409e-01 2.1351754967869715e-09 0.0000000000000000e+00  1.5007481344943324e-01 3.1621586654494320e-09 0.0000000000000000e+00  1.4998157936269788e-01 4.8046231866845956e-10 0.0000000000000000e+00  1.4997448591757234e-01 2.0399848189826704e-11 0.0000000000000000e+00  1.5001880526570111e-01 8.1513146329162713e-12 0.0000000000000000e+00  1.5001687552917611e-01 7.5637364616577454e-10 0.0000000000000000e+00  1.4995774834193190e-01 1.8201154943438179e-09 0.0000000000000000e+00  1.5003885504711326e-01 1.4720274653427786e-09 0.0000000000000000e+00  1.4998303206172370e-01 5.5044575510260752e-10 0.0000000000000000e+00  1.4999972484993584e-01 1.7339878911476589e-10 0.0000000000000000e+00  1.4999877732723749e-01 2.4659875863494469e-10 0.0000000000000000e+00  1.5001630131016930e-01 7.0790161503064049e-10 0.0000000000000000e+00  1.4997137497122781e-01 1.1819586639286107e-09 0.0000000000000000e+00  1.5002746308536521e-01 1.0179264666472672e-09 0.0000000000000000e+00  1.4998366232265234e-01 5.0727783337532226e-10 0.0000000000000000e+00  1.5000692518241740e-01 2.3557536494792925e-10 0.0000000000000000e+00  1.4999324773839690e-01 2.5249610206582144e-10 0.0000000000000000e+00  1.5001353707950638e-01 4.7270176508019685e-10 0.0000000000000000e+00  1.4998029601974810e-01 7.0210395376885232e-10 0.0000000000000000e+00  1.5002036306194441e-01 6.9625335011536066e-10 0.0000000000000000e+00  1.4998330432188789e-01 5.2624101767874160e-10 0.0000000000000000e+00  1.5001318954750159e-01 4.1206480966237289e-10 0.0000000000000000e+00  1.4998699868814130e-01 4.4488795307700550e-10 0.0000000000000000e+00  1.5001581637210051e-01 6.0834980531796113e-10 0.0000000000000000e+00  1.4998065977728556e-01 8.1880377225487568e-10 0.0000000000000000e+00  1.5002138230699794e-01 9.5577015657735161e-10 0.0000000000000000e+00  1.4997810791783731e-01 9.9431057183706589e-10 0.0000000000000000e+00  1.5002110214377329e-01 9.6289513150575499e-10 0.0000000000000000e+00  1.4997878079787072e-01 9.6734728436799904e-10 0.0000000000000000e+00  1.5002041163607041e-01 9.3918143531675697e-10 0.0000000000000000e+00  1.4997745850401739e-01 1.0043217613591931e-09 0.0000000000000000e+00  1.5001995188357228e-01 8.4927684228272916e-10 0.0000000000000000e+00  1.4997513095510900e-01 8.6612885832478139e-10 0.0000000000000000e+00  1.5001708953688389e-01 4.5000383965974069e-10 0.0000000000000000e+00  1.4997179498762916e-01 4.2054623175232838e-10 0.0000000000000000e+00  1.5001202008680861e-01 5.2021745276319371e-11 0.0000000000000000e+00  1.4996656803617253e-01 0.0000000000000000e+00 0.0000000000000000e+00  1.4972349402071208e-01 0.0000000000000000e+00 8.0801739203674950e-07  1.4908336744593600e-01 8.0107597116160734e-08 8.0107597116224248e-08  1.4943783960561660e-01 2.3143284945035409e-07 2.7925548842176975e-07  1.4890408556941068e-01 4.8660373501283889e-08 1.2071122309383160e-08  1.4931924190542162e-01 2.4366588431286709e-07 7.8571268881286194e-08  1.4898074036511974e-01 8.9658215691022205e-10 5.7323109271433344e-08  1.4954073156968212e-01 4.1481346513977062e-08 1.5521772345042812e-10  1.4935432502820603e-01 7.3774740241522518e-08 1.7921144067576295e-07  1.4986983506084459e-01 8.1244451721294944e-09 9.5783002273123900e-09  1.4961804657507910e-01 1.4052016105180270e-07 1.4164509262118173e-07  1.4987338166519859e-01 1.0292890895880720e-08 3.4267304460613191e-09  1.4949825393375804e-01 5.0375105264205044e-08 2.1062959075151163e-08  1.4964892673427038e-01 4.6821189964677218e-11 4.6662105382447447e-08  1.4940851482543044e-01 3.2120020384926095e-08 3.0546543383768531e-09  1.4966480577909452e-01 1.7646113603401255e-08 3.0523821671768862e-08  1.4960358842459465e-01 8.9036488667326557e-08 5.8593404130462305e-09  1.4981698619568107e-01 4.6093390720217239e-08 2.1800666206234878e-08  1.4967123610576605e-01 5.6700745850831077e-08 1.3199365886286757e-10  1.4974034669762104e-01 7.9239209993533515e-09 4.0446311561208773e-08  1.4963113004431328e-01 9.3163421527050936e-09 3.0044329793673935e-09  1.4977141788951726e-01 6.7159780513163488e-09 1.2856557533559730e-08  1.4987368306615748e-01 3.2473380143943678e-08 3.8315874008757444e-09  1.5013622478019348e-01 3.7577018667285070e-08 2.1521694529642831e-09  1.5021186263171712e-01 5.3346607186265290e-08 1.2758798325277752e-08  1.5026765530173702e-01 1.3645024773187829e-08 7.1669701245290031e-11  1.5015818362758468e-01 2.0367153227646938e-09 4.1907989724335897e-10  1.5002869662495091e-01 3.0655429081636473e-08 7.7492473877208859e-09  1.4995262048491895e-01 2.2169049923860093e-08 3.7741505235117218e-10  1.5007821729095203e-01 6.1588088657074288e-09 1.5137640412178975e-09  1.5014321690149252e-01 1.0402078936951530e-10 3.8451352282603832e-09  1.5009437849491514e-01 3.4774214744391546e-11 1.5394887395500707e-10  1.5000606429599311e-01 1.5322188513900911e-08 2.0963992483465790e-09  1.4992302006153826e-01 2.5268032716878204e-08 1.8871550478232928e-09  1.4987742603359896e-01 6.1888517042169462e-10 1.2094103944553183e-11  1.4998322267547265e-01 3.2188191446616241e-09 2.0057384821507883e-09  1.5005360516311345e-01 3.3672495301671220e-09 7.8194563775480433e-10  1.4995726697605472e-01 4.5372752728797847e-09 2.9025717992188276e-09  1.4988417117674166e-01 2.4905166620684990e-10 6.2287178264964050e-09  1.4990189211000490e-01 1.1714381386544828e-08 3.1266293826960247e-10  1.4995155919185080e-01 3.3087285264563945e-09 3.1479476132992111e-09  1.5008731143330570e-01 3.6672121197112674e-08 2.1453822851514506e-09  1.5007337087646710e-01 1.4041671998195105e-09 3.7970047665343651e-09  1.4981541988752189e-01 3.0275375528823853e-08 1.0062800499614254e-08  1.4987214380318864e-01 3.9431473510361893e-09 2.2703605168026664e-09  1.5019992345645808e-01 1.8238416115438085e-08 1.1792583137989892e-08  1.5005028061854814e-01 5.6113294445083617e-09 3.3451979470348782e-09  1.4976936291196838e-01 5.3159946301507873e-09 6.2105560635612358e-09  1.5003080755397707e-01 4.9506271479301826e-09 1.2205794169991146e-08  1.5018302136704120e-01 2.2534677930951949e-10 7.2054078960624656e-09  1.4989520202933188e-01 1.7822898921077188e-09 4.2576514088283371e-09  1.4993038959003716e-01 8.2693020051186073e-10 4.7769430798128226e-10  1.5013835858937993e-01 2.1559430810784248e-12 9.9984101126247197e-09  1.4996417128284009e-01 1.6284656116745735e-09 2.0243299096756885e-10  1.4991466022861571e-01 1.0374223458286486e-09 6.2984073734827051e-13  1.5012241325059389e-01 1.3122189488384049e-09 7.1811045706566216e-09  1.4998909177282968e-01 3.4180901756358498e-09 2.7093948187407927e-10  1.4987268821652250e-01 4.1306857656631401e-11 1.4595728224770861e-09  1.5008644488159137e-01 3.5163529363484021e-09 5.7762321858209020e-09  1.5006170036341876e-01 2.4393255442484214e-11 3.5311175727567777e-12  1.4986063462654120e-01 3.0881374711680660e-09 7.5318860990075877e-09  1.5002354222705896e-01 1.3024729144684616e-09 1.5899338576007340e-09  1.5009595357918212e-01 6.2589723372726410e-10 1.8105073993513951e-09  1.4992851153971451e-01 1.0928307931546506e-09 4.7522172323126781e-09  1.4996667648882858e-01 2.3515550373435041e-10 3.2292707038885720e-11  1.5008449872848756e-01 1.7475336328142162e-09 3.0134284943935534e-09  1.4996275279032881e-01 4.0544146274089795e-10 1.5334821860399055e-09  1.4997015103219075e-01 1.0847047046361210e-10 2.0093849031958175e-10  1.5004281827205831e-01 1.9943431702133566e-10 1.4948827035546604e-09  1.4999304169045991e-01 2.2683338221988500e-11 3.3843808060248439e-10  1.4996953693059378e-01 4.4567181632610777e-10 2.1550124749471442e-10  1.5003620395224651e-01 4.0624422630023035e-10 7.0685433844295677e-10  1.4998695470656731e-01 4.1241799862103450e-11 1.5664406064912759e-10  1.4998749460903887e-01 3.4552522330288858e-11 6.6299278720642131e-11  1.5001769605943380e-01 4.0663252650060766e-11 2.4038332836235103e-10  1.4999778532668842e-01 1.0742348769243347e-11 3.8569173670307622e-11  1.4998430218523087e-01 1.4976668649244508e-10 6.4012572057582051e-11  1.5001919193532626e-01 1.3594172057570513e-10 1.9506903078394866e-10  1.4999202946633958e-01 9.5385771327229430e-12 7.4886378003004193e-11  1.4999520173510106e-01 1.9099290457937389e-11 5.0787348043800048e-13  1.5000746005940271e-01 1.5877465902560811e-11 2.7836541462749541e-11  1.4999997257779832e-01 6.7288162133816859e-12 5.8978357060588401e-12  1.4999123106601106e-01 7.2872890003472870e-11 1.3202530412335889e-11  1.5001146247080438e-01 8.5265576136127096e-11 5.1889173315870222e-11  1.4999209688303941e-01 3.4954799717042991e-11 3.7592601951845421e-11  1.5000321550732315e-01 9.3334532209023417e-12 6.2861683891681151e-12  1.4999809529085931e-01 1.3284012393909635e-11 5.8980183288480062e-14  1.5000442443018755e-01 4.9718654186884059e-11 1.3121054817061686e-13  1.4999190234889884e-01 1.1082894860308784e-10 2.1524512370535697e-12  1.5001034175272895e-01 1.4516442827415510e-10 1.2473602834779622e-11  1.4998969023090111e-01 1.3120758199478149e-10 2.0519793221439065e-11  1.5000927069883649e-01 1.0332155044269254e-10 2.0837016641175696e-11  1.4999196375007043e-01 8.2548650754181870e-11 1.6230724523653375e-11  1.5000818386379997e-01 8.2948266481694854e-11 1.7306062922277223e-11  1.4999227478141011e-01 7.6150610458550733e-11 1.7740854570467197e-11  1.5000938624648097e-01 8.6549139521976145e-11 3.3145500684557863e-11  1.4999304033867433e-01 4.8402319882277559e-11 2.8240045016452704e-11  1.5001047007022958e-01 5.9327024218919829e-11 6.0271099380029983e-11  1.4999684855424023e-01 6.4762851041567280e-12 1.9392948170947045e-11  1.5001148117800953e-01 3.5968257393068784e-11 6.7749980442353005e-11  1.5000412256999254e-01 1.3304918877372013e-14 1.3304919041674683e-14  1.5001202008680839e-01 0.0000000000000000e+00 5.2021745284957243e-11  1.5173500689578309e-01 0.0000000000000000e+00 4.9498304677447272e-08  1.4943783960561635e-01 2.7925548842184736e-07 2.3143284945027090e-07  1.5162846743379318e-01 2.8423559745716781e-09 2.8423559745222470e-09  1.4994575152291134e-01 8.2037882493711550e-07 3.4985177556275536e-07  1.5151406839065776e-01 6.9758053760838585e-08 1.8556659053863446e-08  1.5010408879371814e-01 7.4172885208996356e-07 1.2179325780812286e-07  1.5118160162074626e-01 2.4739006253731663e-07 2.8907721072589547e-07  1.4990807938770354e-01 2.6931010145416839e-07 2.5276954343507214e-09  1.5073418474185343e-01 4.7883680720098258e-07 6.6838426217425046e-07  1.4974879233153543e-01 6.1518693227284372e-08 2.6692122305741093e-08  1.5056983753821251e-01 3.8502999701839479e-07 3.8613787971598035e-07  1.4996248578245039e-01 5.2490559856193574e-08 2.1567220694723616e-08  1.5072438983561570e-01 1.6053004893901377e-07 3.6153228728127441e-08  1.5022853921180651e-01 4.0187312403443859e-08 1.3670225870641173e-07  1.5071085400283613e-01 1.4343999508164945e-07 3.3518136087733941e-09  1.5018761853353801e-01 3.5285747456359795e-10 7.7892245837226472e-08  1.5046792394266825e-01 1.7961640258856274e-07 6.8753066796360769e-09  1.5012146779762262e-01 7.9637726834336036e-09 6.7850772760592054e-08  1.5043597158754160e-01 8.2466312673344327e-08 6.4858109855676019e-09  1.5022949686499137e-01 1.3564592419272052e-12 1.1853409856895618e-07  1.5041518250566629e-01 3.2606019552325962e-08 1.4735280204460554e-08  1.5013805145326248e-01 7.3909081954193016e-09 3.0702400299927327e-08  1.5007428596037661e-01 6.6492205277818350e-08 1.1832293349536105e-08  1.4978497542891039e-01 3.2726595931497987e-08 8.0546101841101944e-09  1.4981444801835725e-01 5.3006059417256729e-08 2.6968314603569104e-08  1.4976045337091423e-01 3.2415916479870348e-10 1.2181211686376518e-11  1.4993724776818065e-01 9.2410783053707083e-09 2.8449470407870717e-09  1.5001238078081322e-01 3.2325866733104685e-08 1.9275751977712429e-08  1.5001259047330798e-01 9.5805982083799509e-09 1.5911355148211498e-12  1.4986677810621366e-01 2.5160024307695463e-09 5.7052962299731424e-09  1.4989658670870881e-01 2.5519570480072589e-10 4.3842993192596193e-09  1.4994473085057883e-01 3.9282746001665110e-09 9.4779396643389223e-10  1.5001391921589544e-01 2.5278547769162805e-08 2.1355304657255547e-09  1.5009061205069321e-01 1.2081692042354840e-08 3.0845959078644397e-09  1.5008786758319628e-01 7.2903805476344921e-10 1.0666672328711568e-10  1.4996059490905467e-01 2.0090963354407635e-09 5.6906553345820966e-09  1.4999099398989535e-01 2.8895370892133219e-09 5.2291936339154689e-11  1.5010377522820348e-01 2.4269377729278489e-09 1.4681458021626976e-08  1.5009822435556999e-01 4.1315233379287412e-09 1.0973772268426130e-08  1.5005790831028379e-01 2.2604022610237927e-09 1.1423400994816880e-11  1.5000280068725627e-01 2.5141947630320932e-08 4.3192710072094424e-09  1.4991366906269549e-01 9.5150642243864178e-09 5.9519516314674055e-11  1.5005996180599965e-01 2.5991238148910481e-08 2.6924686436887131e-08  1.5020998410562952e-01 3.9099213554514822e-09 1.4087593854099767e-08  1.4994748822390447e-01 2.4139083094936652e-08 2.9190970478254344e-08  1.4982077480537626e-01 5.5706168783452561e-11 1.7786769558653948e-08  1.5014734384109646e-01 1.4764778981016141e-08 1.9224665097821421e-08  1.5012992995445071e-01 1.6198260628133163e-09 1.5261580788166525e-09  1.4980575840467614e-01 4.5460674288393896e-09 9.3638342785328666e-08  1.4997349116037451e-01 3.8739945448895967e-09 5.0782873262125337e-09  1.5016338659352346e-01 3.0693103441772020e-12 2.2357171586507071e-09  1.4991142198503093e-01 2.4765360782535559e-09 4.7897386796594861e-08  1.4991216440565316e-01 1.8511542668325678e-09 2.8760706243341797e-08  1.5013736791774090e-01 5.2547397015074462e-10 9.5424930090760084e-10  1.4995040628929118e-01 5.5072962532980281e-09 1.9541721369233187e-08  1.4988933502322710e-01 5.8803446798093902e-10 2.2899764075017752e-08  1.5012065701780136e-01 2.7733373873864484e-09 6.9528169496286611e-09  1.5001816252160821e-01 2.0957790490959752e-09 6.6648651157304958e-10  1.4984694195128476e-01 2.8915728270421954e-09 1.5569601863113376e-08  1.5009487570481492e-01 4.9371963924193061e-09 1.8330718502005137e-08  1.5007633927664715e-01 2.1417883794918754e-11 8.1307969813358837e-09  1.4988194912730951e-01 2.2268376215071205e-09 1.2919215532334358e-08  1.5000250213628047e-01 1.3131898980173250e-10 1.3417456698423739e-09  1.5010518945242105e-01 3.1613389773678978e-09 9.2636707453099434e-09  1.4990921563265758e-01 2.9962508695401101e-09 1.1127457505528594e-08  1.4999212170961451e-01 3.5061891453125829e-11 8.8817947479460334e-11  1.5006188430307255e-01 4.0280877513206119e-10 5.6218916834364089e-09  1.4997343303836336e-01 2.3015264583747046e-12 1.6861942298636210e-09  1.4996306807517079e-01 1.0234125356322138e-09 8.3521508965597153e-10  1.5006338783306261e-01 1.9009717147556031e-09 3.7782382058200426e-09  1.4996056688230716e-01 7.3462617492706355e-10 1.4517592359991744e-09  1.4999804866787744e-01 1.6838561654164478e-11 3.1471642869308650e-11  1.5002015879823496e-01 6.7925713595590296e-12 6.9230657679424678e-10  1.4999637171703506e-01 1.0905771528433601e-10 1.3296563486173648e-10  1.4997430395346734e-01 7.6835441349834196e-10 3.2522183077014095e-10  1.5003879881936164e-01 1.0327807960635789e-09 1.1461645022745183e-09  1.4997263343706307e-01 4.6519936120507533e-10 6.5161883020579212e-10  1.5000702323097931e-01 7.2176180015537769e-11 2.9725048833676709e-11  1.5000220083917731e-01 3.1606666341039932e-11 4.8123419373432736e-11  1.5000515158859001e-01 1.9196704918392638e-10 1.1119129189664893e-11  1.4998115118722533e-01 5.7463942072632733e-10 8.5529647959978615e-11  1.5002613221096492e-01 7.4756692285199939e-10 3.3501518847280200e-10  1.4997666515