<?xml version="1.0"?>
<VTKFile type="UnstructuredGrid"  version="0.1"  >
<UnstructuredGrid>
<Piece  NumberOfPoints="10201" NumberOfCells="20000">
<Points>
<DataArray  type="Float64"  NumberOfComponents="3"  format="ascii">-5 -5 0  -4.9 -5 0  -4.8 -5 0  -4.7 -5 0  -4.6 -5 0  -4.5 -5 0  -4.4 -5 0  -4.3 -5 0  -4.2 -5 0  -4.1 -5 0  -4 -5 0  -3.9 -5 0  -3.8 -5 0  -3.7 -5 0  -3.6 -5 0  -3.5 -5 0  -3.4 -5 0  -3.3 -5 0  -3.2 -5 0  -3.1 -5 0  -3 -5 0  -2.9 -5 0  -2.8 -5 0  -2.7 -5 0  -2.6 -5 0  -2.5 -5 0  -2.4 -5 0  -2.3 -5 0  -2.2 -5 0  -2.1 -5 0  -2 -5 0  -1.9 -5 0  -1.8 -5 0  -1.7 -5 0  -1.6 -5 0  -1.5 -5 0  -1.4 -5 0  -1.3 -5 0  -1.2 -5 0  -1.1 -5 0  -1 -5 0  -0.9000000000000004 -5 0  -0.7999999999999998 -5 0  -0.7000000000000002 -5 0  -0.5999999999999996 -5 0  -0.5 -5 0  -0.4000000000000004 -5 0  -0.2999999999999998 -5 0  -0.2000000000000002 -5 0  -0.09999999999999964 -5 0  0 -5 0  0.09999999999999964 -5 0  0.2000000000000002 -5 0  0.2999999999999998 -5 0  0.4000000000000004 -5 0  0.5 -5 0  0.5999999999999996 -5 0  0.7000000000000002 -5 0  0.7999999999999998 -5 0  0.9000000000000004 -5 0  1 -5 0  1.1 -5 0  1.2 -5 0  1.3 -5 0  1.4 -5 0  1.5 -5 0  1.6 -5 0  1.7 -5 0  1.8 -5 0  1.9 -5 0  2 -5 0  2.1 -5 0  2.2 -5 0  2.3 -5 0  2.4 -5 0  2.5 -5 0  2.6 -5 0  2.7 -5 0  2.8 -5 0  2.9 -5 0  3 -5 0  3.1 -5 0  3.199999999999999 -5 0  3.300000000000001 -5 0  3.4 -5 0  3.5 -5 0  3.6 -5 0  3.699999999999999 -5 0  3.800000000000001 -5 0  3.9 -5 0  4 -5 0  4.1 -5 0  4.199999999999999 -5 0  4.300000000000001 -5 0  4.4 -5 0  4.5 -5 0  4.6 -5 0  4.699999999999999 -5 0  4.800000000000001 -5 0  4.9 -5 0  5 -5 0  -5 -4.9 0  -4.9 -4.9 0  -4.8 -4.9 0  -4.7 -4.9 0  -4.6 -4.9 0  -4.5 -4.9 0  -4.4 -4.9 0  -4.3 -4.9 0  -4.2 -4.9 0  -4.1 -4.9 0  -4 -4.9 0  -3.9 -4.9 0  -3.8 -4.9 0  -3.7 -4.9 0  -3.6 -4.9 0  -3.5 -4.9 0  -3.4 -4.9 0  -3.3 -4.9 0  -3.2 -4.9 0  -3.1 -4.9 0  -3 -4.9 0  -2.9 -4.9 0  -2.8 -4.9 0  -2.7 -4.9 0  -2.6 -4.9 0  -2.5 -4.9 0  -2.4 -4.9 0  -2.3 -4.9 0  -2.2 -4.9 0  -2.1 -4.9 0  -2 -4.9 0  -1.9 -4.9 0  -1.8 -4.9 0  -1.7 -4.9 0  -1.6 -4.9 0  -1.5 -4.9 0  -1.4 -4.9 0  -1.3 -4.9 0  -1.2 -4.9 0  -1.1 -4.9 0  -1 -4.9 0  -0.9000000000000004 -4.9 0  -0.7999999999999998 -4.9 0  -0.7000000000000002 -4.9 0  -0.5999999999999996 -4.9 0  -0.5 -4.9 0  -0.4000000000000004 -4.9 0  -0.2999999999999998 -4.9 0  -0.2000000000000002 -4.9 0  -0.09999999999999964 -4.9 0  0 -4.9 0  0.09999999999999964 -4.9 0  0.2000000000000002 -4.9 0  0.2999999999999998 -4.9 0  0.4000000000000004 -4.9 0  0.5 -4.9 0  0.5999999999999996 -4.9 0  0.7000000000000002 -4.9 0  0.7999999999999998 -4.9 0  0.9000000000000004 -4.9 0  1 -4.9 0  1.1 -4.9 0  1.2 -4.9 0  1.3 -4.9 0  1.4 -4.9 0  1.5 -4.9 0  1.6 -4.9 0  1.7 -4.9 0  1.8 -4.9 0  1.9 -4.9 0  2 -4.9 0  2.1 -4.9 0  2.2 -4.9 0  2.3 -4.9 0  2.4 -4.9 0  2.5 -4.9 0  2.6 -4.9 0  2.7 -4.9 0  2.8 -4.9 0  2.9 -4.9 0  3 -4.9 0  3.1 -4.9 0  3.199999999999999 -4.9 0  3.300000000000001 -4.9 0  3.4 -4.9 0  3.5 -4.9 0  3.6 -4.9 0  3.699999999999999 -4.9 0  3.800000000000001 -4.9 0  3.9 -4.9 0  4 -4.9 0  4.1 -4.9 0  4.199999999999999 -4.9 0  4.300000000000001 -4.9 0  4.4 -4.9 0  4.5 -4.9 0  4.6 -4.9 0  4.699999999999999 -4.9 0  4.800000000000001 -4.9 0  4.9 -4.9 0  5 -4.9 0  -5 -4.8 0  -4.9 -4.8 0  -4.8 -4.8 0  -4.7 -4.8 0  -4.6 -4.8 0  -4.5 -4.8 0  -4.4 -4.8 0  -4.3 -4.8 0  -4.2 -4.8 0  -4.1 -4.8 0  -4 -4.8 0  -3.9 -4.8 0  -3.8 -4.8 0  -3.7 -4.8 0  -3.6 -4.8 0  -3.5 -4.8 0  -3.4 -4.8 0  -3.3 -4.8 0  -3.2 -4.8 0  -3.1 -4.8 0  -3 -4.8 0  -2.9 -4.8 0  -2.8 -4.8 0  -2.7 -4.8 0  -2.6 -4.8 0  -2.5 -4.8 0  -2.4 -4.8 0  -2.3 -4.8 0  -2.2 -4.8 0  -2.1 -4.8 0  -2 -4.8 0  -1.9 -4.8 0  -1.8 -4.8 0  -1.7 -4.8 0  -1.6 -4.8 0  -1.5 -4.8 0  -1.4 -4.8 0  -1.3 -4.8 0  -1.2 -4.8 0  -1.1 -4.8 0  -1 -4.8 0  -0.9000000000000004 -4.8 0  -0.7999999999999998 -4.8 0  -0.7000000000000002 -4.8 0  -0.5999999999999996 -4.8 0  -0.5 -4.8 0  -0.4000000000000004 -4.8 0  -0.2999999999999998 -4.8 0  -0.2000000000000002 -4.8 0  -0.09999999999999964 -4.8 0  0 -4.8 0  0.09999999999999964 -4.8 0  0.2000000000000002 -4.8 0  0.2999999999999998 -4.8 0  0.4000000000000004 -4.8 0  0.5 -4.8 0  0.5999999999999996 -4.8 0  0.7000000000000002 -4.8 0  0.7999999999999998 -4.8 0  0.9000000000000004 -4.8 0  1 -4.8 0  1.1 -4.8 0  1.2 -4.8 0  1.3 -4.8 0  1.4 -4.8 0  1.5 -4.8 0  1.6 -4.8 0  1.7 -4.8 0  1.8 -4.8 0  1.9 -4.8 0  2 -4.8 0  2.1 -4.8 0  2.2 -4.8 0  2.3 -4.8 0  2.4 -4.8 0  2.5 -4.8 0  2.6 -4.8 0  2.7 -4.8 0  2.8 -4.8 0  2.9 -4.8 0  3 -4.8 0  3.1 -4.8 0  3.199999999999999 -4.8 0  3.300000000000001 -4.8 0  3.4 -4.8 0  3.5 -4.8 0  3.6 -4.8 0  3.699999999999999 -4.8 0  3.800000000000001 -4.8 0  3.9 -4.8 0  4 -4.8 0  4.1 -4.8 0  4.199999999999999 -4.8 0  4.300000000000001 -4.8 0  4.4 -4.8 0  4.5 -4.8 0  4.6 -4.8 0  4.699999999999999 -4.8 0  4.800000000000001 -4.8 0  4.9 -4.8 0  5 -4.8 0  -5 -4.7 0  -4.9 -4.7 0  -4.8 -4.7 0  -4.7 -4.7 0  -4.6 -4.7 0  -4.5 -4.7 0  -4.4 -4.7 0  -4.3 -4.7 0  -4.2 -4.7 0  -4.1 -4.7 0  -4 -4.7 0  -3.9 -4.7 0  -3.8 -4.7 0  -3.7 -4.7 0  -3.6 -4.7 0  -3.5 -4.7 0  -3.4 -4.7 0  -3.3 -4.7 0  -3.2 -4.7 0  -3.1 -4.7 0  -3 -4.7 0  -2.9 -4.7 0  -2.8 -4.7 0  -2.7 -4.7 0  -2.6 -4.7 0  -2.5 -4.7 0  -2.4 -4.7 0  -2.3 -4.7 0  -2.2 -4.7 0  -2.1 -4.7 0  -2 -4.7 0  -1.9 -4.7 0  -1.8 -4.7 0  -1.7 -4.7 0  -1.6 -4.7 0  -1.5 -4.7 0  -1.4 -4.7 0  -1.3 -4.7 0  -1.2 -4.7 0  -1.1 -4.7 0  -1 -4.7 0  -0.9000000000000004 -4.7 0  -0.7999999999999998 -4.7 0  -0.7000000000000002 -4.7 0  -0.5999999999999996 -4.7 0  -0.5 -4.7 0  -0.4000000000000004 -4.7 0  -0.2999999999999998 -4.7 0  -0.2000000000000002 -4.7 0  -0.09999999999999964 -4.7 0  0 -4.7 0  0.09999999999999964 -4.7 0  0.2000000000000002 -4.7 0  0.2999999999999998 -4.7 0  0.4000000000000004 -4.7 0  0.5 -4.7 0  0.5999999999999996 -4.7 0  0.7000000000000002 -4.7 0  0.7999999999999998 -4.7 0  0.9000000000000004 -4.7 0  1 -4.7 0  1.1 -4.7 0  1.2 -4.7 0  1.3 -4.7 0  1.4 -4.7 0  1.5 -4.7 0  1.6 -4.7 0  1.7 -4.7 0  1.8 -4.7 0  1.9 -4.7 0  2 -4.7 0  2.1 -4.7 0  2.2 -4.7 0  2.3 -4.7 0  2.4 -4.7 0  2.5 -4.7 0  2.6 -4.7 0  2.7 -4.7 0  2.8 -4.7 0  2.9 -4.7 0  3 -4.7 0  3.1 -4.7 0  3.199999999999999 -4.7 0  3.300000000000001 -4.7 0  3.4 -4.7 0  3.5 -4.7 0  3.6 -4.7 0  3.699999999999999 -4.7 0  3.800000000000001 -4.7 0  3.9 -4.7 0  4 -4.7 0  4.1 -4.7 0  4.199999999999999 -4.7 0  4.300000000000001 -4.7 0  4.4 -4.7 0  4.5 -4.7 0  4.6 -4.7 0  4.699999999999999 -4.7 0  4.800000000000001 -4.7 0  4.9 -4.7 0  5 -4.7 0  -5 -4.6 0  -4.9 -4.6 0  -4.8 -4.6 0  -4.7 -4.6 0  -4.6 -4.6 0  -4.5 -4.6 0  -4.4 -4.6 0  -4.3 -4.6 0  -4.2 -4.6 0  -4.1 -4.6 0  -4 -4.6 0  -3.9 -4.6 0  -3.8 -4.6 0  -3.7 -4.6 0  -3.6 -4.6 0  -3.5 -4.6 0  -3.4 -4.6 0  -3.3 -4.6 0  -3.2 -4.6 0  -3.1 -4.6 0  -3 -4.6 0  -2.9 -4.6 0  -2.8 -4.6 0  -2.7 -4.6 0  -2.6 -4.6 0  -2.5 -4.6 0  -2.4 -4.6 0  -2.3 -4.6 0  -2.2 -4.6 0  -2.1 -4.6 0  -2 -4.6 0  -1.9 -4.6 0  -1.8 -4.6 0  -1.7 -4.6 0  -1.6 -4.6 0  -1.5 -4.6 0  -1.4 -4.6 0  -1.3 -4.6 0  -1.2 -4.6 0  -1.1 -4.6 0  -1 -4.6 0  -0.9000000000000004 -4.6 0  -0.7999999999999998 -4.6 0  -0.7000000000000002 -4.6 0  -0.5999999999999996 -4.6 0  -0.5 -4.6 0  -0.4000000000000004 -4.6 0  -0.2999999999999998 -4.6 0  -0.2000000000000002 -4.6 0  -0.09999999999999964 -4.6 0  0 -4.6 0  0.09999999999999964 -4.6 0  0.2000000000000002 -4.6 0  0.2999999999999998 -4.6 0  0.4000000000000004 -4.6 0  0.5 -4.6 0  0.5999999999999996 -4.6 0  0.7000000000000002 -4.6 0  0.7999999999999998 -4.6 0  0.9000000000000004 -4.6 0  1 -4.6 0  1.1 -4.6 0  1.2 -4.6 0  1.3 -4.6 0  1.4 -4.6 0  1.5 -4.6 0  1.6 -4.6 0  1.7 -4.6 0  1.8 -4.6 0  1.9 -4.6 0  2 -4.6 0  2.1 -4.6 0  2.2 -4.6 0  2.3 -4.6 0  2.4 -4.6 0  2.5 -4.6 0  2.6 -4.6 0  2.7 -4.6 0  2.8 -4.6 0  2.9 -4.6 0  3 -4.6 0  3.1 -4.6 0  3.199999999999999 -4.6 0  3.300000000000001 -4.6 0  3.4 -4.6 0  3.5 -4.6 0  3.6 -4.6 0  3.699999999999999 -4.6 0  3.800000000000001 -4.6 0  3.9 -4.6 0  4 -4.6 0  4.1 -4.6 0  4.199999999999999 -4.6 0  4.300000000000001 -4.6 0  4.4 -4.6 0  4.5 -4.6 0  4.6 -4.6 0  4.699999999999999 -4.6 0  4.800000000000001 -4.6 0  4.9 -4.6 0  5 -4.6 0  -5 -4.5 0  -4.9 -4.5 0  -4.8 -4.5 0  -4.7 -4.5 0  -4.6 -4.5 0  -4.5 -4.5 0  -4.4 -4.5 0  -4.3 -4.5 0  -4.2 -4.5 0  -4.1 -4.5 0  -4 -4.5 0  -3.9 -4.5 0  -3.8 -4.5 0  -3.7 -4.5 0  -3.6 -4.5 0  -3.5 -4.5 0  -3.4 -4.5 0  -3.3 -4.5 0  -3.2 -4.5 0  -3.1 -4.5 0  -3 -4.5 0  -2.9 -4.5 0  -2.8 -4.5 0  -2.7 -4.5 0  -2.6 -4.5 0  -2.5 -4.5 0  -2.4 -4.5 0  -2.3 -4.5 0  -2.2 -4.5 0  -2.1 -4.5 0  -2 -4.5 0  -1.9 -4.5 0  -1.8 -4.5 0  -1.7 -4.5 0  -1.6 -4.5 0  -1.5 -4.5 0  -1.4 -4.5 0  -1.3 -4.5 0  -1.2 -4.5 0  -1.1 -4.5 0  -1 -4.5 0  -0.9000000000000004 -4.5 0  -0.7999999999999998 -4.5 0  -0.7000000000000002 -4.5 0  -0.5999999999999996 -4.5 0  -0.5 -4.5 0  -0.4000000000000004 -4.5 0  -0.2999999999999998 -4.5 0  -0.2000000000000002 -4.5 0  -0.09999999999999964 -4.5 0  0 -4.5 0  0.09999999999999964 -4.5 0  0.2000000000000002 -4.5 0  0.2999999999999998 -4.5 0  0.4000000000000004 -4.5 0  0.5 -4.5 0  0.5999999999999996 -4.5 0  0.7000000000000002 -4.5 0  0.7999999999999998 -4.5 0  0.9000000000000004 -4.5 0  1 -4.5 0  1.1 -4.5 0  1.2 -4.5 0  1.3 -4.5 0  1.4 -4.5 0  1.5 -4.5 0  1.6 -4.5 0  1.7 -4.5 0  1.8 -4.5 0  1.9 -4.5 0  2 -4.5 0  2.1 -4.5 0  2.2 -4.5 0  2.3 -4.5 0  2.4 -4.5 0  2.5 -4.5 0  2.6 -4.5 0  2.7 -4.5 0  2.8 -4.5 0  2.9 -4.5 0  3 -4.5 0  3.1 -4.5 0  3.199999999999999 -4.5 0  3.300000000000001 -4.5 0  3.4 -4.5 0  3.5 -4.5 0  3.6 -4.5 0  3.699999999999999 -4.5 0  3.800000000000001 -4.5 0  3.9 -4.5 0  4 -4.5 0  4.1 -4.5 0  4.199999999999999 -4.5 0  4.300000000000001 -4.5 0  4.4 -4.5 0  4.5 -4.5 0  4.6 -4.5 0  4.699999999999999 -4.5 0  4.800000000000001 -4.5 0  4.9 -4.5 0  5 -4.5 0  -5 -4.4 0  -4.9 -4.4 0  -4.8 -4.4 0  -4.7 -4.4 0  -4.6 -4.4 0  -4.5 -4.4 0  -4.4 -4.4 0  -4.3 -4.4 0  -4.2 -4.4 0  -4.1 -4.4 0  -4 -4.4 0  -3.9 -4.4 0  -3.8 -4.4 0  -3.7 -4.4 0  -3.6 -4.4 0  -3.5 -4.4 0  -3.4 -4.4 0  -3.3 -4.4 0  -3.2 -4.4 0  -3.1 -4.4 0  -3 -4.4 0  -2.9 -4.4 0  -2.8 -4.4 0  -2.7 -4.4 0  -2.6 -4.4 0  -2.5 -4.4 0  -2.4 -4.4 0  -2.3 -4.4 0  -2.2 -4.4 0  -2.1 -4.4 0  -2 -4.4 0  -1.9 -4.4 0  -1.8 -4.
[...]
<PointData  Vectors="f_23"> 
<DataArray  type="Float64"  Name="f_23"  NumberOfComponents="3" format="ascii">1.4999999999974706e-01 0.0000000000000000e+00 0.0000000000000000e+00  1.5000000000184410e-01 5.6527672668023356e-25 0.0000000000000000e+00  1.5000000000673147e-01 7.1938773976060199e-23 0.0000000000000000e+00  1.5000000003708064e-01 1.3014153128660414e-21 0.0000000000000000e+00  1.5000000015847209e-01 1.6899610665862167e-20 0.0000000000000000e+00  1.5000000055237553e-01 1.7739295085030130e-19 0.0000000000000000e+00  1.5000000170072483e-01 1.4054152446874786e-18 0.0000000000000000e+00  1.5000000468475916e-01 8.4629806372586203e-18 0.0000000000000000e+00  1.5000001146176001e-01 4.0050553100652712e-17 0.0000000000000000e+00  1.5000002501631818e-01 1.4639322823127005e-16 0.0000000000000000e+00  1.5000004873661940e-01 3.9827018510992962e-16 0.0000000000000000e+00  1.5000008396367442e-01 7.7273231132762541e-16 0.0000000000000000e+00  1.5000012610072871e-01 9.6825579464680611e-16 0.0000000000000000e+00  1.5000016142730346e-01 5.5162671787576477e-16 0.0000000000000000e+00  1.5000016684330666e-01 4.2938611318494084e-19 0.0000000000000000e+00  1.5000011567895291e-01 1.8284332867501773e-15 0.0000000000000000e+00  1.4999999078915510e-01 1.0283454350762525e-14 0.0000000000000000e+00  1.4999979579628298e-01 3.0332866189445145e-14 0.0000000000000000e+00  1.4999955670028278e-01 6.0241452344954543e-14 0.0000000000000000e+00  1.4999932996633725e-01 6.9497317889583162e-14 0.0000000000000000e+00  1.4999922373822566e-01 2.2119061623618379e-14 0.0000000000000000e+00  1.4999937477479616e-01 1.7105674055350673e-14 0.0000000000000000e+00  1.4999982632936001e-01 2.0860025379826995e-13 0.0000000000000000e+00  1.5000039478763777e-01 3.3792699100786041e-13 0.0000000000000000e+00  1.5000072505566966e-01 1.2454096851134322e-13 0.0000000000000000e+00  1.5000059644446384e-01 3.9976114210348392e-15 0.0000000000000000e+00  1.5000019277787335e-01 1.0207001129194051e-13 0.0000000000000000e+00  1.4999992305075854e-01 7.9632661637344143e-14 0.0000000000000000e+00  1.4999992304656082e-01 1.4710336121178265e-14 0.0000000000000000e+00  1.4999998710642715e-01 3.9788649564023565e-16 0.0000000000000000e+00  1.5000004907850439e-01 2.1606620706924979e-14 0.0000000000000000e+00  1.5000022219116738e-01 2.6402263318832435e-14 0.0000000000000000e+00  1.5000027007653058e-01 3.7458957168486525e-15 0.0000000000000000e+00  1.4999988812497472e-01 7.5448362624412312e-14 0.0000000000000000e+00  1.4999957892772781e-01 9.2967008779086221e-15 0.0000000000000000e+00  1.4999998572190190e-01 6.2834922395649116e-14 0.0000000000000000e+00  1.5000047016610771e-01 3.4064373118585891e-14 0.0000000000000000e+00  1.5000009570771589e-01 3.6414786713213312e-14 0.0000000000000000e+00  1.4999954914234068e-01 4.3651421005153330e-14 0.0000000000000000e+00  1.4999989364478072e-01 1.8907248981883524e-14 0.0000000000000000e+00  1.5000040160975192e-01 3.6655148959462957e-14 0.0000000000000000e+00  1.5000006452968712e-01 1.1106790363856918e-14 0.0000000000000000e+00  1.4999966221494590e-01 2.3898949659875840e-14 0.0000000000000000e+00  1.5000000023836324e-01 8.2373958863476908e-15 0.0000000000000000e+00  1.5000026364514082e-01 1.2519652332169905e-14 0.0000000000000000e+00  1.4999993966683431e-01 7.0994023479158466e-15 0.0000000000000000e+00  1.4999981746717864e-01 4.9279148720636427e-15 0.0000000000000000e+00  1.5000009732130890e-01 5.9977820465286024e-15 0.0000000000000000e+00  1.5000010243598424e-01 1.1124259966818733e-15 0.0000000000000000e+00  1.4999989556744528e-01 4.3078477084207987e-15 0.0000000000000000e+00  1.4999996518998820e-01 2.0218140582604277e-17 0.0000000000000000e+00  1.5000008587439551e-01 2.3370330104694597e-15 0.0000000000000000e+00  1.4999998939566614e-01 1.9174910271433193e-16 0.0000000000000000e+00  1.4999994657415797e-01 8.0893002398449355e-16 0.0000000000000000e+00  1.5000003058911635e-01 4.3853193097763827e-16 0.0000000000000000e+00  1.5000002090475154e-01 1.0815515679717726e-16 0.0000000000000000e+00  1.4999997021417039e-01 3.4989505687633493e-16 0.0000000000000000e+00  1.5000000151783299e-01 3.7041888020582257e-18 0.0000000000000000e+00  1.5000001798697118e-01 1.2772540114708848e-16 0.0000000000000000e+00  1.4999998941097054e-01 4.9958584428280471e-17 0.0000000000000000e+00  1.4999999478042766e-01 1.1932992107470702e-17 0.0000000000000000e+00  1.5000000945484340e-01 4.1103368590454332e-17 0.0000000000000000e+00  1.4999999757184657e-01 2.3426709548236799e-18 0.0000000000000000e+00  1.4999999580774492e-01 9.4944927907900452e-18 0.0000000000000000e+00  1.5000000407012457e-01 8.1136222458832631e-18 0.0000000000000000e+00  1.4999999985408499e-01 5.7054395196371597e-21 0.0000000000000000e+00  1.4999999771063049e-01 3.1811907651787400e-18 0.0000000000000000e+00  1.5000000163912464e-01 1.3425350437696500e-18 0.0000000000000000e+00  1.5000000018385026e-01 7.1335689812887708e-20 0.0000000000000000e+00  1.4999999892537763e-01 7.7848239610587681e-19 0.0000000000000000e+00  1.5000000068036545e-01 2.3717220433941029e-19 0.0000000000000000e+00  1.5000000010319328e-01 2.4321210528385797e-20 0.0000000000000000e+00  1.4999999953469764e-01 1.6531503465962393e-19 0.0000000000000000e+00  1.5000000030651728e-01 5.2521699603432114e-20 0.0000000000000000e+00  1.5000000001648101e-01 2.7541796249646922e-21 0.0000000000000000e+00  1.4999999981401949e-01 3.1337042780540518e-20 0.0000000000000000e+00  1.5000000014694786e-01 1.4289879152114119e-20 0.0000000000000000e+00  1.4999999997798102e-01 1.1078953604523932e-24 0.0000000000000000e+00  1.4999999993716895e-01 4.6490741688373625e-21 0.0000000000000000e+00  1.5000000006858169e-01 3.8806802859242462e-21 0.0000000000000000e+00  1.4999999997241772e-01 3.2688054361962723e-22 0.0000000000000000e+00  1.4999999998722860e-01 3.7060956100274697e-22 0.0000000000000000e+00  1.5000000002792716e-01 8.6625644386832679e-22 0.0000000000000000e+00  1.4999999997976493e-01 3.2429473209521990e-22 0.0000000000000000e+00  1.5000000000426661e-01 4.4516651059467131e-25 0.0000000000000000e+00  1.5000000000768157e-01 1.1520136719607489e-22 0.0000000000000000e+00  1.4999999998870889e-01 1.6692368064904157e-22 0.0000000000000000e+00  1.5000000000853334e-01 7.6948488675340376e-23 0.0000000000000000e+00  1.4999999999651259e-01 8.0756332144648388e-24 0.0000000000000000e+00  1.4999999999929037e-01 2.7960382299154971e-24 0.0000000000000000e+00  1.5000000000283439e-01 1.3761265634685516e-23 0.0000000000000000e+00  1.4999999999688698e-01 1.3826655695318575e-23 0.0000000000000000e+00  1.5000000000236274e-01 7.1926938250458227e-24 0.0000000000000000e+00  1.4999999999865368e-01 2.1011022877819269e-24 0.0000000000000000e+00  1.5000000000051139e-01 2.4237967418171023e-25 0.0000000000000000e+00  1.5000000000000474e-01 4.9077748012829309e-27 0.0000000000000000e+00  1.4999999999978397e-01 8.7949687770698854e-26 0.0000000000000000e+00  1.5000000000027072e-01 9.6289358092391767e-26 0.0000000000000000e+00  1.4999999999976060e-01 6.2374443825034550e-26 0.0000000000000000e+00  1.5000000000012670e-01 1.8029878858134928e-26 0.0000000000000000e+00  1.4999999999975261e-01 0.0000000000000000e+00 0.0000000000000000e+00  1.5000000000184427e-01 0.0000000000000000e+00 5.6403605839052096e-25  1.4999999999886382e-01 2.4086965503513742e-26 2.4034033576911307e-26  1.4999999999578059e-01 1.3100790590167326e-23 8.7429830874916160e-24  1.4999999997971239e-01 5.2470863657201345e-22 2.2502802577314045e-22  1.4999999990079152e-01 7.3113460148709496e-21 5.1594125982493832e-21  1.4999999962641158e-01 8.5203190347207449e-20 7.6492145103983409e-20  1.4999999879349668e-01 7.7392240748630236e-19 8.1746579349533393e-19  1.4999999651446991e-01 5.2592257559694028e-18 6.8998929107000405e-18  1.4999999103272324e-01 2.7636542939799252e-17 4.5836962275302161e-17  1.4999997948783425e-01 1.1351645619163925e-16 2.3971283648782553e-16  1.4999995810791891e-01 3.5210240087918524e-16 9.8966593239295918e-16  1.4999992399543155e-01 7.9030083092994926e-16 3.1856655891505194e-15  1.4999987908966358e-01 1.1994908636777401e-15 7.7692567486647292e-15  1.4999983441875886e-01 1.0009175456397015e-15 1.3713803264823194e-14  1.4999981182661723e-01 1.4067957795917740e-16 1.5913081506809443e-14  1.4999984041973446e-01 7.8354360301257850e-16 9.0256513771685392e-15  1.4999994443566395e-01 7.3063950272165010e-15 1.2800459300432755e-16  1.5000012714225533e-01 2.4503693403181836e-14 1.3937173254126616e-14  1.5000036532879218e-01 5.4040886396442831e-14 7.1019516753015617e-14  1.5000061117493615e-01 7.7426495750827672e-14 1.5506049423583333e-13  1.5000077858609501e-01 4.8440911866933144e-14 1.9516496618144692e-13  1.5000073781292664e-01 3.6485652318104381e-17 1.1410676981337264e-13  1.5000039312813590e-01 1.2138234202714184e-13 2.9785412763888960e-15  1.4999982920906224e-01 3.4923229284167822e-13 9.0012581095986836e-14  1.4999935358294561e-01 2.5318031669505290e-13 2.4948158061604363e-13  1.4999928524607331e-01 1.2835988705068761e-14 1.5305365993854722e-13  1.4999962123491467e-01 6.4097935229588663e-14 8.1122443715895416e-15  1.4999999189159230e-01 1.0896441818428689e-13 1.2725133982860298e-14  1.5000008936265788e-01 3.7937238267485535e-14 8.2692328166459559e-15  1.5000001684283884e-01 1.8245307602308246e-15 1.1221701082179228e-17  1.4999996861990517e-01 9.9248060711553116e-15 3.3005561547391352e-15  1.4999985464847365e-01 3.6183530967803468e-14 2.2225237462070062e-14  1.4999970432618595e-01 2.1402729491297143e-15 3.8652513246050235e-14  1.4999991010152428e-01 5.6816135055234614e-14 1.3777379977796821e-15  1.5000036640689768e-01 4.6516928683855458e-14 9.7330660832691628e-14  1.5000026867191010e-01 2.3135126269583063e-14 8.3821160142781983e-15  1.4999964539047245e-01 7.4154129001896194e-14 1.1652968555502548e-13  1.4999963549928297e-01 4.4665199784421345e-15 3.0568887593831778e-14  1.5000031379212039e-01 6.8703903291561032e-14 1.0477865536438073e-13  1.5000036712897627e-01 1.8463919026941294e-16 3.6131018473239758e-14  1.4999971526614073e-01 4.9027225484024233e-14 8.6631993382542767e-14  1.4999969465359464e-01 2.7324239022522841e-17 2.3291805704706588e-14  1.5000026845378828e-01 3.0811998774927561e-14 6.9023614847143803e-14  1.5000020957348811e-01 2.8717427743222675e-18 7.5553784341607447e-15  1.4999974941290262e-01 1.8043503559676547e-14 5.0736186185755279e-14  1.4999989341169040e-01 1.3598264136921107e-16 2.8798341613189764e-16  1.5000021738678226e-01 9.7900553683512298e-15 3.1323771868345390e-14  1.5000001760827805e-01 6.6415642087891399e-16 1.4937983871039374e-15  1.4999983458031721e-01 4.5809473331647681e-15 1.4246456415965560e-14  1.5000004285760388e-01 1.2392551351092212e-15 4.7738378960077878e-15  1.5000010268592853e-01 1.5754218014359893e-15 3.7189958349514036e-15  1.4999993093442607e-01 1.3954368308024165e-15 5.2535276706319395e-15  1.4999995660618348e-01 2.5756795531936801e-16 1.7532368931295016e-16  1.5000006519874201e-01 1.0314488109800781e-15 3.0677270703020931e-15  1.5000000045917403e-01 1.1858939442485059e-18 2.4545648891494652e-16  1.4999995674707084e-01 4.7169346491361120e-16 8.7473732706826390e-16  1.5000002035326337e-01 1.0320792656228241e-16 6.0400353512817926e-16  1.5000001767143400e-01 9.9610402767681984e-17 4.5670033911059850e-17  1.4999997798740303e-01 1.3392448152175341e-16 3.6926140839663099e-16  1.5000000068080588e-01 5.3207358427680742e-19 3.7745443603041306e-17  1.5000001326361823e-01 6.2750630578859014e-17 7.2880290306569958e-17  1.4999999201383596e-01 1.5066826259577442e-17 7.6250474126295534e-17  1.4999999664834912e-01 8.0584028406818799e-18 1.0589901145922246e-23  1.5000000683747017e-01 1.7085268885005731e-17 2.7892158663445382e-17  1.4999999772991598e-01 5.6797113351545208e-19 1.1218080122156607e-17  1.4999999741229297e-01 4.3682919231301164e-18 9.1957792512277161e-19  1.5000000303962810e-01 3.3430672729152289e-18 6.8635389314963589e-18  1.4999999945073661e-01 2.3381207820604526e-21 1.5350680066935101e-18  1.4999999862087629e-01 1.3070501154487540e-18 4.2525986560704755e-19  1.5000000129806551e-01 6.1438434635120987e-19 1.4134182948754460e-18  1.4999999984271303e-01 1.2705781149189531e-20 2.5541188870935943e-19  1.4999999937809064e-01 3.0428871829010527e-19 8.8575813957266091e-20  1.5000000056478441e-01 1.2759315185173409e-19 2.6986732862714674e-19  1.4999999990922630e-01 1.9536165970581945e-21 5.9549816160126026e-20  1.4999999975474460e-01 6.0465722478013592e-20 9.1316090829633927e-21  1.5000000025203888e-01 3.1611431291580480e-20 4.7245633564099324e-20  1.4999999992584667e-01 5.2650081148421136e-23 1.7254039090554200e-20  1.4999999992295460e-01 9.4267266711882777e-21 5.9520387625505077e-23  1.5000000010875525e-01 8.1416434446357179e-21 6.4926230537535557e-21  1.4999999994558497e-01 6.4405690571831472e-22 4.7621565807529495e-21  1.4999999998913366e-01 8.4060698919843336e-22 3.5813181080674578e-22  1.5000000004062361e-01 1.7960629294228536e-21 4.4012729181887903e-22  1.4999999996721600e-01 5.8097389138899343e-22 9.8368308303716514e-22  1.5000000000897840e-01 2.1889106048612402e-24 3.8293490056273811e-22  1.5000000001022254e-01 2.8421956916086157e-22 4.2329658086120182e-24  1.4999999998336147e-01 3.3146341045556719e-22 8.9416657635848978e-23  1.5000000001278160e-01 1.1764378810977234e-22 1.4374389494192483e-22  1.4999999999490113e-01 3.8118427442651103e-24 7.1125031893316747e-23  1.4999999999870317e-01 1.5891154730818518e-23 9.7183400547419708e-24  1.5000000000440741e-01 3.5522650622356730e-23 9.7326708377051404e-25  1.4999999999536628e-01 2.6166240267748197e-23 8.4323772649051904e-24  1.5000000000332597e-01 9.8161873648483492e-24 9.1377608442042999e-24  1.4999999999829308e-01 1.5547168123098344e-24 4.8706039712201747e-24  1.5000000000046002e-01 6.0920218470498987e-30 1.4354376978106154e-24  1.5000000000023705e-01 3.2323653061512202e-25 1.6317866775686419e-25  1.4999999999951091e-01 4.5940229889430131e-25 4.2670056859384376e-27  1.5000000000046174e-01 3.0349501214313945e-25 5.9027653981684025e-26  1.4999999999964139e-01 1.3101456743206392e-25 7.7242916451807711e-26  1.5000000000022209e-01 4.7358343744861697e-26 4.6526325815241343e-26  1.4999999999992197e-01 9.5568776293872339e-27 9.6136923902796831e-27  1.5000000000012745e-01 0.0000000000000000e+00 1.7936752951066519e-26  1.5000000000673108e-01 0.0000000000000000e+00 7.1955419363574669e-23  1.4999999999578081e-01 8.7439715948461821e-24 1.3099732016136785e-23  1.5000000000455826e-01 2.9122029705993473e-29 3.0226492076702121e-29  1.5000000001174693e-01 1.8916076848022677e-22 1.4879025006470444e-22  1.5000000006152353e-01 4.0818363541777751e-21 3.5945037668186141e-21  1.5000000026778501e-01 4.9115815875462250e-20 7.2383191670362558e-20  1.5000000092503210e-01 5.1924297969737548e-19 9.3299097999065439e-19  1.5000000282683534e-01 4.1098155754100100e-18 9.1232702808440509e-18  1.5000000773117764e-01 2.4577368795698573e-17 7.0880685004519389e-17  1.5000001877762123e-01 1.1462530954029753e-16 4.3122535657998595e-16  1.5000004058632679e-01 4.1177232964112066e-16 2.0655765727412105e-15  1.5000007815208311e-01 1.0874660543376886e-15 7.7836341344814035e-15  1.5000013269588350e-01 1.9973183144959528e-15 2.2598542778235615e-14  1.5000019535396014e-01 2.2491355627743604e-15 4.8796792912849267e-14  1.5000024294193903e-01 9.3766724951178149e-16 7.3925669418214202e-14  1.5000023967251550e-01 1.7190831594060247e-16 6.8266283620969168e-14  1.5000014908043335e-01 6.5448663767366316e-15 2.2507766653672681e-14  1.4999995712277550e-01 2.6229958681649543e-14 4.8031082100470528e-15  1.4999968870247504e-01 6.0584989611177291e-14 1.2730965064858358e-13  1.4999939925143166e-01 9.8105819638955510e-14 4.1293535768638399e-13  1.4999916702192601e-01 9.2049843569561972e-14 7.0955136461725452e-13  1.4999911036814673e-01 1.6392258206622125e-14 7.0193285205215437e-13  1.4999936128941671e-01 5.3876948906753896e-14 2.5309213584306773e-13  1.4999992645873300e-01 3.7286414467360027e-13 1.9132899671904357e-14  1.5000055650892966e-01 4.9531293152263206e-13 5.9841561651603688e-13  1.5000085241899050e-01 1.3337796201558156e-13 9.2209348862150399e-13  1.5000062583556248e-01 2.1535839441080692e-14 3.2241690815277808e-13  1.5000015486305462e-01 1.6138287013920435e-13 3.6554108354037503e-17  1.4999990896470880e-01 9.3884862663882084e-14 4.1319862487641456e-14  1.4999997200625248e-01 1.3896245417332486e-14 4.0003168877364189e-15  1.5000005302840833e-01 1.2744280630026133e-15 3.7375075501241461e-15  1.5000010802072233e-01 3.8064582166902425e-14 2.5606294006555471e-14  1.5000029486314073e-01 3.2589852759755647e-14 1.4420778804296600e-13  1.5000028754430292e-01 2.3875637778008074e-14 8.3150178860720249e-14  1.4999976856355257e-01 1.3605507573705563e-13 1.3397561903366125e-13  1.4999948686812131e-01 5.4182543177052070e-16 3.4695395796151304e-13  1.5000012308170435e-01 1.4349010618947825e-13 6.3625620429781148e-14  1.5000062109149906e-01 1.8924066533377175e-14 5.4261044354384704e-13  1.4999996114546832e-01 1.0438279471088088e-13 2.2662280832006139e-14  1.4999937926378107e-01 3.2627559077214961e-14 5.5068188118601640e-13  1.5000002753537145e-01 6.4560015024969109e-14 1.5907287603305410e-14  1.5000055508036300e-01 2.8794463360880294e-14 4.3291903593909003e-13  1.4999992631012643e-01 3.9441095004532592e-14 2.7588431589519438e-14  1.4999955019992409e-01 1.7275951757827449e-14 2.7150317757920082e-13  1.5000014058824168e-01 2.5550805310803168e-14 5.2105831825090085e-14  1.5000032213165376e-01 7.2002118572852866e-15 1.2806113424784573e-13  1.4999980879445116e-01 1.7301124517743958e-14 7.2518445207912432e-14  1.4999981126672807e-01 1.6497926977240614e-15 3.7074564096745294e-14  1.5000020284157287e-01 1.1251878587788370e-14 6.9540554081450369e-14  1.5000006936543470e-01 1.8104694678741804e-17 2.5637524383211650e-15  1.4999982747777629e-01 6.2372803529453063e-15 4.4373254614411030e-14  1.5000001710917429e-01 4.3566106070159442e-16 2.1081742561073486e-15  1.5000011432862137e-01 2.5067091373233123e-15 1.6812176801182066e-14  1.4999993950882173e-01 1.0803722956040405e-15 7.6580442861125890e-15  1.4999994909925035e-01 5.1511725298764135e-16 2.4147243804251009e-15  1.5000006413819419e-01 1.0405587963658857e-15 6.6792617154543437e-15  1.5000000261889160e-01 2.4964911149150578e-18 5.4238090226607123e-17  1.4999995695587159e-01 5.1487604677007314e-16 2.4505613530495433e-15  1.5000002073473664e-01 9.8684265026354935e-17 9.4666016400175771e-16  1.5000001609827299e-01 1.0077312317545323e-16 2.1435433966568734e-16  1.4999997802691439e-01 1.4071136388749493e-16 7.5878143557616272e-16  1.5000000269511884e-01 1.4756968149183663e-21 4.8569072384106041e-17  1.5000001186928147e-01 5.7945568334886545e-17 1.6165420042092384e-16  1.4999999108786150e-01 2.0875832497909236e-17 1.4669019362878446e-16  1.4999999848124709e-01 3.9274490037606751e-18 4.4392858780352629e-21  1.5000000630348928e-01 1.7018285462325459e-17 5.1683466524156849e-17  1.4999999669577346e-01 2.2201518130629490e-18 2.3855547308627242e-17  1.4999999855767870e-01 2.3335815417319774e-18 7.2102920679024130e-19  1.5000000294196197e-01 3.9172032643888435e-18 1.1944451340539927e-17  1.4999999871759781e-01 2.4617982117033152e-19 4.0901644293606964e-18  1.4999999924972876e-01 6.8455085080169029e-19 2.3679283655853227e-19  1.5000000130324379e-01 8.5619804791889609e-19 2.3508932673632589e-18  1.4999999941949263e-01 5.1191205572983547e-20 8.4897639145574840e-19  1.4999999971836617e-01 1.3673061418082920e-19 1.8239124140826458e-20  1.5000000055832294e-01 1.9138809939655799e-19 4.0152829711093953e-19  1.4999999969486227e-01 2.2426156830265485e-20 2.0744779019850206e-19  1.4999999994486748e-01 1.6396596565281988e-20 1.1322886617202184e-21  1.5000000021955967e-01 4.0147381536350265e-20 5.1428991433956207e-20  1.4999999983573140e-01 1.1125776615621180e-20 4.9479321159017455e-20  1.5000000002602212e-01 4.0191284833127154e-22 5.8586295368509468e-21  1.5000000006812961e-01 6.4865322840412821e-21 2.8841571454832598e-21  1.4999999992087443e-01 4.2574475131424883e-21 9.0817835690324277e-21  1.5000000003