<?xml version="1.0"?>
<VTKFile type="UnstructuredGrid"  version="0.1"  >
<UnstructuredGrid>
<Piece  NumberOfPoints="10201" NumberOfCells="20000">
<Points>
<DataArray  type="Float64"  NumberOfComponents="3"  format="ascii">-5 -5 0  -4.9 -5 0  -4.8 -5 0  -4.7 -5 0  -4.6 -5 0  -4.5 -5 0  -4.4 -5 0  -4.3 -5 0  -4.2 -5 0  -4.1 -5 0  -4 -5 0  -3.9 -5 0  -3.8 -5 0  -3.7 -5 0  -3.6 -5 0  -3.5 -5 0  -3.4 -5 0  -3.3 -5 0  -3.2 -5 0  -3.1 -5 0  -3 -5 0  -2.9 -5 0  -2.8 -5 0  -2.7 -5 0  -2.6 -5 0  -2.5 -5 0  -2.4 -5 0  -2.3 -5 0  -2.2 -5 0  -2.1 -5 0  -2 -5 0  -1.9 -5 0  -1.8 -5 0  -1.7 -5 0  -1.6 -5 0  -1.5 -5 0  -1.4 -5 0  -1.3 -5 0  -1.2 -5 0  -1.1 -5 0  -1 -5 0  -0.9000000000000004 -5 0  -0.7999999999999998 -5 0  -0.7000000000000002 -5 0  -0.5999999999999996 -5 0  -0.5 -5 0  -0.4000000000000004 -5 0  -0.2999999999999998 -5 0  -0.2000000000000002 -5 0  -0.09999999999999964 -5 0  0 -5 0  0.09999999999999964 -5 0  0.2000000000000002 -5 0  0.2999999999999998 -5 0  0.4000000000000004 -5 0  0.5 -5 0  0.5999999999999996 -5 0  0.7000000000000002 -5 0  0.7999999999999998 -5 0  0.9000000000000004 -5 0  1 -5 0  1.1 -5 0  1.2 -5 0  1.3 -5 0  1.4 -5 0  1.5 -5 0  1.6 -5 0  1.7 -5 0  1.8 -5 0  1.9 -5 0  2 -5 0  2.1 -5 0  2.2 -5 0  2.3 -5 0  2.4 -5 0  2.5 -5 0  2.6 -5 0  2.7 -5 0  2.8 -5 0  2.9 -5 0  3 -5 0  3.1 -5 0  3.199999999999999 -5 0  3.300000000000001 -5 0  3.4 -5 0  3.5 -5 0  3.6 -5 0  3.699999999999999 -5 0  3.800000000000001 -5 0  3.9 -5 0  4 -5 0  4.1 -5 0  4.199999999999999 -5 0  4.300000000000001 -5 0  4.4 -5 0  4.5 -5 0  4.6 -5 0  4.699999999999999 -5 0  4.800000000000001 -5 0  4.9 -5 0  5 -5 0  -5 -4.9 0  -4.9 -4.9 0  -4.8 -4.9 0  -4.7 -4.9 0  -4.6 -4.9 0  -4.5 -4.9 0  -4.4 -4.9 0  -4.3 -4.9 0  -4.2 -4.9 0  -4.1 -4.9 0  -4 -4.9 0  -3.9 -4.9 0  -3.8 -4.9 0  -3.7 -4.9 0  -3.6 -4.9 0  -3.5 -4.9 0  -3.4 -4.9 0  -3.3 -4.9 0  -3.2 -4.9 0  -3.1 -4.9 0  -3 -4.9 0  -2.9 -4.9 0  -2.8 -4.9 0  -2.7 -4.9 0  -2.6 -4.9 0  -2.5 -4.9 0  -2.4 -4.9 0  -2.3 -4.9 0  -2.2 -4.9 0  -2.1 -4.9 0  -2 -4.9 0  -1.9 -4.9 0  -1.8 -4.9 0  -1.7 -4.9 0  -1.6 -4.9 0  -1.5 -4.9 0  -1.4 -4.9 0  -1.3 -4.9 0  -1.2 -4.9 0  -1.1 -4.9 0  -1 -4.9 0  -0.9000000000000004 -4.9 0  -0.7999999999999998 -4.9 0  -0.7000000000000002 -4.9 0  -0.5999999999999996 -4.9 0  -0.5 -4.9 0  -0.4000000000000004 -4.9 0  -0.2999999999999998 -4.9 0  -0.2000000000000002 -4.9 0  -0.09999999999999964 -4.9 0  0 -4.9 0  0.09999999999999964 -4.9 0  0.2000000000000002 -4.9 0  0.2999999999999998 -4.9 0  0.4000000000000004 -4.9 0  0.5 -4.9 0  0.5999999999999996 -4.9 0  0.7000000000000002 -4.9 0  0.7999999999999998 -4.9 0  0.9000000000000004 -4.9 0  1 -4.9 0  1.1 -4.9 0  1.2 -4.9 0  1.3 -4.9 0  1.4 -4.9 0  1.5 -4.9 0  1.6 -4.9 0  1.7 -4.9 0  1.8 -4.9 0  1.9 -4.9 0  2 -4.9 0  2.1 -4.9 0  2.2 -4.9 0  2.3 -4.9 0  2.4 -4.9 0  2.5 -4.9 0  2.6 -4.9 0  2.7 -4.9 0  2.8 -4.9 0  2.9 -4.9 0  3 -4.9 0  3.1 -4.9 0  3.199999999999999 -4.9 0  3.300000000000001 -4.9 0  3.4 -4.9 0  3.5 -4.9 0  3.6 -4.9 0  3.699999999999999 -4.9 0  3.800000000000001 -4.9 0  3.9 -4.9 0  4 -4.9 0  4.1 -4.9 0  4.199999999999999 -4.9 0  4.300000000000001 -4.9 0  4.4 -4.9 0  4.5 -4.9 0  4.6 -4.9 0  4.699999999999999 -4.9 0  4.800000000000001 -4.9 0  4.9 -4.9 0  5 -4.9 0  -5 -4.8 0  -4.9 -4.8 0  -4.8 -4.8 0  -4.7 -4.8 0  -4.6 -4.8 0  -4.5 -4.8 0  -4.4 -4.8 0  -4.3 -4.8 0  -4.2 -4.8 0  -4.1 -4.8 0  -4 -4.8 0  -3.9 -4.8 0  -3.8 -4.8 0  -3.7 -4.8 0  -3.6 -4.8 0  -3.5 -4.8 0  -3.4 -4.8 0  -3.3 -4.8 0  -3.2 -4.8 0  -3.1 -4.8 0  -3 -4.8 0  -2.9 -4.8 0  -2.8 -4.8 0  -2.7 -4.8 0  -2.6 -4.8 0  -2.5 -4.8 0  -2.4 -4.8 0  -2.3 -4.8 0  -2.2 -4.8 0  -2.1 -4.8 0  -2 -4.8 0  -1.9 -4.8 0  -1.8 -4.8 0  -1.7 -4.8 0  -1.6 -4.8 0  -1.5 -4.8 0  -1.4 -4.8 0  -1.3 -4.8 0  -1.2 -4.8 0  -1.1 -4.8 0  -1 -4.8 0  -0.9000000000000004 -4.8 0  -0.7999999999999998 -4.8 0  -0.7000000000000002 -4.8 0  -0.5999999999999996 -4.8 0  -0.5 -4.8 0  -0.4000000000000004 -4.8 0  -0.2999999999999998 -4.8 0  -0.2000000000000002 -4.8 0  -0.09999999999999964 -4.8 0  0 -4.8 0  0.09999999999999964 -4.8 0  0.2000000000000002 -4.8 0  0.2999999999999998 -4.8 0  0.4000000000000004 -4.8 0  0.5 -4.8 0  0.5999999999999996 -4.8 0  0.7000000000000002 -4.8 0  0.7999999999999998 -4.8 0  0.9000000000000004 -4.8 0  1 -4.8 0  1.1 -4.8 0  1.2 -4.8 0  1.3 -4.8 0  1.4 -4.8 0  1.5 -4.8 0  1.6 -4.8 0  1.7 -4.8 0  1.8 -4.8 0  1.9 -4.8 0  2 -4.8 0  2.1 -4.8 0  2.2 -4.8 0  2.3 -4.8 0  2.4 -4.8 0  2.5 -4.8 0  2.6 -4.8 0  2.7 -4.8 0  2.8 -4.8 0  2.9 -4.8 0  3 -4.8 0  3.1 -4.8 0  3.199999999999999 -4.8 0  3.300000000000001 -4.8 0  3.4 -4.8 0  3.5 -4.8 0  3.6 -4.8 0  3.699999999999999 -4.8 0  3.800000000000001 -4.8 0  3.9 -4.8 0  4 -4.8 0  4.1 -4.8 0  4.199999999999999 -4.8 0  4.300000000000001 -4.8 0  4.4 -4.8 0  4.5 -4.8 0  4.6 -4.8 0  4.699999999999999 -4.8 0  4.800000000000001 -4.8 0  4.9 -4.8 0  5 -4.8 0  -5 -4.7 0  -4.9 -4.7 0  -4.8 -4.7 0  -4.7 -4.7 0  -4.6 -4.7 0  -4.5 -4.7 0  -4.4 -4.7 0  -4.3 -4.7 0  -4.2 -4.7 0  -4.1 -4.7 0  -4 -4.7 0  -3.9 -4.7 0  -3.8 -4.7 0  -3.7 -4.7 0  -3.6 -4.7 0  -3.5 -4.7 0  -3.4 -4.7 0  -3.3 -4.7 0  -3.2 -4.7 0  -3.1 -4.7 0  -3 -4.7 0  -2.9 -4.7 0  -2.8 -4.7 0  -2.7 -4.7 0  -2.6 -4.7 0  -2.5 -4.7 0  -2.4 -4.7 0  -2.3 -4.7 0  -2.2 -4.7 0  -2.1 -4.7 0  -2 -4.7 0  -1.9 -4.7 0  -1.8 -4.7 0  -1.7 -4.7 0  -1.6 -4.7 0  -1.5 -4.7 0  -1.4 -4.7 0  -1.3 -4.7 0  -1.2 -4.7 0  -1.1 -4.7 0  -1 -4.7 0  -0.9000000000000004 -4.7 0  -0.7999999999999998 -4.7 0  -0.7000000000000002 -4.7 0  -0.5999999999999996 -4.7 0  -0.5 -4.7 0  -0.4000000000000004 -4.7 0  -0.2999999999999998 -4.7 0  -0.2000000000000002 -4.7 0  -0.09999999999999964 -4.7 0  0 -4.7 0  0.09999999999999964 -4.7 0  0.2000000000000002 -4.7 0  0.2999999999999998 -4.7 0  0.4000000000000004 -4.7 0  0.5 -4.7 0  0.5999999999999996 -4.7 0  0.7000000000000002 -4.7 0  0.7999999999999998 -4.7 0  0.9000000000000004 -4.7 0  1 -4.7 0  1.1 -4.7 0  1.2 -4.7 0  1.3 -4.7 0  1.4 -4.7 0  1.5 -4.7 0  1.6 -4.7 0  1.7 -4.7 0  1.8 -4.7 0  1.9 -4.7 0  2 -4.7 0  2.1 -4.7 0  2.2 -4.7 0  2.3 -4.7 0  2.4 -4.7 0  2.5 -4.7 0  2.6 -4.7 0  2.7 -4.7 0  2.8 -4.7 0  2.9 -4.7 0  3 -4.7 0  3.1 -4.7 0  3.199999999999999 -4.7 0  3.300000000000001 -4.7 0  3.4 -4.7 0  3.5 -4.7 0  3.6 -4.7 0  3.699999999999999 -4.7 0  3.800000000000001 -4.7 0  3.9 -4.7 0  4 -4.7 0  4.1 -4.7 0  4.199999999999999 -4.7 0  4.300000000000001 -4.7 0  4.4 -4.7 0  4.5 -4.7 0  4.6 -4.7 0  4.699999999999999 -4.7 0  4.800000000000001 -4.7 0  4.9 -4.7 0  5 -4.7 0  -5 -4.6 0  -4.9 -4.6 0  -4.8 -4.6 0  -4.7 -4.6 0  -4.6 -4.6 0  -4.5 -4.6 0  -4.4 -4.6 0  -4.3 -4.6 0  -4.2 -4.6 0  -4.1 -4.6 0  -4 -4.6 0  -3.9 -4.6 0  -3.8 -4.6 0  -3.7 -4.6 0  -3.6 -4.6 0  -3.5 -4.6 0  -3.4 -4.6 0  -3.3 -4.6 0  -3.2 -4.6 0  -3.1 -4.6 0  -3 -4.6 0  -2.9 -4.6 0  -2.8 -4.6 0  -2.7 -4.6 0  -2.6 -4.6 0  -2.5 -4.6 0  -2.4 -4.6 0  -2.3 -4.6 0  -2.2 -4.6 0  -2.1 -4.6 0  -2 -4.6 0  -1.9 -4.6 0  -1.8 -4.6 0  -1.7 -4.6 0  -1.6 -4.6 0  -1.5 -4.6 0  -1.4 -4.6 0  -1.3 -4.6 0  -1.2 -4.6 0  -1.1 -4.6 0  -1 -4.6 0  -0.9000000000000004 -4.6 0  -0.7999999999999998 -4.6 0  -0.7000000000000002 -4.6 0  -0.5999999999999996 -4.6 0  -0.5 -4.6 0  -0.4000000000000004 -4.6 0  -0.2999999999999998 -4.6 0  -0.2000000000000002 -4.6 0  -0.09999999999999964 -4.6 0  0 -4.6 0  0.09999999999999964 -4.6 0  0.2000000000000002 -4.6 0  0.2999999999999998 -4.6 0  0.4000000000000004 -4.6 0  0.5 -4.6 0  0.5999999999999996 -4.6 0  0.7000000000000002 -4.6 0  0.7999999999999998 -4.6 0  0.9000000000000004 -4.6 0  1 -4.6 0  1.1 -4.6 0  1.2 -4.6 0  1.3 -4.6 0  1.4 -4.6 0  1.5 -4.6 0  1.6 -4.6 0  1.7 -4.6 0  1.8 -4.6 0  1.9 -4.6 0  2 -4.6 0  2.1 -4.6 0  2.2 -4.6 0  2.3 -4.6 0  2.4 -4.6 0  2.5 -4.6 0  2.6 -4.6 0  2.7 -4.6 0  2.8 -4.6 0  2.9 -4.6 0  3 -4.6 0  3.1 -4.6 0  3.199999999999999 -4.6 0  3.300000000000001 -4.6 0  3.4 -4.6 0  3.5 -4.6 0  3.6 -4.6 0  3.699999999999999 -4.6 0  3.800000000000001 -4.6 0  3.9 -4.6 0  4 -4.6 0  4.1 -4.6 0  4.199999999999999 -4.6 0  4.300000000000001 -4.6 0  4.4 -4.6 0  4.5 -4.6 0  4.6 -4.6 0  4.699999999999999 -4.6 0  4.800000000000001 -4.6 0  4.9 -4.6 0  5 -4.6 0  -5 -4.5 0  -4.9 -4.5 0  -4.8 -4.5 0  -4.7 -4.5 0  -4.6 -4.5 0  -4.5 -4.5 0  -4.4 -4.5 0  -4.3 -4.5 0  -4.2 -4.5 0  -4.1 -4.5 0  -4 -4.5 0  -3.9 -4.5 0  -3.8 -4.5 0  -3.7 -4.5 0  -3.6 -4.5 0  -3.5 -4.5 0  -3.4 -4.5 0  -3.3 -4.5 0  -3.2 -4.5 0  -3.1 -4.5 0  -3 -4.5 0  -2.9 -4.5 0  -2.8 -4.5 0  -2.7 -4.5 0  -2.6 -4.5 0  -2.5 -4.5 0  -2.4 -4.5 0  -2.3 -4.5 0  -2.2 -4.5 0  -2.1 -4.5 0  -2 -4.5 0  -1.9 -4.5 0  -1.8 -4.5 0  -1.7 -4.5 0  -1.6 -4.5 0  -1.5 -4.5 0  -1.4 -4.5 0  -1.3 -4.5 0  -1.2 -4.5 0  -1.1 -4.5 0  -1 -4.5 0  -0.9000000000000004 -4.5 0  -0.7999999999999998 -4.5 0  -0.7000000000000002 -4.5 0  -0.5999999999999996 -4.5 0  -0.5 -4.5 0  -0.4000000000000004 -4.5 0  -0.2999999999999998 -4.5 0  -0.2000000000000002 -4.5 0  -0.09999999999999964 -4.5 0  0 -4.5 0  0.09999999999999964 -4.5 0  0.2000000000000002 -4.5 0  0.2999999999999998 -4.5 0  0.4000000000000004 -4.5 0  0.5 -4.5 0  0.5999999999999996 -4.5 0  0.7000000000000002 -4.5 0  0.7999999999999998 -4.5 0  0.9000000000000004 -4.5 0  1 -4.5 0  1.1 -4.5 0  1.2 -4.5 0  1.3 -4.5 0  1.4 -4.5 0  1.5 -4.5 0  1.6 -4.5 0  1.7 -4.5 0  1.8 -4.5 0  1.9 -4.5 0  2 -4.5 0  2.1 -4.5 0  2.2 -4.5 0  2.3 -4.5 0  2.4 -4.5 0  2.5 -4.5 0  2.6 -4.5 0  2.7 -4.5 0  2.8 -4.5 0  2.9 -4.5 0  3 -4.5 0  3.1 -4.5 0  3.199999999999999 -4.5 0  3.300000000000001 -4.5 0  3.4 -4.5 0  3.5 -4.5 0  3.6 -4.5 0  3.699999999999999 -4.5 0  3.800000000000001 -4.5 0  3.9 -4.5 0  4 -4.5 0  4.1 -4.5 0  4.199999999999999 -4.5 0  4.300000000000001 -4.5 0  4.4 -4.5 0  4.5 -4.5 0  4.6 -4.5 0  4.699999999999999 -4.5 0  4.800000000000001 -4.5 0  4.9 -4.5 0  5 -4.5 0  -5 -4.4 0  -4.9 -4.4 0  -4.8 -4.4 0  -4.7 -4.4 0  -4.6 -4.4 0  -4.5 -4.4 0  -4.4 -4.4 0  -4.3 -4.4 0  -4.2 -4.4 0  -4.1 -4.4 0  -4 -4.4 0  -3.9 -4.4 0  -3.8 -4.4 0  -3.7 -4.4 0  -3.6 -4.4 0  -3.5 -4.4 0  -3.4 -4.4 0  -3.3 -4.4 0  -3.2 -4.4 0  -3.1 -4.4 0  -3 -4.4 0  -2.9 -4.4 0  -2.8 -4.4 0  -2.7 -4.4 0  -2.6 -4.4 0  -2.5 -4.4 0  -2.4 -4.4 0  -2.3 -4.4 0  -2.2 -4.4 0  -2.1 -4.4 0  -2 -4.4 0  -1.9 -4.4 0  -1.8 -4.
[...]
<PointData  Vectors="f_23"> 
<DataArray  type="Float64"  Name="f_23"  NumberOfComponents="3" format="ascii">1.5000000672320640e-01 0.0000000000000000e+00 0.0000000000000000e+00  1.5000000401200100e-01 6.7586692331425327e-17 0.0000000000000000e+00  1.5000002340151097e-01 1.2457401989973264e-16 0.0000000000000000e+00  1.5000005203057251e-01 1.7182536945110192e-15 0.0000000000000000e+00  1.5000013848722618e-01 7.7876920168916906e-15 0.0000000000000000e+00  1.5000031046039378e-01 4.1982638524655749e-14 0.0000000000000000e+00  1.5000066657719272e-01 1.6090230954753259e-13 0.0000000000000000e+00  1.5000129392871675e-01 5.3400026607297808e-13 0.0000000000000000e+00  1.5000231230243516e-01 1.3333228605451719e-12 0.0000000000000000e+00  1.5000371273125762e-01 2.5451761987802165e-12 0.0000000000000000e+00  1.5000532994563520e-01 3.2221155996025957e-12 0.0000000000000000e+00  1.5000668804965797e-01 2.0562603107354886e-12 0.0000000000000000e+00  1.5000708407463656e-01 5.7407914029133115e-14 0.0000000000000000e+00  1.5000583956764557e-01 2.9010362944857739e-12 0.0000000000000000e+00  1.5000284507805456e-01 1.4692858054263548e-11 0.0000000000000000e+00  1.4999885238265581e-01 2.6472928979748161e-11 0.0000000000000000e+00  1.4999538711609439e-01 2.2250985763919753e-11 0.0000000000000000e+00  1.4999410553126388e-01 5.9116954835585593e-12 0.0000000000000000e+00  1.4999571490985039e-01 6.9595644777703598e-13 0.0000000000000000e+00  1.4999927765461268e-01 1.4676362320799339e-11 0.0000000000000000e+00  1.5000288234814657e-01 2.9812011768203587e-11 0.0000000000000000e+00  1.5000480185565565e-01 2.3926607800630323e-11 0.0000000000000000e+00  1.5000399842774331e-01 4.4753865556532597e-12 0.0000000000000000e+00  1.5000093979687182e-01 1.7983363527687449e-12 0.0000000000000000e+00  1.4999833490268139e-01 9.2590911658993235e-12 0.0000000000000000e+00  1.4999890635140553e-01 2.9712828852118967e-12 0.0000000000000000e+00  1.5000199978151205e-01 1.2071759062577542e-12 0.0000000000000000e+00  1.5000453535094282e-01 5.0482455078128605e-12 0.0000000000000000e+00  1.5000468548103382e-01 3.9969019056165848e-13 0.0000000000000000e+00  1.5000275629222540e-01 1.7674421575958073e-12 0.0000000000000000e+00  1.5000018517037644e-01 3.3914736879895730e-12 0.0000000000000000e+00  1.4999868519070134e-01 4.3278897874598889e-12 0.0000000000000000e+00  1.4999891716495187e-01 2.8473332747875584e-12 0.0000000000000000e+00  1.5000070870257134e-01 2.1824753079636530e-12 0.0000000000000000e+00  1.5000319241939533e-01 1.4398579921028002e-11 0.0000000000000000e+00  1.5000249353386089e-01 2.2588270416146436e-13 0.0000000000000000e+00  1.4999686053225147e-01 2.9791618027803813e-11 0.0000000000000000e+00  1.4999508582024240e-01 1.1078309699577048e-12 0.0000000000000000e+00  1.5000285108162928e-01 3.4689916435003655e-11 0.0000000000000000e+00  1.5000641332240064e-01 3.6547262932213732e-12 0.0000000000000000e+00  1.4999717103008972e-01 3.2431924145719565e-11 0.0000000000000000e+00  1.4999333719219390e-01 3.8905709605685472e-12 0.0000000000000000e+00  1.5000340083583680e-01 2.6968895599814040e-11 0.0000000000000000e+00  1.5000577467464365e-01 1.8497138369412003e-12 0.0000000000000000e+00  1.4999573667435198e-01 2.0823709225532785e-11 0.0000000000000000e+00  1.4999601738115032e-01 1.4910688164496766e-13 0.0000000000000000e+00  1.5000485299336846e-01 1.4484506977655715e-11 0.0000000000000000e+00  1.5000170261174359e-01 3.9850095633672175e-13 0.0000000000000000e+00  1.4999531650961409e-01 8.2897188993234993e-12 0.0000000000000000e+00  1.5000049378191499e-01 2.0333359478466130e-12 0.0000000000000000e+00  1.5000362174609891e-01 3.2602887175159470e-12 0.0000000000000000e+00  1.4999797359118980e-01 3.2918388418753306e-12 0.0000000000000000e+00  1.4999803841778206e-01 5.0965995115434301e-13 0.0000000000000000e+00  1.5000254382580933e-01 2.9913155508001047e-12 0.0000000000000000e+00  1.5000027715658726e-01 3.8175283100270638e-14 0.0000000000000000e+00  1.4999790809451138e-01 1.5618773186743009e-12 0.0000000000000000e+00  1.5000087420341307e-01 5.4506991859651011e-13 0.0000000000000000e+00  1.5000108803646520e-01 3.3925031498247001e-13 0.0000000000000000e+00  1.4999876940251469e-01 7.1362349981313700e-13 0.0000000000000000e+00  1.4999990614037792e-01 2.1516842861379103e-16 0.0000000000000000e+00  1.5000092393187084e-01 3.6555675032101393e-13 0.0000000000000000e+00  1.4999952243431730e-01 1.2171598394870135e-13 0.0000000000000000e+00  1.4999965289714859e-01 5.1044094084679255e-14 0.0000000000000000e+00  1.5000053822715920e-01 1.4302711713919437e-13 0.0000000000000000e+00  1.4999989198413236e-01 5.7491028555414613e-15 0.0000000000000000e+00  1.4999971356953684e-01 4.4335236581821833e-14 0.0000000000000000e+00  1.5000026075117520e-01 3.5278046357841696e-14 0.0000000000000000e+00  1.5000000874956532e-01 2.5197499963375034e-16 0.0000000000000000e+00  1.4999982651126095e-01 1.8327283608377371e-14 0.0000000000000000e+00  1.5000011742613989e-01 7.1049840551101595e-15 0.0000000000000000e+00  1.5000002447716443e-01 7.7911708547884287e-16 0.0000000000000000e+00  1.4999990828074336e-01 5.6443150130641703e-15 0.0000000000000000e+00  1.5000005410492401e-01 1.4847565398196241e-15 0.0000000000000000e+00  1.5000001497707810e-01 3.3976667102516479e-16 0.0000000000000000e+00  1.4999995486177300e-01 1.5303768122886058e-15 0.0000000000000000e+00  1.5000002730309861e-01 4.0217485172797625e-16 0.0000000000000000e+00  1.5000000480086520e-01 6.0131511410127907e-17 0.0000000000000000e+00  1.4999997979097271e-01 3.4510754881557347e-16 0.0000000000000000e+00  1.5000001393113463e-01 1.1002276571980070e-16 0.0000000000000000e+00  1.5000000052450391e-01 9.4267440977041742e-18 0.0000000000000000e+00  1.4999999060618388e-01 1.0081214862538967e-16 0.0000000000000000e+00  1.5000000881986089e-01 6.5938181099501202e-17 0.0000000000000000e+00  1.4999999681479464e-01 5.0867198096488384e-18 0.0000000000000000e+00  1.4999999839030734e-01 3.8481049788364630e-18 0.0000000000000000e+00  1.5000000280042258e-01 5.7450136912255767e-18 0.0000000000000000e+00  1.4999999884816129e-01 8.5918671233306006e-20 0.0000000000000000e+00  1.4999999887876178e-01 3.9762776553066837e-18 0.0000000000000000e+00  1.5000000236928832e-01 8.6706645142586416e-18 0.0000000000000000e+00  1.4999999776785336e-01 5.8865777147148977e-18 0.0000000000000000e+00  1.5000000126635435e-01 1.3831681801555730e-18 0.0000000000000000e+00  1.4999999976743708e-01 6.9874484278954376e-22 0.0000000000000000e+00  1.4999999961040272e-01 3.2088361869148667e-19 0.0000000000000000e+00  1.5000000050933507e-01 3.3774204861936160e-19 0.0000000000000000e+00  1.4999999970793312e-01 6.2399238700645506e-20 0.0000000000000000e+00  1.4999999996725305e-01 2.3204400693669195e-20 0.0000000000000000e+00  1.5000000030368757e-01 2.0408877633142508e-19 0.0000000000000000e+00  1.4999999957041285e-01 3.3285102988990996e-19 0.0000000000000000e+00  1.5000000044756329e-01 2.8153471318281908e-19 0.0000000000000000e+00  1.4999999956156115e-01 1.9505100324679533e-19 0.0000000000000000e+00  1.5000000023260038e-01 5.1053531402687444e-20 0.0000000000000000e+00  1.4999999950005219e-01 0.0000000000000000e+00 0.0000000000000000e+00  1.5000000401200103e-01 0.0000000000000000e+00 6.7586703688744859e-17  1.4999999037437164e-01 4.4048027078377780e-21 4.4049242398177139e-21  1.4999998884513296e-01 2.0708450853243833e-16 1.8625413082408390e-16  1.4999995585249928e-01 5.3106294375476823e-16 6.8702888828063244e-16  1.4999990208987604e-01 5.4047181953066534e-15 5.2303759349672776e-15  1.4999975576211563e-01 2.2874144728774556e-14 2.5082779921137623e-14  1.4999948057471532e-01 1.0908802686600531e-13 1.1873164611583607e-13  1.4999894448985657e-01 3.6962086083169680e-13 4.4772742391417785e-13  1.4999806537814755e-01 1.0653496024309571e-12 1.4684410965948853e-12  1.4999675082276429e-01 2.2560116003633047e-12 3.8790301034170721e-12  1.4999512718327015e-01 3.4998632322438188e-12 8.2764666716003841e-12  1.4999351173201250e-01 3.1711798987169917e-12 1.3501508572578112e-11  1.4999256649975376e-01 8.5832474218116769e-13 1.5994501691676681e-11  1.4999302305131493e-01 6.5450789708486033e-13 1.1932807368851848e-11  1.4999530874517988e-01 9.1784813671573527e-12 3.8816893193017327e-12  1.4999901890503861e-01 2.3750553933028490e-11 8.3946903639072804e-16  1.5000292140422811e-01 2.7617210414109180e-11 2.7663148504138497e-12  1.5000532466477412e-01 1.3328106619293089e-11 4.2817554495341938e-12  1.5000501782539122e-01 3.7696591109005709e-13 9.5847563893958434e-13  1.5000225578156565e-01 6.7291879966792515e-12 8.0291597320246138e-13  1.4999870104513829e-01 2.3159327934828702e-11 5.3993583220497844e-12  1.4999616645217714e-01 2.6828831510850280e-11 6.0999553113889534e-12  1.4999583240318509e-01 1.1104355803514815e-11 1.5802645351864594e-12  1.4999793855715821e-01 2.3397817845598693e-14 5.2692046530208029e-13  1.5000082421661418e-01 5.1539263415836929e-12 4.3270476561853881e-12  1.5000151006744397e-01 4.9232783020635327e-12 1.8591760528008322e-12  1.4999914299727235e-01 1.6869805431565779e-17 9.5015678837788705e-13  1.4999620612702777e-01 3.8994203144834112e-12 7.1399978403338116e-12  1.4999515741494637e-01 2.0677507543176784e-12 5.8672351126621972e-12  1.4999631242933131e-01 5.5756293806211495e-13 9.8324741082465532e-13  1.4999878103408532e-01 3.6135297846721483e-12 1.9190579499196432e-13  1.5000086096785034e-01 3.5129266899378186e-12 1.3602040422599683e-12  1.5000108821697186e-01 3.2575085094233977e-12 5.1944864936543322e-13  1.4999980497855978e-01 1.1352566119486383e-14 6.2019493643259251e-13  1.4999790174704275e-01 8.8413263195038672e-12 4.5917458034516043e-12  1.4999707430268269e-01 3.0878697328897554e-12 1.6051376294531151e-12  1.5000040955742272e-01 1.4064781905448815e-11 3.9588689861648387e-12  1.5000474836526603e-01 1.2830189839615818e-11 8.6032877221037193e-12  1.5000113577037083e-01 1.2077739775079926e-11 2.1469007172381544e-12  1.4999401184335137e-01 1.9216698183061774e-11 1.6333796223391046e-11  1.4999801292314524e-01 9.2652354267645208e-12 1.1907732434332921e-12  1.5000657547989107e-01 1.8650592953784067e-11 1.9456961536062086e-11  1.5000163749096074e-01 7.3976728443384212e-12 1.5832084703416968e-12  1.4999338638328591e-01 1.3142284736378064e-11 1.6936731222173806e-11  1.4999970243034139e-01 6.6571425795813224e-12 3.4921992687377920e-12  1.5000597960537526e-01 6.8652837403828583e-12 1.0405811489528897e-11  1.4999854257709025e-01 6.2998309487521015e-12 6.5086461211237669e-12  1.4999540745512405e-01 2.3557324822542915e-12 3.5695642616339557e-12  1.5000291857805734e-01 5.5662382410843660e-12 8.2790279648776969e-12  1.5000262258448704e-01 2.7420780852405228e-13 1.5257573891837401e-13  1.4999647291180507e-01 4.1022336105603508e-12 6.6947292859534607e-12  1.4999946282500820e-01 8.7927556057988807e-14 7.7001429034999084e-13  1.5000310031861855e-01 2.2201787521425913e-12 2.9610392135275999e-12  1.4999892212701682e-01 6.8434962665532310e-13 2.4542452954570648e-12  1.4999809595632180e-01 6.8378141428912860e-13 3.5755946691915531e-13  1.5000180885910466e-01 1.0174340037694466e-12 2.3999001495513870e-12  1.5000050745946217e-01 3.2779631215557369e-14 1.2203371461017448e-13  1.4999837134065996e-01 7.3893149779269743e-13 9.8896995420528076e-13  1.5000051748760579e-01 8.2147416496257332e-14 6.5458080789999397e-13  1.5000089114523049e-01 2.4677349446177919e-13 7.5500999419086304e-14  1.4999911894103751e-01 2.2595042777879066e-13 5.5262614576153728e-13  1.4999989227490887e-01 1.0238853536032562e-14 6.0341385362762807e-14  1.5000067479208187e-01 1.5983044300498279e-13 1.3734242642017607e-13  1.4999965703332024e-01 2.6459361843292532e-14 1.6034079773160427e-13  1.4999976217092509e-01 3.3297871664432946e-14 1.5350188259576360e-17  1.5000038210535313e-01 5.1503580280582054e-14 7.0906690552761665e-14  1.4999990339165908e-01 4.2099008514192278e-16 3.2828143464724028e-14  1.4999981692023165e-01 1.9777544734852786e-14 2.5321828136656279e-15  1.5000018889791591e-01 1.1917351784845438e-14 2.3397324822018697e-14  1.4999998312489893e-01 3.1528820592507792e-16 5.9987987517710438e-15  1.4999989282232687e-01 7.1857736709142229e-15 1.6546794334267205e-15  1.5000008964364497e-01 2.5282023179021801e-15 6.3214588023516939e-15  1.4999999920191792e-01 3.1053134147851712e-16 1.2548687960153758e-15  1.4999994506514577e-01 2.1394874572841969e-15 4.7615332748594807e-16  1.5000004392279720e-01 6.4578176951568959e-16 1.5539557501686390e-15  1.4999999789967394e-01 7.2500050226279116e-17 3.5474947926544609e-16  1.4999997557981135e-01 5.0092301575594717e-16 6.8781346751898117e-17  1.5000002105536267e-01 1.5842505018050259e-16 3.3555340160900767e-16  1.4999999740885939e-01 1.7184361719542571e-17 1.1220278132234887e-16  1.4999998893152178e-01 1.5449407874641687e-16 4.0804389102624819e-18  1.5000001210646691e-01 9.0227074223827415e-17 7.3530260045656421e-17  1.4999999487340968e-01 3.7503206046666319e-18 5.0107429063389616e-17  1.4999999830239841e-01 9.6571899935454445e-18 3.6465719463008308e-18  1.5000000389615598e-01 1.0383140921415952e-17 4.0201772532992269e-18  1.4999999797036240e-01 1.1838318024194316e-19 7.2258974193543274e-18  1.4999999902806369e-01 5.8602019641542479e-18 1.1018120481145680e-18  1.5000000274976111e-01 1.0966946021283899e-17 9.5749477534817027e-19  1.4999999729858032e-01 5.8957724530725500e-18 4.2382084193227261e-18  1.5000000153459903e-01 7.4818652271503622e-19 3.7971846471117613e-18  1.4999999973176256e-01 1.1929697961098087e-19 1.3025181903137292e-18  1.4999999953938725e-01 5.8869894354515102e-19 7.4706080107085036e-20  1.5000000054945309e-01 2.7507065678070310e-19 6.7220778974109031e-20  1.4999999976721165e-01 8.0420147947672835e-23 1.4420589891407860e-19  1.4999999981818427e-01 2.4300232338924421e-19 4.8470052169601022e-20  1.5000000048583514e-01 5.6648403156232640e-19 1.2499151601017503e-21  1.4999999938991188e-01 6.1306730267631053e-19 6.2208353409553734e-20  1.5000000056587082e-01 4.2182349212656359e-19 1.2121406598734043e-19  1.4999999954616910e-01 1.9915538409230120e-19 1.3024513138628666e-19  1.5000000033016078e-01 9.0973494911847892e-20 1.0009453669389543e-19  1.4999999990326107e-01 1.6815001541645549e-20 1.6814887212868601e-20  1.5000000023260046e-01 0.0000000000000000e+00 5.1053597465401764e-20  1.5000002340151056e-01 0.0000000000000000e+00 1.2457401853389290e-16  1.4999998884513299e-01 1.8625412112175214e-16 2.0708450595365731e-16  1.5000002488932374e-01 2.6896904036503468e-17 2.6896901358466603e-17  1.5000002160110157e-01 1.3071856755043184e-15 1.8167893830415788e-15  1.5000009668146191e-01 1.6290948783112282e-15 6.4081632685579873e-15  1.5000018861454920e-01 2.1416345114529534e-14 4.5012115986821851e-14  1.5000046073690024e-01 6.8999715238883910e-14 1.9523332128390712e-13  1.5000090652353659e-01 3.2305419915242116e-13 8.5641637910667853e-13  1.5000176180626174e-01 9.1868374404732238e-13 2.9642561323011839e-12  1.5000302949406835e-01 2.3882146334731707e-12 9.0173894927508205e-12  1.5000480575140593e-01 4.2187590775707250e-12 2.1868727067777386e-11  1.5000673574752868e-01 5.3481800875205910e-12 4.2905796244702366e-11  1.5000835625717182e-01 3.1541710840639308e-12 6.3674567500984269e-11  1.5000874986158325e-01 7.1969488014809910e-14 6.7682357868311641e-11  1.5000728444468089e-01 4.5894288661495507e-12 4.3574179448202929e-11  1.5000388595999914e-01 2.1292667400010159e-11 1.0893600820937991e-11  1.4999958240931283e-01 3.5998544015921409e-11 3.2105048266456867e-13  1.4999600227517962e-01 2.7290656207581163e-11 1.0339525752245397e-11  1.4999482225232538e-01 5.7796308183819575e-12 1.0766887348823683e-11  1.4999651262599661e-01 1.4239308396049588e-12 6.9221786655531730e-13  1.4999981909193827e-01 1.6688348566133910e-11 5.2807158807223012e-12  1.5000272679160170e-01 2.8537501792328341e-11 1.6307385854869539e-11  1.5000388700711248e-01 1.9503823035360808e-11 1.2386153431713088e-11  1.5000270654365974e-01 2.5623642794740814e-12 9.0480103914088514e-13  1.4999984681607692e-01 1.8560843671861252e-12 5.4935017575435913e-12  1.4999807197044909e-01 5.5335432864743031e-12 1.2222746484324649e-11  1.4999971174875609e-01 6.5358679934356424e-13 5.6046285039298435e-13  1.5000314315142341e-01 2.5614937997126807e-12 1.1352570524475031e-11  1.5000503008573332e-01 4.7411476812633612e-12 2.4556359789330193e-11  1.5000452829641214e-01 1.8300182242565117e-14 1.2544572003212316e-11  1.5000244651802133e-01 3.8752223456728052e-12 9.5699387208178047e-13  1.4999984498353908e-01 4.5866088003899422e-12 1.6226872693309105e-12  1.4999872960162572e-01 3.3223106678052058e-12 3.2943218893497006e-12  1.4999991911708360e-01 1.4310307969088281e-12 3.4344446199712174e-15  1.5000181973036200e-01 2.8421657339544904e-12 6.7166276872427219e-12  1.5000292821628999e-01 1.0657049068015585e-11 1.2808016037996503e-11  1.5000125494364450e-01 2.0569321585127397e-12 6.1912505708030766e-14  1.4999650115485255e-01 2.8985731534546057e-11 2.5418836615438103e-11  1.4999619469135025e-01 7.8814811185202205e-14 8.9716994036397848e-12  1.5000382276010146e-01 3.7656697149434238e-11 3.3831271174152672e-11  1.5000560283829290e-01 1.6337868330360436e-13 2.3848497807311442e-11  1.4999584458966220e-01 3.6340103912193882e-11 3.8947889465629306e-11  1.4999403917886789e-01 2.2077126636421467e-13 2.6254163734374756e-11  1.5000483710574092e-01 2.8594083134583972e-11 4.4824973009556070e-11  1.5000491554561282e-01 9.7286218846765391e-17 1.4358540929415782e-11  1.4999447190298962e-01 1.9276476267185912e-11 4.7689370625061321e-11  1.4999719735699732e-01 5.3487293115238027e-13 1.9178851597820340e-12  1.5000565467223509e-01 1.0916278172831432e-11 4.0604952596707049e-11  1.5000026399284017e-01 1.9543502381410062e-12 1.5955472489686290e-12  1.4999519110253970e-01 4.6871368572195916e-12 2.3149242334547723e-11  1.5000190830384960e-01 3.2302350968932512e-12 1.0556166637188356e-11  1.5000305350410478e-01 1.1076472788978538e-12 6.0393574372716832e-12  1.4999695004028177e-01 3.3207680672181892e-12 1.5420134311899698e-11  1.4999906761969148e-01 7.2735824972737209e-15 3.3366530411998958e-16  1.5000292432075715e-01 2.1803725322107464e-12 1.0297125013234818e-11  1.4999919187483746e-01 3.5421972478816333e-13 2.8545805083891495e-12  1.4999816163518637e-01 7.6994907763653585e-13 2.6091665629558722e-12  1.5000162720335103e-01 7.8367311449618242e-13 4.8220251050694759e-12  1.5000046875539064e-01 5.2439758731240878e-14 8.5923968898215266e-17  1.4999853149983297e-01 6.2182994444797348e-13 2.6515180227717560e-12  1.5000051884066451e-01 6.3535349445130352e-14 9.2782282850263410e-13  1.5000073646089843e-01 1.9454320840356963e-13 3.4738441257703352e-13  1.4999918570439608e-01 1.9007473623292364e-13 1.0873756362121132e-12  1.5000000073623271e-01 3.4264994715192310e-15 6.1446145416144700e-14  1.5000055418682512e-01 1.1881888909813827e-13 3.0720720229548129e-13  1.4999963633607935e-01 3.0995954377914845e-14 2.8519137231308100e-13  1.4999987608951959e-01 1.5419620835614023e-14 7.0853845055660922e-17  1.5000032329405755e-01 4.1195639548220167e-14 1.2813559426327751e-13  1.4999985389889281e-01 3.0137346157898980e-15 6.1455891916275320e-14  1.4999989718515253e-01 9.4396785676387451e-15 2.6804499090901334e-15  1.5000016782839837e-01 1.1236320242033683e-14 3.8790210595813715e-14  1.4999993983001575e-01 1.8940803130319313e-16 1.3465337787558996e-14  1.4999994039307654e-01 3.5546637491478545e-15 1.1858068168522174e-15  1.5000008462183145e-01 3.1745318454665028e-15 9.9806668358620904e-15  1.4999996828015499e-01 6.3818171684039877e-17 3.5418781794363145e-15  1.4999997535154316e-01 7.5744250477947362e-16 1.4613665996273513e-16  1.5000003811584262e-01 6.5912763163546885e-16 2.1067602657285051e-15  1.4999998447513335e-01 3.9339418915871207e-18 9.6366800783126902e-16  1.4999998849676577e-01 2.8844326077817802e-16 3.2246167705613221e-18  1.5000002149005481e-01 3.6027266667043929e-16 4.6488160618579321e-16  1.4999998547839899e-01 8.7246184964805399e-17 3.9145163723252027e-16  1.5000000256511009e-01 2.0150230417840432e-19 4.4369888148289561e-17  1.5000000425