<?xml version="1.0"?>
<VTKFile type="UnstructuredGrid"  version="0.1"  >
<UnstructuredGrid>
<Piece  NumberOfPoints="10201" NumberOfCells="20000">
<Points>
<DataArray  type="Float64"  NumberOfComponents="3"  format="ascii">-5 -5 0  -4.9 -5 0  -4.8 -5 0  -4.7 -5 0  -4.6 -5 0  -4.5 -5 0  -4.4 -5 0  -4.3 -5 0  -4.2 -5 0  -4.1 -5 0  -4 -5 0  -3.9 -5 0  -3.8 -5 0  -3.7 -5 0  -3.6 -5 0  -3.5 -5 0  -3.4 -5 0  -3.3 -5 0  -3.2 -5 0  -3.1 -5 0  -3 -5 0  -2.9 -5 0  -2.8 -5 0  -2.7 -5 0  -2.6 -5 0  -2.5 -5 0  -2.4 -5 0  -2.3 -5 0  -2.2 -5 0  -2.1 -5 0  -2 -5 0  -1.9 -5 0  -1.8 -5 0  -1.7 -5 0  -1.6 -5 0  -1.5 -5 0  -1.4 -5 0  -1.3 -5 0  -1.2 -5 0  -1.1 -5 0  -1 -5 0  -0.9000000000000004 -5 0  -0.7999999999999998 -5 0  -0.7000000000000002 -5 0  -0.5999999999999996 -5 0  -0.5 -5 0  -0.4000000000000004 -5 0  -0.2999999999999998 -5 0  -0.2000000000000002 -5 0  -0.09999999999999964 -5 0  0 -5 0  0.09999999999999964 -5 0  0.2000000000000002 -5 0  0.2999999999999998 -5 0  0.4000000000000004 -5 0  0.5 -5 0  0.5999999999999996 -5 0  0.7000000000000002 -5 0  0.7999999999999998 -5 0  0.9000000000000004 -5 0  1 -5 0  1.1 -5 0  1.2 -5 0  1.3 -5 0  1.4 -5 0  1.5 -5 0  1.6 -5 0  1.7 -5 0  1.8 -5 0  1.9 -5 0  2 -5 0  2.1 -5 0  2.2 -5 0  2.3 -5 0  2.4 -5 0  2.5 -5 0  2.6 -5 0  2.7 -5 0  2.8 -5 0  2.9 -5 0  3 -5 0  3.1 -5 0  3.199999999999999 -5 0  3.300000000000001 -5 0  3.4 -5 0  3.5 -5 0  3.6 -5 0  3.699999999999999 -5 0  3.800000000000001 -5 0  3.9 -5 0  4 -5 0  4.1 -5 0  4.199999999999999 -5 0  4.300000000000001 -5 0  4.4 -5 0  4.5 -5 0  4.6 -5 0  4.699999999999999 -5 0  4.800000000000001 -5 0  4.9 -5 0  5 -5 0  -5 -4.9 0  -4.9 -4.9 0  -4.8 -4.9 0  -4.7 -4.9 0  -4.6 -4.9 0  -4.5 -4.9 0  -4.4 -4.9 0  -4.3 -4.9 0  -4.2 -4.9 0  -4.1 -4.9 0  -4 -4.9 0  -3.9 -4.9 0  -3.8 -4.9 0  -3.7 -4.9 0  -3.6 -4.9 0  -3.5 -4.9 0  -3.4 -4.9 0  -3.3 -4.9 0  -3.2 -4.9 0  -3.1 -4.9 0  -3 -4.9 0  -2.9 -4.9 0  -2.8 -4.9 0  -2.7 -4.9 0  -2.6 -4.9 0  -2.5 -4.9 0  -2.4 -4.9 0  -2.3 -4.9 0  -2.2 -4.9 0  -2.1 -4.9 0  -2 -4.9 0  -1.9 -4.9 0  -1.8 -4.9 0  -1.7 -4.9 0  -1.6 -4.9 0  -1.5 -4.9 0  -1.4 -4.9 0  -1.3 -4.9 0  -1.2 -4.9 0  -1.1 -4.9 0  -1 -4.9 0  -0.9000000000000004 -4.9 0  -0.7999999999999998 -4.9 0  -0.7000000000000002 -4.9 0  -0.5999999999999996 -4.9 0  -0.5 -4.9 0  -0.4000000000000004 -4.9 0  -0.2999999999999998 -4.9 0  -0.2000000000000002 -4.9 0  -0.09999999999999964 -4.9 0  0 -4.9 0  0.09999999999999964 -4.9 0  0.2000000000000002 -4.9 0  0.2999999999999998 -4.9 0  0.4000000000000004 -4.9 0  0.5 -4.9 0  0.5999999999999996 -4.9 0  0.7000000000000002 -4.9 0  0.7999999999999998 -4.9 0  0.9000000000000004 -4.9 0  1 -4.9 0  1.1 -4.9 0  1.2 -4.9 0  1.3 -4.9 0  1.4 -4.9 0  1.5 -4.9 0  1.6 -4.9 0  1.7 -4.9 0  1.8 -4.9 0  1.9 -4.9 0  2 -4.9 0  2.1 -4.9 0  2.2 -4.9 0  2.3 -4.9 0  2.4 -4.9 0  2.5 -4.9 0  2.6 -4.9 0  2.7 -4.9 0  2.8 -4.9 0  2.9 -4.9 0  3 -4.9 0  3.1 -4.9 0  3.199999999999999 -4.9 0  3.300000000000001 -4.9 0  3.4 -4.9 0  3.5 -4.9 0  3.6 -4.9 0  3.699999999999999 -4.9 0  3.800000000000001 -4.9 0  3.9 -4.9 0  4 -4.9 0  4.1 -4.9 0  4.199999999999999 -4.9 0  4.300000000000001 -4.9 0  4.4 -4.9 0  4.5 -4.9 0  4.6 -4.9 0  4.699999999999999 -4.9 0  4.800000000000001 -4.9 0  4.9 -4.9 0  5 -4.9 0  -5 -4.8 0  -4.9 -4.8 0  -4.8 -4.8 0  -4.7 -4.8 0  -4.6 -4.8 0  -4.5 -4.8 0  -4.4 -4.8 0  -4.3 -4.8 0  -4.2 -4.8 0  -4.1 -4.8 0  -4 -4.8 0  -3.9 -4.8 0  -3.8 -4.8 0  -3.7 -4.8 0  -3.6 -4.8 0  -3.5 -4.8 0  -3.4 -4.8 0  -3.3 -4.8 0  -3.2 -4.8 0  -3.1 -4.8 0  -3 -4.8 0  -2.9 -4.8 0  -2.8 -4.8 0  -2.7 -4.8 0  -2.6 -4.8 0  -2.5 -4.8 0  -2.4 -4.8 0  -2.3 -4.8 0  -2.2 -4.8 0  -2.1 -4.8 0  -2 -4.8 0  -1.9 -4.8 0  -1.8 -4.8 0  -1.7 -4.8 0  -1.6 -4.8 0  -1.5 -4.8 0  -1.4 -4.8 0  -1.3 -4.8 0  -1.2 -4.8 0  -1.1 -4.8 0  -1 -4.8 0  -0.9000000000000004 -4.8 0  -0.7999999999999998 -4.8 0  -0.7000000000000002 -4.8 0  -0.5999999999999996 -4.8 0  -0.5 -4.8 0  -0.4000000000000004 -4.8 0  -0.2999999999999998 -4.8 0  -0.2000000000000002 -4.8 0  -0.09999999999999964 -4.8 0  0 -4.8 0  0.09999999999999964 -4.8 0  0.2000000000000002 -4.8 0  0.2999999999999998 -4.8 0  0.4000000000000004 -4.8 0  0.5 -4.8 0  0.5999999999999996 -4.8 0  0.7000000000000002 -4.8 0  0.7999999999999998 -4.8 0  0.9000000000000004 -4.8 0  1 -4.8 0  1.1 -4.8 0  1.2 -4.8 0  1.3 -4.8 0  1.4 -4.8 0  1.5 -4.8 0  1.6 -4.8 0  1.7 -4.8 0  1.8 -4.8 0  1.9 -4.8 0  2 -4.8 0  2.1 -4.8 0  2.2 -4.8 0  2.3 -4.8 0  2.4 -4.8 0  2.5 -4.8 0  2.6 -4.8 0  2.7 -4.8 0  2.8 -4.8 0  2.9 -4.8 0  3 -4.8 0  3.1 -4.8 0  3.199999999999999 -4.8 0  3.300000000000001 -4.8 0  3.4 -4.8 0  3.5 -4.8 0  3.6 -4.8 0  3.699999999999999 -4.8 0  3.800000000000001 -4.8 0  3.9 -4.8 0  4 -4.8 0  4.1 -4.8 0  4.199999999999999 -4.8 0  4.300000000000001 -4.8 0  4.4 -4.8 0  4.5 -4.8 0  4.6 -4.8 0  4.699999999999999 -4.8 0  4.800000000000001 -4.8 0  4.9 -4.8 0  5 -4.8 0  -5 -4.7 0  -4.9 -4.7 0  -4.8 -4.7 0  -4.7 -4.7 0  -4.6 -4.7 0  -4.5 -4.7 0  -4.4 -4.7 0  -4.3 -4.7 0  -4.2 -4.7 0  -4.1 -4.7 0  -4 -4.7 0  -3.9 -4.7 0  -3.8 -4.7 0  -3.7 -4.7 0  -3.6 -4.7 0  -3.5 -4.7 0  -3.4 -4.7 0  -3.3 -4.7 0  -3.2 -4.7 0  -3.1 -4.7 0  -3 -4.7 0  -2.9 -4.7 0  -2.8 -4.7 0  -2.7 -4.7 0  -2.6 -4.7 0  -2.5 -4.7 0  -2.4 -4.7 0  -2.3 -4.7 0  -2.2 -4.7 0  -2.1 -4.7 0  -2 -4.7 0  -1.9 -4.7 0  -1.8 -4.7 0  -1.7 -4.7 0  -1.6 -4.7 0  -1.5 -4.7 0  -1.4 -4.7 0  -1.3 -4.7 0  -1.2 -4.7 0  -1.1 -4.7 0  -1 -4.7 0  -0.9000000000000004 -4.7 0  -0.7999999999999998 -4.7 0  -0.7000000000000002 -4.7 0  -0.5999999999999996 -4.7 0  -0.5 -4.7 0  -0.4000000000000004 -4.7 0  -0.2999999999999998 -4.7 0  -0.2000000000000002 -4.7 0  -0.09999999999999964 -4.7 0  0 -4.7 0  0.09999999999999964 -4.7 0  0.2000000000000002 -4.7 0  0.2999999999999998 -4.7 0  0.4000000000000004 -4.7 0  0.5 -4.7 0  0.5999999999999996 -4.7 0  0.7000000000000002 -4.7 0  0.7999999999999998 -4.7 0  0.9000000000000004 -4.7 0  1 -4.7 0  1.1 -4.7 0  1.2 -4.7 0  1.3 -4.7 0  1.4 -4.7 0  1.5 -4.7 0  1.6 -4.7 0  1.7 -4.7 0  1.8 -4.7 0  1.9 -4.7 0  2 -4.7 0  2.1 -4.7 0  2.2 -4.7 0  2.3 -4.7 0  2.4 -4.7 0  2.5 -4.7 0  2.6 -4.7 0  2.7 -4.7 0  2.8 -4.7 0  2.9 -4.7 0  3 -4.7 0  3.1 -4.7 0  3.199999999999999 -4.7 0  3.300000000000001 -4.7 0  3.4 -4.7 0  3.5 -4.7 0  3.6 -4.7 0  3.699999999999999 -4.7 0  3.800000000000001 -4.7 0  3.9 -4.7 0  4 -4.7 0  4.1 -4.7 0  4.199999999999999 -4.7 0  4.300000000000001 -4.7 0  4.4 -4.7 0  4.5 -4.7 0  4.6 -4.7 0  4.699999999999999 -4.7 0  4.800000000000001 -4.7 0  4.9 -4.7 0  5 -4.7 0  -5 -4.6 0  -4.9 -4.6 0  -4.8 -4.6 0  -4.7 -4.6 0  -4.6 -4.6 0  -4.5 -4.6 0  -4.4 -4.6 0  -4.3 -4.6 0  -4.2 -4.6 0  -4.1 -4.6 0  -4 -4.6 0  -3.9 -4.6 0  -3.8 -4.6 0  -3.7 -4.6 0  -3.6 -4.6 0  -3.5 -4.6 0  -3.4 -4.6 0  -3.3 -4.6 0  -3.2 -4.6 0  -3.1 -4.6 0  -3 -4.6 0  -2.9 -4.6 0  -2.8 -4.6 0  -2.7 -4.6 0  -2.6 -4.6 0  -2.5 -4.6 0  -2.4 -4.6 0  -2.3 -4.6 0  -2.2 -4.6 0  -2.1 -4.6 0  -2 -4.6 0  -1.9 -4.6 0  -1.8 -4.6 0  -1.7 -4.6 0  -1.6 -4.6 0  -1.5 -4.6 0  -1.4 -4.6 0  -1.3 -4.6 0  -1.2 -4.6 0  -1.1 -4.6 0  -1 -4.6 0  -0.9000000000000004 -4.6 0  -0.7999999999999998 -4.6 0  -0.7000000000000002 -4.6 0  -0.5999999999999996 -4.6 0  -0.5 -4.6 0  -0.4000000000000004 -4.6 0  -0.2999999999999998 -4.6 0  -0.2000000000000002 -4.6 0  -0.09999999999999964 -4.6 0  0 -4.6 0  0.09999999999999964 -4.6 0  0.2000000000000002 -4.6 0  0.2999999999999998 -4.6 0  0.4000000000000004 -4.6 0  0.5 -4.6 0  0.5999999999999996 -4.6 0  0.7000000000000002 -4.6 0  0.7999999999999998 -4.6 0  0.9000000000000004 -4.6 0  1 -4.6 0  1.1 -4.6 0  1.2 -4.6 0  1.3 -4.6 0  1.4 -4.6 0  1.5 -4.6 0  1.6 -4.6 0  1.7 -4.6 0  1.8 -4.6 0  1.9 -4.6 0  2 -4.6 0  2.1 -4.6 0  2.2 -4.6 0  2.3 -4.6 0  2.4 -4.6 0  2.5 -4.6 0  2.6 -4.6 0  2.7 -4.6 0  2.8 -4.6 0  2.9 -4.6 0  3 -4.6 0  3.1 -4.6 0  3.199999999999999 -4.6 0  3.300000000000001 -4.6 0  3.4 -4.6 0  3.5 -4.6 0  3.6 -4.6 0  3.699999999999999 -4.6 0  3.800000000000001 -4.6 0  3.9 -4.6 0  4 -4.6 0  4.1 -4.6 0  4.199999999999999 -4.6 0  4.300000000000001 -4.6 0  4.4 -4.6 0  4.5 -4.6 0  4.6 -4.6 0  4.699999999999999 -4.6 0  4.800000000000001 -4.6 0  4.9 -4.6 0  5 -4.6 0  -5 -4.5 0  -4.9 -4.5 0  -4.8 -4.5 0  -4.7 -4.5 0  -4.6 -4.5 0  -4.5 -4.5 0  -4.4 -4.5 0  -4.3 -4.5 0  -4.2 -4.5 0  -4.1 -4.5 0  -4 -4.5 0  -3.9 -4.5 0  -3.8 -4.5 0  -3.7 -4.5 0  -3.6 -4.5 0  -3.5 -4.5 0  -3.4 -4.5 0  -3.3 -4.5 0  -3.2 -4.5 0  -3.1 -4.5 0  -3 -4.5 0  -2.9 -4.5 0  -2.8 -4.5 0  -2.7 -4.5 0  -2.6 -4.5 0  -2.5 -4.5 0  -2.4 -4.5 0  -2.3 -4.5 0  -2.2 -4.5 0  -2.1 -4.5 0  -2 -4.5 0  -1.9 -4.5 0  -1.8 -4.5 0  -1.7 -4.5 0  -1.6 -4.5 0  -1.5 -4.5 0  -1.4 -4.5 0  -1.3 -4.5 0  -1.2 -4.5 0  -1.1 -4.5 0  -1 -4.5 0  -0.9000000000000004 -4.5 0  -0.7999999999999998 -4.5 0  -0.7000000000000002 -4.5 0  -0.5999999999999996 -4.5 0  -0.5 -4.5 0  -0.4000000000000004 -4.5 0  -0.2999999999999998 -4.5 0  -0.2000000000000002 -4.5 0  -0.09999999999999964 -4.5 0  0 -4.5 0  0.09999999999999964 -4.5 0  0.2000000000000002 -4.5 0  0.2999999999999998 -4.5 0  0.4000000000000004 -4.5 0  0.5 -4.5 0  0.5999999999999996 -4.5 0  0.7000000000000002 -4.5 0  0.7999999999999998 -4.5 0  0.9000000000000004 -4.5 0  1 -4.5 0  1.1 -4.5 0  1.2 -4.5 0  1.3 -4.5 0  1.4 -4.5 0  1.5 -4.5 0  1.6 -4.5 0  1.7 -4.5 0  1.8 -4.5 0  1.9 -4.5 0  2 -4.5 0  2.1 -4.5 0  2.2 -4.5 0  2.3 -4.5 0  2.4 -4.5 0  2.5 -4.5 0  2.6 -4.5 0  2.7 -4.5 0  2.8 -4.5 0  2.9 -4.5 0  3 -4.5 0  3.1 -4.5 0  3.199999999999999 -4.5 0  3.300000000000001 -4.5 0  3.4 -4.5 0  3.5 -4.5 0  3.6 -4.5 0  3.699999999999999 -4.5 0  3.800000000000001 -4.5 0  3.9 -4.5 0  4 -4.5 0  4.1 -4.5 0  4.199999999999999 -4.5 0  4.300000000000001 -4.5 0  4.4 -4.5 0  4.5 -4.5 0  4.6 -4.5 0  4.699999999999999 -4.5 0  4.800000000000001 -4.5 0  4.9 -4.5 0  5 -4.5 0  -5 -4.4 0  -4.9 -4.4 0  -4.8 -4.4 0  -4.7 -4.4 0  -4.6 -4.4 0  -4.5 -4.4 0  -4.4 -4.4 0  -4.3 -4.4 0  -4.2 -4.4 0  -4.1 -4.4 0  -4 -4.4 0  -3.9 -4.4 0  -3.8 -4.4 0  -3.7 -4.4 0  -3.6 -4.4 0  -3.5 -4.4 0  -3.4 -4.4 0  -3.3 -4.4 0  -3.2 -4.4 0  -3.1 -4.4 0  -3 -4.4 0  -2.9 -4.4 0  -2.8 -4.4 0  -2.7 -4.4 0  -2.6 -4.4 0  -2.5 -4.4 0  -2.4 -4.4 0  -2.3 -4.4 0  -2.2 -4.4 0  -2.1 -4.4 0  -2 -4.4 0  -1.9 -4.4 0  -1.8 -4.
[...]
<PointData  Vectors="f_17"> 
<DataArray  type="Float64"  Name="f_17"  NumberOfComponents="3" format="ascii">1.4999999999999999e-01 0.0000000000000000e+00 0.0000000000000000e+00  1.5000000000000008e-01 -1.7018150205139945e-17 0.0000000000000000e+00  1.5000000000000002e-01 1.7553972972649425e-17 0.0000000000000000e+00  1.4999999999999997e-01 3.5514695806446304e-18 0.0000000000000000e+00  1.4999999999999999e-01 -1.5319868936106864e-17 0.0000000000000000e+00  1.5000000000000008e-01 6.6224609387817103e-18 0.0000000000000000e+00  1.4999999999999994e-01 -5.6862192599728890e-18 0.0000000000000000e+00  1.5000000000000016e-01 6.5290160761075479e-18 0.0000000000000000e+00  1.4999999999999988e-01 -5.1042701039472137e-18 0.0000000000000000e+00  1.5000000000000013e-01 -1.2186020151214755e-17 0.0000000000000000e+00  1.5000000000000008e-01 1.6465276458406795e-17 0.0000000000000000e+00  1.4999999999999997e-01 -8.7829892955184325e-18 0.0000000000000000e+00  1.5000000000000011e-01 -3.8856308639469167e-18 0.0000000000000000e+00  1.5000000000000013e-01 -8.9442413924710428e-18 0.0000000000000000e+00  1.4999999999999997e-01 4.6752652194953489e-17 0.0000000000000000e+00  1.4999999999999997e-01 -2.5350331800931058e-17 0.0000000000000000e+00  1.4999999999999994e-01 1.8425994682307907e-17 0.0000000000000000e+00  1.4999999999999999e-01 -2.8396187870431282e-17 0.0000000000000000e+00  1.5000000000000005e-01 2.1334626030810762e-17 0.0000000000000000e+00  1.4999999999999997e-01 -6.7472365995549347e-18 0.0000000000000000e+00  1.4999999999999991e-01 1.8319689539911192e-17 0.0000000000000000e+00  1.4999999999999997e-01 -2.9743094966838452e-17 0.0000000000000000e+00  1.5000000000000008e-01 9.8170223097563998e-18 0.0000000000000000e+00  1.4999999999999997e-01 5.2696738988995191e-19 0.0000000000000000e+00  1.4999999999999997e-01 1.3203522306445281e-17 0.0000000000000000e+00  1.4999999999999997e-01 -1.5288496407192745e-17 0.0000000000000000e+00  1.4999999999999997e-01 1.7764139373360431e-17 0.0000000000000000e+00  1.4999999999999999e-01 -3.1744659500523700e-17 0.0000000000000000e+00  1.4999999999999999e-01 1.5803757144779790e-17 0.0000000000000000e+00  1.5000000000000016e-01 -2.5648845294374176e-17 0.0000000000000000e+00  1.4999999999999997e-01 3.5262454598840743e-17 0.0000000000000000e+00  1.4999999999999999e-01 -1.1983450536224945e-17 0.0000000000000000e+00  1.5000000000000002e-01 4.7132391468500735e-18 0.0000000000000000e+00  1.4999999999999994e-01 1.7779629352575566e-18 0.0000000000000000e+00  1.4999999999999997e-01 1.1955005460881634e-17 0.0000000000000000e+00  1.4999999999999999e-01 -1.8189970691338064e-17 0.0000000000000000e+00  1.4999999999999991e-01 1.5503701425208816e-17 0.0000000000000000e+00  1.4999999999999999e-01 -1.9389524538286157e-17 0.0000000000000000e+00  1.5000000000000005e-01 5.2624380500223161e-18 0.0000000000000000e+00  1.4999999999999997e-01 -8.0984275085404202e-19 0.0000000000000000e+00  1.5000000000000005e-01 -8.3327053528574130e-18 0.0000000000000000e+00  1.5000000000000002e-01 5.9200775739402396e-19 0.0000000000000000e+00  1.5000000000000005e-01 1.2998234070765805e-17 0.0000000000000000e+00  1.4999999999999999e-01 -2.8699507579007574e-17 0.0000000000000000e+00  1.5000000000000011e-01 3.4953102128091842e-17 0.0000000000000000e+00  1.4999999999999994e-01 -1.0133253239413091e-17 0.0000000000000000e+00  1.4999999999999997e-01 -6.4767124593995144e-18 0.0000000000000000e+00  1.5000000000000013e-01 6.5596444208812402e-18 0.0000000000000000e+00  1.4999999999999988e-01 -5.8017845135373062e-18 0.0000000000000000e+00  1.5000000000000013e-01 -1.8668937802376727e-17 0.0000000000000000e+00  1.5000000000000011e-01 1.0375505571200599e-17 0.0000000000000000e+00  1.5000000000000005e-01 1.6151142470279784e-17 0.0000000000000000e+00  1.4999999999999997e-01 -1.7921408125797556e-17 0.0000000000000000e+00  1.5000000000000008e-01 1.5731154429985008e-17 0.0000000000000000e+00  1.5000000000000002e-01 -1.6775676039305039e-17 0.0000000000000000e+00  1.5000000000000011e-01 7.0510813609514649e-18 0.0000000000000000e+00  1.4999999999999997e-01 1.0742113622079147e-17 0.0000000000000000e+00  1.5000000000000008e-01 -8.7484199508651821e-18 0.0000000000000000e+00  1.4999999999999994e-01 7.4431541568480366e-18 0.0000000000000000e+00  1.5000000000000013e-01 -2.1789008569547968e-17 0.0000000000000000e+00  1.5000000000000002e-01 1.9797148403983495e-17 0.0000000000000000e+00  1.5000000000000002e-01 -7.3939898994091285e-18 0.0000000000000000e+00  1.5000000000000005e-01 7.7103034718292628e-18 0.0000000000000000e+00  1.5000000000000002e-01 -4.8593028681220234e-18 0.0000000000000000e+00  1.4999999999999999e-01 2.6862390141283592e-18 0.0000000000000000e+00  1.5000000000000008e-01 -3.2962985752754891e-18 0.0000000000000000e+00  1.4999999999999994e-01 7.4501270048613407e-18 0.0000000000000000e+00  1.5000000000000013e-01 -5.1098472112592867e-18 0.0000000000000000e+00  1.4999999999999988e-01 1.5186711025509113e-18 0.0000000000000000e+00  1.5000000000000013e-01 -1.8201864852043013e-17 0.0000000000000000e+00  1.5000000000000011e-01 2.2119728484262203e-18 0.0000000000000000e+00  1.5000000000000008e-01 1.1784614283036134e-17 0.0000000000000000e+00  1.5000000000000002e-01 -7.5997661155839074e-18 0.0000000000000000e+00  1.5000000000000008e-01 9.2299815422019876e-18 0.0000000000000000e+00  1.5000000000000002e-01 -1.8547637495656426e-18 0.0000000000000000e+00  1.5000000000000008e-01 -1.0155012715885514e-17 0.0000000000000000e+00  1.4999999999999997e-01 1.1758376393993581e-17 0.0000000000000000e+00  1.5000000000000033e-01 -3.6169543279345788e-17 0.0000000000000000e+00  1.4999999999999991e-01 4.5425571661297188e-17 0.0000000000000000e+00  1.5000000000000013e-01 -2.2598117540198118e-17 0.0000000000000000e+00  1.5000000000000008e-01 -6.3592090663814722e-18 0.0000000000000000e+00  1.5000000000000011e-01 1.0990786431217632e-17 0.0000000000000000e+00  1.5000000000000008e-01 6.2917061756478623e-19 0.0000000000000000e+00  1.5000000000000011e-01 -8.1085474619943937e-18 0.0000000000000000e+00  1.5000000000000008e-01 1.3576528905054897e-17 0.0000000000000000e+00  1.5000000000000002e-01 1.0643199959828657e-18 0.0000000000000000e+00  1.5000000000000008e-01 -1.9804049050451004e-17 0.0000000000000000e+00  1.5000000000000013e-01 2.4729439915830236e-17 0.0000000000000000e+00  1.4999999999999999e-01 -1.1754963560774556e-17 0.0000000000000000e+00  1.5000000000000005e-01 9.7216776404946934e-18 0.0000000000000000e+00  1.5000000000000008e-01 -1.9877250639193673e-17 0.0000000000000000e+00  1.5000000000000011e-01 1.3215321569662017e-17 0.0000000000000000e+00  1.5000000000000005e-01 -1.4645303710150186e-17 0.0000000000000000e+00  1.5000000000000022e-01 -5.3717099883539644e-19 0.0000000000000000e+00  1.5000000000000002e-01 2.4256644984853195e-17 0.0000000000000000e+00  1.5000000000000002e-01 7.8306894501330390e-19 0.0000000000000000e+00  1.4999999999999999e-01 -1.8101090372917321e-17 0.0000000000000000e+00  1.5000000000000019e-01 -1.7376542254833840e-18 0.0000000000000000e+00  1.5000000000000005e-01 5.3691830739625359e-18 0.0000000000000000e+00  1.5000000000000008e-01 2.0740196112950002e-18 0.0000000000000000e+00  1.5000000000000011e-01 0.0000000000000000e+00 0.0000000000000000e+00  1.5000000000000019e-01 0.0000000000000000e+00 5.4830967400307350e-18  1.4999999999999999e-01 6.1624163281465240e-18 7.2820046803062560e-19  1.5000000000000005e-01 2.8552431952112664e-18 -5.6884546550981453e-18  1.5000000000000005e-01 -4.4772289572324546e-18 -1.1971737326404981e-17  1.5000000000000005e-01 3.7751636659512279e-18 -1.4104709410124731e-17  1.5000000000000008e-01 -1.8281175550990656e-17 3.3001129360981695e-18  1.5000000000000008e-01 3.1044534056706561e-17 -3.2081486946109733e-17  1.4999999999999999e-01 -2.0564760751580378e-17 1.4326067040390053e-17  1.5000000000000002e-01 1.7552920489063434e-17 -2.2167757992253114e-18  1.5000000000000011e-01 -2.1610495432627247e-17 1.5561275351603137e-17  1.4999999999999999e-01 1.9265225467124786e-17 8.1808983285257358e-18  1.5000000000000002e-01 -2.8513748673762489e-18 -4.7592845157548931e-18  1.5000000000000005e-01 7.5179712283478219e-19 -1.1814181418960577e-17  1.4999999999999994e-01 -2.4021026168649079e-18 1.1488879609865896e-17  1.5000000000000011e-01 -3.2264197476953225e-18 -6.5985754540879226e-18  1.4999999999999999e-01 -9.1330042086627661e-18 -2.0323477823396476e-17  1.5000000000000016e-01 -2.7438599875348587e-18 -1.8518329256599447e-17  1.5000000000000002e-01 1.8649805692765795e-17 -1.3608761256662630e-17  1.5000000000000005e-01 -8.7201836323394044e-18 5.6909785376955601e-18  1.4999999999999999e-01 -4.4455306321946986e-18 -1.1923246932839821e-17  1.5000000000000016e-01 -6.2882140384344491e-18 -1.2586183077055663e-17  1.5000000000000008e-01 2.8313463566564094e-18 -2.9139810391571554e-17  1.5000000000000005e-01 1.6900150137534058e-17 -1.0747243347706352e-17  1.4999999999999999e-01 -9.5449955742802779e-18 6.3982048036093169e-18  1.5000000000000011e-01 -3.4985704697134094e-18 -2.1878209221018240e-17  1.5000000000000002e-01 4.4273949111050967e-18 -1.5229031210760060e-17  1.5000000000000011e-01 -7.2730378681734631e-18 -1.9843768529128482e-17  1.5000000000000002e-01 -3.0752406787138785e-19 -1.5597680337304728e-17  1.5000000000000013e-01 2.3320097500286776e-17 3.3563396004013503e-19  1.4999999999999991e-01 -1.9816011641537516e-17 2.6166852482997162e-17  1.5000000000000011e-01 4.7481961249316615e-18 -5.1986329926528580e-18  1.5000000000000005e-01 -3.1739558531910794e-18 -1.3463649223534953e-17  1.5000000000000005e-01 -2.9626510742844465e-18 3.9862963528755494e-18  1.5000000000000011e-01 -6.0337413625358322e-18 -4.6576176216548429e-18  1.5000000000000011e-01 1.4459765156730577e-17 -3.3501204395065331e-17  1.4999999999999997e-01 -8.9031641729807163e-18 -1.2350632004640152e-17  1.5000000000000016e-01 -5.5617202452834045e-18 -1.2042661675860296e-17  1.5000000000000008e-01 1.1033645988450645e-17 -1.4997182988340266e-17  1.5000000000000002e-01 3.5302393669518975e-18 1.5309669369783667e-18  1.5000000000000002e-01 1.8585416347471381e-18 -8.6429767640384434e-18  1.5000000000000005e-01 -8.9920797147652676e-18 4.6396900585277102e-18  1.5000000000000008e-01 8.7834636061645555e-19 3.7975109675885057e-18  1.5000000000000005e-01 6.0532153053647583e-18 -8.1436057976196951e-18  1.4999999999999999e-01 2.2213254802908636e-18 -1.5551671560408928e-18  1.5000000000000011e-01 -6.5050483928364252e-18 4.8004052958698392e-18  1.4999999999999994e-01 9.6670050460227740e-18 -1.4841074024203008e-17  1.5000000000000011e-01 -4.6055310178429384e-18 -1.6791585085098252e-17  1.4999999999999999e-01 -7.3338379842520855e-18 8.0113416331460610e-18  1.5000000000000002e-01 1.5894254104305279e-17 -2.1151861993797809e-18  1.5000000000000011e-01 -2.5638779595662237e-17 1.8105148484074744e-17  1.5000000000000002e-01 2.3910617702228745e-17 1.5032346190515606e-19  1.4999999999999999e-01 -9.5122208369391875e-18 6.6185218466101715e-18  1.5000000000000008e-01 -1.2962717987933903e-17 7.4381923779070124e-18  1.5000000000000019e-01 -4.5716810334515775e-18 1.6247573510905369e-18  1.4999999999999999e-01 2.9990188508515864e-17 -1.5174901511764060e-17  1.5000000000000005e-01 -2.4192941514301519e-17 1.3569014540561775e-17  1.5000000000000005e-01 2.8223107438078956e-17 -1.2752098174846534e-17  1.4999999999999999e-01 -2.6339428483809421e-17 1.6073225911407064e-17  1.5000000000000008e-01 2.1344588977116008e-17 -1.9677467317731870e-17  1.4999999999999999e-01 -1.7400880493142656e-17 1.2037108771271095e-17  1.5000000000000008e-01 2.7419155223570046e-18 8.8882996806162510e-18  1.5000000000000008e-01 -3.2943671303074466e-18 -7.7338287902412067e-18  1.5000000000000005e-01 1.1738583152218422e-17 -9.0743831445004752e-18  1.4999999999999999e-01 -6.5796928147145401e-18 6.0997012709088389e-18  1.5000000000000011e-01 -6.1656575177801338e-18 -1.6469217327275718e-18  1.5000000000000008e-01 -8.9024934944954375e-18 4.7551066966764676e-18  1.5000000000000011e-01 2.4737891053975476e-17 -2.0962803892781950e-17  1.4999999999999999e-01 -2.0666591583745619e-17 9.1956137578949242e-18  1.5000000000000008e-01 2.0451247076056380e-17 -1.0035513579252086e-18  1.5000000000000011e-01 -2.4452007203644964e-17 7.7642832459964851e-18  1.4999999999999999e-01 3.2839874364612593e-17 -8.7945432616525770e-18  1.4999999999999999e-01 -1.4154540498962015e-17 1.7483200375948563e-17  1.5000000000000005e-01 -7.3276054100818644e-18 5.0605182794083941e-18  1.5000000000000011e-01 -2.5704891371711111e-18 2.6482995459318871e-18  1.5000000000000002e-01 1.2774950311816286e-17 -7.1394766222308013e-18  1.5000000000000005e-01 -1.7724669862515924e-17 1.0945511480448753e-17  1.5000000000000008e-01 5.4258672890011055e-17 -3.5689403924640840e-17  1.4999999999999974e-01 -3.3144237414626973e-17 3.6896795745033892e-17  1.5000000000000008e-01 2.4328851348725161e-18 1.2356058414155791e-17  1.5000000000000005e-01 -2.0865051991322247e-17 8.5208350885373153e-18  1.5000000000000005e-01 2.6787331999839300e-18 2.0304533736919800e-17  1.5000000000000013e-01 3.3004618452913495e-20 7.8234754620631448e-18  1.4999999999999999e-01 2.5227061462760715e-17 -5.2019080707463178e-18  1.4999999999999994e-01 -6.3871924601020940e-18 1.3147245640457198e-17  1.5000000000000005e-01 -2.0654184139493304e-17 7.2866724224397769e-18  1.5000000000000008e-01 5.5319508378611052e-18 -1.9731501443003344e-17  1.5000000000000005e-01 5.4486932842608354e-18 2.9203073057569354e-18  1.5000000000000005e-01 -3.1338307806027370e-18 2.1494086578753859e-17  1.4999999999999999e-01 9.9924689564787258e-20 9.6550239825869391e-18  1.5000000000000016e-01 -1.5307262075864200e-17 8.6904282980121964e-18  1.5000000000000005e-01 1.2990362638409446e-17 -2.9243801012644587e-18  1.5000000000000008e-01 1.9307687398945593e-18 7.5093411134080803e-18  1.4999999999999999e-01 1.9994850610528323e-17 -7.2633670072741405e-18  1.4999999999999997e-01 -1.5592219601716950e-17 2.7774424952948204e-17  1.5000000000000002e-01 1.3690899669443253e-18 1.6915342023453650e-17  1.5000000000000008e-01 -1.8919915187798410e-17 3.5014887571459480e-18  1.5000000000000011e-01 1.3499477120215660e-17 -1.6163052190771495e-17  1.5000000000000002e-01 8.0056399615185890e-18 1.5102129634229644e-17  1.4999999999999997e-01 3.6612908845849870e-18 2.1488536656342894e-17  1.5000000000000005e-01 -8.9161748052130126e-18 -2.3905361727451499e-18  1.4999999999999999e-01 0.0000000000000000e+00 4.3735394628318746e-18  1.4999999999999999e-01 0.0000000000000000e+00 -2.7500015307540182e-18  1.4999999999999991e-01 2.7320652146166667e-18 1.7426042111912372e-17  1.5000000000000011e-01 -2.5464907782419969e-17 1.1632687176525491e-17  1.5000000000000005e-01 6.0547535151572904e-18 5.7182790188378587e-19  1.5000000000000011e-01 -7.0225854662258926e-18 -8.5877595179633600e-18  1.5000000000000002e-01 1.8877898725349931e-17 2.0899437185763812e-18  1.5000000000000011e-01 -2.3792590287626417e-17 3.5223436549993689e-17  1.5000000000000005e-01 1.9348494468170697e-17 -1.5345570342927069e-17  1.5000000000000005e-01 1.0307711677385142e-17 -1.4165690451986845e-17  1.4999999999999994e-01 -8.4162629268637810e-18 -2.5196884037661579e-18  1.5000000000000002e-01 7.8688282304297597e-18 -8.3311640659099987e-18  1.5000000000000002e-01 -1.4697833744637104e-17 3.7927524394895118e-18  1.5000000000000008e-01 -1.7960707071847786e-17 6.2086182584632983e-18  1.5000000000000013e-01 2.0117522307191619e-17 -1.9502230697980895e-17  1.5000000000000005e-01 -1.2440628100724264e-17 1.3149996971686594e-17  1.5000000000000011e-01 5.5004833680568465e-18 1.9727605002238362e-18  1.5000000000000008e-01 5.7482448390922596e-19 1.2193328765262143e-17  1.5000000000000005e-01 1.3287431447214782e-17 -1.5036919842595304e-19  1.4999999999999997e-01 -4.0344935265125246e-18 -5.1628261030615037e-18  1.5000000000000011e-01 -6.0982006442025095e-18 7.4591054104717986e-18  1.5000000000000005e-01 -6.0774993095166684e-20 4.3843816114351980e-18  1.4999999999999999e-01 5.6020359362439428e-18 2.3583877290514068e-17  1.5000000000000013e-01 -1.0666072796896127e-17 1.9407700928949594e-17  1.4999999999999999e-01 1.3441232758324987e-17 -2.0769653440931835e-17  1.5000000000000008e-01 -1.3093617637956051e-17 1.4875927559751099e-17  1.5000000000000008e-01 3.2841309712759270e-18 3.2161464147527129e-18  1.5000000000000005e-01 -5.9249352091426613e-18 7.9677333318200498e-18  1.5000000000000013e-01 9.6814949120610170e-18 8.8840049415061200e-18  1.4999999999999999e-01 1.2295295954165245e-17 -6.5832632954596081e-18  1.4999999999999991e-01 5.6334451401921654e-18 -1.7052811431785650e-17  1.5000000000000011e-01 -2.6615869602517062e-17 8.7005280740061841e-18  1.5000000000000002e-01 1.1441210634390448e-17 9.8229810206558491e-18  1.5000000000000005e-01 4.5440804244381838e-18 -5.2574830689848090e-18  1.4999999999999999e-01 -3.4640374008567688e-18 -6.3791348965852248e-19  1.5000000000000005e-01 -1.1465260333055812e-17 2.4691312503118350e-17  1.5000000000000011e-01 3.3454783000836186e-18 5.0223017933669728e-18  1.5000000000000008e-01 3.1668254751273322e-18 3.8054997936763587e-18  1.4999999999999997e-01 1.9645229102052560e-17 1.8146898437125233e-17  1.4999999999999999e-01 -1.3402094672188171e-17 1.5805568153631708e-17  1.5000000000000005e-01 -6.4747286098097661e-18 -1.3291563762525959e-18  1.5000000000000005e-01 7.2799159442281757e-18 -8.3238951991408806e-18  1.4999999999999999e-01 -2.3451448315898116e-18 -3.6235801897576553e-18  1.5000000000000005e-01 -3.2091580595922437e-18 6.3671468337578972e-18  1.5000000000000005e-01 5.4606950351211513e-18 -4.0061199361032274e-18  1.5000000000000002e-01 -1.3568633260416457e-17 5.5422635190690402e-18  1.5000000000000008e-01 1.2298894596159085e-17 -6.9133637533037218e-18  1.5000000000000008e-01 -1.7607988046617135e-17 8.2763518512662980e-18  1.5000000000000005e-01 1.5242807254781887e-17 -1.1535553587694840e-17  1.5000000000000005e-01 1.7342952667961441e-17 -1.7624049210461764e-17  1.4999999999999991e-01 -1.4075737167470886e-17 4.1807715208583492e-18  1.5000000000000005e-01 -2.4207078913008595e-18 -1.8194002427441052e-19  1.5000000000000008e-01 -9.0617421993224691e-18 -3.2142455217080053e-18  1.5000000000000005e-01 1.7535156976250840e-17 -2.1848148909711260e-17  1.4999999999999994e-01 -1.4593835622065194e-18 2.4308189325458025e-17  1.5000000000000005e-01 -8.0001313810689806e-18 1.7929705221782130e-17  1.5000000000000005e-01 -9.2960980121870077e-18 -8.3142580305522372e-18  1.5000000000000008e-01 1.7492520475619063e-17 -9.0876609515087683e-19  1.4999999999999997e-01 -1.0206874745396660e-17 -7.5791295468512875e-18  1.5000000000000011e-01 -4.9953683694305629e-18 -1.2217478964231149e-17  1.5000000000000002e-01 1.0356162772546221e-17 -8.5938164998402912e-18  1.5000000000000005e-01 -4.1679512534632411e-18 -8.6586519100011122e-18  1.4999999999999999e-01 1.0380003397465714e-17 1.7451574485389293e-17  1.5000000000000005e-01 -1.7428982729417707e-17 2.9126190225494503e-17  1.5000000000000005e-01 1.1887736181514019e-17 -1.7172104808644599e-17  1.5000000000000002e-01 -3.0449574629221657e-18 2.4266658185052493e-18  1.5000000000000002e-01 2.2821481620062121e-18 7.5728849448880005e-18  1.5000000000000005e-01 -1.1102666065527236e-17 8.6324903145162725e-18  1.5000000000000005e-01 9.8781454458679718e-18 -7.5111559528022845e-18  1.5000000000000005e-01 1.1283762360293800e-17 -1.4675133859046862e-17  1.4999999999999988e-01 -7.7599617622141199e-18 1.4786542138502264e-17  1.5000000000000013e-01 -1.4954197395390065e-17 1.4833977818849394e-17  1.5000000000000005e-01 5.3239931098541826e-18 -2.0352359427916177e-17  1.5000000000000005e-01 6.8577914797750055e-18 -1.4302846185356188e-17  1.5000000000000002e-01 -5.7460606033229628e-18 8.0315271421480542e-18  1.5000000000000005e-01 3.0700485907449414e-18 2.9074823759407364e-19  1.5000000000000005e-01 -4.3289448483578355e-19 -4.2213233675633905e-18  1.5000000000000005e-01 -1.4371230117434007e-17 1.4507019791674125e-17  1.5000000000000005e-01 2.5873417462686189e-17 -2.5234157077087718e-17  1.5000000000000011e-01 -2.5238618136551457e-17 -6.7305212880941638e