<?xml version="1.0"?>
<VTKFile type="UnstructuredGrid"  version="0.1"  >
<UnstructuredGrid>
<Piece  NumberOfPoints="10201" NumberOfCells="20000">
<Points>
<DataArray  type="Float64"  NumberOfComponents="3"  format="ascii">-5 -5 0  -4.9 -5 0  -4.8 -5 0  -4.7 -5 0  -4.6 -5 0  -4.5 -5 0  -4.4 -5 0  -4.3 -5 0  -4.2 -5 0  -4.1 -5 0  -4 -5 0  -3.9 -5 0  -3.8 -5 0  -3.7 -5 0  -3.6 -5 0  -3.5 -5 0  -3.4 -5 0  -3.3 -5 0  -3.2 -5 0  -3.1 -5 0  -3 -5 0  -2.9 -5 0  -2.8 -5 0  -2.7 -5 0  -2.6 -5 0  -2.5 -5 0  -2.4 -5 0  -2.3 -5 0  -2.2 -5 0  -2.1 -5 0  -2 -5 0  -1.9 -5 0  -1.8 -5 0  -1.7 -5 0  -1.6 -5 0  -1.5 -5 0  -1.4 -5 0  -1.3 -5 0  -1.2 -5 0  -1.1 -5 0  -1 -5 0  -0.9000000000000004 -5 0  -0.7999999999999998 -5 0  -0.7000000000000002 -5 0  -0.5999999999999996 -5 0  -0.5 -5 0  -0.4000000000000004 -5 0  -0.2999999999999998 -5 0  -0.2000000000000002 -5 0  -0.09999999999999964 -5 0  0 -5 0  0.09999999999999964 -5 0  0.2000000000000002 -5 0  0.2999999999999998 -5 0  0.4000000000000004 -5 0  0.5 -5 0  0.5999999999999996 -5 0  0.7000000000000002 -5 0  0.7999999999999998 -5 0  0.9000000000000004 -5 0  1 -5 0  1.1 -5 0  1.2 -5 0  1.3 -5 0  1.4 -5 0  1.5 -5 0  1.6 -5 0  1.7 -5 0  1.8 -5 0  1.9 -5 0  2 -5 0  2.1 -5 0  2.2 -5 0  2.3 -5 0  2.4 -5 0  2.5 -5 0  2.6 -5 0  2.7 -5 0  2.8 -5 0  2.9 -5 0  3 -5 0  3.1 -5 0  3.199999999999999 -5 0  3.300000000000001 -5 0  3.4 -5 0  3.5 -5 0  3.6 -5 0  3.699999999999999 -5 0  3.800000000000001 -5 0  3.9 -5 0  4 -5 0  4.1 -5 0  4.199999999999999 -5 0  4.300000000000001 -5 0  4.4 -5 0  4.5 -5 0  4.6 -5 0  4.699999999999999 -5 0  4.800000000000001 -5 0  4.9 -5 0  5 -5 0  -5 -4.9 0  -4.9 -4.9 0  -4.8 -4.9 0  -4.7 -4.9 0  -4.6 -4.9 0  -4.5 -4.9 0  -4.4 -4.9 0  -4.3 -4.9 0  -4.2 -4.9 0  -4.1 -4.9 0  -4 -4.9 0  -3.9 -4.9 0  -3.8 -4.9 0  -3.7 -4.9 0  -3.6 -4.9 0  -3.5 -4.9 0  -3.4 -4.9 0  -3.3 -4.9 0  -3.2 -4.9 0  -3.1 -4.9 0  -3 -4.9 0  -2.9 -4.9 0  -2.8 -4.9 0  -2.7 -4.9 0  -2.6 -4.9 0  -2.5 -4.9 0  -2.4 -4.9 0  -2.3 -4.9 0  -2.2 -4.9 0  -2.1 -4.9 0  -2 -4.9 0  -1.9 -4.9 0  -1.8 -4.9 0  -1.7 -4.9 0  -1.6 -4.9 0  -1.5 -4.9 0  -1.4 -4.9 0  -1.3 -4.9 0  -1.2 -4.9 0  -1.1 -4.9 0  -1 -4.9 0  -0.9000000000000004 -4.9 0  -0.7999999999999998 -4.9 0  -0.7000000000000002 -4.9 0  -0.5999999999999996 -4.9 0  -0.5 -4.9 0  -0.4000000000000004 -4.9 0  -0.2999999999999998 -4.9 0  -0.2000000000000002 -4.9 0  -0.09999999999999964 -4.9 0  0 -4.9 0  0.09999999999999964 -4.9 0  0.2000000000000002 -4.9 0  0.2999999999999998 -4.9 0  0.4000000000000004 -4.9 0  0.5 -4.9 0  0.5999999999999996 -4.9 0  0.7000000000000002 -4.9 0  0.7999999999999998 -4.9 0  0.9000000000000004 -4.9 0  1 -4.9 0  1.1 -4.9 0  1.2 -4.9 0  1.3 -4.9 0  1.4 -4.9 0  1.5 -4.9 0  1.6 -4.9 0  1.7 -4.9 0  1.8 -4.9 0  1.9 -4.9 0  2 -4.9 0  2.1 -4.9 0  2.2 -4.9 0  2.3 -4.9 0  2.4 -4.9 0  2.5 -4.9 0  2.6 -4.9 0  2.7 -4.9 0  2.8 -4.9 0  2.9 -4.9 0  3 -4.9 0  3.1 -4.9 0  3.199999999999999 -4.9 0  3.300000000000001 -4.9 0  3.4 -4.9 0  3.5 -4.9 0  3.6 -4.9 0  3.699999999999999 -4.9 0  3.800000000000001 -4.9 0  3.9 -4.9 0  4 -4.9 0  4.1 -4.9 0  4.199999999999999 -4.9 0  4.300000000000001 -4.9 0  4.4 -4.9 0  4.5 -4.9 0  4.6 -4.9 0  4.699999999999999 -4.9 0  4.800000000000001 -4.9 0  4.9 -4.9 0  5 -4.9 0  -5 -4.8 0  -4.9 -4.8 0  -4.8 -4.8 0  -4.7 -4.8 0  -4.6 -4.8 0  -4.5 -4.8 0  -4.4 -4.8 0  -4.3 -4.8 0  -4.2 -4.8 0  -4.1 -4.8 0  -4 -4.8 0  -3.9 -4.8 0  -3.8 -4.8 0  -3.7 -4.8 0  -3.6 -4.8 0  -3.5 -4.8 0  -3.4 -4.8 0  -3.3 -4.8 0  -3.2 -4.8 0  -3.1 -4.8 0  -3 -4.8 0  -2.9 -4.8 0  -2.8 -4.8 0  -2.7 -4.8 0  -2.6 -4.8 0  -2.5 -4.8 0  -2.4 -4.8 0  -2.3 -4.8 0  -2.2 -4.8 0  -2.1 -4.8 0  -2 -4.8 0  -1.9 -4.8 0  -1.8 -4.8 0  -1.7 -4.8 0  -1.6 -4.8 0  -1.5 -4.8 0  -1.4 -4.8 0  -1.3 -4.8 0  -1.2 -4.8 0  -1.1 -4.8 0  -1 -4.8 0  -0.9000000000000004 -4.8 0  -0.7999999999999998 -4.8 0  -0.7000000000000002 -4.8 0  -0.5999999999999996 -4.8 0  -0.5 -4.8 0  -0.4000000000000004 -4.8 0  -0.2999999999999998 -4.8 0  -0.2000000000000002 -4.8 0  -0.09999999999999964 -4.8 0  0 -4.8 0  0.09999999999999964 -4.8 0  0.2000000000000002 -4.8 0  0.2999999999999998 -4.8 0  0.4000000000000004 -4.8 0  0.5 -4.8 0  0.5999999999999996 -4.8 0  0.7000000000000002 -4.8 0  0.7999999999999998 -4.8 0  0.9000000000000004 -4.8 0  1 -4.8 0  1.1 -4.8 0  1.2 -4.8 0  1.3 -4.8 0  1.4 -4.8 0  1.5 -4.8 0  1.6 -4.8 0  1.7 -4.8 0  1.8 -4.8 0  1.9 -4.8 0  2 -4.8 0  2.1 -4.8 0  2.2 -4.8 0  2.3 -4.8 0  2.4 -4.8 0  2.5 -4.8 0  2.6 -4.8 0  2.7 -4.8 0  2.8 -4.8 0  2.9 -4.8 0  3 -4.8 0  3.1 -4.8 0  3.199999999999999 -4.8 0  3.300000000000001 -4.8 0  3.4 -4.8 0  3.5 -4.8 0  3.6 -4.8 0  3.699999999999999 -4.8 0  3.800000000000001 -4.8 0  3.9 -4.8 0  4 -4.8 0  4.1 -4.8 0  4.199999999999999 -4.8 0  4.300000000000001 -4.8 0  4.4 -4.8 0  4.5 -4.8 0  4.6 -4.8 0  4.699999999999999 -4.8 0  4.800000000000001 -4.8 0  4.9 -4.8 0  5 -4.8 0  -5 -4.7 0  -4.9 -4.7 0  -4.8 -4.7 0  -4.7 -4.7 0  -4.6 -4.7 0  -4.5 -4.7 0  -4.4 -4.7 0  -4.3 -4.7 0  -4.2 -4.7 0  -4.1 -4.7 0  -4 -4.7 0  -3.9 -4.7 0  -3.8 -4.7 0  -3.7 -4.7 0  -3.6 -4.7 0  -3.5 -4.7 0  -3.4 -4.7 0  -3.3 -4.7 0  -3.2 -4.7 0  -3.1 -4.7 0  -3 -4.7 0  -2.9 -4.7 0  -2.8 -4.7 0  -2.7 -4.7 0  -2.6 -4.7 0  -2.5 -4.7 0  -2.4 -4.7 0  -2.3 -4.7 0  -2.2 -4.7 0  -2.1 -4.7 0  -2 -4.7 0  -1.9 -4.7 0  -1.8 -4.7 0  -1.7 -4.7 0  -1.6 -4.7 0  -1.5 -4.7 0  -1.4 -4.7 0  -1.3 -4.7 0  -1.2 -4.7 0  -1.1 -4.7 0  -1 -4.7 0  -0.9000000000000004 -4.7 0  -0.7999999999999998 -4.7 0  -0.7000000000000002 -4.7 0  -0.5999999999999996 -4.7 0  -0.5 -4.7 0  -0.4000000000000004 -4.7 0  -0.2999999999999998 -4.7 0  -0.2000000000000002 -4.7 0  -0.09999999999999964 -4.7 0  0 -4.7 0  0.09999999999999964 -4.7 0  0.2000000000000002 -4.7 0  0.2999999999999998 -4.7 0  0.4000000000000004 -4.7 0  0.5 -4.7 0  0.5999999999999996 -4.7 0  0.7000000000000002 -4.7 0  0.7999999999999998 -4.7 0  0.9000000000000004 -4.7 0  1 -4.7 0  1.1 -4.7 0  1.2 -4.7 0  1.3 -4.7 0  1.4 -4.7 0  1.5 -4.7 0  1.6 -4.7 0  1.7 -4.7 0  1.8 -4.7 0  1.9 -4.7 0  2 -4.7 0  2.1 -4.7 0  2.2 -4.7 0  2.3 -4.7 0  2.4 -4.7 0  2.5 -4.7 0  2.6 -4.7 0  2.7 -4.7 0  2.8 -4.7 0  2.9 -4.7 0  3 -4.7 0  3.1 -4.7 0  3.199999999999999 -4.7 0  3.300000000000001 -4.7 0  3.4 -4.7 0  3.5 -4.7 0  3.6 -4.7 0  3.699999999999999 -4.7 0  3.800000000000001 -4.7 0  3.9 -4.7 0  4 -4.7 0  4.1 -4.7 0  4.199999999999999 -4.7 0  4.300000000000001 -4.7 0  4.4 -4.7 0  4.5 -4.7 0  4.6 -4.7 0  4.699999999999999 -4.7 0  4.800000000000001 -4.7 0  4.9 -4.7 0  5 -4.7 0  -5 -4.6 0  -4.9 -4.6 0  -4.8 -4.6 0  -4.7 -4.6 0  -4.6 -4.6 0  -4.5 -4.6 0  -4.4 -4.6 0  -4.3 -4.6 0  -4.2 -4.6 0  -4.1 -4.6 0  -4 -4.6 0  -3.9 -4.6 0  -3.8 -4.6 0  -3.7 -4.6 0  -3.6 -4.6 0  -3.5 -4.6 0  -3.4 -4.6 0  -3.3 -4.6 0  -3.2 -4.6 0  -3.1 -4.6 0  -3 -4.6 0  -2.9 -4.6 0  -2.8 -4.6 0  -2.7 -4.6 0  -2.6 -4.6 0  -2.5 -4.6 0  -2.4 -4.6 0  -2.3 -4.6 0  -2.2 -4.6 0  -2.1 -4.6 0  -2 -4.6 0  -1.9 -4.6 0  -1.8 -4.6 0  -1.7 -4.6 0  -1.6 -4.6 0  -1.5 -4.6 0  -1.4 -4.6 0  -1.3 -4.6 0  -1.2 -4.6 0  -1.1 -4.6 0  -1 -4.6 0  -0.9000000000000004 -4.6 0  -0.7999999999999998 -4.6 0  -0.7000000000000002 -4.6 0  -0.5999999999999996 -4.6 0  -0.5 -4.6 0  -0.4000000000000004 -4.6 0  -0.2999999999999998 -4.6 0  -0.2000000000000002 -4.6 0  -0.09999999999999964 -4.6 0  0 -4.6 0  0.09999999999999964 -4.6 0  0.2000000000000002 -4.6 0  0.2999999999999998 -4.6 0  0.4000000000000004 -4.6 0  0.5 -4.6 0  0.5999999999999996 -4.6 0  0.7000000000000002 -4.6 0  0.7999999999999998 -4.6 0  0.9000000000000004 -4.6 0  1 -4.6 0  1.1 -4.6 0  1.2 -4.6 0  1.3 -4.6 0  1.4 -4.6 0  1.5 -4.6 0  1.6 -4.6 0  1.7 -4.6 0  1.8 -4.6 0  1.9 -4.6 0  2 -4.6 0  2.1 -4.6 0  2.2 -4.6 0  2.3 -4.6 0  2.4 -4.6 0  2.5 -4.6 0  2.6 -4.6 0  2.7 -4.6 0  2.8 -4.6 0  2.9 -4.6 0  3 -4.6 0  3.1 -4.6 0  3.199999999999999 -4.6 0  3.300000000000001 -4.6 0  3.4 -4.6 0  3.5 -4.6 0  3.6 -4.6 0  3.699999999999999 -4.6 0  3.800000000000001 -4.6 0  3.9 -4.6 0  4 -4.6 0  4.1 -4.6 0  4.199999999999999 -4.6 0  4.300000000000001 -4.6 0  4.4 -4.6 0  4.5 -4.6 0  4.6 -4.6 0  4.699999999999999 -4.6 0  4.800000000000001 -4.6 0  4.9 -4.6 0  5 -4.6 0  -5 -4.5 0  -4.9 -4.5 0  -4.8 -4.5 0  -4.7 -4.5 0  -4.6 -4.5 0  -4.5 -4.5 0  -4.4 -4.5 0  -4.3 -4.5 0  -4.2 -4.5 0  -4.1 -4.5 0  -4 -4.5 0  -3.9 -4.5 0  -3.8 -4.5 0  -3.7 -4.5 0  -3.6 -4.5 0  -3.5 -4.5 0  -3.4 -4.5 0  -3.3 -4.5 0  -3.2 -4.5 0  -3.1 -4.5 0  -3 -4.5 0  -2.9 -4.5 0  -2.8 -4.5 0  -2.7 -4.5 0  -2.6 -4.5 0  -2.5 -4.5 0  -2.4 -4.5 0  -2.3 -4.5 0  -2.2 -4.5 0  -2.1 -4.5 0  -2 -4.5 0  -1.9 -4.5 0  -1.8 -4.5 0  -1.7 -4.5 0  -1.6 -4.5 0  -1.5 -4.5 0  -1.4 -4.5 0  -1.3 -4.5 0  -1.2 -4.5 0  -1.1 -4.5 0  -1 -4.5 0  -0.9000000000000004 -4.5 0  -0.7999999999999998 -4.5 0  -0.7000000000000002 -4.5 0  -0.5999999999999996 -4.5 0  -0.5 -4.5 0  -0.4000000000000004 -4.5 0  -0.2999999999999998 -4.5 0  -0.2000000000000002 -4.5 0  -0.09999999999999964 -4.5 0  0 -4.5 0  0.09999999999999964 -4.5 0  0.2000000000000002 -4.5 0  0.2999999999999998 -4.5 0  0.4000000000000004 -4.5 0  0.5 -4.5 0  0.5999999999999996 -4.5 0  0.7000000000000002 -4.5 0  0.7999999999999998 -4.5 0  0.9000000000000004 -4.5 0  1 -4.5 0  1.1 -4.5 0  1.2 -4.5 0  1.3 -4.5 0  1.4 -4.5 0  1.5 -4.5 0  1.6 -4.5 0  1.7 -4.5 0  1.8 -4.5 0  1.9 -4.5 0  2 -4.5 0  2.1 -4.5 0  2.2 -4.5 0  2.3 -4.5 0  2.4 -4.5 0  2.5 -4.5 0  2.6 -4.5 0  2.7 -4.5 0  2.8 -4.5 0  2.9 -4.5 0  3 -4.5 0  3.1 -4.5 0  3.199999999999999 -4.5 0  3.300000000000001 -4.5 0  3.4 -4.5 0  3.5 -4.5 0  3.6 -4.5 0  3.699999999999999 -4.5 0  3.800000000000001 -4.5 0  3.9 -4.5 0  4 -4.5 0  4.1 -4.5 0  4.199999999999999 -4.5 0  4.300000000000001 -4.5 0  4.4 -4.5 0  4.5 -4.5 0  4.6 -4.5 0  4.699999999999999 -4.5 0  4.800000000000001 -4.5 0  4.9 -4.5 0  5 -4.5 0  -5 -4.4 0  -4.9 -4.4 0  -4.8 -4.4 0  -4.7 -4.4 0  -4.6 -4.4 0  -4.5 -4.4 0  -4.4 -4.4 0  -4.3 -4.4 0  -4.2 -4.4 0  -4.1 -4.4 0  -4 -4.4 0  -3.9 -4.4 0  -3.8 -4.4 0  -3.7 -4.4 0  -3.6 -4.4 0  -3.5 -4.4 0  -3.4 -4.4 0  -3.3 -4.4 0  -3.2 -4.4 0  -3.1 -4.4 0  -3 -4.4 0  -2.9 -4.4 0  -2.8 -4.4 0  -2.7 -4.4 0  -2.6 -4.4 0  -2.5 -4.4 0  -2.4 -4.4 0  -2.3 -4.4 0  -2.2 -4.4 0  -2.1 -4.4 0  -2 -4.4 0  -1.9 -4.4 0  -1.8 -4.
[...]
<PointData  Vectors="f_23"> 
<DataArray  type="Float64"  Name="f_23"  NumberOfComponents="3" format="ascii">1.4999999999999997e-01 0.0000000000000000e+00 0.0000000000000000e+00  1.5000000000000022e-01 1.5305448647497173e-31 0.0000000000000000e+00  1.5000000000000011e-01 5.8631523079013409e-33 0.0000000000000000e+00  1.5000000000000041e-01 4.0810819828067034e-32 0.0000000000000000e+00  1.5000000000000027e-01 8.4563561262582363e-33 0.0000000000000000e+00  1.5000000000000052e-01 2.4524637406383761e-33 0.0000000000000000e+00  1.5000000000000052e-01 1.1723011402979658e-31 0.0000000000000000e+00  1.5000000000000116e-01 2.4027995253005132e-31 0.0000000000000000e+00  1.5000000000000663e-01 2.2350477882732444e-29 0.0000000000000000e+00  1.5000000000002431e-01 1.1349935398009376e-28 0.0000000000000000e+00  1.5000000000006372e-01 4.4547739958045483e-30 0.0000000000000000e+00  1.5000000000009350e-01 3.5772603530900020e-27 0.0000000000000000e+00  1.5000000000001223e-01 4.3710950964403012e-26 0.0000000000000000e+00  1.4999999999984762e-01 3.5824773360277478e-26 0.0000000000000000e+00  1.5000000000074706e-01 1.9480218960437277e-24 0.0000000000000000e+00  1.5000000000777744e-01 6.4478760866571091e-23 0.0000000000000000e+00  1.5000000003362168e-01 5.6840794931962910e-22 0.0000000000000000e+00  1.5000000009545295e-01 2.1695106965674791e-21 0.0000000000000000e+00  1.5000000019236800e-01 3.2134709881233318e-21 0.0000000000000000e+00  1.5000000026442853e-01 2.5957826061714644e-22 0.0000000000000000e+00  1.5000000017465820e-01 1.0595503058016738e-20 0.0000000000000000e+00  1.4999999978635370e-01 6.9833064837748313e-20 0.0000000000000000e+00  1.4999999914582543e-01 1.2127904117900795e-19 0.0000000000000000e+00  1.4999999860209662e-01 5.3929223652660412e-20 0.0000000000000000e+00  1.4999999861282429e-01 4.9836795637461802e-21 0.0000000000000000e+00  1.4999999928912588e-01 1.3749785429975956e-19 0.0000000000000000e+00  1.5000000018793527e-01 2.0213942169707376e-19 0.0000000000000000e+00  1.5000000070897401e-01 6.7318961492730817e-20 0.0000000000000000e+00  1.5000000065438940e-01 1.3751461007972788e-21 0.0000000000000000e+00  1.5000000026213411e-01 4.9479360866167632e-20 0.0000000000000000e+00  1.4999999984417167e-01 4.0140701958574122e-20 0.0000000000000000e+00  1.4999999963767496e-01 1.7128505721990684e-21 0.0000000000000000e+00  1.4999999979585737e-01 9.9767724758219277e-21 0.0000000000000000e+00  1.5000000016089093e-01 1.2286156713408160e-20 0.0000000000000000e+00  1.5000000027476840e-01 8.5206039370258643e-23 0.0000000000000000e+00  1.4999999999656149e-01 5.9353584200479151e-21 0.0000000000000000e+00  1.4999999977931464e-01 2.5754775238658962e-21 0.0000000000000000e+00  1.4999999994224275e-01 1.1761612228066718e-21 0.0000000000000000e+00  1.5000000015061579e-01 2.6468700297489794e-21 0.0000000000000000e+00  1.5000000006057665e-01 9.4616082738667552e-23 0.0000000000000000e+00  1.4999999990177199e-01 1.5592313326121813e-21 0.0000000000000000e+00  1.4999999995798954e-01 5.5602032242591234e-25 0.0000000000000000e+00  1.5000000006405212e-01 7.4876968660922522e-22 0.0000000000000000e+00  1.5000000002167654e-01 1.1879817662467956e-25 0.0000000000000000e+00  1.4999999995859939e-01 3.2562397510475118e-22 0.0000000000000000e+00  1.4999999999327132e-01 1.2271732034624458e-24 0.0000000000000000e+00  1.5000000002540359e-01 1.2661613790700254e-22 0.0000000000000000e+00  1.4999999999830435e-01 6.3424625801121619e-24 0.0000000000000000e+00  1.4999999998611172e-01 3.9912681696554350e-23 0.0000000000000000e+00  1.5000000000484162e-01 9.1201442797959661e-24 0.0000000000000000e+00  1.5000000000609778e-01 8.2594990726562043e-24 0.0000000000000000e+00  1.4999999999532587e-01 6.9254698866299052e-24 0.0000000000000000e+00  1.4999999999845012e-01 5.5024026055878267e-25 0.0000000000000000e+00  1.5000000000307309e-01 3.0754447430234040e-24 0.0000000000000000e+00  1.4999999999953412e-01 8.2672073258813836e-26 0.0000000000000000e+00  1.4999999999861499e-01 7.0599241888056034e-25 0.0000000000000000e+00  1.5000000000088071e-01 2.8743596217404653e-25 0.0000000000000000e+00  1.5000000000027738e-01 3.8177395038722770e-26 0.0000000000000000e+00  1.4999999999941466e-01 1.4717189374292218e-25 0.0000000000000000e+00  1.5000000000017119e-01 9.8236120424141922e-27 0.0000000000000000e+00  1.5000000000019725e-01 2.1403328234168580e-26 0.0000000000000000e+00  1.4999999999980265e-01 1.8248163986795192e-26 0.0000000000000000e+00  1.5000000000002023e-01 1.9730423138978543e-29 0.0000000000000000e+00  1.5000000000008443e-01 4.4248758832419388e-27 0.0000000000000000e+00  1.4999999999993727e-01 1.9510635244669033e-27 0.0000000000000000e+00  1.5000000000000074e-01 2.0384444013151164e-29 0.0000000000000000e+00  1.5000000000002986e-01 6.4599104541657398e-28 0.0000000000000000e+00  1.4999999999997932e-01 2.4675858837858353e-28 0.0000000000000000e+00  1.5000000000000066e-01 1.2452093838343482e-30 0.0000000000000000e+00  1.5000000000001007e-01 7.2385824540019466e-29 0.0000000000000000e+00  1.4999999999999269e-01 3.6930374897199109e-29 0.0000000000000000e+00  1.5000000000000160e-01 1.8136016272093521e-31 0.0000000000000000e+00  1.5000000000000263e-01 6.0135758966630956e-30 0.0000000000000000e+00  1.4999999999999755e-01 7.8080305330920708e-30 0.0000000000000000e+00  1.5000000000000138e-01 6.2469752600732808e-31 0.0000000000000000e+00  1.5000000000000066e-01 5.6233466970406787e-32 0.0000000000000000e+00  1.4999999999999997e-01 3.0916060038783896e-31 0.0000000000000000e+00  1.5000000000000069e-01 3.3957023173516220e-32 0.0000000000000000e+00  1.4999999999999958e-01 7.7125437137617203e-32 0.0000000000000000e+00  1.5000000000000049e-01 1.6045701132287665e-31 0.0000000000000000e+00  1.5000000000000044e-01 1.4802312732178168e-31 0.0000000000000000e+00  1.5000000000000013e-01 6.3479514812986027e-32 0.0000000000000000e+00  1.4999999999999974e-01 1.4501086831336332e-32 0.0000000000000000e+00  1.5000000000000011e-01 1.5627822710510130e-32 0.0000000000000000e+00  1.5000000000000011e-01 1.3901193178989175e-31 0.0000000000000000e+00  1.4999999999999988e-01 2.6794881528170878e-32 0.0000000000000000e+00  1.5000000000000069e-01 4.5247330700091792e-32 0.0000000000000000e+00  1.5000000000000036e-01 1.0242927883008033e-33 0.0000000000000000e+00  1.5000000000000011e-01 4.8319292373497769e-33 0.0000000000000000e+00  1.5000000000000011e-01 7.7315423619897499e-32 0.0000000000000000e+00  1.5000000000000011e-01 7.2025146782505071e-32 0.0000000000000000e+00  1.4999999999999980e-01 9.1882652707591543e-33 0.0000000000000000e+00  1.4999999999999991e-01 1.8568598879278541e-32 0.0000000000000000e+00  1.4999999999999980e-01 1.5877919408704012e-32 0.0000000000000000e+00  1.4999999999999997e-01 6.5266636708120734e-32 0.0000000000000000e+00  1.5000000000000044e-01 7.6437451264430884e-32 0.0000000000000000e+00  1.4999999999999997e-01 2.6229796348176432e-31 0.0000000000000000e+00  1.5000000000000041e-01 1.0319680983046632e-32 0.0000000000000000e+00  1.4999999999999991e-01 9.3958799878980727e-32 0.0000000000000000e+00  1.5000000000000030e-01 2.3191374759837324e-32 0.0000000000000000e+00  1.4999999999999997e-01 0.0000000000000000e+00 0.0000000000000000e+00  1.5000000000000022e-01 0.0000000000000000e+00 9.8713993887910764e-34  1.5000000000000019e-01 4.8254053733911556e-35 1.1382034134737902e-33  1.5000000000000044e-01 2.0216023642127412e-32 7.7373479785060706e-33  1.5000000000000022e-01 5.2197597631331564e-33 3.6891694455522545e-32  1.5000000000000036e-01 7.7623875430829214e-32 1.8041816132159279e-32  1.5000000000000061e-01 8.9117081204169814e-32 4.1969625275482178e-33  1.5000000000000044e-01 9.5962996635249883e-32 3.2748067148800185e-32  1.4999999999999963e-01 4.3576149978185040e-31 1.6285169972607044e-35  1.4999999999999630e-01 1.0444088312775899e-29 1.6924540131266971e-29  1.4999999999998140e-01 1.3686589191467851e-28 3.5409707344558280e-28  1.4999999999993927e-01 2.8684495850216424e-28 4.1153619971929115e-27  1.4999999999987210e-01 3.0405727869347266e-28 2.1089736098145842e-26  1.4999999999985972e-01 2.2034347141637291e-26 4.0487573486002474e-26  1.4999999999998617e-01 9.5076363157055809e-26 2.1528146208844415e-26  1.4999999999969843e-01 1.5629230322178234e-25 1.6397757770561612e-25  1.4999999999554903e-01 2.5291752683839586e-23 1.5390876173746133e-23  1.4999999997684144e-01 3.5573275604452391e-22 3.9731065182186903e-22  1.4999999992431551e-01 1.9321999315225524e-21 4.1614387064016852e-21  1.4999999982575807e-01 4.4513192990658347e-21 2.1217656773935740e-20  1.4999999971770081e-01 2.3523659570420540e-21 5.1362709904249323e-20  1.4999999972636055e-01 3.1646223416289887e-21 3.8076923113832729e-20  1.5000000003096439e-01 5.8342086477328665e-20 8.6003553468054640e-21  1.5000000068953695e-01 1.5796789120974832e-19 4.2756482172201349e-19  1.5000000143254957e-01 1.2829469369088186e-19 1.4891844625331307e-18  1.5000000171996036e-01 4.0527786351531467e-21 1.7896012928031646e-18  1.5000000120151691e-01 1.0599175549076870e-19 6.1758706059933339e-19  1.5000000016102183e-01 2.8457033098023903e-19 9.9454393621994568e-21  1.4999999932071220e-01 1.7399516396054070e-19 4.8425689071793380e-19  1.4999999913923512e-01 7.9475117991317041e-21 5.0036646288168327e-19  1.4999999948682000e-01 4.0789379471733272e-20 1.1600598310857878e-19  1.4999999999510569e-01 7.6537921924597438e-20 6.4435509036579249e-21  1.5000000037244807e-01 1.8059742660044659e-20 1.2163669821424841e-19  1.5000000037507577e-01 4.8111764840739810e-21 8.5412236929294096e-20  1.4999999998278177e-01 2.2820883821178131e-20 4.9334060555644875e-21  1.4999999965549138e-01 3.7857757455634054e-21 9.9776904226090535e-20  1.4999999983535650e-01 4.7337500519078749e-21 1.0977688146979869e-20  1.5000000021691109e-01 7.0826544676170427e-21 4.9209978329586785e-20  1.5000000019445653e-01 6.7026747553671230e-23 2.2519282921139738e-20  1.4999999987976753e-01 4.1626804965045383e-21 1.8456062254448223e-20  1.4999999984164411e-01 2.7384834507629805e-22 1.6748796639353007e-20  1.5000000006934469e-01 1.7232829121348850e-21 7.0416249604152467e-21  1.5000000010877715e-01 4.0871920412567094e-22 8.1330252440697048e-21  1.4999999995337568e-01 6.7416081372539082e-22 3.1914950757218034e-21  1.4999999993392499e-01 2.4810110521767327e-22 2.8923741739217685e-21  1.5000000003539246e-01 2.9129878115706344e-22 1.6503989370196293e-21  1.5000000003487218e-01 9.3720795466587777e-23 7.1039252391237593e-22  1.4999999997299546e-01 1.3952758624187568e-22 8.3268858548772394e-22  1.4999999998550487e-01 2.0281714099477809e-23 8.5177708544137629e-23  1.5000000001886657e-01 6.5768386443950537e-23 3.5082963142691042e-22  1.5000000000294009e-01 9.1291043125160589e-25 5.6997956232374367e-27  1.4999999998871374e-01 2.5923428881354005e-23 1.0635850763743564e-22  1.5000000000214669e-01 8.6828291413824796e-25 1.2485982231146840e-23  1.5000000000528704e-01 6.9911566119413413e-24 1.8048312023518225e-23  1.4999999999682503e-01 2.1931634838417035e-24 1.2563346208672064e-23  1.4999999999852920e-01 8.3517989734907049e-25 5.6136524273611465e-25  1.5000000000229016e-01 1.4549633000836562e-24 4.7315199049340264e-24  1.4999999999970676e-01 1.1747753864888789e-27 3.9659973823345226e-25  1.4999999999897284e-01 4.1086357694443570e-25 6.4366666848951404e-25  1.5000000000066735e-01 1.1404394342205512e-25 5.3379565337849180e-25  1.5000000000016500e-01 2.7470295392425262e-26 1.4914860974574157e-28  1.4999999999957672e-01 7.2471262795048807e-26 1.3796459898633805e-25  1.5000000000015953e-01 4.4282237298529591e-27 4.3572066804428902e-26  1.5000000000011460e-01 1.0094825953576820e-26 3.3638454706040423e-27  1.4999999999985247e-01 9.1825747767839474e-27 1.9176118592421333e-26  1.5000000000003755e-01 9.5873149396848296e-29 3.6519173675341193e-27  1.5000000000004676e-01 1.7936189371302070e-27 7.3681946628037324e-28  1.4999999999995070e-01 1.1196377600688711e-27 2.2601907701540531e-27  1.5000000000001218e-01 5.4810637412474988e-30 4.0817090353317246e-28  1.5000000000001529e-01 2.3288393526547379e-28 6.1222305914898772e-29  1.4999999999998342e-01 1.5724935158326631e-28 2.4361733064407774e-28  1.5000000000000560e-01 2.8082973365337677e-30 6.4856186781181125e-29  1.5000000000000388e-01 2.0815784433774125e-29 9.4798722363815954e-31  1.4999999999999472e-01 2.2133702811997873e-29 1.8221111892397095e-29  1.5000000000000260e-01 1.6985350387295942e-30 8.4099533857955682e-30  1.5000000000000036e-01 8.3313852916200205e-31 3.5538855873446864e-31  1.4999999999999858e-01 1.8252967882908128e-30 1.3102151563872157e-30  1.5000000000000116e-01 1.1453680260681057e-30 9.1477068669503275e-31  1.4999999999999983e-01 1.8936324599608020e-31 5.4296904112878477e-31  1.5000000000000036e-01 1.9341741453534531e-31 3.3527001365913014e-32  1.5000000000000036e-01 1.1016676709157767e-31 2.0590920495609123e-31  1.4999999999999988e-01 1.9465757051331141e-31 1.2142699860687693e-31  1.5000000000000027e-01 1.0458828929093930e-31 4.3221274482999803e-35  1.4999999999999997e-01 1.2795581960408828e-31 1.1488496329788718e-32  1.5000000000000005e-01 2.6149940857527250e-32 5.8049224661416744e-32  1.5000000000000022e-01 9.3686706716715558e-32 3.1472467186071601e-33  1.5000000000000022e-01 4.2692621503075831e-32 2.3328705707048567e-32  1.5000000000000005e-01 1.7784391660274337e-31 2.1737497405735057e-33  1.5000000000000013e-01 2.1898942471696617e-32 6.6392299047298968e-34  1.5000000000000013e-01 9.4099733262413132e-33 9.5543975792722178e-32  1.5000000000000005e-01 2.9299126487550126e-32 9.9260244087033832e-33  1.4999999999999997e-01 2.7205511307823583e-32 2.2501413346004711e-32  1.5000000000000005e-01 4.9258356669511678e-33 5.4049946921552025e-33  1.5000000000000013e-01 1.4780623058656489e-31 3.0821949307114378e-32  1.5000000000000044e-01 3.1958687160461772e-32 1.7478861805880264e-32  1.5000000000000044e-01 8.7907354297132943e-33 4.1366263059133763e-32  1.5000000000000013e-01 6.9353103549284944e-32 7.2746610663698856e-33  1.5000000000000013e-01 1.4641460996451445e-32 1.5878024904686215e-31  1.5000000000000022e-01 4.1564692879753873e-32 2.5209006396192462e-34  1.5000000000000002e-01 3.1524272095857698e-33 4.2600548395083046e-33  1.5000000000000052e-01 6.4078490779440215e-33 2.3108128588355848e-34  1.5000000000000011e-01 0.0000000000000000e+00 3.8736302810288116e-34  1.5000000000000011e-01 0.0000000000000000e+00 1.8550368890298476e-32  1.5000000000000013e-01 7.6527735629882561e-33 3.3506085844484064e-32  1.5000000000000019e-01 1.1944571064396867e-31 8.7175606084693792e-33  1.5000000000000002e-01 2.9557698066907438e-33 1.6039458210625211e-33  1.5000000000000013e-01 5.7132968550852056e-32 1.2557302801204095e-31  1.5000000000000011e-01 2.2645431276348158e-32 1.1588826044253862e-33  1.4999999999999983e-01 4.2783245730549445e-34 7.8497430962177507e-33  1.4999999999999988e-01 1.2300716952405709e-31 4.6971391969974355e-31  1.5000000000000316e-01 6.1305187618452479e-30 1.2516955212365813e-29  1.5000000000001815e-01 1.6473399241882954e-28 4.9148488247336472e-28  1.5000000000007044e-01 1.1830055375371250e-27 8.7465249881011053e-27  1.5000000000020150e-01 1.4116473104829366e-27 7.9165120986198288e-26  1.5000000000038938e-01 2.7897228565325454e-27 3.3264180216814967e-25  1.5000000000050479e-01 8.8153246942412048e-26 6.4805513788885938e-25  1.5000000000070454e-01 4.2540817261966663e-26 9.2968668089192128e-25  1.5000000000327557e-01 8.9275998563909697e-24 1.1889570169376260e-23  1.5000000001776387e-01 2.5982601980421067e-22 3.8945666099425256e-22  1.5000000006715491e-01 2.1724835727787223e-21 6.2090573624932503e-21  1.5000000017978063e-01 7.6857272802738861e-21 4.7190256865603396e-20  1.5000000034430097e-01 9.5156640917523635e-21 1.7742097037421471e-19  1.5000000043657727e-01 6.4911036295998247e-24 2.8304592590582698e-19  1.5000000020397752e-01 5.6716339836495217e-20 5.2351224524073004e-20  1.4999999943498685e-01 2.7915133932136049e-19 5.5668454699782830e-19  1.4999999829610947e-01 3.8830002904431180e-19 4.6483926877582759e-18  1.4999999748351711e-01 1.0409995395188107e-19 9.6210653855976515e-18  1.4999999776226958e-01 7.2237992190472712e-20 6.9970823070387288e-18  1.4999999913418485e-01 5.6230709065841496e-19 7.3808890693902370e-19  1.5000000065166130e-01 5.9632210849754759e-19 1.0147033286842404e-18  1.5000000133086350e-01 1.2854204172209064e-19 3.0444476579921031e-18  1.5000000105729841e-01 2.4375522612662061e-20 1.6742444640855790e-18  1.5000000034383623e-01 1.8550536489537837e-19 1.2409165672431594e-19  1.4999999964085001e-01 1.1679573393388463e-19 2.6990873444073541e-19  1.4999999932103814e-01 6.4462784250190822e-22 7.6601413030417886e-19  1.4999999969962993e-01 5.0171066119872642e-20 1.1961621161115081e-19  1.5000000040902361e-01 3.7169434696008238e-20 3.1401100490420573e-19  1.5000000050292056e-01 1.1202177995785921e-21 4.0499223075869340e-19  1.4999999986896850e-01 2.6580742056502851e-20 4.0195096091394891e-20  1.4999999954822676e-01 3.5534134076006663e-21 3.4147661906880568e-19  1.4999999999392372e-01 8.8129429671084299e-21 2.2830386926111497e-22  1.5000000033471339e-01 6.0647583451817684e-21 1.9054977251809477e-19  1.5000000003837988e-01 2.0378141211112597e-21 1.1389802188451471e-21  1.4999999977140160e-01 4.3137522577959384e-21 8.8996019232732500e-20  1.4999999997568603e-01 4.6373197709391855e-22 4.2164008911608017e-22  1.5000000014890894e-01 2.2401392099827413e-21 3.7336688400692145e-20  1.5000000000118066e-01 1.7232514509321869e-22 3.3625168221578462e-23  1.4999999990854260e-01 9.6824495279476936e-22 1.3749645120956530e-20  1.5000000001501473e-01 1.2043504254406956e-22 5.7326173532872911e-22  1.5000000005060188e-01 3.4187975298328808e-22 4.0392591538474349e-21  1.4999999997917876e-01 1.0113441561474415e-22 8.5519101877450395e-22  1.4999999997699526e-01 8.5174256077007327e-23 7.7209626141636297e-22  1.5000000001857153e-01 7.0941206304748964e-23 6.1283189785640697e-22  1.5000000000649455e-01 9.2801967945823582e-24 4.7604200730646743e-23  1.4999999998758914e-01 3.5119321164785725e-23 2.5221937771734718e-22  1.5000000000130984e-01 1.3141904085439079e-25 6.3703313725679979e-24  1.5000000000603975e-01 1.0467746107060398e-23 5.3686299393153843e-23  1.4999999999667341e-01 2.4318124652468867e-24 2.0762257204753977e-23  1.4999999999839647e-01 1.2122679418759624e-24 2.7661347395923985e-24  1.5000000000249131e-01 1.9034581948863966e-24 9.9220527504472756e-24  1.4999999999955313e-01 8.5087496898411090e-27 5.9611482731967329e-25  1.4999999999897456e-01 4.8219482158252396e-25 1.3780072204432383e-24  1.5000000000079217e-01 1.8656132966291218e-25 1.0844838830219815e-24  1.5000000000005775e-01 1.4213110127175903e-26 4.1744505699381822e-28  1.4999999999957328e-01 8.8947206118297635e-26 2.5219246556457049e-25  1.5000000000023514e-01 1.5258438342982720e-26 1.0393666769297932e-25  1.5000000000005986e-01 5.5504369239260214e-27 1.4114790920127888e-27  1.4999999999984606e-01 1.2732491060286485e-26 3.2839293818529677e-26  1.5000000000007607e-01 1.5824263473583082e-27 1.1198009904182173e-26  1.5000000000002151e-01 8.4971637480264335e-28 1.5941610658230461e-28  1.4999999999994798e-01 1.7058766640512651e-27 3.5212878520319102e-27  1.5000000000002855e-01 2.6330023898696759e-28 1.4981609756609719e-27  1.5000000000000316e-01 6.0912145468658908e-29 1.1014502786723440e-30  1.4999999999998409e-01 2.1226851040474856e-28 2.9311833739527871e-28  1.5000000000001176e-01 6.2228463279100033e-29 2.0189249731062295e-28  1.4999999999999855e-01 1.7771182822572401e-31 1.4676358176102585e-29  1.4999999999999650e-01 1.8609072482724767e-29 1.2685032293313085e-29  1.5000000000000430e-01 1.2449980006775503e-29 1.8313388973957139e-29  1.4999999999999833e-01 1.6422931069558324e-30 6.9311603680957971e-30  1.5000000000000013e-01 6.4832492171245922e-31 5.2084575756435812e-33  1.5000000000000099e-01 1.1409691050474751e-30 9.7144067341300024e-31  1.4999999999999911e-01 9.8554845570009114e-31 1.0984161292491400e-30  1.5000000000000061e-01 2.9268573317196796e-31 2.0441650587706964e-31  1.5000000000000005e-01 6.3595400850821843e-33 1.9167542541265721e-31  1.4999999999