<?xml version="1.0"?>
<VTKFile type="UnstructuredGrid"  version="0.1"  >
<UnstructuredGrid>
<Piece  NumberOfPoints="10201" NumberOfCells="20000">
<Points>
<DataArray  type="Float64"  NumberOfComponents="3"  format="ascii">-5 -5 0  -4.9 -5 0  -4.8 -5 0  -4.7 -5 0  -4.6 -5 0  -4.5 -5 0  -4.4 -5 0  -4.3 -5 0  -4.2 -5 0  -4.1 -5 0  -4 -5 0  -3.9 -5 0  -3.8 -5 0  -3.7 -5 0  -3.6 -5 0  -3.5 -5 0  -3.4 -5 0  -3.3 -5 0  -3.2 -5 0  -3.1 -5 0  -3 -5 0  -2.9 -5 0  -2.8 -5 0  -2.7 -5 0  -2.6 -5 0  -2.5 -5 0  -2.4 -5 0  -2.3 -5 0  -2.2 -5 0  -2.1 -5 0  -2 -5 0  -1.9 -5 0  -1.8 -5 0  -1.7 -5 0  -1.6 -5 0  -1.5 -5 0  -1.4 -5 0  -1.3 -5 0  -1.2 -5 0  -1.1 -5 0  -1 -5 0  -0.9000000000000004 -5 0  -0.7999999999999998 -5 0  -0.7000000000000002 -5 0  -0.5999999999999996 -5 0  -0.5 -5 0  -0.4000000000000004 -5 0  -0.2999999999999998 -5 0  -0.2000000000000002 -5 0  -0.09999999999999964 -5 0  0 -5 0  0.09999999999999964 -5 0  0.2000000000000002 -5 0  0.2999999999999998 -5 0  0.4000000000000004 -5 0  0.5 -5 0  0.5999999999999996 -5 0  0.7000000000000002 -5 0  0.7999999999999998 -5 0  0.9000000000000004 -5 0  1 -5 0  1.1 -5 0  1.2 -5 0  1.3 -5 0  1.4 -5 0  1.5 -5 0  1.6 -5 0  1.7 -5 0  1.8 -5 0  1.9 -5 0  2 -5 0  2.1 -5 0  2.2 -5 0  2.3 -5 0  2.4 -5 0  2.5 -5 0  2.6 -5 0  2.7 -5 0  2.8 -5 0  2.9 -5 0  3 -5 0  3.1 -5 0  3.199999999999999 -5 0  3.300000000000001 -5 0  3.4 -5 0  3.5 -5 0  3.6 -5 0  3.699999999999999 -5 0  3.800000000000001 -5 0  3.9 -5 0  4 -5 0  4.1 -5 0  4.199999999999999 -5 0  4.300000000000001 -5 0  4.4 -5 0  4.5 -5 0  4.6 -5 0  4.699999999999999 -5 0  4.800000000000001 -5 0  4.9 -5 0  5 -5 0  -5 -4.9 0  -4.9 -4.9 0  -4.8 -4.9 0  -4.7 -4.9 0  -4.6 -4.9 0  -4.5 -4.9 0  -4.4 -4.9 0  -4.3 -4.9 0  -4.2 -4.9 0  -4.1 -4.9 0  -4 -4.9 0  -3.9 -4.9 0  -3.8 -4.9 0  -3.7 -4.9 0  -3.6 -4.9 0  -3.5 -4.9 0  -3.4 -4.9 0  -3.3 -4.9 0  -3.2 -4.9 0  -3.1 -4.9 0  -3 -4.9 0  -2.9 -4.9 0  -2.8 -4.9 0  -2.7 -4.9 0  -2.6 -4.9 0  -2.5 -4.9 0  -2.4 -4.9 0  -2.3 -4.9 0  -2.2 -4.9 0  -2.1 -4.9 0  -2 -4.9 0  -1.9 -4.9 0  -1.8 -4.9 0  -1.7 -4.9 0  -1.6 -4.9 0  -1.5 -4.9 0  -1.4 -4.9 0  -1.3 -4.9 0  -1.2 -4.9 0  -1.1 -4.9 0  -1 -4.9 0  -0.9000000000000004 -4.9 0  -0.7999999999999998 -4.9 0  -0.7000000000000002 -4.9 0  -0.5999999999999996 -4.9 0  -0.5 -4.9 0  -0.4000000000000004 -4.9 0  -0.2999999999999998 -4.9 0  -0.2000000000000002 -4.9 0  -0.09999999999999964 -4.9 0  0 -4.9 0  0.09999999999999964 -4.9 0  0.2000000000000002 -4.9 0  0.2999999999999998 -4.9 0  0.4000000000000004 -4.9 0  0.5 -4.9 0  0.5999999999999996 -4.9 0  0.7000000000000002 -4.9 0  0.7999999999999998 -4.9 0  0.9000000000000004 -4.9 0  1 -4.9 0  1.1 -4.9 0  1.2 -4.9 0  1.3 -4.9 0  1.4 -4.9 0  1.5 -4.9 0  1.6 -4.9 0  1.7 -4.9 0  1.8 -4.9 0  1.9 -4.9 0  2 -4.9 0  2.1 -4.9 0  2.2 -4.9 0  2.3 -4.9 0  2.4 -4.9 0  2.5 -4.9 0  2.6 -4.9 0  2.7 -4.9 0  2.8 -4.9 0  2.9 -4.9 0  3 -4.9 0  3.1 -4.9 0  3.199999999999999 -4.9 0  3.300000000000001 -4.9 0  3.4 -4.9 0  3.5 -4.9 0  3.6 -4.9 0  3.699999999999999 -4.9 0  3.800000000000001 -4.9 0  3.9 -4.9 0  4 -4.9 0  4.1 -4.9 0  4.199999999999999 -4.9 0  4.300000000000001 -4.9 0  4.4 -4.9 0  4.5 -4.9 0  4.6 -4.9 0  4.699999999999999 -4.9 0  4.800000000000001 -4.9 0  4.9 -4.9 0  5 -4.9 0  -5 -4.8 0  -4.9 -4.8 0  -4.8 -4.8 0  -4.7 -4.8 0  -4.6 -4.8 0  -4.5 -4.8 0  -4.4 -4.8 0  -4.3 -4.8 0  -4.2 -4.8 0  -4.1 -4.8 0  -4 -4.8 0  -3.9 -4.8 0  -3.8 -4.8 0  -3.7 -4.8 0  -3.6 -4.8 0  -3.5 -4.8 0  -3.4 -4.8 0  -3.3 -4.8 0  -3.2 -4.8 0  -3.1 -4.8 0  -3 -4.8 0  -2.9 -4.8 0  -2.8 -4.8 0  -2.7 -4.8 0  -2.6 -4.8 0  -2.5 -4.8 0  -2.4 -4.8 0  -2.3 -4.8 0  -2.2 -4.8 0  -2.1 -4.8 0  -2 -4.8 0  -1.9 -4.8 0  -1.8 -4.8 0  -1.7 -4.8 0  -1.6 -4.8 0  -1.5 -4.8 0  -1.4 -4.8 0  -1.3 -4.8 0  -1.2 -4.8 0  -1.1 -4.8 0  -1 -4.8 0  -0.9000000000000004 -4.8 0  -0.7999999999999998 -4.8 0  -0.7000000000000002 -4.8 0  -0.5999999999999996 -4.8 0  -0.5 -4.8 0  -0.4000000000000004 -4.8 0  -0.2999999999999998 -4.8 0  -0.2000000000000002 -4.8 0  -0.09999999999999964 -4.8 0  0 -4.8 0  0.09999999999999964 -4.8 0  0.2000000000000002 -4.8 0  0.2999999999999998 -4.8 0  0.4000000000000004 -4.8 0  0.5 -4.8 0  0.5999999999999996 -4.8 0  0.7000000000000002 -4.8 0  0.7999999999999998 -4.8 0  0.9000000000000004 -4.8 0  1 -4.8 0  1.1 -4.8 0  1.2 -4.8 0  1.3 -4.8 0  1.4 -4.8 0  1.5 -4.8 0  1.6 -4.8 0  1.7 -4.8 0  1.8 -4.8 0  1.9 -4.8 0  2 -4.8 0  2.1 -4.8 0  2.2 -4.8 0  2.3 -4.8 0  2.4 -4.8 0  2.5 -4.8 0  2.6 -4.8 0  2.7 -4.8 0  2.8 -4.8 0  2.9 -4.8 0  3 -4.8 0  3.1 -4.8 0  3.199999999999999 -4.8 0  3.300000000000001 -4.8 0  3.4 -4.8 0  3.5 -4.8 0  3.6 -4.8 0  3.699999999999999 -4.8 0  3.800000000000001 -4.8 0  3.9 -4.8 0  4 -4.8 0  4.1 -4.8 0  4.199999999999999 -4.8 0  4.300000000000001 -4.8 0  4.4 -4.8 0  4.5 -4.8 0  4.6 -4.8 0  4.699999999999999 -4.8 0  4.800000000000001 -4.8 0  4.9 -4.8 0  5 -4.8 0  -5 -4.7 0  -4.9 -4.7 0  -4.8 -4.7 0  -4.7 -4.7 0  -4.6 -4.7 0  -4.5 -4.7 0  -4.4 -4.7 0  -4.3 -4.7 0  -4.2 -4.7 0  -4.1 -4.7 0  -4 -4.7 0  -3.9 -4.7 0  -3.8 -4.7 0  -3.7 -4.7 0  -3.6 -4.7 0  -3.5 -4.7 0  -3.4 -4.7 0  -3.3 -4.7 0  -3.2 -4.7 0  -3.1 -4.7 0  -3 -4.7 0  -2.9 -4.7 0  -2.8 -4.7 0  -2.7 -4.7 0  -2.6 -4.7 0  -2.5 -4.7 0  -2.4 -4.7 0  -2.3 -4.7 0  -2.2 -4.7 0  -2.1 -4.7 0  -2 -4.7 0  -1.9 -4.7 0  -1.8 -4.7 0  -1.7 -4.7 0  -1.6 -4.7 0  -1.5 -4.7 0  -1.4 -4.7 0  -1.3 -4.7 0  -1.2 -4.7 0  -1.1 -4.7 0  -1 -4.7 0  -0.9000000000000004 -4.7 0  -0.7999999999999998 -4.7 0  -0.7000000000000002 -4.7 0  -0.5999999999999996 -4.7 0  -0.5 -4.7 0  -0.4000000000000004 -4.7 0  -0.2999999999999998 -4.7 0  -0.2000000000000002 -4.7 0  -0.09999999999999964 -4.7 0  0 -4.7 0  0.09999999999999964 -4.7 0  0.2000000000000002 -4.7 0  0.2999999999999998 -4.7 0  0.4000000000000004 -4.7 0  0.5 -4.7 0  0.5999999999999996 -4.7 0  0.7000000000000002 -4.7 0  0.7999999999999998 -4.7 0  0.9000000000000004 -4.7 0  1 -4.7 0  1.1 -4.7 0  1.2 -4.7 0  1.3 -4.7 0  1.4 -4.7 0  1.5 -4.7 0  1.6 -4.7 0  1.7 -4.7 0  1.8 -4.7 0  1.9 -4.7 0  2 -4.7 0  2.1 -4.7 0  2.2 -4.7 0  2.3 -4.7 0  2.4 -4.7 0  2.5 -4.7 0  2.6 -4.7 0  2.7 -4.7 0  2.8 -4.7 0  2.9 -4.7 0  3 -4.7 0  3.1 -4.7 0  3.199999999999999 -4.7 0  3.300000000000001 -4.7 0  3.4 -4.7 0  3.5 -4.7 0  3.6 -4.7 0  3.699999999999999 -4.7 0  3.800000000000001 -4.7 0  3.9 -4.7 0  4 -4.7 0  4.1 -4.7 0  4.199999999999999 -4.7 0  4.300000000000001 -4.7 0  4.4 -4.7 0  4.5 -4.7 0  4.6 -4.7 0  4.699999999999999 -4.7 0  4.800000000000001 -4.7 0  4.9 -4.7 0  5 -4.7 0  -5 -4.6 0  -4.9 -4.6 0  -4.8 -4.6 0  -4.7 -4.6 0  -4.6 -4.6 0  -4.5 -4.6 0  -4.4 -4.6 0  -4.3 -4.6 0  -4.2 -4.6 0  -4.1 -4.6 0  -4 -4.6 0  -3.9 -4.6 0  -3.8 -4.6 0  -3.7 -4.6 0  -3.6 -4.6 0  -3.5 -4.6 0  -3.4 -4.6 0  -3.3 -4.6 0  -3.2 -4.6 0  -3.1 -4.6 0  -3 -4.6 0  -2.9 -4.6 0  -2.8 -4.6 0  -2.7 -4.6 0  -2.6 -4.6 0  -2.5 -4.6 0  -2.4 -4.6 0  -2.3 -4.6 0  -2.2 -4.6 0  -2.1 -4.6 0  -2 -4.6 0  -1.9 -4.6 0  -1.8 -4.6 0  -1.7 -4.6 0  -1.6 -4.6 0  -1.5 -4.6 0  -1.4 -4.6 0  -1.3 -4.6 0  -1.2 -4.6 0  -1.1 -4.6 0  -1 -4.6 0  -0.9000000000000004 -4.6 0  -0.7999999999999998 -4.6 0  -0.7000000000000002 -4.6 0  -0.5999999999999996 -4.6 0  -0.5 -4.6 0  -0.4000000000000004 -4.6 0  -0.2999999999999998 -4.6 0  -0.2000000000000002 -4.6 0  -0.09999999999999964 -4.6 0  0 -4.6 0  0.09999999999999964 -4.6 0  0.2000000000000002 -4.6 0  0.2999999999999998 -4.6 0  0.4000000000000004 -4.6 0  0.5 -4.6 0  0.5999999999999996 -4.6 0  0.7000000000000002 -4.6 0  0.7999999999999998 -4.6 0  0.9000000000000004 -4.6 0  1 -4.6 0  1.1 -4.6 0  1.2 -4.6 0  1.3 -4.6 0  1.4 -4.6 0  1.5 -4.6 0  1.6 -4.6 0  1.7 -4.6 0  1.8 -4.6 0  1.9 -4.6 0  2 -4.6 0  2.1 -4.6 0  2.2 -4.6 0  2.3 -4.6 0  2.4 -4.6 0  2.5 -4.6 0  2.6 -4.6 0  2.7 -4.6 0  2.8 -4.6 0  2.9 -4.6 0  3 -4.6 0  3.1 -4.6 0  3.199999999999999 -4.6 0  3.300000000000001 -4.6 0  3.4 -4.6 0  3.5 -4.6 0  3.6 -4.6 0  3.699999999999999 -4.6 0  3.800000000000001 -4.6 0  3.9 -4.6 0  4 -4.6 0  4.1 -4.6 0  4.199999999999999 -4.6 0  4.300000000000001 -4.6 0  4.4 -4.6 0  4.5 -4.6 0  4.6 -4.6 0  4.699999999999999 -4.6 0  4.800000000000001 -4.6 0  4.9 -4.6 0  5 -4.6 0  -5 -4.5 0  -4.9 -4.5 0  -4.8 -4.5 0  -4.7 -4.5 0  -4.6 -4.5 0  -4.5 -4.5 0  -4.4 -4.5 0  -4.3 -4.5 0  -4.2 -4.5 0  -4.1 -4.5 0  -4 -4.5 0  -3.9 -4.5 0  -3.8 -4.5 0  -3.7 -4.5 0  -3.6 -4.5 0  -3.5 -4.5 0  -3.4 -4.5 0  -3.3 -4.5 0  -3.2 -4.5 0  -3.1 -4.5 0  -3 -4.5 0  -2.9 -4.5 0  -2.8 -4.5 0  -2.7 -4.5 0  -2.6 -4.5 0  -2.5 -4.5 0  -2.4 -4.5 0  -2.3 -4.5 0  -2.2 -4.5 0  -2.1 -4.5 0  -2 -4.5 0  -1.9 -4.5 0  -1.8 -4.5 0  -1.7 -4.5 0  -1.6 -4.5 0  -1.5 -4.5 0  -1.4 -4.5 0  -1.3 -4.5 0  -1.2 -4.5 0  -1.1 -4.5 0  -1 -4.5 0  -0.9000000000000004 -4.5 0  -0.7999999999999998 -4.5 0  -0.7000000000000002 -4.5 0  -0.5999999999999996 -4.5 0  -0.5 -4.5 0  -0.4000000000000004 -4.5 0  -0.2999999999999998 -4.5 0  -0.2000000000000002 -4.5 0  -0.09999999999999964 -4.5 0  0 -4.5 0  0.09999999999999964 -4.5 0  0.2000000000000002 -4.5 0  0.2999999999999998 -4.5 0  0.4000000000000004 -4.5 0  0.5 -4.5 0  0.5999999999999996 -4.5 0  0.7000000000000002 -4.5 0  0.7999999999999998 -4.5 0  0.9000000000000004 -4.5 0  1 -4.5 0  1.1 -4.5 0  1.2 -4.5 0  1.3 -4.5 0  1.4 -4.5 0  1.5 -4.5 0  1.6 -4.5 0  1.7 -4.5 0  1.8 -4.5 0  1.9 -4.5 0  2 -4.5 0  2.1 -4.5 0  2.2 -4.5 0  2.3 -4.5 0  2.4 -4.5 0  2.5 -4.5 0  2.6 -4.5 0  2.7 -4.5 0  2.8 -4.5 0  2.9 -4.5 0  3 -4.5 0  3.1 -4.5 0  3.199999999999999 -4.5 0  3.300000000000001 -4.5 0  3.4 -4.5 0  3.5 -4.5 0  3.6 -4.5 0  3.699999999999999 -4.5 0  3.800000000000001 -4.5 0  3.9 -4.5 0  4 -4.5 0  4.1 -4.5 0  4.199999999999999 -4.5 0  4.300000000000001 -4.5 0  4.4 -4.5 0  4.5 -4.5 0  4.6 -4.5 0  4.699999999999999 -4.5 0  4.800000000000001 -4.5 0  4.9 -4.5 0  5 -4.5 0  -5 -4.4 0  -4.9 -4.4 0  -4.8 -4.4 0  -4.7 -4.4 0  -4.6 -4.4 0  -4.5 -4.4 0  -4.4 -4.4 0  -4.3 -4.4 0  -4.2 -4.4 0  -4.1 -4.4 0  -4 -4.4 0  -3.9 -4.4 0  -3.8 -4.4 0  -3.7 -4.4 0  -3.6 -4.4 0  -3.5 -4.4 0  -3.4 -4.4 0  -3.3 -4.4 0  -3.2 -4.4 0  -3.1 -4.4 0  -3 -4.4 0  -2.9 -4.4 0  -2.8 -4.4 0  -2.7 -4.4 0  -2.6 -4.4 0  -2.5 -4.4 0  -2.4 -4.4 0  -2.3 -4.4 0  -2.2 -4.4 0  -2.1 -4.4 0  -2 -4.4 0  -1.9 -4.4 0  -1.8 -4.
[...]
<PointData  Vectors="f_23"> 
<DataArray  type="Float64"  Name="f_23"  NumberOfComponents="3" format="ascii">1.5002362688555249e-01 0.0000000000000000e+00 0.0000000000000000e+00  1.5000182767495665e-01 3.3780426346318883e-10 0.0000000000000000e+00  1.5003793553340902e-01 1.6520798441144128e-16 0.0000000000000000e+00  1.5003187698994810e-01 1.1619198975808464e-09 0.0000000000000000e+00  1.5007821648841232e-01 1.9009850399726525e-10 0.0000000000000000e+00  1.5008505418080503e-01 2.7991638916724275e-09 0.0000000000000000e+00  1.5013976011608085e-01 8.6588238904639311e-10 0.0000000000000000e+00  1.5014720604802664e-01 3.5963894003111606e-09 0.0000000000000000e+00  1.5018718057737737e-01 5.4963854105827273e-10 0.0000000000000000e+00  1.5016975993839365e-01 9.7931937477289208e-10 0.0000000000000000e+00  1.5017147107814593e-01 3.3408453959625243e-10 0.0000000000000000e+00  1.5012557731744924e-01 4.6967136695140145e-10 0.0000000000000000e+00  1.5010965793172171e-01 3.2014856680831560e-09 0.0000000000000000e+00  1.5007622719588809e-01 1.6966263112474374e-09 0.0000000000000000e+00  1.5007940006317627e-01 1.8288889896215555e-09 0.0000000000000000e+00  1.5006980734565881e-01 2.9892822263874963e-10 0.0000000000000000e+00  1.5006871299952476e-01 3.9286147147175553e-10 0.0000000000000000e+00  1.5003678182402727e-01 2.4953912446751440e-10 0.0000000000000000e+00  1.5000472962880462e-01 8.3133040451240216e-10 0.0000000000000000e+00  1.4997052650102285e-01 7.2354467730873099e-10 0.0000000000000000e+00  1.4996007513511078e-01 3.8269554870391904e-10 0.0000000000000000e+00  1.4996736223350615e-01 2.6520894437037386e-12 0.0000000000000000e+00  1.4999366256493288e-01 3.0252340399071431e-10 0.0000000000000000e+00  1.5001246688120870e-01 8.5625827851384749e-10 0.0000000000000000e+00  1.5001322085633698e-01 5.7241858525804300e-10 0.0000000000000000e+00  1.4999423070737597e-01 4.1405984283601517e-12 0.0000000000000000e+00  1.4996604025485472e-01 7.6123535419094874e-10 0.0000000000000000e+00  1.4995188941029777e-01 3.5404496103148520e-10 0.0000000000000000e+00  1.4997906909737382e-01 1.0914613611667368e-10 0.0000000000000000e+00  1.5002103537453246e-01 6.0583876017383253e-10 0.0000000000000000e+00  1.5003016476262979e-01 4.0132234152784059e-10 0.0000000000000000e+00  1.5001733173311024e-01 3.3861543578807923e-11 0.0000000000000000e+00  1.5000788834313258e-01 3.8946154347316947e-10 0.0000000000000000e+00  1.4998797419641294e-01 1.0475916239039842e-09 0.0000000000000000e+00  1.4998270293360896e-01 2.5523289165384532e-11 0.0000000000000000e+00  1.5002725148045706e-01 7.6461866364406046e-10 0.0000000000000000e+00  1.5004724223354785e-01 2.6947829514790609e-10 0.0000000000000000e+00  1.4998809515793643e-01 4.2476026267831876e-10 0.0000000000000000e+00  1.4995456061464360e-01 9.1033315340707792e-10 0.0000000000000000e+00  1.5000490970535349e-01 3.2019068659046042e-12 0.0000000000000000e+00  1.5003676689572021e-01 1.0873040388289078e-09 0.0000000000000000e+00  1.5000508405442994e-01 1.3824749564824673e-10 0.0000000000000000e+00  1.4997828311398523e-01 1.1428940233625166e-09 0.0000000000000000e+00  1.4998639325293744e-01 3.5908773978403174e-10 0.0000000000000000e+00  1.5001186446573400e-01 1.1437203021845937e-09 0.0000000000000000e+00  1.5002170929031922e-01 3.3134056987951589e-10 0.0000000000000000e+00  1.4998965904782183e-01 1.1438543938532791e-09 0.0000000000000000e+00  1.4997477931487843e-01 1.3040745088377360e-10 0.0000000000000000e+00  1.5001609481290767e-01 1.0271473663089214e-09 0.0000000000000000e+00  1.5002055560615940e-01 1.3116867971209549e-12 0.0000000000000000e+00  1.4997682437523549e-01 7.2185778466584879e-10 0.0000000000000000e+00  1.4999206660132602e-01 8.3377912523816166e-11 0.0000000000000000e+00  1.5002446235648001e-01 3.1745872968585804e-10 0.0000000000000000e+00  1.4999251352036996e-01 2.5480950146575833e-10 0.0000000000000000e+00  1.4998345269185012e-01 3.9877251546689624e-11 0.0000000000000000e+00  1.5001797533780811e-01 2.8799110531439622e-10 0.0000000000000000e+00  1.5000235626113348e-01 2.0776558679855921e-11 0.0000000000000000e+00  1.4998177106535693e-01 1.4526496939383756e-10 0.0000000000000000e+00  1.5001075458369409e-01 1.2923800354713875e-10 0.0000000000000000e+00  1.5000915694967326e-01 1.3090990434061656e-11 0.0000000000000000e+00  1.4998403265746377e-01 1.4732024556148771e-10 0.0000000000000000e+00  1.5000283164547021e-01 1.9227740803932529e-11 0.0000000000000000e+00  1.5001170728039617e-01 5.6109741985936166e-11 0.0000000000000000e+00  1.4998981645341544e-01 6.7564457066159319e-11 0.0000000000000000e+00  1.4999729616418797e-01 1.0566805174409214e-12 0.0000000000000000e+00  1.5001001006742717e-01 5.4332465047342729e-11 0.0000000000000000e+00  1.4999508255280772e-01 1.7578699059002584e-11 0.0000000000000000e+00  1.4999601297776194e-01 6.9064719016694977e-12 0.0000000000000000e+00  1.5000622985235218e-01 2.1232832250864878e-11 0.0000000000000000e+00  1.4999873256049687e-01 6.5694402457037461e-13 0.0000000000000000e+00  1.4999613831223868e-01 1.0732575040992074e-11 0.0000000000000000e+00  1.5000409787284177e-01 1.1974889270471079e-11 0.0000000000000000e+00  1.4999920866860203e-01 6.1601386738159005e-13 0.0000000000000000e+00  1.4999824594329861e-01 1.4370566643782748e-12 0.0000000000000000e+00  1.5000140851181590e-01 5.7510754540056435e-13 0.0000000000000000e+00  1.5000056546428447e-01 9.2884479583317990e-13 0.0000000000000000e+00  1.4999810639851799e-01 4.0735603866618480e-12 0.0000000000000000e+00  1.5000168728899671e-01 2.9597057169224263e-12 0.0000000000000000e+00  1.4999931321111287e-01 6.4394026978470958e-13 0.0000000000000000e+00  1.5000000162208799e-01 6.3048970780669906e-14 0.0000000000000000e+00  1.4999995168114758e-01 1.3968875049826264e-13 0.0000000000000000e+00  1.5000049576635205e-01 6.5175599103428714e-13 0.0000000000000000e+00  1.4999916616025330e-01 1.1581977172321056e-12 0.0000000000000000e+00  1.5000084038693745e-01 1.0276885610037046e-12 0.0000000000000000e+00  1.4999937316628717e-01 5.8963971008902745e-13 0.0000000000000000e+00  1.5000041602285177e-01 3.1866648427167041e-13 0.0000000000000000e+00  1.4999966206940996e-01 2.6340388082178665e-13 0.0000000000000000e+00  1.5000038189642281e-01 3.3574588624154618e-13 0.0000000000000000e+00  1.4999953412636033e-01 4.4691968039150022e-13 0.0000000000000000e+00  1.5000052007061690e-01 5.0794768900778572e-13 0.0000000000000000e+00  1.4999947551308052e-01 4.9245158065615782e-13 0.0000000000000000e+00  1.5000049569140200e-01 4.3800878327846312e-13 0.0000000000000000e+00  1.4999953749776962e-01 3.8883701942638538e-13 0.0000000000000000e+00  1.5000043601625310e-01 3.5602246391737882e-13 0.0000000000000000e+00  1.4999957463804667e-01 3.3524774795383322e-13 0.0000000000000000e+00  1.5000040059650205e-01 2.9714127129354015e-13 0.0000000000000000e+00  1.4999960285605554e-01 2.5448992310949998e-13 0.0000000000000000e+00  1.5000032101402697e-01 1.5707749884055766e-13 0.0000000000000000e+00  1.4999963022512591e-01 1.1070727014184102e-13 0.0000000000000000e+00  1.5000017849833155e-01 2.2693136567563254e-14 0.0000000000000000e+00  1.4999956619986360e-01 0.0000000000000000e+00 0.0000000000000000e+00  1.5000182767495687e-01 0.0000000000000000e+00 3.3780426347795736e-10  1.4997880872365277e-01 1.8739051870719078e-14 1.8739051997981593e-14  1.4998619447831293e-01 3.9424835054644084e-10 3.8495610209416140e-10  1.4995406891257740e-01 5.3024783017770124e-11 3.0512692117839906e-10  1.4995051286859840e-01 1.3631681909145486e-09 1.5574593847607181e-09  1.4990392884165632e-01 5.7024840116737009e-10 1.8408522195041942e-09  1.4989108969403536e-01 2.9904057220165222e-09 4.7130054732800941e-09  1.4984005958780469e-01 1.2571561021427107e-09 4.7204065511516827e-09  1.4983520111109841e-01 2.8485349127349673e-09 7.4739478088529662e-09  1.4980677478099302e-01 3.0784504750134013e-10 4.9987400656611194e-09  1.4983302907786170e-01 2.0657318168547768e-10 5.0520784020562665e-09  1.4984121927473631e-01 8.6509541096219672e-10 1.8143654233523873e-09  1.4988695116847703e-01 1.1126221604413647e-09 1.5594265549842014e-09  1.4989897444794845e-01 3.0847380982003909e-09 4.8059132459249495e-10  1.4992437316455784e-01 1.3871039498037695e-09 9.8121710889994119e-10  1.4991852489469476e-01 1.2182070806513825e-09 5.9869356002395853e-10  1.4993207156976238e-01 3.1731411164837732e-10 7.5054134823226767e-10  1.4994421289648396e-01 5.8807282450385437e-10 6.0555231936505341e-11  1.4998292177808198e-01 5.4395365802917647e-10 2.2674498218780667e-11  1.5001157961642331e-01 9.3517440924497517e-10 3.9608181421361915e-10  1.5003498285128128e-01 4.4115281871449972e-10 2.4677157059244219e-10  1.5003355011683758e-01 4.8391607523409542e-11 6.5192694693203023e-11  1.5001838693557965e-01 1.4450864638138835e-10 3.5310960237977494e-11  1.4999548591253792e-01 4.7386946334659689e-10 1.0018696382681287e-10  1.4998989851742897e-01 6.3472168750820302e-10 1.9339964762979380e-11  1.5000032835368185e-01 9.1132384731675185e-11 1.4269119632333161e-10  1.5002290225964163e-01 2.8180043655012812e-10 6.8250347097805662e-10  1.5004329538651176e-01 5.5101774392936153e-10 8.0888739203330729e-10  1.5003580453345847e-01 3.9994637080673683e-13 1.1611757423019771e-10  1.4999594622941043e-01 4.4938571957178079e-10 1.3762829880600019e-10  1.4997122106579189e-01 4.4159701813834361e-10 2.4735478541241121e-10  1.4998069158513225e-01 1.2937097042177008e-10 1.0780974854842754e-11  1.4999034784551404e-01 5.8700332835126716e-11 2.6039714080868063e-11  1.4999818713849714e-01 7.7841701920371691e-10 6.6410826101172311e-11  1.5001411914864066e-01 2.7937707325869643e-10 1.6875799079078007e-11  1.4999595344581770e-01 2.4456821125352920e-10 2.5365107963242110e-10  1.4995752984216268e-01 3.5885776071236369e-10 5.3710619313391427e-10  1.4998294269622872e-01 5.6085157856951695e-11 7.0638219312016366e-11  1.5003699602090381e-01 4.9362525380396046e-10 7.4713049131557575e-10  1.5001736267347515e-01 1.1480230693192907e-10 2.0100305090269043e-11  1.4997112773774629e-01 1.9881163042046527e-10 6.6500260960394202e-10  1.4998359046997486e-01 4.8932018642415978e-10 1.9837199999897707e-13  1.5001229881264963e-01 6.7346967696315165e-11 3.2718575677069745e-10  1.5001329016290252e-01 8.6441988673471469e-10 2.9432864243789086e-12  1.5000232152131243e-01 3.3885161959572411e-11 1.0718256875519594e-10  1.4998461391503112e-01 9.7282718829030115e-10 1.8122818829930861e-11  1.4998902057481062e-01 6.3296121060506356e-11 2.7003732504099161e-11  1.5002145265143582e-01 8.1038433349689901e-10 4.4280754159971079e-11  1.5001000659724695e-01 1.4955878526028372e-10 1.3187018718912215e-11  1.4997353278632644e-01 4.7434922159935440e-10 4.8346789801871653e-11  1.4999960763874051e-01 2.5782899869506966e-10 2.3742674192149238e-11  1.5002501856279851e-01 1.5726403679464857e-10 2.0047760445899733e-11  1.4998830414776793e-01 2.9819576713676714e-10 3.3788450044934490e-11  1.4998496174607670e-01 7.5964642145151159e-12 4.8439000093704808e-14  1.5001875443507132e-01 2.1882331842000312e-10 1.8539387202897287e-11  1.5000045827388739e-01 2.7793921038431891e-11 1.8857214601881937e-11  1.4998368211468455e-01 8.1862943086551295e-11 2.0186025894672118e-14  1.5001138510736284e-01 9.1987036045385324e-11 2.7680473410938885e-11  1.5000610241833673e-01 3.4594044280594407e-12 1.9944722919557271e-11  1.4998524988174411e-01 8.8343468201487821e-11 6.0582005279594079e-12  1.5000531599242053e-01 1.8546854286695314e-11 4.2616474452228272e-11  1.5000920024323283e-01 2.8603482938619600e-11 4.0652885995342169e-12  1.4998895731614520e-01 4.8479397877572680e-11 2.3313667859630719e-11  1.4999983760839739e-01 6.4005365660390557e-14 2.5098101296296708e-11  1.5000934609651589e-01 3.7565054664198477e-11 7.5917376360700074e-13  1.4999348876578833e-01 1.5623171732477090e-11 2.2940753133029731e-11  1.4999738083213265e-01 4.3440205199175137e-12 6.6465712790742554e-12  1.5000661815091451e-01 1.7520520809111231e-11 3.7348272800583114e-12  1.4999753746484137e-01 7.0279408597712173e-13 1.0551813235625002e-11  1.4999659376425112e-01 9.1848303349520409e-12 5.9889707202809680e-13  1.5000458393414484e-01 1.0271874556044618e-11 3.6974782602769629e-12  1.4999868224378157e-01 2.9012487577638677e-13 4.3988691099190682e-12  1.4999817407759328e-01 2.0192754460569383e-12 1.3478866058536371e-13  1.5000187731833253e-01 8.1377680692862421e-13 1.0041259937807262e-12  1.5000021394610757e-01 7.5154474648691967e-13 7.1018513359424484e-13  1.4999815907842276e-01 3.3604868481271320e-12 4.1836356667723615e-14  1.5000173189899929e-01 1.8442260382118243e-12 8.6642641617706190e-13  1.4999940124061745e-01 1.0799586369741004e-13 7.1297387516321252e-13  1.4999976196898337e-01 3.4258946047879021e-14 1.0292214982378295e-13  1.5000021483626125e-01 3.1310026787441186e-15 2.8009895274872708e-15  1.5000030538614281e-01 3.1503065718316070e-13 1.8693502545709222e-15  1.4999929465332243e-01 6.4235455992073775e-13 3.5838604499134144e-14  1.5000071116157401e-01 4.3690579067999236e-13 1.4358421823594241e-13  1.4999953747372927e-01 1.3787472674774385e-13 1.5952650711626167e-13  1.5000023212279356e-01 3.7630423381398312e-14 8.8125156670219646e-14  1.4999983196778829e-01 4.4237438094145642e-14 3.3524635819632139e-14  1.5000024252464803e-01 1.1198548177950617e-13 1.7251709379113242e-14  1.4999965091295203e-01 1.9696905786067000e-13 2.1249333974270889e-14  1.5000040901316347e-01 2.2782581771992806e-13 3.6121183891325730e-14  1.4999959113231914e-01 2.0221880070711064e-13 5.1809960006692888e-14  1.5000037815811310e-01 1.6587996793631532e-13 5.9239383408235846e-14  1.4999965132733484e-01 1.4623663369209065e-13 5.8225646071130713e-14  1.5000033578971178e-01 1.4354539754414004e-13 5.5128320073795060e-14  1.4999966951844745e-01 1.4265666929804794e-13 5.2941522309472970e-14  1.5000032680090017e-01 1.3211948552427091e-13 5.4626895357327289e-14  1.4999970254732212e-01 1.0168801522291509e-13 5.1896345571298274e-14  1.5000027546232905e-01 7.0188161188325949e-14 5.3075794145986434e-14  1.4999980933731910e-01 2.9681315030349968e-14 3.4100325151300176e-14  1.5000020375521694e-01 2.1852481819659986e-14 3.8453188536385307e-14  1.4999998615631768e-01 2.8562616257025501e-15 2.8562616120207975e-15  1.5000017849833130e-01 0.0000000000000000e+00 2.2693136437886543e-14  1.5003793553340869e-01 0.0000000000000000e+00 1.6520798529166682e-16  1.4998619447831313e-01 3.8495610208168359e-10 3.9424835051868665e-10  1.5004243175057319e-01 1.0542401016238001e-10 1.0542401016036081e-10  1.5001263332604001e-01 1.7480732983094068e-09 2.0153602272191780e-09  1.5007785274282609e-01 5.3153774417467065e-12 1.7189703929130061e-09  1.5006015926641531e-01 4.1631721436454092e-09 8.3982616506024257e-09  1.5014049470309118e-01 2.1939071356808771e-10 8.6404604183678891e-09  1.5012810026220449e-01 6.5145113162164363e-09 2.2223328610970961e-08  1.5020530589930731e-01 4.0725752405507445e-10 1.9264661436771449e-08  1.5017610975825660e-01 4.4205214306857785e-09 3.0487708880442601e-08  1.5021927384979833e-01 9.2445485130606157e-11 1.7585791500909615e-08  1.5015737217483596e-01 2.0133248132473285e-10 1.8409642187457645e-08  1.5016397792345701e-01 3.1687807346266222e-09 5.8324819569253624e-09  1.5009865871354672e-01 8.9063368746403170e-10 6.1972545970700379e-09  1.5010883835458516e-01 4.3644449131479330e-09 2.0078910209126649e-09  1.5007324574062370e-01 6.4189830787070056e-10 4.3674044201781680e-09  1.5009143714485548e-01 1.6682700422762367e-09 2.1698706801065791e-09  1.5005992914586136e-01 3.0166099615775829e-10 2.4182017374046307e-09  1.5004673049004616e-01 1.3851634989399710e-09 5.8648023137874001e-11  1.4999904893346294e-01 6.9572503411483480e-10 1.1004860486229901e-10  1.4998257711859886e-01 1.0878546069251302e-09 1.0989162395944538e-09  1.4996439262255581e-01 1.1343170841122671e-10 4.5229966500175645e-10  1.4997716788103302e-01 4.1674032648847997e-12 1.0009422689738269e-10  1.4999209261140498e-01 3.5888633813335463e-10 1.3096135461058107e-10  1.5000806776900844e-01 4.3962977263863974e-10 1.2186847558109225e-10  1.4999953305496391e-01 3.3408609952196103e-10 1.6808747305538351e-11  1.4998311891685273e-01 3.5347895578131011e-11 1.0536443985477025e-09  1.4996055085041166e-01 5.7806759401074481e-10 2.5765590318966450e-09  1.4995430767052395e-01 1.1553541875480816e-10 2.0336692275247085e-09  1.4998226639741050e-01 3.4130362753974957e-10 5.2869130448552532e-11  1.5002087493809979e-01 5.9991127964425605e-10 5.5681916488098696e-10  1.5002297304677739e-01 2.5525036763343815e-10 2.9364907141927102e-10  1.5000918481621220e-01 1.5439292717436453e-11 4.0974907994176420e-13  1.5000780873552533e-01 3.5293729334127780e-10 2.6191853169133496e-11  1.4999659390240230e-01 7.5556760093822399e-10 1.1965748817542076e-10  1.4999206630920989e-01 3.8545101718627140e-12 2.0078326482400992e-12  1.5002934029302398e-01 5.5566183662233644e-10 1.5135861997880821e-09  1.5003806333581843e-01 3.6643085900018697e-12 6.9590666562327548e-10  1.4997997016374051e-01 4.5200212180649388e-10 1.3352297207747642e-09  1.4996494492590870e-01 2.0797110209759137e-10 9.2820038976465465e-10  1.5001904495381632e-01 2.0009624641229341e-11 1.1563797645097029e-09  1.5002754731628562e-01 3.1843515760377014e-10 7.7696411862855866e-10  1.4999048623963737e-01 6.3755189891788423e-11 5.1746046137442539e-10  1.4998775096260977e-01 4.4924847054741539e-10 2.8739059213387138e-10  1.4999852195150953e-01 2.4358132649326678e-10 1.1066528120858906e-10  1.5000222309080705e-01 5.5272506569254296e-10 7.5424548366720907e-11  1.5001401931480896e-01 2.5679712325343171e-10 1.6532563830544510e-12  1.4999850994783381e-01 6.4210087615865107e-10 4.7364836227081698e-11  1.4997723512410652e-01 1.2577337688152739e-10 8.2989773699657804e-11  1.5000847921420252e-01 6.2033741632183846e-10 8.5475225932305783e-11  1.5002215761273605e-01 1.2888979826878411e-11 7.7446930011121456e-11  1.4998218042950898e-01 4.5777518822464078e-10 1.5566683121710956e-10  1.4998737554746175e-01 1.6001122007052908e-11 8.9611346008647200e-12  1.5002132836843132e-01 2.2496924724075256e-10 1.1526844554570106e-10  1.4999875274934910e-01 8.2264158482536965e-11 1.7621486271228504e-11  1.4998394457709341e-01 4.9593077583687966e-11 1.6332449118944047e-11  1.5001130410834365e-01 1.0558579206920874e-10 4.6816479571352729e-11  1.5000464587160864e-01 1.1387144578398063e-13 1.6267143496302510e-11  1.4998739934195263e-01 6.1696359466937086e-11 9.4900991953401702e-12  1.5000621349645982e-01 2.8832172034269187e-11 6.8845327417112684e-11  1.5000584347506896e-01 7.9006960414242932e-12 1.4457600649891918e-11  1.4998994695814188e-01 3.8728756492908872e-11 3.7150478290506639e-11  1.5000249200735494e-01 2.2332000583145217e-12 6.9792199631323264e-11  1.5000711620231555e-01 2.1983429390383580e-11 3.1573426556473786e-16  1.4999226021351555e-01 2.3597748628502997e-11 5.9203542744719716e-11  1.5000017130679927e-01 9.5489294112548233e-15 3.0336959620637069e-11  1.5000564047477313e-01 1.1213406378513179e-11 5.7289729408359084e-12  1.4999634405539466e-01 1.8546769017195422e-12 3.4620244586618794e-11  1.4999768336631145e-01 6.9665082330513497e-12 4.0905412426111118e-12  1.5000515447913945e-01 1.5237371875916367e-11 1.1287839741470334e-11  1.4999709930883542e-01 3.4269123490363194e-12 1.8972357971712709e-11  1.4999933398553322e-01 1.5608316809509935e-13 1.5649019797273045e-12  1.5000161405376677e-01 1.5013372267849986e-13 2.7242960961107819e-12  1.5000018514485328e-01 1.6579238832164398e-12 2.5641213313784242e-12  1.4999780157195464e-01 6.4297434039565272e-12 1.9938254943299274e-13  1.5000255192280329e-01 5.3601042894731721e-12 4.0752947977719333e-12  1.4999847417134923e-01 1.6878607182187445e-12 3.7226195707074798e-12  1.5000050169040949e-01 4.2888155224802257e-13 7.3621140401027375e-13  1.4999967604826950e-01 6.3354106744731216e-13 2.4377037847212772e-15  1.5000078687696258e-01 1.6548800593373340e-12 1.9869703210668144e-15  1.4999876480436700e-01 2.3830482521796648e-12 2.7281045737857827e-13  1.5000129202578552e-01 1.9562113566433510e-12 8.2948506921272881e-13  1.4999895351