<?xml version="1.0"?>
<VTKFile type="UnstructuredGrid"  version="0.1"  >
<UnstructuredGrid>
<Piece  NumberOfPoints="10201" NumberOfCells="20000">
<Points>
<DataArray  type="Float64"  NumberOfComponents="3"  format="ascii">-5 -5 0  -4.9 -5 0  -4.8 -5 0  -4.7 -5 0  -4.6 -5 0  -4.5 -5 0  -4.4 -5 0  -4.3 -5 0  -4.2 -5 0  -4.1 -5 0  -4 -5 0  -3.9 -5 0  -3.8 -5 0  -3.7 -5 0  -3.6 -5 0  -3.5 -5 0  -3.4 -5 0  -3.3 -5 0  -3.2 -5 0  -3.1 -5 0  -3 -5 0  -2.9 -5 0  -2.8 -5 0  -2.7 -5 0  -2.6 -5 0  -2.5 -5 0  -2.4 -5 0  -2.3 -5 0  -2.2 -5 0  -2.1 -5 0  -2 -5 0  -1.9 -5 0  -1.8 -5 0  -1.7 -5 0  -1.6 -5 0  -1.5 -5 0  -1.4 -5 0  -1.3 -5 0  -1.2 -5 0  -1.1 -5 0  -1 -5 0  -0.9000000000000004 -5 0  -0.7999999999999998 -5 0  -0.7000000000000002 -5 0  -0.5999999999999996 -5 0  -0.5 -5 0  -0.4000000000000004 -5 0  -0.2999999999999998 -5 0  -0.2000000000000002 -5 0  -0.09999999999999964 -5 0  0 -5 0  0.09999999999999964 -5 0  0.2000000000000002 -5 0  0.2999999999999998 -5 0  0.4000000000000004 -5 0  0.5 -5 0  0.5999999999999996 -5 0  0.7000000000000002 -5 0  0.7999999999999998 -5 0  0.9000000000000004 -5 0  1 -5 0  1.1 -5 0  1.2 -5 0  1.3 -5 0  1.4 -5 0  1.5 -5 0  1.6 -5 0  1.7 -5 0  1.8 -5 0  1.9 -5 0  2 -5 0  2.1 -5 0  2.2 -5 0  2.3 -5 0  2.4 -5 0  2.5 -5 0  2.6 -5 0  2.7 -5 0  2.8 -5 0  2.9 -5 0  3 -5 0  3.1 -5 0  3.199999999999999 -5 0  3.300000000000001 -5 0  3.4 -5 0  3.5 -5 0  3.6 -5 0  3.699999999999999 -5 0  3.800000000000001 -5 0  3.9 -5 0  4 -5 0  4.1 -5 0  4.199999999999999 -5 0  4.300000000000001 -5 0  4.4 -5 0  4.5 -5 0  4.6 -5 0  4.699999999999999 -5 0  4.800000000000001 -5 0  4.9 -5 0  5 -5 0  -5 -4.9 0  -4.9 -4.9 0  -4.8 -4.9 0  -4.7 -4.9 0  -4.6 -4.9 0  -4.5 -4.9 0  -4.4 -4.9 0  -4.3 -4.9 0  -4.2 -4.9 0  -4.1 -4.9 0  -4 -4.9 0  -3.9 -4.9 0  -3.8 -4.9 0  -3.7 -4.9 0  -3.6 -4.9 0  -3.5 -4.9 0  -3.4 -4.9 0  -3.3 -4.9 0  -3.2 -4.9 0  -3.1 -4.9 0  -3 -4.9 0  -2.9 -4.9 0  -2.8 -4.9 0  -2.7 -4.9 0  -2.6 -4.9 0  -2.5 -4.9 0  -2.4 -4.9 0  -2.3 -4.9 0  -2.2 -4.9 0  -2.1 -4.9 0  -2 -4.9 0  -1.9 -4.9 0  -1.8 -4.9 0  -1.7 -4.9 0  -1.6 -4.9 0  -1.5 -4.9 0  -1.4 -4.9 0  -1.3 -4.9 0  -1.2 -4.9 0  -1.1 -4.9 0  -1 -4.9 0  -0.9000000000000004 -4.9 0  -0.7999999999999998 -4.9 0  -0.7000000000000002 -4.9 0  -0.5999999999999996 -4.9 0  -0.5 -4.9 0  -0.4000000000000004 -4.9 0  -0.2999999999999998 -4.9 0  -0.2000000000000002 -4.9 0  -0.09999999999999964 -4.9 0  0 -4.9 0  0.09999999999999964 -4.9 0  0.2000000000000002 -4.9 0  0.2999999999999998 -4.9 0  0.4000000000000004 -4.9 0  0.5 -4.9 0  0.5999999999999996 -4.9 0  0.7000000000000002 -4.9 0  0.7999999999999998 -4.9 0  0.9000000000000004 -4.9 0  1 -4.9 0  1.1 -4.9 0  1.2 -4.9 0  1.3 -4.9 0  1.4 -4.9 0  1.5 -4.9 0  1.6 -4.9 0  1.7 -4.9 0  1.8 -4.9 0  1.9 -4.9 0  2 -4.9 0  2.1 -4.9 0  2.2 -4.9 0  2.3 -4.9 0  2.4 -4.9 0  2.5 -4.9 0  2.6 -4.9 0  2.7 -4.9 0  2.8 -4.9 0  2.9 -4.9 0  3 -4.9 0  3.1 -4.9 0  3.199999999999999 -4.9 0  3.300000000000001 -4.9 0  3.4 -4.9 0  3.5 -4.9 0  3.6 -4.9 0  3.699999999999999 -4.9 0  3.800000000000001 -4.9 0  3.9 -4.9 0  4 -4.9 0  4.1 -4.9 0  4.199999999999999 -4.9 0  4.300000000000001 -4.9 0  4.4 -4.9 0  4.5 -4.9 0  4.6 -4.9 0  4.699999999999999 -4.9 0  4.800000000000001 -4.9 0  4.9 -4.9 0  5 -4.9 0  -5 -4.8 0  -4.9 -4.8 0  -4.8 -4.8 0  -4.7 -4.8 0  -4.6 -4.8 0  -4.5 -4.8 0  -4.4 -4.8 0  -4.3 -4.8 0  -4.2 -4.8 0  -4.1 -4.8 0  -4 -4.8 0  -3.9 -4.8 0  -3.8 -4.8 0  -3.7 -4.8 0  -3.6 -4.8 0  -3.5 -4.8 0  -3.4 -4.8 0  -3.3 -4.8 0  -3.2 -4.8 0  -3.1 -4.8 0  -3 -4.8 0  -2.9 -4.8 0  -2.8 -4.8 0  -2.7 -4.8 0  -2.6 -4.8 0  -2.5 -4.8 0  -2.4 -4.8 0  -2.3 -4.8 0  -2.2 -4.8 0  -2.1 -4.8 0  -2 -4.8 0  -1.9 -4.8 0  -1.8 -4.8 0  -1.7 -4.8 0  -1.6 -4.8 0  -1.5 -4.8 0  -1.4 -4.8 0  -1.3 -4.8 0  -1.2 -4.8 0  -1.1 -4.8 0  -1 -4.8 0  -0.9000000000000004 -4.8 0  -0.7999999999999998 -4.8 0  -0.7000000000000002 -4.8 0  -0.5999999999999996 -4.8 0  -0.5 -4.8 0  -0.4000000000000004 -4.8 0  -0.2999999999999998 -4.8 0  -0.2000000000000002 -4.8 0  -0.09999999999999964 -4.8 0  0 -4.8 0  0.09999999999999964 -4.8 0  0.2000000000000002 -4.8 0  0.2999999999999998 -4.8 0  0.4000000000000004 -4.8 0  0.5 -4.8 0  0.5999999999999996 -4.8 0  0.7000000000000002 -4.8 0  0.7999999999999998 -4.8 0  0.9000000000000004 -4.8 0  1 -4.8 0  1.1 -4.8 0  1.2 -4.8 0  1.3 -4.8 0  1.4 -4.8 0  1.5 -4.8 0  1.6 -4.8 0  1.7 -4.8 0  1.8 -4.8 0  1.9 -4.8 0  2 -4.8 0  2.1 -4.8 0  2.2 -4.8 0  2.3 -4.8 0  2.4 -4.8 0  2.5 -4.8 0  2.6 -4.8 0  2.7 -4.8 0  2.8 -4.8 0  2.9 -4.8 0  3 -4.8 0  3.1 -4.8 0  3.199999999999999 -4.8 0  3.300000000000001 -4.8 0  3.4 -4.8 0  3.5 -4.8 0  3.6 -4.8 0  3.699999999999999 -4.8 0  3.800000000000001 -4.8 0  3.9 -4.8 0  4 -4.8 0  4.1 -4.8 0  4.199999999999999 -4.8 0  4.300000000000001 -4.8 0  4.4 -4.8 0  4.5 -4.8 0  4.6 -4.8 0  4.699999999999999 -4.8 0  4.800000000000001 -4.8 0  4.9 -4.8 0  5 -4.8 0  -5 -4.7 0  -4.9 -4.7 0  -4.8 -4.7 0  -4.7 -4.7 0  -4.6 -4.7 0  -4.5 -4.7 0  -4.4 -4.7 0  -4.3 -4.7 0  -4.2 -4.7 0  -4.1 -4.7 0  -4 -4.7 0  -3.9 -4.7 0  -3.8 -4.7 0  -3.7 -4.7 0  -3.6 -4.7 0  -3.5 -4.7 0  -3.4 -4.7 0  -3.3 -4.7 0  -3.2 -4.7 0  -3.1 -4.7 0  -3 -4.7 0  -2.9 -4.7 0  -2.8 -4.7 0  -2.7 -4.7 0  -2.6 -4.7 0  -2.5 -4.7 0  -2.4 -4.7 0  -2.3 -4.7 0  -2.2 -4.7 0  -2.1 -4.7 0  -2 -4.7 0  -1.9 -4.7 0  -1.8 -4.7 0  -1.7 -4.7 0  -1.6 -4.7 0  -1.5 -4.7 0  -1.4 -4.7 0  -1.3 -4.7 0  -1.2 -4.7 0  -1.1 -4.7 0  -1 -4.7 0  -0.9000000000000004 -4.7 0  -0.7999999999999998 -4.7 0  -0.7000000000000002 -4.7 0  -0.5999999999999996 -4.7 0  -0.5 -4.7 0  -0.4000000000000004 -4.7 0  -0.2999999999999998 -4.7 0  -0.2000000000000002 -4.7 0  -0.09999999999999964 -4.7 0  0 -4.7 0  0.09999999999999964 -4.7 0  0.2000000000000002 -4.7 0  0.2999999999999998 -4.7 0  0.4000000000000004 -4.7 0  0.5 -4.7 0  0.5999999999999996 -4.7 0  0.7000000000000002 -4.7 0  0.7999999999999998 -4.7 0  0.9000000000000004 -4.7 0  1 -4.7 0  1.1 -4.7 0  1.2 -4.7 0  1.3 -4.7 0  1.4 -4.7 0  1.5 -4.7 0  1.6 -4.7 0  1.7 -4.7 0  1.8 -4.7 0  1.9 -4.7 0  2 -4.7 0  2.1 -4.7 0  2.2 -4.7 0  2.3 -4.7 0  2.4 -4.7 0  2.5 -4.7 0  2.6 -4.7 0  2.7 -4.7 0  2.8 -4.7 0  2.9 -4.7 0  3 -4.7 0  3.1 -4.7 0  3.199999999999999 -4.7 0  3.300000000000001 -4.7 0  3.4 -4.7 0  3.5 -4.7 0  3.6 -4.7 0  3.699999999999999 -4.7 0  3.800000000000001 -4.7 0  3.9 -4.7 0  4 -4.7 0  4.1 -4.7 0  4.199999999999999 -4.7 0  4.300000000000001 -4.7 0  4.4 -4.7 0  4.5 -4.7 0  4.6 -4.7 0  4.699999999999999 -4.7 0  4.800000000000001 -4.7 0  4.9 -4.7 0  5 -4.7 0  -5 -4.6 0  -4.9 -4.6 0  -4.8 -4.6 0  -4.7 -4.6 0  -4.6 -4.6 0  -4.5 -4.6 0  -4.4 -4.6 0  -4.3 -4.6 0  -4.2 -4.6 0  -4.1 -4.6 0  -4 -4.6 0  -3.9 -4.6 0  -3.8 -4.6 0  -3.7 -4.6 0  -3.6 -4.6 0  -3.5 -4.6 0  -3.4 -4.6 0  -3.3 -4.6 0  -3.2 -4.6 0  -3.1 -4.6 0  -3 -4.6 0  -2.9 -4.6 0  -2.8 -4.6 0  -2.7 -4.6 0  -2.6 -4.6 0  -2.5 -4.6 0  -2.4 -4.6 0  -2.3 -4.6 0  -2.2 -4.6 0  -2.1 -4.6 0  -2 -4.6 0  -1.9 -4.6 0  -1.8 -4.6 0  -1.7 -4.6 0  -1.6 -4.6 0  -1.5 -4.6 0  -1.4 -4.6 0  -1.3 -4.6 0  -1.2 -4.6 0  -1.1 -4.6 0  -1 -4.6 0  -0.9000000000000004 -4.6 0  -0.7999999999999998 -4.6 0  -0.7000000000000002 -4.6 0  -0.5999999999999996 -4.6 0  -0.5 -4.6 0  -0.4000000000000004 -4.6 0  -0.2999999999999998 -4.6 0  -0.2000000000000002 -4.6 0  -0.09999999999999964 -4.6 0  0 -4.6 0  0.09999999999999964 -4.6 0  0.2000000000000002 -4.6 0  0.2999999999999998 -4.6 0  0.4000000000000004 -4.6 0  0.5 -4.6 0  0.5999999999999996 -4.6 0  0.7000000000000002 -4.6 0  0.7999999999999998 -4.6 0  0.9000000000000004 -4.6 0  1 -4.6 0  1.1 -4.6 0  1.2 -4.6 0  1.3 -4.6 0  1.4 -4.6 0  1.5 -4.6 0  1.6 -4.6 0  1.7 -4.6 0  1.8 -4.6 0  1.9 -4.6 0  2 -4.6 0  2.1 -4.6 0  2.2 -4.6 0  2.3 -4.6 0  2.4 -4.6 0  2.5 -4.6 0  2.6 -4.6 0  2.7 -4.6 0  2.8 -4.6 0  2.9 -4.6 0  3 -4.6 0  3.1 -4.6 0  3.199999999999999 -4.6 0  3.300000000000001 -4.6 0  3.4 -4.6 0  3.5 -4.6 0  3.6 -4.6 0  3.699999999999999 -4.6 0  3.800000000000001 -4.6 0  3.9 -4.6 0  4 -4.6 0  4.1 -4.6 0  4.199999999999999 -4.6 0  4.300000000000001 -4.6 0  4.4 -4.6 0  4.5 -4.6 0  4.6 -4.6 0  4.699999999999999 -4.6 0  4.800000000000001 -4.6 0  4.9 -4.6 0  5 -4.6 0  -5 -4.5 0  -4.9 -4.5 0  -4.8 -4.5 0  -4.7 -4.5 0  -4.6 -4.5 0  -4.5 -4.5 0  -4.4 -4.5 0  -4.3 -4.5 0  -4.2 -4.5 0  -4.1 -4.5 0  -4 -4.5 0  -3.9 -4.5 0  -3.8 -4.5 0  -3.7 -4.5 0  -3.6 -4.5 0  -3.5 -4.5 0  -3.4 -4.5 0  -3.3 -4.5 0  -3.2 -4.5 0  -3.1 -4.5 0  -3 -4.5 0  -2.9 -4.5 0  -2.8 -4.5 0  -2.7 -4.5 0  -2.6 -4.5 0  -2.5 -4.5 0  -2.4 -4.5 0  -2.3 -4.5 0  -2.2 -4.5 0  -2.1 -4.5 0  -2 -4.5 0  -1.9 -4.5 0  -1.8 -4.5 0  -1.7 -4.5 0  -1.6 -4.5 0  -1.5 -4.5 0  -1.4 -4.5 0  -1.3 -4.5 0  -1.2 -4.5 0  -1.1 -4.5 0  -1 -4.5 0  -0.9000000000000004 -4.5 0  -0.7999999999999998 -4.5 0  -0.7000000000000002 -4.5 0  -0.5999999999999996 -4.5 0  -0.5 -4.5 0  -0.4000000000000004 -4.5 0  -0.2999999999999998 -4.5 0  -0.2000000000000002 -4.5 0  -0.09999999999999964 -4.5 0  0 -4.5 0  0.09999999999999964 -4.5 0  0.2000000000000002 -4.5 0  0.2999999999999998 -4.5 0  0.4000000000000004 -4.5 0  0.5 -4.5 0  0.5999999999999996 -4.5 0  0.7000000000000002 -4.5 0  0.7999999999999998 -4.5 0  0.9000000000000004 -4.5 0  1 -4.5 0  1.1 -4.5 0  1.2 -4.5 0  1.3 -4.5 0  1.4 -4.5 0  1.5 -4.5 0  1.6 -4.5 0  1.7 -4.5 0  1.8 -4.5 0  1.9 -4.5 0  2 -4.5 0  2.1 -4.5 0  2.2 -4.5 0  2.3 -4.5 0  2.4 -4.5 0  2.5 -4.5 0  2.6 -4.5 0  2.7 -4.5 0  2.8 -4.5 0  2.9 -4.5 0  3 -4.5 0  3.1 -4.5 0  3.199999999999999 -4.5 0  3.300000000000001 -4.5 0  3.4 -4.5 0  3.5 -4.5 0  3.6 -4.5 0  3.699999999999999 -4.5 0  3.800000000000001 -4.5 0  3.9 -4.5 0  4 -4.5 0  4.1 -4.5 0  4.199999999999999 -4.5 0  4.300000000000001 -4.5 0  4.4 -4.5 0  4.5 -4.5 0  4.6 -4.5 0  4.699999999999999 -4.5 0  4.800000000000001 -4.5 0  4.9 -4.5 0  5 -4.5 0  -5 -4.4 0  -4.9 -4.4 0  -4.8 -4.4 0  -4.7 -4.4 0  -4.6 -4.4 0  -4.5 -4.4 0  -4.4 -4.4 0  -4.3 -4.4 0  -4.2 -4.4 0  -4.1 -4.4 0  -4 -4.4 0  -3.9 -4.4 0  -3.8 -4.4 0  -3.7 -4.4 0  -3.6 -4.4 0  -3.5 -4.4 0  -3.4 -4.4 0  -3.3 -4.4 0  -3.2 -4.4 0  -3.1 -4.4 0  -3 -4.4 0  -2.9 -4.4 0  -2.8 -4.4 0  -2.7 -4.4 0  -2.6 -4.4 0  -2.5 -4.4 0  -2.4 -4.4 0  -2.3 -4.4 0  -2.2 -4.4 0  -2.1 -4.4 0  -2 -4.4 0  -1.9 -4.4 0  -1.8 -4.
[...]
<PointData  Vectors="f_23"> 
<DataArray  type="Float64"  Name="f_23"  NumberOfComponents="3" format="ascii">1.5000297798114248e-01 0.0000000000000000e+00 0.0000000000000000e+00  1.5000050096760864e-01 6.5202138086383040e-12 0.0000000000000000e+00  1.5000564361846241e-01 2.1825883202829040e-13 0.0000000000000000e+00  1.5000628569323016e-01 3.2345786815780920e-11 0.0000000000000000e+00  1.5001493223882320e-01 1.9880755225312912e-11 0.0000000000000000e+00  1.5002045631155297e-01 1.3996045399036590e-10 0.0000000000000000e+00  1.5003471679679622e-01 1.4088410830610713e-10 0.0000000000000000e+00  1.5004512314442481e-01 3.7320113854926001e-10 0.0000000000000000e+00  1.5006115528773173e-01 2.8884855372756178e-10 0.0000000000000000e+00  1.5006830023042092e-01 3.1741244437911712e-10 0.0000000000000000e+00  1.5007348019886840e-01 4.5723225822178521e-11 0.0000000000000000e+00  1.5006523137719202e-01 8.0132046344168334e-12 0.0000000000000000e+00  1.5005383635526945e-01 3.5662575925661994e-10 0.0000000000000000e+00  1.5003628968143681e-01 6.7594870914338227e-10 0.0000000000000000e+00  1.5002566037802856e-01 7.9680699685824193e-10 0.0000000000000000e+00  1.5002025934892857e-01 3.4492854425610319e-10 0.0000000000000000e+00  1.5002214111720316e-01 4.9639122181776875e-11 0.0000000000000000e+00  1.5002099456235146e-01 1.5140768858956335e-11 0.0000000000000000e+00  1.5001503172747921e-01 2.8217102379363102e-11 0.0000000000000000e+00  1.5000173232356553e-01 4.0592943805978397e-13 0.0000000000000000e+00  1.4998729888738849e-01 3.5396140160747937e-11 0.0000000000000000e+00  1.4997890959168031e-01 6.8276980382130996e-11 0.0000000000000000e+00  1.4998218329308916e-01 2.0816219636543047e-11 0.0000000000000000e+00  1.4999368151500200e-01 4.6016008215493554e-11 0.0000000000000000e+00  1.5000859463933069e-01 3.1342834330346031e-10 0.0000000000000000e+00  1.5001792541113329e-01 2.2945815138110822e-10 0.0000000000000000e+00  1.5001002740787456e-01 7.1297145480241542e-14 0.0000000000000000e+00  1.4999101328455605e-01 1.4373531370467996e-10 0.0000000000000000e+00  1.4998563163222217e-01 1.2642651241939212e-10 0.0000000000000000e+00  1.4999772433672606e-01 9.8607983462978441e-12 0.0000000000000000e+00  1.5000825681570107e-01 3.6778167165001261e-11 0.0000000000000000e+00  1.5001462395932452e-01 9.5762154536189837e-11 0.0000000000000000e+00  1.5001873905767515e-01 4.1450961032540756e-12 0.0000000000000000e+00  1.5000455968755930e-01 1.1530884286999021e-10 0.0000000000000000e+00  1.4998252203811985e-01 2.1079917740033641e-10 0.0000000000000000e+00  1.4999062800915622e-01 1.5728574530084237e-11 0.0000000000000000e+00  1.5001778183599010e-01 1.6314579661819442e-10 0.0000000000000000e+00  1.5001753245084576e-01 2.0843244112293507e-10 0.0000000000000000e+00  1.4999300965416767e-01 8.6494705872283487e-11 0.0000000000000000e+00  1.4998214866810400e-01 5.4681600120638042e-10 0.0000000000000000e+00  1.4999696572936116e-01 1.8053734887439530e-11 0.0000000000000000e+00  1.5001768459614342e-01 7.4182689343579622e-10 0.0000000000000000e+00  1.5001073678843618e-01 5.2372507751735534e-12 0.0000000000000000e+00  1.4998131339384571e-01 7.5803822274308914e-10 0.0000000000000000e+00  1.4998698516510042e-01 1.3687621080254267e-11 0.0000000000000000e+00  1.5002141892339066e-01 6.1742552499454177e-10 0.0000000000000000e+00  1.5000926448418672e-01 5.5747826092732265e-11 0.0000000000000000e+00  1.4997666639343937e-01 3.8926021158327406e-10 0.0000000000000000e+00  1.4999926124080015e-01 1.3458383291732606e-10 0.0000000000000000e+00  1.5002136982805078e-01 1.6043740464989018e-10 0.0000000000000000e+00  1.4999095728314191e-01 2.0065626430683047e-10 0.0000000000000000e+00  1.4998578516757594e-01 2.1888117570829286e-11 0.0000000000000000e+00  1.5001558568901879e-01 1.9082108801539045e-10 0.0000000000000000e+00  1.5000359163312887e-01 7.0548881457410209e-12 0.0000000000000000e+00  1.4998419598886792e-01 1.0610096648741377e-10 0.0000000000000000e+00  1.5000637010901499e-01 5.7511562417643563e-11 0.0000000000000000e+00  1.5000989364355416e-01 2.1911731403777174e-11 0.0000000000000000e+00  1.4998845233667157e-01 7.9859995833688365e-11 0.0000000000000000e+00  1.4999871011402052e-01 1.0530352139387793e-12 0.0000000000000000e+00  1.5001041345990468e-01 4.6369138765371115e-11 0.0000000000000000e+00  1.4999457899573185e-01 2.2342148327506457e-11 0.0000000000000000e+00  1.4999507326352998e-01 7.3995853899145678e-12 0.0000000000000000e+00  1.5000737231187231e-01 2.8634517407153063e-11 0.0000000000000000e+00  1.4999904497441496e-01 1.2625578074200203e-12 0.0000000000000000e+00  1.4999506711480787e-01 1.1605448709177810e-11 0.0000000000000000e+00  1.5000398199230469e-01 9.0671938798290518e-12 0.0000000000000000e+00  1.5000089297695687e-01 3.2304017710569882e-13 0.0000000000000000e+00  1.4999655335054088e-01 6.5526583318021056e-12 0.0000000000000000e+00  1.5000175562737597e-01 1.6641878800425417e-12 0.0000000000000000e+00  1.5000117574903224e-01 9.5217895301617444e-13 0.0000000000000000e+00  1.4999790856292441e-01 2.7314141383020860e-12 0.0000000000000000e+00  1.5000079037502864e-01 3.3619335574461307e-13 0.0000000000000000e+00  1.5000075249772901e-01 4.0040432108801309e-13 0.0000000000000000e+00  1.4999896503362428e-01 6.1039922037569622e-13 0.0000000000000000e+00  1.5000024045701593e-01 4.9896513591883054e-15 0.0000000000000000e+00  1.5000056002493359e-01 3.3674591637945417e-13 0.0000000000000000e+00  1.4999930938341155e-01 3.9915081682170521e-13 0.0000000000000000e+00  1.5000029792289926e-01 6.7095879236820414e-14 0.0000000000000000e+00  1.5000009791897773e-01 4.8538663134093282e-15 0.0000000000000000e+00  1.4999981996475181e-01 9.9579301969065053e-15 0.0000000000000000e+00  1.5000000562280696e-01 7.0254491979471851e-15 0.0000000000000000e+00  1.5000019319559840e-01 6.7049189924417542e-14 0.0000000000000000e+00  1.4999974070687802e-01 8.6658236666423516e-14 0.0000000000000000e+00  1.5000019566168221e-01 4.5430762764755333e-14 0.0000000000000000e+00  1.4999990470770086e-01 1.2761121127123618e-14 0.0000000000000000e+00  1.5000003746624865e-01 4.3237819925660800e-15 0.0000000000000000e+00  1.4999996015856473e-01 6.1646689056091776e-15 0.0000000000000000e+00  1.5000007381248676e-01 1.3444950286474198e-14 0.0000000000000000e+00  1.4999989670870498e-01 2.0038561306694513e-14 0.0000000000000000e+00  1.5000011048599790e-01 1.9981374720880743e-14 0.0000000000000000e+00  1.4999990142059708e-01 1.5117929310216197e-14 0.0000000000000000e+00  1.5000008038235191e-01 1.0339871705966005e-14 0.0000000000000000e+00  1.4999993300778991e-01 7.8201143408492529e-15 0.0000000000000000e+00  1.5000006173358546e-01 7.2132007252097033e-15 0.0000000000000000e+00  1.4999993715788720e-01 7.5279407456025474e-15 0.0000000000000000e+00  1.5000006394641416e-01 7.5981269745958200e-15 0.0000000000000000e+00  1.4999993531697622e-01 6.9645759623911628e-15 0.0000000000000000e+00  1.5000005564057384e-01 4.6143055737721741e-15 0.0000000000000000e+00  1.4999993980699580e-01 3.1994587591479174e-15 0.0000000000000000e+00  1.5000003010668383e-01 7.1562573513804566e-16 0.0000000000000000e+00  1.4999992959511935e-01 0.0000000000000000e+00 0.0000000000000000e+00  1.5000050096760792e-01 0.0000000000000000e+00 6.5202138079130362e-12  1.4999695439056632e-01 7.1172183017841821e-15 7.1172182951786695e-15  1.4999781279791843e-01 1.0126899363267017e-11 1.0172345727353095e-11  1.4999216450416633e-01 2.7112190313172616e-12 1.2874205430227166e-11  1.4998990422856168e-01 5.2676776305209851e-11 6.7643986278269968e-11  1.4997938619308365e-01 4.8010084861447876e-11 1.2234517442395433e-10  1.4997186298592471e-01 2.0985726101462781e-10 3.4496450884889080e-10  1.4995581431434221e-01 2.1745706885512079e-10 5.4007326376509963e-10  1.4994505805269207e-01 4.3620778573373458e-10 9.7368171154610651e-10  1.4993028418691440e-01 2.7373534593370397e-10 1.0972684394934021e-09  1.4992703061660040e-01 2.0030996160621929e-10 1.2380525047108156e-09  1.4992660699517110e-01 2.4543136828142937e-13 8.4859319543391789e-10  1.4993933524359845e-01 1.0535508388669035e-10 5.7098507894488989e-10  1.4995217177209502e-01 5.8854939921125538e-10 2.3183901594564867e-10  1.4996807570261947e-01 7.2504250021407774e-10 1.5815641008954451e-10  1.4997443532142879e-01 6.0487367668442193e-10 1.2181886913845860e-10  1.4997739708920121e-01 1.7005307300587839e-10 1.8113617575779011e-10  1.4997708514814106e-01 1.0254627915228291e-11 1.2409089842118687e-10  1.4998309735570878e-01 1.1865353758033258e-11 3.1422401388052323e-11  1.4999323106580442e-01 1.4891935206487221e-12 1.6231717937035149e-11  1.5000759851871767e-01 1.0159564422762824e-11 1.1973202334100213e-10  1.5001786594674546e-01 4.1941012804280953e-11 1.6868961937175033e-10  1.5001901101823431e-01 2.5195667032712428e-11 6.3136383518066113e-11  1.5001058845355775e-01 3.7351888913131711e-12 5.2893614154419454e-14  1.4999849478042973e-01 1.7229235890227461e-10 3.7695559636582682e-11  1.4998717378887597e-01 2.7761370703801685e-10 4.8981754588428461e-11  1.4998678369822277e-01 3.4954616651952625e-11 1.5456821787951373e-14  1.5000194550847190e-01 5.9944766724651563e-11 1.1425704873606495e-10  1.5001457092038187e-01 1.1966793790904229e-10 1.7244091437963927e-10  1.5000735047974442e-01 3.1977032246314413e-11 1.2891635191810896e-11  1.4999398830592955e-01 6.0193904721315987e-12 3.6266959865238873e-11  1.4998832268140846e-01 7.9955844942814820e-11 7.3017932052273723e-11  1.4998376136449793e-01 2.7838162689337264e-11 5.3075419985374082e-11  1.4998761372401348e-01 5.2322217462530700e-11 8.3765695429093816e-17  1.5000813086868742e-01 1.7138529236102785e-10 1.0129661023965993e-10  1.5001483106691693e-01 4.1753741591845356e-11 2.5972783097000203e-11  1.4999219615712431e-01 2.4013489852776289e-11 1.3491610513792343e-10  1.4998034450380637e-01 1.4063602642392036e-10 1.2479253782740049e-10  1.4999824369354722e-01 7.1330429190477207e-12 4.5098233730762520e-11  1.5001361971620408e-01 2.6676536641860966e-10 1.3731140703834877e-10  1.5000853359266403e-01 1.1362327204640625e-10 2.6775244116316165e-12  1.4999277010353276e-01 3.0195942685336230e-10 1.1022368595719020e-10  1.4998494023898337e-01 2.0104102663481978e-10 8.1589681470081358e-12  1.5000326510243048e-01 3.1539236432657290e-10 8.3591633215431007e-11  1.5001959830360403e-01 1.8380950539555519e-10 2.7290650739614246e-11  1.4999556661846533e-01 3.1353368464797171e-10 8.1575325785251719e-11  1.4997915116763488e-01 9.4296666937449244e-11 2.4544847594351533e-11  1.5000958078013502e-01 2.8847560825323878e-10 9.2281850131680393e-11  1.5001718160120359e-01 1.7959689748342668e-11 4.4089215624815280e-12  1.4998474531062633e-01 2.2468268504837620e-10 8.6546294091336295e-11  1.4999125589200002e-01 1.7858259251215208e-12 5.1145760643083602e-12  1.5001750996011157e-01 1.3171302176053711e-10 4.7758012095943259e-11  1.4999833244999933e-01 3.2236506811958734e-11 3.6043324676733680e-11  1.4998588566615839e-01 4.5497617362065709e-11 5.9169300434067856e-12  1.5000982825603376e-01 6.1049597154373285e-11 5.1425610103322926e-11  1.5000616556077803e-01 2.7462021347272112e-12 6.2972902024423508e-12  1.4998761665396990e-01 5.4328462229043984e-11 2.6072760331868581e-11  1.5000253310797443e-01 6.6077222727911238e-12 3.2208268452408490e-11  1.5000895968428671e-01 2.2705476968581533e-11 1.0370786735105606e-12  1.4999215961988402e-01 2.3162622674564008e-11 3.2518972944577855e-11  1.4999760043013974e-01 1.4481438650040631e-12 7.4378299693544576e-12  1.5000789264450867e-01 2.1478463434358295e-11 9.4260791857057520e-12  1.4999681406070697e-01 3.1000991864619017e-12 1.7586894419977505e-11  1.4999593124408114e-01 6.9427991870993625e-12 6.7557369615435015e-14  1.5000511817103315e-01 9.0853851960019158e-12 9.5732371615732036e-12  1.4999961184519303e-01 1.3492951534412026e-14 5.0993262530494701e-12  1.4999652570848643e-01 5.4527575833642275e-12 6.0019874109247507e-13  1.5000264307820468e-01 1.9887881297141607e-12 4.7569991124661251e-12  1.5000065225248932e-01 6.7666293749955021e-13 9.3786982929651466e-13  1.4999764746832681e-01 2.7272224540904606e-12 7.3788125523799289e-13  1.5000130129933162e-01 4.1131556703185855e-13 1.7313558445909745e-12  1.5000058328329327e-01 3.9542780277680427e-13 1.6650371385402170e-13  1.4999875697948120e-01 6.7338209172495402e-13 3.1227045349650901e-13  1.5000048638208985e-01 6.6647696785789433e-15 4.5849352829190450e-13  1.5000051640652490e-01 3.6439590363839098e-13 1.7199265209339641e-14  1.4999919551996274e-01 4.0231754154981139e-13 1.4037735889079401e-13  1.5000039774367691e-01 4.3410779445216939e-14 1.8620871795745822e-13  1.5000010262673671e-01 2.1319647272420039e-14 2.6065289762389216e-14  1.4999974705094513e-01 2.4143437931052261e-14 8.8096423530828689e-15  1.5000006955960654e-01 3.8575093389064684e-15 1.9269570390922377e-14  1.5000017299781263e-01 6.0443176542051510e-14 3.7149809617358030e-16  1.4999973476130832e-01 6.7650243988126458e-14 1.2637344433058785e-14  1.5000019609255766e-01 2.3172554306067550e-14 2.4375142488482889e-14  1.4999992313591540e-01 1.8788061169310413e-15 1.3212340116022134e-14  1.5000000788660223e-01 6.6353124980065621e-17 2.4155846251448724e-15  1.4999998734454559e-01 1.5912325589483545e-15 1.0859229315713650e-16  1.5000005567107333e-01 7.9305463598656224e-15 1.2898966524040784e-16  1.4999990766874027e-01 1.3264007496746747e-14 1.1893904286728254e-15  1.5000010177763778e-01 1.2056102794821074e-14 3.1777603467818499e-15  1.4999991087230760e-01 7.7724141144675501e-15 4.1410898875471897e-15  1.5000007049448200e-01 4.8013702783089600e-15 3.5068784083784615e-15  1.4999994177508216e-01 3.9109412890120245e-15 2.3767016979199294e-15  1.5000005559639867e-01 4.3545195238074739e-15 1.6413337360724451e-15  1.4999994160704502e-01 5.1553124569255039e-15 1.3992842536080584e-15  1.5000006136204899e-01 5.3573039870736485e-15 1.5102914510977992e-15  1.4999994086115684e-01 4.4746849865577166e-15 1.6453454446619607e-15  1.5000005361945404e-01 3.0395741350611346e-15 1.7357224173054273e-15  1.4999996013787528e-01 1.3827801369870891e-15 1.2872633725016212e-15  1.5000003655387475e-01 8.3798748803167637e-16 1.2553181503835521e-15  1.4999999427143890e-01 1.2978968416412135e-16 1.2978968635453969e-16  1.5000003010668392e-01 0.0000000000000000e+00 7.1562569233080811e-16  1.5000564361846316e-01 0.0000000000000000e+00 2.1825883204446586e-13  1.4999781279791868e-01 1.0172345727040159e-11 1.0126899362716616e-11  1.5000656211814270e-01 3.0285814779023123e-12 3.0285814786524100e-12  1.5000265553167516e-01 5.0925327955375768e-11 6.5774471508936235e-11  1.5001447532771425e-01 5.4723349023596730e-13 8.5794847320151889e-11  1.5001458032548612e-01 1.7612932239614848e-10 4.2613200008707722e-10  1.5003287803110085e-01 5.5980856495222370e-11 6.8888241619177030e-10  1.5003850593726206e-01 4.8415394731326479e-10 1.8728974599676290e-09  1.5006171797975079e-01 2.3725647950397484e-10 2.6199128912265361e-09  1.5006801155353086e-01 6.8650287935668589e-10 4.5107541668244674e-09  1.5008534048098854e-01 1.6438948942705254e-10 4.5479936395218377e-09  1.5007952321288917e-01 1.6121584318791858e-10 4.9153298811483675e-09  1.5007868096257734e-01 7.7589324820929012e-11 3.0553623648801587e-09  1.5005832597517360e-01 2.3367124963145486e-10 2.1312890018786749e-09  1.5004795417004443e-01 9.4322119291119465e-10 8.9218600827784813e-10  1.5003154243504285e-01 6.6358119308767273e-10 7.5291602854571869e-10  1.5003062098192041e-01 5.4749635309803551e-10 5.6902650044297369e-10  1.5002547130288815e-01 8.8982760228088310e-11 6.9176624913207932e-10  1.5002301496854620e-01 1.6849959987688749e-11 2.8793194360652873e-10  1.5001038191906124e-01 2.7867086504381813e-13 2.3039871346538350e-11  1.4999828427666737e-01 1.4608940823960767e-11 1.4581021899673767e-10  1.4998447860507760e-01 2.2513606228560349e-11 4.2734291722966762e-10  1.4998054094893803e-01 2.6671045019564617e-11 4.2544118674924829e-10  1.4998518339446726e-01 3.4468730236761364e-13 9.5307432803842612e-11  1.4999603371244535e-01 6.4600576480547990e-11 3.3289291266204621e-12  1.5000637076055962e-01 2.8336205036218064e-10 9.5482089694443470e-11  1.5001223395548921e-01 1.3837073337106804e-10 5.6756239101144627e-11  1.5000306306758129e-01 1.0326796764319786e-11 6.0453471933316935e-11  1.4998619756454482e-01 1.1747983482472666e-10 5.6533982875553769e-10  1.4998573990211433e-01 4.3558336291160504e-11 3.3690560371309788e-10  1.5000178754927207e-01 7.8115100548440598e-14 2.3978696965688988e-12  1.5001079786017904e-01 5.1022486820358449e-11 1.4583902024159062e-10  1.5001355661333002e-01 7.9421518246700148e-11 1.8718200427646081e-10  1.5001636914900537e-01 3.7577740969853350e-12 1.2625742206832081e-10  1.5000254270711466e-01 1.9006713113210082e-10 3.3269361867481438e-11  1.4998406182161209e-01 1.0843152947484008e-10 3.2964041257976140e-10  1.4999767715175630e-01 2.2864657920685174e-12 1.2615106025553342e-11  1.5002102265918393e-01 8.5643649651118561e-11 6.4700003591464099e-10  1.5000994356716138e-01 5.0768340382049555e-11 3.5034704278842225e-11  1.4998793727729370e-01 6.4899677776629025e-11 3.6927823621086062e-10  1.4998980023681951e-01 2.7154320511265309e-10 9.3219990585381189e-11  1.5000253594172389e-01 2.0454649765494426e-11 1.1508342988850241e-10  1.5001114454008324e-01 4.4446973825992668e-10 1.5674202676192287e-10  1.5000629445325728e-01 1.1615995746337229e-11 7.5825879095643331e-12  1.4998657644690688e-01 4.8682711550880379e-10 2.2109059012567901e-10  1.4998985378358268e-01 2.1433197112252249e-11 4.1194023665449080e-13  1.5001730049592799e-01 3.9132590934474610e-10 2.8369693202832910e-10  1.5000779650099627e-01 5.3234047876598680e-11 1.6831946841679575e-12  1.4998001035262626e-01 2.3067663698552911e-10 2.7226354566795912e-10  1.4999945545391657e-01 9.5107934076701826e-11 4.2555090681955726e-11  1.5001829981951328e-01 8.4987188231826815e-11 1.4050142311534644e-10  1.4999203738212338e-01 1.1515654135974531e-10 1.3056378579997226e-10  1.4998855306581252e-01 9.2150990933855759e-12 1.3303318254383569e-11  1.5001303919011813e-01 9.2337505181347771e-11 1.4629508538881775e-10  1.5000168309842013e-01 4.5067509661759330e-12 2.5760910335776439e-11  1.4998794031112750e-01 4.2934516822166783e-11 5.5713118794043438e-11  1.5000658251507301e-01 2.7291862103479980e-11 1.0312561369138020e-10  1.5000590933415894e-01 6.0112571458241644e-12 3.2613403708261168e-14  1.4999030405713307e-01 3.2980412114099372e-11 8.7387907355204146e-11  1.5000154435831087e-01 1.7468051216689323e-12 4.2585807241908034e-11  1.5000714355139477e-01 1.5906342481372499e-11 1.5587443860498567e-11  1.4999391097090367e-01 1.2049413134400883e-11 6.8161909378556581e-11  1.4999827445994490e-01 1.3816202000329025e-12 4.6536056917857721e-12  1.5000602931574539e-01 1.2656121938439541e-11 2.8005694301694064e-11  1.4999721995488982e-01 1.8117425360344478e-12 2.7751946873915241e-11  1.4999736203236766e-01 3.4094764842236108e-12 2.5306061435390475e-13  1.5000382899906853e-01 4.5661969481541896e-12 1.8575144259132528e-11  1.4999933042597982e-01 9.4250369285821278e-15 6.8513361159834437e-12  1.4999763006237707e-01 3.2284169833966999e-12 1.6970877414590856e-12  1.5000229601775025e-01 1.7934678247558872e-12 8.1745969033056142e-12  1.4999982589933925e-01 2.4231260254467941e-14 1.5778884725053244e-12  1.4999871932139544e-01 7.1523639836450291e-13 9.1788632962527868e-13  1.5000091171157562e-01 7.5778921522273559e-14 2.2581667559343424e-12  1.5000033410202254e-01 3.9844891565194654e-13 1.8468969392549403e-13  1.4999894842450931e-01 8.7412080279963102e-13 5.8405418285677250e-13  1.5000081915520097e-01 3.2860939541018184e-13 1.0323786685255523e-12  1.4999980766776794e-01 1.0325558490703082e-14 2.1368047185160125e-13  1.4999984123997856e-01 1.0525713403330165e-15 1.9963723697941877e-14  1.5000005790661658e-01 2.5741228498263492e-14 8.4874236557199610e-14  1.5000023552770350e-01 1.5791844985778752e-13 1.8400973816114122e-15  1.4999958427998455e-01 2.1674452204178908e-13 6.8506218472467138e-14  1.5000038843245261e-01 1.3473159226319817e-13 1.4001984833901207e-13  1.4999974822