<?xml version="1.0"?>
<VTKFile type="UnstructuredGrid"  version="0.1"  >
<UnstructuredGrid>
<Piece  NumberOfPoints="10201" NumberOfCells="20000">
<Points>
<DataArray  type="Float64"  NumberOfComponents="3"  format="ascii">-5 -5 0  -4.9 -5 0  -4.8 -5 0  -4.7 -5 0  -4.6 -5 0  -4.5 -5 0  -4.4 -5 0  -4.3 -5 0  -4.2 -5 0  -4.1 -5 0  -4 -5 0  -3.9 -5 0  -3.8 -5 0  -3.7 -5 0  -3.6 -5 0  -3.5 -5 0  -3.4 -5 0  -3.3 -5 0  -3.2 -5 0  -3.1 -5 0  -3 -5 0  -2.9 -5 0  -2.8 -5 0  -2.7 -5 0  -2.6 -5 0  -2.5 -5 0  -2.4 -5 0  -2.3 -5 0  -2.2 -5 0  -2.1 -5 0  -2 -5 0  -1.9 -5 0  -1.8 -5 0  -1.7 -5 0  -1.6 -5 0  -1.5 -5 0  -1.4 -5 0  -1.3 -5 0  -1.2 -5 0  -1.1 -5 0  -1 -5 0  -0.9000000000000004 -5 0  -0.7999999999999998 -5 0  -0.7000000000000002 -5 0  -0.5999999999999996 -5 0  -0.5 -5 0  -0.4000000000000004 -5 0  -0.2999999999999998 -5 0  -0.2000000000000002 -5 0  -0.09999999999999964 -5 0  0 -5 0  0.09999999999999964 -5 0  0.2000000000000002 -5 0  0.2999999999999998 -5 0  0.4000000000000004 -5 0  0.5 -5 0  0.5999999999999996 -5 0  0.7000000000000002 -5 0  0.7999999999999998 -5 0  0.9000000000000004 -5 0  1 -5 0  1.1 -5 0  1.2 -5 0  1.3 -5 0  1.4 -5 0  1.5 -5 0  1.6 -5 0  1.7 -5 0  1.8 -5 0  1.9 -5 0  2 -5 0  2.1 -5 0  2.2 -5 0  2.3 -5 0  2.4 -5 0  2.5 -5 0  2.6 -5 0  2.7 -5 0  2.8 -5 0  2.9 -5 0  3 -5 0  3.1 -5 0  3.199999999999999 -5 0  3.300000000000001 -5 0  3.4 -5 0  3.5 -5 0  3.6 -5 0  3.699999999999999 -5 0  3.800000000000001 -5 0  3.9 -5 0  4 -5 0  4.1 -5 0  4.199999999999999 -5 0  4.300000000000001 -5 0  4.4 -5 0  4.5 -5 0  4.6 -5 0  4.699999999999999 -5 0  4.800000000000001 -5 0  4.9 -5 0  5 -5 0  -5 -4.9 0  -4.9 -4.9 0  -4.8 -4.9 0  -4.7 -4.9 0  -4.6 -4.9 0  -4.5 -4.9 0  -4.4 -4.9 0  -4.3 -4.9 0  -4.2 -4.9 0  -4.1 -4.9 0  -4 -4.9 0  -3.9 -4.9 0  -3.8 -4.9 0  -3.7 -4.9 0  -3.6 -4.9 0  -3.5 -4.9 0  -3.4 -4.9 0  -3.3 -4.9 0  -3.2 -4.9 0  -3.1 -4.9 0  -3 -4.9 0  -2.9 -4.9 0  -2.8 -4.9 0  -2.7 -4.9 0  -2.6 -4.9 0  -2.5 -4.9 0  -2.4 -4.9 0  -2.3 -4.9 0  -2.2 -4.9 0  -2.1 -4.9 0  -2 -4.9 0  -1.9 -4.9 0  -1.8 -4.9 0  -1.7 -4.9 0  -1.6 -4.9 0  -1.5 -4.9 0  -1.4 -4.9 0  -1.3 -4.9 0  -1.2 -4.9 0  -1.1 -4.9 0  -1 -4.9 0  -0.9000000000000004 -4.9 0  -0.7999999999999998 -4.9 0  -0.7000000000000002 -4.9 0  -0.5999999999999996 -4.9 0  -0.5 -4.9 0  -0.4000000000000004 -4.9 0  -0.2999999999999998 -4.9 0  -0.2000000000000002 -4.9 0  -0.09999999999999964 -4.9 0  0 -4.9 0  0.09999999999999964 -4.9 0  0.2000000000000002 -4.9 0  0.2999999999999998 -4.9 0  0.4000000000000004 -4.9 0  0.5 -4.9 0  0.5999999999999996 -4.9 0  0.7000000000000002 -4.9 0  0.7999999999999998 -4.9 0  0.9000000000000004 -4.9 0  1 -4.9 0  1.1 -4.9 0  1.2 -4.9 0  1.3 -4.9 0  1.4 -4.9 0  1.5 -4.9 0  1.6 -4.9 0  1.7 -4.9 0  1.8 -4.9 0  1.9 -4.9 0  2 -4.9 0  2.1 -4.9 0  2.2 -4.9 0  2.3 -4.9 0  2.4 -4.9 0  2.5 -4.9 0  2.6 -4.9 0  2.7 -4.9 0  2.8 -4.9 0  2.9 -4.9 0  3 -4.9 0  3.1 -4.9 0  3.199999999999999 -4.9 0  3.300000000000001 -4.9 0  3.4 -4.9 0  3.5 -4.9 0  3.6 -4.9 0  3.699999999999999 -4.9 0  3.800000000000001 -4.9 0  3.9 -4.9 0  4 -4.9 0  4.1 -4.9 0  4.199999999999999 -4.9 0  4.300000000000001 -4.9 0  4.4 -4.9 0  4.5 -4.9 0  4.6 -4.9 0  4.699999999999999 -4.9 0  4.800000000000001 -4.9 0  4.9 -4.9 0  5 -4.9 0  -5 -4.8 0  -4.9 -4.8 0  -4.8 -4.8 0  -4.7 -4.8 0  -4.6 -4.8 0  -4.5 -4.8 0  -4.4 -4.8 0  -4.3 -4.8 0  -4.2 -4.8 0  -4.1 -4.8 0  -4 -4.8 0  -3.9 -4.8 0  -3.8 -4.8 0  -3.7 -4.8 0  -3.6 -4.8 0  -3.5 -4.8 0  -3.4 -4.8 0  -3.3 -4.8 0  -3.2 -4.8 0  -3.1 -4.8 0  -3 -4.8 0  -2.9 -4.8 0  -2.8 -4.8 0  -2.7 -4.8 0  -2.6 -4.8 0  -2.5 -4.8 0  -2.4 -4.8 0  -2.3 -4.8 0  -2.2 -4.8 0  -2.1 -4.8 0  -2 -4.8 0  -1.9 -4.8 0  -1.8 -4.8 0  -1.7 -4.8 0  -1.6 -4.8 0  -1.5 -4.8 0  -1.4 -4.8 0  -1.3 -4.8 0  -1.2 -4.8 0  -1.1 -4.8 0  -1 -4.8 0  -0.9000000000000004 -4.8 0  -0.7999999999999998 -4.8 0  -0.7000000000000002 -4.8 0  -0.5999999999999996 -4.8 0  -0.5 -4.8 0  -0.4000000000000004 -4.8 0  -0.2999999999999998 -4.8 0  -0.2000000000000002 -4.8 0  -0.09999999999999964 -4.8 0  0 -4.8 0  0.09999999999999964 -4.8 0  0.2000000000000002 -4.8 0  0.2999999999999998 -4.8 0  0.4000000000000004 -4.8 0  0.5 -4.8 0  0.5999999999999996 -4.8 0  0.7000000000000002 -4.8 0  0.7999999999999998 -4.8 0  0.9000000000000004 -4.8 0  1 -4.8 0  1.1 -4.8 0  1.2 -4.8 0  1.3 -4.8 0  1.4 -4.8 0  1.5 -4.8 0  1.6 -4.8 0  1.7 -4.8 0  1.8 -4.8 0  1.9 -4.8 0  2 -4.8 0  2.1 -4.8 0  2.2 -4.8 0  2.3 -4.8 0  2.4 -4.8 0  2.5 -4.8 0  2.6 -4.8 0  2.7 -4.8 0  2.8 -4.8 0  2.9 -4.8 0  3 -4.8 0  3.1 -4.8 0  3.199999999999999 -4.8 0  3.300000000000001 -4.8 0  3.4 -4.8 0  3.5 -4.8 0  3.6 -4.8 0  3.699999999999999 -4.8 0  3.800000000000001 -4.8 0  3.9 -4.8 0  4 -4.8 0  4.1 -4.8 0  4.199999999999999 -4.8 0  4.300000000000001 -4.8 0  4.4 -4.8 0  4.5 -4.8 0  4.6 -4.8 0  4.699999999999999 -4.8 0  4.800000000000001 -4.8 0  4.9 -4.8 0  5 -4.8 0  -5 -4.7 0  -4.9 -4.7 0  -4.8 -4.7 0  -4.7 -4.7 0  -4.6 -4.7 0  -4.5 -4.7 0  -4.4 -4.7 0  -4.3 -4.7 0  -4.2 -4.7 0  -4.1 -4.7 0  -4 -4.7 0  -3.9 -4.7 0  -3.8 -4.7 0  -3.7 -4.7 0  -3.6 -4.7 0  -3.5 -4.7 0  -3.4 -4.7 0  -3.3 -4.7 0  -3.2 -4.7 0  -3.1 -4.7 0  -3 -4.7 0  -2.9 -4.7 0  -2.8 -4.7 0  -2.7 -4.7 0  -2.6 -4.7 0  -2.5 -4.7 0  -2.4 -4.7 0  -2.3 -4.7 0  -2.2 -4.7 0  -2.1 -4.7 0  -2 -4.7 0  -1.9 -4.7 0  -1.8 -4.7 0  -1.7 -4.7 0  -1.6 -4.7 0  -1.5 -4.7 0  -1.4 -4.7 0  -1.3 -4.7 0  -1.2 -4.7 0  -1.1 -4.7 0  -1 -4.7 0  -0.9000000000000004 -4.7 0  -0.7999999999999998 -4.7 0  -0.7000000000000002 -4.7 0  -0.5999999999999996 -4.7 0  -0.5 -4.7 0  -0.4000000000000004 -4.7 0  -0.2999999999999998 -4.7 0  -0.2000000000000002 -4.7 0  -0.09999999999999964 -4.7 0  0 -4.7 0  0.09999999999999964 -4.7 0  0.2000000000000002 -4.7 0  0.2999999999999998 -4.7 0  0.4000000000000004 -4.7 0  0.5 -4.7 0  0.5999999999999996 -4.7 0  0.7000000000000002 -4.7 0  0.7999999999999998 -4.7 0  0.9000000000000004 -4.7 0  1 -4.7 0  1.1 -4.7 0  1.2 -4.7 0  1.3 -4.7 0  1.4 -4.7 0  1.5 -4.7 0  1.6 -4.7 0  1.7 -4.7 0  1.8 -4.7 0  1.9 -4.7 0  2 -4.7 0  2.1 -4.7 0  2.2 -4.7 0  2.3 -4.7 0  2.4 -4.7 0  2.5 -4.7 0  2.6 -4.7 0  2.7 -4.7 0  2.8 -4.7 0  2.9 -4.7 0  3 -4.7 0  3.1 -4.7 0  3.199999999999999 -4.7 0  3.300000000000001 -4.7 0  3.4 -4.7 0  3.5 -4.7 0  3.6 -4.7 0  3.699999999999999 -4.7 0  3.800000000000001 -4.7 0  3.9 -4.7 0  4 -4.7 0  4.1 -4.7 0  4.199999999999999 -4.7 0  4.300000000000001 -4.7 0  4.4 -4.7 0  4.5 -4.7 0  4.6 -4.7 0  4.699999999999999 -4.7 0  4.800000000000001 -4.7 0  4.9 -4.7 0  5 -4.7 0  -5 -4.6 0  -4.9 -4.6 0  -4.8 -4.6 0  -4.7 -4.6 0  -4.6 -4.6 0  -4.5 -4.6 0  -4.4 -4.6 0  -4.3 -4.6 0  -4.2 -4.6 0  -4.1 -4.6 0  -4 -4.6 0  -3.9 -4.6 0  -3.8 -4.6 0  -3.7 -4.6 0  -3.6 -4.6 0  -3.5 -4.6 0  -3.4 -4.6 0  -3.3 -4.6 0  -3.2 -4.6 0  -3.1 -4.6 0  -3 -4.6 0  -2.9 -4.6 0  -2.8 -4.6 0  -2.7 -4.6 0  -2.6 -4.6 0  -2.5 -4.6 0  -2.4 -4.6 0  -2.3 -4.6 0  -2.2 -4.6 0  -2.1 -4.6 0  -2 -4.6 0  -1.9 -4.6 0  -1.8 -4.6 0  -1.7 -4.6 0  -1.6 -4.6 0  -1.5 -4.6 0  -1.4 -4.6 0  -1.3 -4.6 0  -1.2 -4.6 0  -1.1 -4.6 0  -1 -4.6 0  -0.9000000000000004 -4.6 0  -0.7999999999999998 -4.6 0  -0.7000000000000002 -4.6 0  -0.5999999999999996 -4.6 0  -0.5 -4.6 0  -0.4000000000000004 -4.6 0  -0.2999999999999998 -4.6 0  -0.2000000000000002 -4.6 0  -0.09999999999999964 -4.6 0  0 -4.6 0  0.09999999999999964 -4.6 0  0.2000000000000002 -4.6 0  0.2999999999999998 -4.6 0  0.4000000000000004 -4.6 0  0.5 -4.6 0  0.5999999999999996 -4.6 0  0.7000000000000002 -4.6 0  0.7999999999999998 -4.6 0  0.9000000000000004 -4.6 0  1 -4.6 0  1.1 -4.6 0  1.2 -4.6 0  1.3 -4.6 0  1.4 -4.6 0  1.5 -4.6 0  1.6 -4.6 0  1.7 -4.6 0  1.8 -4.6 0  1.9 -4.6 0  2 -4.6 0  2.1 -4.6 0  2.2 -4.6 0  2.3 -4.6 0  2.4 -4.6 0  2.5 -4.6 0  2.6 -4.6 0  2.7 -4.6 0  2.8 -4.6 0  2.9 -4.6 0  3 -4.6 0  3.1 -4.6 0  3.199999999999999 -4.6 0  3.300000000000001 -4.6 0  3.4 -4.6 0  3.5 -4.6 0  3.6 -4.6 0  3.699999999999999 -4.6 0  3.800000000000001 -4.6 0  3.9 -4.6 0  4 -4.6 0  4.1 -4.6 0  4.199999999999999 -4.6 0  4.300000000000001 -4.6 0  4.4 -4.6 0  4.5 -4.6 0  4.6 -4.6 0  4.699999999999999 -4.6 0  4.800000000000001 -4.6 0  4.9 -4.6 0  5 -4.6 0  -5 -4.5 0  -4.9 -4.5 0  -4.8 -4.5 0  -4.7 -4.5 0  -4.6 -4.5 0  -4.5 -4.5 0  -4.4 -4.5 0  -4.3 -4.5 0  -4.2 -4.5 0  -4.1 -4.5 0  -4 -4.5 0  -3.9 -4.5 0  -3.8 -4.5 0  -3.7 -4.5 0  -3.6 -4.5 0  -3.5 -4.5 0  -3.4 -4.5 0  -3.3 -4.5 0  -3.2 -4.5 0  -3.1 -4.5 0  -3 -4.5 0  -2.9 -4.5 0  -2.8 -4.5 0  -2.7 -4.5 0  -2.6 -4.5 0  -2.5 -4.5 0  -2.4 -4.5 0  -2.3 -4.5 0  -2.2 -4.5 0  -2.1 -4.5 0  -2 -4.5 0  -1.9 -4.5 0  -1.8 -4.5 0  -1.7 -4.5 0  -1.6 -4.5 0  -1.5 -4.5 0  -1.4 -4.5 0  -1.3 -4.5 0  -1.2 -4.5 0  -1.1 -4.5 0  -1 -4.5 0  -0.9000000000000004 -4.5 0  -0.7999999999999998 -4.5 0  -0.7000000000000002 -4.5 0  -0.5999999999999996 -4.5 0  -0.5 -4.5 0  -0.4000000000000004 -4.5 0  -0.2999999999999998 -4.5 0  -0.2000000000000002 -4.5 0  -0.09999999999999964 -4.5 0  0 -4.5 0  0.09999999999999964 -4.5 0  0.2000000000000002 -4.5 0  0.2999999999999998 -4.5 0  0.4000000000000004 -4.5 0  0.5 -4.5 0  0.5999999999999996 -4.5 0  0.7000000000000002 -4.5 0  0.7999999999999998 -4.5 0  0.9000000000000004 -4.5 0  1 -4.5 0  1.1 -4.5 0  1.2 -4.5 0  1.3 -4.5 0  1.4 -4.5 0  1.5 -4.5 0  1.6 -4.5 0  1.7 -4.5 0  1.8 -4.5 0  1.9 -4.5 0  2 -4.5 0  2.1 -4.5 0  2.2 -4.5 0  2.3 -4.5 0  2.4 -4.5 0  2.5 -4.5 0  2.6 -4.5 0  2.7 -4.5 0  2.8 -4.5 0  2.9 -4.5 0  3 -4.5 0  3.1 -4.5 0  3.199999999999999 -4.5 0  3.300000000000001 -4.5 0  3.4 -4.5 0  3.5 -4.5 0  3.6 -4.5 0  3.699999999999999 -4.5 0  3.800000000000001 -4.5 0  3.9 -4.5 0  4 -4.5 0  4.1 -4.5 0  4.199999999999999 -4.5 0  4.300000000000001 -4.5 0  4.4 -4.5 0  4.5 -4.5 0  4.6 -4.5 0  4.699999999999999 -4.5 0  4.800000000000001 -4.5 0  4.9 -4.5 0  5 -4.5 0  -5 -4.4 0  -4.9 -4.4 0  -4.8 -4.4 0  -4.7 -4.4 0  -4.6 -4.4 0  -4.5 -4.4 0  -4.4 -4.4 0  -4.3 -4.4 0  -4.2 -4.4 0  -4.1 -4.4 0  -4 -4.4 0  -3.9 -4.4 0  -3.8 -4.4 0  -3.7 -4.4 0  -3.6 -4.4 0  -3.5 -4.4 0  -3.4 -4.4 0  -3.3 -4.4 0  -3.2 -4.4 0  -3.1 -4.4 0  -3 -4.4 0  -2.9 -4.4 0  -2.8 -4.4 0  -2.7 -4.4 0  -2.6 -4.4 0  -2.5 -4.4 0  -2.4 -4.4 0  -2.3 -4.4 0  -2.2 -4.4 0  -2.1 -4.4 0  -2 -4.4 0  -1.9 -4.4 0  -1.8 -4.
[...]
<PointData  Vectors="f_17"> 
<DataArray  type="Float64"  Name="f_17"  NumberOfComponents="3" format="ascii">1.5000000000533978e-01 0.0000000000000000e+00 0.0000000000000000e+00  1.5000000002010794e-01 -2.9685416653311629e-11 0.0000000000000000e+00  1.5000000006207445e-01 -1.4306316805272965e-10 0.0000000000000000e+00  1.5000000023820650e-01 -5.1055879220276163e-10 0.0000000000000000e+00  1.5000000084247747e-01 -1.4473757022463077e-09 0.0000000000000000e+00  1.5000000240606917e-01 -4.0376265306862480e-09 0.0000000000000000e+00  1.5000000622048201e-01 -9.6861466419839046e-09 0.0000000000000000e+00  1.5000001455884424e-01 -1.9551258375860564e-08 0.0000000000000000e+00  1.5000002964021603e-01 -3.3430823548856210e-08 0.0000000000000000e+00  1.5000005154332041e-01 -4.3590846391297114e-08 0.0000000000000000e+00  1.5000007295385681e-01 -2.4799183544573391e-08 0.0000000000000000e+00  1.5000006794627546e-01 6.9836904689606065e-08 0.0000000000000000e+00  1.4999998219280136e-01 3.0280905589894607e-07 0.0000000000000000e+00  1.4999973750956394e-01 7.2833766216336281e-07 0.0000000000000000e+00  1.4999925551870297e-01 1.3335297377553808e-06 0.0000000000000000e+00  1.4999850684276117e-01 1.9774028191227500e-06 0.0000000000000000e+00  1.4999757874385197e-01 2.4128950842595959e-06 0.0000000000000000e+00  1.4999669626318293e-01 2.3894158423001775e-06 0.0000000000000000e+00  1.4999614348557824e-01 1.7257418571685830e-06 0.0000000000000000e+00  1.4999615701004679e-01 3.3597693167876139e-07 0.0000000000000000e+00  1.4999686800202308e-01 -1.6685689753397354e-06 0.0000000000000000e+00  1.4999821914229117e-01 -3.7518830142206394e-06 0.0000000000000000e+00  1.4999983457791363e-01 -4.8389889989345228e-06 0.0000000000000000e+00  1.5000105498199698e-01 -3.8618211512965685e-06 0.0000000000000000e+00  1.5000132106693043e-01 -1.0609114568877838e-06 0.0000000000000000e+00  1.5000072565927428e-01 1.4696826026588079e-06 0.0000000000000000e+00  1.5000011098790053e-01 1.7184200505698652e-06 0.0000000000000000e+00  1.5000018623771758e-01 3.4885887878700115e-07 0.0000000000000000e+00  1.5000053022162060e-01 -2.3131460268001151e-07 0.0000000000000000e+00  1.5000026367081287e-01 4.5377820412648920e-07 0.0000000000000000e+00  1.4999969841325086e-01 5.7925665729451792e-07 0.0000000000000000e+00  1.4999985745763772e-01 -2.9901189979129811e-07 0.0000000000000000e+00  1.5000038119027745e-01 -4.2893483250664394e-07 0.0000000000000000e+00  1.5000010611911729e-01 4.6990874918544179e-07 0.0000000000000000e+00  1.4999953783443276e-01 4.9006640162476808e-07 0.0000000000000000e+00  1.4999991929413845e-01 -5.3729656794449527e-07 0.0000000000000000e+00  1.5000051002049733e-01 -5.4694241386348838e-07 0.0000000000000000e+00  1.5000005274975664e-01 5.2852252302854868e-07 0.0000000000000000e+00  1.4999950624233982e-01 5.3976477824998539e-07 0.0000000000000000e+00  1.5000000025268442e-01 -4.7997232826725896e-07 0.0000000000000000e+00  1.5000042385288143e-01 -4.5482861780107820e-07 0.0000000000000000e+00  1.4999993023106814e-01 4.2728206670150128e-07 0.0000000000000000e+00  1.4999967931314812e-01 3.2059094302515558e-07 0.0000000000000000e+00  1.5000013171368415e-01 -3.7823070837185683e-07 0.0000000000000000e+00  1.5000020566406505e-01 -1.7478682336268329e-07 0.0000000000000000e+00  1.4999983646202267e-01 3.2324284086674484e-07 0.0000000000000000e+00  1.4999990229063864e-01 4.7131844117320500e-08 0.0000000000000000e+00  1.5000015706712067e-01 -2.5349012749217549e-07 0.0000000000000000e+00  1.5000001285656775e-01 4.4495521308006809e-08 0.0000000000000000e+00  1.4999988013693671e-01 1.7126686757006788e-07 0.0000000000000000e+00  1.5000003872648826e-01 -9.2719816504923017e-08 0.0000000000000000e+00  1.5000006906001606e-01 -8.8974194589599943e-08 0.0000000000000000e+00  1.4999994385563803e-01 1.0008490712519575e-07 0.0000000000000000e+00  1.4999997725875050e-01 2.1958173201269414e-08 0.0000000000000000e+00  1.5000004786083035e-01 -7.8068597053948815e-08 0.0000000000000000e+00  1.4999999279040183e-01 1.9188481113804790e-08 0.0000000000000000e+00  1.4999997245304944e-01 4.3371745847948445e-08 0.0000000000000000e+00  1.5000001822824957e-01 -3.3104094155011622e-08 0.0000000000000000e+00  1.5000000799075072e-01 -1.1879136015335429e-08 0.0000000000000000e+00  1.4999998448868981e-01 2.7237371842205869e-08 0.0000000000000000e+00  1.5000000354867438e-01 -6.8635823858496243e-09 0.0000000000000000e+00  1.5000000739086808e-01 -1.3275210589329516e-08 0.0000000000000000e+00  1.4999999361126140e-01 1.1739615241116901e-08 0.0000000000000000e+00  1.4999999941788844e-01 1.2828089403541967e-09 0.0000000000000000e+00  1.5000000410200123e-01 -7.8902425072047740e-09 0.0000000000000000e+00  1.4999999776643241e-01 4.1158030400353856e-09 0.0000000000000000e+00  1.4999999907296635e-01 2.0799224406746896e-09 0.0000000000000000e+00  1.5000000188945797e-01 -3.7979937626313366e-09 0.0000000000000000e+00  1.4999999924754664e-01 1.3368661484835945e-09 0.0000000000000000e+00  1.4999999945643969e-01 1.2903473649557888e-09 0.0000000000000000e+00  1.5000000080758824e-01 -1.6903797948056294e-09 0.0000000000000000e+00  1.4999999971545014e-01 4.8716258368153277e-10 0.0000000000000000e+00  1.4999999976463571e-01 6.0454898083289080e-10 0.0000000000000000e+00  1.5000000033586153e-01 -7.3955195514732637e-10 0.0000000000000000e+00  1.4999999986748155e-01 2.3616024679567846e-10 0.0000000000000000e+00  1.4999999992226357e-01 2.2825867202179676e-10 0.0000000000000000e+00  1.5000000013535353e-01 -3.2027240027178168e-10 0.0000000000000000e+00  1.4999999992934346e-01 1.4122814907385614e-10 0.0000000000000000e+00  1.4999999998709265e-01 5.7666702398794038e-11 0.0000000000000000e+00  1.5000000004935929e-01 -1.2985012660504910e-10 0.0000000000000000e+00  1.4999999996289315e-01 8.5139598823024305e-11 0.0000000000000000e+00  1.5000000000727221e-01 -5.9590831952664867e-12 0.0000000000000000e+00  1.5000000001341199e-01 -4.2998602907671439e-11 0.0000000000000000e+00  1.4999999998277713e-01 4.6951368859230350e-11 0.0000000000000000e+00  1.5000000001022787e-01 -2.4692043388592221e-11 0.0000000000000000e+00  1.4999999999859012e-01 1.8962382601694439e-13 0.0000000000000000e+00  1.4999999999599523e-01 1.3751880831812637e-11 0.0000000000000000e+00  1.5000000000537383e-01 -1.6559271668781424e-11 0.0000000000000000e+00  1.4999999999555833e-01 1.3522594444781121e-11 0.0000000000000000e+00  1.5000000000308886e-01 -9.7920732352175738e-12 0.0000000000000000e+00  1.4999999999770716e-01 7.8134276807803870e-12 0.0000000000000000e+00  1.5000000000215175e-01 -7.6153156109730749e-12 0.0000000000000000e+00  1.4999999999766181e-01 8.1652596823923262e-12 0.0000000000000000e+00  1.5000000000250308e-01 -8.4779440671210377e-12 0.0000000000000000e+00  1.4999999999753955e-01 8.0902700081788990e-12 0.0000000000000000e+00  1.5000000000219044e-01 -7.0190708562984880e-12 0.0000000000000000e+00  1.4999999999820038e-01 5.5998521144563785e-12 0.0000000000000000e+00  1.5000000000130073e-01 -3.9624442518400567e-12 0.0000000000000000e+00  1.4999999999892127e-01 2.6683464684464205e-12 0.0000000000000000e+00  1.5000000000048902e-01 -1.3605353185545892e-12 0.0000000000000000e+00  1.4999999999899299e-01 0.0000000000000000e+00 0.0000000000000000e+00  1.5000000002010816e-01 0.0000000000000000e+00 -2.9685488762486419e-11  1.4999999997745986e-01 -2.9197764685366735e-12 -2.9202838811739072e-12  1.4999999995903604e-01 9.1037835047087063e-11 -1.0547468960542556e-10  1.4999999984372794e-01 3.5214894692673507e-10 -3.1072773838599106e-10  1.4999999942151318e-01 1.0733059525561813e-09 -1.1606979435618185e-09  1.4999999820565066e-01 2.9836481625131292e-09 -3.5291908664985273e-09  1.4999999523252075e-01 7.7596998110414218e-09 -9.4293598791179993e-09  1.4999998836786813e-01 1.6876543229452794e-08 -2.2792432089438955e-08  1.4999997484929178e-01 3.1103549823057822e-08 -4.8931950546936508e-08  1.4999995318997686e-01 4.6972814780211279e-08 -9.0862591316683712e-08  1.4999992682598165e-01 4.6249218681693594e-08 -1.4179113547440927e-07  1.4999991339839605e-01 -1.3212615660642348e-08 -1.6847088565393837e-07  1.4999995796172547e-01 -1.9441660616801045e-07 -8.9786063217347884e-08  1.5000013560594505e-01 -5.6448383614784640e-07 2.2413142412170864e-07  1.5000053359492013e-01 -1.1484006419750391e-06 9.1119660541723935e-07  1.5000121101989805e-01 -1.8516812842954903e-06 2.0319780289945494e-06  1.5000213176853824e-01 -2.4360824773480921e-06 3.4532019212863466e-06  1.5000311001788980e-01 -2.6166316511149536e-06 4.7901516702629916e-06  1.5000385303517297e-01 -2.1795362207840266e-06 5.5412903026990618e-06  1.5000408733808748e-01 -1.0125618695418035e-06 5.3461147557082269e-06  1.5000364438496333e-01 8.5286321448995847e-07 4.1151992457126373e-06  1.5000250683232139e-01 3.0616277389565688e-06 2.0358194290057680e-06  1.5000091691224926e-01 4.7380930779830569e-06 -3.2766409741355579e-07  1.4999943528417842e-01 4.6996292164001646e-06 -2.0134047244540658e-06  1.4999870717386943e-01 2.4907824914837101e-06 -2.1800008024557025e-06  1.4999895770359781e-01 -4.9552083850465943e-07 -9.9989033498389466e-07  1.4999964200540697e-01 -1.8478923118210156e-06 1.3787462514170123e-07  1.4999987683374807e-01 -9.6026726876873301e-07 -7.4262108653894505e-09  1.4999954914287850e-01 1.0302727604990417e-07 -8.0899548399912325e-07  1.4999951740028084e-01 -2.1842933409848494e-07 -5.7952271453487827e-07  1.5000009743410991e-01 -6.9929066869268888e-07 5.0332303705921929e-07  1.5000032412725681e-01 -3.8161843364401046e-08 4.7894295930048903e-07  1.4999979435128463e-01 5.3140923153669843e-07 -5.8886440214488925e-07  1.4999965330926734e-01 -1.4836323388912955e-07 -4.2776216374453839e-07  1.5000029241401033e-01 -6.4214646512832068e-07 7.6625634365704844e-07  1.5000037204261982e-01 1.7532273354871583e-07 4.2497259380162087e-07  1.4999964178028477e-01 7.0461012014246307e-07 -8.9577204000361405e-07  1.4999962894452804e-01 -1.4569166395846641e-07 -4.0136200382808281e-07  1.5000038041155711e-01 -6.8611702276171450e-07 9.1441630379220920e-07  1.5000031037130709e-01 1.1183707519962892e-07 2.9239741187906220e-07  1.4999962931426342e-01 5.9316283289563798e-07 -8.3774636196287865e-07  1.4999979805691738e-01 -1.0889935271658594e-07 -1.1173554189860154e-07  1.5000033487941947e-01 -4.6356335027237507e-07 6.9203757424605135e-07  1.5000007790436456e-01 1.3305431154810161e-07 -8.3604303137133429e-08  1.4999972490120572e-01 3.2868914107240429e-07 -5.0402968613323349e-07  1.5000002763540204e-01 -1.6167628379702618e-07 2.2993612782092216e-07  1.5000019592057440e-01 -2.0487602550779035e-07 3.0046098720721275e-07  1.4999990713732064e-01 1.7370431889495319e-07 -2.9061872741057644e-07  1.4999989009630410e-01 9.9601283096658967e-08 -1.1364117664635102e-07  1.5000011237605024e-01 -1.5991795353117463e-07 2.6570422070411807e-07  1.5000003443837989e-01 -1.8754158632658432e-08 -2.4642415795873563e-08  1.4999990484442238e-01 1.2328090917651708e-07 -1.8405525806676613e-07  1.5000001625834378e-01 -3.2575604337205027e-08 9.6286330154884195e-08  1.5000005879646180e-01 -7.4994476225496670e-08 8.6786150143913619e-08  1.4999996251260983e-01 5.3369290994918070e-08 -1.0513739854766743e-07  1.4999997818453040e-01 2.9083754749578953e-08 -9.4123178407143895e-09  1.5000003496036576e-01 -4.9138894955224565e-08 7.3783817051260481e-08  1.4999999679460974e-01 3.2186686176274823e-09 -3.0527438463242484e-08  1.4999997949139471e-01 3.0856249353346231e-08 -3.1306345969392127e-08  1.5000001277005948e-01 -1.7509551567155598e-08 3.5723548662439233e-08  1.5000000570883709e-01 -1.0721713401237179e-08 -1.8273960193122223e-10  1.4999998905346393e-01 1.6869570866949289e-08 -2.1697983279297406e-08  1.5000000286006085e-01 -2.6781402563643761e-09 1.2721424470554618e-08  1.5000000481226672e-01 -8.9154760444132183e-09 5.3281046560275858e-09  1.4999999539423389e-01 6.9474357302995994e-09 -1.0788817344036012e-08  1.5000000007252270e-01 1.1552485060015734e-09 3.7107768572273757e-09  1.5000000261161045e-01 -4.9149709420808966e-09 3.8397116606870344e-09  1.4999999824171059e-01 2.5091528969863724e-09 -4.6926548382374679e-09  1.4999999970249925e-01 1.2319456645205137e-09 1.0216029791241393e-09  1.5000000119611379e-01 -2.3224437068830754e-09 1.9382245135444474e-09  1.4999999932025321e-01 9.2146149321410701e-10 -1.9665539163028295e-09  1.4999999982778525e-01 6.7803115678341470e-10 3.6580374284868107e-10  1.5000000050284318e-01 -1.0342855105951893e-09 8.1472844760415083e-10  1.4999999971321962e-01 3.9971434313597706e-10 -8.2987250677739539e-10  1.4999999994806062e-01 2.7665298277712967e-10 2.0816425941247950e-10  1.5000000019688425e-01 -4.4751198179299641e-10 2.8473170669740306e-10  1.4999999986828844e-01 2.1058855580395906e-10 -3.4845314799929602e-10  1.5000000000342176e-01 7.4558050583215424e-11 1.4068928316186378e-10  1.5000000006767292e-01 -1.8191235507499632e-10 6.6219156528642182e-11  1.4999999993939706e-01 1.1845972541160134e-10 -1.3468490609337858e-10  1.5000000001772798e-01 -5.0042043443870425e-12 8.7155402778928745e-11  1.5000000001638103e-01 -6.2640205827155860e-11 -9.0620633205084272e-12  1.4999999997479260e-01 6.4293616079320041e-11 -3.8470418788687110e-11  1.5000000001599950e-01 -2.9830121235616950e-11 4.3607892481365249e-11  1.4999999999728514e-01 -4.9660209131968722e-12 -2.4668341986537028e-11  1.4999999999417296e-01 2.2666903445668813e-11 3.3564146495788286e-12  1.5000000000814792e-01 -2.4312065518760096e-11 9.1170897253150566e-12  1.4999999999317676e-01 1.8698146841543237e-11 -1.2199559628719722e-11  1.5000000000478447e-01 -1.3250328694638715e-11 1.0241106547143248e-11  1.4999999999643901e-01 1.0827972141808237e-11 -7.4561922963891871e-12  1.5000000000329852e-01 -1.0821041459595263e-11 5.8890292279569061e-12  1.4999999999650626e-01 1.1472227241777647e-11 -5.6670789927029070e-12  1.5000000000363387e-01 -1.1465751957642159e-11 6.0580905458925070e-12  1.4999999999653277e-01 1.0391976065929672e-11 -6.3221429495178103e-12  1.5000000000299865e-01 -8.5111543982389251e-12 6.0933380862338055e-12  1.4999999999764319e-01 6.3266535029592696e-12 -5.3540036341525278e-12  1.5000000000170841e-01 -4.3178893902650737e-12 4.3295136982647002e-12  1.4999999999890803e-01 2.6042753207538129e-12 -3.1052477018270847e-12  1.5000000000078204e-01 -1.6107630439562144e-12 2.3824257943203796e-12  1.4999999999982674e-01 8.4162733665706943e-13 -8.4148309492908259e-13  1.5000000000048941e-01 0.0000000000000000e+00 1.3609203025194954e-12  1.5000000006207448e-01 0.0000000000000000e+00 -1.4306394388170283e-10  1.4999999995903587e-01 -1.0547504252336153e-10 9.1038113136712824e-11  1.5000000007250483e-01 4.2742108457357086e-11 4.2741855859120276e-11  1.5000000009751757e-01 -3.2659586428710155e-10 3.9036216654245730e-10  1.5000000044847187e-01 -8.7482467634523920e-10 1.1683385184246826e-09  1.5000000146307804e-01 -2.5723766849050721e-09 4.1348389982902907e-09  1.5000000413536035e-01 -6.8473258658792941e-09 1.1615154434380455e-08  1.5000001036579169e-01 -1.6430819454795678e-08 2.9614559426653492e-08  1.5000002381144151e-01 -3.2785931610094229e-08 6.8455978875013900e-08  1.5000004778916015e-01 -5.5646030039490096e-08 1.3927140756381885e-07  1.5000008216178873e-01 -7.3512761803359159e-08 2.4399952784509477e-07  1.5000011610093664e-01 -4.7648383434210255e-08 3.5473068534076765e-07  1.5000011234269001e-01 9.2514734190239424e-08 3.6936739310139868e-07  1.4999999423404048e-01 4.3424477820405370e-07 7.5098364844751701e-08  1.4999965706863547e-01 1.0440433283000774e-06 -8.1958012614018201e-07  1.4999900662499341e-01 1.8813610036945628e-06 -2.5644070490132870e-06  1.4999802651155208e-01 2.7105247331028891e-06 -5.1583291028732487e-06  1.4999686448983932e-01 3.1606663545927615e-06 -8.1138912723248880e-06  1.4999584315191977e-01 2.9237978940052423e-06 -1.0481156115611637e-05  1.4999531798319823e-01 1.8639315566628126e-06 -1.1320127398227449e-05  1.4999551579004081e-01 -6.8748425516339247e-09 -1.0182412602232156e-05  1.4999649702003529e-01 -2.4572205791857028e-06 -7.1400549106416670e-06  1.4999811503725238e-01 -4.8017988262711413e-06 -2.7596104480844195e-06  1.4999989992725052e-01 -5.8181159280752119e-06 1.6250861082744708e-06  1.5000114011351970e-01 -4.4043112044140677e-06 4.1085990020798620e-06  1.5000133380434871e-01 -1.0467030869810694e-06 3.5633381381881670e-06  1.5000070944496785e-01 1.7060337547625928e-06 1.1618008275787033e-06  1.5000018825764133e-01 1.7354556489377891e-06 -1.7027837006030928e-07  1.5000038793240142e-01 2.3926063542303145e-07 8.6741443868761363e-07  1.5000069048280040e-01 -3.3166407859694066e-08 1.7928940455523493e-06  1.5000021619374629e-01 8.3335871021999010e-07 2.2266318382584467e-07  1.4999958264130261e-01 5.7625902968332300e-07 -1.4052354270615346e-06  1.4999992661008638e-01 -5.7457124645651069e-07 -1.1889087151730335e-08  1.5000050963584510e-01 -3.4805665845938753e-07 1.5444833358332206e-06  1.5000000936551031e-01 7.7207031513358502e-07 -2.5667177442533247e-07  1.4999939897187239e-01 3.7221534358949203e-07 -1.8023948560681725e-06  1.5000005131221891e-01 -8.5517133682482499e-07 4.6426274154959425e-07  1.5000065343805549e-01 -4.1344671284290104e-07 1.9381935062021866e-06  1.4999989894561416e-01 8.3145776494228042e-07 -6.0497725750053825e-07  1.4999938487890663e-01 4.0548968807263095e-07 -1.7935321586080414e-06  1.5000016260935881e-01 -7.3039237604524618e-07 7.4602424138573064e-07  1.5000049802522919e-01 -3.2009295336998714e-07 1.4034946776988728e-06  1.4999977477420087e-01 6.0481538066087862e-07 -8.6787976178902225e-07  1.4999966485272637e-01 1.8492742874751702e-07 -8.7997646255404298e-07  1.5000026369854444e-01 -4.8136688878469293e-07 9.0886269540633503e-07  1.5000016627871332e-01 -4.3795409401311443e-08 3.5760362854644441e-07  1.4999974311562797e-01 3.6303356016292926e-07 -8.1741852762095877e-07  1.4999997504232213e-01 -6.8210382205724050e-08 5.5900857790928995e-08  1.5000020383011953e-01 -2.4642172657889680e-07 6.0124578813692736e-07  1.4999993307688211e-01 1.3323910053685087e-07 -2.9889605809086700e-07  1.4999987630768608e-01 1.3538734127552826e-07 -3.2598437638860824e-07  1.5000010291720611e-01 -1.4875625989507393e-07 3.6387090193022289e-07  1.5000004427004063e-01 -4.1787876799662752e-08 7.7605606976560299e-08  1.4999990721213183e-01 1.2427838077521903e-07 -2.9392787108441699e-07  1.5000001176378502e-01 -2.1749740404966445e-08 8.0579399047741107e-08  1.5000005752783280e-01 -7.7705521483061967e-08 1.6219946029711474e-07  1.4999996435539881e-01 4.9746922909420031e-08 -1.3233977738420484e-07  1.4999998015377605e-01 2.9509641018946190e-08 -3.9887139115223155e-08  1.5000003308168999e-01 -4.7454268359980772e-08 1.0558861293709680e-07  1.4999999502430128e-01 4.4686851232611616e-09 -3.1049321507658161e-08  1.4999998212353391e-01 2.8406431600212021e-08 -4.8653416542986347e-08  1.5000001310866815e-01 -1.8231174097218731e-08 4.6636450799229028e-08  1.5000000324323040e-01 -7.7134975867620306e-09 2.2538779929289953e-09  1.4999999021589255e-01 1.5849362598541719e-08 -2.9289911704953845e-08  1.5000000407438846e-01 -4.7342207978268994e-09 1.6779313357265406e-08  1.5000000317077791e-01 -6.7566959445627214e-09 6.5103682319254741e-09  1.4999999558393465e-01 7.1715963219319048e-09 -1.3998005353813700e-08  1.5000000110585368e-01 -6.5591015014570084e-10 5.6344785754398683e-09  1.5000000176691655e-01 -3.8212809950239959e-09 4.1165739391774960e-09  1.4999999814111811e-01 3.0415643473698768e-09 -6.0931763189020757e-09  1.5000000033691993e-01 6.4882649088772749e-11 2.0886858927092579e-09  1.5000000078952483e-01 -1.8135956682463525e-09 1.8541668067103506e-09  1.4999999922152929e-01 1.3255960043243152e-09 -2.5625959210045470e-09  1.5000000016308390e-01 1.7375259614006962e-11 9.6659237520082518e-10  1.5000000029768248e-01 -7.6892420406145791e-10 6.3591458334773173e-10  1.4999999967187927e-01 6.1339481819246525e-10 -1.0436585181784582e-09  1.5000000010897477e-01 -7.6018282282251619e-11 5.2384724220971748e-10  1.5000000008500339e-01 -2.7987846476108972e-10 1.1734772700802037e-10  1.4999999986815141e-01 2.8694504620353133e-10 -3.8501167547724492e-