<?xml version="1.0"?>
<VTKFile type="UnstructuredGrid"  version="0.1"  >
<UnstructuredGrid>
<Piece  NumberOfPoints="10201" NumberOfCells="20000">
<Points>
<DataArray  type="Float64"  NumberOfComponents="3"  format="ascii">-5 -5 0  -4.9 -5 0  -4.8 -5 0  -4.7 -5 0  -4.6 -5 0  -4.5 -5 0  -4.4 -5 0  -4.3 -5 0  -4.2 -5 0  -4.1 -5 0  -4 -5 0  -3.9 -5 0  -3.8 -5 0  -3.7 -5 0  -3.6 -5 0  -3.5 -5 0  -3.4 -5 0  -3.3 -5 0  -3.2 -5 0  -3.1 -5 0  -3 -5 0  -2.9 -5 0  -2.8 -5 0  -2.7 -5 0  -2.6 -5 0  -2.5 -5 0  -2.4 -5 0  -2.3 -5 0  -2.2 -5 0  -2.1 -5 0  -2 -5 0  -1.9 -5 0  -1.8 -5 0  -1.7 -5 0  -1.6 -5 0  -1.5 -5 0  -1.4 -5 0  -1.3 -5 0  -1.2 -5 0  -1.1 -5 0  -1 -5 0  -0.9000000000000004 -5 0  -0.7999999999999998 -5 0  -0.7000000000000002 -5 0  -0.5999999999999996 -5 0  -0.5 -5 0  -0.4000000000000004 -5 0  -0.2999999999999998 -5 0  -0.2000000000000002 -5 0  -0.09999999999999964 -5 0  0 -5 0  0.09999999999999964 -5 0  0.2000000000000002 -5 0  0.2999999999999998 -5 0  0.4000000000000004 -5 0  0.5 -5 0  0.5999999999999996 -5 0  0.7000000000000002 -5 0  0.7999999999999998 -5 0  0.9000000000000004 -5 0  1 -5 0  1.1 -5 0  1.2 -5 0  1.3 -5 0  1.4 -5 0  1.5 -5 0  1.6 -5 0  1.7 -5 0  1.8 -5 0  1.9 -5 0  2 -5 0  2.1 -5 0  2.2 -5 0  2.3 -5 0  2.4 -5 0  2.5 -5 0  2.6 -5 0  2.7 -5 0  2.8 -5 0  2.9 -5 0  3 -5 0  3.1 -5 0  3.199999999999999 -5 0  3.300000000000001 -5 0  3.4 -5 0  3.5 -5 0  3.6 -5 0  3.699999999999999 -5 0  3.800000000000001 -5 0  3.9 -5 0  4 -5 0  4.1 -5 0  4.199999999999999 -5 0  4.300000000000001 -5 0  4.4 -5 0  4.5 -5 0  4.6 -5 0  4.699999999999999 -5 0  4.800000000000001 -5 0  4.9 -5 0  5 -5 0  -5 -4.9 0  -4.9 -4.9 0  -4.8 -4.9 0  -4.7 -4.9 0  -4.6 -4.9 0  -4.5 -4.9 0  -4.4 -4.9 0  -4.3 -4.9 0  -4.2 -4.9 0  -4.1 -4.9 0  -4 -4.9 0  -3.9 -4.9 0  -3.8 -4.9 0  -3.7 -4.9 0  -3.6 -4.9 0  -3.5 -4.9 0  -3.4 -4.9 0  -3.3 -4.9 0  -3.2 -4.9 0  -3.1 -4.9 0  -3 -4.9 0  -2.9 -4.9 0  -2.8 -4.9 0  -2.7 -4.9 0  -2.6 -4.9 0  -2.5 -4.9 0  -2.4 -4.9 0  -2.3 -4.9 0  -2.2 -4.9 0  -2.1 -4.9 0  -2 -4.9 0  -1.9 -4.9 0  -1.8 -4.9 0  -1.7 -4.9 0  -1.6 -4.9 0  -1.5 -4.9 0  -1.4 -4.9 0  -1.3 -4.9 0  -1.2 -4.9 0  -1.1 -4.9 0  -1 -4.9 0  -0.9000000000000004 -4.9 0  -0.7999999999999998 -4.9 0  -0.7000000000000002 -4.9 0  -0.5999999999999996 -4.9 0  -0.5 -4.9 0  -0.4000000000000004 -4.9 0  -0.2999999999999998 -4.9 0  -0.2000000000000002 -4.9 0  -0.09999999999999964 -4.9 0  0 -4.9 0  0.09999999999999964 -4.9 0  0.2000000000000002 -4.9 0  0.2999999999999998 -4.9 0  0.4000000000000004 -4.9 0  0.5 -4.9 0  0.5999999999999996 -4.9 0  0.7000000000000002 -4.9 0  0.7999999999999998 -4.9 0  0.9000000000000004 -4.9 0  1 -4.9 0  1.1 -4.9 0  1.2 -4.9 0  1.3 -4.9 0  1.4 -4.9 0  1.5 -4.9 0  1.6 -4.9 0  1.7 -4.9 0  1.8 -4.9 0  1.9 -4.9 0  2 -4.9 0  2.1 -4.9 0  2.2 -4.9 0  2.3 -4.9 0  2.4 -4.9 0  2.5 -4.9 0  2.6 -4.9 0  2.7 -4.9 0  2.8 -4.9 0  2.9 -4.9 0  3 -4.9 0  3.1 -4.9 0  3.199999999999999 -4.9 0  3.300000000000001 -4.9 0  3.4 -4.9 0  3.5 -4.9 0  3.6 -4.9 0  3.699999999999999 -4.9 0  3.800000000000001 -4.9 0  3.9 -4.9 0  4 -4.9 0  4.1 -4.9 0  4.199999999999999 -4.9 0  4.300000000000001 -4.9 0  4.4 -4.9 0  4.5 -4.9 0  4.6 -4.9 0  4.699999999999999 -4.9 0  4.800000000000001 -4.9 0  4.9 -4.9 0  5 -4.9 0  -5 -4.8 0  -4.9 -4.8 0  -4.8 -4.8 0  -4.7 -4.8 0  -4.6 -4.8 0  -4.5 -4.8 0  -4.4 -4.8 0  -4.3 -4.8 0  -4.2 -4.8 0  -4.1 -4.8 0  -4 -4.8 0  -3.9 -4.8 0  -3.8 -4.8 0  -3.7 -4.8 0  -3.6 -4.8 0  -3.5 -4.8 0  -3.4 -4.8 0  -3.3 -4.8 0  -3.2 -4.8 0  -3.1 -4.8 0  -3 -4.8 0  -2.9 -4.8 0  -2.8 -4.8 0  -2.7 -4.8 0  -2.6 -4.8 0  -2.5 -4.8 0  -2.4 -4.8 0  -2.3 -4.8 0  -2.2 -4.8 0  -2.1 -4.8 0  -2 -4.8 0  -1.9 -4.8 0  -1.8 -4.8 0  -1.7 -4.8 0  -1.6 -4.8 0  -1.5 -4.8 0  -1.4 -4.8 0  -1.3 -4.8 0  -1.2 -4.8 0  -1.1 -4.8 0  -1 -4.8 0  -0.9000000000000004 -4.8 0  -0.7999999999999998 -4.8 0  -0.7000000000000002 -4.8 0  -0.5999999999999996 -4.8 0  -0.5 -4.8 0  -0.4000000000000004 -4.8 0  -0.2999999999999998 -4.8 0  -0.2000000000000002 -4.8 0  -0.09999999999999964 -4.8 0  0 -4.8 0  0.09999999999999964 -4.8 0  0.2000000000000002 -4.8 0  0.2999999999999998 -4.8 0  0.4000000000000004 -4.8 0  0.5 -4.8 0  0.5999999999999996 -4.8 0  0.7000000000000002 -4.8 0  0.7999999999999998 -4.8 0  0.9000000000000004 -4.8 0  1 -4.8 0  1.1 -4.8 0  1.2 -4.8 0  1.3 -4.8 0  1.4 -4.8 0  1.5 -4.8 0  1.6 -4.8 0  1.7 -4.8 0  1.8 -4.8 0  1.9 -4.8 0  2 -4.8 0  2.1 -4.8 0  2.2 -4.8 0  2.3 -4.8 0  2.4 -4.8 0  2.5 -4.8 0  2.6 -4.8 0  2.7 -4.8 0  2.8 -4.8 0  2.9 -4.8 0  3 -4.8 0  3.1 -4.8 0  3.199999999999999 -4.8 0  3.300000000000001 -4.8 0  3.4 -4.8 0  3.5 -4.8 0  3.6 -4.8 0  3.699999999999999 -4.8 0  3.800000000000001 -4.8 0  3.9 -4.8 0  4 -4.8 0  4.1 -4.8 0  4.199999999999999 -4.8 0  4.300000000000001 -4.8 0  4.4 -4.8 0  4.5 -4.8 0  4.6 -4.8 0  4.699999999999999 -4.8 0  4.800000000000001 -4.8 0  4.9 -4.8 0  5 -4.8 0  -5 -4.7 0  -4.9 -4.7 0  -4.8 -4.7 0  -4.7 -4.7 0  -4.6 -4.7 0  -4.5 -4.7 0  -4.4 -4.7 0  -4.3 -4.7 0  -4.2 -4.7 0  -4.1 -4.7 0  -4 -4.7 0  -3.9 -4.7 0  -3.8 -4.7 0  -3.7 -4.7 0  -3.6 -4.7 0  -3.5 -4.7 0  -3.4 -4.7 0  -3.3 -4.7 0  -3.2 -4.7 0  -3.1 -4.7 0  -3 -4.7 0  -2.9 -4.7 0  -2.8 -4.7 0  -2.7 -4.7 0  -2.6 -4.7 0  -2.5 -4.7 0  -2.4 -4.7 0  -2.3 -4.7 0  -2.2 -4.7 0  -2.1 -4.7 0  -2 -4.7 0  -1.9 -4.7 0  -1.8 -4.7 0  -1.7 -4.7 0  -1.6 -4.7 0  -1.5 -4.7 0  -1.4 -4.7 0  -1.3 -4.7 0  -1.2 -4.7 0  -1.1 -4.7 0  -1 -4.7 0  -0.9000000000000004 -4.7 0  -0.7999999999999998 -4.7 0  -0.7000000000000002 -4.7 0  -0.5999999999999996 -4.7 0  -0.5 -4.7 0  -0.4000000000000004 -4.7 0  -0.2999999999999998 -4.7 0  -0.2000000000000002 -4.7 0  -0.09999999999999964 -4.7 0  0 -4.7 0  0.09999999999999964 -4.7 0  0.2000000000000002 -4.7 0  0.2999999999999998 -4.7 0  0.4000000000000004 -4.7 0  0.5 -4.7 0  0.5999999999999996 -4.7 0  0.7000000000000002 -4.7 0  0.7999999999999998 -4.7 0  0.9000000000000004 -4.7 0  1 -4.7 0  1.1 -4.7 0  1.2 -4.7 0  1.3 -4.7 0  1.4 -4.7 0  1.5 -4.7 0  1.6 -4.7 0  1.7 -4.7 0  1.8 -4.7 0  1.9 -4.7 0  2 -4.7 0  2.1 -4.7 0  2.2 -4.7 0  2.3 -4.7 0  2.4 -4.7 0  2.5 -4.7 0  2.6 -4.7 0  2.7 -4.7 0  2.8 -4.7 0  2.9 -4.7 0  3 -4.7 0  3.1 -4.7 0  3.199999999999999 -4.7 0  3.300000000000001 -4.7 0  3.4 -4.7 0  3.5 -4.7 0  3.6 -4.7 0  3.699999999999999 -4.7 0  3.800000000000001 -4.7 0  3.9 -4.7 0  4 -4.7 0  4.1 -4.7 0  4.199999999999999 -4.7 0  4.300000000000001 -4.7 0  4.4 -4.7 0  4.5 -4.7 0  4.6 -4.7 0  4.699999999999999 -4.7 0  4.800000000000001 -4.7 0  4.9 -4.7 0  5 -4.7 0  -5 -4.6 0  -4.9 -4.6 0  -4.8 -4.6 0  -4.7 -4.6 0  -4.6 -4.6 0  -4.5 -4.6 0  -4.4 -4.6 0  -4.3 -4.6 0  -4.2 -4.6 0  -4.1 -4.6 0  -4 -4.6 0  -3.9 -4.6 0  -3.8 -4.6 0  -3.7 -4.6 0  -3.6 -4.6 0  -3.5 -4.6 0  -3.4 -4.6 0  -3.3 -4.6 0  -3.2 -4.6 0  -3.1 -4.6 0  -3 -4.6 0  -2.9 -4.6 0  -2.8 -4.6 0  -2.7 -4.6 0  -2.6 -4.6 0  -2.5 -4.6 0  -2.4 -4.6 0  -2.3 -4.6 0  -2.2 -4.6 0  -2.1 -4.6 0  -2 -4.6 0  -1.9 -4.6 0  -1.8 -4.6 0  -1.7 -4.6 0  -1.6 -4.6 0  -1.5 -4.6 0  -1.4 -4.6 0  -1.3 -4.6 0  -1.2 -4.6 0  -1.1 -4.6 0  -1 -4.6 0  -0.9000000000000004 -4.6 0  -0.7999999999999998 -4.6 0  -0.7000000000000002 -4.6 0  -0.5999999999999996 -4.6 0  -0.5 -4.6 0  -0.4000000000000004 -4.6 0  -0.2999999999999998 -4.6 0  -0.2000000000000002 -4.6 0  -0.09999999999999964 -4.6 0  0 -4.6 0  0.09999999999999964 -4.6 0  0.2000000000000002 -4.6 0  0.2999999999999998 -4.6 0  0.4000000000000004 -4.6 0  0.5 -4.6 0  0.5999999999999996 -4.6 0  0.7000000000000002 -4.6 0  0.7999999999999998 -4.6 0  0.9000000000000004 -4.6 0  1 -4.6 0  1.1 -4.6 0  1.2 -4.6 0  1.3 -4.6 0  1.4 -4.6 0  1.5 -4.6 0  1.6 -4.6 0  1.7 -4.6 0  1.8 -4.6 0  1.9 -4.6 0  2 -4.6 0  2.1 -4.6 0  2.2 -4.6 0  2.3 -4.6 0  2.4 -4.6 0  2.5 -4.6 0  2.6 -4.6 0  2.7 -4.6 0  2.8 -4.6 0  2.9 -4.6 0  3 -4.6 0  3.1 -4.6 0  3.199999999999999 -4.6 0  3.300000000000001 -4.6 0  3.4 -4.6 0  3.5 -4.6 0  3.6 -4.6 0  3.699999999999999 -4.6 0  3.800000000000001 -4.6 0  3.9 -4.6 0  4 -4.6 0  4.1 -4.6 0  4.199999999999999 -4.6 0  4.300000000000001 -4.6 0  4.4 -4.6 0  4.5 -4.6 0  4.6 -4.6 0  4.699999999999999 -4.6 0  4.800000000000001 -4.6 0  4.9 -4.6 0  5 -4.6 0  -5 -4.5 0  -4.9 -4.5 0  -4.8 -4.5 0  -4.7 -4.5 0  -4.6 -4.5 0  -4.5 -4.5 0  -4.4 -4.5 0  -4.3 -4.5 0  -4.2 -4.5 0  -4.1 -4.5 0  -4 -4.5 0  -3.9 -4.5 0  -3.8 -4.5 0  -3.7 -4.5 0  -3.6 -4.5 0  -3.5 -4.5 0  -3.4 -4.5 0  -3.3 -4.5 0  -3.2 -4.5 0  -3.1 -4.5 0  -3 -4.5 0  -2.9 -4.5 0  -2.8 -4.5 0  -2.7 -4.5 0  -2.6 -4.5 0  -2.5 -4.5 0  -2.4 -4.5 0  -2.3 -4.5 0  -2.2 -4.5 0  -2.1 -4.5 0  -2 -4.5 0  -1.9 -4.5 0  -1.8 -4.5 0  -1.7 -4.5 0  -1.6 -4.5 0  -1.5 -4.5 0  -1.4 -4.5 0  -1.3 -4.5 0  -1.2 -4.5 0  -1.1 -4.5 0  -1 -4.5 0  -0.9000000000000004 -4.5 0  -0.7999999999999998 -4.5 0  -0.7000000000000002 -4.5 0  -0.5999999999999996 -4.5 0  -0.5 -4.5 0  -0.4000000000000004 -4.5 0  -0.2999999999999998 -4.5 0  -0.2000000000000002 -4.5 0  -0.09999999999999964 -4.5 0  0 -4.5 0  0.09999999999999964 -4.5 0  0.2000000000000002 -4.5 0  0.2999999999999998 -4.5 0  0.4000000000000004 -4.5 0  0.5 -4.5 0  0.5999999999999996 -4.5 0  0.7000000000000002 -4.5 0  0.7999999999999998 -4.5 0  0.9000000000000004 -4.5 0  1 -4.5 0  1.1 -4.5 0  1.2 -4.5 0  1.3 -4.5 0  1.4 -4.5 0  1.5 -4.5 0  1.6 -4.5 0  1.7 -4.5 0  1.8 -4.5 0  1.9 -4.5 0  2 -4.5 0  2.1 -4.5 0  2.2 -4.5 0  2.3 -4.5 0  2.4 -4.5 0  2.5 -4.5 0  2.6 -4.5 0  2.7 -4.5 0  2.8 -4.5 0  2.9 -4.5 0  3 -4.5 0  3.1 -4.5 0  3.199999999999999 -4.5 0  3.300000000000001 -4.5 0  3.4 -4.5 0  3.5 -4.5 0  3.6 -4.5 0  3.699999999999999 -4.5 0  3.800000000000001 -4.5 0  3.9 -4.5 0  4 -4.5 0  4.1 -4.5 0  4.199999999999999 -4.5 0  4.300000000000001 -4.5 0  4.4 -4.5 0  4.5 -4.5 0  4.6 -4.5 0  4.699999999999999 -4.5 0  4.800000000000001 -4.5 0  4.9 -4.5 0  5 -4.5 0  -5 -4.4 0  -4.9 -4.4 0  -4.8 -4.4 0  -4.7 -4.4 0  -4.6 -4.4 0  -4.5 -4.4 0  -4.4 -4.4 0  -4.3 -4.4 0  -4.2 -4.4 0  -4.1 -4.4 0  -4 -4.4 0  -3.9 -4.4 0  -3.8 -4.4 0  -3.7 -4.4 0  -3.6 -4.4 0  -3.5 -4.4 0  -3.4 -4.4 0  -3.3 -4.4 0  -3.2 -4.4 0  -3.1 -4.4 0  -3 -4.4 0  -2.9 -4.4 0  -2.8 -4.4 0  -2.7 -4.4 0  -2.6 -4.4 0  -2.5 -4.4 0  -2.4 -4.4 0  -2.3 -4.4 0  -2.2 -4.4 0  -2.1 -4.4 0  -2 -4.4 0  -1.9 -4.4 0  -1.8 -4.
[...]
<PointData  Vectors="f_23"> 
<DataArray  type="Float64"  Name="f_23"  NumberOfComponents="3" format="ascii">1.5009475804671665e-01 0.0000000000000000e+00 0.0000000000000000e+00  1.5000162734591949e-01 4.6556943662703794e-09 0.0000000000000000e+00  1.5013517694075906e-01 4.1920507910184870e-11 0.0000000000000000e+00  1.5008900688389276e-01 1.2792314313792888e-08 0.0000000000000000e+00  1.5023286185640913e-01 3.7614189007776806e-10 0.0000000000000000e+00  1.5020554776387648e-01 2.1160847447945957e-08 0.0000000000000000e+00  1.5034293614230834e-01 1.0142779108192018e-09 0.0000000000000000e+00  1.5029472772308095e-01 1.6135947626628922e-08 0.0000000000000000e+00  1.5037551624226669e-01 1.5093017774761334e-10 0.0000000000000000e+00  1.5027411216266004e-01 1.6270721849800089e-09 0.0000000000000000e+00  1.5028838666286587e-01 8.6100710672628865e-09 0.0000000000000000e+00  1.5017261459822379e-01 1.5633628746640213e-09 0.0000000000000000e+00  1.5018720004083899e-01 1.2621194355267808e-08 0.0000000000000000e+00  1.5012601640314729e-01 1.2384816526246453e-09 0.0000000000000000e+00  1.5016132203603724e-01 4.2749823365444701e-09 0.0000000000000000e+00  1.5011628013170336e-01 3.4818895140056235e-10 0.0000000000000000e+00  1.5010699029078783e-01 4.5748822330465943e-09 0.0000000000000000e+00  1.5002653276759090e-01 3.3401625155266422e-09 0.0000000000000000e+00  1.4998985138417065e-01 6.4750001272311647e-09 0.0000000000000000e+00  1.4995295816183568e-01 1.7516087008187280e-09 0.0000000000000000e+00  1.4997081654982294e-01 2.1029499645981737e-10 0.0000000000000000e+00  1.4998772134830798e-01 9.9138604306999106e-10 0.0000000000000000e+00  1.5001832655062383e-01 1.2972527512207586e-09 0.0000000000000000e+00  1.5001004866966239e-01 7.5483297417925484e-10 0.0000000000000000e+00  1.4997274577336245e-01 3.1770254533195015e-11 0.0000000000000000e+00  1.4992588072200641e-01 1.3598879386321773e-09 0.0000000000000000e+00  1.4991215638668681e-01 1.6266076639702270e-09 0.0000000000000000e+00  1.4993816037411822e-01 1.5020169330302247e-10 0.0000000000000000e+00  1.5000180082418074e-01 3.5204784825776396e-09 0.0000000000000000e+00  1.5004430592074372e-01 2.3358053966037236e-09 0.0000000000000000e+00  1.5002249115436145e-01 9.9959212230946159e-11 0.0000000000000000e+00  1.4998748498796541e-01 2.1448333139656448e-10 0.0000000000000000e+00  1.4999195864402290e-01 1.1919700247802255e-09 0.0000000000000000e+00  1.5000198796907244e-01 6.0390289158665195e-10 0.0000000000000000e+00  1.5002166707856143e-01 8.5742124159929960e-10 0.0000000000000000e+00  1.5006308283785505e-01 1.7178534822230789e-09 0.0000000000000000e+00  1.5003062351050592e-01 7.1030544703758881e-10 0.0000000000000000e+00  1.4993505047328246e-01 3.7421199466027724e-09 0.0000000000000000e+00  1.4996115048503345e-01 4.2613900970904289e-12 0.0000000000000000e+00  1.5007082534356284e-01 2.3180759326070150e-09 0.0000000000000000e+00  1.5004244830479360e-01 3.3233432253759200e-10 0.0000000000000000e+00  1.4994581900888052e-01 1.0919950067470577e-09 0.0000000000000000e+00  1.4997236712552761e-01 1.0002632071272161e-09 0.0000000000000000e+00  1.5003322040302519e-01 3.2840854790495852e-10 0.0000000000000000e+00  1.5001579730704398e-01 1.4645845125584131e-09 0.0000000000000000e+00  1.4999131791182885e-01 1.3378842998241204e-10 0.0000000000000000e+00  1.4998797874563249e-01 1.6296260065174239e-09 0.0000000000000000e+00  1.4999132454800809e-01 1.5048839270793016e-10 0.0000000000000000e+00  1.5001822302542259e-01 1.3540236532206403e-09 0.0000000000000000e+00  1.5001338007356321e-01 3.0474440182760400e-10 0.0000000000000000e+00  1.4997422169866728e-01 7.5016502313571943e-10 0.0000000000000000e+00  1.4999544919900359e-01 5.0060334982563285e-10 0.0000000000000000e+00  1.5002642145319470e-01 1.8756215883933137e-10 0.0000000000000000e+00  1.4999073553294431e-01 5.2791353680270957e-10 0.0000000000000000e+00  1.4998428683609297e-01 5.3332690125969625e-13 0.0000000000000000e+00  1.5001773131185558e-01 2.9701566160604718e-10 0.0000000000000000e+00  1.4999902650791491e-01 1.3008292992405952e-10 0.0000000000000000e+00  1.4998579107660831e-01 4.3373653835215906e-11 0.0000000000000000e+00  1.5001375633094402e-01 2.1655162878210046e-10 0.0000000000000000e+00  1.5000166062516287e-01 1.9813101313056950e-11 0.0000000000000000e+00  1.4998442708287738e-01 1.1593772558675314e-10 0.0000000000000000e+00  1.5001120412446417e-01 1.4012052503633925e-10 0.0000000000000000e+00  1.5000626712168685e-01 2.4167210177988823e-12 0.0000000000000000e+00  1.4998521621354360e-01 1.2397953143748007e-10 0.0000000000000000e+00  1.5000458291079247e-01 2.7440899712264869e-11 0.0000000000000000e+00  1.5001011829475863e-01 4.7883446794100451e-11 0.0000000000000000e+00  1.4998830583234130e-01 9.8496768263924890e-11 0.0000000000000000e+00  1.5000091100093968e-01 4.8378150219372620e-12 0.0000000000000000e+00  1.5000758488791971e-01 2.4292065332431979e-11 0.0000000000000000e+00  1.4999499180146653e-01 1.1403924801812435e-11 0.0000000000000000e+00  1.4999667355404561e-01 1.0888730928681239e-11 0.0000000000000000e+00  1.5000750209721705e-01 4.7692545429211122e-11 0.0000000000000000e+00  1.4999532410657254e-01 2.2456949536224494e-11 0.0000000000000000e+00  1.4999981580484778e-01 6.5590146001834648e-13 0.0000000000000000e+00  1.5000172580010596e-01 1.1299554159636560e-13 0.0000000000000000e+00  1.5000047726550317e-01 2.7406789046519185e-12 0.0000000000000000e+00  1.4999678051659099e-01 1.5853937414979921e-11 0.0000000000000000e+00  1.5000391176688732e-01 1.9569702323923879e-11 0.0000000000000000e+00  1.4999731658421142e-01 1.0274002390806775e-11 0.0000000000000000e+00  1.5000124348760893e-01 3.6680680488325119e-12 0.0000000000000000e+00  1.4999919220264762e-01 2.5818807528571108e-12 0.0000000000000000e+00  1.5000128466170595e-01 4.4104817367941255e-12 0.0000000000000000e+00  1.4999811236280886e-01 6.8538953448400003e-12 0.0000000000000000e+00  1.5000205560244520e-01 7.1117862672045714e-12 0.0000000000000000e+00  1.4999820302701297e-01 5.4019049998720825e-12 0.0000000000000000e+00  1.5000144105352831e-01 3.8052559099444388e-12 0.0000000000000000e+00  1.4999874267211571e-01 3.2488592062074039e-12 0.0000000000000000e+00  1.5000129032569706e-01 3.5598559500506990e-12 0.0000000000000000e+00  1.4999856960721220e-01 4.2493351154403905e-12 0.0000000000000000e+00  1.5000155357494485e-01 4.8048486432320249e-12 0.0000000000000000e+00  1.4999839161468517e-01 4.9939793824193441e-12 0.0000000000000000e+00  1.5000159962747223e-01 4.8926130464832835e-12 0.0000000000000000e+00  1.4999842728748042e-01 4.7111849502099146e-12 0.0000000000000000e+00  1.5000152264776034e-01 4.4604912398653646e-12 0.0000000000000000e+00  1.4999849655672901e-01 4.2130033676527987e-12 0.0000000000000000e+00  1.5000138630327420e-01 3.6120551109981787e-12 0.0000000000000000e+00  1.4999860160662118e-01 3.0814227674100520e-12 0.0000000000000000e+00  1.5000108659758507e-01 1.8258525476211802e-12 0.0000000000000000e+00  1.4999866809965873e-01 1.3260739715257943e-12 0.0000000000000000e+00  1.5000062456364505e-01 2.5088540190463569e-13 0.0000000000000000e+00  1.4999843427882936e-01 0.0000000000000000e+00 0.0000000000000000e+00  1.5000162734591996e-01 0.0000000000000000e+00 4.6556943662642277e-09  1.4992367403594212e-01 1.2821297040643921e-11 1.2821297037052998e-11  1.4995269560870891e-01 4.2769250438903961e-09 4.0884652799235409e-09  1.4985427548482289e-01 4.0063997087367374e-10 2.0330356000529814e-09  1.4986201785385439e-01 1.1328265848658151e-08 1.1011881992767270e-08  1.4974172414397041e-01 2.4227234159823048e-09 8.5518229056732307e-09  1.4974799782216958e-01 1.6210457678410232e-08 2.1900289424522590e-08  1.4964280328015533e-01 2.1641796919825839e-09 1.3414706471438451e-08  1.4968787882587270e-01 7.9503144012132996e-09 2.1747803677247880e-08  1.4964417261531554e-01 3.1411204481851949e-10 7.1986794109034283e-09  1.4974221177598240e-01 6.9762974982835734e-12 9.1790239083943728e-09  1.4974603652148025e-01 8.4598048461438105e-09 1.0127147927207494e-09  1.4983914025111103e-01 3.1609660473637378e-09 3.0738895272798784e-09  1.4982284462040973e-01 8.2872915617332785e-09 4.7750701323797189e-10  1.4986792732037169e-01 1.3016204250824720e-09 3.1788676031593112e-09  1.4984585193100752e-01 3.0885872979165789e-09 6.6211728525617772e-10  1.4989677612939095e-01 1.4243067117694180e-09 1.1500073085324110e-09  1.4992279245487586e-01 5.6455553772999954e-09 5.8778180538430006e-11  1.4999670752309444e-01 4.2582033986004843e-09 3.9878438419193846e-11  1.5001912462345701e-01 4.2234218767962021e-09 3.5473882146425721e-10  1.5003673281249871e-01 5.3012523469152882e-10 3.3825479222002819e-11  1.5001488235872182e-01 5.9003132849771511e-11 9.7595173628373494e-11  1.5000033282144540e-01 1.2358567976196206e-09 3.5423575263642236e-10  1.4998622456507696e-01 6.5361465215028786e-10 2.2623370393910190e-12  1.5001505274795754e-01 6.6148554135254840e-11 3.8260744594850550e-10  1.5005590754625697e-01 4.8155982131100307e-10 2.0455598430753970e-09  1.5008302194493481e-01 1.4102157571249920e-09 1.9790619298899173e-09  1.5007292893158919e-01 1.4714630530084511e-10 5.2762978627181060e-10  1.5003010674168824e-01 1.8381520841546433e-09 8.0024586370587987e-11  1.4997463586336537e-01 3.0878034101469173e-09 4.0873205817936567e-10  1.4996794807976396e-01 5.4098653454861590e-10 9.2373716454328289e-12  1.5000351634207940e-01 1.4733920038751087e-11 3.1596569380291502e-10  1.5001091897889457e-01 3.9027994029197373e-10 1.4252703229740795e-10  1.4999235180322443e-01 8.2806311555937484e-10 3.2691808080259082e-11  1.4998718349927098e-01 7.0820296499764109e-12 3.6551787475998599e-10  1.4996249070928919e-01 1.3534555173687307e-09 7.1940532992756046e-10  1.4994822577539232e-01 1.9649866800862801e-12 3.3676313309328053e-11  1.5001841805323063e-01 2.3224505806953786e-09 1.1523796060821025e-09  1.5006088621015257e-01 5.3084967257096602e-10 2.8440215987255388e-10  1.4997516286707660e-01 6.8844056751497605e-10 1.6058132679206207e-09  1.4993375217728136e-01 5.7652201061183846e-10 5.7997439196592762e-10  1.5001947707550214e-01 5.1964347871156949e-11 1.2647523350937437e-09  1.5004538226397723e-01 6.2732488575219990e-10 3.3633239207745957e-10  1.4998330585595065e-01 1.2660898623934764e-10 8.3685917128417595e-10  1.4997835371002552e-01 6.0964416090641355e-10 1.0161360685303440e-10  1.5000454025288826e-01 4.3364470850905901e-10 3.0521785437882274e-10  1.5000203581112098e-01 7.3429356239306928e-10 3.8576818980267280e-12  1.5001169763499508e-01 4.9201522218085706e-10 3.8011620438772609e-11  1.5000305198962466e-01 8.9296090812721140e-10 2.2601180400319959e-13  1.4997418433031151e-01 2.6196120565918771e-10 1.0918246485536767e-11  1.5000458520853657e-01 9.2684669914822683e-10 4.2041292499430343e-13  1.5002840174263490e-01 3.6323305643503657e-11 4.8064835144255031e-11  1.4998244656789642e-01 7.1759963537830651e-10 1.3665782778339266e-11  1.4998180882144219e-01 2.0260984315031160e-11 3.9719040006859642e-11  1.5002407104370510e-01 3.5388939849990085e-10 1.8958680823134160e-11  1.5000075010790187e-01 1.3695894393176662e-10 1.0614555545803085e-11  1.4998103870771382e-01 6.5373320243022310e-11 8.3374271832642669e-12  1.5001240391620629e-01 1.7520376636303278e-10 3.1232045238126574e-12  1.5000514087096836e-01 3.2372062774352403e-12 2.1449899831270922e-13  1.4998543941133557e-01 9.3768607354697509e-11 6.3584477047055374e-12  1.5000857302473233e-01 7.3104421116797151e-11 1.5724861935159719e-13  1.5000572783631141e-01 4.1945767489399198e-12 1.6177628211659906e-11  1.4998728211253773e-01 7.4614438839737722e-11 1.4322169126227575e-12  1.5000462193161354e-01 1.3030251965422344e-11 1.5326022609935094e-11  1.5000850692217874e-01 3.4984587018186118e-11 1.1078619150880870e-11  1.4998884188310715e-01 6.4567537233861960e-11 3.7554616165172184e-12  1.5000171265774911e-01 1.8959243723141247e-12 1.9281381359708245e-11  1.5000718991885931e-01 2.1624795819479371e-11 1.8397216062208105e-12  1.4999428560290859e-01 9.1297696651668505e-12 6.0484814210600096e-12  1.4999753393063706e-01 9.2151149273136257e-12 5.8022828737327583e-12  1.5000725680495011e-01 3.5521170868732093e-11 3.6923006300817260e-13  1.4999533566790690e-01 1.1560046497398492e-11 7.0231061512444772e-12  1.4999936869379973e-01 2.6630245086608358e-13 3.7331382354563071e-12  1.5000259906721611e-01 1.8330266146391113e-12 2.5601150545210699e-15  1.4999967062929170e-01 7.9991484137858995e-13 5.6072542216099856e-13  1.4999728707399335e-01 9.7028550630476752e-12 6.6141312256508582e-16  1.5000346902647452e-01 9.8692012996068662e-12 1.1406616021636210e-12  1.4999799136057496e-01 2.4424083229623909e-12 2.1081857316212537e-12  1.5000034774227913e-01 6.6388550757815711e-14 1.1467624239577093e-12  1.5000006789216092e-01 4.9473173708591108e-14 2.8891069205504384e-13  1.5000059682562181e-01 9.7435636268330615e-13 1.1152732798044917e-13  1.4999865984697236e-01 2.4453975239943041e-12 2.1755911180119606e-13  1.5000149769691234e-01 2.2281569685097151e-12 4.4834197873661794e-13  1.4999885055833545e-01 1.0676806542712060e-12 5.4703546327338163e-13  1.5000074812549424e-01 4.5923484124123181e-13 4.4101601767440176e-13  1.4999939005799509e-01 4.4501549674121523e-13 2.9519400588487475e-13  1.5000073371738112e-01 8.1379196675170697e-13 2.1763238307091462e-13  1.4999906059312165e-01 1.3254686657139469e-12 2.0956898359662555e-13  1.5000107494056736e-01 1.6138646974104724e-12 2.4471955542773273e-13  1.4999889583584514e-01 1.5923828041659549e-12 2.9744623955658912e-13  1.5000107654716296e-01 1.4569907736982955e-12 3.5237482614529325e-13  1.4999895717871542e-01 1.3629840049284130e-12 4.0013027525412463e-13  1.5000103349194349e-01 1.3364220858471880e-12 4.5135647101995439e-13  1.4999898624032712e-01 1.2727872518780798e-12 4.8694092200498759e-13  1.5000100088747920e-01 1.1458457232926921e-12 5.4071019604905787e-13  1.4999911532827737e-01 8.3805574360520152e-13 5.0438147253816768e-13  1.5000085399774896e-01 6.0130049938767658e-13 5.4309404689630977e-13  1.4999945479082075e-01 2.2969514119530568e-13 3.1498212091211845e-13  1.5000068095088348e-01 2.0949318750828155e-13 4.1144422846786584e-13  1.5000000963370472e-01 2.1719527542632521e-14 2.1719527456336840e-14  1.5000062456364457e-01 0.0000000000000000e+00 2.5088540193554990e-13  1.5013517694075834e-01 0.0000000000000000e+00 4.1920507913260366e-11  1.4995269560870886e-01 4.0884652799393260e-09 4.2769250438864968e-09  1.5014533353471224e-01 9.4854824166553190e-10 9.4854824166388374e-10  1.5003249827420084e-01 1.7260704486764361e-08 1.7710161874861572e-08  1.5023136059770634e-01 3.3617423590233626e-10 1.0038299070342015e-08  1.5014195389496249e-01 3.2329013203784836e-08 5.2131704702073242e-08  1.5035268582061947e-01 1.5653849584595646e-11 3.3648631137072983e-08  1.5025459051365692e-01 3.4845982967655045e-08 9.2055792922625516e-08  1.5042974839379622e-01 2.5759215031844618e-10 4.5711925119790138e-08  1.5028526977031226e-01 1.4274852776037918e-08 8.0643857911859887e-08  1.5038549749688157e-01 8.3344185021493260e-09 2.1105791693883875e-08  1.5020713244641823e-01 2.3162638943627952e-10 3.2920365937065423e-08  1.5026620618678024e-01 2.0438038538869844e-08 3.0887774487444641e-09  1.5012812745910270e-01 6.3680753411355818e-10 1.3579317562109924e-08  1.5020244608030114e-01 1.2791449275315071e-08 2.2830991545849032e-09  1.5011706237019851e-01 8.5423887764511499e-11 1.2921835133742840e-08  1.5016677535967632e-01 6.6365499242508260e-09 2.1290352877601548e-09  1.5007648109132260e-01 1.3583374546250701e-09 4.0252533956118252e-09  1.5006907910990705e-01 9.6771437083424629e-09 1.7129025032238934e-10  1.4998499053671729e-01 2.9724957296952497e-09 2.5731863929850861e-12  1.4999328806782067e-01 3.6794693870787470e-09 5.2128692287533626e-10  1.4997116700241500e-01 4.8387882955807058e-14 3.0671984416384834e-10  1.5000063685951115e-01 1.9643910191511445e-10 1.8706614300147828e-10  1.5000038096292528e-01 1.1501897282134964e-09 5.9438887970601125e-10  1.5000176451737843e-01 7.1229268534543318e-11 1.5833684351192705e-10  1.4995393801859652e-01 3.8319350926679076e-11 2.5670814817180109e-09  1.4992385507626704e-01 1.1732793880697729e-09 7.4170800266113956e-09  1.4991569492012449e-01 7.2673775714042821e-10 4.9616501200791048e-09  1.4994605408441361e-01 3.4739689137500559e-10 8.8657223867422637e-10  1.4999462695588647e-01 3.6847952869148978e-09 3.0919896940043679e-10  1.5003005912501807e-01 1.6383279196361726e-09 5.0054525075405726e-10  1.5000759437803535e-01 5.7179548147564472e-11 1.2023086178449626e-10  1.4998491219089047e-01 4.0644312081272158e-11 7.6201028794444407e-10  1.5000386887307504e-01 4.8747424943084254e-10 5.6766079670615970e-12  1.5001778497869281e-01 3.5137444684545551e-10 3.4596316184657295e-10  1.5002262137570582e-01 6.0649163425649148e-10 1.2103054345100330e-09  1.5005043956040945e-01 6.4709927623954891e-10 1.8544959763331479e-09  1.5002198716445236e-01 1.2292380216722042e-09 1.2818468470196135e-10  1.4994583553145269e-01 1.9012774999796351e-09 3.8832594807665982e-09  1.4998105452528809e-01 1.7812532901499559e-10 1.1831271104339570e-10  1.5006890706528050e-01 8.5934416719410815e-10 6.1232634534376088e-09  1.5001901679835791e-01 1.8866993731400889e-12 4.8760479211348673e-11  1.4994566600872977e-01 2.5658681669106087e-10 4.3568629085500406e-09  1.4999847467350585e-01 1.8821814825070155e-10 2.6284738457460232e-10  1.5003356190671779e-01 9.2257425491162137e-12 2.1257848048478855e-09  1.4999243970930573e-01 5.9273618100172245e-10 3.3499971891673303e-10  1.4999554903701676e-01 1.9508273747122795e-12 3.1575181497784871e-10  1.5000602110774244e-01 9.9632446522225336e-10 2.1432332189168719e-10  1.4998268968559789e-01 1.5973375153539128e-12 1.0085044125566596e-11  1.5000824370773475e-01 1.0809014501198193e-09 2.3478141372936348e-12  1.5002473147751044e-01 6.3030951217331703e-11 1.9431972501410188e-10  1.4997524569405729e-01 7.9691712956444134e-10 1.2411904218136210e-10  1.4998450965351501e-01 2.0856375202882639e-10 1.3141894616671866e-10  1.5003315279038948e-01 3.5751645291465317e-10 3.4398896003369410e-10  1.4999851486241453e-01 3.1660489726052963e-10 1.6767508567571693e-11  1.4997338788089412e-01 6.1467888783706537e-11 2.5952425332761692e-10  1.5001562768777663e-01 2.4993620344496483e-10 8.7909688982769729e-12  1.5001175900944996e-01 1.3965752078822381e-12 9.3796785112532882e-11  1.4998187728749224e-01 1.1935027875069339e-10 1.4915191839036904e-11  1.5000417248270254e-01 5.5033756672331361e-11 1.3277564813147481e-11  1.5000881730134225e-01 6.5115611761005630e-12 3.9184335926747793e-13  1.4999032330863860e-01 4.0343075366599479e-11 5.1501145345918373e-12  1.5000097501888907e-01 2.3060905086891008e-12 1.8933250339383367e-12  1.5000805156377853e-01 3.0127111475686015e-11 1.1121689700610339e-11  1.4999082065441183e-01 5.0542480328175886e-11 1.8383692029813418e-12  1.5000217489506043e-01 6.0392602196909153e-12 3.0688776406074062e-11  1.5000467411440316e-01 4.4626797066913531e-12 7.9060020535017278e-12  1.4999619644344511e-01 9.9534141321714185e-13 6.5170063442895096e-12  1.4999701048729100e-01 1.6254330213659599e-11 9.5580072037826521e-12  1.5000765565085636e-01 4.7521743042253826e-11 1.7425152017159524e-12  1.4999408585807963e-01 2.5180992300535013e-11 2.2882700505838361e-11  1.5000119036054435e-01 2.6576252796415664e-12 1.4601079394239617e-11  1.5000084173157524e-01 7.6823688658114319e-13 5.1658893231176115e-13  1.5000121725969548e-01 9.2421567562209180e-12 3.7672915145420246e-13  1.4999575109879906e-01 2.7143099010841160e-11 5.2393031086991454e-13  1.5000508328460649e-01 2.6967847910181504e-11 7.1049592177294330e-12  1.4999638135116095e-01 1.2684695087562190e-11 1.0434508966739887e-11  1.5000191163264956e-01 5.1410701940127021e-12 5.7360491428673443e-12  1.4999848650158185e-01 5.3888628795149680e-12 1.9339360689046057e-12  1.5000223303934196e-01 9.8671749467458956e-12 1.2134824052496712e-12  1.4999704436347255e-01 1.3187728368033120e-11 2.0351158892998335e-12  1.5000298351130714e-01 1.1330364345513367e-11 3.1701208860185178e-12  1.4999751324