<?xml version="1.0"?>
<VTKFile type="UnstructuredGrid"  version="0.1"  >
<UnstructuredGrid>
<Piece  NumberOfPoints="10201" NumberOfCells="20000">
<Points>
<DataArray  type="Float64"  NumberOfComponents="3"  format="ascii">-5 -5 0  -4.9 -5 0  -4.8 -5 0  -4.7 -5 0  -4.6 -5 0  -4.5 -5 0  -4.4 -5 0  -4.3 -5 0  -4.2 -5 0  -4.1 -5 0  -4 -5 0  -3.9 -5 0  -3.8 -5 0  -3.7 -5 0  -3.6 -5 0  -3.5 -5 0  -3.4 -5 0  -3.3 -5 0  -3.2 -5 0  -3.1 -5 0  -3 -5 0  -2.9 -5 0  -2.8 -5 0  -2.7 -5 0  -2.6 -5 0  -2.5 -5 0  -2.4 -5 0  -2.3 -5 0  -2.2 -5 0  -2.1 -5 0  -2 -5 0  -1.9 -5 0  -1.8 -5 0  -1.7 -5 0  -1.6 -5 0  -1.5 -5 0  -1.4 -5 0  -1.3 -5 0  -1.2 -5 0  -1.1 -5 0  -1 -5 0  -0.9000000000000004 -5 0  -0.7999999999999998 -5 0  -0.7000000000000002 -5 0  -0.5999999999999996 -5 0  -0.5 -5 0  -0.4000000000000004 -5 0  -0.2999999999999998 -5 0  -0.2000000000000002 -5 0  -0.09999999999999964 -5 0  0 -5 0  0.09999999999999964 -5 0  0.2000000000000002 -5 0  0.2999999999999998 -5 0  0.4000000000000004 -5 0  0.5 -5 0  0.5999999999999996 -5 0  0.7000000000000002 -5 0  0.7999999999999998 -5 0  0.9000000000000004 -5 0  1 -5 0  1.1 -5 0  1.2 -5 0  1.3 -5 0  1.4 -5 0  1.5 -5 0  1.6 -5 0  1.7 -5 0  1.8 -5 0  1.9 -5 0  2 -5 0  2.1 -5 0  2.2 -5 0  2.3 -5 0  2.4 -5 0  2.5 -5 0  2.6 -5 0  2.7 -5 0  2.8 -5 0  2.9 -5 0  3 -5 0  3.1 -5 0  3.199999999999999 -5 0  3.300000000000001 -5 0  3.4 -5 0  3.5 -5 0  3.6 -5 0  3.699999999999999 -5 0  3.800000000000001 -5 0  3.9 -5 0  4 -5 0  4.1 -5 0  4.199999999999999 -5 0  4.300000000000001 -5 0  4.4 -5 0  4.5 -5 0  4.6 -5 0  4.699999999999999 -5 0  4.800000000000001 -5 0  4.9 -5 0  5 -5 0  -5 -4.9 0  -4.9 -4.9 0  -4.8 -4.9 0  -4.7 -4.9 0  -4.6 -4.9 0  -4.5 -4.9 0  -4.4 -4.9 0  -4.3 -4.9 0  -4.2 -4.9 0  -4.1 -4.9 0  -4 -4.9 0  -3.9 -4.9 0  -3.8 -4.9 0  -3.7 -4.9 0  -3.6 -4.9 0  -3.5 -4.9 0  -3.4 -4.9 0  -3.3 -4.9 0  -3.2 -4.9 0  -3.1 -4.9 0  -3 -4.9 0  -2.9 -4.9 0  -2.8 -4.9 0  -2.7 -4.9 0  -2.6 -4.9 0  -2.5 -4.9 0  -2.4 -4.9 0  -2.3 -4.9 0  -2.2 -4.9 0  -2.1 -4.9 0  -2 -4.9 0  -1.9 -4.9 0  -1.8 -4.9 0  -1.7 -4.9 0  -1.6 -4.9 0  -1.5 -4.9 0  -1.4 -4.9 0  -1.3 -4.9 0  -1.2 -4.9 0  -1.1 -4.9 0  -1 -4.9 0  -0.9000000000000004 -4.9 0  -0.7999999999999998 -4.9 0  -0.7000000000000002 -4.9 0  -0.5999999999999996 -4.9 0  -0.5 -4.9 0  -0.4000000000000004 -4.9 0  -0.2999999999999998 -4.9 0  -0.2000000000000002 -4.9 0  -0.09999999999999964 -4.9 0  0 -4.9 0  0.09999999999999964 -4.9 0  0.2000000000000002 -4.9 0  0.2999999999999998 -4.9 0  0.4000000000000004 -4.9 0  0.5 -4.9 0  0.5999999999999996 -4.9 0  0.7000000000000002 -4.9 0  0.7999999999999998 -4.9 0  0.9000000000000004 -4.9 0  1 -4.9 0  1.1 -4.9 0  1.2 -4.9 0  1.3 -4.9 0  1.4 -4.9 0  1.5 -4.9 0  1.6 -4.9 0  1.7 -4.9 0  1.8 -4.9 0  1.9 -4.9 0  2 -4.9 0  2.1 -4.9 0  2.2 -4.9 0  2.3 -4.9 0  2.4 -4.9 0  2.5 -4.9 0  2.6 -4.9 0  2.7 -4.9 0  2.8 -4.9 0  2.9 -4.9 0  3 -4.9 0  3.1 -4.9 0  3.199999999999999 -4.9 0  3.300000000000001 -4.9 0  3.4 -4.9 0  3.5 -4.9 0  3.6 -4.9 0  3.699999999999999 -4.9 0  3.800000000000001 -4.9 0  3.9 -4.9 0  4 -4.9 0  4.1 -4.9 0  4.199999999999999 -4.9 0  4.300000000000001 -4.9 0  4.4 -4.9 0  4.5 -4.9 0  4.6 -4.9 0  4.699999999999999 -4.9 0  4.800000000000001 -4.9 0  4.9 -4.9 0  5 -4.9 0  -5 -4.8 0  -4.9 -4.8 0  -4.8 -4.8 0  -4.7 -4.8 0  -4.6 -4.8 0  -4.5 -4.8 0  -4.4 -4.8 0  -4.3 -4.8 0  -4.2 -4.8 0  -4.1 -4.8 0  -4 -4.8 0  -3.9 -4.8 0  -3.8 -4.8 0  -3.7 -4.8 0  -3.6 -4.8 0  -3.5 -4.8 0  -3.4 -4.8 0  -3.3 -4.8 0  -3.2 -4.8 0  -3.1 -4.8 0  -3 -4.8 0  -2.9 -4.8 0  -2.8 -4.8 0  -2.7 -4.8 0  -2.6 -4.8 0  -2.5 -4.8 0  -2.4 -4.8 0  -2.3 -4.8 0  -2.2 -4.8 0  -2.1 -4.8 0  -2 -4.8 0  -1.9 -4.8 0  -1.8 -4.8 0  -1.7 -4.8 0  -1.6 -4.8 0  -1.5 -4.8 0  -1.4 -4.8 0  -1.3 -4.8 0  -1.2 -4.8 0  -1.1 -4.8 0  -1 -4.8 0  -0.9000000000000004 -4.8 0  -0.7999999999999998 -4.8 0  -0.7000000000000002 -4.8 0  -0.5999999999999996 -4.8 0  -0.5 -4.8 0  -0.4000000000000004 -4.8 0  -0.2999999999999998 -4.8 0  -0.2000000000000002 -4.8 0  -0.09999999999999964 -4.8 0  0 -4.8 0  0.09999999999999964 -4.8 0  0.2000000000000002 -4.8 0  0.2999999999999998 -4.8 0  0.4000000000000004 -4.8 0  0.5 -4.8 0  0.5999999999999996 -4.8 0  0.7000000000000002 -4.8 0  0.7999999999999998 -4.8 0  0.9000000000000004 -4.8 0  1 -4.8 0  1.1 -4.8 0  1.2 -4.8 0  1.3 -4.8 0  1.4 -4.8 0  1.5 -4.8 0  1.6 -4.8 0  1.7 -4.8 0  1.8 -4.8 0  1.9 -4.8 0  2 -4.8 0  2.1 -4.8 0  2.2 -4.8 0  2.3 -4.8 0  2.4 -4.8 0  2.5 -4.8 0  2.6 -4.8 0  2.7 -4.8 0  2.8 -4.8 0  2.9 -4.8 0  3 -4.8 0  3.1 -4.8 0  3.199999999999999 -4.8 0  3.300000000000001 -4.8 0  3.4 -4.8 0  3.5 -4.8 0  3.6 -4.8 0  3.699999999999999 -4.8 0  3.800000000000001 -4.8 0  3.9 -4.8 0  4 -4.8 0  4.1 -4.8 0  4.199999999999999 -4.8 0  4.300000000000001 -4.8 0  4.4 -4.8 0  4.5 -4.8 0  4.6 -4.8 0  4.699999999999999 -4.8 0  4.800000000000001 -4.8 0  4.9 -4.8 0  5 -4.8 0  -5 -4.7 0  -4.9 -4.7 0  -4.8 -4.7 0  -4.7 -4.7 0  -4.6 -4.7 0  -4.5 -4.7 0  -4.4 -4.7 0  -4.3 -4.7 0  -4.2 -4.7 0  -4.1 -4.7 0  -4 -4.7 0  -3.9 -4.7 0  -3.8 -4.7 0  -3.7 -4.7 0  -3.6 -4.7 0  -3.5 -4.7 0  -3.4 -4.7 0  -3.3 -4.7 0  -3.2 -4.7 0  -3.1 -4.7 0  -3 -4.7 0  -2.9 -4.7 0  -2.8 -4.7 0  -2.7 -4.7 0  -2.6 -4.7 0  -2.5 -4.7 0  -2.4 -4.7 0  -2.3 -4.7 0  -2.2 -4.7 0  -2.1 -4.7 0  -2 -4.7 0  -1.9 -4.7 0  -1.8 -4.7 0  -1.7 -4.7 0  -1.6 -4.7 0  -1.5 -4.7 0  -1.4 -4.7 0  -1.3 -4.7 0  -1.2 -4.7 0  -1.1 -4.7 0  -1 -4.7 0  -0.9000000000000004 -4.7 0  -0.7999999999999998 -4.7 0  -0.7000000000000002 -4.7 0  -0.5999999999999996 -4.7 0  -0.5 -4.7 0  -0.4000000000000004 -4.7 0  -0.2999999999999998 -4.7 0  -0.2000000000000002 -4.7 0  -0.09999999999999964 -4.7 0  0 -4.7 0  0.09999999999999964 -4.7 0  0.2000000000000002 -4.7 0  0.2999999999999998 -4.7 0  0.4000000000000004 -4.7 0  0.5 -4.7 0  0.5999999999999996 -4.7 0  0.7000000000000002 -4.7 0  0.7999999999999998 -4.7 0  0.9000000000000004 -4.7 0  1 -4.7 0  1.1 -4.7 0  1.2 -4.7 0  1.3 -4.7 0  1.4 -4.7 0  1.5 -4.7 0  1.6 -4.7 0  1.7 -4.7 0  1.8 -4.7 0  1.9 -4.7 0  2 -4.7 0  2.1 -4.7 0  2.2 -4.7 0  2.3 -4.7 0  2.4 -4.7 0  2.5 -4.7 0  2.6 -4.7 0  2.7 -4.7 0  2.8 -4.7 0  2.9 -4.7 0  3 -4.7 0  3.1 -4.7 0  3.199999999999999 -4.7 0  3.300000000000001 -4.7 0  3.4 -4.7 0  3.5 -4.7 0  3.6 -4.7 0  3.699999999999999 -4.7 0  3.800000000000001 -4.7 0  3.9 -4.7 0  4 -4.7 0  4.1 -4.7 0  4.199999999999999 -4.7 0  4.300000000000001 -4.7 0  4.4 -4.7 0  4.5 -4.7 0  4.6 -4.7 0  4.699999999999999 -4.7 0  4.800000000000001 -4.7 0  4.9 -4.7 0  5 -4.7 0  -5 -4.6 0  -4.9 -4.6 0  -4.8 -4.6 0  -4.7 -4.6 0  -4.6 -4.6 0  -4.5 -4.6 0  -4.4 -4.6 0  -4.3 -4.6 0  -4.2 -4.6 0  -4.1 -4.6 0  -4 -4.6 0  -3.9 -4.6 0  -3.8 -4.6 0  -3.7 -4.6 0  -3.6 -4.6 0  -3.5 -4.6 0  -3.4 -4.6 0  -3.3 -4.6 0  -3.2 -4.6 0  -3.1 -4.6 0  -3 -4.6 0  -2.9 -4.6 0  -2.8 -4.6 0  -2.7 -4.6 0  -2.6 -4.6 0  -2.5 -4.6 0  -2.4 -4.6 0  -2.3 -4.6 0  -2.2 -4.6 0  -2.1 -4.6 0  -2 -4.6 0  -1.9 -4.6 0  -1.8 -4.6 0  -1.7 -4.6 0  -1.6 -4.6 0  -1.5 -4.6 0  -1.4 -4.6 0  -1.3 -4.6 0  -1.2 -4.6 0  -1.1 -4.6 0  -1 -4.6 0  -0.9000000000000004 -4.6 0  -0.7999999999999998 -4.6 0  -0.7000000000000002 -4.6 0  -0.5999999999999996 -4.6 0  -0.5 -4.6 0  -0.4000000000000004 -4.6 0  -0.2999999999999998 -4.6 0  -0.2000000000000002 -4.6 0  -0.09999999999999964 -4.6 0  0 -4.6 0  0.09999999999999964 -4.6 0  0.2000000000000002 -4.6 0  0.2999999999999998 -4.6 0  0.4000000000000004 -4.6 0  0.5 -4.6 0  0.5999999999999996 -4.6 0  0.7000000000000002 -4.6 0  0.7999999999999998 -4.6 0  0.9000000000000004 -4.6 0  1 -4.6 0  1.1 -4.6 0  1.2 -4.6 0  1.3 -4.6 0  1.4 -4.6 0  1.5 -4.6 0  1.6 -4.6 0  1.7 -4.6 0  1.8 -4.6 0  1.9 -4.6 0  2 -4.6 0  2.1 -4.6 0  2.2 -4.6 0  2.3 -4.6 0  2.4 -4.6 0  2.5 -4.6 0  2.6 -4.6 0  2.7 -4.6 0  2.8 -4.6 0  2.9 -4.6 0  3 -4.6 0  3.1 -4.6 0  3.199999999999999 -4.6 0  3.300000000000001 -4.6 0  3.4 -4.6 0  3.5 -4.6 0  3.6 -4.6 0  3.699999999999999 -4.6 0  3.800000000000001 -4.6 0  3.9 -4.6 0  4 -4.6 0  4.1 -4.6 0  4.199999999999999 -4.6 0  4.300000000000001 -4.6 0  4.4 -4.6 0  4.5 -4.6 0  4.6 -4.6 0  4.699999999999999 -4.6 0  4.800000000000001 -4.6 0  4.9 -4.6 0  5 -4.6 0  -5 -4.5 0  -4.9 -4.5 0  -4.8 -4.5 0  -4.7 -4.5 0  -4.6 -4.5 0  -4.5 -4.5 0  -4.4 -4.5 0  -4.3 -4.5 0  -4.2 -4.5 0  -4.1 -4.5 0  -4 -4.5 0  -3.9 -4.5 0  -3.8 -4.5 0  -3.7 -4.5 0  -3.6 -4.5 0  -3.5 -4.5 0  -3.4 -4.5 0  -3.3 -4.5 0  -3.2 -4.5 0  -3.1 -4.5 0  -3 -4.5 0  -2.9 -4.5 0  -2.8 -4.5 0  -2.7 -4.5 0  -2.6 -4.5 0  -2.5 -4.5 0  -2.4 -4.5 0  -2.3 -4.5 0  -2.2 -4.5 0  -2.1 -4.5 0  -2 -4.5 0  -1.9 -4.5 0  -1.8 -4.5 0  -1.7 -4.5 0  -1.6 -4.5 0  -1.5 -4.5 0  -1.4 -4.5 0  -1.3 -4.5 0  -1.2 -4.5 0  -1.1 -4.5 0  -1 -4.5 0  -0.9000000000000004 -4.5 0  -0.7999999999999998 -4.5 0  -0.7000000000000002 -4.5 0  -0.5999999999999996 -4.5 0  -0.5 -4.5 0  -0.4000000000000004 -4.5 0  -0.2999999999999998 -4.5 0  -0.2000000000000002 -4.5 0  -0.09999999999999964 -4.5 0  0 -4.5 0  0.09999999999999964 -4.5 0  0.2000000000000002 -4.5 0  0.2999999999999998 -4.5 0  0.4000000000000004 -4.5 0  0.5 -4.5 0  0.5999999999999996 -4.5 0  0.7000000000000002 -4.5 0  0.7999999999999998 -4.5 0  0.9000000000000004 -4.5 0  1 -4.5 0  1.1 -4.5 0  1.2 -4.5 0  1.3 -4.5 0  1.4 -4.5 0  1.5 -4.5 0  1.6 -4.5 0  1.7 -4.5 0  1.8 -4.5 0  1.9 -4.5 0  2 -4.5 0  2.1 -4.5 0  2.2 -4.5 0  2.3 -4.5 0  2.4 -4.5 0  2.5 -4.5 0  2.6 -4.5 0  2.7 -4.5 0  2.8 -4.5 0  2.9 -4.5 0  3 -4.5 0  3.1 -4.5 0  3.199999999999999 -4.5 0  3.300000000000001 -4.5 0  3.4 -4.5 0  3.5 -4.5 0  3.6 -4.5 0  3.699999999999999 -4.5 0  3.800000000000001 -4.5 0  3.9 -4.5 0  4 -4.5 0  4.1 -4.5 0  4.199999999999999 -4.5 0  4.300000000000001 -4.5 0  4.4 -4.5 0  4.5 -4.5 0  4.6 -4.5 0  4.699999999999999 -4.5 0  4.800000000000001 -4.5 0  4.9 -4.5 0  5 -4.5 0  -5 -4.4 0  -4.9 -4.4 0  -4.8 -4.4 0  -4.7 -4.4 0  -4.6 -4.4 0  -4.5 -4.4 0  -4.4 -4.4 0  -4.3 -4.4 0  -4.2 -4.4 0  -4.1 -4.4 0  -4 -4.4 0  -3.9 -4.4 0  -3.8 -4.4 0  -3.7 -4.4 0  -3.6 -4.4 0  -3.5 -4.4 0  -3.4 -4.4 0  -3.3 -4.4 0  -3.2 -4.4 0  -3.1 -4.4 0  -3 -4.4 0  -2.9 -4.4 0  -2.8 -4.4 0  -2.7 -4.4 0  -2.6 -4.4 0  -2.5 -4.4 0  -2.4 -4.4 0  -2.3 -4.4 0  -2.2 -4.4 0  -2.1 -4.4 0  -2 -4.4 0  -1.9 -4.4 0  -1.8 -4.
[...]
<PointData  Vectors="f_17"> 
<DataArray  type="Float64"  Name="f_17"  NumberOfComponents="3" format="ascii">1.5000000000002259e-01 0.0000000000000000e+00 0.0000000000000000e+00  1.5000000000000541e-01 1.3240954684583677e-14 0.0000000000000000e+00  1.4999999999995256e-01 -9.1666464016658503e-14 0.0000000000000000e+00  1.5000000000002930e-01 7.9833605140162711e-14 0.0000000000000000e+00  1.5000000000008915e-01 8.8528829637552327e-14 0.0000000000000000e+00  1.5000000000005137e-01 -9.0831143766407743e-13 0.0000000000000000e+00  1.5000000000119443e-01 -2.5058558318353662e-12 0.0000000000000000e+00  1.5000000000543715e-01 -7.4959231235872139e-12 0.0000000000000000e+00  1.5000000001617242e-01 -2.3364725359139085e-11 0.0000000000000000e+00  1.5000000004359623e-01 -4.7880574376147474e-11 0.0000000000000000e+00  1.5000000009623107e-01 -5.6024231400651247e-11 0.0000000000000000e+00  1.5000000014667619e-01 2.3343309008396711e-11 0.0000000000000000e+00  1.5000000008098194e-01 3.9414824209404494e-10 0.0000000000000000e+00  1.4999999959686514e-01 1.4583621810568669e-09 0.0000000000000000e+00  1.4999999804367531e-01 3.7180851846735692e-09 0.0000000000000000e+00  1.4999999438350467e-01 7.7033907744073595e-09 0.0000000000000000e+00  1.4999998735752462e-01 1.4160879357486850e-08 0.0000000000000000e+00  1.4999997558190095e-01 2.4058025900057538e-08 0.0000000000000000e+00  1.4999995769182889e-01 3.7449779388963108e-08 0.0000000000000000e+00  1.4999993359298677e-01 5.0392103827942997e-08 0.0000000000000000e+00  1.4999990753021039e-01 5.1110477983335122e-08 0.0000000000000000e+00  1.4999989136612363e-01 2.2824141426707434e-08 0.0000000000000000e+00  1.4999990259658719e-01 -3.8063735159502836e-08 0.0000000000000000e+00  1.4999995036529601e-01 -1.0073448510879735e-07 0.0000000000000000e+00  1.5000001587172881e-01 -1.1273640551298220e-07 0.0000000000000000e+00  1.5000005586530071e-01 -5.5172232194011759e-08 0.0000000000000000e+00  1.5000004450546728e-01 2.2977913981078735e-08 0.0000000000000000e+00  1.5000000777568712e-01 5.3076357228202372e-08 0.0000000000000000e+00  1.4999999166259734e-01 2.6628347483927227e-08 0.0000000000000000e+00  1.5000000099471120e-01 -4.5404531556499903e-09 0.0000000000000000e+00  1.5000000483496870e-01 -6.2170813803227214e-09 0.0000000000000000e+00  1.4999999617334789e-01 2.4114269314541264e-09 0.0000000000000000e+00  1.4999999698902264e-01 -1.0891969725924749e-09 0.0000000000000000e+00  1.5000000697511506e-01 -4.8068664592768265e-09 0.0000000000000000e+00  1.5000000388491735e-01 3.2910729255208955e-09 0.0000000000000000e+00  1.4999999242068471e-01 7.4696254350843625e-09 0.0000000000000000e+00  1.4999999569257871e-01 -2.3415774663168813e-09 0.0000000000000000e+00  1.5000000680259631e-01 -7.9387105899584107e-09 0.0000000000000000e+00  1.5000000372583927e-01 1.1577370637362436e-09 0.0000000000000000e+00  1.4999999440905920e-01 6.9415855557183199e-09 0.0000000000000000e+00  1.4999999747081430e-01 -6.4930889271035036e-10 0.0000000000000000e+00  1.5000000436003119e-01 -5.4169696411847909e-09 0.0000000000000000e+00  1.5000000124723417e-01 7.0029991392639730e-10 0.0000000000000000e+00  1.4999999678825701e-01 3.8854369820246325e-09 0.0000000000000000e+00  1.4999999976471298e-01 -9.4354147568259946e-10 0.0000000000000000e+00  1.5000000216662476e-01 -2.5418094821176412e-09 0.0000000000000000e+00  1.4999999962696781e-01 1.1038550046305898e-09 0.0000000000000000e+00  1.4999999872862504e-01 1.4477753976491863e-09 0.0000000000000000e+00  1.5000000060111396e-01 -1.0712516246230241e-09 0.0000000000000000e+00  1.5000000058744473e-01 -6.3409169881239441e-10 0.0000000000000000e+00  1.4999999944184303e-01 8.6315628294088942e-10 0.0000000000000000e+00  1.4999999985269125e-01 1.1176947999642080e-10 0.0000000000000000e+00  1.5000000038094932e-01 -5.6550026483025913e-10 0.0000000000000000e+00  1.4999999993190336e-01 1.4491141315628252e-10 0.0000000000000000e+00  1.4999999981263729e-01 2.7777097126028255e-10 0.0000000000000000e+00  1.5000000012106063e-01 -2.0228796311960667e-10 0.0000000000000000e+00  1.5000000004789327e-01 -7.0899699547301709e-11 0.0000000000000000e+00  1.4999999991043347e-01 1.4912528159842308e-10 0.0000000000000000e+00  1.5000000001893549e-01 -3.2742900365348663e-11 0.0000000000000000e+00  1.5000000003840616e-01 -6.7125166073170788e-11 0.0000000000000000e+00  1.4999999996910823e-01 5.3954694191197481e-11 0.0000000000000000e+00  1.4999999999690830e-01 7.2924044589711745e-12 0.0000000000000000e+00  1.5000000001806646e-01 -3.3779729781969173e-11 0.0000000000000000e+00  1.4999999999083252e-01 1.6066739242630514e-11 0.0000000000000000e+00  1.4999999999624256e-01 8.4268973418504656e-12 0.0000000000000000e+00  1.5000000000712474e-01 -1.3974244961466868e-11 0.0000000000000000e+00  1.4999999999728625e-01 4.6148909032027747e-12 0.0000000000000000e+00  1.4999999999817079e-01 4.3299024154234971e-12 0.0000000000000000e+00  1.5000000000264357e-01 -5.4363798435229894e-12 0.0000000000000000e+00  1.4999999999905897e-01 1.5861305086732443e-12 0.0000000000000000e+00  1.4999999999934582e-01 1.6917090587216384e-12 0.0000000000000000e+00  1.5000000000096148e-01 -2.0989783127558107e-12 0.0000000000000000e+00  1.4999999999959518e-01 7.3573592125301049e-13 0.0000000000000000e+00  1.4999999999983493e-01 5.0805493392479379e-13 0.0000000000000000e+00  1.5000000000033450e-01 -7.9309953608615604e-13 0.0000000000000000e+00  1.4999999999980762e-01 3.9649873283079728e-13 0.0000000000000000e+00  1.4999999999999500e-01 7.0841551237402574e-14 0.0000000000000000e+00  1.5000000000010008e-01 -2.6615990889481292e-13 0.0000000000000000e+00  1.4999999999991431e-01 2.0130448474579939e-13 0.0000000000000000e+00  1.5000000000002775e-01 -4.8350201107655102e-14 0.0000000000000000e+00  1.5000000000001668e-01 -5.7007482156104277e-14 0.0000000000000000e+00  1.4999999999997057e-01 7.8845360955369174e-14 0.0000000000000000e+00  1.5000000000001995e-01 -4.8833857112938583e-14 0.0000000000000000e+00  1.4999999999999447e-01 8.9334078024272396e-15 0.0000000000000000e+00  1.4999999999999572e-01 1.5888996497572848e-14 0.0000000000000000e+00  1.5000000000000716e-01 -1.9952389710248958e-14 0.0000000000000000e+00  1.4999999999999478e-01 1.3511085735622205e-14 0.0000000000000000e+00  1.5000000000000210e-01 -3.4494734992385873e-15 0.0000000000000000e+00  1.5000000000000077e-01 -2.3578008046592480e-15 0.0000000000000000e+00  1.4999999999999894e-01 4.7068939388048279e-15 0.0000000000000000e+00  1.5000000000000141e-01 -3.8452266320679233e-15 0.0000000000000000e+00  1.4999999999999911e-01 1.6233900727775514e-15 0.0000000000000000e+00  1.5000000000000041e-01 -3.9300106595249485e-16 0.0000000000000000e+00  1.5000000000000016e-01 -4.7966418804100517e-16 0.0000000000000000e+00  1.4999999999999974e-01 6.7132099067573416e-16 0.0000000000000000e+00  1.5000000000000038e-01 -1.2184516840805378e-15 0.0000000000000000e+00  1.4999999999999963e-01 9.9906066788151895e-16 0.0000000000000000e+00  1.5000000000000027e-01 -8.9238330050762658e-16 0.0000000000000000e+00  1.4999999999999972e-01 8.9548971880711152e-17 0.0000000000000000e+00  1.5000000000000013e-01 -3.1707700041276542e-16 0.0000000000000000e+00  1.4999999999999974e-01 0.0000000000000000e+00 0.0000000000000000e+00  1.5000000000000552e-01 0.0000000000000000e+00 1.2959223172637227e-14  1.4999999999996777e-01 -4.4579034975408645e-14 -4.5163406179795157e-14  1.5000000000003291e-01 5.4273170574436832e-14 3.6617167070586837e-14  1.5000000000003816e-01 8.3590346614395823e-14 6.7733816525411882e-14  1.4999999999989236e-01 -2.3277322716788783e-13 -1.3606041049353750e-13  1.4999999999992408e-01 3.5610385133546656e-13 -2.1237243345432064e-13  1.4999999999947752e-01 2.2217176781842938e-12 -1.3608860971521018e-12  1.4999999999616859e-01 5.6293285146823655e-12 -8.4349056518471815e-12  1.4999999998705291e-01 1.8283191682733976e-11 -2.9759947512043066e-11  1.4999999996391689e-01 4.7297578650198792e-11 -8.5511348427918742e-11  1.4999999991144181e-01 7.6169363953938979e-11 -2.1012125105978169e-10  1.4999999983536169e-01 5.0361681902036680e-11 -3.9845023337786353e-10  1.4999999981629109e-01 -1.8499082071537928e-10 -4.8597929201292371e-10  1.5000000009365139e-01 -1.0091065633270329e-09 4.9853652401251378e-11  1.5000000123164314e-01 -3.0003900074782684e-09 2.4178862069985587e-09  1.5000000425997129e-01 -6.7428276793438468e-09 8.7222293942887321e-09  1.5000001054714843e-01 -1.2885157766421584e-08 2.1597132568977012e-08  1.5000002155433800e-01 -2.2388680167050134e-08 4.3574324928292942e-08  1.5000003874190296e-01 -3.5936949008907782e-08 7.6790305926318126e-08  1.5000006289158241e-01 -5.1432167137711699e-08 1.2169275358098756e-07  1.5000009160805983e-01 -5.9646984045860785e-08 1.7213445937042288e-07  1.5000011552879483e-01 -4.2864319940653214e-08 2.0808794190965968e-07  1.5000011731884189e-01 1.2302457991564085e-08 1.9584796194843318e-07  1.5000008089210412e-01 8.8302699050466223e-08 1.1072448134726490e-07  1.5000001233325624e-01 1.3043780629404289e-07 -2.2047992444665024e-08  1.4999995092986895e-01 9.4482465906754413e-08 -1.1858573431163034e-07  1.4999993968895292e-01 6.7953900856809941e-09 -1.0880552470301089e-07  1.4999997459531408e-01 -5.3154257527814717e-08 -2.6497395477512739e-08  1.5000000574912301e-01 -4.4440048617488615e-08 2.3763774390001535e-08  1.5000000388029475e-01 -6.6244074509545039e-09 5.8746726535176918e-09  1.4999999377257894e-01 7.4884363341794477e-09 -1.3941591775233695e-08  1.5000000026966706e-01 1.4051466904884586e-10 3.6514006275233813e-09  1.5000000613193920e-01 -2.3098944851559089e-10 1.1665289446357950e-08  1.4999999614630391e-01 4.9725434659207396e-09 -1.1760624645980439e-08  1.4999999170181411e-01 -5.6924352845015211e-10 -1.5116624754563441e-08  1.5000000424759610e-01 -8.0676894389432266e-09 1.3573406200903553e-08  1.5000000889444695e-01 -1.4582856480951681e-09 1.6632017181380739e-08  1.4999999630344285e-01 7.9669181436155113e-09 -1.2390320224845293e-08  1.4999999210890957e-01 2.7742909634787702e-09 -1.4938529240065133e-08  1.5000000321050003e-01 -6.5443776480893941e-09 1.0628732046435886e-08  1.5000000603763466e-01 -2.8552863225385843e-09 1.1258732767507132e-08  1.4999999706957992e-01 5.0146802123044319e-09 -9.0239284118057688e-09  1.4999999597941288e-01 2.1691238232160341e-09 -7.0972910868151620e-09  1.5000000266567792e-01 -3.7689798697077873e-09 7.4660226680116976e-09  1.5000000225806176e-01 -1.2466555356438989e-09 3.4838594030035981e-09  1.4999999774586886e-01 2.7831641423368563e-09 -5.7569156604406343e-09  1.4999999906192432e-01 4.2216245827915953e-10 -8.9570734378329317e-10  1.5000000168865896e-01 -1.9517231661508658e-09 3.9431063941697665e-09  1.5000000010517853e-01 1.5272623660496883e-10 -5.8091868162655980e-10  1.4999999892646956e-01 1.2299441607226756e-09 -2.2601058600715235e-09  1.5000000029255989e-01 -4.4286594395407129e-10 1.1139651670505788e-09  1.5000000053630694e-01 -6.3745031550120028e-10 9.5267492284966221e-10  1.4999999962685889e-01 4.8850842483039925e-10 -1.0188963599665064e-09  1.4999999983782414e-01 2.1284255435881110e-10 -1.4291462506397779e-10  1.5000000028080124e-01 -3.7689920118443756e-10 6.4399123924258050e-10  1.4999999996827060e-01 2.8529066178678112e-11 -2.0566926340942061e-10  1.4999999985805323e-01 2.0917695293001071e-10 -2.6414993218215887e-10  1.5000000008550179e-01 -1.1263146934826255e-10 2.4206572299985743e-10  1.5000000003484296e-01 -6.6017332158380265e-11 2.2073925765618217e-11  1.4999999993568713e-01 9.7423730881196792e-11 -1.4285993756106071e-10  1.5000000001589461e-01 -1.4022818023921955e-11 6.6056422147702034e-11  1.5000000002536343e-01 -4.6788649151345246e-11 3.8862872472911537e-11  1.4999999997700703e-01 3.4383505334202586e-11 -5.7649384889153193e-11  1.5000000000036826e-01 5.4743165561733843e-12 1.4338036825300851e-11  1.5000000001175151e-01 -2.2118284214168572e-11 2.1178483901910246e-11  1.4999999999238786e-01 1.0971589632784092e-11 -2.1005280167904729e-11  1.4999999999889807e-01 4.7853161576259948e-12 2.9230261162320145e-12  1.5000000000463493e-01 -9.0869679143492107e-12 8.7970682421971814e-12  1.4999999999737781e-01 3.7237801313927302e-12 -7.6209100342073277e-12  1.4999999999949845e-01 2.1714140871900196e-12 9.7949551356391669e-13  1.5000000000168764e-01 -3.5503803411498967e-12 3.1368227260979707e-12  1.4999999999899899e-01 1.5232881287372291e-12 -2.8562982195254098e-12  1.4999999999991620e-01 6.8385686933313324e-13 6.2880643436758636e-13  1.5000000000056576e-01 -1.3341443376973638e-12 9.3153206315648954e-13  1.4999999999958896e-01 7.2698651480424450e-13 -1.0694321383487334e-12  1.5000000000005559e-01 8.5086462704067774e-14 4.2423564653778837e-13  1.5000000000015701e-01 -4.4797882776961935e-13 1.7005101646002065e-13  1.4999999999983740e-01 3.4805923511252724e-13 -3.5826319184996483e-13  1.5000000000006561e-01 -8.2479443662921759e-14 2.3481888993244517e-13  1.5000000000002078e-01 -1.0229479592320812e-13 -3.7556883189922446e-14  1.4999999999994867e-01 1.3746076369280594e-13 -8.0422988093565774e-14  1.5000000000003819e-01 -8.0516026144067852e-14 9.4605966811825032e-14  1.4999999999998809e-01 9.8520200901107571e-15 -5.1927155935144760e-14  1.4999999999999322e-01 3.0390736155303883e-14 6.6330567170998684e-15  1.5000000000001257e-01 -3.4796113541153015e-14 1.9754842623784327e-14  1.4999999999999064e-01 2.1068987855544682e-14 -2.2544012456909935e-14  1.5000000000000363e-01 -4.5343304714071168e-15 1.4009054455746074e-14  1.5000000000000072e-01 -5.1164590278321176e-15 -3.9583515078969046e-15  1.4999999999999747e-01 7.5819737215582391e-15 -2.6934252863357665e-15  1.5000000000000241e-01 -5.5903553876266240e-15 4.7080951387697724e-15  1.4999999999999855e-01 2.9274368856360912e-15 -4.2209971914909710e-15  1.5000000000000033e-01 -3.8815095129522311e-17 1.9639354214376226e-15  1.5000000000000030e-01 -1.4486471248889524e-15 -5.3157677585609438e-16  1.4999999999999944e-01 2.2621757627885760e-15 -6.2938876511808664e-16  1.5000000000000052e-01 -2.7242226857444352e-15 9.8300675119734054e-16  1.4999999999999944e-01 1.5989817100368405e-15 -1.2646712799122945e-15  1.5000000000000044e-01 -1.0160845440055759e-15 8.8131392677293935e-16  1.4999999999999991e-01 4.9300689363087517e-16 -4.1307097030059816e-16  1.5000000000000013e-01 -5.5128924967977608e-16 6.3028144896097631e-16  1.5000000000000002e-01 -3.3294293454582236e-16 1.9854872058079823e-16  1.4999999999999999e-01 0.0000000000000000e+00 1.6275991650204991e-16  1.4999999999995253e-01 0.0000000000000000e+00 -9.0794780860822963e-14  1.5000000000003305e-01 3.7163494629826804e-14 5.4488212674942912e-14  1.5000000000002456e-01 7.2360446122394018e-14 7.2712362600130646e-14  1.4999999999990410e-01 -2.1190601476729110e-13 -2.1727858365025693e-13  1.5000000000002647e-01 6.3622117212511254e-14 1.9399598110333413e-14  1.5000000000023783e-01 2.9664197882516448e-13 5.5448551350655787e-13  1.5000000000024871e-01 -1.9375227297576036e-12 8.5905508744720945e-13  1.5000000000270777e-01 -6.1757729478307505e-12 8.0574087680284751e-12  1.5000000001240582e-01 -1.7184913499360323e-11 3.7401473927610283e-11  1.5000000003690292e-01 -5.2810065512116224e-11 1.1688319430484561e-10  1.5000000009763628e-01 -1.1362020616513526e-10 3.1805066966143212e-10  1.5000000021625703e-01 -1.4902160834798399e-10 7.2058091252292034e-10  1.5000000034543468e-01 -2.1201802947040129e-11 1.2106215962429500e-09  1.5000000026981219e-01 6.5632939992524713e-10 1.1478078921912038e-09  1.4999999942952941e-01 2.6588251021115635e-09 -1.2184643423751055e-09  1.4999999664818234e-01 6.8968028735924274e-09 -9.5430513852752716e-09  1.4999999012278808e-01 1.4105784281064532e-08 -2.9291252930828234e-08  1.4999997789946612e-01 2.5118639226424942e-08 -6.6117878441271678e-08  1.4999995825903900e-01 4.0951059463987254e-08 -1.2457121092116686e-07  1.4999992997056136e-01 6.0966314794752756e-08 -2.0762921435078643e-07  1.4999989407453859e-01 7.8158806570751396e-08 -3.1194878146077344e-07  1.4999985817718137e-01 7.3836897477669022e-08 -4.1447822566214234e-07  1.4999984038179873e-01 2.3322986246921455e-08 -4.5915631501957066e-07  1.4999986488446038e-01 -7.4214999099983812e-08 -3.7202002361140161e-07  1.4999994070306391e-01 -1.6454018875533333e-07 -1.3184550584969322e-07  1.5000003506528770e-01 -1.6695238203900098e-07 1.4914382919444993e-07  1.5000008423828462e-01 -6.6143077259274522e-08 2.7307386680860724e-07  1.5000005863089735e-01 4.8011744539178834e-08 1.6686960084984707e-07  1.5000000576001388e-01 7.7139780443425623e-08 -2.4307822265594956e-09  1.4999999009214113e-01 3.0762985403451541e-08 -3.9258534300246622e-08  1.5000000603311148e-01 -7.1817143805031430e-09 1.8378934987087050e-08  1.5000000596241492e-01 -3.8116296528670600e-09 1.6682021680538550e-08  1.4999999137781755e-01 2.9202838178611746e-09 -2.8234612911857460e-08  1.4999999776692197e-01 -5.9393001103881808e-09 -3.7536850789214848e-09  1.5000001314763534e-01 -5.0231898651740558e-09 4.2844437908751116e-08  1.5000000269974217e-01 9.7104765641510745e-09 4.5274309397079043e-09  1.4999998571026568e-01 8.8848253638698282e-09 -4.7083546474470919e-08  1.4999999688009139e-01 -8.4270237642841155e-09 -6.2453651106572101e-09  1.5000001302979304e-01 -1.0069554951055007e-08 4.3031843580617061e-08  1.5000000242909434e-01 6.1076608451237896e-09 4.7000318278923931e-09  1.4999998934460901e-01 9.0257441236367542e-09 -3.4995828963827219e-08  1.4999999902170114e-01 -4.4235176380804809e-09 -7.2779183435274289e-10  1.5000000799732746e-01 -6.9817341599647401e-09 2.5931436187968376e-08  1.4999999948986800e-01 3.5313153125058127e-09 -3.4153690000397130e-09  1.4999999453461249e-01 4.7927328748865182e-09 -1.7362907106904658e-08  1.5000000150714873e-01 -3.0481844426963098e-09 6.0312581904708685e-09  1.5000000326725305e-01 -2.8618042992412532e-09 1.0050585920268139e-08  1.4999999815384465e-01 2.6092320226119051e-09 -6.6041318730400412e-09  1.4999999844780801e-01 1.3432256627311872e-09 -4.4802642854022285e-09  1.5000000164004074e-01 -2.0530874558779467e-09 5.5375460288019820e-09  1.5000000040728867e-01 -2.9563538763557997e-10 8.8543102710631227e-10  1.4999999886333001e-01 1.3991237736062991e-09 -3.6591875569598419e-09  1.5000000018682025e-01 -2.8355933181244290e-10 8.6849845437052278e-10  1.5000000059154631e-01 -7.6222793067676903e-10 1.7892461684457172e-09  1.4999999964351729e-01 4.6822430175994110e-10 -1.2593268164941347e-09  1.4999999981992038e-01 2.6513064525334720e-10 -4.5683833196715828e-10  1.5000000028395605e-01 -3.9393622610632804e-10 9.2042784768540775e-10  1.4999999996341967e-01 2.6030800504400697e-11 -1.9421139988074217e-10  1.4999999986185683e-01 2.1600552264140133e-10 -4.0745313817462446e-10  1.5000000009207823e-01 -1.2449900300981278e-10 3.2044536179490389e-10  1.5000000002485592e-01 -5.6925509562853274e-11 4.4560529814396498e-11  1.4999999993666269e-01 1.0155499134457602e-10 -1.9662996139742486e-10  1.5000000002352545e-01 -2.6391083322022495e-11 9.1528355126563022e-11  1.5000000001936520e-01 -4.0605081180634222e-11 4.8208916801812995e-11  1.4999999997567756e-01 3.9507996694247203e-11 -7.7970912606279665e-11  1.5000000000540251e-01 -2.9532349647197553e-12 2.5079900849404797e-11  1.5000000000906571e-01 -1.9503489007962510e-11 2.3687513566662941e-11  1.4999999999109276e-01 1.4807633680327237e-11 -2.9017658838793290e-11  1.5000000000153024e-01 1.2558800273999810e-13 8.1998311376903578e-12  1.5000000000345820e-01 -7.9924051968355692e-12 8.8671373152815166e-12  1.4999999999668936e-01 5.8416216116931310e-12 -1.0696719426313235e-11  1.5000000000073599e-01 -2.1369095235993865e-13 3.6270591763822188e-12  1.5000000000110450e-01 -2.9100868875024068e-12 2.5572249408435782e-12  1.4999999999875613e-01 2.4462725372257332e-12 -3.8518884512024576e-12  1.5000000000045469e-01 -4.9319438737964467e-13 1.8665927882834426e-12  1.5000000000024538e-01 -8.5846081557043509e-13 3.5481520596786760e-13  1.4999999999956395e-01 1.0015910120334220e-12 -1.2295596863718122e-12  1.5000000000025915e-01 -4.4759608545621835e-13 9.0221355359204118e-13  1.4999999999998498e-01 -1.0864896074133743e-13 -2.0440447635165636e-13  1.4