<?xml version="1.0"?>
<VTKFile type="UnstructuredGrid"  version="0.1"  >
<UnstructuredGrid>
<Piece  NumberOfPoints="10201" NumberOfCells="20000">
<Points>
<DataArray  type="Float64"  NumberOfComponents="3"  format="ascii">-5 -5 0  -4.9 -5 0  -4.8 -5 0  -4.7 -5 0  -4.6 -5 0  -4.5 -5 0  -4.4 -5 0  -4.3 -5 0  -4.2 -5 0  -4.1 -5 0  -4 -5 0  -3.9 -5 0  -3.8 -5 0  -3.7 -5 0  -3.6 -5 0  -3.5 -5 0  -3.4 -5 0  -3.3 -5 0  -3.2 -5 0  -3.1 -5 0  -3 -5 0  -2.9 -5 0  -2.8 -5 0  -2.7 -5 0  -2.6 -5 0  -2.5 -5 0  -2.4 -5 0  -2.3 -5 0  -2.2 -5 0  -2.1 -5 0  -2 -5 0  -1.9 -5 0  -1.8 -5 0  -1.7 -5 0  -1.6 -5 0  -1.5 -5 0  -1.4 -5 0  -1.3 -5 0  -1.2 -5 0  -1.1 -5 0  -1 -5 0  -0.9000000000000004 -5 0  -0.7999999999999998 -5 0  -0.7000000000000002 -5 0  -0.5999999999999996 -5 0  -0.5 -5 0  -0.4000000000000004 -5 0  -0.2999999999999998 -5 0  -0.2000000000000002 -5 0  -0.09999999999999964 -5 0  0 -5 0  0.09999999999999964 -5 0  0.2000000000000002 -5 0  0.2999999999999998 -5 0  0.4000000000000004 -5 0  0.5 -5 0  0.5999999999999996 -5 0  0.7000000000000002 -5 0  0.7999999999999998 -5 0  0.9000000000000004 -5 0  1 -5 0  1.1 -5 0  1.2 -5 0  1.3 -5 0  1.4 -5 0  1.5 -5 0  1.6 -5 0  1.7 -5 0  1.8 -5 0  1.9 -5 0  2 -5 0  2.1 -5 0  2.2 -5 0  2.3 -5 0  2.4 -5 0  2.5 -5 0  2.6 -5 0  2.7 -5 0  2.8 -5 0  2.9 -5 0  3 -5 0  3.1 -5 0  3.199999999999999 -5 0  3.300000000000001 -5 0  3.4 -5 0  3.5 -5 0  3.6 -5 0  3.699999999999999 -5 0  3.800000000000001 -5 0  3.9 -5 0  4 -5 0  4.1 -5 0  4.199999999999999 -5 0  4.300000000000001 -5 0  4.4 -5 0  4.5 -5 0  4.6 -5 0  4.699999999999999 -5 0  4.800000000000001 -5 0  4.9 -5 0  5 -5 0  -5 -4.9 0  -4.9 -4.9 0  -4.8 -4.9 0  -4.7 -4.9 0  -4.6 -4.9 0  -4.5 -4.9 0  -4.4 -4.9 0  -4.3 -4.9 0  -4.2 -4.9 0  -4.1 -4.9 0  -4 -4.9 0  -3.9 -4.9 0  -3.8 -4.9 0  -3.7 -4.9 0  -3.6 -4.9 0  -3.5 -4.9 0  -3.4 -4.9 0  -3.3 -4.9 0  -3.2 -4.9 0  -3.1 -4.9 0  -3 -4.9 0  -2.9 -4.9 0  -2.8 -4.9 0  -2.7 -4.9 0  -2.6 -4.9 0  -2.5 -4.9 0  -2.4 -4.9 0  -2.3 -4.9 0  -2.2 -4.9 0  -2.1 -4.9 0  -2 -4.9 0  -1.9 -4.9 0  -1.8 -4.9 0  -1.7 -4.9 0  -1.6 -4.9 0  -1.5 -4.9 0  -1.4 -4.9 0  -1.3 -4.9 0  -1.2 -4.9 0  -1.1 -4.9 0  -1 -4.9 0  -0.9000000000000004 -4.9 0  -0.7999999999999998 -4.9 0  -0.7000000000000002 -4.9 0  -0.5999999999999996 -4.9 0  -0.5 -4.9 0  -0.4000000000000004 -4.9 0  -0.2999999999999998 -4.9 0  -0.2000000000000002 -4.9 0  -0.09999999999999964 -4.9 0  0 -4.9 0  0.09999999999999964 -4.9 0  0.2000000000000002 -4.9 0  0.2999999999999998 -4.9 0  0.4000000000000004 -4.9 0  0.5 -4.9 0  0.5999999999999996 -4.9 0  0.7000000000000002 -4.9 0  0.7999999999999998 -4.9 0  0.9000000000000004 -4.9 0  1 -4.9 0  1.1 -4.9 0  1.2 -4.9 0  1.3 -4.9 0  1.4 -4.9 0  1.5 -4.9 0  1.6 -4.9 0  1.7 -4.9 0  1.8 -4.9 0  1.9 -4.9 0  2 -4.9 0  2.1 -4.9 0  2.2 -4.9 0  2.3 -4.9 0  2.4 -4.9 0  2.5 -4.9 0  2.6 -4.9 0  2.7 -4.9 0  2.8 -4.9 0  2.9 -4.9 0  3 -4.9 0  3.1 -4.9 0  3.199999999999999 -4.9 0  3.300000000000001 -4.9 0  3.4 -4.9 0  3.5 -4.9 0  3.6 -4.9 0  3.699999999999999 -4.9 0  3.800000000000001 -4.9 0  3.9 -4.9 0  4 -4.9 0  4.1 -4.9 0  4.199999999999999 -4.9 0  4.300000000000001 -4.9 0  4.4 -4.9 0  4.5 -4.9 0  4.6 -4.9 0  4.699999999999999 -4.9 0  4.800000000000001 -4.9 0  4.9 -4.9 0  5 -4.9 0  -5 -4.8 0  -4.9 -4.8 0  -4.8 -4.8 0  -4.7 -4.8 0  -4.6 -4.8 0  -4.5 -4.8 0  -4.4 -4.8 0  -4.3 -4.8 0  -4.2 -4.8 0  -4.1 -4.8 0  -4 -4.8 0  -3.9 -4.8 0  -3.8 -4.8 0  -3.7 -4.8 0  -3.6 -4.8 0  -3.5 -4.8 0  -3.4 -4.8 0  -3.3 -4.8 0  -3.2 -4.8 0  -3.1 -4.8 0  -3 -4.8 0  -2.9 -4.8 0  -2.8 -4.8 0  -2.7 -4.8 0  -2.6 -4.8 0  -2.5 -4.8 0  -2.4 -4.8 0  -2.3 -4.8 0  -2.2 -4.8 0  -2.1 -4.8 0  -2 -4.8 0  -1.9 -4.8 0  -1.8 -4.8 0  -1.7 -4.8 0  -1.6 -4.8 0  -1.5 -4.8 0  -1.4 -4.8 0  -1.3 -4.8 0  -1.2 -4.8 0  -1.1 -4.8 0  -1 -4.8 0  -0.9000000000000004 -4.8 0  -0.7999999999999998 -4.8 0  -0.7000000000000002 -4.8 0  -0.5999999999999996 -4.8 0  -0.5 -4.8 0  -0.4000000000000004 -4.8 0  -0.2999999999999998 -4.8 0  -0.2000000000000002 -4.8 0  -0.09999999999999964 -4.8 0  0 -4.8 0  0.09999999999999964 -4.8 0  0.2000000000000002 -4.8 0  0.2999999999999998 -4.8 0  0.4000000000000004 -4.8 0  0.5 -4.8 0  0.5999999999999996 -4.8 0  0.7000000000000002 -4.8 0  0.7999999999999998 -4.8 0  0.9000000000000004 -4.8 0  1 -4.8 0  1.1 -4.8 0  1.2 -4.8 0  1.3 -4.8 0  1.4 -4.8 0  1.5 -4.8 0  1.6 -4.8 0  1.7 -4.8 0  1.8 -4.8 0  1.9 -4.8 0  2 -4.8 0  2.1 -4.8 0  2.2 -4.8 0  2.3 -4.8 0  2.4 -4.8 0  2.5 -4.8 0  2.6 -4.8 0  2.7 -4.8 0  2.8 -4.8 0  2.9 -4.8 0  3 -4.8 0  3.1 -4.8 0  3.199999999999999 -4.8 0  3.300000000000001 -4.8 0  3.4 -4.8 0  3.5 -4.8 0  3.6 -4.8 0  3.699999999999999 -4.8 0  3.800000000000001 -4.8 0  3.9 -4.8 0  4 -4.8 0  4.1 -4.8 0  4.199999999999999 -4.8 0  4.300000000000001 -4.8 0  4.4 -4.8 0  4.5 -4.8 0  4.6 -4.8 0  4.699999999999999 -4.8 0  4.800000000000001 -4.8 0  4.9 -4.8 0  5 -4.8 0  -5 -4.7 0  -4.9 -4.7 0  -4.8 -4.7 0  -4.7 -4.7 0  -4.6 -4.7 0  -4.5 -4.7 0  -4.4 -4.7 0  -4.3 -4.7 0  -4.2 -4.7 0  -4.1 -4.7 0  -4 -4.7 0  -3.9 -4.7 0  -3.8 -4.7 0  -3.7 -4.7 0  -3.6 -4.7 0  -3.5 -4.7 0  -3.4 -4.7 0  -3.3 -4.7 0  -3.2 -4.7 0  -3.1 -4.7 0  -3 -4.7 0  -2.9 -4.7 0  -2.8 -4.7 0  -2.7 -4.7 0  -2.6 -4.7 0  -2.5 -4.7 0  -2.4 -4.7 0  -2.3 -4.7 0  -2.2 -4.7 0  -2.1 -4.7 0  -2 -4.7 0  -1.9 -4.7 0  -1.8 -4.7 0  -1.7 -4.7 0  -1.6 -4.7 0  -1.5 -4.7 0  -1.4 -4.7 0  -1.3 -4.7 0  -1.2 -4.7 0  -1.1 -4.7 0  -1 -4.7 0  -0.9000000000000004 -4.7 0  -0.7999999999999998 -4.7 0  -0.7000000000000002 -4.7 0  -0.5999999999999996 -4.7 0  -0.5 -4.7 0  -0.4000000000000004 -4.7 0  -0.2999999999999998 -4.7 0  -0.2000000000000002 -4.7 0  -0.09999999999999964 -4.7 0  0 -4.7 0  0.09999999999999964 -4.7 0  0.2000000000000002 -4.7 0  0.2999999999999998 -4.7 0  0.4000000000000004 -4.7 0  0.5 -4.7 0  0.5999999999999996 -4.7 0  0.7000000000000002 -4.7 0  0.7999999999999998 -4.7 0  0.9000000000000004 -4.7 0  1 -4.7 0  1.1 -4.7 0  1.2 -4.7 0  1.3 -4.7 0  1.4 -4.7 0  1.5 -4.7 0  1.6 -4.7 0  1.7 -4.7 0  1.8 -4.7 0  1.9 -4.7 0  2 -4.7 0  2.1 -4.7 0  2.2 -4.7 0  2.3 -4.7 0  2.4 -4.7 0  2.5 -4.7 0  2.6 -4.7 0  2.7 -4.7 0  2.8 -4.7 0  2.9 -4.7 0  3 -4.7 0  3.1 -4.7 0  3.199999999999999 -4.7 0  3.300000000000001 -4.7 0  3.4 -4.7 0  3.5 -4.7 0  3.6 -4.7 0  3.699999999999999 -4.7 0  3.800000000000001 -4.7 0  3.9 -4.7 0  4 -4.7 0  4.1 -4.7 0  4.199999999999999 -4.7 0  4.300000000000001 -4.7 0  4.4 -4.7 0  4.5 -4.7 0  4.6 -4.7 0  4.699999999999999 -4.7 0  4.800000000000001 -4.7 0  4.9 -4.7 0  5 -4.7 0  -5 -4.6 0  -4.9 -4.6 0  -4.8 -4.6 0  -4.7 -4.6 0  -4.6 -4.6 0  -4.5 -4.6 0  -4.4 -4.6 0  -4.3 -4.6 0  -4.2 -4.6 0  -4.1 -4.6 0  -4 -4.6 0  -3.9 -4.6 0  -3.8 -4.6 0  -3.7 -4.6 0  -3.6 -4.6 0  -3.5 -4.6 0  -3.4 -4.6 0  -3.3 -4.6 0  -3.2 -4.6 0  -3.1 -4.6 0  -3 -4.6 0  -2.9 -4.6 0  -2.8 -4.6 0  -2.7 -4.6 0  -2.6 -4.6 0  -2.5 -4.6 0  -2.4 -4.6 0  -2.3 -4.6 0  -2.2 -4.6 0  -2.1 -4.6 0  -2 -4.6 0  -1.9 -4.6 0  -1.8 -4.6 0  -1.7 -4.6 0  -1.6 -4.6 0  -1.5 -4.6 0  -1.4 -4.6 0  -1.3 -4.6 0  -1.2 -4.6 0  -1.1 -4.6 0  -1 -4.6 0  -0.9000000000000004 -4.6 0  -0.7999999999999998 -4.6 0  -0.7000000000000002 -4.6 0  -0.5999999999999996 -4.6 0  -0.5 -4.6 0  -0.4000000000000004 -4.6 0  -0.2999999999999998 -4.6 0  -0.2000000000000002 -4.6 0  -0.09999999999999964 -4.6 0  0 -4.6 0  0.09999999999999964 -4.6 0  0.2000000000000002 -4.6 0  0.2999999999999998 -4.6 0  0.4000000000000004 -4.6 0  0.5 -4.6 0  0.5999999999999996 -4.6 0  0.7000000000000002 -4.6 0  0.7999999999999998 -4.6 0  0.9000000000000004 -4.6 0  1 -4.6 0  1.1 -4.6 0  1.2 -4.6 0  1.3 -4.6 0  1.4 -4.6 0  1.5 -4.6 0  1.6 -4.6 0  1.7 -4.6 0  1.8 -4.6 0  1.9 -4.6 0  2 -4.6 0  2.1 -4.6 0  2.2 -4.6 0  2.3 -4.6 0  2.4 -4.6 0  2.5 -4.6 0  2.6 -4.6 0  2.7 -4.6 0  2.8 -4.6 0  2.9 -4.6 0  3 -4.6 0  3.1 -4.6 0  3.199999999999999 -4.6 0  3.300000000000001 -4.6 0  3.4 -4.6 0  3.5 -4.6 0  3.6 -4.6 0  3.699999999999999 -4.6 0  3.800000000000001 -4.6 0  3.9 -4.6 0  4 -4.6 0  4.1 -4.6 0  4.199999999999999 -4.6 0  4.300000000000001 -4.6 0  4.4 -4.6 0  4.5 -4.6 0  4.6 -4.6 0  4.699999999999999 -4.6 0  4.800000000000001 -4.6 0  4.9 -4.6 0  5 -4.6 0  -5 -4.5 0  -4.9 -4.5 0  -4.8 -4.5 0  -4.7 -4.5 0  -4.6 -4.5 0  -4.5 -4.5 0  -4.4 -4.5 0  -4.3 -4.5 0  -4.2 -4.5 0  -4.1 -4.5 0  -4 -4.5 0  -3.9 -4.5 0  -3.8 -4.5 0  -3.7 -4.5 0  -3.6 -4.5 0  -3.5 -4.5 0  -3.4 -4.5 0  -3.3 -4.5 0  -3.2 -4.5 0  -3.1 -4.5 0  -3 -4.5 0  -2.9 -4.5 0  -2.8 -4.5 0  -2.7 -4.5 0  -2.6 -4.5 0  -2.5 -4.5 0  -2.4 -4.5 0  -2.3 -4.5 0  -2.2 -4.5 0  -2.1 -4.5 0  -2 -4.5 0  -1.9 -4.5 0  -1.8 -4.5 0  -1.7 -4.5 0  -1.6 -4.5 0  -1.5 -4.5 0  -1.4 -4.5 0  -1.3 -4.5 0  -1.2 -4.5 0  -1.1 -4.5 0  -1 -4.5 0  -0.9000000000000004 -4.5 0  -0.7999999999999998 -4.5 0  -0.7000000000000002 -4.5 0  -0.5999999999999996 -4.5 0  -0.5 -4.5 0  -0.4000000000000004 -4.5 0  -0.2999999999999998 -4.5 0  -0.2000000000000002 -4.5 0  -0.09999999999999964 -4.5 0  0 -4.5 0  0.09999999999999964 -4.5 0  0.2000000000000002 -4.5 0  0.2999999999999998 -4.5 0  0.4000000000000004 -4.5 0  0.5 -4.5 0  0.5999999999999996 -4.5 0  0.7000000000000002 -4.5 0  0.7999999999999998 -4.5 0  0.9000000000000004 -4.5 0  1 -4.5 0  1.1 -4.5 0  1.2 -4.5 0  1.3 -4.5 0  1.4 -4.5 0  1.5 -4.5 0  1.6 -4.5 0  1.7 -4.5 0  1.8 -4.5 0  1.9 -4.5 0  2 -4.5 0  2.1 -4.5 0  2.2 -4.5 0  2.3 -4.5 0  2.4 -4.5 0  2.5 -4.5 0  2.6 -4.5 0  2.7 -4.5 0  2.8 -4.5 0  2.9 -4.5 0  3 -4.5 0  3.1 -4.5 0  3.199999999999999 -4.5 0  3.300000000000001 -4.5 0  3.4 -4.5 0  3.5 -4.5 0  3.6 -4.5 0  3.699999999999999 -4.5 0  3.800000000000001 -4.5 0  3.9 -4.5 0  4 -4.5 0  4.1 -4.5 0  4.199999999999999 -4.5 0  4.300000000000001 -4.5 0  4.4 -4.5 0  4.5 -4.5 0  4.6 -4.5 0  4.699999999999999 -4.5 0  4.800000000000001 -4.5 0  4.9 -4.5 0  5 -4.5 0  -5 -4.4 0  -4.9 -4.4 0  -4.8 -4.4 0  -4.7 -4.4 0  -4.6 -4.4 0  -4.5 -4.4 0  -4.4 -4.4 0  -4.3 -4.4 0  -4.2 -4.4 0  -4.1 -4.4 0  -4 -4.4 0  -3.9 -4.4 0  -3.8 -4.4 0  -3.7 -4.4 0  -3.6 -4.4 0  -3.5 -4.4 0  -3.4 -4.4 0  -3.3 -4.4 0  -3.2 -4.4 0  -3.1 -4.4 0  -3 -4.4 0  -2.9 -4.4 0  -2.8 -4.4 0  -2.7 -4.4 0  -2.6 -4.4 0  -2.5 -4.4 0  -2.4 -4.4 0  -2.3 -4.4 0  -2.2 -4.4 0  -2.1 -4.4 0  -2 -4.4 0  -1.9 -4.4 0  -1.8 -4.
[...]
<PointData  Vectors="f_17"> 
<DataArray  type="Float64"  Name="f_17"  NumberOfComponents="3" format="ascii">1.4999999999999999e-01 0.0000000000000000e+00 0.0000000000000000e+00  1.5000000000000008e-01 -2.4984468633315228e-16 0.0000000000000000e+00  1.5000000000000002e-01 2.5652740973792450e-16 0.0000000000000000e+00  1.4999999999999997e-01 5.2144768173226401e-17 0.0000000000000000e+00  1.4999999999999999e-01 -2.2320757242317602e-16 0.0000000000000000e+00  1.5000000000000008e-01 8.6909780962627802e-17 0.0000000000000000e+00  1.4999999999999997e-01 -7.4550265650200877e-17 0.0000000000000000e+00  1.5000000000000013e-01 1.0979206379069607e-16 0.0000000000000000e+00  1.4999999999999988e-01 -8.4331427564820697e-17 0.0000000000000000e+00  1.5000000000000011e-01 -1.7592588913623067e-16 0.0000000000000000e+00  1.5000000000000008e-01 2.3022022271473497e-16 0.0000000000000000e+00  1.4999999999999997e-01 -1.2551771347696694e-16 0.0000000000000000e+00  1.5000000000000011e-01 -5.7863760097227223e-17 0.0000000000000000e+00  1.5000000000000013e-01 -1.2751162065813556e-16 0.0000000000000000e+00  1.4999999999999997e-01 6.7905306039056849e-16 0.0000000000000000e+00  1.4999999999999997e-01 -3.6392559999292410e-16 0.0000000000000000e+00  1.4999999999999994e-01 2.6711413382671200e-16 0.0000000000000000e+00  1.4999999999999999e-01 -4.1379812058360894e-16 0.0000000000000000e+00  1.5000000000000005e-01 3.1285378774816366e-16 0.0000000000000000e+00  1.4999999999999997e-01 -1.0273444513683801e-16 0.0000000000000000e+00  1.4999999999999991e-01 2.6989734020163935e-16 0.0000000000000000e+00  1.4999999999999997e-01 -4.3682592024182382e-16 0.0000000000000000e+00  1.5000000000000008e-01 1.4506539967460271e-16 0.0000000000000000e+00  1.4999999999999997e-01 1.1643303314074217e-17 0.0000000000000000e+00  1.4999999999999997e-01 1.8574934784556750e-16 0.0000000000000000e+00  1.4999999999999997e-01 -2.2019900546404296e-16 0.0000000000000000e+00  1.4999999999999997e-01 2.6038917139346281e-16 0.0000000000000000e+00  1.4999999999999999e-01 -4.6314374236322610e-16 0.0000000000000000e+00  1.4999999999999999e-01 2.3297018251348635e-16 0.0000000000000000e+00  1.5000000000000016e-01 -3.7781042911757747e-16 0.0000000000000000e+00  1.4999999999999997e-01 5.1180195631271385e-16 0.0000000000000000e+00  1.4999999999999999e-01 -1.6968585285440036e-16 0.0000000000000000e+00  1.5000000000000002e-01 7.0317071552206621e-17 0.0000000000000000e+00  1.4999999999999994e-01 1.1505449603553813e-17 0.0000000000000000e+00  1.5000000000000005e-01 1.7202190543703886e-16 0.0000000000000000e+00  1.4999999999999999e-01 -2.4712242389775352e-16 0.0000000000000000e+00  1.4999999999999991e-01 2.2107191299362462e-16 0.0000000000000000e+00  1.4999999999999999e-01 -2.8233200134698067e-16 0.0000000000000000e+00  1.5000000000000005e-01 7.7065216712453089e-17 0.0000000000000000e+00  1.4999999999999997e-01 -1.1380743655731670e-17 0.0000000000000000e+00  1.5000000000000005e-01 -1.2168477260458298e-16 0.0000000000000000e+00  1.5000000000000002e-01 6.4066438362568556e-18 0.0000000000000000e+00  1.5000000000000005e-01 1.8777800078543198e-16 0.0000000000000000e+00  1.4999999999999999e-01 -4.1461855817147888e-16 0.0000000000000000e+00  1.5000000000000011e-01 5.0810776609112430e-16 0.0000000000000000e+00  1.4999999999999994e-01 -1.4983000155374580e-16 0.0000000000000000e+00  1.4999999999999997e-01 -8.7171450206658266e-17 0.0000000000000000e+00  1.5000000000000013e-01 9.1399649968225168e-17 0.0000000000000000e+00  1.4999999999999988e-01 -8.2214802779855932e-17 0.0000000000000000e+00  1.5000000000000011e-01 -2.7643282819679613e-16 0.0000000000000000e+00  1.5000000000000011e-01 1.5015287013344052e-16 0.0000000000000000e+00  1.5000000000000005e-01 2.3475510361960739e-16 0.0000000000000000e+00  1.4999999999999997e-01 -2.4796684651174226e-16 0.0000000000000000e+00  1.5000000000000008e-01 2.0627889042720269e-16 0.0000000000000000e+00  1.5000000000000002e-01 -2.3076958690624735e-16 0.0000000000000000e+00  1.5000000000000008e-01 1.0398306286127148e-16 0.0000000000000000e+00  1.4999999999999999e-01 1.5771351115731842e-16 0.0000000000000000e+00  1.5000000000000008e-01 -1.2845303768026750e-16 0.0000000000000000e+00  1.4999999999999994e-01 1.0314585556269281e-16 0.0000000000000000e+00  1.5000000000000013e-01 -3.1229006008630339e-16 0.0000000000000000e+00  1.5000000000000002e-01 2.8217672904517295e-16 0.0000000000000000e+00  1.5000000000000002e-01 -1.0533830907075415e-16 0.0000000000000000e+00  1.5000000000000005e-01 1.1318770573506689e-16 0.0000000000000000e+00  1.5000000000000002e-01 -6.8028422997665456e-17 0.0000000000000000e+00  1.4999999999999999e-01 3.8237001369155810e-17 0.0000000000000000e+00  1.5000000000000008e-01 -5.2632558173264839e-17 0.0000000000000000e+00  1.4999999999999997e-01 1.1363243035343928e-16 0.0000000000000000e+00  1.5000000000000011e-01 -7.2698473772572768e-17 0.0000000000000000e+00  1.4999999999999988e-01 1.8963087395063171e-17 0.0000000000000000e+00  1.5000000000000013e-01 -2.6874259109090286e-16 0.0000000000000000e+00  1.5000000000000011e-01 3.0710903675559382e-17 0.0000000000000000e+00  1.5000000000000008e-01 1.7959697337003265e-16 0.0000000000000000e+00  1.5000000000000002e-01 -1.1480669564959046e-16 0.0000000000000000e+00  1.5000000000000008e-01 1.2438984392059663e-16 0.0000000000000000e+00  1.5000000000000005e-01 -1.6574464601221034e-18 0.0000000000000000e+00  1.5000000000000002e-01 -1.2559884875171111e-16 0.0000000000000000e+00  1.5000000000000008e-01 1.2673333890423767e-16 0.0000000000000000e+00  1.5000000000000013e-01 -4.0110673359955172e-16 0.0000000000000000e+00  1.4999999999999991e-01 5.2298882088058360e-16 0.0000000000000000e+00  1.5000000000000013e-01 -3.0551062540916800e-16 0.0000000000000000e+00  1.5000000000000008e-01 -9.8404575071834237e-17 0.0000000000000000e+00  1.5000000000000011e-01 1.5854266683864164e-16 0.0000000000000000e+00  1.5000000000000008e-01 9.0483416746700381e-18 0.0000000000000000e+00  1.5000000000000011e-01 -1.1431327002895914e-16 0.0000000000000000e+00  1.5000000000000008e-01 1.9486110816516601e-16 0.0000000000000000e+00  1.5000000000000002e-01 1.4487354815604997e-17 0.0000000000000000e+00  1.5000000000000008e-01 -2.8155276219811378e-16 0.0000000000000000e+00  1.5000000000000013e-01 3.5784557669807126e-16 0.0000000000000000e+00  1.4999999999999999e-01 -1.7066323263851932e-16 0.0000000000000000e+00  1.5000000000000005e-01 1.3861984272030642e-16 0.0000000000000000e+00  1.5000000000000008e-01 -2.9062636608366214e-16 0.0000000000000000e+00  1.5000000000000011e-01 1.9183380709099323e-16 0.0000000000000000e+00  1.5000000000000005e-01 -1.9824222716314383e-16 0.0000000000000000e+00  1.5000000000000019e-01 -6.0214104371784598e-18 0.0000000000000000e+00  1.5000000000000002e-01 3.3712419013895783e-16 0.0000000000000000e+00  1.5000000000000002e-01 1.5179158578796413e-17 0.0000000000000000e+00  1.4999999999999999e-01 -2.6818765509755163e-16 0.0000000000000000e+00  1.5000000000000019e-01 -1.9626373282365250e-17 0.0000000000000000e+00  1.5000000000000005e-01 7.2790412205157352e-17 0.0000000000000000e+00  1.5000000000000008e-01 3.1097245881565712e-17 0.0000000000000000e+00  1.5000000000000011e-01 0.0000000000000000e+00 0.0000000000000000e+00  1.5000000000000019e-01 0.0000000000000000e+00 7.7799645620681496e-17  1.4999999999999999e-01 9.3424286798843333e-17 1.1097282200429307e-17  1.5000000000000005e-01 3.8822255023685082e-17 -7.9472930160864691e-17  1.5000000000000005e-01 -6.6314733389227244e-17 -1.7307662037327686e-16  1.5000000000000005e-01 5.2955719177549837e-17 -2.0962154313851315e-16  1.5000000000000008e-01 -2.5752490169655685e-16 4.0472750808039703e-17  1.5000000000000008e-01 4.4151159514772797e-16 -4.5289450417491847e-16  1.4999999999999999e-01 -2.9198400420122783e-16 2.0163222662358984e-16  1.5000000000000002e-01 2.4832510442912550e-16 -3.8925665835587130e-17  1.5000000000000011e-01 -3.0643486789591153e-16 2.1746433107088267e-16  1.4999999999999999e-01 2.7655574773463083e-16 1.1780862034585515e-16  1.5000000000000002e-01 -3.5530706522032129e-17 -6.9240197262952690e-17  1.5000000000000005e-01 3.3941984115247767e-18 -1.6777037110101491e-16  1.4999999999999994e-01 -2.8953162936504748e-17 1.6178897103223322e-16  1.5000000000000011e-01 -4.9604257519717398e-17 -9.6310690281211970e-17  1.4999999999999999e-01 -1.3580989625381772e-16 -2.9305598459192034e-16  1.5000000000000016e-01 -4.0344403645334430e-17 -2.7226307305328175e-16  1.5000000000000002e-01 2.7226363447811763e-16 -2.0038262734287028e-16  1.5000000000000005e-01 -1.2430244514336228e-16 7.8100032386057506e-17  1.4999999999999999e-01 -6.5396438014504599e-17 -1.7629270636050973e-16  1.5000000000000016e-01 -9.4124557772350216e-17 -1.8146911467134697e-16  1.5000000000000008e-01 4.2732777530669802e-17 -4.2790103058879816e-16  1.5000000000000005e-01 2.4574808502660399e-16 -1.5369467517909789e-16  1.4999999999999999e-01 -1.3696203114167001e-16 8.8954609751174823e-17  1.5000000000000011e-01 -5.2833133164187667e-17 -3.2332656792514253e-16  1.5000000000000002e-01 6.6959757484469451e-17 -2.2362367932457320e-16  1.5000000000000011e-01 -1.1148226060216438e-16 -2.9029231317195685e-16  1.5000000000000002e-01 2.2193961044581141e-18 -2.2750847013160291e-16  1.5000000000000013e-01 3.2591534923003387e-16 -5.7795970903668212e-18  1.4999999999999991e-01 -2.6994740579215795e-16 3.5275375096005188e-16  1.5000000000000011e-01 6.1327615076705618e-17 -6.6776245961116457e-17  1.5000000000000005e-01 -4.9899380303870899e-17 -1.9396226583714665e-16  1.5000000000000005e-01 -4.2501180091747491e-17 5.4870128064620143e-17  1.5000000000000011e-01 -8.0544220960147102e-17 -7.5604498006688209e-17  1.5000000000000011e-01 2.0110020658175466e-16 -4.7345064819857460e-16  1.4999999999999997e-01 -1.2236972054827330e-16 -1.7560183866794486e-16  1.5000000000000016e-01 -8.5865387985999191e-17 -1.7909889918833682e-16  1.5000000000000008e-01 1.6300839160449745e-16 -2.1970757597074592e-16  1.5000000000000002e-01 5.3924571601557322e-17 2.3980472506637560e-17  1.5000000000000002e-01 2.2666776782542625e-17 -1.2407243121307886e-16  1.5000000000000005e-01 -1.3180368884295120e-16 6.6355023629676960e-17  1.5000000000000008e-01 1.8369670098424303e-17 5.0191379710385644e-17  1.5000000000000005e-01 8.2490431727256355e-17 -1.1506117824640069e-16  1.4999999999999999e-01 3.7963779928249423e-17 -2.4480811720050410e-17  1.5000000000000011e-01 -9.6076453338694011e-17 6.9446934776469800e-17  1.4999999999999994e-01 1.3963185853991448e-16 -2.1278594283862002e-16  1.5000000000000011e-01 -6.6679234454934039e-17 -2.4432293702416227e-16  1.4999999999999999e-01 -1.0934852244699289e-16 1.1773647162050717e-16  1.5000000000000002e-01 2.3024492117949104e-16 -3.2102267886239573e-17  1.5000000000000011e-01 -3.6850813568205978e-16 2.5895910078729476e-16  1.5000000000000002e-01 3.4523600586961215e-16 5.7968450036564429e-18  1.4999999999999999e-01 -1.3972802329212323e-16 9.9532322457964734e-17  1.5000000000000008e-01 -1.8214680033730989e-16 9.8832097117294215e-17  1.5000000000000011e-01 -5.8801174807683920e-17 2.1357552080102498e-17  1.4999999999999999e-01 4.2116886924384651e-16 -2.0225517705572864e-16  1.5000000000000005e-01 -3.4717145718716085e-16 1.9432032092239061e-16  1.5000000000000005e-01 4.0594727218206511e-16 -1.8641175487316217e-16  1.4999999999999999e-01 -3.7701172225525489e-16 2.2922989850751821e-16  1.5000000000000008e-01 3.0291261454174907e-16 -2.8479433577482411e-16  1.4999999999999999e-01 -2.4662315879474915e-16 1.7059400640815196e-16  1.5000000000000005e-01 3.7831225857316305e-17 1.2976717182992760e-16  1.5000000000000008e-01 -4.5356380304999212e-17 -1.1185090003990741e-16  1.5000000000000005e-01 1.6745265584960022e-16 -1.2445010611440091e-16  1.4999999999999999e-01 -9.6339307260674373e-17 8.9056527258753980e-17  1.5000000000000011e-01 -9.1139091486948872e-17 -2.8266149408788057e-17  1.5000000000000008e-01 -1.2645577734923949e-16 6.8742953871754118e-17  1.5000000000000011e-01 3.5538529464672728e-16 -3.0126065343590770e-16  1.4999999999999999e-01 -2.9475465076181999e-16 1.3063169166284245e-16  1.5000000000000008e-01 2.8937842554476448e-16 -1.9972496843678612e-17  1.5000000000000011e-01 -3.4369196604559057e-16 1.0024173943616347e-16  1.4999999999999999e-01 4.7067286870585228e-16 -1.1628976500297514e-16  1.4999999999999999e-01 -2.0469599974079170e-16 2.5388255658674310e-16  1.5000000000000005e-01 -1.0953937735454628e-16 7.0725779807298636e-17  1.5000000000000011e-01 -2.8028404103465097e-17 3.5578916755271827e-17  1.5000000000000002e-01 1.6172131087385113e-16 -8.7209475652629803e-17  1.5000000000000005e-01 -2.0078494811894093e-16 1.2690896187575269e-16  1.5000000000000008e-01 6.3149709252525848e-16 -4.2539893623763048e-16  1.4999999999999997e-01 -4.1094791260781947e-16 4.2305167190251639e-16  1.5000000000000008e-01 7.3431575492919408e-17 8.8869988336988710e-17  1.5000000000000005e-01 -2.9567478766592940e-16 1.4374979547815621e-16  1.5000000000000005e-01 3.8718718892708642e-17 2.9008463240448130e-16  1.5000000000000013e-01 3.8654948734110230e-18 1.1264250191796990e-16  1.4999999999999999e-01 3.6646462765651626e-16 -7.0522765594011429e-17  1.4999999999999994e-01 -9.0542932795347701e-17 1.9142072562449513e-16  1.5000000000000005e-01 -3.0306778191861525e-16 1.0594448445472583e-16  1.5000000000000008e-01 7.5580718493405629e-17 -2.8195351118189432e-16  1.5000000000000005e-01 8.1591105530175969e-17 4.1807975068288733e-17  1.5000000000000005e-01 -4.3835606820670043e-17 3.1094666236235818e-16  1.4999999999999999e-01 -6.4489386815786235e-19 1.4342917203123000e-16  1.5000000000000016e-01 -2.2198549571386043e-16 1.2605000026348255e-16  1.5000000000000005e-01 1.8796875727417743e-16 -3.9756393799991983e-17  1.5000000000000008e-01 3.2852843075099642e-17 1.1145865079337670e-16  1.4999999999999999e-01 2.8469210936882732e-16 -1.0054158183424063e-16  1.4999999999999997e-01 -2.1679020761993738e-16 3.8663838662417788e-16  1.5000000000000002e-01 1.0190032937108103e-17 2.4017306987309447e-16  1.5000000000000008e-01 -2.7197885880482228e-16 5.3385209834444267e-17  1.5000000000000011e-01 1.9495745458950733e-16 -2.3217184860219290e-16  1.5000000000000002e-01 1.1906839625502162e-16 2.1938505253504535e-16  1.4999999999999997e-01 5.6450280561541412e-17 3.1201778888874648e-16  1.5000000000000005e-01 -1.3168637548138293e-16 -3.4471943443369486e-17  1.4999999999999999e-01 0.0000000000000000e+00 6.7551220223504618e-17  1.4999999999999999e-01 0.0000000000000000e+00 -3.5333340895249000e-17  1.4999999999999991e-01 3.7785130738476724e-17 2.5561336366377574e-16  1.5000000000000011e-01 -3.7036961537058428e-16 1.6087532703324638e-16  1.5000000000000005e-01 9.0740014752229704e-17 7.9855732036212323e-18  1.5000000000000011e-01 -1.1219524476023758e-16 -1.1817400514117497e-16  1.5000000000000005e-01 2.7461253140618324e-16 2.6310146113866962e-17  1.5000000000000011e-01 -3.3761789297411890e-16 5.0381751010886806e-16  1.5000000000000005e-01 2.7943878830968726e-16 -2.2049010921564124e-16  1.5000000000000005e-01 1.5062979050419777e-16 -2.0423264352716828e-16  1.4999999999999994e-01 -1.2248267870332942e-16 -3.2051353829496701e-17  1.5000000000000002e-01 1.1297663386158426e-16 -1.1797613935554925e-16  1.5000000000000002e-01 -2.1520572548668372e-16 4.9826091343289768e-17  1.5000000000000008e-01 -2.5937000394440305e-16 8.6707681211540843e-17  1.5000000000000013e-01 2.8760006208826506e-16 -2.8046607034825819e-16  1.5000000000000005e-01 -1.7982050055153426e-16 1.8775628928204713e-16  1.5000000000000011e-01 8.4987854476847692e-17 2.2852312938080173e-17  1.5000000000000008e-01 8.9680940404808264e-18 1.7881327552027506e-16  1.5000000000000005e-01 1.9178008491537947e-16 7.4086966060260081e-20  1.4999999999999997e-01 -5.9922791915906380e-17 -7.3766490662811303e-17  1.5000000000000011e-01 -8.9173962447231434e-17 1.0676084653178747e-16  1.5000000000000005e-01 2.0503132057306855e-18 6.0270251905568688e-17  1.4999999999999999e-01 8.0064958147317475e-17 3.4549906430993610e-16  1.5000000000000013e-01 -1.5277973215109322e-16 2.8112169606326421e-16  1.4999999999999999e-01 1.9081072153282895e-16 -3.0173338960132824e-16  1.5000000000000008e-01 -1.8893369992614982e-16 2.1679518479749637e-16  1.5000000000000008e-01 4.6378415887976455e-17 4.9484108977112714e-17  1.5000000000000005e-01 -8.7129548219304370e-17 1.1670791757709977e-16  1.5000000000000013e-01 1.4904185086986769e-16 1.2233907870289053e-16  1.4999999999999999e-01 1.6175400533015799e-16 -7.8104312615471884e-17  1.5000000000000002e-01 7.0873256411101407e-17 -2.3520256030302000e-16  1.5000000000000011e-01 -3.5874940679954533e-16 1.0484854391638818e-16  1.5000000000000002e-01 1.6280719438659117e-16 1.4496640945373275e-16  1.5000000000000005e-01 6.6237750800503842e-17 -7.3365073761121937e-17  1.4999999999999999e-01 -5.2718773799176229e-17 -6.9215891447649134e-18  1.5000000000000005e-01 -1.6608594486933692e-16 3.5626060376344395e-16  1.5000000000000011e-01 4.8711313716152768e-17 6.7754455669140222e-17  1.5000000000000008e-01 4.7104916703352544e-17 5.4499929571927660e-17  1.4999999999999997e-01 2.8582329187432895e-16 2.6523733173946722e-16  1.4999999999999999e-01 -1.9121361897949418e-16 2.2505422235324235e-16  1.5000000000000005e-01 -9.7400345143943230e-17 -2.0991258854720575e-17  1.5000000000000005e-01 1.0653406971468319e-16 -1.2050348168823905e-16  1.4999999999999999e-01 -3.6977878451938723e-17 -4.9684135004635293e-17  1.5000000000000005e-01 -4.5287243816724137e-17 9.1392006531043864e-17  1.5000000000000005e-01 7.7938222413650721e-17 -6.0014340663897765e-17  1.5000000000000002e-01 -1.9505501273737586e-16 7.8323078545073273e-17  1.5000000000000008e-01 1.7744619411254324e-16 -1.0585705998485346e-16  1.5000000000000008e-01 -2.5776137275913422e-16 1.1198418653289216e-16  1.5000000000000005e-01 2.2776746586776885e-16 -1.7590946488186924e-16  1.5000000000000005e-01 2.5047385474451335e-16 -2.5384113621227740e-16  1.4999999999999991e-01 -2.0657776114211504e-16 6.5463317716750900e-17  1.5000000000000005e-01 -3.5289815033745410e-17 -5.4589894608883377e-18  1.5000000000000008e-01 -1.3088839057245162e-16 -4.9776757728637285e-17  1.5000000000000005e-01 2.4815236331681727e-16 -3.1062339600454587e-16  1.4999999999999997e-01 -1.2672353712727676e-17 3.4002392929028263e-16  1.5000000000000005e-01 -1.2038949881096077e-16 2.4478985248128073e-16  1.5000000000000005e-01 -1.3179293397757119e-16 -1.2734892038709613e-16  1.5000000000000008e-01 2.5240764841003618e-16 -1.0212188874732072e-17  1.4999999999999997e-01 -1.4758633106213903e-16 -1.1069276545708362e-16  1.5000000000000011e-01 -7.3695440879241700e-17 -1.7840792554849297e-16  1.5000000000000002e-01 1.4695434793931443e-16 -1.2240705526654270e-16  1.5000000000000005e-01 -5.6246801944488919e-17 -1.3018102640876347e-16  1.4999999999999999e-01 1.4817632694754135e-16 2.5163882058295623e-16  1.5000000000000005e-01 -2.4628173083759941e-16 4.1490444912663009e-16  1.5000000000000005e-01 1.6890550183235858e-16 -2.5024055391409273e-16  1.5000000000000002e-01 -4.6559863263206285e-17 4.1070548540606654e-17  1.5000000000000002e-01 3.4817794484433374e-17 1.0954749994431297e-16  1.5000000000000005e-01 -1.6203545447347806e-16 1.2328918334334704e-16  1.5000000000000005e-01 1.4704441556965624e-16 -1.0962140401005134e-16  1.5000000000000005e-01 1.5114910949926106e-16 -2.0838231650924876e-16  1.4999999999999997e-01 -1.1112484823014220e-16 2.1333720021438675e-16  1.5000000000000011e-01 -2.0443371735313939e-16 2.0680097183117981e-16  1.5000000000000005e-01 6.9060624071639292e-17 -2.9488940322758382e-16  1.5000000000000005e-01 1.0348681977474137e-16 -2.0675259871727574e-16  1.5000000000000002e-01 -8.5236373652763617e-17 1.1867902463732841e-16  1.5000000000000005e-01 4.1869405073945596e-17 2.3882785255332742e-18  1.5000000000000005e-01 1.4725193939526138e-17 -7.0828002068288411e-17  1.4999999999999994e-01 -1.8238611677483799e-16 1.8697342667879684e-16  1.5000000000000005e-01 2.9545710364136212e-16 -2.4268660784620879e-16  1.5000000000000011e-01 -3.1125566737306138e-16 -3.2409126418723299e-1