<?xml version="1.0"?>
<VTKFile type="UnstructuredGrid"  version="0.1"  >
<UnstructuredGrid>
<Piece  NumberOfPoints="10201" NumberOfCells="20000">
<Points>
<DataArray  type="Float64"  NumberOfComponents="3"  format="ascii">-5 -5 0  -4.9 -5 0  -4.8 -5 0  -4.7 -5 0  -4.6 -5 0  -4.5 -5 0  -4.4 -5 0  -4.3 -5 0  -4.2 -5 0  -4.1 -5 0  -4 -5 0  -3.9 -5 0  -3.8 -5 0  -3.7 -5 0  -3.6 -5 0  -3.5 -5 0  -3.4 -5 0  -3.3 -5 0  -3.2 -5 0  -3.1 -5 0  -3 -5 0  -2.9 -5 0  -2.8 -5 0  -2.7 -5 0  -2.6 -5 0  -2.5 -5 0  -2.4 -5 0  -2.3 -5 0  -2.2 -5 0  -2.1 -5 0  -2 -5 0  -1.9 -5 0  -1.8 -5 0  -1.7 -5 0  -1.6 -5 0  -1.5 -5 0  -1.4 -5 0  -1.3 -5 0  -1.2 -5 0  -1.1 -5 0  -1 -5 0  -0.9000000000000004 -5 0  -0.7999999999999998 -5 0  -0.7000000000000002 -5 0  -0.5999999999999996 -5 0  -0.5 -5 0  -0.4000000000000004 -5 0  -0.2999999999999998 -5 0  -0.2000000000000002 -5 0  -0.09999999999999964 -5 0  0 -5 0  0.09999999999999964 -5 0  0.2000000000000002 -5 0  0.2999999999999998 -5 0  0.4000000000000004 -5 0  0.5 -5 0  0.5999999999999996 -5 0  0.7000000000000002 -5 0  0.7999999999999998 -5 0  0.9000000000000004 -5 0  1 -5 0  1.1 -5 0  1.2 -5 0  1.3 -5 0  1.4 -5 0  1.5 -5 0  1.6 -5 0  1.7 -5 0  1.8 -5 0  1.9 -5 0  2 -5 0  2.1 -5 0  2.2 -5 0  2.3 -5 0  2.4 -5 0  2.5 -5 0  2.6 -5 0  2.7 -5 0  2.8 -5 0  2.9 -5 0  3 -5 0  3.1 -5 0  3.199999999999999 -5 0  3.300000000000001 -5 0  3.4 -5 0  3.5 -5 0  3.6 -5 0  3.699999999999999 -5 0  3.800000000000001 -5 0  3.9 -5 0  4 -5 0  4.1 -5 0  4.199999999999999 -5 0  4.300000000000001 -5 0  4.4 -5 0  4.5 -5 0  4.6 -5 0  4.699999999999999 -5 0  4.800000000000001 -5 0  4.9 -5 0  5 -5 0  -5 -4.9 0  -4.9 -4.9 0  -4.8 -4.9 0  -4.7 -4.9 0  -4.6 -4.9 0  -4.5 -4.9 0  -4.4 -4.9 0  -4.3 -4.9 0  -4.2 -4.9 0  -4.1 -4.9 0  -4 -4.9 0  -3.9 -4.9 0  -3.8 -4.9 0  -3.7 -4.9 0  -3.6 -4.9 0  -3.5 -4.9 0  -3.4 -4.9 0  -3.3 -4.9 0  -3.2 -4.9 0  -3.1 -4.9 0  -3 -4.9 0  -2.9 -4.9 0  -2.8 -4.9 0  -2.7 -4.9 0  -2.6 -4.9 0  -2.5 -4.9 0  -2.4 -4.9 0  -2.3 -4.9 0  -2.2 -4.9 0  -2.1 -4.9 0  -2 -4.9 0  -1.9 -4.9 0  -1.8 -4.9 0  -1.7 -4.9 0  -1.6 -4.9 0  -1.5 -4.9 0  -1.4 -4.9 0  -1.3 -4.9 0  -1.2 -4.9 0  -1.1 -4.9 0  -1 -4.9 0  -0.9000000000000004 -4.9 0  -0.7999999999999998 -4.9 0  -0.7000000000000002 -4.9 0  -0.5999999999999996 -4.9 0  -0.5 -4.9 0  -0.4000000000000004 -4.9 0  -0.2999999999999998 -4.9 0  -0.2000000000000002 -4.9 0  -0.09999999999999964 -4.9 0  0 -4.9 0  0.09999999999999964 -4.9 0  0.2000000000000002 -4.9 0  0.2999999999999998 -4.9 0  0.4000000000000004 -4.9 0  0.5 -4.9 0  0.5999999999999996 -4.9 0  0.7000000000000002 -4.9 0  0.7999999999999998 -4.9 0  0.9000000000000004 -4.9 0  1 -4.9 0  1.1 -4.9 0  1.2 -4.9 0  1.3 -4.9 0  1.4 -4.9 0  1.5 -4.9 0  1.6 -4.9 0  1.7 -4.9 0  1.8 -4.9 0  1.9 -4.9 0  2 -4.9 0  2.1 -4.9 0  2.2 -4.9 0  2.3 -4.9 0  2.4 -4.9 0  2.5 -4.9 0  2.6 -4.9 0  2.7 -4.9 0  2.8 -4.9 0  2.9 -4.9 0  3 -4.9 0  3.1 -4.9 0  3.199999999999999 -4.9 0  3.300000000000001 -4.9 0  3.4 -4.9 0  3.5 -4.9 0  3.6 -4.9 0  3.699999999999999 -4.9 0  3.800000000000001 -4.9 0  3.9 -4.9 0  4 -4.9 0  4.1 -4.9 0  4.199999999999999 -4.9 0  4.300000000000001 -4.9 0  4.4 -4.9 0  4.5 -4.9 0  4.6 -4.9 0  4.699999999999999 -4.9 0  4.800000000000001 -4.9 0  4.9 -4.9 0  5 -4.9 0  -5 -4.8 0  -4.9 -4.8 0  -4.8 -4.8 0  -4.7 -4.8 0  -4.6 -4.8 0  -4.5 -4.8 0  -4.4 -4.8 0  -4.3 -4.8 0  -4.2 -4.8 0  -4.1 -4.8 0  -4 -4.8 0  -3.9 -4.8 0  -3.8 -4.8 0  -3.7 -4.8 0  -3.6 -4.8 0  -3.5 -4.8 0  -3.4 -4.8 0  -3.3 -4.8 0  -3.2 -4.8 0  -3.1 -4.8 0  -3 -4.8 0  -2.9 -4.8 0  -2.8 -4.8 0  -2.7 -4.8 0  -2.6 -4.8 0  -2.5 -4.8 0  -2.4 -4.8 0  -2.3 -4.8 0  -2.2 -4.8 0  -2.1 -4.8 0  -2 -4.8 0  -1.9 -4.8 0  -1.8 -4.8 0  -1.7 -4.8 0  -1.6 -4.8 0  -1.5 -4.8 0  -1.4 -4.8 0  -1.3 -4.8 0  -1.2 -4.8 0  -1.1 -4.8 0  -1 -4.8 0  -0.9000000000000004 -4.8 0  -0.7999999999999998 -4.8 0  -0.7000000000000002 -4.8 0  -0.5999999999999996 -4.8 0  -0.5 -4.8 0  -0.4000000000000004 -4.8 0  -0.2999999999999998 -4.8 0  -0.2000000000000002 -4.8 0  -0.09999999999999964 -4.8 0  0 -4.8 0  0.09999999999999964 -4.8 0  0.2000000000000002 -4.8 0  0.2999999999999998 -4.8 0  0.4000000000000004 -4.8 0  0.5 -4.8 0  0.5999999999999996 -4.8 0  0.7000000000000002 -4.8 0  0.7999999999999998 -4.8 0  0.9000000000000004 -4.8 0  1 -4.8 0  1.1 -4.8 0  1.2 -4.8 0  1.3 -4.8 0  1.4 -4.8 0  1.5 -4.8 0  1.6 -4.8 0  1.7 -4.8 0  1.8 -4.8 0  1.9 -4.8 0  2 -4.8 0  2.1 -4.8 0  2.2 -4.8 0  2.3 -4.8 0  2.4 -4.8 0  2.5 -4.8 0  2.6 -4.8 0  2.7 -4.8 0  2.8 -4.8 0  2.9 -4.8 0  3 -4.8 0  3.1 -4.8 0  3.199999999999999 -4.8 0  3.300000000000001 -4.8 0  3.4 -4.8 0  3.5 -4.8 0  3.6 -4.8 0  3.699999999999999 -4.8 0  3.800000000000001 -4.8 0  3.9 -4.8 0  4 -4.8 0  4.1 -4.8 0  4.199999999999999 -4.8 0  4.300000000000001 -4.8 0  4.4 -4.8 0  4.5 -4.8 0  4.6 -4.8 0  4.699999999999999 -4.8 0  4.800000000000001 -4.8 0  4.9 -4.8 0  5 -4.8 0  -5 -4.7 0  -4.9 -4.7 0  -4.8 -4.7 0  -4.7 -4.7 0  -4.6 -4.7 0  -4.5 -4.7 0  -4.4 -4.7 0  -4.3 -4.7 0  -4.2 -4.7 0  -4.1 -4.7 0  -4 -4.7 0  -3.9 -4.7 0  -3.8 -4.7 0  -3.7 -4.7 0  -3.6 -4.7 0  -3.5 -4.7 0  -3.4 -4.7 0  -3.3 -4.7 0  -3.2 -4.7 0  -3.1 -4.7 0  -3 -4.7 0  -2.9 -4.7 0  -2.8 -4.7 0  -2.7 -4.7 0  -2.6 -4.7 0  -2.5 -4.7 0  -2.4 -4.7 0  -2.3 -4.7 0  -2.2 -4.7 0  -2.1 -4.7 0  -2 -4.7 0  -1.9 -4.7 0  -1.8 -4.7 0  -1.7 -4.7 0  -1.6 -4.7 0  -1.5 -4.7 0  -1.4 -4.7 0  -1.3 -4.7 0  -1.2 -4.7 0  -1.1 -4.7 0  -1 -4.7 0  -0.9000000000000004 -4.7 0  -0.7999999999999998 -4.7 0  -0.7000000000000002 -4.7 0  -0.5999999999999996 -4.7 0  -0.5 -4.7 0  -0.4000000000000004 -4.7 0  -0.2999999999999998 -4.7 0  -0.2000000000000002 -4.7 0  -0.09999999999999964 -4.7 0  0 -4.7 0  0.09999999999999964 -4.7 0  0.2000000000000002 -4.7 0  0.2999999999999998 -4.7 0  0.4000000000000004 -4.7 0  0.5 -4.7 0  0.5999999999999996 -4.7 0  0.7000000000000002 -4.7 0  0.7999999999999998 -4.7 0  0.9000000000000004 -4.7 0  1 -4.7 0  1.1 -4.7 0  1.2 -4.7 0  1.3 -4.7 0  1.4 -4.7 0  1.5 -4.7 0  1.6 -4.7 0  1.7 -4.7 0  1.8 -4.7 0  1.9 -4.7 0  2 -4.7 0  2.1 -4.7 0  2.2 -4.7 0  2.3 -4.7 0  2.4 -4.7 0  2.5 -4.7 0  2.6 -4.7 0  2.7 -4.7 0  2.8 -4.7 0  2.9 -4.7 0  3 -4.7 0  3.1 -4.7 0  3.199999999999999 -4.7 0  3.300000000000001 -4.7 0  3.4 -4.7 0  3.5 -4.7 0  3.6 -4.7 0  3.699999999999999 -4.7 0  3.800000000000001 -4.7 0  3.9 -4.7 0  4 -4.7 0  4.1 -4.7 0  4.199999999999999 -4.7 0  4.300000000000001 -4.7 0  4.4 -4.7 0  4.5 -4.7 0  4.6 -4.7 0  4.699999999999999 -4.7 0  4.800000000000001 -4.7 0  4.9 -4.7 0  5 -4.7 0  -5 -4.6 0  -4.9 -4.6 0  -4.8 -4.6 0  -4.7 -4.6 0  -4.6 -4.6 0  -4.5 -4.6 0  -4.4 -4.6 0  -4.3 -4.6 0  -4.2 -4.6 0  -4.1 -4.6 0  -4 -4.6 0  -3.9 -4.6 0  -3.8 -4.6 0  -3.7 -4.6 0  -3.6 -4.6 0  -3.5 -4.6 0  -3.4 -4.6 0  -3.3 -4.6 0  -3.2 -4.6 0  -3.1 -4.6 0  -3 -4.6 0  -2.9 -4.6 0  -2.8 -4.6 0  -2.7 -4.6 0  -2.6 -4.6 0  -2.5 -4.6 0  -2.4 -4.6 0  -2.3 -4.6 0  -2.2 -4.6 0  -2.1 -4.6 0  -2 -4.6 0  -1.9 -4.6 0  -1.8 -4.6 0  -1.7 -4.6 0  -1.6 -4.6 0  -1.5 -4.6 0  -1.4 -4.6 0  -1.3 -4.6 0  -1.2 -4.6 0  -1.1 -4.6 0  -1 -4.6 0  -0.9000000000000004 -4.6 0  -0.7999999999999998 -4.6 0  -0.7000000000000002 -4.6 0  -0.5999999999999996 -4.6 0  -0.5 -4.6 0  -0.4000000000000004 -4.6 0  -0.2999999999999998 -4.6 0  -0.2000000000000002 -4.6 0  -0.09999999999999964 -4.6 0  0 -4.6 0  0.09999999999999964 -4.6 0  0.2000000000000002 -4.6 0  0.2999999999999998 -4.6 0  0.4000000000000004 -4.6 0  0.5 -4.6 0  0.5999999999999996 -4.6 0  0.7000000000000002 -4.6 0  0.7999999999999998 -4.6 0  0.9000000000000004 -4.6 0  1 -4.6 0  1.1 -4.6 0  1.2 -4.6 0  1.3 -4.6 0  1.4 -4.6 0  1.5 -4.6 0  1.6 -4.6 0  1.7 -4.6 0  1.8 -4.6 0  1.9 -4.6 0  2 -4.6 0  2.1 -4.6 0  2.2 -4.6 0  2.3 -4.6 0  2.4 -4.6 0  2.5 -4.6 0  2.6 -4.6 0  2.7 -4.6 0  2.8 -4.6 0  2.9 -4.6 0  3 -4.6 0  3.1 -4.6 0  3.199999999999999 -4.6 0  3.300000000000001 -4.6 0  3.4 -4.6 0  3.5 -4.6 0  3.6 -4.6 0  3.699999999999999 -4.6 0  3.800000000000001 -4.6 0  3.9 -4.6 0  4 -4.6 0  4.1 -4.6 0  4.199999999999999 -4.6 0  4.300000000000001 -4.6 0  4.4 -4.6 0  4.5 -4.6 0  4.6 -4.6 0  4.699999999999999 -4.6 0  4.800000000000001 -4.6 0  4.9 -4.6 0  5 -4.6 0  -5 -4.5 0  -4.9 -4.5 0  -4.8 -4.5 0  -4.7 -4.5 0  -4.6 -4.5 0  -4.5 -4.5 0  -4.4 -4.5 0  -4.3 -4.5 0  -4.2 -4.5 0  -4.1 -4.5 0  -4 -4.5 0  -3.9 -4.5 0  -3.8 -4.5 0  -3.7 -4.5 0  -3.6 -4.5 0  -3.5 -4.5 0  -3.4 -4.5 0  -3.3 -4.5 0  -3.2 -4.5 0  -3.1 -4.5 0  -3 -4.5 0  -2.9 -4.5 0  -2.8 -4.5 0  -2.7 -4.5 0  -2.6 -4.5 0  -2.5 -4.5 0  -2.4 -4.5 0  -2.3 -4.5 0  -2.2 -4.5 0  -2.1 -4.5 0  -2 -4.5 0  -1.9 -4.5 0  -1.8 -4.5 0  -1.7 -4.5 0  -1.6 -4.5 0  -1.5 -4.5 0  -1.4 -4.5 0  -1.3 -4.5 0  -1.2 -4.5 0  -1.1 -4.5 0  -1 -4.5 0  -0.9000000000000004 -4.5 0  -0.7999999999999998 -4.5 0  -0.7000000000000002 -4.5 0  -0.5999999999999996 -4.5 0  -0.5 -4.5 0  -0.4000000000000004 -4.5 0  -0.2999999999999998 -4.5 0  -0.2000000000000002 -4.5 0  -0.09999999999999964 -4.5 0  0 -4.5 0  0.09999999999999964 -4.5 0  0.2000000000000002 -4.5 0  0.2999999999999998 -4.5 0  0.4000000000000004 -4.5 0  0.5 -4.5 0  0.5999999999999996 -4.5 0  0.7000000000000002 -4.5 0  0.7999999999999998 -4.5 0  0.9000000000000004 -4.5 0  1 -4.5 0  1.1 -4.5 0  1.2 -4.5 0  1.3 -4.5 0  1.4 -4.5 0  1.5 -4.5 0  1.6 -4.5 0  1.7 -4.5 0  1.8 -4.5 0  1.9 -4.5 0  2 -4.5 0  2.1 -4.5 0  2.2 -4.5 0  2.3 -4.5 0  2.4 -4.5 0  2.5 -4.5 0  2.6 -4.5 0  2.7 -4.5 0  2.8 -4.5 0  2.9 -4.5 0  3 -4.5 0  3.1 -4.5 0  3.199999999999999 -4.5 0  3.300000000000001 -4.5 0  3.4 -4.5 0  3.5 -4.5 0  3.6 -4.5 0  3.699999999999999 -4.5 0  3.800000000000001 -4.5 0  3.9 -4.5 0  4 -4.5 0  4.1 -4.5 0  4.199999999999999 -4.5 0  4.300000000000001 -4.5 0  4.4 -4.5 0  4.5 -4.5 0  4.6 -4.5 0  4.699999999999999 -4.5 0  4.800000000000001 -4.5 0  4.9 -4.5 0  5 -4.5 0  -5 -4.4 0  -4.9 -4.4 0  -4.8 -4.4 0  -4.7 -4.4 0  -4.6 -4.4 0  -4.5 -4.4 0  -4.4 -4.4 0  -4.3 -4.4 0  -4.2 -4.4 0  -4.1 -4.4 0  -4 -4.4 0  -3.9 -4.4 0  -3.8 -4.4 0  -3.7 -4.4 0  -3.6 -4.4 0  -3.5 -4.4 0  -3.4 -4.4 0  -3.3 -4.4 0  -3.2 -4.4 0  -3.1 -4.4 0  -3 -4.4 0  -2.9 -4.4 0  -2.8 -4.4 0  -2.7 -4.4 0  -2.6 -4.4 0  -2.5 -4.4 0  -2.4 -4.4 0  -2.3 -4.4 0  -2.2 -4.4 0  -2.1 -4.4 0  -2 -4.4 0  -1.9 -4.4 0  -1.8 -4.
[...]
<PointData  Vectors="f_17"> 
<DataArray  type="Float64"  Name="f_17"  NumberOfComponents="3" format="ascii">1.5000884670622591e-01 0.0000000000000000e+00 0.0000000000000000e+00  1.5000065051047912e-01 -1.7656437264509982e-05 0.0000000000000000e+00  1.5001360791512178e-01 -6.2819524020552817e-07 0.0000000000000000e+00  1.5001087653568021e-01 -3.0278696003359669e-05 0.0000000000000000e+00  1.5002542758633156e-01 -1.0099416268342851e-05 0.0000000000000000e+00  1.5002486490545827e-01 -3.7862224470913087e-05 0.0000000000000000e+00  1.5003725974195528e-01 -8.0310438211591985e-06 0.0000000000000000e+00  1.5003052388241178e-01 -1.6984066771000033e-05 0.0000000000000000e+00  1.5003013485998304e-01 3.4328869414132424e-05 0.0000000000000000e+00  1.5000909635847637e-01 5.2750250939525095e-05 0.0000000000000000e+00  1.4999398658670346e-01 1.0952160395514796e-04 0.0000000000000000e+00  1.4997095455674375e-01 1.1621154988550969e-04 0.0000000000000000e+00  1.4996849115790084e-01 1.2248286518366214e-04 0.0000000000000000e+00  1.4997447367942465e-01 6.6358474426645529e-05 0.0000000000000000e+00  1.5000058891004803e-01 9.9671189139287252e-06 0.0000000000000000e+00  1.5002355335565187e-01 -5.2270733436081982e-05 0.0000000000000000e+00  1.5003517603930067e-01 -6.6350491185385293e-05 0.0000000000000000e+00  1.5001951726295212e-01 -5.5373367608931238e-05 0.0000000000000000e+00  1.4999299092950252e-01 -1.7224637048027794e-05 0.0000000000000000e+00  1.4996598396808442e-01 5.5087195844840973e-06 0.0000000000000000e+00  1.4995021771639630e-01 7.3027323688426979e-06 0.0000000000000000e+00  1.4994638194062732e-01 -5.0920365545150138e-06 0.0000000000000000e+00  1.4995085881693324e-01 -1.4562687796562114e-05 0.0000000000000000e+00  1.4995270852167286e-01 -3.4350324925290133e-05 0.0000000000000000e+00  1.4995431237752202e-01 -4.5247580374468654e-05 0.0000000000000000e+00  1.4995649914601039e-01 -1.8196648234666130e-05 0.0000000000000000e+00  1.4995411838130332e-01 1.0571757159233820e-05 0.0000000000000000e+00  1.4996162649955244e-01 -2.0444826053912799e-05 0.0000000000000000e+00  1.4999345194472327e-01 -6.5202452098084667e-05 0.0000000000000000e+00  1.5001206422242400e-01 -3.6352202919145225e-05 0.0000000000000000e+00  1.4999002238916806e-01 2.7870084356905320e-05 0.0000000000000000e+00  1.4998002319498646e-01 2.1852024258809466e-05 0.0000000000000000e+00  1.5001287216950718e-01 -3.7459258049746829e-05 0.0000000000000000e+00  1.5002525686972309e-01 -3.8329999283935132e-05 0.0000000000000000e+00  1.4999099081947168e-01 3.1921238912212809e-05 0.0000000000000000e+00  1.4997657476604662e-01 5.7308957419541306e-05 0.0000000000000000e+00  1.5000464020467350e-01 -1.5644281730121299e-05 0.0000000000000000e+00  1.5002131978355437e-01 -6.9507025391759723e-05 0.0000000000000000e+00  1.5000629239573834e-01 -2.4608713532328944e-06 0.0000000000000000e+00  1.4998757108836658e-01 7.5635601181161415e-05 0.0000000000000000e+00  1.4998523724990839e-01 2.2465590013495640e-05 0.0000000000000000e+00  1.5000321508445366e-01 -6.8039314220348299e-05 0.0000000000000000e+00  1.5002086401321163e-01 -3.3634180450064678e-05 0.0000000000000000e+00  1.5000481379192432e-01 5.3618353670077647e-05 0.0000000000000000e+00  1.4997626238490658e-01 3.6745855047015851e-05 0.0000000000000000e+00  1.4999078860622797e-01 -3.7452725309349453e-05 0.0000000000000000e+00  1.5002567832690977e-01 -3.5399325250248593e-05 0.0000000000000000e+00  1.5001038610933037e-01 2.3950366877427441e-05 0.0000000000000000e+00  1.4997267091639679e-01 3.4070668283217709e-05 0.0000000000000000e+00  1.4999173220574444e-01 -1.5245275621921678e-05 0.0000000000000000e+00  1.5002838247004735e-01 -3.3768200080297524e-05 0.0000000000000000e+00  1.5000300297309829e-01 1.2699079221008586e-05 0.0000000000000000e+00  1.4997248404153043e-01 3.2916381631541189e-05 0.0000000000000000e+00  1.5000435417316860e-01 -1.5786080938864885e-05 0.0000000000000000e+00  1.5002332419618580e-01 -2.8772350447760680e-05 0.0000000000000000e+00  1.4998856029732854e-01 2.1550321125715776e-05 0.0000000000000000e+00  1.4998445161772814e-01 1.9796349018971661e-05 0.0000000000000000e+00  1.5001545104811154e-01 -2.5500018356196191e-05 0.0000000000000000e+00  1.5000593003121518e-01 -7.3076317810305111e-06 0.0000000000000000e+00  1.4998533108368794e-01 2.4031536785339411e-05 0.0000000000000000e+00  1.5000244657276388e-01 -4.7320080670187841e-06 0.0000000000000000e+00  1.5000967313485525e-01 -1.6573422774784306e-05 0.0000000000000000e+00  1.4999313869160277e-01 1.1909756212977526e-05 0.0000000000000000e+00  1.4999686803394058e-01 6.0886882599940335e-06 0.0000000000000000e+00  1.5000659644562192e-01 -1.2031267887268580e-05 0.0000000000000000e+00  1.4999826010631589e-01 2.4563608467016465e-06 0.0000000000000000e+00  1.4999654088662823e-01 7.1947118124424188e-06 0.0000000000000000e+00  1.5000343857157475e-01 -6.3953479686120642e-06 0.0000000000000000e+00  1.4999996191784490e-01 -5.9242445995242601e-07 0.0000000000000000e+00  1.4999783155589766e-01 4.4837124968420197e-06 0.0000000000000000e+00  1.5000147135973785e-01 -2.3764448955353665e-06 0.0000000000000000e+00  1.5000043977628660e-01 -1.6958091712556066e-06 0.0000000000000000e+00  1.4999859735142271e-01 3.2836920457218362e-06 0.0000000000000000e+00  1.5000093551291335e-01 -1.8657614767183075e-06 0.0000000000000000e+00  1.5000001814508354e-01 -1.9500136847888458e-07 0.0000000000000000e+00  1.4999952483125900e-01 8.6487919314790443e-07 0.0000000000000000e+00  1.5000024220913891e-01 -4.9604444796661540e-08 0.0000000000000000e+00  1.5000025170801598e-01 -1.0928243650630323e-06 0.0000000000000000e+00  1.4999945826459840e-01 1.5761833647821839e-06 0.0000000000000000e+00  1.5000049303577212e-01 -1.2889250800406288e-06 0.0000000000000000e+00  1.4999972996620684e-01 7.4446122280652124e-07 0.0000000000000000e+00  1.5000010391473576e-01 -4.7204783430644749e-07 0.0000000000000000e+00  1.4999989299517269e-01 6.3727370566128480e-07 0.0000000000000000e+00  1.5000024052108279e-01 -1.0602587052527310e-06 0.0000000000000000e+00  1.4999960512125585e-01 1.4583290632395536e-06 0.0000000000000000e+00  1.5000048594297805e-01 -1.6651338169987579e-06 0.0000000000000000e+00  1.4999950073889581e-01 1.6937291226553716e-06 0.0000000000000000e+00  1.5000047353550602e-01 -1.6611591566712494e-06 0.0000000000000000e+00  1.4999954393493242e-01 1.6723196886325328e-06 0.0000000000000000e+00  1.5000046821057469e-01 -1.7501575425079652e-06 0.0000000000000000e+00  1.4999950072088844e-01 1.8412352343640236e-06 0.0000000000000000e+00  1.5000052143359832e-01 -1.8657893956756421e-06 0.0000000000000000e+00  1.4999948650745529e-01 1.7763202853469373e-06 0.0000000000000000e+00  1.5000046486188429e-01 -1.5658716021728606e-06 0.0000000000000000e+00  1.4999960437325680e-01 1.2922534001424778e-06 0.0000000000000000e+00  1.5000030033220876e-01 -9.7835793927714348e-07 0.0000000000000000e+00  1.4999975865879248e-01 7.2419884232675643e-07 0.0000000000000000e+00  1.5000014556816693e-01 -4.6673420116242015e-07 0.0000000000000000e+00  1.4999984779404954e-01 3.1478291227840230e-07 0.0000000000000000e+00  1.5000005976244268e-01 -1.4400470418435239e-07 0.0000000000000000e+00  1.4999985230701463e-01 0.0000000000000000e+00 0.0000000000000000e+00  1.5000065051047881e-01 0.0000000000000000e+00 -1.7656437264494132e-05  1.4999228381332574e-01 9.7106785964078560e-07 9.7106785972216683e-07  1.4999502028607212e-01 1.8246974031265767e-05 -1.7783363668693845e-05  1.4998410760042030e-01 7.0288449110334979e-06 -1.3963436772579274e-05  1.4998386903077418e-01 3.1016907751969603e-05 -3.2097629793196009e-05  1.4997035242822149e-01 1.5962094753334479e-05 -3.0541077938120311e-05  1.4997033655255937e-01 3.3588164313624607e-05 -4.6854894570321210e-05  1.4996120989780276e-01 4.7616657821492797e-06 -3.7022923121991098e-05  1.4997068453034468e-01 4.1270221843294801e-07 -4.0841551883631802e-05  1.4997572777106513e-01 -5.1010839875109741e-05 -1.6857239343987498e-05  1.4999883147157420e-01 -7.4122969014839594e-05 -1.1615955400339959e-05  1.5001297754180015e-01 -1.1737865578047921e-04 6.7081018993626288e-06  1.5002891259163909e-01 -1.1179946563889636e-04 -1.0189951065059864e-05  1.5002264621509434e-01 -9.6167465206736932e-05 -2.7850336763922093e-05  1.5000980400418443e-01 -3.2997119880177104e-05 -6.7825357591456780e-05  1.4998393950417319e-01 1.6026480109268841e-05 -8.3286364972084769e-05  1.4997067641102466e-01 5.2935731168218304e-05 -8.1293922844098132e-05  1.4997408286492445e-01 4.7940327003363235e-05 -3.7810701765453364e-05  1.4999825655795712e-01 2.9399883960643680e-05 8.3359088548752572e-06  1.5002261453009308e-01 1.5392741788812280e-06 4.2865039946168766e-05  1.5004272551761969e-01 -3.5747768842812713e-06 4.8117431930288438e-05  1.5005174830462192e-01 3.6459917030905821e-06 4.4989010879435494e-05  1.5005220444288545e-01 1.1054286180417229e-05 4.0768373785993334e-05  1.5005022786590239e-01 1.9980289020343237e-05 4.6850599575397273e-05  1.5005082715949269e-01 3.9775034563708860e-05 5.3656754194706337e-05  1.5004736143121258e-01 3.5653053014728179e-05 5.5264867991383966e-05  1.5004491560420061e-01 4.9220822912809906e-06 5.3246572678179039e-05  1.5004396332283687e-01 6.8528946094392597e-06 4.1873646640969839e-05  1.5002455450567923e-01 4.9855915935022458e-05 7.0032152730233120e-06  1.4999478715505443e-01 5.2762916035793057e-05 -1.5881781139982639e-05  1.4999770610539501e-01 -6.6299567655798669e-07 1.0233562911611367e-05  1.5001889372893271e-01 -2.4634851229331327e-05 2.7849612265948499e-05  1.5000340447766772e-01 1.2282133447882583e-05 -1.5330930260300737e-05  1.4997582443620236e-01 3.6875995628538498e-05 -3.8622863263054428e-05  1.4999325370066141e-01 5.8777552613640858e-07 1.2755496319337653e-05  1.5002123970310330e-01 -4.4631133177310956e-05 4.0334008406295188e-05  1.5000744307571440e-01 -2.2186207747080132e-05 -7.5238072553212902e-06  1.4998349435403921e-01 4.4638463834780008e-05 -3.5862007051965636e-05  1.4998748201384701e-01 4.2481255081606765e-05 -4.9405121555952224e-06  1.5000375384211517e-01 -4.1266256142690047e-05 1.9110412103345835e-05  1.5001386119420626e-01 -6.0874671312495976e-05 1.5645715661319465e-05  1.5000825162427964e-01 2.9626130610142900e-05 1.6339066989157200e-06  1.4998555899424051e-01 6.6380977227636809e-05 -2.4669414841978224e-05  1.4998205630024011e-01 -1.8525226550580111e-05 -2.1391745809556591e-05  1.5001405770015816e-01 -6.1877441720224285e-05 3.1611525433476757e-05  1.5002293710705422e-01 1.0240676983620396e-05 3.3728273664781157e-05  1.4998503398740995e-01 5.1786833452849984e-05 -4.0283877065564483e-05  1.4997552742732767e-01 -5.0933593939059964e-06 -3.7666670422984904e-05  1.5001715908299787e-01 -4.1395707204632677e-05 5.0446570484318705e-05  1.5002295862759452e-01 1.5099850975843451e-06 3.2478899856223535e-05  1.4997980318973975e-01 3.3316505333749283e-05 -5.9144679910542223e-05  1.4998160813482797e-01 4.8302048787180248e-07 -1.8410979250570587e-05  1.5002291406973248e-01 -2.8328785122927741e-05 6.2132383274965931e-05  1.5001101073116166e-01 -3.8048899890087840e-08 -1.4463314736689948e-06  1.4997646785968990e-01 2.5339981501704743e-05 -5.5664041038758066e-05  1.4999794402417371e-01 -3.3070750473383628e-06 2.0974619117756698e-05  1.5002053320881084e-01 -2.2032615631215255e-05 3.9141719848131336e-05  1.4999390843828414e-01 8.4579270080298127e-06 -3.3204349455509258e-05  1.4998608778269343e-01 1.6441144363042144e-05 -1.6930178673756534e-05  1.5001079870059195e-01 -1.2885028188909699e-05 3.3643061434295940e-05  1.5000557795883640e-01 -8.4584864774086963e-06 -3.4213126131359832e-06  1.4998923721862409e-01 1.4007467318224456e-05 -2.3296594856569444e-05  1.5000150552545410e-01 2.4294690725577562e-08 1.4958151256553093e-05  1.5000684888909405e-01 -1.0633752475356423e-05 8.3412037421271702e-06  1.4999510012731310e-01 5.4828709655006118e-06 -1.5426477163088428e-05  1.4999811422242473e-01 4.9221948955363776e-06 3.5359475128074442e-06  1.5000455260463977e-01 -7.0497920037133311e-06 8.4200433694703031e-06  1.4999829919774563e-01 1.0646274937479176e-06 -7.9520840385241232e-06  1.4999817438656809e-01 3.9693984372253182e-06 -2.5006662798014095e-07  1.5000227619563825e-01 -3.0282684427381892e-06 5.4270100109509304e-06  1.4999969114745040e-01 -1.0196097232639981e-06 -3.6547424530261306e-06  1.4999862698123800e-01 3.1995349290868827e-06 -9.9122869214749346e-07  1.5000136373585393e-01 -2.1094445931365196e-06 3.3083752243106035e-06  1.4999969228529275e-01 -9.1249344009259489e-08 -2.1095866792403326e-06  1.4999950168865528e-01 1.0328968890707731e-06 -3.0367775334103064e-07  1.5000047391522262e-01 -3.2708123129778699e-07 1.4729870964258718e-06  1.5000005991871149e-01 -8.7157735302237232e-07 -8.8277878308042456e-07  1.4999949578144528e-01 1.4314140810939530e-06 -3.8394936390413304e-07  1.5000055816186661e-01 -1.1490550530655259e-06 1.1160371298654602e-06  1.4999967288644203e-01 5.5288321206220368e-07 -9.4841964548832709e-07  1.5000008774540374e-01 -2.2877012768149183e-07 3.1277075664808847e-07  1.4999997397895759e-01 3.7154893945734975e-07 1.7310395485240356e-07  1.5000014157159883e-01 -7.8870924612065184e-07 -2.1004840750861522e-07  1.4999968460615012e-01 1.1691695071130941e-06 -9.3279161050979048e-08  1.5000043123926016e-01 -1.3311857095803328e-06 4.4258161735719922e-07  1.4999954957570485e-01 1.2942439479053316e-06 -6.2064068243122957e-07  1.5000040883681612e-01 -1.1935974934614199e-06 6.0155932721679760e-07  1.4999963342320433e-01 1.1490251179628049e-06 -4.9875869405585386e-07  1.5000035972489517e-01 -1.1877078068031376e-06 4.4238940456723053e-07  1.4999961576441320e-01 1.2521117508569215e-06 -4.8958252600191321e-07  1.5000041102079553e-01 -1.2604484455370495e-06 6.1118018174060629e-07  1.4999958895335178e-01 1.1636905900860210e-06 -7.3341146771772376e-07  1.5000037450460765e-01 -9.7147595340953794e-07 7.9493421605995249e-07  1.4999969347459391e-01 7.2599906183173129e-07 -7.6619809196748551e-07  1.5000023331904958e-01 -4.9687706108565501e-07 6.7665404089756530e-07  1.4999984615604178e-01 2.9612716553141013e-07 -5.2747597126967528e-07  1.5000011593531884e-01 -1.8751960756289617e-07 4.2248004775465423e-07  1.4999995150538656e-01 8.3625685178370229e-08 -2.4914332965867751e-07  1.5000007125111894e-01 -8.0957259870494067e-08 2.4169515671379552e-07  1.5000001113865138e-01 5.0728854070093343e-08 -5.0728853942052084e-08  1.5000005976244307e-01 0.0000000000000000e+00 1.4400470332718877e-07  1.5001360791512175e-01 0.0000000000000000e+00 -6.2819524007088053e-07  1.4999502028607217e-01 -1.7783363669556955e-05 1.8246974031243731e-05  1.5001490803512710e-01 8.1589241482703084e-06 8.1589241475981369e-06  1.5000428738335239e-01 -3.6939018109319247e-05 3.8880704957380428e-05  1.5002583875506018e-01 2.2186528003450316e-06 3.2690365398277628e-05  1.5001823794632207e-01 -5.1951746787304207e-05 7.2115117641705618e-05  1.5004148443763746e-01 -3.8065545239378806e-06 6.4252726619384704e-05  1.5003161850385921e-01 -4.7705062465843829e-05 9.9226077368876241e-05  1.5004703327961189e-01 1.7279026955673579e-05 7.2015224165427656e-05  1.5002566544161081e-01 4.0585088311119645e-07 8.2157505488215934e-05  1.5002525837367817e-01 8.1727876036301618e-05 3.1477074680186497e-05  1.4999382264744085e-01 7.6739996564078857e-05 2.9350684107049457e-05  1.4998987900922392e-01 1.2968949327509614e-04 -1.5769488461898680e-06  1.4997580848564601e-01 8.9657090457575254e-05 4.1736798804923773e-05  1.4999431633222415e-01 7.6103820434779480e-05 7.1520160785562402e-05  1.5000579445145956e-01 -2.3581269274869485e-07 1.3821132943233485e-04  1.5003039549071825e-01 -2.0488757994544235e-05 1.4726686563745493e-04  1.5002814111466614e-01 -4.3502041179006444e-05 1.2793305082142695e-04  1.5001467665108864e-01 -1.9601111499400185e-05 4.1496563519238336e-05  1.4998618898065560e-01 -8.2474443180555476e-06 -2.7141655778013882e-05  1.4996783745799844e-01 9.9014395338211831e-06 -7.4171957878074309e-05  1.4995117344821424e-01 -1.3061060728471285e-06 -8.2504691022740746e-05  1.4994552761325647e-01 -5.0151510722342167e-06 -8.8886234332446231e-05  1.4994367183643215e-01 -9.1309390323525921e-06 -9.2227409355771173e-05  1.4994294132892688e-01 -2.4310406408443119e-05 -1.0757265235428557e-04  1.4994327707819599e-01 -4.4994095648111999e-05 -1.1162078328931720e-04  1.4994923532103469e-01 -2.5278197020416116e-05 -1.0677820800342034e-04  1.4995040762591022e-01 -3.4483954540764474e-06 -1.0253751107006486e-04  1.4995909476837863e-01 -3.5533183444529166e-05 -7.0836814175745212e-05  1.4998958881827529e-01 -6.9676067946423975e-05 1.2629105079080927e-06  1.5000719052282174e-01 -3.0125648045701530e-05 1.6920240691775000e-05  1.4998751433902771e-01 2.1846931925968517e-05 -4.1857856718539781e-05  1.4998413910615715e-01 4.4262050972881829e-06 -2.8561078439548300e-05  1.5001721921544173e-01 -3.5184611148607199e-05 6.0116042107099930e-05  1.5001989029529389e-01 -1.8974240604167844e-05 3.9249450749576949e-05  1.4998433935712971e-01 3.0303550323269259e-05 -6.0599073303555948e-05  1.4998235115727460e-01 3.8209088864890842e-05 -4.0245164779124886e-05  1.5001196244978549e-01 -1.5102961106372777e-05 4.8431168894333677e-05  1.5001612627892999e-01 -5.4646098024358031e-05 3.9484768496279454e-05  1.5000103108076648e-01 -2.6405579790101414e-06 -1.2863506423305335e-05  1.4999200572273721e-01 6.8754238253788510e-05 -2.3585476027867219e-05  1.4998673433304249e-01 2.4351179105423111e-05 -2.6281646943515470e-05  1.5000053741057756e-01 -6.9929672660202876e-05 5.3677212568082510e-06  1.5002447859899273e-01 -3.7347657277047561e-05 6.4127085783605958e-05  1.5000500375823436e-01 6.4091381334478162e-05 9.2003745695342775e-06  1.4996817360462739e-01 4.0980177375450777e-05 -9.2237977313793917e-05  1.4999463663784976e-01 -5.5185874585135210e-05 -8.6329646791073966e-06  1.5003644037802036e-01 -3.7415949294916621e-05 1.1199929918159910e-04  1.5000115929805957e-01 4.7034788710602061e-05 -7.5602907679060215e-06  1.4996198053773613e-01 3.1323578540691501e-05 -1.2047457988981568e-04  1.5000621323530089e-01 -4.0468876837832817e-05 3.4979104114215233e-05  1.5003543466758748e-01 -2.4613533713958441e-05 1.1193918510992080e-04  1.4998501651494969e-01 3.5947184177506301e-05 -6.5929215064241791e-05  1.4997176666793460e-01 1.7459444367429511e-05 -8.4511319325644924e-05  1.5002217742581198e-01 -3.3037121520472344e-05 8.8468931750830483e-05  1.5001694038465957e-01 -9.2002841488419850e-06 4.2310718556591059e-05  1.4997511452472895e-01 3.0093653144056195e-05 -9.1818574183291890e-05  1.4999591544767513e-01 -4.8550270742178700e-08 2.9079285111896663e-06  1.5002158645329908e-01 -2.4921409310751566e-05 7.2656962110264887e-05  1.4999357044683428e-01 8.5468056757967001e-06 -3.5918387783316868e-05  1.4998661106951028e-01 1.6766114927234564e-05 -3.8043092094592201e-05  1.5001149254039103e-01 -1.3939870801405483e-05 4.6403954606072178e-05  1.5000365533022311e-01 -6.2815873304187618e-06 2.8487724717900093e-06  1.4998984741907209e-01 1.3316186659768313e-05 -3.4990175471091808e-05  1.5000318186990408e-01 -1.9487531578289972e-06 1.8509280093840996e-05  1.5000525639499770e-01 -9.1261625093221480e-06 1.3245140965000546e-05  1.4999436494934212e-01 7.3647905915256827e-06 -2.1384418788022145e-05  1.5000029908220958e-01 1.2317068344151652e-06 5.2462287741982568e-06  1.5000336423033783e-01 -5.1611385048347725e-06 1.0685547193009921e-05  1.4999769113588196e-01 1.7209428639588716e-06 -1.0793663275086513e-05  1.4999916761144619e-01 3.3379624382051725e-06 3.6653146739982641e-07  1.5000244696780027e-01 -4.6608184473154876e-06 7.3297914023118289e-06  1.4999834347329946e-01 2.3308110516698304e-06 -6.3739334829201550e-06  1.5000002915432850e-01 2.4310099612313621e-07 6.8962524719339258e-07  1.5000074198422550e-01 -6.6125972854042698e-07 3.1798581353120280e-06  1.4999968943681835e-01 -7.5216241713786172e-07 -2.6361035165394877e-06  1.4999943232239590e-01 2.2546749179056469e-06 -3.5503298385465232e-07  1.5000106279429157e-01 -2.6495064759154221e-06 2.5958281030274343e-06  1.4999905774735020e-01 2.0417714043875897e-06 -2.6265307819323