<?xml version="1.0"?>
<VTKFile type="UnstructuredGrid"  version="0.1"  >
<UnstructuredGrid>
<Piece  NumberOfPoints="10201" NumberOfCells="20000">
<Points>
<DataArray  type="Float64"  NumberOfComponents="3"  format="ascii">-5 -5 0  -4.9 -5 0  -4.8 -5 0  -4.7 -5 0  -4.6 -5 0  -4.5 -5 0  -4.4 -5 0  -4.3 -5 0  -4.2 -5 0  -4.1 -5 0  -4 -5 0  -3.9 -5 0  -3.8 -5 0  -3.7 -5 0  -3.6 -5 0  -3.5 -5 0  -3.4 -5 0  -3.3 -5 0  -3.2 -5 0  -3.1 -5 0  -3 -5 0  -2.9 -5 0  -2.8 -5 0  -2.7 -5 0  -2.6 -5 0  -2.5 -5 0  -2.4 -5 0  -2.3 -5 0  -2.2 -5 0  -2.1 -5 0  -2 -5 0  -1.9 -5 0  -1.8 -5 0  -1.7 -5 0  -1.6 -5 0  -1.5 -5 0  -1.4 -5 0  -1.3 -5 0  -1.2 -5 0  -1.1 -5 0  -1 -5 0  -0.9000000000000004 -5 0  -0.7999999999999998 -5 0  -0.7000000000000002 -5 0  -0.5999999999999996 -5 0  -0.5 -5 0  -0.4000000000000004 -5 0  -0.2999999999999998 -5 0  -0.2000000000000002 -5 0  -0.09999999999999964 -5 0  0 -5 0  0.09999999999999964 -5 0  0.2000000000000002 -5 0  0.2999999999999998 -5 0  0.4000000000000004 -5 0  0.5 -5 0  0.5999999999999996 -5 0  0.7000000000000002 -5 0  0.7999999999999998 -5 0  0.9000000000000004 -5 0  1 -5 0  1.1 -5 0  1.2 -5 0  1.3 -5 0  1.4 -5 0  1.5 -5 0  1.6 -5 0  1.7 -5 0  1.8 -5 0  1.9 -5 0  2 -5 0  2.1 -5 0  2.2 -5 0  2.3 -5 0  2.4 -5 0  2.5 -5 0  2.6 -5 0  2.7 -5 0  2.8 -5 0  2.9 -5 0  3 -5 0  3.1 -5 0  3.199999999999999 -5 0  3.300000000000001 -5 0  3.4 -5 0  3.5 -5 0  3.6 -5 0  3.699999999999999 -5 0  3.800000000000001 -5 0  3.9 -5 0  4 -5 0  4.1 -5 0  4.199999999999999 -5 0  4.300000000000001 -5 0  4.4 -5 0  4.5 -5 0  4.6 -5 0  4.699999999999999 -5 0  4.800000000000001 -5 0  4.9 -5 0  5 -5 0  -5 -4.9 0  -4.9 -4.9 0  -4.8 -4.9 0  -4.7 -4.9 0  -4.6 -4.9 0  -4.5 -4.9 0  -4.4 -4.9 0  -4.3 -4.9 0  -4.2 -4.9 0  -4.1 -4.9 0  -4 -4.9 0  -3.9 -4.9 0  -3.8 -4.9 0  -3.7 -4.9 0  -3.6 -4.9 0  -3.5 -4.9 0  -3.4 -4.9 0  -3.3 -4.9 0  -3.2 -4.9 0  -3.1 -4.9 0  -3 -4.9 0  -2.9 -4.9 0  -2.8 -4.9 0  -2.7 -4.9 0  -2.6 -4.9 0  -2.5 -4.9 0  -2.4 -4.9 0  -2.3 -4.9 0  -2.2 -4.9 0  -2.1 -4.9 0  -2 -4.9 0  -1.9 -4.9 0  -1.8 -4.9 0  -1.7 -4.9 0  -1.6 -4.9 0  -1.5 -4.9 0  -1.4 -4.9 0  -1.3 -4.9 0  -1.2 -4.9 0  -1.1 -4.9 0  -1 -4.9 0  -0.9000000000000004 -4.9 0  -0.7999999999999998 -4.9 0  -0.7000000000000002 -4.9 0  -0.5999999999999996 -4.9 0  -0.5 -4.9 0  -0.4000000000000004 -4.9 0  -0.2999999999999998 -4.9 0  -0.2000000000000002 -4.9 0  -0.09999999999999964 -4.9 0  0 -4.9 0  0.09999999999999964 -4.9 0  0.2000000000000002 -4.9 0  0.2999999999999998 -4.9 0  0.4000000000000004 -4.9 0  0.5 -4.9 0  0.5999999999999996 -4.9 0  0.7000000000000002 -4.9 0  0.7999999999999998 -4.9 0  0.9000000000000004 -4.9 0  1 -4.9 0  1.1 -4.9 0  1.2 -4.9 0  1.3 -4.9 0  1.4 -4.9 0  1.5 -4.9 0  1.6 -4.9 0  1.7 -4.9 0  1.8 -4.9 0  1.9 -4.9 0  2 -4.9 0  2.1 -4.9 0  2.2 -4.9 0  2.3 -4.9 0  2.4 -4.9 0  2.5 -4.9 0  2.6 -4.9 0  2.7 -4.9 0  2.8 -4.9 0  2.9 -4.9 0  3 -4.9 0  3.1 -4.9 0  3.199999999999999 -4.9 0  3.300000000000001 -4.9 0  3.4 -4.9 0  3.5 -4.9 0  3.6 -4.9 0  3.699999999999999 -4.9 0  3.800000000000001 -4.9 0  3.9 -4.9 0  4 -4.9 0  4.1 -4.9 0  4.199999999999999 -4.9 0  4.300000000000001 -4.9 0  4.4 -4.9 0  4.5 -4.9 0  4.6 -4.9 0  4.699999999999999 -4.9 0  4.800000000000001 -4.9 0  4.9 -4.9 0  5 -4.9 0  -5 -4.8 0  -4.9 -4.8 0  -4.8 -4.8 0  -4.7 -4.8 0  -4.6 -4.8 0  -4.5 -4.8 0  -4.4 -4.8 0  -4.3 -4.8 0  -4.2 -4.8 0  -4.1 -4.8 0  -4 -4.8 0  -3.9 -4.8 0  -3.8 -4.8 0  -3.7 -4.8 0  -3.6 -4.8 0  -3.5 -4.8 0  -3.4 -4.8 0  -3.3 -4.8 0  -3.2 -4.8 0  -3.1 -4.8 0  -3 -4.8 0  -2.9 -4.8 0  -2.8 -4.8 0  -2.7 -4.8 0  -2.6 -4.8 0  -2.5 -4.8 0  -2.4 -4.8 0  -2.3 -4.8 0  -2.2 -4.8 0  -2.1 -4.8 0  -2 -4.8 0  -1.9 -4.8 0  -1.8 -4.8 0  -1.7 -4.8 0  -1.6 -4.8 0  -1.5 -4.8 0  -1.4 -4.8 0  -1.3 -4.8 0  -1.2 -4.8 0  -1.1 -4.8 0  -1 -4.8 0  -0.9000000000000004 -4.8 0  -0.7999999999999998 -4.8 0  -0.7000000000000002 -4.8 0  -0.5999999999999996 -4.8 0  -0.5 -4.8 0  -0.4000000000000004 -4.8 0  -0.2999999999999998 -4.8 0  -0.2000000000000002 -4.8 0  -0.09999999999999964 -4.8 0  0 -4.8 0  0.09999999999999964 -4.8 0  0.2000000000000002 -4.8 0  0.2999999999999998 -4.8 0  0.4000000000000004 -4.8 0  0.5 -4.8 0  0.5999999999999996 -4.8 0  0.7000000000000002 -4.8 0  0.7999999999999998 -4.8 0  0.9000000000000004 -4.8 0  1 -4.8 0  1.1 -4.8 0  1.2 -4.8 0  1.3 -4.8 0  1.4 -4.8 0  1.5 -4.8 0  1.6 -4.8 0  1.7 -4.8 0  1.8 -4.8 0  1.9 -4.8 0  2 -4.8 0  2.1 -4.8 0  2.2 -4.8 0  2.3 -4.8 0  2.4 -4.8 0  2.5 -4.8 0  2.6 -4.8 0  2.7 -4.8 0  2.8 -4.8 0  2.9 -4.8 0  3 -4.8 0  3.1 -4.8 0  3.199999999999999 -4.8 0  3.300000000000001 -4.8 0  3.4 -4.8 0  3.5 -4.8 0  3.6 -4.8 0  3.699999999999999 -4.8 0  3.800000000000001 -4.8 0  3.9 -4.8 0  4 -4.8 0  4.1 -4.8 0  4.199999999999999 -4.8 0  4.300000000000001 -4.8 0  4.4 -4.8 0  4.5 -4.8 0  4.6 -4.8 0  4.699999999999999 -4.8 0  4.800000000000001 -4.8 0  4.9 -4.8 0  5 -4.8 0  -5 -4.7 0  -4.9 -4.7 0  -4.8 -4.7 0  -4.7 -4.7 0  -4.6 -4.7 0  -4.5 -4.7 0  -4.4 -4.7 0  -4.3 -4.7 0  -4.2 -4.7 0  -4.1 -4.7 0  -4 -4.7 0  -3.9 -4.7 0  -3.8 -4.7 0  -3.7 -4.7 0  -3.6 -4.7 0  -3.5 -4.7 0  -3.4 -4.7 0  -3.3 -4.7 0  -3.2 -4.7 0  -3.1 -4.7 0  -3 -4.7 0  -2.9 -4.7 0  -2.8 -4.7 0  -2.7 -4.7 0  -2.6 -4.7 0  -2.5 -4.7 0  -2.4 -4.7 0  -2.3 -4.7 0  -2.2 -4.7 0  -2.1 -4.7 0  -2 -4.7 0  -1.9 -4.7 0  -1.8 -4.7 0  -1.7 -4.7 0  -1.6 -4.7 0  -1.5 -4.7 0  -1.4 -4.7 0  -1.3 -4.7 0  -1.2 -4.7 0  -1.1 -4.7 0  -1 -4.7 0  -0.9000000000000004 -4.7 0  -0.7999999999999998 -4.7 0  -0.7000000000000002 -4.7 0  -0.5999999999999996 -4.7 0  -0.5 -4.7 0  -0.4000000000000004 -4.7 0  -0.2999999999999998 -4.7 0  -0.2000000000000002 -4.7 0  -0.09999999999999964 -4.7 0  0 -4.7 0  0.09999999999999964 -4.7 0  0.2000000000000002 -4.7 0  0.2999999999999998 -4.7 0  0.4000000000000004 -4.7 0  0.5 -4.7 0  0.5999999999999996 -4.7 0  0.7000000000000002 -4.7 0  0.7999999999999998 -4.7 0  0.9000000000000004 -4.7 0  1 -4.7 0  1.1 -4.7 0  1.2 -4.7 0  1.3 -4.7 0  1.4 -4.7 0  1.5 -4.7 0  1.6 -4.7 0  1.7 -4.7 0  1.8 -4.7 0  1.9 -4.7 0  2 -4.7 0  2.1 -4.7 0  2.2 -4.7 0  2.3 -4.7 0  2.4 -4.7 0  2.5 -4.7 0  2.6 -4.7 0  2.7 -4.7 0  2.8 -4.7 0  2.9 -4.7 0  3 -4.7 0  3.1 -4.7 0  3.199999999999999 -4.7 0  3.300000000000001 -4.7 0  3.4 -4.7 0  3.5 -4.7 0  3.6 -4.7 0  3.699999999999999 -4.7 0  3.800000000000001 -4.7 0  3.9 -4.7 0  4 -4.7 0  4.1 -4.7 0  4.199999999999999 -4.7 0  4.300000000000001 -4.7 0  4.4 -4.7 0  4.5 -4.7 0  4.6 -4.7 0  4.699999999999999 -4.7 0  4.800000000000001 -4.7 0  4.9 -4.7 0  5 -4.7 0  -5 -4.6 0  -4.9 -4.6 0  -4.8 -4.6 0  -4.7 -4.6 0  -4.6 -4.6 0  -4.5 -4.6 0  -4.4 -4.6 0  -4.3 -4.6 0  -4.2 -4.6 0  -4.1 -4.6 0  -4 -4.6 0  -3.9 -4.6 0  -3.8 -4.6 0  -3.7 -4.6 0  -3.6 -4.6 0  -3.5 -4.6 0  -3.4 -4.6 0  -3.3 -4.6 0  -3.2 -4.6 0  -3.1 -4.6 0  -3 -4.6 0  -2.9 -4.6 0  -2.8 -4.6 0  -2.7 -4.6 0  -2.6 -4.6 0  -2.5 -4.6 0  -2.4 -4.6 0  -2.3 -4.6 0  -2.2 -4.6 0  -2.1 -4.6 0  -2 -4.6 0  -1.9 -4.6 0  -1.8 -4.6 0  -1.7 -4.6 0  -1.6 -4.6 0  -1.5 -4.6 0  -1.4 -4.6 0  -1.3 -4.6 0  -1.2 -4.6 0  -1.1 -4.6 0  -1 -4.6 0  -0.9000000000000004 -4.6 0  -0.7999999999999998 -4.6 0  -0.7000000000000002 -4.6 0  -0.5999999999999996 -4.6 0  -0.5 -4.6 0  -0.4000000000000004 -4.6 0  -0.2999999999999998 -4.6 0  -0.2000000000000002 -4.6 0  -0.09999999999999964 -4.6 0  0 -4.6 0  0.09999999999999964 -4.6 0  0.2000000000000002 -4.6 0  0.2999999999999998 -4.6 0  0.4000000000000004 -4.6 0  0.5 -4.6 0  0.5999999999999996 -4.6 0  0.7000000000000002 -4.6 0  0.7999999999999998 -4.6 0  0.9000000000000004 -4.6 0  1 -4.6 0  1.1 -4.6 0  1.2 -4.6 0  1.3 -4.6 0  1.4 -4.6 0  1.5 -4.6 0  1.6 -4.6 0  1.7 -4.6 0  1.8 -4.6 0  1.9 -4.6 0  2 -4.6 0  2.1 -4.6 0  2.2 -4.6 0  2.3 -4.6 0  2.4 -4.6 0  2.5 -4.6 0  2.6 -4.6 0  2.7 -4.6 0  2.8 -4.6 0  2.9 -4.6 0  3 -4.6 0  3.1 -4.6 0  3.199999999999999 -4.6 0  3.300000000000001 -4.6 0  3.4 -4.6 0  3.5 -4.6 0  3.6 -4.6 0  3.699999999999999 -4.6 0  3.800000000000001 -4.6 0  3.9 -4.6 0  4 -4.6 0  4.1 -4.6 0  4.199999999999999 -4.6 0  4.300000000000001 -4.6 0  4.4 -4.6 0  4.5 -4.6 0  4.6 -4.6 0  4.699999999999999 -4.6 0  4.800000000000001 -4.6 0  4.9 -4.6 0  5 -4.6 0  -5 -4.5 0  -4.9 -4.5 0  -4.8 -4.5 0  -4.7 -4.5 0  -4.6 -4.5 0  -4.5 -4.5 0  -4.4 -4.5 0  -4.3 -4.5 0  -4.2 -4.5 0  -4.1 -4.5 0  -4 -4.5 0  -3.9 -4.5 0  -3.8 -4.5 0  -3.7 -4.5 0  -3.6 -4.5 0  -3.5 -4.5 0  -3.4 -4.5 0  -3.3 -4.5 0  -3.2 -4.5 0  -3.1 -4.5 0  -3 -4.5 0  -2.9 -4.5 0  -2.8 -4.5 0  -2.7 -4.5 0  -2.6 -4.5 0  -2.5 -4.5 0  -2.4 -4.5 0  -2.3 -4.5 0  -2.2 -4.5 0  -2.1 -4.5 0  -2 -4.5 0  -1.9 -4.5 0  -1.8 -4.5 0  -1.7 -4.5 0  -1.6 -4.5 0  -1.5 -4.5 0  -1.4 -4.5 0  -1.3 -4.5 0  -1.2 -4.5 0  -1.1 -4.5 0  -1 -4.5 0  -0.9000000000000004 -4.5 0  -0.7999999999999998 -4.5 0  -0.7000000000000002 -4.5 0  -0.5999999999999996 -4.5 0  -0.5 -4.5 0  -0.4000000000000004 -4.5 0  -0.2999999999999998 -4.5 0  -0.2000000000000002 -4.5 0  -0.09999999999999964 -4.5 0  0 -4.5 0  0.09999999999999964 -4.5 0  0.2000000000000002 -4.5 0  0.2999999999999998 -4.5 0  0.4000000000000004 -4.5 0  0.5 -4.5 0  0.5999999999999996 -4.5 0  0.7000000000000002 -4.5 0  0.7999999999999998 -4.5 0  0.9000000000000004 -4.5 0  1 -4.5 0  1.1 -4.5 0  1.2 -4.5 0  1.3 -4.5 0  1.4 -4.5 0  1.5 -4.5 0  1.6 -4.5 0  1.7 -4.5 0  1.8 -4.5 0  1.9 -4.5 0  2 -4.5 0  2.1 -4.5 0  2.2 -4.5 0  2.3 -4.5 0  2.4 -4.5 0  2.5 -4.5 0  2.6 -4.5 0  2.7 -4.5 0  2.8 -4.5 0  2.9 -4.5 0  3 -4.5 0  3.1 -4.5 0  3.199999999999999 -4.5 0  3.300000000000001 -4.5 0  3.4 -4.5 0  3.5 -4.5 0  3.6 -4.5 0  3.699999999999999 -4.5 0  3.800000000000001 -4.5 0  3.9 -4.5 0  4 -4.5 0  4.1 -4.5 0  4.199999999999999 -4.5 0  4.300000000000001 -4.5 0  4.4 -4.5 0  4.5 -4.5 0  4.6 -4.5 0  4.699999999999999 -4.5 0  4.800000000000001 -4.5 0  4.9 -4.5 0  5 -4.5 0  -5 -4.4 0  -4.9 -4.4 0  -4.8 -4.4 0  -4.7 -4.4 0  -4.6 -4.4 0  -4.5 -4.4 0  -4.4 -4.4 0  -4.3 -4.4 0  -4.2 -4.4 0  -4.1 -4.4 0  -4 -4.4 0  -3.9 -4.4 0  -3.8 -4.4 0  -3.7 -4.4 0  -3.6 -4.4 0  -3.5 -4.4 0  -3.4 -4.4 0  -3.3 -4.4 0  -3.2 -4.4 0  -3.1 -4.4 0  -3 -4.4 0  -2.9 -4.4 0  -2.8 -4.4 0  -2.7 -4.4 0  -2.6 -4.4 0  -2.5 -4.4 0  -2.4 -4.4 0  -2.3 -4.4 0  -2.2 -4.4 0  -2.1 -4.4 0  -2 -4.4 0  -1.9 -4.4 0  -1.8 -4.
[...]
<PointData  Vectors="f_17"> 
<DataArray  type="Float64"  Name="f_17"  NumberOfComponents="3" format="ascii">1.5000000000000077e-01 0.0000000000000000e+00 0.0000000000000000e+00  1.4999999999999958e-01 -6.9078361493328790e-16 0.0000000000000000e+00  1.4999999999999875e-01 -2.8761840193517699e-15 0.0000000000000000e+00  1.5000000000000249e-01 5.0819529312298783e-15 0.0000000000000000e+00  1.5000000000000022e-01 8.3431205763636522e-16 0.0000000000000000e+00  1.4999999999999344e-01 -1.3580222108267051e-14 0.0000000000000000e+00  1.5000000000000613e-01 8.5224643146416900e-15 0.0000000000000000e+00  1.5000000000002067e-01 2.0687750920476192e-15 0.0000000000000000e+00  1.5000000000002697e-01 -1.4725990176178448e-13 0.0000000000000000e+00  1.5000000000018937e-01 -2.2558790438204084e-13 0.0000000000000000e+00  1.5000000000055178e-01 4.0939901672699476e-14 0.0000000000000000e+00  1.5000000000054337e-01 1.2636484108470573e-12 0.0000000000000000e+00  1.4999999999866975e-01 7.0158560601048934e-12 0.0000000000000000e+00  1.4999999999001820e-01 2.4459136406115861e-11 0.0000000000000000e+00  1.4999999996136945e-01 6.0643883803757464e-11 0.0000000000000000e+00  1.4999999988971310e-01 1.2720061139674786e-10 0.0000000000000000e+00  1.4999999973889944e-01 2.6417965948340699e-10 0.0000000000000000e+00  1.4999999943261660e-01 5.7533677253988411e-10 0.0000000000000000e+00  1.4999999880574727e-01 1.2427209592027498e-09 0.0000000000000000e+00  1.4999999759358482e-01 2.3921119350322976e-09 0.0000000000000000e+00  1.4999999558416516e-01 3.6554529275473754e-09 0.0000000000000000e+00  1.4999999307289397e-01 3.7852486743740641e-09 0.0000000000000000e+00  1.4999999138696982e-01 1.3525496061422033e-09 0.0000000000000000e+00  1.4999999247773091e-01 -3.2940793541570570e-09 0.0000000000000000e+00  1.4999999691561497e-01 -7.0559819590235194e-09 0.0000000000000000e+00  1.5000000215673231e-01 -6.5319563994494397e-09 0.0000000000000000e+00  1.5000000430445365e-01 -2.0000036304466113e-09 0.0000000000000000e+00  1.5000000246502224e-01 2.3317228303730277e-09 0.0000000000000000e+00  1.4999999982930684e-01 2.9825498516193642e-09 0.0000000000000000e+00  1.4999999930342928e-01 9.1906000461716422e-10 0.0000000000000000e+00  1.5000000006571884e-01 -5.6618485303626218e-10 0.0000000000000000e+00  1.5000000010502509e-01 -3.4917981878896845e-10 0.0000000000000000e+00  1.4999999971410938e-01 1.0570981432017551e-10 0.0000000000000000e+00  1.5000000003325895e-01 -8.7708943243033681e-11 0.0000000000000000e+00  1.5000000043819128e-01 -1.7243179879971187e-10 0.0000000000000000e+00  1.5000000001507163e-01 2.0607225205870594e-10 0.0000000000000000e+00  1.4999999957499943e-01 2.7185335341976889e-10 0.0000000000000000e+00  1.4999999995005764e-01 -1.6413061811324662e-10 0.0000000000000000e+00  1.5000000033769556e-01 -2.7732573719117998e-10 0.0000000000000000e+00  1.5000000004160305e-01 1.0690522561341375e-10 0.0000000000000000e+00  1.4999999975883843e-01 2.2509782060456326e-10 0.0000000000000000e+00  1.4999999998640226e-01 -7.4498753340861742e-11 0.0000000000000000e+00  1.5000000015927667e-01 -1.5861949044924427e-10 0.0000000000000000e+00  1.4999999998813779e-01 6.0662173356017651e-11 0.0000000000000000e+00  1.4999999990371393e-01 9.9123116822751427e-11 0.0000000000000000e+00  1.5000000002543207e-01 -5.2544066312835606e-11 0.0000000000000000e+00  1.5000000005102118e-01 -5.3292309199927246e-11 0.0000000000000000e+00  1.4999999997278335e-01 4.3106200671895028e-11 0.0000000000000000e+00  1.4999999997859528e-01 2.1909501704926282e-11 0.0000000000000000e+00  1.5000000002152253e-01 -3.1251147282574809e-11 0.0000000000000000e+00  1.5000000000474298e-01 -3.5085617493434879e-12 0.0000000000000000e+00  1.4999999998673569e-01 1.8972928629779168e-11 0.0000000000000000e+00  1.5000000000240468e-01 -4.6512324956411431e-12 0.0000000000000000e+00  1.5000000000603345e-01 -8.7903880497970457e-12 0.0000000000000000e+00  1.4999999999623073e-01 6.0708277924214135e-12 0.0000000000000000e+00  1.4999999999854499e-01 2.1881792008665460e-12 0.0000000000000000e+00  1.5000000000259558e-01 -4.2393293053723542e-12 0.0000000000000000e+00  1.4999999999948657e-01 8.3758734420151101e-13 0.0000000000000000e+00  1.4999999999895389e-01 1.8185049139314431e-12 0.0000000000000000e+00  1.5000000000080307e-01 -1.3773269333667221e-12 0.0000000000000000e+00  1.5000000000008243e-01 -2.0046654093807739e-13 0.0000000000000000e+00  1.4999999999955813e-01 8.2136874792270770e-13 0.0000000000000000e+00  1.5000000000021710e-01 -3.7519607347869915e-13 0.0000000000000000e+00  1.5000000000008457e-01 -1.9132794384457304e-13 0.0000000000000000e+00  1.4999999999984237e-01 3.0820482822381961e-13 0.0000000000000000e+00  1.5000000000006020e-01 -1.0180293372801880e-13 0.0000000000000000e+00  1.5000000000003608e-01 -8.6347105808424318e-14 0.0000000000000000e+00  1.4999999999994673e-01 1.0983902117899474e-13 0.0000000000000000e+00  1.5000000000001984e-01 -3.4666735629250299e-14 0.0000000000000000e+00  1.5000000000001057e-01 -2.9090442103433115e-14 0.0000000000000000e+00  1.4999999999998245e-01 3.8909163568432621e-14 0.0000000000000000e+00  1.5000000000000807e-01 -1.5348677497759225e-14 0.0000000000000000e+00  1.5000000000000194e-01 -6.9894897613342012e-15 0.0000000000000000e+00  1.4999999999999461e-01 1.2749216213204798e-14 0.0000000000000000e+00  1.5000000000000363e-01 -7.2389381924873743e-15 0.0000000000000000e+00  1.4999999999999972e-01 -2.0299601015673120e-16 0.0000000000000000e+00  1.4999999999999869e-01 3.4986198406650153e-15 0.0000000000000000e+00  1.5000000000000124e-01 -2.9811043009170065e-15 0.0000000000000000e+00  1.4999999999999969e-01 8.8157264778325467e-16 0.0000000000000000e+00  1.4999999999999999e-01 4.6525128282360867e-16 0.0000000000000000e+00  1.5000000000000027e-01 -1.1816746625447149e-15 0.0000000000000000e+00  1.4999999999999988e-01 1.0470457005042244e-15 0.0000000000000000e+00  1.5000000000000036e-01 -3.9299344394183887e-16 0.0000000000000000e+00  1.5000000000000030e-01 4.0529195881536227e-16 0.0000000000000000e+00  1.5000000000000008e-01 2.6659005230543130e-16 0.0000000000000000e+00  1.5000000000000002e-01 -2.8935921901022892e-16 0.0000000000000000e+00  1.5000000000000022e-01 4.5541229943395978e-16 0.0000000000000000e+00  1.5000000000000008e-01 9.1122640734527625e-16 0.0000000000000000e+00  1.4999999999999997e-01 4.9354344740049072e-16 0.0000000000000000e+00  1.4999999999999999e-01 -7.4934646239618875e-16 0.0000000000000000e+00  1.4999999999999997e-01 -6.3017578303248179e-16 0.0000000000000000e+00  1.4999999999999999e-01 1.5288599808225225e-16 0.0000000000000000e+00  1.4999999999999994e-01 -5.6127718659912463e-16 0.0000000000000000e+00  1.4999999999999997e-01 2.1876281079504512e-16 0.0000000000000000e+00  1.5000000000000002e-01 8.5607438161696150e-17 0.0000000000000000e+00  1.5000000000000005e-01 -1.8868634309850920e-16 0.0000000000000000e+00  1.5000000000000005e-01 4.1680251874730967e-16 0.0000000000000000e+00  1.5000000000000016e-01 -6.0104689662185507e-16 0.0000000000000000e+00  1.5000000000000008e-01 1.0586084022406462e-16 0.0000000000000000e+00  1.5000000000000008e-01 -6.5253125271354805e-16 0.0000000000000000e+00  1.5000000000000013e-01 0.0000000000000000e+00 0.0000000000000000e+00  1.4999999999999972e-01 0.0000000000000000e+00 -2.7671182513049306e-16  1.4999999999999952e-01 -1.4006065147982026e-15 -7.3773232714237004e-16  1.5000000000000177e-01 3.3001883724008587e-15 1.9939355872038129e-15  1.4999999999999991e-01 -6.2419537905077815e-17 1.5843450118489760e-16  1.4999999999999641e-01 -9.1551007983898251e-15 -5.1333608457446170e-15  1.5000000000000496e-01 1.0021720486614412e-14 7.3771769951494326e-15  1.5000000000000491e-01 1.3618255758360322e-14 8.9867064655822995e-15  1.4999999999997843e-01 -2.5307031800304547e-14 -3.5085959412739959e-14  1.4999999999997007e-01 7.8289822250599647e-14 -7.9592670732884513e-14  1.4999999999988489e-01 3.1224061900993464e-13 -3.3357963065170226e-13  1.4999999999948366e-01 2.4876250538626726e-13 -1.3168483284971710e-12  1.4999999999904626e-01 -4.5647029473272161e-13 -2.6974370184745161e-12  1.4999999999980188e-01 -3.9600289788056551e-12 -1.9711148648425364e-12  1.5000000000524386e-01 -1.7713817665995629e-11 9.2637177292803708e-12  1.5000000002641506e-01 -5.1606970419607236e-11 5.6427406124967088e-11  1.5000000008673070e-01 -1.1512150831114095e-10 1.9167787921520114e-10  1.5000000022231377e-01 -2.3570167313346756e-10 4.9450210893804629e-10  1.5000000049739309e-01 -4.9842222488874980e-10 1.1014346553177343e-09  1.5000000105308378e-01 -1.0807400921930203e-09 2.3063776498578185e-09  1.5000000214878195e-01 -2.1954634477840796e-09 4.6478294877813834e-09  1.5000000408290970e-01 -3.7323916028136787e-09 8.7059353116894844e-09  1.5000000682735889e-01 -4.6544071800052138e-09 1.4237152977942815e-08  1.5000000938811217e-01 -3.1324355083602671e-09 1.8850647342615269e-08  1.5000000966098437e-01 1.5693413235856313e-09 1.8107980399817441e-08  1.5000000599898577e-01 6.9652511104090494e-09 9.3120434045572307e-09  1.4999999979157247e-01 8.5715354573013088e-09 -3.4374818147005634e-09  1.4999999542335093e-01 4.6727991943142388e-09 -1.0725317653688491e-08  1.4999999588871255e-01 -1.0933584870221158e-09 -7.7420690005790475e-09  1.4999999912354794e-01 -3.6238742483744341e-09 -4.8963533846727217e-10  1.5000000085724721e-01 -2.0908390112535613e-09 2.2524669768415539e-09  1.5000000025273580e-01 1.3272249324492065e-10 3.0948531108633054e-10  1.4999999974986483e-01 5.6943966436135991e-10 -5.7136106424304068e-10  1.5000000022119417e-01 5.3950091038508650e-11 5.9918596557456027e-10  1.5000000021250973e-01 2.7455304659209432e-11 3.2262163623205669e-10  1.4999999956618248e-01 1.9535849062297118e-10 -1.1021978150858548e-09  1.4999999968687533e-01 -1.0185170110187649e-10 -5.1199741703832074e-10  1.5000000041023839e-01 -3.3973955283522319e-10 1.0825323802583403e-09  1.5000000032410049e-01 1.3748889191664828e-11 5.7079731011321915e-10  1.4999999968007272e-01 3.2941569463114428e-10 -8.6677518765183448e-10  1.4999999974252740e-01 4.5640808253113944e-11 -4.6200949917526788e-10  1.5000000023659224e-01 -2.5959793610028692e-10 6.4110637194616721e-10  1.5000000016675732e-01 -5.2755259972961254e-11 2.8853565643404699e-10  1.4999999982788390e-01 1.8748183180194045e-10 -4.5455683061084799e-10  1.4999999991316862e-01 3.2475718182358031e-11 -1.3096900125941211e-10  1.5000000012079373e-01 -1.2902065224458311e-10 3.0535182434782397e-10  1.5000000003083960e-01 -7.6035271185814431e-12 2.3264776425186622e-11  1.4999999992165705e-01 8.3776505719839309e-11 -1.8701142528073127e-10  1.5000000000082486e-01 -1.0374351352138443e-11 3.1998156293315480e-11  1.5000000004448619e-01 -4.9123936234678686e-11 9.8251875446727937e-11  1.4999999998651425e-01 1.8390242474674988e-11 -4.7201628685838716e-11  1.4999999997975441e-01 2.3884734481344274e-11 -3.9014601021842011e-11  1.5000000001426606e-01 -1.8042888069442513e-11 3.9266134066939767e-11  1.5000000000562286e-01 -7.5843194971179414e-12 6.3163525246102114e-12  1.4999999999025532e-01 1.2939185629062187e-11 -2.3312639358087191e-11  1.5000000000107852e-01 -8.3602421237301143e-13 6.4605001937901781e-12  1.5000000000457769e-01 -6.7673127704155940e-12 9.2322153668162080e-12  1.4999999999735686e-01 3.4403992489285294e-12 -7.5960208833946694e-12  1.4999999999893665e-01 2.0402363517074742e-12 -1.0110241450865470e-12  1.5000000000186295e-01 -2.8304217661661103e-12 4.3440577570198532e-12  1.4999999999956429e-01 3.7193908740411143e-13 -1.7833955284605395e-12  1.4999999999931024e-01 1.2833046731217593e-12 -1.1817689084521673e-12  1.5000000000060129e-01 -9.0726796033179873e-13 1.5517375342044240e-12  1.4999999999998984e-01 -1.3672304817245782e-13 -3.3244204659916133e-13  1.4999999999971306e-01 5.4681591252660009e-13 -5.5463814292040730e-13  1.5000000000018235e-01 -2.6976479635540839e-13 5.0966855858880276e-13  1.5000000000002187e-01 -1.0338973201877029e-13 -6.1693417098195105e-14  1.4999999999989794e-01 2.0425714408766831e-13 -2.0404639297528362e-13  1.5000000000005842e-01 -8.7514308585046931e-14 1.6925757138015128e-13  1.5000000000000785e-01 -4.0562270040299566e-14 -2.2119943843239986e-14  1.4999999999996660e-01 7.2522473358468385e-14 -6.3890982846312351e-14  1.5000000000002101e-01 -3.3749007411053996e-14 5.8280404141145425e-14  1.5000000000000011e-01 -9.5768882489064136e-15 -1.4099448058307338e-14  1.4999999999999006e-01 2.3686509974262121e-14 -1.5846123692524792e-14  1.5000000000000785e-01 -1.4734238223439883e-14 1.9650491352686881e-14  1.4999999999999833e-01 2.7230539010519536e-16 -8.0872700277447675e-15  1.4999999999999775e-01 6.7495950367759775e-15 -1.8008888951567291e-15  1.5000000000000277e-01 -6.0438374286568938e-15 5.8745824422184958e-15  1.4999999999999863e-01 1.9413951111763340e-15 -3.8165176982213770e-15  1.4999999999999999e-01 8.1425183367712634e-16 1.0919865264290184e-15  1.5000000000000047e-01 -1.7860009058544567e-15 1.0254275348515086e-15  1.4999999999999949e-01 9.5613063069023919e-16 -8.1756233510776293e-16  1.5000000000000027e-01 -4.5146657936935545e-16 9.4523126920507014e-16  1.5000000000000011e-01 2.0479328748703627e-17 -2.0236214343405848e-16  1.4999999999999991e-01 9.8437338747881794e-16 -1.4567354747599993e-16  1.5000000000000016e-01 -1.2843865143438297e-16 2.5705777731872941e-16  1.4999999999999999e-01 -2.6535470610827270e-17 -3.1911503282366835e-16  1.5000000000000005e-01 2.5724413224549366e-16 3.5663429967001046e-16  1.5000000000000005e-01 -1.9154626138654799e-16 -1.5527255123463798e-17  1.5000000000000005e-01 3.1295525288310416e-16 -3.1699511221184081e-16  1.5000000000000002e-01 -4.6926061059693025e-17 -2.7401294772219748e-17  1.5000000000000005e-01 -7.9354695484940522e-17 -3.3439410373577136e-16  1.4999999999999999e-01 1.6450273563908830e-16 1.7106941724646863e-16  1.4999999999999997e-01 1.5387367574479284e-16 -2.8854490027104063e-16  1.4999999999999983e-01 -4.3655802520609144e-16 2.2543751047460798e-16  1.5000000000000005e-01 1.3159984553689845e-16 -1.9570367687149320e-16  1.5000000000000005e-01 3.5423060051976446e-16 5.0014459310926760e-17  1.5000000000000016e-01 -9.9588670252951737e-17 2.7764403453941925e-16  1.5000000000000002e-01 -2.8164959267199882e-16 3.3004896589044085e-17  1.4999999999999999e-01 -3.9313887293246693e-16 7.9294033152135857e-17  1.5000000000000008e-01 -3.4248413055993011e-16 -6.4173932427638452e-17  1.5000000000000008e-01 0.0000000000000000e+00 -1.1775970745499099e-16  1.4999999999999902e-01 0.0000000000000000e+00 -2.3328703421917789e-15  1.5000000000000166e-01 1.8230258222615415e-15 3.0390721935880978e-15  1.4999999999999969e-01 -5.7509397205330428e-16 -2.5917585037880052e-16  1.4999999999999691e-01 -7.4735395289048264e-15 -6.9015111276670679e-15  1.5000000000000419e-01 9.5490597887264265e-15 9.2679619051189173e-15  1.5000000000000280e-01 9.8204161236211716e-15 7.1541084830510017e-15  1.4999999999998462e-01 -3.4569031046572905e-14 -3.7378850640749663e-14  1.5000000000000921e-01 3.6457981901330498e-15 1.8591028657075987e-14  1.5000000000005742e-01 1.4005366056859055e-14 1.5187346793712985e-13  1.5000000000009847e-01 -3.6143167909072656e-13 3.5247432023497886e-13  1.5000000000051394e-01 -7.4240927597757769e-13 1.7710276955740868e-12  1.5000000000157879e-01 -4.1446192560237841e-13 5.4980196277740191e-12  1.5000000000224092e-01 1.7028877599458698e-12 9.0908635947863310e-12  1.4999999999938887e-01 1.3006833685563238e-11 3.0181240959622459e-12  1.4999999998283084e-01 5.0243757898182129e-11 -4.6253841692122229e-11  1.4999999992443380e-01 1.3024753765729199e-10 -2.2925806847647474e-10  1.4999999977456319e-01 2.7526599134434375e-10 -7.0296240724104174e-10  1.4999999945998146e-01 5.5917151174046364e-10 -1.6917322635272740e-09  1.4999999884144224e-01 1.1690142054818130e-09 -3.6110524852767176e-09  1.4999999763629127e-01 2.4137180747014689e-09 -7.3282347865915122e-09  1.4999999542396003e-01 4.4603334246520042e-09 -1.4194613359135516e-08  1.4999999194346300e-01 6.5339030021723563e-09 -2.5073722532494013e-08  1.4999998786745405e-01 6.2908442465971831e-09 -3.7715870998386800e-08  1.4999998558157512e-01 1.3300902643070600e-09 -4.4272171253004962e-08  1.4999998825079675e-01 -7.1026051431422730e-09 -3.4729432583991496e-08  1.4999999627427285e-01 -1.2904575229794701e-08 -8.6115632622034404e-09  1.5000000474654498e-01 -1.0524794836769531e-08 1.7556584827680576e-08  1.5000000727549509e-01 -1.9396720839892670e-09 2.3700806141472868e-08  1.5000000344261855e-01 4.7569832060186791e-09 1.0010224270677324e-08  1.4999999932078498e-01 4.6900473216499739e-09 -3.1606588588196389e-09  1.4999999908353079e-01 1.0208471088216436e-09 -3.2008035309745744e-09  1.5000000033218844e-01 -8.7703338324496676e-10 1.0864162071280594e-09  1.4999999998572111e-01 -3.5045528035756651e-10 -1.2292406058569975e-10  1.4999999942070552e-01 3.6694213882653775e-11 -1.8260254853076032e-09  1.5000000030869146e-01 -3.1543292016118327e-10 1.1898365510199228e-09  1.5000000082488799e-01 -9.7254699358059299e-11 2.6617210230933356e-09  1.4999999975314615e-01 5.3440090341812237e-10 -1.0015518115452275e-09  1.4999999918797172e-01 2.9099700010989074e-10 -2.6555591896611117e-09  1.5000000015881210e-01 -4.6244212254747908e-10 6.7646581382806479e-10  1.5000000065250982e-01 -3.4947754995619072e-10 2.1399736109572380e-09  1.4999999987561868e-01 3.3452681429081749e-10 -5.1963960823378400e-10  1.4999999954070933e-01 2.9994385898558047e-10 -1.4987251553607191e-09  1.5000000012211051e-01 -2.3771758098230800e-10 4.7458997999582214e-10  1.5000000028807189e-01 -2.1076485166430326e-10 9.2814933734528191e-10  1.4999999987944468e-01 1.7551277417913117e-10 -4.3992579887541989e-10  1.4999999984307499e-01 1.2362443706530777e-10 -4.9375067645607278e-10  1.5000000010572109e-01 -1.3117153054086522e-10 3.6917626549611964e-10  1.5000000006762707e-01 -5.5647421672662958e-11 2.0217875280070230e-10  1.4999999992084548e-01 9.3194594992798501e-11 -2.6705552362830436e-10  1.4999999998465652e-01 1.1230395237868042e-11 -3.5771166889473540e-11  1.5000000004909375e-01 -5.8814519833626049e-11 1.6004549649559155e-10  1.4999999999162422e-01 1.1384865472818051e-11 -3.5771295442944058e-11  1.4999999997645452e-01 3.0209160702124046e-11 -7.3147268274323775e-11  1.5000000001367911e-01 -1.7469311289470975e-11 4.7916421402969827e-11  1.5000000000678942e-01 -1.0165598809978486e-11 1.8482965444847351e-11  1.4999999998988375e-01 1.3941146308301882e-11 -3.3091816319493594e-11  1.5000000000112493e-01 -5.8844078811325266e-13 5.7997021572629112e-12  1.5000000000464739e-01 -7.2945097948025468e-12 1.4081389932738845e-11  1.4999999999709643e-01 3.9012352093249909e-12 -1.0065916380707048e-11  1.4999999999917377e-01 1.8755698508328143e-12 -1.7578227126252769e-12  1.5000000000190267e-01 -3.0688331817389861e-12 5.9797255740592911e-12  1.4999999999933789e-01 7.3833545535438258e-13 -2.5314596973399786e-12  1.4999999999944702e-01 1.1649437578031140e-12 -1.4477275865414461e-12  1.5000000000065955e-01 -1.0861855610228720e-12 2.1193374115293842e-12  1.4999999999985847e-01 8.3204443137366183e-14 -6.3049862506753175e-13  1.4999999999977054e-01 4.9915800209039155e-13 -6.1547066142163152e-13  1.5000000000022085e-01 -3.7650024135942178e-13 7.1464461490041504e-13  1.4999999999995964e-01 8.3980018380844825e-15 -1.9787348828892933e-13  1.4999999999992242e-01 1.8324184292752960e-13 -2.0114174698660217e-13  1.5000000000007555e-01 -1.3789419901115342e-13 2.4028461253497857e-13  1.4999999999998093e-01 1.3023652047480446e-14 -8.4210830992438532e-14  1.4999999999997876e-01 5.8385987474643837e-14 -4.8479506521988225e-14  1.5000000000002572e-01 -5.2937045377472740e-14 7.7888998210252788e-14  1.4999999999998948e-01 1.4613475475498273e-14 -3.9548224560025802e-14  1.4999999999999666e-01 1.3649893299501663e-14 -2.6688293041410336e-15  1.5000000000000793e-01 -1.9043626692240111e-14 2.1556451588351437e-14  1.4999999999999467e-01 9.9960935643142484e-15 -1.6794574169925477e-14  1.5000000000000122e-01 -1.2042252672367979e-16 5.5076150591958583e-15  1.5000000000000174e-01 -5.0171804926357925e-15 3.2835799288263635