<?xml version="1.0"?>
<VTKFile type="UnstructuredGrid"  version="0.1"  >
<UnstructuredGrid>
<Piece  NumberOfPoints="10201" NumberOfCells="20000">
<Points>
<DataArray  type="Float64"  NumberOfComponents="3"  format="ascii">-5 -5 0  -4.9 -5 0  -4.8 -5 0  -4.7 -5 0  -4.6 -5 0  -4.5 -5 0  -4.4 -5 0  -4.3 -5 0  -4.2 -5 0  -4.1 -5 0  -4 -5 0  -3.9 -5 0  -3.8 -5 0  -3.7 -5 0  -3.6 -5 0  -3.5 -5 0  -3.4 -5 0  -3.3 -5 0  -3.2 -5 0  -3.1 -5 0  -3 -5 0  -2.9 -5 0  -2.8 -5 0  -2.7 -5 0  -2.6 -5 0  -2.5 -5 0  -2.4 -5 0  -2.3 -5 0  -2.2 -5 0  -2.1 -5 0  -2 -5 0  -1.9 -5 0  -1.8 -5 0  -1.7 -5 0  -1.6 -5 0  -1.5 -5 0  -1.4 -5 0  -1.3 -5 0  -1.2 -5 0  -1.1 -5 0  -1 -5 0  -0.9000000000000004 -5 0  -0.7999999999999998 -5 0  -0.7000000000000002 -5 0  -0.5999999999999996 -5 0  -0.5 -5 0  -0.4000000000000004 -5 0  -0.2999999999999998 -5 0  -0.2000000000000002 -5 0  -0.09999999999999964 -5 0  0 -5 0  0.09999999999999964 -5 0  0.2000000000000002 -5 0  0.2999999999999998 -5 0  0.4000000000000004 -5 0  0.5 -5 0  0.5999999999999996 -5 0  0.7000000000000002 -5 0  0.7999999999999998 -5 0  0.9000000000000004 -5 0  1 -5 0  1.1 -5 0  1.2 -5 0  1.3 -5 0  1.4 -5 0  1.5 -5 0  1.6 -5 0  1.7 -5 0  1.8 -5 0  1.9 -5 0  2 -5 0  2.1 -5 0  2.2 -5 0  2.3 -5 0  2.4 -5 0  2.5 -5 0  2.6 -5 0  2.7 -5 0  2.8 -5 0  2.9 -5 0  3 -5 0  3.1 -5 0  3.199999999999999 -5 0  3.300000000000001 -5 0  3.4 -5 0  3.5 -5 0  3.6 -5 0  3.699999999999999 -5 0  3.800000000000001 -5 0  3.9 -5 0  4 -5 0  4.1 -5 0  4.199999999999999 -5 0  4.300000000000001 -5 0  4.4 -5 0  4.5 -5 0  4.6 -5 0  4.699999999999999 -5 0  4.800000000000001 -5 0  4.9 -5 0  5 -5 0  -5 -4.9 0  -4.9 -4.9 0  -4.8 -4.9 0  -4.7 -4.9 0  -4.6 -4.9 0  -4.5 -4.9 0  -4.4 -4.9 0  -4.3 -4.9 0  -4.2 -4.9 0  -4.1 -4.9 0  -4 -4.9 0  -3.9 -4.9 0  -3.8 -4.9 0  -3.7 -4.9 0  -3.6 -4.9 0  -3.5 -4.9 0  -3.4 -4.9 0  -3.3 -4.9 0  -3.2 -4.9 0  -3.1 -4.9 0  -3 -4.9 0  -2.9 -4.9 0  -2.8 -4.9 0  -2.7 -4.9 0  -2.6 -4.9 0  -2.5 -4.9 0  -2.4 -4.9 0  -2.3 -4.9 0  -2.2 -4.9 0  -2.1 -4.9 0  -2 -4.9 0  -1.9 -4.9 0  -1.8 -4.9 0  -1.7 -4.9 0  -1.6 -4.9 0  -1.5 -4.9 0  -1.4 -4.9 0  -1.3 -4.9 0  -1.2 -4.9 0  -1.1 -4.9 0  -1 -4.9 0  -0.9000000000000004 -4.9 0  -0.7999999999999998 -4.9 0  -0.7000000000000002 -4.9 0  -0.5999999999999996 -4.9 0  -0.5 -4.9 0  -0.4000000000000004 -4.9 0  -0.2999999999999998 -4.9 0  -0.2000000000000002 -4.9 0  -0.09999999999999964 -4.9 0  0 -4.9 0  0.09999999999999964 -4.9 0  0.2000000000000002 -4.9 0  0.2999999999999998 -4.9 0  0.4000000000000004 -4.9 0  0.5 -4.9 0  0.5999999999999996 -4.9 0  0.7000000000000002 -4.9 0  0.7999999999999998 -4.9 0  0.9000000000000004 -4.9 0  1 -4.9 0  1.1 -4.9 0  1.2 -4.9 0  1.3 -4.9 0  1.4 -4.9 0  1.5 -4.9 0  1.6 -4.9 0  1.7 -4.9 0  1.8 -4.9 0  1.9 -4.9 0  2 -4.9 0  2.1 -4.9 0  2.2 -4.9 0  2.3 -4.9 0  2.4 -4.9 0  2.5 -4.9 0  2.6 -4.9 0  2.7 -4.9 0  2.8 -4.9 0  2.9 -4.9 0  3 -4.9 0  3.1 -4.9 0  3.199999999999999 -4.9 0  3.300000000000001 -4.9 0  3.4 -4.9 0  3.5 -4.9 0  3.6 -4.9 0  3.699999999999999 -4.9 0  3.800000000000001 -4.9 0  3.9 -4.9 0  4 -4.9 0  4.1 -4.9 0  4.199999999999999 -4.9 0  4.300000000000001 -4.9 0  4.4 -4.9 0  4.5 -4.9 0  4.6 -4.9 0  4.699999999999999 -4.9 0  4.800000000000001 -4.9 0  4.9 -4.9 0  5 -4.9 0  -5 -4.8 0  -4.9 -4.8 0  -4.8 -4.8 0  -4.7 -4.8 0  -4.6 -4.8 0  -4.5 -4.8 0  -4.4 -4.8 0  -4.3 -4.8 0  -4.2 -4.8 0  -4.1 -4.8 0  -4 -4.8 0  -3.9 -4.8 0  -3.8 -4.8 0  -3.7 -4.8 0  -3.6 -4.8 0  -3.5 -4.8 0  -3.4 -4.8 0  -3.3 -4.8 0  -3.2 -4.8 0  -3.1 -4.8 0  -3 -4.8 0  -2.9 -4.8 0  -2.8 -4.8 0  -2.7 -4.8 0  -2.6 -4.8 0  -2.5 -4.8 0  -2.4 -4.8 0  -2.3 -4.8 0  -2.2 -4.8 0  -2.1 -4.8 0  -2 -4.8 0  -1.9 -4.8 0  -1.8 -4.8 0  -1.7 -4.8 0  -1.6 -4.8 0  -1.5 -4.8 0  -1.4 -4.8 0  -1.3 -4.8 0  -1.2 -4.8 0  -1.1 -4.8 0  -1 -4.8 0  -0.9000000000000004 -4.8 0  -0.7999999999999998 -4.8 0  -0.7000000000000002 -4.8 0  -0.5999999999999996 -4.8 0  -0.5 -4.8 0  -0.4000000000000004 -4.8 0  -0.2999999999999998 -4.8 0  -0.2000000000000002 -4.8 0  -0.09999999999999964 -4.8 0  0 -4.8 0  0.09999999999999964 -4.8 0  0.2000000000000002 -4.8 0  0.2999999999999998 -4.8 0  0.4000000000000004 -4.8 0  0.5 -4.8 0  0.5999999999999996 -4.8 0  0.7000000000000002 -4.8 0  0.7999999999999998 -4.8 0  0.9000000000000004 -4.8 0  1 -4.8 0  1.1 -4.8 0  1.2 -4.8 0  1.3 -4.8 0  1.4 -4.8 0  1.5 -4.8 0  1.6 -4.8 0  1.7 -4.8 0  1.8 -4.8 0  1.9 -4.8 0  2 -4.8 0  2.1 -4.8 0  2.2 -4.8 0  2.3 -4.8 0  2.4 -4.8 0  2.5 -4.8 0  2.6 -4.8 0  2.7 -4.8 0  2.8 -4.8 0  2.9 -4.8 0  3 -4.8 0  3.1 -4.8 0  3.199999999999999 -4.8 0  3.300000000000001 -4.8 0  3.4 -4.8 0  3.5 -4.8 0  3.6 -4.8 0  3.699999999999999 -4.8 0  3.800000000000001 -4.8 0  3.9 -4.8 0  4 -4.8 0  4.1 -4.8 0  4.199999999999999 -4.8 0  4.300000000000001 -4.8 0  4.4 -4.8 0  4.5 -4.8 0  4.6 -4.8 0  4.699999999999999 -4.8 0  4.800000000000001 -4.8 0  4.9 -4.8 0  5 -4.8 0  -5 -4.7 0  -4.9 -4.7 0  -4.8 -4.7 0  -4.7 -4.7 0  -4.6 -4.7 0  -4.5 -4.7 0  -4.4 -4.7 0  -4.3 -4.7 0  -4.2 -4.7 0  -4.1 -4.7 0  -4 -4.7 0  -3.9 -4.7 0  -3.8 -4.7 0  -3.7 -4.7 0  -3.6 -4.7 0  -3.5 -4.7 0  -3.4 -4.7 0  -3.3 -4.7 0  -3.2 -4.7 0  -3.1 -4.7 0  -3 -4.7 0  -2.9 -4.7 0  -2.8 -4.7 0  -2.7 -4.7 0  -2.6 -4.7 0  -2.5 -4.7 0  -2.4 -4.7 0  -2.3 -4.7 0  -2.2 -4.7 0  -2.1 -4.7 0  -2 -4.7 0  -1.9 -4.7 0  -1.8 -4.7 0  -1.7 -4.7 0  -1.6 -4.7 0  -1.5 -4.7 0  -1.4 -4.7 0  -1.3 -4.7 0  -1.2 -4.7 0  -1.1 -4.7 0  -1 -4.7 0  -0.9000000000000004 -4.7 0  -0.7999999999999998 -4.7 0  -0.7000000000000002 -4.7 0  -0.5999999999999996 -4.7 0  -0.5 -4.7 0  -0.4000000000000004 -4.7 0  -0.2999999999999998 -4.7 0  -0.2000000000000002 -4.7 0  -0.09999999999999964 -4.7 0  0 -4.7 0  0.09999999999999964 -4.7 0  0.2000000000000002 -4.7 0  0.2999999999999998 -4.7 0  0.4000000000000004 -4.7 0  0.5 -4.7 0  0.5999999999999996 -4.7 0  0.7000000000000002 -4.7 0  0.7999999999999998 -4.7 0  0.9000000000000004 -4.7 0  1 -4.7 0  1.1 -4.7 0  1.2 -4.7 0  1.3 -4.7 0  1.4 -4.7 0  1.5 -4.7 0  1.6 -4.7 0  1.7 -4.7 0  1.8 -4.7 0  1.9 -4.7 0  2 -4.7 0  2.1 -4.7 0  2.2 -4.7 0  2.3 -4.7 0  2.4 -4.7 0  2.5 -4.7 0  2.6 -4.7 0  2.7 -4.7 0  2.8 -4.7 0  2.9 -4.7 0  3 -4.7 0  3.1 -4.7 0  3.199999999999999 -4.7 0  3.300000000000001 -4.7 0  3.4 -4.7 0  3.5 -4.7 0  3.6 -4.7 0  3.699999999999999 -4.7 0  3.800000000000001 -4.7 0  3.9 -4.7 0  4 -4.7 0  4.1 -4.7 0  4.199999999999999 -4.7 0  4.300000000000001 -4.7 0  4.4 -4.7 0  4.5 -4.7 0  4.6 -4.7 0  4.699999999999999 -4.7 0  4.800000000000001 -4.7 0  4.9 -4.7 0  5 -4.7 0  -5 -4.6 0  -4.9 -4.6 0  -4.8 -4.6 0  -4.7 -4.6 0  -4.6 -4.6 0  -4.5 -4.6 0  -4.4 -4.6 0  -4.3 -4.6 0  -4.2 -4.6 0  -4.1 -4.6 0  -4 -4.6 0  -3.9 -4.6 0  -3.8 -4.6 0  -3.7 -4.6 0  -3.6 -4.6 0  -3.5 -4.6 0  -3.4 -4.6 0  -3.3 -4.6 0  -3.2 -4.6 0  -3.1 -4.6 0  -3 -4.6 0  -2.9 -4.6 0  -2.8 -4.6 0  -2.7 -4.6 0  -2.6 -4.6 0  -2.5 -4.6 0  -2.4 -4.6 0  -2.3 -4.6 0  -2.2 -4.6 0  -2.1 -4.6 0  -2 -4.6 0  -1.9 -4.6 0  -1.8 -4.6 0  -1.7 -4.6 0  -1.6 -4.6 0  -1.5 -4.6 0  -1.4 -4.6 0  -1.3 -4.6 0  -1.2 -4.6 0  -1.1 -4.6 0  -1 -4.6 0  -0.9000000000000004 -4.6 0  -0.7999999999999998 -4.6 0  -0.7000000000000002 -4.6 0  -0.5999999999999996 -4.6 0  -0.5 -4.6 0  -0.4000000000000004 -4.6 0  -0.2999999999999998 -4.6 0  -0.2000000000000002 -4.6 0  -0.09999999999999964 -4.6 0  0 -4.6 0  0.09999999999999964 -4.6 0  0.2000000000000002 -4.6 0  0.2999999999999998 -4.6 0  0.4000000000000004 -4.6 0  0.5 -4.6 0  0.5999999999999996 -4.6 0  0.7000000000000002 -4.6 0  0.7999999999999998 -4.6 0  0.9000000000000004 -4.6 0  1 -4.6 0  1.1 -4.6 0  1.2 -4.6 0  1.3 -4.6 0  1.4 -4.6 0  1.5 -4.6 0  1.6 -4.6 0  1.7 -4.6 0  1.8 -4.6 0  1.9 -4.6 0  2 -4.6 0  2.1 -4.6 0  2.2 -4.6 0  2.3 -4.6 0  2.4 -4.6 0  2.5 -4.6 0  2.6 -4.6 0  2.7 -4.6 0  2.8 -4.6 0  2.9 -4.6 0  3 -4.6 0  3.1 -4.6 0  3.199999999999999 -4.6 0  3.300000000000001 -4.6 0  3.4 -4.6 0  3.5 -4.6 0  3.6 -4.6 0  3.699999999999999 -4.6 0  3.800000000000001 -4.6 0  3.9 -4.6 0  4 -4.6 0  4.1 -4.6 0  4.199999999999999 -4.6 0  4.300000000000001 -4.6 0  4.4 -4.6 0  4.5 -4.6 0  4.6 -4.6 0  4.699999999999999 -4.6 0  4.800000000000001 -4.6 0  4.9 -4.6 0  5 -4.6 0  -5 -4.5 0  -4.9 -4.5 0  -4.8 -4.5 0  -4.7 -4.5 0  -4.6 -4.5 0  -4.5 -4.5 0  -4.4 -4.5 0  -4.3 -4.5 0  -4.2 -4.5 0  -4.1 -4.5 0  -4 -4.5 0  -3.9 -4.5 0  -3.8 -4.5 0  -3.7 -4.5 0  -3.6 -4.5 0  -3.5 -4.5 0  -3.4 -4.5 0  -3.3 -4.5 0  -3.2 -4.5 0  -3.1 -4.5 0  -3 -4.5 0  -2.9 -4.5 0  -2.8 -4.5 0  -2.7 -4.5 0  -2.6 -4.5 0  -2.5 -4.5 0  -2.4 -4.5 0  -2.3 -4.5 0  -2.2 -4.5 0  -2.1 -4.5 0  -2 -4.5 0  -1.9 -4.5 0  -1.8 -4.5 0  -1.7 -4.5 0  -1.6 -4.5 0  -1.5 -4.5 0  -1.4 -4.5 0  -1.3 -4.5 0  -1.2 -4.5 0  -1.1 -4.5 0  -1 -4.5 0  -0.9000000000000004 -4.5 0  -0.7999999999999998 -4.5 0  -0.7000000000000002 -4.5 0  -0.5999999999999996 -4.5 0  -0.5 -4.5 0  -0.4000000000000004 -4.5 0  -0.2999999999999998 -4.5 0  -0.2000000000000002 -4.5 0  -0.09999999999999964 -4.5 0  0 -4.5 0  0.09999999999999964 -4.5 0  0.2000000000000002 -4.5 0  0.2999999999999998 -4.5 0  0.4000000000000004 -4.5 0  0.5 -4.5 0  0.5999999999999996 -4.5 0  0.7000000000000002 -4.5 0  0.7999999999999998 -4.5 0  0.9000000000000004 -4.5 0  1 -4.5 0  1.1 -4.5 0  1.2 -4.5 0  1.3 -4.5 0  1.4 -4.5 0  1.5 -4.5 0  1.6 -4.5 0  1.7 -4.5 0  1.8 -4.5 0  1.9 -4.5 0  2 -4.5 0  2.1 -4.5 0  2.2 -4.5 0  2.3 -4.5 0  2.4 -4.5 0  2.5 -4.5 0  2.6 -4.5 0  2.7 -4.5 0  2.8 -4.5 0  2.9 -4.5 0  3 -4.5 0  3.1 -4.5 0  3.199999999999999 -4.5 0  3.300000000000001 -4.5 0  3.4 -4.5 0  3.5 -4.5 0  3.6 -4.5 0  3.699999999999999 -4.5 0  3.800000000000001 -4.5 0  3.9 -4.5 0  4 -4.5 0  4.1 -4.5 0  4.199999999999999 -4.5 0  4.300000000000001 -4.5 0  4.4 -4.5 0  4.5 -4.5 0  4.6 -4.5 0  4.699999999999999 -4.5 0  4.800000000000001 -4.5 0  4.9 -4.5 0  5 -4.5 0  -5 -4.4 0  -4.9 -4.4 0  -4.8 -4.4 0  -4.7 -4.4 0  -4.6 -4.4 0  -4.5 -4.4 0  -4.4 -4.4 0  -4.3 -4.4 0  -4.2 -4.4 0  -4.1 -4.4 0  -4 -4.4 0  -3.9 -4.4 0  -3.8 -4.4 0  -3.7 -4.4 0  -3.6 -4.4 0  -3.5 -4.4 0  -3.4 -4.4 0  -3.3 -4.4 0  -3.2 -4.4 0  -3.1 -4.4 0  -3 -4.4 0  -2.9 -4.4 0  -2.8 -4.4 0  -2.7 -4.4 0  -2.6 -4.4 0  -2.5 -4.4 0  -2.4 -4.4 0  -2.3 -4.4 0  -2.2 -4.4 0  -2.1 -4.4 0  -2 -4.4 0  -1.9 -4.4 0  -1.8 -4.
[...]
<PointData  Vectors="f_23"> 
<DataArray  type="Float64"  Name="f_23"  NumberOfComponents="3" format="ascii">1.4999999999999997e-01 0.0000000000000000e+00 0.0000000000000000e+00  1.5000000000000022e-01 2.3061385111738899e-31 0.0000000000000000e+00  1.5000000000000002e-01 6.6845243677746981e-33 0.0000000000000000e+00  1.5000000000000044e-01 2.1382143570993525e-32 0.0000000000000000e+00  1.5000000000000027e-01 4.4084291632896631e-33 0.0000000000000000e+00  1.5000000000000022e-01 5.9900515260719052e-32 0.0000000000000000e+00  1.5000000000000077e-01 7.2480129126336607e-31 0.0000000000000000e+00  1.5000000000000607e-01 1.9269416155191917e-29 0.0000000000000000e+00  1.5000000000002980e-01 3.9218948547284743e-28 0.0000000000000000e+00  1.5000000000010705e-01 2.2490331760528274e-27 0.0000000000000000e+00  1.5000000000029559e-01 3.1140315679744211e-27 0.0000000000000000e+00  1.5000000000059491e-01 3.7283474046176330e-28 0.0000000000000000e+00  1.5000000000096236e-01 2.6160354235132564e-26 0.0000000000000000e+00  1.5000000000189964e-01 1.8758873304460786e-25 0.0000000000000000e+00  1.5000000000674676e-01 2.6971893559209065e-23 0.0000000000000000e+00  1.5000000002729427e-01 4.6548155892498940e-22 0.0000000000000000e+00  1.5000000008924888e-01 3.1676613569709449e-21 0.0000000000000000e+00  1.5000000022020732e-01 9.7456691069593487e-21 0.0000000000000000e+00  1.5000000039760483e-01 1.0050167615062344e-20 0.0000000000000000e+00  1.5000000047185916e-01 3.2910618471250362e-22 0.0000000000000000e+00  1.5000000016236867e-01 8.5591629789985670e-20 0.0000000000000000e+00  1.4999999925826255e-01 3.6969866355542507e-19 0.0000000000000000e+00  1.4999999798269634e-01 4.8310933750022845e-19 0.0000000000000000e+00  1.4999999712587442e-01 1.1666870660408307e-19 0.0000000000000000e+00  1.4999999751062429e-01 1.0929632396664189e-19 0.0000000000000000e+00  1.4999999909365816e-01 7.5945218201098316e-19 0.0000000000000000e+00  1.5000000079936002e-01 7.8080710077383229e-19 0.0000000000000000e+00  1.5000000153532952e-01 1.5414209208140797e-19 0.0000000000000000e+00  1.5000000118402501e-01 4.0689885582549945e-20 0.0000000000000000e+00  1.5000000034712530e-01 2.4809880987383299e-19 0.0000000000000000e+00  1.4999999956838614e-01 1.4426632982924529e-19 0.0000000000000000e+00  1.4999999925315635e-01 6.7179889898727560e-22 0.0000000000000000e+00  1.4999999969009600e-01 6.2215930058468515e-20 0.0000000000000000e+00  1.5000000045548670e-01 5.0741924759578614e-20 0.0000000000000000e+00  1.5000000054930637e-01 7.1545822590050257e-22 0.0000000000000000e+00  1.4999999985932735e-01 3.7324378979030690e-20 0.0000000000000000e+00  1.4999999950048351e-01 7.0621831535543068e-21 0.0000000000000000e+00  1.4999999998123442e-01 1.2539238564470587e-20 0.0000000000000000e+00  1.5000000037203418e-01 1.1056181375443235e-20 0.0000000000000000e+00  1.5000000005822772e-01 2.9156933082233587e-21 0.0000000000000000e+00  1.4999999974426562e-01 7.8588668894340934e-21 0.0000000000000000e+00  1.4999999995753091e-01 6.7223681087011405e-22 0.0000000000000000e+00  1.5000000016901610e-01 4.1282901909831387e-21 0.0000000000000000e+00  1.5000000001409466e-01 2.6038428686061848e-22 0.0000000000000000e+00  1.4999999989313800e-01 1.8106887698915592e-21 0.0000000000000000e+00  1.5000000000784966e-01 1.9102268372897379e-22 0.0000000000000000e+00  1.5000000006227404e-01 6.5606507772708942e-22 0.0000000000000000e+00  1.4999999998159697e-01 1.6616439370171647e-22 0.0000000000000000e+00  1.4999999996880550e-01 1.7423097811017021e-22 0.0000000000000000e+00  1.5000000001925812e-01 1.2086897577606430e-22 0.0000000000000000e+00  1.5000000001142627e-01 2.3632035157283815e-23 0.0000000000000000e+00  1.4999999998550853e-01 6.3423021124349172e-23 0.0000000000000000e+00  1.4999999999907490e-01 1.4209262533288494e-26 0.0000000000000000e+00  1.5000000000816568e-01 2.1182456293931641e-23 0.0000000000000000e+00  1.4999999999709859e-01 3.1020269856131515e-24 0.0000000000000000e+00  1.4999999999696770e-01 3.3292705872498912e-24 0.0000000000000000e+00  1.5000000000292138e-01 3.2256576978297261e-24 0.0000000000000000e+00  1.5000000000015437e-01 2.0564336551709546e-26 0.0000000000000000e+00  1.4999999999841904e-01 1.0932967458003605e-24 0.0000000000000000e+00  1.5000000000075811e-01 2.2247772678712182e-25 0.0000000000000000e+00  1.5000000000038463e-01 8.9279010167427424e-26 0.0000000000000000e+00  1.4999999999939845e-01 1.7609336416344124e-25 0.0000000000000000e+00  1.5000000000016384e-01 8.3734411316274743e-27 0.0000000000000000e+00  1.5000000000019975e-01 2.6436068763507708e-26 0.0000000000000000e+00  1.4999999999979313e-01 2.2570966427095954e-26 0.0000000000000000e+00  1.5000000000003702e-01 2.2422193036071873e-28 0.0000000000000000e+00  1.5000000000007663e-01 4.4648149575750407e-27 0.0000000000000000e+00  1.4999999999992944e-01 2.9628840072920509e-27 0.0000000000000000e+00  1.5000000000001326e-01 3.0987250517008595e-29 0.0000000000000000e+00  1.5000000000002520e-01 5.4414845664578003e-28 0.0000000000000000e+00  1.4999999999997532e-01 4.2837889348482014e-28 0.0000000000000000e+00  1.5000000000000757e-01 1.8853990814850399e-29 0.0000000000000000e+00  1.5000000000000621e-01 4.2428678597852611e-29 0.0000000000000000e+00  1.4999999999999189e-01 6.3866184323149658e-29 0.0000000000000000e+00  1.5000000000000441e-01 1.0333942078019905e-29 0.0000000000000000e+00  1.5000000000000097e-01 7.4472898337983209e-31 0.0000000000000000e+00  1.4999999999999833e-01 5.1201809601488160e-30 0.0000000000000000e+00  1.5000000000000216e-01 1.5825561419969253e-30 0.0000000000000000e+00  1.4999999999999925e-01 1.2323731802393781e-32 0.0000000000000000e+00  1.5000000000000022e-01 1.9547520522431129e-31 0.0000000000000000e+00  1.5000000000000077e-01 5.7346605982968930e-31 0.0000000000000000e+00  1.4999999999999983e-01 6.2439539805964792e-31 0.0000000000000000e+00  1.4999999999999974e-01 5.4956920384081017e-32 0.0000000000000000e+00  1.5000000000000030e-01 1.6691442948562101e-33 0.0000000000000000e+00  1.4999999999999991e-01 3.9168102646593741e-32 0.0000000000000000e+00  1.5000000000000005e-01 7.5382185050110820e-34 0.0000000000000000e+00  1.5000000000000058e-01 1.2006562553119033e-31 0.0000000000000000e+00  1.5000000000000036e-01 3.8615541379595614e-32 0.0000000000000000e+00  1.5000000000000013e-01 1.5072579546107839e-32 0.0000000000000000e+00  1.5000000000000011e-01 7.3823687570376494e-32 0.0000000000000000e+00  1.5000000000000011e-01 4.2623425366779201e-32 0.0000000000000000e+00  1.4999999999999980e-01 1.8968418038985285e-34 0.0000000000000000e+00  1.4999999999999991e-01 4.7969661998191494e-33 0.0000000000000000e+00  1.4999999999999980e-01 2.1292807883053227e-32 0.0000000000000000e+00  1.4999999999999997e-01 1.5378847472255826e-32 0.0000000000000000e+00  1.5000000000000036e-01 6.0874123855215808e-32 0.0000000000000000e+00  1.4999999999999974e-01 2.1365872551320682e-31 0.0000000000000000e+00  1.5000000000000041e-01 3.0484915941195210e-35 0.0000000000000000e+00  1.4999999999999991e-01 2.4193684958658560e-32 0.0000000000000000e+00  1.5000000000000030e-01 5.2661391297164092e-36 0.0000000000000000e+00  1.4999999999999997e-01 0.0000000000000000e+00 0.0000000000000000e+00  1.5000000000000022e-01 0.0000000000000000e+00 1.4010841940106047e-35  1.5000000000000019e-01 1.6610168384895122e-32 1.8658759334779395e-33  1.5000000000000036e-01 1.9675061629493768e-33 3.3336914750651550e-33  1.5000000000000027e-01 8.1941984357826069e-36 3.1157978631668686e-33  1.5000000000000041e-01 1.5314794481946488e-31 3.4220021389403868e-32  1.5000000000000061e-01 1.1079514060154875e-31 9.2504448152448032e-32  1.5000000000000069e-01 8.1369663716312271e-31 2.8762199370658864e-31  1.4999999999999691e-01 9.4078474112879583e-30 5.3772852450018335e-30  1.4999999999997984e-01 2.0749752953635191e-28 3.7196497057414161e-28  1.4999999999991642e-01 2.2977696934820159e-27 6.8770816253937516e-27  1.4999999999973337e-01 7.6819716414560740e-27 7.3679745449178990e-26  1.4999999999936586e-01 4.9555477628523947e-27 4.4294425519731945e-25  1.4999999999883673e-01 4.4334668444043659e-27 1.6265696189057720e-24  1.4999999999795735e-01 2.6224054603175629e-28 4.9795083691405051e-24  1.4999999999475305e-01 7.0753639157935919e-24 2.5694411990445769e-23  1.4999999998077179e-01 2.1732387454964981e-22 2.8264062874372758e-22  1.4999999993347837e-01 2.1386095945218189e-21 3.1722841173835384e-21  1.4999999981834472e-01 9.3083154940283148e-21 2.2867048007050817e-20  1.4999999962809615e-01 1.6410822649062119e-20 9.1118022990506613e-20  1.4999999946721054e-01 3.1246121893557213e-21 1.6780403675378228e-19  1.4999999960942265e-01 3.9779848188369471e-20 5.7635689262033721e-20  1.5000000037351649e-01 3.4076745758177698e-19 1.9974383816111882e-19  1.5000000174819761e-01 6.8985634864794662e-19 2.4662804104907819e-18  1.5000000305630801e-01 3.8176942003392739e-19 6.2410826141071452e-18  1.5000000323859389e-01 6.4946963683205293e-21 5.6955188491674655e-18  1.5000000184989601e-01 7.0217585461217421e-19 1.0855639362152874e-18  1.4999999974633901e-01 1.2186086017024448e-18 4.2536164350613187e-19  1.4999999837509498e-01 5.1321794134918410e-19 2.3179533755150339e-18  1.4999999835613717e-01 2.8569732181985046e-22 1.6073390253744378e-18  1.4999999918667628e-01 2.4993270204767857e-19 2.2181801835468011e-19  1.5000000016239279e-01 3.0927041013278471e-19 8.8249514794395009e-20  1.5000000081534012e-01 4.4114520606012464e-20 5.3108071220223535e-19  1.5000000068180303e-01 4.3335404294177455e-20 2.4397102826947290e-19  1.4999999979900350e-01 1.0727424863921754e-19 8.4647547216588688e-20  1.4999999923647409e-01 6.8066149264733172e-21 4.4404915052602868e-19  1.4999999979462056e-01 3.7722134743145732e-20 5.6282015154516530e-21  1.5000000056566826e-01 2.8600699005921055e-20 2.9484241145287713e-19  1.5000000032653629e-01 4.2145474400723902e-21 4.6682952777698644e-20  1.4999999963206462e-01 2.2744411411751943e-20 1.4306334201327047e-19  1.4999999970796027e-01 3.2780133729159988e-24 4.5261078990640317e-20  1.5000000023836949e-01 1.1767816424524103e-20 6.4874263698922189e-20  1.5000000020690996e-01 4.9407351437215863e-22 2.3463752468517436e-20  1.4999999983687062e-01 5.3490851331236152e-21 3.0414949236901246e-20  1.4999999987678270e-01 4.1805234889961589e-22 7.6692575840480082e-21  1.5000000011599060e-01 2.4208567102304640e-21 1.4444940446151519e-20  1.5000000005918473e-01 1.3570863305416943e-22 1.3163198088819055e-21  1.4999999991939036e-01 1.0965415412013613e-21 6.3132986948131631e-21  1.4999999998222183e-01 8.9556594459398529e-24 1.6951408377144421e-23  1.5000000005119338e-01 4.5622222656157019e-22 2.2388803574756107e-21  1.4999999999602207e-01 7.9022798838898384e-24 1.2092285320061649e-22  1.4999999997240401e-01 1.5059101181303332e-22 5.4097531547143697e-22  1.5000000001140329e-01 2.7673517637761938e-23 1.9661326797218587e-22  1.5000000001101285e-01 3.0580511668898478e-23 5.8021421612251859e-23  1.4999999998957650e-01 2.5336654486911533e-23 1.1233157980702610e-22  1.4999999999838881e-01 1.5069520682934390e-24 1.2472292046863777e-25  1.5000000000622568e-01 1.1324501517940517e-23 2.9897672200479309e-23  1.4999999999798913e-01 6.4564183569719522e-25 7.5013894655811709e-24  1.4999999999773031e-01 2.2175336107176022e-24 2.2668827893820461e-24  1.5000000000218272e-01 1.3899228550688559e-24 4.7815284945400006e-24  1.5000000000001382e-01 3.8557627127305544e-26 1.5834368066329123e-25  1.4999999999888319e-01 5.5069219177629667e-25 7.9404243026512522e-25  1.5000000000062835e-01 1.0013029070668559e-25 5.1199315588063101e-25  1.5000000000019012e-01 4.2555535482573529e-26 3.5861785126290326e-28  1.4999999999957137e-01 8.5519033106921953e-26 1.3616494194887874e-25  1.5000000000017613e-01 6.0590008969014239e-27 5.1279198535323793e-26  1.5000000000009656e-01 1.0136216413773811e-26 1.0770107237072380e-27  1.4999999999984912e-01 1.1655149991127271e-26 1.7795370936225921e-26  1.5000000000005734e-01 5.8253851300006767e-28 5.9683045630468037e-27  1.5000000000003300e-01 1.4266666514404679e-27 8.0909055652483404e-29  1.4999999999994837e-01 1.6182931576312301e-27 1.9467035081323486e-27  1.5000000000002309e-01 1.2622372699301863e-28 8.5627707028630925e-28  1.5000000000000741e-01 1.2522202134937508e-28 2.3959359943094669e-30  1.4999999999998354e-01 2.2292745452934768e-28 1.5798736462624626e-28  1.5000000000000993e-01 4.0365976678102727e-29 1.1506174200406971e-28  1.4999999999999980e-01 3.0459826137305090e-30 1.0295315677632007e-29  1.4999999999999572e-01 2.1238339299219637e-29 6.5115685192573343e-30  1.5000000000000396e-01 1.2917437213806227e-29 1.3457965701389306e-29  1.4999999999999858e-01 1.0163941328692615e-30 4.6998700511602595e-30  1.5000000000000011e-01 1.1627833382172757e-30 2.4649351098593239e-33  1.5000000000000116e-01 1.3939030027933621e-30 8.5791563109018833e-31  1.4999999999999933e-01 9.9239911517644920e-31 6.2899714441822995e-31  1.5000000000000069e-01 3.2293060666405576e-32 2.0981731928852176e-31  1.5000000000000013e-01 1.3066180744791853e-31 7.3546906317265034e-34  1.4999999999999997e-01 3.2798048561213854e-32 8.8308748731720922e-32  1.5000000000000049e-01 1.8233508877407200e-31 3.6394372649901307e-32  1.5000000000000013e-01 1.9234558684071100e-33 2.1380901783161052e-33  1.5000000000000005e-01 2.4617246605170701e-31 4.1438424322102892e-32  1.5000000000000011e-01 2.8076543296424061e-32 3.1089850140761862e-32  1.5000000000000011e-01 3.7184634917374886e-33 8.0653504826333837e-32  1.5000000000000011e-01 2.4243179503475324e-32 1.3382614135564463e-32  1.4999999999999997e-01 2.4167310311314755e-32 2.1249122134196761e-32  1.5000000000000005e-01 1.5781227216029065e-33 1.0240491291026959e-33  1.5000000000000013e-01 6.2072604661631750e-32 5.5381331547164648e-33  1.5000000000000044e-01 3.3239401666524114e-32 9.4273510024322347e-33  1.5000000000000044e-01 7.8286167570589398e-33 7.5570614931554020e-33  1.5000000000000013e-01 1.2457929456280556e-31 1.0911925075402639e-33  1.5000000000000022e-01 1.1465357622236467e-32 1.2899504902241739e-31  1.5000000000000022e-01 4.1876473954061018e-32 2.2808378398185090e-34  1.5000000000000002e-01 1.2064315973818154e-32 1.1340204976540050e-32  1.5000000000000052e-01 1.0677510864128731e-32 2.0050174557018763e-37  1.5000000000000011e-01 0.0000000000000000e+00 7.3034445504375024e-33  1.5000000000000011e-01 0.0000000000000000e+00 2.0329172883291013e-32  1.5000000000000013e-01 9.7975150278632618e-33 2.7607420062388208e-32  1.5000000000000027e-01 9.6414758090690185e-32 3.3141681649760215e-35  1.4999999999999980e-01 1.6881468275337493e-33 2.6443560793355559e-33  1.5000000000000013e-01 3.1207583477449606e-32 8.2475408301117653e-32  1.5000000000000027e-01 1.9095428182315557e-31 6.4207006602663432e-33  1.4999999999999925e-01 9.5775598819829229e-32 5.9090451251550447e-31  1.5000000000000097e-01 5.5403599337857589e-30 2.3519202557169219e-32  1.5000000000001712e-01 1.5680431379053838e-28 3.7775874349004055e-28  1.5000000000008137e-01 2.9309730382556805e-27 1.0169692081368306e-26  1.5000000000029981e-01 2.0881951411007845e-26 1.5345112113689663e-25  1.5000000000086386e-01 5.5947854762079873e-26 1.3530629039322576e-24  1.5000000000191424e-01 5.0592802054655538e-26 6.9716873874848511e-24  1.5000000000357205e-01 2.1052139351806481e-26 2.4265838205244603e-23  1.5000000000698815e-01 2.0928901271697766e-24 8.0393219417670394e-23  1.5000000001828187e-01 1.1156731051684745e-22 4.5361206762242155e-22  1.5000000005812258e-01 1.7135411512155891e-21 4.4406334141837092e-21  1.5000000017001514e-01 1.1009403698547184e-20 3.9853888811302764e-20  1.5000000039466363e-01 3.1032649851827923e-20 2.2398971653901647e-19  1.5000000067271807e-01 2.4805816190246442e-20 6.6286925073774474e-19  1.5000000071696620e-01 9.0062377129227850e-21 7.3711315688768512e-19  1.5000000004204209e-01 3.8182807199728526e-19 8.5610244330981401e-24  1.4999999836577260e-01 1.3145729969036281e-18 4.4061102664354201e-18  1.4999999623468130e-01 1.3589937769164406e-18 2.1995296869457620e-17  1.4999999511231324e-01 1.3926261191442877e-19 3.4985482348071154e-17  1.4999999625835972e-01 7.2337865823178635e-19 1.8287119600187773e-17  1.4999999920969559e-01 2.6689836297675921e-18 2.6377402266033565e-19  1.5000000188738405e-01 2.0114696580918946e-18 7.2470945035815126e-18  1.5000000266750035e-01 2.1286483645078872e-19 1.1638963976149787e-17  1.5000000179408807e-01 2.5463319346994709e-19 4.5173425002414614e-18  1.5000000037696035e-01 8.2244071661164996e-19 8.6819069501693279e-20  1.4999999911555045e-01 3.7771715984832086e-19 1.5314703133964469e-18  1.4999999867248112e-01 3.8064210050765300e-21 2.8317099065234061e-18  1.4999999963363184e-01 2.7232761539689998e-19 1.3686796968269911e-19  1.5000000102911376e-01 1.2696859032540842e-19 1.9081834104302148e-18  1.5000000090855692e-01 2.7249268830791022e-20 1.2543431967355813e-18  1.4999999947319151e-01 1.3630872244197586e-19 5.5584657453385409e-19  1.4999999907907052e-01 3.1667404330020059e-21 1.3661656591317535e-18  1.5000000021240176e-01 6.4516361852208955e-20 1.0773142351631438e-19  1.5000000073282144e-01 1.6579967535465517e-20 8.8174592936372917e-19  1.4999999991142018e-01 2.2716002333772846e-20 2.3618417156766709e-20  1.4999999948087980e-01 1.5445493868831307e-20 4.4288245907419393e-19  1.5000000006743994e-01 7.9370910653417763e-21 1.3004352307440483e-20  1.5000000033906552e-01 8.8854766444349740e-21 1.8642343095631392e-19  1.4999999992237878e-01 3.4387057661192279e-21 1.3806021216689484e-20  1.4999999979816089e-01 3.8242386576299316e-21 6.4154927269824866e-20  1.5000000008324296e-01 1.9058693655250655e-21 1.3737676000213077e-20  1.5000000010368755e-01 1.1978541958679790e-21 1.6008405244413111e-20  1.4999999992566534e-01 1.1392275063743762e-21 1.0017459947639362e-20  1.4999999996036611e-01 2.1015239250182363e-22 2.0366437325088876e-21  1.5000000005444633e-01 5.9729692660828469e-22 5.0058179336289784e-21  1.5000000000412786e-01 3.0096403526422831e-24 1.9009962022772445e-24  1.4999999996833954e-01 2.2952076554228368e-22 1.5640344649634209e-21  1.5000000000999392e-01 1.9106552694804937e-23 2.1724297502198262e-22  1.5000000001300481e-01 5.0454098212920473e-23 2.2952455290376956e-22  1.4999999998896302e-01 2.9865578118743128e-23 2.1189980359297008e-22  1.4999999999820146e-01 2.5309851830931808e-24 1.4411929253986653e-24  1.5000000000666777e-01 1.4529052484772290e-23 6.7192967851489076e-23  1.4999999999755062e-01 1.0380732608163755e-24 1.2846570564439574e-23  1.4999999999785488e-01 2.4253048679857597e-24 5.2596211873652661e-24  1.5000000000244035e-01 1.9835605435837235e-24 9.6527141681129261e-24  1.4999999999969241e-01 1.1000180606633703e-27 4.0647272142220745e-25  1.4999999999894989e-01 5.9717979048952762e-25 1.3937433521547138e-24  1.5000000000080180e-01 2.1233203440183670e-25 1.1070509606104308e-24  1.5000000000001482e-01 1.2366420132844306e-26 7.8661715542777454e-27  1.4999999999959207e-01 9.8979392447254137e-26 2.1280742868683784e-25  1.5000000000026983e-01 2.5015016820626689e-26 1.2846896744235219e-25  1.5000000000001290e-01 2.5662722540922816e-27 6.9193424460881254e-28  1.4999999999985855e-01 1.3963286502000421e-26 2.4064707244702629e-26  1.5000000000009847e-01 3.9173172007105520e-27 1.6526086931542473e-26  1.4999999999999411e-01 1.3138626573650189e-28 5.2521387260286213e-28  1.4999999999995697e-01 1.6815156084214974e-27 1.8871362724907619e-27  1.5000000000003780e-01 7.6700032452123522e-28 2.1168381160802157e-27  1.4999999999999020e-01 7.5067330891491171e-30 2.9603751105582058e-28  1.4999999999999072e-01 1.3466562600289685e-28 5.5124282927192691e-29  1.5000000000001318e-01 1.3196766361631889e-28 1.9491533568066058e-28  1.4999999999999317e-01 2.3161471245798203e-29 8.9796601386914889e-29  1.5000000000000061e-01 2.3518467189142020e-30 2.1013974093619885e-30  1.5000000000000308e-01 1.1954469394195692e-29 8.1439590466158453e-30  1.4999999999999716e-01 9.1128442437499920e-30 1.0881205589228458e-29  1.5000000000000174e-01 2.0769806872022235e-30 3.5382647740035876e-30  1.4999999999999997e-01 1.0206379001216197e-33 7.3416460023489750e-31  1.4999999999