<?xml version="1.0"?>
<VTKFile type="UnstructuredGrid"  version="0.1"  >
<UnstructuredGrid>
<Piece  NumberOfPoints="10201" NumberOfCells="20000">
<Points>
<DataArray  type="Float64"  NumberOfComponents="3"  format="ascii">-5 -5 0  -4.9 -5 0  -4.8 -5 0  -4.7 -5 0  -4.6 -5 0  -4.5 -5 0  -4.4 -5 0  -4.3 -5 0  -4.2 -5 0  -4.1 -5 0  -4 -5 0  -3.9 -5 0  -3.8 -5 0  -3.7 -5 0  -3.6 -5 0  -3.5 -5 0  -3.4 -5 0  -3.3 -5 0  -3.2 -5 0  -3.1 -5 0  -3 -5 0  -2.9 -5 0  -2.8 -5 0  -2.7 -5 0  -2.6 -5 0  -2.5 -5 0  -2.4 -5 0  -2.3 -5 0  -2.2 -5 0  -2.1 -5 0  -2 -5 0  -1.9 -5 0  -1.8 -5 0  -1.7 -5 0  -1.6 -5 0  -1.5 -5 0  -1.4 -5 0  -1.3 -5 0  -1.2 -5 0  -1.1 -5 0  -1 -5 0  -0.9000000000000004 -5 0  -0.7999999999999998 -5 0  -0.7000000000000002 -5 0  -0.5999999999999996 -5 0  -0.5 -5 0  -0.4000000000000004 -5 0  -0.2999999999999998 -5 0  -0.2000000000000002 -5 0  -0.09999999999999964 -5 0  0 -5 0  0.09999999999999964 -5 0  0.2000000000000002 -5 0  0.2999999999999998 -5 0  0.4000000000000004 -5 0  0.5 -5 0  0.5999999999999996 -5 0  0.7000000000000002 -5 0  0.7999999999999998 -5 0  0.9000000000000004 -5 0  1 -5 0  1.1 -5 0  1.2 -5 0  1.3 -5 0  1.4 -5 0  1.5 -5 0  1.6 -5 0  1.7 -5 0  1.8 -5 0  1.9 -5 0  2 -5 0  2.1 -5 0  2.2 -5 0  2.3 -5 0  2.4 -5 0  2.5 -5 0  2.6 -5 0  2.7 -5 0  2.8 -5 0  2.9 -5 0  3 -5 0  3.1 -5 0  3.199999999999999 -5 0  3.300000000000001 -5 0  3.4 -5 0  3.5 -5 0  3.6 -5 0  3.699999999999999 -5 0  3.800000000000001 -5 0  3.9 -5 0  4 -5 0  4.1 -5 0  4.199999999999999 -5 0  4.300000000000001 -5 0  4.4 -5 0  4.5 -5 0  4.6 -5 0  4.699999999999999 -5 0  4.800000000000001 -5 0  4.9 -5 0  5 -5 0  -5 -4.9 0  -4.9 -4.9 0  -4.8 -4.9 0  -4.7 -4.9 0  -4.6 -4.9 0  -4.5 -4.9 0  -4.4 -4.9 0  -4.3 -4.9 0  -4.2 -4.9 0  -4.1 -4.9 0  -4 -4.9 0  -3.9 -4.9 0  -3.8 -4.9 0  -3.7 -4.9 0  -3.6 -4.9 0  -3.5 -4.9 0  -3.4 -4.9 0  -3.3 -4.9 0  -3.2 -4.9 0  -3.1 -4.9 0  -3 -4.9 0  -2.9 -4.9 0  -2.8 -4.9 0  -2.7 -4.9 0  -2.6 -4.9 0  -2.5 -4.9 0  -2.4 -4.9 0  -2.3 -4.9 0  -2.2 -4.9 0  -2.1 -4.9 0  -2 -4.9 0  -1.9 -4.9 0  -1.8 -4.9 0  -1.7 -4.9 0  -1.6 -4.9 0  -1.5 -4.9 0  -1.4 -4.9 0  -1.3 -4.9 0  -1.2 -4.9 0  -1.1 -4.9 0  -1 -4.9 0  -0.9000000000000004 -4.9 0  -0.7999999999999998 -4.9 0  -0.7000000000000002 -4.9 0  -0.5999999999999996 -4.9 0  -0.5 -4.9 0  -0.4000000000000004 -4.9 0  -0.2999999999999998 -4.9 0  -0.2000000000000002 -4.9 0  -0.09999999999999964 -4.9 0  0 -4.9 0  0.09999999999999964 -4.9 0  0.2000000000000002 -4.9 0  0.2999999999999998 -4.9 0  0.4000000000000004 -4.9 0  0.5 -4.9 0  0.5999999999999996 -4.9 0  0.7000000000000002 -4.9 0  0.7999999999999998 -4.9 0  0.9000000000000004 -4.9 0  1 -4.9 0  1.1 -4.9 0  1.2 -4.9 0  1.3 -4.9 0  1.4 -4.9 0  1.5 -4.9 0  1.6 -4.9 0  1.7 -4.9 0  1.8 -4.9 0  1.9 -4.9 0  2 -4.9 0  2.1 -4.9 0  2.2 -4.9 0  2.3 -4.9 0  2.4 -4.9 0  2.5 -4.9 0  2.6 -4.9 0  2.7 -4.9 0  2.8 -4.9 0  2.9 -4.9 0  3 -4.9 0  3.1 -4.9 0  3.199999999999999 -4.9 0  3.300000000000001 -4.9 0  3.4 -4.9 0  3.5 -4.9 0  3.6 -4.9 0  3.699999999999999 -4.9 0  3.800000000000001 -4.9 0  3.9 -4.9 0  4 -4.9 0  4.1 -4.9 0  4.199999999999999 -4.9 0  4.300000000000001 -4.9 0  4.4 -4.9 0  4.5 -4.9 0  4.6 -4.9 0  4.699999999999999 -4.9 0  4.800000000000001 -4.9 0  4.9 -4.9 0  5 -4.9 0  -5 -4.8 0  -4.9 -4.8 0  -4.8 -4.8 0  -4.7 -4.8 0  -4.6 -4.8 0  -4.5 -4.8 0  -4.4 -4.8 0  -4.3 -4.8 0  -4.2 -4.8 0  -4.1 -4.8 0  -4 -4.8 0  -3.9 -4.8 0  -3.8 -4.8 0  -3.7 -4.8 0  -3.6 -4.8 0  -3.5 -4.8 0  -3.4 -4.8 0  -3.3 -4.8 0  -3.2 -4.8 0  -3.1 -4.8 0  -3 -4.8 0  -2.9 -4.8 0  -2.8 -4.8 0  -2.7 -4.8 0  -2.6 -4.8 0  -2.5 -4.8 0  -2.4 -4.8 0  -2.3 -4.8 0  -2.2 -4.8 0  -2.1 -4.8 0  -2 -4.8 0  -1.9 -4.8 0  -1.8 -4.8 0  -1.7 -4.8 0  -1.6 -4.8 0  -1.5 -4.8 0  -1.4 -4.8 0  -1.3 -4.8 0  -1.2 -4.8 0  -1.1 -4.8 0  -1 -4.8 0  -0.9000000000000004 -4.8 0  -0.7999999999999998 -4.8 0  -0.7000000000000002 -4.8 0  -0.5999999999999996 -4.8 0  -0.5 -4.8 0  -0.4000000000000004 -4.8 0  -0.2999999999999998 -4.8 0  -0.2000000000000002 -4.8 0  -0.09999999999999964 -4.8 0  0 -4.8 0  0.09999999999999964 -4.8 0  0.2000000000000002 -4.8 0  0.2999999999999998 -4.8 0  0.4000000000000004 -4.8 0  0.5 -4.8 0  0.5999999999999996 -4.8 0  0.7000000000000002 -4.8 0  0.7999999999999998 -4.8 0  0.9000000000000004 -4.8 0  1 -4.8 0  1.1 -4.8 0  1.2 -4.8 0  1.3 -4.8 0  1.4 -4.8 0  1.5 -4.8 0  1.6 -4.8 0  1.7 -4.8 0  1.8 -4.8 0  1.9 -4.8 0  2 -4.8 0  2.1 -4.8 0  2.2 -4.8 0  2.3 -4.8 0  2.4 -4.8 0  2.5 -4.8 0  2.6 -4.8 0  2.7 -4.8 0  2.8 -4.8 0  2.9 -4.8 0  3 -4.8 0  3.1 -4.8 0  3.199999999999999 -4.8 0  3.300000000000001 -4.8 0  3.4 -4.8 0  3.5 -4.8 0  3.6 -4.8 0  3.699999999999999 -4.8 0  3.800000000000001 -4.8 0  3.9 -4.8 0  4 -4.8 0  4.1 -4.8 0  4.199999999999999 -4.8 0  4.300000000000001 -4.8 0  4.4 -4.8 0  4.5 -4.8 0  4.6 -4.8 0  4.699999999999999 -4.8 0  4.800000000000001 -4.8 0  4.9 -4.8 0  5 -4.8 0  -5 -4.7 0  -4.9 -4.7 0  -4.8 -4.7 0  -4.7 -4.7 0  -4.6 -4.7 0  -4.5 -4.7 0  -4.4 -4.7 0  -4.3 -4.7 0  -4.2 -4.7 0  -4.1 -4.7 0  -4 -4.7 0  -3.9 -4.7 0  -3.8 -4.7 0  -3.7 -4.7 0  -3.6 -4.7 0  -3.5 -4.7 0  -3.4 -4.7 0  -3.3 -4.7 0  -3.2 -4.7 0  -3.1 -4.7 0  -3 -4.7 0  -2.9 -4.7 0  -2.8 -4.7 0  -2.7 -4.7 0  -2.6 -4.7 0  -2.5 -4.7 0  -2.4 -4.7 0  -2.3 -4.7 0  -2.2 -4.7 0  -2.1 -4.7 0  -2 -4.7 0  -1.9 -4.7 0  -1.8 -4.7 0  -1.7 -4.7 0  -1.6 -4.7 0  -1.5 -4.7 0  -1.4 -4.7 0  -1.3 -4.7 0  -1.2 -4.7 0  -1.1 -4.7 0  -1 -4.7 0  -0.9000000000000004 -4.7 0  -0.7999999999999998 -4.7 0  -0.7000000000000002 -4.7 0  -0.5999999999999996 -4.7 0  -0.5 -4.7 0  -0.4000000000000004 -4.7 0  -0.2999999999999998 -4.7 0  -0.2000000000000002 -4.7 0  -0.09999999999999964 -4.7 0  0 -4.7 0  0.09999999999999964 -4.7 0  0.2000000000000002 -4.7 0  0.2999999999999998 -4.7 0  0.4000000000000004 -4.7 0  0.5 -4.7 0  0.5999999999999996 -4.7 0  0.7000000000000002 -4.7 0  0.7999999999999998 -4.7 0  0.9000000000000004 -4.7 0  1 -4.7 0  1.1 -4.7 0  1.2 -4.7 0  1.3 -4.7 0  1.4 -4.7 0  1.5 -4.7 0  1.6 -4.7 0  1.7 -4.7 0  1.8 -4.7 0  1.9 -4.7 0  2 -4.7 0  2.1 -4.7 0  2.2 -4.7 0  2.3 -4.7 0  2.4 -4.7 0  2.5 -4.7 0  2.6 -4.7 0  2.7 -4.7 0  2.8 -4.7 0  2.9 -4.7 0  3 -4.7 0  3.1 -4.7 0  3.199999999999999 -4.7 0  3.300000000000001 -4.7 0  3.4 -4.7 0  3.5 -4.7 0  3.6 -4.7 0  3.699999999999999 -4.7 0  3.800000000000001 -4.7 0  3.9 -4.7 0  4 -4.7 0  4.1 -4.7 0  4.199999999999999 -4.7 0  4.300000000000001 -4.7 0  4.4 -4.7 0  4.5 -4.7 0  4.6 -4.7 0  4.699999999999999 -4.7 0  4.800000000000001 -4.7 0  4.9 -4.7 0  5 -4.7 0  -5 -4.6 0  -4.9 -4.6 0  -4.8 -4.6 0  -4.7 -4.6 0  -4.6 -4.6 0  -4.5 -4.6 0  -4.4 -4.6 0  -4.3 -4.6 0  -4.2 -4.6 0  -4.1 -4.6 0  -4 -4.6 0  -3.9 -4.6 0  -3.8 -4.6 0  -3.7 -4.6 0  -3.6 -4.6 0  -3.5 -4.6 0  -3.4 -4.6 0  -3.3 -4.6 0  -3.2 -4.6 0  -3.1 -4.6 0  -3 -4.6 0  -2.9 -4.6 0  -2.8 -4.6 0  -2.7 -4.6 0  -2.6 -4.6 0  -2.5 -4.6 0  -2.4 -4.6 0  -2.3 -4.6 0  -2.2 -4.6 0  -2.1 -4.6 0  -2 -4.6 0  -1.9 -4.6 0  -1.8 -4.6 0  -1.7 -4.6 0  -1.6 -4.6 0  -1.5 -4.6 0  -1.4 -4.6 0  -1.3 -4.6 0  -1.2 -4.6 0  -1.1 -4.6 0  -1 -4.6 0  -0.9000000000000004 -4.6 0  -0.7999999999999998 -4.6 0  -0.7000000000000002 -4.6 0  -0.5999999999999996 -4.6 0  -0.5 -4.6 0  -0.4000000000000004 -4.6 0  -0.2999999999999998 -4.6 0  -0.2000000000000002 -4.6 0  -0.09999999999999964 -4.6 0  0 -4.6 0  0.09999999999999964 -4.6 0  0.2000000000000002 -4.6 0  0.2999999999999998 -4.6 0  0.4000000000000004 -4.6 0  0.5 -4.6 0  0.5999999999999996 -4.6 0  0.7000000000000002 -4.6 0  0.7999999999999998 -4.6 0  0.9000000000000004 -4.6 0  1 -4.6 0  1.1 -4.6 0  1.2 -4.6 0  1.3 -4.6 0  1.4 -4.6 0  1.5 -4.6 0  1.6 -4.6 0  1.7 -4.6 0  1.8 -4.6 0  1.9 -4.6 0  2 -4.6 0  2.1 -4.6 0  2.2 -4.6 0  2.3 -4.6 0  2.4 -4.6 0  2.5 -4.6 0  2.6 -4.6 0  2.7 -4.6 0  2.8 -4.6 0  2.9 -4.6 0  3 -4.6 0  3.1 -4.6 0  3.199999999999999 -4.6 0  3.300000000000001 -4.6 0  3.4 -4.6 0  3.5 -4.6 0  3.6 -4.6 0  3.699999999999999 -4.6 0  3.800000000000001 -4.6 0  3.9 -4.6 0  4 -4.6 0  4.1 -4.6 0  4.199999999999999 -4.6 0  4.300000000000001 -4.6 0  4.4 -4.6 0  4.5 -4.6 0  4.6 -4.6 0  4.699999999999999 -4.6 0  4.800000000000001 -4.6 0  4.9 -4.6 0  5 -4.6 0  -5 -4.5 0  -4.9 -4.5 0  -4.8 -4.5 0  -4.7 -4.5 0  -4.6 -4.5 0  -4.5 -4.5 0  -4.4 -4.5 0  -4.3 -4.5 0  -4.2 -4.5 0  -4.1 -4.5 0  -4 -4.5 0  -3.9 -4.5 0  -3.8 -4.5 0  -3.7 -4.5 0  -3.6 -4.5 0  -3.5 -4.5 0  -3.4 -4.5 0  -3.3 -4.5 0  -3.2 -4.5 0  -3.1 -4.5 0  -3 -4.5 0  -2.9 -4.5 0  -2.8 -4.5 0  -2.7 -4.5 0  -2.6 -4.5 0  -2.5 -4.5 0  -2.4 -4.5 0  -2.3 -4.5 0  -2.2 -4.5 0  -2.1 -4.5 0  -2 -4.5 0  -1.9 -4.5 0  -1.8 -4.5 0  -1.7 -4.5 0  -1.6 -4.5 0  -1.5 -4.5 0  -1.4 -4.5 0  -1.3 -4.5 0  -1.2 -4.5 0  -1.1 -4.5 0  -1 -4.5 0  -0.9000000000000004 -4.5 0  -0.7999999999999998 -4.5 0  -0.7000000000000002 -4.5 0  -0.5999999999999996 -4.5 0  -0.5 -4.5 0  -0.4000000000000004 -4.5 0  -0.2999999999999998 -4.5 0  -0.2000000000000002 -4.5 0  -0.09999999999999964 -4.5 0  0 -4.5 0  0.09999999999999964 -4.5 0  0.2000000000000002 -4.5 0  0.2999999999999998 -4.5 0  0.4000000000000004 -4.5 0  0.5 -4.5 0  0.5999999999999996 -4.5 0  0.7000000000000002 -4.5 0  0.7999999999999998 -4.5 0  0.9000000000000004 -4.5 0  1 -4.5 0  1.1 -4.5 0  1.2 -4.5 0  1.3 -4.5 0  1.4 -4.5 0  1.5 -4.5 0  1.6 -4.5 0  1.7 -4.5 0  1.8 -4.5 0  1.9 -4.5 0  2 -4.5 0  2.1 -4.5 0  2.2 -4.5 0  2.3 -4.5 0  2.4 -4.5 0  2.5 -4.5 0  2.6 -4.5 0  2.7 -4.5 0  2.8 -4.5 0  2.9 -4.5 0  3 -4.5 0  3.1 -4.5 0  3.199999999999999 -4.5 0  3.300000000000001 -4.5 0  3.4 -4.5 0  3.5 -4.5 0  3.6 -4.5 0  3.699999999999999 -4.5 0  3.800000000000001 -4.5 0  3.9 -4.5 0  4 -4.5 0  4.1 -4.5 0  4.199999999999999 -4.5 0  4.300000000000001 -4.5 0  4.4 -4.5 0  4.5 -4.5 0  4.6 -4.5 0  4.699999999999999 -4.5 0  4.800000000000001 -4.5 0  4.9 -4.5 0  5 -4.5 0  -5 -4.4 0  -4.9 -4.4 0  -4.8 -4.4 0  -4.7 -4.4 0  -4.6 -4.4 0  -4.5 -4.4 0  -4.4 -4.4 0  -4.3 -4.4 0  -4.2 -4.4 0  -4.1 -4.4 0  -4 -4.4 0  -3.9 -4.4 0  -3.8 -4.4 0  -3.7 -4.4 0  -3.6 -4.4 0  -3.5 -4.4 0  -3.4 -4.4 0  -3.3 -4.4 0  -3.2 -4.4 0  -3.1 -4.4 0  -3 -4.4 0  -2.9 -4.4 0  -2.8 -4.4 0  -2.7 -4.4 0  -2.6 -4.4 0  -2.5 -4.4 0  -2.4 -4.4 0  -2.3 -4.4 0  -2.2 -4.4 0  -2.1 -4.4 0  -2 -4.4 0  -1.9 -4.4 0  -1.8 -4.
[...]
<PointData  Vectors="f_17"> 
<DataArray  type="Float64"  Name="f_17"  NumberOfComponents="3" format="ascii">1.5000000000000011e-01 0.0000000000000000e+00 0.0000000000000000e+00  1.4999999999999997e-01 -7.6655937866562180e-17 0.0000000000000000e+00  1.4999999999999991e-01 -1.8140961654090988e-16 0.0000000000000000e+00  1.5000000000000041e-01 2.0871151622522720e-16 0.0000000000000000e+00  1.5000000000000008e-01 -2.2917424238777957e-16 0.0000000000000000e+00  1.4999999999999966e-01 -3.4747388048875450e-16 0.0000000000000000e+00  1.5000000000000072e-01 1.6753258452868954e-15 0.0000000000000000e+00  1.5000000000000083e-01 8.9301124284354997e-16 0.0000000000000000e+00  1.4999999999999794e-01 -5.9656438159512950e-15 0.0000000000000000e+00  1.5000000000000346e-01 -5.8008069550283831e-16 0.0000000000000000e+00  1.5000000000000951e-01 1.8745790155163298e-14 0.0000000000000000e+00  1.4999999999998037e-01 5.7302028004134042e-14 0.0000000000000000e+00  1.4999999999986832e-01 3.1300891249221325e-13 0.0000000000000000e+00  1.4999999999945707e-01 1.0892693102968059e-12 0.0000000000000000e+00  1.4999999999813707e-01 2.3516532477332673e-12 0.0000000000000000e+00  1.4999999999517891e-01 3.9622966101880583e-12 0.0000000000000000e+00  1.4999999998982344e-01 7.1941452210940193e-12 0.0000000000000000e+00  1.4999999997887209e-01 1.8612097549070467e-11 0.0000000000000000e+00  1.4999999995027097e-01 5.7825819869385977e-11 0.0000000000000000e+00  1.4999999987365126e-01 1.5647582565077530e-10 0.0000000000000000e+00  1.4999999969958239e-01 3.1711398278068643e-10 0.0000000000000000e+00  1.4999999940145928e-01 4.4287209386545160e-10 0.0000000000000000e+00  1.4999999907107450e-01 3.4959287708568635e-10 0.0000000000000000e+00  1.4999999895716665e-01 -5.0140252842252022e-11 0.0000000000000000e+00  1.4999999927981689e-01 -5.4907044154337648e-10 0.0000000000000000e+00  1.4999999991817767e-01 -7.4791956975281412e-10 0.0000000000000000e+00  1.5000000040600531e-01 -4.6258891299183980e-10 0.0000000000000000e+00  1.5000000040585185e-01 3.3711947869663477e-11 0.0000000000000000e+00  1.5000000009967399e-01 2.9551140236874716e-10 0.0000000000000000e+00  1.4999999991292232e-01 1.9503249486074458e-10 0.0000000000000000e+00  1.4999999995817484e-01 -8.1578416019647353e-12 0.0000000000000000e+00  1.5000000001955197e-01 -6.3577921012619684e-11 0.0000000000000000e+00  1.4999999998961991e-01 -7.0210772644630198e-12 0.0000000000000000e+00  1.4999999997878577e-01 1.1975034313724760e-11 0.0000000000000000e+00  1.5000000002481303e-01 -1.4040398048557907e-11 0.0000000000000000e+00  1.5000000002829997e-01 -6.7363552531563470e-12 0.0000000000000000e+00  1.4999999997967628e-01 2.1701741276981661e-11 0.0000000000000000e+00  1.4999999997404159e-01 1.0332803504253402e-11 0.0000000000000000e+00  1.5000000001373748e-01 -1.8793686130422775e-11 0.0000000000000000e+00  1.5000000001881536e-01 -1.0517354958545368e-11 0.0000000000000000e+00  1.4999999999063471e-01 1.3655607954266152e-11 0.0000000000000000e+00  1.4999999998843577e-01 7.8075387819143044e-12 0.0000000000000000e+00  1.5000000000669617e-01 -9.4353561062194576e-12 0.0000000000000000e+00  1.5000000000606578e-01 -4.5049019755263081e-12 0.0000000000000000e+00  1.4999999999523883e-01 6.3723018227281392e-12 0.0000000000000000e+00  1.4999999999746380e-01 1.8700409718779899e-12 0.0000000000000000e+00  1.5000000000314617e-01 -4.0950821573711975e-12 0.0000000000000000e+00  1.5000000000060504e-01 -2.3865492941348503e-13 0.0000000000000000e+00  1.4999999999817779e-01 2.3736914283852946e-12 0.0000000000000000e+00  1.5000000000022418e-01 -5.0415858904030445e-13 0.0000000000000000e+00  1.5000000000086036e-01 -1.1452052761982580e-12 0.0000000000000000e+00  1.4999999999958830e-01 6.4396311727141829e-13 0.0000000000000000e+00  1.4999999999972369e-01 3.7879807080513125e-13 0.0000000000000000e+00  1.5000000000031236e-01 -4.8046533050324726e-13 0.0000000000000000e+00  1.5000000000000502e-01 -9.2067394488738035e-16 0.0000000000000000e+00  1.4999999999984648e-01 2.4594580814925503e-13 0.0000000000000000e+00  1.5000000000006869e-01 -1.1156422828235878e-13 0.0000000000000000e+00  1.5000000000003993e-01 -6.9643801718855758e-14 0.0000000000000000e+00  1.4999999999994720e-01 9.0452386390603122e-14 0.0000000000000000e+00  1.5000000000000904e-01 -1.3088567833616561e-14 0.0000000000000000e+00  1.5000000000001995e-01 -3.6893607119773782e-14 0.0000000000000000e+00  1.4999999999998465e-01 2.7520818882076708e-14 0.0000000000000000e+00  1.4999999999999991e-01 1.9206484802978191e-15 0.0000000000000000e+00  1.5000000000000732e-01 -1.4681780241294178e-14 0.0000000000000000e+00  1.4999999999999575e-01 8.1468825715692951e-15 0.0000000000000000e+00  1.4999999999999947e-01 1.5735282381523484e-15 0.0000000000000000e+00  1.5000000000000230e-01 -5.1053300097278947e-15 0.0000000000000000e+00  1.4999999999999852e-01 2.7081464762595130e-15 0.0000000000000000e+00  1.4999999999999986e-01 -2.8718222661732624e-16 0.0000000000000000e+00  1.5000000000000072e-01 -1.0660152168635107e-15 0.0000000000000000e+00  1.4999999999999941e-01 1.4034495746436414e-15 0.0000000000000000e+00  1.5000000000000008e-01 -6.0206269295939080e-17 0.0000000000000000e+00  1.5000000000000022e-01 -3.8850080835924155e-16 0.0000000000000000e+00  1.4999999999999994e-01 5.1384766617400951e-16 0.0000000000000000e+00  1.5000000000000024e-01 -8.7104566845739538e-17 0.0000000000000000e+00  1.5000000000000005e-01 -2.0351396823520454e-16 0.0000000000000000e+00  1.5000000000000011e-01 -1.9138991642269036e-16 0.0000000000000000e+00  1.5000000000000022e-01 6.0915070072170875e-16 0.0000000000000000e+00  1.5000000000000011e-01 -5.8574458226408621e-16 0.0000000000000000e+00  1.5000000000000011e-01 1.4004541725315311e-16 0.0000000000000000e+00  1.5000000000000011e-01 -4.4875392046789000e-16 0.0000000000000000e+00  1.5000000000000008e-01 7.0869215845558231e-16 0.0000000000000000e+00  1.5000000000000008e-01 -1.3968353795684521e-16 0.0000000000000000e+00  1.4999999999999997e-01 2.6656519732518797e-16 0.0000000000000000e+00  1.4999999999999999e-01 -1.1147037996355825e-16 0.0000000000000000e+00  1.5000000000000022e-01 1.4886965583484768e-16 0.0000000000000000e+00  1.5000000000000019e-01 5.4015686275062008e-16 0.0000000000000000e+00  1.5000000000000008e-01 2.7118254309524795e-16 0.0000000000000000e+00  1.4999999999999986e-01 2.2723836145494357e-16 0.0000000000000000e+00  1.4999999999999997e-01 -5.0764698214808218e-16 0.0000000000000000e+00  1.4999999999999997e-01 -5.1218953452114697e-16 0.0000000000000000e+00  1.5000000000000002e-01 -7.2762175193840505e-17 0.0000000000000000e+00  1.4999999999999994e-01 -6.1721114104356518e-16 0.0000000000000000e+00  1.4999999999999999e-01 6.1475757422225680e-16 0.0000000000000000e+00  1.5000000000000002e-01 -6.3295757073302117e-17 0.0000000000000000e+00  1.5000000000000005e-01 1.2337999273233945e-16 0.0000000000000000e+00  1.5000000000000005e-01 2.5332131876661405e-16 0.0000000000000000e+00  1.5000000000000005e-01 -2.9520579209253134e-16 0.0000000000000000e+00  1.5000000000000008e-01 -2.8810346840775472e-16 0.0000000000000000e+00  1.5000000000000008e-01 -6.6274954592029537e-17 0.0000000000000000e+00  1.5000000000000013e-01 0.0000000000000000e+00 0.0000000000000000e+00  1.4999999999999999e-01 0.0000000000000000e+00 3.3192687425984945e-16  1.5000000000000002e-01 1.4650187254449582e-16 3.3217340774309410e-16  1.5000000000000038e-01 -2.7736499785804658e-16 4.8820502203904413e-16  1.4999999999999991e-01 4.5360359166036714e-17 -3.1339421976429731e-16  1.4999999999999966e-01 -1.0284641256437499e-15 -4.5303556301651326e-17  1.5000000000000066e-01 1.0942197575724745e-15 7.3511119471248910e-16  1.5000000000000008e-01 7.0444842553024590e-16 1.9086224282985810e-16  1.4999999999999869e-01 -2.9105979990233373e-15 -1.6177866434137126e-15  1.5000000000000116e-01 2.9516158236040499e-15 2.1950393534697609e-15  1.5000000000000091e-01 9.8267526521096366e-15 -2.7051958624762724e-16  1.4999999999998886e-01 -1.0527145538474319e-14 -2.4777046231178419e-14  1.4999999999999661e-01 -3.9848612409496023e-14 -1.9738445714235152e-14  1.5000000000007721e-01 -1.7835537492531321e-13 1.3290384618617930e-13  1.5000000000036157e-01 -8.2925437941545096e-13 7.8532500422303752e-13  1.5000000000138147e-01 -2.2405532378045128e-12 3.1943334958094216e-12  1.5000000000410177e-01 -4.1421425231038385e-12 9.5904667531439978e-12  1.5000000000943489e-01 -6.9575434936222782e-12 2.2189126898950036e-11  1.5000000001945549e-01 -1.5076416378465032e-11 4.5688287495611674e-11  1.5000000004304759e-01 -4.4285731984203185e-11 1.0002513869320567e-10  1.5000000010602837e-01 -1.2918024430146217e-10 2.4452373014762002e-10  1.5000000025900148e-01 -2.9848044787333578e-10 5.9317398216529143e-10  1.5000000055431112e-01 -4.9314848016627225e-10 1.2495358386456157e-09  1.5000000095517954e-01 -5.1465047207720624e-10 2.0938609454877446e-09  1.5000000123617496e-01 -1.6856893397055639e-10 2.5936098317170987e-09  1.5000000107752046e-01 4.4561494246731827e-10 2.0834409514189492e-09  1.5000000042020561e-01 8.7965651040786136e-10 5.6427226048348747e-10  1.4999999969117250e-01 7.4710244560865321e-10 -9.2350127177460437e-10  1.4999999944242956e-01 1.8172718738825734e-10 -1.2417637881684414e-09  1.4999999972174616e-01 -2.8208917574634868e-10 -4.8551254039218675e-10  1.5000000005124151e-01 -3.1009785031772796e-10 2.0491871795818806e-10  1.5000000008971626e-01 -7.8010204370352166e-11 1.9572677185195561e-10  1.4999999999124655e-01 6.4772352210416356e-11 -4.0565674654592550e-11  1.4999999999270108e-01 3.6615432309357424e-11 -7.1949301865998211e-12  1.5000000003306735e-01 -8.6372105285456903e-12 7.7621283693929697e-11  1.4999999999202568e-01 6.1579621924548488e-12 -3.6228588556202137e-11  1.4999999995391083e-01 1.3249546933041400e-11 -1.0748439527649208e-10  1.5000000000214103e-01 -1.5934485796926948e-11 2.3440586273180224e-11  1.5000000004105279e-01 -2.0706741369421015e-11 9.7994334466491657e-11  1.5000000000166369e-01 1.1678361152748774e-11 -1.0671330200656844e-11  1.4999999997006166e-01 2.0042134553310343e-11 -7.2269278852624051e-11  1.4999999999875713e-01 -6.9525829814267272e-12 7.1785203723432722e-12  1.5000000001955061e-01 -1.5293402263093591e-11 4.6931245156083858e-11  1.4999999999937738e-01 4.5895599170170625e-12 -7.9418449473838515e-12  1.4999999998829985e-01 1.0110829799379227e-11 -2.7420309983321330e-11  1.5000000000200447e-01 -3.6648463581383639e-12 8.5656471328231959e-12  1.5000000000629468e-01 -5.8970886244252434e-12 1.4069029858688387e-11  1.4999999999761027e-01 3.0991801163298989e-12 -7.6615444090604071e-12  1.4999999999714222e-01 2.9068447185531543e-12 -5.8175825560225173e-12  1.5000000000201841e-01 -2.4293146259523225e-12 5.6242616742743763e-12  1.5000000000091285e-01 -1.0295259488475535e-12 1.3925320641930805e-12  1.4999999999867270e-01 1.6420705054696716e-12 -3.3442578553939455e-12  1.4999999999998850e-01 4.6279019807918421e-14 4.5010854631392220e-13  1.5000000000067057e-01 -8.9910937078440087e-13 1.5114369504504194e-12  1.4999999999974462e-01 3.0929131569255233e-13 -8.2155633963286581e-13  1.4999999999977628e-01 3.4782994511942988e-13 -3.9734152084552770e-13  1.5000000000022193e-01 -3.0770793815780587e-13 5.7541887613412545e-13  1.5000000000000649e-01 -4.0640956764904003e-14 -7.6030975610209129e-14  1.4999999999989116e-01 1.7555074383389160e-13 -2.3765807414464498e-13  1.5000000000005184e-01 -6.6477922516151911e-14 1.5689561186842108e-13  1.5000000000002445e-01 -5.2823322104036343e-14 2.8643488062788104e-14  1.4999999999996266e-01 6.1912408105178490e-14 -8.9298910191742882e-14  1.5000000000000999e-01 -9.0851876450226167e-15 3.8227606060733701e-14  1.5000000000001160e-01 -2.4867203633466405e-14 1.9118348401510523e-14  1.4999999999998853e-01 1.9097773979304085e-14 -2.9199343207423714e-14  1.5000000000000174e-01 -4.5637233267658852e-16 9.6615054886218587e-15  1.5000000000000402e-01 -8.6897792607200887e-15 6.8096307632541909e-15  1.4999999999999633e-01 6.1433637460988831e-15 -9.1280873634863819e-15  1.5000000000000044e-01 -1.4701467356488237e-16 3.3218302125423734e-15  1.5000000000000116e-01 -2.7293890989698373e-15 1.7449804257490912e-15  1.4999999999999897e-01 2.3824304188787473e-15 -2.0650311108915897e-15  1.5000000000000038e-01 1.8493652962355941e-16 1.5079907239153886e-15  1.5000000000000024e-01 -1.3849486799600186e-15 3.6866983767921851e-16  1.4999999999999974e-01 9.3251358670901764e-16 -5.8401279038825396e-16  1.5000000000000033e-01 -4.4778734894184447e-16 8.7379209624777518e-16  1.5000000000000011e-01 -1.0923325732056918e-16 -2.5822414877746139e-17  1.5000000000000002e-01 -2.3575295677046276e-16 -8.9088282814855586e-17  1.5000000000000013e-01 2.8072445885475796e-16 1.3114372628086220e-16  1.4999999999999997e-01 -6.1107683530436476e-16 5.0391109226361856e-16  1.4999999999999999e-01 -9.6880396068639114e-17 1.1926809241863347e-16  1.4999999999999999e-01 1.0389680596467025e-16 8.6093316942882483e-17  1.5000000000000005e-01 -2.3241936116838617e-17 3.7446345696665651e-16  1.5000000000000016e-01 1.1616475842343595e-16 -1.1802942223959269e-17  1.5000000000000013e-01 4.4206629193502153e-17 -3.0458425394106431e-16  1.5000000000000005e-01 4.6807037050551229e-16 -5.3548296299096024e-16  1.5000000000000005e-01 1.1588168173549812e-16 -3.8201135908290213e-16  1.5000000000000005e-01 -8.6109629984926224e-17 4.8731319973427450e-17  1.5000000000000002e-01 2.6322910835368043e-16 2.8966182457898964e-16  1.5000000000000005e-01 -9.7268247771595130e-17 -3.5225626782527803e-16  1.5000000000000008e-01 1.4541303646644366e-16 -3.6862325034774083e-17  1.5000000000000002e-01 8.7320125234012170e-17 1.2313100208290003e-16  1.5000000000000005e-01 -2.5075639332251200e-16 -1.7019183250097010e-16  1.4999999999999999e-01 -1.3791441576670962e-16 3.5507653143869284e-16  1.4999999999999980e-01 -2.7198134082459048e-16 -7.6837714389207532e-17  1.5000000000000002e-01 1.3689860852937964e-16 1.3854808230984330e-17  1.5000000000000005e-01 4.1944727167256285e-16 -3.0066918753145254e-16  1.5000000000000005e-01 6.0952557047348001e-16 -1.4058506469016685e-16  1.5000000000000016e-01 -1.8055317406138013e-16 2.2596907868258530e-16  1.5000000000000002e-01 -5.2508340998683955e-16 -3.4515407833854894e-16  1.5000000000000011e-01 -1.8733308511054004e-16 -4.3499426475634805e-16  1.5000000000000005e-01 -2.0815185819378396e-16 -3.2647629113961618e-16  1.5000000000000024e-01 0.0000000000000000e+00 -5.8925094264029890e-16  1.4999999999999983e-01 0.0000000000000000e+00 1.5067252877560587e-17  1.5000000000000016e-01 -3.2468127339965898e-16 2.5112109875611934e-17  1.5000000000000005e-01 -3.5635304119091122e-16 -4.1356880033909689e-16  1.4999999999999972e-01 -8.7331474392656188e-16 -3.0438672033839549e-16  1.5000000000000044e-01 1.0561214465047074e-15 7.3767153762664879e-16  1.5000000000000016e-01 4.1147056143886381e-16 2.7301827846032151e-16  1.4999999999999897e-01 -2.2475868749502111e-15 -2.6431650071732945e-15  1.5000000000000141e-01 3.4745095668665753e-15 2.4428576219526722e-15  1.5000000000000160e-01 3.8245502142525821e-15 3.9855751281947207e-15  1.4999999999999580e-01 -1.5384743865623954e-14 -9.8233348694082835e-15  1.5000000000000710e-01 -9.6650667473668735e-15 2.4165646250245142e-14  1.5000000000002875e-01 3.8811175784421389e-14 9.7113839063081495e-14  1.4999999999997873e-01 1.1654715167573934e-13 -3.4129799538084624e-15  1.4999999999974625e-01 6.5280419587083586e-13 -6.4679667708511465e-13  1.4999999999886898e-01 2.4555408476719550e-12 -3.4340454403396812e-12  1.4999999999594271e-01 5.6028396584645333e-12 -1.2989087966965137e-11  1.4999999998907146e-01 9.8322705311049334e-12 -3.5555898509612671e-11  1.4999999997611357e-01 1.8173893892414265e-11 -7.7693104146685528e-11  1.4999999994974600e-01 4.4722321142973539e-11 -1.6067024928629947e-10  1.4999999988487162e-01 1.2895625047547958e-10 -3.6256679159198296e-10  1.4999999972264283e-01 3.3137652540264441e-10 -8.7703894937031122e-10  1.4999999937501879e-01 6.4583972017882839e-10 -1.9987285907157837e-09  1.4999999881098228e-01 8.5818454096146283e-10 -3.8228885732676102e-09  1.4999999823332372e-01 5.9788916120862386e-10 -5.6555452776955059e-09  1.4999999812070075e-01 -2.5214590687862463e-10 -5.9153691109609874e-09  1.4999999883449366e-01 -1.1886551879821342e-09 -3.4802606491078224e-09  1.5000000004641420e-01 -1.4181482913904391e-09 4.6681039787145458e-10  1.5000000084284135e-01 -7.2498481489106461e-10 2.9096701417782114e-09  1.5000000069899574e-01 2.0982865856665315e-10 2.2525574815362025e-09  1.5000000010042866e-01 5.7154148807942434e-10 2.2667469619292933e-10  1.4999999983143714e-01 2.9915435663769075e-10 -6.0459702854845732e-10  1.4999999996007210e-01 -4.4189617113225293e-11 -1.3256644560922909e-10  1.5000000003569311e-01 -9.4369486990240639e-11 1.1549116783092862e-10  1.4999999995577729e-01 -3.7817054715067123e-12 -1.4976064259363793e-10  1.4999999997085076e-01 2.2268774697122738e-12 -8.3712585828797014e-11  1.5000000007205003e-01 -2.9314208103346368e-11 2.4873491189016269e-10  1.5000000004229017e-01 7.9989293755013132e-12 1.2970197883927892e-10  1.4999999993766261e-01 4.5220044500847146e-11 -2.1723622671905616e-10  1.4999999995924462e-01 2.2311812195899372e-12 -1.2836991321278346e-10  1.5000000004509240e-01 -4.0906365287882111e-11 1.5733639602688201e-10  1.5000000002939312e-01 -7.4388369696295918e-12 9.2880660069326472e-11  1.4999999996905941e-01 3.0510153807301935e-11 -1.0731416308387323e-10  1.4999999998319960e-01 6.3802657400434513e-12 -5.2305038136236695e-11  1.5000000002069255e-01 -2.0946896507140509e-11 7.0930961890542415e-11  1.5000000000720357e-01 -2.9732927193703518e-12 2.1354348501507859e-11  1.4999999998684893e-01 1.3588102341059977e-11 -4.4361623688226815e-11  1.4999999999856176e-01 -7.7182293287083172e-14 -3.0565565158422831e-12  1.5000000000756555e-01 -8.1322261625806959e-12 2.4991656799949483e-11  1.4999999999882174e-01 1.7864474578282249e-12 -4.8792524619728352e-12  1.4999999999633004e-01 4.2176676927803850e-12 -1.1756772972785276e-11  1.5000000000176433e-01 -2.1876755843323245e-12 6.2513176125984994e-12  1.5000000000128610e-01 -1.6487922715397211e-12 3.8628029935178179e-12  1.4999999999863617e-01 1.7528200917629109e-12 -4.5763810171996409e-12  1.4999999999988717e-01 2.3528261771145932e-13 -1.2403334701019694e-13  1.5000000000072281e-01 -1.0209673184330890e-12 2.3075735442537282e-12  1.4999999999973973e-01 3.0962800549174536e-13 -9.5748141385181697e-13  1.4999999999976829e-01 3.8886308519283927e-13 -6.7116030064998868e-13  1.5000000000023725e-01 -3.4274720039223066e-13 7.8596858057420729e-13  1.4999999999999103e-01 -2.6189464546052474e-14 -8.0269405306640932e-14  1.4999999999989186e-01 1.8586354715364231e-13 -3.2813013748441990e-13  1.5000000000006344e-01 -8.8276175427544919e-14 2.1907605427791918e-13  1.5000000000001457e-01 -4.1171712565639072e-14 2.7376961798101127e-14  1.4999999999996180e-01 6.7895708286872306e-14 -1.1806583252500030e-13  1.5000000000001645e-01 -2.1980245494605606e-14 5.9985370283188158e-14  1.5000000000000735e-01 -1.9355628160554516e-14 1.6518465346181455e-14  1.4999999999998778e-01 2.3103533748735844e-14 -3.7974266949200611e-14  1.5000000000000505e-01 -6.2485695528519678e-15 1.8202172010585587e-14  1.5000000000000230e-01 -6.6614805622614230e-15 4.9329252833951259e-15  1.4999999999999625e-01 7.8682777506023850e-15 -1.1046736020716109e-14  1.5000000000000174e-01 -2.3897263256519929e-15 6.8541709542575010e-15  1.5000000000000027e-01 -1.7458304782373859e-15 3.3645619989533427e-16  1.4999999999999888e-01 2.4546750001216707e-15 -2.8211503621492673e-15  1.5000000000000063e-01 -1.0092178401573965e-15 2.6693041345543108e-15  1.4999999999999999e-01 -1.3434185457991760e-17 -4.3838421497731489e-16  1.4999999999999963e-01 4.5454851823595154e-16 -4.5242472836587069e-16  1.5000000000000033e-01 -6.1888989683452680e-16 9.8325497540764332e-16  1.4999999999999991e-01 1.1502004102510190e-16 -2.6751816475254527e-16  1.4999999999999999e-01 3.6886492454146424e-16 -1.0933043232129120e-17  1.5000000000000016e-01 -1.5560709425803328e-17 4.157066003078