<?xml version="1.0"?>
<VTKFile type="UnstructuredGrid"  version="0.1"  >
<UnstructuredGrid>
<Piece  NumberOfPoints="10201" NumberOfCells="20000">
<Points>
<DataArray  type="Float64"  NumberOfComponents="3"  format="ascii">-5 -5 0  -4.9 -5 0  -4.8 -5 0  -4.7 -5 0  -4.6 -5 0  -4.5 -5 0  -4.4 -5 0  -4.3 -5 0  -4.2 -5 0  -4.1 -5 0  -4 -5 0  -3.9 -5 0  -3.8 -5 0  -3.7 -5 0  -3.6 -5 0  -3.5 -5 0  -3.4 -5 0  -3.3 -5 0  -3.2 -5 0  -3.1 -5 0  -3 -5 0  -2.9 -5 0  -2.8 -5 0  -2.7 -5 0  -2.6 -5 0  -2.5 -5 0  -2.4 -5 0  -2.3 -5 0  -2.2 -5 0  -2.1 -5 0  -2 -5 0  -1.9 -5 0  -1.8 -5 0  -1.7 -5 0  -1.6 -5 0  -1.5 -5 0  -1.4 -5 0  -1.3 -5 0  -1.2 -5 0  -1.1 -5 0  -1 -5 0  -0.9000000000000004 -5 0  -0.7999999999999998 -5 0  -0.7000000000000002 -5 0  -0.5999999999999996 -5 0  -0.5 -5 0  -0.4000000000000004 -5 0  -0.2999999999999998 -5 0  -0.2000000000000002 -5 0  -0.09999999999999964 -5 0  0 -5 0  0.09999999999999964 -5 0  0.2000000000000002 -5 0  0.2999999999999998 -5 0  0.4000000000000004 -5 0  0.5 -5 0  0.5999999999999996 -5 0  0.7000000000000002 -5 0  0.7999999999999998 -5 0  0.9000000000000004 -5 0  1 -5 0  1.1 -5 0  1.2 -5 0  1.3 -5 0  1.4 -5 0  1.5 -5 0  1.6 -5 0  1.7 -5 0  1.8 -5 0  1.9 -5 0  2 -5 0  2.1 -5 0  2.2 -5 0  2.3 -5 0  2.4 -5 0  2.5 -5 0  2.6 -5 0  2.7 -5 0  2.8 -5 0  2.9 -5 0  3 -5 0  3.1 -5 0  3.199999999999999 -5 0  3.300000000000001 -5 0  3.4 -5 0  3.5 -5 0  3.6 -5 0  3.699999999999999 -5 0  3.800000000000001 -5 0  3.9 -5 0  4 -5 0  4.1 -5 0  4.199999999999999 -5 0  4.300000000000001 -5 0  4.4 -5 0  4.5 -5 0  4.6 -5 0  4.699999999999999 -5 0  4.800000000000001 -5 0  4.9 -5 0  5 -5 0  -5 -4.9 0  -4.9 -4.9 0  -4.8 -4.9 0  -4.7 -4.9 0  -4.6 -4.9 0  -4.5 -4.9 0  -4.4 -4.9 0  -4.3 -4.9 0  -4.2 -4.9 0  -4.1 -4.9 0  -4 -4.9 0  -3.9 -4.9 0  -3.8 -4.9 0  -3.7 -4.9 0  -3.6 -4.9 0  -3.5 -4.9 0  -3.4 -4.9 0  -3.3 -4.9 0  -3.2 -4.9 0  -3.1 -4.9 0  -3 -4.9 0  -2.9 -4.9 0  -2.8 -4.9 0  -2.7 -4.9 0  -2.6 -4.9 0  -2.5 -4.9 0  -2.4 -4.9 0  -2.3 -4.9 0  -2.2 -4.9 0  -2.1 -4.9 0  -2 -4.9 0  -1.9 -4.9 0  -1.8 -4.9 0  -1.7 -4.9 0  -1.6 -4.9 0  -1.5 -4.9 0  -1.4 -4.9 0  -1.3 -4.9 0  -1.2 -4.9 0  -1.1 -4.9 0  -1 -4.9 0  -0.9000000000000004 -4.9 0  -0.7999999999999998 -4.9 0  -0.7000000000000002 -4.9 0  -0.5999999999999996 -4.9 0  -0.5 -4.9 0  -0.4000000000000004 -4.9 0  -0.2999999999999998 -4.9 0  -0.2000000000000002 -4.9 0  -0.09999999999999964 -4.9 0  0 -4.9 0  0.09999999999999964 -4.9 0  0.2000000000000002 -4.9 0  0.2999999999999998 -4.9 0  0.4000000000000004 -4.9 0  0.5 -4.9 0  0.5999999999999996 -4.9 0  0.7000000000000002 -4.9 0  0.7999999999999998 -4.9 0  0.9000000000000004 -4.9 0  1 -4.9 0  1.1 -4.9 0  1.2 -4.9 0  1.3 -4.9 0  1.4 -4.9 0  1.5 -4.9 0  1.6 -4.9 0  1.7 -4.9 0  1.8 -4.9 0  1.9 -4.9 0  2 -4.9 0  2.1 -4.9 0  2.2 -4.9 0  2.3 -4.9 0  2.4 -4.9 0  2.5 -4.9 0  2.6 -4.9 0  2.7 -4.9 0  2.8 -4.9 0  2.9 -4.9 0  3 -4.9 0  3.1 -4.9 0  3.199999999999999 -4.9 0  3.300000000000001 -4.9 0  3.4 -4.9 0  3.5 -4.9 0  3.6 -4.9 0  3.699999999999999 -4.9 0  3.800000000000001 -4.9 0  3.9 -4.9 0  4 -4.9 0  4.1 -4.9 0  4.199999999999999 -4.9 0  4.300000000000001 -4.9 0  4.4 -4.9 0  4.5 -4.9 0  4.6 -4.9 0  4.699999999999999 -4.9 0  4.800000000000001 -4.9 0  4.9 -4.9 0  5 -4.9 0  -5 -4.8 0  -4.9 -4.8 0  -4.8 -4.8 0  -4.7 -4.8 0  -4.6 -4.8 0  -4.5 -4.8 0  -4.4 -4.8 0  -4.3 -4.8 0  -4.2 -4.8 0  -4.1 -4.8 0  -4 -4.8 0  -3.9 -4.8 0  -3.8 -4.8 0  -3.7 -4.8 0  -3.6 -4.8 0  -3.5 -4.8 0  -3.4 -4.8 0  -3.3 -4.8 0  -3.2 -4.8 0  -3.1 -4.8 0  -3 -4.8 0  -2.9 -4.8 0  -2.8 -4.8 0  -2.7 -4.8 0  -2.6 -4.8 0  -2.5 -4.8 0  -2.4 -4.8 0  -2.3 -4.8 0  -2.2 -4.8 0  -2.1 -4.8 0  -2 -4.8 0  -1.9 -4.8 0  -1.8 -4.8 0  -1.7 -4.8 0  -1.6 -4.8 0  -1.5 -4.8 0  -1.4 -4.8 0  -1.3 -4.8 0  -1.2 -4.8 0  -1.1 -4.8 0  -1 -4.8 0  -0.9000000000000004 -4.8 0  -0.7999999999999998 -4.8 0  -0.7000000000000002 -4.8 0  -0.5999999999999996 -4.8 0  -0.5 -4.8 0  -0.4000000000000004 -4.8 0  -0.2999999999999998 -4.8 0  -0.2000000000000002 -4.8 0  -0.09999999999999964 -4.8 0  0 -4.8 0  0.09999999999999964 -4.8 0  0.2000000000000002 -4.8 0  0.2999999999999998 -4.8 0  0.4000000000000004 -4.8 0  0.5 -4.8 0  0.5999999999999996 -4.8 0  0.7000000000000002 -4.8 0  0.7999999999999998 -4.8 0  0.9000000000000004 -4.8 0  1 -4.8 0  1.1 -4.8 0  1.2 -4.8 0  1.3 -4.8 0  1.4 -4.8 0  1.5 -4.8 0  1.6 -4.8 0  1.7 -4.8 0  1.8 -4.8 0  1.9 -4.8 0  2 -4.8 0  2.1 -4.8 0  2.2 -4.8 0  2.3 -4.8 0  2.4 -4.8 0  2.5 -4.8 0  2.6 -4.8 0  2.7 -4.8 0  2.8 -4.8 0  2.9 -4.8 0  3 -4.8 0  3.1 -4.8 0  3.199999999999999 -4.8 0  3.300000000000001 -4.8 0  3.4 -4.8 0  3.5 -4.8 0  3.6 -4.8 0  3.699999999999999 -4.8 0  3.800000000000001 -4.8 0  3.9 -4.8 0  4 -4.8 0  4.1 -4.8 0  4.199999999999999 -4.8 0  4.300000000000001 -4.8 0  4.4 -4.8 0  4.5 -4.8 0  4.6 -4.8 0  4.699999999999999 -4.8 0  4.800000000000001 -4.8 0  4.9 -4.8 0  5 -4.8 0  -5 -4.7 0  -4.9 -4.7 0  -4.8 -4.7 0  -4.7 -4.7 0  -4.6 -4.7 0  -4.5 -4.7 0  -4.4 -4.7 0  -4.3 -4.7 0  -4.2 -4.7 0  -4.1 -4.7 0  -4 -4.7 0  -3.9 -4.7 0  -3.8 -4.7 0  -3.7 -4.7 0  -3.6 -4.7 0  -3.5 -4.7 0  -3.4 -4.7 0  -3.3 -4.7 0  -3.2 -4.7 0  -3.1 -4.7 0  -3 -4.7 0  -2.9 -4.7 0  -2.8 -4.7 0  -2.7 -4.7 0  -2.6 -4.7 0  -2.5 -4.7 0  -2.4 -4.7 0  -2.3 -4.7 0  -2.2 -4.7 0  -2.1 -4.7 0  -2 -4.7 0  -1.9 -4.7 0  -1.8 -4.7 0  -1.7 -4.7 0  -1.6 -4.7 0  -1.5 -4.7 0  -1.4 -4.7 0  -1.3 -4.7 0  -1.2 -4.7 0  -1.1 -4.7 0  -1 -4.7 0  -0.9000000000000004 -4.7 0  -0.7999999999999998 -4.7 0  -0.7000000000000002 -4.7 0  -0.5999999999999996 -4.7 0  -0.5 -4.7 0  -0.4000000000000004 -4.7 0  -0.2999999999999998 -4.7 0  -0.2000000000000002 -4.7 0  -0.09999999999999964 -4.7 0  0 -4.7 0  0.09999999999999964 -4.7 0  0.2000000000000002 -4.7 0  0.2999999999999998 -4.7 0  0.4000000000000004 -4.7 0  0.5 -4.7 0  0.5999999999999996 -4.7 0  0.7000000000000002 -4.7 0  0.7999999999999998 -4.7 0  0.9000000000000004 -4.7 0  1 -4.7 0  1.1 -4.7 0  1.2 -4.7 0  1.3 -4.7 0  1.4 -4.7 0  1.5 -4.7 0  1.6 -4.7 0  1.7 -4.7 0  1.8 -4.7 0  1.9 -4.7 0  2 -4.7 0  2.1 -4.7 0  2.2 -4.7 0  2.3 -4.7 0  2.4 -4.7 0  2.5 -4.7 0  2.6 -4.7 0  2.7 -4.7 0  2.8 -4.7 0  2.9 -4.7 0  3 -4.7 0  3.1 -4.7 0  3.199999999999999 -4.7 0  3.300000000000001 -4.7 0  3.4 -4.7 0  3.5 -4.7 0  3.6 -4.7 0  3.699999999999999 -4.7 0  3.800000000000001 -4.7 0  3.9 -4.7 0  4 -4.7 0  4.1 -4.7 0  4.199999999999999 -4.7 0  4.300000000000001 -4.7 0  4.4 -4.7 0  4.5 -4.7 0  4.6 -4.7 0  4.699999999999999 -4.7 0  4.800000000000001 -4.7 0  4.9 -4.7 0  5 -4.7 0  -5 -4.6 0  -4.9 -4.6 0  -4.8 -4.6 0  -4.7 -4.6 0  -4.6 -4.6 0  -4.5 -4.6 0  -4.4 -4.6 0  -4.3 -4.6 0  -4.2 -4.6 0  -4.1 -4.6 0  -4 -4.6 0  -3.9 -4.6 0  -3.8 -4.6 0  -3.7 -4.6 0  -3.6 -4.6 0  -3.5 -4.6 0  -3.4 -4.6 0  -3.3 -4.6 0  -3.2 -4.6 0  -3.1 -4.6 0  -3 -4.6 0  -2.9 -4.6 0  -2.8 -4.6 0  -2.7 -4.6 0  -2.6 -4.6 0  -2.5 -4.6 0  -2.4 -4.6 0  -2.3 -4.6 0  -2.2 -4.6 0  -2.1 -4.6 0  -2 -4.6 0  -1.9 -4.6 0  -1.8 -4.6 0  -1.7 -4.6 0  -1.6 -4.6 0  -1.5 -4.6 0  -1.4 -4.6 0  -1.3 -4.6 0  -1.2 -4.6 0  -1.1 -4.6 0  -1 -4.6 0  -0.9000000000000004 -4.6 0  -0.7999999999999998 -4.6 0  -0.7000000000000002 -4.6 0  -0.5999999999999996 -4.6 0  -0.5 -4.6 0  -0.4000000000000004 -4.6 0  -0.2999999999999998 -4.6 0  -0.2000000000000002 -4.6 0  -0.09999999999999964 -4.6 0  0 -4.6 0  0.09999999999999964 -4.6 0  0.2000000000000002 -4.6 0  0.2999999999999998 -4.6 0  0.4000000000000004 -4.6 0  0.5 -4.6 0  0.5999999999999996 -4.6 0  0.7000000000000002 -4.6 0  0.7999999999999998 -4.6 0  0.9000000000000004 -4.6 0  1 -4.6 0  1.1 -4.6 0  1.2 -4.6 0  1.3 -4.6 0  1.4 -4.6 0  1.5 -4.6 0  1.6 -4.6 0  1.7 -4.6 0  1.8 -4.6 0  1.9 -4.6 0  2 -4.6 0  2.1 -4.6 0  2.2 -4.6 0  2.3 -4.6 0  2.4 -4.6 0  2.5 -4.6 0  2.6 -4.6 0  2.7 -4.6 0  2.8 -4.6 0  2.9 -4.6 0  3 -4.6 0  3.1 -4.6 0  3.199999999999999 -4.6 0  3.300000000000001 -4.6 0  3.4 -4.6 0  3.5 -4.6 0  3.6 -4.6 0  3.699999999999999 -4.6 0  3.800000000000001 -4.6 0  3.9 -4.6 0  4 -4.6 0  4.1 -4.6 0  4.199999999999999 -4.6 0  4.300000000000001 -4.6 0  4.4 -4.6 0  4.5 -4.6 0  4.6 -4.6 0  4.699999999999999 -4.6 0  4.800000000000001 -4.6 0  4.9 -4.6 0  5 -4.6 0  -5 -4.5 0  -4.9 -4.5 0  -4.8 -4.5 0  -4.7 -4.5 0  -4.6 -4.5 0  -4.5 -4.5 0  -4.4 -4.5 0  -4.3 -4.5 0  -4.2 -4.5 0  -4.1 -4.5 0  -4 -4.5 0  -3.9 -4.5 0  -3.8 -4.5 0  -3.7 -4.5 0  -3.6 -4.5 0  -3.5 -4.5 0  -3.4 -4.5 0  -3.3 -4.5 0  -3.2 -4.5 0  -3.1 -4.5 0  -3 -4.5 0  -2.9 -4.5 0  -2.8 -4.5 0  -2.7 -4.5 0  -2.6 -4.5 0  -2.5 -4.5 0  -2.4 -4.5 0  -2.3 -4.5 0  -2.2 -4.5 0  -2.1 -4.5 0  -2 -4.5 0  -1.9 -4.5 0  -1.8 -4.5 0  -1.7 -4.5 0  -1.6 -4.5 0  -1.5 -4.5 0  -1.4 -4.5 0  -1.3 -4.5 0  -1.2 -4.5 0  -1.1 -4.5 0  -1 -4.5 0  -0.9000000000000004 -4.5 0  -0.7999999999999998 -4.5 0  -0.7000000000000002 -4.5 0  -0.5999999999999996 -4.5 0  -0.5 -4.5 0  -0.4000000000000004 -4.5 0  -0.2999999999999998 -4.5 0  -0.2000000000000002 -4.5 0  -0.09999999999999964 -4.5 0  0 -4.5 0  0.09999999999999964 -4.5 0  0.2000000000000002 -4.5 0  0.2999999999999998 -4.5 0  0.4000000000000004 -4.5 0  0.5 -4.5 0  0.5999999999999996 -4.5 0  0.7000000000000002 -4.5 0  0.7999999999999998 -4.5 0  0.9000000000000004 -4.5 0  1 -4.5 0  1.1 -4.5 0  1.2 -4.5 0  1.3 -4.5 0  1.4 -4.5 0  1.5 -4.5 0  1.6 -4.5 0  1.7 -4.5 0  1.8 -4.5 0  1.9 -4.5 0  2 -4.5 0  2.1 -4.5 0  2.2 -4.5 0  2.3 -4.5 0  2.4 -4.5 0  2.5 -4.5 0  2.6 -4.5 0  2.7 -4.5 0  2.8 -4.5 0  2.9 -4.5 0  3 -4.5 0  3.1 -4.5 0  3.199999999999999 -4.5 0  3.300000000000001 -4.5 0  3.4 -4.5 0  3.5 -4.5 0  3.6 -4.5 0  3.699999999999999 -4.5 0  3.800000000000001 -4.5 0  3.9 -4.5 0  4 -4.5 0  4.1 -4.5 0  4.199999999999999 -4.5 0  4.300000000000001 -4.5 0  4.4 -4.5 0  4.5 -4.5 0  4.6 -4.5 0  4.699999999999999 -4.5 0  4.800000000000001 -4.5 0  4.9 -4.5 0  5 -4.5 0  -5 -4.4 0  -4.9 -4.4 0  -4.8 -4.4 0  -4.7 -4.4 0  -4.6 -4.4 0  -4.5 -4.4 0  -4.4 -4.4 0  -4.3 -4.4 0  -4.2 -4.4 0  -4.1 -4.4 0  -4 -4.4 0  -3.9 -4.4 0  -3.8 -4.4 0  -3.7 -4.4 0  -3.6 -4.4 0  -3.5 -4.4 0  -3.4 -4.4 0  -3.3 -4.4 0  -3.2 -4.4 0  -3.1 -4.4 0  -3 -4.4 0  -2.9 -4.4 0  -2.8 -4.4 0  -2.7 -4.4 0  -2.6 -4.4 0  -2.5 -4.4 0  -2.4 -4.4 0  -2.3 -4.4 0  -2.2 -4.4 0  -2.1 -4.4 0  -2 -4.4 0  -1.9 -4.4 0  -1.8 -4.
[...]
<PointData  Vectors="f_23"> 
<DataArray  type="Float64"  Name="f_23"  NumberOfComponents="3" format="ascii">1.5000000000000030e-01 0.0000000000000000e+00 0.0000000000000000e+00  1.5000000000000022e-01 1.8725777728153671e-33 0.0000000000000000e+00  1.5000000000000013e-01 1.2757375814346689e-34 0.0000000000000000e+00  1.5000000000000030e-01 1.0528231294126907e-32 0.0000000000000000e+00  1.5000000000000011e-01 7.1121482466621077e-32 0.0000000000000000e+00  1.4999999999999997e-01 3.1989327048849694e-32 0.0000000000000000e+00  1.5000000000000049e-01 4.4455969745822707e-33 0.0000000000000000e+00  1.5000000000000052e-01 1.2221716381771758e-33 0.0000000000000000e+00  1.5000000000000002e-01 7.7765543029854475e-34 0.0000000000000000e+00  1.5000000000000036e-01 6.6575463377302402e-32 0.0000000000000000e+00  1.5000000000000011e-01 3.5850384578969732e-31 0.0000000000000000e+00  1.5000000000000005e-01 2.3337550383511096e-32 0.0000000000000000e+00  1.4999999999999974e-01 2.5405132948419073e-31 0.0000000000000000e+00  1.4999999999999777e-01 1.9969027534833689e-30 0.0000000000000000e+00  1.4999999999999192e-01 1.7955204917821713e-29 0.0000000000000000e+00  1.4999999999998156e-01 1.0401192002273662e-30 0.0000000000000000e+00  1.4999999999999322e-01 7.7199794271495492e-28 0.0000000000000000e+00  1.5000000000013214e-01 1.4851901151262760e-26 0.0000000000000000e+00  1.5000000000060790e-01 9.7730175831268796e-26 0.0000000000000000e+00  1.5000000000163052e-01 2.9280838508125015e-25 0.0000000000000000e+00  1.5000000000304928e-01 3.2674301062923545e-25 0.0000000000000000e+00  1.5000000000385885e-01 1.7188476714366981e-27 0.0000000000000000e+00  1.5000000000227220e-01 1.3152114083775764e-24 0.0000000000000000e+00  1.4999999999719016e-01 5.7297262874713038e-24 0.0000000000000000e+00  1.4999999999036240e-01 6.5831116608555298e-24 0.0000000000000000e+00  1.4999999998640659e-01 1.0337820872743790e-24 0.0000000000000000e+00  1.4999999998901087e-01 2.1109111561655721e-24 0.0000000000000000e+00  1.4999999999669275e-01 8.9283197142097395e-24 0.0000000000000000e+00  1.5000000000360567e-01 5.7831156314168977e-24 0.0000000000000000e+00  1.5000000000524036e-01 1.8440039054927225e-25 0.0000000000000000e+00  1.5000000000234878e-01 1.1550529033168183e-24 0.0000000000000000e+00  1.4999999999896485e-01 1.1640875288539210e-24 0.0000000000000000e+00  1.4999999999795499e-01 3.7876276340584665e-26 0.0000000000000000e+00  1.4999999999917138e-01 1.6989476633833881e-25 0.0000000000000000e+00  1.5000000000067484e-01 1.2119304490547503e-25 0.0000000000000000e+00  1.5000000000089236e-01 1.3661125054199229e-28 0.0000000000000000e+00  1.5000000000001462e-01 2.8727970621649742e-26 0.0000000000000000e+00  1.4999999999944996e-01 1.2076845907561828e-26 0.0000000000000000e+00  1.4999999999982261e-01 1.5444135702409005e-27 0.0000000000000000e+00  1.5000000000029137e-01 8.2420260069959686e-27 0.0000000000000000e+00  1.5000000000014757e-01 7.5393768538253875e-29 0.0000000000000000e+00  1.4999999999984587e-01 3.3722073787667481e-27 0.0000000000000000e+00  1.4999999999991512e-01 2.2242185985334116e-28 0.0000000000000000e+00  1.5000000000008679e-01 1.2786301944490015e-27 0.0000000000000000e+00  1.5000000000003894e-01 8.3012255639625499e-29 0.0000000000000000e+00  1.4999999999994995e-01 4.4946578426650965e-28 0.0000000000000000e+00  1.4999999999998884e-01 7.3946642856176584e-30 0.0000000000000000e+00  1.5000000000002792e-01 1.6133333350093361e-28 0.0000000000000000e+00  1.4999999999999888e-01 1.4643880278010138e-30 0.0000000000000000e+00  1.4999999999998723e-01 4.3350842954666184e-29 0.0000000000000000e+00  1.5000000000000480e-01 6.0144808029339380e-30 0.0000000000000000e+00  1.5000000000000491e-01 3.8456035654951700e-30 0.0000000000000000e+00  1.4999999999999650e-01 4.7157181608517298e-30 0.0000000000000000e+00  1.4999999999999911e-01 2.3801230744668721e-31 0.0000000000000000e+00  1.5000000000000249e-01 2.1858704589226851e-30 0.0000000000000000e+00  1.4999999999999972e-01 1.4412805810415251e-31 0.0000000000000000e+00  1.4999999999999916e-01 6.5463358818725308e-33 0.0000000000000000e+00  1.5000000000000052e-01 2.2681722188695989e-31 0.0000000000000000e+00  1.5000000000000027e-01 5.9808969275302928e-32 0.0000000000000000e+00  1.5000000000000030e-01 1.9573737023202013e-31 0.0000000000000000e+00  1.5000000000000005e-01 1.2071495514808121e-32 0.0000000000000000e+00  1.5000000000000049e-01 9.9656626562221335e-32 0.0000000000000000e+00  1.5000000000000011e-01 1.8643765057785035e-32 0.0000000000000000e+00  1.4999999999999958e-01 5.1982442891335720e-33 0.0000000000000000e+00  1.5000000000000022e-01 2.4161287994265344e-32 0.0000000000000000e+00  1.5000000000000002e-01 4.6131628778534387e-31 0.0000000000000000e+00  1.5000000000000036e-01 1.8517885218644522e-31 0.0000000000000000e+00  1.5000000000000013e-01 4.9939227817060086e-32 0.0000000000000000e+00  1.5000000000000036e-01 5.4838984602374701e-32 0.0000000000000000e+00  1.5000000000000005e-01 4.6089167968576305e-34 0.0000000000000000e+00  1.4999999999999997e-01 7.9171089368978186e-33 0.0000000000000000e+00  1.5000000000000041e-01 5.7091236976476428e-31 0.0000000000000000e+00  1.4999999999999980e-01 6.7016942334628631e-32 0.0000000000000000e+00  1.5000000000000027e-01 1.1911298052501088e-32 0.0000000000000000e+00  1.5000000000000011e-01 1.0855445459314056e-32 0.0000000000000000e+00  1.4999999999999955e-01 7.4401941472492159e-33 0.0000000000000000e+00  1.5000000000000002e-01 2.0336989077068489e-33 0.0000000000000000e+00  1.4999999999999988e-01 1.2023602358959789e-32 0.0000000000000000e+00  1.5000000000000061e-01 3.6127056054365892e-33 0.0000000000000000e+00  1.4999999999999949e-01 4.5832994586201610e-34 0.0000000000000000e+00  1.4999999999999988e-01 1.0408819589749309e-31 0.0000000000000000e+00  1.5000000000000011e-01 2.3924748010602445e-32 0.0000000000000000e+00  1.5000000000000030e-01 1.6491817752196462e-32 0.0000000000000000e+00  1.5000000000000002e-01 7.0635723745148906e-32 0.0000000000000000e+00  1.5000000000000019e-01 5.8722497818134154e-32 0.0000000000000000e+00  1.5000000000000002e-01 1.2300492629849621e-34 0.0000000000000000e+00  1.4999999999999974e-01 5.2518286888098850e-33 0.0000000000000000e+00  1.4999999999999983e-01 7.6361352837053205e-32 0.0000000000000000e+00  1.5000000000000011e-01 2.7485469758995032e-34 0.0000000000000000e+00  1.5000000000000005e-01 3.2335984856898943e-32 0.0000000000000000e+00  1.5000000000000002e-01 1.0602654172636809e-32 0.0000000000000000e+00  1.5000000000000058e-01 1.7460043054400907e-33 0.0000000000000000e+00  1.5000000000000022e-01 2.1364872683813262e-32 0.0000000000000000e+00  1.5000000000000041e-01 9.9829419561703014e-32 0.0000000000000000e+00  1.5000000000000027e-01 2.4143568494272701e-31 0.0000000000000000e+00  1.5000000000000061e-01 1.3413145452110748e-32 0.0000000000000000e+00  1.4999999999999983e-01 6.1771949864328934e-32 0.0000000000000000e+00  1.5000000000000041e-01 2.0890675487661712e-31 0.0000000000000000e+00  1.5000000000000005e-01 1.2666264656645150e-31 0.0000000000000000e+00  1.5000000000000013e-01 1.1116940190142973e-32 0.0000000000000000e+00  1.5000000000000011e-01 0.0000000000000000e+00 0.0000000000000000e+00  1.5000000000000027e-01 0.0000000000000000e+00 5.5568654919279895e-33  1.5000000000000002e-01 4.8017593841866827e-32 6.9799305958183053e-33  1.5000000000000005e-01 3.4436093088417064e-32 3.6479088846246522e-33  1.5000000000000022e-01 6.1312066523486903e-34 1.9280344957630983e-32  1.5000000000000013e-01 1.6614564008647564e-32 8.3964200488630460e-32  1.5000000000000027e-01 3.6427050760726212e-32 5.0675079373785120e-33  1.5000000000000027e-01 3.5493064439380605e-32 7.7204408902490104e-32  1.5000000000000011e-01 3.5860258582226796e-34 9.4688783056395165e-32  1.5000000000000027e-01 3.0599967071990156e-32 4.6784381907778781e-33  1.5000000000000013e-01 6.4138767707605267e-33 2.9305160597739973e-32  1.5000000000000019e-01 2.0196422162142167e-32 1.4273230470147114e-31  1.5000000000000036e-01 3.9570963421923407e-35 1.7463183124802399e-31  1.5000000000000002e-01 2.9415186034690076e-32 8.1735215552422606e-32  1.5000000000000194e-01 1.3611676661763808e-30 2.4091431456558016e-30  1.5000000000000668e-01 1.3176567311688570e-29 4.0205553736067847e-29  1.5000000000001851e-01 2.9998936923108723e-29 3.6171831261325140e-28  1.5000000000002495e-01 1.5078046873446316e-28 6.4547358643917567e-28  1.4999999999994115e-01 8.2050527267162367e-27 3.0692721058101089e-27  1.4999999999955768e-01 7.9023799226039293e-26 1.7667629449560314e-25  1.4999999999857960e-01 3.2910482604495559e-25 1.7771488167518437e-24  1.4999999999694894e-01 5.8190964787699511e-25 7.8352527559606846e-24  1.4999999999544802e-01 1.6995050994119832e-25 1.6024757052596583e-23  1.4999999999601871e-01 6.5694647779916539e-25 9.7263456391828726e-24  1.5000000000066657e-01 6.3061917037447270e-24 2.2500105557853613e-24  1.5000000000881958e-01 1.1505872600440132e-23 7.8952707074108446e-23  1.5000000001582184e-01 4.9469421815989472e-24 2.0988255919617650e-22  1.5000000001591551e-01 4.7646975261420951e-25 1.7986168310319924e-22  1.5000000000813468e-01 1.0935572325413115e-23 3.2197911027718554e-23  1.4999999999825053e-01 1.2856026902472745e-23 8.5213555201295472e-24  1.4999999999336805e-01 2.3588934475936013e-24 4.0205144367955012e-23  1.4999999999520758e-01 6.5558245407353503e-25 1.5503589820834497e-23  1.4999999999978558e-01 2.4144982666448591e-24 7.6312730255117228e-26  1.5000000000248673e-01 5.0634711054276374e-25 5.8764350388918462e-24  1.5000000000192687e-01 9.9564238879799103e-26 2.7657278857891825e-24  1.4999999999982230e-01 3.0125688840987669e-25 1.0374043233382634e-25  1.4999999999869576e-01 3.2103455601048547e-26 1.6078408995659835e-24  1.4999999999943289e-01 2.6490800790982195e-26 2.1399281681911786e-25  1.5000000000058777e-01 3.6824401066204531e-26 3.9339191353650193e-25  1.5000000000055211e-01 4.3272480579665732e-28 2.5260995215838603e-25  1.4999999999977626e-01 1.1761509928949728e-26 7.2024284554658208e-26  1.4999999999963307e-01 3.8068432897616888e-27 1.2000666564918426e-25  1.5000000000009384e-01 2.7017879578010253e-27 1.5540399069528333e-26  1.5000000000021071e-01 2.7184147847015828e-27 3.9979450260939781e-26  1.4999999999994490e-01 7.1104528218183801e-28 5.5001796689542100e-27  1.4999999999989050e-01 1.1336565768006442e-27 1.0403337866536770e-26  1.5000000000004202e-01 3.0949337980087963e-28 2.6416247703969049e-27  1.5000000000005048e-01 3.3305258844852148e-28 1.9572786945236774e-27  1.4999999999996919e-01 1.6693608171100435e-28 1.2260478057401844e-27  1.4999999999998256e-01 5.6918280638714750e-29 1.7657596034082815e-28  1.5000000000002017e-01 7.3741436016791984e-29 4.3618730369965267e-28  1.5000000000000269e-01 2.6381317174774551e-30 2.9130875385968475e-32  1.4999999999998956e-01 2.6466749888344869e-29 9.8296412922214152e-29  1.5000000000000238e-01 3.8409751292888069e-31 1.0414520586092981e-29  1.5000000000000419e-01 5.1781210921291336e-30 9.2996844328893978e-30  1.4999999999999716e-01 2.1472682366504386e-30 1.0306648126021190e-29  1.4999999999999972e-01 2.8298310219896902e-31 1.5107587878816214e-32  1.5000000000000191e-01 8.8512567055987647e-31 2.0113254136893216e-30  1.4999999999999941e-01 7.9588853221282212e-33 3.3621450725425257e-31  1.4999999999999980e-01 6.1534311010526227e-32 1.0850330470078443e-32  1.5000000000000036e-01 5.8071752363429411e-32 2.2990284278835687e-31  1.5000000000000041e-01 3.7573000849717608e-33 8.2822705356650149e-32  1.4999999999999991e-01 9.0842448736348688e-33 3.0576446076108104e-32  1.4999999999999974e-01 1.1765514059727641e-34 9.6706625989529025e-33  1.5000000000000019e-01 1.5637692979821946e-31 1.3176788698923729e-32  1.5000000000000036e-01 4.3558026857312112e-32 7.6976071247909113e-32  1.5000000000000011e-01 8.6160833855447490e-32 2.0626868072349686e-32  1.5000000000000002e-01 5.0045653976043263e-32 6.4354651987966370e-32  1.5000000000000005e-01 7.6364069027596735e-33 2.8037556035645250e-32  1.5000000000000036e-01 6.7209577276873147e-32 3.8823520452947182e-32  1.5000000000000022e-01 8.7988707027611684e-32 3.8059335656336110e-32  1.5000000000000019e-01 1.7239148300857584e-32 5.6257227703616277e-33  1.5000000000000013e-01 6.8045981373791911e-33 3.7908965218229874e-33  1.4999999999999997e-01 1.1738812148677728e-32 1.5350934665501899e-31  1.5000000000000019e-01 1.2406048827879950e-32 1.4042844606725705e-33  1.4999999999999974e-01 1.4207004014402338e-32 2.2123578321551167e-32  1.5000000000000022e-01 3.2326582401892461e-32 4.3681942547323509e-33  1.5000000000000022e-01 7.0849664591818826e-32 9.8890356203571048e-34  1.5000000000000019e-01 1.4422260566382544e-32 1.6755189745577711e-33  1.5000000000000019e-01 8.1461960857336827e-32 3.7176711631598265e-32  1.5000000000000022e-01 3.9540119773592291e-32 1.6177150877423357e-31  1.5000000000000005e-01 7.1667765433563183e-33 8.7243386459254625e-33  1.5000000000000002e-01 2.4800821430901812e-33 3.0914815774878997e-32  1.4999999999999980e-01 5.6169438657617801e-33 6.8403688622151801e-32  1.5000000000000011e-01 1.4278736994102137e-32 7.4987967009689056e-32  1.4999999999999997e-01 1.5960015279290439e-32 4.6876946651659044e-33  1.5000000000000022e-01 9.4378666143060059e-32 8.9552577680092609e-33  1.5000000000000013e-01 4.8617312914862410e-32 6.1137117940615955e-34  1.5000000000000013e-01 9.7047636794595321e-33 4.0473279843136270e-34  1.5000000000000013e-01 1.2410340753768230e-32 3.6482616424565559e-32  1.5000000000000005e-01 3.5331572641772183e-36 9.3425976789346148e-35  1.5000000000000041e-01 2.2085655677427984e-33 2.9903761457392988e-32  1.5000000000000027e-01 2.7832815805596436e-33 3.6838292761588019e-35  1.5000000000000013e-01 1.1610990466896495e-31 2.1651622576479546e-32  1.5000000000000005e-01 1.6900779446633823e-32 2.9365262403833351e-32  1.5000000000000005e-01 1.0352092296733521e-32 3.4224947183730657e-33  1.4999999999999997e-01 5.7864832506286456e-33 4.9356514178588461e-32  1.5000000000000013e-01 1.5598747273356605e-33 1.4333930346465705e-33  1.5000000000000005e-01 2.4898689662626888e-32 4.4964304881923739e-32  1.5000000000000019e-01 7.4965491058158890e-33 7.6805911835128297e-33  1.5000000000000011e-01 1.0782062850321230e-33 4.3736676878445321e-33  1.5000000000000030e-01 0.0000000000000000e+00 2.9454310019355628e-31  1.4999999999999988e-01 0.0000000000000000e+00 2.4374155084229280e-33  1.5000000000000013e-01 2.4144654313721798e-32 7.5904570812612187e-32  1.5000000000000013e-01 1.3267012094911549e-35 9.7805101394964055e-32  1.5000000000000019e-01 1.7815618925398436e-32 2.0022972082221661e-32  1.5000000000000066e-01 1.7472454599846202e-33 3.9137102341560855e-32  1.5000000000000011e-01 3.9380730513043930e-32 2.4143942197743484e-31  1.5000000000000013e-01 5.2917983914123022e-33 1.2898761209592922e-31  1.5000000000000036e-01 6.0786857740908012e-33 6.0410181887192142e-33  1.5000000000000027e-01 1.2233513805699417e-31 9.1405257436321236e-32  1.5000000000000013e-01 5.1228977540380100e-32 6.8781293200080923e-32  1.5000000000000011e-01 1.1271051544480317e-33 6.0387314217848694e-33  1.5000000000000002e-01 3.2676293626860576e-32 6.6630592931851315e-32  1.5000000000000013e-01 1.2559466461949554e-33 1.9624665380942745e-31  1.4999999999999919e-01 1.6067531518619967e-30 5.1924961180066466e-31  1.4999999999999442e-01 1.7373059634583890e-29 5.3793582903095556e-29  1.4999999999997846e-01 1.0748584388273051e-28 8.1811595460064880e-28  1.4999999999995425e-01 4.6028732053015562e-30 4.2060568083185709e-27  1.4999999999999339e-01 5.4471172444293966e-27 5.8367711813205451e-28  1.5000000000034805e-01 9.3730808590412164e-26 1.7561894131174167e-25  1.5000000000148420e-01 5.5625650438250676e-25 3.5240591340742680e-24  1.5000000000377009e-01 1.4596902963706263e-24 2.3350735839096082e-23  1.5000000000661262e-01 1.1898614397055318e-24 7.1960885228626502e-23  1.5000000000751820e-01 1.3364480203420896e-25 9.0689437085976031e-23  1.5000000000273903e-01 9.7577593276153476e-24 9.5125593172724273e-24  1.4999999999089286e-01 3.0533694003887015e-23 1.5421347805243225e-22  1.4999999997710764e-01 2.6028642933891563e-23 8.9994611133435578e-22  1.4999999997144764e-01 1.0799572125005316e-24 1.3356164330734096e-21  1.4999999997986263e-01 1.7698133639912061e-23 6.1659447763061941e-22  1.4999999999675456e-01 4.3863235989605071e-23 7.6451712751371113e-24  1.5000000000949718e-01 2.0004069665110318e-23 1.7348476365250781e-22  1.5000000001072372e-01 7.1827269154195083e-27 1.9546627903091037e-22  1.5000000000384009e-01 6.8998176638859212e-24 2.1625245397811730e-23  1.4999999999708061e-01 4.4786359287335805e-24 1.6693237625325120e-23  1.4999999999550229e-01 1.4489053968098791e-26 3.5223308371733569e-23  1.4999999999851979e-01 9.8906573868411482e-25 3.4327969304285276e-24  1.5000000000191879e-01 4.7333924045204601e-25 6.8199855421621319e-24  1.5000000000205019e-01 5.1924330816866181e-27 7.3087654688768203e-24  1.4999999999967439e-01 1.6825585248593327e-25 2.3472860060046334e-25  1.4999999999855418e-01 4.3663258387068949e-26 3.7196926176375490e-24  1.4999999999982100e-01 1.9782672559290720e-26 4.2486579292155238e-26  1.5000000000085190e-01 4.2280001519636936e-26 1.3007612463055662e-24  1.5000000000020228e-01 5.2562137281240512e-28 6.1064560724456095e-26  1.4999999999951968e-01 2.0396438953193146e-26 4.1309225781562915e-25  1.4999999999989136e-01 2.5345303788145264e-29 1.6933270601579678e-26  1.5000000000026956e-01 8.1269910287429963e-27 1.2767426762996006e-25  1.5000000000002872e-01 4.0713133502698130e-30 8.4551659507749304e-28  1.4999999999985503e-01 2.9397770372791955e-27 3.6195268520296841e-26  1.5000000000001337e-01 4.0880794696946620e-29 5.0750809957303206e-28  1.5000000000007022e-01 8.6997417730031514e-28 8.1123380481494921e-27  1.4999999999997529e-01 1.0703804582820207e-28 1.2216313653661943e-27  1.4999999999997321e-01 1.7167417030253202e-28 1.0871823021048886e-27  1.5000000000002134e-01 8.6931696667396486e-29 7.7356238523086819e-28  1.5000000000000546e-01 1.2932999194348565e-29 3.1038021304489190e-29  1.4999999999998839e-01 4.0286494652901752e-29 2.3564185200696184e-28  1.5000000000000296e-01 4.4633551702549585e-31 1.4122254500232159e-29  1.5000000000000469e-01 7.7203101327421119e-30 2.7851530437357359e-29  1.4999999999999691e-01 2.2903304734776576e-30 1.8279209829816362e-29  1.4999999999999963e-01 1.5882855376231608e-31 7.6749744867590225e-32  1.5000000000000191e-01 1.0279420800361451e-30 4.4340866174706729e-30  1.4999999999999974e-01 1.9011761647332123e-31 1.2300705502611755e-30  1.4999999999999949e-01 1.1835757315094772e-31 1.1392541951379501e-31  1.5000000000000058e-01 1.5891557866905087e-31 3.6237625654466015e-31  1.5000000000000002e-01 7.1729791192387074e-32 2.0726339860726578e-32  1.5000000000000002e-01 8.5961191613649881e-35 1.9333713125336588e-32  1.5000000000000036e-01 8.1951690997928801e-36 2.8357638004360140e-35  1.5000000000000002e-01 1.3096881454277151e-34 2.2962547758095314e-32  1.5000000000000005e-01 9.3481311799707825e-35 7.9744373613102928e-33  1.5000000000000027e-01 7.6132905792236096e-34 6.7023674345343997e-35  1.5000000000000019e-01 2.3514247479421350e-32 1.5950233290699599e-33  1.5000000000000036e-01 2.0040739619215980e-33 9.8059971358573276e-32  1.5000000000000005e-01 1.4971397275660040e-32 8.7232382487564591e-32  1.5000000000000011e-01 1.0464735282691619e-32 1.0265206851715801e-32  1.5000000000000011e-01 1.2004179000780847e-32 7.5495751661546290e-34  1.5000000000000011e-01 5.1049212946077248e-32 6.0159030573708957e-32  1.5000000000000030e-01 3.3234207388514450e-33 7.3640509533950381e-32  1.5000000000000022e-01 5.1608717513529893e-32 3.3432666178823879e-33  1.5000000000000011e-01 3.4224963183738608e-32 4.3423587120441144e-32  1.5000000000000019e-01 5.5667564636465759e-32 6.7046589766230970e-36  1.5000000000000013e-01 1.0431717720297188e-31 2.3880121425429676e-31  1.5000000000000027e-01 3.7194268844985233e-33 6.1869200508840137e-32  1.4999999999999983e-01 1.4545146443773408e-32 3.3692510646279776e-33  1.5000000000000013e-01 2.2795590735106578e-32 1.7904666553337135e-31  1.5000000000