<?xml version="1.0"?>
<VTKFile type="UnstructuredGrid"  version="0.1"  >
<UnstructuredGrid>
<Piece  NumberOfPoints="10201" NumberOfCells="20000">
<Points>
<DataArray  type="Float64"  NumberOfComponents="3"  format="ascii">-5 -5 0  -4.9 -5 0  -4.8 -5 0  -4.7 -5 0  -4.6 -5 0  -4.5 -5 0  -4.4 -5 0  -4.3 -5 0  -4.2 -5 0  -4.1 -5 0  -4 -5 0  -3.9 -5 0  -3.8 -5 0  -3.7 -5 0  -3.6 -5 0  -3.5 -5 0  -3.4 -5 0  -3.3 -5 0  -3.2 -5 0  -3.1 -5 0  -3 -5 0  -2.9 -5 0  -2.8 -5 0  -2.7 -5 0  -2.6 -5 0  -2.5 -5 0  -2.4 -5 0  -2.3 -5 0  -2.2 -5 0  -2.1 -5 0  -2 -5 0  -1.9 -5 0  -1.8 -5 0  -1.7 -5 0  -1.6 -5 0  -1.5 -5 0  -1.4 -5 0  -1.3 -5 0  -1.2 -5 0  -1.1 -5 0  -1 -5 0  -0.9000000000000004 -5 0  -0.7999999999999998 -5 0  -0.7000000000000002 -5 0  -0.5999999999999996 -5 0  -0.5 -5 0  -0.4000000000000004 -5 0  -0.2999999999999998 -5 0  -0.2000000000000002 -5 0  -0.09999999999999964 -5 0  0 -5 0  0.09999999999999964 -5 0  0.2000000000000002 -5 0  0.2999999999999998 -5 0  0.4000000000000004 -5 0  0.5 -5 0  0.5999999999999996 -5 0  0.7000000000000002 -5 0  0.7999999999999998 -5 0  0.9000000000000004 -5 0  1 -5 0  1.1 -5 0  1.2 -5 0  1.3 -5 0  1.4 -5 0  1.5 -5 0  1.6 -5 0  1.7 -5 0  1.8 -5 0  1.9 -5 0  2 -5 0  2.1 -5 0  2.2 -5 0  2.3 -5 0  2.4 -5 0  2.5 -5 0  2.6 -5 0  2.7 -5 0  2.8 -5 0  2.9 -5 0  3 -5 0  3.1 -5 0  3.199999999999999 -5 0  3.300000000000001 -5 0  3.4 -5 0  3.5 -5 0  3.6 -5 0  3.699999999999999 -5 0  3.800000000000001 -5 0  3.9 -5 0  4 -5 0  4.1 -5 0  4.199999999999999 -5 0  4.300000000000001 -5 0  4.4 -5 0  4.5 -5 0  4.6 -5 0  4.699999999999999 -5 0  4.800000000000001 -5 0  4.9 -5 0  5 -5 0  -5 -4.9 0  -4.9 -4.9 0  -4.8 -4.9 0  -4.7 -4.9 0  -4.6 -4.9 0  -4.5 -4.9 0  -4.4 -4.9 0  -4.3 -4.9 0  -4.2 -4.9 0  -4.1 -4.9 0  -4 -4.9 0  -3.9 -4.9 0  -3.8 -4.9 0  -3.7 -4.9 0  -3.6 -4.9 0  -3.5 -4.9 0  -3.4 -4.9 0  -3.3 -4.9 0  -3.2 -4.9 0  -3.1 -4.9 0  -3 -4.9 0  -2.9 -4.9 0  -2.8 -4.9 0  -2.7 -4.9 0  -2.6 -4.9 0  -2.5 -4.9 0  -2.4 -4.9 0  -2.3 -4.9 0  -2.2 -4.9 0  -2.1 -4.9 0  -2 -4.9 0  -1.9 -4.9 0  -1.8 -4.9 0  -1.7 -4.9 0  -1.6 -4.9 0  -1.5 -4.9 0  -1.4 -4.9 0  -1.3 -4.9 0  -1.2 -4.9 0  -1.1 -4.9 0  -1 -4.9 0  -0.9000000000000004 -4.9 0  -0.7999999999999998 -4.9 0  -0.7000000000000002 -4.9 0  -0.5999999999999996 -4.9 0  -0.5 -4.9 0  -0.4000000000000004 -4.9 0  -0.2999999999999998 -4.9 0  -0.2000000000000002 -4.9 0  -0.09999999999999964 -4.9 0  0 -4.9 0  0.09999999999999964 -4.9 0  0.2000000000000002 -4.9 0  0.2999999999999998 -4.9 0  0.4000000000000004 -4.9 0  0.5 -4.9 0  0.5999999999999996 -4.9 0  0.7000000000000002 -4.9 0  0.7999999999999998 -4.9 0  0.9000000000000004 -4.9 0  1 -4.9 0  1.1 -4.9 0  1.2 -4.9 0  1.3 -4.9 0  1.4 -4.9 0  1.5 -4.9 0  1.6 -4.9 0  1.7 -4.9 0  1.8 -4.9 0  1.9 -4.9 0  2 -4.9 0  2.1 -4.9 0  2.2 -4.9 0  2.3 -4.9 0  2.4 -4.9 0  2.5 -4.9 0  2.6 -4.9 0  2.7 -4.9 0  2.8 -4.9 0  2.9 -4.9 0  3 -4.9 0  3.1 -4.9 0  3.199999999999999 -4.9 0  3.300000000000001 -4.9 0  3.4 -4.9 0  3.5 -4.9 0  3.6 -4.9 0  3.699999999999999 -4.9 0  3.800000000000001 -4.9 0  3.9 -4.9 0  4 -4.9 0  4.1 -4.9 0  4.199999999999999 -4.9 0  4.300000000000001 -4.9 0  4.4 -4.9 0  4.5 -4.9 0  4.6 -4.9 0  4.699999999999999 -4.9 0  4.800000000000001 -4.9 0  4.9 -4.9 0  5 -4.9 0  -5 -4.8 0  -4.9 -4.8 0  -4.8 -4.8 0  -4.7 -4.8 0  -4.6 -4.8 0  -4.5 -4.8 0  -4.4 -4.8 0  -4.3 -4.8 0  -4.2 -4.8 0  -4.1 -4.8 0  -4 -4.8 0  -3.9 -4.8 0  -3.8 -4.8 0  -3.7 -4.8 0  -3.6 -4.8 0  -3.5 -4.8 0  -3.4 -4.8 0  -3.3 -4.8 0  -3.2 -4.8 0  -3.1 -4.8 0  -3 -4.8 0  -2.9 -4.8 0  -2.8 -4.8 0  -2.7 -4.8 0  -2.6 -4.8 0  -2.5 -4.8 0  -2.4 -4.8 0  -2.3 -4.8 0  -2.2 -4.8 0  -2.1 -4.8 0  -2 -4.8 0  -1.9 -4.8 0  -1.8 -4.8 0  -1.7 -4.8 0  -1.6 -4.8 0  -1.5 -4.8 0  -1.4 -4.8 0  -1.3 -4.8 0  -1.2 -4.8 0  -1.1 -4.8 0  -1 -4.8 0  -0.9000000000000004 -4.8 0  -0.7999999999999998 -4.8 0  -0.7000000000000002 -4.8 0  -0.5999999999999996 -4.8 0  -0.5 -4.8 0  -0.4000000000000004 -4.8 0  -0.2999999999999998 -4.8 0  -0.2000000000000002 -4.8 0  -0.09999999999999964 -4.8 0  0 -4.8 0  0.09999999999999964 -4.8 0  0.2000000000000002 -4.8 0  0.2999999999999998 -4.8 0  0.4000000000000004 -4.8 0  0.5 -4.8 0  0.5999999999999996 -4.8 0  0.7000000000000002 -4.8 0  0.7999999999999998 -4.8 0  0.9000000000000004 -4.8 0  1 -4.8 0  1.1 -4.8 0  1.2 -4.8 0  1.3 -4.8 0  1.4 -4.8 0  1.5 -4.8 0  1.6 -4.8 0  1.7 -4.8 0  1.8 -4.8 0  1.9 -4.8 0  2 -4.8 0  2.1 -4.8 0  2.2 -4.8 0  2.3 -4.8 0  2.4 -4.8 0  2.5 -4.8 0  2.6 -4.8 0  2.7 -4.8 0  2.8 -4.8 0  2.9 -4.8 0  3 -4.8 0  3.1 -4.8 0  3.199999999999999 -4.8 0  3.300000000000001 -4.8 0  3.4 -4.8 0  3.5 -4.8 0  3.6 -4.8 0  3.699999999999999 -4.8 0  3.800000000000001 -4.8 0  3.9 -4.8 0  4 -4.8 0  4.1 -4.8 0  4.199999999999999 -4.8 0  4.300000000000001 -4.8 0  4.4 -4.8 0  4.5 -4.8 0  4.6 -4.8 0  4.699999999999999 -4.8 0  4.800000000000001 -4.8 0  4.9 -4.8 0  5 -4.8 0  -5 -4.7 0  -4.9 -4.7 0  -4.8 -4.7 0  -4.7 -4.7 0  -4.6 -4.7 0  -4.5 -4.7 0  -4.4 -4.7 0  -4.3 -4.7 0  -4.2 -4.7 0  -4.1 -4.7 0  -4 -4.7 0  -3.9 -4.7 0  -3.8 -4.7 0  -3.7 -4.7 0  -3.6 -4.7 0  -3.5 -4.7 0  -3.4 -4.7 0  -3.3 -4.7 0  -3.2 -4.7 0  -3.1 -4.7 0  -3 -4.7 0  -2.9 -4.7 0  -2.8 -4.7 0  -2.7 -4.7 0  -2.6 -4.7 0  -2.5 -4.7 0  -2.4 -4.7 0  -2.3 -4.7 0  -2.2 -4.7 0  -2.1 -4.7 0  -2 -4.7 0  -1.9 -4.7 0  -1.8 -4.7 0  -1.7 -4.7 0  -1.6 -4.7 0  -1.5 -4.7 0  -1.4 -4.7 0  -1.3 -4.7 0  -1.2 -4.7 0  -1.1 -4.7 0  -1 -4.7 0  -0.9000000000000004 -4.7 0  -0.7999999999999998 -4.7 0  -0.7000000000000002 -4.7 0  -0.5999999999999996 -4.7 0  -0.5 -4.7 0  -0.4000000000000004 -4.7 0  -0.2999999999999998 -4.7 0  -0.2000000000000002 -4.7 0  -0.09999999999999964 -4.7 0  0 -4.7 0  0.09999999999999964 -4.7 0  0.2000000000000002 -4.7 0  0.2999999999999998 -4.7 0  0.4000000000000004 -4.7 0  0.5 -4.7 0  0.5999999999999996 -4.7 0  0.7000000000000002 -4.7 0  0.7999999999999998 -4.7 0  0.9000000000000004 -4.7 0  1 -4.7 0  1.1 -4.7 0  1.2 -4.7 0  1.3 -4.7 0  1.4 -4.7 0  1.5 -4.7 0  1.6 -4.7 0  1.7 -4.7 0  1.8 -4.7 0  1.9 -4.7 0  2 -4.7 0  2.1 -4.7 0  2.2 -4.7 0  2.3 -4.7 0  2.4 -4.7 0  2.5 -4.7 0  2.6 -4.7 0  2.7 -4.7 0  2.8 -4.7 0  2.9 -4.7 0  3 -4.7 0  3.1 -4.7 0  3.199999999999999 -4.7 0  3.300000000000001 -4.7 0  3.4 -4.7 0  3.5 -4.7 0  3.6 -4.7 0  3.699999999999999 -4.7 0  3.800000000000001 -4.7 0  3.9 -4.7 0  4 -4.7 0  4.1 -4.7 0  4.199999999999999 -4.7 0  4.300000000000001 -4.7 0  4.4 -4.7 0  4.5 -4.7 0  4.6 -4.7 0  4.699999999999999 -4.7 0  4.800000000000001 -4.7 0  4.9 -4.7 0  5 -4.7 0  -5 -4.6 0  -4.9 -4.6 0  -4.8 -4.6 0  -4.7 -4.6 0  -4.6 -4.6 0  -4.5 -4.6 0  -4.4 -4.6 0  -4.3 -4.6 0  -4.2 -4.6 0  -4.1 -4.6 0  -4 -4.6 0  -3.9 -4.6 0  -3.8 -4.6 0  -3.7 -4.6 0  -3.6 -4.6 0  -3.5 -4.6 0  -3.4 -4.6 0  -3.3 -4.6 0  -3.2 -4.6 0  -3.1 -4.6 0  -3 -4.6 0  -2.9 -4.6 0  -2.8 -4.6 0  -2.7 -4.6 0  -2.6 -4.6 0  -2.5 -4.6 0  -2.4 -4.6 0  -2.3 -4.6 0  -2.2 -4.6 0  -2.1 -4.6 0  -2 -4.6 0  -1.9 -4.6 0  -1.8 -4.6 0  -1.7 -4.6 0  -1.6 -4.6 0  -1.5 -4.6 0  -1.4 -4.6 0  -1.3 -4.6 0  -1.2 -4.6 0  -1.1 -4.6 0  -1 -4.6 0  -0.9000000000000004 -4.6 0  -0.7999999999999998 -4.6 0  -0.7000000000000002 -4.6 0  -0.5999999999999996 -4.6 0  -0.5 -4.6 0  -0.4000000000000004 -4.6 0  -0.2999999999999998 -4.6 0  -0.2000000000000002 -4.6 0  -0.09999999999999964 -4.6 0  0 -4.6 0  0.09999999999999964 -4.6 0  0.2000000000000002 -4.6 0  0.2999999999999998 -4.6 0  0.4000000000000004 -4.6 0  0.5 -4.6 0  0.5999999999999996 -4.6 0  0.7000000000000002 -4.6 0  0.7999999999999998 -4.6 0  0.9000000000000004 -4.6 0  1 -4.6 0  1.1 -4.6 0  1.2 -4.6 0  1.3 -4.6 0  1.4 -4.6 0  1.5 -4.6 0  1.6 -4.6 0  1.7 -4.6 0  1.8 -4.6 0  1.9 -4.6 0  2 -4.6 0  2.1 -4.6 0  2.2 -4.6 0  2.3 -4.6 0  2.4 -4.6 0  2.5 -4.6 0  2.6 -4.6 0  2.7 -4.6 0  2.8 -4.6 0  2.9 -4.6 0  3 -4.6 0  3.1 -4.6 0  3.199999999999999 -4.6 0  3.300000000000001 -4.6 0  3.4 -4.6 0  3.5 -4.6 0  3.6 -4.6 0  3.699999999999999 -4.6 0  3.800000000000001 -4.6 0  3.9 -4.6 0  4 -4.6 0  4.1 -4.6 0  4.199999999999999 -4.6 0  4.300000000000001 -4.6 0  4.4 -4.6 0  4.5 -4.6 0  4.6 -4.6 0  4.699999999999999 -4.6 0  4.800000000000001 -4.6 0  4.9 -4.6 0  5 -4.6 0  -5 -4.5 0  -4.9 -4.5 0  -4.8 -4.5 0  -4.7 -4.5 0  -4.6 -4.5 0  -4.5 -4.5 0  -4.4 -4.5 0  -4.3 -4.5 0  -4.2 -4.5 0  -4.1 -4.5 0  -4 -4.5 0  -3.9 -4.5 0  -3.8 -4.5 0  -3.7 -4.5 0  -3.6 -4.5 0  -3.5 -4.5 0  -3.4 -4.5 0  -3.3 -4.5 0  -3.2 -4.5 0  -3.1 -4.5 0  -3 -4.5 0  -2.9 -4.5 0  -2.8 -4.5 0  -2.7 -4.5 0  -2.6 -4.5 0  -2.5 -4.5 0  -2.4 -4.5 0  -2.3 -4.5 0  -2.2 -4.5 0  -2.1 -4.5 0  -2 -4.5 0  -1.9 -4.5 0  -1.8 -4.5 0  -1.7 -4.5 0  -1.6 -4.5 0  -1.5 -4.5 0  -1.4 -4.5 0  -1.3 -4.5 0  -1.2 -4.5 0  -1.1 -4.5 0  -1 -4.5 0  -0.9000000000000004 -4.5 0  -0.7999999999999998 -4.5 0  -0.7000000000000002 -4.5 0  -0.5999999999999996 -4.5 0  -0.5 -4.5 0  -0.4000000000000004 -4.5 0  -0.2999999999999998 -4.5 0  -0.2000000000000002 -4.5 0  -0.09999999999999964 -4.5 0  0 -4.5 0  0.09999999999999964 -4.5 0  0.2000000000000002 -4.5 0  0.2999999999999998 -4.5 0  0.4000000000000004 -4.5 0  0.5 -4.5 0  0.5999999999999996 -4.5 0  0.7000000000000002 -4.5 0  0.7999999999999998 -4.5 0  0.9000000000000004 -4.5 0  1 -4.5 0  1.1 -4.5 0  1.2 -4.5 0  1.3 -4.5 0  1.4 -4.5 0  1.5 -4.5 0  1.6 -4.5 0  1.7 -4.5 0  1.8 -4.5 0  1.9 -4.5 0  2 -4.5 0  2.1 -4.5 0  2.2 -4.5 0  2.3 -4.5 0  2.4 -4.5 0  2.5 -4.5 0  2.6 -4.5 0  2.7 -4.5 0  2.8 -4.5 0  2.9 -4.5 0  3 -4.5 0  3.1 -4.5 0  3.199999999999999 -4.5 0  3.300000000000001 -4.5 0  3.4 -4.5 0  3.5 -4.5 0  3.6 -4.5 0  3.699999999999999 -4.5 0  3.800000000000001 -4.5 0  3.9 -4.5 0  4 -4.5 0  4.1 -4.5 0  4.199999999999999 -4.5 0  4.300000000000001 -4.5 0  4.4 -4.5 0  4.5 -4.5 0  4.6 -4.5 0  4.699999999999999 -4.5 0  4.800000000000001 -4.5 0  4.9 -4.5 0  5 -4.5 0  -5 -4.4 0  -4.9 -4.4 0  -4.8 -4.4 0  -4.7 -4.4 0  -4.6 -4.4 0  -4.5 -4.4 0  -4.4 -4.4 0  -4.3 -4.4 0  -4.2 -4.4 0  -4.1 -4.4 0  -4 -4.4 0  -3.9 -4.4 0  -3.8 -4.4 0  -3.7 -4.4 0  -3.6 -4.4 0  -3.5 -4.4 0  -3.4 -4.4 0  -3.3 -4.4 0  -3.2 -4.4 0  -3.1 -4.4 0  -3 -4.4 0  -2.9 -4.4 0  -2.8 -4.4 0  -2.7 -4.4 0  -2.6 -4.4 0  -2.5 -4.4 0  -2.4 -4.4 0  -2.3 -4.4 0  -2.2 -4.4 0  -2.1 -4.4 0  -2 -4.4 0  -1.9 -4.4 0  -1.8 -4.
[...]
<PointData  Vectors="f_23"> 
<DataArray  type="Float64"  Name="f_23"  NumberOfComponents="3" format="ascii">1.5000000000000052e-01 0.0000000000000000e+00 0.0000000000000000e+00  1.5000000000000019e-01 3.2471448613616024e-32 0.0000000000000000e+00  1.4999999999999933e-01 1.4973777880728571e-31 0.0000000000000000e+00  1.5000000000000013e-01 1.8838882240506381e-31 0.0000000000000000e+00  1.5000000000000030e-01 6.4824690833580697e-31 0.0000000000000000e+00  1.5000000000000066e-01 5.0421484599081852e-29 0.0000000000000000e+00  1.5000000000003472e-01 1.2241775960349861e-27 0.0000000000000000e+00  1.5000000000020713e-01 1.9860653759761865e-26 0.0000000000000000e+00  1.5000000000080371e-01 2.2718467755808418e-25 0.0000000000000000e+00  1.5000000000259722e-01 1.4627052047896770e-24 0.0000000000000000e+00  1.5000000000704902e-01 5.8697722951282478e-24 0.0000000000000000e+00  1.5000000001615885e-01 1.8758020199776120e-23 0.0000000000000000e+00  1.5000000003317313e-01 6.8686905111271594e-23 0.0000000000000000e+00  1.5000000006628056e-01 4.3049936284229128e-22 0.0000000000000000e+00  1.5000000013852491e-01 3.7294891894490687e-21 0.0000000000000000e+00  1.5000000030534044e-01 2.5510727276288996e-20 0.0000000000000000e+00  1.5000000065189395e-01 1.0026875513178178e-19 0.0000000000000000e+00  1.5000000118759560e-01 1.7007659814988107e-19 0.0000000000000000e+00  1.5000000158914564e-01 2.3933448433623040e-20 0.0000000000000000e+00  1.5000000099268637e-01 5.8099243783775916e-19 0.0000000000000000e+00  1.4999999833661123e-01 4.8767150600608965e-18 0.0000000000000000e+00  1.4999999356061955e-01 1.0523000389751555e-17 0.0000000000000000e+00  1.4999998885927196e-01 6.5380691093333000e-18 0.0000000000000000e+00  1.4999998802720821e-01 3.2337229357438169e-20 0.0000000000000000e+00  1.4999999307165629e-01 1.1532140566792813e-17 0.0000000000000000e+00  1.5000000118697032e-01 2.2072790997383689e-17 0.0000000000000000e+00  1.5000000669857835e-01 1.0046968744231713e-17 0.0000000000000000e+00  1.5000000676832559e-01 4.2399134122225675e-20 0.0000000000000000e+00  1.5000000346312151e-01 4.1675699360929730e-18 0.0000000000000000e+00  1.4999999983381335e-01 6.0788576779758356e-18 0.0000000000000000e+00  1.4999999719238896e-01 1.5820860925056168e-18 0.0000000000000000e+00  1.4999999694286137e-01 3.2951051588614927e-19 0.0000000000000000e+00  1.5000000005325234e-01 2.4474742928345737e-18 0.0000000000000000e+00  1.5000000320878945e-01 6.4008184241313414e-19 0.0000000000000000e+00  1.5000000173957256e-01 6.0185432063494041e-19 0.0000000000000000e+00  1.4999999778130549e-01 1.2894824667794050e-18 0.0000000000000000e+00  1.4999999779365472e-01 7.5380373008175056e-21 0.0000000000000000e+00  1.5000000133539934e-01 9.1337022917233604e-19 0.0000000000000000e+00  1.5000000195754953e-01 5.6246911886637652e-20 0.0000000000000000e+00  1.4999999917226495e-01 4.6420929524696651e-19 0.0000000000000000e+00  1.4999999852917001e-01 9.2036753698508912e-20 0.0000000000000000e+00  1.5000000059723373e-01 2.1811182004881148e-19 0.0000000000000000e+00  1.5000000098299635e-01 6.2068960253781799e-20 0.0000000000000000e+00  1.4999999950875118e-01 1.0727615673735332e-19 0.0000000000000000e+00  1.4999999942030437e-01 2.5600243915844630e-20 0.0000000000000000e+00  1.5000000041064396e-01 5.5620176406384526e-20 0.0000000000000000e+00  1.5000000028196150e-01 5.8557242550889429e-21 0.0000000000000000e+00  1.4999999968217401e-01 2.7907075960407907e-20 0.0000000000000000e+00  1.4999999991228755e-01 2.2009487224082599e-22 0.0000000000000000e+00  1.5000000021451762e-01 1.1917796304651508e-20 0.0000000000000000e+00  1.4999999998343005e-01 4.3286370040890288e-22 0.0000000000000000e+00  1.4999999988170234e-01 3.6635732349975831e-21 0.0000000000000000e+00  1.5000000005310815e-01 1.0906522053935317e-21 0.0000000000000000e+00  1.5000000004576591e-01 5.7510677932130621e-22 0.0000000000000000e+00  1.4999999995128052e-01 8.3689885046274788e-22 0.0000000000000000e+00  1.4999999999624788e-01 3.0829692323903883e-24 0.0000000000000000e+00  1.5000000002835140e-01 3.0432365661419185e-22 0.0000000000000000e+00  1.4999999998825517e-01 5.2551667190130424e-23 0.0000000000000000e+00  1.4999999999074518e-01 3.8967868183101094e-23 0.0000000000000000e+00  1.5000000001114738e-01 5.3371459649677815e-23 0.0000000000000000e+00  1.4999999999876615e-01 2.6098535077272792e-25 0.0000000000000000e+00  1.4999999999485233e-01 1.3904593917844225e-23 0.0000000000000000e+00  1.5000000000368222e-01 6.1100663690404894e-24 0.0000000000000000e+00  1.5000000000042282e-01 2.6451148572768744e-25 0.0000000000000000e+00  1.4999999999783636e-01 2.7398367607134370e-24 0.0000000000000000e+00  1.5000000000118832e-01 6.4576543958984332e-25 0.0000000000000000e+00  1.5000000000030944e-01 1.1570633763960144e-25 0.0000000000000000e+00  1.4999999999918398e-01 4.3668271607606487e-25 0.0000000000000000e+00  1.5000000000042119e-01 8.5596637370969503e-26 0.0000000000000000e+00  1.5000000000010533e-01 1.7362554631019013e-26 0.0000000000000000e+00  1.4999999999971037e-01 6.3586570849284565e-26 0.0000000000000000e+00  1.5000000000016939e-01 1.6050298080879431e-26 0.0000000000000000e+00  1.5000000000001201e-01 8.6832306365700541e-28 0.0000000000000000e+00  1.4999999999990682e-01 8.0655983184991215e-27 0.0000000000000000e+00  1.5000000000007160e-01 3.5860460762379075e-27 0.0000000000000000e+00  1.4999999999998642e-01 3.0334241830369499e-29 0.0000000000000000e+00  1.4999999999997710e-01 6.6752699164238856e-28 0.0000000000000000e+00  1.5000000000002786e-01 6.6406180463818909e-28 0.0000000000000000e+00  1.4999999999998659e-01 1.2321597264485761e-28 0.0000000000000000e+00  1.4999999999999958e-01 6.4902309862826496e-30 0.0000000000000000e+00  1.5000000000000718e-01 6.9995906835396004e-29 0.0000000000000000e+00  1.4999999999999347e-01 5.7852256196932817e-29 0.0000000000000000e+00  1.5000000000000316e-01 9.7862452013027823e-30 0.0000000000000000e+00  1.5000000000000036e-01 3.5984857761634593e-31 0.0000000000000000e+00  1.4999999999999841e-01 3.0200664247880642e-30 0.0000000000000000e+00  1.5000000000000177e-01 3.4722086356018931e-30 0.0000000000000000e+00  1.4999999999999905e-01 2.2119356952860549e-31 0.0000000000000000e+00  1.5000000000000058e-01 1.8603125882816932e-33 0.0000000000000000e+00  1.5000000000000036e-01 1.8550610609279009e-33 0.0000000000000000e+00  1.4999999999999983e-01 4.0813696838224433e-32 0.0000000000000000e+00  1.5000000000000022e-01 1.3141240392052546e-31 0.0000000000000000e+00  1.4999999999999980e-01 1.0220175395172403e-31 0.0000000000000000e+00  1.4999999999999991e-01 1.5942225779654011e-32 0.0000000000000000e+00  1.4999999999999980e-01 3.3607431753637073e-32 0.0000000000000000e+00  1.4999999999999997e-01 9.6491382666210014e-33 0.0000000000000000e+00  1.5000000000000036e-01 2.2415560614991526e-32 0.0000000000000000e+00  1.4999999999999955e-01 2.3412742124167860e-31 0.0000000000000000e+00  1.5000000000000041e-01 5.9902602304469827e-33 0.0000000000000000e+00  1.4999999999999991e-01 4.4300384471482172e-33 0.0000000000000000e+00  1.5000000000000036e-01 2.8397575182836862e-32 0.0000000000000000e+00  1.5000000000000022e-01 0.0000000000000000e+00 0.0000000000000000e+00  1.5000000000000027e-01 0.0000000000000000e+00 2.1749784782266729e-33  1.4999999999999997e-01 2.4675731512355170e-31 2.7775215237831184e-32  1.5000000000000049e-01 8.9202798816073048e-32 1.9498072956478345e-35  1.5000000000000122e-01 4.8661545799291089e-32 6.9284360662496991e-31  1.5000000000000013e-01 2.8770661547106592e-30 8.6994726188396396e-32  1.5000000000000058e-01 3.2637068792614610e-30 6.8667044161117329e-31  1.4999999999998589e-01 5.7880928198641483e-28 1.5332165563599430e-28  1.4999999999986732e-01 9.8589356301292732e-27 1.3897372664525777e-26  1.4999999999940808e-01 1.3640383048641947e-25 2.9554439902879808e-25  1.4999999999794600e-01 1.1824112273561182e-24 3.7386970849529786e-24  1.4999999999396627e-01 5.9180165002930000e-24 3.2755773422286444e-23  1.4999999998511215e-01 2.0657779755687608e-23 2.0059574977334867e-22  1.4999999996816490e-01 6.6156049936702759e-23 9.1068712720237206e-22  1.4999999993677296e-01 2.8786379594936957e-22 3.4307586155988876e-21  1.4999999987422200e-01 2.0641578147111962e-21 1.2381462632381371e-20  1.4999999973758657e-01 1.5714773820154265e-20 4.8507940476791246e-20  1.4999999944420200e-01 7.9540229733649745e-20 2.0027079129534564e-19  1.4999999892783161e-01 2.0134093305464562e-19 6.9536363900080312e-19  1.4999999836031713e-01 1.3361724290357609e-19 1.4695155406865661e-18  1.4999999845807824e-01 1.3074754744457392e-19 9.5088857847319398e-19  1.5000000042159750e-01 3.4527883568382390e-18 6.4690234772564602e-19  1.5000000496445515e-01 1.1660880484454464e-17 2.0191979299637846e-17  1.5000001072168079e-01 1.2468982084457025e-17 7.5193020373947784e-17  1.5000001384929371e-01 1.4044638193514179e-18 1.0313772193544847e-16  1.5000001072419319e-01 6.8719267391359995e-18 4.2949491061670354e-17  1.5000000221454093e-01 2.6822916722153872e-17 2.8734587589041110e-19  1.4999999413604312e-01 2.0938480794278624e-17 3.6913292138991535e-17  1.4999999168103609e-01 2.4425862544371340e-18 4.3660319006380985e-17  1.4999999440747241e-01 2.2372990406397740e-18 1.2527650202072854e-17  1.4999999859006660e-01 8.2494819492814918e-18 2.2011400399833627e-20  1.5000000211508493e-01 4.8637600309599892e-18 5.1399298616659324e-18  1.5000000382013259e-01 2.6420196643264346e-20 9.2675640522164372e-18  1.5000000176347403e-01 2.6584340239206550e-18 6.8613681001194473e-19  1.4999999734549554e-01 2.1929528419171407e-18 7.2619542033709218e-18  1.4999999655736670e-01 1.0312564002958051e-19 6.6404021176071774e-18  1.5000000092186175e-01 1.9804384538805090e-18 1.9522162560673026e-18  1.5000000340292766e-01 2.0138172571603842e-19 8.0224997804194194e-18  1.5000000007859760e-01 8.3651018906050464e-19 2.3182925190433831e-19  1.4999999725385682e-01 4.4055454456687129e-19 5.7987807173707347e-18  1.4999999962658117e-01 2.5205110655213776e-19 1.1192217099146353e-20  1.5000000203233568e-01 3.6526052034452406e-19 3.3193812314648511e-18  1.5000000028333538e-01 7.1317336125761356e-20 4.7266048557651352e-21  1.4999999856596977e-01 2.1458533114428862e-19 1.6418630751019100e-18  1.4999999992422042e-01 2.6737824233143514e-20 2.4305135898836381e-20  1.5000000096067861e-01 1.0430064091626069e-19 6.9831519951179547e-19  1.4999999989814503e-01 1.6099067973354032e-20 5.5901084121458227e-20  1.4999999940988643e-01 4.2437288529796602e-20 2.3669195626641545e-19  1.5000000019520490e-01 1.2612200236441338e-20 6.7004016274058107e-20  1.5000000031083077e-01 1.3123611348563893e-20 5.3459583603453591e-20  1.4999999979480086e-01 9.4194950567463762e-21 4.9625959950471597e-20  1.4999999988016219e-01 2.2945427679622407e-21 4.4145420918668651e-21  1.5000000015998077e-01 5.5311281028657922e-21 2.3409331598399801e-20  1.5000000001060501e-01 3.0621457651001151e-23 3.4008341597876462e-22  1.4999999990515597e-01 2.2156159616905705e-21 6.3515328849171124e-21  1.5000000003325928e-01 2.1651683541893292e-22 1.9262872449710375e-21  1.5000000003803607e-01 4.7448810876713536e-22 6.1354167098767133e-22  1.4999999996426092e-01 3.2993966014502280e-22 1.2760830957907079e-21  1.4999999999656974e-01 1.7142080692866440e-23 1.6251681422196510e-23  1.5000000002097746e-01 1.5434832184108149e-22 2.9631244830829753e-22  1.4999999999080585e-01 1.6461523112242581e-23 1.2891045617993366e-22  1.4999999999390953e-01 2.2899825599154462e-23 8.0300969783533885e-24  1.5000000000829219e-01 2.4495093902271847e-23 5.8021795733525200e-23  1.4999999999830943e-01 6.5115702109040801e-26 9.3840436386005197e-24  1.4999999999672303e-01 6.5267872408380863e-24 4.2904025859327926e-24  1.5000000000292968e-01 3.0470582791408925e-24 8.4281419373946721e-24  1.4999999999978514e-01 5.9396281091192344e-26 7.0994765440109429e-25  1.4999999999864805e-01 1.2092084895312826e-24 8.3596531769313443e-25  1.5000000000103744e-01 3.9974971890118923e-25 1.1349849697704516e-24  1.4999999999995142e-01 1.7383865454071862e-26 8.9800664057480792e-26  1.4999999999951283e-01 1.8522536660207018e-25 1.0015998724163371e-25  1.5000000000038760e-01 6.5367411753476669e-26 1.5210160260053022e-25  1.4999999999994743e-01 6.9388464022110499e-28 2.0589014615465527e-26  1.4999999999984823e-01 2.3934921256716522e-26 6.4323194549250222e-27  1.5000000000014843e-01 1.2715560613620879e-26 1.8657617149436070e-26  1.4999999999995314e-01 2.2216456112659242e-28 5.5026898771318026e-27  1.4999999999996699e-01 2.0482908436217024e-27 1.5036724018480148e-29  1.5000000000005220e-01 2.2946211901438705e-27 1.6076463462636832e-27  1.4999999999996982e-01 4.1290964557096549e-28 1.1423363094362538e-27  1.5000000000000221e-01 2.9802552946237322e-29 1.3032909652352467e-28  1.5000000000001312e-01 2.3189552527594705e-28 3.0690549725344054e-29  1.4999999999998689e-01 1.5582104041909072e-28 1.1702263774002300e-28  1.5000000000000710e-01 2.0101279565715280e-29 6.7607899421320593e-29  1.4999999999999997e-01 1.2282484622060572e-30 1.0071806082198212e-29  1.4999999999999744e-01 1.0684852698762724e-29 5.8270351656117362e-31  1.5000000000000333e-01 1.1299527808966800e-29 5.8752431225893572e-30  1.4999999999999830e-01 3.0804463731278645e-30 4.8169366421840071e-30  1.5000000000000066e-01 6.0473774067406946e-31 1.8592290586398824e-30  1.5000000000000002e-01 5.0780418157409965e-32 4.1502318556093120e-33  1.4999999999999966e-01 1.7145100376500495e-31 3.0866862769493337e-32  1.5000000000000074e-01 3.2685810136332063e-31 3.1777733823604894e-31  1.4999999999999955e-01 1.1277059648585754e-31 1.3169158021556026e-31  1.5000000000000011e-01 8.8438790616777504e-32 2.2686546571311249e-32  1.5000000000000013e-01 4.9226049108259060e-34 5.2276202475345598e-32  1.5000000000000044e-01 2.3325736484629324e-32 9.8522171647646982e-34  1.5000000000000044e-01 1.3878783323448127e-32 5.3398533189349057e-32  1.5000000000000013e-01 1.3262525955704071e-31 3.1736410411981312e-35  1.5000000000000044e-01 5.0117581652706305e-35 2.5608504982404607e-34  1.5000000000000022e-01 2.4252837010725829e-32 3.0366129107744089e-32  1.5000000000000002e-01 1.4317342724693543e-32 4.1558489698807374e-32  1.5000000000000013e-01 2.4301072323960119e-32 2.8940362521844762e-34  1.5000000000000005e-01 0.0000000000000000e+00 7.4299544068177215e-34  1.4999999999999980e-01 0.0000000000000000e+00 4.6751567853789828e-32  1.5000000000000058e-01 1.6356770297734582e-32 2.4661138918451725e-32  1.5000000000000069e-01 1.2969927537658269e-31 1.6873090740660563e-31  1.4999999999999855e-01 6.3618312885193834e-31 1.0136698387776437e-30  1.4999999999999941e-01 5.1497042464524111e-31 8.3072161166397974e-31  1.5000000000000127e-01 8.7147190248475161e-30 6.8580549764015400e-34  1.5000000000000380e-01 2.7956880151163244e-28 6.7472059640969980e-30  1.5000000000009006e-01 8.0952744634742470e-27 9.9072716507158562e-27  1.5000000000052399e-01 1.2256717947239330e-25 3.7761107006884731e-25  1.5000000000200964e-01 1.4286756555532572e-24 6.0955043751526418e-24  1.5000000000644570e-01 9.8154520039884956e-24 6.6272824270717652e-23  1.5000000001751043e-01 4.2318328812241218e-23 5.0330005152473433e-22  1.5000000004027042e-01 1.3977308076061863e-22 2.6991858078863030e-21  1.5000000008176367e-01 4.4587010635147554e-22 1.0993892240267467e-20  1.5000000015571385e-01 1.9393573299161098e-21 3.7843799965616463e-20  1.5000000029535454e-01 1.2483103938821520e-20 1.2598683271221451e-19  1.5000000057770618e-01 7.4956325947150692e-20 4.5553318492409949e-19  1.5000000111549958e-01 2.7131558673855670e-19 1.6798176867259759e-18  1.5000000187854812e-01 3.9284249580747531e-19 4.8142491013085020e-18  1.5000000227781590e-01 6.0522268778240892e-21 7.0374169535916444e-18  1.5000000089158191e-01 2.5433785636572316e-18 8.4209412324003881e-19  1.4999999617062978e-01 1.6034332764712410e-17 2.3864220424855794e-17  1.4999998846794585e-01 2.8847612158077918e-17 2.0056740633243860e-16  1.4999998180965976e-01 1.2633097435898962e-17 4.7290287428193397e-16  1.4999998219803795e-01 2.1450836841648140e-18 4.1337379966807278e-16  1.4999999175417236e-01 4.1665778470572516e-17 6.2527129330325711e-17  1.5000000461405213e-01 5.7228056049073442e-17 5.8440392934801208e-17  1.5000001166844537e-01 1.7929246786368084e-17 2.3062490635727556e-16  1.5000001005044469e-01 3.1526523670773013e-19 1.4450940326394430e-16  1.5000000441957023e-01 1.3600503412286843e-17 2.0673596683961328e-17  1.4999999907529837e-01 1.5862770705047837e-17 3.9543793360924343e-18  1.4999999514830589e-01 3.0026231175368194e-18 4.1417051919934815e-17  1.4999999529337893e-01 2.2067667049258404e-18 3.1700961983748052e-17  1.5000000116513210e-01 7.9089526167473766e-18 4.1985087333635232e-18  1.5000000590955237e-01 6.8295691583944992e-19 5.7672007603075565e-17  1.5000000187813312e-01 3.4924137424789268e-18 3.7105029331940305e-18  1.4999999518450463e-01 2.7813512258877327e-18 4.0633506673928529e-17  1.4999999701152397e-01 5.8787011626969409e-19 1.2196534575176191e-17  1.5000000345535419e-01 2.5109423837159286e-18 2.1655280128789711e-17  1.5000000283112275e-01 1.4027523135805401e-20 1.1519798849728815e-17  1.4999999753603699e-01 1.4895107754381301e-18 1.1151634599212131e-17  1.4999999786699372e-01 1.6241540049395070e-20 6.5559425747611199e-18  1.5000000183478346e-01 7.6148082969374543e-19 6.1137709022850316e-18  1.5000000134232605e-01 2.2062978957540136e-20 2.5112112431484299e-18  1.4999999860163524e-01 3.7571578793604174e-19 3.4483356861446697e-18  1.4999999932930741e-01 6.4915552953362980e-21 5.6809563200819984e-19  1.5000000102976752e-01 1.8088953094573465e-19 1.7966779395065033e-18  1.5000000019557716e-01 7.1658643768091176e-25 3.0282553123798245e-20  1.4999999931169644e-01 7.9065956263322019e-20 7.6350348005991624e-19  1.5000000007545908e-01 3.6202376706921313e-21 2.0867851774086317e-20  1.5000000038894201e-01 2.7301187650162147e-20 2.2703148790349301e-19  1.4999999982380105e-01 7.2635587954848253e-21 6.1631219322520253e-20  1.4999999983813109e-01 5.7098853619208286e-21 3.4040590312300114e-20  1.5000000016431386e-01 6.2269732321713130e-21 4.6180239710505294e-20  1.5000000002349934e-01 2.4119786934585362e-22 1.9404354487790807e-22  1.4999999989762389e-01 2.8706020524603019e-21 1.5920566048514324e-20  1.5000000003434810e-01 2.0824414081204403e-22 2.6369930499097202e-21  1.5000000003950176e-01 6.0211283773602818e-22 1.9175600064680591e-21  1.4999999996126351e-01 4.1826884041067567e-22 2.5302683641578792e-21  1.4999999999922822e-01 1.1684392674967813e-23 1.1636743326094071e-23  1.5000000002113759e-01 1.8070094879317526e-22 6.1980047535834063e-22  1.4999999998831295e-01 3.2564674474143731e-23 2.6224724708512814e-22  1.4999999999579272e-01 1.6914964531251027e-23 1.1350738219314180e-23  1.5000000000870120e-01 3.2194382036927195e-23 1.1089309996923585e-22  1.4999999999667338e-01 1.8294963936071474e-24 2.4914809512406510e-23  1.4999999999767447e-01 4.8369832493073901e-24 4.5398637436929632e-24  1.5000000000328090e-01 4.9589645737391797e-24 1.6046131642395158e-23  1.4999999999891392e-01 1.4392760607397377e-25 2.9514940490481770e-24  1.4999999999910271e-01 8.4080839443268020e-25 6.3245359898605785e-25  1.5000000000121069e-01 7.8192634459651017e-25 2.1201744217271310e-24  1.4999999999954083e-01 3.6792672594908879e-26 4.9877916898519861e-25  1.4999999999974550e-01 9.9546068135373180e-26 3.1808154208265021e-26  1.5000000000043379e-01 1.2702780278568304e-25 2.4546762032261178e-25  1.4999999999977379e-01 1.7256375190463223e-26 1.0109593592326159e-25  1.4999999999997266e-01 5.4920060677715528e-27 4.7382121618940411e-28  1.5000000000013688e-01 1.7799888133767004e-26 1.9057676317932779e-26  1.4999999999989294e-01 6.7060217512912174e-27 1.7712920738231914e-26  1.5000000000002958e-01 4.1971927435485988e-29 2.7213382347934073e-27  1.5000000000002645e-01 1.2955548039720171e-27 2.6609859921697523e-28  1.4999999999996111e-01 1.5208800537941981e-27 1.6836907400437643e-27  1.5000000000002578e-01 4.2516951210472941e-28 1.0192755914971930e-27  1.4999999999999386e-01 2.5269012514512065e-30 1.5117461867605785e-28  1.4999999999