<?xml version="1.0"?>
<VTKFile type="UnstructuredGrid"  version="0.1"  >
<UnstructuredGrid>
<Piece  NumberOfPoints="10201" NumberOfCells="20000">
<Points>
<DataArray  type="Float64"  NumberOfComponents="3"  format="ascii">-5 -5 0  -4.9 -5 0  -4.8 -5 0  -4.7 -5 0  -4.6 -5 0  -4.5 -5 0  -4.4 -5 0  -4.3 -5 0  -4.2 -5 0  -4.1 -5 0  -4 -5 0  -3.9 -5 0  -3.8 -5 0  -3.7 -5 0  -3.6 -5 0  -3.5 -5 0  -3.4 -5 0  -3.3 -5 0  -3.2 -5 0  -3.1 -5 0  -3 -5 0  -2.9 -5 0  -2.8 -5 0  -2.7 -5 0  -2.6 -5 0  -2.5 -5 0  -2.4 -5 0  -2.3 -5 0  -2.2 -5 0  -2.1 -5 0  -2 -5 0  -1.9 -5 0  -1.8 -5 0  -1.7 -5 0  -1.6 -5 0  -1.5 -5 0  -1.4 -5 0  -1.3 -5 0  -1.2 -5 0  -1.1 -5 0  -1 -5 0  -0.9000000000000004 -5 0  -0.7999999999999998 -5 0  -0.7000000000000002 -5 0  -0.5999999999999996 -5 0  -0.5 -5 0  -0.4000000000000004 -5 0  -0.2999999999999998 -5 0  -0.2000000000000002 -5 0  -0.09999999999999964 -5 0  0 -5 0  0.09999999999999964 -5 0  0.2000000000000002 -5 0  0.2999999999999998 -5 0  0.4000000000000004 -5 0  0.5 -5 0  0.5999999999999996 -5 0  0.7000000000000002 -5 0  0.7999999999999998 -5 0  0.9000000000000004 -5 0  1 -5 0  1.1 -5 0  1.2 -5 0  1.3 -5 0  1.4 -5 0  1.5 -5 0  1.6 -5 0  1.7 -5 0  1.8 -5 0  1.9 -5 0  2 -5 0  2.1 -5 0  2.2 -5 0  2.3 -5 0  2.4 -5 0  2.5 -5 0  2.6 -5 0  2.7 -5 0  2.8 -5 0  2.9 -5 0  3 -5 0  3.1 -5 0  3.199999999999999 -5 0  3.300000000000001 -5 0  3.4 -5 0  3.5 -5 0  3.6 -5 0  3.699999999999999 -5 0  3.800000000000001 -5 0  3.9 -5 0  4 -5 0  4.1 -5 0  4.199999999999999 -5 0  4.300000000000001 -5 0  4.4 -5 0  4.5 -5 0  4.6 -5 0  4.699999999999999 -5 0  4.800000000000001 -5 0  4.9 -5 0  5 -5 0  -5 -4.9 0  -4.9 -4.9 0  -4.8 -4.9 0  -4.7 -4.9 0  -4.6 -4.9 0  -4.5 -4.9 0  -4.4 -4.9 0  -4.3 -4.9 0  -4.2 -4.9 0  -4.1 -4.9 0  -4 -4.9 0  -3.9 -4.9 0  -3.8 -4.9 0  -3.7 -4.9 0  -3.6 -4.9 0  -3.5 -4.9 0  -3.4 -4.9 0  -3.3 -4.9 0  -3.2 -4.9 0  -3.1 -4.9 0  -3 -4.9 0  -2.9 -4.9 0  -2.8 -4.9 0  -2.7 -4.9 0  -2.6 -4.9 0  -2.5 -4.9 0  -2.4 -4.9 0  -2.3 -4.9 0  -2.2 -4.9 0  -2.1 -4.9 0  -2 -4.9 0  -1.9 -4.9 0  -1.8 -4.9 0  -1.7 -4.9 0  -1.6 -4.9 0  -1.5 -4.9 0  -1.4 -4.9 0  -1.3 -4.9 0  -1.2 -4.9 0  -1.1 -4.9 0  -1 -4.9 0  -0.9000000000000004 -4.9 0  -0.7999999999999998 -4.9 0  -0.7000000000000002 -4.9 0  -0.5999999999999996 -4.9 0  -0.5 -4.9 0  -0.4000000000000004 -4.9 0  -0.2999999999999998 -4.9 0  -0.2000000000000002 -4.9 0  -0.09999999999999964 -4.9 0  0 -4.9 0  0.09999999999999964 -4.9 0  0.2000000000000002 -4.9 0  0.2999999999999998 -4.9 0  0.4000000000000004 -4.9 0  0.5 -4.9 0  0.5999999999999996 -4.9 0  0.7000000000000002 -4.9 0  0.7999999999999998 -4.9 0  0.9000000000000004 -4.9 0  1 -4.9 0  1.1 -4.9 0  1.2 -4.9 0  1.3 -4.9 0  1.4 -4.9 0  1.5 -4.9 0  1.6 -4.9 0  1.7 -4.9 0  1.8 -4.9 0  1.9 -4.9 0  2 -4.9 0  2.1 -4.9 0  2.2 -4.9 0  2.3 -4.9 0  2.4 -4.9 0  2.5 -4.9 0  2.6 -4.9 0  2.7 -4.9 0  2.8 -4.9 0  2.9 -4.9 0  3 -4.9 0  3.1 -4.9 0  3.199999999999999 -4.9 0  3.300000000000001 -4.9 0  3.4 -4.9 0  3.5 -4.9 0  3.6 -4.9 0  3.699999999999999 -4.9 0  3.800000000000001 -4.9 0  3.9 -4.9 0  4 -4.9 0  4.1 -4.9 0  4.199999999999999 -4.9 0  4.300000000000001 -4.9 0  4.4 -4.9 0  4.5 -4.9 0  4.6 -4.9 0  4.699999999999999 -4.9 0  4.800000000000001 -4.9 0  4.9 -4.9 0  5 -4.9 0  -5 -4.8 0  -4.9 -4.8 0  -4.8 -4.8 0  -4.7 -4.8 0  -4.6 -4.8 0  -4.5 -4.8 0  -4.4 -4.8 0  -4.3 -4.8 0  -4.2 -4.8 0  -4.1 -4.8 0  -4 -4.8 0  -3.9 -4.8 0  -3.8 -4.8 0  -3.7 -4.8 0  -3.6 -4.8 0  -3.5 -4.8 0  -3.4 -4.8 0  -3.3 -4.8 0  -3.2 -4.8 0  -3.1 -4.8 0  -3 -4.8 0  -2.9 -4.8 0  -2.8 -4.8 0  -2.7 -4.8 0  -2.6 -4.8 0  -2.5 -4.8 0  -2.4 -4.8 0  -2.3 -4.8 0  -2.2 -4.8 0  -2.1 -4.8 0  -2 -4.8 0  -1.9 -4.8 0  -1.8 -4.8 0  -1.7 -4.8 0  -1.6 -4.8 0  -1.5 -4.8 0  -1.4 -4.8 0  -1.3 -4.8 0  -1.2 -4.8 0  -1.1 -4.8 0  -1 -4.8 0  -0.9000000000000004 -4.8 0  -0.7999999999999998 -4.8 0  -0.7000000000000002 -4.8 0  -0.5999999999999996 -4.8 0  -0.5 -4.8 0  -0.4000000000000004 -4.8 0  -0.2999999999999998 -4.8 0  -0.2000000000000002 -4.8 0  -0.09999999999999964 -4.8 0  0 -4.8 0  0.09999999999999964 -4.8 0  0.2000000000000002 -4.8 0  0.2999999999999998 -4.8 0  0.4000000000000004 -4.8 0  0.5 -4.8 0  0.5999999999999996 -4.8 0  0.7000000000000002 -4.8 0  0.7999999999999998 -4.8 0  0.9000000000000004 -4.8 0  1 -4.8 0  1.1 -4.8 0  1.2 -4.8 0  1.3 -4.8 0  1.4 -4.8 0  1.5 -4.8 0  1.6 -4.8 0  1.7 -4.8 0  1.8 -4.8 0  1.9 -4.8 0  2 -4.8 0  2.1 -4.8 0  2.2 -4.8 0  2.3 -4.8 0  2.4 -4.8 0  2.5 -4.8 0  2.6 -4.8 0  2.7 -4.8 0  2.8 -4.8 0  2.9 -4.8 0  3 -4.8 0  3.1 -4.8 0  3.199999999999999 -4.8 0  3.300000000000001 -4.8 0  3.4 -4.8 0  3.5 -4.8 0  3.6 -4.8 0  3.699999999999999 -4.8 0  3.800000000000001 -4.8 0  3.9 -4.8 0  4 -4.8 0  4.1 -4.8 0  4.199999999999999 -4.8 0  4.300000000000001 -4.8 0  4.4 -4.8 0  4.5 -4.8 0  4.6 -4.8 0  4.699999999999999 -4.8 0  4.800000000000001 -4.8 0  4.9 -4.8 0  5 -4.8 0  -5 -4.7 0  -4.9 -4.7 0  -4.8 -4.7 0  -4.7 -4.7 0  -4.6 -4.7 0  -4.5 -4.7 0  -4.4 -4.7 0  -4.3 -4.7 0  -4.2 -4.7 0  -4.1 -4.7 0  -4 -4.7 0  -3.9 -4.7 0  -3.8 -4.7 0  -3.7 -4.7 0  -3.6 -4.7 0  -3.5 -4.7 0  -3.4 -4.7 0  -3.3 -4.7 0  -3.2 -4.7 0  -3.1 -4.7 0  -3 -4.7 0  -2.9 -4.7 0  -2.8 -4.7 0  -2.7 -4.7 0  -2.6 -4.7 0  -2.5 -4.7 0  -2.4 -4.7 0  -2.3 -4.7 0  -2.2 -4.7 0  -2.1 -4.7 0  -2 -4.7 0  -1.9 -4.7 0  -1.8 -4.7 0  -1.7 -4.7 0  -1.6 -4.7 0  -1.5 -4.7 0  -1.4 -4.7 0  -1.3 -4.7 0  -1.2 -4.7 0  -1.1 -4.7 0  -1 -4.7 0  -0.9000000000000004 -4.7 0  -0.7999999999999998 -4.7 0  -0.7000000000000002 -4.7 0  -0.5999999999999996 -4.7 0  -0.5 -4.7 0  -0.4000000000000004 -4.7 0  -0.2999999999999998 -4.7 0  -0.2000000000000002 -4.7 0  -0.09999999999999964 -4.7 0  0 -4.7 0  0.09999999999999964 -4.7 0  0.2000000000000002 -4.7 0  0.2999999999999998 -4.7 0  0.4000000000000004 -4.7 0  0.5 -4.7 0  0.5999999999999996 -4.7 0  0.7000000000000002 -4.7 0  0.7999999999999998 -4.7 0  0.9000000000000004 -4.7 0  1 -4.7 0  1.1 -4.7 0  1.2 -4.7 0  1.3 -4.7 0  1.4 -4.7 0  1.5 -4.7 0  1.6 -4.7 0  1.7 -4.7 0  1.8 -4.7 0  1.9 -4.7 0  2 -4.7 0  2.1 -4.7 0  2.2 -4.7 0  2.3 -4.7 0  2.4 -4.7 0  2.5 -4.7 0  2.6 -4.7 0  2.7 -4.7 0  2.8 -4.7 0  2.9 -4.7 0  3 -4.7 0  3.1 -4.7 0  3.199999999999999 -4.7 0  3.300000000000001 -4.7 0  3.4 -4.7 0  3.5 -4.7 0  3.6 -4.7 0  3.699999999999999 -4.7 0  3.800000000000001 -4.7 0  3.9 -4.7 0  4 -4.7 0  4.1 -4.7 0  4.199999999999999 -4.7 0  4.300000000000001 -4.7 0  4.4 -4.7 0  4.5 -4.7 0  4.6 -4.7 0  4.699999999999999 -4.7 0  4.800000000000001 -4.7 0  4.9 -4.7 0  5 -4.7 0  -5 -4.6 0  -4.9 -4.6 0  -4.8 -4.6 0  -4.7 -4.6 0  -4.6 -4.6 0  -4.5 -4.6 0  -4.4 -4.6 0  -4.3 -4.6 0  -4.2 -4.6 0  -4.1 -4.6 0  -4 -4.6 0  -3.9 -4.6 0  -3.8 -4.6 0  -3.7 -4.6 0  -3.6 -4.6 0  -3.5 -4.6 0  -3.4 -4.6 0  -3.3 -4.6 0  -3.2 -4.6 0  -3.1 -4.6 0  -3 -4.6 0  -2.9 -4.6 0  -2.8 -4.6 0  -2.7 -4.6 0  -2.6 -4.6 0  -2.5 -4.6 0  -2.4 -4.6 0  -2.3 -4.6 0  -2.2 -4.6 0  -2.1 -4.6 0  -2 -4.6 0  -1.9 -4.6 0  -1.8 -4.6 0  -1.7 -4.6 0  -1.6 -4.6 0  -1.5 -4.6 0  -1.4 -4.6 0  -1.3 -4.6 0  -1.2 -4.6 0  -1.1 -4.6 0  -1 -4.6 0  -0.9000000000000004 -4.6 0  -0.7999999999999998 -4.6 0  -0.7000000000000002 -4.6 0  -0.5999999999999996 -4.6 0  -0.5 -4.6 0  -0.4000000000000004 -4.6 0  -0.2999999999999998 -4.6 0  -0.2000000000000002 -4.6 0  -0.09999999999999964 -4.6 0  0 -4.6 0  0.09999999999999964 -4.6 0  0.2000000000000002 -4.6 0  0.2999999999999998 -4.6 0  0.4000000000000004 -4.6 0  0.5 -4.6 0  0.5999999999999996 -4.6 0  0.7000000000000002 -4.6 0  0.7999999999999998 -4.6 0  0.9000000000000004 -4.6 0  1 -4.6 0  1.1 -4.6 0  1.2 -4.6 0  1.3 -4.6 0  1.4 -4.6 0  1.5 -4.6 0  1.6 -4.6 0  1.7 -4.6 0  1.8 -4.6 0  1.9 -4.6 0  2 -4.6 0  2.1 -4.6 0  2.2 -4.6 0  2.3 -4.6 0  2.4 -4.6 0  2.5 -4.6 0  2.6 -4.6 0  2.7 -4.6 0  2.8 -4.6 0  2.9 -4.6 0  3 -4.6 0  3.1 -4.6 0  3.199999999999999 -4.6 0  3.300000000000001 -4.6 0  3.4 -4.6 0  3.5 -4.6 0  3.6 -4.6 0  3.699999999999999 -4.6 0  3.800000000000001 -4.6 0  3.9 -4.6 0  4 -4.6 0  4.1 -4.6 0  4.199999999999999 -4.6 0  4.300000000000001 -4.6 0  4.4 -4.6 0  4.5 -4.6 0  4.6 -4.6 0  4.699999999999999 -4.6 0  4.800000000000001 -4.6 0  4.9 -4.6 0  5 -4.6 0  -5 -4.5 0  -4.9 -4.5 0  -4.8 -4.5 0  -4.7 -4.5 0  -4.6 -4.5 0  -4.5 -4.5 0  -4.4 -4.5 0  -4.3 -4.5 0  -4.2 -4.5 0  -4.1 -4.5 0  -4 -4.5 0  -3.9 -4.5 0  -3.8 -4.5 0  -3.7 -4.5 0  -3.6 -4.5 0  -3.5 -4.5 0  -3.4 -4.5 0  -3.3 -4.5 0  -3.2 -4.5 0  -3.1 -4.5 0  -3 -4.5 0  -2.9 -4.5 0  -2.8 -4.5 0  -2.7 -4.5 0  -2.6 -4.5 0  -2.5 -4.5 0  -2.4 -4.5 0  -2.3 -4.5 0  -2.2 -4.5 0  -2.1 -4.5 0  -2 -4.5 0  -1.9 -4.5 0  -1.8 -4.5 0  -1.7 -4.5 0  -1.6 -4.5 0  -1.5 -4.5 0  -1.4 -4.5 0  -1.3 -4.5 0  -1.2 -4.5 0  -1.1 -4.5 0  -1 -4.5 0  -0.9000000000000004 -4.5 0  -0.7999999999999998 -4.5 0  -0.7000000000000002 -4.5 0  -0.5999999999999996 -4.5 0  -0.5 -4.5 0  -0.4000000000000004 -4.5 0  -0.2999999999999998 -4.5 0  -0.2000000000000002 -4.5 0  -0.09999999999999964 -4.5 0  0 -4.5 0  0.09999999999999964 -4.5 0  0.2000000000000002 -4.5 0  0.2999999999999998 -4.5 0  0.4000000000000004 -4.5 0  0.5 -4.5 0  0.5999999999999996 -4.5 0  0.7000000000000002 -4.5 0  0.7999999999999998 -4.5 0  0.9000000000000004 -4.5 0  1 -4.5 0  1.1 -4.5 0  1.2 -4.5 0  1.3 -4.5 0  1.4 -4.5 0  1.5 -4.5 0  1.6 -4.5 0  1.7 -4.5 0  1.8 -4.5 0  1.9 -4.5 0  2 -4.5 0  2.1 -4.5 0  2.2 -4.5 0  2.3 -4.5 0  2.4 -4.5 0  2.5 -4.5 0  2.6 -4.5 0  2.7 -4.5 0  2.8 -4.5 0  2.9 -4.5 0  3 -4.5 0  3.1 -4.5 0  3.199999999999999 -4.5 0  3.300000000000001 -4.5 0  3.4 -4.5 0  3.5 -4.5 0  3.6 -4.5 0  3.699999999999999 -4.5 0  3.800000000000001 -4.5 0  3.9 -4.5 0  4 -4.5 0  4.1 -4.5 0  4.199999999999999 -4.5 0  4.300000000000001 -4.5 0  4.4 -4.5 0  4.5 -4.5 0  4.6 -4.5 0  4.699999999999999 -4.5 0  4.800000000000001 -4.5 0  4.9 -4.5 0  5 -4.5 0  -5 -4.4 0  -4.9 -4.4 0  -4.8 -4.4 0  -4.7 -4.4 0  -4.6 -4.4 0  -4.5 -4.4 0  -4.4 -4.4 0  -4.3 -4.4 0  -4.2 -4.4 0  -4.1 -4.4 0  -4 -4.4 0  -3.9 -4.4 0  -3.8 -4.4 0  -3.7 -4.4 0  -3.6 -4.4 0  -3.5 -4.4 0  -3.4 -4.4 0  -3.3 -4.4 0  -3.2 -4.4 0  -3.1 -4.4 0  -3 -4.4 0  -2.9 -4.4 0  -2.8 -4.4 0  -2.7 -4.4 0  -2.6 -4.4 0  -2.5 -4.4 0  -2.4 -4.4 0  -2.3 -4.4 0  -2.2 -4.4 0  -2.1 -4.4 0  -2 -4.4 0  -1.9 -4.4 0  -1.8 -4.
[...]
<PointData  Vectors="f_23"> 
<DataArray  type="Float64"  Name="f_23"  NumberOfComponents="3" format="ascii">1.5090363312884650e-01 0.0000000000000000e+00 0.0000000000000000e+00  1.4990872848197828e-01 2.8085926912992499e-07 0.0000000000000000e+00  1.5100707377293118e-01 1.3228959990919017e-08 0.0000000000000000e+00  1.5029606859179875e-01 5.1148160033806827e-07 0.0000000000000000e+00  1.5116866844888535e-01 2.8505062828619754e-08 0.0000000000000000e+00  1.5048498015579137e-01 4.4304109033379484e-07 0.0000000000000000e+00  1.5111125901038439e-01 1.0789059215130127e-07 0.0000000000000000e+00  1.5037939907171832e-01 1.5164388747696313e-07 0.0000000000000000e+00  1.5080695847389861e-01 2.7665276241815279e-07 0.0000000000000000e+00  1.5016101358135087e-01 1.7898713165996430e-08 0.0000000000000000e+00  1.5056789905450424e-01 2.7423224548272448e-07 0.0000000000000000e+00  1.5014577691381420e-01 1.2065561990174520e-08 0.0000000000000000e+00  1.5054086366767144e-01 1.1535717240061245e-07 0.0000000000000000e+00  1.5022649429796062e-01 1.1129592734602262e-08 0.0000000000000000e+00  1.5043929613946719e-01 8.8098894088690080e-08 0.0000000000000000e+00  1.5011253596748245e-01 2.4034988415657913e-09 0.0000000000000000e+00  1.5022394378982298e-01 1.0910474420252660e-07 0.0000000000000000e+00  1.5003726083085819e-01 8.5284520225162836e-09 0.0000000000000000e+00  1.5017965795502863e-01 2.9288729036898725e-08 0.0000000000000000e+00  1.5010955866666270e-01 8.8767454749755438e-10 0.0000000000000000e+00  1.5017398158440798e-01 1.9313621551880409e-09 0.0000000000000000e+00  1.5001873743109428e-01 1.8616122671878415e-10 0.0000000000000000e+00  1.4994836833605371e-01 1.2625146159505880e-08 0.0000000000000000e+00  1.4979857270681740e-01 1.4384085829619997e-08 0.0000000000000000e+00  1.4976331899946038e-01 1.4465948972554745e-08 0.0000000000000000e+00  1.4979867987992398e-01 2.4406593332507026e-10 0.0000000000000000e+00  1.4996187169190037e-01 1.1486805186421004e-08 0.0000000000000000e+00  1.5002087914704565e-01 2.8225515863735244e-08 0.0000000000000000e+00  1.4998733748365256e-01 7.9534054931882491e-09 0.0000000000000000e+00  1.4991797542663549e-01 4.8368012693669489e-10 0.0000000000000000e+00  1.4990529293721294e-01 1.1523354181940437e-09 0.0000000000000000e+00  1.4997049568138976e-01 3.5919321948980264e-09 0.0000000000000000e+00  1.5010299044845488e-01 5.9544878645679740e-09 0.0000000000000000e+00  1.5012974125464604e-01 1.3068976084013674e-09 0.0000000000000000e+00  1.5003791697428981e-01 4.5328703337381926e-12 0.0000000000000000e+00  1.4997195609770039e-01 7.7396282814512366e-09 0.0000000000000000e+00  1.4996745463895617e-01 1.4329695916886539e-08 0.0000000000000000e+00  1.5002201352155098e-01 2.5780289928213475e-09 0.0000000000000000e+00  1.5014033321183584e-01 2.1125728871920614e-08 0.0000000000000000e+00  1.5007848407635666e-01 3.2553060696127666e-09 0.0000000000000000e+00  1.4984703775767860e-01 2.7534923382702141e-08 0.0000000000000000e+00  1.4991819639123818e-01 1.3580628294638343e-09 0.0000000000000000e+00  1.5018415770171950e-01 1.6472729723973159e-08 0.0000000000000000e+00  1.5005505013526613e-01 1.4413292835186108e-09 0.0000000000000000e+00  1.4982279309195479e-01 7.1391749511074325e-09 0.0000000000000000e+00  1.4999963730610652e-01 7.4379619217030401e-10 0.0000000000000000e+00  1.5013019553426071e-01 1.3513058545201918e-09 0.0000000000000000e+00  1.4994632291119314e-01 1.5098313736955467e-10 0.0000000000000000e+00  1.4994088996811877e-01 6.2876252926388317e-12 0.0000000000000000e+00  1.5006702617603765e-01 9.5112197840739773e-11 0.0000000000000000e+00  1.4997957747558019e-01 2.1082829205968370e-10 0.0000000000000000e+00  1.4995570977377370e-01 8.7346429912283020e-10 0.0000000000000000e+00  1.5006709549595307e-01 2.2957173338186390e-10 0.0000000000000000e+00  1.4999110200149712e-01 1.6190238053075050e-09 0.0000000000000000e+00  1.4992251034678725e-01 3.9464461697333363e-11 0.0000000000000000e+00  1.5005240640874132e-01 1.8876807940763459e-09 0.0000000000000000e+00  1.5004213546748654e-01 5.0735672160902462e-11 0.0000000000000000e+00  1.4992816129731273e-01 1.0502101178729803e-09 0.0000000000000000e+00  1.4999602967009573e-01 1.4359615508106632e-10 0.0000000000000000e+00  1.5006176390252587e-01 6.5983153154345686e-10 0.0000000000000000e+00  1.4996975312043154e-01 4.8872594755531638e-10 0.0000000000000000e+00  1.4997588195768799e-01 2.5824113759540271e-11 0.0000000000000000e+00  1.5002925810043052e-01 9.2497420105842258e-11 0.0000000000000000e+00  1.5000414469464149e-01 5.7864528899205727e-11 0.0000000000000000e+00  1.4997437910110936e-01 3.2234842131305365e-10 0.0000000000000000e+00  1.5001941657635803e-01 1.8933983323279873e-10 0.0000000000000000e+00  1.4999501548900948e-01 6.2478928383242680e-11 0.0000000000000000e+00  1.4999878646845397e-01 6.4257656713422182e-11 0.0000000000000000e+00  1.4999821228649304e-01 1.2282567747494933e-10 0.0000000000000000e+00  1.5000896092820326e-01 1.9598503280790215e-10 0.0000000000000000e+00  1.4998473222819997e-01 2.7852775405262673e-10 0.0000000000000000e+00  1.5001647913301844e-01 3.2785884398690710e-10 0.0000000000000000e+00  1.4998797696658042e-01 2.7717905145459662e-10 0.0000000000000000e+00  1.5000668967797090e-01 1.9035893161446586e-10 0.0000000000000000e+00  1.4999394345752642e-01 1.7368143753984964e-10 0.0000000000000000e+00  1.5001033226477342e-01 2.4841554661840349e-10 0.0000000000000000e+00  1.4998550963678606e-01 3.4066573085126602e-10 0.0000000000000000e+00  1.5001426947154520e-01 3.2505270197854676e-10 0.0000000000000000e+00  1.4998952574495575e-01 2.2104708671964821e-10 0.0000000000000000e+00  1.5000719802252499e-01 1.4660581815910199e-10 0.0000000000000000e+00  1.4999291501749934e-01 1.4181811995717953e-10 0.0000000000000000e+00  1.5000917762808511e-01 1.8196939410064727e-10 0.0000000000000000e+00  1.4998921692654713e-01 2.1304878497195001e-10 0.0000000000000000e+00  1.5001044603963692e-01 1.9721229498330938e-10 0.0000000000000000e+00  1.4999109466212387e-01 1.5822029631199641e-10 0.0000000000000000e+00  1.5000780292930108e-01 1.3714870026787444e-10 0.0000000000000000e+00  1.4999198043023521e-01 1.4878886684278849e-10 0.0000000000000000e+00  1.5000918243877417e-01 1.8505878361006158e-10 0.0000000000000000e+00  1.4998960327298180e-01 2.2532146626694502e-10 0.0000000000000000e+00  1.5001102646200826e-01 2.4981310370351083e-10 0.0000000000000000e+00  1.4998881997311503e-01 2.5844530688020825e-10 0.0000000000000000e+00  1.5001103823490639e-01 2.5858714117876552e-10 0.0000000000000000e+00  1.4998877039329891e-01 2.6503080973422020e-10 0.0000000000000000e+00  1.5001110657231498e-01 2.6362321938216069e-10 0.0000000000000000e+00  1.4998820709471228e-01 2.7111260638054116e-10 0.0000000000000000e+00  1.5001070167046596e-01 2.3225835670827897e-10 0.0000000000000000e+00  1.4998783078095995e-01 2.1853091753385487e-10 0.0000000000000000e+00  1.5000876483892792e-01 1.2008662704181589e-10 0.0000000000000000e+00  1.4998708430477772e-01 1.0041400242404772e-10 0.0000000000000000e+00  1.5000568488059260e-01 1.4872037289317324e-11 0.0000000000000000e+00  1.4998471666457772e-01 0.0000000000000000e+00 0.0000000000000000e+00  1.4990872848197812e-01 0.0000000000000000e+00 2.8085926912994786e-07  1.4944473508935979e-01 1.1242665927076329e-08 1.1242665927151821e-08  1.4966780340450417e-01 1.3314382205102098e-07 1.3381136490938874e-07  1.4920870720966875e-01 1.3710367381627741e-08 4.9420629504710503e-09  1.4943021167953879e-01 2.0238563971957091e-07 1.1058746158039979e-07  1.4904381090136687e-01 5.7983727978540228e-09 3.7379735590862688e-09  1.4937806768370795e-01 1.0213274882405088e-07 5.3490798660623760e-08  1.4914464565889349e-01 1.3565025887435285e-08 5.3069115810521616e-09  1.4956694952454161e-01 3.0781097874130285e-09 8.2210350213796038e-09  1.4941555285006200e-01 9.2415434285639888e-08 2.8428060833305767e-08  1.4975250251732722e-01 8.8307567776158326e-09 4.3630555311343382e-09  1.4954325713608929e-01 7.8430879899678593e-08 1.0641310164663935e-08  1.4973487196563137e-01 1.7057210737477492e-09 2.0980271501403364e-08  1.4953281102387234e-01 2.9422014839839078e-08 3.6030625442751102e-10  1.4972249293238593e-01 2.8419923481938089e-09 1.9782543017483441e-08  1.4966355808062798e-01 4.4168910301905367e-08 1.4171161977673870e-09  1.4986747541661435e-01 2.5162779040494065e-08 7.1444391428717375e-09  1.4981578299881973e-01 5.4704631952803927e-08 1.8988905127788177e-10  1.4990873699947119e-01 1.2841630275518011e-08 1.2860219105771323e-08  1.4982093776448013e-01 8.0230370924591473e-09 2.2231666259919199e-09  1.4987292354680379e-01 5.9930679518072928e-11 1.0066803705910500e-08  1.4988986040007743e-01 1.2665351751891851e-09 1.7204000173979811e-11  1.5003706894277247e-01 2.1672834147701691e-09 3.7954983198860621e-10  1.5011505590554342e-01 1.5647979640124787e-08 8.7896923001988600e-09  1.5022176077276891e-01 1.3056913223826469e-08 4.5134089962690169e-09  1.5021221083673122e-01 2.0940752112270933e-09 2.3022169056613538e-09  1.5011926139290377e-01 4.4833569582453769e-09 8.6317276089721150e-10  1.5000100755450982e-01 1.6189352708762895e-08 1.2108351868595251e-09  1.5001113199621546e-01 1.6393898829250793e-08 1.3773167163686358e-13  1.5005572560662042e-01 1.0752532879843267e-09 2.8136998519735779e-09  1.5008452466632968e-01 7.6720580915143194e-10 1.4732420966938015e-09  1.5005869716540535e-01 7.3842353911928444e-10 3.9805298017413990e-11  1.4996264220183120e-01 6.9648482240740042e-09 2.7556298522022508e-09  1.4987828225695496e-01 1.5624456425373035e-09 1.8935732229933511e-09  1.4992953145448717e-01 6.5011323352767420e-12 3.4029036322131334e-11  1.5000337137376779e-01 9.1197698825259380e-10 1.3655595824613557e-09  1.5000771331938503e-01 9.2639675959627455e-09 1.3801131317364444e-10  1.4999929461368752e-01 2.0053932426142102e-09 1.3049179596486189e-09  1.4993677197712474e-01 1.0205836796981009e-08 4.0518908467997462e-09  1.4987689676535948e-01 1.9107528044773937e-09 1.2427249368118198e-10  1.5002852767807301e-01 1.5169930807644916e-08 5.2620169295574486e-09  1.5014681832651677e-01 2.9821525263746841e-09 6.5471481795191515e-10  1.4993936753300227e-01 8.9090422286242335e-09 7.7550310766247136e-09  1.4985040332326108e-01 6.8122797758666027e-10 5.7650985773578860e-10  1.5009542310623303e-01 4.4186547595849559e-09 9.0486412528258056e-09  1.5010946583581908e-01 6.0536244292749321e-11 7.8220142905644697e-11  1.4989229778818161e-01 6.9672577999230427e-10 6.8549148461242917e-09  1.4996794548229159e-01 1.5720129262610000e-11 3.2148808626361299e-10  1.5009479792960673e-01 4.6849756477321813e-11 2.9994463496390143e-09  1.4996953648430647e-01 4.1661620120380999e-13 1.5068158967249282e-09  1.4996259765278033e-01 8.6671026179731780e-10 3.5678673614922379e-10  1.5006633925957272e-01 2.0901305518167313e-10 1.3650346947842164e-09  1.4997600245390205e-01 1.2586109074299124e-09 5.3061805031458234e-10  1.4995025253324074e-01 7.2379944259423580e-10 4.8406480895685567e-10  1.5007640291948299e-01 8.4303458882212253e-10 2.0231730580200027e-09  1.5000981370436242e-01 1.4071281517783218e-09 5.3118948054635577e-11  1.4992424276577751e-01 1.8557348514286428e-10 1.9476857286025955e-09  1.5003926407937787e-01 1.0497940831242789e-09 1.3883921395615974e-09  1.5005291671567947e-01 7.1325552335690682e-12 7.8053401748404115e-10  1.4993773974015590e-01 8.6280909719052403e-10 2.2016558482286034e-09  1.4999442902277821e-01 1.6115585837738313e-10 2.5080227448100043e-12  1.5004597707848616e-01 1.4234409385137978e-10 1.4732638955649627e-09  1.4997919597982678e-01 7.3009841939611719e-11 5.1452288755166093e-10  1.4997701769314090e-01 7.8554486199672463e-11 3.1459272676086330e-10  1.5003262198103942e-01 2.3585017541784395e-10 7.7576241193511181e-10  1.4998888482466685e-01 8.2465162099958935e-11 2.4515342212561241e-11  1.4999061875955030e-01 2.2763636500826630e-12 2.4161473867177751e-10  1.5001156779281194e-01 6.9694245585218738e-14 1.7469697271743511e-10  1.5000040646039395e-01 1.2566452493369596e-11 4.0630741790443913e-12  1.4998667496185106e-01 8.2637764582459164e-11 1.3660526806464253e-10  1.5001636677933519e-01 1.2816385384783719e-10 8.4293546103143482e-11  1.4999157116509199e-01 6.1381678886061589e-11 6.0440119088772558e-13  1.4999827915655461e-01 4.4265564058951834e-12 2.0340604701442672e-11  1.5000426261195102e-01 2.5080231217972714e-14 9.4523348558503003e-12  1.5000193678225018e-01 1.2721302546120631e-11 5.0690271051170893e-12  1.4999076626958555e-01 6.0723867132565375e-11 3.9004900701195938e-11  1.5001022483002932e-01 6.1929434511146653e-11 3.6052029455049486e-11  1.4999493402348632e-01 1.5525376635759881e-11 7.5382629168568143e-12  1.4999976859582920e-01 9.8838157702041015e-14 1.2144316956518312e-14  1.5000091416783742e-01 6.5106937243736110e-14 7.6160139396544847e-14  1.5000236269623718e-01 8.5958262848941949e-12 3.0215101912703153e-12  1.4999440445469728e-01 2.6936405841900516e-11 1.3815990304426944e-11  1.5000600563020708e-01 2.6397531927541561e-11 1.6076352624605181e-11  1.4999586686900440e-01 1.2753070668116050e-11 7.5457649915281216e-12  1.5000234585369221e-01 6.2744809673944869e-12 1.5718127818003202e-12  1.4999775189736517e-01 9.2348735027875185e-12 4.4527223688223942e-13  1.5000361244497976e-01 2.1837962386996348e-11 1.2802528356551723e-12  1.4999483481980869e-01 3.8217701551681404e-11 4.0415360803447891e-12  1.5000595520117616e-01 4.6378513005790290e-11 6.9550769036813052e-12  1.4999412356527378e-01 4.4018863011193637e-11 7.6629925886410635e-12  1.5000551726641043e-01 3.9119177247949650e-11 7.1037870389303834e-12  1.4999477241540754e-01 3.6189910433360498e-11 6.6646223514624203e-12  1.5000541316151406e-01 3.7274498334824026e-11 8.2595230634847727e-12  1.4999463911014524e-01 3.5559501403125748e-11 1.0150082148996514e-11  1.5000584747018894e-01 3.5280001223343412e-11 1.5563141422661450e-11  1.4999519579689069e-01 2.2779496422534169e-11 1.4759660832350317e-11  1.5000577600509654e-01 2.0972232777276291e-11 2.2513241535667255e-11  1.4999738918218497e-01 4.6677149476446769e-12 9.8373789841017478e-12  1.5000564915219472e-01 1.0200848118006455e-11 2.1521883691332755e-11  1.5000131274985087e-01 2.4861948246222229e-13 2.4861948313155484e-13  1.5000568488059243e-01 0.0000000000000000e+00 1.4872037291709543e-11  1.5100707377293179e-01 0.0000000000000000e+00 1.3228959990742841e-08  1.4966780340450431e-01 1.3381136490950417e-07 1.3314382205061287e-07  1.5098614308158964e-01 1.1222099968491460e-08 1.1222099968420621e-08  1.5005956704606802e-01 4.6511167788239939e-07 3.1290088531378059e-07  1.5111909269601201e-01 3.0961344885123171e-08 2.2337895824091190e-08  1.5030636849763052e-01 5.4401581499203787e-07 3.4733584566312155e-07  1.5114493381871755e-01 7.1235721354060775e-08 8.8805920718397851e-10  1.5030660289404399e-01 2.8688267875622076e-07 1.6084421732128780e-07  1.5093113172344713e-01 1.9778671284840629e-07 4.4808833727006503e-08  1.5013155963804767e-01 5.9481002133955053e-08 2.7476012931396441e-08  1.5066226146151671e-01 2.8234723619147711e-07 9.6826402829434645e-08  1.5007059062090503e-01 1.2231433892961455e-08 2.5962292329252594e-08  1.5058737061818389e-01 1.6615075279512514e-07 2.1297959584532345e-08  1.5017627261625704e-01 1.5043801256447114e-08 8.2320081957316281e-08  1.5056646327533368e-01 8.5474324889030176e-08 8.5745995514080443e-11  1.5017931967111744e-01 6.8695426451585074e-10 6.1977152594533241e-08  1.5037742872601950e-01 9.7331884488402430e-08 1.9394970673280442e-09  1.5007313228195487e-01 8.8546624631305588e-09 2.7575184962607267e-08  1.5024720673939543e-01 7.1549195197106400e-08 2.2262336454398055e-10  1.5008328831228990e-01 1.6133040612051919e-09 4.4568370478184865e-08  1.5023289523810940e-01 1.3614627600309525e-08 9.3727323743234830e-09  1.5009205867129469e-01 3.2374359045479957e-11 2.6158146329819765e-08  1.5008348580376712e-01 7.3174837417017024e-09 4.9216906613440401e-10  1.4989855420429785e-01 4.3467859131614547e-09 2.5730984703107243e-09  1.4986157757236240e-01 2.4000299862087108e-08 2.6025991369706477e-08  1.4976077390604731e-01 5.1793219663268608e-09 1.2340258363376209e-08  1.4984384313287372e-01 2.0431465169303197e-13 4.0876497251731260e-09  1.4993869816955566e-01 1.1351575034375164e-08 3.2497760417560342e-09  1.5000585084039608e-01 1.5134859264202653e-08 9.9991203912417714e-10  1.4994789807891562e-01 8.8534044187444055e-09 1.1306944203086732e-09  1.4993329294536489e-01 1.5892795966175513e-11 6.8671743168642553e-09  1.4992525724905989e-01 3.0299015167500022e-12 1.6439996363106975e-09  1.4998030887806679e-01 5.3371116955082886e-09 5.1315260227461416e-10  1.5007870978558091e-01 5.0932932640899982e-09 7.1688323027765457e-09  1.5010433724475725e-01 8.2394415717812532e-11 2.7206452715840206e-09  1.5001861083688831e-01 3.2545970511022457e-11 6.9883845830612012e-10  1.4999679513454248e-01 3.3011054693943515e-09 1.6862142964850966e-09  1.5001660103662190e-01 8.3039106804850598e-09 2.0890628994627418e-10  1.5003274139152595e-01 1.0849520946872006e-09 5.8293938375848473e-09  1.5009904183949982e-01 1.0021510540263426e-08 8.6706031454253574e-09  1.5006538964432958e-01 3.8202539814813811e-09 7.1908419539199927e-10  1.4988478415572984e-01 1.3954914040907425e-08 1.6722593977487581e-08  1.4994017602335796e-01 2.6558291447280571e-09 7.4580045871480403e-10  1.5014617549974554e-01 5.5226951797103056e-09 2.1873675794592671e-08  1.5001460588224280e-01 3.5142713310834888e-09 3.7713414928199151e-09  1.4983807812802657e-01 1.3378643436398619e-09 2.1115321325270191e-08  1.5002830555631494e-01 1.6486131768698562e-09 8.8908526296797840e-09  1.5010473741567953e-01 4.7298748420694743e-11 1.0702657637680469e-08  1.4991321813028385e-01 2.6369028366307686e-10 9.9707874610231772e-09  1.4996077201999833e-01 8.2884091812144922e-10 1.5459807789104217e-10  1.5008321572674319e-01 2.7113926864650231e-10 1.2137198106122903e-08  1.4995643443236933e-01 8.4746214837217633e-10 7.5956849211749209e-10  1.4995168802035230e-01 1.6529773814797917e-09 1.0211562693195157e-09  1.5008241676053410e-01 3.5114209163472188e-10 7.9802419859831453e-09  1.4997040210993468e-01 2.8667266596405934e-09 3.0710365622436126e-10  1.4991851958334518e-01 7.7623124101649789e-11 4.9766735885575740e-09  1.5006962704090143e-01 2.2232630049722858e-09 5.2003187963627406e-09  1.5002666746823731e-01 2.8256655116388714e-10 3.6671504836567156e-10  1.4990081181070433e-01 1.5061577403859376e-09 1.0653666482131948e-08  1.5003262654284191e-01 1.4573526726254155e-09 6.6534993244626453e-10  1.5005817450836323e-01 5.9368866229340971e-11 4.0696124443973170e-09  1.4994625282628959e-01 6.7381624340471082e-10 3.8266547363296055e-09  1.4998402018258206e-01 3.0311740164805597e-11 3.2835860644365251e-10  1.5006119010393207e-01 1.0926649109326012e-09 4.2863666529783239e-09  1.4996331888272554e-01 6.6528862783480406e-10 8.3091135482701122e-10  1.4998885810932627e-01 1.0525959149717650e-11 6.2707025731290896e-10  1.5002578075373593e-01 2.8477500088359804e-11 1.0764612229168217e-09  1.4999672901337974e-01 3.5759248979672425e-11 2.6051740849617323e-12  1.4997426755384791e-01 4.6816861248776416e-10 7.0079714140874905e-10  1.5003407045749620e-01 6.7066004350637417e-10 7.5285525767982342e-10  1.4998073109076832e-01 2.9243551831476030e-10 8.8625738098005022e-11  1.4999984966304936e-01 3.6900421839485745e-11 3.9005220793408951e-11  1.5000528470640004e-01 1.6692809459691284e-11 4.6331004365794493e-11  1.5000588441360904e-01 1.4057525939548245e-10 2.0294452845829028e-11  1.4998027603444611e-01 4.0693972061997289e-10 2.4140985352666045e-10  1.5002278958484816e-01 4.2184634006856141e-10 2.9521163011667442e-10  1.4998553772188983e-01 1.8678299731582887e-10 1.0311137453322700e-10  1.5000475014027376e-01 5.1999388213703976e-11 4.9507219132852828e-12  1.4999747881935241e-01 4.8494390645160624e-11 1.3954010467574603e-14  1.5000771050624831e-01 1.3652216377153883e-10 1.6473184317367754e-11  1.4998622931220154e-01 2.5293733511480675e-10 8.3762820099684353e-11  1.5001528909082990e-01 2.5693368595071671e-10 1.1632215500246917e-10  1.4998765352