<?xml version="1.0"?>
<VTKFile type="UnstructuredGrid"  version="0.1"  >
<UnstructuredGrid>
<Piece  NumberOfPoints="10201" NumberOfCells="20000">
<Points>
<DataArray  type="Float64"  NumberOfComponents="3"  format="ascii">-5 -5 0  -4.9 -5 0  -4.8 -5 0  -4.7 -5 0  -4.6 -5 0  -4.5 -5 0  -4.4 -5 0  -4.3 -5 0  -4.2 -5 0  -4.1 -5 0  -4 -5 0  -3.9 -5 0  -3.8 -5 0  -3.7 -5 0  -3.6 -5 0  -3.5 -5 0  -3.4 -5 0  -3.3 -5 0  -3.2 -5 0  -3.1 -5 0  -3 -5 0  -2.9 -5 0  -2.8 -5 0  -2.7 -5 0  -2.6 -5 0  -2.5 -5 0  -2.4 -5 0  -2.3 -5 0  -2.2 -5 0  -2.1 -5 0  -2 -5 0  -1.9 -5 0  -1.8 -5 0  -1.7 -5 0  -1.6 -5 0  -1.5 -5 0  -1.4 -5 0  -1.3 -5 0  -1.2 -5 0  -1.1 -5 0  -1 -5 0  -0.9000000000000004 -5 0  -0.7999999999999998 -5 0  -0.7000000000000002 -5 0  -0.5999999999999996 -5 0  -0.5 -5 0  -0.4000000000000004 -5 0  -0.2999999999999998 -5 0  -0.2000000000000002 -5 0  -0.09999999999999964 -5 0  0 -5 0  0.09999999999999964 -5 0  0.2000000000000002 -5 0  0.2999999999999998 -5 0  0.4000000000000004 -5 0  0.5 -5 0  0.5999999999999996 -5 0  0.7000000000000002 -5 0  0.7999999999999998 -5 0  0.9000000000000004 -5 0  1 -5 0  1.1 -5 0  1.2 -5 0  1.3 -5 0  1.4 -5 0  1.5 -5 0  1.6 -5 0  1.7 -5 0  1.8 -5 0  1.9 -5 0  2 -5 0  2.1 -5 0  2.2 -5 0  2.3 -5 0  2.4 -5 0  2.5 -5 0  2.6 -5 0  2.7 -5 0  2.8 -5 0  2.9 -5 0  3 -5 0  3.1 -5 0  3.199999999999999 -5 0  3.300000000000001 -5 0  3.4 -5 0  3.5 -5 0  3.6 -5 0  3.699999999999999 -5 0  3.800000000000001 -5 0  3.9 -5 0  4 -5 0  4.1 -5 0  4.199999999999999 -5 0  4.300000000000001 -5 0  4.4 -5 0  4.5 -5 0  4.6 -5 0  4.699999999999999 -5 0  4.800000000000001 -5 0  4.9 -5 0  5 -5 0  -5 -4.9 0  -4.9 -4.9 0  -4.8 -4.9 0  -4.7 -4.9 0  -4.6 -4.9 0  -4.5 -4.9 0  -4.4 -4.9 0  -4.3 -4.9 0  -4.2 -4.9 0  -4.1 -4.9 0  -4 -4.9 0  -3.9 -4.9 0  -3.8 -4.9 0  -3.7 -4.9 0  -3.6 -4.9 0  -3.5 -4.9 0  -3.4 -4.9 0  -3.3 -4.9 0  -3.2 -4.9 0  -3.1 -4.9 0  -3 -4.9 0  -2.9 -4.9 0  -2.8 -4.9 0  -2.7 -4.9 0  -2.6 -4.9 0  -2.5 -4.9 0  -2.4 -4.9 0  -2.3 -4.9 0  -2.2 -4.9 0  -2.1 -4.9 0  -2 -4.9 0  -1.9 -4.9 0  -1.8 -4.9 0  -1.7 -4.9 0  -1.6 -4.9 0  -1.5 -4.9 0  -1.4 -4.9 0  -1.3 -4.9 0  -1.2 -4.9 0  -1.1 -4.9 0  -1 -4.9 0  -0.9000000000000004 -4.9 0  -0.7999999999999998 -4.9 0  -0.7000000000000002 -4.9 0  -0.5999999999999996 -4.9 0  -0.5 -4.9 0  -0.4000000000000004 -4.9 0  -0.2999999999999998 -4.9 0  -0.2000000000000002 -4.9 0  -0.09999999999999964 -4.9 0  0 -4.9 0  0.09999999999999964 -4.9 0  0.2000000000000002 -4.9 0  0.2999999999999998 -4.9 0  0.4000000000000004 -4.9 0  0.5 -4.9 0  0.5999999999999996 -4.9 0  0.7000000000000002 -4.9 0  0.7999999999999998 -4.9 0  0.9000000000000004 -4.9 0  1 -4.9 0  1.1 -4.9 0  1.2 -4.9 0  1.3 -4.9 0  1.4 -4.9 0  1.5 -4.9 0  1.6 -4.9 0  1.7 -4.9 0  1.8 -4.9 0  1.9 -4.9 0  2 -4.9 0  2.1 -4.9 0  2.2 -4.9 0  2.3 -4.9 0  2.4 -4.9 0  2.5 -4.9 0  2.6 -4.9 0  2.7 -4.9 0  2.8 -4.9 0  2.9 -4.9 0  3 -4.9 0  3.1 -4.9 0  3.199999999999999 -4.9 0  3.300000000000001 -4.9 0  3.4 -4.9 0  3.5 -4.9 0  3.6 -4.9 0  3.699999999999999 -4.9 0  3.800000000000001 -4.9 0  3.9 -4.9 0  4 -4.9 0  4.1 -4.9 0  4.199999999999999 -4.9 0  4.300000000000001 -4.9 0  4.4 -4.9 0  4.5 -4.9 0  4.6 -4.9 0  4.699999999999999 -4.9 0  4.800000000000001 -4.9 0  4.9 -4.9 0  5 -4.9 0  -5 -4.8 0  -4.9 -4.8 0  -4.8 -4.8 0  -4.7 -4.8 0  -4.6 -4.8 0  -4.5 -4.8 0  -4.4 -4.8 0  -4.3 -4.8 0  -4.2 -4.8 0  -4.1 -4.8 0  -4 -4.8 0  -3.9 -4.8 0  -3.8 -4.8 0  -3.7 -4.8 0  -3.6 -4.8 0  -3.5 -4.8 0  -3.4 -4.8 0  -3.3 -4.8 0  -3.2 -4.8 0  -3.1 -4.8 0  -3 -4.8 0  -2.9 -4.8 0  -2.8 -4.8 0  -2.7 -4.8 0  -2.6 -4.8 0  -2.5 -4.8 0  -2.4 -4.8 0  -2.3 -4.8 0  -2.2 -4.8 0  -2.1 -4.8 0  -2 -4.8 0  -1.9 -4.8 0  -1.8 -4.8 0  -1.7 -4.8 0  -1.6 -4.8 0  -1.5 -4.8 0  -1.4 -4.8 0  -1.3 -4.8 0  -1.2 -4.8 0  -1.1 -4.8 0  -1 -4.8 0  -0.9000000000000004 -4.8 0  -0.7999999999999998 -4.8 0  -0.7000000000000002 -4.8 0  -0.5999999999999996 -4.8 0  -0.5 -4.8 0  -0.4000000000000004 -4.8 0  -0.2999999999999998 -4.8 0  -0.2000000000000002 -4.8 0  -0.09999999999999964 -4.8 0  0 -4.8 0  0.09999999999999964 -4.8 0  0.2000000000000002 -4.8 0  0.2999999999999998 -4.8 0  0.4000000000000004 -4.8 0  0.5 -4.8 0  0.5999999999999996 -4.8 0  0.7000000000000002 -4.8 0  0.7999999999999998 -4.8 0  0.9000000000000004 -4.8 0  1 -4.8 0  1.1 -4.8 0  1.2 -4.8 0  1.3 -4.8 0  1.4 -4.8 0  1.5 -4.8 0  1.6 -4.8 0  1.7 -4.8 0  1.8 -4.8 0  1.9 -4.8 0  2 -4.8 0  2.1 -4.8 0  2.2 -4.8 0  2.3 -4.8 0  2.4 -4.8 0  2.5 -4.8 0  2.6 -4.8 0  2.7 -4.8 0  2.8 -4.8 0  2.9 -4.8 0  3 -4.8 0  3.1 -4.8 0  3.199999999999999 -4.8 0  3.300000000000001 -4.8 0  3.4 -4.8 0  3.5 -4.8 0  3.6 -4.8 0  3.699999999999999 -4.8 0  3.800000000000001 -4.8 0  3.9 -4.8 0  4 -4.8 0  4.1 -4.8 0  4.199999999999999 -4.8 0  4.300000000000001 -4.8 0  4.4 -4.8 0  4.5 -4.8 0  4.6 -4.8 0  4.699999999999999 -4.8 0  4.800000000000001 -4.8 0  4.9 -4.8 0  5 -4.8 0  -5 -4.7 0  -4.9 -4.7 0  -4.8 -4.7 0  -4.7 -4.7 0  -4.6 -4.7 0  -4.5 -4.7 0  -4.4 -4.7 0  -4.3 -4.7 0  -4.2 -4.7 0  -4.1 -4.7 0  -4 -4.7 0  -3.9 -4.7 0  -3.8 -4.7 0  -3.7 -4.7 0  -3.6 -4.7 0  -3.5 -4.7 0  -3.4 -4.7 0  -3.3 -4.7 0  -3.2 -4.7 0  -3.1 -4.7 0  -3 -4.7 0  -2.9 -4.7 0  -2.8 -4.7 0  -2.7 -4.7 0  -2.6 -4.7 0  -2.5 -4.7 0  -2.4 -4.7 0  -2.3 -4.7 0  -2.2 -4.7 0  -2.1 -4.7 0  -2 -4.7 0  -1.9 -4.7 0  -1.8 -4.7 0  -1.7 -4.7 0  -1.6 -4.7 0  -1.5 -4.7 0  -1.4 -4.7 0  -1.3 -4.7 0  -1.2 -4.7 0  -1.1 -4.7 0  -1 -4.7 0  -0.9000000000000004 -4.7 0  -0.7999999999999998 -4.7 0  -0.7000000000000002 -4.7 0  -0.5999999999999996 -4.7 0  -0.5 -4.7 0  -0.4000000000000004 -4.7 0  -0.2999999999999998 -4.7 0  -0.2000000000000002 -4.7 0  -0.09999999999999964 -4.7 0  0 -4.7 0  0.09999999999999964 -4.7 0  0.2000000000000002 -4.7 0  0.2999999999999998 -4.7 0  0.4000000000000004 -4.7 0  0.5 -4.7 0  0.5999999999999996 -4.7 0  0.7000000000000002 -4.7 0  0.7999999999999998 -4.7 0  0.9000000000000004 -4.7 0  1 -4.7 0  1.1 -4.7 0  1.2 -4.7 0  1.3 -4.7 0  1.4 -4.7 0  1.5 -4.7 0  1.6 -4.7 0  1.7 -4.7 0  1.8 -4.7 0  1.9 -4.7 0  2 -4.7 0  2.1 -4.7 0  2.2 -4.7 0  2.3 -4.7 0  2.4 -4.7 0  2.5 -4.7 0  2.6 -4.7 0  2.7 -4.7 0  2.8 -4.7 0  2.9 -4.7 0  3 -4.7 0  3.1 -4.7 0  3.199999999999999 -4.7 0  3.300000000000001 -4.7 0  3.4 -4.7 0  3.5 -4.7 0  3.6 -4.7 0  3.699999999999999 -4.7 0  3.800000000000001 -4.7 0  3.9 -4.7 0  4 -4.7 0  4.1 -4.7 0  4.199999999999999 -4.7 0  4.300000000000001 -4.7 0  4.4 -4.7 0  4.5 -4.7 0  4.6 -4.7 0  4.699999999999999 -4.7 0  4.800000000000001 -4.7 0  4.9 -4.7 0  5 -4.7 0  -5 -4.6 0  -4.9 -4.6 0  -4.8 -4.6 0  -4.7 -4.6 0  -4.6 -4.6 0  -4.5 -4.6 0  -4.4 -4.6 0  -4.3 -4.6 0  -4.2 -4.6 0  -4.1 -4.6 0  -4 -4.6 0  -3.9 -4.6 0  -3.8 -4.6 0  -3.7 -4.6 0  -3.6 -4.6 0  -3.5 -4.6 0  -3.4 -4.6 0  -3.3 -4.6 0  -3.2 -4.6 0  -3.1 -4.6 0  -3 -4.6 0  -2.9 -4.6 0  -2.8 -4.6 0  -2.7 -4.6 0  -2.6 -4.6 0  -2.5 -4.6 0  -2.4 -4.6 0  -2.3 -4.6 0  -2.2 -4.6 0  -2.1 -4.6 0  -2 -4.6 0  -1.9 -4.6 0  -1.8 -4.6 0  -1.7 -4.6 0  -1.6 -4.6 0  -1.5 -4.6 0  -1.4 -4.6 0  -1.3 -4.6 0  -1.2 -4.6 0  -1.1 -4.6 0  -1 -4.6 0  -0.9000000000000004 -4.6 0  -0.7999999999999998 -4.6 0  -0.7000000000000002 -4.6 0  -0.5999999999999996 -4.6 0  -0.5 -4.6 0  -0.4000000000000004 -4.6 0  -0.2999999999999998 -4.6 0  -0.2000000000000002 -4.6 0  -0.09999999999999964 -4.6 0  0 -4.6 0  0.09999999999999964 -4.6 0  0.2000000000000002 -4.6 0  0.2999999999999998 -4.6 0  0.4000000000000004 -4.6 0  0.5 -4.6 0  0.5999999999999996 -4.6 0  0.7000000000000002 -4.6 0  0.7999999999999998 -4.6 0  0.9000000000000004 -4.6 0  1 -4.6 0  1.1 -4.6 0  1.2 -4.6 0  1.3 -4.6 0  1.4 -4.6 0  1.5 -4.6 0  1.6 -4.6 0  1.7 -4.6 0  1.8 -4.6 0  1.9 -4.6 0  2 -4.6 0  2.1 -4.6 0  2.2 -4.6 0  2.3 -4.6 0  2.4 -4.6 0  2.5 -4.6 0  2.6 -4.6 0  2.7 -4.6 0  2.8 -4.6 0  2.9 -4.6 0  3 -4.6 0  3.1 -4.6 0  3.199999999999999 -4.6 0  3.300000000000001 -4.6 0  3.4 -4.6 0  3.5 -4.6 0  3.6 -4.6 0  3.699999999999999 -4.6 0  3.800000000000001 -4.6 0  3.9 -4.6 0  4 -4.6 0  4.1 -4.6 0  4.199999999999999 -4.6 0  4.300000000000001 -4.6 0  4.4 -4.6 0  4.5 -4.6 0  4.6 -4.6 0  4.699999999999999 -4.6 0  4.800000000000001 -4.6 0  4.9 -4.6 0  5 -4.6 0  -5 -4.5 0  -4.9 -4.5 0  -4.8 -4.5 0  -4.7 -4.5 0  -4.6 -4.5 0  -4.5 -4.5 0  -4.4 -4.5 0  -4.3 -4.5 0  -4.2 -4.5 0  -4.1 -4.5 0  -4 -4.5 0  -3.9 -4.5 0  -3.8 -4.5 0  -3.7 -4.5 0  -3.6 -4.5 0  -3.5 -4.5 0  -3.4 -4.5 0  -3.3 -4.5 0  -3.2 -4.5 0  -3.1 -4.5 0  -3 -4.5 0  -2.9 -4.5 0  -2.8 -4.5 0  -2.7 -4.5 0  -2.6 -4.5 0  -2.5 -4.5 0  -2.4 -4.5 0  -2.3 -4.5 0  -2.2 -4.5 0  -2.1 -4.5 0  -2 -4.5 0  -1.9 -4.5 0  -1.8 -4.5 0  -1.7 -4.5 0  -1.6 -4.5 0  -1.5 -4.5 0  -1.4 -4.5 0  -1.3 -4.5 0  -1.2 -4.5 0  -1.1 -4.5 0  -1 -4.5 0  -0.9000000000000004 -4.5 0  -0.7999999999999998 -4.5 0  -0.7000000000000002 -4.5 0  -0.5999999999999996 -4.5 0  -0.5 -4.5 0  -0.4000000000000004 -4.5 0  -0.2999999999999998 -4.5 0  -0.2000000000000002 -4.5 0  -0.09999999999999964 -4.5 0  0 -4.5 0  0.09999999999999964 -4.5 0  0.2000000000000002 -4.5 0  0.2999999999999998 -4.5 0  0.4000000000000004 -4.5 0  0.5 -4.5 0  0.5999999999999996 -4.5 0  0.7000000000000002 -4.5 0  0.7999999999999998 -4.5 0  0.9000000000000004 -4.5 0  1 -4.5 0  1.1 -4.5 0  1.2 -4.5 0  1.3 -4.5 0  1.4 -4.5 0  1.5 -4.5 0  1.6 -4.5 0  1.7 -4.5 0  1.8 -4.5 0  1.9 -4.5 0  2 -4.5 0  2.1 -4.5 0  2.2 -4.5 0  2.3 -4.5 0  2.4 -4.5 0  2.5 -4.5 0  2.6 -4.5 0  2.7 -4.5 0  2.8 -4.5 0  2.9 -4.5 0  3 -4.5 0  3.1 -4.5 0  3.199999999999999 -4.5 0  3.300000000000001 -4.5 0  3.4 -4.5 0  3.5 -4.5 0  3.6 -4.5 0  3.699999999999999 -4.5 0  3.800000000000001 -4.5 0  3.9 -4.5 0  4 -4.5 0  4.1 -4.5 0  4.199999999999999 -4.5 0  4.300000000000001 -4.5 0  4.4 -4.5 0  4.5 -4.5 0  4.6 -4.5 0  4.699999999999999 -4.5 0  4.800000000000001 -4.5 0  4.9 -4.5 0  5 -4.5 0  -5 -4.4 0  -4.9 -4.4 0  -4.8 -4.4 0  -4.7 -4.4 0  -4.6 -4.4 0  -4.5 -4.4 0  -4.4 -4.4 0  -4.3 -4.4 0  -4.2 -4.4 0  -4.1 -4.4 0  -4 -4.4 0  -3.9 -4.4 0  -3.8 -4.4 0  -3.7 -4.4 0  -3.6 -4.4 0  -3.5 -4.4 0  -3.4 -4.4 0  -3.3 -4.4 0  -3.2 -4.4 0  -3.1 -4.4 0  -3 -4.4 0  -2.9 -4.4 0  -2.8 -4.4 0  -2.7 -4.4 0  -2.6 -4.4 0  -2.5 -4.4 0  -2.4 -4.4 0  -2.3 -4.4 0  -2.2 -4.4 0  -2.1 -4.4 0  -2 -4.4 0  -1.9 -4.4 0  -1.8 -4.
[...]
<PointData  Vectors="f_23"> 
<DataArray  type="Float64"  Name="f_23"  NumberOfComponents="3" format="ascii">1.5000000000000013e-01 0.0000000000000000e+00 0.0000000000000000e+00  1.5000000000000002e-01 3.5513747183251390e-32 0.0000000000000000e+00  1.5000000000000022e-01 1.4414731901807346e-31 0.0000000000000000e+00  1.4999999999999997e-01 6.7837344944022727e-32 0.0000000000000000e+00  1.5000000000000002e-01 6.4063497095888766e-32 0.0000000000000000e+00  1.5000000000000019e-01 3.0418327719685458e-32 0.0000000000000000e+00  1.5000000000000011e-01 9.5365166434803595e-33 0.0000000000000000e+00  1.4999999999999988e-01 5.9567155770202900e-32 0.0000000000000000e+00  1.5000000000000005e-01 7.0428560441370147e-32 0.0000000000000000e+00  1.5000000000000002e-01 5.4156158600313404e-34 0.0000000000000000e+00  1.5000000000000019e-01 2.0151694081083628e-32 0.0000000000000000e+00  1.5000000000000005e-01 3.3485914436586063e-34 0.0000000000000000e+00  1.5000000000000002e-01 5.1533414605533508e-32 0.0000000000000000e+00  1.5000000000000061e-01 1.7069156245795908e-31 0.0000000000000000e+00  1.5000000000000013e-01 2.7055031828251799e-32 0.0000000000000000e+00  1.4999999999999997e-01 4.7596635564965246e-32 0.0000000000000000e+00  1.4999999999999997e-01 4.5607457118474880e-33 0.0000000000000000e+00  1.5000000000000019e-01 1.0809752280642192e-32 0.0000000000000000e+00  1.5000000000000011e-01 1.2524020593141687e-31 0.0000000000000000e+00  1.5000000000000027e-01 2.4021310585325596e-32 0.0000000000000000e+00  1.4999999999999988e-01 1.9632304302314032e-32 0.0000000000000000e+00  1.5000000000000041e-01 3.0819227768229011e-32 0.0000000000000000e+00  1.4999999999999988e-01 6.3402314349446294e-33 0.0000000000000000e+00  1.5000000000000005e-01 7.2275796993153288e-33 0.0000000000000000e+00  1.5000000000000013e-01 2.3774272524469844e-32 0.0000000000000000e+00  1.4999999999999997e-01 1.0396534511998097e-32 0.0000000000000000e+00  1.5000000000000019e-01 1.8295328958299386e-33 0.0000000000000000e+00  1.5000000000000005e-01 4.8063187812618852e-33 0.0000000000000000e+00  1.4999999999999997e-01 3.9852485725618035e-35 0.0000000000000000e+00  1.5000000000000044e-01 7.9312873014379735e-32 0.0000000000000000e+00  1.4999999999999988e-01 2.4317060821554108e-32 0.0000000000000000e+00  1.5000000000000011e-01 3.8099359693287268e-34 0.0000000000000000e+00  1.5000000000000002e-01 1.2517936741698846e-32 0.0000000000000000e+00  1.5000000000000044e-01 6.3842312098501638e-32 0.0000000000000000e+00  1.5000000000000013e-01 3.1521810562984981e-33 0.0000000000000000e+00  1.5000000000000022e-01 2.2386707173706616e-33 0.0000000000000000e+00  1.5000000000000002e-01 1.7026732930927177e-32 0.0000000000000000e+00  1.5000000000000030e-01 4.3043862112157942e-33 0.0000000000000000e+00  1.5000000000000013e-01 8.3733652584662216e-33 0.0000000000000000e+00  1.5000000000000013e-01 1.3257096755130611e-33 0.0000000000000000e+00  1.4999999999999997e-01 2.2603413472143219e-32 0.0000000000000000e+00  1.5000000000000044e-01 4.5267211476000138e-33 0.0000000000000000e+00  1.4999999999999974e-01 1.4035164576180332e-31 0.0000000000000000e+00  1.5000000000000027e-01 2.9031101516072535e-31 0.0000000000000000e+00  1.4999999999999997e-01 2.8211095714139242e-32 0.0000000000000000e+00  1.5000000000000022e-01 4.7009548417652102e-32 0.0000000000000000e+00  1.5000000000000005e-01 5.9271635128625041e-32 0.0000000000000000e+00  1.5000000000000011e-01 2.2537611320760407e-32 0.0000000000000000e+00  1.5000000000000002e-01 1.7941716959459713e-33 0.0000000000000000e+00  1.5000000000000002e-01 8.9822255310205248e-35 0.0000000000000000e+00  1.5000000000000011e-01 5.9609536069467181e-34 0.0000000000000000e+00  1.5000000000000022e-01 6.5804848912124950e-33 0.0000000000000000e+00  1.5000000000000002e-01 5.7165924941610381e-32 0.0000000000000000e+00  1.5000000000000052e-01 4.1845416855452753e-31 0.0000000000000000e+00  1.5000000000000005e-01 3.2465292683604261e-31 0.0000000000000000e+00  1.5000000000000011e-01 5.4521297565753347e-32 0.0000000000000000e+00  1.5000000000000002e-01 5.9698597335664209e-32 0.0000000000000000e+00  1.5000000000000005e-01 2.3130888990210034e-32 0.0000000000000000e+00  1.4999999999999997e-01 3.0458550640730816e-31 0.0000000000000000e+00  1.5000000000000013e-01 1.6944038280821784e-31 0.0000000000000000e+00  1.5000000000000022e-01 7.6305317911091815e-32 0.0000000000000000e+00  1.5000000000000011e-01 2.2169606046967416e-33 0.0000000000000000e+00  1.5000000000000013e-01 1.8342024017362801e-32 0.0000000000000000e+00  1.5000000000000041e-01 5.3286905964440687e-32 0.0000000000000000e+00  1.5000000000000011e-01 7.9987413150005176e-33 0.0000000000000000e+00  1.5000000000000052e-01 9.6543329074794567e-34 0.0000000000000000e+00  1.5000000000000005e-01 3.0563381433216467e-33 0.0000000000000000e+00  1.5000000000000019e-01 6.9468241306422668e-32 0.0000000000000000e+00  1.5000000000000022e-01 7.2995871206353861e-33 0.0000000000000000e+00  1.5000000000000002e-01 1.1144741560825058e-33 0.0000000000000000e+00  1.5000000000000022e-01 1.7426029055395369e-32 0.0000000000000000e+00  1.5000000000000027e-01 1.4944527532005109e-32 0.0000000000000000e+00  1.5000000000000011e-01 4.8902248179976290e-35 0.0000000000000000e+00  1.5000000000000044e-01 8.4364206460965395e-32 0.0000000000000000e+00  1.4999999999999988e-01 1.8280624559974518e-31 0.0000000000000000e+00  1.5000000000000022e-01 1.0870157208246863e-31 0.0000000000000000e+00  1.5000000000000002e-01 1.3264801521401864e-32 0.0000000000000000e+00  1.5000000000000049e-01 4.7334056267937278e-33 0.0000000000000000e+00  1.5000000000000005e-01 1.4313237573687439e-32 0.0000000000000000e+00  1.5000000000000005e-01 3.4704063400252034e-33 0.0000000000000000e+00  1.5000000000000022e-01 4.6644296851890218e-35 0.0000000000000000e+00  1.5000000000000011e-01 3.6513539256621908e-34 0.0000000000000000e+00  1.5000000000000019e-01 1.7739265491416109e-32 0.0000000000000000e+00  1.4999999999999980e-01 2.6447560884827654e-32 0.0000000000000000e+00  1.4999999999999997e-01 1.6165958493876529e-33 0.0000000000000000e+00  1.5000000000000011e-01 4.9246325242149300e-32 0.0000000000000000e+00  1.5000000000000022e-01 2.6210466478112050e-33 0.0000000000000000e+00  1.5000000000000002e-01 4.5403311204833985e-34 0.0000000000000000e+00  1.5000000000000011e-01 4.9762404139544114e-32 0.0000000000000000e+00  1.5000000000000030e-01 2.5321268947720059e-32 0.0000000000000000e+00  1.5000000000000013e-01 6.1097851271183812e-33 0.0000000000000000e+00  1.5000000000000019e-01 2.7833398261818247e-34 0.0000000000000000e+00  1.4999999999999997e-01 1.5724787857307163e-32 0.0000000000000000e+00  1.5000000000000005e-01 4.8186316284837213e-34 0.0000000000000000e+00  1.5000000000000011e-01 8.1159365901900122e-33 0.0000000000000000e+00  1.5000000000000005e-01 1.3247417873124796e-34 0.0000000000000000e+00  1.5000000000000019e-01 2.5262599788479468e-32 0.0000000000000000e+00  1.5000000000000002e-01 1.0029559195405916e-32 0.0000000000000000e+00  1.5000000000000005e-01 9.7931094902099186e-32 0.0000000000000000e+00  1.5000000000000011e-01 1.6139199218021596e-33 0.0000000000000000e+00  1.5000000000000013e-01 0.0000000000000000e+00 0.0000000000000000e+00  1.5000000000000002e-01 0.0000000000000000e+00 4.3520566294145114e-33  1.5000000000000019e-01 3.8104293221321553e-34 1.1960164687880785e-36  1.5000000000000013e-01 3.9379667202417537e-32 5.0129366299474188e-32  1.5000000000000011e-01 1.5087047748591326e-33 1.3653992131182621e-34  1.5000000000000011e-01 8.0502958923706057e-34 1.0721967854982360e-32  1.4999999999999988e-01 1.9321070794864506e-33 3.9397870181553296e-33  1.5000000000000013e-01 3.6773284809231614e-32 2.0584431475499609e-32  1.5000000000000019e-01 8.4146490047619559e-32 2.0403921378124599e-33  1.5000000000000013e-01 1.6410055315127745e-33 1.4868099259300595e-32  1.5000000000000030e-01 9.8495475368614315e-33 5.1629669829367041e-33  1.5000000000000013e-01 7.4517361288549007e-32 2.7928977102283347e-32  1.5000000000000005e-01 1.1937252756543618e-33 1.4376837310584346e-32  1.5000000000000022e-01 1.1020633176196224e-32 1.1406596176126739e-32  1.4999999999999963e-01 1.2452763344873799e-35 3.7917455818792226e-33  1.5000000000000013e-01 2.2055274092398287e-32 4.6215571167469961e-32  1.5000000000000011e-01 9.2461395653420147e-34 1.5080245359585865e-35  1.5000000000000011e-01 8.9192427746963957e-32 2.3164857603070394e-32  1.5000000000000005e-01 5.2227480563240426e-33 6.5145708617981739e-32  1.5000000000000002e-01 5.5243083263537631e-32 1.1382763254284735e-31  1.4999999999999997e-01 1.0752328757349759e-31 6.1077527596336191e-33  1.5000000000000011e-01 8.0231604645408801e-32 3.1154633466546340e-33  1.4999999999999972e-01 1.8753385037074784e-32 1.1613419782415874e-32  1.5000000000000022e-01 3.3074347623537170e-32 9.4670696272445865e-32  1.5000000000000002e-01 1.7234510081822563e-36 2.2905768564228395e-32  1.5000000000000005e-01 2.2558985911717570e-33 2.8344699498063519e-33  1.5000000000000022e-01 7.8188629302213853e-33 5.5929281347455533e-33  1.5000000000000013e-01 4.3580347253639700e-33 2.1673207536048608e-32  1.5000000000000005e-01 1.1087336999476695e-33 1.7558150652994087e-32  1.5000000000000027e-01 1.9999007997343186e-32 4.3086676084456571e-32  1.4999999999999988e-01 3.4203926614533639e-32 3.7246708540880441e-33  1.5000000000000011e-01 7.5975535409040444e-33 1.5220964555943187e-32  1.5000000000000011e-01 1.8945228653869601e-32 1.0000362968624060e-32  1.5000000000000030e-01 4.5840785234700684e-32 9.7393091149086338e-32  1.5000000000000011e-01 3.6667986671862641e-32 3.1803569486053135e-34  1.5000000000000022e-01 4.3910844956454434e-32 1.2344365823031546e-32  1.5000000000000005e-01 2.2282210418879759e-35 4.1813727928533470e-33  1.5000000000000011e-01 2.0980439197729608e-35 3.4255012472268484e-33  1.4999999999999983e-01 2.9484860675519868e-32 3.1143830893024282e-32  1.5000000000000013e-01 9.9915066237463594e-33 7.9163090636687848e-33  1.5000000000000013e-01 2.1440179405675858e-32 4.2705909307875219e-33  1.5000000000000011e-01 3.7156279683409921e-34 6.5142511095545720e-33  1.5000000000000005e-01 1.1887400048366659e-32 3.3401201428051248e-32  1.5000000000000027e-01 4.4958669306441447e-32 6.1972196475855551e-33  1.5000000000000013e-01 1.2470897084023801e-32 1.9296622571923340e-33  1.5000000000000030e-01 8.0790057650978852e-32 7.6032483300360798e-33  1.4999999999999983e-01 4.8450587540588331e-33 1.9552097870064068e-33  1.5000000000000011e-01 1.7451256071521519e-32 1.0755111347940142e-33  1.5000000000000019e-01 9.2192760480193292e-32 3.1465699795468856e-33  1.5000000000000013e-01 1.1990278024265927e-35 3.8467005611053117e-33  1.5000000000000027e-01 3.3892940411756652e-36 2.2842129406576842e-32  1.5000000000000019e-01 9.9231941682869775e-34 2.4689436645313673e-32  1.5000000000000013e-01 1.6497321077483742e-32 1.9748764098254943e-32  1.5000000000000027e-01 3.6968280121815325e-32 2.9566305201080129e-32  1.4999999999999980e-01 1.6292332371743786e-32 2.7243201356350000e-32  1.5000000000000027e-01 1.2860071374784638e-32 3.7075421426238112e-32  1.5000000000000002e-01 4.6842641010839883e-33 2.5630831153456671e-32  1.5000000000000013e-01 3.1105152500696284e-32 4.1055446774581079e-32  1.5000000000000005e-01 6.0012329771037716e-32 1.3684906310386599e-32  1.5000000000000011e-01 1.6141551628330046e-33 3.9456281701105528e-32  1.5000000000000030e-01 1.8821252834186143e-33 2.2004994614388053e-33  1.5000000000000002e-01 3.9079860068496037e-33 1.2636724503103247e-32  1.5000000000000005e-01 4.8852952546614811e-34 5.7252579167381839e-33  1.5000000000000027e-01 3.2947927046163911e-32 3.1838532363860632e-32  1.5000000000000013e-01 1.1470862248383643e-32 4.5169700733498555e-32  1.5000000000000030e-01 4.2747236167313431e-33 1.9960024334604632e-32  1.5000000000000013e-01 3.3372214623230674e-34 5.5942146725042382e-34  1.5000000000000022e-01 3.8439749523717466e-32 3.2015121493492643e-32  1.5000000000000019e-01 2.2862145548073658e-32 1.3660347839936209e-32  1.5000000000000013e-01 8.9927386932674017e-33 1.2150047503958859e-39  1.5000000000000002e-01 6.8641630407531738e-35 6.1735505076230360e-33  1.5000000000000019e-01 4.8573262904812672e-33 6.5819630376840510e-33  1.5000000000000022e-01 8.7962529914908198e-33 2.7467132438421761e-32  1.5000000000000036e-01 4.2947614337793997e-32 1.0536376956313340e-31  1.5000000000000022e-01 3.2706674437693320e-32 7.9876475912740193e-33  1.5000000000000030e-01 1.2082206445504211e-31 9.7876793277787990e-33  1.4999999999999997e-01 3.6456468009570350e-33 3.2906542169072273e-32  1.5000000000000013e-01 6.6306918092629935e-33 7.3518994368813175e-34  1.4999999999999997e-01 2.7987253936319386e-31 2.9971932572164715e-32  1.5000000000000030e-01 2.4469414074362901e-32 3.0543716789967383e-32  1.5000000000000027e-01 4.1059475268112067e-33 1.5188761873743398e-34  1.5000000000000011e-01 5.6396294281492133e-33 2.6369228478652563e-33  1.5000000000000011e-01 1.5439724619437293e-32 9.0648193857760837e-32  1.5000000000000011e-01 8.0690611140690081e-34 2.9483215289988596e-33  1.5000000000000005e-01 2.3640632559368341e-32 4.6350113998571157e-33  1.5000000000000027e-01 8.9243269259886398e-32 9.0622221620094472e-33  1.5000000000000013e-01 4.8208537516643653e-32 2.7020970553535966e-32  1.5000000000000013e-01 1.1927302130407917e-33 5.7319568278830814e-33  1.5000000000000013e-01 2.4540094774837212e-32 5.2435030423239218e-32  1.5000000000000022e-01 6.6143491588839485e-32 1.1270186886308434e-33  1.5000000000000019e-01 5.6585049076622314e-32 2.2593729628134536e-32  1.5000000000000005e-01 1.4044659716415289e-32 1.9015580636903963e-32  1.5000000000000002e-01 3.1925301641312999e-33 1.4369459874712291e-34  1.5000000000000013e-01 1.5911071865399653e-34 5.1096898258177652e-33  1.5000000000000022e-01 7.4136034090720719e-32 7.1244673230814992e-33  1.4999999999999991e-01 1.4622021577322951e-32 7.6296230027152871e-33  1.5000000000000022e-01 1.7339768901191795e-32 2.5069293989448593e-34  1.5000000000000011e-01 9.8819056646653476e-33 2.1122886351535613e-32  1.5000000000000002e-01 1.9257183270632274e-32 3.3790345674548380e-33  1.5000000000000019e-01 1.4631400024570257e-32 1.2895342584277489e-31  1.5000000000000011e-01 2.8791561119508458e-32 4.8041496141705888e-33  1.5000000000000019e-01 0.0000000000000000e+00 5.6411066180443465e-32  1.5000000000000013e-01 0.0000000000000000e+00 3.2983236801905168e-35  1.5000000000000013e-01 1.4405839031701955e-32 3.4905619455428858e-32  1.5000000000000013e-01 5.7922397756033132e-33 3.3761660890230373e-32  1.4999999999999991e-01 4.0477842722228045e-33 1.4814297356791989e-34  1.5000000000000027e-01 3.7789585878827966e-33 7.3596653325725144e-33  1.5000000000000002e-01 4.4900051146532414e-32 4.1753345158297295e-32  1.5000000000000022e-01 1.1084736223474812e-31 1.2245510278589049e-32  1.4999999999999997e-01 7.9156661763173191e-32 6.8984444995702790e-33  1.4999999999999991e-01 4.0564607192687840e-33 3.1945267301159771e-35  1.5000000000000002e-01 2.7803526661987160e-32 5.8606499160143923e-33  1.5000000000000002e-01 2.1679980399142846e-32 1.7020099412889175e-31  1.4999999999999991e-01 3.5365331008572376e-33 3.2466547466121363e-33  1.5000000000000005e-01 8.8487244373340403e-34 6.5598677787646902e-33  1.5000000000000030e-01 3.7331434887199390e-34 1.4063791253381480e-33  1.5000000000000005e-01 2.2576679687874148e-33 6.2406241840203584e-34  1.5000000000000002e-01 2.3419828335018344e-32 8.9708048310894985e-33  1.5000000000000013e-01 2.8755205468040323e-32 1.0431314352955659e-32  1.5000000000000002e-01 1.6287491158707478e-32 4.8428461707177126e-32  1.4999999999999991e-01 2.5348308973001003e-32 1.0093061459373841e-31  1.5000000000000019e-01 2.1126344381834582e-32 5.1016575492685926e-32  1.5000000000000005e-01 4.2220186784943921e-33 3.6111031465284509e-32  1.5000000000000002e-01 8.0521466065726630e-32 1.1166560153398857e-31  1.5000000000000027e-01 1.5835267191602563e-33 9.5717379076284538e-33  1.5000000000000002e-01 7.9424686131063559e-32 2.5530493654566782e-33  1.5000000000000019e-01 2.9740046737065546e-32 2.0662097511908878e-33  1.5000000000000002e-01 3.9326865938698988e-32 9.2369889165040076e-34  1.5000000000000011e-01 9.6398332869658709e-33 1.4887707356933351e-34  1.5000000000000013e-01 7.5892867145785981e-33 2.1491663119181704e-32  1.5000000000000013e-01 9.7547671324352387e-35 2.3347728441087664e-33  1.5000000000000013e-01 3.4044462845220539e-36 3.0196792458623143e-33  1.5000000000000005e-01 2.3922435359174955e-32 4.4888512535612321e-32  1.5000000000000013e-01 3.3587940483457449e-33 1.3288082515145109e-32  1.4999999999999997e-01 1.4708051772611136e-32 1.7839215117538029e-31  1.5000000000000013e-01 9.8708241186338264e-32 6.1962648684334875e-34  1.5000000000000013e-01 5.8423874162286415e-33 1.0606545171542208e-32  1.5000000000000011e-01 6.6366496778982498e-35 2.8599594858037758e-32  1.5000000000000019e-01 7.5653757904961273e-33 5.3510512181091081e-33  1.5000000000000027e-01 5.5929738766483337e-32 4.4086815896678752e-34  1.4999999999999997e-01 2.1107434232070734e-35 8.1873729689540282e-32  1.4999999999999983e-01 8.8909286300961028e-32 1.9209886933923017e-32  1.5000000000000022e-01 4.5366221112252058e-36 8.5477731176092480e-34  1.4999999999999991e-01 1.5238541207152968e-32 1.3000183400488152e-32  1.5000000000000011e-01 9.7247485338967652e-33 5.8794140054682852e-33  1.5000000000000011e-01 3.5866220021557741e-33 1.4405668824950284e-33  1.5000000000000002e-01 5.3766622739731942e-33 9.4908898800273406e-34  1.5000000000000036e-01 3.1424192266065784e-33 8.6362498031535764e-32  1.5000000000000005e-01 8.4578336923052353e-32 3.0793360853873120e-32  1.5000000000000041e-01 1.9372217434844218e-32 2.1300729869637431e-32  1.4999999999999991e-01 2.9102009678521722e-32 5.5657762812968241e-34  1.5000000000000022e-01 8.8363241557451615e-33 4.3117383492484020e-33  1.5000000000000013e-01 8.7527571516606513e-33 7.7581968540755262e-32  1.5000000000000022e-01 1.1408036857709407e-31 1.8455821966458348e-33  1.5000000000000019e-01 3.8878199490959641e-32 1.5846738445715679e-32  1.5000000000000005e-01 5.3782785380181555e-33 4.0905592898784605e-32  1.5000000000000002e-01 5.6046201359257183e-34 2.7764731220866613e-36  1.5000000000000011e-01 9.5861210268691054e-33 2.0014330464982230e-34  1.5000000000000022e-01 1.0822014578855085e-32 7.3044746070207187e-33  1.5000000000000030e-01 1.0304587004672286e-32 8.2551781390382982e-37  1.5000000000000022e-01 1.3474169518914058e-33 8.0220502590662087e-33  1.5000000000000002e-01 3.4135840021527373e-33 7.7801889443547142e-33  1.5000000000000022e-01 1.0833154451927992e-33 1.4604872121265424e-33  1.4999999999999997e-01 1.4712494053681945e-33 1.3458716203596326e-32  1.4999999999999997e-01 3.1369126046262907e-32 5.9260530701068918e-32  1.5000000000000013e-01 9.0751067247657559e-32 1.9148254466362751e-32  1.5000000000000036e-01 6.3449952338182489e-33 4.4774338070027629e-32  1.5000000000000011e-01 2.8209785592993694e-35 3.9259698206702182e-32  1.5000000000000019e-01 4.2788663881320214e-33 5.2011440722989924e-34  1.5000000000000030e-01 2.7565258919328955e-32 5.0513381884380527e-33  1.5000000000000013e-01 3.2466150646837966e-33 6.3827903722100504e-33  1.5000000000000005e-01 6.6308909599516796e-32 8.6650207513861904e-33  1.5000000000000011e-01 1.1043700511140392e-37 1.2759966955975101e-31  1.4999999999999997e-01 2.0634810433649077e-31 1.0101735781128943e-32  1.5000000000000041e-01 3.0934760359844243e-32 8.0300023269004566e-32  1.5000000000000011e-01 4.9390209581529183e-33 2.6799845709151301e-32  1.5000000000000002e-01 1.3085222096896885e-32 3.3109829732028938e-32  1.5000000000000011e-01 3.3140024110215089e-32 6.4427379564686821e-32  1.5000000000000019e-01 2.0132793198357957e-33 1.6780231756511975e-32  1.4999999999999980e-01 3.0531195429718895e-33 7.7522205348824372e-33  1.5000000000000013e-01 2.6201261834268364e-33 2.6310102729078308e-33  1.5000000000000002e-01 1.4346508598854641e-32 3.0312750785691130e-32  1.5000000000000011e-01 3.6924719410705328e-33 2.5532928151289833e-33  1.5000000000000013e-01 3.8500833405601903e-32 2.8852562700716676e-32  1.5000000000