<?xml version="1.0"?>
<VTKFile type="UnstructuredGrid"  version="0.1"  >
<UnstructuredGrid>
<Piece  NumberOfPoints="10201" NumberOfCells="20000">
<Points>
<DataArray  type="Float64"  NumberOfComponents="3"  format="ascii">-5 -5 0  -4.9 -5 0  -4.8 -5 0  -4.7 -5 0  -4.6 -5 0  -4.5 -5 0  -4.4 -5 0  -4.3 -5 0  -4.2 -5 0  -4.1 -5 0  -4 -5 0  -3.9 -5 0  -3.8 -5 0  -3.7 -5 0  -3.6 -5 0  -3.5 -5 0  -3.4 -5 0  -3.3 -5 0  -3.2 -5 0  -3.1 -5 0  -3 -5 0  -2.9 -5 0  -2.8 -5 0  -2.7 -5 0  -2.6 -5 0  -2.5 -5 0  -2.4 -5 0  -2.3 -5 0  -2.2 -5 0  -2.1 -5 0  -2 -5 0  -1.9 -5 0  -1.8 -5 0  -1.7 -5 0  -1.6 -5 0  -1.5 -5 0  -1.4 -5 0  -1.3 -5 0  -1.2 -5 0  -1.1 -5 0  -1 -5 0  -0.9000000000000004 -5 0  -0.7999999999999998 -5 0  -0.7000000000000002 -5 0  -0.5999999999999996 -5 0  -0.5 -5 0  -0.4000000000000004 -5 0  -0.2999999999999998 -5 0  -0.2000000000000002 -5 0  -0.09999999999999964 -5 0  0 -5 0  0.09999999999999964 -5 0  0.2000000000000002 -5 0  0.2999999999999998 -5 0  0.4000000000000004 -5 0  0.5 -5 0  0.5999999999999996 -5 0  0.7000000000000002 -5 0  0.7999999999999998 -5 0  0.9000000000000004 -5 0  1 -5 0  1.1 -5 0  1.2 -5 0  1.3 -5 0  1.4 -5 0  1.5 -5 0  1.6 -5 0  1.7 -5 0  1.8 -5 0  1.9 -5 0  2 -5 0  2.1 -5 0  2.2 -5 0  2.3 -5 0  2.4 -5 0  2.5 -5 0  2.6 -5 0  2.7 -5 0  2.8 -5 0  2.9 -5 0  3 -5 0  3.1 -5 0  3.199999999999999 -5 0  3.300000000000001 -5 0  3.4 -5 0  3.5 -5 0  3.6 -5 0  3.699999999999999 -5 0  3.800000000000001 -5 0  3.9 -5 0  4 -5 0  4.1 -5 0  4.199999999999999 -5 0  4.300000000000001 -5 0  4.4 -5 0  4.5 -5 0  4.6 -5 0  4.699999999999999 -5 0  4.800000000000001 -5 0  4.9 -5 0  5 -5 0  -5 -4.9 0  -4.9 -4.9 0  -4.8 -4.9 0  -4.7 -4.9 0  -4.6 -4.9 0  -4.5 -4.9 0  -4.4 -4.9 0  -4.3 -4.9 0  -4.2 -4.9 0  -4.1 -4.9 0  -4 -4.9 0  -3.9 -4.9 0  -3.8 -4.9 0  -3.7 -4.9 0  -3.6 -4.9 0  -3.5 -4.9 0  -3.4 -4.9 0  -3.3 -4.9 0  -3.2 -4.9 0  -3.1 -4.9 0  -3 -4.9 0  -2.9 -4.9 0  -2.8 -4.9 0  -2.7 -4.9 0  -2.6 -4.9 0  -2.5 -4.9 0  -2.4 -4.9 0  -2.3 -4.9 0  -2.2 -4.9 0  -2.1 -4.9 0  -2 -4.9 0  -1.9 -4.9 0  -1.8 -4.9 0  -1.7 -4.9 0  -1.6 -4.9 0  -1.5 -4.9 0  -1.4 -4.9 0  -1.3 -4.9 0  -1.2 -4.9 0  -1.1 -4.9 0  -1 -4.9 0  -0.9000000000000004 -4.9 0  -0.7999999999999998 -4.9 0  -0.7000000000000002 -4.9 0  -0.5999999999999996 -4.9 0  -0.5 -4.9 0  -0.4000000000000004 -4.9 0  -0.2999999999999998 -4.9 0  -0.2000000000000002 -4.9 0  -0.09999999999999964 -4.9 0  0 -4.9 0  0.09999999999999964 -4.9 0  0.2000000000000002 -4.9 0  0.2999999999999998 -4.9 0  0.4000000000000004 -4.9 0  0.5 -4.9 0  0.5999999999999996 -4.9 0  0.7000000000000002 -4.9 0  0.7999999999999998 -4.9 0  0.9000000000000004 -4.9 0  1 -4.9 0  1.1 -4.9 0  1.2 -4.9 0  1.3 -4.9 0  1.4 -4.9 0  1.5 -4.9 0  1.6 -4.9 0  1.7 -4.9 0  1.8 -4.9 0  1.9 -4.9 0  2 -4.9 0  2.1 -4.9 0  2.2 -4.9 0  2.3 -4.9 0  2.4 -4.9 0  2.5 -4.9 0  2.6 -4.9 0  2.7 -4.9 0  2.8 -4.9 0  2.9 -4.9 0  3 -4.9 0  3.1 -4.9 0  3.199999999999999 -4.9 0  3.300000000000001 -4.9 0  3.4 -4.9 0  3.5 -4.9 0  3.6 -4.9 0  3.699999999999999 -4.9 0  3.800000000000001 -4.9 0  3.9 -4.9 0  4 -4.9 0  4.1 -4.9 0  4.199999999999999 -4.9 0  4.300000000000001 -4.9 0  4.4 -4.9 0  4.5 -4.9 0  4.6 -4.9 0  4.699999999999999 -4.9 0  4.800000000000001 -4.9 0  4.9 -4.9 0  5 -4.9 0  -5 -4.8 0  -4.9 -4.8 0  -4.8 -4.8 0  -4.7 -4.8 0  -4.6 -4.8 0  -4.5 -4.8 0  -4.4 -4.8 0  -4.3 -4.8 0  -4.2 -4.8 0  -4.1 -4.8 0  -4 -4.8 0  -3.9 -4.8 0  -3.8 -4.8 0  -3.7 -4.8 0  -3.6 -4.8 0  -3.5 -4.8 0  -3.4 -4.8 0  -3.3 -4.8 0  -3.2 -4.8 0  -3.1 -4.8 0  -3 -4.8 0  -2.9 -4.8 0  -2.8 -4.8 0  -2.7 -4.8 0  -2.6 -4.8 0  -2.5 -4.8 0  -2.4 -4.8 0  -2.3 -4.8 0  -2.2 -4.8 0  -2.1 -4.8 0  -2 -4.8 0  -1.9 -4.8 0  -1.8 -4.8 0  -1.7 -4.8 0  -1.6 -4.8 0  -1.5 -4.8 0  -1.4 -4.8 0  -1.3 -4.8 0  -1.2 -4.8 0  -1.1 -4.8 0  -1 -4.8 0  -0.9000000000000004 -4.8 0  -0.7999999999999998 -4.8 0  -0.7000000000000002 -4.8 0  -0.5999999999999996 -4.8 0  -0.5 -4.8 0  -0.4000000000000004 -4.8 0  -0.2999999999999998 -4.8 0  -0.2000000000000002 -4.8 0  -0.09999999999999964 -4.8 0  0 -4.8 0  0.09999999999999964 -4.8 0  0.2000000000000002 -4.8 0  0.2999999999999998 -4.8 0  0.4000000000000004 -4.8 0  0.5 -4.8 0  0.5999999999999996 -4.8 0  0.7000000000000002 -4.8 0  0.7999999999999998 -4.8 0  0.9000000000000004 -4.8 0  1 -4.8 0  1.1 -4.8 0  1.2 -4.8 0  1.3 -4.8 0  1.4 -4.8 0  1.5 -4.8 0  1.6 -4.8 0  1.7 -4.8 0  1.8 -4.8 0  1.9 -4.8 0  2 -4.8 0  2.1 -4.8 0  2.2 -4.8 0  2.3 -4.8 0  2.4 -4.8 0  2.5 -4.8 0  2.6 -4.8 0  2.7 -4.8 0  2.8 -4.8 0  2.9 -4.8 0  3 -4.8 0  3.1 -4.8 0  3.199999999999999 -4.8 0  3.300000000000001 -4.8 0  3.4 -4.8 0  3.5 -4.8 0  3.6 -4.8 0  3.699999999999999 -4.8 0  3.800000000000001 -4.8 0  3.9 -4.8 0  4 -4.8 0  4.1 -4.8 0  4.199999999999999 -4.8 0  4.300000000000001 -4.8 0  4.4 -4.8 0  4.5 -4.8 0  4.6 -4.8 0  4.699999999999999 -4.8 0  4.800000000000001 -4.8 0  4.9 -4.8 0  5 -4.8 0  -5 -4.7 0  -4.9 -4.7 0  -4.8 -4.7 0  -4.7 -4.7 0  -4.6 -4.7 0  -4.5 -4.7 0  -4.4 -4.7 0  -4.3 -4.7 0  -4.2 -4.7 0  -4.1 -4.7 0  -4 -4.7 0  -3.9 -4.7 0  -3.8 -4.7 0  -3.7 -4.7 0  -3.6 -4.7 0  -3.5 -4.7 0  -3.4 -4.7 0  -3.3 -4.7 0  -3.2 -4.7 0  -3.1 -4.7 0  -3 -4.7 0  -2.9 -4.7 0  -2.8 -4.7 0  -2.7 -4.7 0  -2.6 -4.7 0  -2.5 -4.7 0  -2.4 -4.7 0  -2.3 -4.7 0  -2.2 -4.7 0  -2.1 -4.7 0  -2 -4.7 0  -1.9 -4.7 0  -1.8 -4.7 0  -1.7 -4.7 0  -1.6 -4.7 0  -1.5 -4.7 0  -1.4 -4.7 0  -1.3 -4.7 0  -1.2 -4.7 0  -1.1 -4.7 0  -1 -4.7 0  -0.9000000000000004 -4.7 0  -0.7999999999999998 -4.7 0  -0.7000000000000002 -4.7 0  -0.5999999999999996 -4.7 0  -0.5 -4.7 0  -0.4000000000000004 -4.7 0  -0.2999999999999998 -4.7 0  -0.2000000000000002 -4.7 0  -0.09999999999999964 -4.7 0  0 -4.7 0  0.09999999999999964 -4.7 0  0.2000000000000002 -4.7 0  0.2999999999999998 -4.7 0  0.4000000000000004 -4.7 0  0.5 -4.7 0  0.5999999999999996 -4.7 0  0.7000000000000002 -4.7 0  0.7999999999999998 -4.7 0  0.9000000000000004 -4.7 0  1 -4.7 0  1.1 -4.7 0  1.2 -4.7 0  1.3 -4.7 0  1.4 -4.7 0  1.5 -4.7 0  1.6 -4.7 0  1.7 -4.7 0  1.8 -4.7 0  1.9 -4.7 0  2 -4.7 0  2.1 -4.7 0  2.2 -4.7 0  2.3 -4.7 0  2.4 -4.7 0  2.5 -4.7 0  2.6 -4.7 0  2.7 -4.7 0  2.8 -4.7 0  2.9 -4.7 0  3 -4.7 0  3.1 -4.7 0  3.199999999999999 -4.7 0  3.300000000000001 -4.7 0  3.4 -4.7 0  3.5 -4.7 0  3.6 -4.7 0  3.699999999999999 -4.7 0  3.800000000000001 -4.7 0  3.9 -4.7 0  4 -4.7 0  4.1 -4.7 0  4.199999999999999 -4.7 0  4.300000000000001 -4.7 0  4.4 -4.7 0  4.5 -4.7 0  4.6 -4.7 0  4.699999999999999 -4.7 0  4.800000000000001 -4.7 0  4.9 -4.7 0  5 -4.7 0  -5 -4.6 0  -4.9 -4.6 0  -4.8 -4.6 0  -4.7 -4.6 0  -4.6 -4.6 0  -4.5 -4.6 0  -4.4 -4.6 0  -4.3 -4.6 0  -4.2 -4.6 0  -4.1 -4.6 0  -4 -4.6 0  -3.9 -4.6 0  -3.8 -4.6 0  -3.7 -4.6 0  -3.6 -4.6 0  -3.5 -4.6 0  -3.4 -4.6 0  -3.3 -4.6 0  -3.2 -4.6 0  -3.1 -4.6 0  -3 -4.6 0  -2.9 -4.6 0  -2.8 -4.6 0  -2.7 -4.6 0  -2.6 -4.6 0  -2.5 -4.6 0  -2.4 -4.6 0  -2.3 -4.6 0  -2.2 -4.6 0  -2.1 -4.6 0  -2 -4.6 0  -1.9 -4.6 0  -1.8 -4.6 0  -1.7 -4.6 0  -1.6 -4.6 0  -1.5 -4.6 0  -1.4 -4.6 0  -1.3 -4.6 0  -1.2 -4.6 0  -1.1 -4.6 0  -1 -4.6 0  -0.9000000000000004 -4.6 0  -0.7999999999999998 -4.6 0  -0.7000000000000002 -4.6 0  -0.5999999999999996 -4.6 0  -0.5 -4.6 0  -0.4000000000000004 -4.6 0  -0.2999999999999998 -4.6 0  -0.2000000000000002 -4.6 0  -0.09999999999999964 -4.6 0  0 -4.6 0  0.09999999999999964 -4.6 0  0.2000000000000002 -4.6 0  0.2999999999999998 -4.6 0  0.4000000000000004 -4.6 0  0.5 -4.6 0  0.5999999999999996 -4.6 0  0.7000000000000002 -4.6 0  0.7999999999999998 -4.6 0  0.9000000000000004 -4.6 0  1 -4.6 0  1.1 -4.6 0  1.2 -4.6 0  1.3 -4.6 0  1.4 -4.6 0  1.5 -4.6 0  1.6 -4.6 0  1.7 -4.6 0  1.8 -4.6 0  1.9 -4.6 0  2 -4.6 0  2.1 -4.6 0  2.2 -4.6 0  2.3 -4.6 0  2.4 -4.6 0  2.5 -4.6 0  2.6 -4.6 0  2.7 -4.6 0  2.8 -4.6 0  2.9 -4.6 0  3 -4.6 0  3.1 -4.6 0  3.199999999999999 -4.6 0  3.300000000000001 -4.6 0  3.4 -4.6 0  3.5 -4.6 0  3.6 -4.6 0  3.699999999999999 -4.6 0  3.800000000000001 -4.6 0  3.9 -4.6 0  4 -4.6 0  4.1 -4.6 0  4.199999999999999 -4.6 0  4.300000000000001 -4.6 0  4.4 -4.6 0  4.5 -4.6 0  4.6 -4.6 0  4.699999999999999 -4.6 0  4.800000000000001 -4.6 0  4.9 -4.6 0  5 -4.6 0  -5 -4.5 0  -4.9 -4.5 0  -4.8 -4.5 0  -4.7 -4.5 0  -4.6 -4.5 0  -4.5 -4.5 0  -4.4 -4.5 0  -4.3 -4.5 0  -4.2 -4.5 0  -4.1 -4.5 0  -4 -4.5 0  -3.9 -4.5 0  -3.8 -4.5 0  -3.7 -4.5 0  -3.6 -4.5 0  -3.5 -4.5 0  -3.4 -4.5 0  -3.3 -4.5 0  -3.2 -4.5 0  -3.1 -4.5 0  -3 -4.5 0  -2.9 -4.5 0  -2.8 -4.5 0  -2.7 -4.5 0  -2.6 -4.5 0  -2.5 -4.5 0  -2.4 -4.5 0  -2.3 -4.5 0  -2.2 -4.5 0  -2.1 -4.5 0  -2 -4.5 0  -1.9 -4.5 0  -1.8 -4.5 0  -1.7 -4.5 0  -1.6 -4.5 0  -1.5 -4.5 0  -1.4 -4.5 0  -1.3 -4.5 0  -1.2 -4.5 0  -1.1 -4.5 0  -1 -4.5 0  -0.9000000000000004 -4.5 0  -0.7999999999999998 -4.5 0  -0.7000000000000002 -4.5 0  -0.5999999999999996 -4.5 0  -0.5 -4.5 0  -0.4000000000000004 -4.5 0  -0.2999999999999998 -4.5 0  -0.2000000000000002 -4.5 0  -0.09999999999999964 -4.5 0  0 -4.5 0  0.09999999999999964 -4.5 0  0.2000000000000002 -4.5 0  0.2999999999999998 -4.5 0  0.4000000000000004 -4.5 0  0.5 -4.5 0  0.5999999999999996 -4.5 0  0.7000000000000002 -4.5 0  0.7999999999999998 -4.5 0  0.9000000000000004 -4.5 0  1 -4.5 0  1.1 -4.5 0  1.2 -4.5 0  1.3 -4.5 0  1.4 -4.5 0  1.5 -4.5 0  1.6 -4.5 0  1.7 -4.5 0  1.8 -4.5 0  1.9 -4.5 0  2 -4.5 0  2.1 -4.5 0  2.2 -4.5 0  2.3 -4.5 0  2.4 -4.5 0  2.5 -4.5 0  2.6 -4.5 0  2.7 -4.5 0  2.8 -4.5 0  2.9 -4.5 0  3 -4.5 0  3.1 -4.5 0  3.199999999999999 -4.5 0  3.300000000000001 -4.5 0  3.4 -4.5 0  3.5 -4.5 0  3.6 -4.5 0  3.699999999999999 -4.5 0  3.800000000000001 -4.5 0  3.9 -4.5 0  4 -4.5 0  4.1 -4.5 0  4.199999999999999 -4.5 0  4.300000000000001 -4.5 0  4.4 -4.5 0  4.5 -4.5 0  4.6 -4.5 0  4.699999999999999 -4.5 0  4.800000000000001 -4.5 0  4.9 -4.5 0  5 -4.5 0  -5 -4.4 0  -4.9 -4.4 0  -4.8 -4.4 0  -4.7 -4.4 0  -4.6 -4.4 0  -4.5 -4.4 0  -4.4 -4.4 0  -4.3 -4.4 0  -4.2 -4.4 0  -4.1 -4.4 0  -4 -4.4 0  -3.9 -4.4 0  -3.8 -4.4 0  -3.7 -4.4 0  -3.6 -4.4 0  -3.5 -4.4 0  -3.4 -4.4 0  -3.3 -4.4 0  -3.2 -4.4 0  -3.1 -4.4 0  -3 -4.4 0  -2.9 -4.4 0  -2.8 -4.4 0  -2.7 -4.4 0  -2.6 -4.4 0  -2.5 -4.4 0  -2.4 -4.4 0  -2.3 -4.4 0  -2.2 -4.4 0  -2.1 -4.4 0  -2 -4.4 0  -1.9 -4.4 0  -1.8 -4.
[...]
<PointData  Vectors="f_17"> 
<DataArray  type="Float64"  Name="f_17"  NumberOfComponents="3" format="ascii">1.5100932006082327e-01 0.0000000000000000e+00 0.0000000000000000e+00  1.5040333332175126e-01 -3.8035327237931063e-03 0.0000000000000000e+00  1.5184144434343227e-01 1.1362131452142580e-03 0.0000000000000000e+00  1.5102739123665379e-01 -4.6699255937212355e-03 0.0000000000000000e+00  1.5214229175177343e-01 1.4876985021223697e-03 0.0000000000000000e+00  1.4992053716328504e-01 -2.0437485604716641e-03 0.0000000000000000e+00  1.5049288434934316e-01 3.4449651999970093e-03 0.0000000000000000e+00  1.4786139648108274e-01 1.5418395475955240e-03 0.0000000000000000e+00  1.4879845056884386e-01 4.5901564183088977e-03 0.0000000000000000e+00  1.4713283125028054e-01 1.3778383524288037e-03 0.0000000000000000e+00  1.4871340305711189e-01 2.1986490586050197e-03 0.0000000000000000e+00  1.4825615851688279e-01 -6.0622353773245169e-04 0.0000000000000000e+00  1.4951257969230430e-01 6.6230546749637058e-04 0.0000000000000000e+00  1.4914598608320948e-01 -7.6714604571410082e-04 0.0000000000000000e+00  1.5018978645495798e-01 1.1936530681865651e-03 0.0000000000000000e+00  1.5006304113128102e-01 -5.2733259262233265e-04 0.0000000000000000e+00  1.5083447501688224e-01 5.7875245724047112e-05 0.0000000000000000e+00  1.5084232312271667e-01 -1.1612571108749552e-03 0.0000000000000000e+00  1.5094536651111543e-01 -3.2706145681547609e-04 0.0000000000000000e+00  1.5031189751366725e-01 -6.8168281842034069e-04 0.0000000000000000e+00  1.5027559822756317e-01 1.0359155093309271e-03 0.0000000000000000e+00  1.4953272615805616e-01 8.1192280797059426e-04 0.0000000000000000e+00  1.4930154426428632e-01 2.1855599562364656e-03 0.0000000000000000e+00  1.4893547187072925e-01 1.8991458467548050e-03 0.0000000000000000e+00  1.4907531890458567e-01 1.8414939850326883e-03 0.0000000000000000e+00  1.4918204321894293e-01 -4.3864315033267882e-04 0.0000000000000000e+00  1.5021919885143384e-01 -3.0627816079411646e-04 0.0000000000000000e+00  1.4983708725778469e-01 -1.2160842613668716e-03 0.0000000000000000e+00  1.4887227757088944e-01 -9.6648248548672445e-04 0.0000000000000000e+00  1.4873011022976682e-01 2.0709645513552596e-04 0.0000000000000000e+00  1.4939728428732993e-01 5.6354083371408731e-04 0.0000000000000000e+00  1.5053515374502641e-01 -1.6733811755326579e-03 0.0000000000000000e+00  1.5317205988934782e-01 -3.0166082543858640e-03 0.0000000000000000e+00  1.5430195004666505e-01 -4.3970218618424707e-03 0.0000000000000000e+00  1.5126133470750211e-01 -5.4248221894320908e-03 0.0000000000000000e+00  1.4499662462052257e-01 -1.7039105153398180e-03 0.0000000000000000e+00  1.3682263728739441e-01 8.6682999562737034e-03 0.0000000000000000e+00  1.2860870031270613e-01 1.6932784082586909e-02 0.0000000000000000e+00  1.2627464800592189e-01 1.9984483530069340e-02 0.0000000000000000e+00  1.3330486910840217e-01 1.8437423150043219e-02 0.0000000000000000e+00  1.4887658916077812e-01 7.5363867599794942e-03 0.0000000000000000e+00  1.7616202348516102e-01 -1.0494037417474086e-02 0.0000000000000000e+00  2.1679288438996225e-01 -3.1361165570396247e-02 0.0000000000000000e+00  2.6374629246290582e-01 -5.3410470524876762e-02 0.0000000000000000e+00  3.1366701648144746e-01 -6.9504397383799363e-02 0.0000000000000000e+00  3.6558785602897614e-01 -7.9127413474954084e-02 0.0000000000000000e+00  4.1093653923909707e-01 -8.3507859354080310e-02 0.0000000000000000e+00  4.4786044963484645e-01 -8.1636718732376101e-02 0.0000000000000000e+00  4.8132332111594733e-01 -7.7027931025575702e-02 0.0000000000000000e+00  5.0666207955857745e-01 -6.8591795702079808e-02 0.0000000000000000e+00  5.2201698484052506e-01 -5.4709696830426674e-02 0.0000000000000000e+00  5.3399636912212989e-01 -4.0215006259940102e-02 0.0000000000000000e+00  5.4189083659121362e-01 -2.6696527963859983e-02 0.0000000000000000e+00  5.4482176433925056e-01 -1.1635338341824923e-02 0.0000000000000000e+00  5.4748503052413133e-01 4.9577489331736526e-03 0.0000000000000000e+00  5.4553970863143997e-01 2.2358396502029546e-02 0.0000000000000000e+00  5.3856117816708582e-01 3.6740112315355435e-02 0.0000000000000000e+00  5.3305806609965189e-01 4.9940497196089520e-02 0.0000000000000000e+00  5.2095669568855996e-01 6.5512466933501615e-02 0.0000000000000000e+00  4.9682078750834097e-01 7.8250977304941877e-02 0.0000000000000000e+00  4.7116115877485176e-01 8.3317731208328180e-02 0.0000000000000000e+00  4.3711860772175976e-01 8.7851878307549300e-02 0.0000000000000000e+00  3.8604306946719152e-01 8.8446901224801783e-02 0.0000000000000000e+00  3.3245288229183628e-01 7.6556231308589698e-02 0.0000000000000000e+00  2.7801303331363436e-01 5.7568021507550499e-02 0.0000000000000000e+00  2.1731439526459259e-01 3.7166964803167078e-02 0.0000000000000000e+00  1.6936808175344351e-01 9.2141954405252271e-03 0.0000000000000000e+00  1.4182944038609555e-01 -1.7746658241427685e-02 0.0000000000000000e+00  1.2658025756095245e-01 -2.2690460480265014e-02 0.0000000000000000e+00  1.2836023937422339e-01 -1.5594633746435166e-02 0.0000000000000000e+00  1.4188953522382156e-01 -6.9753132428747406e-03 0.0000000000000000e+00  1.5049639454306177e-01 3.3193809278313328e-03 0.0000000000000000e+00  1.5259499042438246e-01 7.3438526069035401e-03 0.0000000000000000e+00  1.5345982066080979e-01 -5.2148846448721818e-04 0.0000000000000000e+00  1.5003087640802173e-01 -4.5022410842713797e-04 0.0000000000000000e+00  1.4886462208700324e-01 -7.3706846849010013e-05 0.0000000000000000e+00  1.5002469521814460e-01 3.0784649418911516e-04 0.0000000000000000e+00  1.5048417097518507e-01 -1.5569415272900266e-03 0.0000000000000000e+00  1.4933086655232394e-01 2.2182814470630766e-03 0.0000000000000000e+00  1.5063154298547510e-01 -1.8429379684605808e-03 0.0000000000000000e+00  1.4960574681883995e-01 1.2260469990053790e-03 0.0000000000000000e+00  1.5017922886673127e-01 -9.5549221379176766e-04 0.0000000000000000e+00  1.4986583552328267e-01 1.1079811866869975e-03 0.0000000000000000e+00  1.5021079013498120e-01 -1.3672797487008835e-03 0.0000000000000000e+00  1.4970913561219829e-01 1.4235967812946770e-03 0.0000000000000000e+00  1.5026963356274284e-01 -1.1616296187615888e-03 0.0000000000000000e+00  1.4980857376698700e-01 7.9672607226823652e-04 0.0000000000000000e+00  1.5004468355670009e-01 -3.8321216239783955e-04 0.0000000000000000e+00  1.5002431109615397e-01 1.7746297208826828e-04 0.0000000000000000e+00  1.4981885318909008e-01 1.8949516331013974e-04 0.0000000000000000e+00  1.5013859380498232e-01 -2.3549066992565568e-04 0.0000000000000000e+00  1.4966113535465331e-01 7.4987688049303202e-04 0.0000000000000000e+00  1.5008818659077039e-01 -5.1410849017149453e-04 0.0000000000000000e+00  1.4962019898880324e-01 1.1637508838442919e-03 0.0000000000000000e+00  1.4986537939335873e-01 -5.6853442973818220e-04 0.0000000000000000e+00  1.4964248661778312e-01 1.4021309482148724e-03 0.0000000000000000e+00  1.4966931370289269e-01 -7.6218536452497257e-04 0.0000000000000000e+00  1.4973378462025130e-01 1.4984581072669543e-03 0.0000000000000000e+00  1.4963765190426473e-01 -8.6861550459253864e-04 0.0000000000000000e+00  1.4996769249156738e-01 7.4110781161437550e-04 0.0000000000000000e+00  1.4988071055238608e-01 0.0000000000000000e+00 0.0000000000000000e+00  1.5040333332175132e-01 0.0000000000000000e+00 -3.8035327237928552e-03  1.4864375329596927e-01 -7.0240753073046993e-04 -7.0240753073020766e-04  1.4936447257836868e-01 3.4296825917800424e-03 -2.1486836358419609e-03  1.4814271946475455e-01 -1.7592019604196525e-04 -9.9439176685740815e-04  1.4913175194975875e-01 2.9903151271494458e-03 -1.2120347017683130e-03  1.4857513501826666e-01 -1.0251704104703035e-03 1.4628853628380917e-03  1.5034914438794267e-01 -9.7370794212531893e-05 6.4624270167471572e-04  1.5052906316562542e-01 -2.8559625662888991e-03 3.6365387324030231e-03  1.5193216455492223e-01 -2.7597320856988516e-03 1.4077747335736657e-03  1.5180772399879794e-01 -2.9290728156379578e-03 3.1805884179587508e-03  1.5225071923314476e-01 -1.5973456082493626e-03 5.8907294345171167e-04  1.5140820853583756e-01 -7.3139716612666196e-04 1.6860586239585361e-03  1.5119463373912265e-01 -5.7538326850050826e-05 -2.3090936139822532e-04  1.5065353840198201e-01 2.9352935396795006e-04 8.0258218324503561e-04  1.5036979447970444e-01 -2.2964571218072582e-04 -5.6678050245491190e-04  1.4988028353931557e-01 -2.4734598623272835e-04 1.7053391484098167e-04  1.4968272231543744e-01 -5.5397077915429064e-05 -6.8244458605198498e-04  1.4927698785559940e-01 5.1935323802865664e-04 3.1204332820619542e-04  1.4914769538517242e-01 3.6585689922415219e-04 -1.1926010533415606e-04  1.4943913877393822e-01 7.3522989679778751e-04 8.8664952215998754e-04  1.4973651853092820e-01 -2.1514654508465535e-04 6.7073435349441189e-04  1.5006964961034877e-01 -9.5220161136860978e-04 1.4175237839391265e-03  1.5067432110918128e-01 -1.4235594529980267e-03 1.1211770521610816e-03  1.5081774779464044e-01 -1.9954200570481309e-03 1.2425052947481843e-03  1.5092257659794878e-01 -1.8079535961083482e-03 4.0162827471215841e-04  1.5081842486311892e-01 -4.6282906993789347e-04 4.8568629924461486e-04  1.5008230177507442e-01 4.4031147286997813e-04 -2.7560101601196128e-04  1.4950661403196661e-01 6.9992055936603085e-04 -6.5889644686034014e-05  1.5072216013332457e-01 1.2378671154522846e-03 -4.1271694852538040e-04  1.5210212574607371e-01 2.5251829432578496e-04 -2.0146444889848673e-03  1.5234036760816774e-01 -2.2273535772896072e-03 -5.6502111242911794e-03  1.5161316362994884e-01 -1.4007788791120176e-03 -6.0351002039281043e-03  1.4844544379227759e-01 1.6202553386137470e-03 1.5679709484883149e-03  1.4325655727576292e-01 5.2220065392035286e-03 2.0513488598038178e-02  1.4030105044634891e-01 1.1514638845761840e-02 4.4771159538035142e-02  1.4166589745184541e-01 1.4959007132966070e-02 5.3278325117142901e-02  1.4909645642068167e-01 6.6087642091084645e-03 2.2028714268930046e-02  1.6609037827308540e-01 -1.1779665470282466e-02 -5.2645080720859640e-02  1.9164045919785655e-01 -3.4966393990610196e-02 -1.5615317254722802e-01  2.2031138980806994e-01 -5.9927650699690936e-02 -2.6830161020927140e-01  2.5030931127444939e-01 -8.1168979215214446e-02 -3.6805785298672478e-01  2.7828082245496005e-01 -9.4092157004496454e-02 -4.4531238799999839e-01  2.9618304523809613e-01 -9.9017357426128258e-02 -5.0359679795462209e-01  3.0396389413077896e-01 -9.5933546539904033e-02 -5.3949810988849034e-01  3.0562128589880333e-01 -8.5628872227668448e-02 -5.5104124256343445e-01  2.9865010434333111e-01 -7.3922582349843058e-02 -5.4535496171758047e-01  2.8690888414954691e-01 -6.2732754218107367e-02 -5.2156615207730095e-01  2.7790259580045940e-01 -5.0181088254150533e-02 -4.8024971967465413e-01  2.6670899542655208e-01 -3.8285087825077863e-02 -4.3397977924089753e-01  2.5347948515637148e-01 -2.7719352147966732e-02 -3.8477742317965319e-01  2.4652551016733970e-01 -1.9196236265782964e-02 -3.3275995762789395e-01  2.4147478003048706e-01 -1.4709349183165066e-02 -2.8799615920094690e-01  2.3465520395376677e-01 -8.9288440839259461e-03 -2.5428071615311171e-01  2.3160442388741645e-01 -9.8732763767470739e-04 -2.3133302301894121e-01  2.2924897900993868e-01 2.9367823761601579e-03 -2.2089821654430775e-01  2.2673911339957450e-01 4.9124169879111966e-03 -2.2282215362505017e-01  2.2895855203349189e-01 9.8274574507402433e-03 -2.4008393574115608e-01  2.3042349921361596e-01 1.6483656503361230e-02 -2.7299160816072171e-01  2.3171261609993793e-01 2.1022942271262637e-02 -3.1505910751052935e-01  2.4159977913337752e-01 2.5031869605594382e-02 -3.6512695938207212e-01  2.5271519241723778e-01 3.4785570903676066e-02 -4.2501867913860142e-01  2.6231685735280669e-01 4.7915038127471284e-02 -4.8646386454617385e-01  2.8124617334985458e-01 5.7657213083152997e-02 -5.3604812738642171e-01  3.0120841582199209e-01 7.2217502722705315e-02 -5.7430142920643235e-01  3.1222696787555954e-01 9.2303480501818108e-02 -5.9956932341072455e-01  3.2116240663787965e-01 1.0367231363716119e-01 -5.9131139799621368e-01  3.2028180589799987e-01 1.0696547380508663e-01 -5.4994503851413112e-01  2.9584540686032296e-01 1.0707355432141342e-01 -4.8320047822946066e-01  2.5763615506405152e-01 8.8186423127587274e-02 -3.7346878053556221e-01  2.1441891801894278e-01 5.1229205749351268e-02 -2.2583099650189301e-01  1.6963105301541370e-01 1.5180426492307606e-02 -7.5087091546237356e-02  1.4121163509674176e-01 -9.1928828149400368e-03 3.6823167462554832e-02  1.3786842140016314e-01 -1.8621055054937746e-02 6.0669479741475477e-02  1.4377840191326108e-01 -6.6142817075034088e-03 2.2594149327912223e-02  1.4950409244403498e-01 4.2772751829507141e-03 -7.5418381790340215e-03  1.5248965654222751e-01 2.3089846558856852e-03 -7.2045269222848641e-03  1.5088619590955954e-01 -1.2005776629620578e-03 -7.2834181398108693e-04  1.4905475510027077e-01 1.1832882183525754e-03 1.5385496489837835e-03  1.5020019715998131e-01 -7.0993811897770976e-04 -3.1747374738377724e-04  1.5017005895916721e-01 -4.3135416924619681e-04 1.8035131622645687e-04  1.4968222543236812e-01 7.8609683730276707e-04 -1.6270503674859952e-04  1.5025815970027467e-01 -3.3592762405148082e-04 2.4134625010060256e-04  1.4989201736632890e-01 -1.1849722857588699e-04 -4.9653067615079011e-04  1.5005865781681663e-01 4.4056371738194602e-05 7.2552159379207434e-04  1.4984652442098509e-01 4.8104288841971458e-04 -7.3363547605260376e-04  1.5031863833917097e-01 -1.0782370727299645e-03 5.6182087766796249e-04  1.4957905461344670e-01 1.3850530614735548e-03 -3.5143984477658299e-04  1.5048255535699007e-01 -1.4733827580907240e-03 3.0756115712188043e-04  1.4953857213048927e-01 1.3968499677827007e-03 -3.8133372177283614e-04  1.5053990421480942e-01 -1.5533372548027450e-03 6.2806551525786743e-04  1.4951028023284046e-01 1.5291322055534953e-03 -7.1136315582896530e-04  1.5064280205432423e-01 -1.8613164509481608e-03 8.7856091095134974e-04  1.4958124255664473e-01 1.5027526733387686e-03 -6.4676700533757990e-04  1.5065343628828490e-01 -1.8398126657441945e-03 7.8552058917597304e-04  1.4978648117293245e-01 1.0562986293888791e-03 -4.6141074587187082e-04  1.5067054340633732e-01 -1.5664093047953306e-03 8.5202681699483201e-04  1.4993414780747383e-01 6.5831853814317420e-04 -6.7133982323071392e-04  1.5065295525861921e-01 -1.1040290451043836e-03 9.6968162109511947e-04  1.4997505059770824e-01 3.2429009187707835e-04 -9.5047790754031821e-04  1.5041300852536788e-01 -4.2437637600486273e-04 4.2437637600486978e-04  1.4996769249156794e-01 0.0000000000000000e+00 -7.4110781161450126e-04  1.5184144434343261e-01 0.0000000000000000e+00 1.1362131452136342e-03  1.4936447257836827e-01 -2.1486836358423239e-03 3.4296825917804513e-03  1.5179113074904818e-01 1.6872986631873970e-03 1.6872986631882090e-03  1.5033657099605682e-01 -4.7725830496817756e-03 3.9578676880129334e-03  1.5207871539087991e-01 2.0984189683330517e-03 5.7361200306388772e-04  1.5001280753999385e-01 -3.5394839741970789e-03 1.5632903883734104e-03  1.5134394637599835e-01 3.0290476782376041e-03 -2.8616738824336404e-03  1.4847859754774437e-01 -2.0552771336291672e-04 -2.3573285115127511e-03  1.4951327337965636e-01 4.1735838373916541e-03 -5.5806874045577276e-03  1.4733496930098286e-01 1.9806285101963304e-03 -3.6027154520598759e-03  1.4852583755109308e-01 3.1319306452226533e-03 -4.6444521875440474e-03  1.4754781599311151e-01 3.1136677394475419e-04 -2.0545869237176338e-03  1.4913998893495189e-01 1.0120667836338189e-03 -2.2319087211937890e-03  1.4863443983402447e-01 -1.0549454087727130e-03 -3.8743753450828553e-04  1.4968337877176507e-01 3.6664031954111758e-04 -1.1885843295905722e-03  1.4948184255853547e-01 -2.8287212632534324e-04 2.8672173154926933e-04  1.5020528903592234e-01 7.2397722972402214e-04 -3.6504683489536031e-04  1.5012534633006575e-01 -4.8102464978913497e-04 5.0046258795513902e-04  1.5081563122273459e-01 1.0599983835051614e-05 -2.1435346241239968e-04  1.5050652293392322e-01 -7.8073917245431875e-04 -9.7539811761023108e-05  1.5044010470760893e-01 -7.7789805517425247e-05 -1.4489902956051968e-03  1.4996753523501616e-01 2.5926399425939013e-04 -1.6337046466530778e-03  1.4977022269398621e-01 1.5010591648185736e-03 -2.4827957314713361e-03  1.4902398785299753e-01 1.1290473565225595e-03 -1.7835054403735561e-03  1.4915787511485215e-01 2.5245561992383331e-03 -1.2262484753691257e-03  1.4877046667758972e-01 1.0053724554423343e-03 -1.3503735812429778e-04  1.4984721092025302e-01 7.3820220457498580e-06 -7.8500880675870272e-04  1.5157678565522220e-01 -1.3209867053363283e-03 -1.8819160273363465e-03  1.5179318047097873e-01 -2.6744666105028114e-03 -5.9197135317795788e-03  1.4888023670087150e-01 -3.0074694451300535e-03 -4.4974379117922640e-03  1.4479058085937055e-01 2.5152337956617673e-03 1.1582718473294619e-02  1.4030931087722540e-01 1.1119081128853835e-02 3.7977650339062446e-02  1.3882574562041869e-01 1.4446022068888566e-02 4.8809392933877663e-02  1.4712855226474206e-01 6.9326464444236452e-03 1.3524657631608556e-02  1.6861545563752403e-01 -1.7813269855232509e-02 -7.9935473055697301e-02  2.0158259117670477e-01 -5.7756273791287491e-02 -2.0764798685815705e-01  2.4305587858841901e-01 -9.5138821370521376e-02 -3.2659988097896520e-01  2.8248685066914231e-01 -1.2184881165698673e-01 -4.1239426940253177e-01  3.0789415790801244e-01 -1.3629746408804211e-01 -4.6491406203545294e-01  3.1745804079592066e-01 -1.3558492823841009e-01 -4.8060738519754548e-01  3.1110726814187617e-01 -1.2184679543335382e-01 -4.6426567366483201e-01  2.8845085067054282e-01 -1.0052047317596240e-01 -4.2844524370584142e-01  2.5944886648671645e-01 -7.5421340901997105e-02 -3.7013981232070681e-01  2.3206521424601018e-01 -5.0660452948668645e-02 -2.9144569417790234e-01  2.0471362683987601e-01 -3.0997997635639998e-02 -2.1223033506398620e-01  1.8131894845098295e-01 -1.6401585987330811e-02 -1.3618117243360367e-01  1.6591026464583322e-01 -3.6334073632082863e-03 -6.5352283598796870e-02  1.5150850716229144e-01 6.2827647039559566e-03 -1.6742561743285977e-02  1.3913476628188362e-01 1.0528771689377298e-02 1.7061017059004892e-02  1.3555417316594628e-01 1.0806978805822195e-02 4.7663228568146601e-02  1.3196563924871180e-01 1.0843041258457926e-02 6.0380622074650350e-02  1.2514809430706136e-01 1.3326050763078421e-02 6.1101123073321613e-02  1.2411764409117047e-01 1.4802949461454405e-02 6.8037289385224450e-02  1.2404861014977199e-01 1.1458724680013601e-02 7.3140131612621548e-02  1.2168511376299158e-01 8.4057122879912308e-03 7.4698295052479505e-02  1.2225271237105655e-01 9.7425747497941351e-03 7.8601862243466020e-02  1.2107607775821901e-01 1.0682498466689372e-02 8.1339661327601759e-02  1.1964911791479318e-01 6.9064036699148512e-03 9.0562612321300501e-02  1.2322361860474113e-01 2.7437080482354474e-03 1.0164023855159161e-01  1.2299573543597311e-01 4.9116053988039069e-03 1.0171530095837859e-01  1.2205125303571197e-01 5.5972962359072823e-03 1.0432338703520112e-01  1.2953716540210666e-01 -7.8711420920099106e-04 1.0451256684802868e-01  1.3573166764390093e-01 6.7898492295133037e-04 7.8444383427153500e-02  1.4151464653039064e-01 9.5133793417502763e-03 3.3163565933505654e-02  1.6009268849055450e-01 1.1995334470208103e-02 -2.7375784923244592e-02  1.8503672218607459e-01 2.3251561377765798e-02 -1.2189087747207314e-01  2.1200606418340989e-01 5.1255465948171312e-02 -2.4057195756249247e-01  2.5202506239468192e-01 7.7972670397110366e-02 -3.5261511918826532e-01  2.9675985829067397e-01 1.0619704539570750e-01 -4.4944032726316419e-01  3.2709136495146651e-01 1.3924128838642871e-01 -5.2278292776593316e-01  3.3545400974280276e-01 1.5739556729245086e-01 -5.4079536766006531e-01  3.1169044283957542e-01 1.4262041561498287e-01 -4.8297442097637278e-01  2.4889273581607044e-01 1.0122614920468208e-01 -3.4474173077556286e-01  1.7907822133844717e-01 3.7962100462320389e-02 -1.3359835981423843e-01  1.4119175559577787e-01 -1.5216342175479968e-02 3.7772917653284964e-02  1.3874639875867176e-01 -2.0992496078710399e-02 5.3210325351871965e-02  1.4704394900940715e-01 1.3032664118396646e-03 3.7425427777352960e-03  1.5240120752661104e-01 3.2960865008632065e-03 -8.3476876388902544e-03  1.5084912295133876e-01 -1.3682267868075438e-04 -1.