<?xml version="1.0"?>
<VTKFile type="UnstructuredGrid"  version="0.1"  >
<UnstructuredGrid>
<Piece  NumberOfPoints="10201" NumberOfCells="20000">
<Points>
<DataArray  type="Float64"  NumberOfComponents="3"  format="ascii">-5 -5 0  -4.9 -5 0  -4.8 -5 0  -4.7 -5 0  -4.6 -5 0  -4.5 -5 0  -4.4 -5 0  -4.3 -5 0  -4.2 -5 0  -4.1 -5 0  -4 -5 0  -3.9 -5 0  -3.8 -5 0  -3.7 -5 0  -3.6 -5 0  -3.5 -5 0  -3.4 -5 0  -3.3 -5 0  -3.2 -5 0  -3.1 -5 0  -3 -5 0  -2.9 -5 0  -2.8 -5 0  -2.7 -5 0  -2.6 -5 0  -2.5 -5 0  -2.4 -5 0  -2.3 -5 0  -2.2 -5 0  -2.1 -5 0  -2 -5 0  -1.9 -5 0  -1.8 -5 0  -1.7 -5 0  -1.6 -5 0  -1.5 -5 0  -1.4 -5 0  -1.3 -5 0  -1.2 -5 0  -1.1 -5 0  -1 -5 0  -0.9000000000000004 -5 0  -0.7999999999999998 -5 0  -0.7000000000000002 -5 0  -0.5999999999999996 -5 0  -0.5 -5 0  -0.4000000000000004 -5 0  -0.2999999999999998 -5 0  -0.2000000000000002 -5 0  -0.09999999999999964 -5 0  0 -5 0  0.09999999999999964 -5 0  0.2000000000000002 -5 0  0.2999999999999998 -5 0  0.4000000000000004 -5 0  0.5 -5 0  0.5999999999999996 -5 0  0.7000000000000002 -5 0  0.7999999999999998 -5 0  0.9000000000000004 -5 0  1 -5 0  1.1 -5 0  1.2 -5 0  1.3 -5 0  1.4 -5 0  1.5 -5 0  1.6 -5 0  1.7 -5 0  1.8 -5 0  1.9 -5 0  2 -5 0  2.1 -5 0  2.2 -5 0  2.3 -5 0  2.4 -5 0  2.5 -5 0  2.6 -5 0  2.7 -5 0  2.8 -5 0  2.9 -5 0  3 -5 0  3.1 -5 0  3.199999999999999 -5 0  3.300000000000001 -5 0  3.4 -5 0  3.5 -5 0  3.6 -5 0  3.699999999999999 -5 0  3.800000000000001 -5 0  3.9 -5 0  4 -5 0  4.1 -5 0  4.199999999999999 -5 0  4.300000000000001 -5 0  4.4 -5 0  4.5 -5 0  4.6 -5 0  4.699999999999999 -5 0  4.800000000000001 -5 0  4.9 -5 0  5 -5 0  -5 -4.9 0  -4.9 -4.9 0  -4.8 -4.9 0  -4.7 -4.9 0  -4.6 -4.9 0  -4.5 -4.9 0  -4.4 -4.9 0  -4.3 -4.9 0  -4.2 -4.9 0  -4.1 -4.9 0  -4 -4.9 0  -3.9 -4.9 0  -3.8 -4.9 0  -3.7 -4.9 0  -3.6 -4.9 0  -3.5 -4.9 0  -3.4 -4.9 0  -3.3 -4.9 0  -3.2 -4.9 0  -3.1 -4.9 0  -3 -4.9 0  -2.9 -4.9 0  -2.8 -4.9 0  -2.7 -4.9 0  -2.6 -4.9 0  -2.5 -4.9 0  -2.4 -4.9 0  -2.3 -4.9 0  -2.2 -4.9 0  -2.1 -4.9 0  -2 -4.9 0  -1.9 -4.9 0  -1.8 -4.9 0  -1.7 -4.9 0  -1.6 -4.9 0  -1.5 -4.9 0  -1.4 -4.9 0  -1.3 -4.9 0  -1.2 -4.9 0  -1.1 -4.9 0  -1 -4.9 0  -0.9000000000000004 -4.9 0  -0.7999999999999998 -4.9 0  -0.7000000000000002 -4.9 0  -0.5999999999999996 -4.9 0  -0.5 -4.9 0  -0.4000000000000004 -4.9 0  -0.2999999999999998 -4.9 0  -0.2000000000000002 -4.9 0  -0.09999999999999964 -4.9 0  0 -4.9 0  0.09999999999999964 -4.9 0  0.2000000000000002 -4.9 0  0.2999999999999998 -4.9 0  0.4000000000000004 -4.9 0  0.5 -4.9 0  0.5999999999999996 -4.9 0  0.7000000000000002 -4.9 0  0.7999999999999998 -4.9 0  0.9000000000000004 -4.9 0  1 -4.9 0  1.1 -4.9 0  1.2 -4.9 0  1.3 -4.9 0  1.4 -4.9 0  1.5 -4.9 0  1.6 -4.9 0  1.7 -4.9 0  1.8 -4.9 0  1.9 -4.9 0  2 -4.9 0  2.1 -4.9 0  2.2 -4.9 0  2.3 -4.9 0  2.4 -4.9 0  2.5 -4.9 0  2.6 -4.9 0  2.7 -4.9 0  2.8 -4.9 0  2.9 -4.9 0  3 -4.9 0  3.1 -4.9 0  3.199999999999999 -4.9 0  3.300000000000001 -4.9 0  3.4 -4.9 0  3.5 -4.9 0  3.6 -4.9 0  3.699999999999999 -4.9 0  3.800000000000001 -4.9 0  3.9 -4.9 0  4 -4.9 0  4.1 -4.9 0  4.199999999999999 -4.9 0  4.300000000000001 -4.9 0  4.4 -4.9 0  4.5 -4.9 0  4.6 -4.9 0  4.699999999999999 -4.9 0  4.800000000000001 -4.9 0  4.9 -4.9 0  5 -4.9 0  -5 -4.8 0  -4.9 -4.8 0  -4.8 -4.8 0  -4.7 -4.8 0  -4.6 -4.8 0  -4.5 -4.8 0  -4.4 -4.8 0  -4.3 -4.8 0  -4.2 -4.8 0  -4.1 -4.8 0  -4 -4.8 0  -3.9 -4.8 0  -3.8 -4.8 0  -3.7 -4.8 0  -3.6 -4.8 0  -3.5 -4.8 0  -3.4 -4.8 0  -3.3 -4.8 0  -3.2 -4.8 0  -3.1 -4.8 0  -3 -4.8 0  -2.9 -4.8 0  -2.8 -4.8 0  -2.7 -4.8 0  -2.6 -4.8 0  -2.5 -4.8 0  -2.4 -4.8 0  -2.3 -4.8 0  -2.2 -4.8 0  -2.1 -4.8 0  -2 -4.8 0  -1.9 -4.8 0  -1.8 -4.8 0  -1.7 -4.8 0  -1.6 -4.8 0  -1.5 -4.8 0  -1.4 -4.8 0  -1.3 -4.8 0  -1.2 -4.8 0  -1.1 -4.8 0  -1 -4.8 0  -0.9000000000000004 -4.8 0  -0.7999999999999998 -4.8 0  -0.7000000000000002 -4.8 0  -0.5999999999999996 -4.8 0  -0.5 -4.8 0  -0.4000000000000004 -4.8 0  -0.2999999999999998 -4.8 0  -0.2000000000000002 -4.8 0  -0.09999999999999964 -4.8 0  0 -4.8 0  0.09999999999999964 -4.8 0  0.2000000000000002 -4.8 0  0.2999999999999998 -4.8 0  0.4000000000000004 -4.8 0  0.5 -4.8 0  0.5999999999999996 -4.8 0  0.7000000000000002 -4.8 0  0.7999999999999998 -4.8 0  0.9000000000000004 -4.8 0  1 -4.8 0  1.1 -4.8 0  1.2 -4.8 0  1.3 -4.8 0  1.4 -4.8 0  1.5 -4.8 0  1.6 -4.8 0  1.7 -4.8 0  1.8 -4.8 0  1.9 -4.8 0  2 -4.8 0  2.1 -4.8 0  2.2 -4.8 0  2.3 -4.8 0  2.4 -4.8 0  2.5 -4.8 0  2.6 -4.8 0  2.7 -4.8 0  2.8 -4.8 0  2.9 -4.8 0  3 -4.8 0  3.1 -4.8 0  3.199999999999999 -4.8 0  3.300000000000001 -4.8 0  3.4 -4.8 0  3.5 -4.8 0  3.6 -4.8 0  3.699999999999999 -4.8 0  3.800000000000001 -4.8 0  3.9 -4.8 0  4 -4.8 0  4.1 -4.8 0  4.199999999999999 -4.8 0  4.300000000000001 -4.8 0  4.4 -4.8 0  4.5 -4.8 0  4.6 -4.8 0  4.699999999999999 -4.8 0  4.800000000000001 -4.8 0  4.9 -4.8 0  5 -4.8 0  -5 -4.7 0  -4.9 -4.7 0  -4.8 -4.7 0  -4.7 -4.7 0  -4.6 -4.7 0  -4.5 -4.7 0  -4.4 -4.7 0  -4.3 -4.7 0  -4.2 -4.7 0  -4.1 -4.7 0  -4 -4.7 0  -3.9 -4.7 0  -3.8 -4.7 0  -3.7 -4.7 0  -3.6 -4.7 0  -3.5 -4.7 0  -3.4 -4.7 0  -3.3 -4.7 0  -3.2 -4.7 0  -3.1 -4.7 0  -3 -4.7 0  -2.9 -4.7 0  -2.8 -4.7 0  -2.7 -4.7 0  -2.6 -4.7 0  -2.5 -4.7 0  -2.4 -4.7 0  -2.3 -4.7 0  -2.2 -4.7 0  -2.1 -4.7 0  -2 -4.7 0  -1.9 -4.7 0  -1.8 -4.7 0  -1.7 -4.7 0  -1.6 -4.7 0  -1.5 -4.7 0  -1.4 -4.7 0  -1.3 -4.7 0  -1.2 -4.7 0  -1.1 -4.7 0  -1 -4.7 0  -0.9000000000000004 -4.7 0  -0.7999999999999998 -4.7 0  -0.7000000000000002 -4.7 0  -0.5999999999999996 -4.7 0  -0.5 -4.7 0  -0.4000000000000004 -4.7 0  -0.2999999999999998 -4.7 0  -0.2000000000000002 -4.7 0  -0.09999999999999964 -4.7 0  0 -4.7 0  0.09999999999999964 -4.7 0  0.2000000000000002 -4.7 0  0.2999999999999998 -4.7 0  0.4000000000000004 -4.7 0  0.5 -4.7 0  0.5999999999999996 -4.7 0  0.7000000000000002 -4.7 0  0.7999999999999998 -4.7 0  0.9000000000000004 -4.7 0  1 -4.7 0  1.1 -4.7 0  1.2 -4.7 0  1.3 -4.7 0  1.4 -4.7 0  1.5 -4.7 0  1.6 -4.7 0  1.7 -4.7 0  1.8 -4.7 0  1.9 -4.7 0  2 -4.7 0  2.1 -4.7 0  2.2 -4.7 0  2.3 -4.7 0  2.4 -4.7 0  2.5 -4.7 0  2.6 -4.7 0  2.7 -4.7 0  2.8 -4.7 0  2.9 -4.7 0  3 -4.7 0  3.1 -4.7 0  3.199999999999999 -4.7 0  3.300000000000001 -4.7 0  3.4 -4.7 0  3.5 -4.7 0  3.6 -4.7 0  3.699999999999999 -4.7 0  3.800000000000001 -4.7 0  3.9 -4.7 0  4 -4.7 0  4.1 -4.7 0  4.199999999999999 -4.7 0  4.300000000000001 -4.7 0  4.4 -4.7 0  4.5 -4.7 0  4.6 -4.7 0  4.699999999999999 -4.7 0  4.800000000000001 -4.7 0  4.9 -4.7 0  5 -4.7 0  -5 -4.6 0  -4.9 -4.6 0  -4.8 -4.6 0  -4.7 -4.6 0  -4.6 -4.6 0  -4.5 -4.6 0  -4.4 -4.6 0  -4.3 -4.6 0  -4.2 -4.6 0  -4.1 -4.6 0  -4 -4.6 0  -3.9 -4.6 0  -3.8 -4.6 0  -3.7 -4.6 0  -3.6 -4.6 0  -3.5 -4.6 0  -3.4 -4.6 0  -3.3 -4.6 0  -3.2 -4.6 0  -3.1 -4.6 0  -3 -4.6 0  -2.9 -4.6 0  -2.8 -4.6 0  -2.7 -4.6 0  -2.6 -4.6 0  -2.5 -4.6 0  -2.4 -4.6 0  -2.3 -4.6 0  -2.2 -4.6 0  -2.1 -4.6 0  -2 -4.6 0  -1.9 -4.6 0  -1.8 -4.6 0  -1.7 -4.6 0  -1.6 -4.6 0  -1.5 -4.6 0  -1.4 -4.6 0  -1.3 -4.6 0  -1.2 -4.6 0  -1.1 -4.6 0  -1 -4.6 0  -0.9000000000000004 -4.6 0  -0.7999999999999998 -4.6 0  -0.7000000000000002 -4.6 0  -0.5999999999999996 -4.6 0  -0.5 -4.6 0  -0.4000000000000004 -4.6 0  -0.2999999999999998 -4.6 0  -0.2000000000000002 -4.6 0  -0.09999999999999964 -4.6 0  0 -4.6 0  0.09999999999999964 -4.6 0  0.2000000000000002 -4.6 0  0.2999999999999998 -4.6 0  0.4000000000000004 -4.6 0  0.5 -4.6 0  0.5999999999999996 -4.6 0  0.7000000000000002 -4.6 0  0.7999999999999998 -4.6 0  0.9000000000000004 -4.6 0  1 -4.6 0  1.1 -4.6 0  1.2 -4.6 0  1.3 -4.6 0  1.4 -4.6 0  1.5 -4.6 0  1.6 -4.6 0  1.7 -4.6 0  1.8 -4.6 0  1.9 -4.6 0  2 -4.6 0  2.1 -4.6 0  2.2 -4.6 0  2.3 -4.6 0  2.4 -4.6 0  2.5 -4.6 0  2.6 -4.6 0  2.7 -4.6 0  2.8 -4.6 0  2.9 -4.6 0  3 -4.6 0  3.1 -4.6 0  3.199999999999999 -4.6 0  3.300000000000001 -4.6 0  3.4 -4.6 0  3.5 -4.6 0  3.6 -4.6 0  3.699999999999999 -4.6 0  3.800000000000001 -4.6 0  3.9 -4.6 0  4 -4.6 0  4.1 -4.6 0  4.199999999999999 -4.6 0  4.300000000000001 -4.6 0  4.4 -4.6 0  4.5 -4.6 0  4.6 -4.6 0  4.699999999999999 -4.6 0  4.800000000000001 -4.6 0  4.9 -4.6 0  5 -4.6 0  -5 -4.5 0  -4.9 -4.5 0  -4.8 -4.5 0  -4.7 -4.5 0  -4.6 -4.5 0  -4.5 -4.5 0  -4.4 -4.5 0  -4.3 -4.5 0  -4.2 -4.5 0  -4.1 -4.5 0  -4 -4.5 0  -3.9 -4.5 0  -3.8 -4.5 0  -3.7 -4.5 0  -3.6 -4.5 0  -3.5 -4.5 0  -3.4 -4.5 0  -3.3 -4.5 0  -3.2 -4.5 0  -3.1 -4.5 0  -3 -4.5 0  -2.9 -4.5 0  -2.8 -4.5 0  -2.7 -4.5 0  -2.6 -4.5 0  -2.5 -4.5 0  -2.4 -4.5 0  -2.3 -4.5 0  -2.2 -4.5 0  -2.1 -4.5 0  -2 -4.5 0  -1.9 -4.5 0  -1.8 -4.5 0  -1.7 -4.5 0  -1.6 -4.5 0  -1.5 -4.5 0  -1.4 -4.5 0  -1.3 -4.5 0  -1.2 -4.5 0  -1.1 -4.5 0  -1 -4.5 0  -0.9000000000000004 -4.5 0  -0.7999999999999998 -4.5 0  -0.7000000000000002 -4.5 0  -0.5999999999999996 -4.5 0  -0.5 -4.5 0  -0.4000000000000004 -4.5 0  -0.2999999999999998 -4.5 0  -0.2000000000000002 -4.5 0  -0.09999999999999964 -4.5 0  0 -4.5 0  0.09999999999999964 -4.5 0  0.2000000000000002 -4.5 0  0.2999999999999998 -4.5 0  0.4000000000000004 -4.5 0  0.5 -4.5 0  0.5999999999999996 -4.5 0  0.7000000000000002 -4.5 0  0.7999999999999998 -4.5 0  0.9000000000000004 -4.5 0  1 -4.5 0  1.1 -4.5 0  1.2 -4.5 0  1.3 -4.5 0  1.4 -4.5 0  1.5 -4.5 0  1.6 -4.5 0  1.7 -4.5 0  1.8 -4.5 0  1.9 -4.5 0  2 -4.5 0  2.1 -4.5 0  2.2 -4.5 0  2.3 -4.5 0  2.4 -4.5 0  2.5 -4.5 0  2.6 -4.5 0  2.7 -4.5 0  2.8 -4.5 0  2.9 -4.5 0  3 -4.5 0  3.1 -4.5 0  3.199999999999999 -4.5 0  3.300000000000001 -4.5 0  3.4 -4.5 0  3.5 -4.5 0  3.6 -4.5 0  3.699999999999999 -4.5 0  3.800000000000001 -4.5 0  3.9 -4.5 0  4 -4.5 0  4.1 -4.5 0  4.199999999999999 -4.5 0  4.300000000000001 -4.5 0  4.4 -4.5 0  4.5 -4.5 0  4.6 -4.5 0  4.699999999999999 -4.5 0  4.800000000000001 -4.5 0  4.9 -4.5 0  5 -4.5 0  -5 -4.4 0  -4.9 -4.4 0  -4.8 -4.4 0  -4.7 -4.4 0  -4.6 -4.4 0  -4.5 -4.4 0  -4.4 -4.4 0  -4.3 -4.4 0  -4.2 -4.4 0  -4.1 -4.4 0  -4 -4.4 0  -3.9 -4.4 0  -3.8 -4.4 0  -3.7 -4.4 0  -3.6 -4.4 0  -3.5 -4.4 0  -3.4 -4.4 0  -3.3 -4.4 0  -3.2 -4.4 0  -3.1 -4.4 0  -3 -4.4 0  -2.9 -4.4 0  -2.8 -4.4 0  -2.7 -4.4 0  -2.6 -4.4 0  -2.5 -4.4 0  -2.4 -4.4 0  -2.3 -4.4 0  -2.2 -4.4 0  -2.1 -4.4 0  -2 -4.4 0  -1.9 -4.4 0  -1.8 -4.
[...]
<PointData  Vectors="f_17"> 
<DataArray  type="Float64"  Name="f_17"  NumberOfComponents="3" format="ascii">1.5000000000000022e-01 0.0000000000000000e+00 0.0000000000000000e+00  1.5000000000000008e-01 -1.3701364334609414e-16 0.0000000000000000e+00  1.5000000000000002e-01 1.0256660230127089e-16 0.0000000000000000e+00  1.5000000000000019e-01 -8.3930783139861557e-17 0.0000000000000000e+00  1.5000000000000005e-01 3.3436790225396866e-16 0.0000000000000000e+00  1.4999999999999999e-01 2.4059577926463488e-16 0.0000000000000000e+00  1.5000000000000002e-01 -4.8407414919443372e-16 0.0000000000000000e+00  1.4999999999999997e-01 3.1943385950344952e-16 0.0000000000000000e+00  1.5000000000000008e-01 4.0556379507789985e-16 0.0000000000000000e+00  1.5000000000000013e-01 -6.7242509919423934e-18 0.0000000000000000e+00  1.5000000000000002e-01 -2.8439170999368473e-16 0.0000000000000000e+00  1.4999999999999999e-01 3.3556367089670391e-16 0.0000000000000000e+00  1.4999999999999988e-01 -1.7615539720062882e-16 0.0000000000000000e+00  1.5000000000000005e-01 -1.8081307697684242e-16 0.0000000000000000e+00  1.4999999999999994e-01 3.5152069612349714e-16 0.0000000000000000e+00  1.4999999999999958e-01 -9.8514950480801668e-17 0.0000000000000000e+00  1.4999999999999972e-01 9.7345431138232206e-17 0.0000000000000000e+00  1.4999999999999991e-01 -1.7250376470002142e-15 0.0000000000000000e+00  1.5000000000000269e-01 -7.1198851747353702e-15 0.0000000000000000e+00  1.5000000000001110e-01 -7.4767454670628664e-15 0.0000000000000000e+00  1.5000000000001540e-01 2.1745757197362509e-14 0.0000000000000000e+00  1.4999999999997043e-01 9.2877127463051176e-14 0.0000000000000000e+00  1.4999999999981603e-01 1.7682417726301289e-13 0.0000000000000000e+00  1.4999999999956373e-01 1.9238486733625725e-13 0.0000000000000000e+00  1.4999999999936453e-01 8.2906426789758474e-14 0.0000000000000000e+00  1.4999999999940916e-01 -1.0706971322651233e-13 0.0000000000000000e+00  1.4999999999971267e-01 -2.4304642582523945e-13 0.0000000000000000e+00  1.5000000000004743e-01 -2.2537500692627452e-13 0.0000000000000000e+00  1.5000000000017347e-01 -8.5946575388410681e-14 0.0000000000000000e+00  1.5000000000008853e-01 4.3618344572770405e-14 0.0000000000000000e+00  1.4999999999998070e-01 6.9518882368649181e-14 0.0000000000000000e+00  1.4999999999996677e-01 2.1406065019099290e-14 0.0000000000000000e+00  1.5000000000000105e-01 -1.8370680387617902e-14 0.0000000000000000e+00  1.5000000000000913e-01 -1.2029870064529571e-14 0.0000000000000000e+00  1.4999999999999650e-01 4.7010818683479611e-15 0.0000000000000000e+00  1.4999999999999622e-01 4.5162038347947680e-15 0.0000000000000000e+00  1.5000000000000380e-01 -2.8655994411968901e-15 0.0000000000000000e+00  1.5000000000000219e-01 -1.4823463859219776e-15 0.0000000000000000e+00  1.4999999999999761e-01 2.2104727017053628e-15 0.0000000000000000e+00  1.4999999999999891e-01 9.1736848665855070e-16 0.0000000000000000e+00  1.5000000000000135e-01 -1.7336179437367388e-15 0.0000000000000000e+00  1.5000000000000047e-01 -3.9325374593599100e-16 0.0000000000000000e+00  1.4999999999999930e-01 6.5705886683484597e-16 0.0000000000000000e+00  1.4999999999999999e-01 3.4053468422757982e-16 0.0000000000000000e+00  1.5000000000000041e-01 -6.6280962160528302e-16 0.0000000000000000e+00  1.4999999999999994e-01 1.5183288824923032e-16 0.0000000000000000e+00  1.4999999999999994e-01 -3.7989330776350470e-17 0.0000000000000000e+00  1.5000000000000013e-01 -4.5650950853573896e-16 0.0000000000000000e+00  1.5000000000000016e-01 9.4225560978055046e-17 0.0000000000000000e+00  1.5000000000000002e-01 1.8943877750805161e-17 0.0000000000000000e+00  1.5000000000000011e-01 1.7266318434167235e-16 0.0000000000000000e+00  1.5000000000000005e-01 1.7477286299245915e-16 0.0000000000000000e+00  1.4999999999999986e-01 1.0351136327551663e-16 0.0000000000000000e+00  1.5000000000000016e-01 3.7503558690163415e-17 0.0000000000000000e+00  1.5000000000000033e-01 -7.2252322259443786e-17 0.0000000000000000e+00  1.4999999999999988e-01 -5.2981227800285456e-16 0.0000000000000000e+00  1.5000000000000008e-01 7.2212828566860261e-17 0.0000000000000000e+00  1.5000000000000013e-01 3.2903053100517534e-16 0.0000000000000000e+00  1.5000000000000030e-01 3.4257829573675077e-16 0.0000000000000000e+00  1.5000000000000002e-01 -1.2143110516946634e-16 0.0000000000000000e+00  1.5000000000000002e-01 -3.2578090813580043e-17 0.0000000000000000e+00  1.5000000000000002e-01 5.0263030608389568e-18 0.0000000000000000e+00  1.5000000000000005e-01 7.3216324415438458e-17 0.0000000000000000e+00  1.5000000000000002e-01 -1.2856987847317555e-16 0.0000000000000000e+00  1.5000000000000008e-01 -7.9486110504456343e-17 0.0000000000000000e+00  1.5000000000000008e-01 -5.9546457139837042e-16 0.0000000000000000e+00  1.5000000000000008e-01 -1.1260982462301390e-16 0.0000000000000000e+00  1.5000000000000016e-01 -1.8343302301801156e-16 0.0000000000000000e+00  1.5000000000000016e-01 4.7138913440554826e-16 0.0000000000000000e+00  1.4999999999999997e-01 4.0024872315120012e-17 0.0000000000000000e+00  1.5000000000000024e-01 2.6516756436123706e-16 0.0000000000000000e+00  1.5000000000000005e-01 -4.8518701838747728e-17 0.0000000000000000e+00  1.5000000000000005e-01 4.4697464364540858e-16 0.0000000000000000e+00  1.4999999999999983e-01 3.8709144534410810e-18 0.0000000000000000e+00  1.5000000000000005e-01 -1.8040855258381058e-16 0.0000000000000000e+00  1.5000000000000008e-01 4.8329049723106166e-16 0.0000000000000000e+00  1.5000000000000013e-01 -3.4144808335254131e-16 0.0000000000000000e+00  1.4999999999999991e-01 2.2536658595060813e-16 0.0000000000000000e+00  1.5000000000000005e-01 -1.1522504765338057e-16 0.0000000000000000e+00  1.5000000000000011e-01 -1.2263300208126342e-16 0.0000000000000000e+00  1.5000000000000016e-01 -3.9174815570474890e-16 0.0000000000000000e+00  1.4999999999999997e-01 4.9583970739312333e-17 0.0000000000000000e+00  1.4999999999999999e-01 -1.5761214038652414e-16 0.0000000000000000e+00  1.5000000000000022e-01 -1.3920876697592368e-16 0.0000000000000000e+00  1.4999999999999999e-01 6.3151655696698472e-16 0.0000000000000000e+00  1.4999999999999983e-01 3.6887878157546302e-16 0.0000000000000000e+00  1.4999999999999999e-01 1.5353062727701399e-17 0.0000000000000000e+00  1.4999999999999994e-01 5.0516047525559983e-17 0.0000000000000000e+00  1.5000000000000005e-01 -3.3479451048322364e-16 0.0000000000000000e+00  1.4999999999999994e-01 -5.6434360990328379e-17 0.0000000000000000e+00  1.5000000000000002e-01 -6.4518028381865645e-16 0.0000000000000000e+00  1.4999999999999999e-01 1.6255421414310867e-16 0.0000000000000000e+00  1.5000000000000008e-01 -4.3439733189432729e-16 0.0000000000000000e+00  1.5000000000000036e-01 5.9902538831668791e-16 0.0000000000000000e+00  1.5000000000000002e-01 2.8406318333821633e-16 0.0000000000000000e+00  1.5000000000000002e-01 -1.6406274568318842e-17 0.0000000000000000e+00  1.5000000000000008e-01 -4.7385223700928640e-16 0.0000000000000000e+00  1.5000000000000005e-01 -8.2494761489524034e-17 0.0000000000000000e+00  1.4999999999999999e-01 2.8126423477932287e-17 0.0000000000000000e+00  1.5000000000000008e-01 3.1301251742074105e-19 0.0000000000000000e+00  1.4999999999999991e-01 0.0000000000000000e+00 0.0000000000000000e+00  1.4999999999999999e-01 0.0000000000000000e+00 -7.7625189064556353e-16  1.4999999999999999e-01 2.9867537404942229e-17 1.8684314397844388e-16  1.5000000000000005e-01 -1.1038863921191781e-16 -1.0584947301690752e-16  1.5000000000000005e-01 -5.3712414353225840e-16 1.7546239194933489e-16  1.5000000000000005e-01 1.4087477540786945e-16 -1.6744066054959761e-16  1.5000000000000008e-01 -2.8226838047219429e-16 -1.0642407235342688e-16  1.5000000000000005e-01 7.2259734114272737e-16 -5.9381449679236007e-16  1.5000000000000008e-01 -4.2750315039115468e-16 1.8943792406016335e-16  1.5000000000000011e-01 4.5037470662152381e-16 1.3415644515028054e-16  1.4999999999999999e-01 -7.9035778556355362e-17 -1.1416939569967335e-16  1.5000000000000002e-01 2.2038118071618066e-18 -1.1491549105896264e-17  1.5000000000000002e-01 3.3302708088560419e-16 1.8125271850067794e-16  1.5000000000000005e-01 8.2947818883796598e-17 -5.6964969303603969e-17  1.4999999999999999e-01 1.0668289777296255e-19 3.0733303298649251e-17  1.4999999999999997e-01 2.1124010289652514e-16 8.6622501130862451e-17  1.5000000000000033e-01 -4.2544313022317067e-16 3.9490042696637143e-16  1.5000000000000069e-01 -6.7743674142972018e-16 1.1867798195836179e-15  1.5000000000000052e-01 7.6238271514372797e-16 1.5044326180575566e-15  1.4999999999999916e-01 5.1716115068928829e-15 -2.6320722474254201e-15  1.4999999999999133e-01 1.2343742113639581e-14 -2.3313067129208238e-14  1.4999999999997962e-01 -4.3598074596950120e-15 -5.1429682899851895e-14  1.5000000000000149e-01 -7.7003580623884947e-14 1.1538330336067493e-14  1.5000000000013647e-01 -1.9481297477569610e-13 3.6224066664534789e-13  1.5000000000042638e-01 -2.6877629066863940e-13 1.0838011527304349e-12  1.5000000000075064e-01 -1.8876503774530441e-13 1.8508443634298406e-12  1.5000000000084676e-01 4.2096132486273755e-14 2.0157082790931093e-12  1.5000000000056640e-01 2.7406009877226617e-13 1.2614045301218354e-12  1.5000000000009378e-01 3.3222872821132215e-13 1.0101003266822765e-13  1.4999999999979319e-01 1.9183729468149591e-13 -5.6780051229337293e-13  1.4999999999981692e-01 -2.8039095282817461e-15 -4.3637685254094441e-13  1.4999999999998037e-01 -9.2683954215893860e-14 -1.5881966097961246e-14  1.5000000000005179e-01 -5.6354710827099832e-14 1.3615471954872533e-13  1.5000000000001587e-01 8.4542824274394996e-15 3.0349546643843719e-14  1.4999999999998603e-01 2.3121109068308210e-14 -3.7234159353895673e-14  1.4999999999999894e-01 1.2939564766759923e-15 1.3232302298004049e-15  1.5000000000000810e-01 -8.2807318050186396e-15 2.0229316244200621e-14  1.4999999999999786e-01 4.8209226617008079e-16 -7.4633828195013378e-15  1.4999999999999450e-01 4.2890222359621350e-15 -1.3856355423478493e-14  1.5000000000000180e-01 -9.1725545599630516e-16 5.6363451132097451e-15  1.5000000000000346e-01 -2.6882448706249671e-15 8.2794658561565107e-15  1.4999999999999900e-01 9.2248236798826301e-16 -3.6504938368908956e-15  1.4999999999999827e-01 1.4252749995460343e-15 -4.1233569928264923e-15  1.5000000000000080e-01 -1.0525351423894690e-15 2.0804821254553927e-15  1.5000000000000085e-01 -5.9139394414174242e-16 1.8588530776574843e-15  1.4999999999999961e-01 1.0752617320605034e-16 -1.7930415288423614e-15  1.4999999999999986e-01 3.2272482014197674e-16 -4.7242879706558484e-16  1.5000000000000038e-01 -1.7976220286526645e-16 6.4165225339092331e-16  1.4999999999999999e-01 2.6942889619376484e-17 -1.8239792682089119e-16  1.4999999999999997e-01 2.6849462926855826e-16 8.0536126362581353e-17  1.5000000000000011e-01 -4.6075850637849752e-18 -3.0646130941140028e-16  1.5000000000000016e-01 -8.0614054981008299e-17 -3.3262747280420649e-17  1.5000000000000002e-01 6.2876178562095665e-16 -5.5616271011731865e-18  1.5000000000000008e-01 -2.0361699871393620e-16 -7.1204815814530931e-17  1.5000000000000005e-01 1.1189686496802890e-16 8.8473734469254066e-17  1.5000000000000013e-01 1.7642643813560341e-16 -7.2017679488100365e-17  1.5000000000000008e-01 1.0773069138639882e-17 -1.9311669645303591e-16  1.4999999999999994e-01 2.1377447724215197e-16 3.6347539735924102e-16  1.5000000000000002e-01 -4.8374803282077518e-16 1.8378787494013708e-16  1.5000000000000005e-01 2.5082670770460057e-16 -4.0238223757021432e-16  1.5000000000000008e-01 -1.7795893816233913e-16 -7.9563606978251239e-18  1.5000000000000002e-01 -9.4801373920900632e-17 -1.4654078115031921e-16  1.5000000000000005e-01 -2.7974544229812344e-16 -1.8058558808273724e-16  1.5000000000000005e-01 1.0123489150433419e-16 -2.3002914607988793e-16  1.5000000000000008e-01 -3.3025276059858005e-16 1.2305096053525437e-16  1.5000000000000008e-01 -1.6968047347058440e-16 -8.8757026605937607e-17  1.5000000000000008e-01 -1.4565414854093165e-16 2.8558939972969950e-16  1.5000000000000011e-01 -1.5447499105341124e-16 2.7862594104919999e-16  1.4999999999999999e-01 1.7149389778104611e-16 1.8267137749118763e-16  1.5000000000000008e-01 4.2291655409531904e-16 4.1380858285096730e-16  1.5000000000000002e-01 8.8677134561718740e-18 7.5845997014311069e-17  1.4999999999999991e-01 1.8803673005092873e-16 -2.9492789797932103e-16  1.5000000000000008e-01 1.1054829435126648e-16 -3.8172895719263062e-17  1.5000000000000005e-01 8.9775677010629857e-17 1.0491877142742390e-16  1.4999999999999999e-01 2.4009687238187968e-16 -2.3539748705707230e-16  1.5000000000000005e-01 -2.3072099791753017e-16 -4.2298180456870346e-17  1.5000000000000002e-01 -1.0880905141988176e-16 -9.9176097626951291e-17  1.5000000000000008e-01 -3.7287354075073667e-16 -2.8131673466067543e-16  1.5000000000000016e-01 -5.2752040098144835e-16 1.7895637889865199e-17  1.5000000000000005e-01 1.6557666458307265e-18 -1.5578979286653228e-17  1.5000000000000013e-01 4.4912711599447059e-16 -2.7651664464716038e-16  1.5000000000000005e-01 2.6669897001262322e-16 -9.1826024433414971e-17  1.5000000000000016e-01 2.6089737019495143e-16 7.6680989373166616e-17  1.5000000000000013e-01 -2.0533840187294959e-16 4.1728908182250990e-17  1.5000000000000008e-01 9.2002298977116108e-17 -9.4395728738995374e-17  1.5000000000000005e-01 -1.2344800020684915e-16 1.4203038462891388e-16  1.5000000000000008e-01 -6.4448421306366274e-17 -2.9924923724761309e-16  1.5000000000000005e-01 3.2690964080841069e-16 -1.1408767053783955e-17  1.5000000000000005e-01 -8.5957968950232451e-17 -3.0635726318930884e-17  1.5000000000000008e-01 1.4361246767076289e-17 1.5663746591945725e-16  1.4999999999999999e-01 -4.3279812623534007e-18 2.9495911761191720e-16  1.5000000000000005e-01 -4.1374213678086617e-16 2.4922803579821292e-16  1.4999999999999999e-01 4.0107421694603669e-16 -4.0109714738697389e-17  1.5000000000000024e-01 3.1340574769770336e-16 5.6039529291982243e-17  1.5000000000000013e-01 5.1272757334085316e-17 6.2620446519854799e-16  1.5000000000000005e-01 -2.8604278452399527e-16 6.3145073133022272e-17  1.5000000000000005e-01 -5.6994748196445060e-17 -1.1723095231589217e-18  1.4999999999999991e-01 2.6059811131067960e-16 -1.3955326754312355e-16  1.5000000000000002e-01 -2.1623693457206002e-16 3.3523468000463394e-16  1.5000000000000016e-01 2.4520460757141176e-16 1.0631790659177091e-16  1.5000000000000005e-01 -3.8733991104547360e-17 -4.7121170618891190e-16  1.4999999999999999e-01 0.0000000000000000e+00 2.1796950707397314e-16  1.5000000000000011e-01 0.0000000000000000e+00 1.3836767023714701e-16  1.5000000000000013e-01 -3.9462795217546323e-17 -1.2501593793122633e-16  1.4999999999999999e-01 4.8989578347609556e-17 -3.6781948355399664e-16  1.5000000000000005e-01 -7.0552452065995339e-17 1.4970951245007071e-16  1.5000000000000022e-01 -2.3423673936831183e-17 -1.8301751517283067e-16  1.5000000000000008e-01 1.0712555023299432e-16 -2.8715703228985289e-16  1.4999999999999991e-01 2.4599576029776780e-16 -3.4332335523701155e-16  1.5000000000000005e-01 -1.9145606620383729e-16 7.1941199380049703e-18  1.5000000000000011e-01 7.5839507661873376e-16 -7.1560955578824489e-16  1.5000000000000002e-01 -2.7802287811407117e-16 -3.9778181541337435e-16  1.5000000000000002e-01 2.8675415751310936e-16 -3.5542309930444630e-16  1.5000000000000005e-01 7.2462946086117399e-17 -2.3111117286673247e-16  1.4999999999999994e-01 -1.0325881439801358e-16 -3.4580872978744357e-16  1.4999999999999991e-01 -8.2551401097925477e-17 -1.6216114388871845e-16  1.5000000000000005e-01 8.0071650655542523e-17 -1.2552681402418628e-16  1.4999999999999980e-01 -1.7909685002954271e-16 -8.0440903714520760e-16  1.4999999999999922e-01 4.4128532226374195e-16 -2.3931088104097893e-15  1.4999999999999900e-01 1.2679624861878997e-16 -4.6487596826522043e-15  1.4999999999999958e-01 -4.3872903646923926e-15 -3.4588537769979057e-15  1.5000000000000699e-01 -1.8207646273041653e-14 2.3089996634746549e-14  1.5000000000002731e-01 -1.6914682528149801e-14 9.7037875421148761e-14  1.5000000000002991e-01 6.5012248880108047e-14 1.1077162436426026e-13  1.4999999999989838e-01 2.6102734269023339e-13 -3.4079823334249514e-13  1.4999999999948979e-01 4.7151664598100393e-13 -1.7403192712510294e-12  1.4999999999886404e-01 4.7392903796811347e-13 -3.8636797264093629e-12  1.4999999999842842e-01 1.4172644189040502e-13 -5.3100184090142515e-12  1.4999999999863850e-01 -3.5202199519601934e-13 -4.5415168588259877e-12  1.4999999999944741e-01 -6.4077782008658127e-13 -1.7615014971110666e-12  1.5000000000023062e-01 -5.1811961434911904e-13 8.7567465164334595e-13  1.5000000000043634e-01 -1.4192315885162030e-13 1.5147286339077482e-12  1.5000000000016836e-01 1.4225608445411417e-13 5.5965654097305783e-13  1.4999999999992453e-01 1.6002430740751812e-13 -2.7271377291962260e-13  1.4999999999993169e-01 2.9207093653988494e-14 -2.3581030372011662e-13  1.5000000000001606e-01 -4.6853999943948728e-14 5.5550463670171909e-14  1.5000000000001582e-01 -2.0842019195130720e-14 5.1928324789355740e-14  1.4999999999998412e-01 1.4420913852664679e-14 -5.4171612098692063e-14  1.4999999999999511e-01 6.9780090577599909e-15 -1.4676185697526980e-14  1.5000000000001343e-01 -8.8641625135851642e-15 4.5864351739848724e-14  1.5000000000000285e-01 -1.8754349482953470e-15 7.9820091803180615e-15  1.4999999999999161e-01 6.2880060672187108e-15 -2.9119556977031877e-14  1.4999999999999877e-01 6.2706668781745612e-16 -3.5677670538582695e-15  1.5000000000000469e-01 -4.4455570868057714e-15 1.5994259549930553e-14  1.5000000000000036e-01 -3.6588317643964676e-17 5.4713481608611296e-16  1.4999999999999775e-01 2.2286856569846505e-15 -8.1325955028987866e-15  1.5000000000000038e-01 -3.8749025724874673e-16 1.1581449223096558e-15  1.5000000000000113e-01 -8.2307592787610659e-16 4.0317902492491811e-15  1.4999999999999980e-01 2.9160594341418513e-16 -1.2422670756298576e-15  1.4999999999999963e-01 3.7818579427558085e-16 -7.3723868620958780e-16  1.5000000000000027e-01 -4.4908964330371026e-16 1.0767960586901694e-15  1.5000000000000011e-01 -5.9225591161558016e-16 3.0943578811223058e-16  1.4999999999999988e-01 6.6529121233331555e-16 1.2542094107267359e-16  1.5000000000000008e-01 8.3654925701365090e-17 -8.2702565020867253e-18  1.5000000000000005e-01 -5.1583417823016797e-17 -2.2927149030264176e-16  1.4999999999999999e-01 3.2295957399418780e-16 -6.7613079480016507e-17  1.5000000000000005e-01 -3.6981180234802053e-16 -3.5023682992805971e-16  1.5000000000000002e-01 4.2728754761217088e-17 -2.2581826155030382e-16  1.5000000000000002e-01 -5.3824779093244068e-17 -1.2510273330812225e-16  1.5000000000000011e-01 -4.2748431991304737e-16 -3.8172666529732611e-16  1.5000000000000016e-01 4.9103218494517043e-16 -1.8851440982419037e-17  1.5000000000000002e-01 -1.1535006357536745e-16 -4.6782830923524819e-17  1.4999999999999994e-01 3.1131678812046326e-17 -6.1986279752508584e-16  1.5000000000000013e-01 8.4845026698611450e-17 2.3366361029394819e-16  1.5000000000000005e-01 -4.6076303042248930e-17 3.2715606320474895e-16  1.5000000000000005e-01 2.4415010671285858e-16 -1.8958999890145283e-16  1.5000000000000002e-01 1.2022540664529721e-16 5.2372145985834887e-16  1.5000000000000002e-01 -1.8300843873641064e-16 4.6787488307441543e-16  1.5000000000000005e-01 -1.8928258563583557e-16 2.5106708707222054e-16  1.5000000000000005e-01 -2.3844094313639532e-17 7.4729612283144961e-16  1.5000000000000002e-01 2.7410757131389508e-17 1.8599401857709585e-16  1.5000000000000005e-01 -8.3175357442148356e-17 -9.3254419860777968e-18  1.5000000000000013e-01 -1.5434009816401769e-16 5.6153523554807277e-16  1.5000000000000005e-01 3.0614436489688073e-16 2.7662659412583803e-16  1.5000000000000005e-01 1.7530972135779120e-16 2.2453796354201827e-17  1.5000000000000002e-01 -1.3457185404876181e-16 -1.4330001034424108e-16  1.5000000000000005e-01 -6.7398636215175274e-17 -4.4455457833733528e-16  1.5000000000000005e-01 4.4553422916359027e-17 -1.7434037614215628e-16  1.4999999999999983e-01 -1.7711793263317388e-16 -1.6112702403625170e-16  1.4999999999999999e-01 3.4475079430119431e-16 -1.2183822223678899e-16  1.5000000000000008e-01 3.4376292813426991e-16 1.730028779208