<?xml version="1.0"?>
<VTKFile type="UnstructuredGrid"  version="0.1"  >
<UnstructuredGrid>
<Piece  NumberOfPoints="10201" NumberOfCells="20000">
<Points>
<DataArray  type="Float64"  NumberOfComponents="3"  format="ascii">-5 -5 0  -4.9 -5 0  -4.8 -5 0  -4.7 -5 0  -4.6 -5 0  -4.5 -5 0  -4.4 -5 0  -4.3 -5 0  -4.2 -5 0  -4.1 -5 0  -4 -5 0  -3.9 -5 0  -3.8 -5 0  -3.7 -5 0  -3.6 -5 0  -3.5 -5 0  -3.4 -5 0  -3.3 -5 0  -3.2 -5 0  -3.1 -5 0  -3 -5 0  -2.9 -5 0  -2.8 -5 0  -2.7 -5 0  -2.6 -5 0  -2.5 -5 0  -2.4 -5 0  -2.3 -5 0  -2.2 -5 0  -2.1 -5 0  -2 -5 0  -1.9 -5 0  -1.8 -5 0  -1.7 -5 0  -1.6 -5 0  -1.5 -5 0  -1.4 -5 0  -1.3 -5 0  -1.2 -5 0  -1.1 -5 0  -1 -5 0  -0.9000000000000004 -5 0  -0.7999999999999998 -5 0  -0.7000000000000002 -5 0  -0.5999999999999996 -5 0  -0.5 -5 0  -0.4000000000000004 -5 0  -0.2999999999999998 -5 0  -0.2000000000000002 -5 0  -0.09999999999999964 -5 0  0 -5 0  0.09999999999999964 -5 0  0.2000000000000002 -5 0  0.2999999999999998 -5 0  0.4000000000000004 -5 0  0.5 -5 0  0.5999999999999996 -5 0  0.7000000000000002 -5 0  0.7999999999999998 -5 0  0.9000000000000004 -5 0  1 -5 0  1.1 -5 0  1.2 -5 0  1.3 -5 0  1.4 -5 0  1.5 -5 0  1.6 -5 0  1.7 -5 0  1.8 -5 0  1.9 -5 0  2 -5 0  2.1 -5 0  2.2 -5 0  2.3 -5 0  2.4 -5 0  2.5 -5 0  2.6 -5 0  2.7 -5 0  2.8 -5 0  2.9 -5 0  3 -5 0  3.1 -5 0  3.199999999999999 -5 0  3.300000000000001 -5 0  3.4 -5 0  3.5 -5 0  3.6 -5 0  3.699999999999999 -5 0  3.800000000000001 -5 0  3.9 -5 0  4 -5 0  4.1 -5 0  4.199999999999999 -5 0  4.300000000000001 -5 0  4.4 -5 0  4.5 -5 0  4.6 -5 0  4.699999999999999 -5 0  4.800000000000001 -5 0  4.9 -5 0  5 -5 0  -5 -4.9 0  -4.9 -4.9 0  -4.8 -4.9 0  -4.7 -4.9 0  -4.6 -4.9 0  -4.5 -4.9 0  -4.4 -4.9 0  -4.3 -4.9 0  -4.2 -4.9 0  -4.1 -4.9 0  -4 -4.9 0  -3.9 -4.9 0  -3.8 -4.9 0  -3.7 -4.9 0  -3.6 -4.9 0  -3.5 -4.9 0  -3.4 -4.9 0  -3.3 -4.9 0  -3.2 -4.9 0  -3.1 -4.9 0  -3 -4.9 0  -2.9 -4.9 0  -2.8 -4.9 0  -2.7 -4.9 0  -2.6 -4.9 0  -2.5 -4.9 0  -2.4 -4.9 0  -2.3 -4.9 0  -2.2 -4.9 0  -2.1 -4.9 0  -2 -4.9 0  -1.9 -4.9 0  -1.8 -4.9 0  -1.7 -4.9 0  -1.6 -4.9 0  -1.5 -4.9 0  -1.4 -4.9 0  -1.3 -4.9 0  -1.2 -4.9 0  -1.1 -4.9 0  -1 -4.9 0  -0.9000000000000004 -4.9 0  -0.7999999999999998 -4.9 0  -0.7000000000000002 -4.9 0  -0.5999999999999996 -4.9 0  -0.5 -4.9 0  -0.4000000000000004 -4.9 0  -0.2999999999999998 -4.9 0  -0.2000000000000002 -4.9 0  -0.09999999999999964 -4.9 0  0 -4.9 0  0.09999999999999964 -4.9 0  0.2000000000000002 -4.9 0  0.2999999999999998 -4.9 0  0.4000000000000004 -4.9 0  0.5 -4.9 0  0.5999999999999996 -4.9 0  0.7000000000000002 -4.9 0  0.7999999999999998 -4.9 0  0.9000000000000004 -4.9 0  1 -4.9 0  1.1 -4.9 0  1.2 -4.9 0  1.3 -4.9 0  1.4 -4.9 0  1.5 -4.9 0  1.6 -4.9 0  1.7 -4.9 0  1.8 -4.9 0  1.9 -4.9 0  2 -4.9 0  2.1 -4.9 0  2.2 -4.9 0  2.3 -4.9 0  2.4 -4.9 0  2.5 -4.9 0  2.6 -4.9 0  2.7 -4.9 0  2.8 -4.9 0  2.9 -4.9 0  3 -4.9 0  3.1 -4.9 0  3.199999999999999 -4.9 0  3.300000000000001 -4.9 0  3.4 -4.9 0  3.5 -4.9 0  3.6 -4.9 0  3.699999999999999 -4.9 0  3.800000000000001 -4.9 0  3.9 -4.9 0  4 -4.9 0  4.1 -4.9 0  4.199999999999999 -4.9 0  4.300000000000001 -4.9 0  4.4 -4.9 0  4.5 -4.9 0  4.6 -4.9 0  4.699999999999999 -4.9 0  4.800000000000001 -4.9 0  4.9 -4.9 0  5 -4.9 0  -5 -4.8 0  -4.9 -4.8 0  -4.8 -4.8 0  -4.7 -4.8 0  -4.6 -4.8 0  -4.5 -4.8 0  -4.4 -4.8 0  -4.3 -4.8 0  -4.2 -4.8 0  -4.1 -4.8 0  -4 -4.8 0  -3.9 -4.8 0  -3.8 -4.8 0  -3.7 -4.8 0  -3.6 -4.8 0  -3.5 -4.8 0  -3.4 -4.8 0  -3.3 -4.8 0  -3.2 -4.8 0  -3.1 -4.8 0  -3 -4.8 0  -2.9 -4.8 0  -2.8 -4.8 0  -2.7 -4.8 0  -2.6 -4.8 0  -2.5 -4.8 0  -2.4 -4.8 0  -2.3 -4.8 0  -2.2 -4.8 0  -2.1 -4.8 0  -2 -4.8 0  -1.9 -4.8 0  -1.8 -4.8 0  -1.7 -4.8 0  -1.6 -4.8 0  -1.5 -4.8 0  -1.4 -4.8 0  -1.3 -4.8 0  -1.2 -4.8 0  -1.1 -4.8 0  -1 -4.8 0  -0.9000000000000004 -4.8 0  -0.7999999999999998 -4.8 0  -0.7000000000000002 -4.8 0  -0.5999999999999996 -4.8 0  -0.5 -4.8 0  -0.4000000000000004 -4.8 0  -0.2999999999999998 -4.8 0  -0.2000000000000002 -4.8 0  -0.09999999999999964 -4.8 0  0 -4.8 0  0.09999999999999964 -4.8 0  0.2000000000000002 -4.8 0  0.2999999999999998 -4.8 0  0.4000000000000004 -4.8 0  0.5 -4.8 0  0.5999999999999996 -4.8 0  0.7000000000000002 -4.8 0  0.7999999999999998 -4.8 0  0.9000000000000004 -4.8 0  1 -4.8 0  1.1 -4.8 0  1.2 -4.8 0  1.3 -4.8 0  1.4 -4.8 0  1.5 -4.8 0  1.6 -4.8 0  1.7 -4.8 0  1.8 -4.8 0  1.9 -4.8 0  2 -4.8 0  2.1 -4.8 0  2.2 -4.8 0  2.3 -4.8 0  2.4 -4.8 0  2.5 -4.8 0  2.6 -4.8 0  2.7 -4.8 0  2.8 -4.8 0  2.9 -4.8 0  3 -4.8 0  3.1 -4.8 0  3.199999999999999 -4.8 0  3.300000000000001 -4.8 0  3.4 -4.8 0  3.5 -4.8 0  3.6 -4.8 0  3.699999999999999 -4.8 0  3.800000000000001 -4.8 0  3.9 -4.8 0  4 -4.8 0  4.1 -4.8 0  4.199999999999999 -4.8 0  4.300000000000001 -4.8 0  4.4 -4.8 0  4.5 -4.8 0  4.6 -4.8 0  4.699999999999999 -4.8 0  4.800000000000001 -4.8 0  4.9 -4.8 0  5 -4.8 0  -5 -4.7 0  -4.9 -4.7 0  -4.8 -4.7 0  -4.7 -4.7 0  -4.6 -4.7 0  -4.5 -4.7 0  -4.4 -4.7 0  -4.3 -4.7 0  -4.2 -4.7 0  -4.1 -4.7 0  -4 -4.7 0  -3.9 -4.7 0  -3.8 -4.7 0  -3.7 -4.7 0  -3.6 -4.7 0  -3.5 -4.7 0  -3.4 -4.7 0  -3.3 -4.7 0  -3.2 -4.7 0  -3.1 -4.7 0  -3 -4.7 0  -2.9 -4.7 0  -2.8 -4.7 0  -2.7 -4.7 0  -2.6 -4.7 0  -2.5 -4.7 0  -2.4 -4.7 0  -2.3 -4.7 0  -2.2 -4.7 0  -2.1 -4.7 0  -2 -4.7 0  -1.9 -4.7 0  -1.8 -4.7 0  -1.7 -4.7 0  -1.6 -4.7 0  -1.5 -4.7 0  -1.4 -4.7 0  -1.3 -4.7 0  -1.2 -4.7 0  -1.1 -4.7 0  -1 -4.7 0  -0.9000000000000004 -4.7 0  -0.7999999999999998 -4.7 0  -0.7000000000000002 -4.7 0  -0.5999999999999996 -4.7 0  -0.5 -4.7 0  -0.4000000000000004 -4.7 0  -0.2999999999999998 -4.7 0  -0.2000000000000002 -4.7 0  -0.09999999999999964 -4.7 0  0 -4.7 0  0.09999999999999964 -4.7 0  0.2000000000000002 -4.7 0  0.2999999999999998 -4.7 0  0.4000000000000004 -4.7 0  0.5 -4.7 0  0.5999999999999996 -4.7 0  0.7000000000000002 -4.7 0  0.7999999999999998 -4.7 0  0.9000000000000004 -4.7 0  1 -4.7 0  1.1 -4.7 0  1.2 -4.7 0  1.3 -4.7 0  1.4 -4.7 0  1.5 -4.7 0  1.6 -4.7 0  1.7 -4.7 0  1.8 -4.7 0  1.9 -4.7 0  2 -4.7 0  2.1 -4.7 0  2.2 -4.7 0  2.3 -4.7 0  2.4 -4.7 0  2.5 -4.7 0  2.6 -4.7 0  2.7 -4.7 0  2.8 -4.7 0  2.9 -4.7 0  3 -4.7 0  3.1 -4.7 0  3.199999999999999 -4.7 0  3.300000000000001 -4.7 0  3.4 -4.7 0  3.5 -4.7 0  3.6 -4.7 0  3.699999999999999 -4.7 0  3.800000000000001 -4.7 0  3.9 -4.7 0  4 -4.7 0  4.1 -4.7 0  4.199999999999999 -4.7 0  4.300000000000001 -4.7 0  4.4 -4.7 0  4.5 -4.7 0  4.6 -4.7 0  4.699999999999999 -4.7 0  4.800000000000001 -4.7 0  4.9 -4.7 0  5 -4.7 0  -5 -4.6 0  -4.9 -4.6 0  -4.8 -4.6 0  -4.7 -4.6 0  -4.6 -4.6 0  -4.5 -4.6 0  -4.4 -4.6 0  -4.3 -4.6 0  -4.2 -4.6 0  -4.1 -4.6 0  -4 -4.6 0  -3.9 -4.6 0  -3.8 -4.6 0  -3.7 -4.6 0  -3.6 -4.6 0  -3.5 -4.6 0  -3.4 -4.6 0  -3.3 -4.6 0  -3.2 -4.6 0  -3.1 -4.6 0  -3 -4.6 0  -2.9 -4.6 0  -2.8 -4.6 0  -2.7 -4.6 0  -2.6 -4.6 0  -2.5 -4.6 0  -2.4 -4.6 0  -2.3 -4.6 0  -2.2 -4.6 0  -2.1 -4.6 0  -2 -4.6 0  -1.9 -4.6 0  -1.8 -4.6 0  -1.7 -4.6 0  -1.6 -4.6 0  -1.5 -4.6 0  -1.4 -4.6 0  -1.3 -4.6 0  -1.2 -4.6 0  -1.1 -4.6 0  -1 -4.6 0  -0.9000000000000004 -4.6 0  -0.7999999999999998 -4.6 0  -0.7000000000000002 -4.6 0  -0.5999999999999996 -4.6 0  -0.5 -4.6 0  -0.4000000000000004 -4.6 0  -0.2999999999999998 -4.6 0  -0.2000000000000002 -4.6 0  -0.09999999999999964 -4.6 0  0 -4.6 0  0.09999999999999964 -4.6 0  0.2000000000000002 -4.6 0  0.2999999999999998 -4.6 0  0.4000000000000004 -4.6 0  0.5 -4.6 0  0.5999999999999996 -4.6 0  0.7000000000000002 -4.6 0  0.7999999999999998 -4.6 0  0.9000000000000004 -4.6 0  1 -4.6 0  1.1 -4.6 0  1.2 -4.6 0  1.3 -4.6 0  1.4 -4.6 0  1.5 -4.6 0  1.6 -4.6 0  1.7 -4.6 0  1.8 -4.6 0  1.9 -4.6 0  2 -4.6 0  2.1 -4.6 0  2.2 -4.6 0  2.3 -4.6 0  2.4 -4.6 0  2.5 -4.6 0  2.6 -4.6 0  2.7 -4.6 0  2.8 -4.6 0  2.9 -4.6 0  3 -4.6 0  3.1 -4.6 0  3.199999999999999 -4.6 0  3.300000000000001 -4.6 0  3.4 -4.6 0  3.5 -4.6 0  3.6 -4.6 0  3.699999999999999 -4.6 0  3.800000000000001 -4.6 0  3.9 -4.6 0  4 -4.6 0  4.1 -4.6 0  4.199999999999999 -4.6 0  4.300000000000001 -4.6 0  4.4 -4.6 0  4.5 -4.6 0  4.6 -4.6 0  4.699999999999999 -4.6 0  4.800000000000001 -4.6 0  4.9 -4.6 0  5 -4.6 0  -5 -4.5 0  -4.9 -4.5 0  -4.8 -4.5 0  -4.7 -4.5 0  -4.6 -4.5 0  -4.5 -4.5 0  -4.4 -4.5 0  -4.3 -4.5 0  -4.2 -4.5 0  -4.1 -4.5 0  -4 -4.5 0  -3.9 -4.5 0  -3.8 -4.5 0  -3.7 -4.5 0  -3.6 -4.5 0  -3.5 -4.5 0  -3.4 -4.5 0  -3.3 -4.5 0  -3.2 -4.5 0  -3.1 -4.5 0  -3 -4.5 0  -2.9 -4.5 0  -2.8 -4.5 0  -2.7 -4.5 0  -2.6 -4.5 0  -2.5 -4.5 0  -2.4 -4.5 0  -2.3 -4.5 0  -2.2 -4.5 0  -2.1 -4.5 0  -2 -4.5 0  -1.9 -4.5 0  -1.8 -4.5 0  -1.7 -4.5 0  -1.6 -4.5 0  -1.5 -4.5 0  -1.4 -4.5 0  -1.3 -4.5 0  -1.2 -4.5 0  -1.1 -4.5 0  -1 -4.5 0  -0.9000000000000004 -4.5 0  -0.7999999999999998 -4.5 0  -0.7000000000000002 -4.5 0  -0.5999999999999996 -4.5 0  -0.5 -4.5 0  -0.4000000000000004 -4.5 0  -0.2999999999999998 -4.5 0  -0.2000000000000002 -4.5 0  -0.09999999999999964 -4.5 0  0 -4.5 0  0.09999999999999964 -4.5 0  0.2000000000000002 -4.5 0  0.2999999999999998 -4.5 0  0.4000000000000004 -4.5 0  0.5 -4.5 0  0.5999999999999996 -4.5 0  0.7000000000000002 -4.5 0  0.7999999999999998 -4.5 0  0.9000000000000004 -4.5 0  1 -4.5 0  1.1 -4.5 0  1.2 -4.5 0  1.3 -4.5 0  1.4 -4.5 0  1.5 -4.5 0  1.6 -4.5 0  1.7 -4.5 0  1.8 -4.5 0  1.9 -4.5 0  2 -4.5 0  2.1 -4.5 0  2.2 -4.5 0  2.3 -4.5 0  2.4 -4.5 0  2.5 -4.5 0  2.6 -4.5 0  2.7 -4.5 0  2.8 -4.5 0  2.9 -4.5 0  3 -4.5 0  3.1 -4.5 0  3.199999999999999 -4.5 0  3.300000000000001 -4.5 0  3.4 -4.5 0  3.5 -4.5 0  3.6 -4.5 0  3.699999999999999 -4.5 0  3.800000000000001 -4.5 0  3.9 -4.5 0  4 -4.5 0  4.1 -4.5 0  4.199999999999999 -4.5 0  4.300000000000001 -4.5 0  4.4 -4.5 0  4.5 -4.5 0  4.6 -4.5 0  4.699999999999999 -4.5 0  4.800000000000001 -4.5 0  4.9 -4.5 0  5 -4.5 0  -5 -4.4 0  -4.9 -4.4 0  -4.8 -4.4 0  -4.7 -4.4 0  -4.6 -4.4 0  -4.5 -4.4 0  -4.4 -4.4 0  -4.3 -4.4 0  -4.2 -4.4 0  -4.1 -4.4 0  -4 -4.4 0  -3.9 -4.4 0  -3.8 -4.4 0  -3.7 -4.4 0  -3.6 -4.4 0  -3.5 -4.4 0  -3.4 -4.4 0  -3.3 -4.4 0  -3.2 -4.4 0  -3.1 -4.4 0  -3 -4.4 0  -2.9 -4.4 0  -2.8 -4.4 0  -2.7 -4.4 0  -2.6 -4.4 0  -2.5 -4.4 0  -2.4 -4.4 0  -2.3 -4.4 0  -2.2 -4.4 0  -2.1 -4.4 0  -2 -4.4 0  -1.9 -4.4 0  -1.8 -4.
[...]
<PointData  Vectors="f_17"> 
<DataArray  type="Float64"  Name="f_17"  NumberOfComponents="3" format="ascii">1.5000000000000008e-01 0.0000000000000000e+00 0.0000000000000000e+00  1.5000000000000008e-01 -4.1702236453576698e-16 0.0000000000000000e+00  1.5000000000000002e-01 3.5047017053374006e-16 0.0000000000000000e+00  1.5000000000000019e-01 -1.6142676314356771e-17 0.0000000000000000e+00  1.5000000000000005e-01 -2.3291511790850525e-17 0.0000000000000000e+00  1.4999999999999999e-01 -6.4088430098253561e-16 0.0000000000000000e+00  1.4999999999999983e-01 5.0587088279294045e-16 0.0000000000000000e+00  1.5000000000000036e-01 9.2377340297480157e-16 0.0000000000000000e+00  1.5000000000000002e-01 -3.7427214791985433e-16 0.0000000000000000e+00  1.4999999999999988e-01 6.5207513234428056e-17 0.0000000000000000e+00  1.5000000000000008e-01 -4.6988150013817725e-16 0.0000000000000000e+00  1.4999999999999999e-01 4.4828890526388679e-17 0.0000000000000000e+00  1.4999999999999988e-01 -1.5052319722039330e-16 0.0000000000000000e+00  1.5000000000000005e-01 -1.0668709149189479e-17 0.0000000000000000e+00  1.4999999999999997e-01 -8.6554099746400852e-17 0.0000000000000000e+00  1.4999999999999999e-01 2.0373639518300315e-16 0.0000000000000000e+00  1.5000000000000024e-01 2.9226423637288689e-16 0.0000000000000000e+00  1.4999999999999997e-01 -1.0921418104835695e-16 0.0000000000000000e+00  1.5000000000000005e-01 -3.2794265868374010e-16 0.0000000000000000e+00  1.5000000000000022e-01 -4.1264386455926729e-16 0.0000000000000000e+00  1.5000000000000016e-01 1.4471099640171679e-16 0.0000000000000000e+00  1.5000000000000030e-01 -1.0779946021910498e-18 0.0000000000000000e+00  1.4999999999999999e-01 2.8581224896946499e-16 0.0000000000000000e+00  1.4999999999999961e-01 7.5485974849610921e-16 0.0000000000000000e+00  1.4999999999999841e-01 3.1198879722072208e-16 0.0000000000000000e+00  1.4999999999999766e-01 6.0704036540412105e-16 0.0000000000000000e+00  1.4999999999999791e-01 -4.3073725404295787e-16 0.0000000000000000e+00  1.4999999999999905e-01 -5.4399887915474014e-16 0.0000000000000000e+00  1.5000000000000024e-01 -5.7776379548642983e-16 0.0000000000000000e+00  1.5000000000000047e-01 -4.5906952152267934e-17 0.0000000000000000e+00  1.5000000000000030e-01 2.8513029547955920e-16 0.0000000000000000e+00  1.4999999999999994e-01 2.1285827529907173e-16 0.0000000000000000e+00  1.5000000000000002e-01 -1.2774006482779570e-16 0.0000000000000000e+00  1.5000000000000011e-01 -7.7202192924381334e-16 0.0000000000000000e+00  1.4999999999999991e-01 2.5285825717067118e-16 0.0000000000000000e+00  1.5000000000000008e-01 4.7440831621241024e-16 0.0000000000000000e+00  1.5000000000000027e-01 4.3235147293773581e-16 0.0000000000000000e+00  1.4999999999999999e-01 -5.5157881568550859e-16 0.0000000000000000e+00  1.5000000000000005e-01 2.1639275957404639e-16 0.0000000000000000e+00  1.4999999999999997e-01 -9.8589899334229418e-19 0.0000000000000000e+00  1.5000000000000005e-01 -5.0986438959614075e-16 0.0000000000000000e+00  1.5000000000000002e-01 1.2140203456351418e-16 0.0000000000000000e+00  1.5000000000000008e-01 1.4125185935554969e-16 0.0000000000000000e+00  1.4999999999999999e-01 -1.6334322488403882e-16 0.0000000000000000e+00  1.4999999999999999e-01 -2.0294558565618954e-16 0.0000000000000000e+00  1.4999999999999999e-01 -1.2906301699289182e-17 0.0000000000000000e+00  1.4999999999999997e-01 1.9364355980358818e-16 0.0000000000000000e+00  1.5000000000000008e-01 -1.5758365434959140e-16 0.0000000000000000e+00  1.5000000000000016e-01 -1.6336365285660760e-17 0.0000000000000000e+00  1.4999999999999997e-01 -1.7543724008354706e-19 0.0000000000000000e+00  1.5000000000000011e-01 -8.1219679018493752e-17 0.0000000000000000e+00  1.5000000000000002e-01 1.5971012498540177e-16 0.0000000000000000e+00  1.5000000000000013e-01 2.2395610166432469e-16 0.0000000000000000e+00  1.5000000000000005e-01 1.9229807200172552e-16 0.0000000000000000e+00  1.4999999999999977e-01 4.9849694544649775e-17 0.0000000000000000e+00  1.5000000000000030e-01 -6.4328516909090341e-16 0.0000000000000000e+00  1.5000000000000011e-01 4.0936442208371934e-16 0.0000000000000000e+00  1.5000000000000016e-01 -8.0473638689732866e-18 0.0000000000000000e+00  1.4999999999999986e-01 7.2185189899773249e-17 0.0000000000000000e+00  1.5000000000000008e-01 -9.8339026639815803e-17 0.0000000000000000e+00  1.5000000000000002e-01 9.4964734528351699e-18 0.0000000000000000e+00  1.5000000000000002e-01 -6.3222621466702313e-17 0.0000000000000000e+00  1.5000000000000005e-01 1.3879665282849329e-16 0.0000000000000000e+00  1.5000000000000002e-01 -2.0003224537550848e-17 0.0000000000000000e+00  1.5000000000000008e-01 -1.5157013727126122e-17 0.0000000000000000e+00  1.5000000000000008e-01 -5.3791028108417103e-16 0.0000000000000000e+00  1.5000000000000011e-01 8.5718876307347620e-17 0.0000000000000000e+00  1.5000000000000016e-01 1.6304526130927794e-16 0.0000000000000000e+00  1.5000000000000016e-01 -3.2983286438306009e-16 0.0000000000000000e+00  1.4999999999999999e-01 1.6355184607693324e-17 0.0000000000000000e+00  1.4999999999999994e-01 2.6793456021168778e-16 0.0000000000000000e+00  1.5000000000000005e-01 1.8477568584382583e-16 0.0000000000000000e+00  1.5000000000000005e-01 -3.2998335872366247e-16 0.0000000000000000e+00  1.4999999999999999e-01 1.4930478401423377e-16 0.0000000000000000e+00  1.5000000000000005e-01 3.8023644148907282e-16 0.0000000000000000e+00  1.4999999999999997e-01 7.5805515019615556e-17 0.0000000000000000e+00  1.4999999999999983e-01 -1.6454886452005748e-16 0.0000000000000000e+00  1.5000000000000013e-01 3.6588245187155686e-16 0.0000000000000000e+00  1.5000000000000005e-01 -2.0467050756570019e-16 0.0000000000000000e+00  1.4999999999999994e-01 -2.2217890148398647e-17 0.0000000000000000e+00  1.5000000000000002e-01 -3.3584647413495019e-16 0.0000000000000000e+00  1.5000000000000002e-01 -2.9840081397438407e-16 0.0000000000000000e+00  1.5000000000000005e-01 3.6497810075187064e-16 0.0000000000000000e+00  1.4999999999999999e-01 -8.6980727037028865e-17 0.0000000000000000e+00  1.5000000000000005e-01 -3.3131269145306573e-16 0.0000000000000000e+00  1.4999999999999988e-01 3.5005276337593659e-16 0.0000000000000000e+00  1.4999999999999999e-01 2.9076357112406118e-16 0.0000000000000000e+00  1.4999999999999994e-01 3.5370331735615728e-16 0.0000000000000000e+00  1.5000000000000005e-01 -6.0762116716041450e-16 0.0000000000000000e+00  1.4999999999999994e-01 1.4788862960321386e-16 0.0000000000000000e+00  1.5000000000000008e-01 -5.7645202000945268e-16 0.0000000000000000e+00  1.4999999999999999e-01 1.7848017051309467e-16 0.0000000000000000e+00  1.5000000000000011e-01 8.2574748883376442e-16 0.0000000000000000e+00  1.5000000000000016e-01 1.1089627618633134e-16 0.0000000000000000e+00  1.5000000000000002e-01 -4.3739047754761940e-16 0.0000000000000000e+00  1.5000000000000005e-01 -1.5924117814847787e-16 0.0000000000000000e+00  1.5000000000000008e-01 2.1894724947746257e-16 0.0000000000000000e+00  1.5000000000000016e-01 -1.1440149201033283e-16 0.0000000000000000e+00  1.4999999999999999e-01 -5.7955320353288352e-16 0.0000000000000000e+00  1.5000000000000008e-01 6.5322929239402856e-17 0.0000000000000000e+00  1.5000000000000011e-01 0.0000000000000000e+00 0.0000000000000000e+00  1.4999999999999999e-01 0.0000000000000000e+00 -4.7109837396810298e-16  1.4999999999999999e-01 -1.1542244228401326e-17 -8.1928845250763378e-18  1.5000000000000005e-01 -8.3045464430033431e-17 -2.1112411925212413e-16  1.5000000000000005e-01 -1.0295415030285878e-16 4.4611971697514408e-17  1.5000000000000005e-01 -1.4536833086634040e-16 1.6009083842595961e-16  1.5000000000000008e-01 -1.7618247001846034e-16 -2.1064177181369122e-16  1.5000000000000005e-01 4.2109060741853674e-16 1.6549858224786245e-17  1.5000000000000008e-01 2.8839903404177563e-16 -1.5165290288880383e-16  1.5000000000000002e-01 -4.3690842005317566e-16 -1.8181920293367051e-17  1.5000000000000011e-01 1.3871319097676497e-16 -3.7478013766025071e-16  1.4999999999999999e-01 8.6363520102471966e-17 -1.1599288633821800e-16  1.5000000000000002e-01 3.8507299608864986e-16 1.2322496831656893e-16  1.5000000000000005e-01 -2.5440984309465741e-16 4.0948866369367929e-17  1.4999999999999999e-01 2.7627992494421889e-16 5.4402994409804799e-17  1.4999999999999997e-01 2.0006357666172666e-16 -8.5511955857628241e-17  1.5000000000000008e-01 -1.5888398031110456e-16 1.3834302058104693e-16  1.4999999999999983e-01 6.8185315524203517e-17 7.7355479393203115e-17  1.5000000000000005e-01 -3.7788397608983487e-16 9.9322994537381861e-17  1.5000000000000005e-01 -1.9657238670795937e-16 -1.4798532402588378e-16  1.4999999999999999e-01 1.7326718876043063e-16 -1.5536118124149865e-17  1.4999999999999999e-01 -1.4615960716341446e-16 2.3254163510949530e-16  1.4999999999999974e-01 -4.1047243871848195e-16 -2.5888024054188792e-16  1.4999999999999983e-01 4.2453025025244552e-16 -2.2206875417563918e-16  1.5000000000000055e-01 -3.8371167758707094e-16 1.1853737231410241e-15  1.5000000000000172e-01 -7.0363381857241790e-16 4.7897518638131342e-15  1.5000000000000305e-01 -5.0366816613841858e-16 7.9806472768093555e-15  1.5000000000000333e-01 -4.3022740417970192e-16 8.6965808683746046e-15  1.5000000000000227e-01 4.4741170236708186e-16 5.7413626147882415e-15  1.5000000000000049e-01 9.2368396945523625e-16 7.0040825926450573e-16  1.4999999999999955e-01 7.9703650903984995e-16 -1.6721377362853439e-15  1.4999999999999958e-01 4.0660464645422025e-16 -1.5902314392027016e-15  1.5000000000000005e-01 -7.2172527231981042e-16 -3.6367844805680012e-16  1.5000000000000013e-01 -3.3752406517528905e-16 3.9801717856134798e-16  1.5000000000000011e-01 9.3376023248777023e-17 -1.8758678724647930e-16  1.4999999999999999e-01 1.9631537290883298e-16 -1.6033790404392190e-16  1.5000000000000011e-01 7.2523887308935715e-17 -5.1766523689746784e-18  1.5000000000000008e-01 -3.8824526465574057e-16 -3.2684980716628749e-16  1.5000000000000005e-01 3.8848666535805177e-16 -3.0043219641586183e-16  1.5000000000000002e-01 3.0249464014155035e-16 1.6954429339713030e-16  1.5000000000000002e-01 -1.0784380842225829e-16 -1.4453390236363816e-16  1.5000000000000005e-01 -3.9010766268011994e-16 1.4618845010631700e-16  1.5000000000000008e-01 8.8143736482798973e-17 1.5415681697046310e-16  1.5000000000000005e-01 -1.0803985963554242e-16 -9.6718156558404058e-17  1.5000000000000011e-01 1.3890960353813017e-16 1.0725695214255028e-16  1.5000000000000011e-01 -2.6019557196430288e-16 -2.2567463876427649e-16  1.5000000000000013e-01 4.3559320920806925e-17 4.0331980070930266e-16  1.5000000000000011e-01 3.1188705138634995e-17 1.2119097742000164e-16  1.5000000000000027e-01 -7.9840542695577460e-17 -1.8127640354124758e-16  1.5000000000000002e-01 2.2136160665855409e-16 1.1496352867273966e-16  1.5000000000000011e-01 1.6894423276737029e-17 -3.5776658530759108e-16  1.5000000000000016e-01 1.3484812459152127e-16 -4.7218177128833082e-17  1.5000000000000002e-01 1.6609757229481560e-16 2.3399961334293375e-16  1.5000000000000008e-01 -1.6531811303155894e-16 -3.8414307430366427e-17  1.5000000000000008e-01 4.2700729906978282e-16 -2.2648171643467956e-16  1.4999999999999999e-01 -5.3367724439919698e-17 -6.0195998974299819e-17  1.5000000000000005e-01 -2.4519166791818009e-16 -2.6844735517160006e-16  1.4999999999999994e-01 -7.8062375561555809e-17 1.5845552967304610e-16  1.5000000000000002e-01 1.5245916353209339e-16 -1.7446456847041078e-16  1.5000000000000005e-01 -1.5951507833441609e-16 -9.9431343206886314e-17  1.5000000000000002e-01 1.5732417693289194e-16 2.8536745738080891e-18  1.5000000000000002e-01 -3.2340162237392898e-16 -7.1522855968992072e-17  1.5000000000000008e-01 -3.1643890343045727e-17 -2.7400278071788616e-16  1.5000000000000005e-01 9.1434429672556872e-17 -9.3246250412662442e-17  1.5000000000000008e-01 -2.6523295769307961e-16 1.0954488208218050e-16  1.5000000000000013e-01 -1.1080782701109473e-16 -2.2016147012523891e-16  1.5000000000000008e-01 -1.6443752475475184e-16 1.2946322800007939e-16  1.5000000000000011e-01 -1.0869719969448228e-16 2.1067115301994280e-16  1.5000000000000024e-01 1.4152340481974142e-16 -1.1636811627925493e-16  1.5000000000000008e-01 2.1047924340724953e-16 -5.8683098764340045e-17  1.5000000000000002e-01 1.0659852686686294e-16 1.7877244013502804e-16  1.5000000000000022e-01 3.3807873940783293e-16 1.1828169621311815e-16  1.5000000000000005e-01 -9.3032850568578730e-17 1.2511092241851859e-16  1.5000000000000005e-01 -2.5868441319868793e-17 7.4188533909357628e-17  1.4999999999999999e-01 -3.6503322407476884e-17 2.8675792761230774e-16  1.5000000000000002e-01 1.7762773231501439e-16 1.3488441501288923e-16  1.5000000000000005e-01 -1.9283689985347755e-16 -2.3196123114208008e-16  1.5000000000000005e-01 -1.3014599494781891e-16 -2.9123529303253918e-16  1.5000000000000016e-01 -1.8206810288718722e-16 3.8711607967294038e-18  1.5000000000000016e-01 -1.0306447401565553e-16 -9.6734559889670420e-17  1.5000000000000013e-01 -2.1887740793733969e-18 -5.8996511379311494e-17  1.5000000000000005e-01 5.1390078045326516e-16 -3.7067859784949501e-16  1.4999999999999997e-01 1.3788564719089760e-16 9.4341566972175606e-17  1.5000000000000013e-01 -9.0582702073245988e-17 3.5235953229554348e-16  1.5000000000000008e-01 6.8019013321967794e-17 -2.2018525194980630e-16  1.5000000000000005e-01 -3.0510518122615557e-16 5.8178627503936991e-18  1.5000000000000008e-01 -1.9718705401934785e-16 2.1261182660740722e-16  1.5000000000000005e-01 5.2463293251815531e-16 1.0968702462004329e-16  1.5000000000000005e-01 -1.6374653863416466e-16 1.3575340986193173e-16  1.5000000000000008e-01 -2.9561844756690584e-17 1.9070342011056176e-16  1.4999999999999999e-01 -2.5685917704220291e-16 3.8726129329365478e-16  1.5000000000000005e-01 -1.3787568555280092e-17 1.7997394353921277e-16  1.5000000000000008e-01 3.5114182661873729e-16 2.6019470586720206e-17  1.5000000000000005e-01 4.1324957873210340e-16 -7.2679005731426703e-17  1.5000000000000005e-01 3.6681576296634014e-16 -5.3597551929191934e-16  1.5000000000000005e-01 -9.3693094648313546e-16 -1.4622657136815294e-16  1.5000000000000005e-01 -3.1776921893962705e-16 2.1034437946657298e-16  1.4999999999999999e-01 2.2682918606570200e-16 -2.5520052419355335e-16  1.5000000000000002e-01 6.3677449973533714e-16 -4.1189347787321758e-16  1.5000000000000016e-01 -4.0499111950385740e-17 1.7819363779183993e-16  1.5000000000000005e-01 -2.0474407144406055e-16 -1.3452106512753053e-16  1.4999999999999999e-01 0.0000000000000000e+00 2.6771194530662561e-16  1.5000000000000011e-01 0.0000000000000000e+00 8.0985820006100987e-17  1.5000000000000013e-01 -5.0221425449844604e-16 5.7339799060147738e-17  1.5000000000000008e-01 3.4114144827968955e-17 -5.5716104829855815e-16  1.5000000000000005e-01 5.3899072727924958e-16 -1.0425331169979090e-17  1.5000000000000013e-01 -1.6366694566899059e-16 -2.8425431892873137e-16  1.5000000000000008e-01 -3.8774212145511367e-16 -1.9917020096738383e-16  1.4999999999999999e-01 2.7976024355828031e-17 -1.9044626718747392e-16  1.5000000000000005e-01 3.8160192260252848e-16 -4.6122685668935063e-16  1.5000000000000008e-01 4.3822053872685630e-16 -5.8010927613248320e-16  1.4999999999999999e-01 -1.2988356836153302e-16 2.1652387223751948e-16  1.5000000000000002e-01 8.8364177474953162e-18 2.1532138756298974e-16  1.5000000000000005e-01 6.1733972678765613e-17 -3.3254589111819490e-16  1.4999999999999994e-01 -4.7522927219264250e-16 -6.4040852834593808e-17  1.4999999999999991e-01 2.6337792993427426e-16 -3.8346866460338134e-16  1.5000000000000005e-01 -3.7383305673400225e-16 -1.8144778513102100e-16  1.4999999999999988e-01 -1.0246485484577926e-16 -6.5184749920724300e-16  1.5000000000000008e-01 4.2154649083894352e-16 -8.9343865234369946e-16  1.5000000000000008e-01 -1.1610897635375310e-16 -6.3057784382638577e-16  1.5000000000000002e-01 1.1931195830077363e-17 -2.7619296294437419e-16  1.5000000000000002e-01 -2.0408611896379502e-16 1.1799389317935858e-17  1.5000000000000011e-01 -1.4049862135570915e-16 -2.6539861806429674e-16  1.5000000000000047e-01 -4.7719982548078341e-17 7.4766879426839442e-16  1.5000000000000047e-01 5.0985188380033460e-16 1.2317900940400228e-15  1.4999999999999988e-01 6.3700704421978818e-16 -5.7446733847608918e-16  1.4999999999999791e-01 1.7573533221879543e-15 -8.1112178588927009e-15  1.4999999999999475e-01 1.1429890520324355e-15 -1.8504172603944869e-14  1.4999999999999294e-01 7.4736758989855140e-16 -2.4833293874879069e-14  1.4999999999999389e-01 -9.5059446585988394e-16 -2.0761570959910927e-14  1.4999999999999766e-01 -2.1632182738460799e-15 -8.5460034958698341e-15  1.5000000000000024e-01 -1.4146043121372584e-15 1.8177396898378917e-15  1.5000000000000124e-01 -5.8621781753891272e-16 4.2467507303018108e-15  1.5000000000000058e-01 2.7755921436486029e-16 1.7383725276519693e-15  1.4999999999999986e-01 7.9907812764344055e-16 -8.6910905532971774e-16  1.4999999999999988e-01 -2.5323218100473370e-16 -6.1046510692601981e-16  1.5000000000000005e-01 -3.2843719136897258e-16 5.8992074933130933e-16  1.5000000000000002e-01 -1.6772518838479970e-16 -4.6370170287544486e-17  1.5000000000000008e-01 4.9789626768039508e-16 -2.7212693811232202e-16  1.4999999999999997e-01 5.3154643025204755e-16 3.0970192200395892e-16  1.5000000000000008e-01 -1.9549159542568949e-16 -1.3536123572559085e-16  1.4999999999999991e-01 -2.5498395224375508e-16 -1.7853766791785083e-16  1.5000000000000005e-01 3.9788215616255412e-17 -2.0836731283853531e-16  1.4999999999999999e-01 -1.7108814748951707e-16 -2.1462087323777601e-16  1.5000000000000005e-01 7.1718045825805990e-17 1.6904648232396359e-16  1.5000000000000005e-01 -1.4428410741093923e-16 -2.3828729631464377e-16  1.4999999999999999e-01 -1.0057918995236278e-16 -7.8909523276272900e-17  1.5000000000000008e-01 3.4161698450393421e-16 1.4305803929595395e-16  1.4999999999999991e-01 -2.5941272482678834e-16 -1.8164363692042329e-16  1.4999999999999999e-01 -5.2961017170159929e-17 2.3108252079407428e-16  1.5000000000000008e-01 1.3467545833636202e-16 9.0081670302744560e-17  1.5000000000000011e-01 -7.2989312715882707e-16 1.4862027660932196e-16  1.5000000000000002e-01 7.0308617013257641e-16 -1.8703982017052578e-16  1.5000000000000008e-01 -1.6643020769441934e-16 -1.6164971055789222e-16  1.5000000000000002e-01 1.8744083832387781e-17 -3.7847161781172669e-16  1.4999999999999999e-01 2.2646424580509449e-16 -7.6415883584337096e-17  1.5000000000000005e-01 -2.0984163675530278e-16 -5.1789774966917965e-16  1.5000000000000005e-01 1.0903710450440728e-17 -3.8318405109276184e-16  1.5000000000000002e-01 -7.8468547794234467e-17 1.1627303109479335e-16  1.5000000000000011e-01 2.6340825474088818e-16 -1.7822793048276413e-16  1.5000000000000016e-01 2.4260849974311590e-18 3.1122503097770256e-16  1.5000000000000002e-01 -9.2292327207657410e-17 -1.5989130179462433e-16  1.5000000000000016e-01 -1.5992586886369026e-16 -3.4316912555500992e-16  1.4999999999999994e-01 -1.6288702022839470e-16 5.5604638179515241e-17  1.5000000000000005e-01 3.0564240327296500e-16 -2.7888711606076958e-16  1.5000000000000005e-01 1.4765694915190945e-16 -1.9259981946001810e-16  1.5000000000000002e-01 4.6137355611919852e-17 4.3438926794145093e-16  1.5000000000000002e-01 -1.0074120989686650e-16 4.3527273534649899e-16  1.5000000000000005e-01 -1.8657442778439368e-16 8.5038369061836699e-17  1.5000000000000005e-01 4.5874488228962259e-17 4.8834427051001503e-16  1.5000000000000005e-01 -1.4860218158647653e-16 2.3580995374344663e-16  1.5000000000000002e-01 1.7507815885882505e-16 -8.4919129487926774e-17  1.5000000000000013e-01 9.4570866104242546e-17 2.7846714023303448e-16  1.5000000000000005e-01 -1.9638043038533362e-16 2.7865230286838668e-17  1.5000000000000005e-01 2.8084376414575910e-16 -2.3924163076820692e-16  1.5000000000000002e-01 -2.0593618634549245e-16 6.2065865498292393e-17  1.5000000000000005e-01 9.8400206162506543e-17 -4.1481776692397442e-16  1.5000000000000005e-01 -1.5530530400281154e-16 -7.6384316574115541e-17  1.5000000000000027e-01 -1.1452622890897125e-16 8.3740135515070538e-17  1.5000000000000002e-01 2.4233198612174218e-16 -2.1893124227586385e-16  1.4999999999999999e-01 3.4654300035256616e-16 -1