<?xml version="1.0"?>
<VTKFile type="UnstructuredGrid"  version="0.1"  >
<UnstructuredGrid>
<Piece  NumberOfPoints="10201" NumberOfCells="20000">
<Points>
<DataArray  type="Float64"  NumberOfComponents="3"  format="ascii">-5 -5 0  -4.9 -5 0  -4.8 -5 0  -4.7 -5 0  -4.6 -5 0  -4.5 -5 0  -4.4 -5 0  -4.3 -5 0  -4.2 -5 0  -4.1 -5 0  -4 -5 0  -3.9 -5 0  -3.8 -5 0  -3.7 -5 0  -3.6 -5 0  -3.5 -5 0  -3.4 -5 0  -3.3 -5 0  -3.2 -5 0  -3.1 -5 0  -3 -5 0  -2.9 -5 0  -2.8 -5 0  -2.7 -5 0  -2.6 -5 0  -2.5 -5 0  -2.4 -5 0  -2.3 -5 0  -2.2 -5 0  -2.1 -5 0  -2 -5 0  -1.9 -5 0  -1.8 -5 0  -1.7 -5 0  -1.6 -5 0  -1.5 -5 0  -1.4 -5 0  -1.3 -5 0  -1.2 -5 0  -1.1 -5 0  -1 -5 0  -0.9000000000000004 -5 0  -0.7999999999999998 -5 0  -0.7000000000000002 -5 0  -0.5999999999999996 -5 0  -0.5 -5 0  -0.4000000000000004 -5 0  -0.2999999999999998 -5 0  -0.2000000000000002 -5 0  -0.09999999999999964 -5 0  0 -5 0  0.09999999999999964 -5 0  0.2000000000000002 -5 0  0.2999999999999998 -5 0  0.4000000000000004 -5 0  0.5 -5 0  0.5999999999999996 -5 0  0.7000000000000002 -5 0  0.7999999999999998 -5 0  0.9000000000000004 -5 0  1 -5 0  1.1 -5 0  1.2 -5 0  1.3 -5 0  1.4 -5 0  1.5 -5 0  1.6 -5 0  1.7 -5 0  1.8 -5 0  1.9 -5 0  2 -5 0  2.1 -5 0  2.2 -5 0  2.3 -5 0  2.4 -5 0  2.5 -5 0  2.6 -5 0  2.7 -5 0  2.8 -5 0  2.9 -5 0  3 -5 0  3.1 -5 0  3.199999999999999 -5 0  3.300000000000001 -5 0  3.4 -5 0  3.5 -5 0  3.6 -5 0  3.699999999999999 -5 0  3.800000000000001 -5 0  3.9 -5 0  4 -5 0  4.1 -5 0  4.199999999999999 -5 0  4.300000000000001 -5 0  4.4 -5 0  4.5 -5 0  4.6 -5 0  4.699999999999999 -5 0  4.800000000000001 -5 0  4.9 -5 0  5 -5 0  -5 -4.9 0  -4.9 -4.9 0  -4.8 -4.9 0  -4.7 -4.9 0  -4.6 -4.9 0  -4.5 -4.9 0  -4.4 -4.9 0  -4.3 -4.9 0  -4.2 -4.9 0  -4.1 -4.9 0  -4 -4.9 0  -3.9 -4.9 0  -3.8 -4.9 0  -3.7 -4.9 0  -3.6 -4.9 0  -3.5 -4.9 0  -3.4 -4.9 0  -3.3 -4.9 0  -3.2 -4.9 0  -3.1 -4.9 0  -3 -4.9 0  -2.9 -4.9 0  -2.8 -4.9 0  -2.7 -4.9 0  -2.6 -4.9 0  -2.5 -4.9 0  -2.4 -4.9 0  -2.3 -4.9 0  -2.2 -4.9 0  -2.1 -4.9 0  -2 -4.9 0  -1.9 -4.9 0  -1.8 -4.9 0  -1.7 -4.9 0  -1.6 -4.9 0  -1.5 -4.9 0  -1.4 -4.9 0  -1.3 -4.9 0  -1.2 -4.9 0  -1.1 -4.9 0  -1 -4.9 0  -0.9000000000000004 -4.9 0  -0.7999999999999998 -4.9 0  -0.7000000000000002 -4.9 0  -0.5999999999999996 -4.9 0  -0.5 -4.9 0  -0.4000000000000004 -4.9 0  -0.2999999999999998 -4.9 0  -0.2000000000000002 -4.9 0  -0.09999999999999964 -4.9 0  0 -4.9 0  0.09999999999999964 -4.9 0  0.2000000000000002 -4.9 0  0.2999999999999998 -4.9 0  0.4000000000000004 -4.9 0  0.5 -4.9 0  0.5999999999999996 -4.9 0  0.7000000000000002 -4.9 0  0.7999999999999998 -4.9 0  0.9000000000000004 -4.9 0  1 -4.9 0  1.1 -4.9 0  1.2 -4.9 0  1.3 -4.9 0  1.4 -4.9 0  1.5 -4.9 0  1.6 -4.9 0  1.7 -4.9 0  1.8 -4.9 0  1.9 -4.9 0  2 -4.9 0  2.1 -4.9 0  2.2 -4.9 0  2.3 -4.9 0  2.4 -4.9 0  2.5 -4.9 0  2.6 -4.9 0  2.7 -4.9 0  2.8 -4.9 0  2.9 -4.9 0  3 -4.9 0  3.1 -4.9 0  3.199999999999999 -4.9 0  3.300000000000001 -4.9 0  3.4 -4.9 0  3.5 -4.9 0  3.6 -4.9 0  3.699999999999999 -4.9 0  3.800000000000001 -4.9 0  3.9 -4.9 0  4 -4.9 0  4.1 -4.9 0  4.199999999999999 -4.9 0  4.300000000000001 -4.9 0  4.4 -4.9 0  4.5 -4.9 0  4.6 -4.9 0  4.699999999999999 -4.9 0  4.800000000000001 -4.9 0  4.9 -4.9 0  5 -4.9 0  -5 -4.8 0  -4.9 -4.8 0  -4.8 -4.8 0  -4.7 -4.8 0  -4.6 -4.8 0  -4.5 -4.8 0  -4.4 -4.8 0  -4.3 -4.8 0  -4.2 -4.8 0  -4.1 -4.8 0  -4 -4.8 0  -3.9 -4.8 0  -3.8 -4.8 0  -3.7 -4.8 0  -3.6 -4.8 0  -3.5 -4.8 0  -3.4 -4.8 0  -3.3 -4.8 0  -3.2 -4.8 0  -3.1 -4.8 0  -3 -4.8 0  -2.9 -4.8 0  -2.8 -4.8 0  -2.7 -4.8 0  -2.6 -4.8 0  -2.5 -4.8 0  -2.4 -4.8 0  -2.3 -4.8 0  -2.2 -4.8 0  -2.1 -4.8 0  -2 -4.8 0  -1.9 -4.8 0  -1.8 -4.8 0  -1.7 -4.8 0  -1.6 -4.8 0  -1.5 -4.8 0  -1.4 -4.8 0  -1.3 -4.8 0  -1.2 -4.8 0  -1.1 -4.8 0  -1 -4.8 0  -0.9000000000000004 -4.8 0  -0.7999999999999998 -4.8 0  -0.7000000000000002 -4.8 0  -0.5999999999999996 -4.8 0  -0.5 -4.8 0  -0.4000000000000004 -4.8 0  -0.2999999999999998 -4.8 0  -0.2000000000000002 -4.8 0  -0.09999999999999964 -4.8 0  0 -4.8 0  0.09999999999999964 -4.8 0  0.2000000000000002 -4.8 0  0.2999999999999998 -4.8 0  0.4000000000000004 -4.8 0  0.5 -4.8 0  0.5999999999999996 -4.8 0  0.7000000000000002 -4.8 0  0.7999999999999998 -4.8 0  0.9000000000000004 -4.8 0  1 -4.8 0  1.1 -4.8 0  1.2 -4.8 0  1.3 -4.8 0  1.4 -4.8 0  1.5 -4.8 0  1.6 -4.8 0  1.7 -4.8 0  1.8 -4.8 0  1.9 -4.8 0  2 -4.8 0  2.1 -4.8 0  2.2 -4.8 0  2.3 -4.8 0  2.4 -4.8 0  2.5 -4.8 0  2.6 -4.8 0  2.7 -4.8 0  2.8 -4.8 0  2.9 -4.8 0  3 -4.8 0  3.1 -4.8 0  3.199999999999999 -4.8 0  3.300000000000001 -4.8 0  3.4 -4.8 0  3.5 -4.8 0  3.6 -4.8 0  3.699999999999999 -4.8 0  3.800000000000001 -4.8 0  3.9 -4.8 0  4 -4.8 0  4.1 -4.8 0  4.199999999999999 -4.8 0  4.300000000000001 -4.8 0  4.4 -4.8 0  4.5 -4.8 0  4.6 -4.8 0  4.699999999999999 -4.8 0  4.800000000000001 -4.8 0  4.9 -4.8 0  5 -4.8 0  -5 -4.7 0  -4.9 -4.7 0  -4.8 -4.7 0  -4.7 -4.7 0  -4.6 -4.7 0  -4.5 -4.7 0  -4.4 -4.7 0  -4.3 -4.7 0  -4.2 -4.7 0  -4.1 -4.7 0  -4 -4.7 0  -3.9 -4.7 0  -3.8 -4.7 0  -3.7 -4.7 0  -3.6 -4.7 0  -3.5 -4.7 0  -3.4 -4.7 0  -3.3 -4.7 0  -3.2 -4.7 0  -3.1 -4.7 0  -3 -4.7 0  -2.9 -4.7 0  -2.8 -4.7 0  -2.7 -4.7 0  -2.6 -4.7 0  -2.5 -4.7 0  -2.4 -4.7 0  -2.3 -4.7 0  -2.2 -4.7 0  -2.1 -4.7 0  -2 -4.7 0  -1.9 -4.7 0  -1.8 -4.7 0  -1.7 -4.7 0  -1.6 -4.7 0  -1.5 -4.7 0  -1.4 -4.7 0  -1.3 -4.7 0  -1.2 -4.7 0  -1.1 -4.7 0  -1 -4.7 0  -0.9000000000000004 -4.7 0  -0.7999999999999998 -4.7 0  -0.7000000000000002 -4.7 0  -0.5999999999999996 -4.7 0  -0.5 -4.7 0  -0.4000000000000004 -4.7 0  -0.2999999999999998 -4.7 0  -0.2000000000000002 -4.7 0  -0.09999999999999964 -4.7 0  0 -4.7 0  0.09999999999999964 -4.7 0  0.2000000000000002 -4.7 0  0.2999999999999998 -4.7 0  0.4000000000000004 -4.7 0  0.5 -4.7 0  0.5999999999999996 -4.7 0  0.7000000000000002 -4.7 0  0.7999999999999998 -4.7 0  0.9000000000000004 -4.7 0  1 -4.7 0  1.1 -4.7 0  1.2 -4.7 0  1.3 -4.7 0  1.4 -4.7 0  1.5 -4.7 0  1.6 -4.7 0  1.7 -4.7 0  1.8 -4.7 0  1.9 -4.7 0  2 -4.7 0  2.1 -4.7 0  2.2 -4.7 0  2.3 -4.7 0  2.4 -4.7 0  2.5 -4.7 0  2.6 -4.7 0  2.7 -4.7 0  2.8 -4.7 0  2.9 -4.7 0  3 -4.7 0  3.1 -4.7 0  3.199999999999999 -4.7 0  3.300000000000001 -4.7 0  3.4 -4.7 0  3.5 -4.7 0  3.6 -4.7 0  3.699999999999999 -4.7 0  3.800000000000001 -4.7 0  3.9 -4.7 0  4 -4.7 0  4.1 -4.7 0  4.199999999999999 -4.7 0  4.300000000000001 -4.7 0  4.4 -4.7 0  4.5 -4.7 0  4.6 -4.7 0  4.699999999999999 -4.7 0  4.800000000000001 -4.7 0  4.9 -4.7 0  5 -4.7 0  -5 -4.6 0  -4.9 -4.6 0  -4.8 -4.6 0  -4.7 -4.6 0  -4.6 -4.6 0  -4.5 -4.6 0  -4.4 -4.6 0  -4.3 -4.6 0  -4.2 -4.6 0  -4.1 -4.6 0  -4 -4.6 0  -3.9 -4.6 0  -3.8 -4.6 0  -3.7 -4.6 0  -3.6 -4.6 0  -3.5 -4.6 0  -3.4 -4.6 0  -3.3 -4.6 0  -3.2 -4.6 0  -3.1 -4.6 0  -3 -4.6 0  -2.9 -4.6 0  -2.8 -4.6 0  -2.7 -4.6 0  -2.6 -4.6 0  -2.5 -4.6 0  -2.4 -4.6 0  -2.3 -4.6 0  -2.2 -4.6 0  -2.1 -4.6 0  -2 -4.6 0  -1.9 -4.6 0  -1.8 -4.6 0  -1.7 -4.6 0  -1.6 -4.6 0  -1.5 -4.6 0  -1.4 -4.6 0  -1.3 -4.6 0  -1.2 -4.6 0  -1.1 -4.6 0  -1 -4.6 0  -0.9000000000000004 -4.6 0  -0.7999999999999998 -4.6 0  -0.7000000000000002 -4.6 0  -0.5999999999999996 -4.6 0  -0.5 -4.6 0  -0.4000000000000004 -4.6 0  -0.2999999999999998 -4.6 0  -0.2000000000000002 -4.6 0  -0.09999999999999964 -4.6 0  0 -4.6 0  0.09999999999999964 -4.6 0  0.2000000000000002 -4.6 0  0.2999999999999998 -4.6 0  0.4000000000000004 -4.6 0  0.5 -4.6 0  0.5999999999999996 -4.6 0  0.7000000000000002 -4.6 0  0.7999999999999998 -4.6 0  0.9000000000000004 -4.6 0  1 -4.6 0  1.1 -4.6 0  1.2 -4.6 0  1.3 -4.6 0  1.4 -4.6 0  1.5 -4.6 0  1.6 -4.6 0  1.7 -4.6 0  1.8 -4.6 0  1.9 -4.6 0  2 -4.6 0  2.1 -4.6 0  2.2 -4.6 0  2.3 -4.6 0  2.4 -4.6 0  2.5 -4.6 0  2.6 -4.6 0  2.7 -4.6 0  2.8 -4.6 0  2.9 -4.6 0  3 -4.6 0  3.1 -4.6 0  3.199999999999999 -4.6 0  3.300000000000001 -4.6 0  3.4 -4.6 0  3.5 -4.6 0  3.6 -4.6 0  3.699999999999999 -4.6 0  3.800000000000001 -4.6 0  3.9 -4.6 0  4 -4.6 0  4.1 -4.6 0  4.199999999999999 -4.6 0  4.300000000000001 -4.6 0  4.4 -4.6 0  4.5 -4.6 0  4.6 -4.6 0  4.699999999999999 -4.6 0  4.800000000000001 -4.6 0  4.9 -4.6 0  5 -4.6 0  -5 -4.5 0  -4.9 -4.5 0  -4.8 -4.5 0  -4.7 -4.5 0  -4.6 -4.5 0  -4.5 -4.5 0  -4.4 -4.5 0  -4.3 -4.5 0  -4.2 -4.5 0  -4.1 -4.5 0  -4 -4.5 0  -3.9 -4.5 0  -3.8 -4.5 0  -3.7 -4.5 0  -3.6 -4.5 0  -3.5 -4.5 0  -3.4 -4.5 0  -3.3 -4.5 0  -3.2 -4.5 0  -3.1 -4.5 0  -3 -4.5 0  -2.9 -4.5 0  -2.8 -4.5 0  -2.7 -4.5 0  -2.6 -4.5 0  -2.5 -4.5 0  -2.4 -4.5 0  -2.3 -4.5 0  -2.2 -4.5 0  -2.1 -4.5 0  -2 -4.5 0  -1.9 -4.5 0  -1.8 -4.5 0  -1.7 -4.5 0  -1.6 -4.5 0  -1.5 -4.5 0  -1.4 -4.5 0  -1.3 -4.5 0  -1.2 -4.5 0  -1.1 -4.5 0  -1 -4.5 0  -0.9000000000000004 -4.5 0  -0.7999999999999998 -4.5 0  -0.7000000000000002 -4.5 0  -0.5999999999999996 -4.5 0  -0.5 -4.5 0  -0.4000000000000004 -4.5 0  -0.2999999999999998 -4.5 0  -0.2000000000000002 -4.5 0  -0.09999999999999964 -4.5 0  0 -4.5 0  0.09999999999999964 -4.5 0  0.2000000000000002 -4.5 0  0.2999999999999998 -4.5 0  0.4000000000000004 -4.5 0  0.5 -4.5 0  0.5999999999999996 -4.5 0  0.7000000000000002 -4.5 0  0.7999999999999998 -4.5 0  0.9000000000000004 -4.5 0  1 -4.5 0  1.1 -4.5 0  1.2 -4.5 0  1.3 -4.5 0  1.4 -4.5 0  1.5 -4.5 0  1.6 -4.5 0  1.7 -4.5 0  1.8 -4.5 0  1.9 -4.5 0  2 -4.5 0  2.1 -4.5 0  2.2 -4.5 0  2.3 -4.5 0  2.4 -4.5 0  2.5 -4.5 0  2.6 -4.5 0  2.7 -4.5 0  2.8 -4.5 0  2.9 -4.5 0  3 -4.5 0  3.1 -4.5 0  3.199999999999999 -4.5 0  3.300000000000001 -4.5 0  3.4 -4.5 0  3.5 -4.5 0  3.6 -4.5 0  3.699999999999999 -4.5 0  3.800000000000001 -4.5 0  3.9 -4.5 0  4 -4.5 0  4.1 -4.5 0  4.199999999999999 -4.5 0  4.300000000000001 -4.5 0  4.4 -4.5 0  4.5 -4.5 0  4.6 -4.5 0  4.699999999999999 -4.5 0  4.800000000000001 -4.5 0  4.9 -4.5 0  5 -4.5 0  -5 -4.4 0  -4.9 -4.4 0  -4.8 -4.4 0  -4.7 -4.4 0  -4.6 -4.4 0  -4.5 -4.4 0  -4.4 -4.4 0  -4.3 -4.4 0  -4.2 -4.4 0  -4.1 -4.4 0  -4 -4.4 0  -3.9 -4.4 0  -3.8 -4.4 0  -3.7 -4.4 0  -3.6 -4.4 0  -3.5 -4.4 0  -3.4 -4.4 0  -3.3 -4.4 0  -3.2 -4.4 0  -3.1 -4.4 0  -3 -4.4 0  -2.9 -4.4 0  -2.8 -4.4 0  -2.7 -4.4 0  -2.6 -4.4 0  -2.5 -4.4 0  -2.4 -4.4 0  -2.3 -4.4 0  -2.2 -4.4 0  -2.1 -4.4 0  -2 -4.4 0  -1.9 -4.4 0  -1.8 -4.
[...]
<PointData  Vectors="f_17"> 
<DataArray  type="Float64"  Name="f_17"  NumberOfComponents="3" format="ascii">1.5000000000000022e-01 0.0000000000000000e+00 0.0000000000000000e+00  1.5000000000000005e-01 5.7443810409399859e-17 0.0000000000000000e+00  1.5000000000000005e-01 2.2885369840624978e-18 0.0000000000000000e+00  1.5000000000000011e-01 -9.9123462803119940e-17 0.0000000000000000e+00  1.5000000000000011e-01 5.1130168524644778e-16 0.0000000000000000e+00  1.4999999999999999e-01 5.2023990738416937e-17 0.0000000000000000e+00  1.5000000000000030e-01 -1.2561241862009006e-16 0.0000000000000000e+00  1.4999999999999966e-01 3.4207377885109372e-16 0.0000000000000000e+00  1.5000000000000008e-01 4.6341190653502777e-17 0.0000000000000000e+00  1.5000000000000013e-01 1.7089056626347272e-17 0.0000000000000000e+00  1.5000000000000002e-01 -4.8091270521291392e-17 0.0000000000000000e+00  1.4999999999999999e-01 3.3110144535352957e-16 0.0000000000000000e+00  1.4999999999999994e-01 -1.1821322839826422e-16 0.0000000000000000e+00  1.4999999999999988e-01 4.2481479672086458e-16 0.0000000000000000e+00  1.4999999999999900e-01 1.6322221314570945e-15 0.0000000000000000e+00  1.4999999999999655e-01 1.3426475614519092e-15 0.0000000000000000e+00  1.4999999999999500e-01 -1.3991194233128291e-15 0.0000000000000000e+00  1.4999999999999983e-01 -1.9902573334722438e-14 0.0000000000000000e+00  1.5000000000002311e-01 -4.4463883447186638e-14 0.0000000000000000e+00  1.5000000000005556e-01 2.4269938286944546e-14 0.0000000000000000e+00  1.4999999999994745e-01 3.7714927663268312e-13 0.0000000000000000e+00  1.4999999999932198e-01 1.0477064861999069e-12 0.0000000000000000e+00  1.4999999999785948e-01 1.6260300756145909e-12 0.0000000000000000e+00  1.4999999999597813e-01 1.4043319072295176e-12 0.0000000000000000e+00  1.4999999999504199e-01 1.1410662588765752e-13 0.0000000000000000e+00  1.4999999999622665e-01 -1.5246750346408604e-12 0.0000000000000000e+00  1.4999999999896599e-01 -2.2697589497917977e-12 0.0000000000000000e+00  1.5000000000116037e-01 -1.5755137031954754e-12 0.0000000000000000e+00  1.5000000000138983e-01 -1.8417528354645925e-13 0.0000000000000000e+00  1.5000000000036670e-01 6.6677952303365137e-13 0.0000000000000000e+00  1.4999999999969030e-01 5.2840414085686878e-13 0.0000000000000000e+00  1.4999999999982078e-01 7.2337510063361965e-15 0.0000000000000000e+00  1.5000000000007188e-01 -1.8859176013614393e-13 0.0000000000000000e+00  1.5000000000002350e-01 -3.9019193741625436e-14 0.0000000000000000e+00  1.4999999999993938e-01 6.2655776127955421e-14 0.0000000000000000e+00  1.5000000000000754e-01 2.0144268786248897e-15 0.0000000000000000e+00  1.5000000000005409e-01 -3.7698387452996862e-14 0.0000000000000000e+00  1.4999999999999428e-01 9.1165726920337387e-15 0.0000000000000000e+00  1.4999999999996325e-01 2.7753214249349977e-14 0.0000000000000000e+00  1.5000000000000357e-01 -7.7801678904597063e-15 0.0000000000000000e+00  1.5000000000002134e-01 -1.8333815441876328e-14 0.0000000000000000e+00  1.4999999999999686e-01 5.7066615156255888e-15 0.0000000000000000e+00  1.4999999999998909e-01 9.9923228330863932e-15 0.0000000000000000e+00  1.5000000000000321e-01 -4.1930643155495303e-15 0.0000000000000000e+00  1.5000000000000505e-01 -5.0218381251945204e-15 0.0000000000000000e+00  1.4999999999999758e-01 3.1387027390972649e-15 0.0000000000000000e+00  1.4999999999999847e-01 1.7333358507437525e-15 0.0000000000000000e+00  1.5000000000000152e-01 -2.4175733480108901e-15 0.0000000000000000e+00  1.5000000000000036e-01 -2.9980218112880258e-16 0.0000000000000000e+00  1.4999999999999947e-01 9.9634955328924507e-16 0.0000000000000000e+00  1.5000000000000016e-01 3.3814859058007556e-17 0.0000000000000000e+00  1.5000000000000038e-01 4.2479316548874014e-17 0.0000000000000000e+00  1.4999999999999974e-01 3.3731575219727695e-16 0.0000000000000000e+00  1.5000000000000005e-01 -5.6204743565620763e-16 0.0000000000000000e+00  1.5000000000000033e-01 2.1067949025602569e-16 0.0000000000000000e+00  1.4999999999999988e-01 -1.0364479739660801e-16 0.0000000000000000e+00  1.4999999999999999e-01 -2.4828331175579647e-16 0.0000000000000000e+00  1.5000000000000011e-01 -4.7302172647604278e-17 0.0000000000000000e+00  1.5000000000000036e-01 3.6466257023066221e-16 0.0000000000000000e+00  1.5000000000000002e-01 4.1737040547010538e-16 0.0000000000000000e+00  1.5000000000000002e-01 -1.2338489891736429e-16 0.0000000000000000e+00  1.5000000000000002e-01 -2.6875054298609442e-17 0.0000000000000000e+00  1.5000000000000005e-01 7.5882844508325929e-17 0.0000000000000000e+00  1.5000000000000002e-01 -1.5349549097572544e-16 0.0000000000000000e+00  1.5000000000000008e-01 -1.2853310077024943e-16 0.0000000000000000e+00  1.5000000000000008e-01 -6.5256776039002760e-16 0.0000000000000000e+00  1.5000000000000008e-01 -2.5964062126360312e-17 0.0000000000000000e+00  1.5000000000000008e-01 -4.5006017270559592e-16 0.0000000000000000e+00  1.5000000000000013e-01 7.1178747046492418e-16 0.0000000000000000e+00  1.5000000000000002e-01 4.8592582287820620e-17 0.0000000000000000e+00  1.5000000000000024e-01 -3.2630438347199457e-17 0.0000000000000000e+00  1.5000000000000005e-01 3.1031743656148247e-16 0.0000000000000000e+00  1.5000000000000005e-01 6.1356008177338322e-16 0.0000000000000000e+00  1.5000000000000005e-01 2.2096539626271680e-18 0.0000000000000000e+00  1.4999999999999999e-01 -3.6246102889802693e-16 0.0000000000000000e+00  1.5000000000000011e-01 2.8398550024926696e-16 0.0000000000000000e+00  1.5000000000000013e-01 -1.2832526696814260e-16 0.0000000000000000e+00  1.4999999999999994e-01 4.8328947397560505e-16 0.0000000000000000e+00  1.5000000000000005e-01 -5.7780882381349929e-16 0.0000000000000000e+00  1.5000000000000011e-01 -4.9718950679177557e-17 0.0000000000000000e+00  1.5000000000000016e-01 -3.7576842160722193e-16 0.0000000000000000e+00  1.4999999999999997e-01 3.5152675323695653e-16 0.0000000000000000e+00  1.4999999999999999e-01 -4.8769403606016684e-16 0.0000000000000000e+00  1.5000000000000011e-01 -1.2287524259326619e-16 0.0000000000000000e+00  1.4999999999999999e-01 9.7375537989281620e-16 0.0000000000000000e+00  1.4999999999999997e-01 3.6198306939934095e-16 0.0000000000000000e+00  1.5000000000000005e-01 -3.2812294673966842e-17 0.0000000000000000e+00  1.4999999999999994e-01 -6.4637954258800862e-17 0.0000000000000000e+00  1.5000000000000005e-01 -2.1278431051134924e-16 0.0000000000000000e+00  1.4999999999999994e-01 -1.2508298571402878e-16 0.0000000000000000e+00  1.4999999999999999e-01 -5.0359056873211195e-16 0.0000000000000000e+00  1.5000000000000002e-01 -1.6938372068005273e-16 0.0000000000000000e+00  1.4999999999999991e-01 -4.8021111482323280e-16 0.0000000000000000e+00  1.5000000000000011e-01 5.5665156538346183e-16 0.0000000000000000e+00  1.5000000000000002e-01 4.3900685106759878e-16 0.0000000000000000e+00  1.5000000000000002e-01 6.1462456753020552e-17 0.0000000000000000e+00  1.5000000000000008e-01 -4.0202934506460156e-16 0.0000000000000000e+00  1.4999999999999986e-01 -8.9643386394734093e-17 0.0000000000000000e+00  1.4999999999999999e-01 -9.6600691280846279e-17 0.0000000000000000e+00  1.5000000000000008e-01 1.8196563276593058e-16 0.0000000000000000e+00  1.4999999999999991e-01 0.0000000000000000e+00 0.0000000000000000e+00  1.4999999999999999e-01 0.0000000000000000e+00 -7.4919020656654465e-16  1.4999999999999999e-01 1.0744232765663880e-16 2.7302071834604841e-16  1.5000000000000005e-01 -1.5492113814167512e-16 -4.9634294348780749e-17  1.5000000000000005e-01 -6.9328795190283086e-16 1.9910203377829311e-16  1.5000000000000005e-01 1.9451884924168397e-16 -3.4754529766582236e-16  1.5000000000000008e-01 -1.3569966673517729e-16 -1.6983105187488581e-16  1.5000000000000005e-01 4.1966286200522869e-16 -1.7988058297930749e-16  1.5000000000000008e-01 -2.3355110955878084e-16 -1.9481856927013072e-16  1.5000000000000016e-01 3.5828323522049849e-16 -1.3742951776350889e-16  1.4999999999999999e-01 1.0933870776483275e-16 3.6786300405248857e-17  1.5000000000000002e-01 -4.2172091087273479e-17 5.4164699025541051e-18  1.5000000000000002e-01 2.9407627428647301e-16 1.8143992450591848e-16  1.5000000000000005e-01 3.0191096360117225e-16 -6.5010139453320398e-17  1.4999999999999999e-01 -4.7207756078630166e-16 -7.0752748089976587e-17  1.5000000000000055e-01 -1.3260449181527270e-15 1.5522692397792984e-15  1.5000000000000316e-01 -2.6688383762850155e-15 7.6052458429674402e-15  1.5000000000000643e-01 -1.9920850252314464e-15 1.6509707100703556e-14  1.5000000000000549e-01 1.1129287982543124e-14 1.5645263559210097e-14  1.4999999999998850e-01 4.6166883640889690e-14 -2.9378252450463435e-14  1.4999999999994595e-01 4.0325994193870278e-14 -1.3824156571287852e-13  1.4999999999997043e-01 -2.3141477292140786e-13 -5.5554151863550247e-14  1.5000000000042454e-01 -9.6626805457395736e-13 1.1291206184829750e-12  1.5000000000183389e-01 -1.8912446924546340e-12 4.6335797377263300e-12  1.5000000000416636e-01 -2.1309520386333856e-12 1.0184016221950348e-11  1.5000000000611305e-01 -9.4851978996425562e-13 1.4450689114727383e-11  1.5000000000578670e-01 1.2136215689033662e-12 1.3032532002920749e-11  1.5000000000282615e-01 2.7915640433225176e-12 5.5632546194395421e-12  1.4999999999937066e-01 2.5602600653257288e-12 -2.4384112603017568e-12  1.4999999999800562e-01 9.1694687747943517e-13 -4.9982784733527533e-12  1.4999999999893859e-01 -5.7183950993591008e-13 -2.2648920798432310e-12  1.5000000000019145e-01 -8.4784573159284266e-13 7.0740254229305388e-13  1.5000000000037716e-01 -2.6261346869176309e-13 9.0309859481679728e-13  1.4999999999999158e-01 1.9433297225165444e-13 -9.4669704438318778e-14  1.4999999999991312e-01 1.4151060880361350e-13 -1.9677047813534986e-13  1.5000000000006511e-01 -4.7633194312450905e-14 1.8987373261843589e-13  1.5000000000003830e-01 -4.1270154573038414e-14 7.1006833743768695e-14  1.4999999999992866e-01 3.9168915880554807e-14 -1.9627787823361497e-13  1.4999999999996919e-01 1.5912229951720729e-14 -5.8505789547743527e-14  1.5000000000005023e-01 -3.4885612026376799e-14 1.3775409038423216e-13  1.5000000000002051e-01 -1.0149796224904168e-14 3.9538551245656167e-14  1.4999999999996996e-01 2.5182328328954935e-14 -8.2705813806073142e-14  1.4999999999998992e-01 5.6830615557572593e-15 -1.8185743124439759e-14  1.5000000000001701e-01 -1.6249851548741937e-14 4.5268243437385841e-14  1.5000000000000333e-01 -1.9052294029685125e-15 3.9468267004093952e-15  1.4999999999999106e-01 8.9252512257637769e-15 -2.3692971476821527e-14  1.5000000000000008e-01 -4.0912905704224899e-16 2.3609787069454389e-15  1.5000000000000427e-01 -4.4942220226147476e-15 1.0290196186064236e-14  1.4999999999999894e-01 1.3059094499162293e-15 -3.7788603859347347e-15  1.4999999999999844e-01 2.1319985722628733e-15 -3.3255405224541186e-15  1.5000000000000099e-01 -1.2133611352898183e-15 2.6319569730576722e-15  1.5000000000000038e-01 -5.8566591069812470e-16 7.6976958078102195e-16  1.4999999999999958e-01 1.1527555212275475e-15 -1.3002658162049161e-15  1.5000000000000011e-01 7.3097128290308225e-17 -1.6293905848035545e-16  1.5000000000000030e-01 -4.5811526309965883e-16 6.2622880434634772e-16  1.4999999999999999e-01 2.4916015287140840e-16 8.1103842605857393e-17  1.5000000000000005e-01 4.6983725269031216e-16 -3.8959373061418068e-16  1.5000000000000016e-01 -2.1926932850470606e-17 3.3798160530129633e-16  1.5000000000000002e-01 -4.1303040132027750e-16 9.2058773529946311e-17  1.5000000000000005e-01 1.8644513062030901e-17 -2.4866604115228805e-18  1.5000000000000008e-01 1.2513244055863784e-16 2.2704613252487482e-16  1.5000000000000002e-01 -3.0292674481193420e-16 -1.9081102333682698e-16  1.5000000000000005e-01 -1.5475207059286131e-16 -3.9698089400501302e-16  1.5000000000000005e-01 -2.1727819527518332e-17 -1.6041104008862577e-16  1.5000000000000008e-01 -3.0391244327276212e-16 9.3055481187563005e-17  1.5000000000000008e-01 -1.9265457402904229e-16 -2.2917729215667329e-17  1.5000000000000008e-01 -1.8814924025482593e-16 3.8307884324050833e-16  1.5000000000000011e-01 -3.2810256368863306e-17 2.2235502012901405e-16  1.4999999999999999e-01 2.0560120010734438e-16 2.8719063301764848e-16  1.5000000000000008e-01 3.0267917270251935e-16 6.6586496802404467e-16  1.5000000000000002e-01 3.6105791724343430e-16 -2.0345113031587006e-16  1.4999999999999991e-01 -5.1090785353211961e-17 -4.7842363928538277e-17  1.5000000000000008e-01 6.1184975280614878e-17 1.7492880015524853e-16  1.5000000000000005e-01 1.2786335694464193e-16 4.3478264673380448e-17  1.4999999999999999e-01 3.0706718040464767e-16 -3.3519402202348674e-16  1.5000000000000008e-01 -3.7649141075811833e-16 -1.5990079893031568e-16  1.5000000000000002e-01 2.1308538741474160e-17 9.8636048529965082e-17  1.5000000000000008e-01 -6.9798818746276001e-16 2.9719048621657972e-16  1.5000000000000008e-01 -3.4624452623666490e-16 -2.2818213747773785e-16  1.5000000000000005e-01 -2.6718209764928878e-17 -1.2815042444666586e-16  1.5000000000000013e-01 4.6428682029445621e-16 -1.1688003953815323e-16  1.5000000000000005e-01 1.4923016708881582e-16 9.1168829773074706e-17  1.5000000000000016e-01 2.6789489288338439e-16 2.0754174659506178e-17  1.5000000000000013e-01 -1.1559038504612428e-16 -2.1080819787023685e-16  1.5000000000000008e-01 6.8477256881877024e-17 3.3017351975726606e-18  1.5000000000000005e-01 -1.0347910649031013e-18 1.7798780563270819e-16  1.5000000000000008e-01 -3.9498467899191345e-17 -4.5732584208016629e-16  1.5000000000000002e-01 2.5351105522375227e-16 -4.8660151980018552e-17  1.5000000000000005e-01 -4.0772170599268588e-17 -1.4703195689788423e-16  1.5000000000000008e-01 1.4442111613542920e-17 1.6929752829069477e-16  1.4999999999999999e-01 6.9597132429513600e-17 2.7243669381979368e-16  1.5000000000000005e-01 -3.9946856884644054e-16 1.3591429479920846e-16  1.4999999999999999e-01 6.0518024648359489e-17 1.8484038971446866e-16  1.5000000000000033e-01 1.4904162715963322e-16 -7.1442354371027254e-18  1.5000000000000016e-01 2.6692384766021701e-16 5.8671672727184781e-16  1.5000000000000005e-01 -6.2676236087041443e-17 1.3106507389269796e-16  1.5000000000000005e-01 1.6808867046590394e-16 -1.0763738861322683e-16  1.4999999999999991e-01 5.6326003816621744e-17 -1.5272805378009968e-16  1.5000000000000002e-01 -2.7753019176854742e-16 -7.4901183350373354e-19  1.5000000000000016e-01 1.2981582872512847e-16 -1.9528448164677379e-17  1.5000000000000005e-01 1.0970653842330926e-16 -5.3652696927303679e-16  1.4999999999999999e-01 0.0000000000000000e+00 2.7185689262787880e-17  1.4999999999999994e-01 0.0000000000000000e+00 1.5018190607431425e-16  1.5000000000000013e-01 1.0884274808215876e-16 -1.7824075899529314e-16  1.4999999999999999e-01 4.3002153073504186e-17 -2.5486188135116823e-16  1.5000000000000005e-01 -3.5871530508197655e-16 2.0300744282499742e-16  1.5000000000000022e-01 7.6232686412050413e-17 -7.0657947985670917e-17  1.5000000000000008e-01 3.5193295428815296e-16 -1.1822129451866500e-16  1.4999999999999991e-01 3.3466470693671637e-16 -3.9897819303765555e-16  1.5000000000000005e-01 -4.0667826610163321e-16 1.7782036685182340e-16  1.5000000000000011e-01 6.4915119385826967e-16 -4.2069718691774761e-16  1.5000000000000002e-01 1.2855455187774146e-17 -4.7148259286609235e-16  1.5000000000000002e-01 1.3047640571594470e-16 -2.2613841845562423e-16  1.5000000000000005e-01 2.5635912599277691e-16 -1.7626442602066026e-16  1.4999999999999994e-01 -1.3067179898733638e-16 -4.6015156391972767e-16  1.4999999999999991e-01 -1.9042641737089044e-16 7.6025621486240816e-17  1.4999999999999994e-01 1.8737082159217707e-15 -7.4209126208472120e-16  1.4999999999999708e-01 3.6662142424018820e-15 -9.9700746234010301e-15  1.4999999999999061e-01 4.6671101655918809e-15 -3.1671088595597177e-14  1.4999999999998601e-01 -2.8457489624700114e-15 -5.2397895201884573e-14  1.4999999999999691e-01 -4.6003116918112856e-14 -1.9277245661776548e-14  1.5000000000004773e-01 -1.0159118779083111e-13 1.6813274893370425e-13  1.5000000000009581e-01 9.4721988001343217e-14 3.7043928299952413e-13  1.4999999999975908e-01 1.0148570910473317e-12 -7.3711331854402271e-13  1.4999999999815233e-01 2.6824794684044772e-12 -6.1874758342440441e-12  1.4999999999464078e-01 3.9472237687589101e-12 -1.8065726667197106e-11  1.4999999999043673e-01 3.0499203023947640e-12 -3.2109484835080652e-11  1.4999999998883831e-01 -3.7726900623948137e-13 -3.7113440072834581e-11  1.4999999999225846e-01 -4.1637597588595162e-12 -2.5156663407460416e-11  1.4999999999875227e-01 -5.3231322669359481e-12 -3.1902216233486949e-12  1.5000000000323277e-01 -3.1301985905933491e-12 1.1509119567833295e-11  1.5000000000300420e-01 1.1970817895501101e-13 1.0192674493051804e-11  1.5000000000045038e-01 1.6577116879407517e-12 1.3263914943786589e-12  1.4999999999921820e-01 1.0218942128632105e-12 -2.7552827612697913e-12  1.4999999999974306e-01 -1.1959306250986942e-13 -8.6702929149652352e-13  1.5000000000019956e-01 -3.8452919130432628e-13 6.7652655190020418e-13  1.4999999999996330e-01 -2.2886876801906464e-14 -1.4250305371875995e-13  1.4999999999984967e-01 1.2164273324918327e-13 -4.9820833406613569e-13  1.5000000000008545e-01 -3.5058430133606080e-14 3.1216505528543192e-13  1.5000000000013172e-01 -7.1589376856661670e-14 4.4081638580002007e-13  1.4999999999994015e-01 4.7512511594710397e-14 -2.1874655045500344e-13  1.4999999999991045e-01 5.5126015109592286e-14 -3.0147139751557270e-13  1.5000000000003705e-01 -3.6185193464229209e-14 1.3404192419378300e-13  1.5000000000005034e-01 -3.7135513558535918e-14 1.6809787840842805e-13  1.4999999999997632e-01 2.4333175860752417e-14 -8.4475679001689234e-14  1.4999999999997626e-01 2.0306961283598088e-14 -7.8309988842584944e-14  1.5000000000001554e-01 -1.6565143580623222e-14 5.4037037229403603e-14  1.5000000000000904e-01 -8.2959307355153989e-15 2.9092777783553686e-14  1.4999999999999089e-01 1.0121696894013528e-14 -3.1509234855994384e-14  1.4999999999999802e-01 2.4092760672713572e-15 -5.6363729241324463e-15  1.5000000000000496e-01 -5.9984269489820488e-15 1.6091959031963771e-14  1.4999999999999944e-01 2.7343016947552332e-16 -2.1761206133139414e-15  1.4999999999999808e-01 2.7843479537626223e-15 -5.9478386724927234e-15  1.5000000000000097e-01 -8.3105879976407217e-16 2.9138276158947969e-15  1.5000000000000061e-01 -8.6823872955941548e-16 1.5550767618661637e-15  1.4999999999999944e-01 1.0250858808529501e-15 -1.9485834729568739e-15  1.5000000000000019e-01 -9.8676949748344105e-17 -2.0005405154572709e-16  1.5000000000000016e-01 -4.8423281902281726e-16 6.7862042484257107e-16  1.4999999999999999e-01 1.0547095172148052e-16 -5.8883432702433123e-16  1.5000000000000011e-01 -5.8122164186543132e-16 -4.3282945335013999e-16  1.5000000000000016e-01 5.4041576948825684e-16 -6.7020935010438522e-17  1.5000000000000002e-01 1.8300216980541204e-16 -2.4850424897959932e-16  1.4999999999999994e-01 -1.4936288878651043e-16 -5.0058782055659305e-16  1.5000000000000016e-01 -5.7209601320096572e-17 3.7663713843421875e-16  1.5000000000000005e-01 9.6221334972568898e-17 2.6366811544752409e-16  1.5000000000000005e-01 2.7126152036734222e-16 -1.9836319597324003e-16  1.5000000000000002e-01 1.4507469742075214e-16 5.4364752522266212e-16  1.5000000000000002e-01 -2.2142135862235726e-16 4.3908687848251938e-16  1.5000000000000005e-01 -2.0507330659017829e-16 3.6791295165297762e-16  1.5000000000000005e-01 -1.0258592605931840e-17 7.2362437016177468e-16  1.5000000000000002e-01 1.0220637796059652e-16 1.7742858469076432e-16  1.5000000000000005e-01 -3.3244820218158555e-16 2.9327626886363072e-16  1.5000000000000013e-01 -3.8588928199824169e-17 2.8418809055728446e-16  1.5000000000000005e-01 3.5117053078510351e-16 1.6901966396772735e-16  1.5000000000000005e-01 1.9265290929483904e-16 1.3530490585336604e-16  1.5000000000000002e-01 -9.0228943448704494e-17 -2.4303877799286084e-16  1.5000000000000005e-01 -1.8082102197456574e-16 -4.1484902860976050e-16  1.5000000000000002e-01 3.8831742666928927e-16 -3.3374758035594379e-16  1.4999999999999988e-01 -1.4171021145653611e-16 -2.6195967025300631e-16  1.4999999999999999e-01 2.0848226109344727e-17 2.0117689516250810e-16  1.5000000000000008e-01 3.4885756131914909e-16 2.671232582076355