<?xml version="1.0"?>
<VTKFile type="UnstructuredGrid"  version="0.1"  >
<UnstructuredGrid>
<Piece  NumberOfPoints="10201" NumberOfCells="20000">
<Points>
<DataArray  type="Float64"  NumberOfComponents="3"  format="ascii">-5 -5 0  -4.9 -5 0  -4.8 -5 0  -4.7 -5 0  -4.6 -5 0  -4.5 -5 0  -4.4 -5 0  -4.3 -5 0  -4.2 -5 0  -4.1 -5 0  -4 -5 0  -3.9 -5 0  -3.8 -5 0  -3.7 -5 0  -3.6 -5 0  -3.5 -5 0  -3.4 -5 0  -3.3 -5 0  -3.2 -5 0  -3.1 -5 0  -3 -5 0  -2.9 -5 0  -2.8 -5 0  -2.7 -5 0  -2.6 -5 0  -2.5 -5 0  -2.4 -5 0  -2.3 -5 0  -2.2 -5 0  -2.1 -5 0  -2 -5 0  -1.9 -5 0  -1.8 -5 0  -1.7 -5 0  -1.6 -5 0  -1.5 -5 0  -1.4 -5 0  -1.3 -5 0  -1.2 -5 0  -1.1 -5 0  -1 -5 0  -0.9000000000000004 -5 0  -0.7999999999999998 -5 0  -0.7000000000000002 -5 0  -0.5999999999999996 -5 0  -0.5 -5 0  -0.4000000000000004 -5 0  -0.2999999999999998 -5 0  -0.2000000000000002 -5 0  -0.09999999999999964 -5 0  0 -5 0  0.09999999999999964 -5 0  0.2000000000000002 -5 0  0.2999999999999998 -5 0  0.4000000000000004 -5 0  0.5 -5 0  0.5999999999999996 -5 0  0.7000000000000002 -5 0  0.7999999999999998 -5 0  0.9000000000000004 -5 0  1 -5 0  1.1 -5 0  1.2 -5 0  1.3 -5 0  1.4 -5 0  1.5 -5 0  1.6 -5 0  1.7 -5 0  1.8 -5 0  1.9 -5 0  2 -5 0  2.1 -5 0  2.2 -5 0  2.3 -5 0  2.4 -5 0  2.5 -5 0  2.6 -5 0  2.7 -5 0  2.8 -5 0  2.9 -5 0  3 -5 0  3.1 -5 0  3.199999999999999 -5 0  3.300000000000001 -5 0  3.4 -5 0  3.5 -5 0  3.6 -5 0  3.699999999999999 -5 0  3.800000000000001 -5 0  3.9 -5 0  4 -5 0  4.1 -5 0  4.199999999999999 -5 0  4.300000000000001 -5 0  4.4 -5 0  4.5 -5 0  4.6 -5 0  4.699999999999999 -5 0  4.800000000000001 -5 0  4.9 -5 0  5 -5 0  -5 -4.9 0  -4.9 -4.9 0  -4.8 -4.9 0  -4.7 -4.9 0  -4.6 -4.9 0  -4.5 -4.9 0  -4.4 -4.9 0  -4.3 -4.9 0  -4.2 -4.9 0  -4.1 -4.9 0  -4 -4.9 0  -3.9 -4.9 0  -3.8 -4.9 0  -3.7 -4.9 0  -3.6 -4.9 0  -3.5 -4.9 0  -3.4 -4.9 0  -3.3 -4.9 0  -3.2 -4.9 0  -3.1 -4.9 0  -3 -4.9 0  -2.9 -4.9 0  -2.8 -4.9 0  -2.7 -4.9 0  -2.6 -4.9 0  -2.5 -4.9 0  -2.4 -4.9 0  -2.3 -4.9 0  -2.2 -4.9 0  -2.1 -4.9 0  -2 -4.9 0  -1.9 -4.9 0  -1.8 -4.9 0  -1.7 -4.9 0  -1.6 -4.9 0  -1.5 -4.9 0  -1.4 -4.9 0  -1.3 -4.9 0  -1.2 -4.9 0  -1.1 -4.9 0  -1 -4.9 0  -0.9000000000000004 -4.9 0  -0.7999999999999998 -4.9 0  -0.7000000000000002 -4.9 0  -0.5999999999999996 -4.9 0  -0.5 -4.9 0  -0.4000000000000004 -4.9 0  -0.2999999999999998 -4.9 0  -0.2000000000000002 -4.9 0  -0.09999999999999964 -4.9 0  0 -4.9 0  0.09999999999999964 -4.9 0  0.2000000000000002 -4.9 0  0.2999999999999998 -4.9 0  0.4000000000000004 -4.9 0  0.5 -4.9 0  0.5999999999999996 -4.9 0  0.7000000000000002 -4.9 0  0.7999999999999998 -4.9 0  0.9000000000000004 -4.9 0  1 -4.9 0  1.1 -4.9 0  1.2 -4.9 0  1.3 -4.9 0  1.4 -4.9 0  1.5 -4.9 0  1.6 -4.9 0  1.7 -4.9 0  1.8 -4.9 0  1.9 -4.9 0  2 -4.9 0  2.1 -4.9 0  2.2 -4.9 0  2.3 -4.9 0  2.4 -4.9 0  2.5 -4.9 0  2.6 -4.9 0  2.7 -4.9 0  2.8 -4.9 0  2.9 -4.9 0  3 -4.9 0  3.1 -4.9 0  3.199999999999999 -4.9 0  3.300000000000001 -4.9 0  3.4 -4.9 0  3.5 -4.9 0  3.6 -4.9 0  3.699999999999999 -4.9 0  3.800000000000001 -4.9 0  3.9 -4.9 0  4 -4.9 0  4.1 -4.9 0  4.199999999999999 -4.9 0  4.300000000000001 -4.9 0  4.4 -4.9 0  4.5 -4.9 0  4.6 -4.9 0  4.699999999999999 -4.9 0  4.800000000000001 -4.9 0  4.9 -4.9 0  5 -4.9 0  -5 -4.8 0  -4.9 -4.8 0  -4.8 -4.8 0  -4.7 -4.8 0  -4.6 -4.8 0  -4.5 -4.8 0  -4.4 -4.8 0  -4.3 -4.8 0  -4.2 -4.8 0  -4.1 -4.8 0  -4 -4.8 0  -3.9 -4.8 0  -3.8 -4.8 0  -3.7 -4.8 0  -3.6 -4.8 0  -3.5 -4.8 0  -3.4 -4.8 0  -3.3 -4.8 0  -3.2 -4.8 0  -3.1 -4.8 0  -3 -4.8 0  -2.9 -4.8 0  -2.8 -4.8 0  -2.7 -4.8 0  -2.6 -4.8 0  -2.5 -4.8 0  -2.4 -4.8 0  -2.3 -4.8 0  -2.2 -4.8 0  -2.1 -4.8 0  -2 -4.8 0  -1.9 -4.8 0  -1.8 -4.8 0  -1.7 -4.8 0  -1.6 -4.8 0  -1.5 -4.8 0  -1.4 -4.8 0  -1.3 -4.8 0  -1.2 -4.8 0  -1.1 -4.8 0  -1 -4.8 0  -0.9000000000000004 -4.8 0  -0.7999999999999998 -4.8 0  -0.7000000000000002 -4.8 0  -0.5999999999999996 -4.8 0  -0.5 -4.8 0  -0.4000000000000004 -4.8 0  -0.2999999999999998 -4.8 0  -0.2000000000000002 -4.8 0  -0.09999999999999964 -4.8 0  0 -4.8 0  0.09999999999999964 -4.8 0  0.2000000000000002 -4.8 0  0.2999999999999998 -4.8 0  0.4000000000000004 -4.8 0  0.5 -4.8 0  0.5999999999999996 -4.8 0  0.7000000000000002 -4.8 0  0.7999999999999998 -4.8 0  0.9000000000000004 -4.8 0  1 -4.8 0  1.1 -4.8 0  1.2 -4.8 0  1.3 -4.8 0  1.4 -4.8 0  1.5 -4.8 0  1.6 -4.8 0  1.7 -4.8 0  1.8 -4.8 0  1.9 -4.8 0  2 -4.8 0  2.1 -4.8 0  2.2 -4.8 0  2.3 -4.8 0  2.4 -4.8 0  2.5 -4.8 0  2.6 -4.8 0  2.7 -4.8 0  2.8 -4.8 0  2.9 -4.8 0  3 -4.8 0  3.1 -4.8 0  3.199999999999999 -4.8 0  3.300000000000001 -4.8 0  3.4 -4.8 0  3.5 -4.8 0  3.6 -4.8 0  3.699999999999999 -4.8 0  3.800000000000001 -4.8 0  3.9 -4.8 0  4 -4.8 0  4.1 -4.8 0  4.199999999999999 -4.8 0  4.300000000000001 -4.8 0  4.4 -4.8 0  4.5 -4.8 0  4.6 -4.8 0  4.699999999999999 -4.8 0  4.800000000000001 -4.8 0  4.9 -4.8 0  5 -4.8 0  -5 -4.7 0  -4.9 -4.7 0  -4.8 -4.7 0  -4.7 -4.7 0  -4.6 -4.7 0  -4.5 -4.7 0  -4.4 -4.7 0  -4.3 -4.7 0  -4.2 -4.7 0  -4.1 -4.7 0  -4 -4.7 0  -3.9 -4.7 0  -3.8 -4.7 0  -3.7 -4.7 0  -3.6 -4.7 0  -3.5 -4.7 0  -3.4 -4.7 0  -3.3 -4.7 0  -3.2 -4.7 0  -3.1 -4.7 0  -3 -4.7 0  -2.9 -4.7 0  -2.8 -4.7 0  -2.7 -4.7 0  -2.6 -4.7 0  -2.5 -4.7 0  -2.4 -4.7 0  -2.3 -4.7 0  -2.2 -4.7 0  -2.1 -4.7 0  -2 -4.7 0  -1.9 -4.7 0  -1.8 -4.7 0  -1.7 -4.7 0  -1.6 -4.7 0  -1.5 -4.7 0  -1.4 -4.7 0  -1.3 -4.7 0  -1.2 -4.7 0  -1.1 -4.7 0  -1 -4.7 0  -0.9000000000000004 -4.7 0  -0.7999999999999998 -4.7 0  -0.7000000000000002 -4.7 0  -0.5999999999999996 -4.7 0  -0.5 -4.7 0  -0.4000000000000004 -4.7 0  -0.2999999999999998 -4.7 0  -0.2000000000000002 -4.7 0  -0.09999999999999964 -4.7 0  0 -4.7 0  0.09999999999999964 -4.7 0  0.2000000000000002 -4.7 0  0.2999999999999998 -4.7 0  0.4000000000000004 -4.7 0  0.5 -4.7 0  0.5999999999999996 -4.7 0  0.7000000000000002 -4.7 0  0.7999999999999998 -4.7 0  0.9000000000000004 -4.7 0  1 -4.7 0  1.1 -4.7 0  1.2 -4.7 0  1.3 -4.7 0  1.4 -4.7 0  1.5 -4.7 0  1.6 -4.7 0  1.7 -4.7 0  1.8 -4.7 0  1.9 -4.7 0  2 -4.7 0  2.1 -4.7 0  2.2 -4.7 0  2.3 -4.7 0  2.4 -4.7 0  2.5 -4.7 0  2.6 -4.7 0  2.7 -4.7 0  2.8 -4.7 0  2.9 -4.7 0  3 -4.7 0  3.1 -4.7 0  3.199999999999999 -4.7 0  3.300000000000001 -4.7 0  3.4 -4.7 0  3.5 -4.7 0  3.6 -4.7 0  3.699999999999999 -4.7 0  3.800000000000001 -4.7 0  3.9 -4.7 0  4 -4.7 0  4.1 -4.7 0  4.199999999999999 -4.7 0  4.300000000000001 -4.7 0  4.4 -4.7 0  4.5 -4.7 0  4.6 -4.7 0  4.699999999999999 -4.7 0  4.800000000000001 -4.7 0  4.9 -4.7 0  5 -4.7 0  -5 -4.6 0  -4.9 -4.6 0  -4.8 -4.6 0  -4.7 -4.6 0  -4.6 -4.6 0  -4.5 -4.6 0  -4.4 -4.6 0  -4.3 -4.6 0  -4.2 -4.6 0  -4.1 -4.6 0  -4 -4.6 0  -3.9 -4.6 0  -3.8 -4.6 0  -3.7 -4.6 0  -3.6 -4.6 0  -3.5 -4.6 0  -3.4 -4.6 0  -3.3 -4.6 0  -3.2 -4.6 0  -3.1 -4.6 0  -3 -4.6 0  -2.9 -4.6 0  -2.8 -4.6 0  -2.7 -4.6 0  -2.6 -4.6 0  -2.5 -4.6 0  -2.4 -4.6 0  -2.3 -4.6 0  -2.2 -4.6 0  -2.1 -4.6 0  -2 -4.6 0  -1.9 -4.6 0  -1.8 -4.6 0  -1.7 -4.6 0  -1.6 -4.6 0  -1.5 -4.6 0  -1.4 -4.6 0  -1.3 -4.6 0  -1.2 -4.6 0  -1.1 -4.6 0  -1 -4.6 0  -0.9000000000000004 -4.6 0  -0.7999999999999998 -4.6 0  -0.7000000000000002 -4.6 0  -0.5999999999999996 -4.6 0  -0.5 -4.6 0  -0.4000000000000004 -4.6 0  -0.2999999999999998 -4.6 0  -0.2000000000000002 -4.6 0  -0.09999999999999964 -4.6 0  0 -4.6 0  0.09999999999999964 -4.6 0  0.2000000000000002 -4.6 0  0.2999999999999998 -4.6 0  0.4000000000000004 -4.6 0  0.5 -4.6 0  0.5999999999999996 -4.6 0  0.7000000000000002 -4.6 0  0.7999999999999998 -4.6 0  0.9000000000000004 -4.6 0  1 -4.6 0  1.1 -4.6 0  1.2 -4.6 0  1.3 -4.6 0  1.4 -4.6 0  1.5 -4.6 0  1.6 -4.6 0  1.7 -4.6 0  1.8 -4.6 0  1.9 -4.6 0  2 -4.6 0  2.1 -4.6 0  2.2 -4.6 0  2.3 -4.6 0  2.4 -4.6 0  2.5 -4.6 0  2.6 -4.6 0  2.7 -4.6 0  2.8 -4.6 0  2.9 -4.6 0  3 -4.6 0  3.1 -4.6 0  3.199999999999999 -4.6 0  3.300000000000001 -4.6 0  3.4 -4.6 0  3.5 -4.6 0  3.6 -4.6 0  3.699999999999999 -4.6 0  3.800000000000001 -4.6 0  3.9 -4.6 0  4 -4.6 0  4.1 -4.6 0  4.199999999999999 -4.6 0  4.300000000000001 -4.6 0  4.4 -4.6 0  4.5 -4.6 0  4.6 -4.6 0  4.699999999999999 -4.6 0  4.800000000000001 -4.6 0  4.9 -4.6 0  5 -4.6 0  -5 -4.5 0  -4.9 -4.5 0  -4.8 -4.5 0  -4.7 -4.5 0  -4.6 -4.5 0  -4.5 -4.5 0  -4.4 -4.5 0  -4.3 -4.5 0  -4.2 -4.5 0  -4.1 -4.5 0  -4 -4.5 0  -3.9 -4.5 0  -3.8 -4.5 0  -3.7 -4.5 0  -3.6 -4.5 0  -3.5 -4.5 0  -3.4 -4.5 0  -3.3 -4.5 0  -3.2 -4.5 0  -3.1 -4.5 0  -3 -4.5 0  -2.9 -4.5 0  -2.8 -4.5 0  -2.7 -4.5 0  -2.6 -4.5 0  -2.5 -4.5 0  -2.4 -4.5 0  -2.3 -4.5 0  -2.2 -4.5 0  -2.1 -4.5 0  -2 -4.5 0  -1.9 -4.5 0  -1.8 -4.5 0  -1.7 -4.5 0  -1.6 -4.5 0  -1.5 -4.5 0  -1.4 -4.5 0  -1.3 -4.5 0  -1.2 -4.5 0  -1.1 -4.5 0  -1 -4.5 0  -0.9000000000000004 -4.5 0  -0.7999999999999998 -4.5 0  -0.7000000000000002 -4.5 0  -0.5999999999999996 -4.5 0  -0.5 -4.5 0  -0.4000000000000004 -4.5 0  -0.2999999999999998 -4.5 0  -0.2000000000000002 -4.5 0  -0.09999999999999964 -4.5 0  0 -4.5 0  0.09999999999999964 -4.5 0  0.2000000000000002 -4.5 0  0.2999999999999998 -4.5 0  0.4000000000000004 -4.5 0  0.5 -4.5 0  0.5999999999999996 -4.5 0  0.7000000000000002 -4.5 0  0.7999999999999998 -4.5 0  0.9000000000000004 -4.5 0  1 -4.5 0  1.1 -4.5 0  1.2 -4.5 0  1.3 -4.5 0  1.4 -4.5 0  1.5 -4.5 0  1.6 -4.5 0  1.7 -4.5 0  1.8 -4.5 0  1.9 -4.5 0  2 -4.5 0  2.1 -4.5 0  2.2 -4.5 0  2.3 -4.5 0  2.4 -4.5 0  2.5 -4.5 0  2.6 -4.5 0  2.7 -4.5 0  2.8 -4.5 0  2.9 -4.5 0  3 -4.5 0  3.1 -4.5 0  3.199999999999999 -4.5 0  3.300000000000001 -4.5 0  3.4 -4.5 0  3.5 -4.5 0  3.6 -4.5 0  3.699999999999999 -4.5 0  3.800000000000001 -4.5 0  3.9 -4.5 0  4 -4.5 0  4.1 -4.5 0  4.199999999999999 -4.5 0  4.300000000000001 -4.5 0  4.4 -4.5 0  4.5 -4.5 0  4.6 -4.5 0  4.699999999999999 -4.5 0  4.800000000000001 -4.5 0  4.9 -4.5 0  5 -4.5 0  -5 -4.4 0  -4.9 -4.4 0  -4.8 -4.4 0  -4.7 -4.4 0  -4.6 -4.4 0  -4.5 -4.4 0  -4.4 -4.4 0  -4.3 -4.4 0  -4.2 -4.4 0  -4.1 -4.4 0  -4 -4.4 0  -3.9 -4.4 0  -3.8 -4.4 0  -3.7 -4.4 0  -3.6 -4.4 0  -3.5 -4.4 0  -3.4 -4.4 0  -3.3 -4.4 0  -3.2 -4.4 0  -3.1 -4.4 0  -3 -4.4 0  -2.9 -4.4 0  -2.8 -4.4 0  -2.7 -4.4 0  -2.6 -4.4 0  -2.5 -4.4 0  -2.4 -4.4 0  -2.3 -4.4 0  -2.2 -4.4 0  -2.1 -4.4 0  -2 -4.4 0  -1.9 -4.4 0  -1.8 -4.
[...]
<PointData  Vectors="f_23"> 
<DataArray  type="Float64"  Name="f_23"  NumberOfComponents="3" format="ascii">1.4999999999975699e-01 0.0000000000000000e+00 0.0000000000000000e+00  1.5000000000218744e-01 9.9614870036336410e-25 0.0000000000000000e+00  1.5000000000819522e-01 1.0154056570901443e-22 0.0000000000000000e+00  1.5000000004388983e-01 1.8034883925509226e-21 0.0000000000000000e+00  1.5000000018501272e-01 2.3007651768313689e-20 0.0000000000000000e+00  1.5000000063955773e-01 2.3708253357339771e-19 0.0000000000000000e+00  1.5000000195412602e-01 1.8525095712234288e-18 0.0000000000000000e+00  1.5000000534635574e-01 1.1021422006546791e-17 0.0000000000000000e+00  1.5000001300268087e-01 5.1542141197636348e-17 0.0000000000000000e+00  1.5000002821922495e-01 1.8620016064024370e-16 0.0000000000000000e+00  1.5000005466860131e-01 5.0028076159818326e-16 0.0000000000000000e+00  1.5000009364372466e-01 9.5542868090005052e-16 0.0000000000000000e+00  1.5000013974617174e-01 1.1673862731332464e-15 0.0000000000000000e+00  1.5000017747685265e-01 6.2373176308980917e-16 0.0000000000000000e+00  1.5000018124308653e-01 7.2359229999184990e-18 0.0000000000000000e+00  1.5000012215595707e-01 2.4949146926820929e-15 0.0000000000000000e+00  1.4999998280047339e-01 1.3049696776281802e-14 0.0000000000000000e+00  1.4999976971800993e-01 3.6678328899798458e-14 0.0000000000000000e+00  1.4999951451178697e-01 6.9646461628723364e-14 0.0000000000000000e+00  1.4999928050720260e-01 7.6343015968994162e-14 0.0000000000000000e+00  1.4999918255131270e-01 2.1319028920583362e-14 0.0000000000000000e+00  1.4999935997863748e-01 2.4077610319020687e-14 0.0000000000000000e+00  1.4999984763919721e-01 2.4650259548571007e-13 0.0000000000000000e+00  1.5000044197325688e-01 3.7892703717985024e-13 0.0000000000000000e+00  1.5000077030788983e-01 1.2992060586159598e-13 0.0000000000000000e+00  1.5000061535700826e-01 6.8810752646404382e-15 0.0000000000000000e+00  1.5000018603110837e-01 1.1900653372652121e-13 0.0000000000000000e+00  1.4999991275433838e-01 8.6562892502625574e-14 0.0000000000000000e+00  1.4999992515009974e-01 1.4414117565273610e-14 0.0000000000000000e+00  1.4999999784105855e-01 7.3060044689319034e-16 0.0000000000000000e+00  1.5000006309973882e-01 2.4747494678072764e-14 0.0000000000000000e+00  1.5000024012151025e-01 2.7936502030134749e-14 0.0000000000000000e+00  1.5000027695725004e-01 5.6576729265649436e-15 0.0000000000000000e+00  1.4999986583588995e-01 8.7100175196933321e-14 0.0000000000000000e+00  1.4999955518633862e-01 8.4671031617980981e-15 0.0000000000000000e+00  1.5000000515386064e-01 7.6210233713526292e-14 0.0000000000000000e+00  1.5000050477389573e-01 3.5687634872150424e-14 0.0000000000000000e+00  1.5000008156997469e-01 4.6317285945380793e-14 0.0000000000000000e+00  1.4999951171593870e-01 4.7626059790037132e-14 0.0000000000000000e+00  1.4999990512705466e-01 2.5085895483184553e-14 0.0000000000000000e+00  1.5000043619731404e-01 4.0663691500669341e-14 0.0000000000000000e+00  1.5000005254277715e-01 1.5057313932290180e-14 0.0000000000000000e+00  1.4999963396152977e-01 2.6567877200517093e-14 0.0000000000000000e+00  1.5000001433929364e-01 1.1063191267112538e-14 0.0000000000000000e+00  1.5000028375491356e-01 1.3743288753092520e-14 0.0000000000000000e+00  1.4999992394704298e-01 9.2638889051177495e-15 0.0000000000000000e+00  1.4999980593141207e-01 5.2215449224451540e-15 0.0000000000000000e+00  1.5000011269002239e-01 7.5754408305018021e-15 0.0000000000000000e+00  1.5000010629717717e-01 1.0636291286881380e-15 0.0000000000000000e+00  1.4999988285623686e-01 5.2733616840915043e-15 0.0000000000000000e+00  1.4999996692487022e-01 3.5176344539160353e-18 0.0000000000000000e+00  1.5000009434686176e-01 2.7674674572573113e-15 0.0000000000000000e+00  1.4999998480090199e-01 2.9663056843560949e-16 0.0000000000000000e+00  1.4999994260857039e-01 9.1356435072458827e-16 0.0000000000000000e+00  1.5000003545641019e-01 5.7694470509198543e-16 0.0000000000000000e+00  1.5000002135483095e-01 1.0707935313626926e-16 0.0000000000000000e+00  1.4999996677725191e-01 4.3221174448840552e-16 0.0000000000000000e+00  1.5000000291862478e-01 8.5639124917105129e-18 0.0000000000000000e+00  1.5000001948496383e-01 1.4898797581779475e-16 0.0000000000000000e+00  1.4999998772491677e-01 6.7042630746614281e-17 0.0000000000000000e+00  1.4999999476300349e-01 1.1920463049954102e-17 0.0000000000000000e+00  1.5000001051410225e-01 5.0880448407877219e-17 0.0000000000000000e+00  1.4999999696315566e-01 3.7752732139318933e-18 0.0000000000000000e+00  1.4999999552807175e-01 1.0857398098775130e-17 0.0000000000000000e+00  1.5000000461177079e-01 1.0481426570317667e-17 0.0000000000000000e+00  1.4999999967644481e-01 1.3100317570728342e-21 0.0000000000000000e+00  1.4999999750457496e-01 3.8077348306223362e-18 0.0000000000000000e+00  1.5000000188268137e-01 1.7931575920739950e-18 0.0000000000000000e+00  1.5000000013681861e-01 6.0211342592544438e-20 0.0000000000000000e+00  1.4999999881652998e-01 9.5277642104785332e-19 0.0000000000000000e+00  1.5000000078649273e-01 3.2252722348396259e-19 0.0000000000000000e+00  1.5000000008730166e-01 2.3095114593780010e-20 0.0000000000000000e+00  1.4999999948579318e-01 2.0403542950232047e-19 0.0000000000000000e+00  1.5000000035359531e-01 7.1132979816405232e-20 0.0000000000000000e+00  1.5000000000696184e-01 2.4154541004774518e-21 0.0000000000000000e+00  1.4999999979497797e-01 3.8576113986295328e-20 0.0000000000000000e+00  1.5000000016819676e-01 1.8978892547691506e-20 0.0000000000000000e+00  1.4999999997067251e-01 2.8656550164814155e-23 0.0000000000000000e+00  1.4999999993153168e-01 5.6309676122072678e-21 0.0000000000000000e+00  1.5000000007770126e-01 5.0319971401409271e-21 0.0000000000000000e+00  1.4999999996733157e-01 4.8350691055539770e-22 0.0000000000000000e+00  1.4999999998678792e-01 4.2617195015217461e-22 0.0000000000000000e+00  1.5000000003122330e-01 1.0924269012032208e-21 0.0000000000000000e+00  1.4999999997684033e-01 4.2866772362231791e-22 0.0000000000000000e+00  1.5000000000523239e-01 1.3268470652564209e-24 0.0000000000000000e+00  1.5000000000847205e-01 1.4333445692617259e-22 0.0000000000000000e+00  1.4999999998720989e-01 2.1553981244401248e-22 0.0000000000000000e+00  1.5000000000979039e-01 1.0175259490426036e-22 0.0000000000000000e+00  1.4999999999592528e-01 1.1195853785618299e-23 0.0000000000000000e+00  1.4999999999925515e-01 3.4159459770949877e-24 0.0000000000000000e+00  1.5000000000321873e-01 1.7876983310406198e-23 0.0000000000000000e+00  1.4999999999642957e-01 1.8241375021797160e-23 0.0000000000000000e+00  1.5000000000272390e-01 9.5716426520616547e-24 0.0000000000000000e+00  1.4999999999844310e-01 2.8092698402449908e-24 0.0000000000000000e+00  1.5000000000059133e-01 3.2250047489704785e-25 0.0000000000000000e+00  1.5000000000000879e-01 7.4363844383821077e-27 0.0000000000000000e+00  1.4999999999974478e-01 1.2288739583360500e-25 0.0000000000000000e+00  1.5000000000031949e-01 1.3429717437460684e-25 0.0000000000000000e+00  1.4999999999971683e-01 8.7202076246403098e-26 0.0000000000000000e+00  1.5000000000015007e-01 2.5199104385284346e-26 0.0000000000000000e+00  1.4999999999970659e-01 0.0000000000000000e+00 0.0000000000000000e+00  1.5000000000218761e-01 0.0000000000000000e+00 9.9446613919772148e-25  1.4999999999860733e-01 4.6409592114102988e-26 4.6321756491071693e-26  1.4999999999491731e-01 1.9584983851022947e-23 1.3027074273922248e-23  1.4999999997574176e-01 7.2766728831134535e-22 3.1758997729074797e-22  1.4999999988384180e-01 1.0007217118319715e-20 7.0349131360572247e-21  1.4999999956680177e-01 1.1440416342640621e-19 1.0211600975666740e-19  1.4999999861180432e-01 1.0225243624412662e-18 1.0738267088076785e-18  1.4999999601840078e-01 6.8617761719298339e-18 8.9327823568198483e-18  1.4999998982049245e-01 3.5628897580822147e-17 5.8585696670722193e-17  1.4999997684816177e-01 1.4461587975768071e-16 3.0278246393783854e-16  1.4999995298171298e-01 4.4320083135090486e-16 1.2356605454185378e-15  1.4999991517508052e-01 9.8101776910528453e-16 3.9311467444831523e-15  1.4999986586198522e-01 1.4597227806480081e-15 9.4674165053444152e-15  1.4999981758802375e-01 1.1710574990603069e-15 1.6461955828304861e-14  1.4999979466901883e-01 1.3004837851305871e-16 1.8699854240607378e-14  1.4999982887625971e-01 1.1239384176560666e-15 1.0151716324288109e-14  1.4999994571023351e-01 9.4169162682903040e-15 6.0763140809187363e-17  1.5000014652816057e-01 3.0052855729380268e-14 1.7680888860036166e-14  1.5000040284782712e-01 6.3381204968432268e-14 8.4449362032176876e-14  1.5000065998109557e-01 8.6648046067136948e-14 1.7670991014777610e-13  1.5000082515539617e-01 5.0246761387923451e-14 2.1258491167250339e-13  1.5000076443243252e-01 4.9884011345243034e-16 1.1554168605368525e-13  1.5000038590944326e-01 1.4769563629843110e-13 1.2540665614467753e-15  1.4999979017013274e-01 3.9772993873926487e-13 1.1046670363899918e-13  1.4999930477351855e-01 2.7378612429262767e-13 2.7716580566022494e-13  1.4999925463026609e-01 1.0657859908870734e-14 1.5828539834481071e-13  1.4999961917031870e-01 7.7864512984474647e-14 6.2564166634350205e-15  1.5000000281809989e-01 1.2139460453300674e-13 1.5412872928990030e-14  1.5000009159436245e-01 3.9196483540716417e-14 8.1481451694670595e-15  1.5000000672152694e-01 1.4180845382510478e-15 1.6748872275101923e-16  1.4999995457733334e-01 1.1862420146872828e-14 4.7593637842201189e-15  1.4999983805826020e-01 3.9457179919588410e-14 2.5893925093649368e-14  1.4999969075727518e-01 1.5469793509471349e-15 4.0353294747666955e-14  1.4999992033531906e-01 6.7715533299051266e-14 2.7037761109867004e-15  1.5000039533678602e-01 4.9578941384238966e-14 1.0923556552936716e-13  1.5000026882096940e-01 3.0201800081981553e-14 6.5371541975104356e-15  1.4999960835319573e-01 8.2961826659491131e-14 1.3617240593765242e-13  1.4999962587230181e-01 7.0624223985432086e-15 2.8949049510570417e-14  1.5000035189988217e-01 7.8997593618596931e-14 1.2536268023850663e-13  1.5000038008996505e-01 6.6954900692681464e-16 3.5500792748320204e-14  1.4999967933057032e-01 5.7291481932588175e-14 1.0450102973802475e-13  1.4999968414581044e-01 1.4195548669988629e-17 2.2593993017062076e-14  1.5000030060361735e-01 3.6245718150637380e-14 8.2799862094338599e-14  1.5000021405586725e-01 3.2478610722705308e-17 6.6620708665269235e-15  1.4999972234368031e-01 2.1163881313479175e-14 5.9954067556811455e-14  1.4999989577893733e-01 3.4118072883204298e-16 6.9405854128676577e-17  1.5000023802594961e-01 1.1342468780321690e-14 3.6208665038882050e-14  1.5000000986552200e-01 1.0407427775925793e-15 2.4279670575524636e-15  1.4999982128639075e-01 5.1858257157889746e-15 1.5937246559136667e-14  1.5000005314893861e-01 1.6900881860698598e-15 6.3228470691277324e-15  1.5000010882173076e-01 1.7068817387745033e-15 3.8895485932935847e-15  1.4999992113603997e-01 1.7808404694187636e-15 6.5079794216369659e-15  1.4999995611423142e-01 2.4527089140101492e-16 1.2019139439925879e-16  1.5000007228244233e-01 1.2589164284114456e-15 3.6287879490900946e-15  1.4999999771948325e-01 6.9201508963151983e-18 3.7553727687099947e-16  1.4999995318058429e-01 5.5099829607014089e-16 9.7338421487809839e-16  1.5000002386819528e-01 1.4347844719638718e-16 7.7556484262421684e-16  1.5000001829379228e-01 1.0753241886444385e-16 3.8576302208273009e-17  1.4999997538850937e-01 1.6877952406081249e-16 4.4406210102263700e-16  1.5000000165439933e-01 8.2535418223238177e-20 5.6073083436850525e-17  1.5000001437630989e-01 7.4533055046661781e-17 8.0559089191545639e-17  1.4999999077665355e-01 2.0756923365027878e-17 9.6607341295952113e-17  1.4999999668045477e-01 8.5363160530444445e-18 1.4262928953943742e-19  1.5000000757610363e-01 2.1297557566144253e-17 3.2824042063311442e-17  1.4999999725394303e-01 9.8292588655189600e-19 1.4888349214142798e-17  1.4999999727052479e-01 5.0412122505208543e-18 8.1298679901302548e-19  1.5000000341614914e-01 4.3137638308242367e-18 8.3369319873884303e-18  1.4999999928222379e-01 4.1320951498416801e-22 2.1172875846676130e-18  1.4999999851549189e-01 1.5607152420053640e-18 4.3481606345444701e-19  1.5000000147074660e-01 8.1042878026252814e-19 1.7449929039580844e-18  1.4999999977910550e-01 8.6645054635486383e-21 3.5763220315340427e-19  1.4999999932552974e-01 3.6880626666171602e-19 9.2839982186378848e-20  1.5000000064108993e-01 1.6912463682144745e-19 3.3458238025250132e-19  1.4999999988013785e-01 1.2512462283599524e-21 8.1999802096328106e-20  1.4999999973435910e-01 7.3447619027905561e-20 9.0684503215487403e-21  1.5000000028510230e-01 4.1452138879137602e-20 5.8207418040856711e-20  1.4999999990991275e-01 1.9827530678901276e-22 2.3015387111818208e-20  1.4999999991784599e-01 1.1319705421251291e-20 1.3884175584171490e-23  1.5000000012214673e-01 1.0483181649161028e-20 7.8480002533540290e-21  1.4999999993657909e-01 9.5128505919412381e-22 6.1593000655584068e-21  1.4999999998978567e-01 9.6550902951924992e-22 5.3392174433838275e-22  1.5000000004505565e-01 2.2550885130007492e-21 5.0273526247003076e-22  1.4999999996269972e-01 7.6756862459874835e-22 1.2349697733357191e-21  1.5000000001076552e-01 1.1729100946310067e-24 5.0486421303751379e-22  1.5000000001113967e-01 3.5260768250179972e-22 7.7672792690946782e-24  1.4999999998125432e-01 4.2574736779037501e-22 1.0910301834049308e-22  1.5000000001460312e-01 1.5515289099317164e-22 1.8394243322413331e-22  1.4999999999405619e-01 5.5862736004214924e-24 9.3569507613168005e-23  1.4999999999862929e-01 1.9889649211616238e-23 1.3410546309223952e-23  1.5000000000498220e-01 4.5949756373870440e-23 1.0922128558189515e-24  1.4999999999470984e-01 3.4270032304377427e-23 1.0765619943847231e-23  1.5000000000381652e-01 1.2942727733179974e-23 1.1923780939900653e-23  1.4999999999803595e-01 2.0487729402012914e-24 6.4300287993405553e-24  1.5000000000052705e-01 3.0585233078724898e-29 1.9091902007064548e-24  1.5000000000028033e-01 4.4561439110030023e-25 2.1725764327795553e-25  1.4999999999942623e-01 6.3168516201821414e-25 6.1171161504625543e-27  1.5000000000054189e-01 4.1824066458584159e-25 8.1349570904222266e-26  1.4999999999957842e-01 1.8102559877800858e-25 1.0663763097868498e-25  1.5000000000026176e-01 6.5717738797719432e-26 6.4548516967904055e-26  1.4999999999990807e-01 1.3243235508933144e-26 1.3308343576003454e-26  1.5000000000015076e-01 0.0000000000000000e+00 2.5082198938560321e-26  1.5000000000819483e-01 0.0000000000000000e+00 1.0155964487029658e-22  1.4999999999491750e-01 1.3028287314392868e-23 1.9583582046557682e-23  1.5000000000551283e-01 3.5639897453184226e-27 3.5752093057661898e-27  1.5000000001404873e-01 2.6816226400837225e-22 2.1722759370167845e-22  1.5000000007244554e-01 5.5650940032055640e-21 4.9557348066331909e-21  1.5000000031048949e-01 6.6093193521738864e-20 9.7074951319885262e-20  1.5000000106406383e-01 6.8583118241312774e-19 1.2293273491602143e-18  1.5000000322756751e-01 5.3528812025966539e-18 1.1839426167031394e-17  1.5000000876802211e-01 3.1631897341413141e-17 9.0739762643590042e-17  1.5000002117062505e-01 1.4578281897821104e-16 5.4545893276586159e-16  1.5000004550255108e-01 5.1754605351105563e-16 2.5832252459344113e-15  1.5000008713177124e-01 1.3498251039237507e-15 9.6253898710913725e-15  1.5000014710544510e-01 2.4403796434004107e-15 2.7627000831821982e-14  1.5000021522504678e-01 2.6782704599916459e-15 5.8907119231004896e-14  1.5000026560443730e-01 1.0349450953181516e-15 8.7855078078026781e-14  1.5000025901967984e-01 2.9512188982341901e-16 7.9199221929884649e-14  1.5000015648021769e-01 8.5352402107278750e-15 2.4438872528193702e-14  1.4999994475753839e-01 3.2506732521365979e-14 7.1357785930900293e-15  1.4999965422292799e-01 7.1974694547299903e-14 1.5522828911190751e-13  1.4999934848944996e-01 1.1141110037964483e-13 4.8031277096583610e-13  1.4999911331712559e-01 9.8669617078388689e-14 7.9234332396790340e-13  1.4999907198685750e-01 1.4197458167838471e-14 7.4637348368563773e-13  1.4999935561066069e-01 7.0139778492235365e-14 2.4222874128791483e-13  1.4999995840166322e-01 4.3132560640706135e-13 3.4576745881229394e-14  1.5000060920502187e-01 5.4548987351962586e-13 6.9523993451905336e-13  1.5000089502985825e-01 1.3509816572596625e-13 9.9561971655855823e-13  1.5000063792914206e-01 2.9694231871673875e-14 3.2047395457559369e-13  1.5000014445580642e-01 1.8349669283823604e-13 2.7229480058454722e-16  1.4999990190426107e-01 9.9496685268326029e-14 4.5815197485300445e-14  1.4999998176461932e-01 1.3010291851518525e-14 2.6355269845604248e-15  1.5000007102402740e-01 1.9226314573993997e-15 6.8025789733751212e-15  1.5000012654109560e-01 4.2407989680765197e-14 3.3316054544907053e-14  1.5000031331912542e-01 3.3065274887558256e-14 1.6001516850351570e-13  1.5000028882600938e-01 3.0999014484641697e-14 8.0130926251824967e-14  1.4999973901056307e-01 1.5243160651999089e-13 1.6427074295110104e-13  1.4999946681230755e-01 8.3407191667766766e-17 3.6748504236705272e-13  1.5000015564746916e-01 1.6734941107499283e-13 8.8779245883261787e-14  1.5000065602237633e-01 1.7475461003493049e-14 5.9628086935575486e-13  1.4999993127650632e-01 1.2563308723034246e-13 3.7701538616869280e-14  1.4999933921701136e-01 3.2913922343761149e-14 6.1534452533537586e-13  1.5000005533902286e-01 7.9488326897227443e-14 2.7812429758292414e-14  1.5000059202407034e-01 2.9787036406951621e-14 4.8552176396229926e-13  1.4999989871827465e-01 4.9083504832826191e-14 4.2020652951372572e-14  1.4999952196933578e-01 1.7822781333070748e-14 3.0182718767500331e-13  1.5000016848031089e-01 3.1691184129630581e-14 7.0501277082620249e-14  1.5000033895691053e-01 7.1683943469493500e-15 1.3884065051244300e-13  1.4999978224452398e-01 2.1147978168762971e-14 9.1716473399270269e-14  1.4999980581126049e-01 1.4447263076545532e-15 3.7730438363153901e-14  1.5000022514247238e-01 1.3463426896886779e-14 8.4294127950816038e-14  1.5000006582952280e-01 2.3674469382858173e-20 1.8189395216788546e-15  1.4999981198767112e-01 7.2648279347878088e-15 5.1910810984320388e-14  1.5000002571172139e-01 6.7864421138499042e-16 3.4266746434818345e-15  1.5000012212793298e-01 2.8078705898501096e-15 1.8793969716787502e-14  1.4999993005830511e-01 1.4204618121780792e-15 9.9452910774565990e-15  1.4999994778507703e-01 5.2823956071296673e-16 2.3968121443130019e-15  1.5000007126598486e-01 1.2825371426535714e-15 8.1167898583662800e-15  1.5000000010726955e-01 6.9377931448213617e-20 1.3252015981827086e-16  1.4999995344008668e-01 6.0356554230899516e-16 2.8119117607471921e-15  1.5000002419707040e-01 1.3756673482998697e-16 1.2481349149827408e-15  1.5000001653335104e-01 1.0848981687581219e-16 2.0959057069430290e-16  1.4999997556967479e-01 1.7584017373138992e-16 9.2288258842228790e-16  1.5000000382061102e-01 3.0132536427991014e-19 7.5737986463275502e-17  1.5000001274384411e-01 6.7874751423222849e-17 1.8112576672611416e-16  1.4999998986126856e-01 2.7746171495553621e-17 1.8607338674247254e-16  1.4999999871125833e-01 3.8359949853065855e-18 3.3019290960137072e-19  1.5000000690019619e-01 2.0742658490292465e-17 6.0666000195425585e-17  1.4999999616360538e-01 3.1805056414116644e-18 3.1248287444518632e-17  1.4999999856218016e-01 2.5567227451138376e-18 5.2464889265397367e-19  1.5000000325406912e-01 4.8848493774194888e-18 1.4341518732517739e-17  1.4999999849238879e-01 3.7972758390859895e-19 5.4490512643518174e-18  1.4999999923189833e-01 7.7588077974293944e-19 2.0255207661884074e-19  1.5000000144743555e-01 1.0777846723448912e-18 2.8463904335147865e-18  1.4999999931931865e-01 7.8763724802851061e-20 1.1271954492805091e-18  1.4999999971392480e-01 1.5584198138684685e-19 1.2665396065510588e-20  1.5000000061939950e-01 2.4042510893657590e-19 4.8438464355035028e-19  1.4999999964711233e-01 3.1955390539821174e-20 2.7053978180395596e-19  1.4999999995028665e-01 1.8156511907268788e-20 2.8184361407591534e-21  1.5000000024203453e-01 4.9896410084639112e-20 6.0839137055775979e-20  1.4999999981282872e-01 1.4902029443851354e-20 6.3066527070191369e-20  1.5000000003398076e-01 3.3789971927079284e-22 8.3406057184879334e-21  1.5000000007366807e-01 7.8497104538080840e-21 3.1646849077288796e-21  1.4999999991131457e-01 5.4257408106147004e-21 1.1261648062790575e-20  1.5000000004