<?xml version="1.0"?>
<VTKFile type="UnstructuredGrid"  version="0.1"  >
<UnstructuredGrid>
<Piece  NumberOfPoints="10201" NumberOfCells="20000">
<Points>
<DataArray  type="Float64"  NumberOfComponents="3"  format="ascii">-5 -5 0  -4.9 -5 0  -4.8 -5 0  -4.7 -5 0  -4.6 -5 0  -4.5 -5 0  -4.4 -5 0  -4.3 -5 0  -4.2 -5 0  -4.1 -5 0  -4 -5 0  -3.9 -5 0  -3.8 -5 0  -3.7 -5 0  -3.6 -5 0  -3.5 -5 0  -3.4 -5 0  -3.3 -5 0  -3.2 -5 0  -3.1 -5 0  -3 -5 0  -2.9 -5 0  -2.8 -5 0  -2.7 -5 0  -2.6 -5 0  -2.5 -5 0  -2.4 -5 0  -2.3 -5 0  -2.2 -5 0  -2.1 -5 0  -2 -5 0  -1.9 -5 0  -1.8 -5 0  -1.7 -5 0  -1.6 -5 0  -1.5 -5 0  -1.4 -5 0  -1.3 -5 0  -1.2 -5 0  -1.1 -5 0  -1 -5 0  -0.9000000000000004 -5 0  -0.7999999999999998 -5 0  -0.7000000000000002 -5 0  -0.5999999999999996 -5 0  -0.5 -5 0  -0.4000000000000004 -5 0  -0.2999999999999998 -5 0  -0.2000000000000002 -5 0  -0.09999999999999964 -5 0  0 -5 0  0.09999999999999964 -5 0  0.2000000000000002 -5 0  0.2999999999999998 -5 0  0.4000000000000004 -5 0  0.5 -5 0  0.5999999999999996 -5 0  0.7000000000000002 -5 0  0.7999999999999998 -5 0  0.9000000000000004 -5 0  1 -5 0  1.1 -5 0  1.2 -5 0  1.3 -5 0  1.4 -5 0  1.5 -5 0  1.6 -5 0  1.7 -5 0  1.8 -5 0  1.9 -5 0  2 -5 0  2.1 -5 0  2.2 -5 0  2.3 -5 0  2.4 -5 0  2.5 -5 0  2.6 -5 0  2.7 -5 0  2.8 -5 0  2.9 -5 0  3 -5 0  3.1 -5 0  3.199999999999999 -5 0  3.300000000000001 -5 0  3.4 -5 0  3.5 -5 0  3.6 -5 0  3.699999999999999 -5 0  3.800000000000001 -5 0  3.9 -5 0  4 -5 0  4.1 -5 0  4.199999999999999 -5 0  4.300000000000001 -5 0  4.4 -5 0  4.5 -5 0  4.6 -5 0  4.699999999999999 -5 0  4.800000000000001 -5 0  4.9 -5 0  5 -5 0  -5 -4.9 0  -4.9 -4.9 0  -4.8 -4.9 0  -4.7 -4.9 0  -4.6 -4.9 0  -4.5 -4.9 0  -4.4 -4.9 0  -4.3 -4.9 0  -4.2 -4.9 0  -4.1 -4.9 0  -4 -4.9 0  -3.9 -4.9 0  -3.8 -4.9 0  -3.7 -4.9 0  -3.6 -4.9 0  -3.5 -4.9 0  -3.4 -4.9 0  -3.3 -4.9 0  -3.2 -4.9 0  -3.1 -4.9 0  -3 -4.9 0  -2.9 -4.9 0  -2.8 -4.9 0  -2.7 -4.9 0  -2.6 -4.9 0  -2.5 -4.9 0  -2.4 -4.9 0  -2.3 -4.9 0  -2.2 -4.9 0  -2.1 -4.9 0  -2 -4.9 0  -1.9 -4.9 0  -1.8 -4.9 0  -1.7 -4.9 0  -1.6 -4.9 0  -1.5 -4.9 0  -1.4 -4.9 0  -1.3 -4.9 0  -1.2 -4.9 0  -1.1 -4.9 0  -1 -4.9 0  -0.9000000000000004 -4.9 0  -0.7999999999999998 -4.9 0  -0.7000000000000002 -4.9 0  -0.5999999999999996 -4.9 0  -0.5 -4.9 0  -0.4000000000000004 -4.9 0  -0.2999999999999998 -4.9 0  -0.2000000000000002 -4.9 0  -0.09999999999999964 -4.9 0  0 -4.9 0  0.09999999999999964 -4.9 0  0.2000000000000002 -4.9 0  0.2999999999999998 -4.9 0  0.4000000000000004 -4.9 0  0.5 -4.9 0  0.5999999999999996 -4.9 0  0.7000000000000002 -4.9 0  0.7999999999999998 -4.9 0  0.9000000000000004 -4.9 0  1 -4.9 0  1.1 -4.9 0  1.2 -4.9 0  1.3 -4.9 0  1.4 -4.9 0  1.5 -4.9 0  1.6 -4.9 0  1.7 -4.9 0  1.8 -4.9 0  1.9 -4.9 0  2 -4.9 0  2.1 -4.9 0  2.2 -4.9 0  2.3 -4.9 0  2.4 -4.9 0  2.5 -4.9 0  2.6 -4.9 0  2.7 -4.9 0  2.8 -4.9 0  2.9 -4.9 0  3 -4.9 0  3.1 -4.9 0  3.199999999999999 -4.9 0  3.300000000000001 -4.9 0  3.4 -4.9 0  3.5 -4.9 0  3.6 -4.9 0  3.699999999999999 -4.9 0  3.800000000000001 -4.9 0  3.9 -4.9 0  4 -4.9 0  4.1 -4.9 0  4.199999999999999 -4.9 0  4.300000000000001 -4.9 0  4.4 -4.9 0  4.5 -4.9 0  4.6 -4.9 0  4.699999999999999 -4.9 0  4.800000000000001 -4.9 0  4.9 -4.9 0  5 -4.9 0  -5 -4.8 0  -4.9 -4.8 0  -4.8 -4.8 0  -4.7 -4.8 0  -4.6 -4.8 0  -4.5 -4.8 0  -4.4 -4.8 0  -4.3 -4.8 0  -4.2 -4.8 0  -4.1 -4.8 0  -4 -4.8 0  -3.9 -4.8 0  -3.8 -4.8 0  -3.7 -4.8 0  -3.6 -4.8 0  -3.5 -4.8 0  -3.4 -4.8 0  -3.3 -4.8 0  -3.2 -4.8 0  -3.1 -4.8 0  -3 -4.8 0  -2.9 -4.8 0  -2.8 -4.8 0  -2.7 -4.8 0  -2.6 -4.8 0  -2.5 -4.8 0  -2.4 -4.8 0  -2.3 -4.8 0  -2.2 -4.8 0  -2.1 -4.8 0  -2 -4.8 0  -1.9 -4.8 0  -1.8 -4.8 0  -1.7 -4.8 0  -1.6 -4.8 0  -1.5 -4.8 0  -1.4 -4.8 0  -1.3 -4.8 0  -1.2 -4.8 0  -1.1 -4.8 0  -1 -4.8 0  -0.9000000000000004 -4.8 0  -0.7999999999999998 -4.8 0  -0.7000000000000002 -4.8 0  -0.5999999999999996 -4.8 0  -0.5 -4.8 0  -0.4000000000000004 -4.8 0  -0.2999999999999998 -4.8 0  -0.2000000000000002 -4.8 0  -0.09999999999999964 -4.8 0  0 -4.8 0  0.09999999999999964 -4.8 0  0.2000000000000002 -4.8 0  0.2999999999999998 -4.8 0  0.4000000000000004 -4.8 0  0.5 -4.8 0  0.5999999999999996 -4.8 0  0.7000000000000002 -4.8 0  0.7999999999999998 -4.8 0  0.9000000000000004 -4.8 0  1 -4.8 0  1.1 -4.8 0  1.2 -4.8 0  1.3 -4.8 0  1.4 -4.8 0  1.5 -4.8 0  1.6 -4.8 0  1.7 -4.8 0  1.8 -4.8 0  1.9 -4.8 0  2 -4.8 0  2.1 -4.8 0  2.2 -4.8 0  2.3 -4.8 0  2.4 -4.8 0  2.5 -4.8 0  2.6 -4.8 0  2.7 -4.8 0  2.8 -4.8 0  2.9 -4.8 0  3 -4.8 0  3.1 -4.8 0  3.199999999999999 -4.8 0  3.300000000000001 -4.8 0  3.4 -4.8 0  3.5 -4.8 0  3.6 -4.8 0  3.699999999999999 -4.8 0  3.800000000000001 -4.8 0  3.9 -4.8 0  4 -4.8 0  4.1 -4.8 0  4.199999999999999 -4.8 0  4.300000000000001 -4.8 0  4.4 -4.8 0  4.5 -4.8 0  4.6 -4.8 0  4.699999999999999 -4.8 0  4.800000000000001 -4.8 0  4.9 -4.8 0  5 -4.8 0  -5 -4.7 0  -4.9 -4.7 0  -4.8 -4.7 0  -4.7 -4.7 0  -4.6 -4.7 0  -4.5 -4.7 0  -4.4 -4.7 0  -4.3 -4.7 0  -4.2 -4.7 0  -4.1 -4.7 0  -4 -4.7 0  -3.9 -4.7 0  -3.8 -4.7 0  -3.7 -4.7 0  -3.6 -4.7 0  -3.5 -4.7 0  -3.4 -4.7 0  -3.3 -4.7 0  -3.2 -4.7 0  -3.1 -4.7 0  -3 -4.7 0  -2.9 -4.7 0  -2.8 -4.7 0  -2.7 -4.7 0  -2.6 -4.7 0  -2.5 -4.7 0  -2.4 -4.7 0  -2.3 -4.7 0  -2.2 -4.7 0  -2.1 -4.7 0  -2 -4.7 0  -1.9 -4.7 0  -1.8 -4.7 0  -1.7 -4.7 0  -1.6 -4.7 0  -1.5 -4.7 0  -1.4 -4.7 0  -1.3 -4.7 0  -1.2 -4.7 0  -1.1 -4.7 0  -1 -4.7 0  -0.9000000000000004 -4.7 0  -0.7999999999999998 -4.7 0  -0.7000000000000002 -4.7 0  -0.5999999999999996 -4.7 0  -0.5 -4.7 0  -0.4000000000000004 -4.7 0  -0.2999999999999998 -4.7 0  -0.2000000000000002 -4.7 0  -0.09999999999999964 -4.7 0  0 -4.7 0  0.09999999999999964 -4.7 0  0.2000000000000002 -4.7 0  0.2999999999999998 -4.7 0  0.4000000000000004 -4.7 0  0.5 -4.7 0  0.5999999999999996 -4.7 0  0.7000000000000002 -4.7 0  0.7999999999999998 -4.7 0  0.9000000000000004 -4.7 0  1 -4.7 0  1.1 -4.7 0  1.2 -4.7 0  1.3 -4.7 0  1.4 -4.7 0  1.5 -4.7 0  1.6 -4.7 0  1.7 -4.7 0  1.8 -4.7 0  1.9 -4.7 0  2 -4.7 0  2.1 -4.7 0  2.2 -4.7 0  2.3 -4.7 0  2.4 -4.7 0  2.5 -4.7 0  2.6 -4.7 0  2.7 -4.7 0  2.8 -4.7 0  2.9 -4.7 0  3 -4.7 0  3.1 -4.7 0  3.199999999999999 -4.7 0  3.300000000000001 -4.7 0  3.4 -4.7 0  3.5 -4.7 0  3.6 -4.7 0  3.699999999999999 -4.7 0  3.800000000000001 -4.7 0  3.9 -4.7 0  4 -4.7 0  4.1 -4.7 0  4.199999999999999 -4.7 0  4.300000000000001 -4.7 0  4.4 -4.7 0  4.5 -4.7 0  4.6 -4.7 0  4.699999999999999 -4.7 0  4.800000000000001 -4.7 0  4.9 -4.7 0  5 -4.7 0  -5 -4.6 0  -4.9 -4.6 0  -4.8 -4.6 0  -4.7 -4.6 0  -4.6 -4.6 0  -4.5 -4.6 0  -4.4 -4.6 0  -4.3 -4.6 0  -4.2 -4.6 0  -4.1 -4.6 0  -4 -4.6 0  -3.9 -4.6 0  -3.8 -4.6 0  -3.7 -4.6 0  -3.6 -4.6 0  -3.5 -4.6 0  -3.4 -4.6 0  -3.3 -4.6 0  -3.2 -4.6 0  -3.1 -4.6 0  -3 -4.6 0  -2.9 -4.6 0  -2.8 -4.6 0  -2.7 -4.6 0  -2.6 -4.6 0  -2.5 -4.6 0  -2.4 -4.6 0  -2.3 -4.6 0  -2.2 -4.6 0  -2.1 -4.6 0  -2 -4.6 0  -1.9 -4.6 0  -1.8 -4.6 0  -1.7 -4.6 0  -1.6 -4.6 0  -1.5 -4.6 0  -1.4 -4.6 0  -1.3 -4.6 0  -1.2 -4.6 0  -1.1 -4.6 0  -1 -4.6 0  -0.9000000000000004 -4.6 0  -0.7999999999999998 -4.6 0  -0.7000000000000002 -4.6 0  -0.5999999999999996 -4.6 0  -0.5 -4.6 0  -0.4000000000000004 -4.6 0  -0.2999999999999998 -4.6 0  -0.2000000000000002 -4.6 0  -0.09999999999999964 -4.6 0  0 -4.6 0  0.09999999999999964 -4.6 0  0.2000000000000002 -4.6 0  0.2999999999999998 -4.6 0  0.4000000000000004 -4.6 0  0.5 -4.6 0  0.5999999999999996 -4.6 0  0.7000000000000002 -4.6 0  0.7999999999999998 -4.6 0  0.9000000000000004 -4.6 0  1 -4.6 0  1.1 -4.6 0  1.2 -4.6 0  1.3 -4.6 0  1.4 -4.6 0  1.5 -4.6 0  1.6 -4.6 0  1.7 -4.6 0  1.8 -4.6 0  1.9 -4.6 0  2 -4.6 0  2.1 -4.6 0  2.2 -4.6 0  2.3 -4.6 0  2.4 -4.6 0  2.5 -4.6 0  2.6 -4.6 0  2.7 -4.6 0  2.8 -4.6 0  2.9 -4.6 0  3 -4.6 0  3.1 -4.6 0  3.199999999999999 -4.6 0  3.300000000000001 -4.6 0  3.4 -4.6 0  3.5 -4.6 0  3.6 -4.6 0  3.699999999999999 -4.6 0  3.800000000000001 -4.6 0  3.9 -4.6 0  4 -4.6 0  4.1 -4.6 0  4.199999999999999 -4.6 0  4.300000000000001 -4.6 0  4.4 -4.6 0  4.5 -4.6 0  4.6 -4.6 0  4.699999999999999 -4.6 0  4.800000000000001 -4.6 0  4.9 -4.6 0  5 -4.6 0  -5 -4.5 0  -4.9 -4.5 0  -4.8 -4.5 0  -4.7 -4.5 0  -4.6 -4.5 0  -4.5 -4.5 0  -4.4 -4.5 0  -4.3 -4.5 0  -4.2 -4.5 0  -4.1 -4.5 0  -4 -4.5 0  -3.9 -4.5 0  -3.8 -4.5 0  -3.7 -4.5 0  -3.6 -4.5 0  -3.5 -4.5 0  -3.4 -4.5 0  -3.3 -4.5 0  -3.2 -4.5 0  -3.1 -4.5 0  -3 -4.5 0  -2.9 -4.5 0  -2.8 -4.5 0  -2.7 -4.5 0  -2.6 -4.5 0  -2.5 -4.5 0  -2.4 -4.5 0  -2.3 -4.5 0  -2.2 -4.5 0  -2.1 -4.5 0  -2 -4.5 0  -1.9 -4.5 0  -1.8 -4.5 0  -1.7 -4.5 0  -1.6 -4.5 0  -1.5 -4.5 0  -1.4 -4.5 0  -1.3 -4.5 0  -1.2 -4.5 0  -1.1 -4.5 0  -1 -4.5 0  -0.9000000000000004 -4.5 0  -0.7999999999999998 -4.5 0  -0.7000000000000002 -4.5 0  -0.5999999999999996 -4.5 0  -0.5 -4.5 0  -0.4000000000000004 -4.5 0  -0.2999999999999998 -4.5 0  -0.2000000000000002 -4.5 0  -0.09999999999999964 -4.5 0  0 -4.5 0  0.09999999999999964 -4.5 0  0.2000000000000002 -4.5 0  0.2999999999999998 -4.5 0  0.4000000000000004 -4.5 0  0.5 -4.5 0  0.5999999999999996 -4.5 0  0.7000000000000002 -4.5 0  0.7999999999999998 -4.5 0  0.9000000000000004 -4.5 0  1 -4.5 0  1.1 -4.5 0  1.2 -4.5 0  1.3 -4.5 0  1.4 -4.5 0  1.5 -4.5 0  1.6 -4.5 0  1.7 -4.5 0  1.8 -4.5 0  1.9 -4.5 0  2 -4.5 0  2.1 -4.5 0  2.2 -4.5 0  2.3 -4.5 0  2.4 -4.5 0  2.5 -4.5 0  2.6 -4.5 0  2.7 -4.5 0  2.8 -4.5 0  2.9 -4.5 0  3 -4.5 0  3.1 -4.5 0  3.199999999999999 -4.5 0  3.300000000000001 -4.5 0  3.4 -4.5 0  3.5 -4.5 0  3.6 -4.5 0  3.699999999999999 -4.5 0  3.800000000000001 -4.5 0  3.9 -4.5 0  4 -4.5 0  4.1 -4.5 0  4.199999999999999 -4.5 0  4.300000000000001 -4.5 0  4.4 -4.5 0  4.5 -4.5 0  4.6 -4.5 0  4.699999999999999 -4.5 0  4.800000000000001 -4.5 0  4.9 -4.5 0  5 -4.5 0  -5 -4.4 0  -4.9 -4.4 0  -4.8 -4.4 0  -4.7 -4.4 0  -4.6 -4.4 0  -4.5 -4.4 0  -4.4 -4.4 0  -4.3 -4.4 0  -4.2 -4.4 0  -4.1 -4.4 0  -4 -4.4 0  -3.9 -4.4 0  -3.8 -4.4 0  -3.7 -4.4 0  -3.6 -4.4 0  -3.5 -4.4 0  -3.4 -4.4 0  -3.3 -4.4 0  -3.2 -4.4 0  -3.1 -4.4 0  -3 -4.4 0  -2.9 -4.4 0  -2.8 -4.4 0  -2.7 -4.4 0  -2.6 -4.4 0  -2.5 -4.4 0  -2.4 -4.4 0  -2.3 -4.4 0  -2.2 -4.4 0  -2.1 -4.4 0  -2 -4.4 0  -1.9 -4.4 0  -1.8 -4.
[...]
<PointData  Vectors="f_23"> 
<DataArray  type="Float64"  Name="f_23"  NumberOfComponents="3" format="ascii">1.5011223028599405e-01 0.0000000000000000e+00 0.0000000000000000e+00  1.5000107564077669e-01 6.3917286128627551e-09 0.0000000000000000e+00  1.5015766254003049e-01 7.0748373410162714e-11 0.0000000000000000e+00  1.5010018682616419e-01 1.7088035433689966e-08 0.0000000000000000e+00  1.5026527239037391e-01 3.5157859148778981e-10 0.0000000000000000e+00  1.5022699624125993e-01 2.7007200543452126e-08 0.0000000000000000e+00  1.5038082970123029e-01 8.2608641025244489e-10 0.0000000000000000e+00  1.5031711428412844e-01 1.9313919432425319e-08 0.0000000000000000e+00  1.5040624261718877e-01 5.4711848043557803e-10 0.0000000000000000e+00  1.5028623563595542e-01 1.7296284733553806e-09 0.0000000000000000e+00  1.5030591819800343e-01 1.1793711311604514e-08 0.0000000000000000e+00  1.5017720863280865e-01 1.6483876802007296e-09 0.0000000000000000e+00  1.5020084054350774e-01 1.4885541882994399e-08 0.0000000000000000e+00  1.5013352044516048e-01 1.0247721049883623e-09 0.0000000000000000e+00  1.5017507913918127e-01 4.9865034551600238e-09 0.0000000000000000e+00  1.5012129419849629e-01 3.8249241296409308e-10 0.0000000000000000e+00  1.5011165529514134e-01 6.0724160198801759e-09 0.0000000000000000e+00  1.5002374409239666e-01 4.1532639546616837e-09 0.0000000000000000e+00  1.4998974200892015e-01 7.7534064583366402e-09 0.0000000000000000e+00  1.4995360098248986e-01 1.7456658483709540e-09 0.0000000000000000e+00  1.4997648897667240e-01 1.6045805350929129e-10 0.0000000000000000e+00  1.4999230890108145e-01 1.2998514866358191e-09 0.0000000000000000e+00  1.5002100242342753e-01 1.3288719343234802e-09 0.0000000000000000e+00  1.5000603713339247e-01 5.8104182113158197e-10 0.0000000000000000e+00  1.4996290304418103e-01 1.5636934850512920e-10 0.0000000000000000e+00  1.4991399167138852e-01 1.7188653520965890e-09 0.0000000000000000e+00  1.4990617564935346e-01 1.5321470056138496e-09 0.0000000000000000e+00  1.4993949148232874e-01 4.0148600557226176e-10 0.0000000000000000e+00  1.5000623813805031e-01 4.4794454951593884e-09 0.0000000000000000e+00  1.5004523563206590e-01 2.4610424389204116e-09 0.0000000000000000e+00  1.5001786785557039e-01 4.0557884884744189e-11 0.0000000000000000e+00  1.4998175003061062e-01 3.0007464230582445e-10 0.0000000000000000e+00  1.4999167147819281e-01 1.1633390673418584e-09 0.0000000000000000e+00  1.5000762929089573e-01 4.2983110624915286e-10 0.0000000000000000e+00  1.5002863850404141e-01 1.1691575790608840e-09 0.0000000000000000e+00  1.5006524211869049e-01 1.5859294684314803e-09 0.0000000000000000e+00  1.5002456210676224e-01 1.2737347552956264e-09 0.0000000000000000e+00  1.4992896227703123e-01 4.1417727893740704e-09 0.0000000000000000e+00  1.4996739370852330e-01 3.9981656809622832e-11 0.0000000000000000e+00  1.5008090236178526e-01 2.8456983878630081e-09 0.0000000000000000e+00  1.5003813418921705e-01 1.2697912537408606e-10 0.0000000000000000e+00  1.4993589963482681e-01 1.5310920694992700e-09 0.0000000000000000e+00  1.4997631486030955e-01 7.2723215475804023e-10 0.0000000000000000e+00  1.5004158810644763e-01 5.5517769675538894e-10 0.0000000000000000e+00  1.5001242370536833e-01 1.2526965091904282e-09 0.0000000000000000e+00  1.4998581516098422e-01 2.5715126003122034e-10 0.0000000000000000e+00  1.4999063864084569e-01 1.5018631889897401e-09 0.0000000000000000e+00  1.4999396347062688e-01 2.4528780738604516e-10 0.0000000000000000e+00  1.5001659866260145e-01 1.2841000051522592e-09 0.0000000000000000e+00  1.5001266552136899e-01 3.9447379448821579e-10 0.0000000000000000e+00  1.4997455543833474e-01 7.0983978455405491e-10 0.0000000000000000e+00  1.4999509478411432e-01 5.6676428640975169e-10 0.0000000000000000e+00  1.5002689274124356e-01 1.6903580728662678e-10 0.0000000000000000e+00  1.4999129746876350e-01 5.5080057178234670e-10 0.0000000000000000e+00  1.4998347452245869e-01 1.6238299621242366e-12 0.0000000000000000e+00  1.5001723362323227e-01 2.8655228838553899e-10 0.0000000000000000e+00  1.4999990070526364e-01 1.3405596686221459e-10 0.0000000000000000e+00  1.4998635748821723e-01 3.3549126330322237e-11 0.0000000000000000e+00  1.5001286782572010e-01 2.0367184716106377e-10 0.0000000000000000e+00  1.5000115889609372e-01 2.6954357119389094e-11 0.0000000000000000e+00  1.4998539551529050e-01 9.7874749155911101e-11 0.0000000000000000e+00  1.5001154148704551e-01 1.5055665243211018e-10 0.0000000000000000e+00  1.5000508040061467e-01 1.2141119599217747e-13 0.0000000000000000e+00  1.4998548148833377e-01 1.1631434040895262e-10 0.0000000000000000e+00  1.5000543784526033e-01 3.5602338152480455e-11 0.0000000000000000e+00  1.5000959628238533e-01 4.1352129287096418e-11 0.0000000000000000e+00  1.4998769257084138e-01 1.1003447894276915e-10 0.0000000000000000e+00  1.5000187250435856e-01 1.0062901192263927e-11 0.0000000000000000e+00  1.5000729949913205e-01 2.0352081374046913e-11 0.0000000000000000e+00  1.4999464928766720e-01 1.2547995459453380e-11 0.0000000000000000e+00  1.4999686280706073e-01 1.0500483324552385e-11 0.0000000000000000e+00  1.5000788308994442e-01 5.4171443470587075e-11 0.0000000000000000e+00  1.4999467324300936e-01 2.9789954290943688e-11 0.0000000000000000e+00  1.5000026240897091e-01 1.8500131079195389e-12 0.0000000000000000e+00  1.5000158627360360e-01 3.5716843004437703e-15 0.0000000000000000e+00  1.5000054938585122e-01 3.5066060627532783e-12 0.0000000000000000e+00  1.4999655585911398e-01 1.8833089601807504e-11 0.0000000000000000e+00  1.5000428315742614e-01 2.4126247671823401e-11 0.0000000000000000e+00  1.4999693996706184e-01 1.3589959985297930e-11 0.0000000000000000e+00  1.5000152871363770e-01 5.2884238728156083e-12 0.0000000000000000e+00  1.4999898488652805e-01 3.6602450503536563e-12 0.0000000000000000e+00  1.5000147791482696e-01 5.7294294571929254e-12 0.0000000000000000e+00  1.4999789512027847e-01 8.6107344454176348e-12 0.0000000000000000e+00  1.5000229061913586e-01 8.9777061215816445e-12 0.0000000000000000e+00  1.4999797273620272e-01 6.9843205336328101e-12 0.0000000000000000e+00  1.5000165620607783e-01 5.0633841559157980e-12 0.0000000000000000e+00  1.4999853633611707e-01 4.3837673524453403e-12 0.0000000000000000e+00  1.5000149955033687e-01 4.7765229315199777e-12 0.0000000000000000e+00  1.4999835036279602e-01 5.6459558558559027e-12 0.0000000000000000e+00  1.5000178327510924e-01 6.3609882398909269e-12 0.0000000000000000e+00  1.4999815324513183e-01 6.6361417126513896e-12 0.0000000000000000e+00  1.5000184328351482e-01 6.5523321239189467e-12 0.0000000000000000e+00  1.4999817835248958e-01 6.3625485419583607e-12 0.0000000000000000e+00  1.5000176945501723e-01 6.0538947784839108e-12 0.0000000000000000e+00  1.4999824733928588e-01 5.7365338589185331e-12 0.0000000000000000e+00  1.5000161378238133e-01 4.9095995356834113e-12 0.0000000000000000e+00  1.4999836523370372e-01 4.1975559385078822e-12 0.0000000000000000e+00  1.5000126419868234e-01 2.4754872107124074e-12 0.0000000000000000e+00  1.4999843596724424e-01 1.8077062157233817e-12 0.0000000000000000e+00  1.5000073058102689e-01 3.3800795313269304e-13 0.0000000000000000e+00  1.4999816080272679e-01 0.0000000000000000e+00 0.0000000000000000e+00  1.5000107564077700e-01 0.0000000000000000e+00 6.3917286128412798e-09  1.4991093603192615e-01 2.2520655814978733e-11 2.2520655809352822e-11  1.4994508047940505e-01 5.6769728442433273e-09 5.4164245677157305e-09  1.4983280090193485e-01 5.1437416848021643e-10 2.4998827437015576e-09  1.4984432307132153e-01 1.4539155093397087e-08 1.3773561129798648e-08  1.4971006586134253e-01 2.8246797032753909e-09 9.9943696590094506e-09  1.4972293546932788e-01 1.9670147677305641e-08 2.5809141348394146e-08  1.4960873039358702e-01 2.1092169570085629e-09 1.4500182747360237e-08  1.4966620510498960e-01 8.7672511562547641e-09 2.3974079219289454e-08  1.4961976452202724e-01 7.2734709832240408e-10 6.8620176594907803e-09  1.4973160862203513e-01 4.3570362567173932e-11 9.5363640303883827e-09  1.4973221256917119e-01 1.0700835331211692e-08 7.6984876440762346e-10  1.4983287827836311e-01 3.4515114105946685e-09 3.3801044476784842e-09  1.4980969877400210e-01 9.2820726594066408e-09 4.4549195005725313e-10  1.4985923386589967e-01 1.2487721653288242e-09 3.6553229956504398e-09  1.4983472630274319e-01 3.6321413723510520e-09 6.0094481653603794e-10  1.4989325144652343e-01 1.7830190643916403e-09 1.2032672343981305e-09  1.4992013009489685e-01 7.1364384263232083e-09 1.0092369664263694e-10  1.4999830236579839e-01 5.0870516680173266e-09 2.0665815522871689e-11  1.5001726314608901e-01 4.7750191835189475e-09 2.8285775864338176e-10  1.5003366520795569e-01 4.7653767988183590e-10 1.1533516312977330e-10  1.5000946092369394e-01 1.0105929858537595e-10 1.5288794647982156e-10  1.4999771650217250e-01 1.4005038973046645e-09 3.8198671317721978e-10  1.4998705651034153e-01 5.4947751326026654e-10 3.0422963364351322e-12  1.5002233347607158e-01 9.3582450943975950e-12 5.8687217928067759e-10  1.5006658286279020e-01 7.4681287934570938e-10 2.4824713090219671e-09  1.5009158810280901e-01 1.4926039390542147e-09 2.0365063548890383e-09  1.5007453625141204e-01 5.6492352680699008e-11 4.0657211519578330e-10  1.5002739059619938e-01 2.5540871358066843e-09 1.4318405708590997e-10  1.4997265387019743e-01 3.5342806465665798e-09 3.8013860794558740e-10  1.4997051929538860e-01 4.6425764090062188e-10 3.8031576656865315e-13  1.5000882326654413e-01 4.2446029332117683e-11 4.2852107216328476e-10  1.5001318823988444e-01 3.8943082673442587e-10 1.2195017151331792e-10  1.4998878256161624e-01 7.0483884818604106e-10 8.9690786833483642e-11  1.4998130060096226e-01 3.9061290551693816e-11 4.9390701084822752e-10  1.4995878974695123e-01 1.4399200954775492e-09 6.7900909815737644e-10  1.4995001988043460e-01 1.5098733733897277e-11 2.8138084715582740e-12  1.5002419924930482e-01 2.8970318768318039e-09 1.2891607353557801e-09  1.5006074309508588e-01 3.9514989204929923e-10 1.5462898022850926e-10  1.4996631306228914e-01 1.0611928705047850e-09 1.9995675080512922e-09  1.4993097949569073e-01 4.9698926734892037e-10 4.3434395513906200e-10  1.5002790134573171e-01 1.7646888398060578e-10 1.6528164313447392e-09  1.5004792888971913e-01 6.2637775651649905e-10 2.3683768843839558e-10  1.4997564381810433e-01 4.4985875903077634e-11 1.1392848973951265e-09  1.4997667906799805e-01 6.5642942121051583e-10 5.6128133290896983e-11  1.5001020735205869e-01 3.1067368826961878e-10 4.4388705549250868e-10  1.5000257715316420e-01 8.2181951898745441e-10 3.2527541760123310e-14  1.5000866233423685e-01 4.0020539575717602e-10 6.1704516803887207e-11  1.5000333806381855e-01 1.0023936111154436e-09 5.5649173565261850e-12  1.4997519179805233e-01 2.1118991245448937e-10 8.5913952918313803e-12  1.5000469920047790e-01 1.0277329055575586e-09 1.9731092849271281e-14  1.5002904464114819e-01 2.1375281730571508e-11 6.3337345049018190e-11  1.4998192200121621e-01 7.8023860096996486e-10 1.3536226035661970e-11  1.4998089050256205e-01 3.2220403039862706e-11 5.8908946669466472e-11  1.5002515109448908e-01 3.7418903367761807e-10 2.8210399413061660e-11  1.5000139403019300e-01 1.5768042924040650e-10 2.0179489964037371e-11  1.4997991720413489e-01 6.4921034694809894e-11 2.0520442750057511e-11  1.5001206846681434e-01 1.8469710428575112e-10 6.3075581778611075e-12  1.5000590039692244e-01 4.0304008759837899e-12 4.9690518468843721e-12  1.4998551915090766e-01 9.2692488734388648e-11 6.1482863949470458e-12  1.5000822296862590e-01 7.7356836986881815e-11 1.2362060139351288e-12  1.5000549124713747e-01 2.4373934195154084e-12 1.1275609335650981e-11  1.4998764986815660e-01 7.1710225831796420e-11 4.5975301566423974e-12  1.5000480234687510e-01 1.5542005354136709e-11 8.7362420657394593e-12  1.5000819836581405e-01 3.2408906827952730e-11 1.2717723578727866e-11  1.4998858526923509e-01 7.0810457296644375e-11 1.3033833632420533e-12  1.5000231254382163e-01 3.9614767651062780e-12 1.7389865323519146e-11  1.5000695191961957e-01 1.9647935834125018e-11 3.3329542700132164e-12  1.4999405618568398e-01 1.0248125986506257e-11 3.9875934164469314e-12  1.4999769310693373e-01 8.8564160135746910e-12 5.7585391066118329e-12  1.5000752761133543e-01 3.9630624822796182e-11 1.3048577252752523e-13  1.4999485951708474e-01 1.5033426158818076e-11 6.4596986356088943e-12  1.4999964797636792e-01 6.3882976247708896e-14 4.3073000188762556e-12  1.5000259287285475e-01 1.7698131045049188e-12 7.8887472254983655e-14  1.4999964138878888e-01 8.4014588363471037e-13 3.6462059763066357e-13  1.4999715302359096e-01 1.0880384330409959e-11 1.5484062336123813e-16  1.5000372936191902e-01 1.1703448020641952e-11 1.1628513106322256e-12  1.4999776235691362e-01 3.1783587913129532e-12 2.2534293979096363e-12  1.5000046511626594e-01 1.2899677883989568e-13 1.3609461116387054e-12  1.5000001478987338e-01 7.2882085743897586e-14 4.2426860369361071e-13  1.5000066891201927e-01 1.1353041297488083e-12 1.9140007839199750e-13  1.4999854014346217e-01 2.8662792803545059e-12 2.9954817024055273e-13  1.5000163524204344e-01 2.6741097408002839e-12 5.3325236828470639e-13  1.4999873161296379e-01 1.3277232196463624e-12 6.2469941288555898e-13  1.5000084267272967e-01 5.9667955580911565e-13 5.1274616199227167e-13  1.4999930000653808e-01 5.8253177090053414e-13 3.6329644190098687e-13  1.5000083940756601e-01 1.0444452733717523e-12 2.8377533533488086e-13  1.4999893463882194e-01 1.6847098785571936e-12 2.7650523900238211e-13  1.5000121349013637e-01 2.0527724349778384e-12 3.1437111842335291e-13  1.4999875388782324e-01 2.0388259673241107e-12 3.7163253887977427e-13  1.5000121880423464e-01 1.8818653050894929e-12 4.3651689919308139e-13  1.4999881433715362e-01 1.7716084260263805e-12 5.0005291195869959e-13  1.5000117989311845e-01 1.7417040994530293e-12 5.7487688897731326e-13  1.4999884150719775e-01 1.6554004126512101e-12 6.2974602563708573e-13  1.5000114627244243e-01 1.4900315299619456e-12 7.0930659330370697e-13  1.4999899021489355e-01 1.0829785622778213e-12 6.6219286824084162e-13  1.5000098227521089e-01 7.8302129505055135e-13 7.2138637063933792e-13  1.4999938102770050e-01 2.9382911193453563e-13 4.1276090796589012e-13  1.5000079180057169e-01 2.7735737359139466e-13 5.5147269735027404e-13  1.5000002052285724e-01 2.7587778633626983e-14 2.7587778541424779e-14  1.5000073058102639e-01 0.0000000000000000e+00 3.3800795322654624e-13  1.5015766254002980e-01 0.0000000000000000e+00 7.0748373413684591e-11  1.4994508047940491e-01 5.4164245677408379e-09 5.6769728442503815e-09  1.5016856375687110e-01 1.2190273729965477e-09 1.2190273729988010e-09  1.5003606748173798e-01 2.2642005028277447e-08 2.2820202285821474e-08  1.5026323806896658e-01 5.0294803737689009e-10 1.2133860602643160e-08  1.5015614027432428e-01 4.1155444239572644e-08 6.4020569052143732e-08  1.5039237815585998e-01 4.3359432466568297e-13 3.8247768075779616e-08  1.5027335099083394e-01 4.2347596347806717e-08 1.0679625808495387e-07  1.5046687713439888e-01 7.1495882520540344e-10 4.7903709058411551e-08  1.5029741436322758e-01 1.6331415594208504e-08 8.7844946567226247e-08  1.5041008082580290e-01 1.1875993733750094e-08 1.9417315952331390e-08  1.5021002887031898e-01 2.5903044885544014e-10 3.4358493236111887e-08  1.5028237568281289e-01 2.5064815371091577e-08 2.3631005213586988e-09  1.5013138527218936e-01 4.8841632736168236e-10 1.5131149306535734e-08  1.5021896695886106e-01 1.4668945949198044e-08 2.2050410158236243e-09  1.5012287251999737e-01 3.6634341514922884e-11 1.4672853445830266e-08  1.5017840109400987e-01 8.0908172848472580e-09 1.9236439162779886e-09  1.5007720320905629e-01 1.6331004289144885e-09 4.3225804125841976e-09  1.5007328773551498e-01 1.1831685796274088e-08 2.4251474393470993e-10  1.4998419312287922e-01 3.3141990461983723e-09 1.0569160768177852e-11  1.4999842686391190e-01 4.1103593009157614e-09 3.4233269691867547e-10  1.4997466885949118e-01 4.9118157132225600e-12 6.5036345804412009e-10  1.5000561490203856e-01 2.2092883481432751e-10 2.7171397133063979e-10  1.5000029739973911e-01 1.1832028768843818e-09 5.8942548498977599e-10  1.4999832704617275e-01 1.4545530699485905e-11 3.5969489884175279e-10  1.4994426589166979e-01 1.2750994549298695e-10 3.4446375404608815e-09  1.4991439446825422e-01 1.4251129201544344e-09 8.5922290443265182e-09  1.4991082894201496e-01 6.1140840205167858e-10 4.8633088625608719e-09  1.4994726974221059e-01 6.2310611861924935e-10 6.3471983208251211e-10  1.4999638868991214e-01 4.4600397645902833e-09 4.0629066094171224e-10  1.5002909878174200e-01 1.6844565512942803e-09 3.6096311249463095e-10  1.5000306090510568e-01 2.8062368260600717e-11 2.7827191753537518e-10  1.4998116107246345e-01 4.7936016129514614e-11 9.1386250382932931e-10  1.5000509960313177e-01 4.1472126564904297e-10 8.1356619488591968e-13  1.5002304179694972e-01 2.5663979368684206e-10 6.0194747000935725e-10  1.5002705075617140e-01 7.3842136692168056e-10 1.4367119539244518e-09  1.5005098421908902e-01 5.3685370047138159e-10 1.5925297912139305e-09  1.5001794084853648e-01 1.7290552828888450e-09 3.0425607180445714e-10  1.4994312552186756e-01 1.9848928763528835e-09 3.8142807557953056e-09  1.4998692887254808e-01 3.8690770111613528e-10 4.0231618915648252e-10  1.5007561692020757e-01 9.7200696319168005e-10 6.6842409764095811e-09  1.5001438665750094e-01 4.8407956741672394e-11 2.3915179854056621e-10  1.4993933159044887e-01 3.4234032578833329e-10 4.8483431252422527e-09  1.5000333581801614e-01 1.0282440271607572e-10 6.0945571116405312e-10  1.5003849430267563e-01 2.6431697104718791e-11 2.3991190586542576e-09  1.4998777555479367e-01 5.0310422235740367e-10 6.6481779190750544e-10  1.4999245866993960e-01 2.5836550956874456e-13 3.7457555440167944e-10  1.5000871663936680e-01 9.6838053790043946e-10 3.7309723615291247e-10  1.4998277413760264e-01 9.1280350994767985e-12 1.8340629842517348e-11  1.5000661745806326e-01 1.1024490007223342e-09 2.0298406549248396e-11  1.5002496324793627e-01 9.4382895574237168e-11 2.3076548891431042e-10  1.4997402202403945e-01 8.2753064892672296e-10 1.3677106661054394e-10  1.4998354913925038e-01 2.6295642831390462e-10 1.8099298306769750e-10  1.5003502270426941e-01 3.7507204008622744e-10 4.1963413823696561e-10  1.4999803806143222e-01 3.7444488021701660e-10 2.1630683894282199e-11  1.4997104269465822e-01 6.2580851530382288e-11 3.7120724065180329e-10  1.5001693273311120e-01 2.8644868436340037e-10 1.4032510696995144e-11  1.5001355283921447e-01 1.6200974398932876e-12 1.6379837439475008e-10  1.4998020862282305e-01 1.3982883039280319e-10 3.1966696426828563e-11  1.5000375335102753e-01 6.0341385728425846e-11 3.0159091477032818e-11  1.5001014676768429e-01 7.9791225669499149e-12 8.8742881604712417e-12  1.4999016881627789e-01 4.0896729790746565e-11 7.8774091167464702e-12  1.5000002609893315e-01 1.3517865310859768e-12 6.6749061439136712e-13  1.5000874791070906e-01 3.4564456936880577e-11 7.1432741933869815e-12  1.4999076601188974e-01 5.4651126658450409e-11 3.0487528756797882e-14  1.5000208544875021e-01 7.4505995618879404e-12 2.1093281448746127e-11  1.5000456640834023e-01 3.3472524576518089e-12 1.0460710676385049e-11  1.4999648917420977e-01 4.9440496666956476e-13 2.4094553834204210e-12  1.4999659819885555e-01 1.9606094458630466e-11 6.9187508819092004e-12  1.5000812761851584e-01 5.5027942317844768e-11 1.2843889675413233e-12  1.4999368158798584e-01 3.0584537005995949e-11 2.0767142295519115e-11  1.5000144078187494e-01 4.0074807463596361e-12 1.5731584703313140e-11  1.5000065274311264e-01 1.3792477749683576e-12 1.2913292214703804e-12  1.5000152025180438e-01 1.1767788407404614e-11 4.4619635812696533e-14  1.4999529247685894e-01 3.2873040614201556e-11 9.5010740283252409e-13  1.5000556147505442e-01 3.2745740267066815e-11 7.9135274362349091e-12  1.4999602818318389e-01 1.5739493747299655e-11 1.1371017165480232e-11  1.5000214045712973e-01 6.5552206682576670e-12 6.6737358331195316e-12  1.4999826655405488e-01 6.8297875082059620e-12 2.6414468374426442e-12  1.5000253262588850e-01 1.2307802700214408e-11 1.8334389027102461e-12  1.4999668330339888e-01 1.6377772930717187e-11 2.7597533436021907e-12  1.5000332686569451e-01 1.4091649334632313e-11 3.8906561263300576e-12  1.4999723634