<?xml version="1.0"?>
<VTKFile type="UnstructuredGrid"  version="0.1"  >
<UnstructuredGrid>
<Piece  NumberOfPoints="10201" NumberOfCells="20000">
<Points>
<DataArray  type="Float64"  NumberOfComponents="3"  format="ascii">-5 -5 0  -4.9 -5 0  -4.8 -5 0  -4.7 -5 0  -4.6 -5 0  -4.5 -5 0  -4.4 -5 0  -4.3 -5 0  -4.2 -5 0  -4.1 -5 0  -4 -5 0  -3.9 -5 0  -3.8 -5 0  -3.7 -5 0  -3.6 -5 0  -3.5 -5 0  -3.4 -5 0  -3.3 -5 0  -3.2 -5 0  -3.1 -5 0  -3 -5 0  -2.9 -5 0  -2.8 -5 0  -2.7 -5 0  -2.6 -5 0  -2.5 -5 0  -2.4 -5 0  -2.3 -5 0  -2.2 -5 0  -2.1 -5 0  -2 -5 0  -1.9 -5 0  -1.8 -5 0  -1.7 -5 0  -1.6 -5 0  -1.5 -5 0  -1.4 -5 0  -1.3 -5 0  -1.2 -5 0  -1.1 -5 0  -1 -5 0  -0.9000000000000004 -5 0  -0.7999999999999998 -5 0  -0.7000000000000002 -5 0  -0.5999999999999996 -5 0  -0.5 -5 0  -0.4000000000000004 -5 0  -0.2999999999999998 -5 0  -0.2000000000000002 -5 0  -0.09999999999999964 -5 0  0 -5 0  0.09999999999999964 -5 0  0.2000000000000002 -5 0  0.2999999999999998 -5 0  0.4000000000000004 -5 0  0.5 -5 0  0.5999999999999996 -5 0  0.7000000000000002 -5 0  0.7999999999999998 -5 0  0.9000000000000004 -5 0  1 -5 0  1.1 -5 0  1.2 -5 0  1.3 -5 0  1.4 -5 0  1.5 -5 0  1.6 -5 0  1.7 -5 0  1.8 -5 0  1.9 -5 0  2 -5 0  2.1 -5 0  2.2 -5 0  2.3 -5 0  2.4 -5 0  2.5 -5 0  2.6 -5 0  2.7 -5 0  2.8 -5 0  2.9 -5 0  3 -5 0  3.1 -5 0  3.199999999999999 -5 0  3.300000000000001 -5 0  3.4 -5 0  3.5 -5 0  3.6 -5 0  3.699999999999999 -5 0  3.800000000000001 -5 0  3.9 -5 0  4 -5 0  4.1 -5 0  4.199999999999999 -5 0  4.300000000000001 -5 0  4.4 -5 0  4.5 -5 0  4.6 -5 0  4.699999999999999 -5 0  4.800000000000001 -5 0  4.9 -5 0  5 -5 0  -5 -4.9 0  -4.9 -4.9 0  -4.8 -4.9 0  -4.7 -4.9 0  -4.6 -4.9 0  -4.5 -4.9 0  -4.4 -4.9 0  -4.3 -4.9 0  -4.2 -4.9 0  -4.1 -4.9 0  -4 -4.9 0  -3.9 -4.9 0  -3.8 -4.9 0  -3.7 -4.9 0  -3.6 -4.9 0  -3.5 -4.9 0  -3.4 -4.9 0  -3.3 -4.9 0  -3.2 -4.9 0  -3.1 -4.9 0  -3 -4.9 0  -2.9 -4.9 0  -2.8 -4.9 0  -2.7 -4.9 0  -2.6 -4.9 0  -2.5 -4.9 0  -2.4 -4.9 0  -2.3 -4.9 0  -2.2 -4.9 0  -2.1 -4.9 0  -2 -4.9 0  -1.9 -4.9 0  -1.8 -4.9 0  -1.7 -4.9 0  -1.6 -4.9 0  -1.5 -4.9 0  -1.4 -4.9 0  -1.3 -4.9 0  -1.2 -4.9 0  -1.1 -4.9 0  -1 -4.9 0  -0.9000000000000004 -4.9 0  -0.7999999999999998 -4.9 0  -0.7000000000000002 -4.9 0  -0.5999999999999996 -4.9 0  -0.5 -4.9 0  -0.4000000000000004 -4.9 0  -0.2999999999999998 -4.9 0  -0.2000000000000002 -4.9 0  -0.09999999999999964 -4.9 0  0 -4.9 0  0.09999999999999964 -4.9 0  0.2000000000000002 -4.9 0  0.2999999999999998 -4.9 0  0.4000000000000004 -4.9 0  0.5 -4.9 0  0.5999999999999996 -4.9 0  0.7000000000000002 -4.9 0  0.7999999999999998 -4.9 0  0.9000000000000004 -4.9 0  1 -4.9 0  1.1 -4.9 0  1.2 -4.9 0  1.3 -4.9 0  1.4 -4.9 0  1.5 -4.9 0  1.6 -4.9 0  1.7 -4.9 0  1.8 -4.9 0  1.9 -4.9 0  2 -4.9 0  2.1 -4.9 0  2.2 -4.9 0  2.3 -4.9 0  2.4 -4.9 0  2.5 -4.9 0  2.6 -4.9 0  2.7 -4.9 0  2.8 -4.9 0  2.9 -4.9 0  3 -4.9 0  3.1 -4.9 0  3.199999999999999 -4.9 0  3.300000000000001 -4.9 0  3.4 -4.9 0  3.5 -4.9 0  3.6 -4.9 0  3.699999999999999 -4.9 0  3.800000000000001 -4.9 0  3.9 -4.9 0  4 -4.9 0  4.1 -4.9 0  4.199999999999999 -4.9 0  4.300000000000001 -4.9 0  4.4 -4.9 0  4.5 -4.9 0  4.6 -4.9 0  4.699999999999999 -4.9 0  4.800000000000001 -4.9 0  4.9 -4.9 0  5 -4.9 0  -5 -4.8 0  -4.9 -4.8 0  -4.8 -4.8 0  -4.7 -4.8 0  -4.6 -4.8 0  -4.5 -4.8 0  -4.4 -4.8 0  -4.3 -4.8 0  -4.2 -4.8 0  -4.1 -4.8 0  -4 -4.8 0  -3.9 -4.8 0  -3.8 -4.8 0  -3.7 -4.8 0  -3.6 -4.8 0  -3.5 -4.8 0  -3.4 -4.8 0  -3.3 -4.8 0  -3.2 -4.8 0  -3.1 -4.8 0  -3 -4.8 0  -2.9 -4.8 0  -2.8 -4.8 0  -2.7 -4.8 0  -2.6 -4.8 0  -2.5 -4.8 0  -2.4 -4.8 0  -2.3 -4.8 0  -2.2 -4.8 0  -2.1 -4.8 0  -2 -4.8 0  -1.9 -4.8 0  -1.8 -4.8 0  -1.7 -4.8 0  -1.6 -4.8 0  -1.5 -4.8 0  -1.4 -4.8 0  -1.3 -4.8 0  -1.2 -4.8 0  -1.1 -4.8 0  -1 -4.8 0  -0.9000000000000004 -4.8 0  -0.7999999999999998 -4.8 0  -0.7000000000000002 -4.8 0  -0.5999999999999996 -4.8 0  -0.5 -4.8 0  -0.4000000000000004 -4.8 0  -0.2999999999999998 -4.8 0  -0.2000000000000002 -4.8 0  -0.09999999999999964 -4.8 0  0 -4.8 0  0.09999999999999964 -4.8 0  0.2000000000000002 -4.8 0  0.2999999999999998 -4.8 0  0.4000000000000004 -4.8 0  0.5 -4.8 0  0.5999999999999996 -4.8 0  0.7000000000000002 -4.8 0  0.7999999999999998 -4.8 0  0.9000000000000004 -4.8 0  1 -4.8 0  1.1 -4.8 0  1.2 -4.8 0  1.3 -4.8 0  1.4 -4.8 0  1.5 -4.8 0  1.6 -4.8 0  1.7 -4.8 0  1.8 -4.8 0  1.9 -4.8 0  2 -4.8 0  2.1 -4.8 0  2.2 -4.8 0  2.3 -4.8 0  2.4 -4.8 0  2.5 -4.8 0  2.6 -4.8 0  2.7 -4.8 0  2.8 -4.8 0  2.9 -4.8 0  3 -4.8 0  3.1 -4.8 0  3.199999999999999 -4.8 0  3.300000000000001 -4.8 0  3.4 -4.8 0  3.5 -4.8 0  3.6 -4.8 0  3.699999999999999 -4.8 0  3.800000000000001 -4.8 0  3.9 -4.8 0  4 -4.8 0  4.1 -4.8 0  4.199999999999999 -4.8 0  4.300000000000001 -4.8 0  4.4 -4.8 0  4.5 -4.8 0  4.6 -4.8 0  4.699999999999999 -4.8 0  4.800000000000001 -4.8 0  4.9 -4.8 0  5 -4.8 0  -5 -4.7 0  -4.9 -4.7 0  -4.8 -4.7 0  -4.7 -4.7 0  -4.6 -4.7 0  -4.5 -4.7 0  -4.4 -4.7 0  -4.3 -4.7 0  -4.2 -4.7 0  -4.1 -4.7 0  -4 -4.7 0  -3.9 -4.7 0  -3.8 -4.7 0  -3.7 -4.7 0  -3.6 -4.7 0  -3.5 -4.7 0  -3.4 -4.7 0  -3.3 -4.7 0  -3.2 -4.7 0  -3.1 -4.7 0  -3 -4.7 0  -2.9 -4.7 0  -2.8 -4.7 0  -2.7 -4.7 0  -2.6 -4.7 0  -2.5 -4.7 0  -2.4 -4.7 0  -2.3 -4.7 0  -2.2 -4.7 0  -2.1 -4.7 0  -2 -4.7 0  -1.9 -4.7 0  -1.8 -4.7 0  -1.7 -4.7 0  -1.6 -4.7 0  -1.5 -4.7 0  -1.4 -4.7 0  -1.3 -4.7 0  -1.2 -4.7 0  -1.1 -4.7 0  -1 -4.7 0  -0.9000000000000004 -4.7 0  -0.7999999999999998 -4.7 0  -0.7000000000000002 -4.7 0  -0.5999999999999996 -4.7 0  -0.5 -4.7 0  -0.4000000000000004 -4.7 0  -0.2999999999999998 -4.7 0  -0.2000000000000002 -4.7 0  -0.09999999999999964 -4.7 0  0 -4.7 0  0.09999999999999964 -4.7 0  0.2000000000000002 -4.7 0  0.2999999999999998 -4.7 0  0.4000000000000004 -4.7 0  0.5 -4.7 0  0.5999999999999996 -4.7 0  0.7000000000000002 -4.7 0  0.7999999999999998 -4.7 0  0.9000000000000004 -4.7 0  1 -4.7 0  1.1 -4.7 0  1.2 -4.7 0  1.3 -4.7 0  1.4 -4.7 0  1.5 -4.7 0  1.6 -4.7 0  1.7 -4.7 0  1.8 -4.7 0  1.9 -4.7 0  2 -4.7 0  2.1 -4.7 0  2.2 -4.7 0  2.3 -4.7 0  2.4 -4.7 0  2.5 -4.7 0  2.6 -4.7 0  2.7 -4.7 0  2.8 -4.7 0  2.9 -4.7 0  3 -4.7 0  3.1 -4.7 0  3.199999999999999 -4.7 0  3.300000000000001 -4.7 0  3.4 -4.7 0  3.5 -4.7 0  3.6 -4.7 0  3.699999999999999 -4.7 0  3.800000000000001 -4.7 0  3.9 -4.7 0  4 -4.7 0  4.1 -4.7 0  4.199999999999999 -4.7 0  4.300000000000001 -4.7 0  4.4 -4.7 0  4.5 -4.7 0  4.6 -4.7 0  4.699999999999999 -4.7 0  4.800000000000001 -4.7 0  4.9 -4.7 0  5 -4.7 0  -5 -4.6 0  -4.9 -4.6 0  -4.8 -4.6 0  -4.7 -4.6 0  -4.6 -4.6 0  -4.5 -4.6 0  -4.4 -4.6 0  -4.3 -4.6 0  -4.2 -4.6 0  -4.1 -4.6 0  -4 -4.6 0  -3.9 -4.6 0  -3.8 -4.6 0  -3.7 -4.6 0  -3.6 -4.6 0  -3.5 -4.6 0  -3.4 -4.6 0  -3.3 -4.6 0  -3.2 -4.6 0  -3.1 -4.6 0  -3 -4.6 0  -2.9 -4.6 0  -2.8 -4.6 0  -2.7 -4.6 0  -2.6 -4.6 0  -2.5 -4.6 0  -2.4 -4.6 0  -2.3 -4.6 0  -2.2 -4.6 0  -2.1 -4.6 0  -2 -4.6 0  -1.9 -4.6 0  -1.8 -4.6 0  -1.7 -4.6 0  -1.6 -4.6 0  -1.5 -4.6 0  -1.4 -4.6 0  -1.3 -4.6 0  -1.2 -4.6 0  -1.1 -4.6 0  -1 -4.6 0  -0.9000000000000004 -4.6 0  -0.7999999999999998 -4.6 0  -0.7000000000000002 -4.6 0  -0.5999999999999996 -4.6 0  -0.5 -4.6 0  -0.4000000000000004 -4.6 0  -0.2999999999999998 -4.6 0  -0.2000000000000002 -4.6 0  -0.09999999999999964 -4.6 0  0 -4.6 0  0.09999999999999964 -4.6 0  0.2000000000000002 -4.6 0  0.2999999999999998 -4.6 0  0.4000000000000004 -4.6 0  0.5 -4.6 0  0.5999999999999996 -4.6 0  0.7000000000000002 -4.6 0  0.7999999999999998 -4.6 0  0.9000000000000004 -4.6 0  1 -4.6 0  1.1 -4.6 0  1.2 -4.6 0  1.3 -4.6 0  1.4 -4.6 0  1.5 -4.6 0  1.6 -4.6 0  1.7 -4.6 0  1.8 -4.6 0  1.9 -4.6 0  2 -4.6 0  2.1 -4.6 0  2.2 -4.6 0  2.3 -4.6 0  2.4 -4.6 0  2.5 -4.6 0  2.6 -4.6 0  2.7 -4.6 0  2.8 -4.6 0  2.9 -4.6 0  3 -4.6 0  3.1 -4.6 0  3.199999999999999 -4.6 0  3.300000000000001 -4.6 0  3.4 -4.6 0  3.5 -4.6 0  3.6 -4.6 0  3.699999999999999 -4.6 0  3.800000000000001 -4.6 0  3.9 -4.6 0  4 -4.6 0  4.1 -4.6 0  4.199999999999999 -4.6 0  4.300000000000001 -4.6 0  4.4 -4.6 0  4.5 -4.6 0  4.6 -4.6 0  4.699999999999999 -4.6 0  4.800000000000001 -4.6 0  4.9 -4.6 0  5 -4.6 0  -5 -4.5 0  -4.9 -4.5 0  -4.8 -4.5 0  -4.7 -4.5 0  -4.6 -4.5 0  -4.5 -4.5 0  -4.4 -4.5 0  -4.3 -4.5 0  -4.2 -4.5 0  -4.1 -4.5 0  -4 -4.5 0  -3.9 -4.5 0  -3.8 -4.5 0  -3.7 -4.5 0  -3.6 -4.5 0  -3.5 -4.5 0  -3.4 -4.5 0  -3.3 -4.5 0  -3.2 -4.5 0  -3.1 -4.5 0  -3 -4.5 0  -2.9 -4.5 0  -2.8 -4.5 0  -2.7 -4.5 0  -2.6 -4.5 0  -2.5 -4.5 0  -2.4 -4.5 0  -2.3 -4.5 0  -2.2 -4.5 0  -2.1 -4.5 0  -2 -4.5 0  -1.9 -4.5 0  -1.8 -4.5 0  -1.7 -4.5 0  -1.6 -4.5 0  -1.5 -4.5 0  -1.4 -4.5 0  -1.3 -4.5 0  -1.2 -4.5 0  -1.1 -4.5 0  -1 -4.5 0  -0.9000000000000004 -4.5 0  -0.7999999999999998 -4.5 0  -0.7000000000000002 -4.5 0  -0.5999999999999996 -4.5 0  -0.5 -4.5 0  -0.4000000000000004 -4.5 0  -0.2999999999999998 -4.5 0  -0.2000000000000002 -4.5 0  -0.09999999999999964 -4.5 0  0 -4.5 0  0.09999999999999964 -4.5 0  0.2000000000000002 -4.5 0  0.2999999999999998 -4.5 0  0.4000000000000004 -4.5 0  0.5 -4.5 0  0.5999999999999996 -4.5 0  0.7000000000000002 -4.5 0  0.7999999999999998 -4.5 0  0.9000000000000004 -4.5 0  1 -4.5 0  1.1 -4.5 0  1.2 -4.5 0  1.3 -4.5 0  1.4 -4.5 0  1.5 -4.5 0  1.6 -4.5 0  1.7 -4.5 0  1.8 -4.5 0  1.9 -4.5 0  2 -4.5 0  2.1 -4.5 0  2.2 -4.5 0  2.3 -4.5 0  2.4 -4.5 0  2.5 -4.5 0  2.6 -4.5 0  2.7 -4.5 0  2.8 -4.5 0  2.9 -4.5 0  3 -4.5 0  3.1 -4.5 0  3.199999999999999 -4.5 0  3.300000000000001 -4.5 0  3.4 -4.5 0  3.5 -4.5 0  3.6 -4.5 0  3.699999999999999 -4.5 0  3.800000000000001 -4.5 0  3.9 -4.5 0  4 -4.5 0  4.1 -4.5 0  4.199999999999999 -4.5 0  4.300000000000001 -4.5 0  4.4 -4.5 0  4.5 -4.5 0  4.6 -4.5 0  4.699999999999999 -4.5 0  4.800000000000001 -4.5 0  4.9 -4.5 0  5 -4.5 0  -5 -4.4 0  -4.9 -4.4 0  -4.8 -4.4 0  -4.7 -4.4 0  -4.6 -4.4 0  -4.5 -4.4 0  -4.4 -4.4 0  -4.3 -4.4 0  -4.2 -4.4 0  -4.1 -4.4 0  -4 -4.4 0  -3.9 -4.4 0  -3.8 -4.4 0  -3.7 -4.4 0  -3.6 -4.4 0  -3.5 -4.4 0  -3.4 -4.4 0  -3.3 -4.4 0  -3.2 -4.4 0  -3.1 -4.4 0  -3 -4.4 0  -2.9 -4.4 0  -2.8 -4.4 0  -2.7 -4.4 0  -2.6 -4.4 0  -2.5 -4.4 0  -2.4 -4.4 0  -2.3 -4.4 0  -2.2 -4.4 0  -2.1 -4.4 0  -2 -4.4 0  -1.9 -4.4 0  -1.8 -4.
[...]
<PointData  Vectors="f_17"> 
<DataArray  type="Float64"  Name="f_17"  NumberOfComponents="3" format="ascii">1.5000000888566978e-01 0.0000000000000000e+00 0.0000000000000000e+00  1.5000000483203371e-01 -2.6214039127291693e-08 0.0000000000000000e+00  1.5000002735306819e-01 -2.9071589631937230e-08 0.0000000000000000e+00  1.5000005396442159e-01 -1.0390895022096384e-07 0.0000000000000000e+00  1.5000013167607532e-01 -1.8808777588485079e-07 0.0000000000000000e+00  1.5000026246122070e-01 -3.8586975373240917e-07 0.0000000000000000e+00  1.5000049564356069e-01 -6.4084742281896264e-07 0.0000000000000000e+00  1.5000082887084951e-01 -9.4337305195486767e-07 0.0000000000000000e+00  1.5000122780546074e-01 -1.0263999257519919e-06 0.0000000000000000e+00  1.5000148192643725e-01 -5.1309512674741606e-07 0.0000000000000000e+00  1.5000122326883836e-01 1.3167114468228621e-06 0.0000000000000000e+00  1.4999987510554666e-01 5.1192384791989159e-06 0.0000000000000000e+00  1.4999682773571710e-01 1.0975768231416525e-05 0.0000000000000000e+00  1.4999185288259601e-01 1.7726455823076783e-05 0.0000000000000000e+00  1.4998562617090033e-01 2.2855247405737868e-05 0.0000000000000000e+00  1.4997976961813586e-01 2.2991217634819662e-05 0.0000000000000000e+00  1.4997642566268779e-01 1.5882838597593214e-05 0.0000000000000000e+00  1.4997731405855735e-01 2.7012045027578739e-06 0.0000000000000000e+00  1.4998241369546950e-01 -1.2142197528581248e-05 0.0000000000000000e+00  1.4998961847347692e-01 -2.3796775203137329e-05 0.0000000000000000e+00  1.4999627724322243e-01 -2.8880635182103978e-05 0.0000000000000000e+00  1.5000060567626070e-01 -2.5716738510486250e-05 0.0000000000000000e+00  1.5000169188938706e-01 -1.5420811764822348e-05 0.0000000000000000e+00  1.5000015170877790e-01 -3.2306305013500580e-06 0.0000000000000000e+00  1.4999887528361852e-01 3.5668235855525054e-06 0.0000000000000000e+00  1.5000031600750571e-01 1.8741286349816198e-06 0.0000000000000000e+00  1.5000296258306722e-01 -2.3577296767515935e-06 0.0000000000000000e+00  1.5000319155526404e-01 -2.7414943121907089e-08 0.0000000000000000e+00  1.5000041826193455e-01 6.9869843515352747e-06 0.0000000000000000e+00  1.4999826088633691e-01 6.4314146707726796e-06 0.0000000000000000e+00  1.4999976036063672e-01 -2.6052727186013203e-06 0.0000000000000000e+00  1.5000217515129247e-01 -4.5810849045816570e-06 0.0000000000000000e+00  1.5000050727224115e-01 3.9651649618246874e-06 0.0000000000000000e+00  1.4999729661074623e-01 5.1527395306839137e-06 0.0000000000000000e+00  1.4999946655615951e-01 -5.0318944526461555e-06 0.0000000000000000e+00  1.5000357895936220e-01 -5.9669232050409479e-06 0.0000000000000000e+00  1.5000075460252316e-01 5.6866508737556407e-06 0.0000000000000000e+00  1.4999601807309099e-01 6.5508594844700646e-06 0.0000000000000000e+00  1.4999937573541047e-01 -5.5884873479976616e-06 0.0000000000000000e+00  1.5000392371628626e-01 -6.1275018867589208e-06 0.0000000000000000e+00  1.5000017792357234e-01 5.1856485823286583e-06 0.0000000000000000e+00  1.4999668619590920e-01 4.7793483989224017e-06 0.0000000000000000e+00  1.5000050514573490e-01 -4.6511078346255072e-06 0.0000000000000000e+00  1.5000232209654932e-01 -2.8571133988778258e-06 0.0000000000000000e+00  1.4999888244518142e-01 4.0202300767561585e-06 0.0000000000000000e+00  1.4999883324887653e-01 8.9090916603198737e-07 0.0000000000000000e+00  1.5000138262609097e-01 -3.1828873438817138e-06 0.0000000000000000e+00  1.5000009786593871e-01 6.8365817927366325e-07 0.0000000000000000e+00  1.4999879848199463e-01 2.1038319529725272e-06 0.0000000000000000e+00  1.5000065680229421e-01 -1.6053080178659409e-06 0.0000000000000000e+00  1.5000068794143692e-01 -9.1629323558056119e-07 0.0000000000000000e+00  1.4999903349208477e-01 1.8113739387991866e-06 0.0000000000000000e+00  1.4999991361556206e-01 -1.2791217891544144e-07 0.0000000000000000e+00  1.5000085611244185e-01 -1.4339950368581354e-06 0.0000000000000000e+00  1.4999964039284688e-01 7.9112336551401653e-07 0.0000000000000000e+00  1.4999950804604117e-01 7.5204688036568072e-07 0.0000000000000000e+00  1.5000052159069821e-01 -9.7296770730646934e-07 0.0000000000000000e+00  1.5000009643757189e-01 -8.5748828181118495e-08 0.0000000000000000e+00  1.4999957441775949e-01 7.5712467892200253e-07 0.0000000000000000e+00  1.5000015949601547e-01 -3.2901215118205901e-07 0.0000000000000000e+00  1.5000020519607266e-01 -3.5857327908836565e-07 0.0000000000000000e+00  1.4999977739950268e-01 4.2284765065891556e-07 0.0000000000000000e+00  1.4999999239423237e-01 6.4502100221900627e-09 0.0000000000000000e+00  1.5000014936695660e-01 -2.8658502067797964e-07 0.0000000000000000e+00  1.4999991435326998e-01 1.6590904164496585e-07 0.0000000000000000e+00  1.4999995881379063e-01 8.5182319898198125e-08 0.0000000000000000e+00  1.5000007968528206e-01 -1.6011401864653772e-07 0.0000000000000000e+00  1.4999997334718640e-01 4.9167487888788812e-08 0.0000000000000000e+00  1.4999996928562581e-01 6.7998435409263703e-08 0.0000000000000000e+00  1.5000003707448351e-01 -7.6691756568966719e-08 0.0000000000000000e+00  1.4999999236673381e-01 1.1471844659557496e-08 0.0000000000000000e+00  1.4999998355156277e-01 3.8661769571125730e-08 0.0000000000000000e+00  1.5000001653495004e-01 -3.5239564120315892e-08 0.0000000000000000e+00  1.4999999715545226e-01 3.1650201700012371e-09 0.0000000000000000e+00  1.4999999263697994e-01 1.8671338812581941e-08 0.0000000000000000e+00  1.5000000744471281e-01 -1.6724065403354524e-08 0.0000000000000000e+00  1.4999999814475262e-01 2.7021443533639625e-09 0.0000000000000000e+00  1.4999999739060754e-01 7.3325185602655386e-09 0.0000000000000000e+00  1.5000000317376189e-01 -7.5754826228127562e-09 0.0000000000000000e+00  1.4999999877624193e-01 2.1374326036109971e-09 0.0000000000000000e+00  1.4999999926202384e-01 2.6658466994116959e-09 0.0000000000000000e+00  1.5000000141241251e-01 -3.8961210405952562e-09 0.0000000000000000e+00  1.4999999900986852e-01 2.4142466658851572e-09 0.0000000000000000e+00  1.5000000027493077e-01 -4.7460456873465953e-10 0.0000000000000000e+00  1.5000000013360765e-01 -3.8782074611717945e-10 0.0000000000000000e+00  1.4999999990691887e-01 -6.6148636871684778e-11 0.0000000000000000e+00  1.4999999976174616e-01 1.2783771257467480e-09 0.0000000000000000e+00  1.5000000063893179e-01 -2.5727961643853116e-09 0.0000000000000000e+00  1.4999999904126801e-01 3.5235185673990599e-09 0.0000000000000000e+00  1.5000000113996320e-01 -3.9953048616478263e-09 0.0000000000000000e+00  1.4999999881359263e-01 4.0355877206323964e-09 0.0000000000000000e+00  1.5000000112903225e-01 -3.7629907506260656e-09 0.0000000000000000e+00  1.4999999899475491e-01 3.3030166729367198e-09 0.0000000000000000e+00  1.5000000084775900e-01 -2.7580534569274861e-09 0.0000000000000000e+00  1.4999999931394101e-01 2.2098180444863502e-09 0.0000000000000000e+00  1.5000000052796403e-01 -1.6925225896743030e-09 0.0000000000000000e+00  1.4999999959150623e-01 1.2631943262594946e-09 0.0000000000000000e+00  1.5000000027501115e-01 -8.5783880951994768e-10 0.0000000000000000e+00  1.4999999975119790e-01 5.8473647559825476e-10 0.0000000000000000e+00  1.5000000010919715e-01 -2.8640294746915434e-10 0.0000000000000000e+00  1.4999999975661146e-01 0.0000000000000000e+00 0.0000000000000000e+00  1.5000000483203371e-01 0.0000000000000000e+00 -2.6214039602922428e-08  1.4999998781984986e-01 4.7462705132806942e-10 4.7462728344806395e-10  1.4999998679455839e-01 4.2510504498128962e-08 -4.2619761248934593e-08  1.4999995177175413e-01 5.8901339516566561e-08 -7.2346452453308889e-08  1.4999990373410563e-01 1.7174938247778026e-07 -1.8714760700605018e-07  1.4999978207699807e-01 3.0136796997208243e-07 -3.6472885606342756e-07  1.4999959145970357e-01 5.7518930115472027e-07 -7.0644846003108362e-07  1.4999927634286889e-01 8.7459832289402815e-07 -1.1857640553530076e-06  1.4999887761185166e-01 1.1266825391728545e-06 -1.8164412888596994e-06  1.4999850075989729e-01 9.1857785309156734e-07 -2.3338955380407846e-06  1.4999847654478543e-01 -2.7249599900733729e-07 -2.3111468699652523e-06  1.4999927854309600e-01 -3.2739952616858807e-06 -1.0115456672673189e-06  1.5000154804123836e-01 -8.4569712038632235e-06 2.2838797205719890e-06  1.5000572485905733e-01 -1.5219344473925067e-05 7.9021606933498127e-06  1.5001155107371122e-01 -2.1511613711106312e-05 1.4920046375316808e-05  1.5001775434796555e-01 -2.4173760755698072e-05 2.1076671498211998e-05  1.5002237377659772e-01 -2.0130833155512865e-05 2.3543854793976495e-05  1.5002343285324352e-01 -8.9814458085831757e-06 2.0463964442260111e-05  1.5002011677853758e-01 5.8085117877926899e-06 1.2527492282799105e-05  1.5001373698320011e-01 1.9132045620931213e-05 3.3789975708420677e-06  1.5000692385104250e-01 2.7138896675391923e-05 -2.8725043494058669e-06  1.5000172661620323e-01 2.7660506497100249e-05 -4.6690564412741496e-06  1.4999919416351565e-01 2.0513391718194687e-05 -2.7203941252176057e-06  1.4999952560587868e-01 9.1241829957170863e-06 1.3127064942845122e-06  1.5000095968523494e-01 -8.8017703751379100e-08 4.0063247200595964e-06  1.5000055786948074e-01 -2.2650505662752990e-06 1.9723599279403709e-06  1.4999807543412724e-01 8.1141859033202481e-07 -2.6779270841636889e-06  1.4999666565128533e-01 1.3619174220728174e-06 -3.4989268963182945e-06  1.4999832840774091e-01 -4.2080340390283202e-06 9.2267436988350318e-07  1.5000097690197522e-01 -7.6162416627882063e-06 4.0248424662986609e-06  1.5000108683832108e-01 -1.4597415683823670e-06 8.8236731295169808e-07  1.4999872002595005e-01 4.7479643544158519e-06 -3.4481557202389350e-06  1.4999835666498038e-01 -1.7247852860406631e-07 -1.0901862349731089e-06  1.5000147440188299e-01 -5.8922711766508956e-06 4.1971969422968481e-06  1.5000210273977771e-01 6.3903283628718032e-07 1.5342112026424364e-06  1.4999792362169501e-01 7.0380912303431950e-06 -5.4067180792952319e-06  1.4999717367932119e-01 -7.4817105598007178e-07 -2.3621593633819556e-06  1.5000235336745313e-01 -7.7760320542772807e-06 5.9381088474970148e-06  1.5000301447921763e-01 4.6253423728191730e-07 2.5350032248789544e-06  1.4999746207164483e-01 7.4256388654267627e-06 -5.8883554031299225e-06  1.4999735091443309e-01 -4.2858531432959412e-07 -1.9883708416818182e-06  1.5000249356171730e-01 -6.2628328736117286e-06 5.0638446816227220e-06  1.5000173432609012e-01 7.3234624128052798e-07 7.4210805629499273e-07  1.4999776939643045e-01 4.6244460551558888e-06 -3.6779107042803987e-06  1.4999939776310586e-01 -1.2538078666768409e-06 6.5211810080603770e-07  1.5000171104757065e-01 -2.9000908270960436e-06 1.9710737468552673e-06  1.4999962787196874e-01 1.6798638551795209e-06 -1.5887255127565401e-06  1.4999902136669807e-01 1.3367563294038801e-06 -2.6191253093696070e-07  1.5000091955397141e-01 -1.7684491464760453e-06 1.7284006046655294e-06  1.5000019395446060e-01 -9.1902968724059925e-08 -1.0774319171534014e-06  1.4999903334499151e-01 1.4574632548687491e-06 -1.1345718905473997e-06  1.5000042428898394e-01 -7.2327946892743446e-07 1.7447324270948730e-06  1.5000063454539009e-01 -8.6137770627401520e-07 1.8672107213064249e-07  1.4999928345239544e-01 1.0582931868955524e-06 -1.6682623468286036e-06  1.4999983716167525e-01 1.9863286819595806e-07 6.3970669623063080e-07  1.5000066550810837e-01 -9.6351159016415485e-07 1.0576836477465856e-06  1.4999978791439411e-01 3.0881564575894402e-07 -1.0160546552320824e-06  1.4999960520959191e-01 5.9654833308481766e-07 -2.9692068927333600e-07  1.5000036194671795e-01 -5.2982814340616078e-07 8.9686119818223639e-07  1.5000008926037012e-01 -1.7080587387739425e-07 -2.5781231361519979e-07  1.4999969907166222e-01 4.7111605243675795e-07 -4.8543336387372639e-07  1.5000010716765785e-01 -1.3195080162152713e-07 4.4532310671771718e-07  1.5000013965309014e-01 -2.5363336065242987e-07 6.9280372278835552e-08  1.4999984772831707e-01 2.3398905341005460e-07 -3.3287657938274134e-07  1.5000000165834432e-01 3.3046182588981411e-08 1.5707264615059391e-07  1.5000009564673863e-01 -1.7444113705600835e-07 1.1368324926420015e-07  1.4999993838945852e-01 8.6692554656578255e-08 -1.7126639670979588e-07  1.4999998095634182e-01 5.6771940178851240e-08 4.2289681336306171e-08  1.5000005017835358e-01 -9.2156401889496833e-08 7.6136420194846684e-08  1.4999997734258613e-01 2.6320229706501281e-08 -7.8216279830736202e-08  1.4999998590637945e-01 3.9033334118906747e-08 9.9248258031950549e-09  1.5000002336872087e-01 -4.3756717340561612e-08 3.9127664034942581e-08  1.4999999120776172e-01 7.9090474364728368e-09 -3.4999860030872601e-08  1.4999999302805178e-01 2.0680658900944254e-08 3.9683133864190792e-09  1.5000001040865499e-01 -2.0777161753484229e-08 1.7131230641389676e-08  1.4999999573651523e-01 4.3248707185230645e-09 -1.6113401809826643e-08  1.4999999766559105e-01 8.4011157422856705e-09 3.6482837833763007e-09  1.5000000417737447e-01 -9.1014812224586330e-09 5.8840785064635299e-09  1.4999999788881452e-01 2.4996897798501516e-09 -7.0119863923387326e-09  1.4999999942570438e-01 3.3895054305018066e-09 2.8156029195824176e-09  1.5000000176368050e-01 -4.8035919277143425e-09 1.4672165819232202e-09  1.4999999858310206e-01 2.9079484187152202e-09 -3.0728581006391834e-09  1.5000000053331686e-01 -5.9181585100735022e-10 2.2638211817908812e-09  1.5000000004137864e-01 -3.0515463241059830e-10 -6.3113062257430481e-10  1.4999999993947608e-01 -3.6126371793611730e-10 -5.1315181043943301e-10  1.4999999970123656e-01 1.8030225167658492e-09 7.0943411881327525e-10  1.5000000076000156e-01 -3.2010875062348009e-09 -1.4795680184992116e-10  1.4999999886568732e-01 4.1157565236995728e-09 -7.4331968600573739e-10  1.5000000134801345e-01 -4.4624066871062224e-09 1.5866642729604686e-09  1.4999999859906973e-01 4.3397502802710419e-09 -2.1632940887221190e-09  1.5000000132542657e-01 -3.8978579546326703e-09 2.4092954442583877e-09  1.4999999883546505e-01 3.2804374598304153e-09 -2.3669794290061555e-09  1.5000000096152999e-01 -2.6076352516124422e-09 2.1294617712967264e-09  1.4999999924781660e-01 1.9668416210003881e-09 -1.7940801715340807e-09  1.5000000056376589e-01 -1.4165905333161165e-09 1.4426636693200450e-09  1.4999999959865426e-01 9.6791348358417919e-10 -1.1056755598023126e-09  1.5000000028757837e-01 -6.4707252363315352e-10 8.4520343139817823e-10  1.4999999982881618e-01 3.8044517838074401e-10 -5.6271721908914244e-10  1.5000000015012027e-01 -2.6479534876379080e-10 4.7374435140217361e-10  1.4999999998316807e-01 1.4305793857490447e-10 -1.4305828913438532e-10  1.5000000010919701e-01 0.0000000000000000e+00 2.8640226167949811e-10  1.5000002735306814e-01 0.0000000000000000e+00 -2.9071588614784019e-08  1.4999998679455834e-01 -4.2619761544958393e-08 4.2510504213613441e-08  1.5000002974677851e-01 1.5533508696487082e-08 1.5533507746091317e-08  1.5000002370846358e-01 -1.0245222256688537e-07 1.2511601721744130e-07  1.5000009932435165e-01 -9.8045162562345499e-08 2.1024378419836418e-07  1.5000017499397142e-01 -3.2553101573104429e-07 5.2251261177671395e-07  1.5000038651618861e-01 -4.9122578349358123e-07 9.6808780200106716e-07  1.5000066509607515e-01 -9.2764599886250359e-07 1.7977635509059791e-06  1.5000111997586338e-01 -1.2380000158166209e-06 2.8800989792208439e-06  1.5000159585861889e-01 -1.4173586007793378e-06 4.2133419998400258e-06  1.5000192838187390e-01 -7.0349484995979375e-07 5.0637900458234150e-06  1.5000160372817428e-01 1.4832472537421449e-06 4.5195893332620111e-06  1.5000007346304006e-01 6.1267397808094433e-06 1.0402383694028249e-06  1.4999665158293418e-01 1.2988027103557100e-05 -6.5940117800809796e-06  1.4999124702815408e-01 2.0638426714312571e-05 -1.8454415514286955e-05  1.4998472398742316e-01 2.5949987531348557e-05 -3.1816869732383371e-05  1.4997894182873719e-01 2.5265499789605826e-05 -4.1947041758847672e-05  1.4997600604330497e-01 1.6330804393331561e-05 -4.3892262312614588e-05  1.4997742802252492e-01 1.2854400447213267e-06 -3.5461696448038080e-05  1.4998279239040094e-01 -1.4290789345406396e-05 -1.9881956072157710e-05  1.4998963592431591e-01 -2.5405767058387898e-05 -4.8860713372077622e-06  1.4999544102866955e-01 -2.9576006396954756e-05 3.7328177901326911e-06  1.4999907579624122e-01 -2.5826357449377026e-05 5.4510706685594493e-06  1.5000001770320096e-01 -1.5707832478628303e-05 1.5893683315311985e-06  1.4999881479443467e-01 -4.6772186694095859e-06 -4.9278382250769188e-06  1.4999829720367711e-01 9.8537410742056892e-07 -6.8712505381900984e-06  1.5000051390549357e-01 -1.6512252102373323e-07 -3.6078850887088093e-07  1.5000309246821861e-01 -2.3400623792149688e-06 6.3713809472875102e-06  1.5000258150388232e-01 1.4337157013529682e-06 3.4768194397747105e-06  1.4999979067278052e-01 7.8443340344083724e-06 -4.7804782664300877e-06  1.4999855002812881e-01 5.7050077720080640e-06 -5.7776873301576762e-06  1.5000040864140041e-01 -3.3941247765026877e-06 2.2563740087670144e-06  1.5000207864607742e-01 -3.6248040096607205e-06 5.9264154480165449e-06  1.4999988938220526e-01 5.2118418998521366e-06 -2.5356815714764047e-06  1.4999728604904314e-01 4.1121340603347231e-06 -7.9353657405252893e-06  1.5000016371784070e-01 -6.6186809596895940e-06 3.0230910460793545e-06  1.5000378563279418e-01 -4.8252237339175438e-06 1.0771292207228992e-05  1.5000007775705271e-01 7.4561602440413632e-06 -2.6161886812610559e-06  1.4999574916040218e-01 5.4339789092953049e-06 -1.1848768085919282e-05  1.5000002531711210e-01 -7.1543332086537464e-06 2.7322187108519455e-06  1.5000415654427846e-01 -5.0571157173893577e-06 1.1137811772915986e-05  1.4999965952005501e-01 6.2494604869831343e-06 -3.0541818370933278e-06  1.4999663655678633e-01 3.8217492948241051e-06 -8.3834185422053926e-06  1.5000080942283742e-01 -5.0267015584044985e-06 3.5082772279532530e-06  1.5000213650755453e-01 -2.0746747618084007e-06 4.5276817055181359e-06  1.4999886329924494e-01 3.7392647667909659e-06 -3.4603994140962108e-06  1.4999918227038436e-01 3.8061211407743603e-07 -7.4642925253160654e-07  1.5000109289095645e-01 -2.4418018648913282e-06 2.4717950886525823e-06  1.4999974750880762e-01 8.3575015170492318e-07 -1.9369259456826057e-06  1.4999933770984644e-01 1.1801760949177397e-06 -6.9324364785950733e-07  1.5000083902486502e-01 -1.3824885850258532e-06 2.9744661194679981e-06  1.5000004499166100e-01 -8.0988762957366170e-08 -1.1946934728919429e-06  1.4999910973766728e-01 1.2957117104860030e-06 -2.4549219393621050e-06  1.5000047641037204e-01 -6.8244448382541224e-07 2.4163759243420037e-06  1.5000055370732751e-01 -7.8672228846368223e-07 1.0319027769871027e-06  1.4999930079894716e-01 9.9404407091369097e-07 -2.5608692931204940e-06  1.4999990520526973e-01 1.5683700992912216e-07 4.1558793847150482e-07  1.5000059824891301e-01 -8.7709931061826340e-07 1.7841840815335430e-06  1.4999975914722721e-01 3.1872977980623475e-07 -1.2220695423591261e-06  1.4999969051221976e-01 4.9879518845698964e-07 -6.5434023056488093e-07  1.5000033985008820e-01 -4.9507606272033092e-07 1.2164385469639190e-06  1.5000002430221238e-01 -9.1087732766367997e-08 -2.2646588792330628e-07  1.4999975621359912e-01 3.9713791058349099e-07 -6.8982736537155312e-07  1.5000012749720196e-01 -1.6368087990604783e-07 5.5717858472844343e-07  1.5000008131840939e-01 -1.7172853909288178e-07 1.0884905779254878e-07  1.4999986803592213e-01 2.1255696052581871e-07 -4.2389155543391115e-07  1.5000003307585150e-01 -2.0558933608740461e-08 2.0426169446548982e-07  1.5000006000064356e-01 -1.2336690735917408e-07 1.2782014457497857e-07  1.4999993960050215e-01 9.4387395102088871e-08 -2.1165192427541209e-07  1.5000000541026695e-01 1.3137406434905792e-08 6.9976045213100832e-08  1.5000003203706194e-01 -6.7293349920168222e-08 7.6607196545689623e-08  1.4999997380380020e-01 3.9720169042879811e-08 -9.7503692822362853e-08  1.5000000061094751e-01 1.2121574353026477e-08 2.8303541123290905e-08  1.5000001480351380e-01 -3.3766110307234383e-08 3.4970113796961065e-08  1.4999998787459767e-01 2.0009349561126227e-08 -4.4280466618158927e-08  1.5000000164245411e-01 2.7997442150703095e-09 1.6436844197123741e-08  1.5000000509753009e-01 -1.2861130389030651e-08 1.0894946501605305e-08  1.4999999512600595e-01 8.1618305483307846e-09 -1.8107146559484133e-08  1.5000000108934555e-01 1.3840072943932931e-09 9.3903832548815772e-09  