<?xml version="1.0"?>
<VTKFile type="UnstructuredGrid"  version="0.1"  >
<UnstructuredGrid>
<Piece  NumberOfPoints="10201" NumberOfCells="20000">
<Points>
<DataArray  type="Float64"  NumberOfComponents="3"  format="ascii">-5 -5 0  -4.9 -5 0  -4.8 -5 0  -4.7 -5 0  -4.6 -5 0  -4.5 -5 0  -4.4 -5 0  -4.3 -5 0  -4.2 -5 0  -4.1 -5 0  -4 -5 0  -3.9 -5 0  -3.8 -5 0  -3.7 -5 0  -3.6 -5 0  -3.5 -5 0  -3.4 -5 0  -3.3 -5 0  -3.2 -5 0  -3.1 -5 0  -3 -5 0  -2.9 -5 0  -2.8 -5 0  -2.7 -5 0  -2.6 -5 0  -2.5 -5 0  -2.4 -5 0  -2.3 -5 0  -2.2 -5 0  -2.1 -5 0  -2 -5 0  -1.9 -5 0  -1.8 -5 0  -1.7 -5 0  -1.6 -5 0  -1.5 -5 0  -1.4 -5 0  -1.3 -5 0  -1.2 -5 0  -1.1 -5 0  -1 -5 0  -0.9000000000000004 -5 0  -0.7999999999999998 -5 0  -0.7000000000000002 -5 0  -0.5999999999999996 -5 0  -0.5 -5 0  -0.4000000000000004 -5 0  -0.2999999999999998 -5 0  -0.2000000000000002 -5 0  -0.09999999999999964 -5 0  0 -5 0  0.09999999999999964 -5 0  0.2000000000000002 -5 0  0.2999999999999998 -5 0  0.4000000000000004 -5 0  0.5 -5 0  0.5999999999999996 -5 0  0.7000000000000002 -5 0  0.7999999999999998 -5 0  0.9000000000000004 -5 0  1 -5 0  1.1 -5 0  1.2 -5 0  1.3 -5 0  1.4 -5 0  1.5 -5 0  1.6 -5 0  1.7 -5 0  1.8 -5 0  1.9 -5 0  2 -5 0  2.1 -5 0  2.2 -5 0  2.3 -5 0  2.4 -5 0  2.5 -5 0  2.6 -5 0  2.7 -5 0  2.8 -5 0  2.9 -5 0  3 -5 0  3.1 -5 0  3.199999999999999 -5 0  3.300000000000001 -5 0  3.4 -5 0  3.5 -5 0  3.6 -5 0  3.699999999999999 -5 0  3.800000000000001 -5 0  3.9 -5 0  4 -5 0  4.1 -5 0  4.199999999999999 -5 0  4.300000000000001 -5 0  4.4 -5 0  4.5 -5 0  4.6 -5 0  4.699999999999999 -5 0  4.800000000000001 -5 0  4.9 -5 0  5 -5 0  -5 -4.9 0  -4.9 -4.9 0  -4.8 -4.9 0  -4.7 -4.9 0  -4.6 -4.9 0  -4.5 -4.9 0  -4.4 -4.9 0  -4.3 -4.9 0  -4.2 -4.9 0  -4.1 -4.9 0  -4 -4.9 0  -3.9 -4.9 0  -3.8 -4.9 0  -3.7 -4.9 0  -3.6 -4.9 0  -3.5 -4.9 0  -3.4 -4.9 0  -3.3 -4.9 0  -3.2 -4.9 0  -3.1 -4.9 0  -3 -4.9 0  -2.9 -4.9 0  -2.8 -4.9 0  -2.7 -4.9 0  -2.6 -4.9 0  -2.5 -4.9 0  -2.4 -4.9 0  -2.3 -4.9 0  -2.2 -4.9 0  -2.1 -4.9 0  -2 -4.9 0  -1.9 -4.9 0  -1.8 -4.9 0  -1.7 -4.9 0  -1.6 -4.9 0  -1.5 -4.9 0  -1.4 -4.9 0  -1.3 -4.9 0  -1.2 -4.9 0  -1.1 -4.9 0  -1 -4.9 0  -0.9000000000000004 -4.9 0  -0.7999999999999998 -4.9 0  -0.7000000000000002 -4.9 0  -0.5999999999999996 -4.9 0  -0.5 -4.9 0  -0.4000000000000004 -4.9 0  -0.2999999999999998 -4.9 0  -0.2000000000000002 -4.9 0  -0.09999999999999964 -4.9 0  0 -4.9 0  0.09999999999999964 -4.9 0  0.2000000000000002 -4.9 0  0.2999999999999998 -4.9 0  0.4000000000000004 -4.9 0  0.5 -4.9 0  0.5999999999999996 -4.9 0  0.7000000000000002 -4.9 0  0.7999999999999998 -4.9 0  0.9000000000000004 -4.9 0  1 -4.9 0  1.1 -4.9 0  1.2 -4.9 0  1.3 -4.9 0  1.4 -4.9 0  1.5 -4.9 0  1.6 -4.9 0  1.7 -4.9 0  1.8 -4.9 0  1.9 -4.9 0  2 -4.9 0  2.1 -4.9 0  2.2 -4.9 0  2.3 -4.9 0  2.4 -4.9 0  2.5 -4.9 0  2.6 -4.9 0  2.7 -4.9 0  2.8 -4.9 0  2.9 -4.9 0  3 -4.9 0  3.1 -4.9 0  3.199999999999999 -4.9 0  3.300000000000001 -4.9 0  3.4 -4.9 0  3.5 -4.9 0  3.6 -4.9 0  3.699999999999999 -4.9 0  3.800000000000001 -4.9 0  3.9 -4.9 0  4 -4.9 0  4.1 -4.9 0  4.199999999999999 -4.9 0  4.300000000000001 -4.9 0  4.4 -4.9 0  4.5 -4.9 0  4.6 -4.9 0  4.699999999999999 -4.9 0  4.800000000000001 -4.9 0  4.9 -4.9 0  5 -4.9 0  -5 -4.8 0  -4.9 -4.8 0  -4.8 -4.8 0  -4.7 -4.8 0  -4.6 -4.8 0  -4.5 -4.8 0  -4.4 -4.8 0  -4.3 -4.8 0  -4.2 -4.8 0  -4.1 -4.8 0  -4 -4.8 0  -3.9 -4.8 0  -3.8 -4.8 0  -3.7 -4.8 0  -3.6 -4.8 0  -3.5 -4.8 0  -3.4 -4.8 0  -3.3 -4.8 0  -3.2 -4.8 0  -3.1 -4.8 0  -3 -4.8 0  -2.9 -4.8 0  -2.8 -4.8 0  -2.7 -4.8 0  -2.6 -4.8 0  -2.5 -4.8 0  -2.4 -4.8 0  -2.3 -4.8 0  -2.2 -4.8 0  -2.1 -4.8 0  -2 -4.8 0  -1.9 -4.8 0  -1.8 -4.8 0  -1.7 -4.8 0  -1.6 -4.8 0  -1.5 -4.8 0  -1.4 -4.8 0  -1.3 -4.8 0  -1.2 -4.8 0  -1.1 -4.8 0  -1 -4.8 0  -0.9000000000000004 -4.8 0  -0.7999999999999998 -4.8 0  -0.7000000000000002 -4.8 0  -0.5999999999999996 -4.8 0  -0.5 -4.8 0  -0.4000000000000004 -4.8 0  -0.2999999999999998 -4.8 0  -0.2000000000000002 -4.8 0  -0.09999999999999964 -4.8 0  0 -4.8 0  0.09999999999999964 -4.8 0  0.2000000000000002 -4.8 0  0.2999999999999998 -4.8 0  0.4000000000000004 -4.8 0  0.5 -4.8 0  0.5999999999999996 -4.8 0  0.7000000000000002 -4.8 0  0.7999999999999998 -4.8 0  0.9000000000000004 -4.8 0  1 -4.8 0  1.1 -4.8 0  1.2 -4.8 0  1.3 -4.8 0  1.4 -4.8 0  1.5 -4.8 0  1.6 -4.8 0  1.7 -4.8 0  1.8 -4.8 0  1.9 -4.8 0  2 -4.8 0  2.1 -4.8 0  2.2 -4.8 0  2.3 -4.8 0  2.4 -4.8 0  2.5 -4.8 0  2.6 -4.8 0  2.7 -4.8 0  2.8 -4.8 0  2.9 -4.8 0  3 -4.8 0  3.1 -4.8 0  3.199999999999999 -4.8 0  3.300000000000001 -4.8 0  3.4 -4.8 0  3.5 -4.8 0  3.6 -4.8 0  3.699999999999999 -4.8 0  3.800000000000001 -4.8 0  3.9 -4.8 0  4 -4.8 0  4.1 -4.8 0  4.199999999999999 -4.8 0  4.300000000000001 -4.8 0  4.4 -4.8 0  4.5 -4.8 0  4.6 -4.8 0  4.699999999999999 -4.8 0  4.800000000000001 -4.8 0  4.9 -4.8 0  5 -4.8 0  -5 -4.7 0  -4.9 -4.7 0  -4.8 -4.7 0  -4.7 -4.7 0  -4.6 -4.7 0  -4.5 -4.7 0  -4.4 -4.7 0  -4.3 -4.7 0  -4.2 -4.7 0  -4.1 -4.7 0  -4 -4.7 0  -3.9 -4.7 0  -3.8 -4.7 0  -3.7 -4.7 0  -3.6 -4.7 0  -3.5 -4.7 0  -3.4 -4.7 0  -3.3 -4.7 0  -3.2 -4.7 0  -3.1 -4.7 0  -3 -4.7 0  -2.9 -4.7 0  -2.8 -4.7 0  -2.7 -4.7 0  -2.6 -4.7 0  -2.5 -4.7 0  -2.4 -4.7 0  -2.3 -4.7 0  -2.2 -4.7 0  -2.1 -4.7 0  -2 -4.7 0  -1.9 -4.7 0  -1.8 -4.7 0  -1.7 -4.7 0  -1.6 -4.7 0  -1.5 -4.7 0  -1.4 -4.7 0  -1.3 -4.7 0  -1.2 -4.7 0  -1.1 -4.7 0  -1 -4.7 0  -0.9000000000000004 -4.7 0  -0.7999999999999998 -4.7 0  -0.7000000000000002 -4.7 0  -0.5999999999999996 -4.7 0  -0.5 -4.7 0  -0.4000000000000004 -4.7 0  -0.2999999999999998 -4.7 0  -0.2000000000000002 -4.7 0  -0.09999999999999964 -4.7 0  0 -4.7 0  0.09999999999999964 -4.7 0  0.2000000000000002 -4.7 0  0.2999999999999998 -4.7 0  0.4000000000000004 -4.7 0  0.5 -4.7 0  0.5999999999999996 -4.7 0  0.7000000000000002 -4.7 0  0.7999999999999998 -4.7 0  0.9000000000000004 -4.7 0  1 -4.7 0  1.1 -4.7 0  1.2 -4.7 0  1.3 -4.7 0  1.4 -4.7 0  1.5 -4.7 0  1.6 -4.7 0  1.7 -4.7 0  1.8 -4.7 0  1.9 -4.7 0  2 -4.7 0  2.1 -4.7 0  2.2 -4.7 0  2.3 -4.7 0  2.4 -4.7 0  2.5 -4.7 0  2.6 -4.7 0  2.7 -4.7 0  2.8 -4.7 0  2.9 -4.7 0  3 -4.7 0  3.1 -4.7 0  3.199999999999999 -4.7 0  3.300000000000001 -4.7 0  3.4 -4.7 0  3.5 -4.7 0  3.6 -4.7 0  3.699999999999999 -4.7 0  3.800000000000001 -4.7 0  3.9 -4.7 0  4 -4.7 0  4.1 -4.7 0  4.199999999999999 -4.7 0  4.300000000000001 -4.7 0  4.4 -4.7 0  4.5 -4.7 0  4.6 -4.7 0  4.699999999999999 -4.7 0  4.800000000000001 -4.7 0  4.9 -4.7 0  5 -4.7 0  -5 -4.6 0  -4.9 -4.6 0  -4.8 -4.6 0  -4.7 -4.6 0  -4.6 -4.6 0  -4.5 -4.6 0  -4.4 -4.6 0  -4.3 -4.6 0  -4.2 -4.6 0  -4.1 -4.6 0  -4 -4.6 0  -3.9 -4.6 0  -3.8 -4.6 0  -3.7 -4.6 0  -3.6 -4.6 0  -3.5 -4.6 0  -3.4 -4.6 0  -3.3 -4.6 0  -3.2 -4.6 0  -3.1 -4.6 0  -3 -4.6 0  -2.9 -4.6 0  -2.8 -4.6 0  -2.7 -4.6 0  -2.6 -4.6 0  -2.5 -4.6 0  -2.4 -4.6 0  -2.3 -4.6 0  -2.2 -4.6 0  -2.1 -4.6 0  -2 -4.6 0  -1.9 -4.6 0  -1.8 -4.6 0  -1.7 -4.6 0  -1.6 -4.6 0  -1.5 -4.6 0  -1.4 -4.6 0  -1.3 -4.6 0  -1.2 -4.6 0  -1.1 -4.6 0  -1 -4.6 0  -0.9000000000000004 -4.6 0  -0.7999999999999998 -4.6 0  -0.7000000000000002 -4.6 0  -0.5999999999999996 -4.6 0  -0.5 -4.6 0  -0.4000000000000004 -4.6 0  -0.2999999999999998 -4.6 0  -0.2000000000000002 -4.6 0  -0.09999999999999964 -4.6 0  0 -4.6 0  0.09999999999999964 -4.6 0  0.2000000000000002 -4.6 0  0.2999999999999998 -4.6 0  0.4000000000000004 -4.6 0  0.5 -4.6 0  0.5999999999999996 -4.6 0  0.7000000000000002 -4.6 0  0.7999999999999998 -4.6 0  0.9000000000000004 -4.6 0  1 -4.6 0  1.1 -4.6 0  1.2 -4.6 0  1.3 -4.6 0  1.4 -4.6 0  1.5 -4.6 0  1.6 -4.6 0  1.7 -4.6 0  1.8 -4.6 0  1.9 -4.6 0  2 -4.6 0  2.1 -4.6 0  2.2 -4.6 0  2.3 -4.6 0  2.4 -4.6 0  2.5 -4.6 0  2.6 -4.6 0  2.7 -4.6 0  2.8 -4.6 0  2.9 -4.6 0  3 -4.6 0  3.1 -4.6 0  3.199999999999999 -4.6 0  3.300000000000001 -4.6 0  3.4 -4.6 0  3.5 -4.6 0  3.6 -4.6 0  3.699999999999999 -4.6 0  3.800000000000001 -4.6 0  3.9 -4.6 0  4 -4.6 0  4.1 -4.6 0  4.199999999999999 -4.6 0  4.300000000000001 -4.6 0  4.4 -4.6 0  4.5 -4.6 0  4.6 -4.6 0  4.699999999999999 -4.6 0  4.800000000000001 -4.6 0  4.9 -4.6 0  5 -4.6 0  -5 -4.5 0  -4.9 -4.5 0  -4.8 -4.5 0  -4.7 -4.5 0  -4.6 -4.5 0  -4.5 -4.5 0  -4.4 -4.5 0  -4.3 -4.5 0  -4.2 -4.5 0  -4.1 -4.5 0  -4 -4.5 0  -3.9 -4.5 0  -3.8 -4.5 0  -3.7 -4.5 0  -3.6 -4.5 0  -3.5 -4.5 0  -3.4 -4.5 0  -3.3 -4.5 0  -3.2 -4.5 0  -3.1 -4.5 0  -3 -4.5 0  -2.9 -4.5 0  -2.8 -4.5 0  -2.7 -4.5 0  -2.6 -4.5 0  -2.5 -4.5 0  -2.4 -4.5 0  -2.3 -4.5 0  -2.2 -4.5 0  -2.1 -4.5 0  -2 -4.5 0  -1.9 -4.5 0  -1.8 -4.5 0  -1.7 -4.5 0  -1.6 -4.5 0  -1.5 -4.5 0  -1.4 -4.5 0  -1.3 -4.5 0  -1.2 -4.5 0  -1.1 -4.5 0  -1 -4.5 0  -0.9000000000000004 -4.5 0  -0.7999999999999998 -4.5 0  -0.7000000000000002 -4.5 0  -0.5999999999999996 -4.5 0  -0.5 -4.5 0  -0.4000000000000004 -4.5 0  -0.2999999999999998 -4.5 0  -0.2000000000000002 -4.5 0  -0.09999999999999964 -4.5 0  0 -4.5 0  0.09999999999999964 -4.5 0  0.2000000000000002 -4.5 0  0.2999999999999998 -4.5 0  0.4000000000000004 -4.5 0  0.5 -4.5 0  0.5999999999999996 -4.5 0  0.7000000000000002 -4.5 0  0.7999999999999998 -4.5 0  0.9000000000000004 -4.5 0  1 -4.5 0  1.1 -4.5 0  1.2 -4.5 0  1.3 -4.5 0  1.4 -4.5 0  1.5 -4.5 0  1.6 -4.5 0  1.7 -4.5 0  1.8 -4.5 0  1.9 -4.5 0  2 -4.5 0  2.1 -4.5 0  2.2 -4.5 0  2.3 -4.5 0  2.4 -4.5 0  2.5 -4.5 0  2.6 -4.5 0  2.7 -4.5 0  2.8 -4.5 0  2.9 -4.5 0  3 -4.5 0  3.1 -4.5 0  3.199999999999999 -4.5 0  3.300000000000001 -4.5 0  3.4 -4.5 0  3.5 -4.5 0  3.6 -4.5 0  3.699999999999999 -4.5 0  3.800000000000001 -4.5 0  3.9 -4.5 0  4 -4.5 0  4.1 -4.5 0  4.199999999999999 -4.5 0  4.300000000000001 -4.5 0  4.4 -4.5 0  4.5 -4.5 0  4.6 -4.5 0  4.699999999999999 -4.5 0  4.800000000000001 -4.5 0  4.9 -4.5 0  5 -4.5 0  -5 -4.4 0  -4.9 -4.4 0  -4.8 -4.4 0  -4.7 -4.4 0  -4.6 -4.4 0  -4.5 -4.4 0  -4.4 -4.4 0  -4.3 -4.4 0  -4.2 -4.4 0  -4.1 -4.4 0  -4 -4.4 0  -3.9 -4.4 0  -3.8 -4.4 0  -3.7 -4.4 0  -3.6 -4.4 0  -3.5 -4.4 0  -3.4 -4.4 0  -3.3 -4.4 0  -3.2 -4.4 0  -3.1 -4.4 0  -3 -4.4 0  -2.9 -4.4 0  -2.8 -4.4 0  -2.7 -4.4 0  -2.6 -4.4 0  -2.5 -4.4 0  -2.4 -4.4 0  -2.3 -4.4 0  -2.2 -4.4 0  -2.1 -4.4 0  -2 -4.4 0  -1.9 -4.4 0  -1.8 -4.
[...]
<PointData  Vectors="f_17"> 
<DataArray  type="Float64"  Name="f_17"  NumberOfComponents="3" format="ascii">1.5010755102658888e-01 0.0000000000000000e+00 0.0000000000000000e+00  1.4999394054802170e-01 -1.7880090841951800e-04 0.0000000000000000e+00  1.5013104065932950e-01 3.7657384219849515e-05 0.0000000000000000e+00  1.5005405873702138e-01 -2.4702793006576299e-04 0.0000000000000000e+00  1.5017005353402546e-01 5.2179435486442700e-05 0.0000000000000000e+00  1.5009040772207644e-01 -2.1596154038056210e-04 0.0000000000000000e+00  1.5017174792936436e-01 1.4386558845932952e-04 0.0000000000000000e+00  1.5006937222752997e-01 -6.0569899545190671e-05 0.0000000000000000e+00  1.5011388313041374e-01 2.8206277077806726e-04 0.0000000000000000e+00  1.5002060450352139e-01 7.9908413833004927e-05 0.0000000000000000e+00  1.5007714936268526e-01 2.6883331401463358e-04 0.0000000000000000e+00  1.5004490656288003e-01 -1.4070600104120927e-05 0.0000000000000000e+00  1.5013616842144331e-01 4.1308126187146566e-05 0.0000000000000000e+00  1.5012986165525033e-01 -1.6147183626258443e-04 0.0000000000000000e+00  1.5015805035539384e-01 -2.5691224781451250e-05 0.0000000000000000e+00  1.5008316317309048e-01 -3.7971325241115410e-06 0.0000000000000000e+00  1.5003433193811336e-01 2.0389083048576141e-04 0.0000000000000000e+00  1.4994696356895229e-01 2.0179465948503894e-04 0.0000000000000000e+00  1.4992245657446435e-01 2.1518868356975641e-04 0.0000000000000000e+00  1.4989760861242410e-01 1.1961497190692889e-04 0.0000000000000000e+00  1.4988044275669843e-01 8.9269427515588023e-05 0.0000000000000000e+00  1.4983978492248429e-01 3.4349651189647397e-05 0.0000000000000000e+00  1.4982937793187381e-01 2.6334522236481387e-05 0.0000000000000000e+00  1.4982376482389967e-01 -2.5517087537578738e-05 0.0000000000000000e+00  1.4982805964547086e-01 -6.5715182810579544e-05 0.0000000000000000e+00  1.4985183243384848e-01 -9.3047372696763688e-05 0.0000000000000000e+00  1.4989982400850496e-01 -1.4574264163304707e-04 0.0000000000000000e+00  1.4994448613223887e-01 -2.3134064525347429e-04 0.0000000000000000e+00  1.4997344282809957e-01 -1.6778509227267379e-04 0.0000000000000000e+00  1.4996615031491453e-01 2.7687606033817764e-06 0.0000000000000000e+00  1.4996209812014946e-01 -4.1988757244621617e-06 0.0000000000000000e+00  1.5001887451173981e-01 -1.4207666001707006e-04 0.0000000000000000e+00  1.5004945433245626e-01 -5.3477288591857249e-05 0.0000000000000000e+00  1.4996325573481090e-01 1.5280687321172638e-04 0.0000000000000000e+00  1.4992567519594474e-01 7.3006840534061080e-05 0.0000000000000000e+00  1.5004329786283807e-01 -1.4990259881236120e-04 0.0000000000000000e+00  1.5008731892384236e-01 -1.0204081967861787e-04 0.0000000000000000e+00  1.4996685472996413e-01 9.9604435285711559e-05 0.0000000000000000e+00  1.4993083798142728e-01 1.2106074798146141e-04 0.0000000000000000e+00  1.5001983688698350e-01 -3.6133576856941729e-06 0.0000000000000000e+00  1.5003368883879792e-01 -1.0422056486082015e-04 0.0000000000000000e+00  1.5000452427508820e-01 -9.3327062470147093e-05 0.0000000000000000e+00  1.5001683050582040e-01 7.5050379782459558e-05 0.0000000000000000e+00  1.4997093534297257e-01 1.7463001557917863e-04 0.0000000000000000e+00  1.4994402720761529e-01 -4.9559436989198236e-05 0.0000000000000000e+00  1.5006256237927607e-01 -2.2477646603360726e-04 0.0000000000000000e+00  1.5007504146283912e-01 5.0128573095931346e-05 0.0000000000000000e+00  1.4989837608120005e-01 2.5160076143955821e-04 0.0000000000000000e+00  1.4993271743314923e-01 -7.4505472972765979e-05 0.0000000000000000e+00  1.5013793194730307e-01 -2.5398699777949048e-04 0.0000000000000000e+00  1.5003374166409125e-01 1.1547950918980761e-04 0.0000000000000000e+00  1.4984287436042007e-01 2.3055238134328296e-04 0.0000000000000000e+00  1.5001895728590359e-01 -1.6183887804718317e-04 0.0000000000000000e+00  1.5014838731019939e-01 -1.7906428449554989e-04 0.0000000000000000e+00  1.4992611673637926e-01 1.9895263472758594e-04 0.0000000000000000e+00  1.4989190500817751e-01 1.0351319714994143e-04 0.0000000000000000e+00  1.5011070626459352e-01 -2.1056571703327655e-04 0.0000000000000000e+00  1.5004608065373984e-01 -1.6591207378431875e-05 0.0000000000000000e+00  1.4988524196085493e-01 1.8643454803453499e-04 0.0000000000000000e+00  1.5001653712667848e-01 -6.2355399233526807e-05 0.0000000000000000e+00  1.5008377302679748e-01 -1.2452927466657699e-04 0.0000000000000000e+00  1.4994410871011932e-01 1.0593972757835935e-04 0.0000000000000000e+00  1.4996525442786252e-01 4.8428050861253026e-05 0.0000000000000000e+00  1.5006228505407221e-01 -1.0923623139021970e-04 0.0000000000000000e+00  1.4998869093238335e-01 2.4950144597865196e-05 0.0000000000000000e+00  1.4996218540274078e-01 6.4566043294907242e-05 0.0000000000000000e+00  1.5003084035068057e-01 -5.2573167419044001e-05 0.0000000000000000e+00  1.5000823436886340e-01 -1.9855825642397176e-05 0.0000000000000000e+00  1.4997122815868011e-01 5.6501181445183226e-05 0.0000000000000000e+00  1.5001571470236474e-01 -2.9346868068748285e-05 0.0000000000000000e+00  1.5000712650545442e-01 -1.3647482531468299e-05 0.0000000000000000e+00  1.4998573846740679e-01 2.3525673989345104e-05 0.0000000000000000e+00  1.5000386412621758e-01 -1.0920723708149770e-07 0.0000000000000000e+00  1.5000886823931645e-01 -2.4322185914273738e-05 0.0000000000000000e+00  1.4998820642010571e-01 2.6985291821071200e-05 0.0000000000000000e+00  1.5000564989234183e-01 -1.2540424551218441e-05 0.0000000000000000e+00  1.5000121747516598e-01 -5.6918337512010539e-07 0.0000000000000000e+00  1.4999726997084536e-01 1.1449796082714668e-06 0.0000000000000000e+00  1.4999933286952816e-01 7.6689682271346374e-06 0.0000000000000000e+00  1.5000472057396325e-01 -1.6007979987804039e-05 0.0000000000000000e+00  1.4999386240967130e-01 1.7718036704575437e-05 0.0000000000000000e+00  1.5000482526540962e-01 -1.4042500487199921e-05 0.0000000000000000e+00  1.4999716780718761e-01 1.0155608214537457e-05 0.0000000000000000e+00  1.5000205766707483e-01 -9.8687674237219562e-06 0.0000000000000000e+00  1.4999709697836716e-01 1.3209956502221854e-05 0.0000000000000000e+00  1.5000449515800346e-01 -1.7615490062333721e-05 0.0000000000000000e+00  1.4999426812256375e-01 2.0568827640546073e-05 0.0000000000000000e+00  1.5000610589108568e-01 -2.1277251230446616e-05 0.0000000000000000e+00  1.4999417536109497e-01 2.0581726166846108e-05 0.0000000000000000e+00  1.5000540084721642e-01 -1.9766887881036719e-05 0.0000000000000000e+00  1.4999478857344639e-01 1.9544024820619872e-05 0.0000000000000000e+00  1.5000525562777978e-01 -1.9662620264754593e-05 0.0000000000000000e+00  1.4999462383180587e-01 1.9541358576815062e-05 0.0000000000000000e+00  1.5000519095643233e-01 -1.8363899364655554e-05 0.0000000000000000e+00  1.4999512029063755e-01 1.6431288829636195e-05 0.0000000000000000e+00  1.5000394609097953e-01 -1.3264689935573207e-05 0.0000000000000000e+00  1.4999644635391632e-01 1.0589418276283069e-05 0.0000000000000000e+00  1.5000218539867319e-01 -7.0411987181914695e-06 0.0000000000000000e+00  1.4999744659824246e-01 4.9938522653390771e-06 0.0000000000000000e+00  1.5000099551030044e-01 -2.2463152329907848e-06 0.0000000000000000e+00  1.4999745161787856e-01 0.0000000000000000e+00 0.0000000000000000e+00  1.4999394054802198e-01 0.0000000000000000e+00 -1.7880090841994903e-04  1.4992531889365210e-01 2.3555990718175386e-05 2.3555990717436831e-05  1.4995648186686500e-01 1.4218375665211617e-04 -1.4230083196159601e-04  1.4988075332549106e-01 2.9533752705468172e-05 -5.9003978460201314e-05  1.4991053269633747e-01 1.7991603901369976e-04 -1.7069956096738505e-04  1.4984088993182201e-01 8.5853066571837991e-06 -8.6909305196994268e-05  1.4989133952965500e-01 1.1207205715108978e-04 -1.7051177828232908e-04  1.4985090305794485e-01 -1.0876037766486238e-04 -5.7669306045914129e-05  1.4992797062333443e-01 -4.5416227432177211e-05 -1.2881941624876130e-04  1.4990639897125224e-01 -2.3443698596094177e-04 -2.5563490167289850e-05  1.4996513637930178e-01 -1.2298835449928302e-04 -1.3113333886911660e-04  1.4991758786043266e-01 -1.6687382531875214e-04 -7.7330648902392628e-05  1.4992326310391735e-01 2.0679569754312455e-05 -1.9156261802613666e-04  1.4985591528504097e-01 2.0008310553985826e-05 -1.2013030312894034e-04  1.4987356171966443e-01 1.0133707265002106e-04 -1.3342979589238012e-04  1.4987948065679513e-01 -1.7432298505869550e-05 1.3522932978998859e-05  1.4995289409649518e-01 -9.4979683047632791e-05 4.2083347580349861e-05  1.5000165291769796e-01 -2.1506866763406233e-04 1.1497649467434735e-04  1.5006517960246182e-01 -1.9116826154474211e-04 6.9822083729974136e-05  1.5008051100264075e-01 -1.7131885677788901e-04 7.5099664252890628e-05  1.5011164995592810e-01 -1.1118422031447456e-04 6.9338640109549221e-05  1.5014488646118695e-01 -7.6799408034764161e-05 1.3862647199129976e-04  1.5017512829677554e-01 -3.4021552830771956e-05 1.5748260838319833e-04  1.5017338912850503e-01 -5.3986229595239858e-06 1.5267417310601541e-04  1.5017495671023129e-01 5.6021259765401563e-05 1.1907704509016275e-04  1.5016162520946957e-01 9.2124823823271646e-05 9.7659257092285552e-05  1.5012544373578401e-01 1.1813617142408021e-04 5.2994400198839591e-05  1.5008042295795515e-01 1.8558038915884891e-04 1.3975536374011789e-05  1.5004450694828358e-01 2.1509725100537155e-04 -6.4927151696133939e-07  1.5002721058786733e-01 8.9553462835013738e-05 2.2289345886861693e-05  1.5003686446478862e-01 -7.0018530540332011e-06 2.6352755793050290e-05  1.5001642407928406e-01 7.7657901981187201e-05 -2.7799794921866825e-05  1.4996191453576904e-01 1.0368446793167089e-04 -4.8076869753454823e-05  1.4998790819370131e-01 -6.3795732902301438e-05 5.2461307292545899e-05  1.5006688650674455e-01 -1.1371750576292795e-04 9.1779019664751059e-05  1.5001849766874295e-01 5.8491060813621459e-05 -5.4990578885648171e-05  1.4991760644484520e-01 1.2266211082375233e-04 -1.1658806083396069e-04  1.4997466724950462e-01 -1.5702708374912876e-05 4.5983123274295926e-05  1.5006933677724291e-01 -1.0241568968520569e-04 1.0680864962020420e-04  1.5001757629523965e-01 -5.4261449234316733e-05 -2.9489737626349451e-05  1.4996052964520898e-01 4.2395969608524916e-05 -6.1669817986152386e-05  1.4999168887102193e-01 1.1276137454500635e-04 4.6328388062293446e-06  1.4999052743956892e-01 2.1235296028290957e-05 -1.2980918945081692e-05  1.4999506921981851e-01 -1.5795955772128788e-04 2.1359561177790292e-05  1.5005538966076129e-01 -7.0243904553578265e-05 8.2748365207151807e-05  1.5000263101594680e-01 1.8352955155205821e-04 -6.3359740065358918e-05  1.4990611449536242e-01 8.4173169798044679e-05 -1.2674782858010256e-04  1.5001835474326761e-01 -2.0170127484474496e-04 1.2570611344457156e-04  1.5011512689070108e-01 -7.0773188008273915e-05 1.3043350598534786e-04  1.4994364667348797e-01 2.1036740684638852e-04 -1.9726122187726180e-04  1.4988635468916991e-01 3.8818619929265528e-05 -8.9205444186632500e-05  1.5009782645719963e-01 -2.0713971027103357e-04 2.4989597422772533e-04  1.5008357359293042e-01 2.8971387228419866e-06 4.5075964209671159e-06  1.4987096944145417e-01 1.9027604561888296e-04 -2.6038202958699342e-04  1.4996823271774368e-01 -4.7047282120328169e-05 9.6587621590023704e-05  1.5013385453994685e-01 -1.5785424039396957e-04 2.1034402420019838e-04  1.4997342828174898e-01 8.5559127117933935e-05 -1.7877990212133185e-04  1.4989350344308916e-01 1.1198598857763022e-04 -1.1006879781028611e-04  1.5007155673078038e-01 -1.1127003212628252e-04 2.0662383366909889e-04  1.5005487032142173e-01 -5.3036415285973340e-05 -5.9443860234512467e-06  1.4991515771459327e-01 1.1177539277452777e-04 -1.6692756356085132e-04  1.4999967209799087e-01 -2.2203370453612085e-06 9.1904910744275317e-05  1.5006646160120019e-01 -9.0817578035425211e-05 8.0877031519198552e-05  1.4996245623119250e-01 4.8193077855297266e-05 -1.1702942445990418e-04  1.4997299910888032e-01 4.2966345952482327e-05 8.5431926812207281e-06  1.5004297365836744e-01 -5.6909893901578850e-05 8.1405755956478606e-05  1.4999371225027244e-01 -3.7532888026674962e-06 -5.7595783599167344e-05  1.4997215377466572e-01 4.8985420276535829e-05 -2.1990192767166820e-05  1.5002433479544974e-01 -3.2355543516565648e-05 5.7442183519527296e-05  1.5000144939224469e-01 -1.0188539887320507e-05 -2.5782813541334903e-05  1.4998336155454883e-01 2.5735684527137539e-05 -2.0863868889929434e-05  1.5000976190109669e-01 -5.9205846425234830e-06 3.2332141142179685e-05  1.5000559095989602e-01 -1.9048696451594547e-05 -8.5316792352461954e-06  1.4998749418879109e-01 2.3367583002002640e-05 -1.7582976701295818e-05  1.5000754309512962e-01 -9.2179887805337316e-06 2.1810199109036631e-05  1.5000099135848716e-01 -4.6905243636155979e-06 -7.4639439655865203e-06  1.4999544896928288e-01 5.8666386106643414e-06 -7.1404319214208063e-06  1.5000174767047192e-01 2.9516469377611605e-06 9.6313281452655071e-06  1.5000307177493821e-01 -1.1378298558772580e-05 -1.8485991879523374e-06  1.4999455542241419e-01 1.2797459148956326e-05 -6.6593147589436136e-06  1.5000440499530313e-01 -8.5653345169090479e-06 8.9801864273289139e-06  1.4999800673387670e-01 4.2302671943450221e-06 -5.3307255496618316e-06  1.5000062332734682e-01 -3.7377285104888135e-06 4.1255945137311913e-07  1.4999886624387274e-01 6.8976295081497119e-06 1.6474721723095537e-06  1.5000271802615361e-01 -1.0856460732554351e-05 -1.0010824111511188e-07  1.4999592685516042e-01 1.3030971145622990e-05 -3.0728337345687672e-06  1.5000448212997078e-01 -1.2831579598800603e-05 5.4895005348835326e-06  1.4999590911888966e-01 1.1378701375084720e-05 -6.1226414904054255e-06  1.5000349458352111e-01 -1.0129243488254284e-05 5.4922890360834577e-06  1.4999682992283966e-01 9.7517880491210339e-06 -4.7563952533589314e-06  1.5000321111906276e-01 -9.9507003998183648e-06 4.7357414615488398e-06  1.4999662542408154e-01 9.9312358376819320e-06 -5.4470558800825094e-06  1.5000342256624738e-01 -9.2141660379379748e-06 6.4612263306298407e-06  1.4999689550261272e-01 7.5770252331633291e-06 -7.0090806182957730e-06  1.5000268654129972e-01 -5.7526048552547411e-06 7.1357910109087797e-06  1.4999813535788228e-01 3.5747946676215378e-06 -6.1134089144972174e-06  1.5000162919413554e-01 -2.5113208592555240e-06 5.5701272101696959e-06  1.4999939655814623e-01 9.9527214371441309e-07 -3.3805050188367740e-06  1.5000113540451829e-01 -1.1886085268973545e-06 3.6344997216973697e-06  1.5000026915811029e-01 7.0267278222432356e-07 -7.0267278196800546e-07  1.5000099551029974e-01 0.0000000000000000e+00 2.2463152330277413e-06  1.5013104065932958e-01 0.0000000000000000e+00 3.7657384219092599e-05  1.4995648186686522e-01 -1.4230083196185278e-04 1.4218375665199897e-04  1.5013568245811443e-01 5.8024952126030225e-05 5.8024952125834980e-05  1.5001689169494437e-01 -2.7537336749458314e-04 2.5671034226961993e-04  1.5017791190314239e-01 7.9862395982126025e-05 1.3057917764447907e-04  1.5006652475073931e-01 -3.0738180619992688e-04 3.4510056722854044e-04  1.5020669604017056e-01 1.2768396448021275e-04 1.5681158296806713e-04  1.5007769529329892e-01 -2.0360182997299168e-04 3.4331579857061276e-04  1.5017946856192094e-01 2.5242490062296564e-04 1.0019183238760054e-04  1.5003855265453683e-01 -3.0497880576903031e-05 2.6686930390322847e-04  1.5012368100300841e-01 3.3342813510359181e-04 6.1341132309700760e-05  1.5002146677983016e-01 2.0130698577375019e-05 2.7497020418601963e-04  1.5012160455766432e-01 1.9780261817136589e-04 1.5066455720264097e-04  1.5007531635049440e-01 -1.0646650975756227e-04 3.4792933606788947e-04  1.5015985381440161e-01 3.6568330906124048e-05 1.8384898753359463e-04  1.5009060118926659e-01 -9.9332066461001894e-05 1.9752066122964837e-04  1.5009662580325139e-01 1.1604034189296489e-04 -4.7956712880768183e-05  1.5000701768621924e-01 1.2004776277550466e-04 -5.9739543307063684e-05  1.4998420075719596e-01 2.4186748826867267e-04 -1.7370421527886635e-04  1.4992219411806321e-01 1.6095641870594231e-04 -1.0692247485458391e-04  1.4991532695199727e-01 1.8249665555003023e-04 -1.5574416950792761e-04  1.4985987364557132e-01 1.0995697993802224e-04 -1.8841984946885363e-04  1.4983001409591945e-01 8.4937022380558619e-05 -3.0489780947580159e-04  1.4981400995297212e-01 1.9176903979270116e-05 -2.9216251130636980e-04  1.4982671298671332e-01 -2.0199946614399436e-05 -2.6906710984732357e-04  1.4982288565643245e-01 -8.8888362571924585e-05 -2.2851512856521996e-04  1.4984902647065607e-01 -1.0581014125074979e-04 -1.8711071745781168e-04  1.4989239762359749e-01 -1.5519043884209221e-04 -9.2545835831740926e-05  1.4993528810989409e-01 -2.2721449344191452e-04 -2.8148413279133357e-05  1.4996166766234242e-01 -1.8306519908872491e-04 -1.6757418991695050e-05  1.4996572817664605e-01 -2.9088692760235838e-05 -5.6292470966586296e-05  1.4996481700465555e-01 -3.1436378685364067e-05 -3.1241399182885600e-05  1.5001105840636600e-01 -1.2554834089933972e-04 7.4286472879526918e-05  1.5003454112729228e-01 -2.1896783154615358e-05 4.0271688357382570e-05  1.4996321060943352e-01 1.3040064381735091e-04 -1.5126499285185254e-04  1.4994170501036438e-01 1.8915310738277785e-05 -9.0313677119086469e-05  1.5004897104508161e-01 -1.3326146236323019e-04 1.8508875802402701e-04  1.5006966053889645e-01 -4.2257682098705655e-05 1.1422221397176802e-04  1.4995583527940920e-01 8.5929364768913097e-05 -1.7456999312175824e-04  1.4994619836678655e-01 6.7692102970258434e-05 -9.2662674685038050e-05  1.5003132667947669e-01 8.3695382996918398e-06 1.1574241217769745e-04  1.5002242148735798e-01 -7.2113903286663423e-05 3.2139920412187830e-05  1.4999791461148873e-01 -1.0392698640209990e-04 -7.6316176480299066e-06  1.5002174316042327e-01 7.4899788788618477e-05 5.6773094368999065e-05  1.4996911142015612e-01 1.8200397626565550e-04 -1.1113397046701377e-04  1.4994802868577675e-01 -8.0737303569908262e-05 -1.0651178345337375e-04  1.5007224296923621e-01 -2.1742347933013977e-04 2.4051413552758923e-04  1.5005922981042830e-01 1.0698447100697128e-04 8.9945678878635267e-05  1.4988804856225516e-01 2.1776231515028662e-04 -3.4853606761924249e-04  1.4996582406552980e-01 -1.4341699787938220e-04 1.4429700979210380e-05  1.5014346106631304e-01 -1.8763146178916434e-04 4.1444531087665178e-04  1.4998832009618418e-01 1.7666475280612076e-04 -1.6458652099477048e-04  1.4985408982872894e-01 1.3581519171794679e-04 -3.7996631811729284e-04  1.5007030981592220e-01 -1.9610854231655621e-04 3.3035976035052127e-04  1.5011613005293215e-01 -7.0194349728220070e-05 2.5213211379739785e-04  1.4988412018158256e-01 1.9325436588993677e-04 -4.2589082602106400e-04  1.4994218618419392e-01 3.9975345132986312e-06 -4.7421211610447175e-05  1.5013006534715895e-01 -1.7014840649278787e-04 4.1143624944809775e-04  1.4998817581712770e-01 5.6839856750203574e-05 -1.5389425169496539e-04  1.4989565645432074e-01 1.1842057523573679e-04 -2.7832930501346041e-04  1.5006137547051548e-01 -9.0001743395797985e-05 2.6895824972806345e-04  1.5005275678933194e-01 -6.2141855654064380e-05 8.3131570789197754e-05  1.4992177351971644e-01 1.0529915291342821e-04 -2.6053812079218609e-04  1.5000571608403662e-01 -7.9533385259068492e-06 8.7398170456629476e-05  1.5005368805556932e-01 -7.0449191413087951e-05 1.4427085055907556e-04  1.4996486831619887e-01 3.6390847321832532e-05 -1.5331848380097847e-04  1.4998078996669745e-01 4.1091804128418749e-05 -1.0464014321510749e-05  1.5004064239572751e-01 -6.1366017550117794e-05 1.2234949155843093e-04  1.4998322206942102e-01 1.8321923752829752e-05 -8.0470641827044427e-05  1.4998592500469152e-01 2.2569954563411656e-05 -2.6834177861286369e-05  1.5001898315863654e-01 -1.8076263518533432e-05 7.2936820742250863e-05  1.4999884758421889e-01 -1.4538801602529773e-05 -3.1357016832694287e-05  1.4998439019493939e-01 3.4981780544724723e-05 -3.2128582059127108e-05  1.5001639143935511e-01 -2.7416623601345288e-05 5.2537605913595009e-05  1.4999429227827191e-01 7.5915524345552059e-06 -2.5146381947980804e-05  1.4999667186189361e-01 2.3903420414116806e-06 -1.0931029243981659e-05  1.5000342570231398e-01 3.7946328501267559e-06 2.1994820276937489e-05  1.5000275330773905e-01 -1.6428160980107773e-05 -6.6410896546992890e-06  1.4999168080627676e-01 2.3523945860763358e-05 -1.429100573652