<?xml version="1.0"?>
<VTKFile type="UnstructuredGrid"  version="0.1"  >
<UnstructuredGrid>
<Piece  NumberOfPoints="10201" NumberOfCells="20000">
<Points>
<DataArray  type="Float64"  NumberOfComponents="3"  format="ascii">-5 -5 0  -4.9 -5 0  -4.8 -5 0  -4.7 -5 0  -4.6 -5 0  -4.5 -5 0  -4.4 -5 0  -4.3 -5 0  -4.2 -5 0  -4.1 -5 0  -4 -5 0  -3.9 -5 0  -3.8 -5 0  -3.7 -5 0  -3.6 -5 0  -3.5 -5 0  -3.4 -5 0  -3.3 -5 0  -3.2 -5 0  -3.1 -5 0  -3 -5 0  -2.9 -5 0  -2.8 -5 0  -2.7 -5 0  -2.6 -5 0  -2.5 -5 0  -2.4 -5 0  -2.3 -5 0  -2.2 -5 0  -2.1 -5 0  -2 -5 0  -1.9 -5 0  -1.8 -5 0  -1.7 -5 0  -1.6 -5 0  -1.5 -5 0  -1.4 -5 0  -1.3 -5 0  -1.2 -5 0  -1.1 -5 0  -1 -5 0  -0.9000000000000004 -5 0  -0.7999999999999998 -5 0  -0.7000000000000002 -5 0  -0.5999999999999996 -5 0  -0.5 -5 0  -0.4000000000000004 -5 0  -0.2999999999999998 -5 0  -0.2000000000000002 -5 0  -0.09999999999999964 -5 0  0 -5 0  0.09999999999999964 -5 0  0.2000000000000002 -5 0  0.2999999999999998 -5 0  0.4000000000000004 -5 0  0.5 -5 0  0.5999999999999996 -5 0  0.7000000000000002 -5 0  0.7999999999999998 -5 0  0.9000000000000004 -5 0  1 -5 0  1.1 -5 0  1.2 -5 0  1.3 -5 0  1.4 -5 0  1.5 -5 0  1.6 -5 0  1.7 -5 0  1.8 -5 0  1.9 -5 0  2 -5 0  2.1 -5 0  2.2 -5 0  2.3 -5 0  2.4 -5 0  2.5 -5 0  2.6 -5 0  2.7 -5 0  2.8 -5 0  2.9 -5 0  3 -5 0  3.1 -5 0  3.199999999999999 -5 0  3.300000000000001 -5 0  3.4 -5 0  3.5 -5 0  3.6 -5 0  3.699999999999999 -5 0  3.800000000000001 -5 0  3.9 -5 0  4 -5 0  4.1 -5 0  4.199999999999999 -5 0  4.300000000000001 -5 0  4.4 -5 0  4.5 -5 0  4.6 -5 0  4.699999999999999 -5 0  4.800000000000001 -5 0  4.9 -5 0  5 -5 0  -5 -4.9 0  -4.9 -4.9 0  -4.8 -4.9 0  -4.7 -4.9 0  -4.6 -4.9 0  -4.5 -4.9 0  -4.4 -4.9 0  -4.3 -4.9 0  -4.2 -4.9 0  -4.1 -4.9 0  -4 -4.9 0  -3.9 -4.9 0  -3.8 -4.9 0  -3.7 -4.9 0  -3.6 -4.9 0  -3.5 -4.9 0  -3.4 -4.9 0  -3.3 -4.9 0  -3.2 -4.9 0  -3.1 -4.9 0  -3 -4.9 0  -2.9 -4.9 0  -2.8 -4.9 0  -2.7 -4.9 0  -2.6 -4.9 0  -2.5 -4.9 0  -2.4 -4.9 0  -2.3 -4.9 0  -2.2 -4.9 0  -2.1 -4.9 0  -2 -4.9 0  -1.9 -4.9 0  -1.8 -4.9 0  -1.7 -4.9 0  -1.6 -4.9 0  -1.5 -4.9 0  -1.4 -4.9 0  -1.3 -4.9 0  -1.2 -4.9 0  -1.1 -4.9 0  -1 -4.9 0  -0.9000000000000004 -4.9 0  -0.7999999999999998 -4.9 0  -0.7000000000000002 -4.9 0  -0.5999999999999996 -4.9 0  -0.5 -4.9 0  -0.4000000000000004 -4.9 0  -0.2999999999999998 -4.9 0  -0.2000000000000002 -4.9 0  -0.09999999999999964 -4.9 0  0 -4.9 0  0.09999999999999964 -4.9 0  0.2000000000000002 -4.9 0  0.2999999999999998 -4.9 0  0.4000000000000004 -4.9 0  0.5 -4.9 0  0.5999999999999996 -4.9 0  0.7000000000000002 -4.9 0  0.7999999999999998 -4.9 0  0.9000000000000004 -4.9 0  1 -4.9 0  1.1 -4.9 0  1.2 -4.9 0  1.3 -4.9 0  1.4 -4.9 0  1.5 -4.9 0  1.6 -4.9 0  1.7 -4.9 0  1.8 -4.9 0  1.9 -4.9 0  2 -4.9 0  2.1 -4.9 0  2.2 -4.9 0  2.3 -4.9 0  2.4 -4.9 0  2.5 -4.9 0  2.6 -4.9 0  2.7 -4.9 0  2.8 -4.9 0  2.9 -4.9 0  3 -4.9 0  3.1 -4.9 0  3.199999999999999 -4.9 0  3.300000000000001 -4.9 0  3.4 -4.9 0  3.5 -4.9 0  3.6 -4.9 0  3.699999999999999 -4.9 0  3.800000000000001 -4.9 0  3.9 -4.9 0  4 -4.9 0  4.1 -4.9 0  4.199999999999999 -4.9 0  4.300000000000001 -4.9 0  4.4 -4.9 0  4.5 -4.9 0  4.6 -4.9 0  4.699999999999999 -4.9 0  4.800000000000001 -4.9 0  4.9 -4.9 0  5 -4.9 0  -5 -4.8 0  -4.9 -4.8 0  -4.8 -4.8 0  -4.7 -4.8 0  -4.6 -4.8 0  -4.5 -4.8 0  -4.4 -4.8 0  -4.3 -4.8 0  -4.2 -4.8 0  -4.1 -4.8 0  -4 -4.8 0  -3.9 -4.8 0  -3.8 -4.8 0  -3.7 -4.8 0  -3.6 -4.8 0  -3.5 -4.8 0  -3.4 -4.8 0  -3.3 -4.8 0  -3.2 -4.8 0  -3.1 -4.8 0  -3 -4.8 0  -2.9 -4.8 0  -2.8 -4.8 0  -2.7 -4.8 0  -2.6 -4.8 0  -2.5 -4.8 0  -2.4 -4.8 0  -2.3 -4.8 0  -2.2 -4.8 0  -2.1 -4.8 0  -2 -4.8 0  -1.9 -4.8 0  -1.8 -4.8 0  -1.7 -4.8 0  -1.6 -4.8 0  -1.5 -4.8 0  -1.4 -4.8 0  -1.3 -4.8 0  -1.2 -4.8 0  -1.1 -4.8 0  -1 -4.8 0  -0.9000000000000004 -4.8 0  -0.7999999999999998 -4.8 0  -0.7000000000000002 -4.8 0  -0.5999999999999996 -4.8 0  -0.5 -4.8 0  -0.4000000000000004 -4.8 0  -0.2999999999999998 -4.8 0  -0.2000000000000002 -4.8 0  -0.09999999999999964 -4.8 0  0 -4.8 0  0.09999999999999964 -4.8 0  0.2000000000000002 -4.8 0  0.2999999999999998 -4.8 0  0.4000000000000004 -4.8 0  0.5 -4.8 0  0.5999999999999996 -4.8 0  0.7000000000000002 -4.8 0  0.7999999999999998 -4.8 0  0.9000000000000004 -4.8 0  1 -4.8 0  1.1 -4.8 0  1.2 -4.8 0  1.3 -4.8 0  1.4 -4.8 0  1.5 -4.8 0  1.6 -4.8 0  1.7 -4.8 0  1.8 -4.8 0  1.9 -4.8 0  2 -4.8 0  2.1 -4.8 0  2.2 -4.8 0  2.3 -4.8 0  2.4 -4.8 0  2.5 -4.8 0  2.6 -4.8 0  2.7 -4.8 0  2.8 -4.8 0  2.9 -4.8 0  3 -4.8 0  3.1 -4.8 0  3.199999999999999 -4.8 0  3.300000000000001 -4.8 0  3.4 -4.8 0  3.5 -4.8 0  3.6 -4.8 0  3.699999999999999 -4.8 0  3.800000000000001 -4.8 0  3.9 -4.8 0  4 -4.8 0  4.1 -4.8 0  4.199999999999999 -4.8 0  4.300000000000001 -4.8 0  4.4 -4.8 0  4.5 -4.8 0  4.6 -4.8 0  4.699999999999999 -4.8 0  4.800000000000001 -4.8 0  4.9 -4.8 0  5 -4.8 0  -5 -4.7 0  -4.9 -4.7 0  -4.8 -4.7 0  -4.7 -4.7 0  -4.6 -4.7 0  -4.5 -4.7 0  -4.4 -4.7 0  -4.3 -4.7 0  -4.2 -4.7 0  -4.1 -4.7 0  -4 -4.7 0  -3.9 -4.7 0  -3.8 -4.7 0  -3.7 -4.7 0  -3.6 -4.7 0  -3.5 -4.7 0  -3.4 -4.7 0  -3.3 -4.7 0  -3.2 -4.7 0  -3.1 -4.7 0  -3 -4.7 0  -2.9 -4.7 0  -2.8 -4.7 0  -2.7 -4.7 0  -2.6 -4.7 0  -2.5 -4.7 0  -2.4 -4.7 0  -2.3 -4.7 0  -2.2 -4.7 0  -2.1 -4.7 0  -2 -4.7 0  -1.9 -4.7 0  -1.8 -4.7 0  -1.7 -4.7 0  -1.6 -4.7 0  -1.5 -4.7 0  -1.4 -4.7 0  -1.3 -4.7 0  -1.2 -4.7 0  -1.1 -4.7 0  -1 -4.7 0  -0.9000000000000004 -4.7 0  -0.7999999999999998 -4.7 0  -0.7000000000000002 -4.7 0  -0.5999999999999996 -4.7 0  -0.5 -4.7 0  -0.4000000000000004 -4.7 0  -0.2999999999999998 -4.7 0  -0.2000000000000002 -4.7 0  -0.09999999999999964 -4.7 0  0 -4.7 0  0.09999999999999964 -4.7 0  0.2000000000000002 -4.7 0  0.2999999999999998 -4.7 0  0.4000000000000004 -4.7 0  0.5 -4.7 0  0.5999999999999996 -4.7 0  0.7000000000000002 -4.7 0  0.7999999999999998 -4.7 0  0.9000000000000004 -4.7 0  1 -4.7 0  1.1 -4.7 0  1.2 -4.7 0  1.3 -4.7 0  1.4 -4.7 0  1.5 -4.7 0  1.6 -4.7 0  1.7 -4.7 0  1.8 -4.7 0  1.9 -4.7 0  2 -4.7 0  2.1 -4.7 0  2.2 -4.7 0  2.3 -4.7 0  2.4 -4.7 0  2.5 -4.7 0  2.6 -4.7 0  2.7 -4.7 0  2.8 -4.7 0  2.9 -4.7 0  3 -4.7 0  3.1 -4.7 0  3.199999999999999 -4.7 0  3.300000000000001 -4.7 0  3.4 -4.7 0  3.5 -4.7 0  3.6 -4.7 0  3.699999999999999 -4.7 0  3.800000000000001 -4.7 0  3.9 -4.7 0  4 -4.7 0  4.1 -4.7 0  4.199999999999999 -4.7 0  4.300000000000001 -4.7 0  4.4 -4.7 0  4.5 -4.7 0  4.6 -4.7 0  4.699999999999999 -4.7 0  4.800000000000001 -4.7 0  4.9 -4.7 0  5 -4.7 0  -5 -4.6 0  -4.9 -4.6 0  -4.8 -4.6 0  -4.7 -4.6 0  -4.6 -4.6 0  -4.5 -4.6 0  -4.4 -4.6 0  -4.3 -4.6 0  -4.2 -4.6 0  -4.1 -4.6 0  -4 -4.6 0  -3.9 -4.6 0  -3.8 -4.6 0  -3.7 -4.6 0  -3.6 -4.6 0  -3.5 -4.6 0  -3.4 -4.6 0  -3.3 -4.6 0  -3.2 -4.6 0  -3.1 -4.6 0  -3 -4.6 0  -2.9 -4.6 0  -2.8 -4.6 0  -2.7 -4.6 0  -2.6 -4.6 0  -2.5 -4.6 0  -2.4 -4.6 0  -2.3 -4.6 0  -2.2 -4.6 0  -2.1 -4.6 0  -2 -4.6 0  -1.9 -4.6 0  -1.8 -4.6 0  -1.7 -4.6 0  -1.6 -4.6 0  -1.5 -4.6 0  -1.4 -4.6 0  -1.3 -4.6 0  -1.2 -4.6 0  -1.1 -4.6 0  -1 -4.6 0  -0.9000000000000004 -4.6 0  -0.7999999999999998 -4.6 0  -0.7000000000000002 -4.6 0  -0.5999999999999996 -4.6 0  -0.5 -4.6 0  -0.4000000000000004 -4.6 0  -0.2999999999999998 -4.6 0  -0.2000000000000002 -4.6 0  -0.09999999999999964 -4.6 0  0 -4.6 0  0.09999999999999964 -4.6 0  0.2000000000000002 -4.6 0  0.2999999999999998 -4.6 0  0.4000000000000004 -4.6 0  0.5 -4.6 0  0.5999999999999996 -4.6 0  0.7000000000000002 -4.6 0  0.7999999999999998 -4.6 0  0.9000000000000004 -4.6 0  1 -4.6 0  1.1 -4.6 0  1.2 -4.6 0  1.3 -4.6 0  1.4 -4.6 0  1.5 -4.6 0  1.6 -4.6 0  1.7 -4.6 0  1.8 -4.6 0  1.9 -4.6 0  2 -4.6 0  2.1 -4.6 0  2.2 -4.6 0  2.3 -4.6 0  2.4 -4.6 0  2.5 -4.6 0  2.6 -4.6 0  2.7 -4.6 0  2.8 -4.6 0  2.9 -4.6 0  3 -4.6 0  3.1 -4.6 0  3.199999999999999 -4.6 0  3.300000000000001 -4.6 0  3.4 -4.6 0  3.5 -4.6 0  3.6 -4.6 0  3.699999999999999 -4.6 0  3.800000000000001 -4.6 0  3.9 -4.6 0  4 -4.6 0  4.1 -4.6 0  4.199999999999999 -4.6 0  4.300000000000001 -4.6 0  4.4 -4.6 0  4.5 -4.6 0  4.6 -4.6 0  4.699999999999999 -4.6 0  4.800000000000001 -4.6 0  4.9 -4.6 0  5 -4.6 0  -5 -4.5 0  -4.9 -4.5 0  -4.8 -4.5 0  -4.7 -4.5 0  -4.6 -4.5 0  -4.5 -4.5 0  -4.4 -4.5 0  -4.3 -4.5 0  -4.2 -4.5 0  -4.1 -4.5 0  -4 -4.5 0  -3.9 -4.5 0  -3.8 -4.5 0  -3.7 -4.5 0  -3.6 -4.5 0  -3.5 -4.5 0  -3.4 -4.5 0  -3.3 -4.5 0  -3.2 -4.5 0  -3.1 -4.5 0  -3 -4.5 0  -2.9 -4.5 0  -2.8 -4.5 0  -2.7 -4.5 0  -2.6 -4.5 0  -2.5 -4.5 0  -2.4 -4.5 0  -2.3 -4.5 0  -2.2 -4.5 0  -2.1 -4.5 0  -2 -4.5 0  -1.9 -4.5 0  -1.8 -4.5 0  -1.7 -4.5 0  -1.6 -4.5 0  -1.5 -4.5 0  -1.4 -4.5 0  -1.3 -4.5 0  -1.2 -4.5 0  -1.1 -4.5 0  -1 -4.5 0  -0.9000000000000004 -4.5 0  -0.7999999999999998 -4.5 0  -0.7000000000000002 -4.5 0  -0.5999999999999996 -4.5 0  -0.5 -4.5 0  -0.4000000000000004 -4.5 0  -0.2999999999999998 -4.5 0  -0.2000000000000002 -4.5 0  -0.09999999999999964 -4.5 0  0 -4.5 0  0.09999999999999964 -4.5 0  0.2000000000000002 -4.5 0  0.2999999999999998 -4.5 0  0.4000000000000004 -4.5 0  0.5 -4.5 0  0.5999999999999996 -4.5 0  0.7000000000000002 -4.5 0  0.7999999999999998 -4.5 0  0.9000000000000004 -4.5 0  1 -4.5 0  1.1 -4.5 0  1.2 -4.5 0  1.3 -4.5 0  1.4 -4.5 0  1.5 -4.5 0  1.6 -4.5 0  1.7 -4.5 0  1.8 -4.5 0  1.9 -4.5 0  2 -4.5 0  2.1 -4.5 0  2.2 -4.5 0  2.3 -4.5 0  2.4 -4.5 0  2.5 -4.5 0  2.6 -4.5 0  2.7 -4.5 0  2.8 -4.5 0  2.9 -4.5 0  3 -4.5 0  3.1 -4.5 0  3.199999999999999 -4.5 0  3.300000000000001 -4.5 0  3.4 -4.5 0  3.5 -4.5 0  3.6 -4.5 0  3.699999999999999 -4.5 0  3.800000000000001 -4.5 0  3.9 -4.5 0  4 -4.5 0  4.1 -4.5 0  4.199999999999999 -4.5 0  4.300000000000001 -4.5 0  4.4 -4.5 0  4.5 -4.5 0  4.6 -4.5 0  4.699999999999999 -4.5 0  4.800000000000001 -4.5 0  4.9 -4.5 0  5 -4.5 0  -5 -4.4 0  -4.9 -4.4 0  -4.8 -4.4 0  -4.7 -4.4 0  -4.6 -4.4 0  -4.5 -4.4 0  -4.4 -4.4 0  -4.3 -4.4 0  -4.2 -4.4 0  -4.1 -4.4 0  -4 -4.4 0  -3.9 -4.4 0  -3.8 -4.4 0  -3.7 -4.4 0  -3.6 -4.4 0  -3.5 -4.4 0  -3.4 -4.4 0  -3.3 -4.4 0  -3.2 -4.4 0  -3.1 -4.4 0  -3 -4.4 0  -2.9 -4.4 0  -2.8 -4.4 0  -2.7 -4.4 0  -2.6 -4.4 0  -2.5 -4.4 0  -2.4 -4.4 0  -2.3 -4.4 0  -2.2 -4.4 0  -2.1 -4.4 0  -2 -4.4 0  -1.9 -4.4 0  -1.8 -4.
[...]
<PointData  Vectors="f_17"> 
<DataArray  type="Float64"  Name="f_17"  NumberOfComponents="3" format="ascii">1.5000001844425559e-01 0.0000000000000000e+00 0.0000000000000000e+00  1.5000000874340938e-01 -5.2024423364246656e-08 0.0000000000000000e+00  1.5000005208884004e-01 -5.0023311300480088e-08 0.0000000000000000e+00  1.5000009566368233e-01 -1.8556013561727670e-07 0.0000000000000000e+00  1.5000022728038404e-01 -3.1069999306399437e-07 0.0000000000000000e+00  1.5000043098238894e-01 -6.2508431507034240e-07 0.0000000000000000e+00  1.5000078577630266e-01 -9.7832270326177437e-07 0.0000000000000000e+00  1.5000125509593709e-01 -1.3804751644787113e-06 0.0000000000000000e+00  1.5000177893848488e-01 -1.3691785333461257e-06 0.0000000000000000e+00  1.5000202104719648e-01 -4.4659091961137946e-07 0.0000000000000000e+00  1.5000147995907478e-01 2.3693542471127857e-06 0.0000000000000000e+00  1.4999942310798270e-01 7.7810403172607169e-06 0.0000000000000000e+00  1.4999520301777997e-01 1.5623694114366058e-05 0.0000000000000000e+00  1.4998876668483796e-01 2.3961772983490177e-05 0.0000000000000000e+00  1.4998128348705234e-01 2.9317850152146351e-05 0.0000000000000000e+00  1.4997495897307528e-01 2.7557002162833339e-05 0.0000000000000000e+00  1.4997227818912925e-01 1.6566553005566497e-05 0.0000000000000000e+00  1.4997480577531327e-01 -1.0866956910479912e-06 0.0000000000000000e+00  1.4998182106148852e-01 -1.8997858079426034e-05 0.0000000000000000e+00  1.4999027789249225e-01 -3.1149838998528607e-05 0.0000000000000000e+00  1.4999704483220014e-01 -3.4338858833416746e-05 0.0000000000000000e+00  1.5000061764691708e-01 -2.7948639958893343e-05 0.0000000000000000e+00  1.5000069598501678e-01 -1.4800324207586542e-05 0.0000000000000000e+00  1.4999858722489434e-01 -1.9584683342737950e-06 0.0000000000000000e+00  1.4999782747294649e-01 3.0996839149932207e-06 0.0000000000000000e+00  1.5000054307616248e-01 -3.4427949210807105e-07 0.0000000000000000e+00  1.5000370078479613e-01 -3.7167122312595855e-06 0.0000000000000000e+00  1.5000303442537538e-01 1.4051958037470642e-06 0.0000000000000000e+00  1.4999947522405724e-01 9.4108738126583609e-06 0.0000000000000000e+00  1.4999798386954941e-01 6.4802285844033458e-06 0.0000000000000000e+00  1.5000050781133004e-01 -4.5000278524832187e-06 0.0000000000000000e+00  1.5000257629100952e-01 -4.5584456114824554e-06 0.0000000000000000e+00  1.4999979200526598e-01 6.1605054410821388e-06 0.0000000000000000e+00  1.4999677184304902e-01 5.1355257968718927e-06 0.0000000000000000e+00  1.5000029939156723e-01 -7.6988574913730631e-06 0.0000000000000000e+00  1.5000438688730053e-01 -6.0534970342165302e-06 0.0000000000000000e+00  1.4999993369741596e-01 8.7611147159341697e-06 0.0000000000000000e+00  1.4999507077636742e-01 6.8598811335946318e-06 0.0000000000000000e+00  1.5000018271258522e-01 -8.6654492529170136e-06 0.0000000000000000e+00  1.5000486031580165e-01 -6.4782098218148686e-06 0.0000000000000000e+00  1.4999944472166754e-01 7.9213955339154019e-06 0.0000000000000000e+00  1.4999598640399189e-01 4.9458586482754884e-06 0.0000000000000000e+00  1.5000114192615158e-01 -6.7773928853911615e-06 0.0000000000000000e+00  1.5000264908724537e-01 -2.6519939451238495e-06 0.0000000000000000e+00  1.4999838972264729e-01 5.4249000173613789e-06 0.0000000000000000e+00  1.4999888450244139e-01 3.0892724672444723e-07 0.0000000000000000e+00  1.5000166293655687e-01 -3.8623826798666553e-06 0.0000000000000000e+00  1.4999978329040439e-01 1.4764888612363479e-06 0.0000000000000000e+00  1.4999877795544231e-01 2.1429110102982261e-06 0.0000000000000000e+00  1.5000105473500608e-01 -2.3617335441819663e-06 0.0000000000000000e+00  1.5000046865487102e-01 -4.8497155358478578e-07 0.0000000000000000e+00  1.4999872436895709e-01 2.3141208199598241e-06 0.0000000000000000e+00  1.5000027651676345e-01 -7.9298115569255966e-07 0.0000000000000000e+00  1.5000097636289933e-01 -1.5795679467259126e-06 0.0000000000000000e+00  1.4999926938768449e-01 1.4414880609520868e-06 0.0000000000000000e+00  1.4999957669721403e-01 5.7924809276467569e-07 0.0000000000000000e+00  1.5000078560798527e-01 -1.4218682151638593e-06 0.0000000000000000e+00  1.4999991809063198e-01 2.5939903155917482e-07 0.0000000000000000e+00  1.4999946527282443e-01 9.3386837321030559e-07 0.0000000000000000e+00  1.5000034363632900e-01 -6.7200634216797046e-07 0.0000000000000000e+00  1.5000018617332450e-01 -3.1206466176305775e-07 0.0000000000000000e+00  1.4999966068319637e-01 6.4123880878177050e-07 0.0000000000000000e+00  1.5000006998813414e-01 -1.4423234854575633e-07 0.0000000000000000e+00  1.5000018239890212e-01 -3.5111033234154826e-07 0.0000000000000000e+00  1.4999984433447344e-01 3.0417468227686314e-07 0.0000000000000000e+00  1.4999997999373513e-01 4.5561476779627077e-08 0.0000000000000000e+00  1.5000011082044082e-01 -2.2595791965550971e-07 0.0000000000000000e+00  1.4999994020345087e-01 1.1625980966012461e-07 0.0000000000000000e+00  1.4999997185332642e-01 6.6245415634274237e-08 0.0000000000000000e+00  1.5000005553182860e-01 -1.1765254849443121e-07 0.0000000000000000e+00  1.4999997808220858e-01 4.0625188233215403e-08 0.0000000000000000e+00  1.4999998265658240e-01 4.3345849320713155e-08 0.0000000000000000e+00  1.5000002560059886e-01 -5.6339206190595772e-08 0.0000000000000000e+00  1.4999999097858269e-01 1.5839472163647343e-08 0.0000000000000000e+00  1.4999999202996991e-01 2.1886695041203290e-08 0.0000000000000000e+00  1.5000001153762216e-01 -2.7026877436258034e-08 0.0000000000000000e+00  1.4999999514150467e-01 9.3267617800165505e-09 0.0000000000000000e+00  1.4999999761497440e-01 7.6552893120498305e-09 0.0000000000000000e+00  1.5000000459324142e-01 -1.1427009636651792e-08 0.0000000000000000e+00  1.4999999751167567e-01 4.9815469262334614e-09 0.0000000000000000e+00  1.4999999949569406e-01 2.7030234904986502e-09 0.0000000000000000e+00  1.5000000201425717e-01 -5.9635711754333557e-09 0.0000000000000000e+00  1.4999999818482010e-01 4.7988198774308916e-09 0.0000000000000000e+00  1.5000000089009219e-01 -2.1424248376565768e-09 0.0000000000000000e+00  1.4999999979982392e-01 5.7165362783341568e-10 0.0000000000000000e+00  1.5000000012609468e-01 -9.2208630892839017e-10 0.0000000000000000e+00  1.4999999944625922e-01 2.6524659099345463e-09 0.0000000000000000e+00  1.5000000118218298e-01 -4.7752224383314771e-09 0.0000000000000000e+00  1.4999999824969992e-01 6.5105682416818660e-09 0.0000000000000000e+00  1.5000000211522488e-01 -7.4869650574519849e-09 0.0000000000000000e+00  1.4999999775973497e-01 7.6683377552015918e-09 0.0000000000000000e+00  1.5000000215631096e-01 -7.2092145201536691e-09 0.0000000000000000e+00  1.4999999807288339e-01 6.3371014946634592e-09 0.0000000000000000e+00  1.5000000162007374e-01 -5.2681601041477228e-09 0.0000000000000000e+00  1.4999999869835648e-01 4.1880387388690713e-09 0.0000000000000000e+00  1.5000000099084959e-01 -3.1764607342907456e-09 0.0000000000000000e+00  1.4999999923731935e-01 2.3532685261508651e-09 0.0000000000000000e+00  1.5000000050709039e-01 -1.5864864998559040e-09 0.0000000000000000e+00  1.4999999953617571e-01 1.0801080673896998e-09 0.0000000000000000e+00  1.5000000020187551e-01 -5.2549996607260980e-10 0.0000000000000000e+00  1.4999999954545787e-01 0.0000000000000000e+00 0.0000000000000000e+00  1.5000000874340946e-01 0.0000000000000000e+00 -5.2024423825525605e-08  1.4999997593121198e-01 8.9703969877184043e-10 8.9703998161511776e-10  1.4999997550715866e-01 8.0848720848859178e-08 -8.0601683969190753e-08  1.4999991141849359e-01 1.0077313039767623e-07 -1.2802295241842802e-07  1.4999983392097913e-01 2.9604456263872597e-07 -3.2258976704465789e-07  1.4999963515788053e-01 4.8503549382129597e-07 -5.9418086200190021e-07  1.4999934777880949e-01 9.0102570798785853e-07 -1.1106839761542990e-06  1.4999888676149112e-01 1.2900290800690253e-06 -1.7723825089551906e-06  1.4999835349514265e-01 1.5739640341480972e-06 -2.5956758203142869e-06  1.4999790489370179e-01 1.0879125763889146e-06 -3.1413748605853205e-06  1.4999803482651350e-01 -8.1245244918790975e-07 -2.8578459645781452e-06  1.4999933949411207e-01 -5.1880783866853044e-06 -8.1680705528055714e-07  1.5000257108908743e-01 -1.2247744684174590e-05 3.6540819908783393e-06  1.5000807729372159e-01 -2.0864680491913187e-05 1.0630783357490677e-05  1.5001525415400993e-01 -2.8024356486490248e-05 1.8527414270246861e-05  1.5002225205410930e-01 -2.9732379038424822e-05 2.4395815953462487e-05  1.5002667983799264e-01 -2.2613965005885017e-05 2.5162633890237461e-05  1.5002652764086119e-01 -7.1506271956371478e-06 1.9592778488698152e-05  1.5002145687231799e-01 1.1342715558342104e-05 9.5991063432445545e-06  1.5001361692479057e-01 2.6177648635949755e-05 2.1696273611969193e-08  1.5000631892819277e-01 3.3272683003636317e-05 -4.8037051977392077e-06  1.5000157247332699e-01 3.1226224181844653e-05 -4.3469920855154111e-06  1.4999988914528917e-01 2.1152073199128867e-05 -6.5766958572104311e-07  1.5000092249985686e-01 8.2182464232461239e-06 3.8906910528380951e-06  1.5000232678397862e-01 -1.8405447321435647e-07 5.6600094879683461e-06  1.5000094334475267e-01 -5.7947534544103211e-07 1.8818611450852917e-06  1.4999752882180947e-01 2.6342432215191169e-06 -3.3986650303433810e-06  1.4999645417823779e-01 1.0853567695699234e-06 -2.7323456605394724e-06  1.4999906833190749e-01 -6.2904745856355244e-06 2.9986347237476326e-06  1.5000160836090254e-01 -8.7143361362002779e-06 4.7824037942354821e-06  1.5000067862054606e-01 -2.7970882381123069e-07 -4.3101889369847524e-07  1.4999806959789522e-01 5.6726341580073609e-06 -4.2098266699520294e-06  1.4999864446896050e-01 -1.6003248413324282e-06 2.0615223389485402e-07  1.5000220935269548e-01 -7.0426828950252592e-06 5.1732201924742261e-06  1.5000184654280388e-01 2.3909894035993341e-06 1.6854466703356817e-07  1.4999692407650683e-01 8.5372874424831793e-06 -6.8015821793717781e-06  1.4999724874334497e-01 -2.7381454102368705e-06 -1.1554061894928183e-06  1.5000347488598875e-01 -9.6493787335816755e-06 7.5401745320695132e-06  1.5000303403368478e-01 2.3678845420782060e-06 1.5031194045611504e-06  1.4999631928653290e-01 9.3476402919661120e-06 -7.4697183648622668e-06  1.4999729714093288e-01 -2.0994456190300457e-06 -1.1997246862123276e-06  1.5000346189411565e-01 -7.9065664977914970e-06 6.2554150867331106e-06  1.5000170679236605e-01 2.0899151759207538e-06 1.6442590160272109e-07  1.4999710964370838e-01 5.7216554276238957e-06 -4.2477802757049643e-06  1.4999954785100017e-01 -2.3108358499648145e-06 1.0155565528487806e-06  1.5000200360307617e-01 -3.3749289101296317e-06 1.9005184146647421e-06  1.4999941126115796e-01 2.4399214959451887e-06 -1.6680040356754115e-06  1.4999906773258859e-01 1.2815035279183365e-06 2.6577134031244951e-07  1.5000108863403055e-01 -2.2091585074622198e-06 1.4480813095422146e-06  1.4999991539064880e-01 2.9768964784221942e-07 -1.7592814202456825e-06  1.4999901023131182e-01 1.5664657726867668e-06 -5.0858433480633716e-07  1.5000078071755441e-01 -1.2187485691406519e-06 2.2748989637039854e-06  1.5000048523492959e-01 -6.8015421529524138e-07 -6.4121716886063621e-07  1.4999899677667902e-01 1.4623498624869455e-06 -1.8543388992861260e-06  1.5000010274798328e-01 -1.6514714156540312e-07 1.4427728946792632e-06  1.5000079600209268e-01 -1.1607600213791854e-06 8.8615083963063652e-07  1.4999950925147201e-01 7.0946169133607863e-07 -1.5866535175767782e-06  1.4999963209335970e-01 5.7580463017469855e-07 9.0022837874727433e-08  1.5000056117990490e-01 -8.3722807487507513e-07 1.1422463985283756e-06  1.4999997051012523e-01 -7.5823728384658318e-09 -6.5769255426077080e-07  1.4999961739503331e-01 6.1921024593338154e-07 -4.5600835407260076e-07  1.5000023332189688e-01 -3.2618769494549559e-07 7.0580959069597091e-07  1.5000012628878598e-01 -2.5584600376866828e-07 -9.3102151982008972e-08  1.4999977102864970e-01 3.7013243984176303e-07 -4.1372006524011928e-07  1.5000005503349356e-01 -4.2420500555837836e-08 3.1038501485934461e-07  1.5000011309514708e-01 -2.2169925006239328e-07 7.2847996178074030e-08  1.4999989377936018e-01 1.6506880007795358e-07 -2.4289292561505799e-07  1.4999999832952166e-01 3.8761892545975169e-08 1.1391084495870786e-07  1.5000006634982513e-01 -1.3093494363489265e-07 7.2905053741157757e-08  1.4999995597338714e-01 6.3335535815059041e-08 -1.1970367362429881e-07  1.4999999086045332e-01 3.8133211190100907e-08 4.0908621463848127e-08  1.5000003252518151e-01 -6.5888080197175373e-08 4.1640571835365533e-08  1.4999998176778401e-01 2.4065970626689144e-08 -5.5189195867956677e-08  1.4999999460331243e-01 2.2530669404284153e-08 1.7762198022758661e-08  1.5000001473812111e-01 -3.2242703714058814e-08 1.8245787699640723e-08  1.4999999136494888e-01 1.2513532600323124e-08 -2.5138349501921359e-08  1.4999999883048049e-01 8.2329606271493340e-09 1.0605412167515071e-08  1.5000000554190188e-01 -1.3344303495837789e-08 5.0024208471562300e-09  1.4999999622396928e-01 5.7455545688506927e-09 -1.0070129446565739e-08  1.4999999997774091e-01 3.4823609653963242e-09 5.9163277522931730e-09  1.5000000233627753e-01 -7.2617703371562785e-09 5.0620536344153339e-10  1.4999999758100085e-01 5.7082949564963451e-09 -4.1066741871993779e-09  1.5000000137274341e-01 -2.5466491182366824e-09 4.0096592960191707e-09  1.4999999953372728e-01 8.4989329637138258e-10 -1.9728286508134933e-09  1.5000000026440413e-01 -1.4146469189412506e-09 5.1056599937068672e-11  1.4999999932240052e-01 3.4181793988652609e-09 6.5606023729826417e-10  1.5000000135812278e-01 -5.6632888375176488e-09 -8.3740761570665565e-11  1.4999999800404423e-01 7.3255483018455786e-09 -1.2521916853439026e-09  1.5000000241567529e-01 -8.0876035093945983e-09 2.7184788709028367e-09  1.4999999743891010e-01 7.9837704899953384e-09 -3.8409157749002556e-09  1.5000000245544981e-01 -7.2229268350742606e-09 4.3989377020404951e-09  1.4999999783218043e-01 6.0723998222628066e-09 -4.3995558378084591e-09  1.5000000178486070e-01 -4.7883929406725443e-09 3.9911739550842516e-09  1.4999999861588731e-01 3.5653698786927605e-09 -3.3628780681441183e-09  1.5000000102585850e-01 -2.5311553319411156e-09 2.6896124712756716e-09  1.4999999927952934e-01 1.7038287389296054e-09 -2.0408828996062196e-09  1.5000000051492765e-01 -1.1315841099497190e-09 1.5517232978913300e-09  1.4999999969951910e-01 6.5807656337518977e-10 -1.0184456556101190e-09  1.5000000027277058e-01 -4.6689558329154560e-10 8.6742447698251046e-10  1.4999999997493066e-01 2.5431251446505719e-10 -2.5431273636777825e-10  1.5000000020187523e-01 0.0000000000000000e+00 5.2549935929485183e-10  1.5000005208884010e-01 0.0000000000000000e+00 -5.0023310149833025e-08  1.4999997550715846e-01 -8.0601684225536327e-08 8.0848720620743690e-08  1.5000005708902214e-01 3.0466409628941350e-08 3.0466408792912883e-08  1.5000004187620156e-01 -1.9043837606910027e-07 2.3015850949812336e-07  1.5000017763052664e-01 -1.5632525313385954e-07 3.6357922650109980e-07  1.5000029064288189e-01 -5.4941907889428060e-07 8.7962526788570305e-07  1.5000062947778353e-01 -7.5404382174509860e-07 1.5408554370191448e-06  1.5000102603697013e-01 -1.4106448738895474e-06 2.7646026118941322e-06  1.5000166963058351e-01 -1.7385140324400087e-06 4.2034068972432655e-06  1.5000225591779176e-01 -1.8765208256250913e-06 5.8822269246127225e-06  1.5000258738170311e-01 -5.9047414826563041e-07 6.6374706202799759e-06  1.5000191715646791e-01 2.6501236507786366e-06 5.3904382282926239e-06  1.4999965354051570e-01 9.1135819059017608e-06 2.8597095973315116e-07  1.4999504587329188e-01 1.7994117834867366e-05 -9.6068464904447871e-06  1.4998829420009177e-01 2.7159738365633441e-05 -2.3737563968653363e-05  1.4998073611099341e-01 3.2366660885411976e-05 -3.8011518596666287e-05  1.4997479406340739e-01 2.9479024019126677e-05 -4.6747741201834716e-05  1.4997269899442689e-01 1.6506344822514344e-05 -4.5132034167690454e-05  1.4997565655130551e-01 -2.7642827281744312e-06 -3.2578242902649443e-05  1.4998252544983004e-01 -2.0833806319245064e-05 -1.4466079180369955e-05  1.4999008816225087e-01 -3.1919530531668602e-05 -8.4226210298976766e-08  1.4999562234520730e-01 -3.4185405456233297e-05 5.3612252588032875e-06  1.4999849389778053e-01 -2.7671295580933427e-05 3.5625646376802546e-06  1.4999869656608364e-01 -1.5317125523822127e-05 -2.5081792804492538e-06  1.4999717150757791e-01 -4.1413896420648558e-06 -9.2967895311378240e-06  1.4999722986755332e-01 -2.4018624610504704e-07 -9.1674627594981426e-06  1.5000058845283154e-01 -2.4866349493890004e-06 9.3467513538753010e-08  1.5000342917525603e-01 -3.2085446380587525e-06 6.5443270594554413e-06  1.5000198097028164e-01 2.9939255654693754e-06 5.8005020434956908e-07  1.4999880650575165e-01 9.6241398222562407e-06 -8.0777115358539767e-06  1.4999859033053892e-01 5.2385315956716974e-06 -5.2981902430344436e-06  1.5000121630575608e-01 -4.9152144017186905e-06 4.7361104309592608e-06  1.5000215205580228e-01 -3.0427258140248163e-06 5.4857050759965441e-06  1.4999908171055348e-01 7.1379779645746451e-06 -5.2836519314683950e-06  1.4999708923478483e-01 3.4641505627324538e-06 -7.8306321435737397e-06  1.5000112708211422e-01 -9.1077833124019814e-06 6.2740990963034079e-06  1.5000431279687801e-01 -4.2402753821185217e-06 1.1466374863971610e-05  1.4999913498487594e-01 1.0432105553944037e-05 -5.8723816275007627e-06  1.4999503560135072e-01 5.1284042750847324e-06 -1.3036405185502177e-05  1.5000092721524080e-01 -1.0145440081289642e-05 5.7546865581466120e-06  1.5000493787875760e-01 -4.9364795720762144e-06 1.2531939265022218e-05  1.4999891548699776e-01 8.8643061754443391e-06 -5.3677412972889573e-06  1.4999601047755862e-01 3.7527811103950064e-06 -9.4498674983132459e-06  1.5000134213931537e-01 -6.9539507834921301e-06 4.8609081386380098e-06  1.5000247905790401e-01 -1.8996256608281895e-06 4.9916364345011831e-06  1.4999858310760450e-01 4.8872706930595880e-06 -3.7666299491754622e-06  1.4999911486734632e-01 7.3613464273976143e-08 -7.1938978235814188e-07  1.5000110093234925e-01 -2.8781644128708874e-06 1.8202254770460339e-06  1.4999966294293579e-01 1.1735640986715077e-06 -2.0638984792105969e-06  1.4999957315697754e-01 1.0745567372820579e-06 6.3336057421975123e-07  1.5000091466285093e-01 -1.6016890493366927e-06 2.7898526140640306e-06  1.4999966275632362e-01 3.3945240324537091e-07 -2.7396815065603629e-06  1.4999916060437948e-01 1.2903890882863310e-06 -1.7577366240669732e-06  1.5000086459522921e-01 -1.1779191031393443e-06 3.6858550639366459e-06  1.5000035230261433e-01 -5.4958996103609769e-07 -7.2540880652056540e-08  1.4999903303982023e-01 1.3686340623462662e-06 -3.2204734837646200e-06  1.5000019014013222e-01 -2.2038749981784958e-07 1.5935979894187317e-06  1.5000068809409997e-01 -1.0299364396609534e-06 1.7880460643997397e-06  1.4999949677112667e-01 6.9511725032908048e-07 -2.1159414448163428e-06  1.4999975021090431e-01 4.4185765590352134e-07 -2.2730362340847350e-07  1.5000049966002418e-01 -7.5202571353310671e-07 1.6392737837446940e-06  1.4999989870224825e-01 8.0592961287318807e-08 -7.4517510898404391e-07  1.4999971473955268e-01 4.9068195804622418e-07 -6.9472111876901311e-07  1.5000023504545046e-01 -3.3438954135771847e-07 9.0586817265026151e-07  1.5000004610710127e-01 -1.3952338373284731e-07 -9.2290508490742836e-08  1.4999981973219687e-01 3.0843763109088897e-07 -5.2668682296925189e-07  1.5000008534987566e-01 -9.9817677934276276e-08 3.9637560904285369e-07  1.5000005680986903e-01 -1.3616472845037834e-07 6.7971198758573231e-08  1.4999990948841610e-01 1.5354395597543900e-07 -2.9045705634015539e-07  1.5000002779887978e-01 -1.8503921248465640e-08 1.6055092801483070e-07  1.5000003436217582e-01 -8.1904545249964024e-08 6.0203514728084095e-08  1.4999995908391855e-01 6.8803387808427566e-08 -1.3958486603253629e-07  1.5000000983430883e-01 7.3333361115146182e-10 6.9208980849291191e-08  1.5000001664101351e-01 -4.3802088642132156e-08 2.8608386486772779e-08  1.4999998081772317e-01 3.5753916315271463e-08 -6.3572806177169918e-08  1.5000000662003884e-01 -5.0725100888221259e-09 3.6372381595030483e-08  1.5000000459697502e-01 -1.4360889419439743e-08 4.7590858873087224e-09  1.4999999312795803e-01 1.2754360068462343e-08 -2.3754033151056824e-08  1.5000000274529685e-01 -4.4086056540215950e-10 1.7450333640315831e-