<?xml version="1.0"?>
<VTKFile type="UnstructuredGrid"  version="0.1"  >
<UnstructuredGrid>
<Piece  NumberOfPoints="10201" NumberOfCells="20000">
<Points>
<DataArray  type="Float64"  NumberOfComponents="3"  format="ascii">-5 -5 0  -4.9 -5 0  -4.8 -5 0  -4.7 -5 0  -4.6 -5 0  -4.5 -5 0  -4.4 -5 0  -4.3 -5 0  -4.2 -5 0  -4.1 -5 0  -4 -5 0  -3.9 -5 0  -3.8 -5 0  -3.7 -5 0  -3.6 -5 0  -3.5 -5 0  -3.4 -5 0  -3.3 -5 0  -3.2 -5 0  -3.1 -5 0  -3 -5 0  -2.9 -5 0  -2.8 -5 0  -2.7 -5 0  -2.6 -5 0  -2.5 -5 0  -2.4 -5 0  -2.3 -5 0  -2.2 -5 0  -2.1 -5 0  -2 -5 0  -1.9 -5 0  -1.8 -5 0  -1.7 -5 0  -1.6 -5 0  -1.5 -5 0  -1.4 -5 0  -1.3 -5 0  -1.2 -5 0  -1.1 -5 0  -1 -5 0  -0.9000000000000004 -5 0  -0.7999999999999998 -5 0  -0.7000000000000002 -5 0  -0.5999999999999996 -5 0  -0.5 -5 0  -0.4000000000000004 -5 0  -0.2999999999999998 -5 0  -0.2000000000000002 -5 0  -0.09999999999999964 -5 0  0 -5 0  0.09999999999999964 -5 0  0.2000000000000002 -5 0  0.2999999999999998 -5 0  0.4000000000000004 -5 0  0.5 -5 0  0.5999999999999996 -5 0  0.7000000000000002 -5 0  0.7999999999999998 -5 0  0.9000000000000004 -5 0  1 -5 0  1.1 -5 0  1.2 -5 0  1.3 -5 0  1.4 -5 0  1.5 -5 0  1.6 -5 0  1.7 -5 0  1.8 -5 0  1.9 -5 0  2 -5 0  2.1 -5 0  2.2 -5 0  2.3 -5 0  2.4 -5 0  2.5 -5 0  2.6 -5 0  2.7 -5 0  2.8 -5 0  2.9 -5 0  3 -5 0  3.1 -5 0  3.199999999999999 -5 0  3.300000000000001 -5 0  3.4 -5 0  3.5 -5 0  3.6 -5 0  3.699999999999999 -5 0  3.800000000000001 -5 0  3.9 -5 0  4 -5 0  4.1 -5 0  4.199999999999999 -5 0  4.300000000000001 -5 0  4.4 -5 0  4.5 -5 0  4.6 -5 0  4.699999999999999 -5 0  4.800000000000001 -5 0  4.9 -5 0  5 -5 0  -5 -4.9 0  -4.9 -4.9 0  -4.8 -4.9 0  -4.7 -4.9 0  -4.6 -4.9 0  -4.5 -4.9 0  -4.4 -4.9 0  -4.3 -4.9 0  -4.2 -4.9 0  -4.1 -4.9 0  -4 -4.9 0  -3.9 -4.9 0  -3.8 -4.9 0  -3.7 -4.9 0  -3.6 -4.9 0  -3.5 -4.9 0  -3.4 -4.9 0  -3.3 -4.9 0  -3.2 -4.9 0  -3.1 -4.9 0  -3 -4.9 0  -2.9 -4.9 0  -2.8 -4.9 0  -2.7 -4.9 0  -2.6 -4.9 0  -2.5 -4.9 0  -2.4 -4.9 0  -2.3 -4.9 0  -2.2 -4.9 0  -2.1 -4.9 0  -2 -4.9 0  -1.9 -4.9 0  -1.8 -4.9 0  -1.7 -4.9 0  -1.6 -4.9 0  -1.5 -4.9 0  -1.4 -4.9 0  -1.3 -4.9 0  -1.2 -4.9 0  -1.1 -4.9 0  -1 -4.9 0  -0.9000000000000004 -4.9 0  -0.7999999999999998 -4.9 0  -0.7000000000000002 -4.9 0  -0.5999999999999996 -4.9 0  -0.5 -4.9 0  -0.4000000000000004 -4.9 0  -0.2999999999999998 -4.9 0  -0.2000000000000002 -4.9 0  -0.09999999999999964 -4.9 0  0 -4.9 0  0.09999999999999964 -4.9 0  0.2000000000000002 -4.9 0  0.2999999999999998 -4.9 0  0.4000000000000004 -4.9 0  0.5 -4.9 0  0.5999999999999996 -4.9 0  0.7000000000000002 -4.9 0  0.7999999999999998 -4.9 0  0.9000000000000004 -4.9 0  1 -4.9 0  1.1 -4.9 0  1.2 -4.9 0  1.3 -4.9 0  1.4 -4.9 0  1.5 -4.9 0  1.6 -4.9 0  1.7 -4.9 0  1.8 -4.9 0  1.9 -4.9 0  2 -4.9 0  2.1 -4.9 0  2.2 -4.9 0  2.3 -4.9 0  2.4 -4.9 0  2.5 -4.9 0  2.6 -4.9 0  2.7 -4.9 0  2.8 -4.9 0  2.9 -4.9 0  3 -4.9 0  3.1 -4.9 0  3.199999999999999 -4.9 0  3.300000000000001 -4.9 0  3.4 -4.9 0  3.5 -4.9 0  3.6 -4.9 0  3.699999999999999 -4.9 0  3.800000000000001 -4.9 0  3.9 -4.9 0  4 -4.9 0  4.1 -4.9 0  4.199999999999999 -4.9 0  4.300000000000001 -4.9 0  4.4 -4.9 0  4.5 -4.9 0  4.6 -4.9 0  4.699999999999999 -4.9 0  4.800000000000001 -4.9 0  4.9 -4.9 0  5 -4.9 0  -5 -4.8 0  -4.9 -4.8 0  -4.8 -4.8 0  -4.7 -4.8 0  -4.6 -4.8 0  -4.5 -4.8 0  -4.4 -4.8 0  -4.3 -4.8 0  -4.2 -4.8 0  -4.1 -4.8 0  -4 -4.8 0  -3.9 -4.8 0  -3.8 -4.8 0  -3.7 -4.8 0  -3.6 -4.8 0  -3.5 -4.8 0  -3.4 -4.8 0  -3.3 -4.8 0  -3.2 -4.8 0  -3.1 -4.8 0  -3 -4.8 0  -2.9 -4.8 0  -2.8 -4.8 0  -2.7 -4.8 0  -2.6 -4.8 0  -2.5 -4.8 0  -2.4 -4.8 0  -2.3 -4.8 0  -2.2 -4.8 0  -2.1 -4.8 0  -2 -4.8 0  -1.9 -4.8 0  -1.8 -4.8 0  -1.7 -4.8 0  -1.6 -4.8 0  -1.5 -4.8 0  -1.4 -4.8 0  -1.3 -4.8 0  -1.2 -4.8 0  -1.1 -4.8 0  -1 -4.8 0  -0.9000000000000004 -4.8 0  -0.7999999999999998 -4.8 0  -0.7000000000000002 -4.8 0  -0.5999999999999996 -4.8 0  -0.5 -4.8 0  -0.4000000000000004 -4.8 0  -0.2999999999999998 -4.8 0  -0.2000000000000002 -4.8 0  -0.09999999999999964 -4.8 0  0 -4.8 0  0.09999999999999964 -4.8 0  0.2000000000000002 -4.8 0  0.2999999999999998 -4.8 0  0.4000000000000004 -4.8 0  0.5 -4.8 0  0.5999999999999996 -4.8 0  0.7000000000000002 -4.8 0  0.7999999999999998 -4.8 0  0.9000000000000004 -4.8 0  1 -4.8 0  1.1 -4.8 0  1.2 -4.8 0  1.3 -4.8 0  1.4 -4.8 0  1.5 -4.8 0  1.6 -4.8 0  1.7 -4.8 0  1.8 -4.8 0  1.9 -4.8 0  2 -4.8 0  2.1 -4.8 0  2.2 -4.8 0  2.3 -4.8 0  2.4 -4.8 0  2.5 -4.8 0  2.6 -4.8 0  2.7 -4.8 0  2.8 -4.8 0  2.9 -4.8 0  3 -4.8 0  3.1 -4.8 0  3.199999999999999 -4.8 0  3.300000000000001 -4.8 0  3.4 -4.8 0  3.5 -4.8 0  3.6 -4.8 0  3.699999999999999 -4.8 0  3.800000000000001 -4.8 0  3.9 -4.8 0  4 -4.8 0  4.1 -4.8 0  4.199999999999999 -4.8 0  4.300000000000001 -4.8 0  4.4 -4.8 0  4.5 -4.8 0  4.6 -4.8 0  4.699999999999999 -4.8 0  4.800000000000001 -4.8 0  4.9 -4.8 0  5 -4.8 0  -5 -4.7 0  -4.9 -4.7 0  -4.8 -4.7 0  -4.7 -4.7 0  -4.6 -4.7 0  -4.5 -4.7 0  -4.4 -4.7 0  -4.3 -4.7 0  -4.2 -4.7 0  -4.1 -4.7 0  -4 -4.7 0  -3.9 -4.7 0  -3.8 -4.7 0  -3.7 -4.7 0  -3.6 -4.7 0  -3.5 -4.7 0  -3.4 -4.7 0  -3.3 -4.7 0  -3.2 -4.7 0  -3.1 -4.7 0  -3 -4.7 0  -2.9 -4.7 0  -2.8 -4.7 0  -2.7 -4.7 0  -2.6 -4.7 0  -2.5 -4.7 0  -2.4 -4.7 0  -2.3 -4.7 0  -2.2 -4.7 0  -2.1 -4.7 0  -2 -4.7 0  -1.9 -4.7 0  -1.8 -4.7 0  -1.7 -4.7 0  -1.6 -4.7 0  -1.5 -4.7 0  -1.4 -4.7 0  -1.3 -4.7 0  -1.2 -4.7 0  -1.1 -4.7 0  -1 -4.7 0  -0.9000000000000004 -4.7 0  -0.7999999999999998 -4.7 0  -0.7000000000000002 -4.7 0  -0.5999999999999996 -4.7 0  -0.5 -4.7 0  -0.4000000000000004 -4.7 0  -0.2999999999999998 -4.7 0  -0.2000000000000002 -4.7 0  -0.09999999999999964 -4.7 0  0 -4.7 0  0.09999999999999964 -4.7 0  0.2000000000000002 -4.7 0  0.2999999999999998 -4.7 0  0.4000000000000004 -4.7 0  0.5 -4.7 0  0.5999999999999996 -4.7 0  0.7000000000000002 -4.7 0  0.7999999999999998 -4.7 0  0.9000000000000004 -4.7 0  1 -4.7 0  1.1 -4.7 0  1.2 -4.7 0  1.3 -4.7 0  1.4 -4.7 0  1.5 -4.7 0  1.6 -4.7 0  1.7 -4.7 0  1.8 -4.7 0  1.9 -4.7 0  2 -4.7 0  2.1 -4.7 0  2.2 -4.7 0  2.3 -4.7 0  2.4 -4.7 0  2.5 -4.7 0  2.6 -4.7 0  2.7 -4.7 0  2.8 -4.7 0  2.9 -4.7 0  3 -4.7 0  3.1 -4.7 0  3.199999999999999 -4.7 0  3.300000000000001 -4.7 0  3.4 -4.7 0  3.5 -4.7 0  3.6 -4.7 0  3.699999999999999 -4.7 0  3.800000000000001 -4.7 0  3.9 -4.7 0  4 -4.7 0  4.1 -4.7 0  4.199999999999999 -4.7 0  4.300000000000001 -4.7 0  4.4 -4.7 0  4.5 -4.7 0  4.6 -4.7 0  4.699999999999999 -4.7 0  4.800000000000001 -4.7 0  4.9 -4.7 0  5 -4.7 0  -5 -4.6 0  -4.9 -4.6 0  -4.8 -4.6 0  -4.7 -4.6 0  -4.6 -4.6 0  -4.5 -4.6 0  -4.4 -4.6 0  -4.3 -4.6 0  -4.2 -4.6 0  -4.1 -4.6 0  -4 -4.6 0  -3.9 -4.6 0  -3.8 -4.6 0  -3.7 -4.6 0  -3.6 -4.6 0  -3.5 -4.6 0  -3.4 -4.6 0  -3.3 -4.6 0  -3.2 -4.6 0  -3.1 -4.6 0  -3 -4.6 0  -2.9 -4.6 0  -2.8 -4.6 0  -2.7 -4.6 0  -2.6 -4.6 0  -2.5 -4.6 0  -2.4 -4.6 0  -2.3 -4.6 0  -2.2 -4.6 0  -2.1 -4.6 0  -2 -4.6 0  -1.9 -4.6 0  -1.8 -4.6 0  -1.7 -4.6 0  -1.6 -4.6 0  -1.5 -4.6 0  -1.4 -4.6 0  -1.3 -4.6 0  -1.2 -4.6 0  -1.1 -4.6 0  -1 -4.6 0  -0.9000000000000004 -4.6 0  -0.7999999999999998 -4.6 0  -0.7000000000000002 -4.6 0  -0.5999999999999996 -4.6 0  -0.5 -4.6 0  -0.4000000000000004 -4.6 0  -0.2999999999999998 -4.6 0  -0.2000000000000002 -4.6 0  -0.09999999999999964 -4.6 0  0 -4.6 0  0.09999999999999964 -4.6 0  0.2000000000000002 -4.6 0  0.2999999999999998 -4.6 0  0.4000000000000004 -4.6 0  0.5 -4.6 0  0.5999999999999996 -4.6 0  0.7000000000000002 -4.6 0  0.7999999999999998 -4.6 0  0.9000000000000004 -4.6 0  1 -4.6 0  1.1 -4.6 0  1.2 -4.6 0  1.3 -4.6 0  1.4 -4.6 0  1.5 -4.6 0  1.6 -4.6 0  1.7 -4.6 0  1.8 -4.6 0  1.9 -4.6 0  2 -4.6 0  2.1 -4.6 0  2.2 -4.6 0  2.3 -4.6 0  2.4 -4.6 0  2.5 -4.6 0  2.6 -4.6 0  2.7 -4.6 0  2.8 -4.6 0  2.9 -4.6 0  3 -4.6 0  3.1 -4.6 0  3.199999999999999 -4.6 0  3.300000000000001 -4.6 0  3.4 -4.6 0  3.5 -4.6 0  3.6 -4.6 0  3.699999999999999 -4.6 0  3.800000000000001 -4.6 0  3.9 -4.6 0  4 -4.6 0  4.1 -4.6 0  4.199999999999999 -4.6 0  4.300000000000001 -4.6 0  4.4 -4.6 0  4.5 -4.6 0  4.6 -4.6 0  4.699999999999999 -4.6 0  4.800000000000001 -4.6 0  4.9 -4.6 0  5 -4.6 0  -5 -4.5 0  -4.9 -4.5 0  -4.8 -4.5 0  -4.7 -4.5 0  -4.6 -4.5 0  -4.5 -4.5 0  -4.4 -4.5 0  -4.3 -4.5 0  -4.2 -4.5 0  -4.1 -4.5 0  -4 -4.5 0  -3.9 -4.5 0  -3.8 -4.5 0  -3.7 -4.5 0  -3.6 -4.5 0  -3.5 -4.5 0  -3.4 -4.5 0  -3.3 -4.5 0  -3.2 -4.5 0  -3.1 -4.5 0  -3 -4.5 0  -2.9 -4.5 0  -2.8 -4.5 0  -2.7 -4.5 0  -2.6 -4.5 0  -2.5 -4.5 0  -2.4 -4.5 0  -2.3 -4.5 0  -2.2 -4.5 0  -2.1 -4.5 0  -2 -4.5 0  -1.9 -4.5 0  -1.8 -4.5 0  -1.7 -4.5 0  -1.6 -4.5 0  -1.5 -4.5 0  -1.4 -4.5 0  -1.3 -4.5 0  -1.2 -4.5 0  -1.1 -4.5 0  -1 -4.5 0  -0.9000000000000004 -4.5 0  -0.7999999999999998 -4.5 0  -0.7000000000000002 -4.5 0  -0.5999999999999996 -4.5 0  -0.5 -4.5 0  -0.4000000000000004 -4.5 0  -0.2999999999999998 -4.5 0  -0.2000000000000002 -4.5 0  -0.09999999999999964 -4.5 0  0 -4.5 0  0.09999999999999964 -4.5 0  0.2000000000000002 -4.5 0  0.2999999999999998 -4.5 0  0.4000000000000004 -4.5 0  0.5 -4.5 0  0.5999999999999996 -4.5 0  0.7000000000000002 -4.5 0  0.7999999999999998 -4.5 0  0.9000000000000004 -4.5 0  1 -4.5 0  1.1 -4.5 0  1.2 -4.5 0  1.3 -4.5 0  1.4 -4.5 0  1.5 -4.5 0  1.6 -4.5 0  1.7 -4.5 0  1.8 -4.5 0  1.9 -4.5 0  2 -4.5 0  2.1 -4.5 0  2.2 -4.5 0  2.3 -4.5 0  2.4 -4.5 0  2.5 -4.5 0  2.6 -4.5 0  2.7 -4.5 0  2.8 -4.5 0  2.9 -4.5 0  3 -4.5 0  3.1 -4.5 0  3.199999999999999 -4.5 0  3.300000000000001 -4.5 0  3.4 -4.5 0  3.5 -4.5 0  3.6 -4.5 0  3.699999999999999 -4.5 0  3.800000000000001 -4.5 0  3.9 -4.5 0  4 -4.5 0  4.1 -4.5 0  4.199999999999999 -4.5 0  4.300000000000001 -4.5 0  4.4 -4.5 0  4.5 -4.5 0  4.6 -4.5 0  4.699999999999999 -4.5 0  4.800000000000001 -4.5 0  4.9 -4.5 0  5 -4.5 0  -5 -4.4 0  -4.9 -4.4 0  -4.8 -4.4 0  -4.7 -4.4 0  -4.6 -4.4 0  -4.5 -4.4 0  -4.4 -4.4 0  -4.3 -4.4 0  -4.2 -4.4 0  -4.1 -4.4 0  -4 -4.4 0  -3.9 -4.4 0  -3.8 -4.4 0  -3.7 -4.4 0  -3.6 -4.4 0  -3.5 -4.4 0  -3.4 -4.4 0  -3.3 -4.4 0  -3.2 -4.4 0  -3.1 -4.4 0  -3 -4.4 0  -2.9 -4.4 0  -2.8 -4.4 0  -2.7 -4.4 0  -2.6 -4.4 0  -2.5 -4.4 0  -2.4 -4.4 0  -2.3 -4.4 0  -2.2 -4.4 0  -2.1 -4.4 0  -2 -4.4 0  -1.9 -4.4 0  -1.8 -4.
[...]
<PointData  Vectors="f_23"> 
<DataArray  type="Float64"  Name="f_23"  NumberOfComponents="3" format="ascii">1.4310113452102988e-01 0.0000000000000000e+00 0.0000000000000000e+00  1.5059393400853974e-01 1.6925931549723917e-05 0.0000000000000000e+00  1.4427092260339053e-01 1.8759525791048993e-06 0.0000000000000000e+00  1.4865128913506706e-01 1.9445060641907055e-05 0.0000000000000000e+00  1.4641615630624980e-01 9.0571692432756844e-06 0.0000000000000000e+00  1.4995238262178182e-01 5.3870990266208744e-06 0.0000000000000000e+00  1.4948716786020710e-01 1.7439738367652326e-05 0.0000000000000000e+00  1.5172235469884868e-01 1.0098233661451721e-07 0.0000000000000000e+00  1.5077147588645520e-01 1.0991284800967088e-05 0.0000000000000000e+00  1.5118301547235904e-01 8.9824701253017714e-08 0.0000000000000000e+00  1.4976802130992689e-01 1.2679102404304190e-06 0.0000000000000000e+00  1.4984456239688573e-01 5.9504637292215269e-07 0.0000000000000000e+00  1.4947969680512899e-01 3.3083090402634592e-08 0.0000000000000000e+00  1.5009460127277144e-01 3.7196620554471756e-09 0.0000000000000000e+00  1.5064000781140327e-01 1.1382658537204128e-07 0.0000000000000000e+00  1.5066738501803956e-01 1.5382336207094007e-07 0.0000000000000000e+00  1.5057655228873709e-01 2.1772854810533062e-07 0.0000000000000000e+00  1.4973173167437520e-01 4.0269858158796423e-07 0.0000000000000000e+00  1.4961945707301813e-01 1.9023180843998615e-06 0.0000000000000000e+00  1.4938038723106745e-01 3.6193711982252580e-07 0.0000000000000000e+00  1.5053995833970568e-01 2.5545399229743838e-07 0.0000000000000000e+00  1.5106006124324256e-01 3.8595632681063230e-07 0.0000000000000000e+00  1.5184387928852736e-01 1.4659404753920257e-07 0.0000000000000000e+00  1.5141327046182110e-01 1.1942647195239775e-07 0.0000000000000000e+00  1.5102391655227523e-01 3.3151315393067611e-07 0.0000000000000000e+00  1.5011080750310066e-01 2.3440197773152434e-07 0.0000000000000000e+00  1.5035826737821384e-01 5.0940474674432354e-07 0.0000000000000000e+00  1.5025646492060868e-01 1.8737599962111074e-10 0.0000000000000000e+00  1.5037497662758006e-01 1.7413149746505290e-08 0.0000000000000000e+00  1.5015180808503417e-01 9.3716749461189977e-10 0.0000000000000000e+00  1.4993487976476874e-01 2.0048314339048142e-07 0.0000000000000000e+00  1.4951775777940443e-01 6.9891158059854064e-09 0.0000000000000000e+00  1.5013382786718016e-01 9.8861157515251361e-08 0.0000000000000000e+00  1.5039141375538881e-01 1.0153201328433218e-07 0.0000000000000000e+00  1.4982646559224511e-01 8.0371980849296081e-08 0.0000000000000000e+00  1.4938230503494396e-01 1.0322039783597433e-08 0.0000000000000000e+00  1.4930674928557661e-01 2.4393291418875655e-07 0.0000000000000000e+00  1.4896079045176269e-01 2.6002901840768864e-08 0.0000000000000000e+00  1.4993319586803994e-01 2.0936146652071227e-07 0.0000000000000000e+00  1.5167813520429030e-01 4.7911340908564922e-09 0.0000000000000000e+00  1.5228460746882710e-01 4.1682194364051044e-07 0.0000000000000000e+00  1.5334689500466236e-01 5.1219430851753146e-08 0.0000000000000000e+00  1.5570055293539373e-01 4.8345299598923566e-07 0.0000000000000000e+00  1.5613045838511475e-01 1.3518866052363384e-06 0.0000000000000000e+00  1.5384904045976014e-01 5.6394742214889578e-07 0.0000000000000000e+00  1.5142933471734704e-01 5.6432065386941892e-08 0.0000000000000000e+00  1.4900604368825596e-01 3.1059941871632157e-07 0.0000000000000000e+00  1.4607672820800829e-01 1.6150921023627954e-06 0.0000000000000000e+00  1.4292913229744031e-01 4.5576042557578248e-08 0.0000000000000000e+00  1.3972538507877558e-01 7.2603356067087306e-07 0.0000000000000000e+00  1.3757344134187577e-01 3.8344369307569129e-09 0.0000000000000000e+00  1.3732296969115806e-01 5.0230646053680583e-07 0.0000000000000000e+00  1.3621593175594049e-01 2.4600076014990065e-07 0.0000000000000000e+00  1.3467355916895379e-01 3.8312772685061751e-07 0.0000000000000000e+00  1.3614541239759712e-01 3.2098480738952687e-07 0.0000000000000000e+00  1.3813407068446265e-01 1.0682719024623872e-07 0.0000000000000000e+00  1.3823724825917325e-01 3.8848872663496670e-07 0.0000000000000000e+00  1.4085452136865315e-01 2.5567122748812392e-08 0.0000000000000000e+00  1.4542671671019577e-01 4.0265401213001002e-09 0.0000000000000000e+00  1.4751292419820253e-01 1.5124136983678574e-06 0.0000000000000000e+00  1.5059172762425235e-01 1.1699912148126668e-06 0.0000000000000000e+00  1.5489745833594354e-01 2.8889644390349983e-07 0.0000000000000000e+00  1.5529769477903690e-01 1.0731658596202993e-06 0.0000000000000000e+00  1.5426030633590723e-01 6.0732245956747516e-07 0.0000000000000000e+00  1.5424820913260479e-01 3.0630032098046110e-07 0.0000000000000000e+00  1.5127637874111766e-01 1.6072532276090132e-08 0.0000000000000000e+00  1.4859291395675817e-01 4.8130630674767328e-08 0.0000000000000000e+00  1.4923345230145652e-01 1.5085103722025570e-07 0.0000000000000000e+00  1.4965628144327936e-01 4.5173188596967041e-08 0.0000000000000000e+00  1.4933926478359422e-01 2.4002738679132227e-07 0.0000000000000000e+00  1.5046294519201375e-01 5.4584958374121809e-08 0.0000000000000000e+00  1.5032994747979808e-01 2.4196791439106103e-08 0.0000000000000000e+00  1.4965592285185636e-01 5.7433831593231111e-08 0.0000000000000000e+00  1.5004522959404246e-01 4.9184298383044502e-11 0.0000000000000000e+00  1.5018562395364457e-01 3.5122678423234041e-08 0.0000000000000000e+00  1.4978775682699877e-01 3.1947827994403515e-08 0.0000000000000000e+00  1.5008037354958653e-01 2.0599337187802676e-09 0.0000000000000000e+00  1.5006462103703613e-01 6.1115429214806334e-09 0.0000000000000000e+00  1.4987658538452589e-01 1.3578362100267734e-08 0.0000000000000000e+00  1.5009083532865483e-01 6.2779513268051883e-09 0.0000000000000000e+00  1.4997478147579410e-01 7.7812830724435315e-10 0.0000000000000000e+00  1.4999113979570150e-01 3.2148782977314494e-10 0.0000000000000000e+00  1.4998710452981262e-01 3.6423006996596995e-09 0.0000000000000000e+00  1.5006552661630040e-01 1.4963989380375905e-08 0.0000000000000000e+00  1.4989000533200250e-01 2.6993220943645806e-08 0.0000000000000000e+00  1.5012077953154623e-01 2.8194208149479068e-08 0.0000000000000000e+00  1.4989012453305817e-01 2.2450286185814687e-08 0.0000000000000000e+00  1.5008684338840950e-01 1.5988070287790303e-08 0.0000000000000000e+00  1.4992105928386945e-01 1.3986773686984706e-08 0.0000000000000000e+00  1.5006218088472312e-01 1.1299910894992627e-08 0.0000000000000000e+00  1.4993128156601465e-01 1.1028611156603434e-08 0.0000000000000000e+00  1.5003968088071623e-01 5.3612223216219335e-09 0.0000000000000000e+00  1.4993815893557630e-01 4.7938939739227167e-09 0.0000000000000000e+00  1.5001210260900358e-01 2.2389842416830452e-10 0.0000000000000000e+00  1.4993552759920145e-01 6.9884671139124339e-10 0.0000000000000000e+00  1.4998409059301837e-01 1.8630306913398592e-09 0.0000000000000000e+00  1.4993540892912982e-01 3.2786599489583596e-10 0.0000000000000000e+00  1.4997005948257841e-01 6.0431078552591585e-09 0.0000000000000000e+00  1.4994941935941902e-01 1.8078005799379768e-09 0.0000000000000000e+00  1.4999300383593345e-01 1.7892442238180052e-09 0.0000000000000000e+00  1.4999225128101040e-01 0.0000000000000000e+00 0.0000000000000000e+00  1.5059393400854018e-01 0.0000000000000000e+00 1.6925931549727949e-05  1.5390898569690675e-01 5.3533214094374918e-07 5.3533214094472316e-07  1.5196825144685519e-01 5.0263612715734571e-06 1.3830270397302822e-06  1.5376111812688803e-01 2.7806434921470764e-09 8.9676211068022542e-08  1.5163762170295816e-01 2.9535746937240501e-06 9.1401320584876142e-07  1.5194619844809387e-01 1.4226674440033214e-06 1.4614455875726258e-06  1.4969568904947905e-01 7.3765273785645118e-08 3.8529607604737525e-06  1.4972688678565155e-01 5.0718933345011168e-06 2.1698372223438489e-06  1.4853327195179222e-01 1.2213231815037912e-06 1.6216886914180498e-06  1.4940377463165319e-01 2.5725396524315665e-06 2.6643823350804559e-07  1.4945496411413001e-01 7.7786358580402865e-08 2.4174198930322173e-09  1.5043129746414227e-01 7.8518319246686707e-08 6.9469102617730790e-08  1.5023951887419282e-01 9.8053932002753377e-08 1.2243864593386606e-07  1.5034421491533928e-01 4.8203396404048419e-08 8.3469512890653138e-09  1.4956844630169600e-01 2.8233287770628462e-08 8.8444096597807884e-12  1.4941651873932441e-01 1.5773873829077708e-07 4.4207845837225419e-12  1.4936975908094485e-01 8.0359996707058898e-09 2.0873183755891812e-08  1.4990791183957414e-01 2.3410132094043920e-07 2.4153164511900146e-07  1.5029093622775511e-01 1.1291215238636110e-06 1.5846231535960255e-07  1.5052867682609528e-01 7.0793126673585029e-07 1.5379249182820053e-07  1.4998638094828831e-01 3.4276357634936417e-07 5.0117311464908130e-08  1.4917567843764404e-01 1.4107255101761060e-08 1.3670096061968331e-07  1.4857867081765982e-01 1.6317985884728486e-07 4.2659591487130930e-07  1.4841138009567897e-01 1.2836173143437673e-07 6.1197198329014681e-08  1.4878829160508769e-01 3.4710524653371152e-08 2.2935075005085481e-08  1.4943968297589250e-01 2.1476047360363503e-07 4.5081772171286592e-08  1.4980353487018822e-01 3.5012500318487627e-07 3.4595541626970260e-10  1.4965194178913707e-01 1.8620583699385590e-07 8.0274652362957232e-11  1.4976820382309847e-01 1.7151378003463054e-09 3.0236319272487832e-08  1.4975041398438232e-01 1.1987557486387420e-08 2.8777784300205629e-13  1.4987414651199929e-01 7.1692340889269815e-08 1.5125949115963878e-10  1.5025992551343956e-01 2.3359506317685990e-08 1.0686279257790282e-07  1.5012673663157045e-01 6.7654804610177015e-08 5.8710380078508933e-08  1.4934449987958662e-01 6.9047147397648789e-08 9.7922426863943171e-09  1.4957349923942259e-01 8.8307919667353896e-08 5.5964288364725591e-09  1.5044626188131802e-01 1.4086816916477485e-07 1.2339668366700988e-07  1.5115400177548918e-01 1.0736929507958175e-08 9.7401097124513493e-07  1.5220757702174159e-01 2.9397262815138595e-07 2.1135665728776255e-06  1.5270977084576864e-01 6.2448622308157969e-08 4.1204539217732841e-06  1.5097012638043852e-01 8.2039495491934428e-08 5.4013802693003291e-06  1.4874190273104659e-01 8.3492344916062760e-07 1.8533144513474835e-06  1.4661586955378436e-01 5.0950212207946516e-07 1.0572578234081001e-06  1.4288122901811737e-01 6.3097040504324051e-08 1.9533322679038499e-05  1.3922695575126268e-01 1.9180057516327636e-06 8.8460574565657344e-05  1.3840797762310450e-01 4.7849621743403769e-06 2.3980627044252193e-04  1.3910359429031516e-01 4.5046124582691474e-06 4.0773126194608699e-04  1.4031303798170572e-01 4.1446047211261069e-06 4.9481810993950797e-04  1.4274769803585202e-01 6.7907045564825547e-06 4.9612029361379133e-04  1.4606968670029555e-01 5.0952517803079170e-06 4.0805423501534955e-04  1.4998643231035139e-01 7.1627516111041945e-07 2.6685134947195807e-04  1.5422312799797186e-01 1.4860807626995841e-07 1.3530405377943893e-04  1.5674573036257039e-01 5.8718923427147362e-07 4.4352872496127238e-05  1.5811331158362857e-01 1.1477350962762367e-07 9.4024681519475101e-06  1.6059280874126633e-01 2.7448147575200724e-07 3.6475533953838347e-06  1.6080017751368295e-01 7.4898447642142897e-08 2.8493252670809648e-06  1.5769480082502868e-01 4.2846529581361801e-09 1.0839133595266418e-05  1.5576195150262720e-01 5.2741976750580683e-07 6.5941843760286355e-05  1.5342770081934598e-01 2.4003655664693233e-06 1.8233371969856948e-04  1.4761402103473220e-01 2.1411121788661853e-06 3.2305808593727594e-04  1.4341827214931449e-01 5.4104722606279952e-06 5.1117727973450783e-04  1.4127033410684733e-01 1.0510725089154112e-05 6.0593672789690872e-04  1.3789436426184903e-01 6.8620622407978705e-06 4.8916145996322788e-04  1.3718120616794877e-01 3.7490831082917935e-06 2.9520243791803847e-04  1.4071796027266933e-01 2.7123561726395572e-06 1.0862116001815961e-04  1.4361671232491061e-01 6.3985939242725525e-09 7.1026464777114013e-06  1.4730745463400277e-01 1.3307836285429176e-06 4.1119623325775570e-06  1.5225534853391884e-01 3.2998038443584230e-07 9.7721629122671190e-06  1.5325671690964043e-01 1.6788454928091803e-07 7.7706112535389195e-06  1.5141089097921445e-01 2.7045680250561164e-07 1.7935757783062180e-06  1.5075450115080713e-01 1.0723794372906713e-07 2.4545738068838569e-08  1.4971256727293891e-01 9.1859437276637611e-08 4.4086458371895112e-08  1.4909540484536540e-01 8.9977987648922707e-08 7.8447215918828443e-09  1.5011812768052193e-01 3.8242529972069358e-09 5.8019181883413508e-08  1.5032508151061555e-01 4.3301839890801427e-08 2.0583295854606082e-10  1.4975148736658742e-01 3.9006485318157557e-08 2.0586032197946481e-08  1.5004799948623582e-01 2.9867043701918865e-10 2.1246799605331721e-09  1.5012823542613582e-01 2.6254452396604979e-08 2.3130932092182145e-11  1.4983859882208600e-01 2.2050369775110444e-08 1.6077313704467355e-11  1.5007384082309574e-01 2.3514316744120935e-09 3.0692391304274792e-12  1.5002331214532946e-01 8.4971852735763513e-10 4.9596358232847381e-12  1.4994916325404670e-01 7.0143710710970537e-10 8.3337602616456040e-12  1.5000869217028326e-01 1.3096212982507705e-09 9.1914271832853675e-11  1.5005106676003893e-01 9.3462886921698794e-09 3.6841026958798065e-10  1.4992215861911620e-01 1.1822824792984590e-08 5.1733197026443951e-10  1.5006339728102144e-01 5.6855123834846770e-09 1.8963085952661909e-10  1.4997009649290752e-01 9.1564342620254505e-10 6.6432328240342983e-12  1.5001018038321715e-01 5.0949185343161309e-11 3.4351330515268201e-10  1.4999635651366691e-01 2.5270297820786003e-11 4.9331442607014867e-10  1.5001106358614966e-01 1.8953322929074699e-10 3.2239478745088484e-10  1.5000026278241832e-01 1.8187057585004500e-11 1.1476243234068815e-11  1.4999825308499581e-01 4.8494427258965863e-11 3.3223173378255000e-12  1.5003234493762235e-01 1.6122890085323748e-09 1.0051758069927261e-10  1.4998425657973516e-01 1.5461525594336719e-09 7.8693881299952924e-13  1.5005469429805143e-01 4.8161232494248434e-09 5.5716058405182095e-11  1.4999257936320151e-01 1.3571895190077488e-09 1.7970561939678327e-12  1.5007582049601151e-01 5.4828753468026162e-09 6.8689343638358954e-10  1.4999762819955345e-01 5.8892120082144602e-10 8.0112846283777675e-10  1.5008916834168487e-01 3.5378963599327282e-09 2.5591333586331565e-09  1.4999612019566511e-01 1.3752900961643035e-10 3.0280082316292657e-09  1.5005886615867939e-01 6.4314349905964277e-10 6.4314349906574561e-10  1.4999300383593434e-01 0.0000000000000000e+00 1.7892442238051234e-09  1.4427092260339061e-01 0.0000000000000000e+00 1.8759525791047779e-06  1.5196825144685519e-01 1.3830270397302149e-06 5.0263612715721933e-06  1.4524242322641912e-01 4.5469091653467596e-08 4.5469091653564138e-08  1.4947664464887322e-01 8.0609369776714362e-06 2.6464823702027481e-06  1.4701857299647361e-01 1.4254623233417492e-06 4.0789057914715750e-06  1.4937770155686581e-01 3.9258210241691836e-06 4.2686568290978508e-07  1.4937530726361317e-01 4.8028572388533631e-06 1.4430785746401823e-05  1.5082107221224172e-01 1.5820012054072362e-10 4.2397173324987000e-06  1.5096288178383083e-01 5.4806370741984057e-06 1.1653889384205604e-05  1.5122098389265826e-01 4.2279865114348985e-07 1.3779199540998255e-06  1.5051718367276576e-01 1.2981669102528103e-06 1.4075913957121168e-06  1.5005415043622458e-01 3.4017464953241274e-09 2.6558944186495608e-07  1.4961439697121950e-01 2.2308611600501471e-09 5.8229633256958567e-08  1.4962082850429681e-01 5.7572666469519456e-10 4.4034048937788910e-07  1.5005407233785945e-01 7.3472340653501789e-09 3.6486530617380829e-09  1.5039498147685229e-01 2.5972131463377255e-07 4.5361964644292673e-09  1.5071290801341800e-01 3.4812031202279390e-11 5.4318123344960653e-09  1.5018383609179473e-01 2.4349134117503741e-09 2.3014610708618266e-07  1.4998858341665205e-01 9.0434957204792619e-07 7.7334782088136532e-07  1.4939363990352450e-01 6.3757104270725666e-07 5.8567683869664871e-07  1.4977685676553715e-01 6.2629920984750139e-07 2.0910267941929236e-07  1.5028550095663890e-01 1.2713480947915782e-08 1.7863708897786419e-07  1.5122332811620268e-01 3.9260776077739716e-08 6.0897218310309059e-07  1.5136544599887253e-01 2.7341166526164542e-07 9.1977311989254569e-07  1.5155358541841202e-01 1.2042228864270741e-09 2.0618533506579396e-07  1.5074109367847657e-01 5.4518563629330130e-08 7.7490701359749050e-09  1.5040635444489847e-01 4.1685081012666573e-07 1.3983223827924693e-07  1.5016745899070072e-01 2.6516502399331399e-07 5.0176182376723494e-10  1.5044060602182621e-01 1.2924564820580525e-07 3.0293762147073080e-08  1.5005194627702362e-01 5.1654415162396099e-08 2.5099785292854986e-07  1.5007206640992829e-01 1.2754015690024120e-08 1.0139818102240663e-07  1.4961542588198806e-01 1.2607685200204518e-07 5.2338133848937878e-09  1.4978294891867239e-01 1.9435222743559098e-09 6.2449858852547857e-07  1.5127984269224029e-01 1.1340257314075852e-07 7.2383787743267304e-07  1.5276490965564790e-01 2.6747147268731387e-07 1.7221041925660615e-06  1.5194496815394234e-01 1.2890656225901159e-06 4.2685955636673698e-06  1.4974084992905093e-01 9.6267287508042099e-07 2.3287022475336571e-06  1.4600099449797280e-01 5.4185843066524738e-09 2.2017143257911451e-06  1.4148147747026352e-01 1.5855347530560408e-06 4.8512965064237988e-05  1.3907956842503275e-01 6.1248321058491396e-06 2.1717051832086497e-04  1.3989604239649803e-01 1.7801210007676950e-05 4.2793828317168916e-04  1.4302500328147080e-01 2.2565754632954735e-05 3.9043367638795279e-04  1.5016898391765685e-01 1.0260059741589239e-05 1.0795332803271789e-04  1.6261407808381212e-01 1.6592901540890676e-12 5.7719360804997784e-05  1.7703403776048698e-01 1.8693109924364528e-05 1.2182994553780046e-03  1.9215675984559613e-01 6.7912551822183200e-05 4.6064544630078129e-03  2.0947541023921457e-01 1.2157146472525015e-04 1.0120205804593135e-02  2.2671613711346367e-01 1.9743909482310224e-04 1.7298176230816972e-02  2.4213587175379714e-01 2.4004214061130479e-04 2.5646968862998182e-02  2.5610815902955081e-01 2.0948108278953840e-04 3.3724143545517664e-02  2.6660061728480783e-01 1.6793087023119396e-04 4.1179431670616370e-02  2.7484000112608126e-01 1.1002403244806821e-04 4.7377720665056119e-02  2.8294896783147461e-01 5.3670642646014223e-05 5.1289129795505921e-02  2.8637325551163073e-01 1.2759320125589822e-05 5.4536900229792289e-02  2.8596393565714295e-01 1.4385888496414902e-06 5.6618977746361175e-02  2.8733239898902707e-01 2.6076276295337821e-05 5.5284371968039023e-02  2.8547760336677747e-01 6.9220215537869350e-05 5.2977768987790753e-02  2.7705489422767693e-01 1.6510506063478446e-04 4.9804366487227178e-02  2.6909900389897934e-01 2.3971881771478760e-04 4.2942221020353478e-02  2.5862197677958115e-01 2.5688270447365508e-04 3.4339172180118151e-02  2.4065250687287648e-01 2.7339634238777310e-04 2.5345592932242707e-02  2.2144464943318659e-01 2.1450429543830657e-04 1.5255175688329207e-02  2.0216500128769538e-01 9.1228490075939738e-05 6.7753937475804049e-03  1.7945328530937119e-01 2.3125867182432592e-05 1.7983585678326434e-03  1.6004461172996409e-01 9.5759452476408085e-08 3.6027386214361916e-05  1.4728702383400308e-01 2.4138127383670596e-05 3.5092022984834165e-04  1.3878121380300706e-01 3.0687721927197343e-05 6.2913245121163622e-04  1.3698401065842766e-01 1.0049402986723100e-05 3.3178069259973499e-04  1.4267675411375019e-01 1.2219547358717118e-06 4.7723022001470927e-05  1.4869535371739986e-01 7.3515927709038990e-07 4.5030694154916178e-06  1.5196216360157852e-01 2.0364015920638235e-06 1.4423296229402423e-05  1.5268175839510978e-01 4.2508224509751718e-08 1.5261050225881266e-06  1.5067895621476321e-01 1.2024809859600549e-07 5.6164309788583742e-09  1.4905721370031358e-01 3.0490205962483299e-08 1.4041743929392281e-09  1.4985753620823158e-01 1.1523578488974641e-09 1.1902467237028397e-07  1.5027413493591535e-01 4.9197211354926305e-08 4.5831486965384103e-09  1.4981707990857351e-01 4.3102846154153302e-08 1.9330038570876268e-08  1.5006230561245559e-01 1.4288236398480109e-09 1.0940932114998494e-09  1.5004430294380852e-01 2.3085390415047220e-09 1.3318629022478406e-10  1.4995900019921976e-01 2.4948595306809442e-12 4.6631381812169463e-11  1.4995245752729508e-01 1.0839983178482102e-08 1.0490125612202748e-10  1.5012755392302762e-01 3.1173464786681538e-08 5.3613158593173781e-10  1.4985683368