<?xml version="1.0"?>
<VTKFile type="UnstructuredGrid"  version="0.1"  >
<UnstructuredGrid>
<Piece  NumberOfPoints="10201" NumberOfCells="20000">
<Points>
<DataArray  type="Float64"  NumberOfComponents="3"  format="ascii">-5 -5 0  -4.9 -5 0  -4.8 -5 0  -4.7 -5 0  -4.6 -5 0  -4.5 -5 0  -4.4 -5 0  -4.3 -5 0  -4.2 -5 0  -4.1 -5 0  -4 -5 0  -3.9 -5 0  -3.8 -5 0  -3.7 -5 0  -3.6 -5 0  -3.5 -5 0  -3.4 -5 0  -3.3 -5 0  -3.2 -5 0  -3.1 -5 0  -3 -5 0  -2.9 -5 0  -2.8 -5 0  -2.7 -5 0  -2.6 -5 0  -2.5 -5 0  -2.4 -5 0  -2.3 -5 0  -2.2 -5 0  -2.1 -5 0  -2 -5 0  -1.9 -5 0  -1.8 -5 0  -1.7 -5 0  -1.6 -5 0  -1.5 -5 0  -1.4 -5 0  -1.3 -5 0  -1.2 -5 0  -1.1 -5 0  -1 -5 0  -0.9000000000000004 -5 0  -0.7999999999999998 -5 0  -0.7000000000000002 -5 0  -0.5999999999999996 -5 0  -0.5 -5 0  -0.4000000000000004 -5 0  -0.2999999999999998 -5 0  -0.2000000000000002 -5 0  -0.09999999999999964 -5 0  0 -5 0  0.09999999999999964 -5 0  0.2000000000000002 -5 0  0.2999999999999998 -5 0  0.4000000000000004 -5 0  0.5 -5 0  0.5999999999999996 -5 0  0.7000000000000002 -5 0  0.7999999999999998 -5 0  0.9000000000000004 -5 0  1 -5 0  1.1 -5 0  1.2 -5 0  1.3 -5 0  1.4 -5 0  1.5 -5 0  1.6 -5 0  1.7 -5 0  1.8 -5 0  1.9 -5 0  2 -5 0  2.1 -5 0  2.2 -5 0  2.3 -5 0  2.4 -5 0  2.5 -5 0  2.6 -5 0  2.7 -5 0  2.8 -5 0  2.9 -5 0  3 -5 0  3.1 -5 0  3.199999999999999 -5 0  3.300000000000001 -5 0  3.4 -5 0  3.5 -5 0  3.6 -5 0  3.699999999999999 -5 0  3.800000000000001 -5 0  3.9 -5 0  4 -5 0  4.1 -5 0  4.199999999999999 -5 0  4.300000000000001 -5 0  4.4 -5 0  4.5 -5 0  4.6 -5 0  4.699999999999999 -5 0  4.800000000000001 -5 0  4.9 -5 0  5 -5 0  -5 -4.9 0  -4.9 -4.9 0  -4.8 -4.9 0  -4.7 -4.9 0  -4.6 -4.9 0  -4.5 -4.9 0  -4.4 -4.9 0  -4.3 -4.9 0  -4.2 -4.9 0  -4.1 -4.9 0  -4 -4.9 0  -3.9 -4.9 0  -3.8 -4.9 0  -3.7 -4.9 0  -3.6 -4.9 0  -3.5 -4.9 0  -3.4 -4.9 0  -3.3 -4.9 0  -3.2 -4.9 0  -3.1 -4.9 0  -3 -4.9 0  -2.9 -4.9 0  -2.8 -4.9 0  -2.7 -4.9 0  -2.6 -4.9 0  -2.5 -4.9 0  -2.4 -4.9 0  -2.3 -4.9 0  -2.2 -4.9 0  -2.1 -4.9 0  -2 -4.9 0  -1.9 -4.9 0  -1.8 -4.9 0  -1.7 -4.9 0  -1.6 -4.9 0  -1.5 -4.9 0  -1.4 -4.9 0  -1.3 -4.9 0  -1.2 -4.9 0  -1.1 -4.9 0  -1 -4.9 0  -0.9000000000000004 -4.9 0  -0.7999999999999998 -4.9 0  -0.7000000000000002 -4.9 0  -0.5999999999999996 -4.9 0  -0.5 -4.9 0  -0.4000000000000004 -4.9 0  -0.2999999999999998 -4.9 0  -0.2000000000000002 -4.9 0  -0.09999999999999964 -4.9 0  0 -4.9 0  0.09999999999999964 -4.9 0  0.2000000000000002 -4.9 0  0.2999999999999998 -4.9 0  0.4000000000000004 -4.9 0  0.5 -4.9 0  0.5999999999999996 -4.9 0  0.7000000000000002 -4.9 0  0.7999999999999998 -4.9 0  0.9000000000000004 -4.9 0  1 -4.9 0  1.1 -4.9 0  1.2 -4.9 0  1.3 -4.9 0  1.4 -4.9 0  1.5 -4.9 0  1.6 -4.9 0  1.7 -4.9 0  1.8 -4.9 0  1.9 -4.9 0  2 -4.9 0  2.1 -4.9 0  2.2 -4.9 0  2.3 -4.9 0  2.4 -4.9 0  2.5 -4.9 0  2.6 -4.9 0  2.7 -4.9 0  2.8 -4.9 0  2.9 -4.9 0  3 -4.9 0  3.1 -4.9 0  3.199999999999999 -4.9 0  3.300000000000001 -4.9 0  3.4 -4.9 0  3.5 -4.9 0  3.6 -4.9 0  3.699999999999999 -4.9 0  3.800000000000001 -4.9 0  3.9 -4.9 0  4 -4.9 0  4.1 -4.9 0  4.199999999999999 -4.9 0  4.300000000000001 -4.9 0  4.4 -4.9 0  4.5 -4.9 0  4.6 -4.9 0  4.699999999999999 -4.9 0  4.800000000000001 -4.9 0  4.9 -4.9 0  5 -4.9 0  -5 -4.8 0  -4.9 -4.8 0  -4.8 -4.8 0  -4.7 -4.8 0  -4.6 -4.8 0  -4.5 -4.8 0  -4.4 -4.8 0  -4.3 -4.8 0  -4.2 -4.8 0  -4.1 -4.8 0  -4 -4.8 0  -3.9 -4.8 0  -3.8 -4.8 0  -3.7 -4.8 0  -3.6 -4.8 0  -3.5 -4.8 0  -3.4 -4.8 0  -3.3 -4.8 0  -3.2 -4.8 0  -3.1 -4.8 0  -3 -4.8 0  -2.9 -4.8 0  -2.8 -4.8 0  -2.7 -4.8 0  -2.6 -4.8 0  -2.5 -4.8 0  -2.4 -4.8 0  -2.3 -4.8 0  -2.2 -4.8 0  -2.1 -4.8 0  -2 -4.8 0  -1.9 -4.8 0  -1.8 -4.8 0  -1.7 -4.8 0  -1.6 -4.8 0  -1.5 -4.8 0  -1.4 -4.8 0  -1.3 -4.8 0  -1.2 -4.8 0  -1.1 -4.8 0  -1 -4.8 0  -0.9000000000000004 -4.8 0  -0.7999999999999998 -4.8 0  -0.7000000000000002 -4.8 0  -0.5999999999999996 -4.8 0  -0.5 -4.8 0  -0.4000000000000004 -4.8 0  -0.2999999999999998 -4.8 0  -0.2000000000000002 -4.8 0  -0.09999999999999964 -4.8 0  0 -4.8 0  0.09999999999999964 -4.8 0  0.2000000000000002 -4.8 0  0.2999999999999998 -4.8 0  0.4000000000000004 -4.8 0  0.5 -4.8 0  0.5999999999999996 -4.8 0  0.7000000000000002 -4.8 0  0.7999999999999998 -4.8 0  0.9000000000000004 -4.8 0  1 -4.8 0  1.1 -4.8 0  1.2 -4.8 0  1.3 -4.8 0  1.4 -4.8 0  1.5 -4.8 0  1.6 -4.8 0  1.7 -4.8 0  1.8 -4.8 0  1.9 -4.8 0  2 -4.8 0  2.1 -4.8 0  2.2 -4.8 0  2.3 -4.8 0  2.4 -4.8 0  2.5 -4.8 0  2.6 -4.8 0  2.7 -4.8 0  2.8 -4.8 0  2.9 -4.8 0  3 -4.8 0  3.1 -4.8 0  3.199999999999999 -4.8 0  3.300000000000001 -4.8 0  3.4 -4.8 0  3.5 -4.8 0  3.6 -4.8 0  3.699999999999999 -4.8 0  3.800000000000001 -4.8 0  3.9 -4.8 0  4 -4.8 0  4.1 -4.8 0  4.199999999999999 -4.8 0  4.300000000000001 -4.8 0  4.4 -4.8 0  4.5 -4.8 0  4.6 -4.8 0  4.699999999999999 -4.8 0  4.800000000000001 -4.8 0  4.9 -4.8 0  5 -4.8 0  -5 -4.7 0  -4.9 -4.7 0  -4.8 -4.7 0  -4.7 -4.7 0  -4.6 -4.7 0  -4.5 -4.7 0  -4.4 -4.7 0  -4.3 -4.7 0  -4.2 -4.7 0  -4.1 -4.7 0  -4 -4.7 0  -3.9 -4.7 0  -3.8 -4.7 0  -3.7 -4.7 0  -3.6 -4.7 0  -3.5 -4.7 0  -3.4 -4.7 0  -3.3 -4.7 0  -3.2 -4.7 0  -3.1 -4.7 0  -3 -4.7 0  -2.9 -4.7 0  -2.8 -4.7 0  -2.7 -4.7 0  -2.6 -4.7 0  -2.5 -4.7 0  -2.4 -4.7 0  -2.3 -4.7 0  -2.2 -4.7 0  -2.1 -4.7 0  -2 -4.7 0  -1.9 -4.7 0  -1.8 -4.7 0  -1.7 -4.7 0  -1.6 -4.7 0  -1.5 -4.7 0  -1.4 -4.7 0  -1.3 -4.7 0  -1.2 -4.7 0  -1.1 -4.7 0  -1 -4.7 0  -0.9000000000000004 -4.7 0  -0.7999999999999998 -4.7 0  -0.7000000000000002 -4.7 0  -0.5999999999999996 -4.7 0  -0.5 -4.7 0  -0.4000000000000004 -4.7 0  -0.2999999999999998 -4.7 0  -0.2000000000000002 -4.7 0  -0.09999999999999964 -4.7 0  0 -4.7 0  0.09999999999999964 -4.7 0  0.2000000000000002 -4.7 0  0.2999999999999998 -4.7 0  0.4000000000000004 -4.7 0  0.5 -4.7 0  0.5999999999999996 -4.7 0  0.7000000000000002 -4.7 0  0.7999999999999998 -4.7 0  0.9000000000000004 -4.7 0  1 -4.7 0  1.1 -4.7 0  1.2 -4.7 0  1.3 -4.7 0  1.4 -4.7 0  1.5 -4.7 0  1.6 -4.7 0  1.7 -4.7 0  1.8 -4.7 0  1.9 -4.7 0  2 -4.7 0  2.1 -4.7 0  2.2 -4.7 0  2.3 -4.7 0  2.4 -4.7 0  2.5 -4.7 0  2.6 -4.7 0  2.7 -4.7 0  2.8 -4.7 0  2.9 -4.7 0  3 -4.7 0  3.1 -4.7 0  3.199999999999999 -4.7 0  3.300000000000001 -4.7 0  3.4 -4.7 0  3.5 -4.7 0  3.6 -4.7 0  3.699999999999999 -4.7 0  3.800000000000001 -4.7 0  3.9 -4.7 0  4 -4.7 0  4.1 -4.7 0  4.199999999999999 -4.7 0  4.300000000000001 -4.7 0  4.4 -4.7 0  4.5 -4.7 0  4.6 -4.7 0  4.699999999999999 -4.7 0  4.800000000000001 -4.7 0  4.9 -4.7 0  5 -4.7 0  -5 -4.6 0  -4.9 -4.6 0  -4.8 -4.6 0  -4.7 -4.6 0  -4.6 -4.6 0  -4.5 -4.6 0  -4.4 -4.6 0  -4.3 -4.6 0  -4.2 -4.6 0  -4.1 -4.6 0  -4 -4.6 0  -3.9 -4.6 0  -3.8 -4.6 0  -3.7 -4.6 0  -3.6 -4.6 0  -3.5 -4.6 0  -3.4 -4.6 0  -3.3 -4.6 0  -3.2 -4.6 0  -3.1 -4.6 0  -3 -4.6 0  -2.9 -4.6 0  -2.8 -4.6 0  -2.7 -4.6 0  -2.6 -4.6 0  -2.5 -4.6 0  -2.4 -4.6 0  -2.3 -4.6 0  -2.2 -4.6 0  -2.1 -4.6 0  -2 -4.6 0  -1.9 -4.6 0  -1.8 -4.6 0  -1.7 -4.6 0  -1.6 -4.6 0  -1.5 -4.6 0  -1.4 -4.6 0  -1.3 -4.6 0  -1.2 -4.6 0  -1.1 -4.6 0  -1 -4.6 0  -0.9000000000000004 -4.6 0  -0.7999999999999998 -4.6 0  -0.7000000000000002 -4.6 0  -0.5999999999999996 -4.6 0  -0.5 -4.6 0  -0.4000000000000004 -4.6 0  -0.2999999999999998 -4.6 0  -0.2000000000000002 -4.6 0  -0.09999999999999964 -4.6 0  0 -4.6 0  0.09999999999999964 -4.6 0  0.2000000000000002 -4.6 0  0.2999999999999998 -4.6 0  0.4000000000000004 -4.6 0  0.5 -4.6 0  0.5999999999999996 -4.6 0  0.7000000000000002 -4.6 0  0.7999999999999998 -4.6 0  0.9000000000000004 -4.6 0  1 -4.6 0  1.1 -4.6 0  1.2 -4.6 0  1.3 -4.6 0  1.4 -4.6 0  1.5 -4.6 0  1.6 -4.6 0  1.7 -4.6 0  1.8 -4.6 0  1.9 -4.6 0  2 -4.6 0  2.1 -4.6 0  2.2 -4.6 0  2.3 -4.6 0  2.4 -4.6 0  2.5 -4.6 0  2.6 -4.6 0  2.7 -4.6 0  2.8 -4.6 0  2.9 -4.6 0  3 -4.6 0  3.1 -4.6 0  3.199999999999999 -4.6 0  3.300000000000001 -4.6 0  3.4 -4.6 0  3.5 -4.6 0  3.6 -4.6 0  3.699999999999999 -4.6 0  3.800000000000001 -4.6 0  3.9 -4.6 0  4 -4.6 0  4.1 -4.6 0  4.199999999999999 -4.6 0  4.300000000000001 -4.6 0  4.4 -4.6 0  4.5 -4.6 0  4.6 -4.6 0  4.699999999999999 -4.6 0  4.800000000000001 -4.6 0  4.9 -4.6 0  5 -4.6 0  -5 -4.5 0  -4.9 -4.5 0  -4.8 -4.5 0  -4.7 -4.5 0  -4.6 -4.5 0  -4.5 -4.5 0  -4.4 -4.5 0  -4.3 -4.5 0  -4.2 -4.5 0  -4.1 -4.5 0  -4 -4.5 0  -3.9 -4.5 0  -3.8 -4.5 0  -3.7 -4.5 0  -3.6 -4.5 0  -3.5 -4.5 0  -3.4 -4.5 0  -3.3 -4.5 0  -3.2 -4.5 0  -3.1 -4.5 0  -3 -4.5 0  -2.9 -4.5 0  -2.8 -4.5 0  -2.7 -4.5 0  -2.6 -4.5 0  -2.5 -4.5 0  -2.4 -4.5 0  -2.3 -4.5 0  -2.2 -4.5 0  -2.1 -4.5 0  -2 -4.5 0  -1.9 -4.5 0  -1.8 -4.5 0  -1.7 -4.5 0  -1.6 -4.5 0  -1.5 -4.5 0  -1.4 -4.5 0  -1.3 -4.5 0  -1.2 -4.5 0  -1.1 -4.5 0  -1 -4.5 0  -0.9000000000000004 -4.5 0  -0.7999999999999998 -4.5 0  -0.7000000000000002 -4.5 0  -0.5999999999999996 -4.5 0  -0.5 -4.5 0  -0.4000000000000004 -4.5 0  -0.2999999999999998 -4.5 0  -0.2000000000000002 -4.5 0  -0.09999999999999964 -4.5 0  0 -4.5 0  0.09999999999999964 -4.5 0  0.2000000000000002 -4.5 0  0.2999999999999998 -4.5 0  0.4000000000000004 -4.5 0  0.5 -4.5 0  0.5999999999999996 -4.5 0  0.7000000000000002 -4.5 0  0.7999999999999998 -4.5 0  0.9000000000000004 -4.5 0  1 -4.5 0  1.1 -4.5 0  1.2 -4.5 0  1.3 -4.5 0  1.4 -4.5 0  1.5 -4.5 0  1.6 -4.5 0  1.7 -4.5 0  1.8 -4.5 0  1.9 -4.5 0  2 -4.5 0  2.1 -4.5 0  2.2 -4.5 0  2.3 -4.5 0  2.4 -4.5 0  2.5 -4.5 0  2.6 -4.5 0  2.7 -4.5 0  2.8 -4.5 0  2.9 -4.5 0  3 -4.5 0  3.1 -4.5 0  3.199999999999999 -4.5 0  3.300000000000001 -4.5 0  3.4 -4.5 0  3.5 -4.5 0  3.6 -4.5 0  3.699999999999999 -4.5 0  3.800000000000001 -4.5 0  3.9 -4.5 0  4 -4.5 0  4.1 -4.5 0  4.199999999999999 -4.5 0  4.300000000000001 -4.5 0  4.4 -4.5 0  4.5 -4.5 0  4.6 -4.5 0  4.699999999999999 -4.5 0  4.800000000000001 -4.5 0  4.9 -4.5 0  5 -4.5 0  -5 -4.4 0  -4.9 -4.4 0  -4.8 -4.4 0  -4.7 -4.4 0  -4.6 -4.4 0  -4.5 -4.4 0  -4.4 -4.4 0  -4.3 -4.4 0  -4.2 -4.4 0  -4.1 -4.4 0  -4 -4.4 0  -3.9 -4.4 0  -3.8 -4.4 0  -3.7 -4.4 0  -3.6 -4.4 0  -3.5 -4.4 0  -3.4 -4.4 0  -3.3 -4.4 0  -3.2 -4.4 0  -3.1 -4.4 0  -3 -4.4 0  -2.9 -4.4 0  -2.8 -4.4 0  -2.7 -4.4 0  -2.6 -4.4 0  -2.5 -4.4 0  -2.4 -4.4 0  -2.3 -4.4 0  -2.2 -4.4 0  -2.1 -4.4 0  -2 -4.4 0  -1.9 -4.4 0  -1.8 -4.
[...]
<PointData  Vectors="f_23"> 
<DataArray  type="Float64"  Name="f_23"  NumberOfComponents="3" format="ascii">1.4308060483747964e-01 0.0000000000000000e+00 0.0000000000000000e+00  1.5378107426150192e-01 7.3574097341627898e-07 0.0000000000000000e+00  1.4837530280944586e-01 5.6675531869232062e-07 0.0000000000000000e+00  1.5643664305418398e-01 7.9453472909895888e-06 0.0000000000000000e+00  1.5478254592603741e-01 4.1094004625981960e-06 0.0000000000000000e+00  1.5684865168489576e-01 7.9589751356443063e-06 0.0000000000000000e+00  1.5617459856670751e-01 4.2815271079054856e-06 0.0000000000000000e+00  1.5335828523544615e-01 1.4487780632258690e-10 0.0000000000000000e+00  1.5255703864816364e-01 9.4474486648994731e-08 0.0000000000000000e+00  1.4925232766722743e-01 3.4838559544270955e-06 0.0000000000000000e+00  1.4969004620140181e-01 3.7766900871720998e-07 0.0000000000000000e+00  1.4890933274487467e-01 1.6397331763550917e-07 0.0000000000000000e+00  1.5029878294694757e-01 9.0785232000509741e-07 0.0000000000000000e+00  1.5009259448120482e-01 7.8962366891732812e-07 0.0000000000000000e+00  1.5018908201419412e-01 1.4148288113296367e-07 0.0000000000000000e+00  1.4912347885170105e-01 5.5866174609081568e-07 0.0000000000000000e+00  1.4839160743766419e-01 1.8243349114318589e-06 0.0000000000000000e+00  1.4842863385537450e-01 1.6118324809593502e-06 0.0000000000000000e+00  1.4941542452044188e-01 4.4486110967195993e-09 0.0000000000000000e+00  1.5086895706040473e-01 1.5507171055528162e-06 0.0000000000000000e+00  1.5220443990219212e-01 2.3419295192885464e-06 0.0000000000000000e+00  1.5202777645591903e-01 1.4033850974515878e-06 0.0000000000000000e+00  1.5136553662430524e-01 1.5975387351860543e-07 0.0000000000000000e+00  1.5019380106955477e-01 1.2882891359760222e-06 0.0000000000000000e+00  1.4994807732566728e-01 2.4518257030230881e-06 0.0000000000000000e+00  1.4966343159988654e-01 1.6608631839096919e-07 0.0000000000000000e+00  1.5076166399887916e-01 2.1734952174388493e-07 0.0000000000000000e+00  1.5057607443246823e-01 8.9466475122660718e-09 0.0000000000000000e+00  1.5002377044639079e-01 4.8361216020382374e-08 0.0000000000000000e+00  1.4970672546971059e-01 1.7495520459741408e-07 0.0000000000000000e+00  1.4998104889669608e-01 3.4265389045881339e-07 0.0000000000000000e+00  1.5022352070756642e-01 1.4151069650298366e-07 0.0000000000000000e+00  1.5276406634305456e-01 8.4410234095229745e-08 0.0000000000000000e+00  1.5473233441806775e-01 1.9507939473609460e-07 0.0000000000000000e+00  1.5367459258538826e-01 1.6762311336792598e-06 0.0000000000000000e+00  1.4959939789524149e-01 4.1149236882431583e-06 0.0000000000000000e+00  1.4261418812945281e-01 3.2931821015756693e-07 0.0000000000000000e+00  1.3318757930131520e-01 3.7053965536722416e-06 0.0000000000000000e+00  1.2710889190053384e-01 3.4081216714304686e-05 0.0000000000000000e+00  1.2814927367116397e-01 9.6790886127929578e-05 0.0000000000000000e+00  1.3674781532917549e-01 8.7232045149355603e-05 0.0000000000000000e+00  1.5584837674468702e-01 1.4355165211527851e-05 0.0000000000000000e+00  1.8561030910869980e-01 1.3763944551662515e-05 0.0000000000000000e+00  2.1932575548013986e-01 1.7135387186525429e-04 0.0000000000000000e+00  2.5713114831749156e-01 5.0194567619782089e-04 0.0000000000000000e+00  3.0263986702344531e-01 1.0051603600891876e-03 0.0000000000000000e+00  3.4647042769332276e-01 1.5423389203006576e-03 0.0000000000000000e+00  3.8235772827460696e-01 1.6256958169505765e-03 0.0000000000000000e+00  4.1654890043468862e-01 1.5477526204571053e-03 0.0000000000000000e+00  4.4643377512703730e-01 1.5115789287642853e-03 0.0000000000000000e+00  4.6839053532056624e-01 1.0990993503668840e-03 0.0000000000000000e+00  4.8603370360156251e-01 5.8616757537688878e-04 0.0000000000000000e+00  4.9603666085899295e-01 2.7840473294700935e-04 0.0000000000000000e+00  5.0067618027420091e-01 5.8326767852640029e-05 0.0000000000000000e+00  5.0789372434453706e-01 1.7754707053195719e-06 0.0000000000000000e+00  5.0497140244967620e-01 1.3072385797085199e-04 0.0000000000000000e+00  4.9255975926392626e-01 4.8717214750556095e-04 0.0000000000000000e+00  4.8551257044946033e-01 8.3365306659663148e-04 0.0000000000000000e+00  4.7049624472916013e-01 1.2128092248181474e-03 0.0000000000000000e+00  4.3922458095604028e-01 1.8284343668178759e-03 0.0000000000000000e+00  4.1018444176024915e-01 1.9215881441706200e-03 0.0000000000000000e+00  3.7553665782830531e-01 1.7057650964467095e-03 0.0000000000000000e+00  3.2612525861090902e-01 1.4768402102635053e-03 0.0000000000000000e+00  2.7860575426985956e-01 8.7546012977459938e-04 0.0000000000000000e+00  2.3480192861436450e-01 2.5603998519230193e-04 0.0000000000000000e+00  1.8875893232459773e-01 2.7359973235359155e-05 0.0000000000000000e+00  1.5496341206816641e-01 2.4704652577716903e-05 0.0000000000000000e+00  1.3668262318498189e-01 1.3002092281864759e-04 0.0000000000000000e+00  1.2787015445571423e-01 7.1478506065233294e-05 0.0000000000000000e+00  1.3151117212345240e-01 4.6781118839538922e-06 0.0000000000000000e+00  1.4498212625284509e-01 2.7088659602410110e-07 0.0000000000000000e+00  1.5351985777711044e-01 4.5438261115024870e-06 0.0000000000000000e+00  1.5414844614334133e-01 2.6033894061551411e-06 0.0000000000000000e+00  1.5210756636927181e-01 2.9128280616361110e-07 0.0000000000000000e+00  1.4929757310816136e-01 1.5996261904003327e-07 0.0000000000000000e+00  1.4889412435334526e-01 1.0688403400429882e-07 0.0000000000000000e+00  1.5026535685249306e-01 7.6093263846944657e-09 0.0000000000000000e+00  1.5040424070717417e-01 1.0926337779196966e-07 0.0000000000000000e+00  1.4955918477514546e-01 2.2395863585367795e-07 0.0000000000000000e+00  1.5022808566363857e-01 8.5653831723049958e-08 0.0000000000000000e+00  1.4994671061424386e-01 1.6427181423667302e-08 0.0000000000000000e+00  1.5006449266306393e-01 2.5462983392371442e-08 0.0000000000000000e+00  1.4979246514018979e-01 1.0061144971287608e-07 0.0000000000000000e+00  1.5031817276655007e-01 1.9191167143947137e-07 0.0000000000000000e+00  1.4967978835730489e-01 2.0017702603495106e-07 0.0000000000000000e+00  1.5023617005391346e-01 1.3616615712805573e-07 0.0000000000000000e+00  1.4981685616015777e-01 9.3019218581072110e-08 0.0000000000000000e+00  1.5016819505003187e-01 7.5432117101675278e-08 0.0000000000000000e+00  1.4977874842408373e-01 8.5617220470230482e-08 0.0000000000000000e+00  1.5019917375719052e-01 6.3153069091653447e-08 0.0000000000000000e+00  1.4980905806613040e-01 4.1529545076304095e-08 0.0000000000000000e+00  1.5005076697074216e-01 2.8838627260685180e-09 0.0000000000000000e+00  1.4994984160906111e-01 4.5739114767659364e-12 0.0000000000000000e+00  1.4992588890199229e-01 1.7681414696567663e-08 0.0000000000000000e+00  1.4997390884334838e-01 1.1275937494625541e-08 0.0000000000000000e+00  1.4993032509735543e-01 3.3322524933624061e-08 0.0000000000000000e+00  1.5000453344277054e-01 2.9013401066594642e-08 0.0000000000000000e+00  1.4991909362797698e-01 2.7765915991800931e-08 0.0000000000000000e+00  1.5017402682407693e-01 4.2855140471173724e-08 0.0000000000000000e+00  1.4989615831879341e-01 2.2278139990352655e-09 0.0000000000000000e+00  1.5031654032792721e-01 0.0000000000000000e+00 0.0000000000000000e+00  1.5378107426150092e-01 0.0000000000000000e+00 7.3574097341751607e-07  1.4938185873465379e-01 1.3977359016358599e-05 1.3977359016355563e-05  1.5040733547682097e-01 1.4601291146296989e-05 1.6796620033136668e-06  1.4593658456340797e-01 2.6922511015395443e-06 2.2220513183528344e-05  1.4667501043986422e-01 2.2720314839273385e-05 9.1431096073040446e-06  1.4287704396888437e-01 1.0161072760919831e-07 8.6572664573585820e-06  1.4550715814230658e-01 1.3020867820210694e-05 4.8842789300055857e-06  1.4442363015967466e-01 4.6816550617678048e-08 2.1263556839254057e-08  1.4825048512729783e-01 4.1928413206944801e-07 1.2834168898067641e-07  1.4843731368896484e-01 2.7222449676724990e-06 1.2386694230622773e-06  1.5102969601810395e-01 3.9267741494835925e-07 7.8576968726891639e-09  1.5029581464938416e-01 5.8149912168099760e-07 1.7551554497445157e-07  1.5057005619267952e-01 2.9888452503014775e-07 1.7074401264646253e-07  1.4972715025643044e-01 6.0139040289790817e-07 8.9298719273101025e-09  1.4993929906948247e-01 4.6668553531618835e-07 4.3939036559457473e-11  1.5039170194161616e-01 2.3740693065523605e-08 2.9866182408700701e-07  1.5114645642779551e-01 1.2090144152195315e-06 3.8756377660541214e-07  1.5164992127064073e-01 1.1859038477253870e-06 2.7432250896001044e-07  1.5086562683022661e-01 6.3048913172545079e-07 8.8246425462208920e-09  1.4998514179268996e-01 5.8021287826394784e-07 2.7247100623774484e-07  1.4849469820046901e-01 1.4855350904059092e-06 4.2422469683216345e-07  1.4806836931041334e-01 1.7179979250594303e-06 2.8059417158138124e-08  1.4847120933471802e-01 1.3077484993518495e-07 7.9553078778212013e-08  1.4926816777548305e-01 5.3823061043397782e-07 4.5871291468746893e-07  1.4991549099356091e-01 1.8653424517164244e-06 2.3845528521556261e-07  1.5030472785059745e-01 7.5417395660522070e-07 5.1312034708591521e-07  1.4976082027053261e-01 2.1090327576180943e-07 1.2676912180713659e-07  1.4886307393701798e-01 6.7908116571283845e-08 6.5088614203373270e-08  1.4928090561154692e-01 2.0287657992340511e-09 1.6636055717711160e-07  1.5037673530396131e-01 8.8373190259855739e-10 8.5618781417228979e-07  1.5130365475092145e-01 8.2125351954898188e-07 3.2070002459998189e-06  1.5200640568199592e-01 8.1383362798502240e-07 3.9346214736711659e-06  1.5006024904501186e-01 2.5656713408868017e-07 1.8915737464638074e-06  1.4478415047855936e-01 3.0939920281613281e-08 4.5837925532574172e-06  1.4080618703840014e-01 4.1960491312557503e-06 9.6234841920430562e-05  1.4007119030904588e-01 2.7976846924771299e-05 3.5294854411412990e-04  1.4384226287208582e-01 3.4839745436217368e-05 4.1673082308793454e-04  1.5534635113704076e-01 8.9074849887811651e-06 5.4443872699709177e-05  1.7453674979264891e-01 1.8860614043868438e-05 5.8060699484663921e-04  1.9755612457528249e-01 2.5862988761047635e-04 5.1077585475572959e-03  2.2380594920837810e-01 7.9224258557545647e-04 1.5873463875162353e-02  2.5030810322888364e-01 1.3809189447000140e-03 3.1883770094130841e-02  2.6955118762924196e-01 1.8751754183977676e-03 5.0718376101712877e-02  2.8350044433610766e-01 2.1168678869897834e-03 6.7618843262765710e-02  2.9576706676812775e-01 2.0369168748842472e-03 7.8813300255824267e-02  2.9777439306814651e-01 1.7336563325363566e-03 8.5389777539845751e-02  2.9122361275036635e-01 1.2227426014220317e-03 8.6750383477831858e-02  2.8838229312874264e-01 8.1846787065900412e-04 8.1292290180238841e-02  2.8381835000146965e-01 6.1766600666143562e-04 7.3537488403194684e-02  2.7446058572761250e-01 3.5055969937059195e-04 6.5604442345047725e-02  2.6866602495668235e-01 1.3756070093300899e-04 5.6551708393876729e-02  2.6321114811545521e-01 8.9379548105097088e-05 4.8836441804297630e-02  2.5793320906774142e-01 4.4612440159568501e-05 4.3189859472179078e-02  2.5794632114298693e-01 5.1454143543407445e-06 3.9050825796387890e-02  2.5374799450134344e-01 2.2088193746120739e-07 3.7784428334390961e-02  2.4965567210905087e-01 1.0727115593672996e-05 3.8331374737425337e-02  2.5599174765657762e-01 2.7452899200527210e-05 4.0025268629228984e-02  2.5812723125102022e-01 5.8992105938978022e-05 4.5608814475746093e-02  2.5631445100598776e-01 1.7292658366882565e-04 5.3730600559947030e-02  2.6731011432636864e-01 2.6671852726065619e-04 6.1950936331825246e-02  2.7806101244474218e-01 3.8797893799990413e-04 7.3216816504233478e-02  2.8222750840481603e-01 8.0412385416064815e-04 8.6380098962421645e-02  2.9560346129517950e-01 1.2470049564981408e-03 9.5192535179235996e-02  3.0881382904289334e-01 1.6611140347334041e-03 1.0045274805174573e-01  3.0931437866962053e-01 2.4735384331876788e-03 1.0051947408747496e-01  3.0701220477399621e-01 2.9062066418219169e-03 8.8413315055677136e-02  2.9588647527926076e-01 2.5861100448752723e-03 6.6584178076689385e-02  2.6492910734006853e-01 1.9487338075492293e-03 4.0514167782536831e-02  2.2663999078260200e-01 8.8215952707435235e-04 1.5922517552556543e-02  1.8992924817001974e-01 1.0649427076770349e-04 2.4254620010391607e-03  1.5690671549839108e-01 9.4339685617201910e-06 3.4331796309383227e-05  1.3868094823668153e-01 4.7866932431655859e-05 6.6943842546798589e-04  1.3872255606694717e-01 2.2846650524060100e-05 2.5293790780354784e-04  1.4568639927287269e-01 4.9787246587940008e-08 1.3423151381185827e-08  1.5140962530750496e-01 3.1154396172188524e-06 1.3956431273994441e-05  1.5249598998038214e-01 4.7629627315218455e-08 7.8499005053098718e-07  1.5020559650688012e-01 1.7292112024279403e-07 4.3317420226524221e-09  1.4905719649030710e-01 1.6570976869125215e-07 2.0767030542744283e-09  1.5032524937489880e-01 9.5156250564623284e-08 3.7091672475305749e-08  1.5006490658790067e-01 1.8070138827878785e-09 5.5836500384169334e-11  1.4988576201756515e-01 7.7180331535434788e-10 1.6044478503291342e-08  1.4996392062760180e-01 1.3186387799609449e-08 4.0325299432670587e-09  1.5020541553991665e-01 6.8014765091697165e-08 2.8702237148987743e-09  1.4975879159923403e-01 7.5117576537456376e-08 9.7532969757909779e-09  1.5015646563141383e-01 3.3066815818992952e-08 3.8437668871491864e-09  1.4995461975653618e-01 5.6903152584543703e-09 1.5837499263387443e-11  1.5002006924734901e-01 1.4600643436728785e-09 6.1801708056175120e-14  1.4995477783781630e-01 1.9256931796521130e-09 2.1654718970169685e-09  1.5010493835565994e-01 4.8575052124175326e-09 1.3642669711306240e-08  1.4992469229029826e-01 1.0454262502991044e-09 1.9625717658916941e-08  1.5005703641570275e-01 4.3951077966265876e-12 1.6543939070623850e-08  1.5004801014028291e-01 6.4986994505673972e-09 4.7997461413055163e-09  1.4998757768943499e-01 3.2978364991914992e-09 1.5705292327179908e-09  1.5008393332810596e-01 1.0014677041794009e-08 6.0036796745230788e-11  1.5002757287986809e-01 3.2590324813322565e-10 4.0061346422187989e-10  1.5006295918895310e-01 3.7465797046079267e-09 4.3786128440478809e-10  1.5001294176489691e-01 2.4618825789895981e-10 1.2607961457734822e-10  1.5006301845364539e-01 3.7684663525366548e-10 7.7762887161831576e-10  1.4992813347095399e-01 2.3844005070597288e-09 7.7956551376905196e-10  1.4999419194141411e-01 1.1782556609072950e-09 1.1782556609121179e-09  1.4989615831879372e-01 0.0000000000000000e+00 2.2278139990688114e-09  1.4837530280944622e-01 0.0000000000000000e+00 5.6675531869268961e-07  1.5040733547682114e-01 1.6796620033127780e-06 1.4601291146294715e-05  1.4878715430107364e-01 1.2503521107019678e-05 1.2503521107017994e-05  1.5303842100913262e-01 2.0372894050803847e-05 3.7407518703127267e-05  1.5368100519737726e-01 4.0064025825011637e-06 2.6761684076532423e-05  1.5411077047321564e-01 2.3469525664808545e-05 4.2850066600860418e-05  1.5679870351831340e-01 5.8726229275101587e-08 1.4557956280077671e-05  1.5321888443415979e-01 7.6736774640838371e-06 1.2488168606507328e-05  1.5497931326015657e-01 6.6401022932815852e-07 2.8923262868232544e-07  1.5035343124669984e-01 2.1293949816407530e-08 5.2799455302392137e-08  1.5144908713632663e-01 2.4953640341420288e-06 1.0414532481532597e-06  1.4857872494725455e-01 3.1609172311619696e-07 1.1625036340132088e-07  1.5034470608379871e-01 1.2920493496097677e-07 2.4546750581579973e-08  1.4948569772545556e-01 6.1480902850159815e-07 2.3206758847124029e-07  1.5053599124205994e-01 4.4195078992196705e-07 1.8148414495011035e-08  1.4973606619018009e-01 1.2901748502414977e-07 9.6736744479263218e-08  1.4937944554972710e-01 3.1571219954593046e-07 8.6109524231681510e-07  1.4865987639586686e-01 1.3537662571751397e-06 1.2474542280592706e-06  1.4874944867049356e-01 8.4456390851324148e-07 3.4161418446784683e-07  1.4958985549902956e-01 2.5675325741920901e-08 2.9793651779535582e-08  1.5066780859351683e-01 1.0238961979069577e-06 8.4828359324233229e-07  1.5153512997021773e-01 1.8696332606532303e-06 4.3192884447925809e-07  1.5173002737964725e-01 5.0977149472113676e-07 9.3960653639304049e-11  1.5076646663875040e-01 1.0760835097058413e-08 4.1423660507525708e-07  1.5042200644003592e-01 1.9735767025700540e-06 7.8980479616877097e-07  1.4922015770118793e-01 1.1034071728071767e-06 7.5508148265722084e-07  1.4966883937637818e-01 5.1842265819880976e-07 1.5738459121440036e-06  1.5152421473400612e-01 4.9459315789945459e-08 6.7620270111539737e-07  1.5327045875124018e-01 1.3578081003613081e-07 1.5750317309224187e-06  1.5185030189644011e-01 1.2484517335767732e-06 2.2058709714966753e-06  1.4795225972472639e-01 1.8906676045101902e-08 5.7621227687309122e-07  1.4223837912782145e-01 6.4614926426138059e-06 5.9882679828614417e-05  1.3886830144996759e-01 2.9079127324823106e-05 2.8071556685706830e-04  1.4318714464407517e-01 4.2568315101947996e-05 3.4878553562727723e-04  1.5758310664904440e-01 5.4829816463580073e-06 2.9201496879493566e-07  1.8062489591492048e-01 1.3150783250779941e-04 2.0956486435927579e-03  2.1432791065923865e-01 8.7687883681891016e-04 1.1581607604583882e-02  2.5311891722916019e-01 2.3005704955390196e-03 2.8717149838162384e-02  2.8544673034135309e-01 3.9866508683702468e-03 4.8969921447237434e-02  3.0713786801678422e-01 4.7458573244927339e-03 6.4072270864230757e-02  3.1549965894908022e-01 4.4096449789792561e-03 6.8210524964012906e-02  3.0585322282290445e-01 3.5809104451207884e-03 6.3336874528435422e-02  2.8789986601721085e-01 2.4020692713769814e-03 5.1167465139437630e-02  2.6819143028652098e-01 1.3178000213580853e-03 3.5305777728260046e-02  2.4011877574805887e-01 5.9770830921829536e-04 2.2674552657679644e-02  2.1334690647141377e-01 2.0468914240143331e-04 1.2752605733874567e-02  1.9883003038029490e-01 7.2263122125582565e-05 5.0276854428437283e-03  1.8208996006425338e-01 1.7970823665945940e-05 1.6804349065952305e-03  1.6308973357238196e-01 1.5720893236760541e-06 4.9214927695396681e-04  1.5511097775965788e-01 1.4808209515040670e-05 1.5652267690618152e-07  1.4845544834703547e-01 5.5943796524442286e-06 1.9502613178444371e-04  1.3989841311140669e-01 8.4258197958006611e-06 3.8601186620434790e-04  1.3723192080546517e-01 2.7212212928691798e-05 7.1224657023113340e-04  1.3205587854353779e-01 2.4054101180014298e-05 8.5929896012357015e-04  1.2896864622911797e-01 7.8369388759073891e-06 1.0545983263396867e-03  1.3316472310587177e-01 5.4963654140070148e-06 1.4960722622086181e-03  1.2932723765486312e-01 1.2902272777327066e-05 1.2615113234374568e-03  1.2607040380699172e-01 1.2732943320440142e-05 1.2430237846977874e-03  1.3536042174215332e-01 4.7286123674201595e-07 1.8204839362609814e-03  1.3705429047632528e-01 9.5153116795288644e-07 1.3523176205713979e-03  1.3602560355166507e-01 1.1300858471664832e-05 7.3595831946107087e-04  1.4962376598255009e-01 3.7220036366195387e-06 5.6720472044070186e-04  1.6141732475397905e-01 4.0375090494932908e-06 2.1814536829688821e-05  1.6959369249999640e-01 6.8501712028570816e-05 7.7989115273022040e-04  1.9380495657775584e-01 1.6056851210611564e-04 3.7154731653496029e-03  2.2266685265798836e-01 3.8704654201663936e-04 1.1978749035063309e-02  2.4911967196394713e-01 1.2285141479789878e-03 2.9427964293967889e-02  2.8595543065368290e-01 2.6660519665237981e-03 5.1896344905084435e-02  3.2129465888840653e-01 4.3964045792570959e-03 7.5340909484393370e-02  3.3311413770040949e-01 6.3672074140745253e-03 9.0213985238089697e-02  3.1907469043077158e-01 6.3604474122296011e-03 7.8391676148079861e-02  2.7631718981833708e-01 3.5394459206193113e-03 4.3300352306981281e-02  2.1291779701391378e-01 8.2482402570559373e-04 1.0579877399049727e-02  1.6122061503476234e-01 6.5809077329873093e-07 5.6385031038279541e-05  1.3916537470685361e-01 9.7287945849443343e-05 7.3928877979075286e-04  1.4041856794600835e-01 1.5282260690754391e-05 1.0544400769907388e-04  1.4908216399109725e-01 4.2416981889637492e-06 9.4519914673565940e-06  1.5301704024153595e-01 1.0567607665426159e-07 1.6464403635767011e-06  1.4997919248157227e-01 9.3660015014119111e-09 2.4000930355278032e-08  1.4949836649218759e-01 1.6373886274067051e-08 5.5016125607614733e-09  1.5000793701217435e-01 3.1828476309685924e-08 1.5844716716334711e-08  1.5036477076518279e-01 1.7914537998923930e-07 1.0063890047443991e-08  1.4951285199