<?xml version="1.0"?>
<VTKFile type="UnstructuredGrid"  version="0.1"  >
<UnstructuredGrid>
<Piece  NumberOfPoints="10201" NumberOfCells="20000">
<Points>
<DataArray  type="Float64"  NumberOfComponents="3"  format="ascii">-5 -5 0  -4.9 -5 0  -4.8 -5 0  -4.7 -5 0  -4.6 -5 0  -4.5 -5 0  -4.4 -5 0  -4.3 -5 0  -4.2 -5 0  -4.1 -5 0  -4 -5 0  -3.9 -5 0  -3.8 -5 0  -3.7 -5 0  -3.6 -5 0  -3.5 -5 0  -3.4 -5 0  -3.3 -5 0  -3.2 -5 0  -3.1 -5 0  -3 -5 0  -2.9 -5 0  -2.8 -5 0  -2.7 -5 0  -2.6 -5 0  -2.5 -5 0  -2.4 -5 0  -2.3 -5 0  -2.2 -5 0  -2.1 -5 0  -2 -5 0  -1.9 -5 0  -1.8 -5 0  -1.7 -5 0  -1.6 -5 0  -1.5 -5 0  -1.4 -5 0  -1.3 -5 0  -1.2 -5 0  -1.1 -5 0  -1 -5 0  -0.9000000000000004 -5 0  -0.7999999999999998 -5 0  -0.7000000000000002 -5 0  -0.5999999999999996 -5 0  -0.5 -5 0  -0.4000000000000004 -5 0  -0.2999999999999998 -5 0  -0.2000000000000002 -5 0  -0.09999999999999964 -5 0  0 -5 0  0.09999999999999964 -5 0  0.2000000000000002 -5 0  0.2999999999999998 -5 0  0.4000000000000004 -5 0  0.5 -5 0  0.5999999999999996 -5 0  0.7000000000000002 -5 0  0.7999999999999998 -5 0  0.9000000000000004 -5 0  1 -5 0  1.1 -5 0  1.2 -5 0  1.3 -5 0  1.4 -5 0  1.5 -5 0  1.6 -5 0  1.7 -5 0  1.8 -5 0  1.9 -5 0  2 -5 0  2.1 -5 0  2.2 -5 0  2.3 -5 0  2.4 -5 0  2.5 -5 0  2.6 -5 0  2.7 -5 0  2.8 -5 0  2.9 -5 0  3 -5 0  3.1 -5 0  3.199999999999999 -5 0  3.300000000000001 -5 0  3.4 -5 0  3.5 -5 0  3.6 -5 0  3.699999999999999 -5 0  3.800000000000001 -5 0  3.9 -5 0  4 -5 0  4.1 -5 0  4.199999999999999 -5 0  4.300000000000001 -5 0  4.4 -5 0  4.5 -5 0  4.6 -5 0  4.699999999999999 -5 0  4.800000000000001 -5 0  4.9 -5 0  5 -5 0  -5 -4.9 0  -4.9 -4.9 0  -4.8 -4.9 0  -4.7 -4.9 0  -4.6 -4.9 0  -4.5 -4.9 0  -4.4 -4.9 0  -4.3 -4.9 0  -4.2 -4.9 0  -4.1 -4.9 0  -4 -4.9 0  -3.9 -4.9 0  -3.8 -4.9 0  -3.7 -4.9 0  -3.6 -4.9 0  -3.5 -4.9 0  -3.4 -4.9 0  -3.3 -4.9 0  -3.2 -4.9 0  -3.1 -4.9 0  -3 -4.9 0  -2.9 -4.9 0  -2.8 -4.9 0  -2.7 -4.9 0  -2.6 -4.9 0  -2.5 -4.9 0  -2.4 -4.9 0  -2.3 -4.9 0  -2.2 -4.9 0  -2.1 -4.9 0  -2 -4.9 0  -1.9 -4.9 0  -1.8 -4.9 0  -1.7 -4.9 0  -1.6 -4.9 0  -1.5 -4.9 0  -1.4 -4.9 0  -1.3 -4.9 0  -1.2 -4.9 0  -1.1 -4.9 0  -1 -4.9 0  -0.9000000000000004 -4.9 0  -0.7999999999999998 -4.9 0  -0.7000000000000002 -4.9 0  -0.5999999999999996 -4.9 0  -0.5 -4.9 0  -0.4000000000000004 -4.9 0  -0.2999999999999998 -4.9 0  -0.2000000000000002 -4.9 0  -0.09999999999999964 -4.9 0  0 -4.9 0  0.09999999999999964 -4.9 0  0.2000000000000002 -4.9 0  0.2999999999999998 -4.9 0  0.4000000000000004 -4.9 0  0.5 -4.9 0  0.5999999999999996 -4.9 0  0.7000000000000002 -4.9 0  0.7999999999999998 -4.9 0  0.9000000000000004 -4.9 0  1 -4.9 0  1.1 -4.9 0  1.2 -4.9 0  1.3 -4.9 0  1.4 -4.9 0  1.5 -4.9 0  1.6 -4.9 0  1.7 -4.9 0  1.8 -4.9 0  1.9 -4.9 0  2 -4.9 0  2.1 -4.9 0  2.2 -4.9 0  2.3 -4.9 0  2.4 -4.9 0  2.5 -4.9 0  2.6 -4.9 0  2.7 -4.9 0  2.8 -4.9 0  2.9 -4.9 0  3 -4.9 0  3.1 -4.9 0  3.199999999999999 -4.9 0  3.300000000000001 -4.9 0  3.4 -4.9 0  3.5 -4.9 0  3.6 -4.9 0  3.699999999999999 -4.9 0  3.800000000000001 -4.9 0  3.9 -4.9 0  4 -4.9 0  4.1 -4.9 0  4.199999999999999 -4.9 0  4.300000000000001 -4.9 0  4.4 -4.9 0  4.5 -4.9 0  4.6 -4.9 0  4.699999999999999 -4.9 0  4.800000000000001 -4.9 0  4.9 -4.9 0  5 -4.9 0  -5 -4.8 0  -4.9 -4.8 0  -4.8 -4.8 0  -4.7 -4.8 0  -4.6 -4.8 0  -4.5 -4.8 0  -4.4 -4.8 0  -4.3 -4.8 0  -4.2 -4.8 0  -4.1 -4.8 0  -4 -4.8 0  -3.9 -4.8 0  -3.8 -4.8 0  -3.7 -4.8 0  -3.6 -4.8 0  -3.5 -4.8 0  -3.4 -4.8 0  -3.3 -4.8 0  -3.2 -4.8 0  -3.1 -4.8 0  -3 -4.8 0  -2.9 -4.8 0  -2.8 -4.8 0  -2.7 -4.8 0  -2.6 -4.8 0  -2.5 -4.8 0  -2.4 -4.8 0  -2.3 -4.8 0  -2.2 -4.8 0  -2.1 -4.8 0  -2 -4.8 0  -1.9 -4.8 0  -1.8 -4.8 0  -1.7 -4.8 0  -1.6 -4.8 0  -1.5 -4.8 0  -1.4 -4.8 0  -1.3 -4.8 0  -1.2 -4.8 0  -1.1 -4.8 0  -1 -4.8 0  -0.9000000000000004 -4.8 0  -0.7999999999999998 -4.8 0  -0.7000000000000002 -4.8 0  -0.5999999999999996 -4.8 0  -0.5 -4.8 0  -0.4000000000000004 -4.8 0  -0.2999999999999998 -4.8 0  -0.2000000000000002 -4.8 0  -0.09999999999999964 -4.8 0  0 -4.8 0  0.09999999999999964 -4.8 0  0.2000000000000002 -4.8 0  0.2999999999999998 -4.8 0  0.4000000000000004 -4.8 0  0.5 -4.8 0  0.5999999999999996 -4.8 0  0.7000000000000002 -4.8 0  0.7999999999999998 -4.8 0  0.9000000000000004 -4.8 0  1 -4.8 0  1.1 -4.8 0  1.2 -4.8 0  1.3 -4.8 0  1.4 -4.8 0  1.5 -4.8 0  1.6 -4.8 0  1.7 -4.8 0  1.8 -4.8 0  1.9 -4.8 0  2 -4.8 0  2.1 -4.8 0  2.2 -4.8 0  2.3 -4.8 0  2.4 -4.8 0  2.5 -4.8 0  2.6 -4.8 0  2.7 -4.8 0  2.8 -4.8 0  2.9 -4.8 0  3 -4.8 0  3.1 -4.8 0  3.199999999999999 -4.8 0  3.300000000000001 -4.8 0  3.4 -4.8 0  3.5 -4.8 0  3.6 -4.8 0  3.699999999999999 -4.8 0  3.800000000000001 -4.8 0  3.9 -4.8 0  4 -4.8 0  4.1 -4.8 0  4.199999999999999 -4.8 0  4.300000000000001 -4.8 0  4.4 -4.8 0  4.5 -4.8 0  4.6 -4.8 0  4.699999999999999 -4.8 0  4.800000000000001 -4.8 0  4.9 -4.8 0  5 -4.8 0  -5 -4.7 0  -4.9 -4.7 0  -4.8 -4.7 0  -4.7 -4.7 0  -4.6 -4.7 0  -4.5 -4.7 0  -4.4 -4.7 0  -4.3 -4.7 0  -4.2 -4.7 0  -4.1 -4.7 0  -4 -4.7 0  -3.9 -4.7 0  -3.8 -4.7 0  -3.7 -4.7 0  -3.6 -4.7 0  -3.5 -4.7 0  -3.4 -4.7 0  -3.3 -4.7 0  -3.2 -4.7 0  -3.1 -4.7 0  -3 -4.7 0  -2.9 -4.7 0  -2.8 -4.7 0  -2.7 -4.7 0  -2.6 -4.7 0  -2.5 -4.7 0  -2.4 -4.7 0  -2.3 -4.7 0  -2.2 -4.7 0  -2.1 -4.7 0  -2 -4.7 0  -1.9 -4.7 0  -1.8 -4.7 0  -1.7 -4.7 0  -1.6 -4.7 0  -1.5 -4.7 0  -1.4 -4.7 0  -1.3 -4.7 0  -1.2 -4.7 0  -1.1 -4.7 0  -1 -4.7 0  -0.9000000000000004 -4.7 0  -0.7999999999999998 -4.7 0  -0.7000000000000002 -4.7 0  -0.5999999999999996 -4.7 0  -0.5 -4.7 0  -0.4000000000000004 -4.7 0  -0.2999999999999998 -4.7 0  -0.2000000000000002 -4.7 0  -0.09999999999999964 -4.7 0  0 -4.7 0  0.09999999999999964 -4.7 0  0.2000000000000002 -4.7 0  0.2999999999999998 -4.7 0  0.4000000000000004 -4.7 0  0.5 -4.7 0  0.5999999999999996 -4.7 0  0.7000000000000002 -4.7 0  0.7999999999999998 -4.7 0  0.9000000000000004 -4.7 0  1 -4.7 0  1.1 -4.7 0  1.2 -4.7 0  1.3 -4.7 0  1.4 -4.7 0  1.5 -4.7 0  1.6 -4.7 0  1.7 -4.7 0  1.8 -4.7 0  1.9 -4.7 0  2 -4.7 0  2.1 -4.7 0  2.2 -4.7 0  2.3 -4.7 0  2.4 -4.7 0  2.5 -4.7 0  2.6 -4.7 0  2.7 -4.7 0  2.8 -4.7 0  2.9 -4.7 0  3 -4.7 0  3.1 -4.7 0  3.199999999999999 -4.7 0  3.300000000000001 -4.7 0  3.4 -4.7 0  3.5 -4.7 0  3.6 -4.7 0  3.699999999999999 -4.7 0  3.800000000000001 -4.7 0  3.9 -4.7 0  4 -4.7 0  4.1 -4.7 0  4.199999999999999 -4.7 0  4.300000000000001 -4.7 0  4.4 -4.7 0  4.5 -4.7 0  4.6 -4.7 0  4.699999999999999 -4.7 0  4.800000000000001 -4.7 0  4.9 -4.7 0  5 -4.7 0  -5 -4.6 0  -4.9 -4.6 0  -4.8 -4.6 0  -4.7 -4.6 0  -4.6 -4.6 0  -4.5 -4.6 0  -4.4 -4.6 0  -4.3 -4.6 0  -4.2 -4.6 0  -4.1 -4.6 0  -4 -4.6 0  -3.9 -4.6 0  -3.8 -4.6 0  -3.7 -4.6 0  -3.6 -4.6 0  -3.5 -4.6 0  -3.4 -4.6 0  -3.3 -4.6 0  -3.2 -4.6 0  -3.1 -4.6 0  -3 -4.6 0  -2.9 -4.6 0  -2.8 -4.6 0  -2.7 -4.6 0  -2.6 -4.6 0  -2.5 -4.6 0  -2.4 -4.6 0  -2.3 -4.6 0  -2.2 -4.6 0  -2.1 -4.6 0  -2 -4.6 0  -1.9 -4.6 0  -1.8 -4.6 0  -1.7 -4.6 0  -1.6 -4.6 0  -1.5 -4.6 0  -1.4 -4.6 0  -1.3 -4.6 0  -1.2 -4.6 0  -1.1 -4.6 0  -1 -4.6 0  -0.9000000000000004 -4.6 0  -0.7999999999999998 -4.6 0  -0.7000000000000002 -4.6 0  -0.5999999999999996 -4.6 0  -0.5 -4.6 0  -0.4000000000000004 -4.6 0  -0.2999999999999998 -4.6 0  -0.2000000000000002 -4.6 0  -0.09999999999999964 -4.6 0  0 -4.6 0  0.09999999999999964 -4.6 0  0.2000000000000002 -4.6 0  0.2999999999999998 -4.6 0  0.4000000000000004 -4.6 0  0.5 -4.6 0  0.5999999999999996 -4.6 0  0.7000000000000002 -4.6 0  0.7999999999999998 -4.6 0  0.9000000000000004 -4.6 0  1 -4.6 0  1.1 -4.6 0  1.2 -4.6 0  1.3 -4.6 0  1.4 -4.6 0  1.5 -4.6 0  1.6 -4.6 0  1.7 -4.6 0  1.8 -4.6 0  1.9 -4.6 0  2 -4.6 0  2.1 -4.6 0  2.2 -4.6 0  2.3 -4.6 0  2.4 -4.6 0  2.5 -4.6 0  2.6 -4.6 0  2.7 -4.6 0  2.8 -4.6 0  2.9 -4.6 0  3 -4.6 0  3.1 -4.6 0  3.199999999999999 -4.6 0  3.300000000000001 -4.6 0  3.4 -4.6 0  3.5 -4.6 0  3.6 -4.6 0  3.699999999999999 -4.6 0  3.800000000000001 -4.6 0  3.9 -4.6 0  4 -4.6 0  4.1 -4.6 0  4.199999999999999 -4.6 0  4.300000000000001 -4.6 0  4.4 -4.6 0  4.5 -4.6 0  4.6 -4.6 0  4.699999999999999 -4.6 0  4.800000000000001 -4.6 0  4.9 -4.6 0  5 -4.6 0  -5 -4.5 0  -4.9 -4.5 0  -4.8 -4.5 0  -4.7 -4.5 0  -4.6 -4.5 0  -4.5 -4.5 0  -4.4 -4.5 0  -4.3 -4.5 0  -4.2 -4.5 0  -4.1 -4.5 0  -4 -4.5 0  -3.9 -4.5 0  -3.8 -4.5 0  -3.7 -4.5 0  -3.6 -4.5 0  -3.5 -4.5 0  -3.4 -4.5 0  -3.3 -4.5 0  -3.2 -4.5 0  -3.1 -4.5 0  -3 -4.5 0  -2.9 -4.5 0  -2.8 -4.5 0  -2.7 -4.5 0  -2.6 -4.5 0  -2.5 -4.5 0  -2.4 -4.5 0  -2.3 -4.5 0  -2.2 -4.5 0  -2.1 -4.5 0  -2 -4.5 0  -1.9 -4.5 0  -1.8 -4.5 0  -1.7 -4.5 0  -1.6 -4.5 0  -1.5 -4.5 0  -1.4 -4.5 0  -1.3 -4.5 0  -1.2 -4.5 0  -1.1 -4.5 0  -1 -4.5 0  -0.9000000000000004 -4.5 0  -0.7999999999999998 -4.5 0  -0.7000000000000002 -4.5 0  -0.5999999999999996 -4.5 0  -0.5 -4.5 0  -0.4000000000000004 -4.5 0  -0.2999999999999998 -4.5 0  -0.2000000000000002 -4.5 0  -0.09999999999999964 -4.5 0  0 -4.5 0  0.09999999999999964 -4.5 0  0.2000000000000002 -4.5 0  0.2999999999999998 -4.5 0  0.4000000000000004 -4.5 0  0.5 -4.5 0  0.5999999999999996 -4.5 0  0.7000000000000002 -4.5 0  0.7999999999999998 -4.5 0  0.9000000000000004 -4.5 0  1 -4.5 0  1.1 -4.5 0  1.2 -4.5 0  1.3 -4.5 0  1.4 -4.5 0  1.5 -4.5 0  1.6 -4.5 0  1.7 -4.5 0  1.8 -4.5 0  1.9 -4.5 0  2 -4.5 0  2.1 -4.5 0  2.2 -4.5 0  2.3 -4.5 0  2.4 -4.5 0  2.5 -4.5 0  2.6 -4.5 0  2.7 -4.5 0  2.8 -4.5 0  2.9 -4.5 0  3 -4.5 0  3.1 -4.5 0  3.199999999999999 -4.5 0  3.300000000000001 -4.5 0  3.4 -4.5 0  3.5 -4.5 0  3.6 -4.5 0  3.699999999999999 -4.5 0  3.800000000000001 -4.5 0  3.9 -4.5 0  4 -4.5 0  4.1 -4.5 0  4.199999999999999 -4.5 0  4.300000000000001 -4.5 0  4.4 -4.5 0  4.5 -4.5 0  4.6 -4.5 0  4.699999999999999 -4.5 0  4.800000000000001 -4.5 0  4.9 -4.5 0  5 -4.5 0  -5 -4.4 0  -4.9 -4.4 0  -4.8 -4.4 0  -4.7 -4.4 0  -4.6 -4.4 0  -4.5 -4.4 0  -4.4 -4.4 0  -4.3 -4.4 0  -4.2 -4.4 0  -4.1 -4.4 0  -4 -4.4 0  -3.9 -4.4 0  -3.8 -4.4 0  -3.7 -4.4 0  -3.6 -4.4 0  -3.5 -4.4 0  -3.4 -4.4 0  -3.3 -4.4 0  -3.2 -4.4 0  -3.1 -4.4 0  -3 -4.4 0  -2.9 -4.4 0  -2.8 -4.4 0  -2.7 -4.4 0  -2.6 -4.4 0  -2.5 -4.4 0  -2.4 -4.4 0  -2.3 -4.4 0  -2.2 -4.4 0  -2.1 -4.4 0  -2 -4.4 0  -1.9 -4.4 0  -1.8 -4.
[...]
<PointData  Vectors="f_17"> 
<DataArray  type="Float64"  Name="f_17"  NumberOfComponents="3" format="ascii">1.5000000000000008e-01 0.0000000000000000e+00 0.0000000000000000e+00  1.5000000000000008e-01 -3.8551104433207190e-16 0.0000000000000000e+00  1.5000000000000002e-01 2.6448803510968824e-16 0.0000000000000000e+00  1.5000000000000019e-01 -4.5796106998899219e-17 0.0000000000000000e+00  1.5000000000000005e-01 1.0650791309767342e-16 0.0000000000000000e+00  1.4999999999999999e-01 -2.5051511113354201e-16 0.0000000000000000e+00  1.4999999999999977e-01 2.1395308793366985e-17 0.0000000000000000e+00  1.5000000000000038e-01 7.0090645270860138e-16 0.0000000000000000e+00  1.5000000000000002e-01 5.5598419147216409e-17 0.0000000000000000e+00  1.5000000000000008e-01 4.2555236607460008e-17 0.0000000000000000e+00  1.5000000000000005e-01 -5.4653725484415767e-16 0.0000000000000000e+00  1.4999999999999999e-01 2.1482143949434652e-16 0.0000000000000000e+00  1.4999999999999988e-01 -1.6601200781284051e-16 0.0000000000000000e+00  1.5000000000000005e-01 -7.3677372076881524e-17 0.0000000000000000e+00  1.4999999999999997e-01 -6.7437083693834755e-17 0.0000000000000000e+00  1.4999999999999983e-01 1.5661590617979300e-16 0.0000000000000000e+00  1.5000000000000022e-01 3.2768059579976994e-17 0.0000000000000000e+00  1.4999999999999997e-01 1.7460938384082555e-16 0.0000000000000000e+00  1.5000000000000008e-01 -6.2887000768533271e-16 0.0000000000000000e+00  1.5000000000000033e-01 -8.4126704221986899e-16 0.0000000000000000e+00  1.5000000000000083e-01 2.6247400718409416e-16 0.0000000000000000e+00  1.5000000000000091e-01 1.1953646308110779e-15 0.0000000000000000e+00  1.4999999999999811e-01 3.6242018590113739e-15 0.0000000000000000e+00  1.4999999999999092e-01 5.8618093352870142e-15 0.0000000000000000e+00  1.4999999999998193e-01 4.4701984002826885e-15 0.0000000000000000e+00  1.4999999999997804e-01 5.9917408372384274e-16 0.0000000000000000e+00  1.4999999999998354e-01 -4.7296347917456792e-15 0.0000000000000000e+00  1.4999999999999472e-01 -6.7474983280347735e-15 0.0000000000000000e+00  1.5000000000000327e-01 -4.8815825321233764e-15 0.0000000000000000e+00  1.5000000000000410e-01 -6.9554405206206813e-16 0.0000000000000000e+00  1.5000000000000124e-01 1.5821425551766568e-15 0.0000000000000000e+00  1.4999999999999911e-01 1.4863907173414989e-15 0.0000000000000000e+00  1.4999999999999961e-01 -3.5265250640698161e-16 0.0000000000000000e+00  1.5000000000000030e-01 -7.7235295163945016e-16 0.0000000000000000e+00  1.4999999999999999e-01 5.1289024986131025e-17 0.0000000000000000e+00  1.4999999999999999e-01 2.5620364505027567e-16 0.0000000000000000e+00  1.5000000000000030e-01 5.1644311105706355e-16 0.0000000000000000e+00  1.5000000000000008e-01 -3.0543987163395173e-16 0.0000000000000000e+00  1.5000000000000005e-01 1.8294479838839459e-16 0.0000000000000000e+00  1.4999999999999997e-01 4.4149515148152325e-17 0.0000000000000000e+00  1.5000000000000005e-01 -5.9920147696003357e-16 0.0000000000000000e+00  1.5000000000000002e-01 1.5238106873854214e-16 0.0000000000000000e+00  1.5000000000000008e-01 7.5914482416312758e-17 0.0000000000000000e+00  1.4999999999999999e-01 5.2972134561093288e-19 0.0000000000000000e+00  1.4999999999999999e-01 -2.6935014561829533e-16 0.0000000000000000e+00  1.4999999999999999e-01 1.2931899995577434e-16 0.0000000000000000e+00  1.4999999999999997e-01 -1.0049128959259832e-16 0.0000000000000000e+00  1.5000000000000008e-01 -1.1410537440726415e-16 0.0000000000000000e+00  1.5000000000000016e-01 -2.1215167212228584e-17 0.0000000000000000e+00  1.4999999999999997e-01 1.4698729240863815e-17 0.0000000000000000e+00  1.5000000000000011e-01 -1.3794552927993676e-18 0.0000000000000000e+00  1.5000000000000002e-01 3.4221910246075927e-17 0.0000000000000000e+00  1.5000000000000008e-01 1.6585396339145850e-16 0.0000000000000000e+00  1.5000000000000011e-01 6.3918784826979949e-16 0.0000000000000000e+00  1.4999999999999991e-01 -3.2582452565487097e-16 0.0000000000000000e+00  1.5000000000000024e-01 -8.1832343363867045e-16 0.0000000000000000e+00  1.5000000000000011e-01 4.6536940502157802e-16 0.0000000000000000e+00  1.5000000000000016e-01 2.4284688483569636e-16 0.0000000000000000e+00  1.4999999999999986e-01 1.8128272718431508e-16 0.0000000000000000e+00  1.5000000000000008e-01 -2.8316053451708761e-16 0.0000000000000000e+00  1.5000000000000002e-01 3.2449111502553383e-17 0.0000000000000000e+00  1.5000000000000002e-01 -3.4650734788592497e-17 0.0000000000000000e+00  1.5000000000000005e-01 1.2425096422091648e-16 0.0000000000000000e+00  1.5000000000000002e-01 -8.8282352890410797e-17 0.0000000000000000e+00  1.5000000000000008e-01 -2.2744781522409722e-17 0.0000000000000000e+00  1.5000000000000008e-01 -5.1200241828627245e-16 0.0000000000000000e+00  1.5000000000000011e-01 -1.2780371022994008e-16 0.0000000000000000e+00  1.5000000000000016e-01 1.7971013082246770e-16 0.0000000000000000e+00  1.5000000000000016e-01 -7.8531148714729665e-17 0.0000000000000000e+00  1.4999999999999999e-01 4.2101346317977488e-17 0.0000000000000000e+00  1.4999999999999994e-01 3.8352403407798858e-16 0.0000000000000000e+00  1.5000000000000005e-01 -6.2825397952270491e-17 0.0000000000000000e+00  1.5000000000000005e-01 -6.6034944553298509e-17 0.0000000000000000e+00  1.4999999999999983e-01 8.7591066530263275e-17 0.0000000000000000e+00  1.5000000000000005e-01 2.6539986830938091e-16 0.0000000000000000e+00  1.5000000000000005e-01 3.9076009054893423e-16 0.0000000000000000e+00  1.4999999999999986e-01 -4.1668817082735989e-16 0.0000000000000000e+00  1.5000000000000011e-01 1.7975680859235921e-16 0.0000000000000000e+00  1.5000000000000005e-01 7.0666628162095784e-18 0.0000000000000000e+00  1.4999999999999994e-01 -9.7946131986419393e-17 0.0000000000000000e+00  1.5000000000000016e-01 -2.8877811085462767e-16 0.0000000000000000e+00  1.4999999999999997e-01 -3.5034851219393103e-16 0.0000000000000000e+00  1.4999999999999999e-01 3.3698286395621399e-16 0.0000000000000000e+00  1.5000000000000022e-01 -1.2270063768591012e-16 0.0000000000000000e+00  1.4999999999999999e-01 -8.0834572706923764e-17 0.0000000000000000e+00  1.4999999999999983e-01 3.9735722051001792e-16 0.0000000000000000e+00  1.4999999999999999e-01 1.9268072701705469e-16 0.0000000000000000e+00  1.4999999999999994e-01 2.4177830678131623e-16 0.0000000000000000e+00  1.5000000000000005e-01 -5.0569027300145126e-16 0.0000000000000000e+00  1.4999999999999994e-01 6.5186245125721320e-17 0.0000000000000000e+00  1.5000000000000008e-01 -6.3067849662588798e-16 0.0000000000000000e+00  1.4999999999999999e-01 2.2659145814447193e-16 0.0000000000000000e+00  1.5000000000000011e-01 4.3081469447785379e-16 0.0000000000000000e+00  1.5000000000000038e-01 2.8949357945799541e-16 0.0000000000000000e+00  1.5000000000000002e-01 -2.5217507040521254e-16 0.0000000000000000e+00  1.5000000000000002e-01 -1.2439638995106422e-16 0.0000000000000000e+00  1.5000000000000008e-01 -3.3319658239830154e-17 0.0000000000000000e+00  1.5000000000000022e-01 -1.0315613264786875e-16 0.0000000000000000e+00  1.4999999999999999e-01 -3.2640462464582225e-16 0.0000000000000000e+00  1.5000000000000008e-01 -6.1806651305357413e-17 0.0000000000000000e+00  1.5000000000000011e-01 0.0000000000000000e+00 0.0000000000000000e+00  1.4999999999999999e-01 0.0000000000000000e+00 -6.5586760444895372e-16  1.4999999999999999e-01 -3.0530322155999900e-17 4.1556609345800022e-17  1.5000000000000005e-01 -8.4321935128151937e-17 -1.7443312335574861e-16  1.5000000000000005e-01 -2.5330781249754134e-16 1.0615419678036980e-16  1.5000000000000005e-01 -3.1377583185748479e-17 9.5655005586052800e-17  1.5000000000000008e-01 -2.5825482595898475e-16 -1.6167515687469698e-16  1.5000000000000005e-01 6.0377536373349039e-16 -3.2353731976046413e-16  1.5000000000000008e-01 -3.6602990700706892e-17 6.6321491768921887e-17  1.5000000000000002e-01 -1.0144996814795874e-16 1.2177567306144270e-16  1.4999999999999999e-01 7.8826857498092685e-17 -4.0179911864235559e-16  1.5000000000000002e-01 3.2164276366058975e-17 -9.9426190136043455e-17  1.5000000000000002e-01 3.8996887393552052e-16 1.8088604993811360e-16  1.5000000000000005e-01 -1.4367606573166821e-16 -2.7018164400755181e-18  1.4999999999999999e-01 1.6413555673674076e-16 5.8930157829029396e-17  1.4999999999999997e-01 2.8143173316508173e-16 -4.6898690924003949e-17  1.5000000000000008e-01 -1.1554170568806841e-16 1.6399511569960024e-17  1.5000000000000002e-01 -7.5956024514605300e-17 1.3893618100171344e-16  1.5000000000000005e-01 -3.1009732460362687e-16 1.7905108906849854e-16  1.5000000000000005e-01 -1.7833478951719051e-16 -9.7908303713997924e-17  1.4999999999999988e-01 4.8560226752189536e-16 -1.9945516116094300e-16  1.4999999999999938e-01 3.9542309873375978e-16 -1.8577611868641069e-15  1.4999999999999850e-01 -9.4509341483021200e-16 -3.6853565697215938e-15  1.5000000000000027e-01 -3.2197050947461533e-15 1.5906302434004535e-15  1.5000000000000782e-01 -7.2255108154142790e-15 2.0910069437931489e-14  1.5000000000001998e-01 -7.0924088315713839e-15 5.1915348807953238e-14  1.5000000000002930e-01 -3.2327430178359013e-15 7.4503748341135419e-14  1.5000000000002736e-01 3.6344611312161128e-15 6.7083973401779658e-14  1.5000000000001371e-01 8.3540653261723812e-15 3.1630945631662365e-14  1.4999999999999919e-01 8.3713850358596397e-15 -4.9750450002991443e-15  1.4999999999999380e-01 3.4940935502247339e-15 -1.6559392063515230e-14  1.4999999999999683e-01 -7.4149367659628299e-16 -8.0272614741943820e-15  1.5000000000000077e-01 -2.4234487321222979e-15 2.0123805582512560e-15  1.5000000000000122e-01 -9.9510480633829253e-16 3.1929067913638496e-15  1.4999999999999999e-01 5.0105887285324817e-16 -3.1750234617803444e-16  1.4999999999999963e-01 6.1135041007067700e-16 -1.0766951654313060e-15  1.5000000000000024e-01 -2.2940798437697830e-16 1.6729627759969593e-16  1.5000000000000011e-01 -3.9199753233969879e-16 2.1647964090416977e-16  1.5000000000000002e-01 4.6716385361085201e-16 -2.8742388119120835e-16  1.5000000000000002e-01 3.7136572756364001e-16 4.8149951824296279e-17  1.5000000000000011e-01 -1.8030751567064625e-16 1.8904848870387045e-17  1.5000000000000005e-01 -4.1832164393239545e-16 1.6769454392781996e-16  1.5000000000000008e-01 9.1429166828342357e-17 1.3068844002028328e-16  1.5000000000000005e-01 -1.5727436289573000e-16 -9.8062642856627464e-17  1.5000000000000011e-01 1.6052866673315306e-16 1.7485819068946027e-16  1.5000000000000011e-01 -3.9515496706529067e-16 -2.6596512166968914e-16  1.5000000000000013e-01 1.5593330416240164e-16 2.9287276926129710e-16  1.5000000000000011e-01 -1.4412173480702389e-16 2.3967057758932962e-16  1.5000000000000022e-01 -4.0235917002161905e-18 -2.8481843103278858e-16  1.5000000000000002e-01 3.3004324567920741e-16 1.1028832109825655e-16  1.5000000000000011e-01 2.8520646888526201e-18 -3.7741978953897969e-16  1.5000000000000016e-01 5.9381616897129923e-17 -1.0262588717020489e-16  1.5000000000000002e-01 3.7786734602261839e-16 1.4045917387386208e-16  1.5000000000000008e-01 -2.8861543436138725e-16 1.4184519188280924e-16  1.5000000000000008e-01 4.4025586477808271e-16 -1.2893421837221817e-16  1.5000000000000008e-01 1.4802368548153922e-16 -4.0445168731073396e-16  1.5000000000000008e-01 -4.0848304060337498e-16 -1.0274250796118835e-16  1.4999999999999994e-01 1.6255822629256533e-16 3.2532045691559650e-16  1.5000000000000002e-01 -1.8184036723685937e-16 -2.1329979939128399e-17  1.5000000000000005e-01 1.2587814660450906e-16 -3.9273969023496573e-16  1.5000000000000002e-01 -9.7090170639284037e-17 -6.0688498950460568e-17  1.5000000000000002e-01 -1.6426931213430073e-16 -1.0625528545232566e-16  1.5000000000000008e-01 -1.6945420433224978e-16 -1.9927116017739038e-16  1.5000000000000005e-01 1.1818840351721513e-16 -1.6352992247277311e-16  1.5000000000000008e-01 -3.1907030868948246e-16 1.2659849060144577e-16  1.5000000000000013e-01 -1.3152723927648344e-16 -1.7939969055568789e-16  1.5000000000000008e-01 -1.1761210038837572e-16 1.6218977690563294e-16  1.5000000000000011e-01 -2.7010974371055583e-16 3.1660019629172381e-16  1.5000000000000016e-01 1.4965258117654424e-16 -3.8448292832010761e-17  1.5000000000000008e-01 4.4979496525039781e-16 2.1830984609102714e-17  1.5000000000000002e-01 -6.9732535383790581e-17 2.4486189542626829e-16  1.5000000000000022e-01 3.5679594396942032e-16 -1.8018699078295968e-16  1.5000000000000005e-01 1.4705737949578929e-17 -2.9175312098285206e-17  1.5000000000000005e-01 3.1825958222776269e-17 1.0380266248939256e-16  1.4999999999999999e-01 4.7483474511386162e-17 1.3710247087815552e-16  1.5000000000000002e-01 7.5449861967020130e-17 1.1754326981685439e-16  1.5000000000000005e-01 -2.8778629666808836e-16 -3.2631173555847502e-16  1.5000000000000005e-01 -4.2882587713856194e-17 -6.7190361323871141e-16  1.5000000000000016e-01 -4.7278419059465420e-16 1.6076878649005601e-16  1.5000000000000016e-01 -6.2633944097649294e-18 -3.1473586128835902e-18  1.5000000000000013e-01 1.7646201342774913e-16 -2.0026248032923363e-16  1.5000000000000005e-01 5.1905935925205427e-16 -3.5992377002810223e-16  1.5000000000000005e-01 1.8100496821563884e-16 9.9710341669208633e-17  1.5000000000000013e-01 -2.5778386510123488e-16 3.5672224059040475e-16  1.5000000000000008e-01 1.4883098201555945e-16 -2.8305373208464363e-16  1.5000000000000005e-01 -3.0837672754775817e-16 5.2122561504614580e-17  1.5000000000000008e-01 -1.0848469191533978e-16 5.3391733925410161e-17  1.5000000000000005e-01 4.3919048687022942e-16 7.0265283376045386e-17  1.5000000000000005e-01 -1.3346979983800523e-16 7.5032673100100735e-17  1.5000000000000008e-01 -1.5870248609837630e-17 1.7579556102025753e-16  1.4999999999999999e-01 -1.5260299234038438e-16 3.4775156539211948e-16  1.5000000000000005e-01 -1.9452470283851739e-16 2.3691509338960437e-16  1.5000000000000008e-01 4.2907153537761500e-16 -3.4511265047599872e-17  1.5000000000000005e-01 3.9015971033036929e-16 -1.9468034512705848e-17  1.5000000000000013e-01 2.4931309405587425e-16 -1.7172510191118579e-16  1.5000000000000005e-01 -7.5886038634159799e-16 -1.0836852694017763e-16  1.5000000000000005e-01 -2.3536835667234333e-16 1.4969794953505122e-16  1.4999999999999991e-01 2.8509694334988832e-16 -1.7312217017762531e-16  1.5000000000000002e-01 2.8322661549379787e-16 -3.8857337833635429e-17  1.5000000000000016e-01 9.1953857053667668e-17 1.3450416815931289e-16  1.5000000000000005e-01 -1.4063183506101819e-16 -2.8301970129695731e-16  1.4999999999999999e-01 0.0000000000000000e+00 3.4348920800988846e-16  1.5000000000000011e-01 0.0000000000000000e+00 1.0918759396319986e-16  1.5000000000000013e-01 -3.6610172857258341e-16 -1.9716038075221941e-17  1.4999999999999999e-01 7.3629168295239390e-17 -5.4072943812211673e-16  1.5000000000000005e-01 3.4923566320962991e-16 6.6621413310380084e-17  1.5000000000000019e-01 -1.4513537273123068e-16 -3.1573760176296732e-16  1.5000000000000008e-01 -2.5996653401358539e-16 -3.6306878881790630e-16  1.4999999999999999e-01 1.1735675342317669e-16 -2.8940567167055742e-16  1.5000000000000005e-01 2.1349051507849824e-16 -3.0099065053386469e-16  1.5000000000000011e-01 6.0810807551763276e-16 -6.8950014101073823e-16  1.5000000000000002e-01 -2.6151407630734480e-16 4.7799451684403694e-17  1.5000000000000002e-01 1.4891385212046074e-16 1.6978601169849455e-17  1.5000000000000005e-01 4.3540111631435170e-17 -3.0545986226343014e-16  1.4999999999999994e-01 -3.3621207235851584e-16 -1.7088269871267094e-16  1.4999999999999991e-01 1.4667351086354598e-16 -3.0691863882536754e-16  1.5000000000000005e-01 -2.3027540388295359e-16 -1.8194858409838399e-16  1.4999999999999988e-01 -3.3924146298796012e-16 -4.5744183807402919e-16  1.5000000000000008e-01 4.3370618896528936e-16 -8.9308540894685010e-16  1.5000000000000013e-01 -1.8898359078300515e-16 -6.5300654514450942e-16  1.5000000000000002e-01 8.5164421206023438e-17 -6.0972240718264573e-16  1.5000000000000005e-01 -5.3363289064266972e-16 -7.5455486558276423e-17  1.5000000000000083e-01 -1.5204052585153818e-15 2.5270225574979806e-15  1.5000000000000255e-01 -2.3687917063797432e-17 8.3522236580582891e-15  1.5000000000000216e-01 4.6374815233461510e-15 6.8137411313886989e-15  1.4999999999999322e-01 1.1364128365852608e-14 -2.3770179230835448e-14  1.4999999999997227e-01 1.6410552785780588e-14 -9.6450835559054443e-14  1.4999999999994817e-01 1.1378737557481015e-14 -1.7837931222232939e-13  1.4999999999994057e-01 -1.3075973213720114e-15 -2.0366682358466261e-13  1.4999999999995889e-01 -1.4963036585331128e-14 -1.3864390807756737e-13  1.4999999999999070e-01 -1.8828270890360652e-14 -2.9793347245337132e-14  1.5000000000001071e-01 -1.1316288763023175e-14 3.9069311136728851e-14  1.5000000000001065e-01 -1.5442287735876099e-15 3.6742754505232176e-14  1.5000000000000135e-01 4.2934297712151701e-15 4.2414267179799471e-15  1.4999999999999722e-01 3.4116406843676754e-15 -1.0513671299872264e-14  1.4999999999999911e-01 -5.0183669955360855e-16 -3.5196463331600208e-15  1.5000000000000083e-01 -1.2756610412352082e-15 3.0632996389947462e-15  1.5000000000000016e-01 -3.7236461140786730e-16 7.4600131940716467e-16  1.4999999999999974e-01 9.3930258331651721e-16 -1.3151868079924288e-15  1.4999999999999997e-01 4.9146946732106759e-16 1.3455182016797159e-16  1.5000000000000024e-01 -2.3338894576447492e-16 2.8559757931444486e-16  1.4999999999999991e-01 -2.3870785398706619e-16 -2.3243032466660357e-16  1.4999999999999994e-01 3.3227953445488663e-17 -4.0949468114017249e-16  1.4999999999999999e-01 -2.5078382920133637e-16 -1.3775101879136450e-16  1.5000000000000011e-01 8.4128994968394208e-17 2.5383453855005822e-16  1.5000000000000005e-01 -1.9490914383249378e-16 -3.5095053581574742e-16  1.4999999999999999e-01 -5.5076449594808994e-18 -2.0023801533300463e-16  1.5000000000000008e-01 3.4960903001548288e-16 3.4053800741993015e-16  1.4999999999999997e-01 -1.1808411980889461e-16 -1.8509045195820701e-16  1.4999999999999999e-01 -3.0699645754847950e-16 5.5932924757618542e-16  1.5000000000000008e-01 1.2756529924896007e-16 2.0865407163333545e-16  1.5000000000000011e-01 -6.8824973932595951e-16 1.2198869335046675e-16  1.5000000000000002e-01 6.8119090466918799e-16 1.1400880952047504e-16  1.5000000000000008e-01 -1.2653841333781534e-16 -8.2236033819879030e-17  1.5000000000000002e-01 6.6488953955350687e-17 -4.7231039948674817e-16  1.4999999999999999e-01 2.3527887822946023e-16 -4.4597520115433976e-17  1.5000000000000005e-01 -2.8724750099106350e-16 -4.5753085900446533e-16  1.5000000000000002e-01 2.0228243658945896e-17 -3.8015232152183008e-16  1.5000000000000002e-01 -3.5893510828923723e-17 -2.6978813354018752e-17  1.5000000000000011e-01 -6.8856035571755680e-18 -2.6474128427033207e-16  1.5000000000000016e-01 1.9243858890523763e-16 2.2227538700000460e-16  1.5000000000000002e-01 -1.6364861963191714e-16 -6.6496254122674056e-17  1.5000000000000016e-01 -5.7198241895138429e-17 -4.8759619095399569e-16  1.4999999999999994e-01 -1.4577313476279882e-17 8.6769111771621728e-17  1.5000000000000005e-01 1.3796134393512673e-16 -2.0528310968596089e-17  1.5000000000000005e-01 1.9088055728744770e-16 -1.9236611578724248e-16  1.5000000000000002e-01 6.4364218933439439e-17 5.0294231153608447e-16  1.5000000000000002e-01 -1.2663887479063314e-16 4.7566386526041257e-16  1.5000000000000005e-01 -1.6212502776106175e-16 9.6045462379077786e-17  1.5000000000000005e-01 -4.6946587597844811e-17 7.2747490436944215e-16  1.5000000000000005e-01 -3.6487661271923158e-17 2.7744946164336155e-16  1.5000000000000002e-01 1.0751528198214429e-16 -1.5018916813037886e-16  1.5000000000000013e-01 -6.5540453938193486e-17 5.0272306293266659e-16  1.5000000000000005e-01 4.6750608617920282e-17 1.7997123398330287e-16  1.5000000000000005e-01 2.1642002450254271e-16 -1.4240069923039403e-16  1.5000000000000002e-01 -1.8324007608137714e-16 -1.9283035166101558e-17  1.5000000000000005e-01 7.4630183542344725e-17 -4.8474216222320722e-16  1.5000000000000005e-01 -3.0373961158287475e-16 -6.9327753914453541e-18  1.5000000000000011e-01 -1.2629879469654310e-16 2.7571612160586793e-17  1.5000000000000002e-01 4.7947462789131518e-16 -3.5289520974494066e-16  1.4999999999999999e-01 3.6891080872357372e-16 -9.4096