<?xml version="1.0"?>
<VTKFile type="UnstructuredGrid"  version="0.1"  >
<UnstructuredGrid>
<Piece  NumberOfPoints="10201" NumberOfCells="20000">
<Points>
<DataArray  type="Float64"  NumberOfComponents="3"  format="ascii">-5 -5 0  -4.9 -5 0  -4.8 -5 0  -4.7 -5 0  -4.6 -5 0  -4.5 -5 0  -4.4 -5 0  -4.3 -5 0  -4.2 -5 0  -4.1 -5 0  -4 -5 0  -3.9 -5 0  -3.8 -5 0  -3.7 -5 0  -3.6 -5 0  -3.5 -5 0  -3.4 -5 0  -3.3 -5 0  -3.2 -5 0  -3.1 -5 0  -3 -5 0  -2.9 -5 0  -2.8 -5 0  -2.7 -5 0  -2.6 -5 0  -2.5 -5 0  -2.4 -5 0  -2.3 -5 0  -2.2 -5 0  -2.1 -5 0  -2 -5 0  -1.9 -5 0  -1.8 -5 0  -1.7 -5 0  -1.6 -5 0  -1.5 -5 0  -1.4 -5 0  -1.3 -5 0  -1.2 -5 0  -1.1 -5 0  -1 -5 0  -0.9000000000000004 -5 0  -0.7999999999999998 -5 0  -0.7000000000000002 -5 0  -0.5999999999999996 -5 0  -0.5 -5 0  -0.4000000000000004 -5 0  -0.2999999999999998 -5 0  -0.2000000000000002 -5 0  -0.09999999999999964 -5 0  0 -5 0  0.09999999999999964 -5 0  0.2000000000000002 -5 0  0.2999999999999998 -5 0  0.4000000000000004 -5 0  0.5 -5 0  0.5999999999999996 -5 0  0.7000000000000002 -5 0  0.7999999999999998 -5 0  0.9000000000000004 -5 0  1 -5 0  1.1 -5 0  1.2 -5 0  1.3 -5 0  1.4 -5 0  1.5 -5 0  1.6 -5 0  1.7 -5 0  1.8 -5 0  1.9 -5 0  2 -5 0  2.1 -5 0  2.2 -5 0  2.3 -5 0  2.4 -5 0  2.5 -5 0  2.6 -5 0  2.7 -5 0  2.8 -5 0  2.9 -5 0  3 -5 0  3.1 -5 0  3.199999999999999 -5 0  3.300000000000001 -5 0  3.4 -5 0  3.5 -5 0  3.6 -5 0  3.699999999999999 -5 0  3.800000000000001 -5 0  3.9 -5 0  4 -5 0  4.1 -5 0  4.199999999999999 -5 0  4.300000000000001 -5 0  4.4 -5 0  4.5 -5 0  4.6 -5 0  4.699999999999999 -5 0  4.800000000000001 -5 0  4.9 -5 0  5 -5 0  -5 -4.9 0  -4.9 -4.9 0  -4.8 -4.9 0  -4.7 -4.9 0  -4.6 -4.9 0  -4.5 -4.9 0  -4.4 -4.9 0  -4.3 -4.9 0  -4.2 -4.9 0  -4.1 -4.9 0  -4 -4.9 0  -3.9 -4.9 0  -3.8 -4.9 0  -3.7 -4.9 0  -3.6 -4.9 0  -3.5 -4.9 0  -3.4 -4.9 0  -3.3 -4.9 0  -3.2 -4.9 0  -3.1 -4.9 0  -3 -4.9 0  -2.9 -4.9 0  -2.8 -4.9 0  -2.7 -4.9 0  -2.6 -4.9 0  -2.5 -4.9 0  -2.4 -4.9 0  -2.3 -4.9 0  -2.2 -4.9 0  -2.1 -4.9 0  -2 -4.9 0  -1.9 -4.9 0  -1.8 -4.9 0  -1.7 -4.9 0  -1.6 -4.9 0  -1.5 -4.9 0  -1.4 -4.9 0  -1.3 -4.9 0  -1.2 -4.9 0  -1.1 -4.9 0  -1 -4.9 0  -0.9000000000000004 -4.9 0  -0.7999999999999998 -4.9 0  -0.7000000000000002 -4.9 0  -0.5999999999999996 -4.9 0  -0.5 -4.9 0  -0.4000000000000004 -4.9 0  -0.2999999999999998 -4.9 0  -0.2000000000000002 -4.9 0  -0.09999999999999964 -4.9 0  0 -4.9 0  0.09999999999999964 -4.9 0  0.2000000000000002 -4.9 0  0.2999999999999998 -4.9 0  0.4000000000000004 -4.9 0  0.5 -4.9 0  0.5999999999999996 -4.9 0  0.7000000000000002 -4.9 0  0.7999999999999998 -4.9 0  0.9000000000000004 -4.9 0  1 -4.9 0  1.1 -4.9 0  1.2 -4.9 0  1.3 -4.9 0  1.4 -4.9 0  1.5 -4.9 0  1.6 -4.9 0  1.7 -4.9 0  1.8 -4.9 0  1.9 -4.9 0  2 -4.9 0  2.1 -4.9 0  2.2 -4.9 0  2.3 -4.9 0  2.4 -4.9 0  2.5 -4.9 0  2.6 -4.9 0  2.7 -4.9 0  2.8 -4.9 0  2.9 -4.9 0  3 -4.9 0  3.1 -4.9 0  3.199999999999999 -4.9 0  3.300000000000001 -4.9 0  3.4 -4.9 0  3.5 -4.9 0  3.6 -4.9 0  3.699999999999999 -4.9 0  3.800000000000001 -4.9 0  3.9 -4.9 0  4 -4.9 0  4.1 -4.9 0  4.199999999999999 -4.9 0  4.300000000000001 -4.9 0  4.4 -4.9 0  4.5 -4.9 0  4.6 -4.9 0  4.699999999999999 -4.9 0  4.800000000000001 -4.9 0  4.9 -4.9 0  5 -4.9 0  -5 -4.8 0  -4.9 -4.8 0  -4.8 -4.8 0  -4.7 -4.8 0  -4.6 -4.8 0  -4.5 -4.8 0  -4.4 -4.8 0  -4.3 -4.8 0  -4.2 -4.8 0  -4.1 -4.8 0  -4 -4.8 0  -3.9 -4.8 0  -3.8 -4.8 0  -3.7 -4.8 0  -3.6 -4.8 0  -3.5 -4.8 0  -3.4 -4.8 0  -3.3 -4.8 0  -3.2 -4.8 0  -3.1 -4.8 0  -3 -4.8 0  -2.9 -4.8 0  -2.8 -4.8 0  -2.7 -4.8 0  -2.6 -4.8 0  -2.5 -4.8 0  -2.4 -4.8 0  -2.3 -4.8 0  -2.2 -4.8 0  -2.1 -4.8 0  -2 -4.8 0  -1.9 -4.8 0  -1.8 -4.8 0  -1.7 -4.8 0  -1.6 -4.8 0  -1.5 -4.8 0  -1.4 -4.8 0  -1.3 -4.8 0  -1.2 -4.8 0  -1.1 -4.8 0  -1 -4.8 0  -0.9000000000000004 -4.8 0  -0.7999999999999998 -4.8 0  -0.7000000000000002 -4.8 0  -0.5999999999999996 -4.8 0  -0.5 -4.8 0  -0.4000000000000004 -4.8 0  -0.2999999999999998 -4.8 0  -0.2000000000000002 -4.8 0  -0.09999999999999964 -4.8 0  0 -4.8 0  0.09999999999999964 -4.8 0  0.2000000000000002 -4.8 0  0.2999999999999998 -4.8 0  0.4000000000000004 -4.8 0  0.5 -4.8 0  0.5999999999999996 -4.8 0  0.7000000000000002 -4.8 0  0.7999999999999998 -4.8 0  0.9000000000000004 -4.8 0  1 -4.8 0  1.1 -4.8 0  1.2 -4.8 0  1.3 -4.8 0  1.4 -4.8 0  1.5 -4.8 0  1.6 -4.8 0  1.7 -4.8 0  1.8 -4.8 0  1.9 -4.8 0  2 -4.8 0  2.1 -4.8 0  2.2 -4.8 0  2.3 -4.8 0  2.4 -4.8 0  2.5 -4.8 0  2.6 -4.8 0  2.7 -4.8 0  2.8 -4.8 0  2.9 -4.8 0  3 -4.8 0  3.1 -4.8 0  3.199999999999999 -4.8 0  3.300000000000001 -4.8 0  3.4 -4.8 0  3.5 -4.8 0  3.6 -4.8 0  3.699999999999999 -4.8 0  3.800000000000001 -4.8 0  3.9 -4.8 0  4 -4.8 0  4.1 -4.8 0  4.199999999999999 -4.8 0  4.300000000000001 -4.8 0  4.4 -4.8 0  4.5 -4.8 0  4.6 -4.8 0  4.699999999999999 -4.8 0  4.800000000000001 -4.8 0  4.9 -4.8 0  5 -4.8 0  -5 -4.7 0  -4.9 -4.7 0  -4.8 -4.7 0  -4.7 -4.7 0  -4.6 -4.7 0  -4.5 -4.7 0  -4.4 -4.7 0  -4.3 -4.7 0  -4.2 -4.7 0  -4.1 -4.7 0  -4 -4.7 0  -3.9 -4.7 0  -3.8 -4.7 0  -3.7 -4.7 0  -3.6 -4.7 0  -3.5 -4.7 0  -3.4 -4.7 0  -3.3 -4.7 0  -3.2 -4.7 0  -3.1 -4.7 0  -3 -4.7 0  -2.9 -4.7 0  -2.8 -4.7 0  -2.7 -4.7 0  -2.6 -4.7 0  -2.5 -4.7 0  -2.4 -4.7 0  -2.3 -4.7 0  -2.2 -4.7 0  -2.1 -4.7 0  -2 -4.7 0  -1.9 -4.7 0  -1.8 -4.7 0  -1.7 -4.7 0  -1.6 -4.7 0  -1.5 -4.7 0  -1.4 -4.7 0  -1.3 -4.7 0  -1.2 -4.7 0  -1.1 -4.7 0  -1 -4.7 0  -0.9000000000000004 -4.7 0  -0.7999999999999998 -4.7 0  -0.7000000000000002 -4.7 0  -0.5999999999999996 -4.7 0  -0.5 -4.7 0  -0.4000000000000004 -4.7 0  -0.2999999999999998 -4.7 0  -0.2000000000000002 -4.7 0  -0.09999999999999964 -4.7 0  0 -4.7 0  0.09999999999999964 -4.7 0  0.2000000000000002 -4.7 0  0.2999999999999998 -4.7 0  0.4000000000000004 -4.7 0  0.5 -4.7 0  0.5999999999999996 -4.7 0  0.7000000000000002 -4.7 0  0.7999999999999998 -4.7 0  0.9000000000000004 -4.7 0  1 -4.7 0  1.1 -4.7 0  1.2 -4.7 0  1.3 -4.7 0  1.4 -4.7 0  1.5 -4.7 0  1.6 -4.7 0  1.7 -4.7 0  1.8 -4.7 0  1.9 -4.7 0  2 -4.7 0  2.1 -4.7 0  2.2 -4.7 0  2.3 -4.7 0  2.4 -4.7 0  2.5 -4.7 0  2.6 -4.7 0  2.7 -4.7 0  2.8 -4.7 0  2.9 -4.7 0  3 -4.7 0  3.1 -4.7 0  3.199999999999999 -4.7 0  3.300000000000001 -4.7 0  3.4 -4.7 0  3.5 -4.7 0  3.6 -4.7 0  3.699999999999999 -4.7 0  3.800000000000001 -4.7 0  3.9 -4.7 0  4 -4.7 0  4.1 -4.7 0  4.199999999999999 -4.7 0  4.300000000000001 -4.7 0  4.4 -4.7 0  4.5 -4.7 0  4.6 -4.7 0  4.699999999999999 -4.7 0  4.800000000000001 -4.7 0  4.9 -4.7 0  5 -4.7 0  -5 -4.6 0  -4.9 -4.6 0  -4.8 -4.6 0  -4.7 -4.6 0  -4.6 -4.6 0  -4.5 -4.6 0  -4.4 -4.6 0  -4.3 -4.6 0  -4.2 -4.6 0  -4.1 -4.6 0  -4 -4.6 0  -3.9 -4.6 0  -3.8 -4.6 0  -3.7 -4.6 0  -3.6 -4.6 0  -3.5 -4.6 0  -3.4 -4.6 0  -3.3 -4.6 0  -3.2 -4.6 0  -3.1 -4.6 0  -3 -4.6 0  -2.9 -4.6 0  -2.8 -4.6 0  -2.7 -4.6 0  -2.6 -4.6 0  -2.5 -4.6 0  -2.4 -4.6 0  -2.3 -4.6 0  -2.2 -4.6 0  -2.1 -4.6 0  -2 -4.6 0  -1.9 -4.6 0  -1.8 -4.6 0  -1.7 -4.6 0  -1.6 -4.6 0  -1.5 -4.6 0  -1.4 -4.6 0  -1.3 -4.6 0  -1.2 -4.6 0  -1.1 -4.6 0  -1 -4.6 0  -0.9000000000000004 -4.6 0  -0.7999999999999998 -4.6 0  -0.7000000000000002 -4.6 0  -0.5999999999999996 -4.6 0  -0.5 -4.6 0  -0.4000000000000004 -4.6 0  -0.2999999999999998 -4.6 0  -0.2000000000000002 -4.6 0  -0.09999999999999964 -4.6 0  0 -4.6 0  0.09999999999999964 -4.6 0  0.2000000000000002 -4.6 0  0.2999999999999998 -4.6 0  0.4000000000000004 -4.6 0  0.5 -4.6 0  0.5999999999999996 -4.6 0  0.7000000000000002 -4.6 0  0.7999999999999998 -4.6 0  0.9000000000000004 -4.6 0  1 -4.6 0  1.1 -4.6 0  1.2 -4.6 0  1.3 -4.6 0  1.4 -4.6 0  1.5 -4.6 0  1.6 -4.6 0  1.7 -4.6 0  1.8 -4.6 0  1.9 -4.6 0  2 -4.6 0  2.1 -4.6 0  2.2 -4.6 0  2.3 -4.6 0  2.4 -4.6 0  2.5 -4.6 0  2.6 -4.6 0  2.7 -4.6 0  2.8 -4.6 0  2.9 -4.6 0  3 -4.6 0  3.1 -4.6 0  3.199999999999999 -4.6 0  3.300000000000001 -4.6 0  3.4 -4.6 0  3.5 -4.6 0  3.6 -4.6 0  3.699999999999999 -4.6 0  3.800000000000001 -4.6 0  3.9 -4.6 0  4 -4.6 0  4.1 -4.6 0  4.199999999999999 -4.6 0  4.300000000000001 -4.6 0  4.4 -4.6 0  4.5 -4.6 0  4.6 -4.6 0  4.699999999999999 -4.6 0  4.800000000000001 -4.6 0  4.9 -4.6 0  5 -4.6 0  -5 -4.5 0  -4.9 -4.5 0  -4.8 -4.5 0  -4.7 -4.5 0  -4.6 -4.5 0  -4.5 -4.5 0  -4.4 -4.5 0  -4.3 -4.5 0  -4.2 -4.5 0  -4.1 -4.5 0  -4 -4.5 0  -3.9 -4.5 0  -3.8 -4.5 0  -3.7 -4.5 0  -3.6 -4.5 0  -3.5 -4.5 0  -3.4 -4.5 0  -3.3 -4.5 0  -3.2 -4.5 0  -3.1 -4.5 0  -3 -4.5 0  -2.9 -4.5 0  -2.8 -4.5 0  -2.7 -4.5 0  -2.6 -4.5 0  -2.5 -4.5 0  -2.4 -4.5 0  -2.3 -4.5 0  -2.2 -4.5 0  -2.1 -4.5 0  -2 -4.5 0  -1.9 -4.5 0  -1.8 -4.5 0  -1.7 -4.5 0  -1.6 -4.5 0  -1.5 -4.5 0  -1.4 -4.5 0  -1.3 -4.5 0  -1.2 -4.5 0  -1.1 -4.5 0  -1 -4.5 0  -0.9000000000000004 -4.5 0  -0.7999999999999998 -4.5 0  -0.7000000000000002 -4.5 0  -0.5999999999999996 -4.5 0  -0.5 -4.5 0  -0.4000000000000004 -4.5 0  -0.2999999999999998 -4.5 0  -0.2000000000000002 -4.5 0  -0.09999999999999964 -4.5 0  0 -4.5 0  0.09999999999999964 -4.5 0  0.2000000000000002 -4.5 0  0.2999999999999998 -4.5 0  0.4000000000000004 -4.5 0  0.5 -4.5 0  0.5999999999999996 -4.5 0  0.7000000000000002 -4.5 0  0.7999999999999998 -4.5 0  0.9000000000000004 -4.5 0  1 -4.5 0  1.1 -4.5 0  1.2 -4.5 0  1.3 -4.5 0  1.4 -4.5 0  1.5 -4.5 0  1.6 -4.5 0  1.7 -4.5 0  1.8 -4.5 0  1.9 -4.5 0  2 -4.5 0  2.1 -4.5 0  2.2 -4.5 0  2.3 -4.5 0  2.4 -4.5 0  2.5 -4.5 0  2.6 -4.5 0  2.7 -4.5 0  2.8 -4.5 0  2.9 -4.5 0  3 -4.5 0  3.1 -4.5 0  3.199999999999999 -4.5 0  3.300000000000001 -4.5 0  3.4 -4.5 0  3.5 -4.5 0  3.6 -4.5 0  3.699999999999999 -4.5 0  3.800000000000001 -4.5 0  3.9 -4.5 0  4 -4.5 0  4.1 -4.5 0  4.199999999999999 -4.5 0  4.300000000000001 -4.5 0  4.4 -4.5 0  4.5 -4.5 0  4.6 -4.5 0  4.699999999999999 -4.5 0  4.800000000000001 -4.5 0  4.9 -4.5 0  5 -4.5 0  -5 -4.4 0  -4.9 -4.4 0  -4.8 -4.4 0  -4.7 -4.4 0  -4.6 -4.4 0  -4.5 -4.4 0  -4.4 -4.4 0  -4.3 -4.4 0  -4.2 -4.4 0  -4.1 -4.4 0  -4 -4.4 0  -3.9 -4.4 0  -3.8 -4.4 0  -3.7 -4.4 0  -3.6 -4.4 0  -3.5 -4.4 0  -3.4 -4.4 0  -3.3 -4.4 0  -3.2 -4.4 0  -3.1 -4.4 0  -3 -4.4 0  -2.9 -4.4 0  -2.8 -4.4 0  -2.7 -4.4 0  -2.6 -4.4 0  -2.5 -4.4 0  -2.4 -4.4 0  -2.3 -4.4 0  -2.2 -4.4 0  -2.1 -4.4 0  -2 -4.4 0  -1.9 -4.4 0  -1.8 -4.
[...]
<PointData  Vectors="f_23"> 
<DataArray  type="Float64"  Name="f_23"  NumberOfComponents="3" format="ascii">1.5000000000000105e-01 0.0000000000000000e+00 0.0000000000000000e+00  1.5000000000000027e-01 1.0833988690678450e-31 0.0000000000000000e+00  1.4999999999999816e-01 1.1323965713708491e-30 0.0000000000000000e+00  1.4999999999999925e-01 1.2766933028572971e-30 0.0000000000000000e+00  1.5000000000000327e-01 7.5687722518409616e-32 0.0000000000000000e+00  1.5000000000002242e-01 1.5188819008214551e-27 0.0000000000000000e+00  1.5000000000020319e-01 3.2102594283522024e-26 0.0000000000000000e+00  1.5000000000099273e-01 4.2745069298146149e-25 0.0000000000000000e+00  1.5000000000356062e-01 4.1971434522535857e-24 0.0000000000000000e+00  1.5000000001085037e-01 2.6319344369523660e-23 0.0000000000000000e+00  1.5000000002840722e-01 1.1284313531974462e-22 0.0000000000000000e+00  1.5000000006413494e-01 3.9061503951245949e-22 0.0000000000000000e+00  1.5000000012946363e-01 1.3235648133434925e-21 0.0000000000000000e+00  1.5000000024544119e-01 5.5364051016969988e-21 0.0000000000000000e+00  1.5000000045695802e-01 2.9264234628772529e-20 0.0000000000000000e+00  1.5000000085342258e-01 1.3990484309368763e-19 0.0000000000000000e+00  1.5000000153695969e-01 4.1219415706661440e-19 0.0000000000000000e+00  1.5000000238464398e-01 4.4748461977368126e-19 0.0000000000000000e+00  1.5000000257074467e-01 2.4757300270051503e-20 0.0000000000000000e+00  1.5000000034960115e-01 5.3418443701752567e-18 0.0000000000000000e+00  1.4999999405794523e-01 2.6856819270950846e-17 0.0000000000000000e+00  1.4999998456126745e-01 4.3037509497791615e-17 0.0000000000000000e+00  1.4999997706639565e-01 1.5869773022986419e-17 0.0000000000000000e+00  1.4999997863557665e-01 5.5281250103315480e-18 0.0000000000000000e+00  1.4999999113208187e-01 7.0560313080441561e-17 0.0000000000000000e+00  1.5000000688959247e-01 8.9779865664616509e-17 0.0000000000000000e+00  1.5000001493658208e-01 2.4761763820270861e-17 0.0000000000000000e+00  1.5000001223673481e-01 1.4324106953135117e-18 0.0000000000000000e+00  1.5000000483437104e-01 2.3892277888799217e-17 0.0000000000000000e+00  1.4999999827764787e-01 2.3108030164484933e-17 0.0000000000000000e+00  1.4999999402854106e-01 3.4782736688771139e-18 0.0000000000000000e+00  1.4999999475480394e-01 3.5253107554442471e-18 0.0000000000000000e+00  1.5000000178514158e-01 1.1548026458981964e-17 0.0000000000000000e+00  1.5000000704409697e-01 1.1607382381973816e-18 0.0000000000000000e+00  1.5000000201954924e-01 5.3144319338999571e-18 0.0000000000000000e+00  1.4999999413754206e-01 5.0747134763303418e-18 0.0000000000000000e+00  1.4999999644741951e-01 8.2800997203245258e-19 0.0000000000000000e+00  1.5000000422344612e-01 4.8757065781475335e-18 0.0000000000000000e+00  1.5000000349991030e-01 4.8645001504494544e-21 0.0000000000000000e+00  1.4999999700594788e-01 3.0729504374738871e-18 0.0000000000000000e+00  1.4999999727324659e-01 5.8360786181505000e-20 0.0000000000000000e+00  1.5000000221966328e-01 1.6602060684320746e-18 0.0000000000000000e+00  1.5000000179212725e-01 6.1533314586025117e-20 0.0000000000000000e+00  1.4999999829537619e-01 8.5488097017444000e-19 0.0000000000000000e+00  1.4999999903223138e-01 1.7907821002118911e-20 0.0000000000000000e+00  1.5000000128528515e-01 4.2308127835422833e-19 0.0000000000000000e+00  1.5000000035865063e-01 3.0314841565670430e-23 0.0000000000000000e+00  1.4999999910464468e-01 1.8860829042860480e-19 0.0000000000000000e+00  1.5000000001521929e-01 7.4952175265861631e-21 0.0000000000000000e+00  1.5000000054127000e-01 6.7034375064163327e-20 0.0000000000000000e+00  1.4999999981751613e-01 1.5981322266942052e-20 0.0000000000000000e+00  1.4999999974298420e-01 1.5132653681050902e-20 0.0000000000000000e+00  1.5000000020196377e-01 1.4286856533932004e-20 0.0000000000000000e+00  1.5000000006823624e-01 9.6202154140490907e-22 0.0000000000000000e+00  1.4999999985631365e-01 7.0677503066579895e-21 0.0000000000000000e+00  1.5000000002509112e-01 2.8861381301690883e-22 0.0000000000000000e+00  1.5000000006851258e-01 1.7458782786777023e-21 0.0000000000000000e+00  1.4999999995280014e-01 8.7527936439557240e-22 0.0000000000000000e+00  1.4999999998643576e-01 8.7927348992278320e-23 0.0000000000000000e+00  1.5000000003282088e-01 4.7253045660185123e-22 0.0000000000000000e+00  1.4999999998928390e-01 4.2033438118980982e-23 0.0000000000000000e+00  1.4999999998853336e-01 7.2704306415679147e-23 0.0000000000000000e+00  1.5000000001245950e-01 7.4040613069803281e-23 0.0000000000000000e+00  1.4999999999846969e-01 2.6926075315703633e-25 0.0000000000000000e+00  1.4999999999441685e-01 1.9307270615722079e-23 0.0000000000000000e+00  1.5000000000441810e-01 9.8376255403994304e-24 0.0000000000000000e+00  1.4999999999995473e-01 7.8098157693251742e-26 0.0000000000000000e+00  1.4999999999774530e-01 3.5460206967828996e-24 0.0000000000000000e+00  1.5000000000161456e-01 1.4129871943872930e-24 0.0000000000000000e+00  1.4999999999998712e-01 1.8549451480398835e-26 0.0000000000000000e+00  1.4999999999918420e-01 5.3898665429487423e-25 0.0000000000000000e+00  1.5000000000062930e-01 2.4430331936698098e-25 0.0000000000000000e+00  1.4999999999992245e-01 1.9353742713707559e-29 0.0000000000000000e+00  1.4999999999974392e-01 6.5952280899691100e-26 0.0000000000000000e+00  1.5000000000025041e-01 4.6859488796196239e-26 0.0000000000000000e+00  1.4999999999991909e-01 2.5969621467641153e-27 0.0000000000000000e+00  1.4999999999994421e-01 4.7000589447568845e-27 0.0000000000000000e+00  1.5000000000009087e-01 7.7566156907825570e-27 0.0000000000000000e+00  1.4999999999994634e-01 2.1204711131297275e-27 0.0000000000000000e+00  1.5000000000000530e-01 5.2387939164220366e-30 0.0000000000000000e+00  1.5000000000002203e-01 6.8344027087417372e-28 0.0000000000000000e+00  1.4999999999997593e-01 6.4375004873395098e-28 0.0000000000000000e+00  1.5000000000001357e-01 1.4793252228342112e-28 0.0000000000000000e+00  1.4999999999999869e-01 7.9691128734909040e-32 0.0000000000000000e+00  1.4999999999999503e-01 3.6572109668853273e-29 0.0000000000000000e+00  1.5000000000000638e-01 4.4798023495870176e-29 0.0000000000000000e+00  1.4999999999999564e-01 1.4291502777094772e-29 0.0000000000000000e+00  1.5000000000000174e-01 2.0707487036652924e-30 0.0000000000000000e+00  1.5000000000000027e-01 1.1669115685494674e-32 0.0000000000000000e+00  1.4999999999999916e-01 1.2771541422277064e-30 0.0000000000000000e+00  1.5000000000000097e-01 1.3966193624771940e-30 0.0000000000000000e+00  1.4999999999999919e-01 8.7484229790593326e-31 0.0000000000000000e+00  1.5000000000000036e-01 2.2346739787349489e-31 0.0000000000000000e+00  1.4999999999999980e-01 9.7032970290150244e-32 0.0000000000000000e+00  1.5000000000000011e-01 5.2710656146387817e-32 0.0000000000000000e+00  1.5000000000000036e-01 8.1356385747576165e-33 0.0000000000000000e+00  1.4999999999999955e-01 2.7316291028845066e-31 0.0000000000000000e+00  1.5000000000000041e-01 3.1259459781769800e-32 0.0000000000000000e+00  1.4999999999999991e-01 7.5424580451249557e-33 0.0000000000000000e+00  1.5000000000000036e-01 9.0503608515693487e-33 0.0000000000000000e+00  1.5000000000000022e-01 0.0000000000000000e+00 0.0000000000000000e+00  1.5000000000000052e-01 0.0000000000000000e+00 1.1002636867964763e-31  1.4999999999999925e-01 7.7044311068153242e-31 4.5133842873572172e-31  1.5000000000000122e-01 1.3413721712486250e-31 1.1129192140973510e-31  1.5000000000000327e-01 5.2410474773781808e-32 5.9333207469289525e-30  1.4999999999999863e-01 1.1031548168376391e-29 6.3908928148069087e-33  1.4999999999998906e-01 2.6907742566803154e-28 6.9201604403763287e-29  1.4999999999989139e-01 1.5016085096299737e-26 9.2081729422861441e-27  1.4999999999933483e-01 2.2527092304357266e-25 3.4525743441911914e-25  1.4999999999734165e-01 2.5923077927312766e-24 5.7518578182114634e-24  1.4999999999137170e-01 2.0359134554413883e-23 6.2614247537520575e-23  1.4999999997586441e-01 1.0336778497106335e-22 4.9377007713870234e-22  1.4999999994200466e-01 3.8581089235344895e-22 2.8440325517643147e-21  1.4999999987802029e-01 1.2537978265226566e-21 1.2394921906597428e-20  1.4999999976576156e-01 4.3515988401851904e-21 4.3766532972065213e-20  1.4999999957066326e-01 1.9409969344384685e-20 1.3600676422409270e-19  1.4999999922247367e-01 9.6282436333213258e-20 4.0460563101593237e-19  1.4999999861192106e-01 3.5664368525336771e-19 1.1725103356833628e-18  1.4999999773236219e-01 6.4109255675903382e-19 2.8422299212474906e-18  1.4999999711498405e-01 1.1833228904833854e-19 3.9098443779196862e-18  1.4999999829649774e-01 2.2061094995552613e-18 5.1967703062704218e-19  1.5000000337909186e-01 2.1357880879737330e-17 1.2905106009285405e-17  1.5000001287570361e-01 5.2192126532167980e-17 1.1881946781597175e-16  1.5000002297618981e-01 3.8959822465138046e-17 3.1084280609731610e-16  1.5000002595844966e-01 1.2307231050416239e-19 3.1615402533488017e-16  1.5000001643141350e-01 5.3782157825214714e-17 7.0762398937559731e-17  1.4999999875465758e-01 1.2212022201765392e-16 2.8361149646351896e-17  1.4999998525539099e-01 6.4546702364715505e-17 1.8258761677680524e-16  1.4999998398049993e-01 1.5545748677051817e-18 1.3654058424582246e-16  1.4999999119889171e-01 1.8227775294037896e-17 2.2330705657886801e-17  1.4999999914677581e-01 3.5250665627635723e-17 1.4402541074419650e-18  1.5000000504536851e-01 1.4590290817815173e-17 2.3797153322120138e-17  1.5000000714265765e-01 3.1516225464505847e-19 2.8029877292635283e-17  1.5000000177496625e-01 1.4577548002836549e-17 3.0522129461888851e-22  1.4999999327416128e-01 6.8938961652078279e-18 3.9321583327014787e-17  1.4999999401290254e-01 2.3892726390606708e-18 1.5455999536265324e-17  1.5000000391442006e-01 9.7883797414188925e-18 2.0072227440696653e-17  1.5000000681869283e-01 4.9879963221647393e-20 2.6861072995437948e-17  1.4999999821758681e-01 5.8600895042437541e-18 7.3219407845266307e-18  1.4999999402971495e-01 9.3525521562720667e-19 2.3135521280901411e-17  1.5000000080641793e-01 2.5600108472667595e-18 2.8309081715407109e-18  1.5000000461256927e-01 1.1191341594562631e-18 1.4394388569972672e-17  1.4999999939079872e-01 1.0462035612905747e-18 1.6169210898939619e-18  1.4999999672191078e-01 7.5616016037835209e-19 7.1571340463188638e-18  1.5000000071943903e-01 4.7897353733419651e-19 1.3021062404398883e-18  1.5000000213577008e-01 3.7371441088469050e-19 2.8189586079845200e-18  1.4999999917126450e-01 2.6200719745854582e-19 1.0920242161644176e-18  1.4999999877499634e-01 1.3669108248022620e-19 7.8590750346654418e-19  1.5000000080907602e-01 1.5725586407387565e-19 7.6925622748379221e-19  1.5000000055716653e-01 3.0564798734810610e-20 1.0614611791207255e-19  1.4999999934216107e-01 8.8639490511983170e-20 4.0620451841079289e-19  1.4999999986984619e-01 1.3948829565888132e-21 4.0574409952389843e-23  1.5000000043657100e-01 4.0069132215567860e-20 1.4378700960051509e-19  1.4999999991649374e-01 1.6618022060723676e-21 2.1092515589835962e-20  1.4999999977939327e-01 1.2002816211128932e-20 2.6540111345842256e-20  1.5000000013941731e-01 4.4503776096222266e-21 2.3191052862756026e-20  1.5000000006388617e-01 1.5028479651271547e-21 6.0969968033052405e-22  1.4999999989240131e-01 3.2195827934225481e-21 9.4455134349643867e-21  1.5000000001651123e-01 1.1796779378856112e-23 1.1548882608205210e-21  1.5000000005083752e-01 9.8824853177858084e-22 1.3073199801709757e-21  1.4999999996427157e-01 3.2837976146673629e-22 1.4359394340005962e-21  1.4999999999203595e-01 6.8258632369386206e-23 2.0784739323808533e-24  1.5000000002368935e-01 2.2228457733518803e-22 3.8240977151528743e-22  1.4999999999033686e-01 1.6323292376220389e-23 1.5451635970770006e-22  1.4999999999332578e-01 3.4550841017805200e-23 7.3658823297102050e-24  1.5000000000926594e-01 3.5058744302341015e-23 6.8564456011586140e-23  1.4999999999750419e-01 3.6261288905293862e-25 1.6065590901728197e-23  1.4999999999684119e-01 8.0279910951171393e-24 2.5912382809012637e-24  1.5000000000345540e-01 5.2088423208181797e-24 1.0223167088770944e-23  1.4999999999919461e-01 8.3194432446153865e-27 2.1100153711333287e-24  1.4999999999881006e-01 1.3454566476346464e-24 3.3309144654181081e-25  1.5000000000129557e-01 8.4826759463876059e-25 1.3894108059776914e-24  1.4999999999961852e-01 8.8815363046521127e-27 3.7970807002843807e-25  1.4999999999964081e-01 1.7174493651971893e-25 1.2209619862266065e-26  1.5000000000048141e-01 1.5012170838000932e-25 1.6177962528613640e-25  1.4999999999978605e-01 1.1162005654353690e-26 7.7713235391107714e-26  1.4999999999993849e-01 1.2773097927136725e-26 1.2554886931036903e-27  1.5000000000016134e-01 2.4056611722237329e-26 1.1961993897943449e-26  1.4999999999988803e-01 6.6076949485372215e-27 1.3366737237387986e-26  1.5000000000002117e-01 2.8444141990890781e-29 2.6408016513595966e-27  1.5000000000003674e-01 2.2304628245027370e-27 8.6018997564969727e-29  1.4999999999995489e-01 1.9196040035218334e-27 1.1964178787937221e-27  1.5000000000002653e-01 3.7284524501668272e-28 8.7534610399715510e-28  1.4999999999999653e-01 4.6050339551222611e-30 1.6700672177402392e-28  1.4999999999999145e-01 1.4343199577330089e-28 1.3780622564964413e-30  1.5000000000001126e-01 1.4498521592185419e-28 5.9776702278380007e-29  1.4999999999999244e-01 4.8488662371949363e-29 5.8724816370056129e-29  1.5000000000000316e-01 4.5772371012276118e-30 2.1871556532648377e-29  1.5000000000000005e-01 1.1604510212280392e-30 1.4410984007914333e-30  1.4999999999999858e-01 3.4109965360420792e-30 6.4328939886516103e-32  1.5000000000000202e-01 3.6356435256261304e-30 1.8403998059185571e-30  1.4999999999999869e-01 2.0040409777489918e-30 1.4234947296031566e-30  1.5000000000000061e-01 7.9218300295564400e-31 6.9672004635895391e-31  1.4999999999999983e-01 2.1193544178584177e-33 3.4427003650919215e-31  1.5000000000000044e-01 9.3101379399643999e-33 7.6965659836519498e-33  1.5000000000000044e-01 1.8083666104201931e-32 2.0903431529041717e-31  1.5000000000000013e-01 1.3587662057115705e-31 1.4309571851555238e-33  1.5000000000000044e-01 2.4177630021429577e-33 1.9044149329126451e-32  1.5000000000000022e-01 1.5300814267952134e-32 7.1637970218772529e-32  1.5000000000000002e-01 1.0873977642569268e-33 4.8850116264776717e-32  1.5000000000000013e-01 2.9317019040225062e-32 4.5286500308471652e-33  1.5000000000000005e-01 0.0000000000000000e+00 3.8275481325112032e-32  1.4999999999999841e-01 0.0000000000000000e+00 6.6840043729701262e-31  1.5000000000000130e-01 2.1709827706951129e-31 1.7339849476164118e-31  1.5000000000000127e-01 2.1071735661187130e-30 1.7194739812919556e-30  1.4999999999999583e-01 4.7066935478659707e-30 1.5364922908397538e-29  1.4999999999999736e-01 1.5246989376171876e-30 1.3692552583599026e-29  1.5000000000001054e-01 7.1102815707326540e-31 4.5947182634130550e-29  1.5000000000006336e-01 8.2920330258143701e-27 4.2142796494800748e-27  1.5000000000049532e-01 1.8776605441325109e-25 3.1432720890871379e-25  1.5000000000237101e-01 2.4050657111494039e-24 7.7736231863480075e-24  1.5000000000840497e-01 2.3739234525999028e-23 1.0470709156295431e-22  1.5000000002533886e-01 1.5345045197834004e-22 9.9490910109007507e-22  1.5000000006591499e-01 6.7017072263737549e-22 6.8936971920417518e-21  1.5000000014768652e-01 2.2619656281254570e-21 3.4977089680717878e-20  1.5000000029227836e-01 6.7510276455990059e-21 1.3577798103095605e-19  1.5000000052992060e-01 2.1699755725295582e-20 4.2978021295891248e-19  1.5000000091198770e-01 8.7926735744918281e-20 1.1977870917389434e-18  1.5000000153437151e-01 3.6067555275489952e-19 3.2007826124115843e-18  1.5000000248943660e-01 9.4999376761203223e-19 8.1842296003335855e-18  1.5000000350134074e-01 7.7899383575524594e-19 1.6050814226205874e-17  1.5000000320694440e-01 4.6561268136243809e-19 1.2910123826338981e-17  1.4999999894832244e-01 1.8972729482157733e-17 2.5769402127660439e-18  1.4999998857619676e-01 7.7586429729702884e-17 1.9896283627991101e-16  1.4999997429104017e-01 1.0325136157085532e-16 9.5444498198295500e-16  1.4999996483056821e-01 2.2452072826426528e-17 1.6805942546007411e-15  1.4999997048731398e-01 3.6186118305361033e-17 1.0403162088586441e-15  1.4999999186057064e-01 2.1349065955712501e-16 2.8030409531155549e-17  1.5000001499292551e-01 2.0145222149123884e-16 4.7282549005163347e-16  1.5000002374072305e-01 3.3744207130231177e-17 8.8820864712559649e-16  1.5000001683375350e-01 1.1649786640359851e-17 3.6931233076449591e-16  1.5000000545594361e-01 6.5568471653499841e-17 2.1704664561035195e-17  1.4999999640644535e-01 5.4072250157722654e-17 3.6283285477940927e-17  1.4999999038060061e-01 4.9425572817974052e-18 1.5508613948460000e-16  1.4999999266247310e-01 1.6575817985679963e-17 6.9357704786833995e-17  1.5000000502528157e-01 3.1780439444049682e-17 5.6106306916600346e-17  1.5000001182400766e-01 1.8531783475059074e-19 2.1933384651011116e-16  1.5000000070738800e-01 2.2405926635113830e-17 5.2873518735882712e-20  1.4999998885643284e-01 7.6007733877815536e-18 2.0704739486749149e-16  1.4999999643100825e-01 7.5368916019622448e-18 1.3288050634716980e-17  1.5000000893989923e-01 9.8526087023280903e-18 1.3698119705827489e-16  1.5000000396274163e-01 1.6225177188876385e-18 1.9096101537446330e-17  1.4999999318719884e-01 7.1423329946653083e-18 8.0111336652790002e-17  1.4999999696010374e-01 2.7330744237069224e-19 1.1289879068192689e-17  1.5000000512521527e-01 4.0964108939079781e-18 4.4848327041928018e-17  1.5000000172683420e-01 7.0346970492678360e-20 3.2785158923155432e-18  1.4999999623136639e-01 2.0907888082414845e-18 2.3640730505690096e-17  1.4999999944231432e-01 6.1195310457620891e-20 1.8075156077788134e-19  1.5000000260354793e-01 9.6087382040625577e-19 1.0860204740767079e-17  1.4999999976682796e-01 8.8972912442271820e-20 2.3721572979544157e-19  1.4999999840458031e-01 3.6962249565483505e-19 3.8551553722989943e-18  1.5000000060459390e-01 1.0703582392696291e-19 7.6592362317097700e-19  1.5000000078895814e-01 9.9509575439132838e-20 8.5247569397615583e-19  1.4999999936469741e-01 9.0428074644307118e-20 7.1776116126871930e-19  1.4999999976395398e-01 1.0885043178149412e-20 5.4253351874810433e-20  1.5000000046586506e-01 5.0584166978110734e-20 3.4670121169955454e-19  1.4999999994247668e-01 4.5600714462889614e-22 1.2964211549996481e-20  1.4999999975847048e-01 1.6495555930970690e-20 8.1566697378863565e-20  1.5000000014463746e-01 4.7922394544455650e-21 3.9327241663184423e-20  1.5000000006507427e-01 1.9609908096911438e-21 3.8606905181433586e-21  1.4999999988660009e-01 3.9154706205420282e-21 2.0086420889873019e-20  1.5000000002428451e-01 4.2367342019696604e-23 1.7492769500818701e-21  1.5000000004850050e-01 1.0644787505998121e-21 2.8951395694858319e-21  1.4999999995911137e-01 4.9096636100380523e-22 2.8797881077021140e-21  1.4999999999815644e-01 3.0094862105550912e-23 1.0821750813229177e-23  1.5000000002295963e-01 2.5044141335447455e-22 7.0302379355521583e-22  1.4999999998644722e-01 4.8343053073360196e-23 3.4891655515531568e-22  1.4999999999673988e-01 1.7864160416635699e-23 2.6357845496368177e-24  1.5000000000930266e-01 4.4800301046694790e-23 1.1795276310792061e-22  1.4999999999525954e-01 5.5600523125195083e-24 4.5461178441228013e-23  1.4999999999854394e-01 3.8045933028972171e-24 5.9983755091229183e-25  1.5000000000351876e-01 7.4172758470095491e-24 1.6345623636568586e-23  1.4999999999810432e-01 1.0482666566802255e-24 7.1114760565979289e-24  1.4999999999965671e-01 4.3719818275945572e-25 8.5193771640018727e-29  1.5000000000124344e-01 1.1687625899370800e-24 1.8229972971384970e-24  1.4999999999916425e-01 2.9373236907584233e-25 1.2318764599275695e-24  1.5000000000006339e-01 1.3289154494285862e-26 6.1502997509953170e-26  1.5000000000037195e-01 1.5128603717360582e-25 1.2027707703710735e-25  1.4999999999964073e-01 8.3046209636770040e-26 1.8564961110980184e-25  1.5000000000013580e-01 3.5570633904542043e-27 4.6306997122491339e-26  1.5000000000005775e-01 9.2505551322052248e-27 2.5868740161084224e-28  1.4999999999987695e-01 1.5897040132366927e-26 1.5202615811708210e-26  1.5000000000009203e-01 5.7342819948899249e-27 1.2515696067535174e-26  1.4999999999997052e-01 1.5162710086011571e-28 2.5738638398133332e-27  1.4999999999