<?xml version="1.0"?>
<VTKFile type="UnstructuredGrid"  version="0.1"  >
<UnstructuredGrid>
<Piece  NumberOfPoints="10201" NumberOfCells="20000">
<Points>
<DataArray  type="Float64"  NumberOfComponents="3"  format="ascii">-5 -5 0  -4.9 -5 0  -4.8 -5 0  -4.7 -5 0  -4.6 -5 0  -4.5 -5 0  -4.4 -5 0  -4.3 -5 0  -4.2 -5 0  -4.1 -5 0  -4 -5 0  -3.9 -5 0  -3.8 -5 0  -3.7 -5 0  -3.6 -5 0  -3.5 -5 0  -3.4 -5 0  -3.3 -5 0  -3.2 -5 0  -3.1 -5 0  -3 -5 0  -2.9 -5 0  -2.8 -5 0  -2.7 -5 0  -2.6 -5 0  -2.5 -5 0  -2.4 -5 0  -2.3 -5 0  -2.2 -5 0  -2.1 -5 0  -2 -5 0  -1.9 -5 0  -1.8 -5 0  -1.7 -5 0  -1.6 -5 0  -1.5 -5 0  -1.4 -5 0  -1.3 -5 0  -1.2 -5 0  -1.1 -5 0  -1 -5 0  -0.9000000000000004 -5 0  -0.7999999999999998 -5 0  -0.7000000000000002 -5 0  -0.5999999999999996 -5 0  -0.5 -5 0  -0.4000000000000004 -5 0  -0.2999999999999998 -5 0  -0.2000000000000002 -5 0  -0.09999999999999964 -5 0  0 -5 0  0.09999999999999964 -5 0  0.2000000000000002 -5 0  0.2999999999999998 -5 0  0.4000000000000004 -5 0  0.5 -5 0  0.5999999999999996 -5 0  0.7000000000000002 -5 0  0.7999999999999998 -5 0  0.9000000000000004 -5 0  1 -5 0  1.1 -5 0  1.2 -5 0  1.3 -5 0  1.4 -5 0  1.5 -5 0  1.6 -5 0  1.7 -5 0  1.8 -5 0  1.9 -5 0  2 -5 0  2.1 -5 0  2.2 -5 0  2.3 -5 0  2.4 -5 0  2.5 -5 0  2.6 -5 0  2.7 -5 0  2.8 -5 0  2.9 -5 0  3 -5 0  3.1 -5 0  3.199999999999999 -5 0  3.300000000000001 -5 0  3.4 -5 0  3.5 -5 0  3.6 -5 0  3.699999999999999 -5 0  3.800000000000001 -5 0  3.9 -5 0  4 -5 0  4.1 -5 0  4.199999999999999 -5 0  4.300000000000001 -5 0  4.4 -5 0  4.5 -5 0  4.6 -5 0  4.699999999999999 -5 0  4.800000000000001 -5 0  4.9 -5 0  5 -5 0  -5 -4.9 0  -4.9 -4.9 0  -4.8 -4.9 0  -4.7 -4.9 0  -4.6 -4.9 0  -4.5 -4.9 0  -4.4 -4.9 0  -4.3 -4.9 0  -4.2 -4.9 0  -4.1 -4.9 0  -4 -4.9 0  -3.9 -4.9 0  -3.8 -4.9 0  -3.7 -4.9 0  -3.6 -4.9 0  -3.5 -4.9 0  -3.4 -4.9 0  -3.3 -4.9 0  -3.2 -4.9 0  -3.1 -4.9 0  -3 -4.9 0  -2.9 -4.9 0  -2.8 -4.9 0  -2.7 -4.9 0  -2.6 -4.9 0  -2.5 -4.9 0  -2.4 -4.9 0  -2.3 -4.9 0  -2.2 -4.9 0  -2.1 -4.9 0  -2 -4.9 0  -1.9 -4.9 0  -1.8 -4.9 0  -1.7 -4.9 0  -1.6 -4.9 0  -1.5 -4.9 0  -1.4 -4.9 0  -1.3 -4.9 0  -1.2 -4.9 0  -1.1 -4.9 0  -1 -4.9 0  -0.9000000000000004 -4.9 0  -0.7999999999999998 -4.9 0  -0.7000000000000002 -4.9 0  -0.5999999999999996 -4.9 0  -0.5 -4.9 0  -0.4000000000000004 -4.9 0  -0.2999999999999998 -4.9 0  -0.2000000000000002 -4.9 0  -0.09999999999999964 -4.9 0  0 -4.9 0  0.09999999999999964 -4.9 0  0.2000000000000002 -4.9 0  0.2999999999999998 -4.9 0  0.4000000000000004 -4.9 0  0.5 -4.9 0  0.5999999999999996 -4.9 0  0.7000000000000002 -4.9 0  0.7999999999999998 -4.9 0  0.9000000000000004 -4.9 0  1 -4.9 0  1.1 -4.9 0  1.2 -4.9 0  1.3 -4.9 0  1.4 -4.9 0  1.5 -4.9 0  1.6 -4.9 0  1.7 -4.9 0  1.8 -4.9 0  1.9 -4.9 0  2 -4.9 0  2.1 -4.9 0  2.2 -4.9 0  2.3 -4.9 0  2.4 -4.9 0  2.5 -4.9 0  2.6 -4.9 0  2.7 -4.9 0  2.8 -4.9 0  2.9 -4.9 0  3 -4.9 0  3.1 -4.9 0  3.199999999999999 -4.9 0  3.300000000000001 -4.9 0  3.4 -4.9 0  3.5 -4.9 0  3.6 -4.9 0  3.699999999999999 -4.9 0  3.800000000000001 -4.9 0  3.9 -4.9 0  4 -4.9 0  4.1 -4.9 0  4.199999999999999 -4.9 0  4.300000000000001 -4.9 0  4.4 -4.9 0  4.5 -4.9 0  4.6 -4.9 0  4.699999999999999 -4.9 0  4.800000000000001 -4.9 0  4.9 -4.9 0  5 -4.9 0  -5 -4.8 0  -4.9 -4.8 0  -4.8 -4.8 0  -4.7 -4.8 0  -4.6 -4.8 0  -4.5 -4.8 0  -4.4 -4.8 0  -4.3 -4.8 0  -4.2 -4.8 0  -4.1 -4.8 0  -4 -4.8 0  -3.9 -4.8 0  -3.8 -4.8 0  -3.7 -4.8 0  -3.6 -4.8 0  -3.5 -4.8 0  -3.4 -4.8 0  -3.3 -4.8 0  -3.2 -4.8 0  -3.1 -4.8 0  -3 -4.8 0  -2.9 -4.8 0  -2.8 -4.8 0  -2.7 -4.8 0  -2.6 -4.8 0  -2.5 -4.8 0  -2.4 -4.8 0  -2.3 -4.8 0  -2.2 -4.8 0  -2.1 -4.8 0  -2 -4.8 0  -1.9 -4.8 0  -1.8 -4.8 0  -1.7 -4.8 0  -1.6 -4.8 0  -1.5 -4.8 0  -1.4 -4.8 0  -1.3 -4.8 0  -1.2 -4.8 0  -1.1 -4.8 0  -1 -4.8 0  -0.9000000000000004 -4.8 0  -0.7999999999999998 -4.8 0  -0.7000000000000002 -4.8 0  -0.5999999999999996 -4.8 0  -0.5 -4.8 0  -0.4000000000000004 -4.8 0  -0.2999999999999998 -4.8 0  -0.2000000000000002 -4.8 0  -0.09999999999999964 -4.8 0  0 -4.8 0  0.09999999999999964 -4.8 0  0.2000000000000002 -4.8 0  0.2999999999999998 -4.8 0  0.4000000000000004 -4.8 0  0.5 -4.8 0  0.5999999999999996 -4.8 0  0.7000000000000002 -4.8 0  0.7999999999999998 -4.8 0  0.9000000000000004 -4.8 0  1 -4.8 0  1.1 -4.8 0  1.2 -4.8 0  1.3 -4.8 0  1.4 -4.8 0  1.5 -4.8 0  1.6 -4.8 0  1.7 -4.8 0  1.8 -4.8 0  1.9 -4.8 0  2 -4.8 0  2.1 -4.8 0  2.2 -4.8 0  2.3 -4.8 0  2.4 -4.8 0  2.5 -4.8 0  2.6 -4.8 0  2.7 -4.8 0  2.8 -4.8 0  2.9 -4.8 0  3 -4.8 0  3.1 -4.8 0  3.199999999999999 -4.8 0  3.300000000000001 -4.8 0  3.4 -4.8 0  3.5 -4.8 0  3.6 -4.8 0  3.699999999999999 -4.8 0  3.800000000000001 -4.8 0  3.9 -4.8 0  4 -4.8 0  4.1 -4.8 0  4.199999999999999 -4.8 0  4.300000000000001 -4.8 0  4.4 -4.8 0  4.5 -4.8 0  4.6 -4.8 0  4.699999999999999 -4.8 0  4.800000000000001 -4.8 0  4.9 -4.8 0  5 -4.8 0  -5 -4.7 0  -4.9 -4.7 0  -4.8 -4.7 0  -4.7 -4.7 0  -4.6 -4.7 0  -4.5 -4.7 0  -4.4 -4.7 0  -4.3 -4.7 0  -4.2 -4.7 0  -4.1 -4.7 0  -4 -4.7 0  -3.9 -4.7 0  -3.8 -4.7 0  -3.7 -4.7 0  -3.6 -4.7 0  -3.5 -4.7 0  -3.4 -4.7 0  -3.3 -4.7 0  -3.2 -4.7 0  -3.1 -4.7 0  -3 -4.7 0  -2.9 -4.7 0  -2.8 -4.7 0  -2.7 -4.7 0  -2.6 -4.7 0  -2.5 -4.7 0  -2.4 -4.7 0  -2.3 -4.7 0  -2.2 -4.7 0  -2.1 -4.7 0  -2 -4.7 0  -1.9 -4.7 0  -1.8 -4.7 0  -1.7 -4.7 0  -1.6 -4.7 0  -1.5 -4.7 0  -1.4 -4.7 0  -1.3 -4.7 0  -1.2 -4.7 0  -1.1 -4.7 0  -1 -4.7 0  -0.9000000000000004 -4.7 0  -0.7999999999999998 -4.7 0  -0.7000000000000002 -4.7 0  -0.5999999999999996 -4.7 0  -0.5 -4.7 0  -0.4000000000000004 -4.7 0  -0.2999999999999998 -4.7 0  -0.2000000000000002 -4.7 0  -0.09999999999999964 -4.7 0  0 -4.7 0  0.09999999999999964 -4.7 0  0.2000000000000002 -4.7 0  0.2999999999999998 -4.7 0  0.4000000000000004 -4.7 0  0.5 -4.7 0  0.5999999999999996 -4.7 0  0.7000000000000002 -4.7 0  0.7999999999999998 -4.7 0  0.9000000000000004 -4.7 0  1 -4.7 0  1.1 -4.7 0  1.2 -4.7 0  1.3 -4.7 0  1.4 -4.7 0  1.5 -4.7 0  1.6 -4.7 0  1.7 -4.7 0  1.8 -4.7 0  1.9 -4.7 0  2 -4.7 0  2.1 -4.7 0  2.2 -4.7 0  2.3 -4.7 0  2.4 -4.7 0  2.5 -4.7 0  2.6 -4.7 0  2.7 -4.7 0  2.8 -4.7 0  2.9 -4.7 0  3 -4.7 0  3.1 -4.7 0  3.199999999999999 -4.7 0  3.300000000000001 -4.7 0  3.4 -4.7 0  3.5 -4.7 0  3.6 -4.7 0  3.699999999999999 -4.7 0  3.800000000000001 -4.7 0  3.9 -4.7 0  4 -4.7 0  4.1 -4.7 0  4.199999999999999 -4.7 0  4.300000000000001 -4.7 0  4.4 -4.7 0  4.5 -4.7 0  4.6 -4.7 0  4.699999999999999 -4.7 0  4.800000000000001 -4.7 0  4.9 -4.7 0  5 -4.7 0  -5 -4.6 0  -4.9 -4.6 0  -4.8 -4.6 0  -4.7 -4.6 0  -4.6 -4.6 0  -4.5 -4.6 0  -4.4 -4.6 0  -4.3 -4.6 0  -4.2 -4.6 0  -4.1 -4.6 0  -4 -4.6 0  -3.9 -4.6 0  -3.8 -4.6 0  -3.7 -4.6 0  -3.6 -4.6 0  -3.5 -4.6 0  -3.4 -4.6 0  -3.3 -4.6 0  -3.2 -4.6 0  -3.1 -4.6 0  -3 -4.6 0  -2.9 -4.6 0  -2.8 -4.6 0  -2.7 -4.6 0  -2.6 -4.6 0  -2.5 -4.6 0  -2.4 -4.6 0  -2.3 -4.6 0  -2.2 -4.6 0  -2.1 -4.6 0  -2 -4.6 0  -1.9 -4.6 0  -1.8 -4.6 0  -1.7 -4.6 0  -1.6 -4.6 0  -1.5 -4.6 0  -1.4 -4.6 0  -1.3 -4.6 0  -1.2 -4.6 0  -1.1 -4.6 0  -1 -4.6 0  -0.9000000000000004 -4.6 0  -0.7999999999999998 -4.6 0  -0.7000000000000002 -4.6 0  -0.5999999999999996 -4.6 0  -0.5 -4.6 0  -0.4000000000000004 -4.6 0  -0.2999999999999998 -4.6 0  -0.2000000000000002 -4.6 0  -0.09999999999999964 -4.6 0  0 -4.6 0  0.09999999999999964 -4.6 0  0.2000000000000002 -4.6 0  0.2999999999999998 -4.6 0  0.4000000000000004 -4.6 0  0.5 -4.6 0  0.5999999999999996 -4.6 0  0.7000000000000002 -4.6 0  0.7999999999999998 -4.6 0  0.9000000000000004 -4.6 0  1 -4.6 0  1.1 -4.6 0  1.2 -4.6 0  1.3 -4.6 0  1.4 -4.6 0  1.5 -4.6 0  1.6 -4.6 0  1.7 -4.6 0  1.8 -4.6 0  1.9 -4.6 0  2 -4.6 0  2.1 -4.6 0  2.2 -4.6 0  2.3 -4.6 0  2.4 -4.6 0  2.5 -4.6 0  2.6 -4.6 0  2.7 -4.6 0  2.8 -4.6 0  2.9 -4.6 0  3 -4.6 0  3.1 -4.6 0  3.199999999999999 -4.6 0  3.300000000000001 -4.6 0  3.4 -4.6 0  3.5 -4.6 0  3.6 -4.6 0  3.699999999999999 -4.6 0  3.800000000000001 -4.6 0  3.9 -4.6 0  4 -4.6 0  4.1 -4.6 0  4.199999999999999 -4.6 0  4.300000000000001 -4.6 0  4.4 -4.6 0  4.5 -4.6 0  4.6 -4.6 0  4.699999999999999 -4.6 0  4.800000000000001 -4.6 0  4.9 -4.6 0  5 -4.6 0  -5 -4.5 0  -4.9 -4.5 0  -4.8 -4.5 0  -4.7 -4.5 0  -4.6 -4.5 0  -4.5 -4.5 0  -4.4 -4.5 0  -4.3 -4.5 0  -4.2 -4.5 0  -4.1 -4.5 0  -4 -4.5 0  -3.9 -4.5 0  -3.8 -4.5 0  -3.7 -4.5 0  -3.6 -4.5 0  -3.5 -4.5 0  -3.4 -4.5 0  -3.3 -4.5 0  -3.2 -4.5 0  -3.1 -4.5 0  -3 -4.5 0  -2.9 -4.5 0  -2.8 -4.5 0  -2.7 -4.5 0  -2.6 -4.5 0  -2.5 -4.5 0  -2.4 -4.5 0  -2.3 -4.5 0  -2.2 -4.5 0  -2.1 -4.5 0  -2 -4.5 0  -1.9 -4.5 0  -1.8 -4.5 0  -1.7 -4.5 0  -1.6 -4.5 0  -1.5 -4.5 0  -1.4 -4.5 0  -1.3 -4.5 0  -1.2 -4.5 0  -1.1 -4.5 0  -1 -4.5 0  -0.9000000000000004 -4.5 0  -0.7999999999999998 -4.5 0  -0.7000000000000002 -4.5 0  -0.5999999999999996 -4.5 0  -0.5 -4.5 0  -0.4000000000000004 -4.5 0  -0.2999999999999998 -4.5 0  -0.2000000000000002 -4.5 0  -0.09999999999999964 -4.5 0  0 -4.5 0  0.09999999999999964 -4.5 0  0.2000000000000002 -4.5 0  0.2999999999999998 -4.5 0  0.4000000000000004 -4.5 0  0.5 -4.5 0  0.5999999999999996 -4.5 0  0.7000000000000002 -4.5 0  0.7999999999999998 -4.5 0  0.9000000000000004 -4.5 0  1 -4.5 0  1.1 -4.5 0  1.2 -4.5 0  1.3 -4.5 0  1.4 -4.5 0  1.5 -4.5 0  1.6 -4.5 0  1.7 -4.5 0  1.8 -4.5 0  1.9 -4.5 0  2 -4.5 0  2.1 -4.5 0  2.2 -4.5 0  2.3 -4.5 0  2.4 -4.5 0  2.5 -4.5 0  2.6 -4.5 0  2.7 -4.5 0  2.8 -4.5 0  2.9 -4.5 0  3 -4.5 0  3.1 -4.5 0  3.199999999999999 -4.5 0  3.300000000000001 -4.5 0  3.4 -4.5 0  3.5 -4.5 0  3.6 -4.5 0  3.699999999999999 -4.5 0  3.800000000000001 -4.5 0  3.9 -4.5 0  4 -4.5 0  4.1 -4.5 0  4.199999999999999 -4.5 0  4.300000000000001 -4.5 0  4.4 -4.5 0  4.5 -4.5 0  4.6 -4.5 0  4.699999999999999 -4.5 0  4.800000000000001 -4.5 0  4.9 -4.5 0  5 -4.5 0  -5 -4.4 0  -4.9 -4.4 0  -4.8 -4.4 0  -4.7 -4.4 0  -4.6 -4.4 0  -4.5 -4.4 0  -4.4 -4.4 0  -4.3 -4.4 0  -4.2 -4.4 0  -4.1 -4.4 0  -4 -4.4 0  -3.9 -4.4 0  -3.8 -4.4 0  -3.7 -4.4 0  -3.6 -4.4 0  -3.5 -4.4 0  -3.4 -4.4 0  -3.3 -4.4 0  -3.2 -4.4 0  -3.1 -4.4 0  -3 -4.4 0  -2.9 -4.4 0  -2.8 -4.4 0  -2.7 -4.4 0  -2.6 -4.4 0  -2.5 -4.4 0  -2.4 -4.4 0  -2.3 -4.4 0  -2.2 -4.4 0  -2.1 -4.4 0  -2 -4.4 0  -1.9 -4.4 0  -1.8 -4.
[...]
<PointData  Vectors="f_17"> 
<DataArray  type="Float64"  Name="f_17"  NumberOfComponents="3" format="ascii">1.5000000000000022e-01 0.0000000000000000e+00 0.0000000000000000e+00  1.5000000000000005e-01 1.4492371800917259e-17 0.0000000000000000e+00  1.5000000000000005e-01 1.9944472185211172e-17 0.0000000000000000e+00  1.5000000000000016e-01 -1.0029950085547677e-16 0.0000000000000000e+00  1.5000000000000005e-01 4.7660676091316779e-16 0.0000000000000000e+00  1.4999999999999999e-01 1.3925432592933061e-16 0.0000000000000000e+00  1.5000000000000024e-01 -2.6888875926535834e-16 0.0000000000000000e+00  1.4999999999999969e-01 3.0998861083185401e-16 0.0000000000000000e+00  1.5000000000000008e-01 1.7976946857679857e-16 0.0000000000000000e+00  1.5000000000000013e-01 1.0135011883792402e-17 0.0000000000000000e+00  1.5000000000000002e-01 -1.1569039672958465e-16 0.0000000000000000e+00  1.4999999999999999e-01 3.5590909071095745e-16 0.0000000000000000e+00  1.4999999999999994e-01 -1.6725780793297630e-16 0.0000000000000000e+00  1.4999999999999999e-01 7.6573799237210539e-17 0.0000000000000000e+00  1.4999999999999952e-01 9.5893576731735083e-16 0.0000000000000000e+00  1.4999999999999827e-01 5.4277354664211554e-16 0.0000000000000000e+00  1.4999999999999750e-01 -4.3474186202724458e-16 0.0000000000000000e+00  1.4999999999999999e-01 -1.1096015049998857e-14 0.0000000000000000e+00  1.5000000000001409e-01 -2.8881638418663465e-14 0.0000000000000000e+00  1.5000000000004052e-01 -1.5331812836096401e-15 0.0000000000000000e+00  1.5000000000000244e-01 1.8322392460882179e-13 0.0000000000000000e+00  1.4999999999968130e-01 5.5923878884046270e-13 0.0000000000000000e+00  1.4999999999886304e-01 9.1459891799532123e-13 0.0000000000000000e+00  1.4999999999774088e-01 8.4501080230735692e-13 0.0000000000000000e+00  1.4999999999708929e-01 1.6058212968993383e-13 0.0000000000000000e+00  1.4999999999765340e-01 -7.7959397673430228e-13 0.0000000000000000e+00  1.4999999999920921e-01 -1.2753015853421763e-12 0.0000000000000000e+00  1.5000000000056898e-01 -9.6046876238510524e-13 0.0000000000000000e+00  1.5000000000081962e-01 -1.8847758799253094e-13 0.0000000000000000e+00  1.5000000000026684e-01 3.4287869895179985e-13 0.0000000000000000e+00  1.4999999999983796e-01 3.1735162428193365e-13 0.0000000000000000e+00  1.4999999999987998e-01 2.9680933464930802e-14 0.0000000000000000e+00  1.5000000000003469e-01 -1.0589773863784080e-13 0.0000000000000000e+00  1.5000000000002314e-01 -3.2704425712963923e-14 0.0000000000000000e+00  1.4999999999996794e-01 3.4500726633930056e-14 0.0000000000000000e+00  1.4999999999999677e-01 7.4881428770991783e-15 0.0000000000000000e+00  1.5000000000002858e-01 -2.0991998638605626e-14 0.0000000000000000e+00  1.5000000000000174e-01 9.0020482058145146e-16 0.0000000000000000e+00  1.4999999999998098e-01 1.5171272327615658e-14 0.0000000000000000e+00  1.4999999999999916e-01 -1.4205734939817081e-15 0.0000000000000000e+00  1.5000000000001099e-01 -1.0001848969938444e-14 0.0000000000000000e+00  1.4999999999999980e-01 1.3896736663446989e-15 0.0000000000000000e+00  1.4999999999999433e-01 5.3025993834262508e-15 0.0000000000000000e+00  1.5000000000000102e-01 -1.2231628461891041e-15 0.0000000000000000e+00  1.5000000000000271e-01 -2.8633737596007531e-15 0.0000000000000000e+00  1.4999999999999905e-01 1.2517589081263138e-15 0.0000000000000000e+00  1.4999999999999919e-01 9.4426691377089596e-16 0.0000000000000000e+00  1.5000000000000072e-01 -1.3084802561262688e-15 0.0000000000000000e+00  1.5000000000000024e-01 -1.4714456322494143e-16 0.0000000000000000e+00  1.4999999999999986e-01 4.1241127902699603e-16 0.0000000000000000e+00  1.5000000000000011e-01 1.6800974889947007e-16 0.0000000000000000e+00  1.5000000000000024e-01 1.8397240270690764e-16 0.0000000000000000e+00  1.4999999999999986e-01 1.9552645184724257e-16 0.0000000000000000e+00  1.5000000000000011e-01 -4.5281310874131433e-16 0.0000000000000000e+00  1.5000000000000033e-01 1.9698770076370255e-16 0.0000000000000000e+00  1.4999999999999986e-01 -2.1629855896118151e-16 0.0000000000000000e+00  1.5000000000000002e-01 -2.0390534898802820e-16 0.0000000000000000e+00  1.5000000000000011e-01 9.3184030622972905e-17 0.0000000000000000e+00  1.5000000000000036e-01 3.5492935670270415e-16 0.0000000000000000e+00  1.5000000000000002e-01 2.6913317062515483e-16 0.0000000000000000e+00  1.5000000000000002e-01 -9.8018789946011835e-17 0.0000000000000000e+00  1.5000000000000002e-01 -1.8385734731626203e-17 0.0000000000000000e+00  1.5000000000000005e-01 7.4209279046255427e-17 0.0000000000000000e+00  1.5000000000000002e-01 -1.4595641019325432e-16 0.0000000000000000e+00  1.5000000000000008e-01 -1.1564033040714027e-16 0.0000000000000000e+00  1.5000000000000008e-01 -6.3510402269665501e-16 0.0000000000000000e+00  1.5000000000000008e-01 -6.8068614646196481e-17 0.0000000000000000e+00  1.5000000000000008e-01 -3.8014680296130042e-16 0.0000000000000000e+00  1.5000000000000016e-01 6.8006547525258838e-16 0.0000000000000000e+00  1.5000000000000002e-01 4.4782441469070373e-17 0.0000000000000000e+00  1.5000000000000024e-01 3.2549595259633462e-17 0.0000000000000000e+00  1.5000000000000005e-01 2.1316155806147317e-16 0.0000000000000000e+00  1.5000000000000005e-01 6.0111025534346252e-16 0.0000000000000000e+00  1.4999999999999997e-01 -4.6921611653500114e-18 0.0000000000000000e+00  1.4999999999999999e-01 -3.4515534231306750e-16 0.0000000000000000e+00  1.5000000000000011e-01 3.5160183122150610e-16 0.0000000000000000e+00  1.5000000000000013e-01 -1.9535053789060826e-16 0.0000000000000000e+00  1.4999999999999991e-01 4.2268824819928367e-16 0.0000000000000000e+00  1.5000000000000005e-01 -4.5784357841388501e-16 0.0000000000000000e+00  1.5000000000000011e-01 -6.8725402167364608e-17 0.0000000000000000e+00  1.5000000000000016e-01 -3.7975070963077205e-16 0.0000000000000000e+00  1.4999999999999997e-01 2.7238389296928575e-16 0.0000000000000000e+00  1.4999999999999999e-01 -4.1466013003319437e-16 0.0000000000000000e+00  1.5000000000000019e-01 -1.3131804105069120e-16 0.0000000000000000e+00  1.4999999999999999e-01 9.2578485565920880e-16 0.0000000000000000e+00  1.4999999999999997e-01 3.6417392245172935e-16 0.0000000000000000e+00  1.5000000000000002e-01 -3.7770001055772271e-17 0.0000000000000000e+00  1.4999999999999994e-01 -4.2824381956316206e-17 0.0000000000000000e+00  1.5000000000000005e-01 -2.4665005721297179e-16 0.0000000000000000e+00  1.4999999999999994e-01 -1.0591526377596703e-16 0.0000000000000000e+00  1.4999999999999999e-01 -5.4140701257145404e-16 0.0000000000000000e+00  1.5000000000000002e-01 -9.4976516592025711e-17 0.0000000000000000e+00  1.4999999999999997e-01 -5.0552484988839343e-16 0.0000000000000000e+00  1.5000000000000019e-01 5.9221312486297056e-16 0.0000000000000000e+00  1.5000000000000002e-01 4.2934830849786410e-16 0.0000000000000000e+00  1.5000000000000002e-01 4.0034287869889266e-17 0.0000000000000000e+00  1.5000000000000008e-01 -4.4694536176894479e-16 0.0000000000000000e+00  1.4999999999999986e-01 -8.7573647229917798e-17 0.0000000000000000e+00  1.4999999999999999e-01 -3.8653023296601469e-17 0.0000000000000000e+00  1.5000000000000008e-01 1.3159035695550734e-16 0.0000000000000000e+00  1.4999999999999991e-01 0.0000000000000000e+00 0.0000000000000000e+00  1.4999999999999999e-01 0.0000000000000000e+00 -7.8785519780032578e-16  1.4999999999999999e-01 7.4155790792904322e-17 2.6670248634546289e-16  1.5000000000000005e-01 -1.3000675166907315e-16 -7.3888767095885790e-17  1.5000000000000005e-01 -6.6625505949883500e-16 2.0781472244617248e-16  1.5000000000000005e-01 1.9458766867698158e-16 -2.9661337169293932e-16  1.5000000000000008e-01 -1.9183007857155287e-16 -1.4760160505482436e-16  1.5000000000000005e-01 5.3056329603517433e-16 -3.3704214089809690e-16  1.5000000000000008e-01 -3.1730283093874017e-16 -6.4866555664736204e-17  1.5000000000000016e-01 4.1473737031402067e-16 -4.2503830974738993e-17  1.4999999999999999e-01 3.5179118167305154e-17 4.5489579069602225e-18  1.5000000000000002e-01 -2.3036781637512066e-17 8.1202017535667572e-18  1.5000000000000002e-01 2.9760701808520622e-16 1.8547992922419575e-16  1.5000000000000005e-01 2.3179938598046965e-16 -7.5586065681974473e-17  1.4999999999999999e-01 -2.2346975483731401e-16 -5.8410394943971523e-17  1.5000000000000022e-01 -5.1378680061351675e-16 6.9666554870046540e-16  1.5000000000000160e-01 -1.4885067673802274e-15 3.6793313060332866e-15  1.5000000000000338e-01 -1.4667453117936106e-15 8.3925989722793048e-15  1.5000000000000288e-01 5.7964519887811020e-15 8.2896783007338471e-15  1.4999999999999322e-01 2.7513595329154261e-14 -1.7751994980584474e-14  1.4999999999996355e-01 3.5340775347724741e-14 -9.4556116393446707e-14  1.4999999999995642e-01 -9.9494498599682264e-14 -1.0076137023689067e-13  1.5000000000017502e-01 -5.0347205435214935e-13 4.7998857010680192e-13  1.5000000000094565e-01 -1.0487351312500905e-12 2.4186902608507915e-12  1.5000000000230762e-01 -1.2492612120644764e-12 5.7017195303489483e-12  1.5000000000354716e-01 -6.4990902611311525e-13 8.4863546381531228e-12  1.5000000000352490e-01 5.6416510149785789e-13 8.0697713737051108e-12  1.5000000000190067e-01 1.5356475780084240e-12 3.9054256014941105e-12  1.4999999999982702e-01 1.5155885604939953e-12 -9.7987130257007691e-13  1.4999999999887265e-01 6.3526510129464719e-13 -2.8895432523434480e-12  1.4999999999931457e-01 -2.5156686042705879e-13 -1.5159858915750422e-12  1.5000000000006425e-01 -4.8492435416527787e-13 3.0422961692533291e-13  1.5000000000023084e-01 -1.8465853340321856e-13 5.6774728854955510e-13  1.5000000000001384e-01 9.6861839311145251e-14 -1.0821364159460000e-14  1.4999999999994187e-01 9.1556473638169111e-14 -1.3932051224214525e-13  1.5000000000002758e-01 -2.0332681948467021e-14 8.7393715109214120e-14  1.5000000000002939e-01 -2.9720125940331256e-14 6.3298581111315723e-14  1.4999999999996680e-01 1.8165941398755955e-14 -9.4918049389032453e-14  1.4999999999997771e-01 1.3636360272110720e-14 -4.8212797779344206e-14  1.5000000000002328e-01 -1.6507138257024551e-14 6.5818650481147617e-14  1.5000000000001429e-01 -8.7359016303661675e-15 3.0829235251510287e-14  1.4999999999998620e-01 1.2030246691768568e-14 -3.9486126451071007e-14  1.4999999999999283e-01 4.8941995407417776e-15 -1.4946425053087719e-14  1.5000000000000802e-01 -8.0175476955200967e-15 2.1740761725761663e-14  1.5000000000000280e-01 -2.0377631594691818e-15 4.9167386413856765e-15  1.4999999999999569e-01 4.2264104459869856e-15 -1.2022071624565682e-14  1.4999999999999955e-01 3.7997996202120158e-16 -1.9341916800766586e-16  1.5000000000000219e-01 -2.1750033115842443e-15 5.2455016514737060e-15  1.4999999999999966e-01 4.1922870312358020e-16 -1.3874704158910351e-15  1.4999999999999922e-01 1.1572443243085128e-15 -1.6260369312973467e-15  1.5000000000000041e-01 -4.8130951125977361e-16 9.3754457129427897e-16  1.5000000000000024e-01 -3.6344992276485348e-16 4.8388195359412900e-16  1.4999999999999986e-01 8.2741558488670039e-16 -5.5208349784869383e-16  1.5000000000000008e-01 1.3878378700385921e-17 -2.6117306411825556e-16  1.5000000000000016e-01 -2.0551647594056756e-16 3.7147368906984738e-16  1.5000000000000008e-01 1.4741304069662887e-16 1.8413009854402282e-16  1.5000000000000005e-01 3.7933861447222732e-16 -3.6491790440908146e-16  1.5000000000000005e-01 6.4034162606941329e-17 3.2712879742243734e-16  1.5000000000000002e-01 -4.6056402561874088e-16 1.5966631179222099e-16  1.5000000000000005e-01 7.5426392716101070e-17 -1.0923520895381362e-16  1.5000000000000008e-01 4.7319639824835465e-17 1.5896832356925491e-16  1.5000000000000002e-01 -2.4768739339024365e-16 -1.7649603345030098e-16  1.5000000000000005e-01 -1.8889783374435062e-16 -3.4000129606875237e-16  1.5000000000000005e-01 1.2124338074052708e-17 -1.8180497522173981e-16  1.5000000000000008e-01 -3.1070777917330895e-16 1.0102974916505151e-16  1.5000000000000008e-01 -1.8695791830517451e-16 -4.0641219337135251e-17  1.5000000000000008e-01 -1.7755225962269772e-16 3.5676834433523429e-16  1.5000000000000011e-01 -6.1132882009007505e-17 2.3456869949108460e-16  1.4999999999999999e-01 1.8743650493416695e-16 2.8026107009765067e-16  1.5000000000000008e-01 3.4052011555066508e-16 6.0846729523144232e-16  1.5000000000000002e-01 2.6983953935749877e-16 -1.4587490102668361e-16  1.4999999999999991e-01 6.8940830569558660e-18 -1.1928719165262778e-16  1.5000000000000008e-01 7.8770931612153630e-17 1.1871291310054248e-16  1.5000000000000005e-01 1.0879661556385100e-16 6.5200105592527266e-17  1.4999999999999999e-01 3.0832171227485021e-16 -3.4537191772672491e-16  1.5000000000000005e-01 -3.5845686248731190e-16 -1.3287939569636222e-16  1.5000000000000002e-01 2.0047387672091025e-18 4.9680729297178273e-17  1.5000000000000008e-01 -6.2659292959099678e-16 1.4955205826831020e-16  1.5000000000000016e-01 -3.9148098549376453e-16 -1.6424870432434265e-16  1.5000000000000005e-01 -1.3080680845186225e-17 -1.0184983732773356e-16  1.5000000000000013e-01 4.6112086089059737e-16 -1.5706774831934687e-16  1.5000000000000005e-01 1.8002198624516054e-16 4.6819401574600096e-17  1.5000000000000016e-01 2.6533062537460559e-16 3.8714079401475784e-17  1.5000000000000013e-01 -1.3557069812139887e-16 -1.4400687985742482e-16  1.5000000000000008e-01 6.6687358361314229e-17 -4.9496704755163549e-18  1.5000000000000005e-01 -2.9090598646054916e-17 1.7742788979836044e-16  1.5000000000000008e-01 -5.3628874279854908e-17 -4.3730040914512263e-16  1.5000000000000002e-01 2.8210790667474055e-16 -5.0221434967897706e-17  1.5000000000000005e-01 -6.1157750010987911e-17 -9.7118050099222623e-17  1.5000000000000008e-01 2.2514572561213210e-17 1.5985933892510160e-16  1.4999999999999999e-01 4.7675746111167445e-17 2.7955380600688316e-16  1.5000000000000005e-01 -4.0452613449226619e-16 1.6764400708043106e-16  1.4999999999999999e-01 1.6281332562502092e-16 1.1811081015976875e-16  1.5000000000000033e-01 1.8860696188015969e-16 3.0714688056088554e-17  1.5000000000000016e-01 2.0076925090137105e-16 6.4728905500755402e-16  1.5000000000000005e-01 -1.1316633024546323e-16 1.3060312149538600e-16  1.5000000000000005e-01 9.8138212101279517e-17 -7.7303111230785642e-17  1.4999999999999991e-01 1.1923921245964216e-16 -1.5464543939076363e-16  1.5000000000000002e-01 -2.7300902781766250e-16 1.1673654936354634e-16  1.5000000000000016e-01 1.7326425062885596e-16 2.5267264461187570e-17  1.5000000000000005e-01 6.4141791140199181e-17 -5.2066010640217003e-16  1.4999999999999999e-01 0.0000000000000000e+00 7.8858670656087930e-17  1.5000000000000002e-01 0.0000000000000000e+00 1.4949268176836644e-16  1.5000000000000013e-01 1.0065709476975190e-16 -1.7814762027631878e-16  1.4999999999999999e-01 4.0215584406988294e-17 -2.8393497989767508e-16  1.5000000000000005e-01 -2.8014364257044827e-16 1.8774944677107810e-16  1.5000000000000022e-01 4.8736898454379523e-17 -1.0300500356608156e-16  1.5000000000000008e-01 2.8725421296218637e-16 -1.6650092564400437e-16  1.4999999999999991e-01 3.0856724552356536e-16 -3.7757838759633950e-16  1.5000000000000005e-01 -3.5205441366834063e-16 1.3814970448142359e-16  1.5000000000000011e-01 6.9236840243544864e-16 -5.1861348796866347e-16  1.5000000000000002e-01 -8.4080723902664783e-17 -4.6682063857680297e-16  1.5000000000000002e-01 1.8960525023259577e-16 -2.9242208113640334e-16  1.5000000000000005e-01 1.8164221307580920e-16 -2.1215724743652089e-16  1.4999999999999994e-01 -7.3001991273274394e-17 -4.2548586633161066e-16  1.4999999999999991e-01 -2.1080261971848051e-16 2.0779257123280827e-17  1.5000000000000008e-01 9.2324533342853210e-16 -2.5306684569711985e-16  1.4999999999999863e-01 1.5864625735683098e-15 -4.8242706094090340e-15  1.4999999999999519e-01 2.4278304948020205e-15 -1.5929030418555241e-14  1.4999999999999281e-01 -9.8546724350435041e-16 -2.7422186081703491e-14  1.4999999999999883e-01 -2.6333097374254522e-14 -9.6109460123636746e-15  1.5000000000003183e-01 -6.9323640539551062e-14 1.1014840332590134e-13  1.5000000000008171e-01 1.3840251726981117e-14 3.0150610486560280e-13  1.4999999999994504e-01 5.0700288251844210e-13 -1.4293527157117083e-13  1.4999999999909397e-01 1.4669131840296765e-12 -3.0389221738354519e-12  1.4999999999707778e-01 2.2774139541892202e-12 -9.8828311780843037e-12  1.4999999999449659e-01 1.9039064527365486e-12 -1.8546831875055370e-11  1.4999999999327829e-01 2.4484802914458905e-14 -2.2456086385037187e-11  1.4999999999502378e-01 -2.2198291120738579e-12 -1.6305441908050117e-11  1.4999999999882729e-01 -3.0853495628094994e-12 -3.3806593050837974e-12  1.5000000000171429e-01 -1.9916540558918405e-12 6.1708029898443914e-12  1.5000000000184410e-01 -1.1912479321701510e-13 6.2989386698841875e-12  1.5000000000039054e-01 9.0148915188284659e-13 1.2209062983769549e-12  1.4999999999955718e-01 6.4401170021557079e-13 -1.5687650640982268e-12  1.4999999999980557e-01 -1.9503138671367286e-14 -6.6098152969587298e-13  1.5000000000011374e-01 -2.2908594584595896e-13 3.8817056095322791e-13  1.5000000000000485e-01 -3.4665200024682996e-14 5.8913949986509015e-15  1.4999999999990971e-01 7.4844385636714185e-14 -3.0259955982868538e-13  1.5000000000002833e-01 -6.6297443959547390e-15 1.0853760840638831e-13  1.5000000000007702e-01 -4.5345250441416719e-14 2.5998421405571951e-13  1.4999999999998020e-01 1.7064438631513830e-14 -7.5746807609727033e-14  1.4999999999994904e-01 3.3799154843508720e-14 -1.7300855660567616e-13  1.5000000000001257e-01 -1.3628264496179352e-14 4.7122254569818766e-14  1.5000000000002847e-01 -2.2470963174958656e-14 9.5840590432613321e-14  1.4999999999999122e-01 9.5382317948281025e-15 -3.2189193807041852e-14  1.4999999999998637e-01 1.2293552984127341e-14 -4.5527400254754644e-14  1.5000000000000654e-01 -7.1458918901615519e-15 2.2967677461340398e-14  1.5000000000000557e-01 -5.1666227511343763e-15 1.8251979888392531e-14  1.4999999999999597e-01 4.5533226615928568e-15 -1.4354322409090831e-14  1.4999999999999852e-01 1.8882723901743487e-15 -4.4397835263306591e-15  1.5000000000000244e-01 -3.0226355977088728e-15 7.9006638555463676e-15  1.4999999999999994e-01 -3.7502273423393055e-16 -2.3047200829373366e-16  1.4999999999999905e-01 1.5963857451134055e-15 -2.7936425703359263e-15  1.5000000000000041e-01 -1.6919824208238681e-16 1.0571651350712023e-15  1.5000000000000038e-01 -5.0766620828281795e-16 8.1373599758113032e-16  1.4999999999999977e-01 6.1985736982825616e-16 -8.8354847959928529e-16  1.5000000000000011e-01 -1.8265107323784093e-16 -3.6648480121625910e-16  1.5000000000000005e-01 -2.2816757075079266e-16 2.5540400153821998e-16  1.5000000000000002e-01 1.9378327916500669e-17 -3.2498268258017299e-16  1.5000000000000011e-01 -5.8681797607667494e-16 -4.2311622524059178e-16  1.5000000000000016e-01 5.7369681434464869e-16 -1.2434059589688950e-16  1.5000000000000002e-01 8.7573322003765413e-17 -1.7462160587439327e-16  1.4999999999999994e-01 -1.0210439231290995e-16 -5.3597907452039037e-16  1.5000000000000016e-01 -1.5292653689942593e-17 3.3436228003567348e-16  1.5000000000000005e-01 5.7444932895097005e-17 2.9123370108107089e-16  1.5000000000000005e-01 2.6097705419520686e-16 -1.9082465317786350e-16  1.5000000000000002e-01 1.4086184160192756e-16 5.3588580841942841e-16  1.5000000000000002e-01 -2.1120268145056574e-16 4.4895167695981332e-16  1.5000000000000005e-01 -2.0232258364557531e-16 3.3738114718594886e-16  1.5000000000000005e-01 -1.2240320368239932e-17 7.2451950520755096e-16  1.5000000000000002e-01 8.2634227282369770e-17 1.7419172987550085e-16  1.5000000000000005e-01 -2.6805866332708630e-16 2.1455284918009324e-16  1.5000000000000013e-01 -6.7788766575348610e-17 3.6132318241396564e-16  1.5000000000000005e-01 3.3867113884423814e-16 1.9811864699240521e-16  1.5000000000000005e-01 1.8928432671425623e-16 1.0322598048242614e-16  1.5000000000000002e-01 -1.0484734379309450e-16 -2.1137915601035831e-16  1.5000000000000005e-01 -1.5126325963617806e-16 -4.1839253470456998e-16  1.5000000000000005e-01 3.0198277096509773e-16 -2.9631737835961540e-16  1.4999999999999983e-01 -1.5241697747412107e-16 -2.4063356233433297e-16  1.4999999999999999e-01 1.0332464004267576e-16 1.1853595778125621e-16  1.5000000000000008e-01 3.4783236939983106e-16 2.4053211442707024e-1