<?xml version="1.0"?>
<VTKFile type="UnstructuredGrid"  version="0.1"  >
<UnstructuredGrid>
<Piece  NumberOfPoints="10201" NumberOfCells="20000">
<Points>
<DataArray  type="Float64"  NumberOfComponents="3"  format="ascii">-5 -5 0  -4.9 -5 0  -4.8 -5 0  -4.7 -5 0  -4.6 -5 0  -4.5 -5 0  -4.4 -5 0  -4.3 -5 0  -4.2 -5 0  -4.1 -5 0  -4 -5 0  -3.9 -5 0  -3.8 -5 0  -3.7 -5 0  -3.6 -5 0  -3.5 -5 0  -3.4 -5 0  -3.3 -5 0  -3.2 -5 0  -3.1 -5 0  -3 -5 0  -2.9 -5 0  -2.8 -5 0  -2.7 -5 0  -2.6 -5 0  -2.5 -5 0  -2.4 -5 0  -2.3 -5 0  -2.2 -5 0  -2.1 -5 0  -2 -5 0  -1.9 -5 0  -1.8 -5 0  -1.7 -5 0  -1.6 -5 0  -1.5 -5 0  -1.4 -5 0  -1.3 -5 0  -1.2 -5 0  -1.1 -5 0  -1 -5 0  -0.9000000000000004 -5 0  -0.7999999999999998 -5 0  -0.7000000000000002 -5 0  -0.5999999999999996 -5 0  -0.5 -5 0  -0.4000000000000004 -5 0  -0.2999999999999998 -5 0  -0.2000000000000002 -5 0  -0.09999999999999964 -5 0  0 -5 0  0.09999999999999964 -5 0  0.2000000000000002 -5 0  0.2999999999999998 -5 0  0.4000000000000004 -5 0  0.5 -5 0  0.5999999999999996 -5 0  0.7000000000000002 -5 0  0.7999999999999998 -5 0  0.9000000000000004 -5 0  1 -5 0  1.1 -5 0  1.2 -5 0  1.3 -5 0  1.4 -5 0  1.5 -5 0  1.6 -5 0  1.7 -5 0  1.8 -5 0  1.9 -5 0  2 -5 0  2.1 -5 0  2.2 -5 0  2.3 -5 0  2.4 -5 0  2.5 -5 0  2.6 -5 0  2.7 -5 0  2.8 -5 0  2.9 -5 0  3 -5 0  3.1 -5 0  3.199999999999999 -5 0  3.300000000000001 -5 0  3.4 -5 0  3.5 -5 0  3.6 -5 0  3.699999999999999 -5 0  3.800000000000001 -5 0  3.9 -5 0  4 -5 0  4.1 -5 0  4.199999999999999 -5 0  4.300000000000001 -5 0  4.4 -5 0  4.5 -5 0  4.6 -5 0  4.699999999999999 -5 0  4.800000000000001 -5 0  4.9 -5 0  5 -5 0  -5 -4.9 0  -4.9 -4.9 0  -4.8 -4.9 0  -4.7 -4.9 0  -4.6 -4.9 0  -4.5 -4.9 0  -4.4 -4.9 0  -4.3 -4.9 0  -4.2 -4.9 0  -4.1 -4.9 0  -4 -4.9 0  -3.9 -4.9 0  -3.8 -4.9 0  -3.7 -4.9 0  -3.6 -4.9 0  -3.5 -4.9 0  -3.4 -4.9 0  -3.3 -4.9 0  -3.2 -4.9 0  -3.1 -4.9 0  -3 -4.9 0  -2.9 -4.9 0  -2.8 -4.9 0  -2.7 -4.9 0  -2.6 -4.9 0  -2.5 -4.9 0  -2.4 -4.9 0  -2.3 -4.9 0  -2.2 -4.9 0  -2.1 -4.9 0  -2 -4.9 0  -1.9 -4.9 0  -1.8 -4.9 0  -1.7 -4.9 0  -1.6 -4.9 0  -1.5 -4.9 0  -1.4 -4.9 0  -1.3 -4.9 0  -1.2 -4.9 0  -1.1 -4.9 0  -1 -4.9 0  -0.9000000000000004 -4.9 0  -0.7999999999999998 -4.9 0  -0.7000000000000002 -4.9 0  -0.5999999999999996 -4.9 0  -0.5 -4.9 0  -0.4000000000000004 -4.9 0  -0.2999999999999998 -4.9 0  -0.2000000000000002 -4.9 0  -0.09999999999999964 -4.9 0  0 -4.9 0  0.09999999999999964 -4.9 0  0.2000000000000002 -4.9 0  0.2999999999999998 -4.9 0  0.4000000000000004 -4.9 0  0.5 -4.9 0  0.5999999999999996 -4.9 0  0.7000000000000002 -4.9 0  0.7999999999999998 -4.9 0  0.9000000000000004 -4.9 0  1 -4.9 0  1.1 -4.9 0  1.2 -4.9 0  1.3 -4.9 0  1.4 -4.9 0  1.5 -4.9 0  1.6 -4.9 0  1.7 -4.9 0  1.8 -4.9 0  1.9 -4.9 0  2 -4.9 0  2.1 -4.9 0  2.2 -4.9 0  2.3 -4.9 0  2.4 -4.9 0  2.5 -4.9 0  2.6 -4.9 0  2.7 -4.9 0  2.8 -4.9 0  2.9 -4.9 0  3 -4.9 0  3.1 -4.9 0  3.199999999999999 -4.9 0  3.300000000000001 -4.9 0  3.4 -4.9 0  3.5 -4.9 0  3.6 -4.9 0  3.699999999999999 -4.9 0  3.800000000000001 -4.9 0  3.9 -4.9 0  4 -4.9 0  4.1 -4.9 0  4.199999999999999 -4.9 0  4.300000000000001 -4.9 0  4.4 -4.9 0  4.5 -4.9 0  4.6 -4.9 0  4.699999999999999 -4.9 0  4.800000000000001 -4.9 0  4.9 -4.9 0  5 -4.9 0  -5 -4.8 0  -4.9 -4.8 0  -4.8 -4.8 0  -4.7 -4.8 0  -4.6 -4.8 0  -4.5 -4.8 0  -4.4 -4.8 0  -4.3 -4.8 0  -4.2 -4.8 0  -4.1 -4.8 0  -4 -4.8 0  -3.9 -4.8 0  -3.8 -4.8 0  -3.7 -4.8 0  -3.6 -4.8 0  -3.5 -4.8 0  -3.4 -4.8 0  -3.3 -4.8 0  -3.2 -4.8 0  -3.1 -4.8 0  -3 -4.8 0  -2.9 -4.8 0  -2.8 -4.8 0  -2.7 -4.8 0  -2.6 -4.8 0  -2.5 -4.8 0  -2.4 -4.8 0  -2.3 -4.8 0  -2.2 -4.8 0  -2.1 -4.8 0  -2 -4.8 0  -1.9 -4.8 0  -1.8 -4.8 0  -1.7 -4.8 0  -1.6 -4.8 0  -1.5 -4.8 0  -1.4 -4.8 0  -1.3 -4.8 0  -1.2 -4.8 0  -1.1 -4.8 0  -1 -4.8 0  -0.9000000000000004 -4.8 0  -0.7999999999999998 -4.8 0  -0.7000000000000002 -4.8 0  -0.5999999999999996 -4.8 0  -0.5 -4.8 0  -0.4000000000000004 -4.8 0  -0.2999999999999998 -4.8 0  -0.2000000000000002 -4.8 0  -0.09999999999999964 -4.8 0  0 -4.8 0  0.09999999999999964 -4.8 0  0.2000000000000002 -4.8 0  0.2999999999999998 -4.8 0  0.4000000000000004 -4.8 0  0.5 -4.8 0  0.5999999999999996 -4.8 0  0.7000000000000002 -4.8 0  0.7999999999999998 -4.8 0  0.9000000000000004 -4.8 0  1 -4.8 0  1.1 -4.8 0  1.2 -4.8 0  1.3 -4.8 0  1.4 -4.8 0  1.5 -4.8 0  1.6 -4.8 0  1.7 -4.8 0  1.8 -4.8 0  1.9 -4.8 0  2 -4.8 0  2.1 -4.8 0  2.2 -4.8 0  2.3 -4.8 0  2.4 -4.8 0  2.5 -4.8 0  2.6 -4.8 0  2.7 -4.8 0  2.8 -4.8 0  2.9 -4.8 0  3 -4.8 0  3.1 -4.8 0  3.199999999999999 -4.8 0  3.300000000000001 -4.8 0  3.4 -4.8 0  3.5 -4.8 0  3.6 -4.8 0  3.699999999999999 -4.8 0  3.800000000000001 -4.8 0  3.9 -4.8 0  4 -4.8 0  4.1 -4.8 0  4.199999999999999 -4.8 0  4.300000000000001 -4.8 0  4.4 -4.8 0  4.5 -4.8 0  4.6 -4.8 0  4.699999999999999 -4.8 0  4.800000000000001 -4.8 0  4.9 -4.8 0  5 -4.8 0  -5 -4.7 0  -4.9 -4.7 0  -4.8 -4.7 0  -4.7 -4.7 0  -4.6 -4.7 0  -4.5 -4.7 0  -4.4 -4.7 0  -4.3 -4.7 0  -4.2 -4.7 0  -4.1 -4.7 0  -4 -4.7 0  -3.9 -4.7 0  -3.8 -4.7 0  -3.7 -4.7 0  -3.6 -4.7 0  -3.5 -4.7 0  -3.4 -4.7 0  -3.3 -4.7 0  -3.2 -4.7 0  -3.1 -4.7 0  -3 -4.7 0  -2.9 -4.7 0  -2.8 -4.7 0  -2.7 -4.7 0  -2.6 -4.7 0  -2.5 -4.7 0  -2.4 -4.7 0  -2.3 -4.7 0  -2.2 -4.7 0  -2.1 -4.7 0  -2 -4.7 0  -1.9 -4.7 0  -1.8 -4.7 0  -1.7 -4.7 0  -1.6 -4.7 0  -1.5 -4.7 0  -1.4 -4.7 0  -1.3 -4.7 0  -1.2 -4.7 0  -1.1 -4.7 0  -1 -4.7 0  -0.9000000000000004 -4.7 0  -0.7999999999999998 -4.7 0  -0.7000000000000002 -4.7 0  -0.5999999999999996 -4.7 0  -0.5 -4.7 0  -0.4000000000000004 -4.7 0  -0.2999999999999998 -4.7 0  -0.2000000000000002 -4.7 0  -0.09999999999999964 -4.7 0  0 -4.7 0  0.09999999999999964 -4.7 0  0.2000000000000002 -4.7 0  0.2999999999999998 -4.7 0  0.4000000000000004 -4.7 0  0.5 -4.7 0  0.5999999999999996 -4.7 0  0.7000000000000002 -4.7 0  0.7999999999999998 -4.7 0  0.9000000000000004 -4.7 0  1 -4.7 0  1.1 -4.7 0  1.2 -4.7 0  1.3 -4.7 0  1.4 -4.7 0  1.5 -4.7 0  1.6 -4.7 0  1.7 -4.7 0  1.8 -4.7 0  1.9 -4.7 0  2 -4.7 0  2.1 -4.7 0  2.2 -4.7 0  2.3 -4.7 0  2.4 -4.7 0  2.5 -4.7 0  2.6 -4.7 0  2.7 -4.7 0  2.8 -4.7 0  2.9 -4.7 0  3 -4.7 0  3.1 -4.7 0  3.199999999999999 -4.7 0  3.300000000000001 -4.7 0  3.4 -4.7 0  3.5 -4.7 0  3.6 -4.7 0  3.699999999999999 -4.7 0  3.800000000000001 -4.7 0  3.9 -4.7 0  4 -4.7 0  4.1 -4.7 0  4.199999999999999 -4.7 0  4.300000000000001 -4.7 0  4.4 -4.7 0  4.5 -4.7 0  4.6 -4.7 0  4.699999999999999 -4.7 0  4.800000000000001 -4.7 0  4.9 -4.7 0  5 -4.7 0  -5 -4.6 0  -4.9 -4.6 0  -4.8 -4.6 0  -4.7 -4.6 0  -4.6 -4.6 0  -4.5 -4.6 0  -4.4 -4.6 0  -4.3 -4.6 0  -4.2 -4.6 0  -4.1 -4.6 0  -4 -4.6 0  -3.9 -4.6 0  -3.8 -4.6 0  -3.7 -4.6 0  -3.6 -4.6 0  -3.5 -4.6 0  -3.4 -4.6 0  -3.3 -4.6 0  -3.2 -4.6 0  -3.1 -4.6 0  -3 -4.6 0  -2.9 -4.6 0  -2.8 -4.6 0  -2.7 -4.6 0  -2.6 -4.6 0  -2.5 -4.6 0  -2.4 -4.6 0  -2.3 -4.6 0  -2.2 -4.6 0  -2.1 -4.6 0  -2 -4.6 0  -1.9 -4.6 0  -1.8 -4.6 0  -1.7 -4.6 0  -1.6 -4.6 0  -1.5 -4.6 0  -1.4 -4.6 0  -1.3 -4.6 0  -1.2 -4.6 0  -1.1 -4.6 0  -1 -4.6 0  -0.9000000000000004 -4.6 0  -0.7999999999999998 -4.6 0  -0.7000000000000002 -4.6 0  -0.5999999999999996 -4.6 0  -0.5 -4.6 0  -0.4000000000000004 -4.6 0  -0.2999999999999998 -4.6 0  -0.2000000000000002 -4.6 0  -0.09999999999999964 -4.6 0  0 -4.6 0  0.09999999999999964 -4.6 0  0.2000000000000002 -4.6 0  0.2999999999999998 -4.6 0  0.4000000000000004 -4.6 0  0.5 -4.6 0  0.5999999999999996 -4.6 0  0.7000000000000002 -4.6 0  0.7999999999999998 -4.6 0  0.9000000000000004 -4.6 0  1 -4.6 0  1.1 -4.6 0  1.2 -4.6 0  1.3 -4.6 0  1.4 -4.6 0  1.5 -4.6 0  1.6 -4.6 0  1.7 -4.6 0  1.8 -4.6 0  1.9 -4.6 0  2 -4.6 0  2.1 -4.6 0  2.2 -4.6 0  2.3 -4.6 0  2.4 -4.6 0  2.5 -4.6 0  2.6 -4.6 0  2.7 -4.6 0  2.8 -4.6 0  2.9 -4.6 0  3 -4.6 0  3.1 -4.6 0  3.199999999999999 -4.6 0  3.300000000000001 -4.6 0  3.4 -4.6 0  3.5 -4.6 0  3.6 -4.6 0  3.699999999999999 -4.6 0  3.800000000000001 -4.6 0  3.9 -4.6 0  4 -4.6 0  4.1 -4.6 0  4.199999999999999 -4.6 0  4.300000000000001 -4.6 0  4.4 -4.6 0  4.5 -4.6 0  4.6 -4.6 0  4.699999999999999 -4.6 0  4.800000000000001 -4.6 0  4.9 -4.6 0  5 -4.6 0  -5 -4.5 0  -4.9 -4.5 0  -4.8 -4.5 0  -4.7 -4.5 0  -4.6 -4.5 0  -4.5 -4.5 0  -4.4 -4.5 0  -4.3 -4.5 0  -4.2 -4.5 0  -4.1 -4.5 0  -4 -4.5 0  -3.9 -4.5 0  -3.8 -4.5 0  -3.7 -4.5 0  -3.6 -4.5 0  -3.5 -4.5 0  -3.4 -4.5 0  -3.3 -4.5 0  -3.2 -4.5 0  -3.1 -4.5 0  -3 -4.5 0  -2.9 -4.5 0  -2.8 -4.5 0  -2.7 -4.5 0  -2.6 -4.5 0  -2.5 -4.5 0  -2.4 -4.5 0  -2.3 -4.5 0  -2.2 -4.5 0  -2.1 -4.5 0  -2 -4.5 0  -1.9 -4.5 0  -1.8 -4.5 0  -1.7 -4.5 0  -1.6 -4.5 0  -1.5 -4.5 0  -1.4 -4.5 0  -1.3 -4.5 0  -1.2 -4.5 0  -1.1 -4.5 0  -1 -4.5 0  -0.9000000000000004 -4.5 0  -0.7999999999999998 -4.5 0  -0.7000000000000002 -4.5 0  -0.5999999999999996 -4.5 0  -0.5 -4.5 0  -0.4000000000000004 -4.5 0  -0.2999999999999998 -4.5 0  -0.2000000000000002 -4.5 0  -0.09999999999999964 -4.5 0  0 -4.5 0  0.09999999999999964 -4.5 0  0.2000000000000002 -4.5 0  0.2999999999999998 -4.5 0  0.4000000000000004 -4.5 0  0.5 -4.5 0  0.5999999999999996 -4.5 0  0.7000000000000002 -4.5 0  0.7999999999999998 -4.5 0  0.9000000000000004 -4.5 0  1 -4.5 0  1.1 -4.5 0  1.2 -4.5 0  1.3 -4.5 0  1.4 -4.5 0  1.5 -4.5 0  1.6 -4.5 0  1.7 -4.5 0  1.8 -4.5 0  1.9 -4.5 0  2 -4.5 0  2.1 -4.5 0  2.2 -4.5 0  2.3 -4.5 0  2.4 -4.5 0  2.5 -4.5 0  2.6 -4.5 0  2.7 -4.5 0  2.8 -4.5 0  2.9 -4.5 0  3 -4.5 0  3.1 -4.5 0  3.199999999999999 -4.5 0  3.300000000000001 -4.5 0  3.4 -4.5 0  3.5 -4.5 0  3.6 -4.5 0  3.699999999999999 -4.5 0  3.800000000000001 -4.5 0  3.9 -4.5 0  4 -4.5 0  4.1 -4.5 0  4.199999999999999 -4.5 0  4.300000000000001 -4.5 0  4.4 -4.5 0  4.5 -4.5 0  4.6 -4.5 0  4.699999999999999 -4.5 0  4.800000000000001 -4.5 0  4.9 -4.5 0  5 -4.5 0  -5 -4.4 0  -4.9 -4.4 0  -4.8 -4.4 0  -4.7 -4.4 0  -4.6 -4.4 0  -4.5 -4.4 0  -4.4 -4.4 0  -4.3 -4.4 0  -4.2 -4.4 0  -4.1 -4.4 0  -4 -4.4 0  -3.9 -4.4 0  -3.8 -4.4 0  -3.7 -4.4 0  -3.6 -4.4 0  -3.5 -4.4 0  -3.4 -4.4 0  -3.3 -4.4 0  -3.2 -4.4 0  -3.1 -4.4 0  -3 -4.4 0  -2.9 -4.4 0  -2.8 -4.4 0  -2.7 -4.4 0  -2.6 -4.4 0  -2.5 -4.4 0  -2.4 -4.4 0  -2.3 -4.4 0  -2.2 -4.4 0  -2.1 -4.4 0  -2 -4.4 0  -1.9 -4.4 0  -1.8 -4.
[...]
<PointData  Vectors="f_17"> 
<DataArray  type="Float64"  Name="f_17"  NumberOfComponents="3" format="ascii">1.5000000000001038e-01 0.0000000000000000e+00 0.0000000000000000e+00  1.5000000000000008e-01 1.5896058936912111e-15 0.0000000000000000e+00  1.4999999999998140e-01 -3.8307536461078267e-14 0.0000000000000000e+00  1.5000000000001668e-01 4.5925778992042289e-14 0.0000000000000000e+00  1.5000000000002295e-01 4.9092211016573124e-14 0.0000000000000000e+00  1.4999999999995503e-01 -2.6108738816330324e-13 0.0000000000000000e+00  1.5000000000024613e-01 -5.0329125241123894e-13 0.0000000000000000e+00  1.5000000000130934e-01 -1.6423407690375833e-12 0.0000000000000000e+00  1.5000000000393948e-01 -6.2977445148279528e-12 0.0000000000000000e+00  1.5000000001167282e-01 -1.3217508812776923e-11 0.0000000000000000e+00  1.5000000002756961e-01 -1.4546521753607397e-11 0.0000000000000000e+00  1.5000000004244876e-01 1.1575178923764900e-11 0.0000000000000000e+00  1.5000000001858385e-01 1.3702112579304660e-10 0.0000000000000000e+00  1.4999999984889445e-01 5.0996301240553483e-10 0.0000000000000000e+00  1.4999999928513200e-01 1.3202486345942934e-09 0.0000000000000000e+00  1.4999999790760732e-01 2.8038357212598416e-09 0.0000000000000000e+00  1.4999999515148496e-01 5.3879111482507188e-09 0.0000000000000000e+00  1.4999999025201072e-01 9.7759806927474936e-09 0.0000000000000000e+00  1.4999998219306088e-01 1.6512391411368673e-08 0.0000000000000000e+00  1.4999997023163159e-01 2.4406714357886183e-08 0.0000000000000000e+00  1.4999995555350781e-01 2.7996337349929239e-08 0.0000000000000000e+00  1.4999994363863681e-01 1.7802610487644731e-08 0.0000000000000000e+00  1.4999994448453172e-01 -1.0951946261271970e-08 0.0000000000000000e+00  1.4999996587333753e-01 -4.5627828972668072e-08 0.0000000000000000e+00  1.5000000120004320e-01 -5.8854863626592132e-08 0.0000000000000000e+00  1.5000002754769348e-01 -3.5429020478791646e-08 0.0000000000000000e+00  1.5000002655972519e-01 5.1284090523922603e-09 0.0000000000000000e+00  1.5000000733679336e-01 2.6409858729650636e-08 0.0000000000000000e+00  1.4999999546158702e-01 1.6986509679207442e-08 0.0000000000000000e+00  1.4999999879067760e-01 -3.9060163360534213e-10 0.0000000000000000e+00  1.5000000242218273e-01 -4.2299400473804120e-09 0.0000000000000000e+00  1.4999999882782111e-01 3.3119294954744755e-10 0.0000000000000000e+00  1.4999999795364052e-01 1.7301379227705926e-10 0.0000000000000000e+00  1.5000000280316061e-01 -2.2476356567553985e-09 0.0000000000000000e+00  1.5000000278484835e-01 5.4643419655557799e-10 0.0000000000000000e+00  1.4999999707126177e-01 3.5834413602434157e-09 0.0000000000000000e+00  1.4999999702073719e-01 1.1418627852040788e-10 0.0000000000000000e+00  1.5000000249712539e-01 -3.6301266924371600e-09 0.0000000000000000e+00  1.5000000255151860e-01 -6.1077386913656171e-10 0.0000000000000000e+00  1.4999999798358338e-01 3.0497964567004736e-09 0.0000000000000000e+00  1.4999999817713580e-01 6.5009683113952629e-10 0.0000000000000000e+00  1.5000000161012658e-01 -2.3457074610591002e-09 0.0000000000000000e+00  1.5000000108208816e-01 -4.0579425002527493e-10 0.0000000000000000e+00  1.4999999874935860e-01 1.7103564606191488e-09 0.0000000000000000e+00  1.4999999951137649e-01 9.5557848783858672e-11 0.0000000000000000e+00  1.5000000090615995e-01 -1.1748564409749209e-09 0.0000000000000000e+00  1.5000000009533396e-01 1.4601597333053318e-10 0.0000000000000000e+00  1.4999999941588907e-01 7.3286550673651330e-10 0.0000000000000000e+00  1.5000000010843176e-01 -2.6902899120456708e-10 0.0000000000000000e+00  1.5000000031426960e-01 -3.8650079904384570e-10 0.0000000000000000e+00  1.4999999983226175e-01 2.8026432723517468e-10 0.0000000000000000e+00  1.4999999987819274e-01 1.4357915946026164e-10 0.0000000000000000e+00  1.5000000014128093e-01 -2.1748365284248353e-10 0.0000000000000000e+00  1.5000000001205901e-01 -3.1364876394792481e-12 0.0000000000000000e+00  1.4999999991658941e-01 1.2768452260930639e-10 0.0000000000000000e+00  1.5000000003017080e-01 -5.2144202450188211e-11 0.0000000000000000e+00  1.5000000003133801e-01 -4.9287117867275241e-11 0.0000000000000000e+00  1.4999999996868230e-01 5.2389412159117661e-11 0.0000000000000000e+00  1.4999999999902391e-01 1.7461424909949797e-12 0.0000000000000000e+00  1.5000000001705324e-01 -2.9793886789830056e-11 0.0000000000000000e+00  1.4999999999128652e-01 1.4935306302782200e-11 0.0000000000000000e+00  1.4999999999600572e-01 7.8897613139646837e-12 0.0000000000000000e+00  1.5000000000681837e-01 -1.2581299182618109e-11 0.0000000000000000e+00  1.4999999999797464e-01 3.2686162986726253e-12 0.0000000000000000e+00  1.4999999999776603e-01 4.6763515976466753e-12 0.0000000000000000e+00  1.5000000000244851e-01 -4.6988207523231771e-12 0.0000000000000000e+00  1.4999999999952812e-01 6.2192298548494233e-13 0.0000000000000000e+00  1.4999999999908500e-01 2.0371820543839655e-12 0.0000000000000000e+00  1.5000000000086863e-01 -1.7379552024793750e-12 0.0000000000000000e+00  1.4999999999984009e-01 1.8649217381453410e-13 0.0000000000000000e+00  1.4999999999968419e-01 7.5923143969614363e-13 0.0000000000000000e+00  1.5000000000031524e-01 -6.6866580742222006e-13 0.0000000000000000e+00  1.4999999999991467e-01 1.2834672504919633e-13 0.0000000000000000e+00  1.4999999999991159e-01 2.3929948548673115e-13 0.0000000000000000e+00  1.5000000000011302e-01 -2.6078448223556988e-13 0.0000000000000000e+00  1.4999999999995020e-01 9.5813751334332401e-14 0.0000000000000000e+00  1.4999999999998653e-01 5.0471198660974559e-14 0.0000000000000000e+00  1.5000000000003608e-01 -9.3079611098058408e-14 0.0000000000000000e+00  1.4999999999997476e-01 5.7667398272754398e-14 0.0000000000000000e+00  1.5000000000000546e-01 -6.3536850327721174e-15 0.0000000000000000e+00  1.5000000000000718e-01 -2.2757660516257010e-14 0.0000000000000000e+00  1.4999999999999059e-01 2.4685007725058715e-14 0.0000000000000000e+00  1.5000000000000563e-01 -1.3488453199446851e-14 0.0000000000000000e+00  1.4999999999999911e-01 1.2570355948408805e-15 0.0000000000000000e+00  1.4999999999999847e-01 6.2133485235737231e-15 0.0000000000000000e+00  1.5000000000000227e-01 -6.2419135153968781e-15 0.0000000000000000e+00  1.4999999999999852e-01 3.9721898615072004e-15 0.0000000000000000e+00  1.5000000000000055e-01 1.6362510583238008e-18 0.0000000000000000e+00  1.5000000000000052e-01 -6.9726211823147268e-16 0.0000000000000000e+00  1.4999999999999986e-01 1.2228956360370679e-15 0.0000000000000000e+00  1.5000000000000036e-01 -1.3513007192931039e-15 0.0000000000000000e+00  1.4999999999999972e-01 2.4808345840069066e-16 0.0000000000000000e+00  1.5000000000000027e-01 -2.2878336991328540e-17 0.0000000000000000e+00  1.4999999999999986e-01 -2.4029302476866531e-16 0.0000000000000000e+00  1.4999999999999999e-01 3.7119312580796398e-17 0.0000000000000000e+00  1.5000000000000013e-01 -4.9442924980048639e-16 0.0000000000000000e+00  1.4999999999999991e-01 4.3114922595696687e-16 0.0000000000000000e+00  1.5000000000000016e-01 -6.0405438259521514e-16 0.0000000000000000e+00  1.4999999999999994e-01 8.0667936332252704e-19 0.0000000000000000e+00  1.5000000000000013e-01 -3.9526373829614047e-16 0.0000000000000000e+00  1.4999999999999983e-01 0.0000000000000000e+00 0.0000000000000000e+00  1.5000000000000033e-01 0.0000000000000000e+00 1.3317994081145419e-15  1.4999999999998750e-01 -1.8104757616536890e-14 -1.8210667895449013e-14  1.5000000000001584e-01 2.9550575522930525e-14 1.7936413291112200e-14  1.5000000000001104e-01 2.4702564839410835e-14 2.2180751448306128e-14  1.4999999999995681e-01 -1.1491508219844728e-13 -5.4537983629046102e-14  1.5000000000001637e-01 9.6275431923555311e-14 8.1974052385688052e-15  1.4999999999995839e-01 5.6060029708315681e-13 -1.6142131744017155e-13  1.4999999999907951e-01 1.1182148906670663e-12 -1.9750688113774550e-12  1.4999999999682659e-01 4.6352402073476104e-12 -7.4361922858174243e-12  1.4999999999059382e-01 1.3342711893745958e-11 -2.3005173547582733e-11  1.4999999997476784e-01 2.1236726145852705e-11 -6.1370433141871700e-11  1.4999999995110858e-01 1.2019386462334551e-11 -1.2212648859720438e-10  1.4999999994643282e-01 -6.6112525804062500e-11 -1.5076734520735619e-10  1.5000000004336553e-01 -3.5329469742933666e-10 3.7305387166775739e-11  1.5000000045344652e-01 -1.0687838129558477e-09 9.0583596495894016e-10  1.5000000158886181e-01 -2.4528583462890416e-09 3.3208539656165953e-09  1.5000000404123173e-01 -4.8564847774225258e-09 8.4714874227894281e-09  1.5000000855968890e-01 -8.9352726389396757e-09 1.7764923380617172e-08  1.5000001613691699e-01 -1.5475661384297823e-08 3.2936026005727067e-08  1.5000002778764479e-01 -2.4217893362272297e-08 5.5578253525625549e-08  1.5000004327591954e-01 -3.1268890377201114e-08 8.4474480155654560e-08  1.5000005870429278e-01 -2.7243987041010445e-08 1.1064026962524841e-07  1.5000006480203484e-01 -2.7155879063365934e-09 1.1490115124424621e-07  1.5000005063001254e-01 3.7134182272566929e-08 7.8092883885787149e-08  1.5000001551825229e-01 6.5419761172225084e-08 5.9463424180300408e-09  1.4999997859311637e-01 5.4883548109313974e-08 -5.7883802109711658e-08  1.4999996620427417e-01 1.1985517169293107e-08 -6.5920514116586405e-08  1.4999998225482136e-01 -2.4002546387340862e-08 -2.4023312616782882e-08  1.5000000166900121e-01 -2.5538850979687568e-08 1.1236768745882381e-08  1.5000000381712925e-01 -6.5539966411483544e-09 7.6338823876369334e-09  1.4999999774211872e-01 4.0028802588233116e-09 -5.9613617885593865e-09  1.4999999927887792e-01 1.3850738642126907e-09 -2.6974471543380764e-10  1.5000000307177860e-01 -3.8252551132773198e-10 6.4484571677475805e-09  1.4999999908632716e-01 1.9925628118828545e-09 -3.8463307834516287e-09  1.4999999553223708e-01 5.9295691693511811e-10 -9.0694558334314273e-09  1.5000000082265588e-01 -3.4075827919136279e-09 4.1547329573671252e-09  1.5000000470530647e-01 -1.7729368585297532e-09 9.8040611358499756e-09  1.4999999949092452e-01 3.1143542313642923e-09 -3.3908947517687362e-09  1.4999999590585358e-01 2.2700320195396158e-09 -8.6547828830897969e-09  1.5000000044028902e-01 -2.3606638573656024e-09 2.8377714836174827e-09  1.5000000313843870e-01 -2.0873718545548719e-09 6.5944541897647328e-09  1.4999999943905451e-01 1.7274552331953600e-09 -2.6115727702515539e-09  1.4999999783548498e-01 1.5801215486834310e-09 -4.4106182480780025e-09  1.5000000069241559e-01 -1.3069795562460911e-09 2.4414342668740420e-09  1.5000000132570368e-01 -1.0172670755693195e-09 2.5305085682340614e-09  1.4999999928140370e-01 1.0158874542919140e-09 -2.1183563563519346e-09  1.4999999931983721e-01 5.3281196050496852e-10 -1.1270394264321916e-09  1.5000000062182467e-01 -7.6970324696244125e-10 1.6199062742397684e-09  1.5000000024248858e-01 -1.7785677386707001e-10 2.3300714709491654e-10  1.4999999955261775e-01 5.3456360396505829e-10 -1.0491904066342490e-09  1.5000000000302172e-01 -3.7601978116862335e-11 2.0994812933256086e-10  1.5000000025909313e-01 -3.1792835193107739e-10 5.3748655627915916e-10  1.4999999990180218e-01 1.2931847866943095e-10 -3.2365230330699858e-10  1.4999999989231849e-01 1.4349829003952972e-10 -1.7503325237971393e-10  1.5000000009956549e-01 -1.3194616716594896e-10 2.5485784262974379e-10  1.5000000001584840e-01 -2.9240978855723646e-11 -1.6299605065771376e-11  1.4999999993845320e-01 8.8788597437634013e-11 -1.3169980120303800e-10  1.5000000002088520e-01 -2.4218010112826899e-11 7.2733936404369893e-11  1.5000000002249556e-01 -3.8355311885086627e-11 3.3771394613644836e-11  1.4999999997727220e-01 3.2930906262499469e-11 -5.6381377869929148e-11  1.5000000000040062e-01 3.8332292336751102e-12 1.2982903401534537e-11  1.5000000001163233e-01 -2.0172482967117937e-11 2.2125950702238571e-11  1.4999999999308744e-01 9.4319111268943460e-12 -1.9674706490405090e-11  1.4999999999813066e-01 5.3137570351726733e-12 4.7816246530522943e-13  1.5000000000468316e-01 -8.3139454021741323e-12 9.7803818753266901e-12  1.4999999999798555e-01 2.4324467755065160e-12 -6.5228896975039547e-12  1.4999999999894459e-01 2.8132115117745706e-12 -6.4252290221064951e-13  1.5000000000172148e-01 -3.1757456641900180e-12 3.7244405048178639e-12  1.4999999999934235e-01 7.2942816618798587e-13 -2.2802825767557433e-12  1.4999999999960692e-01 1.1341082999212861e-12 -2.2457613735568392e-13  1.5000000000061239e-01 -1.2111542807582306e-12 1.2989871400846899e-12  1.4999999999973804e-01 3.2778378349952333e-13 -8.7087621314906956e-13  1.4999999999989830e-01 3.6951868917115901e-13 3.2692151160194541e-14  1.5000000000020849e-01 -4.6162010495765971e-13 4.0227265766613284e-13  1.4999999999988209e-01 1.8732318839440482e-13 -3.4347153858208025e-13  1.4999999999999492e-01 7.8006059908356454e-14 8.9712182165683612e-14  1.5000000000006172e-01 -1.6228076119176247e-13 9.1678128953208655e-14  1.4999999999994909e-01 1.0321295913839290e-13 -1.2392599043929295e-13  1.5000000000001490e-01 -1.1276727823324202e-14 6.5999643751742568e-14  1.5000000000001104e-01 -4.1665409738531801e-14 -2.1687195058419731e-16  1.4999999999998256e-01 4.4475937592624090e-14 -3.1623015414754806e-14  1.5000000000001110e-01 -2.2517086173781730e-14 3.0404328778638062e-14  1.4999999999999750e-01 6.7348145589415730e-17 -1.3520166604798829e-14  1.4999999999999714e-01 1.1446055483115003e-14 2.6082413474169584e-16  1.5000000000000416e-01 -1.0893119842379157e-14 7.7714665552266854e-15  1.4999999999999722e-01 6.0714329470300661e-15 -7.3566965135120431e-15  1.5000000000000097e-01 -8.8122487272933701e-16 4.1403828326472404e-15  1.5000000000000033e-01 -1.7150948254133810e-15 -8.9533108740924934e-16  1.4999999999999919e-01 2.2922186436445100e-15 -1.2168205449855532e-15  1.5000000000000080e-01 -1.5367239134236829e-15 1.4459202109333321e-15  1.4999999999999949e-01 9.6499417747372380e-16 -1.5586166408899545e-15  1.5000000000000008e-01 -9.5460502493338573e-17 6.3451420449449533e-16  1.5000000000000008e-01 -7.7315719562357545e-17 -4.2963668109301034e-16  1.4999999999999983e-01 4.5442608954248847e-16 -2.3176886852460077e-16  1.5000000000000008e-01 -1.1547840039050611e-15 1.6904411078637134e-16  1.4999999999999991e-01 6.4017770873545498e-16 -3.6751602875512866e-16  1.5000000000000016e-01 -3.2552378099698309e-16 4.1644287894756922e-16  1.5000000000000005e-01 1.5087847425922754e-16 1.3853996779719036e-16  1.4999999999999999e-01 -5.2131853076854066e-16 5.5599619022330646e-16  1.5000000000000008e-01 -3.4303112759567351e-16 2.0700932099954956e-16  1.4999999999999999e-01 0.0000000000000000e+00 1.1099725583050807e-16  1.4999999999998145e-01 0.0000000000000000e+00 -3.7236701881809623e-14  1.5000000000001598e-01 1.8521315831001693e-14 2.9544690210335177e-14  1.5000000000000702e-01 2.2604954024273468e-14 2.3072042092114611e-14  1.4999999999995933e-01 -9.4856243835497100e-14 -9.1939564042560952e-14  1.5000000000002067e-01 6.0266767030818700e-14 3.1405211060299038e-14  1.5000000000006933e-01 1.6900753612066161e-13 1.5820932962714644e-13  1.4999999999994160e-01 -5.6528250089068694e-13 -1.0461978229414644e-13  1.5000000000055930e-01 -1.4063705954467974e-12 1.6269311928514289e-12  1.5000000000314606e-01 -3.9319454560308501e-12 9.3788194202466941e-12  1.5000000000958658e-01 -1.4810287431494249e-11 3.0710585839365970e-11  1.5000000002762753e-01 -3.3466646834794905e-11 9.1125749382322990e-11  1.5000000006574751e-01 -4.3321630506778764e-11 2.2162654015616881e-10  1.5000000010822540e-01 -1.4821405343371698e-12 3.8651613522977855e-10  1.5000000008157841e-01 2.3250025224243326e-10 3.6655632576500469e-10  1.4999999977996917e-01 9.5933349471203650e-10 -4.8940612592958151e-10  1.4999999873313946e-01 2.5458689152456005e-09 -3.6572533183419928e-09  1.4999999616965060e-01 5.3581605652366816e-09 -1.1506333899567411e-08  1.4999999114529039e-01 9.9917829134728181e-09 -2.6833704145719067e-08  1.4999998256303518e-01 1.7415101452978672e-08 -5.2734303439348692e-08  1.4999996914589789e-01 2.8176828624547488e-08 -9.2817317971815196e-08  1.4999995029822347e-01 3.9835852011286091e-08 -1.4887612038531283e-07  1.4999992863370173e-01 4.3107350449295342e-08 -2.1288292269462829e-07  1.4999991319437045e-01 2.3003247563881943e-08 -2.5622516242655736e-07  1.4999991889635514e-01 -2.5886628086656787e-08 -2.3214481632679641e-07  1.4999995544470587e-01 -7.9253843310986627e-08 -1.1327943018190125e-07  1.5000000944904329e-01 -9.2124591002521734e-08 5.2380685300184235e-08  1.5000004475538437e-01 -4.6811093833723480e-08 1.4967528716337074e-07  1.5000003738682458e-01 1.6550142836080942e-08 1.1179458605314562e-07  1.5000000729093321e-01 4.1440111103110225e-08 1.2453566375525689e-08  1.4999999337524628e-01 2.1525815694457400e-08 -2.6170045523182566e-08  1.5000000071245992e-01 -2.0300131582986112e-09 1.8097690096619255e-09  1.5000000367571281e-01 -3.9885966379262689e-09 1.1026510606289810e-08  1.4999999649731943e-01 9.0080800450985911e-10 -1.1794909740360740e-08  1.4999999758013385e-01 -1.9087372358039881e-09 -6.3198383644201927e-09  1.5000000608476824e-01 -3.1145542822421303e-09 2.0441715795339020e-08  1.5000000318820703e-01 3.3538172159505492e-09 8.5711749136134744e-09  1.4999999353197727e-01 5.2155565699242765e-09 -2.1986830590521820e-08  1.4999999654523233e-01 -2.3374631613886935e-09 -9.6857328749188721e-09  1.5000000572761096e-01 -5.5200865705648675e-09 1.9517168593880779e-08  1.5000000287490925e-01 1.2170578538737603e-09 8.1112348699271666e-09  1.4999999534766872e-01 4.7381660110498020e-09 -1.5760510739207947e-08  1.4999999816585158e-01 -6.7132409002755611e-10 -4.9951016439921173e-09  1.5000000357003232e-01 -3.6243012257824644e-09 1.1940895790527406e-08  1.5000000078361536e-01 5.8918208500866349e-10 1.8111166830840403e-09  1.4999999743636222e-01 2.5543528999168258e-09 -8.4192633057986837e-09  1.4999999999777491e-01 -6.8703685864932760e-10 5.1368357996835130e-10  1.5000000166225982e-01 -1.6444334751371240e-09 5.3261709762135628e-09  1.4999999957632798e-01 7.5775844468075117e-10 -1.6991582070690061e-09  1.4999999908488285e-01 9.1752760300848576e-10 -2.8241369499306909e-09  1.5000000053741674e-01 -7.1503933160640104e-10 1.9027489438106438e-09  1.5000000037229591e-01 -3.8399272710534483e-10 1.0585331854618173e-09  1.4999999955245091e-01 5.6359471569106114e-10 -1.4937356431497920e-09  1.4999999995119351e-01 4.7567548273893185e-11 -4.9006742067068942e-11  1.5000000027530275e-01 -3.5825398021293198e-10 8.7136693436826733e-10  1.4999999991253196e-01 1.1047316384843679e-10 -3.3996655535675310e-10  1.4999999988499865e-01 1.6536066747608444e-10 -3.3329627791126220e-10  1.5000000010112263e-01 -1.3670084001313769e-10 3.4160265492003146e-10  1.5000000001402258e-01 -3.1912540967547762e-11 1.5111444533782066e-11  1.4999999993839949e-01 9.3276647847880093e-11 -1.9138602831760606e-10  1.5000000002464625e-01 -2.9494155409775990e-11 9.2771710365063340e-11  1.5000000001930336e-01 -3.6365339918211681e-11 5.0381173204225462e-11  1.4999999997619937e-01 3.6444000695816532e-11 -7.7177721435788882e-11  1.5000000000375172e-01 -1.0266027489131821e-12 1.9047582618166775e-11  1.5000000001008804e-01 -1.9221889123222383e-11 2.8332444618319650e-11  1.4999999999181537e-01 1.2437543136724441e-11 -2.7491543589683319e-11  1.5000000000006261e-01 2.3668098469807225e-12 3.2623822720856797e-12  1.5000000000412778e-01 -8.1966935049707519e-12 1.1782190415805754e-11  1.4999999999717242e-01 4.3261061916838919e-12 -9.6918316317502195e-12  1.4999999999988686e-01 1.2880412329060074e-12 8.8612099001850095e-13  1.5000000000150115e-01 -3.2007606965543410e-12 4.2054634694658928e-12  1.4999999999895317e-01 1.7059673685738242e-12 -3.5554015771257723e-12  1.5000000000004163e-01 3.6155603602213668e-13 6.1649775237217019e-13  1.5000000000048833e-01 -1.1682215656197447e-12 1.2758195245937055e-12  1.4999999999959168e-01 7.5536978372793354e-13 -1.3231194433247163e-12  1.5000000000009173e-01 -2.4440928041964707e-14 4.5761701776453932e-13  1.5000000000012520e-01 -3.6664380677578129e-13 2.6319381985054653e-13  1.4999999999984798e-01 3.3219785371315809e-13 -4.4946086144481473e-13  1.5000000000007233e-01 -1.1077254743463347e-13 2.6734011110923011e-13  1.5000000000000963e-01 -6.7739235983461445e-14 -2.2930314361112682e-14  1.4999999