<?xml version="1.0"?>
<VTKFile type="UnstructuredGrid"  version="0.1"  >
<UnstructuredGrid>
<Piece  NumberOfPoints="10201" NumberOfCells="20000">
<Points>
<DataArray  type="Float64"  NumberOfComponents="3"  format="ascii">-5 -5 0  -4.9 -5 0  -4.8 -5 0  -4.7 -5 0  -4.6 -5 0  -4.5 -5 0  -4.4 -5 0  -4.3 -5 0  -4.2 -5 0  -4.1 -5 0  -4 -5 0  -3.9 -5 0  -3.8 -5 0  -3.7 -5 0  -3.6 -5 0  -3.5 -5 0  -3.4 -5 0  -3.3 -5 0  -3.2 -5 0  -3.1 -5 0  -3 -5 0  -2.9 -5 0  -2.8 -5 0  -2.7 -5 0  -2.6 -5 0  -2.5 -5 0  -2.4 -5 0  -2.3 -5 0  -2.2 -5 0  -2.1 -5 0  -2 -5 0  -1.9 -5 0  -1.8 -5 0  -1.7 -5 0  -1.6 -5 0  -1.5 -5 0  -1.4 -5 0  -1.3 -5 0  -1.2 -5 0  -1.1 -5 0  -1 -5 0  -0.9000000000000004 -5 0  -0.7999999999999998 -5 0  -0.7000000000000002 -5 0  -0.5999999999999996 -5 0  -0.5 -5 0  -0.4000000000000004 -5 0  -0.2999999999999998 -5 0  -0.2000000000000002 -5 0  -0.09999999999999964 -5 0  0 -5 0  0.09999999999999964 -5 0  0.2000000000000002 -5 0  0.2999999999999998 -5 0  0.4000000000000004 -5 0  0.5 -5 0  0.5999999999999996 -5 0  0.7000000000000002 -5 0  0.7999999999999998 -5 0  0.9000000000000004 -5 0  1 -5 0  1.1 -5 0  1.2 -5 0  1.3 -5 0  1.4 -5 0  1.5 -5 0  1.6 -5 0  1.7 -5 0  1.8 -5 0  1.9 -5 0  2 -5 0  2.1 -5 0  2.2 -5 0  2.3 -5 0  2.4 -5 0  2.5 -5 0  2.6 -5 0  2.7 -5 0  2.8 -5 0  2.9 -5 0  3 -5 0  3.1 -5 0  3.199999999999999 -5 0  3.300000000000001 -5 0  3.4 -5 0  3.5 -5 0  3.6 -5 0  3.699999999999999 -5 0  3.800000000000001 -5 0  3.9 -5 0  4 -5 0  4.1 -5 0  4.199999999999999 -5 0  4.300000000000001 -5 0  4.4 -5 0  4.5 -5 0  4.6 -5 0  4.699999999999999 -5 0  4.800000000000001 -5 0  4.9 -5 0  5 -5 0  -5 -4.9 0  -4.9 -4.9 0  -4.8 -4.9 0  -4.7 -4.9 0  -4.6 -4.9 0  -4.5 -4.9 0  -4.4 -4.9 0  -4.3 -4.9 0  -4.2 -4.9 0  -4.1 -4.9 0  -4 -4.9 0  -3.9 -4.9 0  -3.8 -4.9 0  -3.7 -4.9 0  -3.6 -4.9 0  -3.5 -4.9 0  -3.4 -4.9 0  -3.3 -4.9 0  -3.2 -4.9 0  -3.1 -4.9 0  -3 -4.9 0  -2.9 -4.9 0  -2.8 -4.9 0  -2.7 -4.9 0  -2.6 -4.9 0  -2.5 -4.9 0  -2.4 -4.9 0  -2.3 -4.9 0  -2.2 -4.9 0  -2.1 -4.9 0  -2 -4.9 0  -1.9 -4.9 0  -1.8 -4.9 0  -1.7 -4.9 0  -1.6 -4.9 0  -1.5 -4.9 0  -1.4 -4.9 0  -1.3 -4.9 0  -1.2 -4.9 0  -1.1 -4.9 0  -1 -4.9 0  -0.9000000000000004 -4.9 0  -0.7999999999999998 -4.9 0  -0.7000000000000002 -4.9 0  -0.5999999999999996 -4.9 0  -0.5 -4.9 0  -0.4000000000000004 -4.9 0  -0.2999999999999998 -4.9 0  -0.2000000000000002 -4.9 0  -0.09999999999999964 -4.9 0  0 -4.9 0  0.09999999999999964 -4.9 0  0.2000000000000002 -4.9 0  0.2999999999999998 -4.9 0  0.4000000000000004 -4.9 0  0.5 -4.9 0  0.5999999999999996 -4.9 0  0.7000000000000002 -4.9 0  0.7999999999999998 -4.9 0  0.9000000000000004 -4.9 0  1 -4.9 0  1.1 -4.9 0  1.2 -4.9 0  1.3 -4.9 0  1.4 -4.9 0  1.5 -4.9 0  1.6 -4.9 0  1.7 -4.9 0  1.8 -4.9 0  1.9 -4.9 0  2 -4.9 0  2.1 -4.9 0  2.2 -4.9 0  2.3 -4.9 0  2.4 -4.9 0  2.5 -4.9 0  2.6 -4.9 0  2.7 -4.9 0  2.8 -4.9 0  2.9 -4.9 0  3 -4.9 0  3.1 -4.9 0  3.199999999999999 -4.9 0  3.300000000000001 -4.9 0  3.4 -4.9 0  3.5 -4.9 0  3.6 -4.9 0  3.699999999999999 -4.9 0  3.800000000000001 -4.9 0  3.9 -4.9 0  4 -4.9 0  4.1 -4.9 0  4.199999999999999 -4.9 0  4.300000000000001 -4.9 0  4.4 -4.9 0  4.5 -4.9 0  4.6 -4.9 0  4.699999999999999 -4.9 0  4.800000000000001 -4.9 0  4.9 -4.9 0  5 -4.9 0  -5 -4.8 0  -4.9 -4.8 0  -4.8 -4.8 0  -4.7 -4.8 0  -4.6 -4.8 0  -4.5 -4.8 0  -4.4 -4.8 0  -4.3 -4.8 0  -4.2 -4.8 0  -4.1 -4.8 0  -4 -4.8 0  -3.9 -4.8 0  -3.8 -4.8 0  -3.7 -4.8 0  -3.6 -4.8 0  -3.5 -4.8 0  -3.4 -4.8 0  -3.3 -4.8 0  -3.2 -4.8 0  -3.1 -4.8 0  -3 -4.8 0  -2.9 -4.8 0  -2.8 -4.8 0  -2.7 -4.8 0  -2.6 -4.8 0  -2.5 -4.8 0  -2.4 -4.8 0  -2.3 -4.8 0  -2.2 -4.8 0  -2.1 -4.8 0  -2 -4.8 0  -1.9 -4.8 0  -1.8 -4.8 0  -1.7 -4.8 0  -1.6 -4.8 0  -1.5 -4.8 0  -1.4 -4.8 0  -1.3 -4.8 0  -1.2 -4.8 0  -1.1 -4.8 0  -1 -4.8 0  -0.9000000000000004 -4.8 0  -0.7999999999999998 -4.8 0  -0.7000000000000002 -4.8 0  -0.5999999999999996 -4.8 0  -0.5 -4.8 0  -0.4000000000000004 -4.8 0  -0.2999999999999998 -4.8 0  -0.2000000000000002 -4.8 0  -0.09999999999999964 -4.8 0  0 -4.8 0  0.09999999999999964 -4.8 0  0.2000000000000002 -4.8 0  0.2999999999999998 -4.8 0  0.4000000000000004 -4.8 0  0.5 -4.8 0  0.5999999999999996 -4.8 0  0.7000000000000002 -4.8 0  0.7999999999999998 -4.8 0  0.9000000000000004 -4.8 0  1 -4.8 0  1.1 -4.8 0  1.2 -4.8 0  1.3 -4.8 0  1.4 -4.8 0  1.5 -4.8 0  1.6 -4.8 0  1.7 -4.8 0  1.8 -4.8 0  1.9 -4.8 0  2 -4.8 0  2.1 -4.8 0  2.2 -4.8 0  2.3 -4.8 0  2.4 -4.8 0  2.5 -4.8 0  2.6 -4.8 0  2.7 -4.8 0  2.8 -4.8 0  2.9 -4.8 0  3 -4.8 0  3.1 -4.8 0  3.199999999999999 -4.8 0  3.300000000000001 -4.8 0  3.4 -4.8 0  3.5 -4.8 0  3.6 -4.8 0  3.699999999999999 -4.8 0  3.800000000000001 -4.8 0  3.9 -4.8 0  4 -4.8 0  4.1 -4.8 0  4.199999999999999 -4.8 0  4.300000000000001 -4.8 0  4.4 -4.8 0  4.5 -4.8 0  4.6 -4.8 0  4.699999999999999 -4.8 0  4.800000000000001 -4.8 0  4.9 -4.8 0  5 -4.8 0  -5 -4.7 0  -4.9 -4.7 0  -4.8 -4.7 0  -4.7 -4.7 0  -4.6 -4.7 0  -4.5 -4.7 0  -4.4 -4.7 0  -4.3 -4.7 0  -4.2 -4.7 0  -4.1 -4.7 0  -4 -4.7 0  -3.9 -4.7 0  -3.8 -4.7 0  -3.7 -4.7 0  -3.6 -4.7 0  -3.5 -4.7 0  -3.4 -4.7 0  -3.3 -4.7 0  -3.2 -4.7 0  -3.1 -4.7 0  -3 -4.7 0  -2.9 -4.7 0  -2.8 -4.7 0  -2.7 -4.7 0  -2.6 -4.7 0  -2.5 -4.7 0  -2.4 -4.7 0  -2.3 -4.7 0  -2.2 -4.7 0  -2.1 -4.7 0  -2 -4.7 0  -1.9 -4.7 0  -1.8 -4.7 0  -1.7 -4.7 0  -1.6 -4.7 0  -1.5 -4.7 0  -1.4 -4.7 0  -1.3 -4.7 0  -1.2 -4.7 0  -1.1 -4.7 0  -1 -4.7 0  -0.9000000000000004 -4.7 0  -0.7999999999999998 -4.7 0  -0.7000000000000002 -4.7 0  -0.5999999999999996 -4.7 0  -0.5 -4.7 0  -0.4000000000000004 -4.7 0  -0.2999999999999998 -4.7 0  -0.2000000000000002 -4.7 0  -0.09999999999999964 -4.7 0  0 -4.7 0  0.09999999999999964 -4.7 0  0.2000000000000002 -4.7 0  0.2999999999999998 -4.7 0  0.4000000000000004 -4.7 0  0.5 -4.7 0  0.5999999999999996 -4.7 0  0.7000000000000002 -4.7 0  0.7999999999999998 -4.7 0  0.9000000000000004 -4.7 0  1 -4.7 0  1.1 -4.7 0  1.2 -4.7 0  1.3 -4.7 0  1.4 -4.7 0  1.5 -4.7 0  1.6 -4.7 0  1.7 -4.7 0  1.8 -4.7 0  1.9 -4.7 0  2 -4.7 0  2.1 -4.7 0  2.2 -4.7 0  2.3 -4.7 0  2.4 -4.7 0  2.5 -4.7 0  2.6 -4.7 0  2.7 -4.7 0  2.8 -4.7 0  2.9 -4.7 0  3 -4.7 0  3.1 -4.7 0  3.199999999999999 -4.7 0  3.300000000000001 -4.7 0  3.4 -4.7 0  3.5 -4.7 0  3.6 -4.7 0  3.699999999999999 -4.7 0  3.800000000000001 -4.7 0  3.9 -4.7 0  4 -4.7 0  4.1 -4.7 0  4.199999999999999 -4.7 0  4.300000000000001 -4.7 0  4.4 -4.7 0  4.5 -4.7 0  4.6 -4.7 0  4.699999999999999 -4.7 0  4.800000000000001 -4.7 0  4.9 -4.7 0  5 -4.7 0  -5 -4.6 0  -4.9 -4.6 0  -4.8 -4.6 0  -4.7 -4.6 0  -4.6 -4.6 0  -4.5 -4.6 0  -4.4 -4.6 0  -4.3 -4.6 0  -4.2 -4.6 0  -4.1 -4.6 0  -4 -4.6 0  -3.9 -4.6 0  -3.8 -4.6 0  -3.7 -4.6 0  -3.6 -4.6 0  -3.5 -4.6 0  -3.4 -4.6 0  -3.3 -4.6 0  -3.2 -4.6 0  -3.1 -4.6 0  -3 -4.6 0  -2.9 -4.6 0  -2.8 -4.6 0  -2.7 -4.6 0  -2.6 -4.6 0  -2.5 -4.6 0  -2.4 -4.6 0  -2.3 -4.6 0  -2.2 -4.6 0  -2.1 -4.6 0  -2 -4.6 0  -1.9 -4.6 0  -1.8 -4.6 0  -1.7 -4.6 0  -1.6 -4.6 0  -1.5 -4.6 0  -1.4 -4.6 0  -1.3 -4.6 0  -1.2 -4.6 0  -1.1 -4.6 0  -1 -4.6 0  -0.9000000000000004 -4.6 0  -0.7999999999999998 -4.6 0  -0.7000000000000002 -4.6 0  -0.5999999999999996 -4.6 0  -0.5 -4.6 0  -0.4000000000000004 -4.6 0  -0.2999999999999998 -4.6 0  -0.2000000000000002 -4.6 0  -0.09999999999999964 -4.6 0  0 -4.6 0  0.09999999999999964 -4.6 0  0.2000000000000002 -4.6 0  0.2999999999999998 -4.6 0  0.4000000000000004 -4.6 0  0.5 -4.6 0  0.5999999999999996 -4.6 0  0.7000000000000002 -4.6 0  0.7999999999999998 -4.6 0  0.9000000000000004 -4.6 0  1 -4.6 0  1.1 -4.6 0  1.2 -4.6 0  1.3 -4.6 0  1.4 -4.6 0  1.5 -4.6 0  1.6 -4.6 0  1.7 -4.6 0  1.8 -4.6 0  1.9 -4.6 0  2 -4.6 0  2.1 -4.6 0  2.2 -4.6 0  2.3 -4.6 0  2.4 -4.6 0  2.5 -4.6 0  2.6 -4.6 0  2.7 -4.6 0  2.8 -4.6 0  2.9 -4.6 0  3 -4.6 0  3.1 -4.6 0  3.199999999999999 -4.6 0  3.300000000000001 -4.6 0  3.4 -4.6 0  3.5 -4.6 0  3.6 -4.6 0  3.699999999999999 -4.6 0  3.800000000000001 -4.6 0  3.9 -4.6 0  4 -4.6 0  4.1 -4.6 0  4.199999999999999 -4.6 0  4.300000000000001 -4.6 0  4.4 -4.6 0  4.5 -4.6 0  4.6 -4.6 0  4.699999999999999 -4.6 0  4.800000000000001 -4.6 0  4.9 -4.6 0  5 -4.6 0  -5 -4.5 0  -4.9 -4.5 0  -4.8 -4.5 0  -4.7 -4.5 0  -4.6 -4.5 0  -4.5 -4.5 0  -4.4 -4.5 0  -4.3 -4.5 0  -4.2 -4.5 0  -4.1 -4.5 0  -4 -4.5 0  -3.9 -4.5 0  -3.8 -4.5 0  -3.7 -4.5 0  -3.6 -4.5 0  -3.5 -4.5 0  -3.4 -4.5 0  -3.3 -4.5 0  -3.2 -4.5 0  -3.1 -4.5 0  -3 -4.5 0  -2.9 -4.5 0  -2.8 -4.5 0  -2.7 -4.5 0  -2.6 -4.5 0  -2.5 -4.5 0  -2.4 -4.5 0  -2.3 -4.5 0  -2.2 -4.5 0  -2.1 -4.5 0  -2 -4.5 0  -1.9 -4.5 0  -1.8 -4.5 0  -1.7 -4.5 0  -1.6 -4.5 0  -1.5 -4.5 0  -1.4 -4.5 0  -1.3 -4.5 0  -1.2 -4.5 0  -1.1 -4.5 0  -1 -4.5 0  -0.9000000000000004 -4.5 0  -0.7999999999999998 -4.5 0  -0.7000000000000002 -4.5 0  -0.5999999999999996 -4.5 0  -0.5 -4.5 0  -0.4000000000000004 -4.5 0  -0.2999999999999998 -4.5 0  -0.2000000000000002 -4.5 0  -0.09999999999999964 -4.5 0  0 -4.5 0  0.09999999999999964 -4.5 0  0.2000000000000002 -4.5 0  0.2999999999999998 -4.5 0  0.4000000000000004 -4.5 0  0.5 -4.5 0  0.5999999999999996 -4.5 0  0.7000000000000002 -4.5 0  0.7999999999999998 -4.5 0  0.9000000000000004 -4.5 0  1 -4.5 0  1.1 -4.5 0  1.2 -4.5 0  1.3 -4.5 0  1.4 -4.5 0  1.5 -4.5 0  1.6 -4.5 0  1.7 -4.5 0  1.8 -4.5 0  1.9 -4.5 0  2 -4.5 0  2.1 -4.5 0  2.2 -4.5 0  2.3 -4.5 0  2.4 -4.5 0  2.5 -4.5 0  2.6 -4.5 0  2.7 -4.5 0  2.8 -4.5 0  2.9 -4.5 0  3 -4.5 0  3.1 -4.5 0  3.199999999999999 -4.5 0  3.300000000000001 -4.5 0  3.4 -4.5 0  3.5 -4.5 0  3.6 -4.5 0  3.699999999999999 -4.5 0  3.800000000000001 -4.5 0  3.9 -4.5 0  4 -4.5 0  4.1 -4.5 0  4.199999999999999 -4.5 0  4.300000000000001 -4.5 0  4.4 -4.5 0  4.5 -4.5 0  4.6 -4.5 0  4.699999999999999 -4.5 0  4.800000000000001 -4.5 0  4.9 -4.5 0  5 -4.5 0  -5 -4.4 0  -4.9 -4.4 0  -4.8 -4.4 0  -4.7 -4.4 0  -4.6 -4.4 0  -4.5 -4.4 0  -4.4 -4.4 0  -4.3 -4.4 0  -4.2 -4.4 0  -4.1 -4.4 0  -4 -4.4 0  -3.9 -4.4 0  -3.8 -4.4 0  -3.7 -4.4 0  -3.6 -4.4 0  -3.5 -4.4 0  -3.4 -4.4 0  -3.3 -4.4 0  -3.2 -4.4 0  -3.1 -4.4 0  -3 -4.4 0  -2.9 -4.4 0  -2.8 -4.4 0  -2.7 -4.4 0  -2.6 -4.4 0  -2.5 -4.4 0  -2.4 -4.4 0  -2.3 -4.4 0  -2.2 -4.4 0  -2.1 -4.4 0  -2 -4.4 0  -1.9 -4.4 0  -1.8 -4.
[...]
<PointData  Vectors="f_17"> 
<DataArray  type="Float64"  Name="f_17"  NumberOfComponents="3" format="ascii">1.5099715221273685e-01 0.0000000000000000e+00 0.0000000000000000e+00  1.4974893818249549e-01 -9.8667017953552928e-04 0.0000000000000000e+00  1.5085731864513852e-01 3.9021790332004105e-04 0.0000000000000000e+00  1.4984993275969194e-01 -1.0299459685310943e-03 0.0000000000000000e+00  1.5064129574724472e-01 9.2340687093449736e-04 0.0000000000000000e+00  1.4986047598506905e-01 -8.2594914203074435e-04 0.0000000000000000e+00  1.5050860607000124e-01 1.1153761741185732e-03 0.0000000000000000e+00  1.5001234373787686e-01 -7.9739011535188563e-04 0.0000000000000000e+00  1.5060516600528520e-01 7.8642495661018547e-04 0.0000000000000000e+00  1.5026134179244202e-01 -8.7039216669871754e-04 0.0000000000000000e+00  1.5066100565081700e-01 6.7516396072196216e-04 0.0000000000000000e+00  1.5019228217568326e-01 -3.2665974677485222e-04 0.0000000000000000e+00  1.5028353805603847e-01 1.1415908186463864e-03 0.0000000000000000e+00  1.4982676767246578e-01 4.5400255537454784e-04 0.0000000000000000e+00  1.4991678469221859e-01 1.2598769940121001e-03 0.0000000000000000e+00  1.4967238547854417e-01 3.6033289111513756e-04 0.0000000000000000e+00  1.4984391669880695e-01 8.2232184456626555e-04 0.0000000000000000e+00  1.4964461510727031e-01 3.7442474573666929e-04 0.0000000000000000e+00  1.4963661482347135e-01 8.5359711786590984e-04 0.0000000000000000e+00  1.4948735349111242e-01 5.4350041419026014e-04 0.0000000000000000e+00  1.4960279610124227e-01 5.4354074270960857e-04 0.0000000000000000e+00  1.4960439408134363e-01 -1.0558046259075128e-04 0.0000000000000000e+00  1.4974616655987907e-01 -2.1049033611300158e-04 0.0000000000000000e+00  1.4977505049031994e-01 -4.1664908081573719e-04 0.0000000000000000e+00  1.4983074846217984e-01 -4.9879142777874651e-04 0.0000000000000000e+00  1.4987626257937445e-01 -6.9844396964432228e-04 0.0000000000000000e+00  1.4993841576495082e-01 -4.7255317987398909e-04 0.0000000000000000e+00  1.4982295708463084e-01 -2.6493466438435399e-04 0.0000000000000000e+00  1.4977931340944206e-01 -1.8401265027630353e-04 0.0000000000000000e+00  1.4988039513871446e-01 -2.9535033075746509e-04 0.0000000000000000e+00  1.4990352723730768e-01 -2.9801009936098794e-04 0.0000000000000000e+00  1.4981791619974377e-01 -7.9581962546933457e-05 0.0000000000000000e+00  1.4991589464567109e-01 7.1763994051962472e-05 0.0000000000000000e+00  1.5009815694051007e-01 -3.1691694072148355e-04 0.0000000000000000e+00  1.5009575693093494e-01 -4.8019309718638862e-04 0.0000000000000000e+00  1.4992461454058623e-01 3.0019563289925710e-04 0.0000000000000000e+00  1.4981271598998444e-01 6.8237538399220895e-04 0.0000000000000000e+00  1.4996586795115177e-01 -3.2029473898591260e-04 0.0000000000000000e+00  1.5023759623324248e-01 -8.0927443309090745e-04 0.0000000000000000e+00  1.5013304054469645e-01 1.9309749635899821e-04 0.0000000000000000e+00  1.4978050870358647e-01 6.3819074552258178e-04 0.0000000000000000e+00  1.4984801518113700e-01 -3.3294588343335195e-05 0.0000000000000000e+00  1.5014067086278698e-01 -1.7932774331179871e-04 0.0000000000000000e+00  1.5007540081671727e-01 -4.9231649095378416e-05 0.0000000000000000e+00  1.4996691840369183e-01 -2.7583289286881724e-04 0.0000000000000000e+00  1.5001812693884992e-01 2.2955216734835032e-04 0.0000000000000000e+00  1.4989582756838160e-01 6.1967688003287708e-04 0.0000000000000000e+00  1.4995966356271734e-01 -5.5217046805421143e-04 0.0000000000000000e+00  1.5026911571951265e-01 -7.4613448798874411e-04 0.0000000000000000e+00  1.4995457056694722e-01 9.4465289161753331e-04 0.0000000000000000e+00  1.4959633076380591e-01 5.9453123056726377e-04 0.0000000000000000e+00  1.5023648498913972e-01 -1.3070992209007295e-03 0.0000000000000000e+00  1.5039370035601529e-01 -1.6645736250473300e-04 0.0000000000000000e+00  1.4949753674495653e-01 1.4639810262238439e-03 0.0000000000000000e+00  1.4975033872188445e-01 -3.6914332877974513e-04 0.0000000000000000e+00  1.5067856146500830e-01 -1.3553689925653008e-03 0.0000000000000000e+00  1.4990629124648047e-01 9.4394562020964467e-04 0.0000000000000000e+00  1.4932317510111978e-01 9.0251127837228458e-04 0.0000000000000000e+00  1.5042899825312919e-01 -1.2422771646662261e-03 0.0000000000000000e+00  1.5044674444911019e-01 -3.4351364875680169e-04 0.0000000000000000e+00  1.4933815204860817e-01 1.3229565462952448e-03 0.0000000000000000e+00  1.4996910641937189e-01 -3.7313665756977179e-04 0.0000000000000000e+00  1.5059451604186419e-01 -9.1351168797780601e-04 0.0000000000000000e+00  1.4969531249804013e-01 7.1644694299472693e-04 0.0000000000000000e+00  1.4966401498060192e-01 4.6344370119397855e-04 0.0000000000000000e+00  1.5047943357691385e-01 -9.1554832721767090e-04 0.0000000000000000e+00  1.4994571915486324e-01 2.3191670267494347e-04 0.0000000000000000e+00  1.4967560394713642e-01 5.1114292349462454e-04 0.0000000000000000e+00  1.5024334083241356e-01 -4.1861852541727934e-04 0.0000000000000000e+00  1.5009971607360836e-01 -2.1350245454597566e-04 0.0000000000000000e+00  1.4972084177843586e-01 5.5794628917830524e-04 0.0000000000000000e+00  1.5015348083794100e-01 -3.1458508869891343e-04 0.0000000000000000e+00  1.5007114940723043e-01 -1.0968559097003713e-04 0.0000000000000000e+00  1.4985216734625431e-01 2.3078749788891565e-04 0.0000000000000000e+00  1.5004229832930330e-01 -8.5909157353420609e-07 0.0000000000000000e+00  1.5009806984952107e-01 -2.6929767478759228e-04 0.0000000000000000e+00  1.4986308148611074e-01 3.1810419127396367e-04 0.0000000000000000e+00  1.5007037668035947e-01 -1.6672649004648577e-04 0.0000000000000000e+00  1.5001043549538082e-01 1.7205132387077035e-05 0.0000000000000000e+00  1.4997107164139614e-01 -1.4377892163781052e-05 0.0000000000000000e+00  1.4998416083863148e-01 1.3539021019581899e-04 0.0000000000000000e+00  1.5007263612432981e-01 -2.6021301191407500e-04 0.0000000000000000e+00  1.4990298695034918e-01 3.0303593584050833e-04 0.0000000000000000e+00  1.5008472737549691e-01 -2.7187236737282014e-04 0.0000000000000000e+00  1.4993839195832753e-01 2.3296292332098035e-04 0.0000000000000000e+00  1.5005337660157739e-01 -2.3810099343514143e-04 0.0000000000000000e+00  1.4993384476546640e-01 2.8940176704138858e-04 0.0000000000000000e+00  1.5008827644340125e-01 -3.5158846146164159e-04 0.0000000000000000e+00  1.4989495297372249e-01 3.9083349559709281e-04 0.0000000000000000e+00  1.5010886933921486e-01 -3.9461180585658524e-04 0.0000000000000000e+00  1.4989595903686265e-01 3.7840565108959468e-04 0.0000000000000000e+00  1.5009477603197219e-01 -3.5492306160221106e-04 0.0000000000000000e+00  1.4990814199128466e-01 3.4458125285930592e-04 0.0000000000000000e+00  1.5008576842357579e-01 -3.2853722245178508e-04 0.0000000000000000e+00  1.4990791309071247e-01 3.2561289328311488e-04 0.0000000000000000e+00  1.5007848008105748e-01 -2.8604812600912361e-04 0.0000000000000000e+00  1.4990908484427046e-01 2.6836677558288868e-04 0.0000000000000000e+00  1.5005904644597312e-01 -1.8870282545818258e-04 0.0000000000000000e+00  1.4991090396255319e-01 1.6019883280599063e-04 0.0000000000000000e+00  1.5003616526976765e-01 -6.4670929546639411e-05 0.0000000000000000e+00  1.4990124180771039e-01 0.0000000000000000e+00 0.0000000000000000e+00  1.4974893818249568e-01 0.0000000000000000e+00 -9.8667017953581052e-04  1.4960137298562792e-01 5.2882717885099656e-04 5.2882717885213855e-04  1.4973083834033668e-01 2.4192177467204562e-04 -5.4588454111046368e-04  1.4963179006130914e-01 2.7037750236284629e-04 4.4997370605402872e-04  1.4979453517932786e-01 7.7635334599966750e-05 -2.1084515274537899e-04  1.4973233425977042e-01 -5.6701307544921704e-05 4.2919929540262349e-04  1.4985290473656177e-01 -1.0656804084390757e-04 -1.5438137241366586e-04  1.4970974110183727e-01 -1.3935577059480078e-04 2.1608069429113484e-04  1.4972214418521390e-01 1.2881758648012860e-05 -3.7544876047818510e-04  1.4954185274230086e-01 5.3443568227321705e-05 8.4407337754724595e-07  1.4957140852715406e-01 5.9158299823787412e-05 -3.9924930272146087e-04  1.4954388085439105e-01 -1.9612117234334969e-04 1.6517825545487363e-04  1.4978836587227159e-01 -4.1921910209415130e-04 -6.1401163283803894e-05  1.4989820245379465e-01 -7.7214635683542962e-04 4.1213167145291528e-04  1.5012457239409763e-01 -8.3780321843902330e-04 1.8232486378994129e-05  1.5016252120974549e-01 -7.7987781832609244e-04 2.8516971453931600e-04  1.5026133953919765e-01 -5.8663295020696153e-04 -2.9331487855866471e-05  1.5023342138761095e-01 -6.4307478679341502e-04 3.1006203125204544e-04  1.5038402040350363e-01 -6.3047259252715904e-04 1.8603951488537044e-04  1.5041650183263502e-01 -6.9239068087672791e-04 3.8412664104822930e-04  1.5043952997166707e-01 -5.3455032296857762e-04 4.3501867306796872e-05  1.5035846686026702e-01 -2.2785679582074621e-04 1.3739392706376347e-05  1.5033087180111701e-01 1.7018415900111919e-04 -1.7132545084957187e-04  1.5022476372294619e-01 2.7751706629253436e-04 -7.7225568813094316e-05  1.5020498710732377e-01 4.2511298088013992e-04 -1.4851315649983248e-04  1.5015580469061596e-01 6.0060317625917198e-04 -8.8457476138074196e-05  1.5009468829368902e-01 5.9210017382206777e-04 -1.0605136470958620e-04  1.5011292226852754e-01 3.5549597764740449e-04 6.8955050405540737e-05  1.5022971933327708e-01 2.3374672237021479e-04 1.5688978597767981e-04  1.5018677884572182e-01 2.2292810009884870e-04 1.2281582653706223e-04  1.5009936679381328e-01 2.8424412306127391e-04 6.3647833766126109e-05  1.5014168800606029e-01 2.6889939721825196e-04 1.4037880873798378e-04  1.5013902462545520e-01 5.7992170762183754e-05 3.7601262118299418e-05  1.4998358949947480e-01 3.1541828060280414e-05 -1.7002423284908060e-04  1.4991561483117558e-01 3.6839304843736036e-04 -1.0693185531479476e-04  1.4999612241423146e-01 1.8713632130849632e-04 1.7621249663350900e-04  1.5010787067430287e-01 -5.0009738867447923e-04 2.1292621235700861e-04  1.5011876932124982e-01 -2.5023332901892949e-04 -4.0271028290439389e-05  1.4991657260473096e-01 6.3396354614463047e-04 -2.0976174942140570e-04  1.4977954135173122e-01 3.3901397074901382e-04 -1.9986481632798115e-05  1.5003674891644381e-01 -5.2148497621804467e-04 2.4525894909717855e-04  1.5022713430788293e-01 -2.7804683765034292e-04 1.0204228384618699e-04  1.4997855881716710e-01 1.9805658558906539e-04 -2.3222790873311648e-04  1.4985768155542642e-01 2.1339312265892479e-05 -2.4510731420313058e-04  1.5003374762297619e-01 1.2580397606316705e-04 -1.5397957261482944e-04  1.5001935865587865e-01 1.6320317763564366e-04 -1.8677108296573513e-04  1.5002022145483343e-01 -4.7836653882996370e-04 -1.0599330144925118e-04  1.5017056613537902e-01 -1.8117008433155742e-04 -1.5823949020107097e-04  1.4995179191913199e-01 7.7973196747038482e-04 -4.0538198364884658e-04  1.4982921494433349e-01 4.8126890925860294e-06 -1.1531506006352305e-04  1.5031671849797118e-01 -9.5351329950405569e-04 2.1531275971536636e-04  1.5024334480666901e-01 3.3477120791535430e-04 -3.7090158069647222e-04  1.4962062969982459e-01 9.0978987373925633e-04 -5.3067921650303354e-04  1.5004733635064244e-01 -6.8771383484574208e-04 3.4660920423179408e-04  1.5058739745210331e-01 -6.8343771921643929e-04 6.6526594373049347e-05  1.4977033982876739e-01 9.6958882248008747e-04 -9.0832566579048283e-04  1.4958801893774115e-01 2.7097135097927576e-04 -5.9799883083600028e-05  1.5054593046099279e-01 -1.0213667918138017e-03 6.4301458068684054e-04  1.5018449744982310e-01 1.4473366235028757e-04 -6.2950165273698152e-04  1.4935795247330350e-01 9.2510467940076573e-04 -6.0411205176285352e-04  1.5017394097371120e-01 -5.4205472959558039e-04 8.1420528901875113e-04  1.5047327957614040e-01 -5.5320421129507623e-04 1.0620365865338371e-04  1.4955294998343410e-01 7.1498506061674503e-04 -7.7467939427902763e-04  1.4982789585889625e-01 1.6634764972029949e-04 4.3615793609260838e-04  1.5049169889523104e-01 -7.2811593966378330e-04 4.7441816792225140e-04  1.4983123580388802e-01 2.6509718706113421e-04 -6.4499042824185616e-04  1.4971629642651330e-01 4.3114909109609803e-04 1.3910881289652504e-05  1.5031653830327210e-01 -4.3996278616566882e-04 5.0304273562689294e-04  1.5001308055201582e-01 -1.0184517774195364e-04 -3.6821647638154661e-04  1.4974041568429272e-01 4.3844455842620672e-04 -1.3355975455844847e-04  1.5018369940600892e-01 -2.3075028662470634e-04 3.9031195247482591e-04  1.5005383522665680e-01 -1.6427103625402814e-04 -1.9377738131795959e-04  1.4982724841991024e-01 2.7695635743104870e-04 -1.5011253097047390e-04  1.5008827465617058e-01 -5.6346552307819826e-05 2.6736371722023249e-04  1.5006440731937690e-01 -1.9314569912511089e-04 -1.0242156309555147e-04  1.4987488345331731e-01 2.2138602839265705e-04 -1.1869438770135302e-04  1.5006581009291872e-01 -6.2657327308521615e-05 1.7895039799449482e-04  1.5002456109356901e-01 -7.8349263042989278e-05 -6.7356545112268011e-05  1.4994409279643092e-01 6.8619993343940579e-05 -7.1941041589159777e-05  1.5001626408947874e-01 5.2687036837014693e-05 1.1180180271102118e-04  1.5004286501647998e-01 -1.5978664243260788e-04 -4.5891173483229340e-05  1.4992985083696903e-01 1.7578953115359846e-04 -4.3567266702892699e-05  1.5005651065659312e-01 -1.2303572871194074e-04 8.0771633445829823e-05  1.4997171715794164e-01 7.3971436572516894e-05 -5.5240087362194125e-05  1.5001450581223039e-01 -7.5610593196124412e-05 8.5830840647866639e-06  1.4997659143349468e-01 1.1972389083795453e-04 1.4068979771448157e-05  1.5004333087223182e-01 -1.6612601154534866e-04 1.2132154430304372e-06  1.4994203205706627e-01 1.8291448751244261e-04 -3.7462446041235219e-05  1.5006005694713034e-01 -1.6758071495032390e-04 6.9401890965574046e-05  1.4994765434196078e-01 1.3804551641288232e-04 -8.2564414501241535e-05  1.5004381322149793e-01 -1.1584638019664609e-04 8.0800648110536104e-05  1.4996229884316820e-01 1.0449140082167321e-04 -7.2234751928450968e-05  1.5003890743291462e-01 -1.0587124557454792e-04 7.2215144664652327e-05  1.4996356690094953e-01 9.6994218365542513e-05 -7.2049918161523781e-05  1.5004182669873470e-01 -9.4401902998663710e-05 8.7613907350698241e-05  1.4997079800470278e-01 6.3144629688634870e-05 -8.0380301544524579e-05  1.5003880580236251e-01 -6.1753604790388373e-05 9.8561270955227799e-05  1.4998938890521057e-01 1.8441577606477654e-05 -6.0527225721110062e-05  1.5003656571575447e-01 -4.0146078626476998e-05 8.7926254812230003e-05  1.5001320156057180e-01 1.0842995561635288e-05 -1.0842995562573384e-05  1.5003616526976801e-01 0.0000000000000000e+00 6.4670929546008121e-05  1.5085731864513816e-01 0.0000000000000000e+00 3.9021790332128355e-04  1.4973083834033676e-01 -5.4588454111139826e-04 2.4192177467219209e-04  1.5079524409481807e-01 -6.8173169082338421e-05 -6.8173169082738370e-05  1.4985462482835335e-01 -7.1741164446763783e-04 2.4785335162555959e-04  1.5060978174580422e-01 3.3843233925511879e-04 -4.3886570594094278e-04  1.4989803153673081e-01 -5.8172609687964642e-04 7.7168891048841310e-05  1.5043537560923897e-01 6.1260999743882843e-04 -5.9491843566836136e-04  1.4996640313140872e-01 -4.4835550772871107e-04 2.1901431366645873e-04  1.5046563163217525e-01 5.5201248474679343e-04 -2.3579579119156001e-04  1.5017546664215561e-01 -5.2954890273924058e-04 6.4518470532446467e-04  1.5059716048355051e-01 3.5500912166419422e-04 9.6952803612077235e-05  1.5031098979267521e-01 -3.2308726397332568e-04 6.4269908732788770e-04  1.5048710088507930e-01 6.5163186088451641e-04 -2.0421631610501492e-04  1.5006666249321082e-01 2.6636234545992951e-04 6.2234065636621559e-05  1.5013454659954661e-01 1.0935488350854042e-03 -5.6732641336968369e-04  1.4979125871977272e-01 5.9563177157496050e-04 -8.9706400828037778e-05  1.4987817467436462e-01 9.0984668308398040e-04 -4.9778121139476908e-04  1.4967959441496220e-01 4.5834810433049587e-04 -1.2154143649212304e-04  1.4976063223747699e-01 8.2304775755147070e-04 -5.7485506986512853e-04  1.4954667215383485e-01 5.2076252495798900e-04 -3.8138565933834725e-04  1.4964517245475281e-01 7.1940633735185740e-04 -5.1715975478064012e-04  1.4960564334333276e-01 3.1221755738647166e-04 5.9628455931269131e-06  1.4971290202526721e-01 1.1314787778452315e-04 -7.2921775472515641e-07  1.4970630750652297e-01 -2.7180858624479420e-04 2.3847818786578383e-04  1.4982581744994325e-01 -2.5028031393978885e-04 1.5065305160682219e-04  1.4980730204678544e-01 -5.4082052104676651e-04 2.5826243975013674e-04  1.4988951989026586e-01 -6.0095052155529943e-04 1.5935840201930233e-04  1.4989489673418757e-01 -4.7378370064263909e-04 1.0526582965678841e-04  1.4981216269836325e-01 -2.3727000647005624e-04 -2.4371993906555873e-04  1.4974961596479583e-01 -2.4427294654878301e-04 -2.9410327775653418e-04  1.4986985269696454e-01 -2.5510449484288729e-04 -1.5146648410474368e-04  1.4987607988046456e-01 -3.1814887187994886e-04 -1.7847054111101712e-04  1.4982380203749379e-01 -2.1849932732519194e-04 -2.8187879831074216e-04  1.4993661142069409e-01 -2.8196360878973947e-05 8.9221195403082744e-05  1.5007540327114927e-01 -1.6054310511690593e-04 3.4460022437345338e-04  1.5002314296611360e-01 -3.7017235782520511e-04 1.7602772006957143e-05  1.4993735673234715e-01 1.3232359995053530e-04 -3.4803816904617339e-04  1.4989687651851413e-01 5.0481120415301988e-04 -2.5369761081791133e-04  1.4996790248659295e-01 -2.2693661905917091e-04 4.3274903943882047e-05  1.5017974041715443e-01 -6.5648243660534639e-04 1.4178408414150469e-04  1.5017212086261614e-01 1.5335985942347238e-04 -2.0098063773341918e-04  1.4989123419891656e-01 5.2625740451791680e-04 -4.8018115055000344e-04  1.4991948255632714e-01 -4.9327182754530493e-05 -3.5913961348902807e-05  1.5017758827517164e-01 -1.4389028932740552e-04 4.9384132898516980e-04  1.5008125501824066e-01 1.6561062329273192e-06 4.5160069822805998e-04  1.4989953163783973e-01 -2.5197824169396067e-04 4.4680674058048323e-04  1.4991310780786063e-01 1.4768923909584431e-04 5.3423831557377136e-04  1.4976331507672774e-01 5.4029504193392529e-04 4.0977404389355471e-04  1.4970206764706567e-01 -3.8936274069600613e-04 7.6265625798175652e-04  1.4994704143548690e-01 -6.2384739456469121e-04 1.0894387965529209e-03  1.4971380454430264e-01 7.1676205127838152e-04 3.2155002955923650e-04  1.4936120188501162e-01 4.5302825024006328e-04 2.4640028375125315e-04  1.4984268791593175e-01 -9.2740561380293270e-04 1.4247178393666593e-03  1.5005172715548112e-01 -1.3695658508056097e-04 8.5969760691032211e-04  1.4935611907498647e-01 1.0130745708289942e-03 -4.3846504375291348e-04  1.4960446298272365e-01 -3.1661244568536494e-04 9.2117459887900875e-04  1.5037740525866530e-01 -8.2446677967624332e-04 1.5223808729802404e-03  1.4983885086958665e-01 6.0876222292914584e-04 -6.8292417248027161e-04  1.4948752312475719e-01 5.6248048630297843e-04 -4.4451248781344945e-04  1.5046451060313601e-01 -8.4064149072191671e-04 1.4962986520855484e-03  1.5034823542170336e-01 -8.8030099926678961e-05 -2.7272629162634286e-04  1.4955389489335177e-01 7.5378504652751305e-04 -1.4587532616713661e-03  1.5010838492201131e-01 -2.0717710743687760e-04 8.0241938922925654e-04  1.5046022529229214e-01 -6.0221723244121607e-04 5.5081540973400559e-04  1.4963496946734525e-01 5.5239991203549690e-04 -1.3053936158107010e-03  1.4984551465608584e-01 1.7364800130214686e-04 2.9736988176774142e-04  1.5035924914788384e-01 -4.9038263904024936e-04 9.0625393430599855e-04  1.4988726769543170e-01 7.2708921327982597e-05 -7.8258502494675194e-04  1.4977764150674588e-01 4.0840862592359802e-04 -1.6934674222895025e-04  1.5026657770441984e-01 -3.8011929941852784e-04 7.7165715790395936e-04  1.4995531731937500e-01 -2.4953594820142145e-06 -4.8572477428584642e-04  1.4985245021612606e-01 2.3170091352611491e-04 -2.0605710436505937e-04  1.5012774355944003e-01 -9.3325667346786046e-05 5.1590338842901623e-04  1.5002977095098902e-01 -1.8478052130571884e-04 -2.3267205303227791e-04  1.4985741257872201e-01 2.9692035186701962e-04 -2.3052027676806705e-04  1.5012317354760832e-01 -1.8752391084579412e-04 4.0032628229841148e-04  1.4997024570218856e-01 3.2414348282904644e-05 -2.0073460298725306e-04  1.4996940925694915e-01 -2.8582012407957928e-06 -9.2112997968991505e-05  1.5001096351123197e-01 1.1016611092676169e-04 1.95125595265973