<?xml version="1.0"?>
<VTKFile type="UnstructuredGrid"  version="0.1"  >
<UnstructuredGrid>
<Piece  NumberOfPoints="10201" NumberOfCells="20000">
<Points>
<DataArray  type="Float64"  NumberOfComponents="3"  format="ascii">-5 -5 0  -4.9 -5 0  -4.8 -5 0  -4.7 -5 0  -4.6 -5 0  -4.5 -5 0  -4.4 -5 0  -4.3 -5 0  -4.2 -5 0  -4.1 -5 0  -4 -5 0  -3.9 -5 0  -3.8 -5 0  -3.7 -5 0  -3.6 -5 0  -3.5 -5 0  -3.4 -5 0  -3.3 -5 0  -3.2 -5 0  -3.1 -5 0  -3 -5 0  -2.9 -5 0  -2.8 -5 0  -2.7 -5 0  -2.6 -5 0  -2.5 -5 0  -2.4 -5 0  -2.3 -5 0  -2.2 -5 0  -2.1 -5 0  -2 -5 0  -1.9 -5 0  -1.8 -5 0  -1.7 -5 0  -1.6 -5 0  -1.5 -5 0  -1.4 -5 0  -1.3 -5 0  -1.2 -5 0  -1.1 -5 0  -1 -5 0  -0.9000000000000004 -5 0  -0.7999999999999998 -5 0  -0.7000000000000002 -5 0  -0.5999999999999996 -5 0  -0.5 -5 0  -0.4000000000000004 -5 0  -0.2999999999999998 -5 0  -0.2000000000000002 -5 0  -0.09999999999999964 -5 0  0 -5 0  0.09999999999999964 -5 0  0.2000000000000002 -5 0  0.2999999999999998 -5 0  0.4000000000000004 -5 0  0.5 -5 0  0.5999999999999996 -5 0  0.7000000000000002 -5 0  0.7999999999999998 -5 0  0.9000000000000004 -5 0  1 -5 0  1.1 -5 0  1.2 -5 0  1.3 -5 0  1.4 -5 0  1.5 -5 0  1.6 -5 0  1.7 -5 0  1.8 -5 0  1.9 -5 0  2 -5 0  2.1 -5 0  2.2 -5 0  2.3 -5 0  2.4 -5 0  2.5 -5 0  2.6 -5 0  2.7 -5 0  2.8 -5 0  2.9 -5 0  3 -5 0  3.1 -5 0  3.199999999999999 -5 0  3.300000000000001 -5 0  3.4 -5 0  3.5 -5 0  3.6 -5 0  3.699999999999999 -5 0  3.800000000000001 -5 0  3.9 -5 0  4 -5 0  4.1 -5 0  4.199999999999999 -5 0  4.300000000000001 -5 0  4.4 -5 0  4.5 -5 0  4.6 -5 0  4.699999999999999 -5 0  4.800000000000001 -5 0  4.9 -5 0  5 -5 0  -5 -4.9 0  -4.9 -4.9 0  -4.8 -4.9 0  -4.7 -4.9 0  -4.6 -4.9 0  -4.5 -4.9 0  -4.4 -4.9 0  -4.3 -4.9 0  -4.2 -4.9 0  -4.1 -4.9 0  -4 -4.9 0  -3.9 -4.9 0  -3.8 -4.9 0  -3.7 -4.9 0  -3.6 -4.9 0  -3.5 -4.9 0  -3.4 -4.9 0  -3.3 -4.9 0  -3.2 -4.9 0  -3.1 -4.9 0  -3 -4.9 0  -2.9 -4.9 0  -2.8 -4.9 0  -2.7 -4.9 0  -2.6 -4.9 0  -2.5 -4.9 0  -2.4 -4.9 0  -2.3 -4.9 0  -2.2 -4.9 0  -2.1 -4.9 0  -2 -4.9 0  -1.9 -4.9 0  -1.8 -4.9 0  -1.7 -4.9 0  -1.6 -4.9 0  -1.5 -4.9 0  -1.4 -4.9 0  -1.3 -4.9 0  -1.2 -4.9 0  -1.1 -4.9 0  -1 -4.9 0  -0.9000000000000004 -4.9 0  -0.7999999999999998 -4.9 0  -0.7000000000000002 -4.9 0  -0.5999999999999996 -4.9 0  -0.5 -4.9 0  -0.4000000000000004 -4.9 0  -0.2999999999999998 -4.9 0  -0.2000000000000002 -4.9 0  -0.09999999999999964 -4.9 0  0 -4.9 0  0.09999999999999964 -4.9 0  0.2000000000000002 -4.9 0  0.2999999999999998 -4.9 0  0.4000000000000004 -4.9 0  0.5 -4.9 0  0.5999999999999996 -4.9 0  0.7000000000000002 -4.9 0  0.7999999999999998 -4.9 0  0.9000000000000004 -4.9 0  1 -4.9 0  1.1 -4.9 0  1.2 -4.9 0  1.3 -4.9 0  1.4 -4.9 0  1.5 -4.9 0  1.6 -4.9 0  1.7 -4.9 0  1.8 -4.9 0  1.9 -4.9 0  2 -4.9 0  2.1 -4.9 0  2.2 -4.9 0  2.3 -4.9 0  2.4 -4.9 0  2.5 -4.9 0  2.6 -4.9 0  2.7 -4.9 0  2.8 -4.9 0  2.9 -4.9 0  3 -4.9 0  3.1 -4.9 0  3.199999999999999 -4.9 0  3.300000000000001 -4.9 0  3.4 -4.9 0  3.5 -4.9 0  3.6 -4.9 0  3.699999999999999 -4.9 0  3.800000000000001 -4.9 0  3.9 -4.9 0  4 -4.9 0  4.1 -4.9 0  4.199999999999999 -4.9 0  4.300000000000001 -4.9 0  4.4 -4.9 0  4.5 -4.9 0  4.6 -4.9 0  4.699999999999999 -4.9 0  4.800000000000001 -4.9 0  4.9 -4.9 0  5 -4.9 0  -5 -4.8 0  -4.9 -4.8 0  -4.8 -4.8 0  -4.7 -4.8 0  -4.6 -4.8 0  -4.5 -4.8 0  -4.4 -4.8 0  -4.3 -4.8 0  -4.2 -4.8 0  -4.1 -4.8 0  -4 -4.8 0  -3.9 -4.8 0  -3.8 -4.8 0  -3.7 -4.8 0  -3.6 -4.8 0  -3.5 -4.8 0  -3.4 -4.8 0  -3.3 -4.8 0  -3.2 -4.8 0  -3.1 -4.8 0  -3 -4.8 0  -2.9 -4.8 0  -2.8 -4.8 0  -2.7 -4.8 0  -2.6 -4.8 0  -2.5 -4.8 0  -2.4 -4.8 0  -2.3 -4.8 0  -2.2 -4.8 0  -2.1 -4.8 0  -2 -4.8 0  -1.9 -4.8 0  -1.8 -4.8 0  -1.7 -4.8 0  -1.6 -4.8 0  -1.5 -4.8 0  -1.4 -4.8 0  -1.3 -4.8 0  -1.2 -4.8 0  -1.1 -4.8 0  -1 -4.8 0  -0.9000000000000004 -4.8 0  -0.7999999999999998 -4.8 0  -0.7000000000000002 -4.8 0  -0.5999999999999996 -4.8 0  -0.5 -4.8 0  -0.4000000000000004 -4.8 0  -0.2999999999999998 -4.8 0  -0.2000000000000002 -4.8 0  -0.09999999999999964 -4.8 0  0 -4.8 0  0.09999999999999964 -4.8 0  0.2000000000000002 -4.8 0  0.2999999999999998 -4.8 0  0.4000000000000004 -4.8 0  0.5 -4.8 0  0.5999999999999996 -4.8 0  0.7000000000000002 -4.8 0  0.7999999999999998 -4.8 0  0.9000000000000004 -4.8 0  1 -4.8 0  1.1 -4.8 0  1.2 -4.8 0  1.3 -4.8 0  1.4 -4.8 0  1.5 -4.8 0  1.6 -4.8 0  1.7 -4.8 0  1.8 -4.8 0  1.9 -4.8 0  2 -4.8 0  2.1 -4.8 0  2.2 -4.8 0  2.3 -4.8 0  2.4 -4.8 0  2.5 -4.8 0  2.6 -4.8 0  2.7 -4.8 0  2.8 -4.8 0  2.9 -4.8 0  3 -4.8 0  3.1 -4.8 0  3.199999999999999 -4.8 0  3.300000000000001 -4.8 0  3.4 -4.8 0  3.5 -4.8 0  3.6 -4.8 0  3.699999999999999 -4.8 0  3.800000000000001 -4.8 0  3.9 -4.8 0  4 -4.8 0  4.1 -4.8 0  4.199999999999999 -4.8 0  4.300000000000001 -4.8 0  4.4 -4.8 0  4.5 -4.8 0  4.6 -4.8 0  4.699999999999999 -4.8 0  4.800000000000001 -4.8 0  4.9 -4.8 0  5 -4.8 0  -5 -4.7 0  -4.9 -4.7 0  -4.8 -4.7 0  -4.7 -4.7 0  -4.6 -4.7 0  -4.5 -4.7 0  -4.4 -4.7 0  -4.3 -4.7 0  -4.2 -4.7 0  -4.1 -4.7 0  -4 -4.7 0  -3.9 -4.7 0  -3.8 -4.7 0  -3.7 -4.7 0  -3.6 -4.7 0  -3.5 -4.7 0  -3.4 -4.7 0  -3.3 -4.7 0  -3.2 -4.7 0  -3.1 -4.7 0  -3 -4.7 0  -2.9 -4.7 0  -2.8 -4.7 0  -2.7 -4.7 0  -2.6 -4.7 0  -2.5 -4.7 0  -2.4 -4.7 0  -2.3 -4.7 0  -2.2 -4.7 0  -2.1 -4.7 0  -2 -4.7 0  -1.9 -4.7 0  -1.8 -4.7 0  -1.7 -4.7 0  -1.6 -4.7 0  -1.5 -4.7 0  -1.4 -4.7 0  -1.3 -4.7 0  -1.2 -4.7 0  -1.1 -4.7 0  -1 -4.7 0  -0.9000000000000004 -4.7 0  -0.7999999999999998 -4.7 0  -0.7000000000000002 -4.7 0  -0.5999999999999996 -4.7 0  -0.5 -4.7 0  -0.4000000000000004 -4.7 0  -0.2999999999999998 -4.7 0  -0.2000000000000002 -4.7 0  -0.09999999999999964 -4.7 0  0 -4.7 0  0.09999999999999964 -4.7 0  0.2000000000000002 -4.7 0  0.2999999999999998 -4.7 0  0.4000000000000004 -4.7 0  0.5 -4.7 0  0.5999999999999996 -4.7 0  0.7000000000000002 -4.7 0  0.7999999999999998 -4.7 0  0.9000000000000004 -4.7 0  1 -4.7 0  1.1 -4.7 0  1.2 -4.7 0  1.3 -4.7 0  1.4 -4.7 0  1.5 -4.7 0  1.6 -4.7 0  1.7 -4.7 0  1.8 -4.7 0  1.9 -4.7 0  2 -4.7 0  2.1 -4.7 0  2.2 -4.7 0  2.3 -4.7 0  2.4 -4.7 0  2.5 -4.7 0  2.6 -4.7 0  2.7 -4.7 0  2.8 -4.7 0  2.9 -4.7 0  3 -4.7 0  3.1 -4.7 0  3.199999999999999 -4.7 0  3.300000000000001 -4.7 0  3.4 -4.7 0  3.5 -4.7 0  3.6 -4.7 0  3.699999999999999 -4.7 0  3.800000000000001 -4.7 0  3.9 -4.7 0  4 -4.7 0  4.1 -4.7 0  4.199999999999999 -4.7 0  4.300000000000001 -4.7 0  4.4 -4.7 0  4.5 -4.7 0  4.6 -4.7 0  4.699999999999999 -4.7 0  4.800000000000001 -4.7 0  4.9 -4.7 0  5 -4.7 0  -5 -4.6 0  -4.9 -4.6 0  -4.8 -4.6 0  -4.7 -4.6 0  -4.6 -4.6 0  -4.5 -4.6 0  -4.4 -4.6 0  -4.3 -4.6 0  -4.2 -4.6 0  -4.1 -4.6 0  -4 -4.6 0  -3.9 -4.6 0  -3.8 -4.6 0  -3.7 -4.6 0  -3.6 -4.6 0  -3.5 -4.6 0  -3.4 -4.6 0  -3.3 -4.6 0  -3.2 -4.6 0  -3.1 -4.6 0  -3 -4.6 0  -2.9 -4.6 0  -2.8 -4.6 0  -2.7 -4.6 0  -2.6 -4.6 0  -2.5 -4.6 0  -2.4 -4.6 0  -2.3 -4.6 0  -2.2 -4.6 0  -2.1 -4.6 0  -2 -4.6 0  -1.9 -4.6 0  -1.8 -4.6 0  -1.7 -4.6 0  -1.6 -4.6 0  -1.5 -4.6 0  -1.4 -4.6 0  -1.3 -4.6 0  -1.2 -4.6 0  -1.1 -4.6 0  -1 -4.6 0  -0.9000000000000004 -4.6 0  -0.7999999999999998 -4.6 0  -0.7000000000000002 -4.6 0  -0.5999999999999996 -4.6 0  -0.5 -4.6 0  -0.4000000000000004 -4.6 0  -0.2999999999999998 -4.6 0  -0.2000000000000002 -4.6 0  -0.09999999999999964 -4.6 0  0 -4.6 0  0.09999999999999964 -4.6 0  0.2000000000000002 -4.6 0  0.2999999999999998 -4.6 0  0.4000000000000004 -4.6 0  0.5 -4.6 0  0.5999999999999996 -4.6 0  0.7000000000000002 -4.6 0  0.7999999999999998 -4.6 0  0.9000000000000004 -4.6 0  1 -4.6 0  1.1 -4.6 0  1.2 -4.6 0  1.3 -4.6 0  1.4 -4.6 0  1.5 -4.6 0  1.6 -4.6 0  1.7 -4.6 0  1.8 -4.6 0  1.9 -4.6 0  2 -4.6 0  2.1 -4.6 0  2.2 -4.6 0  2.3 -4.6 0  2.4 -4.6 0  2.5 -4.6 0  2.6 -4.6 0  2.7 -4.6 0  2.8 -4.6 0  2.9 -4.6 0  3 -4.6 0  3.1 -4.6 0  3.199999999999999 -4.6 0  3.300000000000001 -4.6 0  3.4 -4.6 0  3.5 -4.6 0  3.6 -4.6 0  3.699999999999999 -4.6 0  3.800000000000001 -4.6 0  3.9 -4.6 0  4 -4.6 0  4.1 -4.6 0  4.199999999999999 -4.6 0  4.300000000000001 -4.6 0  4.4 -4.6 0  4.5 -4.6 0  4.6 -4.6 0  4.699999999999999 -4.6 0  4.800000000000001 -4.6 0  4.9 -4.6 0  5 -4.6 0  -5 -4.5 0  -4.9 -4.5 0  -4.8 -4.5 0  -4.7 -4.5 0  -4.6 -4.5 0  -4.5 -4.5 0  -4.4 -4.5 0  -4.3 -4.5 0  -4.2 -4.5 0  -4.1 -4.5 0  -4 -4.5 0  -3.9 -4.5 0  -3.8 -4.5 0  -3.7 -4.5 0  -3.6 -4.5 0  -3.5 -4.5 0  -3.4 -4.5 0  -3.3 -4.5 0  -3.2 -4.5 0  -3.1 -4.5 0  -3 -4.5 0  -2.9 -4.5 0  -2.8 -4.5 0  -2.7 -4.5 0  -2.6 -4.5 0  -2.5 -4.5 0  -2.4 -4.5 0  -2.3 -4.5 0  -2.2 -4.5 0  -2.1 -4.5 0  -2 -4.5 0  -1.9 -4.5 0  -1.8 -4.5 0  -1.7 -4.5 0  -1.6 -4.5 0  -1.5 -4.5 0  -1.4 -4.5 0  -1.3 -4.5 0  -1.2 -4.5 0  -1.1 -4.5 0  -1 -4.5 0  -0.9000000000000004 -4.5 0  -0.7999999999999998 -4.5 0  -0.7000000000000002 -4.5 0  -0.5999999999999996 -4.5 0  -0.5 -4.5 0  -0.4000000000000004 -4.5 0  -0.2999999999999998 -4.5 0  -0.2000000000000002 -4.5 0  -0.09999999999999964 -4.5 0  0 -4.5 0  0.09999999999999964 -4.5 0  0.2000000000000002 -4.5 0  0.2999999999999998 -4.5 0  0.4000000000000004 -4.5 0  0.5 -4.5 0  0.5999999999999996 -4.5 0  0.7000000000000002 -4.5 0  0.7999999999999998 -4.5 0  0.9000000000000004 -4.5 0  1 -4.5 0  1.1 -4.5 0  1.2 -4.5 0  1.3 -4.5 0  1.4 -4.5 0  1.5 -4.5 0  1.6 -4.5 0  1.7 -4.5 0  1.8 -4.5 0  1.9 -4.5 0  2 -4.5 0  2.1 -4.5 0  2.2 -4.5 0  2.3 -4.5 0  2.4 -4.5 0  2.5 -4.5 0  2.6 -4.5 0  2.7 -4.5 0  2.8 -4.5 0  2.9 -4.5 0  3 -4.5 0  3.1 -4.5 0  3.199999999999999 -4.5 0  3.300000000000001 -4.5 0  3.4 -4.5 0  3.5 -4.5 0  3.6 -4.5 0  3.699999999999999 -4.5 0  3.800000000000001 -4.5 0  3.9 -4.5 0  4 -4.5 0  4.1 -4.5 0  4.199999999999999 -4.5 0  4.300000000000001 -4.5 0  4.4 -4.5 0  4.5 -4.5 0  4.6 -4.5 0  4.699999999999999 -4.5 0  4.800000000000001 -4.5 0  4.9 -4.5 0  5 -4.5 0  -5 -4.4 0  -4.9 -4.4 0  -4.8 -4.4 0  -4.7 -4.4 0  -4.6 -4.4 0  -4.5 -4.4 0  -4.4 -4.4 0  -4.3 -4.4 0  -4.2 -4.4 0  -4.1 -4.4 0  -4 -4.4 0  -3.9 -4.4 0  -3.8 -4.4 0  -3.7 -4.4 0  -3.6 -4.4 0  -3.5 -4.4 0  -3.4 -4.4 0  -3.3 -4.4 0  -3.2 -4.4 0  -3.1 -4.4 0  -3 -4.4 0  -2.9 -4.4 0  -2.8 -4.4 0  -2.7 -4.4 0  -2.6 -4.4 0  -2.5 -4.4 0  -2.4 -4.4 0  -2.3 -4.4 0  -2.2 -4.4 0  -2.1 -4.4 0  -2 -4.4 0  -1.9 -4.4 0  -1.8 -4.
[...]
<PointData  Vectors="f_17"> 
<DataArray  type="Float64"  Name="f_17"  NumberOfComponents="3" format="ascii">1.5000000302100183e-01 0.0000000000000000e+00 0.0000000000000000e+00  1.5000000201271768e-01 -9.5642601841197228e-09 0.0000000000000000e+00  1.5000001065603635e-01 -1.2903980848135516e-08 0.0000000000000000e+00  1.5000002323667380e-01 -4.4617746703329872e-08 0.0000000000000000e+00  1.5000005925553966e-01 -8.9171749783325325e-08 0.0000000000000000e+00  1.5000012638353108e-01 -1.8963379708220086e-07 0.0000000000000000e+00  1.5000025122028038e-01 -3.3954267525873151e-07 0.0000000000000000e+00  1.5000044699755288e-01 -5.3015951693661359e-07 0.0000000000000000e+00  1.5000070322918752e-01 -6.4196058909552618e-07 0.0000000000000000e+00  1.5000091682838163e-01 -4.4653955294501644e-07 0.0000000000000000e+00  1.5000086719751049e-01 5.0480726246446406e-07 0.0000000000000000e+00  1.5000016777280051e-01 2.7189994049071237e-06 0.0000000000000000e+00  1.4999833161091325e-01 6.4251218040149955e-06 0.0000000000000000e+00  1.4999504049829723e-01 1.1141489180921819e-05 0.0000000000000000e+00  1.4999052106444247e-01 1.5393742433776200e-05 0.0000000000000000e+00  1.4998572529498647e-01 1.6849872338567088e-05 0.0000000000000000e+00  1.4998221975398959e-01 1.3513685258252483e-05 0.0000000000000000e+00  1.4998159458821808e-01 5.4013398316498933e-06 0.0000000000000000e+00  1.4998439636094765e-01 -5.1811212219375368e-06 0.0000000000000000e+00  1.4998959737355377e-01 -1.5040021930698558e-05 0.0000000000000000e+00  1.4999537232683161e-01 -2.1232283802341548e-05 0.0000000000000000e+00  1.5000001101833088e-01 -2.1426268888337795e-05 0.0000000000000000e+00  1.5000215081594384e-01 -1.4996667837247916e-05 0.0000000000000000e+00  1.5000157052291785e-01 -4.7810771665903441e-06 0.0000000000000000e+00  1.5000011629535875e-01 3.0753966717255872e-06 0.0000000000000000e+00  1.5000019961458219e-01 3.6469333045543406e-06 0.0000000000000000e+00  1.5000190101699920e-01 -4.8065063777869379e-07 0.0000000000000000e+00  1.5000280704549565e-01 -9.4892248338535823e-07 0.0000000000000000e+00  1.5000119471531587e-01 4.0398221040827225e-06 0.0000000000000000e+00  1.4999884908700889e-01 5.4598598564164142e-06 0.0000000000000000e+00  1.4999917658462106e-01 -6.6403949948466563e-07 0.0000000000000000e+00  1.5000146520975463e-01 -3.8721485243636194e-06 0.0000000000000000e+00  1.5000103130700398e-01 1.6979416331478117e-06 0.0000000000000000e+00  1.4999815344988118e-01 4.3912476356153937e-06 0.0000000000000000e+00  1.4999885585789538e-01 -2.2976325255077759e-06 0.0000000000000000e+00  1.5000241966273814e-01 -5.0299880351573720e-06 0.0000000000000000e+00  1.5000133542621907e-01 2.5859986388562862e-06 0.0000000000000000e+00  1.4999731058394514e-01 5.3849658272374537e-06 0.0000000000000000e+00  1.4999878988687707e-01 -2.5167766819353033e-06 0.0000000000000000e+00  1.5000268340630246e-01 -5.0089578396573288e-06 0.0000000000000000e+00  1.5000076960026737e-01 2.4329962592948957e-06 0.0000000000000000e+00  1.4999763240744005e-01 4.0157610787566065e-06 0.0000000000000000e+00  1.4999989044625647e-01 -2.4162604107508382e-06 0.0000000000000000e+00  1.5000181562309689e-01 -2.6682786243065932e-06 0.0000000000000000e+00  1.4999947466428298e-01 2.3889716160744041e-06 0.0000000000000000e+00  1.4999888305008796e-01 1.2827231508964680e-06 0.0000000000000000e+00  1.5000091535188881e-01 -2.1881074193737162e-06 0.0000000000000000e+00  1.5000039981742591e-01 -1.0519019996111822e-07 0.0000000000000000e+00  1.4999903764438730e-01 1.7287964253137214e-06 0.0000000000000000e+00  1.5000018582401167e-01 -7.0095533909698287e-07 0.0000000000000000e+00  1.5000071514797858e-01 -1.0671846143998027e-06 0.0000000000000000e+00  1.4999947844879102e-01 1.0625325828206945e-06 0.0000000000000000e+00  1.4999967409413392e-01 3.6777588226053682e-07 0.0000000000000000e+00  1.5000057643428333e-01 -1.0123895073020560e-06 0.0000000000000000e+00  1.4999997029909340e-01 1.8259926802164918e-07 0.0000000000000000e+00  1.4999957999532612e-01 6.8581906522904616e-07 0.0000000000000000e+00  1.5000023180498459e-01 -4.6315165617794070e-07 0.0000000000000000e+00  1.5000018254311159e-01 -2.7456622058753387e-07 0.0000000000000000e+00  1.4999974277603256e-01 4.6852388117513726e-07 0.0000000000000000e+00  1.5000001229145185e-01 -4.8497277210836433e-08 0.0000000000000000e+00  1.5000016602289951e-01 -2.9709851181540768e-07 0.0000000000000000e+00  1.4999989859418741e-01 1.9492326345944264e-07 0.0000000000000000e+00  1.4999995072286434e-01 8.8753915814776276e-08 0.0000000000000000e+00  1.5000009402249903e-01 -1.7958425910125531e-07 0.0000000000000000e+00  1.4999997396519540e-01 4.9281959456288788e-08 0.0000000000000000e+00  1.4999995767482638e-01 8.5011053142254180e-08 0.0000000000000000e+00  1.5000004305196993e-01 -8.4768216799774277e-08 0.0000000000000000e+00  1.4999999757332028e-01 1.4973893259371631e-09 0.0000000000000000e+00  1.4999997571307824e-01 5.1630286851118073e-08 0.0000000000000000e+00  1.5000001810405550e-01 -3.6062202651098080e-08 0.0000000000000000e+00  1.5000000163807425e-01 -6.3208394782552234e-09 0.0000000000000000e+00  1.4999998821824148e-01 2.6360046684367688e-08 0.0000000000000000e+00  1.5000000771237862e-01 -1.5569917148263224e-08 0.0000000000000000e+00  1.5000000098702934e-01 -3.9897393531293054e-09 0.0000000000000000e+00  1.4999999483003076e-01 1.2297883631092030e-08 0.0000000000000000e+00  1.5000000351212492e-01 -7.3930481963288848e-09 0.0000000000000000e+00  1.5000000007751879e-01 -1.1582407134039719e-09 0.0000000000000000e+00  1.4999999798496330e-01 5.1957562255676505e-09 0.0000000000000000e+00  1.5000000163621605e-01 -3.6822253651190486e-09 0.0000000000000000e+00  1.4999999972171824e-01 1.6333366622285978e-10 0.0000000000000000e+00  1.4999999932973596e-01 2.0063647692729964e-09 0.0000000000000000e+00  1.5000000077239947e-01 -1.9680140775491690e-09 0.0000000000000000e+00  1.4999999963483332e-01 7.5391838524126848e-10 0.0000000000000000e+00  1.4999999994831947e-01 3.1195606400848189e-10 0.0000000000000000e+00  1.5000000021289342e-01 -5.9645866560544097e-10 0.0000000000000000e+00  1.4999999987428969e-01 1.9803364456698118e-10 0.0000000000000000e+00  1.4999999992336030e-01 4.7438302376059435e-10 0.0000000000000000e+00  1.5000000027199248e-01 -1.0733299778367030e-09 0.0000000000000000e+00  1.4999999959814511e-01 1.4455394052024730e-09 0.0000000000000000e+00  1.5000000046038725e-01 -1.5900780416549641e-09 0.0000000000000000e+00  1.4999999953497586e-01 1.5694037274455857e-09 0.0000000000000000e+00  1.5000000043575876e-01 -1.4485801194724582e-09 0.0000000000000000e+00  1.4999999961237359e-01 1.2745704730523524e-09 0.0000000000000000e+00  1.5000000033026853e-01 -1.0766973261742480e-09 0.0000000000000000e+00  1.4999999972856420e-01 8.7624493556512569e-10 0.0000000000000000e+00  1.5000000021279836e-01 -6.8226658926428030e-10 0.0000000000000000e+00  1.4999999983387258e-01 5.1507221924206942e-10 0.0000000000000000e+00  1.5000000011373107e-01 -3.5325941348162815e-10 0.0000000000000000e+00  1.4999999989867038e-01 2.4098058052969139e-10 0.0000000000000000e+00  1.5000000004492689e-01 -1.1909744778920867e-10 0.0000000000000000e+00  1.4999999990128163e-01 0.0000000000000000e+00 0.0000000000000000e+00  1.5000000201271757e-01 0.0000000000000000e+00 -9.5642606051671946e-09  1.4999999551923907e-01 1.9084861094914548e-10 1.9084880364234814e-10  1.4999999465610978e-01 1.6522608470223633e-08 -1.6732184664835091e-08  1.4999998021515665e-01 2.6602192650025244e-08 -3.1217216030797533e-08  1.4999995679604231e-01 7.7368245018411330e-08 -8.4235873902991322e-08  1.4999989759334076e-01 1.4849425038208938e-07 -1.7754510173767421e-07  1.4999979516876530e-01 2.9592474670727079e-07 -3.6234533403131065e-07  1.4999961729389180e-01 4.8541624027613039e-07 -6.5107476945713961e-07  1.4999936746564363e-01 6.7172386118642032e-07 -1.0614667258811271e-06  1.4999909820284624e-01 6.4892824105103829e-07 -1.4728302294767061e-06  1.4999898943064782e-01 7.0784517360994553e-08 -1.6185596584944204e-06  1.4999935490850227e-01 -1.6203656888761614e-06 -9.9792062041145182e-07  1.5000066741711243e-01 -4.8253506745579304e-06 1.0195331517781531e-06  1.5000336191785346e-01 -9.3879905219554578e-06 4.9071497883406544e-06  1.5000747105061843e-01 -1.4211684517292458e-05 1.0368598393689175e-05  1.5001232864976738e-01 -1.7201002437400251e-05 1.6020412342663116e-05  1.5001658980976457e-01 -1.5943239415591989e-05 1.9656200243846230e-05  1.5001858580146182e-01 -9.4715367922593745e-06 1.9210268181181039e-05  1.5001722552209509e-01 6.0346044061387939e-07 1.4238929990113908e-05  1.5001293177390176e-01 1.1129705944806782e-05 6.7952443976898818e-06  1.5000736961327762e-01 1.9076059595015868e-05 9.0984291736066284e-08  1.5000227662026852e-01 2.1971691995264547e-05 -3.7548175228910586e-06  1.4999902303167686e-01 1.8429572682676735e-05 -4.0960184671265616e-06  1.4999839438826509e-01 9.7658721147865737e-06 -1.4192520160527307e-06  1.4999950958072006e-01 6.6763953445910458e-07 1.7208853004010916e-06  1.5000001958837764e-01 -3.3249457134260095e-06 1.7476829963025497e-06  1.4999878456689397e-01 -1.1816629618152305e-06 -1.4595865418684120e-06  1.4999736988028545e-01 1.0890145910832745e-06 -3.4342124055844372e-06  1.4999793737047046e-01 -1.9814520407453967e-06 -9.9914456462238284e-07  1.5000020298926964e-01 -5.6600514805709184e-06 2.6288111647837062e-06  1.5000122408868891e-01 -2.2729348786313415e-06 1.8658575412700833e-06  1.4999950762630532e-01 3.2838342037782029e-06 -2.1401880796626266e-06  1.4999837417499662e-01 9.6711000452638873e-07 -2.0002116808861501e-06  1.5000060613421592e-01 -4.1640863242216283e-06 2.6602451274811273e-06  1.5000201207653230e-01 -7.8954413841451891e-07 2.4487658606010533e-06  1.4999905241456485e-01 4.9240934021939684e-06 -3.4353204168893176e-06  1.4999747242346165e-01 8.5264079012478780e-07 -3.0794475362476896e-06  1.5000111395930890e-01 -5.3117733324407002e-06 3.7872268270833802e-06  1.5000263675974501e-01 -1.0234747309617446e-06 3.1201729105512168e-06  1.4999870877913513e-01 4.9975062490059582e-06 -3.8367718866756809e-06  1.4999768328378141e-01 8.7128979931036894e-07 -2.4905739670056493e-06  1.5000141690497704e-01 -4.2280426278493840e-06 3.5040781401854455e-06  1.5000160545145802e-01 -3.8764476212362463e-07 1.2789475120595893e-06  1.4999855216807298e-01 3.2384451632859132e-06 -2.8531083426523723e-06  1.4999926967318727e-01 -2.6441951388725665e-07 7.4576906232932720e-08  1.5000129240790847e-01 -2.2213737915607188e-06 1.9210638861771859e-06  1.4999994012337345e-01 8.3156999247734256e-07 -1.1063218062998941e-06  1.4999907441407734e-01 1.2690393821880519e-06 -8.2866958379764816e-07  1.5000057575850664e-01 -1.1324931278316874e-06 1.5302951155967438e-06  1.5000042980051895e-01 -4.4501847700508440e-07 -1.9412938435290065e-07  1.4999925861003444e-01 1.1104069835477584e-06 -1.3317448034082562e-06  1.5000004066667633e-01 -1.7765001989417191e-07 8.8916672176626569e-07  1.5000060579327523e-01 -8.2439832604508943e-07 7.3124227840141943e-07  1.4999965586262037e-01 5.3447980058906199e-07 -1.1092225533210628e-06  1.4999968934528671e-01 4.1039803525465234e-07 -6.1572992157983333e-08  1.5000042226510230e-01 -6.1193739661277375e-07 8.9833027851469298e-07  1.5000002025358797e-01 -2.5331795940135112e-08 -3.9371876151241974e-07  1.4999968133874186e-01 4.7103660292212223e-07 -4.6179754017675840e-07  1.5000015165142044e-01 -2.1348604858451483e-07 5.1815637070839821e-07  1.5000014054739474e-01 -2.3012230094061569e-07 4.7852801580499007e-08  1.4999982024815134e-01 2.7005723216058150e-07 -3.7882119878637406e-07  1.5000000691170498e-01 1.4142216425647669e-08 1.7997554602414858e-07  1.5000011366172300e-01 -1.9128235703199628e-07 1.4470945243952571e-07  1.4999992862152359e-01 9.9552366783791556e-08 -2.0177656454970564e-07  1.4999997106812404e-01 6.7624697120023269e-08 3.0967079693433049e-08  1.5000006253532910e-01 -1.0563494960750393e-07 1.0703002853702270e-07  1.4999997812648042e-01 2.2338109482598772e-08 -8.7939563668454349e-08  1.4999997614570579e-01 5.2688521848454916e-08 -7.4003814114186271e-09  1.5000002905745663e-01 -4.8619177799501800e-08 5.8136285915728961e-08  1.4999999439083569e-01 9.1432166006993370e-11 -3.5879353807389717e-08  1.4999998678518137e-01 2.9833950336248064e-08 -8.9369624301322298e-09  1.5000001271537422e-01 -2.1266316551290012e-08 2.7569810759176358e-08  1.4999999834918357e-01 -2.5136326761913570e-09 -1.5380975074866518e-08  1.4999999394259336e-01 1.4640724727802783e-08 -4.1397554979324157e-09  1.5000000558352555e-01 -9.7922880335027522e-09 1.2043682441779389e-08  1.4999999902056435e-01 -8.3841931295772336e-10 -7.3231535177727759e-09  1.4999999769553932e-01 6.2918253173833022e-09 -7.4330923570056231e-10  1.5000000239727077e-01 -4.6018858694991050e-09 4.6852439329869729e-09  1.4999999928785623e-01 1.7733771610111552e-10 -3.5813184958714251e-09  1.4999999927568272e-01 2.5599452976243830e-09 5.2591485030183478e-10  1.5000000105047520e-01 -2.4623184205176102e-09 1.5411966356424172e-09  1.4999999940982275e-01 9.0947811384415884e-10 -1.7582429065172200e-09  1.5000000002802047e-01 3.7287057861983532e-10 8.5433404785091087e-10  1.5000000022488827e-01 -6.2846047490288617e-10 1.1900189828425035e-10  1.4999999985558857e-01 6.5517474992800769e-11 -5.7759714488508471e-10  1.4999999990113341e-01 7.5602256248843843e-10 4.8577094413774418e-10  1.5000000034007394e-01 -1.4162360836301226e-09 -8.4699734184863704e-11  1.4999999949985401e-01 1.7701939435718462e-09 -3.6974229950996033e-10  1.5000000057097157e-01 -1.8553040372918338e-09 7.2329537940935413e-10  1.4999999942587200e-01 1.7635699294369343e-09 -9.2511806381620825e-10  1.5000000053367774e-01 -1.5725218610378644e-09 9.8742731365582623e-10  1.4999999953205542e-01 1.3327468525732772e-09 -9.4794021103925053e-10  1.5000000039031680e-01 -1.0776380592240831e-09 8.4730334366158503e-10  1.4999999968921932e-01 8.3107435971413133e-10 -7.1836497416802662e-10  1.5000000023743229e-01 -6.1177709610597472e-10 5.8545183178779100e-10  1.4999999982764017e-01 4.2635770448912692e-10 -4.5666022022179437e-10  1.5000000012396772e-01 -2.8727078993560377e-10 3.5231902707176760e-10  1.4999999992447582e-01 1.7088440657646838e-10 -2.3903991269107625e-10  1.5000000006334688e-01 -1.1602445363189473e-10 1.9798420367362110e-10  1.4999999999125938e-01 6.2090888457521530e-11 -6.2091322274791806e-11  1.5000000004492686e-01 0.0000000000000000e+00 1.1909677907127920e-10  1.5000001065603627e-01 0.0000000000000000e+00 -1.2903980264779286e-08  1.4999999465610986e-01 -1.6732184646538518e-08 1.6522608102710791e-08  1.5000001145064842e-01 5.7886607908216850e-09 5.7886603307432153e-09  1.5000001024239712e-01 -4.1323582841564105e-08 5.1139240503472555e-08  1.5000004244088411e-01 -4.8372482339350336e-08 9.3903374160730124e-08  1.5000008289795461e-01 -1.5156691341876181e-07 2.4366536583338717e-07  1.5000018924962552e-01 -2.5771693530916412e-07 4.8760920765713964e-07  1.5000035007523474e-01 -4.9886945487554360e-07 9.5289489300354676e-07  1.5000062017370511e-01 -7.3178837737914413e-07 1.6372747111569756e-06  1.5000094708755679e-01 -9.0647509384340361e-07 2.5474478818300172e-06  1.5000122775424235e-01 -6.3530820629919458e-07 3.3177517279720636e-06  1.5000116579222134e-01 5.5480757171611046e-07 3.3215147417562326e-06  1.5000034072683169e-01 3.3518710144511972e-06 1.4409370379184652e-06  1.4999819554612762e-01 7.8902469766682129e-06 -3.5470400492303536e-06  1.4999445037173184e-01 1.3471282714044072e-05 -1.2216127929328810e-05  1.4998947812263186e-01 1.8177171130618884e-05 -2.3272833508074728e-05  1.4998445294797044e-01 1.9249493452989073e-05 -3.3458060460590036e-05  1.4998107182454271e-01 1.4522569305171564e-05 -3.8423886731840815e-05  1.4998090733542202e-01 4.6203355617804106e-06 -3.4957000907161124e-05  1.4998423287685358e-01 -7.1383674072997058e-06 -2.3888288120184465e-05  1.4998959640689882e-01 -1.7123969099253219e-05 -1.0400650085498254e-05  1.4999504071036232e-01 -2.2739544856652404e-05 2.1142386484587832e-07  1.4999918676553309e-01 -2.2163570812095088e-05 5.6161703844360177e-06  1.5000101684339737e-01 -1.5324884906716558e-05 5.1074060713874787e-06  1.5000047440845893e-01 -5.5203682016522982e-06 7.5763339948493704e-08  1.4999955358004105e-01 1.5303712594035094e-06 -3.6538681992858853e-06  1.5000040810012474e-01 2.0547720904878698e-06 -8.8084554126781745e-07  1.5000232072737330e-01 -9.0659106221548064e-07 4.9019296482988192e-06  1.5000269501631999e-01 7.2782807536179742e-08 5.2470625083448289e-06  1.5000074246480732e-01 5.2774204668844379e-06 -1.0692960884794631e-06  1.4999882155094246e-01 5.3844905542885461e-06 -5.1554893148235947e-06  1.4999962279403431e-01 -1.5753370032280749e-06 -4.0015236437988707e-07  1.5000165029908183e-01 -3.5901524229914588e-06 5.2216364184104085e-06  1.5000063721423471e-01 2.9333598992731584e-06 3.2054299376990773e-07  1.4999787866942088e-01 4.0749181194855421e-06 -6.7588162580657982e-06  1.4999929486911512e-01 -3.7757732738146016e-06 -2.6043735840752139e-07  1.5000283810474241e-01 -4.6493400041800881e-06 8.7183464485588791e-06  1.5000089974482680e-01 4.1837675951966793e-06 6.0382811041239128e-07  1.4999686142513868e-01 4.9761791967882355e-06 -9.3958308207291364e-06  1.4999923989085426e-01 -3.9526397132505850e-06 -2.5653791473466513e-07  1.5000305764848612e-01 -4.5215481005030658e-06 8.7798450133387834e-06  1.5000034407718787e-01 3.4926886818784184e-06 -6.5000081241141100e-07  1.4999746302104192e-01 3.4389283958187209e-06 -6.8002658729405376e-06  1.5000024744243345e-01 -2.9732114890698834e-06 1.8680523866345238e-06  1.5000172475104057e-01 -2.0337365591388379e-06 4.0410615867869634e-06  1.4999925333226558e-01 2.4515240869546113e-06 -2.7150051364195785e-06  1.4999919250142238e-01 6.8669745840179730e-07 -1.2010394889841491e-06  1.5000093957072808e-01 -1.8631807908367360e-06 2.6821249918819208e-06  1.4999999461394070e-01 3.3556260614278265e-07 -1.0488660615316583e-06  1.4999922581872469e-01 1.1787396458818983e-06 -1.7442147046909575e-06  1.5000053718352838e-01 -9.0507140234242190e-07 2.2498633337356059e-06  1.5000037137832367e-01 -4.6744217134262683e-07 3.5114699468999009e-07  1.4999929372861975e-01 1.0198397344372779e-06 -2.3043419004850831e-06  1.5000006055294396e-01 -1.3242555079765834e-07 8.6887578940383101e-07  1.5000056424656028e-01 -7.8553724980255806e-07 1.5215989759357647e-06  1.4999966066726209e-01 4.9272160437516463e-07 -1.4545281958485766e-06  1.4999973390107488e-01 3.8249958921342327e-07 -4.6067507345518962e-07  1.5000039297561218e-01 -5.6721073492195536e-07 1.3243660942537124e-06  1.4999998801956124e-01 -4.0393979646310707e-09 -3.4991049306973810e-07  1.4999972765161956e-01 4.1680940119441898e-07 -7.5053766776782912e-07  1.5000015755635832e-01 -2.1534758175742000e-07 6.5093505425041352e-07  1.5000009556401514e-01 -1.7547235515829501e-07 1.4062512320009192e-07  1.4999984054930462e-01 2.4511648473812533e-07 -5.1166060851149667e-07  1.5000003228371661e-01 -2.2000438121748214e-08 2.1296738328254575e-07  1.5000008226702918e-01 -1.4955508699247640e-07 1.9659902312181223e-07  1.4999992836911918e-01 1.0532393623716965e-07 -2.5760240929947028e-07  1.4999999486967816e-01 3.0271601063495108e-08 4.4363588282708503e-08  1.5000004713089182e-01 -8.6316164767678854e-08 1.2834461802738213e-07  1.4999997141929333e-01 3.8112004380993949e-08 -1.1408809224095153e-07  1.4999999158477115e-01 2.7606636748483976e-08 2.7354219998131944e-09  1.5000002278323846e-01 -4.2660589423175614e-08 6.5623947465399830e-08  1.4999998845140722e-01 1.3807512893691124e-08 -4.9731835055233677e-08  1.4999999537068134e-01 1.5604626658966864e-08 -7.3410020838616161e-10  1.5000001016558534e-01 -2.0267258181931078e-08 2.9216646574238680e-08  1.4999999464113356e-01 6.8526639939843495e-09 -2.2729547969910101e-08  1.4999999866370065e-01 6.0420484607032714e-09 1.9924352051606015e-09  1.5000000396671082e-01 -8.5855076511068513e-09 1.0953727547138015e-08  1.4999999751571871e-01 3.4282699211104456e-09 -1.0273739559139718e-08  1.4999999986617618e-01 2.2578061984109977e-09 2.7492600923429943e-0