<?xml version="1.0"?>
<VTKFile type="UnstructuredGrid"  version="0.1"  >
<UnstructuredGrid>
<Piece  NumberOfPoints="10201" NumberOfCells="20000">
<Points>
<DataArray  type="Float64"  NumberOfComponents="3"  format="ascii">-5 -5 0  -4.9 -5 0  -4.8 -5 0  -4.7 -5 0  -4.6 -5 0  -4.5 -5 0  -4.4 -5 0  -4.3 -5 0  -4.2 -5 0  -4.1 -5 0  -4 -5 0  -3.9 -5 0  -3.8 -5 0  -3.7 -5 0  -3.6 -5 0  -3.5 -5 0  -3.4 -5 0  -3.3 -5 0  -3.2 -5 0  -3.1 -5 0  -3 -5 0  -2.9 -5 0  -2.8 -5 0  -2.7 -5 0  -2.6 -5 0  -2.5 -5 0  -2.4 -5 0  -2.3 -5 0  -2.2 -5 0  -2.1 -5 0  -2 -5 0  -1.9 -5 0  -1.8 -5 0  -1.7 -5 0  -1.6 -5 0  -1.5 -5 0  -1.4 -5 0  -1.3 -5 0  -1.2 -5 0  -1.1 -5 0  -1 -5 0  -0.9000000000000004 -5 0  -0.7999999999999998 -5 0  -0.7000000000000002 -5 0  -0.5999999999999996 -5 0  -0.5 -5 0  -0.4000000000000004 -5 0  -0.2999999999999998 -5 0  -0.2000000000000002 -5 0  -0.09999999999999964 -5 0  0 -5 0  0.09999999999999964 -5 0  0.2000000000000002 -5 0  0.2999999999999998 -5 0  0.4000000000000004 -5 0  0.5 -5 0  0.5999999999999996 -5 0  0.7000000000000002 -5 0  0.7999999999999998 -5 0  0.9000000000000004 -5 0  1 -5 0  1.1 -5 0  1.2 -5 0  1.3 -5 0  1.4 -5 0  1.5 -5 0  1.6 -5 0  1.7 -5 0  1.8 -5 0  1.9 -5 0  2 -5 0  2.1 -5 0  2.2 -5 0  2.3 -5 0  2.4 -5 0  2.5 -5 0  2.6 -5 0  2.7 -5 0  2.8 -5 0  2.9 -5 0  3 -5 0  3.1 -5 0  3.199999999999999 -5 0  3.300000000000001 -5 0  3.4 -5 0  3.5 -5 0  3.6 -5 0  3.699999999999999 -5 0  3.800000000000001 -5 0  3.9 -5 0  4 -5 0  4.1 -5 0  4.199999999999999 -5 0  4.300000000000001 -5 0  4.4 -5 0  4.5 -5 0  4.6 -5 0  4.699999999999999 -5 0  4.800000000000001 -5 0  4.9 -5 0  5 -5 0  -5 -4.9 0  -4.9 -4.9 0  -4.8 -4.9 0  -4.7 -4.9 0  -4.6 -4.9 0  -4.5 -4.9 0  -4.4 -4.9 0  -4.3 -4.9 0  -4.2 -4.9 0  -4.1 -4.9 0  -4 -4.9 0  -3.9 -4.9 0  -3.8 -4.9 0  -3.7 -4.9 0  -3.6 -4.9 0  -3.5 -4.9 0  -3.4 -4.9 0  -3.3 -4.9 0  -3.2 -4.9 0  -3.1 -4.9 0  -3 -4.9 0  -2.9 -4.9 0  -2.8 -4.9 0  -2.7 -4.9 0  -2.6 -4.9 0  -2.5 -4.9 0  -2.4 -4.9 0  -2.3 -4.9 0  -2.2 -4.9 0  -2.1 -4.9 0  -2 -4.9 0  -1.9 -4.9 0  -1.8 -4.9 0  -1.7 -4.9 0  -1.6 -4.9 0  -1.5 -4.9 0  -1.4 -4.9 0  -1.3 -4.9 0  -1.2 -4.9 0  -1.1 -4.9 0  -1 -4.9 0  -0.9000000000000004 -4.9 0  -0.7999999999999998 -4.9 0  -0.7000000000000002 -4.9 0  -0.5999999999999996 -4.9 0  -0.5 -4.9 0  -0.4000000000000004 -4.9 0  -0.2999999999999998 -4.9 0  -0.2000000000000002 -4.9 0  -0.09999999999999964 -4.9 0  0 -4.9 0  0.09999999999999964 -4.9 0  0.2000000000000002 -4.9 0  0.2999999999999998 -4.9 0  0.4000000000000004 -4.9 0  0.5 -4.9 0  0.5999999999999996 -4.9 0  0.7000000000000002 -4.9 0  0.7999999999999998 -4.9 0  0.9000000000000004 -4.9 0  1 -4.9 0  1.1 -4.9 0  1.2 -4.9 0  1.3 -4.9 0  1.4 -4.9 0  1.5 -4.9 0  1.6 -4.9 0  1.7 -4.9 0  1.8 -4.9 0  1.9 -4.9 0  2 -4.9 0  2.1 -4.9 0  2.2 -4.9 0  2.3 -4.9 0  2.4 -4.9 0  2.5 -4.9 0  2.6 -4.9 0  2.7 -4.9 0  2.8 -4.9 0  2.9 -4.9 0  3 -4.9 0  3.1 -4.9 0  3.199999999999999 -4.9 0  3.300000000000001 -4.9 0  3.4 -4.9 0  3.5 -4.9 0  3.6 -4.9 0  3.699999999999999 -4.9 0  3.800000000000001 -4.9 0  3.9 -4.9 0  4 -4.9 0  4.1 -4.9 0  4.199999999999999 -4.9 0  4.300000000000001 -4.9 0  4.4 -4.9 0  4.5 -4.9 0  4.6 -4.9 0  4.699999999999999 -4.9 0  4.800000000000001 -4.9 0  4.9 -4.9 0  5 -4.9 0  -5 -4.8 0  -4.9 -4.8 0  -4.8 -4.8 0  -4.7 -4.8 0  -4.6 -4.8 0  -4.5 -4.8 0  -4.4 -4.8 0  -4.3 -4.8 0  -4.2 -4.8 0  -4.1 -4.8 0  -4 -4.8 0  -3.9 -4.8 0  -3.8 -4.8 0  -3.7 -4.8 0  -3.6 -4.8 0  -3.5 -4.8 0  -3.4 -4.8 0  -3.3 -4.8 0  -3.2 -4.8 0  -3.1 -4.8 0  -3 -4.8 0  -2.9 -4.8 0  -2.8 -4.8 0  -2.7 -4.8 0  -2.6 -4.8 0  -2.5 -4.8 0  -2.4 -4.8 0  -2.3 -4.8 0  -2.2 -4.8 0  -2.1 -4.8 0  -2 -4.8 0  -1.9 -4.8 0  -1.8 -4.8 0  -1.7 -4.8 0  -1.6 -4.8 0  -1.5 -4.8 0  -1.4 -4.8 0  -1.3 -4.8 0  -1.2 -4.8 0  -1.1 -4.8 0  -1 -4.8 0  -0.9000000000000004 -4.8 0  -0.7999999999999998 -4.8 0  -0.7000000000000002 -4.8 0  -0.5999999999999996 -4.8 0  -0.5 -4.8 0  -0.4000000000000004 -4.8 0  -0.2999999999999998 -4.8 0  -0.2000000000000002 -4.8 0  -0.09999999999999964 -4.8 0  0 -4.8 0  0.09999999999999964 -4.8 0  0.2000000000000002 -4.8 0  0.2999999999999998 -4.8 0  0.4000000000000004 -4.8 0  0.5 -4.8 0  0.5999999999999996 -4.8 0  0.7000000000000002 -4.8 0  0.7999999999999998 -4.8 0  0.9000000000000004 -4.8 0  1 -4.8 0  1.1 -4.8 0  1.2 -4.8 0  1.3 -4.8 0  1.4 -4.8 0  1.5 -4.8 0  1.6 -4.8 0  1.7 -4.8 0  1.8 -4.8 0  1.9 -4.8 0  2 -4.8 0  2.1 -4.8 0  2.2 -4.8 0  2.3 -4.8 0  2.4 -4.8 0  2.5 -4.8 0  2.6 -4.8 0  2.7 -4.8 0  2.8 -4.8 0  2.9 -4.8 0  3 -4.8 0  3.1 -4.8 0  3.199999999999999 -4.8 0  3.300000000000001 -4.8 0  3.4 -4.8 0  3.5 -4.8 0  3.6 -4.8 0  3.699999999999999 -4.8 0  3.800000000000001 -4.8 0  3.9 -4.8 0  4 -4.8 0  4.1 -4.8 0  4.199999999999999 -4.8 0  4.300000000000001 -4.8 0  4.4 -4.8 0  4.5 -4.8 0  4.6 -4.8 0  4.699999999999999 -4.8 0  4.800000000000001 -4.8 0  4.9 -4.8 0  5 -4.8 0  -5 -4.7 0  -4.9 -4.7 0  -4.8 -4.7 0  -4.7 -4.7 0  -4.6 -4.7 0  -4.5 -4.7 0  -4.4 -4.7 0  -4.3 -4.7 0  -4.2 -4.7 0  -4.1 -4.7 0  -4 -4.7 0  -3.9 -4.7 0  -3.8 -4.7 0  -3.7 -4.7 0  -3.6 -4.7 0  -3.5 -4.7 0  -3.4 -4.7 0  -3.3 -4.7 0  -3.2 -4.7 0  -3.1 -4.7 0  -3 -4.7 0  -2.9 -4.7 0  -2.8 -4.7 0  -2.7 -4.7 0  -2.6 -4.7 0  -2.5 -4.7 0  -2.4 -4.7 0  -2.3 -4.7 0  -2.2 -4.7 0  -2.1 -4.7 0  -2 -4.7 0  -1.9 -4.7 0  -1.8 -4.7 0  -1.7 -4.7 0  -1.6 -4.7 0  -1.5 -4.7 0  -1.4 -4.7 0  -1.3 -4.7 0  -1.2 -4.7 0  -1.1 -4.7 0  -1 -4.7 0  -0.9000000000000004 -4.7 0  -0.7999999999999998 -4.7 0  -0.7000000000000002 -4.7 0  -0.5999999999999996 -4.7 0  -0.5 -4.7 0  -0.4000000000000004 -4.7 0  -0.2999999999999998 -4.7 0  -0.2000000000000002 -4.7 0  -0.09999999999999964 -4.7 0  0 -4.7 0  0.09999999999999964 -4.7 0  0.2000000000000002 -4.7 0  0.2999999999999998 -4.7 0  0.4000000000000004 -4.7 0  0.5 -4.7 0  0.5999999999999996 -4.7 0  0.7000000000000002 -4.7 0  0.7999999999999998 -4.7 0  0.9000000000000004 -4.7 0  1 -4.7 0  1.1 -4.7 0  1.2 -4.7 0  1.3 -4.7 0  1.4 -4.7 0  1.5 -4.7 0  1.6 -4.7 0  1.7 -4.7 0  1.8 -4.7 0  1.9 -4.7 0  2 -4.7 0  2.1 -4.7 0  2.2 -4.7 0  2.3 -4.7 0  2.4 -4.7 0  2.5 -4.7 0  2.6 -4.7 0  2.7 -4.7 0  2.8 -4.7 0  2.9 -4.7 0  3 -4.7 0  3.1 -4.7 0  3.199999999999999 -4.7 0  3.300000000000001 -4.7 0  3.4 -4.7 0  3.5 -4.7 0  3.6 -4.7 0  3.699999999999999 -4.7 0  3.800000000000001 -4.7 0  3.9 -4.7 0  4 -4.7 0  4.1 -4.7 0  4.199999999999999 -4.7 0  4.300000000000001 -4.7 0  4.4 -4.7 0  4.5 -4.7 0  4.6 -4.7 0  4.699999999999999 -4.7 0  4.800000000000001 -4.7 0  4.9 -4.7 0  5 -4.7 0  -5 -4.6 0  -4.9 -4.6 0  -4.8 -4.6 0  -4.7 -4.6 0  -4.6 -4.6 0  -4.5 -4.6 0  -4.4 -4.6 0  -4.3 -4.6 0  -4.2 -4.6 0  -4.1 -4.6 0  -4 -4.6 0  -3.9 -4.6 0  -3.8 -4.6 0  -3.7 -4.6 0  -3.6 -4.6 0  -3.5 -4.6 0  -3.4 -4.6 0  -3.3 -4.6 0  -3.2 -4.6 0  -3.1 -4.6 0  -3 -4.6 0  -2.9 -4.6 0  -2.8 -4.6 0  -2.7 -4.6 0  -2.6 -4.6 0  -2.5 -4.6 0  -2.4 -4.6 0  -2.3 -4.6 0  -2.2 -4.6 0  -2.1 -4.6 0  -2 -4.6 0  -1.9 -4.6 0  -1.8 -4.6 0  -1.7 -4.6 0  -1.6 -4.6 0  -1.5 -4.6 0  -1.4 -4.6 0  -1.3 -4.6 0  -1.2 -4.6 0  -1.1 -4.6 0  -1 -4.6 0  -0.9000000000000004 -4.6 0  -0.7999999999999998 -4.6 0  -0.7000000000000002 -4.6 0  -0.5999999999999996 -4.6 0  -0.5 -4.6 0  -0.4000000000000004 -4.6 0  -0.2999999999999998 -4.6 0  -0.2000000000000002 -4.6 0  -0.09999999999999964 -4.6 0  0 -4.6 0  0.09999999999999964 -4.6 0  0.2000000000000002 -4.6 0  0.2999999999999998 -4.6 0  0.4000000000000004 -4.6 0  0.5 -4.6 0  0.5999999999999996 -4.6 0  0.7000000000000002 -4.6 0  0.7999999999999998 -4.6 0  0.9000000000000004 -4.6 0  1 -4.6 0  1.1 -4.6 0  1.2 -4.6 0  1.3 -4.6 0  1.4 -4.6 0  1.5 -4.6 0  1.6 -4.6 0  1.7 -4.6 0  1.8 -4.6 0  1.9 -4.6 0  2 -4.6 0  2.1 -4.6 0  2.2 -4.6 0  2.3 -4.6 0  2.4 -4.6 0  2.5 -4.6 0  2.6 -4.6 0  2.7 -4.6 0  2.8 -4.6 0  2.9 -4.6 0  3 -4.6 0  3.1 -4.6 0  3.199999999999999 -4.6 0  3.300000000000001 -4.6 0  3.4 -4.6 0  3.5 -4.6 0  3.6 -4.6 0  3.699999999999999 -4.6 0  3.800000000000001 -4.6 0  3.9 -4.6 0  4 -4.6 0  4.1 -4.6 0  4.199999999999999 -4.6 0  4.300000000000001 -4.6 0  4.4 -4.6 0  4.5 -4.6 0  4.6 -4.6 0  4.699999999999999 -4.6 0  4.800000000000001 -4.6 0  4.9 -4.6 0  5 -4.6 0  -5 -4.5 0  -4.9 -4.5 0  -4.8 -4.5 0  -4.7 -4.5 0  -4.6 -4.5 0  -4.5 -4.5 0  -4.4 -4.5 0  -4.3 -4.5 0  -4.2 -4.5 0  -4.1 -4.5 0  -4 -4.5 0  -3.9 -4.5 0  -3.8 -4.5 0  -3.7 -4.5 0  -3.6 -4.5 0  -3.5 -4.5 0  -3.4 -4.5 0  -3.3 -4.5 0  -3.2 -4.5 0  -3.1 -4.5 0  -3 -4.5 0  -2.9 -4.5 0  -2.8 -4.5 0  -2.7 -4.5 0  -2.6 -4.5 0  -2.5 -4.5 0  -2.4 -4.5 0  -2.3 -4.5 0  -2.2 -4.5 0  -2.1 -4.5 0  -2 -4.5 0  -1.9 -4.5 0  -1.8 -4.5 0  -1.7 -4.5 0  -1.6 -4.5 0  -1.5 -4.5 0  -1.4 -4.5 0  -1.3 -4.5 0  -1.2 -4.5 0  -1.1 -4.5 0  -1 -4.5 0  -0.9000000000000004 -4.5 0  -0.7999999999999998 -4.5 0  -0.7000000000000002 -4.5 0  -0.5999999999999996 -4.5 0  -0.5 -4.5 0  -0.4000000000000004 -4.5 0  -0.2999999999999998 -4.5 0  -0.2000000000000002 -4.5 0  -0.09999999999999964 -4.5 0  0 -4.5 0  0.09999999999999964 -4.5 0  0.2000000000000002 -4.5 0  0.2999999999999998 -4.5 0  0.4000000000000004 -4.5 0  0.5 -4.5 0  0.5999999999999996 -4.5 0  0.7000000000000002 -4.5 0  0.7999999999999998 -4.5 0  0.9000000000000004 -4.5 0  1 -4.5 0  1.1 -4.5 0  1.2 -4.5 0  1.3 -4.5 0  1.4 -4.5 0  1.5 -4.5 0  1.6 -4.5 0  1.7 -4.5 0  1.8 -4.5 0  1.9 -4.5 0  2 -4.5 0  2.1 -4.5 0  2.2 -4.5 0  2.3 -4.5 0  2.4 -4.5 0  2.5 -4.5 0  2.6 -4.5 0  2.7 -4.5 0  2.8 -4.5 0  2.9 -4.5 0  3 -4.5 0  3.1 -4.5 0  3.199999999999999 -4.5 0  3.300000000000001 -4.5 0  3.4 -4.5 0  3.5 -4.5 0  3.6 -4.5 0  3.699999999999999 -4.5 0  3.800000000000001 -4.5 0  3.9 -4.5 0  4 -4.5 0  4.1 -4.5 0  4.199999999999999 -4.5 0  4.300000000000001 -4.5 0  4.4 -4.5 0  4.5 -4.5 0  4.6 -4.5 0  4.699999999999999 -4.5 0  4.800000000000001 -4.5 0  4.9 -4.5 0  5 -4.5 0  -5 -4.4 0  -4.9 -4.4 0  -4.8 -4.4 0  -4.7 -4.4 0  -4.6 -4.4 0  -4.5 -4.4 0  -4.4 -4.4 0  -4.3 -4.4 0  -4.2 -4.4 0  -4.1 -4.4 0  -4 -4.4 0  -3.9 -4.4 0  -3.8 -4.4 0  -3.7 -4.4 0  -3.6 -4.4 0  -3.5 -4.4 0  -3.4 -4.4 0  -3.3 -4.4 0  -3.2 -4.4 0  -3.1 -4.4 0  -3 -4.4 0  -2.9 -4.4 0  -2.8 -4.4 0  -2.7 -4.4 0  -2.6 -4.4 0  -2.5 -4.4 0  -2.4 -4.4 0  -2.3 -4.4 0  -2.2 -4.4 0  -2.1 -4.4 0  -2 -4.4 0  -1.9 -4.4 0  -1.8 -4.
[...]
<PointData  Vectors="f_17"> 
<DataArray  type="Float64"  Name="f_17"  NumberOfComponents="3" format="ascii">1.5000000018707468e-01 0.0000000000000000e+00 0.0000000000000000e+00  1.5000000022433632e-01 -7.3426977234625314e-10 0.0000000000000000e+00  1.5000000100211666e-01 -1.5996092095016591e-09 0.0000000000000000e+00  1.5000000277628689e-01 -5.4791018541358493e-09 0.0000000000000000e+00  1.5000000808656944e-01 -1.3265578613236143e-08 0.0000000000000000e+00  1.5000002000735657e-01 -3.1589494807738015e-08 0.0000000000000000e+00  1.5000004505737025e-01 -6.5812292677122222e-08 0.0000000000000000e+00  1.5000009188166685e-01 -1.1712840033673656e-07 0.0000000000000000e+00  1.5000016486017884e-01 -1.7146892534626898e-07 0.0000000000000000e+00  1.5000025051665017e-01 -1.7726361823264256e-07 0.0000000000000000e+00  1.5000029837920836e-01 -1.0592158203866039e-08 0.0000000000000000e+00  1.5000018950035740e-01 5.1591719817569510e-07 0.0000000000000000e+00  1.4999972605000017e-01 1.5798636678052873e-06 0.0000000000000000e+00  1.4999869268785607e-01 3.2200558702960699e-06 0.0000000000000000e+00  1.4999698149822488e-01 5.1480358577461552e-06 0.0000000000000000e+00  1.4999473869727292e-01 6.6374621400865700e-06 0.0000000000000000e+00  1.4999247780966865e-01 6.7800143447292698e-06 0.0000000000000000e+00  1.4999098425198376e-01 5.0302072003483249e-06 0.0000000000000000e+00  1.4999091333586109e-01 1.4985950713711198e-06 0.0000000000000000e+00  1.4999242214578237e-01 -3.1589258426103341e-06 0.0000000000000000e+00  1.4999516949922295e-01 -7.8122346320096314e-06 0.0000000000000000e+00  1.4999841697738911e-01 -1.0788382739080789e-05 0.0000000000000000e+00  1.5000106638878025e-01 -1.0270029661217260e-05 0.0000000000000000e+00  1.5000211998372787e-01 -5.7331324973593569e-06 0.0000000000000000e+00  1.5000154493373974e-01 3.5975784066977784e-07 0.0000000000000000e+00  1.5000051762358624e-01 3.4957482581140722e-06 0.0000000000000000e+00  1.5000039806544840e-01 1.9227968849384242e-06 0.0000000000000000e+00  1.5000116036342714e-01 -4.8542641881216690e-07 0.0000000000000000e+00  1.5000124991691380e-01 3.8547917345151419e-07 0.0000000000000000e+00  1.4999998045753973e-01 2.2856595918710231e-06 0.0000000000000000e+00  1.4999918985391400e-01 9.1292649956415133e-07 0.0000000000000000e+00  1.5000021654405893e-01 -1.5573973847579487e-06 0.0000000000000000e+00  1.5000092604257406e-01 -4.1574187488145230e-07 0.0000000000000000e+00  1.4999962746090240e-01 1.9049052729857003e-06 0.0000000000000000e+00  1.4999893491948985e-01 3.4482537542543437e-07 0.0000000000000000e+00  1.5000054863185325e-01 -2.1814222053635020e-06 0.0000000000000000e+00  1.5000117949645836e-01 -3.8125853515908517e-07 0.0000000000000000e+00  1.4999934972726855e-01 2.2603770413742577e-06 0.0000000000000000e+00  1.4999888122036029e-01 3.9445091482144500e-07 0.0000000000000000e+00  1.5000071997528383e-01 -2.0932910765018320e-06 0.0000000000000000e+00  1.5000088572448830e-01 -2.6087093302302567e-07 0.0000000000000000e+00  1.4999924793057806e-01 1.7716759114809765e-06 0.0000000000000000e+00  1.4999945857184502e-01 2.6470488532788810e-09 0.0000000000000000e+00  1.5000072516780621e-01 -1.3785165369660721e-06 0.0000000000000000e+00  1.5000018294202597e-01 2.8511093904139694e-07 0.0000000000000000e+00  1.4999938416472045e-01 9.6502571660329983e-07 0.0000000000000000e+00  1.5000010467601918e-01 -5.0031653172767471e-07 0.0000000000000000e+00  1.5000043177282768e-01 -5.6304199741778379e-07 0.0000000000000000e+00  1.4999972969609301e-01 5.8306490305756249e-07 0.0000000000000000e+00  1.4999978362520844e-01 2.0927345857041874e-07 0.0000000000000000e+00  1.5000030539851514e-01 -5.2762595454789718e-07 0.0000000000000000e+00  1.5000002779500218e-01 5.4304323051612207e-08 0.0000000000000000e+00  1.4999975936007598e-01 3.7344931822473829e-07 0.0000000000000000e+00  1.5000008984953964e-01 -1.9858508555242882e-07 0.0000000000000000e+00  1.5000013023385056e-01 -1.8496474151187403e-07 0.0000000000000000e+00  1.4999987505149473e-01 2.2489148360258006e-07 0.0000000000000000e+00  1.4999997173002394e-01 2.5662198129858349e-08 0.0000000000000000e+00  1.5000009822843749e-01 -1.6744363788194056e-07 0.0000000000000000e+00  1.4999996799320781e-01 6.5399374429451497e-08 0.0000000000000000e+00  1.4999995316728459e-01 7.8476071766198357e-08 0.0000000000000000e+00  1.5000004605340300e-01 -8.4547501188056429e-08 0.0000000000000000e+00  1.5000000367492999e-01 -4.8675386891103214e-09 0.0000000000000000e+00  1.4999996920752751e-01 5.7003946722079641e-08 0.0000000000000000e+00  1.5000001600971619e-01 -3.0015860935155255e-08 0.0000000000000000e+00  1.5000000896913962e-01 -1.7803718068857927e-08 0.0000000000000000e+00  1.4999998475957468e-01 2.9602430713787270e-08 0.0000000000000000e+00  1.5000000443078707e-01 -7.8011156738478399e-09 0.0000000000000000e+00  1.5000000608253841e-01 -1.2963761115366352e-08 0.0000000000000000e+00  1.4999999331063377e-01 1.3381255351811627e-08 0.0000000000000000e+00  1.5000000108401026e-01 -1.4083988399344931e-09 0.0000000000000000e+00  1.5000000308730321e-01 -6.9738066912945781e-09 0.0000000000000000e+00  1.4999999714871642e-01 5.8681076764282473e-09 0.0000000000000000e+00  1.5000000035573738e-01 -2.4980755151471208e-10 0.0000000000000000e+00  1.5000000133853872e-01 -3.2311112854466290e-09 0.0000000000000000e+00  1.4999999876627873e-01 2.6509003404832677e-09 0.0000000000000000e+00  1.5000000022902901e-01 -2.4297038927620980e-10 0.0000000000000000e+00  1.5000000049858334e-01 -1.3222094016387740e-09 0.0000000000000000e+00  1.4999999946215903e-01 1.2379767859370889e-09 0.0000000000000000e+00  1.5000000018016479e-01 -3.0149403254541463e-10 0.0000000000000000e+00  1.5000000013877046e-01 -4.3935912690149369e-10 0.0000000000000000e+00  1.4999999977925796e-01 5.6184273556091105e-10 0.0000000000000000e+00  1.5000000012343936e-01 -2.6237565314502525e-10 0.0000000000000000e+00  1.5000000000703353e-01 -7.7323815165586213e-11 0.0000000000000000e+00  1.4999999992445887e-01 2.2963471872020810e-10 0.0000000000000000e+00  1.5000000007086786e-01 -1.8648410935321998e-10 0.0000000000000000e+00  1.4999999997139854e-01 5.3149273831684914e-11 0.0000000000000000e+00  1.4999999998592603e-01 7.0213513238530145e-11 0.0000000000000000e+00  1.5000000003953182e-01 -1.4011288380159518e-10 0.0000000000000000e+00  1.4999999995207350e-01 1.6102598785295171e-10 0.0000000000000000e+00  1.5000000004676742e-01 -1.5562838021025567e-10 0.0000000000000000e+00  1.4999999995723912e-01 1.4275153767635465e-10 0.0000000000000000e+00  1.5000000003901454e-01 -1.3054479368207203e-10 0.0000000000000000e+00  1.4999999996416358e-01 1.1941226670697851e-10 0.0000000000000000e+00  1.5000000003247946e-01 -1.0717309041561609e-10 0.0000000000000000e+00  1.4999999997154850e-01 9.2563827369924379e-11 0.0000000000000000e+00  1.5000000002359151e-01 -7.5661585472670044e-11 0.0000000000000000e+00  1.4999999998111307e-01 5.8773360499326667e-11 0.0000000000000000e+00  1.5000000001335892e-01 -4.1091187913301964e-11 0.0000000000000000e+00  1.4999999998850996e-01 2.7947560349996623e-11 0.0000000000000000e+00  1.5000000000517680e-01 -1.4063686317719911e-11 0.0000000000000000e+00  1.4999999998899063e-01 0.0000000000000000e+00 0.0000000000000000e+00  1.5000000022433624e-01 0.0000000000000000e+00 -7.3426982497208145e-10  1.4999999963446001e-01 1.4297716730644480e-11 1.4297584531212198e-11  1.4999999944446138e-01 1.5167326171248299e-09 -1.5983762336390847e-09  1.4999999788599636e-01 3.5460700976639952e-09 -3.7282392694772502e-09  1.4999999422225310e-01 1.0527605263908535e-08 -1.1411678814147297e-08  1.4999998452152069e-01 2.4345850259547551e-08 -2.8767219990563179e-08  1.4999996428902096e-01 5.4632259762576684e-08 -6.6761813163954367e-08  1.4999992418911076e-01 1.0407797972507433e-07 -1.3915938725884192e-07  1.4999985636605817e-01 1.6718226016707662e-07 -2.6063452045201274e-07  1.4999976486617286e-01 2.0958172396413070e-07 -4.2193607620114564e-07  1.4999968374730821e-01 1.3570588617780264e-07 -5.6266906423787241e-07  1.4999970304558707e-01 -2.3451348654232485e-07 -5.2592124545549462e-07  1.4999999739428338e-01 -1.1082578918006124e-06 -2.8714039821130508e-08  1.5000079651434570e-01 -2.6034174476955477e-06 1.2712780282131871e-06  1.5000227343214412e-01 -4.5780462166776145e-06 3.5660049607138913e-06  1.5000439748945912e-01 -6.4459854223662431e-06 6.6416425355764270e-06  1.5000679813734277e-01 -7.2541008592117883e-06 9.7110730039012054e-06  1.5000874779522286e-01 -6.2127725577546228e-06 1.1550966789612904e-05  1.5000945970904422e-01 -3.2087394343662693e-06 1.1149762371072146e-05  1.5000856232310206e-01 1.2207776822809657e-06 8.4524831703059615e-06  1.5000625478478635e-01 6.1049267782282848e-06 4.3611373495701213e-06  1.5000313585342473e-01 9.9967705524731607e-06 1.4426388580301959e-07  1.5000013724997383e-01 1.1100875412055214e-05 -2.8422586859858543e-06  1.4999833416118302e-01 8.2373883549889593e-06 -3.4471416865784115e-06  1.4999821114845682e-01 2.4840152088132685e-06 -1.7884950791890408e-06  1.4999907754121003e-01 -2.3341011334041796e-06 1.6361826600973449e-07  1.4999958594473289e-01 -2.7918162377766581e-06 2.2309285046543276e-07  1.4999910824667431e-01 -3.8113623450576457e-07 -1.3699176760558569e-06  1.4999860351206384e-01 1.2909083878990639e-07 -1.8784621148801177e-06  1.4999937263059895e-01 -1.8249678574509865e-06 5.9194178296804108e-08  1.5000064149028072e-01 -1.8372140884802643e-06 1.6000930177491646e-06  1.5000036670426373e-01 7.8720320223587287e-07 3.4231293499782382e-08  1.4999916509248248e-01 1.2119308918495564e-06 -1.6513468111199702e-06  1.4999965389618322e-01 -1.2472761424875623e-06 1.8646672913468927e-07  1.5000104721572574e-01 -1.3042357359856218e-06 1.9801925690545681e-06  1.5000029565775252e-01 1.4830654108017630e-06 -4.0467509853763680e-07  1.4999874021016013e-01 1.4328494879238283e-06 -2.3015695974120856e-06  1.4999974573261818e-01 -1.5232781970309539e-06 5.3639620166424752e-07  1.5000130629975475e-01 -1.4542572125890093e-06 2.3063798600489452e-06  1.5000012349877792e-01 1.3885356553831170e-06 -7.0675700261061561e-07  1.4999880965754558e-01 1.2610638701081662e-06 -1.9721552744978840e-06  1.5000008090532199e-01 -1.2057070269772698e-06 9.0590981085466396e-07  1.5000094154219507e-01 -9.0994672284714172e-07 1.3776888574003705e-06  1.4999970346805541e-01 1.0325144874194679e-06 -1.0616795787170866e-06  1.4999937937041771e-01 5.0395521710248816e-07 -6.8739172498061536e-07  1.5000044016866473e-01 -8.6662250737881611e-07 1.0680386679800601e-06  1.5000029168405862e-01 -1.3685757108803269e-07 6.3715755244881034e-08  1.4999953720860915e-01 6.8088320460083368e-07 -8.7908446132271293e-07  1.4999998377455481e-01 -1.3425917501343012e-07 3.7042953843590421e-07  1.5000037027420263e-01 -4.6600848450639831e-07 5.4390017971940743e-07  1.4999984047086309e-01 2.8486650141070383e-07 -5.5708580306943499e-07  1.4999978717637386e-01 2.4285962989400857e-07 -1.7735752420979493e-07  1.5000022014030009e-01 -3.1702617218411702e-07 5.1599643913448502e-07  1.5000005600228411e-01 -5.0267699874551854e-08 -1.0299842457293225e-07  1.4999981328497755e-01 2.5706410451017113e-07 -3.3302073101925709e-07  1.5000004965357674e-01 -7.6553015838192331e-08 2.3240700914326763e-07  1.5000010561886445e-01 -1.4958810783278349e-07 1.2044424179273339e-07  1.4999991318619091e-01 1.2404065126760608e-07 -2.1967406576045314e-07  1.4999997414286378e-01 4.3408445053686404e-08 3.2285863089845150e-08  1.5000007063043530e-01 -1.0622159700565409e-07 1.2763813189873782e-07  1.4999997826068154e-01 2.6036708379152223e-08 -9.0704754545576937e-08  1.4999996729778459e-01 5.6186933363322740e-08 -3.0295939339870176e-08  1.5000003240589108e-01 -4.8137868195794136e-08 7.4562312590891398e-08  1.5000000106882591e-01 -8.5649846586254823e-09 -2.5685847332691801e-08  1.4999997957727221e-01 3.5658897232932087e-08 -2.9915802684768279e-08  1.5000001206304456e-01 -1.6338032191590807e-08 3.4396195246461678e-08  1.5000000448841141e-01 -1.1928435740595924e-08 -4.3236629233537559e-09  1.4999998993771341e-01 1.7755744213441240e-08 -1.7530325463173504e-08  1.5000000411823430e-01 -4.4982318812332847e-09 1.4467609902118508e-08  1.5000000300846045e-01 -7.6744379395014580e-09 1.2019421601576865e-10  1.4999999551695367e-01 8.0688723329141320e-09 -8.4418636364301326e-09  1.5000000150975695e-01 -1.2294361092996399e-09 6.1092494412541933e-09  1.5000000142475442e-01 -3.8549947305551853e-09 2.2195608729907744e-10  1.4999999808058420e-01 3.6266763174088173e-09 -3.6169777074015908e-09  1.5000000068257710e-01 -5.6071162187583770e-10 2.7116857064346244e-09  1.5000000052521142e-01 -1.6488926463669428e-09 -1.6125034266611210e-10  1.4999999920310778e-01 1.6540633270540700e-09 -1.3685594690369070e-09  1.5000000036709860e-01 -4.2746027802270844e-10 1.2372720586297154e-09  1.5000000012525724e-01 -5.7803144221841540e-10 -3.1147525252056768e-10  1.4999999969346683e-01 7.4415811279373283e-10 -4.0438820920487690e-10  1.5000000020213938e-01 -3.3524722031058867e-10 5.3721377049978159e-10  1.4999999998284583e-01 -1.1530883586085097e-10 -2.7795589231129078e-10  1.4999999990720544e-01 2.9824241158220691e-10 -3.0681148146214417e-11  1.5000000009637263e-01 -2.1818150153069230e-10 1.8715901523287449e-10  1.4999999995938570e-01 3.1698733732944426e-11 -1.7787287174056571e-10  1.4999999998093033e-01 1.2472806737225474e-10 8.4559367447688882e-11  1.5000000005500139e-01 -2.0143377341202913e-10 1.2340618678997223e-11  1.4999999993344562e-01 2.1424125263019621e-10 -7.4674901606174552e-11  1.5000000006450764e-01 -1.9800397779342679e-10 1.0093373060504107e-10  1.4999999994151797e-01 1.7693727975889794e-10 -1.0491333827293691e-10  1.5000000005276753e-01 -1.5884838383365780e-10 9.9743244886806914e-11  1.4999999995230059e-01 1.4208243953262752e-10 -9.2319850110007397e-11  1.5000000004232614e-01 -1.2344510057550397e-10 8.4407640538390383e-11  1.4999999996393371e-01 1.0198889469602290e-10 -7.5561167685693376e-11  1.5000000002915534e-01 -7.9224933474339546e-11 6.5394722730012487e-11  1.4999999997789543e-01 5.7363428907150771e-11 -5.3829253114967751e-11  1.5000000001600688e-01 -3.9082580529642970e-11 4.2568713568128953e-11  1.4999999998990549e-01 2.3568981341224629e-11 -2.9915496947092013e-11  1.5000000000776151e-01 -1.5224300445239149e-11 2.3856225608951872e-11  1.4999999999855312e-01 8.0251465762935368e-12 -8.0254078089263376e-12  1.5000000000517713e-01 0.0000000000000000e+00 1.4063444334664524e-11  1.5000000100211675e-01 0.0000000000000000e+00 -1.5996096360729181e-09  1.4999999944446132e-01 -1.5983757262601556e-09 1.5167325576905198e-09  1.5000000105762940e-01 5.1012506580203609e-10 5.1012598290374987e-10  1.5000000121660589e-01 -4.2784776929148155e-09 5.3902997883620107e-09  1.5000000508460948e-01 -7.6620544964309194e-09 1.2303368190464251e-08  1.5000001262804455e-01 -2.2572553343349374e-08 3.6226430272472163e-08  1.5000003173977536e-01 -4.8457488706146564e-08 8.6029825298816188e-08  1.5000006850607911e-01 -1.0279413744267488e-07 1.9075898831263722e-07  1.5000013745713767e-01 -1.7874931152856613e-07 3.8092015709220937e-07  1.5000024206866419e-01 -2.6108841324174980e-07 6.7935195411037517e-07  1.5000036383899060e-01 -2.7361297497936878e-07 1.0367450576204366e-06  1.5000043332392293e-01 -4.8037358674411613e-08 1.2788134481315633e-06  1.5000029763055753e-01 6.7354150277855508e-07 9.9813752349816091e-07  1.4999970642404542e-01 2.1038280068811424e-06 -4.5638753672252629e-07  1.4999840803662001e-01 4.2433243414829737e-06 -3.7269795924148731e-06  1.4999631643620268e-01 6.6468129293000795e-06 -8.9570590783742634e-06  1.4999367477245340e-01 8.3032098588691299e-06 -1.5331620901728852e-05  1.4999115586066095e-01 8.0520979029063597e-06 -2.0884010385498717e-05  1.4998970092456623e-01 5.4109495045868314e-06 -2.3141650851510901e-05  1.4998997177028178e-01 8.7148413164775867e-07 -2.0757169101182592e-05  1.4999192530795458e-01 -4.5334827918724776e-06 -1.4538905480469622e-05  1.4999499040153755e-01 -9.4815401819481777e-06 -6.5775142373456868e-06  1.4999833906041751e-01 -1.2256725007983886e-05 8.6880798467795035e-07  1.5000089332403932e-01 -1.1189949891887135e-05 5.3838936023823156e-06  1.5000178225178101e-01 -6.1003752227125667e-06 5.3201009886202796e-06  1.5000122739102709e-01 2.1564289958693880e-07 2.0473839489457499e-06  1.5000051854219934e-01 3.1862948751210262e-06 -2.8449614388822588e-07  1.5000073861820279e-01 1.4978969930761333e-06 1.0465391559521077e-06  1.5000149580592576e-01 -3.9977461813704316e-07 3.6272613602911070e-06  1.5000126541993167e-01 1.2030509338494169e-06 2.5250887751491953e-06  1.4999978504761258e-01 2.8589105455121046e-06 -1.7776820392505444e-06  1.4999918458624281e-01 5.0466170791150138e-07 -2.4153621193700502e-06  1.5000046489901364e-01 -1.9424194569508556e-06 1.8863833261563749e-06  1.5000096467553264e-01 1.4511631889205463e-07 2.4757685351367030e-06  1.4999932930169554e-01 2.2964257497788339e-06 -2.6235742323362770e-06  1.4999890424723175e-01 -3.2901948603788011e-07 -2.7571085752681564e-06  1.5000092296757780e-01 -2.5672501408017251e-06 3.3851238985546004e-06  1.5000120218619559e-01 3.4927319514359591e-07 2.9761338740408673e-06  1.4999894847612263e-01 2.6066049992949875e-06 -3.7069005543758875e-06  1.4999890519054793e-01 -2.9668305138792524e-07 -2.6152012247716336e-06  1.5000109178954149e-01 -2.3241428671391240e-06 3.6593076359269739e-06  1.5000078772098929e-01 3.3090365486072793e-07 1.7040137598499242e-06  1.4999896739203705e-01 1.8404915364657887e-06 -3.2487330158375063e-06  1.4999963640525021e-01 -4.5766384289119809e-07 -4.9544157539972299e-07  1.5000087446688001e-01 -1.2857993166731512e-06 2.5406998416449993e-06  1.4999995700216856e-01 6.0341443133447431e-07 -6.0148092530855963e-07  1.4999937487497461e-01 7.5653982845556559e-07 -1.6186793695052955e-06  1.5000032147386821e-01 -6.7767994697728785e-07 1.2655304030658181e-06  1.5000032667587562e-01 -3.0589431342159156e-07 6.4383255286428575e-07  1.4999957794519284e-01 6.3293417053960952e-07 -1.3818175737953577e-06  1.4999995027667748e-01 -3.1908041608280915e-08 1.6854720994434742e-07  1.5000036316283244e-01 -4.7856133693573063e-07 1.0509775630478464e-06  1.4999986159157744e-01 2.3342801031498898e-07 -6.4237742034385591e-07  1.4999978709561523e-01 2.6666840511300195e-07 -5.1189974229032154e-07  1.5000020720068108e-01 -2.9572715572978486e-07 7.3062080613160036e-07  1.5000005434535260e-01 -6.5364090866189125e-08 2.1824946666423190e-08  1.4999982528946323e-01 2.4635695161248322e-07 -5.3253630772481020e-07  1.5000005086028231e-01 -7.0104062617005497e-08 2.5411144272542420e-07  1.5000009240724038e-01 -1.3875561674646884e-07 2.3034182949536475e-07  1.4999991681115843e-01 1.1844640950081846e-07 -2.9237734696878979e-07  1.4999998517416216e-01 3.2169013265047074e-08 1.0205359604279743e-08  1.5000006181103256e-01 -9.6339557998775706e-08 1.8209849914951649e-07  1.4999997358890441e-01 3.2622369488725472e-08 -1.1255312981865891e-07  1.4999997718735569e-01 4.3591455847810774e-08 -4.6078490158868939e-08  1.5000003018010369e-01 -4.6772501836276517e-08 9.7637007490893738e-08  1.4999999491809599e-01 1.1559366731547621e-09 -3.3800621722249014e-08  1.4999998516163043e-01 2.8459945468159554e-08 -3.6691428262543015e-08  1.5000001280957900e-01 -1.9209232149286541e-08 4.4559146567524505e-08  1.5000000005054140e-01 -4.5619705736420291e-09 -8.8836886926251062e-09  1.4999999251066795e-01 1.4778670855217524e-08 -1.9748819138443812e-08  1.5000000529338259e-01 -7.7106577103928350e-09 1.9327140721843559e-08  1.5000000042567979e-01 -3.1918215946497006e-09 -2.9200167498413768e-09  1.4999999668590169e-01 6.9224440890484860e-09 -8.7726706637195881e-09  1.5000000228763952e-01 -3.4237952486837636e-09 8.4117376769201243e-09  1.5000000006009256e-01 -1.3261444381060350e-09 -1.7366778848703374e-09  1.4999999869036154e-01 3.0226701201330044e-09 -3.2645610345292750e-09  1.5000000103281902e-01 -1.7140620317432082e-09 3.6528748063655724e-09  1.4999999985460363e-01 -2.8441361045268840e-10 -1.2948010990148414e-09  1.4999999956117036e-01 1.2233215122047277e-09 -8.8020256194