<?xml version="1.0"?>
<VTKFile type="UnstructuredGrid"  version="0.1"  >
<UnstructuredGrid>
<Piece  NumberOfPoints="10201" NumberOfCells="20000">
<Points>
<DataArray  type="Float64"  NumberOfComponents="3"  format="ascii">-5 -5 0  -4.9 -5 0  -4.8 -5 0  -4.7 -5 0  -4.6 -5 0  -4.5 -5 0  -4.4 -5 0  -4.3 -5 0  -4.2 -5 0  -4.1 -5 0  -4 -5 0  -3.9 -5 0  -3.8 -5 0  -3.7 -5 0  -3.6 -5 0  -3.5 -5 0  -3.4 -5 0  -3.3 -5 0  -3.2 -5 0  -3.1 -5 0  -3 -5 0  -2.9 -5 0  -2.8 -5 0  -2.7 -5 0  -2.6 -5 0  -2.5 -5 0  -2.4 -5 0  -2.3 -5 0  -2.2 -5 0  -2.1 -5 0  -2 -5 0  -1.9 -5 0  -1.8 -5 0  -1.7 -5 0  -1.6 -5 0  -1.5 -5 0  -1.4 -5 0  -1.3 -5 0  -1.2 -5 0  -1.1 -5 0  -1 -5 0  -0.9000000000000004 -5 0  -0.7999999999999998 -5 0  -0.7000000000000002 -5 0  -0.5999999999999996 -5 0  -0.5 -5 0  -0.4000000000000004 -5 0  -0.2999999999999998 -5 0  -0.2000000000000002 -5 0  -0.09999999999999964 -5 0  0 -5 0  0.09999999999999964 -5 0  0.2000000000000002 -5 0  0.2999999999999998 -5 0  0.4000000000000004 -5 0  0.5 -5 0  0.5999999999999996 -5 0  0.7000000000000002 -5 0  0.7999999999999998 -5 0  0.9000000000000004 -5 0  1 -5 0  1.1 -5 0  1.2 -5 0  1.3 -5 0  1.4 -5 0  1.5 -5 0  1.6 -5 0  1.7 -5 0  1.8 -5 0  1.9 -5 0  2 -5 0  2.1 -5 0  2.2 -5 0  2.3 -5 0  2.4 -5 0  2.5 -5 0  2.6 -5 0  2.7 -5 0  2.8 -5 0  2.9 -5 0  3 -5 0  3.1 -5 0  3.199999999999999 -5 0  3.300000000000001 -5 0  3.4 -5 0  3.5 -5 0  3.6 -5 0  3.699999999999999 -5 0  3.800000000000001 -5 0  3.9 -5 0  4 -5 0  4.1 -5 0  4.199999999999999 -5 0  4.300000000000001 -5 0  4.4 -5 0  4.5 -5 0  4.6 -5 0  4.699999999999999 -5 0  4.800000000000001 -5 0  4.9 -5 0  5 -5 0  -5 -4.9 0  -4.9 -4.9 0  -4.8 -4.9 0  -4.7 -4.9 0  -4.6 -4.9 0  -4.5 -4.9 0  -4.4 -4.9 0  -4.3 -4.9 0  -4.2 -4.9 0  -4.1 -4.9 0  -4 -4.9 0  -3.9 -4.9 0  -3.8 -4.9 0  -3.7 -4.9 0  -3.6 -4.9 0  -3.5 -4.9 0  -3.4 -4.9 0  -3.3 -4.9 0  -3.2 -4.9 0  -3.1 -4.9 0  -3 -4.9 0  -2.9 -4.9 0  -2.8 -4.9 0  -2.7 -4.9 0  -2.6 -4.9 0  -2.5 -4.9 0  -2.4 -4.9 0  -2.3 -4.9 0  -2.2 -4.9 0  -2.1 -4.9 0  -2 -4.9 0  -1.9 -4.9 0  -1.8 -4.9 0  -1.7 -4.9 0  -1.6 -4.9 0  -1.5 -4.9 0  -1.4 -4.9 0  -1.3 -4.9 0  -1.2 -4.9 0  -1.1 -4.9 0  -1 -4.9 0  -0.9000000000000004 -4.9 0  -0.7999999999999998 -4.9 0  -0.7000000000000002 -4.9 0  -0.5999999999999996 -4.9 0  -0.5 -4.9 0  -0.4000000000000004 -4.9 0  -0.2999999999999998 -4.9 0  -0.2000000000000002 -4.9 0  -0.09999999999999964 -4.9 0  0 -4.9 0  0.09999999999999964 -4.9 0  0.2000000000000002 -4.9 0  0.2999999999999998 -4.9 0  0.4000000000000004 -4.9 0  0.5 -4.9 0  0.5999999999999996 -4.9 0  0.7000000000000002 -4.9 0  0.7999999999999998 -4.9 0  0.9000000000000004 -4.9 0  1 -4.9 0  1.1 -4.9 0  1.2 -4.9 0  1.3 -4.9 0  1.4 -4.9 0  1.5 -4.9 0  1.6 -4.9 0  1.7 -4.9 0  1.8 -4.9 0  1.9 -4.9 0  2 -4.9 0  2.1 -4.9 0  2.2 -4.9 0  2.3 -4.9 0  2.4 -4.9 0  2.5 -4.9 0  2.6 -4.9 0  2.7 -4.9 0  2.8 -4.9 0  2.9 -4.9 0  3 -4.9 0  3.1 -4.9 0  3.199999999999999 -4.9 0  3.300000000000001 -4.9 0  3.4 -4.9 0  3.5 -4.9 0  3.6 -4.9 0  3.699999999999999 -4.9 0  3.800000000000001 -4.9 0  3.9 -4.9 0  4 -4.9 0  4.1 -4.9 0  4.199999999999999 -4.9 0  4.300000000000001 -4.9 0  4.4 -4.9 0  4.5 -4.9 0  4.6 -4.9 0  4.699999999999999 -4.9 0  4.800000000000001 -4.9 0  4.9 -4.9 0  5 -4.9 0  -5 -4.8 0  -4.9 -4.8 0  -4.8 -4.8 0  -4.7 -4.8 0  -4.6 -4.8 0  -4.5 -4.8 0  -4.4 -4.8 0  -4.3 -4.8 0  -4.2 -4.8 0  -4.1 -4.8 0  -4 -4.8 0  -3.9 -4.8 0  -3.8 -4.8 0  -3.7 -4.8 0  -3.6 -4.8 0  -3.5 -4.8 0  -3.4 -4.8 0  -3.3 -4.8 0  -3.2 -4.8 0  -3.1 -4.8 0  -3 -4.8 0  -2.9 -4.8 0  -2.8 -4.8 0  -2.7 -4.8 0  -2.6 -4.8 0  -2.5 -4.8 0  -2.4 -4.8 0  -2.3 -4.8 0  -2.2 -4.8 0  -2.1 -4.8 0  -2 -4.8 0  -1.9 -4.8 0  -1.8 -4.8 0  -1.7 -4.8 0  -1.6 -4.8 0  -1.5 -4.8 0  -1.4 -4.8 0  -1.3 -4.8 0  -1.2 -4.8 0  -1.1 -4.8 0  -1 -4.8 0  -0.9000000000000004 -4.8 0  -0.7999999999999998 -4.8 0  -0.7000000000000002 -4.8 0  -0.5999999999999996 -4.8 0  -0.5 -4.8 0  -0.4000000000000004 -4.8 0  -0.2999999999999998 -4.8 0  -0.2000000000000002 -4.8 0  -0.09999999999999964 -4.8 0  0 -4.8 0  0.09999999999999964 -4.8 0  0.2000000000000002 -4.8 0  0.2999999999999998 -4.8 0  0.4000000000000004 -4.8 0  0.5 -4.8 0  0.5999999999999996 -4.8 0  0.7000000000000002 -4.8 0  0.7999999999999998 -4.8 0  0.9000000000000004 -4.8 0  1 -4.8 0  1.1 -4.8 0  1.2 -4.8 0  1.3 -4.8 0  1.4 -4.8 0  1.5 -4.8 0  1.6 -4.8 0  1.7 -4.8 0  1.8 -4.8 0  1.9 -4.8 0  2 -4.8 0  2.1 -4.8 0  2.2 -4.8 0  2.3 -4.8 0  2.4 -4.8 0  2.5 -4.8 0  2.6 -4.8 0  2.7 -4.8 0  2.8 -4.8 0  2.9 -4.8 0  3 -4.8 0  3.1 -4.8 0  3.199999999999999 -4.8 0  3.300000000000001 -4.8 0  3.4 -4.8 0  3.5 -4.8 0  3.6 -4.8 0  3.699999999999999 -4.8 0  3.800000000000001 -4.8 0  3.9 -4.8 0  4 -4.8 0  4.1 -4.8 0  4.199999999999999 -4.8 0  4.300000000000001 -4.8 0  4.4 -4.8 0  4.5 -4.8 0  4.6 -4.8 0  4.699999999999999 -4.8 0  4.800000000000001 -4.8 0  4.9 -4.8 0  5 -4.8 0  -5 -4.7 0  -4.9 -4.7 0  -4.8 -4.7 0  -4.7 -4.7 0  -4.6 -4.7 0  -4.5 -4.7 0  -4.4 -4.7 0  -4.3 -4.7 0  -4.2 -4.7 0  -4.1 -4.7 0  -4 -4.7 0  -3.9 -4.7 0  -3.8 -4.7 0  -3.7 -4.7 0  -3.6 -4.7 0  -3.5 -4.7 0  -3.4 -4.7 0  -3.3 -4.7 0  -3.2 -4.7 0  -3.1 -4.7 0  -3 -4.7 0  -2.9 -4.7 0  -2.8 -4.7 0  -2.7 -4.7 0  -2.6 -4.7 0  -2.5 -4.7 0  -2.4 -4.7 0  -2.3 -4.7 0  -2.2 -4.7 0  -2.1 -4.7 0  -2 -4.7 0  -1.9 -4.7 0  -1.8 -4.7 0  -1.7 -4.7 0  -1.6 -4.7 0  -1.5 -4.7 0  -1.4 -4.7 0  -1.3 -4.7 0  -1.2 -4.7 0  -1.1 -4.7 0  -1 -4.7 0  -0.9000000000000004 -4.7 0  -0.7999999999999998 -4.7 0  -0.7000000000000002 -4.7 0  -0.5999999999999996 -4.7 0  -0.5 -4.7 0  -0.4000000000000004 -4.7 0  -0.2999999999999998 -4.7 0  -0.2000000000000002 -4.7 0  -0.09999999999999964 -4.7 0  0 -4.7 0  0.09999999999999964 -4.7 0  0.2000000000000002 -4.7 0  0.2999999999999998 -4.7 0  0.4000000000000004 -4.7 0  0.5 -4.7 0  0.5999999999999996 -4.7 0  0.7000000000000002 -4.7 0  0.7999999999999998 -4.7 0  0.9000000000000004 -4.7 0  1 -4.7 0  1.1 -4.7 0  1.2 -4.7 0  1.3 -4.7 0  1.4 -4.7 0  1.5 -4.7 0  1.6 -4.7 0  1.7 -4.7 0  1.8 -4.7 0  1.9 -4.7 0  2 -4.7 0  2.1 -4.7 0  2.2 -4.7 0  2.3 -4.7 0  2.4 -4.7 0  2.5 -4.7 0  2.6 -4.7 0  2.7 -4.7 0  2.8 -4.7 0  2.9 -4.7 0  3 -4.7 0  3.1 -4.7 0  3.199999999999999 -4.7 0  3.300000000000001 -4.7 0  3.4 -4.7 0  3.5 -4.7 0  3.6 -4.7 0  3.699999999999999 -4.7 0  3.800000000000001 -4.7 0  3.9 -4.7 0  4 -4.7 0  4.1 -4.7 0  4.199999999999999 -4.7 0  4.300000000000001 -4.7 0  4.4 -4.7 0  4.5 -4.7 0  4.6 -4.7 0  4.699999999999999 -4.7 0  4.800000000000001 -4.7 0  4.9 -4.7 0  5 -4.7 0  -5 -4.6 0  -4.9 -4.6 0  -4.8 -4.6 0  -4.7 -4.6 0  -4.6 -4.6 0  -4.5 -4.6 0  -4.4 -4.6 0  -4.3 -4.6 0  -4.2 -4.6 0  -4.1 -4.6 0  -4 -4.6 0  -3.9 -4.6 0  -3.8 -4.6 0  -3.7 -4.6 0  -3.6 -4.6 0  -3.5 -4.6 0  -3.4 -4.6 0  -3.3 -4.6 0  -3.2 -4.6 0  -3.1 -4.6 0  -3 -4.6 0  -2.9 -4.6 0  -2.8 -4.6 0  -2.7 -4.6 0  -2.6 -4.6 0  -2.5 -4.6 0  -2.4 -4.6 0  -2.3 -4.6 0  -2.2 -4.6 0  -2.1 -4.6 0  -2 -4.6 0  -1.9 -4.6 0  -1.8 -4.6 0  -1.7 -4.6 0  -1.6 -4.6 0  -1.5 -4.6 0  -1.4 -4.6 0  -1.3 -4.6 0  -1.2 -4.6 0  -1.1 -4.6 0  -1 -4.6 0  -0.9000000000000004 -4.6 0  -0.7999999999999998 -4.6 0  -0.7000000000000002 -4.6 0  -0.5999999999999996 -4.6 0  -0.5 -4.6 0  -0.4000000000000004 -4.6 0  -0.2999999999999998 -4.6 0  -0.2000000000000002 -4.6 0  -0.09999999999999964 -4.6 0  0 -4.6 0  0.09999999999999964 -4.6 0  0.2000000000000002 -4.6 0  0.2999999999999998 -4.6 0  0.4000000000000004 -4.6 0  0.5 -4.6 0  0.5999999999999996 -4.6 0  0.7000000000000002 -4.6 0  0.7999999999999998 -4.6 0  0.9000000000000004 -4.6 0  1 -4.6 0  1.1 -4.6 0  1.2 -4.6 0  1.3 -4.6 0  1.4 -4.6 0  1.5 -4.6 0  1.6 -4.6 0  1.7 -4.6 0  1.8 -4.6 0  1.9 -4.6 0  2 -4.6 0  2.1 -4.6 0  2.2 -4.6 0  2.3 -4.6 0  2.4 -4.6 0  2.5 -4.6 0  2.6 -4.6 0  2.7 -4.6 0  2.8 -4.6 0  2.9 -4.6 0  3 -4.6 0  3.1 -4.6 0  3.199999999999999 -4.6 0  3.300000000000001 -4.6 0  3.4 -4.6 0  3.5 -4.6 0  3.6 -4.6 0  3.699999999999999 -4.6 0  3.800000000000001 -4.6 0  3.9 -4.6 0  4 -4.6 0  4.1 -4.6 0  4.199999999999999 -4.6 0  4.300000000000001 -4.6 0  4.4 -4.6 0  4.5 -4.6 0  4.6 -4.6 0  4.699999999999999 -4.6 0  4.800000000000001 -4.6 0  4.9 -4.6 0  5 -4.6 0  -5 -4.5 0  -4.9 -4.5 0  -4.8 -4.5 0  -4.7 -4.5 0  -4.6 -4.5 0  -4.5 -4.5 0  -4.4 -4.5 0  -4.3 -4.5 0  -4.2 -4.5 0  -4.1 -4.5 0  -4 -4.5 0  -3.9 -4.5 0  -3.8 -4.5 0  -3.7 -4.5 0  -3.6 -4.5 0  -3.5 -4.5 0  -3.4 -4.5 0  -3.3 -4.5 0  -3.2 -4.5 0  -3.1 -4.5 0  -3 -4.5 0  -2.9 -4.5 0  -2.8 -4.5 0  -2.7 -4.5 0  -2.6 -4.5 0  -2.5 -4.5 0  -2.4 -4.5 0  -2.3 -4.5 0  -2.2 -4.5 0  -2.1 -4.5 0  -2 -4.5 0  -1.9 -4.5 0  -1.8 -4.5 0  -1.7 -4.5 0  -1.6 -4.5 0  -1.5 -4.5 0  -1.4 -4.5 0  -1.3 -4.5 0  -1.2 -4.5 0  -1.1 -4.5 0  -1 -4.5 0  -0.9000000000000004 -4.5 0  -0.7999999999999998 -4.5 0  -0.7000000000000002 -4.5 0  -0.5999999999999996 -4.5 0  -0.5 -4.5 0  -0.4000000000000004 -4.5 0  -0.2999999999999998 -4.5 0  -0.2000000000000002 -4.5 0  -0.09999999999999964 -4.5 0  0 -4.5 0  0.09999999999999964 -4.5 0  0.2000000000000002 -4.5 0  0.2999999999999998 -4.5 0  0.4000000000000004 -4.5 0  0.5 -4.5 0  0.5999999999999996 -4.5 0  0.7000000000000002 -4.5 0  0.7999999999999998 -4.5 0  0.9000000000000004 -4.5 0  1 -4.5 0  1.1 -4.5 0  1.2 -4.5 0  1.3 -4.5 0  1.4 -4.5 0  1.5 -4.5 0  1.6 -4.5 0  1.7 -4.5 0  1.8 -4.5 0  1.9 -4.5 0  2 -4.5 0  2.1 -4.5 0  2.2 -4.5 0  2.3 -4.5 0  2.4 -4.5 0  2.5 -4.5 0  2.6 -4.5 0  2.7 -4.5 0  2.8 -4.5 0  2.9 -4.5 0  3 -4.5 0  3.1 -4.5 0  3.199999999999999 -4.5 0  3.300000000000001 -4.5 0  3.4 -4.5 0  3.5 -4.5 0  3.6 -4.5 0  3.699999999999999 -4.5 0  3.800000000000001 -4.5 0  3.9 -4.5 0  4 -4.5 0  4.1 -4.5 0  4.199999999999999 -4.5 0  4.300000000000001 -4.5 0  4.4 -4.5 0  4.5 -4.5 0  4.6 -4.5 0  4.699999999999999 -4.5 0  4.800000000000001 -4.5 0  4.9 -4.5 0  5 -4.5 0  -5 -4.4 0  -4.9 -4.4 0  -4.8 -4.4 0  -4.7 -4.4 0  -4.6 -4.4 0  -4.5 -4.4 0  -4.4 -4.4 0  -4.3 -4.4 0  -4.2 -4.4 0  -4.1 -4.4 0  -4 -4.4 0  -3.9 -4.4 0  -3.8 -4.4 0  -3.7 -4.4 0  -3.6 -4.4 0  -3.5 -4.4 0  -3.4 -4.4 0  -3.3 -4.4 0  -3.2 -4.4 0  -3.1 -4.4 0  -3 -4.4 0  -2.9 -4.4 0  -2.8 -4.4 0  -2.7 -4.4 0  -2.6 -4.4 0  -2.5 -4.4 0  -2.4 -4.4 0  -2.3 -4.4 0  -2.2 -4.4 0  -2.1 -4.4 0  -2 -4.4 0  -1.9 -4.4 0  -1.8 -4.
[...]
<PointData  Vectors="f_23"> 
<DataArray  type="Float64"  Name="f_23"  NumberOfComponents="3" format="ascii">1.5000000000000013e-01 0.0000000000000000e+00 0.0000000000000000e+00  1.5000000000000002e-01 1.7481692133880516e-32 0.0000000000000000e+00  1.5000000000000022e-01 7.3524051182061353e-32 0.0000000000000000e+00  1.4999999999999997e-01 4.2387940081133489e-32 0.0000000000000000e+00  1.5000000000000002e-01 1.8611218767673302e-32 0.0000000000000000e+00  1.5000000000000013e-01 4.6698349962159734e-33 0.0000000000000000e+00  1.5000000000000011e-01 1.4338824789037245e-32 0.0000000000000000e+00  1.4999999999999991e-01 1.0906548984805700e-32 0.0000000000000000e+00  1.4999999999999997e-01 5.1628559721016083e-33 0.0000000000000000e+00  1.5000000000000002e-01 1.3434453741017237e-34 0.0000000000000000e+00  1.5000000000000013e-01 1.0020872648587627e-32 0.0000000000000000e+00  1.5000000000000013e-01 6.2506909022139577e-33 0.0000000000000000e+00  1.5000000000000002e-01 2.3029821964858740e-32 0.0000000000000000e+00  1.5000000000000027e-01 1.0567947832894155e-33 0.0000000000000000e+00  1.5000000000000022e-01 1.2492276322865404e-31 0.0000000000000000e+00  1.4999999999999997e-01 2.7020884546099364e-32 0.0000000000000000e+00  1.5000000000000011e-01 4.8077476353808383e-33 0.0000000000000000e+00  1.4999999999999991e-01 1.7132841786530926e-32 0.0000000000000000e+00  1.5000000000000011e-01 1.2524502976860796e-31 0.0000000000000000e+00  1.5000000000000027e-01 3.0179801273460047e-32 0.0000000000000000e+00  1.4999999999999988e-01 8.1555834229792244e-35 0.0000000000000000e+00  1.5000000000000027e-01 1.4255424781203924e-32 0.0000000000000000e+00  1.5000000000000013e-01 9.2232027275419259e-32 0.0000000000000000e+00  1.5000000000000005e-01 7.1757881420421073e-32 0.0000000000000000e+00  1.5000000000000013e-01 2.4192767096954959e-32 0.0000000000000000e+00  1.4999999999999997e-01 6.6333039807320040e-33 0.0000000000000000e+00  1.5000000000000019e-01 2.4198453852680629e-33 0.0000000000000000e+00  1.5000000000000005e-01 1.0869050892605999e-32 0.0000000000000000e+00  1.4999999999999997e-01 8.1619382646472706e-35 0.0000000000000000e+00  1.5000000000000030e-01 1.8473020136810014e-33 0.0000000000000000e+00  1.5000000000000013e-01 1.8088068192765741e-32 0.0000000000000000e+00  1.5000000000000013e-01 2.0796087551689656e-33 0.0000000000000000e+00  1.5000000000000011e-01 4.5051716594298377e-32 0.0000000000000000e+00  1.5000000000000022e-01 1.3520828920069592e-32 0.0000000000000000e+00  1.5000000000000013e-01 2.9891522299150197e-32 0.0000000000000000e+00  1.5000000000000022e-01 9.1420919709562426e-33 0.0000000000000000e+00  1.5000000000000002e-01 6.6415170095120659e-34 0.0000000000000000e+00  1.5000000000000022e-01 3.3591294170088918e-32 0.0000000000000000e+00  1.5000000000000013e-01 7.4901649644520882e-32 0.0000000000000000e+00  1.5000000000000013e-01 4.7826110318247718e-33 0.0000000000000000e+00  1.4999999999999997e-01 9.6648756298382281e-32 0.0000000000000000e+00  1.5000000000000027e-01 1.1530970137908338e-32 0.0000000000000000e+00  1.4999999999999974e-01 1.5218551246826881e-32 0.0000000000000000e+00  1.5000000000000022e-01 1.8767276200430340e-32 0.0000000000000000e+00  1.4999999999999997e-01 3.2995039542884670e-32 0.0000000000000000e+00  1.5000000000000030e-01 2.2713547207538096e-33 0.0000000000000000e+00  1.5000000000000005e-01 1.4049597454661530e-32 0.0000000000000000e+00  1.5000000000000011e-01 7.9481756597127051e-33 0.0000000000000000e+00  1.4999999999999997e-01 1.0734564714408218e-33 0.0000000000000000e+00  1.5000000000000002e-01 7.4447891454595765e-35 0.0000000000000000e+00  1.5000000000000011e-01 2.9285308117881957e-34 0.0000000000000000e+00  1.4999999999999997e-01 5.7276251874945032e-34 0.0000000000000000e+00  1.5000000000000002e-01 1.3708440464659629e-32 0.0000000000000000e+00  1.5000000000000027e-01 6.5459899774003365e-32 0.0000000000000000e+00  1.5000000000000013e-01 4.2914280734245698e-33 0.0000000000000000e+00  1.5000000000000011e-01 6.3358153794074896e-33 0.0000000000000000e+00  1.5000000000000002e-01 1.9013553693355172e-32 0.0000000000000000e+00  1.5000000000000005e-01 1.2829621068752385e-32 0.0000000000000000e+00  1.4999999999999997e-01 1.4672761315721268e-31 0.0000000000000000e+00  1.5000000000000013e-01 1.4344700818129753e-31 0.0000000000000000e+00  1.5000000000000011e-01 5.6480507970138991e-32 0.0000000000000000e+00  1.5000000000000002e-01 5.5307570839058782e-33 0.0000000000000000e+00  1.5000000000000019e-01 1.2490577716631999e-33 0.0000000000000000e+00  1.5000000000000002e-01 1.8534672451376074e-32 0.0000000000000000e+00  1.5000000000000011e-01 3.0840514441547223e-32 0.0000000000000000e+00  1.5000000000000027e-01 3.4156596433905526e-34 0.0000000000000000e+00  1.5000000000000005e-01 7.5321189218034973e-32 0.0000000000000000e+00  1.5000000000000019e-01 1.3252040501629178e-31 0.0000000000000000e+00  1.4999999999999991e-01 4.6089951689440307e-32 0.0000000000000000e+00  1.5000000000000002e-01 1.0354939826286368e-32 0.0000000000000000e+00  1.5000000000000011e-01 7.1777652139388815e-33 0.0000000000000000e+00  1.4999999999999988e-01 2.5263854191522719e-32 0.0000000000000000e+00  1.5000000000000005e-01 3.2349361462686973e-32 0.0000000000000000e+00  1.5000000000000030e-01 6.4901891026661586e-32 0.0000000000000000e+00  1.4999999999999988e-01 4.3364369201337681e-33 0.0000000000000000e+00  1.5000000000000019e-01 6.8751911981261773e-35 0.0000000000000000e+00  1.5000000000000002e-01 2.3144758714358790e-33 0.0000000000000000e+00  1.5000000000000036e-01 5.9571048351825887e-32 0.0000000000000000e+00  1.5000000000000002e-01 1.9191731807333195e-31 0.0000000000000000e+00  1.5000000000000005e-01 2.7525108727976491e-32 0.0000000000000000e+00  1.5000000000000022e-01 8.3148546120093332e-34 0.0000000000000000e+00  1.4999999999999997e-01 4.8969552919045504e-34 0.0000000000000000e+00  1.5000000000000019e-01 6.7609862353374319e-33 0.0000000000000000e+00  1.4999999999999983e-01 1.9789278318977734e-32 0.0000000000000000e+00  1.4999999999999997e-01 1.2815730567187285e-34 0.0000000000000000e+00  1.4999999999999997e-01 1.2657947568087870e-33 0.0000000000000000e+00  1.5000000000000022e-01 7.5337954268974898e-33 0.0000000000000000e+00  1.5000000000000002e-01 1.7156482389020701e-33 0.0000000000000000e+00  1.5000000000000011e-01 6.1769282908655077e-32 0.0000000000000000e+00  1.4999999999999991e-01 1.8630998531886472e-32 0.0000000000000000e+00  1.5000000000000013e-01 1.2047066761475468e-33 0.0000000000000000e+00  1.5000000000000019e-01 2.2958137981424509e-33 0.0000000000000000e+00  1.4999999999999997e-01 8.9381872723772910e-33 0.0000000000000000e+00  1.5000000000000011e-01 6.5743625662384066e-33 0.0000000000000000e+00  1.5000000000000005e-01 3.9253997470563119e-33 0.0000000000000000e+00  1.5000000000000002e-01 4.2363939540647897e-33 0.0000000000000000e+00  1.5000000000000019e-01 1.0555847992089125e-32 0.0000000000000000e+00  1.5000000000000019e-01 4.8251867551553749e-33 0.0000000000000000e+00  1.5000000000000013e-01 4.1682545852608440e-32 0.0000000000000000e+00  1.5000000000000005e-01 7.7222761484656724e-36 0.0000000000000000e+00  1.5000000000000005e-01 0.0000000000000000e+00 0.0000000000000000e+00  1.5000000000000002e-01 0.0000000000000000e+00 1.0103505379063334e-33  1.5000000000000013e-01 1.7186329348587996e-36 4.3962463410035308e-34  1.5000000000000013e-01 3.8209319092569239e-32 8.0128865216252854e-33  1.5000000000000011e-01 8.8224049092062265e-33 4.8401216234971645e-33  1.5000000000000041e-01 3.5895828736996907e-32 3.0630864371798112e-32  1.5000000000000002e-01 6.5082042489345882e-33 1.2034898901544237e-32  1.5000000000000013e-01 7.4802084258889328e-32 6.6628012103852063e-32  1.5000000000000019e-01 8.4526267856675017e-32 9.1558747231415481e-33  1.5000000000000013e-01 1.7137494991659820e-32 4.1926142846163255e-33  1.5000000000000030e-01 1.0363601492719846e-32 1.6677576656357377e-32  1.5000000000000019e-01 1.2584997523748311e-32 2.2794218653214979e-32  1.5000000000000005e-01 1.6830188299846037e-32 7.8484409838472278e-33  1.5000000000000019e-01 1.0934367287283887e-31 1.1340604127240873e-31  1.5000000000000002e-01 1.1585018064136516e-33 7.6985499912566331e-32  1.5000000000000013e-01 6.1889426677309198e-32 4.0517870624205725e-32  1.5000000000000005e-01 2.0883773957844782e-33 9.5929825042029481e-33  1.5000000000000011e-01 6.4583236070975186e-32 3.5574135376324913e-32  1.5000000000000036e-01 7.3365765704953441e-35 4.9426560943942115e-33  1.5000000000000027e-01 1.4815935439888299e-32 8.0271494977594193e-32  1.4999999999999997e-01 9.0245122798784408e-32 2.9789378260996609e-34  1.5000000000000005e-01 2.3421459555196181e-31 2.3785131201797858e-32  1.5000000000000013e-01 2.4087998192608863e-32 1.0259643209554022e-31  1.5000000000000011e-01 2.8002338163035773e-33 5.9811821217901734e-32  1.5000000000000011e-01 2.7803326986010891e-33 1.3648366937900485e-33  1.5000000000000002e-01 1.8596403279662451e-35 3.8880028257788156e-34  1.5000000000000022e-01 4.3487920213814759e-33 3.5819373985258119e-33  1.5000000000000013e-01 1.8544583220964479e-33 7.4883925570653008e-33  1.5000000000000005e-01 3.2661041845965696e-35 9.9759454607332667e-33  1.5000000000000027e-01 8.0962322093627917e-32 1.9686126694807828e-34  1.5000000000000002e-01 4.1774497751725978e-32 6.5284221173028128e-32  1.5000000000000011e-01 1.0895156757125857e-32 1.7672260754305602e-33  1.5000000000000005e-01 2.3708232902846954e-32 6.6047391123760380e-33  1.5000000000000005e-01 4.2730330804330790e-32 5.6915264458748988e-32  1.5000000000000013e-01 1.4089774730674207e-33 3.6228146787430255e-32  1.5000000000000022e-01 2.4794055554671216e-33 2.2257467857143979e-32  1.5000000000000005e-01 2.8166494265571045e-33 1.2061788862197741e-33  1.5000000000000011e-01 4.4594029975526007e-32 3.8320406477403970e-32  1.5000000000000011e-01 6.8741166089584543e-34 6.9042603465636283e-34  1.5000000000000013e-01 8.8722003387766873e-33 4.7279972818660772e-32  1.5000000000000013e-01 9.5792090028165456e-32 2.7186638284356750e-33  1.5000000000000011e-01 9.3280444331655763e-32 1.6466658469361402e-32  1.5000000000000005e-01 5.8868858323987787e-32 5.1097439914935170e-32  1.5000000000000027e-01 1.6245465631018349e-31 1.2696515218808682e-32  1.5000000000000013e-01 1.1225766879086686e-32 8.6070114722903624e-33  1.5000000000000036e-01 7.4657068165913143e-34 5.3208165822685254e-34  1.4999999999999991e-01 2.8181392946757780e-33 7.1341265993780866e-33  1.5000000000000011e-01 1.5718404679462176e-31 9.4508591058352384e-33  1.5000000000000019e-01 1.6478436154366006e-31 1.0243968249358397e-32  1.5000000000000013e-01 1.8199699244509347e-32 1.3404207824158002e-32  1.5000000000000027e-01 1.4398728435825172e-33 1.6826795800942216e-33  1.5000000000000019e-01 5.2265289977901963e-33 2.8004502901743331e-33  1.5000000000000013e-01 4.8308440704101712e-32 2.9387681387020270e-32  1.5000000000000027e-01 2.2355975251139662e-31 2.7487317607413658e-34  1.5000000000000002e-01 7.7853050969141820e-32 2.3750534125883614e-31  1.5000000000000027e-01 7.6437857102995410e-33 1.3184187712622086e-34  1.5000000000000002e-01 6.3384348638227939e-33 3.3475794760820122e-33  1.5000000000000013e-01 1.7938867387831301e-32 6.9100520417236328e-33  1.5000000000000005e-01 3.6954150849271329e-32 7.1606808582199717e-34  1.5000000000000011e-01 1.8118717508661139e-34 1.6991161047424999e-32  1.5000000000000030e-01 1.2432232711301780e-33 7.2004839605603978e-33  1.5000000000000002e-01 7.2321161036314945e-32 5.8596216952203024e-33  1.5000000000000022e-01 1.1719044460135628e-32 1.1568717625388970e-31  1.5000000000000027e-01 1.0326313343900147e-32 7.6479786788323177e-33  1.5000000000000019e-01 3.5844118140384384e-32 1.8615373766899198e-32  1.5000000000000030e-01 1.4827345111781184e-32 2.2790251995322670e-33  1.5000000000000013e-01 1.9698845301318574e-32 5.2716824156479847e-32  1.5000000000000022e-01 4.0216504937637666e-33 2.2215001206138442e-32  1.5000000000000019e-01 1.3183681639986674e-32 3.1549145083831528e-32  1.5000000000000013e-01 2.0794115839922899e-32 4.4999521351771224e-33  1.5000000000000036e-01 9.5259248560800611e-34 1.5706238065298047e-32  1.5000000000000019e-01 2.1529611857163313e-32 1.2563502589890680e-32  1.5000000000000022e-01 5.1403654189938640e-33 2.3430315334705917e-32  1.5000000000000036e-01 1.1923828263048042e-31 3.7310333222534443e-35  1.5000000000000022e-01 1.0434670426268946e-31 5.1585859540538267e-32  1.5000000000000030e-01 3.5788819738570626e-34 3.6857009829108475e-35  1.4999999999999997e-01 4.5660930079721090e-32 1.9087940169406330e-32  1.5000000000000013e-01 4.6101769443799359e-32 8.4194874782909716e-34  1.5000000000000005e-01 1.4596378658722493e-32 7.8402174308971175e-32  1.5000000000000030e-01 9.4278636383160113e-33 5.2741378555356861e-32  1.5000000000000027e-01 8.4632794040583171e-36 1.3771838449979060e-32  1.5000000000000011e-01 2.2818844255696176e-33 7.8342851469833787e-37  1.5000000000000013e-01 7.6119850797707998e-34 9.1586325431633778e-32  1.5000000000000011e-01 1.3911662198683407e-32 2.1600406929773620e-32  1.5000000000000005e-01 3.6381886694366057e-32 4.0491779973092773e-32  1.5000000000000027e-01 1.5064358965454334e-32 1.1918162824839197e-32  1.5000000000000022e-01 3.7885657668757425e-35 2.6849242415810377e-34  1.5000000000000013e-01 1.3259069924609656e-32 4.5292747683211804e-32  1.5000000000000013e-01 2.9633654235787111e-33 2.3497442304560561e-32  1.5000000000000022e-01 5.3415082144581617e-33 1.4631013862334203e-32  1.5000000000000019e-01 5.7377337474762486e-39 2.4671015979002204e-33  1.5000000000000011e-01 8.7676007389311691e-33 4.1045375553494279e-32  1.5000000000000002e-01 1.0327981770083032e-33 7.3107726000140813e-33  1.5000000000000013e-01 1.4233800492864831e-35 2.8420501238617691e-33  1.5000000000000022e-01 4.4575419443873616e-32 3.8602454821840465e-32  1.5000000000000027e-01 5.3970199984724438e-34 1.8633791307143539e-32  1.5000000000000022e-01 4.0884236488969028e-32 8.4799647088650719e-33  1.5000000000000011e-01 5.9195247794212707e-35 1.2728955606057478e-32  1.5000000000000002e-01 1.6774942059139183e-32 1.0968507042721338e-33  1.5000000000000011e-01 7.5199239612465636e-33 6.3045109602887943e-32  1.5000000000000011e-01 1.2938419018467387e-32 7.3980251343411603e-34  1.5000000000000019e-01 0.0000000000000000e+00 3.4712566991683411e-32  1.5000000000000013e-01 0.0000000000000000e+00 3.1329674646837092e-34  1.5000000000000013e-01 1.2516709381376930e-32 1.5729929655317711e-32  1.4999999999999997e-01 1.1316796870453252e-32 4.1266086678905145e-32  1.4999999999999997e-01 4.1236775549478225e-33 9.1765069906374406e-33  1.5000000000000019e-01 1.8477286911929399e-32 4.2272114875887548e-33  1.5000000000000002e-01 1.5040481635085531e-33 1.1441099477403557e-31  1.5000000000000022e-01 2.9051704103482620e-32 3.3084201350547029e-32  1.4999999999999997e-01 6.1141799765894460e-33 1.8246908714621800e-35  1.5000000000000019e-01 1.5464946341751022e-35 8.7130331126641823e-33  1.4999999999999997e-01 1.9977526638160640e-32 6.4589019884585356e-32  1.5000000000000002e-01 2.6837678403819470e-32 4.1559127469147983e-32  1.5000000000000002e-01 1.4053937485023491e-32 1.5104666997752847e-32  1.5000000000000005e-01 1.2601630694815535e-31 9.5720144861287337e-32  1.5000000000000011e-01 1.0296508627411038e-32 1.5064992175630296e-31  1.5000000000000005e-01 2.8219728369903789e-33 1.9194819173712116e-31  1.5000000000000002e-01 6.9974948319027634e-33 7.7645818333709808e-34  1.5000000000000019e-01 1.5718528741028762e-32 9.3765910180369909e-33  1.4999999999999991e-01 4.3690519522576400e-34 1.6099379955859799e-32  1.4999999999999991e-01 2.1398562888448094e-33 4.4175022101447817e-32  1.5000000000000019e-01 1.2697641282798156e-32 3.8676188945642439e-32  1.5000000000000005e-01 2.9441245457174134e-33 2.1511221657592731e-32  1.5000000000000019e-01 1.9479284963845399e-32 1.6933302264489596e-31  1.4999999999999988e-01 4.5058070894935988e-32 6.3132608888693483e-33  1.5000000000000002e-01 1.1764096069778233e-31 1.8041715427860770e-35  1.5000000000000019e-01 2.5687699576130608e-32 2.3449519744297451e-33  1.5000000000000002e-01 2.2023604359762310e-32 1.3092209396308995e-34  1.5000000000000011e-01 8.2112014559173904e-33 8.2009054966113077e-36  1.5000000000000013e-01 9.6861889246958564e-33 1.8486625378890179e-32  1.5000000000000005e-01 1.4913695348023900e-32 1.4341021277749478e-32  1.5000000000000013e-01 3.1758511079600889e-32 1.0781260164686056e-31  1.5000000000000005e-01 4.2025769520136997e-32 1.3757681761168354e-33  1.5000000000000013e-01 6.2342690987755138e-33 2.8458232418660023e-33  1.4999999999999997e-01 9.8604225095866994e-33 8.7483562987659533e-32  1.5000000000000013e-01 4.8796171423895417e-32 8.8131546882107599e-36  1.5000000000000013e-01 3.7495900074584567e-33 6.5282312442736205e-33  1.5000000000000011e-01 1.3818271501258272e-35 1.3706050869428564e-32  1.5000000000000019e-01 2.1757370962467709e-32 1.4340058853370990e-32  1.4999999999999991e-01 3.4064567037373572e-33 4.4775715812083734e-32  1.4999999999999997e-01 1.3067420324904392e-32 2.0135014329389322e-31  1.4999999999999997e-01 1.3759772559213616e-32 2.2135077935243834e-33  1.5000000000000022e-01 6.9267126475509940e-34 4.5955348470814963e-35  1.5000000000000005e-01 4.3872814078509356e-34 1.5092848883353816e-35  1.4999999999999991e-01 1.3310382864381856e-32 2.8949305298420419e-33  1.5000000000000022e-01 1.3777945914502758e-33 6.6868679189597139e-35  1.4999999999999997e-01 3.6078383079368299e-32 1.0796240699029535e-33  1.5000000000000002e-01 6.1535325685088057e-32 2.2124367743536840e-31  1.5000000000000011e-01 8.2400063227514805e-37 1.4233342666739996e-32  1.5000000000000022e-01 7.7465840018181641e-34 4.4837733243975397e-33  1.5000000000000005e-01 4.2385279106329987e-35 4.1149179435229602e-36  1.5000000000000011e-01 2.0633563056321206e-32 1.9341493265252226e-32  1.5000000000000002e-01 2.0080684598288899e-33 4.9435934621070748e-32  1.5000000000000022e-01 3.8632837126645190e-32 3.2273502031736920e-33  1.5000000000000019e-01 1.2616713833623879e-32 2.0218544363577271e-33  1.5000000000000013e-01 2.5492838963600187e-32 1.6450409453340527e-31  1.5000000000000002e-01 4.8490038564069670e-32 4.0384828307931155e-33  1.5000000000000011e-01 1.2402712847549292e-32 1.9643620195503904e-35  1.5000000000000022e-01 1.3092950083469964e-33 1.0773912536839007e-32  1.4999999999999997e-01 4.5927072100050517e-33 3.3820332350041311e-35  1.5000000000000022e-01 1.6722395934249003e-32 4.8547561864340177e-33  1.5000000000000002e-01 1.2692480280825211e-32 1.2185709768327234e-32  1.5000000000000022e-01 2.2405952940717384e-32 1.8020404543463851e-33  1.5000000000000011e-01 1.7119048549367760e-33 9.1686043974810210e-32  1.4999999999999991e-01 8.2260974590683494e-32 6.6863919798517512e-32  1.5000000000000013e-01 2.8381510005760337e-32 5.7322413309639890e-36  1.5000000000000027e-01 2.6629317191721600e-32 9.1120762626065915e-33  1.5000000000000005e-01 4.6402117525289830e-32 1.0564413888529324e-31  1.5000000000000022e-01 4.8919165309974131e-33 4.3350021207879811e-33  1.4999999999999997e-01 1.4243032929762193e-32 1.4282172589896538e-33  1.5000000000000013e-01 1.6925476520887815e-32 3.3365501314506812e-34  1.5000000000000005e-01 3.0830725884156731e-32 5.7200375407065338e-32  1.4999999999999991e-01 7.8571712069062849e-33 2.1115847162207863e-31  1.5000000000000011e-01 1.9896064272954381e-32 3.7820646749569804e-32  1.5000000000000030e-01 2.9464430362613790e-32 1.3318590653765881e-32  1.5000000000000011e-01 1.0310767271043757e-32 4.5609600472827312e-32  1.5000000000000002e-01 1.6097582425651854e-32 1.0192053157389112e-32  1.5000000000000011e-01 2.0596232034941822e-32 4.0693689662383022e-32  1.5000000000000019e-01 1.1357634570068605e-33 2.1284681673128517e-33  1.4999999999999988e-01 2.9609108134024564e-32 5.5128813627670584e-32  1.5000000000000013e-01 5.1201640860705381e-32 7.4037454365768891e-33  1.5000000000000002e-01 1.0423023772118028e-32 3.2137732791995409e-33  1.5000000000000002e-01 8.1222958752175372e-37 5.6140303169021733e-33  1.5000000000000013e-01 7.5860363475826325e-32 7.5959937645245792e-32  1.5000000000