<?xml version="1.0"?>
<VTKFile type="UnstructuredGrid"  version="0.1"  >
<UnstructuredGrid>
<Piece  NumberOfPoints="10201" NumberOfCells="20000">
<Points>
<DataArray  type="Float64"  NumberOfComponents="3"  format="ascii">-5 -5 0  -4.9 -5 0  -4.8 -5 0  -4.7 -5 0  -4.6 -5 0  -4.5 -5 0  -4.4 -5 0  -4.3 -5 0  -4.2 -5 0  -4.1 -5 0  -4 -5 0  -3.9 -5 0  -3.8 -5 0  -3.7 -5 0  -3.6 -5 0  -3.5 -5 0  -3.4 -5 0  -3.3 -5 0  -3.2 -5 0  -3.1 -5 0  -3 -5 0  -2.9 -5 0  -2.8 -5 0  -2.7 -5 0  -2.6 -5 0  -2.5 -5 0  -2.4 -5 0  -2.3 -5 0  -2.2 -5 0  -2.1 -5 0  -2 -5 0  -1.9 -5 0  -1.8 -5 0  -1.7 -5 0  -1.6 -5 0  -1.5 -5 0  -1.4 -5 0  -1.3 -5 0  -1.2 -5 0  -1.1 -5 0  -1 -5 0  -0.9000000000000004 -5 0  -0.7999999999999998 -5 0  -0.7000000000000002 -5 0  -0.5999999999999996 -5 0  -0.5 -5 0  -0.4000000000000004 -5 0  -0.2999999999999998 -5 0  -0.2000000000000002 -5 0  -0.09999999999999964 -5 0  0 -5 0  0.09999999999999964 -5 0  0.2000000000000002 -5 0  0.2999999999999998 -5 0  0.4000000000000004 -5 0  0.5 -5 0  0.5999999999999996 -5 0  0.7000000000000002 -5 0  0.7999999999999998 -5 0  0.9000000000000004 -5 0  1 -5 0  1.1 -5 0  1.2 -5 0  1.3 -5 0  1.4 -5 0  1.5 -5 0  1.6 -5 0  1.7 -5 0  1.8 -5 0  1.9 -5 0  2 -5 0  2.1 -5 0  2.2 -5 0  2.3 -5 0  2.4 -5 0  2.5 -5 0  2.6 -5 0  2.7 -5 0  2.8 -5 0  2.9 -5 0  3 -5 0  3.1 -5 0  3.199999999999999 -5 0  3.300000000000001 -5 0  3.4 -5 0  3.5 -5 0  3.6 -5 0  3.699999999999999 -5 0  3.800000000000001 -5 0  3.9 -5 0  4 -5 0  4.1 -5 0  4.199999999999999 -5 0  4.300000000000001 -5 0  4.4 -5 0  4.5 -5 0  4.6 -5 0  4.699999999999999 -5 0  4.800000000000001 -5 0  4.9 -5 0  5 -5 0  -5 -4.9 0  -4.9 -4.9 0  -4.8 -4.9 0  -4.7 -4.9 0  -4.6 -4.9 0  -4.5 -4.9 0  -4.4 -4.9 0  -4.3 -4.9 0  -4.2 -4.9 0  -4.1 -4.9 0  -4 -4.9 0  -3.9 -4.9 0  -3.8 -4.9 0  -3.7 -4.9 0  -3.6 -4.9 0  -3.5 -4.9 0  -3.4 -4.9 0  -3.3 -4.9 0  -3.2 -4.9 0  -3.1 -4.9 0  -3 -4.9 0  -2.9 -4.9 0  -2.8 -4.9 0  -2.7 -4.9 0  -2.6 -4.9 0  -2.5 -4.9 0  -2.4 -4.9 0  -2.3 -4.9 0  -2.2 -4.9 0  -2.1 -4.9 0  -2 -4.9 0  -1.9 -4.9 0  -1.8 -4.9 0  -1.7 -4.9 0  -1.6 -4.9 0  -1.5 -4.9 0  -1.4 -4.9 0  -1.3 -4.9 0  -1.2 -4.9 0  -1.1 -4.9 0  -1 -4.9 0  -0.9000000000000004 -4.9 0  -0.7999999999999998 -4.9 0  -0.7000000000000002 -4.9 0  -0.5999999999999996 -4.9 0  -0.5 -4.9 0  -0.4000000000000004 -4.9 0  -0.2999999999999998 -4.9 0  -0.2000000000000002 -4.9 0  -0.09999999999999964 -4.9 0  0 -4.9 0  0.09999999999999964 -4.9 0  0.2000000000000002 -4.9 0  0.2999999999999998 -4.9 0  0.4000000000000004 -4.9 0  0.5 -4.9 0  0.5999999999999996 -4.9 0  0.7000000000000002 -4.9 0  0.7999999999999998 -4.9 0  0.9000000000000004 -4.9 0  1 -4.9 0  1.1 -4.9 0  1.2 -4.9 0  1.3 -4.9 0  1.4 -4.9 0  1.5 -4.9 0  1.6 -4.9 0  1.7 -4.9 0  1.8 -4.9 0  1.9 -4.9 0  2 -4.9 0  2.1 -4.9 0  2.2 -4.9 0  2.3 -4.9 0  2.4 -4.9 0  2.5 -4.9 0  2.6 -4.9 0  2.7 -4.9 0  2.8 -4.9 0  2.9 -4.9 0  3 -4.9 0  3.1 -4.9 0  3.199999999999999 -4.9 0  3.300000000000001 -4.9 0  3.4 -4.9 0  3.5 -4.9 0  3.6 -4.9 0  3.699999999999999 -4.9 0  3.800000000000001 -4.9 0  3.9 -4.9 0  4 -4.9 0  4.1 -4.9 0  4.199999999999999 -4.9 0  4.300000000000001 -4.9 0  4.4 -4.9 0  4.5 -4.9 0  4.6 -4.9 0  4.699999999999999 -4.9 0  4.800000000000001 -4.9 0  4.9 -4.9 0  5 -4.9 0  -5 -4.8 0  -4.9 -4.8 0  -4.8 -4.8 0  -4.7 -4.8 0  -4.6 -4.8 0  -4.5 -4.8 0  -4.4 -4.8 0  -4.3 -4.8 0  -4.2 -4.8 0  -4.1 -4.8 0  -4 -4.8 0  -3.9 -4.8 0  -3.8 -4.8 0  -3.7 -4.8 0  -3.6 -4.8 0  -3.5 -4.8 0  -3.4 -4.8 0  -3.3 -4.8 0  -3.2 -4.8 0  -3.1 -4.8 0  -3 -4.8 0  -2.9 -4.8 0  -2.8 -4.8 0  -2.7 -4.8 0  -2.6 -4.8 0  -2.5 -4.8 0  -2.4 -4.8 0  -2.3 -4.8 0  -2.2 -4.8 0  -2.1 -4.8 0  -2 -4.8 0  -1.9 -4.8 0  -1.8 -4.8 0  -1.7 -4.8 0  -1.6 -4.8 0  -1.5 -4.8 0  -1.4 -4.8 0  -1.3 -4.8 0  -1.2 -4.8 0  -1.1 -4.8 0  -1 -4.8 0  -0.9000000000000004 -4.8 0  -0.7999999999999998 -4.8 0  -0.7000000000000002 -4.8 0  -0.5999999999999996 -4.8 0  -0.5 -4.8 0  -0.4000000000000004 -4.8 0  -0.2999999999999998 -4.8 0  -0.2000000000000002 -4.8 0  -0.09999999999999964 -4.8 0  0 -4.8 0  0.09999999999999964 -4.8 0  0.2000000000000002 -4.8 0  0.2999999999999998 -4.8 0  0.4000000000000004 -4.8 0  0.5 -4.8 0  0.5999999999999996 -4.8 0  0.7000000000000002 -4.8 0  0.7999999999999998 -4.8 0  0.9000000000000004 -4.8 0  1 -4.8 0  1.1 -4.8 0  1.2 -4.8 0  1.3 -4.8 0  1.4 -4.8 0  1.5 -4.8 0  1.6 -4.8 0  1.7 -4.8 0  1.8 -4.8 0  1.9 -4.8 0  2 -4.8 0  2.1 -4.8 0  2.2 -4.8 0  2.3 -4.8 0  2.4 -4.8 0  2.5 -4.8 0  2.6 -4.8 0  2.7 -4.8 0  2.8 -4.8 0  2.9 -4.8 0  3 -4.8 0  3.1 -4.8 0  3.199999999999999 -4.8 0  3.300000000000001 -4.8 0  3.4 -4.8 0  3.5 -4.8 0  3.6 -4.8 0  3.699999999999999 -4.8 0  3.800000000000001 -4.8 0  3.9 -4.8 0  4 -4.8 0  4.1 -4.8 0  4.199999999999999 -4.8 0  4.300000000000001 -4.8 0  4.4 -4.8 0  4.5 -4.8 0  4.6 -4.8 0  4.699999999999999 -4.8 0  4.800000000000001 -4.8 0  4.9 -4.8 0  5 -4.8 0  -5 -4.7 0  -4.9 -4.7 0  -4.8 -4.7 0  -4.7 -4.7 0  -4.6 -4.7 0  -4.5 -4.7 0  -4.4 -4.7 0  -4.3 -4.7 0  -4.2 -4.7 0  -4.1 -4.7 0  -4 -4.7 0  -3.9 -4.7 0  -3.8 -4.7 0  -3.7 -4.7 0  -3.6 -4.7 0  -3.5 -4.7 0  -3.4 -4.7 0  -3.3 -4.7 0  -3.2 -4.7 0  -3.1 -4.7 0  -3 -4.7 0  -2.9 -4.7 0  -2.8 -4.7 0  -2.7 -4.7 0  -2.6 -4.7 0  -2.5 -4.7 0  -2.4 -4.7 0  -2.3 -4.7 0  -2.2 -4.7 0  -2.1 -4.7 0  -2 -4.7 0  -1.9 -4.7 0  -1.8 -4.7 0  -1.7 -4.7 0  -1.6 -4.7 0  -1.5 -4.7 0  -1.4 -4.7 0  -1.3 -4.7 0  -1.2 -4.7 0  -1.1 -4.7 0  -1 -4.7 0  -0.9000000000000004 -4.7 0  -0.7999999999999998 -4.7 0  -0.7000000000000002 -4.7 0  -0.5999999999999996 -4.7 0  -0.5 -4.7 0  -0.4000000000000004 -4.7 0  -0.2999999999999998 -4.7 0  -0.2000000000000002 -4.7 0  -0.09999999999999964 -4.7 0  0 -4.7 0  0.09999999999999964 -4.7 0  0.2000000000000002 -4.7 0  0.2999999999999998 -4.7 0  0.4000000000000004 -4.7 0  0.5 -4.7 0  0.5999999999999996 -4.7 0  0.7000000000000002 -4.7 0  0.7999999999999998 -4.7 0  0.9000000000000004 -4.7 0  1 -4.7 0  1.1 -4.7 0  1.2 -4.7 0  1.3 -4.7 0  1.4 -4.7 0  1.5 -4.7 0  1.6 -4.7 0  1.7 -4.7 0  1.8 -4.7 0  1.9 -4.7 0  2 -4.7 0  2.1 -4.7 0  2.2 -4.7 0  2.3 -4.7 0  2.4 -4.7 0  2.5 -4.7 0  2.6 -4.7 0  2.7 -4.7 0  2.8 -4.7 0  2.9 -4.7 0  3 -4.7 0  3.1 -4.7 0  3.199999999999999 -4.7 0  3.300000000000001 -4.7 0  3.4 -4.7 0  3.5 -4.7 0  3.6 -4.7 0  3.699999999999999 -4.7 0  3.800000000000001 -4.7 0  3.9 -4.7 0  4 -4.7 0  4.1 -4.7 0  4.199999999999999 -4.7 0  4.300000000000001 -4.7 0  4.4 -4.7 0  4.5 -4.7 0  4.6 -4.7 0  4.699999999999999 -4.7 0  4.800000000000001 -4.7 0  4.9 -4.7 0  5 -4.7 0  -5 -4.6 0  -4.9 -4.6 0  -4.8 -4.6 0  -4.7 -4.6 0  -4.6 -4.6 0  -4.5 -4.6 0  -4.4 -4.6 0  -4.3 -4.6 0  -4.2 -4.6 0  -4.1 -4.6 0  -4 -4.6 0  -3.9 -4.6 0  -3.8 -4.6 0  -3.7 -4.6 0  -3.6 -4.6 0  -3.5 -4.6 0  -3.4 -4.6 0  -3.3 -4.6 0  -3.2 -4.6 0  -3.1 -4.6 0  -3 -4.6 0  -2.9 -4.6 0  -2.8 -4.6 0  -2.7 -4.6 0  -2.6 -4.6 0  -2.5 -4.6 0  -2.4 -4.6 0  -2.3 -4.6 0  -2.2 -4.6 0  -2.1 -4.6 0  -2 -4.6 0  -1.9 -4.6 0  -1.8 -4.6 0  -1.7 -4.6 0  -1.6 -4.6 0  -1.5 -4.6 0  -1.4 -4.6 0  -1.3 -4.6 0  -1.2 -4.6 0  -1.1 -4.6 0  -1 -4.6 0  -0.9000000000000004 -4.6 0  -0.7999999999999998 -4.6 0  -0.7000000000000002 -4.6 0  -0.5999999999999996 -4.6 0  -0.5 -4.6 0  -0.4000000000000004 -4.6 0  -0.2999999999999998 -4.6 0  -0.2000000000000002 -4.6 0  -0.09999999999999964 -4.6 0  0 -4.6 0  0.09999999999999964 -4.6 0  0.2000000000000002 -4.6 0  0.2999999999999998 -4.6 0  0.4000000000000004 -4.6 0  0.5 -4.6 0  0.5999999999999996 -4.6 0  0.7000000000000002 -4.6 0  0.7999999999999998 -4.6 0  0.9000000000000004 -4.6 0  1 -4.6 0  1.1 -4.6 0  1.2 -4.6 0  1.3 -4.6 0  1.4 -4.6 0  1.5 -4.6 0  1.6 -4.6 0  1.7 -4.6 0  1.8 -4.6 0  1.9 -4.6 0  2 -4.6 0  2.1 -4.6 0  2.2 -4.6 0  2.3 -4.6 0  2.4 -4.6 0  2.5 -4.6 0  2.6 -4.6 0  2.7 -4.6 0  2.8 -4.6 0  2.9 -4.6 0  3 -4.6 0  3.1 -4.6 0  3.199999999999999 -4.6 0  3.300000000000001 -4.6 0  3.4 -4.6 0  3.5 -4.6 0  3.6 -4.6 0  3.699999999999999 -4.6 0  3.800000000000001 -4.6 0  3.9 -4.6 0  4 -4.6 0  4.1 -4.6 0  4.199999999999999 -4.6 0  4.300000000000001 -4.6 0  4.4 -4.6 0  4.5 -4.6 0  4.6 -4.6 0  4.699999999999999 -4.6 0  4.800000000000001 -4.6 0  4.9 -4.6 0  5 -4.6 0  -5 -4.5 0  -4.9 -4.5 0  -4.8 -4.5 0  -4.7 -4.5 0  -4.6 -4.5 0  -4.5 -4.5 0  -4.4 -4.5 0  -4.3 -4.5 0  -4.2 -4.5 0  -4.1 -4.5 0  -4 -4.5 0  -3.9 -4.5 0  -3.8 -4.5 0  -3.7 -4.5 0  -3.6 -4.5 0  -3.5 -4.5 0  -3.4 -4.5 0  -3.3 -4.5 0  -3.2 -4.5 0  -3.1 -4.5 0  -3 -4.5 0  -2.9 -4.5 0  -2.8 -4.5 0  -2.7 -4.5 0  -2.6 -4.5 0  -2.5 -4.5 0  -2.4 -4.5 0  -2.3 -4.5 0  -2.2 -4.5 0  -2.1 -4.5 0  -2 -4.5 0  -1.9 -4.5 0  -1.8 -4.5 0  -1.7 -4.5 0  -1.6 -4.5 0  -1.5 -4.5 0  -1.4 -4.5 0  -1.3 -4.5 0  -1.2 -4.5 0  -1.1 -4.5 0  -1 -4.5 0  -0.9000000000000004 -4.5 0  -0.7999999999999998 -4.5 0  -0.7000000000000002 -4.5 0  -0.5999999999999996 -4.5 0  -0.5 -4.5 0  -0.4000000000000004 -4.5 0  -0.2999999999999998 -4.5 0  -0.2000000000000002 -4.5 0  -0.09999999999999964 -4.5 0  0 -4.5 0  0.09999999999999964 -4.5 0  0.2000000000000002 -4.5 0  0.2999999999999998 -4.5 0  0.4000000000000004 -4.5 0  0.5 -4.5 0  0.5999999999999996 -4.5 0  0.7000000000000002 -4.5 0  0.7999999999999998 -4.5 0  0.9000000000000004 -4.5 0  1 -4.5 0  1.1 -4.5 0  1.2 -4.5 0  1.3 -4.5 0  1.4 -4.5 0  1.5 -4.5 0  1.6 -4.5 0  1.7 -4.5 0  1.8 -4.5 0  1.9 -4.5 0  2 -4.5 0  2.1 -4.5 0  2.2 -4.5 0  2.3 -4.5 0  2.4 -4.5 0  2.5 -4.5 0  2.6 -4.5 0  2.7 -4.5 0  2.8 -4.5 0  2.9 -4.5 0  3 -4.5 0  3.1 -4.5 0  3.199999999999999 -4.5 0  3.300000000000001 -4.5 0  3.4 -4.5 0  3.5 -4.5 0  3.6 -4.5 0  3.699999999999999 -4.5 0  3.800000000000001 -4.5 0  3.9 -4.5 0  4 -4.5 0  4.1 -4.5 0  4.199999999999999 -4.5 0  4.300000000000001 -4.5 0  4.4 -4.5 0  4.5 -4.5 0  4.6 -4.5 0  4.699999999999999 -4.5 0  4.800000000000001 -4.5 0  4.9 -4.5 0  5 -4.5 0  -5 -4.4 0  -4.9 -4.4 0  -4.8 -4.4 0  -4.7 -4.4 0  -4.6 -4.4 0  -4.5 -4.4 0  -4.4 -4.4 0  -4.3 -4.4 0  -4.2 -4.4 0  -4.1 -4.4 0  -4 -4.4 0  -3.9 -4.4 0  -3.8 -4.4 0  -3.7 -4.4 0  -3.6 -4.4 0  -3.5 -4.4 0  -3.4 -4.4 0  -3.3 -4.4 0  -3.2 -4.4 0  -3.1 -4.4 0  -3 -4.4 0  -2.9 -4.4 0  -2.8 -4.4 0  -2.7 -4.4 0  -2.6 -4.4 0  -2.5 -4.4 0  -2.4 -4.4 0  -2.3 -4.4 0  -2.2 -4.4 0  -2.1 -4.4 0  -2 -4.4 0  -1.9 -4.4 0  -1.8 -4.
[...]
<PointData  Vectors="f_23"> 
<DataArray  type="Float64"  Name="f_23"  NumberOfComponents="3" format="ascii">1.5000000000000058e-01 0.0000000000000000e+00 0.0000000000000000e+00  1.5000000000000019e-01 1.6265596478784560e-32 0.0000000000000000e+00  1.4999999999999925e-01 2.0825830904191129e-31 0.0000000000000000e+00  1.5000000000000005e-01 2.5953568563839616e-31 0.0000000000000000e+00  1.5000000000000044e-01 7.5326552204488572e-31 0.0000000000000000e+00  1.5000000000000155e-01 8.2847402231459627e-29 0.0000000000000000e+00  1.5000000000004521e-01 1.9870160800349974e-27 0.0000000000000000e+00  1.5000000000026101e-01 3.1206207834634938e-26 0.0000000000000000e+00  1.5000000000100086e-01 3.4858325409035170e-25 0.0000000000000000e+00  1.5000000000320673e-01 2.2415379194821644e-24 0.0000000000000000e+00  1.5000000000866340e-01 9.1491846455393664e-24 0.0000000000000000e+00  1.5000000001984495e-01 2.9923163109257563e-23 0.0000000000000000e+00  1.5000000004071148e-01 1.0888042526607977e-22 0.0000000000000000e+00  1.5000000008076814e-01 6.3547715268456928e-22 0.0000000000000000e+00  1.5000000016571832e-01 5.0767219596147901e-21 0.0000000000000000e+00  1.5000000035584646e-01 3.2932466581337689e-20 0.0000000000000000e+00  1.5000000074084432e-01 1.2442533597756474e-19 0.0000000000000000e+00  1.5000000132022090e-01 2.0002930829599644e-19 0.0000000000000000e+00  1.5000000172045516e-01 1.9075649486144258e-20 0.0000000000000000e+00  1.5000000097975041e-01 8.1751364125350210e-19 0.0000000000000000e+00  1.4999999795429900e-01 6.2937758651559045e-18 0.0000000000000000e+00  1.4999999265503633e-01 1.3007835205523318e-17 0.0000000000000000e+00  1.4999998758569819e-01 7.5764239980550093e-18 0.0000000000000000e+00  1.4999998692084368e-01 1.2429457025863073e-19 0.0000000000000000e+00  1.4999999271812098e-01 1.5168481241040153e-17 0.0000000000000000e+00  1.5000000169362004e-01 2.7270288022048186e-17 0.0000000000000000e+00  1.5000000757077930e-01 1.1634857214989220e-17 0.0000000000000000e+00  1.5000000740995176e-01 9.8875964050678278e-21 0.0000000000000000e+00  1.5000000366832181e-01 5.4358483921323033e-18 0.0000000000000000e+00  1.4999999969645686e-01 7.4338012769762737e-18 0.0000000000000000e+00  1.4999999685217738e-01 1.8076829967669031e-18 0.0000000000000000e+00  1.4999999667302505e-01 4.8017140261599004e-19 0.0000000000000000e+00  1.5000000018946391e-01 3.0897123696901612e-18 0.0000000000000000e+00  1.5000000361580959e-01 7.2485035761262102e-19 0.0000000000000000e+00  1.5000000182471215e-01 8.4171955514391029e-19 0.0000000000000000e+00  1.4999999742370090e-01 1.5957930365137921e-18 0.0000000000000000e+00  1.4999999760711327e-01 2.2196253152800156e-20 0.0000000000000000e+00  1.5000000160193183e-01 1.1808143111918739e-18 0.0000000000000000e+00  1.5000000215128614e-01 5.1250149048231191e-20 0.0000000000000000e+00  1.4999999898038685e-01 6.2069311382180783e-19 0.0000000000000000e+00  1.4999999837491662e-01 9.8213907742312677e-20 0.0000000000000000e+00  1.5000000073911335e-01 2.9842884132115482e-19 0.0000000000000000e+00  1.5000000108502815e-01 6.8240836192077941e-20 0.0000000000000000e+00  1.4999999940122105e-01 1.4791159317738994e-19 0.0000000000000000e+00  1.4999999936561889e-01 2.7658172403476102e-20 0.0000000000000000e+00  1.5000000049050172e-01 7.6101568939295365e-20 0.0000000000000000e+00  1.5000000030137456e-01 5.7423469171210442e-21 0.0000000000000000e+00  1.4999999962725774e-01 3.7488077151423448e-20 0.0000000000000000e+00  1.4999999991445520e-01 8.0656784675754995e-23 0.0000000000000000e+00  1.5000000024738022e-01 1.5598479778674633e-20 0.0000000000000000e+00  1.4999999997180383e-01 8.2776481751542284e-22 0.0000000000000000e+00  1.4999999986623402e-01 4.6157394810553150e-21 0.0000000000000000e+00  1.5000000006554362e-01 1.6315812078255142e-21 0.0000000000000000e+00  1.5000000004981454e-01 6.6653998117806546e-22 0.0000000000000000e+00  1.4999999994253244e-01 1.1601420027660730e-21 0.0000000000000000e+00  1.4999999999779659e-01 4.9984185592235645e-25 0.0000000000000000e+00  1.5000000003250785e-01 3.9943682215030134e-22 0.0000000000000000e+00  1.4999999998539859e-01 8.1791862350909903e-23 0.0000000000000000e+00  1.4999999998991290e-01 4.6483929312207114e-23 0.0000000000000000e+00  1.5000000001313124e-01 7.4330167788779233e-23 0.0000000000000000e+00  1.4999999999813179e-01 8.0036435976524187e-25 0.0000000000000000e+00  1.4999999999415287e-01 1.8051337485542189e-23 0.0000000000000000e+00  1.5000000000442804e-01 8.9231968970496248e-24 0.0000000000000000e+00  1.5000000000033947e-01 2.3916970363190595e-25 0.0000000000000000e+00  1.4999999999749816e-01 3.6902339088015559e-24 0.0000000000000000e+00  1.5000000000144972e-01 9.7805143213807894e-25 0.0000000000000000e+00  1.5000000000031097e-01 1.2957157772993812e-25 0.0000000000000000e+00  1.4999999999904828e-01 5.9887635426088741e-25 0.0000000000000000e+00  1.5000000000051578e-01 1.3103263222630590e-25 0.0000000000000000e+00  1.5000000000010638e-01 1.9964153151331856e-26 0.0000000000000000e+00  1.4999999999966140e-01 8.7624002124772105e-26 0.0000000000000000e+00  1.5000000000020611e-01 2.4145023307818520e-26 0.0000000000000000e+00  1.5000000000000818e-01 8.9154137083758664e-28 0.0000000000000000e+00  1.4999999999989136e-01 1.1056923104620334e-26 0.0000000000000000e+00  1.5000000000008618e-01 5.2496854582619299e-27 0.0000000000000000e+00  1.4999999999998195e-01 6.7986612346224453e-29 0.0000000000000000e+00  1.4999999999997360e-01 8.9959300115414875e-28 0.0000000000000000e+00  1.5000000000003316e-01 9.5738522461627084e-28 0.0000000000000000e+00  1.4999999999998354e-01 1.8832524650342047e-28 0.0000000000000000e+00  1.4999999999999980e-01 7.6040976876004968e-30 0.0000000000000000e+00  1.5000000000000852e-01 9.7986865085194547e-29 0.0000000000000000e+00  1.4999999999999206e-01 8.1430367570742822e-29 0.0000000000000000e+00  1.5000000000000396e-01 1.4437378391007734e-29 0.0000000000000000e+00  1.5000000000000027e-01 3.8557275779950130e-31 0.0000000000000000e+00  1.4999999999999811e-01 4.4091593066299164e-30 0.0000000000000000e+00  1.5000000000000216e-01 5.0158265892785712e-30 0.0000000000000000e+00  1.4999999999999877e-01 5.0576286598838836e-31 0.0000000000000000e+00  1.5000000000000066e-01 2.0521216081110725e-32 0.0000000000000000e+00  1.5000000000000036e-01 5.8625006098058652e-34 0.0000000000000000e+00  1.4999999999999974e-01 8.3324825872786131e-32 0.0000000000000000e+00  1.5000000000000027e-01 1.8191976372940032e-31 0.0000000000000000e+00  1.4999999999999974e-01 1.3686091672953717e-31 0.0000000000000000e+00  1.4999999999999997e-01 2.2012526115950491e-32 0.0000000000000000e+00  1.4999999999999980e-01 3.5437303794252216e-32 0.0000000000000000e+00  1.4999999999999997e-01 1.3053880781314273e-32 0.0000000000000000e+00  1.5000000000000036e-01 2.0387932589422714e-32 0.0000000000000000e+00  1.4999999999999955e-01 2.3912113154109917e-31 0.0000000000000000e+00  1.5000000000000041e-01 8.3739864140003365e-33 0.0000000000000000e+00  1.4999999999999991e-01 4.8209099449018481e-33 0.0000000000000000e+00  1.5000000000000036e-01 2.4954669184717725e-32 0.0000000000000000e+00  1.5000000000000022e-01 0.0000000000000000e+00 0.0000000000000000e+00  1.5000000000000030e-01 0.0000000000000000e+00 3.9627802974719045e-33  1.4999999999999991e-01 2.8680118474698368e-31 4.4909788893118687e-32  1.5000000000000052e-01 1.0405565101277467e-31 4.3547801438560118e-34  1.5000000000000138e-01 4.2840093456882361e-32 9.5226934929168363e-31  1.5000000000000005e-01 3.6759568149498454e-30 1.0111335434435222e-31  1.5000000000000013e-01 6.7971839838096980e-30 2.8064492734954555e-31  1.4999999999998048e-01 9.3320320457715535e-28 2.9668998391339920e-28  1.4999999999983149e-01 1.5640702733136483e-26 2.2416743500642117e-26  1.4999999999926125e-01 2.1028023780273978e-25 4.5822639107369337e-25  1.4999999999746197e-01 1.7970006764850161e-24 5.6657642293296548e-24  1.4999999999259558e-01 9.0518253130041461e-24 4.8895445746560283e-23  1.4999999998178290e-01 3.2179739258300298e-23 2.9725040661117889e-22  1.4999999996108071e-01 1.0420712504329854e-22 1.3449994366046707e-21  1.4999999992299273e-01 4.3733392590339612e-22 5.0311065935266557e-21  1.4999999984869983e-01 2.8931681586543273e-21 1.7761300411258083e-20  1.4999999969136249e-01 2.0621081049446295e-20 6.6637589961483405e-20  1.4999999936305808e-01 9.9868356891384790e-20 2.6080253688065833e-19  1.4999999879983228e-01 2.4193115335907515e-19 8.6118879512109917e-19  1.4999999820764495e-01 1.4289184975473180e-19 1.7247106780603529e-18  1.4999999839137088e-01 2.0950134045722481e-19 9.7819636954870976e-19  1.5000000066175800e-01 4.5396492821792190e-18 1.0974110396388856e-18  1.5000000573888156e-01 1.4596476217931028e-17 2.6423213142475969e-17  1.5000001201910262e-01 1.4874289231580672e-17 9.3114671207460844e-17  1.5000001522807765e-01 1.3438908831659848e-18 1.2248280823432242e-16  1.5000001149031422e-01 9.4441760799130368e-18 4.7404867606447118e-17  1.5000000198453697e-01 3.3684714502075940e-17 9.1644361041239327e-19  1.4999999323122670e-01 2.4906815564585788e-17 4.7211483952175021e-17  1.4999999080958684e-01 2.5068515380139874e-18 5.2058758562326678e-17  1.4999999399149783e-01 3.1142845845093903e-18 1.3914205542821862e-17  1.4999999860456148e-01 1.0263697527186406e-17 1.0931580160916635e-21  1.5000000241928046e-01 5.7598533883868331e-18 6.5017340735718792e-18  1.5000000420302539e-01 1.2361050843712095e-20 1.1009705366680281e-17  1.5000000182055015e-01 3.4332754480816623e-18 6.2327136703019413e-19  1.4999999693869587e-01 2.6267199566248763e-18 9.4044718574881106e-18  1.4999999624057703e-01 1.7920776544756561e-19 7.6831020042372379e-18  1.5000000118378878e-01 2.5254506175975764e-18 2.8416620452315114e-18  1.5000000378880221e-01 2.0369054607073010e-19 9.7173063705924535e-18  1.4999999994217345e-01 1.1274311113858948e-18 4.4726213363101982e-19  1.4999999690535165e-01 5.1064586405757918e-19 7.1994245933948311e-18  1.4999999969816144e-01 3.6302965507944080e-19 5.1835745177700977e-20  1.5000000230563770e-01 4.4099379326191375e-19 4.1737237204330441e-18  1.5000000023106178e-01 1.1065786498307875e-19 2.5512425108456215e-20  1.4999999837078892e-01 2.6376892503557052e-19 2.0684118132270257e-18  1.4999999997710459e-01 4.3337696437981526e-20 5.4551950765935769e-20  1.5000000108761133e-01 1.2863895300267483e-19 8.7203496135595385e-19  1.4999999984288850e-01 2.5483025108255131e-20 9.2622075714957194e-20  1.4999999933760397e-01 5.1772463740610239e-20 2.8913102095208334e-19  1.5000000024659407e-01 1.8847449405890232e-20 9.8643424270237133e-20  1.5000000034318475e-01 1.5511907114355525e-20 6.2139940974361821e-20  1.4999999975407072e-01 1.3345222300876005e-20 6.8687722133693301e-20  1.4999999987313706e-01 2.4766930288397551e-21 4.2361299445308052e-21  1.5000000018660867e-01 7.5046287567762021e-21 3.0995684935373167e-20  1.5000000000512809e-01 8.0679457587565276e-24 7.6709467261389888e-22  1.4999999989183879e-01 2.8845125680979461e-21 8.0048318470131713e-21  1.5000000004184769e-01 3.5540335065317506e-22 2.8377461481014162e-21  1.5000000004184705e-01 5.8093734591001622e-22 6.8551650916372239e-22  1.4999999995772015e-01 4.6772931794243937e-22 1.7337095637577178e-21  1.4999999999758748e-01 1.5338467114575951e-23 3.7474489267725256e-23  1.5000000002405531e-01 2.0533183051542472e-22 3.7651615074748665e-22  1.4999999998864824e-01 2.6578989549163556e-23 1.8639333197818968e-22  1.4999999999342040e-01 2.7955620433091775e-23 7.5691524744257460e-24  1.5000000000972152e-01 3.4209664044158047e-23 7.7481285712866355e-23  1.4999999999773578e-01 2.4440819989882101e-25 1.4507363221239814e-23  1.4999999999631514e-01 8.4751127584841178e-24 5.0233769220983823e-24  1.5000000000348437e-01 4.4079416782425392e-24 1.1574332636374456e-23  1.4999999999964123e-01 4.4529238753740342e-26 1.1647275418227310e-24  1.4999999999845592e-01 1.6142579250526847e-24 1.0290412602958531e-24  1.5000000000124256e-01 5.8866447657245848e-25 1.5794674310767998e-24  1.4999999999990624e-01 1.6458091739629073e-26 1.4764358100708001e-25  1.4999999999944061e-01 2.5001390956170480e-25 1.2434591919337390e-25  1.5000000000046401e-01 9.5936293098828723e-26 2.1180006963041953e-25  1.4999999999992597e-01 4.6775734396242677e-28 3.2105733592586806e-26  1.4999999999982630e-01 3.2234376089116946e-26 7.6626072069886494e-27  1.5000000000017677e-01 1.8341710526351958e-26 2.5782091570529048e-26  1.4999999999994093e-01 4.3110902382741621e-28 8.1648319479757022e-27  1.4999999999996302e-01 2.7151117722786327e-27 4.4647359497782012e-30  1.5000000000006175e-01 3.2446588481316513e-27 2.1763699878072245e-27  1.4999999999996341e-01 6.2236947127995173e-28 1.6441539233385081e-27  1.5000000000000327e-01 3.4291286818986550e-29 2.0571542730504631e-28  1.5000000000001532e-01 3.2447269232753647e-28 3.7802869228045619e-29  1.4999999999998428e-01 2.2494408719491009e-28 1.6548928389586995e-28  1.5000000000000857e-01 3.1252116326946325e-29 9.8406257819451483e-29  1.4999999999999980e-01 1.5702185717158786e-30 1.5142450680854623e-29  1.4999999999999691e-01 1.5832597201281602e-29 7.0618273634399741e-31  1.5000000000000396e-01 1.6301382748116129e-29 8.2453642146404590e-30  1.4999999999999786e-01 4.6246195602104257e-30 6.9341764354776099e-30  1.5000000000000083e-01 7.3978811699485535e-31 2.5830713908522542e-30  1.5000000000000002e-01 9.0898601735771299e-32 2.8315864317889555e-34  1.4999999999999958e-01 2.6691809985767078e-31 3.0504211055911215e-32  1.5000000000000083e-01 4.4595749268017508e-31 3.9738817666512603e-31  1.4999999999999949e-01 1.8320503464621413e-31 1.8214844878453839e-31  1.5000000000000013e-01 1.2649619934634468e-31 4.4031479692260679e-32  1.5000000000000013e-01 3.1038365617821748e-34 6.9255676371552226e-32  1.5000000000000044e-01 2.1023344543729226e-32 7.3227782887841020e-34  1.5000000000000044e-01 1.5466723888571568e-32 6.8826743230083729e-32  1.5000000000000013e-01 1.2986075714442466e-31 5.1181766294933419e-35  1.5000000000000044e-01 2.6879315848285268e-34 1.2529474918259000e-34  1.5000000000000022e-01 2.3210999163558088e-32 3.4830309150720836e-32  1.5000000000000002e-01 1.1409122877362385e-32 4.2292100694780294e-32  1.5000000000000013e-01 2.5193002865745636e-32 5.3740010008614285e-34  1.5000000000000005e-01 0.0000000000000000e+00 1.9312546910241087e-35  1.4999999999999972e-01 0.0000000000000000e+00 7.4531963884152592e-32  1.5000000000000066e-01 2.1980237437831128e-32 3.9016352905791050e-32  1.5000000000000074e-01 2.1724416863807303e-31 2.3418081005078952e-31  1.4999999999999833e-01 8.6484351947673857e-31 1.5428841889366563e-30  1.4999999999999925e-01 6.7566410982247694e-31 1.2860058456125739e-30  1.5000000000000169e-01 9.8402303366195292e-30 5.3232651912769091e-32  1.5000000000000671e-01 4.6224800273508037e-28 3.0398045835940196e-29  1.5000000000011640e-01 1.2891882615860820e-26 1.6732647190674005e-26  1.5000000000065497e-01 1.9012067326321148e-25 5.9099760880833975e-25  1.5000000000248220e-01 2.1595839900854094e-24 9.2767647949275117e-24  1.5000000000788852e-01 1.4727341362028660e-23 9.8836719815903722e-23  1.5000000002130245e-01 6.3897702617256023e-23 7.4101572669167385e-22  1.5000000004885050e-01 2.1311840325656913e-22 3.9485985621171230e-21  1.5000000009892622e-01 6.7627593126330383e-22 1.6006517485883082e-20  1.5000000018715218e-01 2.7997743311513039e-21 5.4514271077046501e-20  1.5000000034970848e-01 1.6737279950018994e-20 1.7666878486623889e-19  1.5000000066825209e-01 9.5073572893790083e-20 6.0955557564066830e-19  1.5000000125794727e-01 3.2977609916157973e-19 2.1305605745330756e-18  1.5000000206777123e-01 4.4776038318389680e-19 5.8035766589443386e-18  1.5000000242733413e-01 5.6978814049313451e-22 7.9260331524753176e-18  1.5000000077081160e-01 3.4552569629227592e-18 5.6301678861172917e-19  1.4999999545352563e-01 2.0304366332363859e-17 3.3267204569156301e-17  1.4999998699034175e-01 3.4999382804815591e-17 2.5371453945569244e-16  1.4999997991227379e-01 1.4127753296886313e-17 5.7284877887268508e-16  1.4999998074812684e-01 3.4981366797841673e-18 4.7824001229787742e-16  1.4999999155218119e-01 5.3308402883625858e-17 6.2178600293233822e-17  1.5000000562078211e-01 6.9259082177817763e-17 8.1969678610134961e-17  1.5000001300210830e-01 2.0098798994152241e-17 2.8339496742503011e-16  1.5000001088480563e-01 6.6152298370670060e-19 1.6752049495755883e-16  1.5000000461184559e-01 1.7259274693589855e-17 2.1723999680227488e-17  1.4999999881725193e-01 1.9095080612109818e-17 5.7256837656740462e-18  1.4999999461574631e-01 3.3225075842514067e-18 5.0659738057352211e-17  1.4999999494012503e-01 3.0110373765250870e-18 3.6202612105994022e-17  1.5000000151128273e-01 9.7649833279507920e-18 6.5091587137269211e-18  1.5000000657131257e-01 6.8363920052854370e-19 7.0831327490598791e-17  1.5000000185007406e-01 4.6350923239939253e-18 3.3186119474782069e-18  1.4999999452392188e-01 3.2903670764988539e-18 5.2172162976933918e-17  1.4999999685856910e-01 8.8908409393420939e-19 1.3179552616631861e-17  1.5000000400248073e-01 3.1118915164494785e-18 2.8802390266366664e-17  1.5000000302528743e-01 4.2998541940884585e-20 1.2945826799054881e-17  1.4999999711322792e-01 1.9002843935523614e-18 1.5154426120132530e-17  1.4999999771328915e-01 7.4418792803109077e-21 7.4174239326169877e-18  1.5000000215288650e-01 9.8885724510699573e-19 8.3349250700871656e-18  1.5000000142764083e-01 1.5829996318656187e-20 2.7846143654608069e-18  1.4999999836963895e-01 4.9069454659682769e-19 4.6464772086415340e-18  1.4999999930719465e-01 3.7531204467772357e-21 5.8376027743557076e-19  1.5000000118819384e-01 2.3476677316192911e-19 2.3731037964398415e-18  1.5000000017491946e-01 4.6390709628219477e-22 1.8484478756898411e-20  1.4999999921586687e-01 1.0087315277010425e-19 9.8287067507549885e-19  1.5000000011528250e-01 6.6291393560298294e-21 4.0643297372596705e-20  1.5000000043555811e-01 3.3794248709064589e-20 2.8169675725698897e-19  1.4999999978408260e-01 1.0834871638003632e-20 9.0680374684567752e-20  1.4999999982474127e-01 6.6344286576429220e-21 3.8960692091248570e-20  1.5000000019280327e-01 8.5990588380351771e-21 6.2940477101320199e-20  1.5000000001953298e-01 1.9511871030492925e-22 4.0951180490413749e-23  1.4999999988305468e-01 3.7643759211632378e-21 2.0558929666696457e-20  1.5000000004327102e-01 3.5112968703389739e-22 4.0416013685838605e-21  1.5000000004335870e-01 7.3844060239605151e-22 2.2507370311695642e-21  1.4999999995437938e-01 5.8878155038918767e-22 3.4702250585428132e-21  1.5000000000072669e-01 8.9956784522431753e-24 3.5768547095016399e-23  1.5000000002406438e-01 2.3755778213051422e-22 7.9213458716718345e-22  1.4999999998584318e-01 4.9694410851560823e-23 3.7786350421588736e-22  1.4999999999567740e-01 1.9741863144989203e-23 1.0089294353919213e-23  1.5000000001008537e-01 4.3923553230823963e-23 1.4719011509106879e-22  1.4999999999586378e-01 3.1267893293429954e-24 3.7327743789872505e-23  1.4999999999747263e-01 6.0302267669069288e-24 5.0026404001163670e-24  1.5000000000383895e-01 6.9039616269491957e-24 2.1707653120309579e-23  1.4999999999863434e-01 2.6808011185963593e-25 4.4821508716120596e-24  1.4999999999901215e-01 1.0718203277060754e-24 7.1672365386115292e-25  1.5000000000142069e-01 1.0946200586819338e-24 2.8844507353082660e-24  1.4999999999943001e-01 6.3081621803594964e-26 7.4452148327840730e-25  1.4999999999972327e-01 1.2662973452134510e-25 3.2496006593145133e-26  1.5000000000050784e-01 1.7675958585146596e-25 3.3215072394053403e-25  1.4999999999972508e-01 2.6478443476515166e-26 1.4665772083062716e-25  1.4999999999997560e-01 6.6410863120281761e-27 1.2520118126841159e-27  1.5000000000015912e-01 2.4481651523192488e-26 2.5301026939924155e-26  1.4999999999987196e-01 9.7278406204214159e-27 2.5076903986123915e-26  1.5000000000003721e-01 9.4965427552985326e-29 4.1587882324560653e-27  1.5000000000003003e-01 1.7436535128595030e-27 3.0673969160427012e-28  1.4999999999995384e-01 2.1477706263925661e-27 2.3366973760182572e-27  1.5000000000003105e-01 6.2195286897042917e-28 1.4751143905197618e-27  1.4999999999999222e-01 4.9481170893743634e-30 2.2900950614411043e-28  1.4999999999