<?xml version="1.0"?>
<VTKFile type="UnstructuredGrid"  version="0.1"  >
<UnstructuredGrid>
<Piece  NumberOfPoints="10201" NumberOfCells="20000">
<Points>
<DataArray  type="Float64"  NumberOfComponents="3"  format="ascii">-5 -5 0  -4.9 -5 0  -4.8 -5 0  -4.7 -5 0  -4.6 -5 0  -4.5 -5 0  -4.4 -5 0  -4.3 -5 0  -4.2 -5 0  -4.1 -5 0  -4 -5 0  -3.9 -5 0  -3.8 -5 0  -3.7 -5 0  -3.6 -5 0  -3.5 -5 0  -3.4 -5 0  -3.3 -5 0  -3.2 -5 0  -3.1 -5 0  -3 -5 0  -2.9 -5 0  -2.8 -5 0  -2.7 -5 0  -2.6 -5 0  -2.5 -5 0  -2.4 -5 0  -2.3 -5 0  -2.2 -5 0  -2.1 -5 0  -2 -5 0  -1.9 -5 0  -1.8 -5 0  -1.7 -5 0  -1.6 -5 0  -1.5 -5 0  -1.4 -5 0  -1.3 -5 0  -1.2 -5 0  -1.1 -5 0  -1 -5 0  -0.9000000000000004 -5 0  -0.7999999999999998 -5 0  -0.7000000000000002 -5 0  -0.5999999999999996 -5 0  -0.5 -5 0  -0.4000000000000004 -5 0  -0.2999999999999998 -5 0  -0.2000000000000002 -5 0  -0.09999999999999964 -5 0  0 -5 0  0.09999999999999964 -5 0  0.2000000000000002 -5 0  0.2999999999999998 -5 0  0.4000000000000004 -5 0  0.5 -5 0  0.5999999999999996 -5 0  0.7000000000000002 -5 0  0.7999999999999998 -5 0  0.9000000000000004 -5 0  1 -5 0  1.1 -5 0  1.2 -5 0  1.3 -5 0  1.4 -5 0  1.5 -5 0  1.6 -5 0  1.7 -5 0  1.8 -5 0  1.9 -5 0  2 -5 0  2.1 -5 0  2.2 -5 0  2.3 -5 0  2.4 -5 0  2.5 -5 0  2.6 -5 0  2.7 -5 0  2.8 -5 0  2.9 -5 0  3 -5 0  3.1 -5 0  3.199999999999999 -5 0  3.300000000000001 -5 0  3.4 -5 0  3.5 -5 0  3.6 -5 0  3.699999999999999 -5 0  3.800000000000001 -5 0  3.9 -5 0  4 -5 0  4.1 -5 0  4.199999999999999 -5 0  4.300000000000001 -5 0  4.4 -5 0  4.5 -5 0  4.6 -5 0  4.699999999999999 -5 0  4.800000000000001 -5 0  4.9 -5 0  5 -5 0  -5 -4.9 0  -4.9 -4.9 0  -4.8 -4.9 0  -4.7 -4.9 0  -4.6 -4.9 0  -4.5 -4.9 0  -4.4 -4.9 0  -4.3 -4.9 0  -4.2 -4.9 0  -4.1 -4.9 0  -4 -4.9 0  -3.9 -4.9 0  -3.8 -4.9 0  -3.7 -4.9 0  -3.6 -4.9 0  -3.5 -4.9 0  -3.4 -4.9 0  -3.3 -4.9 0  -3.2 -4.9 0  -3.1 -4.9 0  -3 -4.9 0  -2.9 -4.9 0  -2.8 -4.9 0  -2.7 -4.9 0  -2.6 -4.9 0  -2.5 -4.9 0  -2.4 -4.9 0  -2.3 -4.9 0  -2.2 -4.9 0  -2.1 -4.9 0  -2 -4.9 0  -1.9 -4.9 0  -1.8 -4.9 0  -1.7 -4.9 0  -1.6 -4.9 0  -1.5 -4.9 0  -1.4 -4.9 0  -1.3 -4.9 0  -1.2 -4.9 0  -1.1 -4.9 0  -1 -4.9 0  -0.9000000000000004 -4.9 0  -0.7999999999999998 -4.9 0  -0.7000000000000002 -4.9 0  -0.5999999999999996 -4.9 0  -0.5 -4.9 0  -0.4000000000000004 -4.9 0  -0.2999999999999998 -4.9 0  -0.2000000000000002 -4.9 0  -0.09999999999999964 -4.9 0  0 -4.9 0  0.09999999999999964 -4.9 0  0.2000000000000002 -4.9 0  0.2999999999999998 -4.9 0  0.4000000000000004 -4.9 0  0.5 -4.9 0  0.5999999999999996 -4.9 0  0.7000000000000002 -4.9 0  0.7999999999999998 -4.9 0  0.9000000000000004 -4.9 0  1 -4.9 0  1.1 -4.9 0  1.2 -4.9 0  1.3 -4.9 0  1.4 -4.9 0  1.5 -4.9 0  1.6 -4.9 0  1.7 -4.9 0  1.8 -4.9 0  1.9 -4.9 0  2 -4.9 0  2.1 -4.9 0  2.2 -4.9 0  2.3 -4.9 0  2.4 -4.9 0  2.5 -4.9 0  2.6 -4.9 0  2.7 -4.9 0  2.8 -4.9 0  2.9 -4.9 0  3 -4.9 0  3.1 -4.9 0  3.199999999999999 -4.9 0  3.300000000000001 -4.9 0  3.4 -4.9 0  3.5 -4.9 0  3.6 -4.9 0  3.699999999999999 -4.9 0  3.800000000000001 -4.9 0  3.9 -4.9 0  4 -4.9 0  4.1 -4.9 0  4.199999999999999 -4.9 0  4.300000000000001 -4.9 0  4.4 -4.9 0  4.5 -4.9 0  4.6 -4.9 0  4.699999999999999 -4.9 0  4.800000000000001 -4.9 0  4.9 -4.9 0  5 -4.9 0  -5 -4.8 0  -4.9 -4.8 0  -4.8 -4.8 0  -4.7 -4.8 0  -4.6 -4.8 0  -4.5 -4.8 0  -4.4 -4.8 0  -4.3 -4.8 0  -4.2 -4.8 0  -4.1 -4.8 0  -4 -4.8 0  -3.9 -4.8 0  -3.8 -4.8 0  -3.7 -4.8 0  -3.6 -4.8 0  -3.5 -4.8 0  -3.4 -4.8 0  -3.3 -4.8 0  -3.2 -4.8 0  -3.1 -4.8 0  -3 -4.8 0  -2.9 -4.8 0  -2.8 -4.8 0  -2.7 -4.8 0  -2.6 -4.8 0  -2.5 -4.8 0  -2.4 -4.8 0  -2.3 -4.8 0  -2.2 -4.8 0  -2.1 -4.8 0  -2 -4.8 0  -1.9 -4.8 0  -1.8 -4.8 0  -1.7 -4.8 0  -1.6 -4.8 0  -1.5 -4.8 0  -1.4 -4.8 0  -1.3 -4.8 0  -1.2 -4.8 0  -1.1 -4.8 0  -1 -4.8 0  -0.9000000000000004 -4.8 0  -0.7999999999999998 -4.8 0  -0.7000000000000002 -4.8 0  -0.5999999999999996 -4.8 0  -0.5 -4.8 0  -0.4000000000000004 -4.8 0  -0.2999999999999998 -4.8 0  -0.2000000000000002 -4.8 0  -0.09999999999999964 -4.8 0  0 -4.8 0  0.09999999999999964 -4.8 0  0.2000000000000002 -4.8 0  0.2999999999999998 -4.8 0  0.4000000000000004 -4.8 0  0.5 -4.8 0  0.5999999999999996 -4.8 0  0.7000000000000002 -4.8 0  0.7999999999999998 -4.8 0  0.9000000000000004 -4.8 0  1 -4.8 0  1.1 -4.8 0  1.2 -4.8 0  1.3 -4.8 0  1.4 -4.8 0  1.5 -4.8 0  1.6 -4.8 0  1.7 -4.8 0  1.8 -4.8 0  1.9 -4.8 0  2 -4.8 0  2.1 -4.8 0  2.2 -4.8 0  2.3 -4.8 0  2.4 -4.8 0  2.5 -4.8 0  2.6 -4.8 0  2.7 -4.8 0  2.8 -4.8 0  2.9 -4.8 0  3 -4.8 0  3.1 -4.8 0  3.199999999999999 -4.8 0  3.300000000000001 -4.8 0  3.4 -4.8 0  3.5 -4.8 0  3.6 -4.8 0  3.699999999999999 -4.8 0  3.800000000000001 -4.8 0  3.9 -4.8 0  4 -4.8 0  4.1 -4.8 0  4.199999999999999 -4.8 0  4.300000000000001 -4.8 0  4.4 -4.8 0  4.5 -4.8 0  4.6 -4.8 0  4.699999999999999 -4.8 0  4.800000000000001 -4.8 0  4.9 -4.8 0  5 -4.8 0  -5 -4.7 0  -4.9 -4.7 0  -4.8 -4.7 0  -4.7 -4.7 0  -4.6 -4.7 0  -4.5 -4.7 0  -4.4 -4.7 0  -4.3 -4.7 0  -4.2 -4.7 0  -4.1 -4.7 0  -4 -4.7 0  -3.9 -4.7 0  -3.8 -4.7 0  -3.7 -4.7 0  -3.6 -4.7 0  -3.5 -4.7 0  -3.4 -4.7 0  -3.3 -4.7 0  -3.2 -4.7 0  -3.1 -4.7 0  -3 -4.7 0  -2.9 -4.7 0  -2.8 -4.7 0  -2.7 -4.7 0  -2.6 -4.7 0  -2.5 -4.7 0  -2.4 -4.7 0  -2.3 -4.7 0  -2.2 -4.7 0  -2.1 -4.7 0  -2 -4.7 0  -1.9 -4.7 0  -1.8 -4.7 0  -1.7 -4.7 0  -1.6 -4.7 0  -1.5 -4.7 0  -1.4 -4.7 0  -1.3 -4.7 0  -1.2 -4.7 0  -1.1 -4.7 0  -1 -4.7 0  -0.9000000000000004 -4.7 0  -0.7999999999999998 -4.7 0  -0.7000000000000002 -4.7 0  -0.5999999999999996 -4.7 0  -0.5 -4.7 0  -0.4000000000000004 -4.7 0  -0.2999999999999998 -4.7 0  -0.2000000000000002 -4.7 0  -0.09999999999999964 -4.7 0  0 -4.7 0  0.09999999999999964 -4.7 0  0.2000000000000002 -4.7 0  0.2999999999999998 -4.7 0  0.4000000000000004 -4.7 0  0.5 -4.7 0  0.5999999999999996 -4.7 0  0.7000000000000002 -4.7 0  0.7999999999999998 -4.7 0  0.9000000000000004 -4.7 0  1 -4.7 0  1.1 -4.7 0  1.2 -4.7 0  1.3 -4.7 0  1.4 -4.7 0  1.5 -4.7 0  1.6 -4.7 0  1.7 -4.7 0  1.8 -4.7 0  1.9 -4.7 0  2 -4.7 0  2.1 -4.7 0  2.2 -4.7 0  2.3 -4.7 0  2.4 -4.7 0  2.5 -4.7 0  2.6 -4.7 0  2.7 -4.7 0  2.8 -4.7 0  2.9 -4.7 0  3 -4.7 0  3.1 -4.7 0  3.199999999999999 -4.7 0  3.300000000000001 -4.7 0  3.4 -4.7 0  3.5 -4.7 0  3.6 -4.7 0  3.699999999999999 -4.7 0  3.800000000000001 -4.7 0  3.9 -4.7 0  4 -4.7 0  4.1 -4.7 0  4.199999999999999 -4.7 0  4.300000000000001 -4.7 0  4.4 -4.7 0  4.5 -4.7 0  4.6 -4.7 0  4.699999999999999 -4.7 0  4.800000000000001 -4.7 0  4.9 -4.7 0  5 -4.7 0  -5 -4.6 0  -4.9 -4.6 0  -4.8 -4.6 0  -4.7 -4.6 0  -4.6 -4.6 0  -4.5 -4.6 0  -4.4 -4.6 0  -4.3 -4.6 0  -4.2 -4.6 0  -4.1 -4.6 0  -4 -4.6 0  -3.9 -4.6 0  -3.8 -4.6 0  -3.7 -4.6 0  -3.6 -4.6 0  -3.5 -4.6 0  -3.4 -4.6 0  -3.3 -4.6 0  -3.2 -4.6 0  -3.1 -4.6 0  -3 -4.6 0  -2.9 -4.6 0  -2.8 -4.6 0  -2.7 -4.6 0  -2.6 -4.6 0  -2.5 -4.6 0  -2.4 -4.6 0  -2.3 -4.6 0  -2.2 -4.6 0  -2.1 -4.6 0  -2 -4.6 0  -1.9 -4.6 0  -1.8 -4.6 0  -1.7 -4.6 0  -1.6 -4.6 0  -1.5 -4.6 0  -1.4 -4.6 0  -1.3 -4.6 0  -1.2 -4.6 0  -1.1 -4.6 0  -1 -4.6 0  -0.9000000000000004 -4.6 0  -0.7999999999999998 -4.6 0  -0.7000000000000002 -4.6 0  -0.5999999999999996 -4.6 0  -0.5 -4.6 0  -0.4000000000000004 -4.6 0  -0.2999999999999998 -4.6 0  -0.2000000000000002 -4.6 0  -0.09999999999999964 -4.6 0  0 -4.6 0  0.09999999999999964 -4.6 0  0.2000000000000002 -4.6 0  0.2999999999999998 -4.6 0  0.4000000000000004 -4.6 0  0.5 -4.6 0  0.5999999999999996 -4.6 0  0.7000000000000002 -4.6 0  0.7999999999999998 -4.6 0  0.9000000000000004 -4.6 0  1 -4.6 0  1.1 -4.6 0  1.2 -4.6 0  1.3 -4.6 0  1.4 -4.6 0  1.5 -4.6 0  1.6 -4.6 0  1.7 -4.6 0  1.8 -4.6 0  1.9 -4.6 0  2 -4.6 0  2.1 -4.6 0  2.2 -4.6 0  2.3 -4.6 0  2.4 -4.6 0  2.5 -4.6 0  2.6 -4.6 0  2.7 -4.6 0  2.8 -4.6 0  2.9 -4.6 0  3 -4.6 0  3.1 -4.6 0  3.199999999999999 -4.6 0  3.300000000000001 -4.6 0  3.4 -4.6 0  3.5 -4.6 0  3.6 -4.6 0  3.699999999999999 -4.6 0  3.800000000000001 -4.6 0  3.9 -4.6 0  4 -4.6 0  4.1 -4.6 0  4.199999999999999 -4.6 0  4.300000000000001 -4.6 0  4.4 -4.6 0  4.5 -4.6 0  4.6 -4.6 0  4.699999999999999 -4.6 0  4.800000000000001 -4.6 0  4.9 -4.6 0  5 -4.6 0  -5 -4.5 0  -4.9 -4.5 0  -4.8 -4.5 0  -4.7 -4.5 0  -4.6 -4.5 0  -4.5 -4.5 0  -4.4 -4.5 0  -4.3 -4.5 0  -4.2 -4.5 0  -4.1 -4.5 0  -4 -4.5 0  -3.9 -4.5 0  -3.8 -4.5 0  -3.7 -4.5 0  -3.6 -4.5 0  -3.5 -4.5 0  -3.4 -4.5 0  -3.3 -4.5 0  -3.2 -4.5 0  -3.1 -4.5 0  -3 -4.5 0  -2.9 -4.5 0  -2.8 -4.5 0  -2.7 -4.5 0  -2.6 -4.5 0  -2.5 -4.5 0  -2.4 -4.5 0  -2.3 -4.5 0  -2.2 -4.5 0  -2.1 -4.5 0  -2 -4.5 0  -1.9 -4.5 0  -1.8 -4.5 0  -1.7 -4.5 0  -1.6 -4.5 0  -1.5 -4.5 0  -1.4 -4.5 0  -1.3 -4.5 0  -1.2 -4.5 0  -1.1 -4.5 0  -1 -4.5 0  -0.9000000000000004 -4.5 0  -0.7999999999999998 -4.5 0  -0.7000000000000002 -4.5 0  -0.5999999999999996 -4.5 0  -0.5 -4.5 0  -0.4000000000000004 -4.5 0  -0.2999999999999998 -4.5 0  -0.2000000000000002 -4.5 0  -0.09999999999999964 -4.5 0  0 -4.5 0  0.09999999999999964 -4.5 0  0.2000000000000002 -4.5 0  0.2999999999999998 -4.5 0  0.4000000000000004 -4.5 0  0.5 -4.5 0  0.5999999999999996 -4.5 0  0.7000000000000002 -4.5 0  0.7999999999999998 -4.5 0  0.9000000000000004 -4.5 0  1 -4.5 0  1.1 -4.5 0  1.2 -4.5 0  1.3 -4.5 0  1.4 -4.5 0  1.5 -4.5 0  1.6 -4.5 0  1.7 -4.5 0  1.8 -4.5 0  1.9 -4.5 0  2 -4.5 0  2.1 -4.5 0  2.2 -4.5 0  2.3 -4.5 0  2.4 -4.5 0  2.5 -4.5 0  2.6 -4.5 0  2.7 -4.5 0  2.8 -4.5 0  2.9 -4.5 0  3 -4.5 0  3.1 -4.5 0  3.199999999999999 -4.5 0  3.300000000000001 -4.5 0  3.4 -4.5 0  3.5 -4.5 0  3.6 -4.5 0  3.699999999999999 -4.5 0  3.800000000000001 -4.5 0  3.9 -4.5 0  4 -4.5 0  4.1 -4.5 0  4.199999999999999 -4.5 0  4.300000000000001 -4.5 0  4.4 -4.5 0  4.5 -4.5 0  4.6 -4.5 0  4.699999999999999 -4.5 0  4.800000000000001 -4.5 0  4.9 -4.5 0  5 -4.5 0  -5 -4.4 0  -4.9 -4.4 0  -4.8 -4.4 0  -4.7 -4.4 0  -4.6 -4.4 0  -4.5 -4.4 0  -4.4 -4.4 0  -4.3 -4.4 0  -4.2 -4.4 0  -4.1 -4.4 0  -4 -4.4 0  -3.9 -4.4 0  -3.8 -4.4 0  -3.7 -4.4 0  -3.6 -4.4 0  -3.5 -4.4 0  -3.4 -4.4 0  -3.3 -4.4 0  -3.2 -4.4 0  -3.1 -4.4 0  -3 -4.4 0  -2.9 -4.4 0  -2.8 -4.4 0  -2.7 -4.4 0  -2.6 -4.4 0  -2.5 -4.4 0  -2.4 -4.4 0  -2.3 -4.4 0  -2.2 -4.4 0  -2.1 -4.4 0  -2 -4.4 0  -1.9 -4.4 0  -1.8 -4.
[...]
<PointData  Vectors="f_23"> 
<DataArray  type="Float64"  Name="f_23"  NumberOfComponents="3" format="ascii">1.4999999999999997e-01 0.0000000000000000e+00 0.0000000000000000e+00  1.5000000000000022e-01 3.0420916862156292e-33 0.0000000000000000e+00  1.5000000000000013e-01 1.5554915857939755e-34 0.0000000000000000e+00  1.5000000000000030e-01 4.2581255621256193e-32 0.0000000000000000e+00  1.5000000000000027e-01 7.0427020397371325e-32 0.0000000000000000e+00  1.5000000000000013e-01 6.6196309118827734e-34 0.0000000000000000e+00  1.5000000000000066e-01 2.0509345068623064e-31 0.0000000000000000e+00  1.5000000000000041e-01 1.2735984508231517e-31 0.0000000000000000e+00  1.5000000000000002e-01 3.4200056017380124e-34 0.0000000000000000e+00  1.5000000000000099e-01 9.1284533755663800e-33 0.0000000000000000e+00  1.5000000000000052e-01 3.9504496991112452e-32 0.0000000000000000e+00  1.4999999999999841e-01 1.7912870719738740e-29 0.0000000000000000e+00  1.4999999999998226e-01 2.9089573535063754e-28 0.0000000000000000e+00  1.4999999999992419e-01 1.9658684500757871e-27 0.0000000000000000e+00  1.4999999999982355e-01 1.3003392557067546e-27 0.0000000000000000e+00  1.4999999999987657e-01 4.7283725992305188e-26 0.0000000000000000e+00  1.5000000000095060e-01 1.3173033157057104e-24 0.0000000000000000e+00  1.5000000000497324e-01 9.8045978578176035e-24 0.0000000000000000e+00  1.5000000001409775e-01 3.1669915189707565e-23 0.0000000000000000e+00  1.5000000002730551e-01 3.7885832200295627e-23 0.0000000000000000e+00  1.5000000003549951e-01 5.5590897621338202e-25 0.0000000000000000e+00  1.5000000002126668e-01 1.5348018740393378e-22 0.0000000000000000e+00  1.4999999997134336e-01 7.7241355184609712e-22 0.0000000000000000e+00  1.4999999989823848e-01 1.0832544066203789e-21 0.0000000000000000e+00  1.4999999984652887e-01 3.1877508732449357e-22 0.0000000000000000e+00  1.4999999986132731e-01 1.5085216417690419e-22 0.0000000000000000e+00  1.4999999994071420e-01 1.3853644487669754e-21 0.0000000000000000e+00  1.5000000002938024e-01 1.4524014868178017e-21 0.0000000000000000e+00  1.5000000006963013e-01 2.4639298779076120e-22 0.0000000000000000e+00  1.5000000005112979e-01 1.0071042309266592e-22 0.0000000000000000e+00  1.5000000000615080e-01 3.7622040239370439e-22 0.0000000000000000e+00  1.4999999997311667e-01 1.1105703314063893e-22 0.0000000000000000e+00  1.4999999997276767e-01 8.9201589176476222e-24 0.0000000000000000e+00  1.4999999999850297e-01 7.0670595790726688e-23 0.0000000000000000e+00  1.5000000001924216e-01 1.8057150342097380e-23 0.0000000000000000e+00  1.5000000001142053e-01 5.6295548904986436e-24 0.0000000000000000e+00  1.4999999999091279e-01 1.8594057532880694e-23 0.0000000000000000e+00  1.4999999998899327e-01 6.1875386334394497e-25 0.0000000000000000e+00  1.5000000000347993e-01 7.0946932203042006e-24 0.0000000000000000e+00  1.5000000000780550e-01 2.4194190540813139e-24 0.0000000000000000e+00  1.4999999999862032e-01 2.0040617196775486e-24 0.0000000000000000e+00  1.4999999999514133e-01 1.7891849271705918e-24 0.0000000000000000e+00  1.5000000000084682e-01 6.1264117606520030e-25 0.0000000000000000e+00  1.5000000000278030e-01 8.1789222178233793e-25 0.0000000000000000e+00  1.4999999999925162e-01 2.5381462613992542e-25 0.0000000000000000e+00  1.4999999999855690e-01 2.7245333173879248e-25 0.0000000000000000e+00  1.5000000000066155e-01 1.3244871237188462e-25 0.0000000000000000e+00  1.5000000000063429e-01 6.1125241857406341e-26 0.0000000000000000e+00  1.4999999999949554e-01 6.7569713418708270e-26 0.0000000000000000e+00  1.4999999999981012e-01 5.8010518389758941e-27 0.0000000000000000e+00  1.5000000000031699e-01 2.7317853742229851e-26 0.0000000000000000e+00  1.4999999999999034e-01 1.0922758923998423e-28 0.0000000000000000e+00  1.4999999999984517e-01 7.3414305937854138e-27 0.0000000000000000e+00  1.5000000000006580e-01 1.3948355302117303e-27 0.0000000000000000e+00  1.5000000000004959e-01 9.1195881614248869e-28 0.0000000000000000e+00  1.4999999999994643e-01 1.0647238660677006e-27 0.0000000000000000e+00  1.5000000000000135e-01 2.3091244586160838e-31 0.0000000000000000e+00  1.5000000000002509e-01 2.8943876312513178e-28 0.0000000000000000e+00  1.4999999999998656e-01 6.8406827233525650e-29 0.0000000000000000e+00  1.4999999999999572e-01 1.4826438033260159e-29 0.0000000000000000e+00  1.5000000000000913e-01 3.5430202762414267e-29 0.0000000000000000e+00  1.4999999999999752e-01 1.8431173625947293e-30 0.0000000000000000e+00  1.4999999999999777e-01 5.6276854067423000e-30 0.0000000000000000e+00  1.5000000000000230e-01 4.8104844764133204e-30 0.0000000000000000e+00  1.5000000000000019e-01 1.9805017398600479e-32 0.0000000000000000e+00  1.4999999999999911e-01 2.5959342074242650e-31 0.0000000000000000e+00  1.5000000000000088e-01 3.0811174513764889e-31 0.0000000000000000e+00  1.4999999999999991e-01 3.2770001433553687e-33 0.0000000000000000e+00  1.4999999999999974e-01 2.7551641322664320e-31 0.0000000000000000e+00  1.5000000000000044e-01 5.5128716739331553e-33 0.0000000000000000e+00  1.4999999999999988e-01 3.1637082098848109e-33 0.0000000000000000e+00  1.5000000000000044e-01 4.0296544599443049e-31 0.0000000000000000e+00  1.5000000000000058e-01 1.2429271610674865e-31 0.0000000000000000e+00  1.5000000000000019e-01 1.0721604060869704e-31 0.0000000000000000e+00  1.5000000000000011e-01 4.9195297977665609e-32 0.0000000000000000e+00  1.4999999999999983e-01 7.2864475738137303e-32 0.0000000000000000e+00  1.5000000000000027e-01 6.0608672110914075e-32 0.0000000000000000e+00  1.4999999999999988e-01 6.0561501749464223e-32 0.0000000000000000e+00  1.5000000000000019e-01 6.8178992538951804e-37 0.0000000000000000e+00  1.5000000000000036e-01 2.8397508418945878e-31 0.0000000000000000e+00  1.4999999999999988e-01 2.9137390642054220e-31 0.0000000000000000e+00  1.5000000000000011e-01 1.0305858117260115e-33 0.0000000000000000e+00  1.5000000000000030e-01 1.8369883730981770e-32 0.0000000000000000e+00  1.4999999999999974e-01 1.0714979630674201e-32 0.0000000000000000e+00  1.5000000000000019e-01 3.8409363517453569e-32 0.0000000000000000e+00  1.4999999999999997e-01 1.1213418872709787e-31 0.0000000000000000e+00  1.5000000000000030e-01 2.0524354553954531e-32 0.0000000000000000e+00  1.4999999999999988e-01 1.8377597103802877e-31 0.0000000000000000e+00  1.5000000000000011e-01 1.2416024058802762e-33 0.0000000000000000e+00  1.5000000000000005e-01 6.0646836445429564e-32 0.0000000000000000e+00  1.5000000000000002e-01 3.7702540142309426e-32 0.0000000000000000e+00  1.5000000000000052e-01 3.5233447064248983e-32 0.0000000000000000e+00  1.5000000000000019e-01 1.3995566599113201e-33 0.0000000000000000e+00  1.5000000000000027e-01 3.9076684800532631e-32 0.0000000000000000e+00  1.5000000000000019e-01 1.8441198115165437e-31 0.0000000000000000e+00  1.5000000000000061e-01 2.1847077548498006e-34 0.0000000000000000e+00  1.5000000000000019e-01 2.5051278258832790e-31 0.0000000000000000e+00  1.5000000000000041e-01 3.6220465149313335e-31 0.0000000000000000e+00  1.4999999999999991e-01 4.4137029034439098e-31 0.0000000000000000e+00  1.5000000000000022e-01 1.1664898742631365e-31 0.0000000000000000e+00  1.5000000000000041e-01 0.0000000000000000e+00 0.0000000000000000e+00  1.5000000000000022e-01 0.0000000000000000e+00 7.2576219974473266e-33  1.5000000000000019e-01 7.0918996613455858e-32 7.7304411188709377e-34  1.5000000000000044e-01 5.2557376678466417e-32 1.9748821563675228e-32  1.5000000000000022e-01 5.7845344895326550e-33 3.1774380406612948e-32  1.5000000000000013e-01 3.5600577077596479e-35 3.7528382225300049e-32  1.5000000000000061e-01 3.8942449538067317e-32 4.2366927107947030e-32  1.5000000000000027e-01 5.5354632604699183e-33 6.4327902985027062e-32  1.5000000000000011e-01 2.8388461018143598e-33 4.3062859160844822e-33  1.5000000000000030e-01 6.8807636031085510e-32 2.8911273183411332e-32  1.5000000000000002e-01 8.7601594649941604e-33 2.2546566805365652e-36  1.4999999999999958e-01 2.8923139055458074e-32 5.1989927297569863e-31  1.4999999999999958e-01 2.7224920306790616e-30 1.3175382422445118e-30  1.5000000000000907e-01 1.5283458772710246e-28 4.8405335253436063e-29  1.5000000000005423e-01 1.5923059135089171e-27 2.2716400903039968e-27  1.5000000000016225e-01 4.5834999351538624e-27 2.2656612814357006e-26  1.5000000000024188e-01 3.4341273796177614e-27 5.5118818768498322e-26  1.4999999999966268e-01 5.9819837294475571e-25 8.2251490838731880e-26  1.4999999999663161e-01 7.1009481549457450e-24 9.2684431154367936e-24  1.4999999998837366e-01 3.2567704116809399e-23 1.0904486088472231e-22  1.4999999997390870e-01 6.2018849757305061e-23 5.2673292498155572e-22  1.4999999995976970e-01 2.1515664344924004e-23 1.1531215344015068e-21  1.4999999996376637e-01 6.5445958234250434e-23 7.3791842575107948e-22  1.5000000000668257e-01 7.5544784956411775e-22 2.0639101781477562e-22  1.5000000008829373e-01 1.6334761514145744e-21 7.4382626430250287e-21  1.5000000016801157e-01 9.9126155660203825e-22 2.2117877596006379e-20  1.5000000018459783e-01 5.0659962471136401e-25 2.2455263092035773e-20  1.5000000011359213e-01 1.3349228552120023e-21 5.9878436752133606e-21  1.5000000000135910e-01 2.4720210189603470e-21 3.7316332896966027e-22  1.4999999992532967e-01 9.8531022300983182e-22 5.4588286393189814e-21  1.4999999992252852e-01 2.0091378862362222e-24 4.1269076723297094e-21  1.4999999996966096e-01 4.9192055662646826e-22 3.4799537132840083e-22  1.5000000002007158e-01 3.6197092226979698e-22 5.2401035353663243e-22  1.5000000003864225e-01 5.3519271424478904e-24 1.1843175469084387e-21  1.5000000001709954e-01 9.0218419198405620e-23 1.4422106148008141e-22  1.4999999998289459e-01 6.6385770339747228e-23 3.3061772056719846e-22  1.4999999997713537e-01 8.9543227339918249e-26 4.0263143053284198e-22  1.5000000000214311e-01 2.8206474478839473e-23 2.0076484719173711e-23  1.5000000001721950e-01 8.1787976513837927e-24 2.6510029372221167e-22  1.5000000000314309e-01 4.5309947933481142e-24 1.4002684307083737e-24  1.4999999998908481e-01 8.2506567954750050e-24 1.1616754965155232e-22  1.4999999999661648e-01 2.4253961198459312e-25 4.2524219292400714e-24  1.5000000000660055e-01 4.3584825017959602e-24 4.4199049727180171e-23  1.5000000000211541e-01 6.0702308628363557e-28 1.6595465321545215e-24  1.4999999999602764e-01 1.8794331409393085e-24 1.5910802402798701e-23  1.4999999999912078e-01 2.8397688723219719e-27 1.4647525617956220e-25  1.5000000000234370e-01 7.4313441279242293e-25 5.2732484349952091e-24  1.5000000000009658e-01 1.8926060605607113e-27 3.3531887319906370e-26  1.4999999999871400e-01 2.6086556246413345e-25 1.4496920894569691e-24  1.5000000000025324e-01 1.4307615219238867e-26 1.5202150671423673e-25  1.5000000000060548e-01 7.1067387349777688e-26 2.7356063111615849e-25  1.4999999999968797e-01 1.9187771434756072e-26 1.3088825960509945e-25  1.4999999999979427e-01 1.1392983284468978e-26 2.1011441789985546e-26  1.5000000000023092e-01 1.2402655621408852e-26 5.5329618303726911e-26  1.5000000000001390e-01 2.7246270959360920e-28 4.2223529721040760e-28  1.4999999999988070e-01 4.3067086210234511e-27 1.1626514865617970e-26  1.5000000000004562e-01 3.7080880587200319e-28 3.3302949671075940e-27  1.5000000000003733e-01 6.4036819400831180e-28 6.2275456446187167e-28  1.4999999999996033e-01 4.9355976568160499e-28 1.6159705776660252e-27  1.5000000000000263e-01 2.2553736258356140e-30 7.3441125666321755e-29  1.5000000000001765e-01 1.4777128280513315e-28 2.1412765373772977e-28  1.4999999999998934e-01 3.3733348903012712e-29 1.4206745194514808e-28  1.4999999999999816e-01 8.0160517864913479e-30 4.0908288079226262e-32  1.5000000000000613e-01 1.9273534920169776e-29 3.1782914570945900e-29  1.4999999999999744e-01 9.7805091329145081e-31 1.3594164193248997e-29  1.4999999999999902e-01 8.1104297195130633e-31 8.1521407710724676e-32  1.5000000000000210e-01 1.3099138743025500e-30 2.1428826340170717e-30  1.4999999999999919e-01 1.6413689744669548e-31 8.6277406779054341e-31  1.5000000000000005e-01 9.9432129371364728e-32 1.0028819959431582e-32  1.5000000000000083e-01 3.1696345644182942e-31 3.9864612963905380e-31  1.4999999999999997e-01 5.8286819115223147e-32 2.3165006797862712e-31  1.5000000000000019e-01 5.4404259277509820e-32 2.5252005624433900e-33  1.5000000000000011e-01 5.3805584124785654e-33 1.1724677650379717e-32  1.4999999999999997e-01 1.5307640649933059e-32 2.2138055053338016e-33  1.5000000000000019e-01 1.3644240801014906e-33 7.0085240759156888e-34  1.4999999999999974e-01 1.2051881115168650e-32 2.4467066336741796e-32  1.5000000000000022e-01 2.0434694136695001e-33 9.6306088904384735e-32  1.5000000000000022e-01 1.0084872369589694e-32 1.6602959426383376e-31  1.5000000000000019e-01 1.1487369899709095e-31 9.5130358342186850e-32  1.5000000000000030e-01 1.4951612776680669e-33 1.1796250369262657e-32  1.5000000000000022e-01 3.8180888782040966e-32 6.7534539196311510e-32  1.5000000000000013e-01 6.3980971714801719e-33 6.4127829185802905e-32  1.5000000000000002e-01 2.6564844079035666e-32 3.1105782182771627e-32  1.4999999999999980e-01 3.3416255627866384e-32 1.5755752725156232e-32  1.5000000000000011e-01 1.9172102133925037e-32 1.0904594652418752e-32  1.4999999999999997e-01 7.4691261802836916e-33 6.9353018368879886e-33  1.5000000000000022e-01 1.2967669229794581e-31 5.1394305678795871e-32  1.5000000000000013e-01 3.9076192253835259e-32 6.4448307305179813e-32  1.5000000000000013e-01 7.7465914610374246e-34 6.6381375618663588e-32  1.5000000000000013e-01 1.0204408514650590e-32 8.5240147342210033e-32  1.5000000000000005e-01 3.1740761711733150e-32 6.4764597836944924e-33  1.5000000000000041e-01 2.5180039866078176e-32 6.2796431864866120e-33  1.5000000000000022e-01 2.8511880861813160e-32 2.6108279314406640e-32  1.5000000000000013e-01 2.4673326726753188e-31 1.2013250937364284e-31  1.5000000000000005e-01 6.3354807047784898e-32 3.7342706739212376e-33  1.5000000000000027e-01 4.4207989037264108e-33 1.6616769498944314e-31  1.4999999999999997e-01 2.1399572791862972e-36 1.8483221738968699e-32  1.5000000000000013e-01 1.8703801487646047e-34 9.1586972360752138e-33  1.5000000000000022e-01 8.2106588346556715e-32 1.5744305036721521e-32  1.5000000000000005e-01 1.0517233442307477e-32 2.4359507501673106e-35  1.5000000000000027e-01 1.1807817267646985e-33 3.4931597282227151e-33  1.5000000000000019e-01 0.0000000000000000e+00 3.7116208544048362e-33  1.4999999999999991e-01 0.0000000000000000e+00 1.7013689279008249e-33  1.5000000000000013e-01 8.2228952167510418e-34 3.5298786144731283e-32  1.5000000000000013e-01 2.5765573351357220e-32 1.5717247894232819e-31  1.5000000000000019e-01 2.8024026244593520e-32 1.5353500674139078e-32  1.5000000000000013e-01 2.5795238349063717e-32 5.2243705997764176e-32  1.5000000000000011e-01 2.9056587335995466e-32 8.5110712389134421e-32  1.5000000000000013e-01 3.2860607487372526e-34 1.7126383832331886e-33  1.5000000000000036e-01 7.9516004096843491e-35 1.1158634127196478e-32  1.5000000000000013e-01 1.0630337037202137e-31 8.4443674779496189e-32  1.5000000000000049e-01 1.3883454098688476e-33 1.6035956305063310e-34  1.5000000000000061e-01 2.5095694114224181e-31 1.0497043936816417e-30  1.5000000000000202e-01 3.0354462319148082e-34 1.2162294912102100e-29  1.4999999999999855e-01 7.8757580010580053e-29 3.1594667384654493e-31  1.4999999999996200e-01 1.5382181891040706e-27 1.6840297457682691e-27  1.4999999999984071e-01 9.9626639836374915e-27 3.9161460218095452e-26  1.4999999999963731e-01 6.1346203613174041e-27 2.4593674753440844e-25  1.4999999999982022e-01 2.5359312098403984e-25 1.4409032186119315e-25  1.5000000000226360e-01 6.6462713354640469e-24 6.4166644777590014e-24  1.5000000001089706e-01 4.6410902177305212e-23 1.7760088981807265e-22  1.5000000002947458e-01 1.3532056585258895e-22 1.3608263359810151e-21  1.5000000005413319e-01 1.2623268002833007e-22 4.6412963999301676e-21  1.5000000006420416e-01 6.2880831259049400e-24 6.4054593639712601e-21  1.5000000002503364e-01 9.7143411583690648e-22 7.8526996457321841e-22  1.4999999991716795e-01 3.5953634548753016e-21 1.2369362383246008e-20  1.4999999977782408e-01 3.8672637235461869e-21 8.2170050830360381e-20  1.4999999970089234e-01 5.3428028460569103e-22 1.4172134904662661e-19  1.4999999976142553e-01 1.4655094293765712e-21 8.3322871055616462e-20  1.4999999992949117e-01 6.2147049574653733e-21 4.8218313579611239e-21  1.5000000008616052e-01 4.7403828590943364e-21 1.5678446941688466e-20  1.5000000013733256e-01 3.9399006799359034e-22 3.2283927622456053e-20  1.5000000008701883e-01 7.2585647659181024e-22 1.1479579535249996e-20  1.5000000000029334e-01 1.4921107034615193e-21 3.2886531840509384e-23  1.4999999994111204e-01 2.8920195977471234e-22 6.2432122622954173e-21  1.4999999994739585e-01 9.7057793423457791e-23 4.5064277517489950e-21  1.5000000000554861e-01 3.1491938762564946e-22 9.7729096444949816e-23  1.5000000004491401e-01 3.9669908385995469e-23 3.5407522469958958e-21  1.5000000001815134e-01 5.2453861778590370e-23 4.9826732141327903e-22  1.4999999997352009e-01 7.1961247662560225e-23 1.2807614037530693e-21  1.4999999997928914e-01 2.0793492010974970e-25 6.9960210143268120e-22  1.5000000001391367e-01 3.7179037877904522e-23 3.6501982193387972e-22  1.5000000001565655e-01 3.5654026360383367e-24 4.0561538459769752e-22  1.4999999999229002e-01 1.3765647134319585e-23 1.1407642414022353e-22  1.4999999999015529e-01 3.9834339382378250e-24 1.5934259776539142e-22  1.5000000000493496e-01 5.0843722300800861e-24 4.6322666365415341e-23  1.5000000000537683e-01 1.9578984943247558e-24 4.6356716276473136e-23  1.4999999999653538e-01 2.1467999187170171e-24 2.2152542862589554e-23  1.4999999999755234e-01 5.7132823540554830e-25 9.0863917291386350e-24  1.5000000000238323e-01 9.7729322353974447e-25 1.0063839883966198e-23  1.5000000000076155e-01 7.5368787827676678e-26 7.4291681345635095e-25  1.4999999999853494e-01 4.0559545159875531e-25 3.6253781239738532e-24  1.5000000000003980e-01 8.4656170703203567e-29 1.6577954055054631e-26  1.5000000000074182e-01 1.2605602078215428e-25 8.6922333047143244e-25  1.4999999999971475e-01 1.5262199935887144e-26 1.6225134281701561e-25  1.4999999999973698e-01 2.1898554491675496e-26 9.5766488523993292e-26  1.5000000000025077e-01 1.5652381542579131e-26 1.0763925474169442e-25  1.5000000000002064e-01 6.1971246787734928e-28 3.9143137111162260e-29  1.4999999999986827e-01 5.9428666923122059e-27 2.6380808174592277e-26  1.5000000000005462e-01 5.9133798857446568e-28 5.8769213749921686e-27  1.5000000000003558e-01 7.5409479210548621e-28 1.4618811176822402e-27  1.4999999999995534e-01 7.4171937779296099e-28 3.2617862248842114e-27  1.5000000000000832e-01 1.5424963530344721e-30 1.9230711200799979e-28  1.5000000000001665e-01 1.6247481907840428e-28 3.4756904651192651e-28  1.4999999999998651e-01 6.6511217259000555e-29 3.2271605852881322e-28  1.5000000000000069e-01 4.1181360835050363e-31 5.1266497674323946e-30  1.5000000000000591e-01 1.9347721194058586e-29 4.2222085689762249e-29  1.4999999999999583e-01 6.4607813001403274e-30 2.5214406904818032e-29  1.5000000000000041e-01 9.3244910828121744e-32 6.9957794092633067e-31  1.5000000000000194e-01 2.4567740129893337e-30 3.5345726192192956e-30  1.4999999999999872e-01 8.6832315131558429e-31 2.7244200021107190e-30  1.5000000000000066e-01 6.0578374296044078e-32 1.7494996243902732e-31  1.5000000000000027e-01 2.2779855374404398e-31 2.0152390940052573e-31  1.4999999999999997e-01 4.3166352049599189e-31 2.9590333572116598e-31  1.5000000000000011e-01 5.0284185602563684e-33 5.8379368363444343e-36  1.5000000000000019e-01 1.6005900522263008e-32 3.9512293052143873e-33  1.5000000000000019e-01 3.7112817388635098e-33 9.6199825535079607e-34  1.5000000000000022e-01 8.6140881439724416e-33 2.3168345040452978e-32  1.5000000000000030e-01 4.3785384401800834e-32 8.7102266653345791e-33  1.5000000000000022e-01 7.6436108054523424e-33 2.0277268028914982e-32  1.5000000000000013e-01 3.5264453660627141e-32 1.0771853354877146e-31  1.4999999999999966e-01 1.4656173853130099e-32 1.1025062757089819e-31  1.4999999999999988e-01 6.4109696779331595e-33 7.0145748643230940e-33  1.5000000000000011e-01 8.6940624234960556e-32 2.5925244914147312e-32  1.5000000000