<?xml version="1.0"?>
<VTKFile type="UnstructuredGrid"  version="0.1"  >
<UnstructuredGrid>
<Piece  NumberOfPoints="10201" NumberOfCells="20000">
<Points>
<DataArray  type="Float64"  NumberOfComponents="3"  format="ascii">-5 -5 0  -4.9 -5 0  -4.8 -5 0  -4.7 -5 0  -4.6 -5 0  -4.5 -5 0  -4.4 -5 0  -4.3 -5 0  -4.2 -5 0  -4.1 -5 0  -4 -5 0  -3.9 -5 0  -3.8 -5 0  -3.7 -5 0  -3.6 -5 0  -3.5 -5 0  -3.4 -5 0  -3.3 -5 0  -3.2 -5 0  -3.1 -5 0  -3 -5 0  -2.9 -5 0  -2.8 -5 0  -2.7 -5 0  -2.6 -5 0  -2.5 -5 0  -2.4 -5 0  -2.3 -5 0  -2.2 -5 0  -2.1 -5 0  -2 -5 0  -1.9 -5 0  -1.8 -5 0  -1.7 -5 0  -1.6 -5 0  -1.5 -5 0  -1.4 -5 0  -1.3 -5 0  -1.2 -5 0  -1.1 -5 0  -1 -5 0  -0.9000000000000004 -5 0  -0.7999999999999998 -5 0  -0.7000000000000002 -5 0  -0.5999999999999996 -5 0  -0.5 -5 0  -0.4000000000000004 -5 0  -0.2999999999999998 -5 0  -0.2000000000000002 -5 0  -0.09999999999999964 -5 0  0 -5 0  0.09999999999999964 -5 0  0.2000000000000002 -5 0  0.2999999999999998 -5 0  0.4000000000000004 -5 0  0.5 -5 0  0.5999999999999996 -5 0  0.7000000000000002 -5 0  0.7999999999999998 -5 0  0.9000000000000004 -5 0  1 -5 0  1.1 -5 0  1.2 -5 0  1.3 -5 0  1.4 -5 0  1.5 -5 0  1.6 -5 0  1.7 -5 0  1.8 -5 0  1.9 -5 0  2 -5 0  2.1 -5 0  2.2 -5 0  2.3 -5 0  2.4 -5 0  2.5 -5 0  2.6 -5 0  2.7 -5 0  2.8 -5 0  2.9 -5 0  3 -5 0  3.1 -5 0  3.199999999999999 -5 0  3.300000000000001 -5 0  3.4 -5 0  3.5 -5 0  3.6 -5 0  3.699999999999999 -5 0  3.800000000000001 -5 0  3.9 -5 0  4 -5 0  4.1 -5 0  4.199999999999999 -5 0  4.300000000000001 -5 0  4.4 -5 0  4.5 -5 0  4.6 -5 0  4.699999999999999 -5 0  4.800000000000001 -5 0  4.9 -5 0  5 -5 0  -5 -4.9 0  -4.9 -4.9 0  -4.8 -4.9 0  -4.7 -4.9 0  -4.6 -4.9 0  -4.5 -4.9 0  -4.4 -4.9 0  -4.3 -4.9 0  -4.2 -4.9 0  -4.1 -4.9 0  -4 -4.9 0  -3.9 -4.9 0  -3.8 -4.9 0  -3.7 -4.9 0  -3.6 -4.9 0  -3.5 -4.9 0  -3.4 -4.9 0  -3.3 -4.9 0  -3.2 -4.9 0  -3.1 -4.9 0  -3 -4.9 0  -2.9 -4.9 0  -2.8 -4.9 0  -2.7 -4.9 0  -2.6 -4.9 0  -2.5 -4.9 0  -2.4 -4.9 0  -2.3 -4.9 0  -2.2 -4.9 0  -2.1 -4.9 0  -2 -4.9 0  -1.9 -4.9 0  -1.8 -4.9 0  -1.7 -4.9 0  -1.6 -4.9 0  -1.5 -4.9 0  -1.4 -4.9 0  -1.3 -4.9 0  -1.2 -4.9 0  -1.1 -4.9 0  -1 -4.9 0  -0.9000000000000004 -4.9 0  -0.7999999999999998 -4.9 0  -0.7000000000000002 -4.9 0  -0.5999999999999996 -4.9 0  -0.5 -4.9 0  -0.4000000000000004 -4.9 0  -0.2999999999999998 -4.9 0  -0.2000000000000002 -4.9 0  -0.09999999999999964 -4.9 0  0 -4.9 0  0.09999999999999964 -4.9 0  0.2000000000000002 -4.9 0  0.2999999999999998 -4.9 0  0.4000000000000004 -4.9 0  0.5 -4.9 0  0.5999999999999996 -4.9 0  0.7000000000000002 -4.9 0  0.7999999999999998 -4.9 0  0.9000000000000004 -4.9 0  1 -4.9 0  1.1 -4.9 0  1.2 -4.9 0  1.3 -4.9 0  1.4 -4.9 0  1.5 -4.9 0  1.6 -4.9 0  1.7 -4.9 0  1.8 -4.9 0  1.9 -4.9 0  2 -4.9 0  2.1 -4.9 0  2.2 -4.9 0  2.3 -4.9 0  2.4 -4.9 0  2.5 -4.9 0  2.6 -4.9 0  2.7 -4.9 0  2.8 -4.9 0  2.9 -4.9 0  3 -4.9 0  3.1 -4.9 0  3.199999999999999 -4.9 0  3.300000000000001 -4.9 0  3.4 -4.9 0  3.5 -4.9 0  3.6 -4.9 0  3.699999999999999 -4.9 0  3.800000000000001 -4.9 0  3.9 -4.9 0  4 -4.9 0  4.1 -4.9 0  4.199999999999999 -4.9 0  4.300000000000001 -4.9 0  4.4 -4.9 0  4.5 -4.9 0  4.6 -4.9 0  4.699999999999999 -4.9 0  4.800000000000001 -4.9 0  4.9 -4.9 0  5 -4.9 0  -5 -4.8 0  -4.9 -4.8 0  -4.8 -4.8 0  -4.7 -4.8 0  -4.6 -4.8 0  -4.5 -4.8 0  -4.4 -4.8 0  -4.3 -4.8 0  -4.2 -4.8 0  -4.1 -4.8 0  -4 -4.8 0  -3.9 -4.8 0  -3.8 -4.8 0  -3.7 -4.8 0  -3.6 -4.8 0  -3.5 -4.8 0  -3.4 -4.8 0  -3.3 -4.8 0  -3.2 -4.8 0  -3.1 -4.8 0  -3 -4.8 0  -2.9 -4.8 0  -2.8 -4.8 0  -2.7 -4.8 0  -2.6 -4.8 0  -2.5 -4.8 0  -2.4 -4.8 0  -2.3 -4.8 0  -2.2 -4.8 0  -2.1 -4.8 0  -2 -4.8 0  -1.9 -4.8 0  -1.8 -4.8 0  -1.7 -4.8 0  -1.6 -4.8 0  -1.5 -4.8 0  -1.4 -4.8 0  -1.3 -4.8 0  -1.2 -4.8 0  -1.1 -4.8 0  -1 -4.8 0  -0.9000000000000004 -4.8 0  -0.7999999999999998 -4.8 0  -0.7000000000000002 -4.8 0  -0.5999999999999996 -4.8 0  -0.5 -4.8 0  -0.4000000000000004 -4.8 0  -0.2999999999999998 -4.8 0  -0.2000000000000002 -4.8 0  -0.09999999999999964 -4.8 0  0 -4.8 0  0.09999999999999964 -4.8 0  0.2000000000000002 -4.8 0  0.2999999999999998 -4.8 0  0.4000000000000004 -4.8 0  0.5 -4.8 0  0.5999999999999996 -4.8 0  0.7000000000000002 -4.8 0  0.7999999999999998 -4.8 0  0.9000000000000004 -4.8 0  1 -4.8 0  1.1 -4.8 0  1.2 -4.8 0  1.3 -4.8 0  1.4 -4.8 0  1.5 -4.8 0  1.6 -4.8 0  1.7 -4.8 0  1.8 -4.8 0  1.9 -4.8 0  2 -4.8 0  2.1 -4.8 0  2.2 -4.8 0  2.3 -4.8 0  2.4 -4.8 0  2.5 -4.8 0  2.6 -4.8 0  2.7 -4.8 0  2.8 -4.8 0  2.9 -4.8 0  3 -4.8 0  3.1 -4.8 0  3.199999999999999 -4.8 0  3.300000000000001 -4.8 0  3.4 -4.8 0  3.5 -4.8 0  3.6 -4.8 0  3.699999999999999 -4.8 0  3.800000000000001 -4.8 0  3.9 -4.8 0  4 -4.8 0  4.1 -4.8 0  4.199999999999999 -4.8 0  4.300000000000001 -4.8 0  4.4 -4.8 0  4.5 -4.8 0  4.6 -4.8 0  4.699999999999999 -4.8 0  4.800000000000001 -4.8 0  4.9 -4.8 0  5 -4.8 0  -5 -4.7 0  -4.9 -4.7 0  -4.8 -4.7 0  -4.7 -4.7 0  -4.6 -4.7 0  -4.5 -4.7 0  -4.4 -4.7 0  -4.3 -4.7 0  -4.2 -4.7 0  -4.1 -4.7 0  -4 -4.7 0  -3.9 -4.7 0  -3.8 -4.7 0  -3.7 -4.7 0  -3.6 -4.7 0  -3.5 -4.7 0  -3.4 -4.7 0  -3.3 -4.7 0  -3.2 -4.7 0  -3.1 -4.7 0  -3 -4.7 0  -2.9 -4.7 0  -2.8 -4.7 0  -2.7 -4.7 0  -2.6 -4.7 0  -2.5 -4.7 0  -2.4 -4.7 0  -2.3 -4.7 0  -2.2 -4.7 0  -2.1 -4.7 0  -2 -4.7 0  -1.9 -4.7 0  -1.8 -4.7 0  -1.7 -4.7 0  -1.6 -4.7 0  -1.5 -4.7 0  -1.4 -4.7 0  -1.3 -4.7 0  -1.2 -4.7 0  -1.1 -4.7 0  -1 -4.7 0  -0.9000000000000004 -4.7 0  -0.7999999999999998 -4.7 0  -0.7000000000000002 -4.7 0  -0.5999999999999996 -4.7 0  -0.5 -4.7 0  -0.4000000000000004 -4.7 0  -0.2999999999999998 -4.7 0  -0.2000000000000002 -4.7 0  -0.09999999999999964 -4.7 0  0 -4.7 0  0.09999999999999964 -4.7 0  0.2000000000000002 -4.7 0  0.2999999999999998 -4.7 0  0.4000000000000004 -4.7 0  0.5 -4.7 0  0.5999999999999996 -4.7 0  0.7000000000000002 -4.7 0  0.7999999999999998 -4.7 0  0.9000000000000004 -4.7 0  1 -4.7 0  1.1 -4.7 0  1.2 -4.7 0  1.3 -4.7 0  1.4 -4.7 0  1.5 -4.7 0  1.6 -4.7 0  1.7 -4.7 0  1.8 -4.7 0  1.9 -4.7 0  2 -4.7 0  2.1 -4.7 0  2.2 -4.7 0  2.3 -4.7 0  2.4 -4.7 0  2.5 -4.7 0  2.6 -4.7 0  2.7 -4.7 0  2.8 -4.7 0  2.9 -4.7 0  3 -4.7 0  3.1 -4.7 0  3.199999999999999 -4.7 0  3.300000000000001 -4.7 0  3.4 -4.7 0  3.5 -4.7 0  3.6 -4.7 0  3.699999999999999 -4.7 0  3.800000000000001 -4.7 0  3.9 -4.7 0  4 -4.7 0  4.1 -4.7 0  4.199999999999999 -4.7 0  4.300000000000001 -4.7 0  4.4 -4.7 0  4.5 -4.7 0  4.6 -4.7 0  4.699999999999999 -4.7 0  4.800000000000001 -4.7 0  4.9 -4.7 0  5 -4.7 0  -5 -4.6 0  -4.9 -4.6 0  -4.8 -4.6 0  -4.7 -4.6 0  -4.6 -4.6 0  -4.5 -4.6 0  -4.4 -4.6 0  -4.3 -4.6 0  -4.2 -4.6 0  -4.1 -4.6 0  -4 -4.6 0  -3.9 -4.6 0  -3.8 -4.6 0  -3.7 -4.6 0  -3.6 -4.6 0  -3.5 -4.6 0  -3.4 -4.6 0  -3.3 -4.6 0  -3.2 -4.6 0  -3.1 -4.6 0  -3 -4.6 0  -2.9 -4.6 0  -2.8 -4.6 0  -2.7 -4.6 0  -2.6 -4.6 0  -2.5 -4.6 0  -2.4 -4.6 0  -2.3 -4.6 0  -2.2 -4.6 0  -2.1 -4.6 0  -2 -4.6 0  -1.9 -4.6 0  -1.8 -4.6 0  -1.7 -4.6 0  -1.6 -4.6 0  -1.5 -4.6 0  -1.4 -4.6 0  -1.3 -4.6 0  -1.2 -4.6 0  -1.1 -4.6 0  -1 -4.6 0  -0.9000000000000004 -4.6 0  -0.7999999999999998 -4.6 0  -0.7000000000000002 -4.6 0  -0.5999999999999996 -4.6 0  -0.5 -4.6 0  -0.4000000000000004 -4.6 0  -0.2999999999999998 -4.6 0  -0.2000000000000002 -4.6 0  -0.09999999999999964 -4.6 0  0 -4.6 0  0.09999999999999964 -4.6 0  0.2000000000000002 -4.6 0  0.2999999999999998 -4.6 0  0.4000000000000004 -4.6 0  0.5 -4.6 0  0.5999999999999996 -4.6 0  0.7000000000000002 -4.6 0  0.7999999999999998 -4.6 0  0.9000000000000004 -4.6 0  1 -4.6 0  1.1 -4.6 0  1.2 -4.6 0  1.3 -4.6 0  1.4 -4.6 0  1.5 -4.6 0  1.6 -4.6 0  1.7 -4.6 0  1.8 -4.6 0  1.9 -4.6 0  2 -4.6 0  2.1 -4.6 0  2.2 -4.6 0  2.3 -4.6 0  2.4 -4.6 0  2.5 -4.6 0  2.6 -4.6 0  2.7 -4.6 0  2.8 -4.6 0  2.9 -4.6 0  3 -4.6 0  3.1 -4.6 0  3.199999999999999 -4.6 0  3.300000000000001 -4.6 0  3.4 -4.6 0  3.5 -4.6 0  3.6 -4.6 0  3.699999999999999 -4.6 0  3.800000000000001 -4.6 0  3.9 -4.6 0  4 -4.6 0  4.1 -4.6 0  4.199999999999999 -4.6 0  4.300000000000001 -4.6 0  4.4 -4.6 0  4.5 -4.6 0  4.6 -4.6 0  4.699999999999999 -4.6 0  4.800000000000001 -4.6 0  4.9 -4.6 0  5 -4.6 0  -5 -4.5 0  -4.9 -4.5 0  -4.8 -4.5 0  -4.7 -4.5 0  -4.6 -4.5 0  -4.5 -4.5 0  -4.4 -4.5 0  -4.3 -4.5 0  -4.2 -4.5 0  -4.1 -4.5 0  -4 -4.5 0  -3.9 -4.5 0  -3.8 -4.5 0  -3.7 -4.5 0  -3.6 -4.5 0  -3.5 -4.5 0  -3.4 -4.5 0  -3.3 -4.5 0  -3.2 -4.5 0  -3.1 -4.5 0  -3 -4.5 0  -2.9 -4.5 0  -2.8 -4.5 0  -2.7 -4.5 0  -2.6 -4.5 0  -2.5 -4.5 0  -2.4 -4.5 0  -2.3 -4.5 0  -2.2 -4.5 0  -2.1 -4.5 0  -2 -4.5 0  -1.9 -4.5 0  -1.8 -4.5 0  -1.7 -4.5 0  -1.6 -4.5 0  -1.5 -4.5 0  -1.4 -4.5 0  -1.3 -4.5 0  -1.2 -4.5 0  -1.1 -4.5 0  -1 -4.5 0  -0.9000000000000004 -4.5 0  -0.7999999999999998 -4.5 0  -0.7000000000000002 -4.5 0  -0.5999999999999996 -4.5 0  -0.5 -4.5 0  -0.4000000000000004 -4.5 0  -0.2999999999999998 -4.5 0  -0.2000000000000002 -4.5 0  -0.09999999999999964 -4.5 0  0 -4.5 0  0.09999999999999964 -4.5 0  0.2000000000000002 -4.5 0  0.2999999999999998 -4.5 0  0.4000000000000004 -4.5 0  0.5 -4.5 0  0.5999999999999996 -4.5 0  0.7000000000000002 -4.5 0  0.7999999999999998 -4.5 0  0.9000000000000004 -4.5 0  1 -4.5 0  1.1 -4.5 0  1.2 -4.5 0  1.3 -4.5 0  1.4 -4.5 0  1.5 -4.5 0  1.6 -4.5 0  1.7 -4.5 0  1.8 -4.5 0  1.9 -4.5 0  2 -4.5 0  2.1 -4.5 0  2.2 -4.5 0  2.3 -4.5 0  2.4 -4.5 0  2.5 -4.5 0  2.6 -4.5 0  2.7 -4.5 0  2.8 -4.5 0  2.9 -4.5 0  3 -4.5 0  3.1 -4.5 0  3.199999999999999 -4.5 0  3.300000000000001 -4.5 0  3.4 -4.5 0  3.5 -4.5 0  3.6 -4.5 0  3.699999999999999 -4.5 0  3.800000000000001 -4.5 0  3.9 -4.5 0  4 -4.5 0  4.1 -4.5 0  4.199999999999999 -4.5 0  4.300000000000001 -4.5 0  4.4 -4.5 0  4.5 -4.5 0  4.6 -4.5 0  4.699999999999999 -4.5 0  4.800000000000001 -4.5 0  4.9 -4.5 0  5 -4.5 0  -5 -4.4 0  -4.9 -4.4 0  -4.8 -4.4 0  -4.7 -4.4 0  -4.6 -4.4 0  -4.5 -4.4 0  -4.4 -4.4 0  -4.3 -4.4 0  -4.2 -4.4 0  -4.1 -4.4 0  -4 -4.4 0  -3.9 -4.4 0  -3.8 -4.4 0  -3.7 -4.4 0  -3.6 -4.4 0  -3.5 -4.4 0  -3.4 -4.4 0  -3.3 -4.4 0  -3.2 -4.4 0  -3.1 -4.4 0  -3 -4.4 0  -2.9 -4.4 0  -2.8 -4.4 0  -2.7 -4.4 0  -2.6 -4.4 0  -2.5 -4.4 0  -2.4 -4.4 0  -2.3 -4.4 0  -2.2 -4.4 0  -2.1 -4.4 0  -2 -4.4 0  -1.9 -4.4 0  -1.8 -4.
[...]
<PointData  Scalars="r"> 
<DataArray  type="Float64"  Name="r"  format="ascii">1.0247511283462600e+00  1.0273464827128533e+00  1.0352927227430784e+00  1.0461448922445966e+00  1.0577367219551175e+00  1.0673006439385688e+00  1.0730428870720998e+00  1.0747572609572693e+00  1.0725930335882010e+00  1.0680489948550049e+00  1.0618171424430498e+00  1.0550054585170139e+00  1.0478623731229351e+00  1.0407711195631255e+00  1.0337255626554571e+00  1.0267892072841049e+00  1.0200230964612165e+00  1.0134194614085956e+00  1.0070742769632723e+00  1.0009454686406920e+00  9.9511327670822414e-01  9.8958560628480063e-01  9.8429051583890192e-01  9.7939682518857685e-01  9.7474015603529374e-01  9.7048535172546202e-01  9.6657199446489461e-01  9.6311000918832146e-01  9.5999375987702240e-01  9.5745096683618569e-01  9.5522171969958358e-01  9.5366002471883637e-01  9.5234792594455908e-01  9.5173945485293487e-01  9.5131489034957450e-01  9.5151313868982090e-01  9.5180314846481429e-01  9.5265322175698131e-01  9.5340727643517420e-01  9.5464550067806608e-01  9.5563492943649397e-01  9.5700872740149390e-01  9.5797708754399669e-01  9.5932641131282026e-01  9.6011782395373901e-01  9.6127157260003171e-01  9.6179887484148252e-01  9.6263774627712817e-01  9.6285637974732341e-01  9.6338311226302675e-01  9.6320668666328435e-01  9.6344219595946123e-01  9.6290343989240945e-01  9.6271486859372479e-01  9.6194209248598495e-01  9.6130052491840701e-01  9.6029048122280258e-01  9.5934563449693422e-01  9.5812636464084289e-01  9.5695784230841374e-01  9.5574693637740205e-01  9.5437443415208179e-01  9.5347615099407079e-01  9.5214442326507942e-01  9.5169670184379418e-01  9.5081840577064169e-01  9.5107747110762741e-01  9.5082554378099615e-01  9.5211669891765549e-01  9.5259825972839463e-01  9.5499926977152727e-01  9.5636658818251519e-01  9.5976354166677547e-01  9.6200670854824832e-01  9.6636197778024269e-01  9.6933912868442729e-01  9.7455016431493979e-01  9.7822113180113257e-01  9.8415432108861434e-01  9.8854329731582258e-01  9.9508750075581576e-01  1.0001624121906667e+00  1.0072269246652024e+00  1.0128964830370777e+00  1.0202818113742662e+00  1.0265509039182443e+00  1.0341406308840986e+00  1.0410324743681698e+00  1.0485581339506558e+00  1.0555831826647935e+00  1.0621115043346623e+00  1.0681400552281297e+00  1.0721914179498675e+00  1.0753198787564793e+00  1.0738280592851375e+00  1.0696674799462604e+00  1.0590641820430102e+00  1.0478396532335663e+00  1.0347590893532590e+00  1.0272670469503238e+00  1.0233563224238336e+00  1.0273464827128538e+00  1.0296864490805009e+00  1.0368003309546838e+00  1.0466158478730425e+00  1.0571482917917141e+00  1.0658342045802094e+00  1.0713869125596760e+00  1.0729777016620667e+00  1.0712855823024177e+00  1.0670549481154890e+00  1.0613016434575355e+00  1.0547016316301434e+00  1.0477666069496496e+00  1.0407018197505433e+00  1.0337057283244369e+00  1.0267930465848532e+00  1.0200797365880165e+00  1.0135117221652099e+00  1.0072117549712292e+00  1.0011070859359161e+00  9.9534119625657336e-01  9.8977084261444315e-01  9.8458670285152594e-01  9.7966928884806914e-01  9.7510137410451669e-01  9.7092784977889524e-01  9.6712949235762824e-01  9.6373877095554028e-01  9.6082879279262523e-01  9.5834341544835511e-01  9.5637194651947444e-01  9.5484644228004478e-01  9.5380740642975870e-01  9.5321410461290834e-01  9.5299204612468524e-01  9.5317890410463757e-01  9.5362952993749039e-01  9.5434678874409939e-01  9.5521155621925335e-01  9.5624264383704149e-01  9.5727540248861287e-01  9.5837583134214810e-01  9.5942130164170136e-01  9.6041441792442406e-01  9.6130034744375936e-01  9.6209645557474532e-01  9.6274306588169445e-01  9.6328010571832612e-01  9.6368599803488608e-01  9.6386633202908667e-01  9.6404398187600093e-01  9.6387973426536400e-01  9.6374326508152408e-01  9.6332320193849252e-01  9.6289366853585856e-01  9.6215277488918405e-01  9.6156719543036151e-01  9.6047435200468156e-01  9.5975072751709767e-01  9.5846412891217658e-01  9.5760933336672827e-01  9.5632496362276276e-01  9.5554439216428777e-01  9.5433394832040530e-01  9.5396192514226075e-01  9.5305811074573277e-01  9.5322310539442601e-01  9.5299435662458898e-01  9.5387212553226430e-01  9.5447846196144337e-01  9.5631850109388439e-01  9.5778491238903019e-01  9.6065215574282659e-01  9.6306110749812834e-01  9.6684312625552882e-01  9.7015643202820812e-01  9.7481897506720483e-01  9.7889031706102270e-01  9.8436612966468739e-01  9.8906243996651655e-01  9.9522525763119096e-01  1.0004876948518056e+00  1.0072468045002179e+00  1.0130203616517373e+00  1.0203959753711540e+00  1.0266019822362256e+00  1.0343976418810543e+00  1.0407459550813847e+00  1.0484826233968940e+00  1.0545482576526797e+00  1.0616206496181837e+00  1.0665193013338741e+00  1.0711906459416614e+00  1.0722372237097777e+00  1.0709575606916111e+00  1.0653465066846277e+00  1.0571867370730346e+00  1.0469667943127723e+00  1.0371016099818890e+00  1.0300205298814828e+00  1.0272670469503238e+00  1.0352927227430786e+00  1.0368003309546832e+00  1.0417822127579006e+00  1.0478079808315408e+00  1.0542737414794912e+00  1.0597268635335584e+00  1.0634169601755257e+00  1.0652168828396185e+00  1.0648118691755630e+00  1.0625767122703418e+00  1.0585309997380932e+00  1.0533230406378558e+00  1.0471175568028284e+00  1.0405051463745247e+00  1.0336739435985511e+00  1.0268894107211135e+00  1.0202585930174666e+00  1.0138217532128846e+00  1.0076390488095774e+00  1.0016871975582533e+00  9.9599413559038374e-01  9.9059508542086405e-01  9.8552481847851048e-01  9.8079106981379538e-01  9.7647517278903984e-01  9.7258885084004465e-01  9.6910373915426296e-01  9.6618142405657814e-01  9.6365100792461389e-01  9.6171795828710616e-01  9.6014972157658529e-01  9.5918038081093615e-01  9.5848376236693922e-01  9.5831451061062833e-01  9.5829158725931141e-01  9.5871468110104108e-01  9.5908243223429979e-01  9.5983543246398040e-01  9.6039637820829482e-01  9.6126665277817913e-01  9.6182379117087191e-01  9.6271159797891870e-01  9.6314724230364712e-01  9.6394508643620636e-01  9.6425232943287054e-01  9.6491647884673071e-01  9.6506345619566802e-01  9.6558729230719331e-01  9.6551437081767644e-01  9.6591594725093555e-01  9.6565913249060464e-01  9.6585102503471809e-01  9.6550666545700214e-01  9.6545901869646678e-01  9.6497190997706583e-01  9.6476165633085964e-01  9.6411964620511204e-01  9.6371090748479393e-01  9.6306088480282259e-01  9.6239001566291515e-01  9.6182269208020332e-01  9.6095796483092499e-01  9.6043463057159240e-01  9.5954885789082367e-01  9.5917879688342134e-01  9.5831982762920498e-01  9.5841037611902158e-01  9.5778446552709284e-01  9.5852531437925048e-01  9.5851191678377112e-01  9.6007630470634031e-01  9.6091939192133591e-01  9.6353902335958008e-01  9.6527880719237058e-01  9.6899822519755840e-01  9.7168682439706133e-01  9.7635005427472099e-01  9.7993168569006883e-01  9.8540585174066941e-01  9.8976040666143228e-01  9.9595897990605009e-01  1.0009930080107665e+00  1.0077814531129601e+00  1.0134565569083991e+00  1.0206347794575341e+00  1.0267583607757427e+00  1.0340801368793577e+00  1.0403905830720872e+00  1.0474949176984139e+00  1.0534919956598037e+00  1.0594045327226524e+00  1.0636567577923055e+00  1.0663054501675937e+00  1.0665613877785571e+00  1.0641869531334505e+00  1.0599749466630515e+00  1.0536422144411268e+00  1.0475250250643828e+00  1.0408415336344430e+00  1.0371016099818871e+00  1.0347590893532599e+00  1.0461448922445959e+00  1.0466158478730427e+00  1.0478079808315410e+00  1.0484592640685790e+00  1.0501007364048753e+00  1.0515571255179614e+00  1.0538454831565045e+00  1.0558229511383745e+00  1.0571530024912839e+00  1.0567792028879197e+00  1.0546899098343490e+00  1.0507872642552565e+00  1.0456792481316730e+00  1.0397262313541840e+00  1.0334293835953814e+00  1.0269634098935501e+00  1.0206432119263156e+00  1.0143683559017014e+00  1.0084093654682260e+00  1.0025577011040709e+00  9.9712512287587174e-01  9.9191029803122965e-01  9.8716539699364503e-01  9.8277207045113923e-01  9.7891357551711244e-01  9.7547176755142651e-01  9.7263662266372208e-01  9.7026316429586901e-01  9.6846809490536911e-01  9.6711759256339369e-01  9.6627523518200586e-01  9.6576978676652725e-01  9.6559333098282174e-01  9.6565067316082487e-01  9.6583646009197444e-01  9.6612765431883008e-01  9.6642064398055727e-01  9.6677211972681454e-01  9.6701363368855087e-01  9.6730695457914329e-01  9.6749305467282765e-01  9.6769960214083173e-01  9.6782186552011462e-01  9.6799768781674322e-01  9.6806710637537774e-01  9.6818686680622967e-01  9.6825552458421627e-01  9.6827110266067118e-01  9.6839724208571931e-01  9.6831390550774288e-01  9.6842723300490297e-01  9.6830270563697540e-01  9.6839056153185443e-01  9.6814616756586802e-01  9.6833104255664981e-01  9.6791846690765049e-01  9.6818768889330764e-01  9.6769311612995113e-01  9.6796667464440656e-01  9.6739417809873907e-01  9.6770450470375091e-01  9.6695570117368401e-01  9.6738121049700654e-01  9.6645034417035047e-01  9.6689735526649390e-01  9.6593259228546147e-01  9.6640376195872724e-01  9.6545672092163082e-01  9.6620164774176120e-01  9.6546130691481880e-01  9.6676217614810445e-01  9.6665544953977278e-01  9.6876393066997990e-01  9.6962726422302115e-01  9.7283060956840184e-01  9.7471801357379517e-01  9.7908093564018805e-01  9.8196197408184660e-01  9.8734827435496397e-01  9.9111109181254409e-01  9.9737326859150055e-01  1.0018312758493979e+00  1.0088559897715792e+00  1.0137648038504692e+00  1.0212805446559243e+00  1.0263729496616218e+00  1.0340283792776375e+00  1.0389285512166537e+00  1.0461763165594740e+00  1.0500413701377742e+00  1.0555057001343295e+00  1.0565417829381631e+00  1.0582494526458519e+00  1.0555349800308609e+00  1.0540828526857771e+00  1.0502518658663338e+00  1.0490879558695390e+00  1.0471954674839481e+00  1.0475250250643824e+00  1.0469667943127725e+00  1.0478396532335674e+00  1.0577367219551179e+00  1.0571482917917137e+00  1.0542737414794905e+00  1.0501007364048751e+00  1.0468364810059443e+00  1.0444578410397314e+00  1.0440056770291812e+00  1.0446326805246378e+00  1.0457226633247740e+00  1.0465118395334383e+00  1.0461808762996856e+00  1.0445851809286837e+00  1.0415815029099860e+00  1.0374667455875655e+00  1.0324290969880567e+00  1.0268829143082874e+00  1.0210065359808613e+00  1.0151114729392532e+00  1.0093533039040239e+00  1.0038486259003683e+00  9.9874415701744290e-01  9.9397787486565958e-01  9.8975352955783302e-01  9.8594881270421719e-01  9.8274126508054505e-01  9.8006528285787620e-01  9.7798022922128602e-01  9.7644950387628804e-01  9.7539725717035031e-01  9.7482162973755504e-01  9.7450607286746682e-01  9.7445119973998151e-01  9.7447271699433569e-01  9.7456883956129370e-01  9.7455415574421778e-01  9.7459067552804479e-01  9.7441714299617477e-01  9.7431726470256264e-01  9.7398238400774184e-01  9.7384386228169706e-01  9.7340779757725382e-01  9.7328853033807639e-01  9.7285928267035737e-01  9.7278548013401933e-01  9.7238071513913615e-01  9.7241408631470194e-01  9.7202526759074814e-01  9.7217945103010994e-01  9.7182796398084603e-01  9.7200152096222536e-01  9.7177716031457417e-01  9.7193756714399182e-01  9.7179272100240033e-01  9.7203386800298830e-01  9.7192860841586337e-01  9.7219158887394208e-01  9.7223674189508713e-01  9.7241945236893024e-01  9.7264856955856760e-01  9.7279695505780905e-01  9.7313114603839113e-01  9.7329246290258908e-01  9.7368670847747918e-01  9.7372750329824520e-01  9.7422213318317619e-01  9.7404131932872051e-01  9.7450687963400295e-01  9.7420155840194911e-01  9.7457815162935657e-01  9.7424560866069543e-01  9.7476565761223022e-01  9.7461952834808396e-01  9.7564807739995407e-01  9.7618516175024461e-01  9.7803900327539217e-01  9.7968067671278236e-01  9.8266908899505589e-01  9.8552681792522390e-01  9.8970815253886846e-01  9.9369641852176827e-01  9.9884696633909154e-01  1.0037155197162655e+00  1.0094749151301994e+00  1.0148250473504747e+00  1.0209157225127068e+00  1.0264052680235398e+00  1.0324812706874051e+00  1.0375077997877482e+00  1.0425443554448397e+00  1.0455333375865157e+00  1.0477579862404678e+00  1.0473474513221712e+00  1.0468033337786815e+00  1.0447014402424044e+00  1.0443722774327322e+00  1.0439705488656634e+00  1.0463876798246621e+00  1.0490879558695383e+00  1.0536422144411275e+00  1.0571867370730346e+00  1.0590641820430093e+00  1.0673006439385684e+00  1.0658342045802087e+00  1.0597268635335586e+00  1.0515571255179619e+00  1.0444578410397318e+00  1.0382785523330496e+00  1.0352572830813191e+00  1.0337419279764659e+00  1.0343457941093399e+00  1.0354801564969291e+00  1.0367963838643646e+00  1.0371583456588169e+00  1.0363101035346909e+00  1.0339190088414807e+00  1.0304029200069982e+00  1.0258727150047022e+00  1.0209326539362014e+00  1.0157043131071697e+00  1.0106179998357359e+00  1.0056733459035032e+00  1.0011526166415832e+00  9.9701004464357545e-01  9.9348037517656840e-01  9.9044039115351235e-01  9.8813923776080148e-01  9.8632613913078504e-01  9.8520344338262111e-01  9.8443120731481493e-01  9.8411881165404202e-01  9.8393048931421934e-01  9.8386618043368368e-01  9.8377414782715933e-01  9.8358993689254037e-01  9.8326232177520334e-01  9.8283853405579036e-01  9.8228523439388171e-01  9.8164126059812451e-01  9.8099258625788022e-01  9.8029948112302334e-01  9.7965449070297550e-01  9.7900576409438589e-01  9.7847529295508961e-01  9.7790810510726633e-01  9.7750563797846424e-01  9.7709587892180316e-01  9.7677686167965394e-01  9.7654526062303992e-01  9.7629675735066435e-01  9.7620131559864831e-01  9.7607230533469935e-01  9.7612065767216050e-01  9.7601440612659252e-01  9.7632057123995353e-01  9.7615947216207855e-01  9.7669425607385651e-01  9.7658068317125557e-01  9.7727983345390679e-01  9.7722414451402873e-01  9.7816009354439371e-01  9.7806579031561491e-01  9.7927373171165999e-01  9.7912777860158751e-01  9.8049773806223839e-01  9.8038113855050724e-01  9.8180400919841970e-01  9.8160753643429288e-01  9.8308492760430888e-01  9.8265280252803067e-01  9.8402482832124205e-01  9.8336992066619200e-01  9.8449942601970963e-01  9.8372638401196000e-01  9.8486460411221122e-01  9.8424978313314815e-01  9.8591453302251808e-01  9.8607672598977392e-01  9.8872611126798504e-01  9.9012019799035467e-01  9.9400493420686320e-01  9.9660813967694650e-01  1.0016088649181107e+00  1.0051226369825257e+00  1.0108871378960136e+00  1.0149950691697680e+00  1.0210912355310635e+00  1.0251672004826320e+00  1.0306918011148123e+00  1.0333896672082492e+00  1.0367758402124876e+00  1.0366912277483056e+00  1.0373198414229676e+00  1.0351031129505119e+00  1.0348658739041119e+00  1.0332862276027925e+00  1.0353443685766652e+00  1.0373089197647205e+00  1.0439705488656641e+00  1.0502518658663336e+00  1.0599749466630526e+00  1.0653465066846275e+00  1.0696674799462620e+00  1.0730428870720987e+00  1.0713869125596764e+00  1.0634169601755259e+00  1.0538454831565043e+00  1.0440056770291812e+00  1.0352572830813191e+00  1.0294894204215466e+00  1.0255653885734544e+00  1.0240408910624292e+00  1.0238284357505427e+00  1.0246406448014891e+00  1.0256809340046338e+00  1.0263109579317122e+00  1.0261548398257951e+00  1.0248870032584390e+00  1.0226361911395279e+00  1.0195368348196268e+00  1.0158519303105491e+00  1.0119278382855090e+00  1.0079484882656342e+00  1.0043163024501693e+00  1.0010662039257654e+00  9.9848857457857498e-01  9.9650295315574755e-01  9.9520453105241213e-01  9.9439039124006190e-01  9.9403083943794646e-01  9.9383127517454273e-01  9.9377164005648644e-01  9.9355512547001801e-01  9.9328115278875451e-01  9.9275678812993640e-01  9.9206644623896789e-01  9.9125339451718730e-01  9.9031273278739684e-01  9.8933300596372764e-01  9.8834101607520375e-01  9.8741013610095840e-01  9.8643568955627059e-01  9.8565831036019080e-01  9.8479089361437122e-01  9.8417857897475480e-01  9.8343133454591691e-01  9.8302591001520145e-01  9.8236198075536985e-01  9.8215946074784355e-01  9.8161034753861987e-01  9.8155256530805268e-01  9.8119292952509096e-01  9.8123436473984016e-01  9.8101831291435770e-01  9.8122478090864373e-01  9.8113239067882552e-01  9.8144768811933680e-01  9.8160755078488982e-01  9.8194320171456217e-01  9.8235591914807274e-01  9.8277926692666606e-01  9.8335747900013604e-01  9.8391293767129739e-01  9.8468168965391112e-01  9.8530966887947558e-01  9.8633429994450172e-01  9.8698703230690799e-01  9.8815106799615771e-01  9.8889530095175571e-01  9.9003065301323101e-01  9.9075716536727776e-01  9.9182111095622494e-01  9.9233736874273182e-01  9.9318304921102396e-01  9.9346377067722436e-01  9.9392923911025244e-01  9.9409420059907916e-01  9.9445807745976877e-01  9.9483420739447292e-01  9.9568519315196591e-01  9.9691166580675128e-01  9.9873816397926862e-01  1.0012130864517474e+00  1.0041810896756989e+00  1.0077717486948174e+00  1.0116340146247129e+00  1.0157443068450993e+00  1.0196510462728101e+00  1.0231115648496554e+00  1.0256444967781231e+00  1.0269696874723451e+00  1.0271190118293381e+00  1.0260934181553516e+00  1.0248902000223723e+00  1.0235509480105067e+00  1.0237979382960445e+00  1.0251400264710988e+00  1.0294042392177150e+00  1.0353443685766655e+00  1.0443722774327315e+00  1.0540828526857762e+00  1.0641869531334516e+00  1.0709575606916120e+00  1.0738280592851381e+00  1.0747572609572678e+00  1.0729777016620674e+00  1.0652168828396178e+00  1.0558229511383743e+00  1.0446326805246391e+00  1.0337419279764659e+00  1.0255653885734548e+00  1.0188438731051872e+00  1.0153564787816196e+00  1.0132924993577235e+00  1.0133165997230258e+00  1.0142061590283209e+00  1.0158643570708701e+00  1.0172571596132185e+00  1.0181316988461659e+00  1.0179531289935639e+00  1.0168580464734511e+00  1.0149569617650549e+00  1.0126408783701322e+00  1.0102211184282048e+00  1.0080399360616588e+00  1.0062146169246331e+00  1.0049830688526831e+00  1.0041609284249151e+00  1.0038353560094966e+00  1.0036697033829836e+00  1.0036418088110481e+00  1.0034664824234347e+00  1.0031401168315839e+00  1.0025250463425897e+00  1.0017279319232111e+00  1.0006479871267517e+00  9.9952877254118633e-01  9.9827239668695877e-01  9.9701601392397265e-01  9.9580073753623055e-01  9.9462512664917879e-01  9.9349202998203701e-01  9.9248274262396097e-01  9.9151808839757871e-01  9.9064100681209999e-01  9.8986520116568555e-01  9.8914808272334231e-01  9.8852081822733140e-01  9.8798683366802387e-01  9.8752125764372889e-01  9.8714836941534023e-01  9.8686159941352414e-01  9.8665216390941712e-01  9.8647434273926393e-01  9.8654299911564403e-01  9.8640920045422409e-01  9.8674550654847248e-01  9.8671807435226533e-01  9.8727085591334851e-01  9.8731879836126268e-01  9.8818086445715236e-01  9.8823139629898538e-01  9.8942853999597835e-01  9.8953382928547517e-01  9.9097333681103494e-01  9.9120030640455981e-01  9.9282372726228707e-01  9.9312828295898958e-01  9.9499079851378625e-01  9.9531870172912718e-01  9.9732513383057020e-01  9.9775180737210678e-01  9.9972016097535288e-01  1.0001510738470800e+00  1.0019902202444269e+00  1.0021656788146958e+00  1.0036883232510698e+00  1.0034924417209998e+00  1.0044766140740524e+00  1.0039902755851631e+00  1.0047369560205388e+00  1.0043846267020440e+00  1.0056072113315109e+00  1.0061234629903431e+00  1.0083319113148932e+00  1.0099572168116659e+00  1.0128526512071405e+00  1.0147259550756293e+00  1.0170617174489425e+00  1.0176631020591174e+00  1.0181005407340324e+00  1.0167495911715714e+00  1.0156019409482184e+00  1.0136808370139763e+00  1.0130932596220803e+00  1.0129807184850794e+00  1.0151790457565664e+00  1.0185798488277698e+00  1.0251400264710993e+00  1.0332862276027925e+00  1.0447014402424044e+00  1.0555349800308613e+00  1.0665613877785585e+00  1.0722372237097775e+00  1.0753198787564804e+00  1.0725930335882010e+00  1.0712855823024181e+00  1.0648118691755621e+00  1.0571530024912847e+00  1.0457226633247743e+00  1.0343457941093399e+00  1.0240408910624297e+00  1.0153564787816196e+00  1.0098306351487756e+00  1.0057991322414817e+00  1.0040004033672274e+00  1.0033951568261910e+00  1.0040182870484948e+00  1.0054052604842993e+00  1.0071721448310718e+00  1.0088581581578877e+00  1.0102728779183947e+00  1.0111195814237415e+00  1.0116398050141224e+00  1.0118073605836653e+00  1.0119413782282791e+00  1.0120872961333161e+00  1