<?xml version="1.0"?>
<VTKFile type="UnstructuredGrid"  version="0.1"  >
<UnstructuredGrid>
<Piece  NumberOfPoints="40401" NumberOfCells="80000">
<Points>
<DataArray  type="Float64"  NumberOfComponents="3"  format="ascii">-5 -5 0  -4.95 -5 0  -4.9 -5 0  -4.85 -5 0  -4.8 -5 0  -4.75 -5 0  -4.7 -5 0  -4.65 -5 0  -4.6 -5 0  -4.55 -5 0  -4.5 -5 0  -4.45 -5 0  -4.4 -5 0  -4.35 -5 0  -4.3 -5 0  -4.25 -5 0  -4.2 -5 0  -4.15 -5 0  -4.1 -5 0  -4.05 -5 0  -4 -5 0  -3.95 -5 0  -3.9 -5 0  -3.85 -5 0  -3.8 -5 0  -3.75 -5 0  -3.7 -5 0  -3.65 -5 0  -3.6 -5 0  -3.55 -5 0  -3.5 -5 0  -3.45 -5 0  -3.4 -5 0  -3.35 -5 0  -3.3 -5 0  -3.25 -5 0  -3.2 -5 0  -3.15 -5 0  -3.1 -5 0  -3.05 -5 0  -3 -5 0  -2.95 -5 0  -2.9 -5 0  -2.85 -5 0  -2.8 -5 0  -2.75 -5 0  -2.7 -5 0  -2.65 -5 0  -2.6 -5 0  -2.55 -5 0  -2.5 -5 0  -2.45 -5 0  -2.4 -5 0  -2.35 -5 0  -2.3 -5 0  -2.25 -5 0  -2.2 -5 0  -2.15 -5 0  -2.1 -5 0  -2.05 -5 0  -2 -5 0  -1.95 -5 0  -1.9 -5 0  -1.85 -5 0  -1.8 -5 0  -1.75 -5 0  -1.7 -5 0  -1.65 -5 0  -1.6 -5 0  -1.55 -5 0  -1.5 -5 0  -1.45 -5 0  -1.4 -5 0  -1.35 -5 0  -1.3 -5 0  -1.25 -5 0  -1.2 -5 0  -1.15 -5 0  -1.1 -5 0  -1.05 -5 0  -1 -5 0  -0.9500000000000002 -5 0  -0.9000000000000004 -5 0  -0.8499999999999996 -5 0  -0.7999999999999998 -5 0  -0.75 -5 0  -0.7000000000000002 -5 0  -0.6500000000000004 -5 0  -0.5999999999999996 -5 0  -0.5499999999999998 -5 0  -0.5 -5 0  -0.4500000000000002 -5 0  -0.4000000000000004 -5 0  -0.3499999999999996 -5 0  -0.2999999999999998 -5 0  -0.25 -5 0  -0.2000000000000002 -5 0  -0.1500000000000004 -5 0  -0.09999999999999964 -5 0  -0.04999999999999982 -5 0  0 -5 0  0.04999999999999982 -5 0  0.09999999999999964 -5 0  0.1500000000000004 -5 0  0.2000000000000002 -5 0  0.25 -5 0  0.2999999999999998 -5 0  0.3499999999999996 -5 0  0.4000000000000004 -5 0  0.4500000000000002 -5 0  0.5 -5 0  0.5499999999999998 -5 0  0.5999999999999996 -5 0  0.6500000000000004 -5 0  0.7000000000000002 -5 0  0.75 -5 0  0.7999999999999998 -5 0  0.8499999999999996 -5 0  0.9000000000000004 -5 0  0.9500000000000002 -5 0  1 -5 0  1.05 -5 0  1.1 -5 0  1.15 -5 0  1.2 -5 0  1.25 -5 0  1.3 -5 0  1.35 -5 0  1.4 -5 0  1.45 -5 0  1.5 -5 0  1.55 -5 0  1.6 -5 0  1.65 -5 0  1.7 -5 0  1.75 -5 0  1.8 -5 0  1.85 -5 0  1.9 -5 0  1.95 -5 0  2 -5 0  2.05 -5 0  2.1 -5 0  2.15 -5 0  2.2 -5 0  2.25 -5 0  2.3 -5 0  2.35 -5 0  2.4 -5 0  2.45 -5 0  2.5 -5 0  2.55 -5 0  2.6 -5 0  2.65 -5 0  2.7 -5 0  2.75 -5 0  2.8 -5 0  2.85 -5 0  2.9 -5 0  2.95 -5 0  3 -5 0  3.050000000000001 -5 0  3.1 -5 0  3.15 -5 0  3.199999999999999 -5 0  3.25 -5 0  3.300000000000001 -5 0  3.35 -5 0  3.4 -5 0  3.449999999999999 -5 0  3.5 -5 0  3.550000000000001 -5 0  3.6 -5 0  3.65 -5 0  3.699999999999999 -5 0  3.75 -5 0  3.800000000000001 -5 0  3.85 -5 0  3.9 -5 0  3.949999999999999 -5 0  4 -5 0  4.050000000000001 -5 0  4.1 -5 0  4.15 -5 0  4.199999999999999 -5 0  4.25 -5 0  4.300000000000001 -5 0  4.35 -5 0  4.4 -5 0  4.449999999999999 -5 0  4.5 -5 0  4.550000000000001 -5 0  4.6 -5 0  4.65 -5 0  4.699999999999999 -5 0  4.75 -5 0  4.800000000000001 -5 0  4.85 -5 0  4.9 -5 0  4.949999999999999 -5 0  5 -5 0  -5 -4.95 0  -4.95 -4.95 0  -4.9 -4.95 0  -4.85 -4.95 0  -4.8 -4.95 0  -4.75 -4.95 0  -4.7 -4.95 0  -4.65 -4.95 0  -4.6 -4.95 0  -4.55 -4.95 0  -4.5 -4.95 0  -4.45 -4.95 0  -4.4 -4.95 0  -4.35 -4.95 0  -4.3 -4.95 0  -4.25 -4.95 0  -4.2 -4.95 0  -4.15 -4.95 0  -4.1 -4.95 0  -4.05 -4.95 0  -4 -4.95 0  -3.95 -4.95 0  -3.9 -4.95 0  -3.85 -4.95 0  -3.8 -4.95 0  -3.75 -4.95 0  -3.7 -4.95 0  -3.65 -4.95 0  -3.6 -4.95 0  -3.55 -4.95 0  -3.5 -4.95 0  -3.45 -4.95 0  -3.4 -4.95 0  -3.35 -4.95 0  -3.3 -4.95 0  -3.25 -4.95 0  -3.2 -4.95 0  -3.15 -4.95 0  -3.1 -4.95 0  -3.05 -4.95 0  -3 -4.95 0  -2.95 -4.95 0  -2.9 -4.95 0  -2.85 -4.95 0  -2.8 -4.95 0  -2.75 -4.95 0  -2.7 -4.95 0  -2.65 -4.95 0  -2.6 -4.95 0  -2.55 -4.95 0  -2.5 -4.95 0  -2.45 -4.95 0  -2.4 -4.95 0  -2.35 -4.95 0  -2.3 -4.95 0  -2.25 -4.95 0  -2.2 -4.95 0  -2.15 -4.95 0  -2.1 -4.95 0  -2.05 -4.95 0  -2 -4.95 0  -1.95 -4.95 0  -1.9 -4.95 0  -1.85 -4.95 0  -1.8 -4.95 0  -1.75 -4.95 0  -1.7 -4.95 0  -1.65 -4.95 0  -1.6 -4.95 0  -1.55 -4.95 0  -1.5 -4.95 0  -1.45 -4.95 0  -1.4 -4.95 0  -1.35 -4.95 0  -1.3 -4.95 0  -1.25 -4.95 0  -1.2 -4.95 0  -1.15 -4.95 0  -1.1 -4.95 0  -1.05 -4.95 0  -1 -4.95 0  -0.9500000000000002 -4.95 0  -0.9000000000000004 -4.95 0  -0.8499999999999996 -4.95 0  -0.7999999999999998 -4.95 0  -0.75 -4.95 0  -0.7000000000000002 -4.95 0  -0.6500000000000004 -4.95 0  -0.5999999999999996 -4.95 0  -0.5499999999999998 -4.95 0  -0.5 -4.95 0  -0.4500000000000002 -4.95 0  -0.4000000000000004 -4.95 0  -0.3499999999999996 -4.95 0  -0.2999999999999998 -4.95 0  -0.25 -4.95 0  -0.2000000000000002 -4.95 0  -0.1500000000000004 -4.95 0  -0.09999999999999964 -4.95 0  -0.04999999999999982 -4.95 0  0 -4.95 0  0.04999999999999982 -4.95 0  0.09999999999999964 -4.95 0  0.1500000000000004 -4.95 0  0.2000000000000002 -4.95 0  0.25 -4.95 0  0.2999999999999998 -4.95 0  0.3499999999999996 -4.95 0  0.4000000000000004 -4.95 0  0.4500000000000002 -4.95 0  0.5 -4.95 0  0.5499999999999998 -4.95 0  0.5999999999999996 -4.95 0  0.6500000000000004 -4.95 0  0.7000000000000002 -4.95 0  0.75 -4.95 0  0.7999999999999998 -4.95 0  0.8499999999999996 -4.95 0  0.9000000000000004 -4.95 0  0.9500000000000002 -4.95 0  1 -4.95 0  1.05 -4.95 0  1.1 -4.95 0  1.15 -4.95 0  1.2 -4.95 0  1.25 -4.95 0  1.3 -4.95 0  1.35 -4.95 0  1.4 -4.95 0  1.45 -4.95 0  1.5 -4.95 0  1.55 -4.95 0  1.6 -4.95 0  1.65 -4.95 0  1.7 -4.95 0  1.75 -4.95 0  1.8 -4.95 0  1.85 -4.95 0  1.9 -4.95 0  1.95 -4.95 0  2 -4.95 0  2.05 -4.95 0  2.1 -4.95 0  2.15 -4.95 0  2.2 -4.95 0  2.25 -4.95 0  2.3 -4.95 0  2.35 -4.95 0  2.4 -4.95 0  2.45 -4.95 0  2.5 -4.95 0  2.55 -4.95 0  2.6 -4.95 0  2.65 -4.95 0  2.7 -4.95 0  2.75 -4.95 0  2.8 -4.95 0  2.85 -4.95 0  2.9 -4.95 0  2.95 -4.95 0  3 -4.95 0  3.050000000000001 -4.95 0  3.1 -4.95 0  3.15 -4.95 0  3.199999999999999 -4.95 0  3.25 -4.95 0  3.300000000000001 -4.95 0  3.35 -4.95 0  3.4 -4.95 0  3.449999999999999 -4.95 0  3.5 -4.95 0  3.550000000000001 -4.95 0  3.6 -4.95 0  3.65 -4.95 0  3.699999999999999 -4.95 0  3.75 -4.95 0  3.800000000000001 -4.95 0  3.85 -4.95 0  3.9 -4.95 0  3.949999999999999 -4.95 0  4 -4.95 0  4.050000000000001 -4.95 0  4.1 -4.95 0  4.15 -4.95 0  4.199999999999999 -4.95 0  4.25 -4.95 0  4.300000000000001 -4.95 0  4.35 -4.95 0  4.4 -4.95 0  4.449999999999999 -4.95 0  4.5 -4.95 0  4.550000000000001 -4.95 0  4.6 -4.95 0  4.65 -4.95 0  4.699999999999999 -4.95 0  4.75 -4.95 0  4.800000000000001 -4.95 0  4.85 -4.95 0  4.9 -4.95 0  4.949999999999999 -4.95 0  5 -4.95 0  -5 -4.9 0  -4.95 -4.9 0  -4.9 -4.9 0  -4.85 -4.9 0  -4.8 -4.9 0  -4.75 -4.9 0  -4.7 -4.9 0  -4.65 -4.9 0  -4.6 -4.9 0  -4.55 -4.9 0  -4.5 -4.9 0  -4.45 -4.9 0  -4.4 -4.9 0  -4.35 -4.9 0  -4.3 -4.9 0  -4.25 -4.9 0  -4.2 -4.9 0  -4.15 -4.9 0  -4.1 -4.9 0  -4.05 -4.9 0  -4 -4.9 0  -3.95 -4.9 0  -3.9 -4.9 0  -3.85 -4.9 0  -3.8 -4.9 0  -3.75 -4.9 0  -3.7 -4.9 0  -3.65 -4.9 0  -3.6 -4.9 0  -3.55 -4.9 0  -3.5 -4.9 0  -3.45 -4.9 0  -3.4 -4.9 0  -3.35 -4.9 0  -3.3 -4.9 0  -3.25 -4.9 0  -3.2 -4.9 0  -3.15 -4.9 0  -3.1 -4.9 0  -3.05 -4.9 0  -3 -4.9 0  -2.95 -4.9 0  -2.9 -4.9 0  -2.85 -4.9 0  -2.8 -4.9 0  -2.75 -4.9 0  -2.7 -4.9 0  -2.65 -4.9 0  -2.6 -4.9 0  -2.55 -4.9 0  -2.5 -4.9 0  -2.45 -4.9 0  -2.4 -4.9 0  -2.35 -4.9 0  -2.3 -4.9 0  -2.25 -4.9 0  -2.2 -4.9 0  -2.15 -4.9 0  -2.1 -4.9 0  -2.05 -4.9 0  -2 -4.9 0  -1.95 -4.9 0  -1.9 -4.9 0  -1.85 -4.9 0  -1.8 -4.9 0  -1.75 -4.9 0  -1.7 -4.9 0  -1.65 -4.9 0  -1.6 -4.9 0  -1.55 -4.9 0  -1.5 -4.9 0  -1.45 -4.9 0  -1.4 -4.9 0  -1.35 -4.9 0  -1.3 -4.9 0  -1.25 -4.9 0  -1.2 -4.9 0  -1.15 -4.9 0  -1.1 -4.9 0  -1.05 -4.9 0  -1 -4.9 0  -0.9500000000000002 -4.9 0  -0.9000000000000004 -4.9 0  -0.8499999999999996 -4.9 0  -0.7999999999999998 -4.9 0  -0.75 -4.9 0  -0.7000000000000002 -4.9 0  -0.6500000000000004 -4.9 0  -0.5999999999999996 -4.9 0  -0.5499999999999998 -4.9 0  -0.5 -4.9 0  -0.4500000000000002 -4.9 0  -0.4000000000000004 -4.9 0  -0.3499999999999996 -4.9 0  -0.2999999999999998 -4.9 0  -0.25 -4.9 0  -0.2000000000000002 -4.9 0  -0.1500000000000004 -4.9 0  -0.09999999999999964 -4.9 0  -0.04999999999999982 -4.9 0  0 -4.9 0  0.04999999999999982 -4.9 0  0.09999999999999964 -4.9 0  0.1500000000000004 -4.9 0  0.2000000000000002 -4.9 0  0.25 -4.9 0  0.2999999999999998 -4.9 0  0.3499999999999996 -4.9 0  0.4000000000000004 -4.9 0  0.4500000000000002 -4.9 0  0.5 -4.9 0  0.5499999999999998 -4.9 0  0.5999999999999996 -4.9 0  0.6500000000000004 -4.9 0  0.7000000000000002 -4.9 0  0.75 -4.9 0  0.7999999999999998 -4.9 0  0.8499999999999996 -4.9 0  0.9000000000000004 -4.9 0  0.9500000000000002 -4.9 0  1 -4.9 0  1.05 -4.9 0  1.1 -4.9 0  1.15 -4.9 0  1.2 -4.9 0  1.25 -4.9 0  1.3 -4.9 0  1.35 -4.9 0  1.4 -4.9 0  1.45 -4.9 0  1.5 -4.9 0  1.55 -4.9 0  1.6 -4.9 0  1.65 -4.9 0  1.7 -4.9 0  1.75 -4.9 0  1.8 -4.9 0  1.85 -4.9 0  1.9 -4.9 0  1.95 -4.9 0  2 -4.9 0  2.05 -4.9 0  2.1 -4.9 0  2.15 -4.9 0  2.2 -4.9 0  2.25 -4.9 0  2.3 -4.9 0  2.35 -4.9 0  2.4 -4.9 0  2.45 -4.9 0  2.5 -4.9 0  2.55 -4.9 0  2.6 -4.9 0  2.65 -4.9 0  2.7 -4.9 0  2.75 -4.9 0  2.8 -4.9 0  2.85 -4.9 0  2.9 -4.9 0  2.95 -4.9 0  3 -4.9 0  3.050000000000001 -4.9 0  3.1 -4.9 0  3.15 -4.9 0  3.199999999999999 -4.9 0  3.25 -4.9 0  3.300000000000001 -4.9 0  3.35 -4.9 0  3.4 -4.9 0  3.449999999999999 -4.9 0  3.5 -4.9 0  3.550000000000001 -4.9 0  3.6 -4.9 0  3.65 -4.9 0  3.699999999999999 -4.9 0  3.75 -4.9 0  3.800000000000001 -4.9 0  3.85 -4.9 0  3.9 -4.9 0  3.949999999999999 -4.9 0  4 -4.9 0  4.050000000000001 -4.9 0  4.1 -4.9 0  4.15 -4.9 0  4.199999999999999 -4.9 0  4.25 -4.9 0  4.300000000000001 -4.9 0  4.35 -4.9 0  4.4 -4.9 0  4.449999999999999 -4.9 0  4.5 -4.9 0  4.550000000000001 -4.9 0  4.6 -4.9 0  4.65 -4.9 0  4.699999999999999 -4.9 0  4.75 -4.9 0  4.800000000000001 -4.9 0  4.85 -4.9 0  4.9 -4.9 0  4.949999999999999 -4.9 0  5 -4.9 0  -5 -4.85 0  -4.95 -4.85 0  -4.9 -4.85 0  -4.85 -4.85 0  -4.8 -4.85 0  -4.75 -4.85 0  -4.7 -4.85 0  -4.65 -4.85 0  -4.6 -4.85 0  -4.55 -4.85 0  -4.5 -4.85 0  
[...]
<PointData  Scalars="r"> 
<DataArray  type="Float64"  Name="r"  format="ascii">1.0524852114605812e+00  1.0519815089530602e+00  1.0519970743797502e+00  1.0525603674756911e+00  1.0528725237271830e+00  1.0532955875538670e+00  1.0535979003454985e+00  1.0543021927431078e+00  1.0561248197974895e+00  1.0575016168461944e+00  1.0588601145362710e+00  1.0597658513814083e+00  1.0605972083215645e+00  1.0624415330120787e+00  1.0628226896474695e+00  1.0635108312959487e+00  1.0642401293773414e+00  1.0665747515949655e+00  1.0615407532166541e+00  1.0415570201414603e+00  1.0109986890169451e+00  9.8287307052714268e-01  9.6518368832746226e-01  9.5563930154144916e-01  9.5100067026374346e-01  9.4795300911483571e-01  9.4590291613832667e-01  9.4387000456057490e-01  9.4229770360636833e-01  9.4073827689195599e-01  9.3973728547028212e-01  9.3909835343993597e-01  9.3922550907525937e-01  9.4020561551497106e-01  9.4229790478908448e-01  9.4553459943884643e-01  9.5006151227869129e-01  9.5546189146139615e-01  9.6162981198458108e-01  9.6776340140091455e-01  9.7355777625777384e-01  9.7838711017723090e-01  9.8210636828460141e-01  9.8465544040674957e-01  9.8621485255368646e-01  9.8709249136368604e-01  9.8756436377243451e-01  9.8792773011586776e-01  9.8828977497762882e-01  9.8876622297539107e-01  9.8929261060932161e-01  9.8983599952566492e-01  9.9034378051652661e-01  9.9071589873073052e-01  9.9104765860563782e-01  9.9119244040814103e-01  9.9139361884677168e-01  9.9143467861052936e-01  9.9162654310368581e-01  9.9169452385968992e-01  9.9192652957713467e-01  9.9206092239802546e-01  9.9228862832280362e-01  9.9246440208013831e-01  9.9261933286977144e-01  9.9280382999432593e-01  9.9286087220934127e-01  9.9304138399420705e-01  9.9302632938133284e-01  9.9320295487269961e-01  9.9316873630786162e-01  9.9333112942929191e-01  9.9332833334402282e-01  9.9345508798239479e-01  9.9350999464369905e-01  9.9358215180750487e-01  9.9369408665817416e-01  9.9370814534611529e-01  9.9385341378486380e-01  9.9382994934993929e-01  9.9397018561695538e-01  9.9394705076289602e-01  9.9404315954257627e-01  9.9405736300795100e-01  9.9408539778155092e-01  9.9415576665144112e-01  9.9411527312372439e-01  9.9423515565714626e-01  9.9415014711417904e-01  9.9428858436662848e-01  9.9419883727667835e-01  9.9431559359632316e-01  9.9425888548023078e-01  9.9432224428041671e-01  9.9432064200496340e-01  9.9431991239207540e-01  9.9436891172939879e-01  9.9432097210546744e-01  9.9439249382726969e-01  9.9433141233497346e-01  9.9438803457064617e-01  9.9435015242512659e-01  9.9436037526958065e-01  9.9436782415091174e-01  9.9432216065392176e-01  9.9437092588119314e-01  9.9428605915968327e-01  9.9435127976094906e-01  9.9425786682423800e-01  9.9430780406295438e-01  9.9423636211167055e-01  9.9424569466324120e-01  9.9421364218288866e-01  9.9417502218043530e-01  9.9417759868574851e-01  9.9410371038693746e-01  9.9411768690985569e-01  9.9403318669445662e-01  9.9402601746358443e-01  9.9395846594147119e-01  9.9390189606633916e-01  9.9386937429504241e-01  9.9375390177507317e-01  9.9375775433950797e-01  9.9359781770440481e-01  9.9362470469762221e-01  9.9345137861365318e-01  9.9347960232481825e-01  9.9332419699693109e-01  9.9332860474605400e-01  9.9320641314386549e-01  9.9315872863154031e-01  9.9306513114969275e-01  9.9294174349820941e-01  9.9286074686787107e-01  9.9266243772145601e-01  9.9258616690207602e-01  9.9234794446533825e-01  9.9228772929843034e-01  9.9205642618894552e-01  9.9201568732482692e-01  9.9180480576127894e-01  9.9173598459658097e-01  9.9150231488478413e-01  9.9132875782634822e-01  9.9103000620638770e-01  9.9074742106509972e-01  9.9043544884633550e-01  9.9014446046474902e-01  9.8990572996296944e-01  9.8963060422213833e-01  9.8936206501125723e-01  9.8888703252191068e-01  9.8833157262936511e-01  9.8748169648716788e-01  9.8660885080238458e-01  9.8545799357567898e-01  9.8415169006354475e-01  9.8211991549033129e-01  9.7920349857017108e-01  9.7479585561593607e-01  9.6920066471084176e-01  9.6250745976302587e-01  9.5588005804365972e-01  9.4965059834797283e-01  9.4482924364053711e-01  9.4138633545211581e-01  9.3935350657310956e-01  9.3852231163701905e-01  9.3862896223104630e-01  9.3937593627998328e-01  9.4056089087763395e-01  9.4203776627264713e-01  9.4375284090139611e-01  9.4558919587249457e-01  9.4763791015902887e-01  9.5102365216694962e-01  9.5610590944459772e-01  9.6692782008840616e-01  9.8394655933413167e-01  1.0091530445865049e+00  1.0369333853531340e+00  1.0571948105274427e+00  1.0685183806717706e+00  1.0676320315917018e+00  1.0646092920055992e+00  1.0626528312798282e+00  1.0605487799569744e+00  1.0617535672446539e+00  1.0606322389567353e+00  1.0583434210346114e+00  1.0567198185182272e+00  1.0561251858983896e+00  1.0547583126477711e+00  1.0542129572588459e+00  1.0541016432557138e+00  1.0526594888334015e+00  1.0527662370860733e+00  1.0517709409830001e+00  1.0516918741924408e+00  1.0523807277363202e+00  1.0519815089530604e+00  1.0518608064267772e+00  1.0525865795980796e+00  1.0525965049760824e+00  1.0527922478772722e+00  1.0532092078315483e+00  1.0537422719674132e+00  1.0550271571442222e+00  1.0560452795624060e+00  1.0571646923569640e+00  1.0587890500220702e+00  1.0603026491090750e+00  1.0615837957762786e+00  1.0614389111527087e+00  1.0618257083300144e+00  1.0640770359343161e+00  1.0662605255071316e+00  1.0643179640534191e+00  1.0541585865682648e+00  1.0359237430366819e+00  1.0114071507505216e+00  9.8710870531042938e-01  9.6881260083004062e-01  9.5780265557274724e-01  9.5181699737780656e-01  9.4839595985912606e-01  9.4600522968848377e-01  9.4407622888075482e-01  9.4243446219158444e-01  9.4104384380013484e-01  9.4013666603021651e-01  9.3964912001331791e-01  9.4000039074665842e-01  9.4114450111352421e-01  9.4335528016097325e-01  9.4666647564680984e-01  9.5096118307572819e-01  9.5612139422351861e-01  9.6172289821064316e-01  9.6737409018223619e-01  9.7266039154222628e-01  9.7718689462176289e-01  9.8081510190679921e-01  9.8347970549509578e-01  9.8530584541362254e-01  9.8651831724317707e-01  9.8730262123239165e-01  9.8789303355375702e-01  9.8837731431884357e-01  9.8886453273958874e-01  9.8932460671538147e-01  9.8979643598207467e-01  9.9019702351540062e-01  9.9057310385147190e-01  9.9085015480633265e-01  9.9110518161112093e-01  9.9128181231181789e-01  9.9146926310831895e-01  9.9161133218304975e-01  9.9178917229567420e-01  9.9193471688339996e-01  9.9211793381934288e-01  9.9226650881967893e-01  9.9243798586107557e-01  9.9257368497567100e-01  9.9271720958642418e-01  9.9283213673006077e-01  9.9294286944798560e-01  9.9304464074304788e-01  9.9312729005510370e-01  9.9322546087521490e-01  9.9328938917215703e-01  9.9338911645253281e-01  9.9344072418967744e-01  9.9354053407441301e-01  9.9358591395079443e-01  9.9367689140368021e-01  9.9372322231384136e-01  9.9379608197739810e-01  9.9384880027661293e-01  9.9389809709216370e-01  9.9395959977112769e-01  9.9398531508584154e-01  9.9405390230684321e-01  9.9406224125564080e-01  9.9413000900105364e-01  9.9413339344657714e-01  9.9418837405468319e-01  9.9419938465571522e-01  9.9423183959178352e-01  9.9425877317839761e-01  9.9426459720873728e-01  9.9430756712807478e-01  9.9429248844815465e-01  9.9434134539983066e-01  9.9431826283688629e-01  9.9435928080485247e-01  9.9434262370045756e-01  9.9436214956198921e-01  9.9436317426955079e-01  9.9435453217005199e-01  9.9437431995019121e-01  9.9434157229110665e-01  9.9437191952599335e-01  9.9432627708585741e-01  9.9435315502154709e-01  9.9431033300691629e-01  9.9431673494583994e-01  9.9429091728477215e-01  9.9426636546914415e-01  9.9426095613994858e-01  9.9420769242933482e-01  9.9421397208576501e-01  9.9414437171883585e-01  9.9414637290164365e-01  9.9407848053659775e-01  9.9405957333254125e-01  9.9400882981812666e-01  9.9396133059738634e-01  9.9393332173309601e-01  9.9385982021497377e-01  9.9384979471561619e-01  9.9375979878627041e-01  9.9375317345780001e-01  9.9365886473055454e-01  9.9363357616005188e-01  9.9354515796726373e-01  9.9347877674107776e-01  9.9340198051813189e-01  9.9328327986299936e-01  9.9321953581010780e-01  9.9305934294400589e-01  9.9300900687652627e-01  9.9283456860243202e-01  9.9279671027374461e-01  9.9263162817934891e-01  9.9259004953573593e-01  9.9243522054693023e-01  9.9234920334843557e-01  9.9218259278773524e-01  9.9201320289202877e-01  9.9182186092961633e-01  9.9157687498492320e-01  9.9139538197697086e-01  9.9112931282671402e-01  9.9100586665254253e-01  9.9073714313608385e-01  9.9062882668176577e-01  9.9026509579018762e-01  9.9003529544591606e-01  9.8947625513309134e-01  9.8908489143430467e-01  9.8839609490554281e-01  9.8793945565841124e-01  9.8713353522456104e-01  9.8640322135315961e-01  9.8495757673642081e-01  9.8318995437010648e-01  9.8032565977054553e-01  9.7693233424737913e-01  9.7246396005768665e-01  9.6766251949507376e-01  9.6215264913213094e-01  9.5685765286433533e-01  9.5146383798396483e-01  9.4723843821122933e-01  9.4345332639423418e-01  9.4131851763238317e-01  9.3985028261599757e-01  9.3965143359240511e-01  9.3988935746157121e-01  9.4095250705574351e-01  9.4218030638847905e-01  9.4394070604736324e-01  9.4554051509511838e-01  9.4825582618263393e-01  9.5115605283547255e-01  9.5768650376262465e-01  9.6775572899458007e-01  9.8552591581899274e-01  1.0093277953158546e+00  1.0355407945872399e+00  1.0564999396387411e+00  1.0665548764594455e+00  1.0671846876387376e+00  1.0650180685436261e+00  1.0624624001922536e+00  1.0614561440812773e+00  1.0619107246587007e+00  1.0598729900806629e+00  1.0580835981110466e+00  1.0566321835087789e+00  1.0553064328427628e+00  1.0546279946841413e+00  1.0550083171503353e+00  1.0535035146661282e+00  1.0527468316514332e+00  1.0523461484917871e+00  1.0521296220595686e+00  1.0527471903556462e+00  1.0516918741924397e+00  1.0519970743797498e+00  1.0525865795980800e+00  1.0524698998616104e+00  1.0523978147554771e+00  1.0530177925644706e+00  1.0534313909554334e+00  1.0543653772832382e+00  1.0550953917866137e+00  1.0562623883259818e+00  1.0575099663928731e+00  1.0587905042814929e+00  1.0596367052613016e+00  1.0603623575969481e+00  1.0616733156754099e+00  1.0631443035444585e+00  1.0646661463194174e+00  1.0636095159665331e+00  1.0584322909121620e+00  1.0463951491959960e+00  1.0303034848638319e+00  1.0120069812963401e+00  9.9252888235966086e-01  9.7487770349294134e-01  9.6151481190235644e-01  9.5379200218376248e-01  9.4923682133627341e-01  9.4663939113721374e-01  9.4468458580962944e-01  9.4328123211677983e-01  9.4224537383797802e-01  9.4181469758661807e-01  9.4197140652414657e-01  9.4304705615736706e-01  9.4480150927588202e-01  9.4756550192230715e-01  9.5081049969061515e-01  9.5466194663648607e-01  9.5856731970206477e-01  9.6252429771322467e-01  9.6624065629121791e-01  9.6979763076025183e-01  9.7310407182759495e-01  9.7627392253524725e-01  9.7918817004778735e-01  9.8185130792532671e-01  9.8414478828689589e-01  9.8599258613221508e-01  9.8741872753802185e-01  9.8837926432345125e-01  9.8902771931444822e-01  9.8940264137178702e-01  9.8965727853636720e-01  9.8987946325744514e-01  9.9009404994231509e-01  9.9041398240441225e-01  9.9068863597821122e-01  9.9109064322322016e-01  9.9133962500985517e-01  9.9169895315118328e-01  9.9184264699618951e-01  9.9208905442485940e-01  9.9215095824917121e-01  9.9229879014228728e-01  9.9236274100211963e-01  9.9245738047441001e-01  9.9258727273271241e-01  9.9265228986466014e-01  9.9285607120818042e-01  9.9289127223914375e-01  9.9312803196838162e-01  9.9313672289158916e-01  9.9335171498005270e-01  9.9335234836840014e-01  9.9350494826703251e-01  9.9352825048101956e-01  9.9360082909804426e-01  9.9367153501869010e-01  9.9367301158875732e-01  9.9379093525812201e-01  9.9375149634291959e-01  9.9389058893966209e-01  9.9385064048873950e-01  9.9397085406209340e-01  9.9396804889484869e-01  9.9403254100420191e-01  9.9408972794306716e-01  9.9408182203653550e-01  9.9419632750841302e-01  9.9412880897977551e-01  9.9427330185950491e-01  9.9418087147800915e-01  9.9431504536356630e-01  9.9423981329662159e-01  9.9432612385728392e-01  9.9429881594117975e-01  9.9432034869575592e-01  9.9434666321331933e-01  9.9431131958456731e-01  9.9437322106632198e-01  9.9430954342446254e-01  9.9437272614910988e-01  9.9431733691485780e-01  9.9434851689345327e-01  9.9432782690864818e-01  9.9430943788649628e-01  9.9433092226981712e-01  9.9426510573910221e-01  9.9431650075978562e-01  9.9422435149345356e-01  9.9427820887283069e-01  9.9418939918159488e-01  9.9421799785507081e-01  9.9415479214407088e-01  9.9414373090307140e-01  9.9411260558033865e-01  9.9406409579493515e-01  9.9405464180774850e-01  9.9398541942014940e-01  9.9397551042157528e-01  9.9390619687163528e-01  9.9387427400179340e-01  9.9381915304037605e-01  9.9375178716460266e-01  9.9371536599080501e-01  9.9361001777605351e-01  9.9358846370891896e-01  9.9345338248817139e-01  9.9343811197492438e-01  9.9328929765035956e-01  9.9326928001694781e-01  9.9312405927921277e-01  9.9308712194732340e-01  9.9295199324405026e-01  9.9288742003486230e-01  9.9275335326859193e-01  9.9265177353574352e-01  9.9250583360889111e-01  9.9236451723386043e-01  9.9220475217660931e-01  9.9203802683843623e-01  9.9187429069763433e-01  9.9170384637118114e-01  9.9154030587108799e-01  9.9136079955286727e-01  9.9117026946189501e-01  9.9093674992842884e-01  9.9067031719519316e-01  9.9034416046020157e-01  9.8998857524015793e-01  9.8958413678621815e-01  9.8916511960795306e-01  9.8867687110068669e-01  9.8811815446586249e-01  9.8734345937195644e-01  9.8631719082661584e-01  9.8480966667871961e-01  9.8282000687215731e-01  9.8017157986676917e-01  9.7700280863140110e-01  9.7334638345617031e-01  9.6952588651453941e-01  9.6559481995625418e-01  9.6185361038692163e-01  9.5801130717147831e-01  9.5442541976852657e-01  9.5068121191993837e-01  9.4740977920474734e-01  9.4466908252193371e-01  9.4270012687885685e-01  9.4165540553218574e-01  9.4153662364270496e-01  9.4190122425785083e-01  9.4317832084758124e-01  9.4418616615314477e-01  9.4665888664573972e-01  9.4872284223097225e-01  9.5408022326962516e-01  9.6138707796229961e-01  9.7466139491893322e-01  9.9192432321962054e-01  1.0117803734057997e+00  1.0319720400293164e+00  1.0461641795766876e+00  1.0577520549732708e+00  1.0607837014182424e+00  1.0640196017534298e+00  1.0637489412379997e+00  1.0625109993021100e+00  1.0618104418624028e+00  1.0589892450977338e+00  1.0584236800489781e+00  1.0574464797584455e+00  1.0562155132600399e+00  1.0556114285141047e+00  1.0544297347973224e+00  1.0532032366842377e+00  1.0530888000529997e+00  1.0528921900743597e+00  1.0530362832874658e+00  1.0521296220595695e+00  1.0517709409830003e+00  1.0525603674756909e+00  1.0525965049760817e+00  1.0523978147554758e+00  1.0529503161963301e+00  1.0534173076390660e+00  1.0539438282715698e+00  1.0546577193450544e+00  1.0558967792250644e+00  1.0568321998881924e+00  1.0574968993657805e+00  1.0583344498217975e+00  1.0591881665693610e+00  1.0606868189465510e+00  1.0618382247545013e+00  1.0640228233779931e+00  1.0641888181284804e+00  1.0592077875932886e+00  1.0476714433669561e+00  1.0323854174073199e+00  1.0202246228698568e+00  1.0103796372276825e+00  1.0000851937222652e+00  9.8557349470534583e-01  9.7011385778448755e-01  9.5867309026507119e-01  9.5158422730534864e-01  9.4804647551498722e-01  9.4592037084223302e-01  9.4485444266734142e-01  9.4444047735405923e-01  9.4475131513178112e-01  9.4584807506179591e-01  9.4765759550636486e-01  9.5008378044856878e-01  9.5288040090525927e-01  9.5566761531171940e-01  9.5830344496177644e-01  9.6050031992639640e-01  9.6245564544625883e-01  9.6425664219580132e-01  9.6624917263054033e-01  9.6861731606651791e-01  9.7144105675448633e-01  9.7462996578269534e-01  9.7792999159122751e-01  9.8105625060969670e-01  9.8372664806494592e-01  9.8583342378442484e-01  9.8728576515141675e-01  9.8827814816806092e-01  9.8882722155269198e-01  9.8924736147906256e-01  9.8949475985654245e-01  9.8983739230174350e-01  9.9011298933114356e-01  9.9052097423337992e-01  9.9083154661464112e-01  9.9122050982953591e-01  9.9146556839729805e-01  9.9174842204605673e-01  9.9189319313753144e-01  9.9207287538518485e-01  9.9216172705475147e-01  9.9229415822853273e-01  9.9238366792508326e-01  9.9250876851305814e-01  9.9262509103884800e-01  9.9274560229612596e-01  9.9288199280660949e-01  9.9298403710721828e-01  9.9312378228526865e-01  9.9319482084558808e-01  9.9332738271044707e-01  9.9336913317793507e-01  9.9348758687531791e-01  9.9351433350095575e-01  9.9361346933863870e-01  9.9364169592497464e-01  9.9371612489147687e-01  9.9375987956227785e-01  9.9380435406032863e-01  9.9387021614504312e-01  9.9388485635216028e-01  9.9396827913407004e-01  9.9396279497871398e-01  9.9404932726052664e-01  9.9403993965859549e-01  9.9411163576747563e-01  9.9411570634303392e-01  9.9415612923112717e-01  9.9418614162447938e-01  9.9418857001428151e-01  9.9424432424757592e-01  9.9421593058357471e-01  9.9428454279209622e-01  9.9424347299438454e-01  9.9430257173028835e-01  9.9427310254357193e-01  9.9430076019743929e-01  9.9429979773648169e-01  9.9428627732559482e-01  9.9431622488658800e-01  9.9426696098501144e-01  9.9431485565486200e-01  9.9425003318558203e-01  9.9429134307954681e-01  9.9423707792310523e-01  9.9424899089238516e-01  9.9422268920005119e-01  9.9419520286328500e-01  9.9419956102390572e-01  9.9413791435439958e-01  9.9416021837183433e-01  9.9408328315853367e-01  9.9409901024146086e-01  9.9403057869402733e-01  9.9401576959682636e-01  9.9397155618116495e-01  9.9391305260853668e-01  9.9389511580080692e-01  9.9379512908668233e-01  9.9379052327405248e-01  9.9366688412310589e-01  9.9365369964584083e-01  9.9353319643360727e-01  9.9349120641785971e-01  9.9339852085247404e-01  9.9331781070503877e-01  9.9326403203866609e-01  9.9314630918222879e-01  9.9312287773982721e-01  9.9297332604538169e-01  9.9295600820157182e-01  9.9277784261555024e-01  9.9273508186696391e-01  9.9253553777102665e-01  9.9244494681050166e-01  9.9224131860489850e-01  9.9210681701455594e-01  9.9192088050623939e-01  9.9176350065158969e-01  9.9160223820063587e-01  9.9142130139470219e-01  9.9125130237132664e-01  9.9100352831112892e-01  9.9075879113740328e-01  9.9039743657204127e-01  9.9004224055300749e-01  9.8957507852030624e-01  9.8912625525580589e-01  9.8855149938658238e-01  9.8791376978554624e-01  9.8698101480997724e-01  9.8572088027560778e-01  9.8387518842048161e-01  9.8146266199539278e-01  9.7845390738510851e-01  9.7509076506989689e-01  9.7164084019208685e-01  9.6844655242999689e-01  9.6568134187632948e-01  9.6348657800363224e-01  9.6164871997092505e-01  9.6004796844711116e-01  9.5827385681607191e-01  9.5607094806476245e-01  9.5360900701707252e-01  9.5070950182724101e-01  9.4812257486232254e-01  9.4610114373432785e-01  9.4469213106083627e-01  9.4441224849588179e-01  9.4449687989284503e-01  9.4577902733065367e-01  9.4759810282490864e-01  9.5138347131589251e-01  9.5813967308765058e-01  9.6853608527869439e-01  9.8362608261440765e-01  9.9824795229297625e-01  1.0132606186107382e+00  1.0225763100765555e+00  1.0347633967762822e+00  1.0460621352310806e+00  1.0570224915427302e+00  1.0653508782499104e+00  1.0644352436853592e+00  1.0638699141325039e+00  1.0603639623218903e+00  1.0579843170807999e+00  1.0590339760024250e+00  1.0577374317685289e+00  1.0565295901246505e+00  1.0556718170433175e+00  1.0543253881486723e+00  1.0537286298894848e+00  1.0535456313292457e+00  1.0533179722735175e+00  1.0528921900743611e+00  1.0523461484917860e+00  1.0527662370860738e+00  1.0528725237271810e+00  1.0527922478772720e+00  1.0530177925644701e+00  1.0534173076390678e+00  1.0538001083786515e+00  1.0542042511738148e+00  1.0555950058866879e+00  1.0565048923273832e+00  1.0570830633270365e+00  1.0577879456087573e+00  1.0577950593686265e+00  1.0586416262994387e+00  1.0600861948292037e+00  1.0634619176596234e+00  1.0644080194819276e+00  1.0593148883238290e+00  1.0482894382227452e+00  1.0350483357338933e+00  1.0239027235430782e+00  1.0163015292441859e+00  1.0101881719978527e+00  1.0044296934045802e+00  9.9396676092579861e-01  9.7944558696898198e-01  9.6534462407124522e-01  9.5544903191009301e-01  9