<?xml version="1.0"?>
<VTKFile type="UnstructuredGrid"  version="0.1"  >
<UnstructuredGrid>
<Piece  NumberOfPoints="40401" NumberOfCells="80000">
<Points>
<DataArray  type="Float64"  NumberOfComponents="3"  format="ascii">-5 -5 0  -4.95 -5 0  -4.9 -5 0  -4.85 -5 0  -4.8 -5 0  -4.75 -5 0  -4.7 -5 0  -4.65 -5 0  -4.6 -5 0  -4.55 -5 0  -4.5 -5 0  -4.45 -5 0  -4.4 -5 0  -4.35 -5 0  -4.3 -5 0  -4.25 -5 0  -4.2 -5 0  -4.15 -5 0  -4.1 -5 0  -4.05 -5 0  -4 -5 0  -3.95 -5 0  -3.9 -5 0  -3.85 -5 0  -3.8 -5 0  -3.75 -5 0  -3.7 -5 0  -3.65 -5 0  -3.6 -5 0  -3.55 -5 0  -3.5 -5 0  -3.45 -5 0  -3.4 -5 0  -3.35 -5 0  -3.3 -5 0  -3.25 -5 0  -3.2 -5 0  -3.15 -5 0  -3.1 -5 0  -3.05 -5 0  -3 -5 0  -2.95 -5 0  -2.9 -5 0  -2.85 -5 0  -2.8 -5 0  -2.75 -5 0  -2.7 -5 0  -2.65 -5 0  -2.6 -5 0  -2.55 -5 0  -2.5 -5 0  -2.45 -5 0  -2.4 -5 0  -2.35 -5 0  -2.3 -5 0  -2.25 -5 0  -2.2 -5 0  -2.15 -5 0  -2.1 -5 0  -2.05 -5 0  -2 -5 0  -1.95 -5 0  -1.9 -5 0  -1.85 -5 0  -1.8 -5 0  -1.75 -5 0  -1.7 -5 0  -1.65 -5 0  -1.6 -5 0  -1.55 -5 0  -1.5 -5 0  -1.45 -5 0  -1.4 -5 0  -1.35 -5 0  -1.3 -5 0  -1.25 -5 0  -1.2 -5 0  -1.15 -5 0  -1.1 -5 0  -1.05 -5 0  -1 -5 0  -0.9500000000000002 -5 0  -0.9000000000000004 -5 0  -0.8499999999999996 -5 0  -0.7999999999999998 -5 0  -0.75 -5 0  -0.7000000000000002 -5 0  -0.6500000000000004 -5 0  -0.5999999999999996 -5 0  -0.5499999999999998 -5 0  -0.5 -5 0  -0.4500000000000002 -5 0  -0.4000000000000004 -5 0  -0.3499999999999996 -5 0  -0.2999999999999998 -5 0  -0.25 -5 0  -0.2000000000000002 -5 0  -0.1500000000000004 -5 0  -0.09999999999999964 -5 0  -0.04999999999999982 -5 0  0 -5 0  0.04999999999999982 -5 0  0.09999999999999964 -5 0  0.1500000000000004 -5 0  0.2000000000000002 -5 0  0.25 -5 0  0.2999999999999998 -5 0  0.3499999999999996 -5 0  0.4000000000000004 -5 0  0.4500000000000002 -5 0  0.5 -5 0  0.5499999999999998 -5 0  0.5999999999999996 -5 0  0.6500000000000004 -5 0  0.7000000000000002 -5 0  0.75 -5 0  0.7999999999999998 -5 0  0.8499999999999996 -5 0  0.9000000000000004 -5 0  0.9500000000000002 -5 0  1 -5 0  1.05 -5 0  1.1 -5 0  1.15 -5 0  1.2 -5 0  1.25 -5 0  1.3 -5 0  1.35 -5 0  1.4 -5 0  1.45 -5 0  1.5 -5 0  1.55 -5 0  1.6 -5 0  1.65 -5 0  1.7 -5 0  1.75 -5 0  1.8 -5 0  1.85 -5 0  1.9 -5 0  1.95 -5 0  2 -5 0  2.05 -5 0  2.1 -5 0  2.15 -5 0  2.2 -5 0  2.25 -5 0  2.3 -5 0  2.35 -5 0  2.4 -5 0  2.45 -5 0  2.5 -5 0  2.55 -5 0  2.6 -5 0  2.65 -5 0  2.7 -5 0  2.75 -5 0  2.8 -5 0  2.85 -5 0  2.9 -5 0  2.95 -5 0  3 -5 0  3.050000000000001 -5 0  3.1 -5 0  3.15 -5 0  3.199999999999999 -5 0  3.25 -5 0  3.300000000000001 -5 0  3.35 -5 0  3.4 -5 0  3.449999999999999 -5 0  3.5 -5 0  3.550000000000001 -5 0  3.6 -5 0  3.65 -5 0  3.699999999999999 -5 0  3.75 -5 0  3.800000000000001 -5 0  3.85 -5 0  3.9 -5 0  3.949999999999999 -5 0  4 -5 0  4.050000000000001 -5 0  4.1 -5 0  4.15 -5 0  4.199999999999999 -5 0  4.25 -5 0  4.300000000000001 -5 0  4.35 -5 0  4.4 -5 0  4.449999999999999 -5 0  4.5 -5 0  4.550000000000001 -5 0  4.6 -5 0  4.65 -5 0  4.699999999999999 -5 0  4.75 -5 0  4.800000000000001 -5 0  4.85 -5 0  4.9 -5 0  4.949999999999999 -5 0  5 -5 0  -5 -4.95 0  -4.95 -4.95 0  -4.9 -4.95 0  -4.85 -4.95 0  -4.8 -4.95 0  -4.75 -4.95 0  -4.7 -4.95 0  -4.65 -4.95 0  -4.6 -4.95 0  -4.55 -4.95 0  -4.5 -4.95 0  -4.45 -4.95 0  -4.4 -4.95 0  -4.35 -4.95 0  -4.3 -4.95 0  -4.25 -4.95 0  -4.2 -4.95 0  -4.15 -4.95 0  -4.1 -4.95 0  -4.05 -4.95 0  -4 -4.95 0  -3.95 -4.95 0  -3.9 -4.95 0  -3.85 -4.95 0  -3.8 -4.95 0  -3.75 -4.95 0  -3.7 -4.95 0  -3.65 -4.95 0  -3.6 -4.95 0  -3.55 -4.95 0  -3.5 -4.95 0  -3.45 -4.95 0  -3.4 -4.95 0  -3.35 -4.95 0  -3.3 -4.95 0  -3.25 -4.95 0  -3.2 -4.95 0  -3.15 -4.95 0  -3.1 -4.95 0  -3.05 -4.95 0  -3 -4.95 0  -2.95 -4.95 0  -2.9 -4.95 0  -2.85 -4.95 0  -2.8 -4.95 0  -2.75 -4.95 0  -2.7 -4.95 0  -2.65 -4.95 0  -2.6 -4.95 0  -2.55 -4.95 0  -2.5 -4.95 0  -2.45 -4.95 0  -2.4 -4.95 0  -2.35 -4.95 0  -2.3 -4.95 0  -2.25 -4.95 0  -2.2 -4.95 0  -2.15 -4.95 0  -2.1 -4.95 0  -2.05 -4.95 0  -2 -4.95 0  -1.95 -4.95 0  -1.9 -4.95 0  -1.85 -4.95 0  -1.8 -4.95 0  -1.75 -4.95 0  -1.7 -4.95 0  -1.65 -4.95 0  -1.6 -4.95 0  -1.55 -4.95 0  -1.5 -4.95 0  -1.45 -4.95 0  -1.4 -4.95 0  -1.35 -4.95 0  -1.3 -4.95 0  -1.25 -4.95 0  -1.2 -4.95 0  -1.15 -4.95 0  -1.1 -4.95 0  -1.05 -4.95 0  -1 -4.95 0  -0.9500000000000002 -4.95 0  -0.9000000000000004 -4.95 0  -0.8499999999999996 -4.95 0  -0.7999999999999998 -4.95 0  -0.75 -4.95 0  -0.7000000000000002 -4.95 0  -0.6500000000000004 -4.95 0  -0.5999999999999996 -4.95 0  -0.5499999999999998 -4.95 0  -0.5 -4.95 0  -0.4500000000000002 -4.95 0  -0.4000000000000004 -4.95 0  -0.3499999999999996 -4.95 0  -0.2999999999999998 -4.95 0  -0.25 -4.95 0  -0.2000000000000002 -4.95 0  -0.1500000000000004 -4.95 0  -0.09999999999999964 -4.95 0  -0.04999999999999982 -4.95 0  0 -4.95 0  0.04999999999999982 -4.95 0  0.09999999999999964 -4.95 0  0.1500000000000004 -4.95 0  0.2000000000000002 -4.95 0  0.25 -4.95 0  0.2999999999999998 -4.95 0  0.3499999999999996 -4.95 0  0.4000000000000004 -4.95 0  0.4500000000000002 -4.95 0  0.5 -4.95 0  0.5499999999999998 -4.95 0  0.5999999999999996 -4.95 0  0.6500000000000004 -4.95 0  0.7000000000000002 -4.95 0  0.75 -4.95 0  0.7999999999999998 -4.95 0  0.8499999999999996 -4.95 0  0.9000000000000004 -4.95 0  0.9500000000000002 -4.95 0  1 -4.95 0  1.05 -4.95 0  1.1 -4.95 0  1.15 -4.95 0  1.2 -4.95 0  1.25 -4.95 0  1.3 -4.95 0  1.35 -4.95 0  1.4 -4.95 0  1.45 -4.95 0  1.5 -4.95 0  1.55 -4.95 0  1.6 -4.95 0  1.65 -4.95 0  1.7 -4.95 0  1.75 -4.95 0  1.8 -4.95 0  1.85 -4.95 0  1.9 -4.95 0  1.95 -4.95 0  2 -4.95 0  2.05 -4.95 0  2.1 -4.95 0  2.15 -4.95 0  2.2 -4.95 0  2.25 -4.95 0  2.3 -4.95 0  2.35 -4.95 0  2.4 -4.95 0  2.45 -4.95 0  2.5 -4.95 0  2.55 -4.95 0  2.6 -4.95 0  2.65 -4.95 0  2.7 -4.95 0  2.75 -4.95 0  2.8 -4.95 0  2.85 -4.95 0  2.9 -4.95 0  2.95 -4.95 0  3 -4.95 0  3.050000000000001 -4.95 0  3.1 -4.95 0  3.15 -4.95 0  3.199999999999999 -4.95 0  3.25 -4.95 0  3.300000000000001 -4.95 0  3.35 -4.95 0  3.4 -4.95 0  3.449999999999999 -4.95 0  3.5 -4.95 0  3.550000000000001 -4.95 0  3.6 -4.95 0  3.65 -4.95 0  3.699999999999999 -4.95 0  3.75 -4.95 0  3.800000000000001 -4.95 0  3.85 -4.95 0  3.9 -4.95 0  3.949999999999999 -4.95 0  4 -4.95 0  4.050000000000001 -4.95 0  4.1 -4.95 0  4.15 -4.95 0  4.199999999999999 -4.95 0  4.25 -4.95 0  4.300000000000001 -4.95 0  4.35 -4.95 0  4.4 -4.95 0  4.449999999999999 -4.95 0  4.5 -4.95 0  4.550000000000001 -4.95 0  4.6 -4.95 0  4.65 -4.95 0  4.699999999999999 -4.95 0  4.75 -4.95 0  4.800000000000001 -4.95 0  4.85 -4.95 0  4.9 -4.95 0  4.949999999999999 -4.95 0  5 -4.95 0  -5 -4.9 0  -4.95 -4.9 0  -4.9 -4.9 0  -4.85 -4.9 0  -4.8 -4.9 0  -4.75 -4.9 0  -4.7 -4.9 0  -4.65 -4.9 0  -4.6 -4.9 0  -4.55 -4.9 0  -4.5 -4.9 0  -4.45 -4.9 0  -4.4 -4.9 0  -4.35 -4.9 0  -4.3 -4.9 0  -4.25 -4.9 0  -4.2 -4.9 0  -4.15 -4.9 0  -4.1 -4.9 0  -4.05 -4.9 0  -4 -4.9 0  -3.95 -4.9 0  -3.9 -4.9 0  -3.85 -4.9 0  -3.8 -4.9 0  -3.75 -4.9 0  -3.7 -4.9 0  -3.65 -4.9 0  -3.6 -4.9 0  -3.55 -4.9 0  -3.5 -4.9 0  -3.45 -4.9 0  -3.4 -4.9 0  -3.35 -4.9 0  -3.3 -4.9 0  -3.25 -4.9 0  -3.2 -4.9 0  -3.15 -4.9 0  -3.1 -4.9 0  -3.05 -4.9 0  -3 -4.9 0  -2.95 -4.9 0  -2.9 -4.9 0  -2.85 -4.9 0  -2.8 -4.9 0  -2.75 -4.9 0  -2.7 -4.9 0  -2.65 -4.9 0  -2.6 -4.9 0  -2.55 -4.9 0  -2.5 -4.9 0  -2.45 -4.9 0  -2.4 -4.9 0  -2.35 -4.9 0  -2.3 -4.9 0  -2.25 -4.9 0  -2.2 -4.9 0  -2.15 -4.9 0  -2.1 -4.9 0  -2.05 -4.9 0  -2 -4.9 0  -1.95 -4.9 0  -1.9 -4.9 0  -1.85 -4.9 0  -1.8 -4.9 0  -1.75 -4.9 0  -1.7 -4.9 0  -1.65 -4.9 0  -1.6 -4.9 0  -1.55 -4.9 0  -1.5 -4.9 0  -1.45 -4.9 0  -1.4 -4.9 0  -1.35 -4.9 0  -1.3 -4.9 0  -1.25 -4.9 0  -1.2 -4.9 0  -1.15 -4.9 0  -1.1 -4.9 0  -1.05 -4.9 0  -1 -4.9 0  -0.9500000000000002 -4.9 0  -0.9000000000000004 -4.9 0  -0.8499999999999996 -4.9 0  -0.7999999999999998 -4.9 0  -0.75 -4.9 0  -0.7000000000000002 -4.9 0  -0.6500000000000004 -4.9 0  -0.5999999999999996 -4.9 0  -0.5499999999999998 -4.9 0  -0.5 -4.9 0  -0.4500000000000002 -4.9 0  -0.4000000000000004 -4.9 0  -0.3499999999999996 -4.9 0  -0.2999999999999998 -4.9 0  -0.25 -4.9 0  -0.2000000000000002 -4.9 0  -0.1500000000000004 -4.9 0  -0.09999999999999964 -4.9 0  -0.04999999999999982 -4.9 0  0 -4.9 0  0.04999999999999982 -4.9 0  0.09999999999999964 -4.9 0  0.1500000000000004 -4.9 0  0.2000000000000002 -4.9 0  0.25 -4.9 0  0.2999999999999998 -4.9 0  0.3499999999999996 -4.9 0  0.4000000000000004 -4.9 0  0.4500000000000002 -4.9 0  0.5 -4.9 0  0.5499999999999998 -4.9 0  0.5999999999999996 -4.9 0  0.6500000000000004 -4.9 0  0.7000000000000002 -4.9 0  0.75 -4.9 0  0.7999999999999998 -4.9 0  0.8499999999999996 -4.9 0  0.9000000000000004 -4.9 0  0.9500000000000002 -4.9 0  1 -4.9 0  1.05 -4.9 0  1.1 -4.9 0  1.15 -4.9 0  1.2 -4.9 0  1.25 -4.9 0  1.3 -4.9 0  1.35 -4.9 0  1.4 -4.9 0  1.45 -4.9 0  1.5 -4.9 0  1.55 -4.9 0  1.6 -4.9 0  1.65 -4.9 0  1.7 -4.9 0  1.75 -4.9 0  1.8 -4.9 0  1.85 -4.9 0  1.9 -4.9 0  1.95 -4.9 0  2 -4.9 0  2.05 -4.9 0  2.1 -4.9 0  2.15 -4.9 0  2.2 -4.9 0  2.25 -4.9 0  2.3 -4.9 0  2.35 -4.9 0  2.4 -4.9 0  2.45 -4.9 0  2.5 -4.9 0  2.55 -4.9 0  2.6 -4.9 0  2.65 -4.9 0  2.7 -4.9 0  2.75 -4.9 0  2.8 -4.9 0  2.85 -4.9 0  2.9 -4.9 0  2.95 -4.9 0  3 -4.9 0  3.050000000000001 -4.9 0  3.1 -4.9 0  3.15 -4.9 0  3.199999999999999 -4.9 0  3.25 -4.9 0  3.300000000000001 -4.9 0  3.35 -4.9 0  3.4 -4.9 0  3.449999999999999 -4.9 0  3.5 -4.9 0  3.550000000000001 -4.9 0  3.6 -4.9 0  3.65 -4.9 0  3.699999999999999 -4.9 0  3.75 -4.9 0  3.800000000000001 -4.9 0  3.85 -4.9 0  3.9 -4.9 0  3.949999999999999 -4.9 0  4 -4.9 0  4.050000000000001 -4.9 0  4.1 -4.9 0  4.15 -4.9 0  4.199999999999999 -4.9 0  4.25 -4.9 0  4.300000000000001 -4.9 0  4.35 -4.9 0  4.4 -4.9 0  4.449999999999999 -4.9 0  4.5 -4.9 0  4.550000000000001 -4.9 0  4.6 -4.9 0  4.65 -4.9 0  4.699999999999999 -4.9 0  4.75 -4.9 0  4.800000000000001 -4.9 0  4.85 -4.9 0  4.9 -4.9 0  4.949999999999999 -4.9 0  5 -4.9 0  -5 -4.85 0  -4.95 -4.85 0  -4.9 -4.85 0  -4.85 -4.85 0  -4.8 -4.85 0  -4.75 -4.85 0  -4.7 -4.85 0  -4.65 -4.85 0  -4.6 -4.85 0  -4.55 -4.85 0  -4.5 -4.85 0  
[...]
<PointData  Scalars="r"> 
<DataArray  type="Float64"  Name="r"  format="ascii">1.0221136480634130e+00  1.0219568427605703e+00  1.0225944952129984e+00  1.0227090701538102e+00  1.0227087630701857e+00  1.0231835241695817e+00  1.0235617695459700e+00  1.0246617195075201e+00  1.0253035920246958e+00  1.0258464055866943e+00  1.0270684383481146e+00  1.0282179431947938e+00  1.0304779388065151e+00  1.0322826629635036e+00  1.0339630707467535e+00  1.0356264709490757e+00  1.0370479135142803e+00  1.0395278961643315e+00  1.0401428514026836e+00  1.0412561000551102e+00  1.0432241880198274e+00  1.0444657947813547e+00  1.0348586559712651e+00  1.0099701770988605e+00  9.8048312681751426e-01  9.5805866966692921e-01  9.4648895400070554e-01  9.4165962161251604e-01  9.4101971300229459e-01  9.4219548747790505e-01  9.4522559346404422e-01  9.4932757703851844e-01  9.5483714837354949e-01  9.6092007501162124e-01  9.6740554385372823e-01  9.7337781266149570e-01  9.7849746063945087e-01  9.8239457443582601e-01  9.8495650191575057e-01  9.8659413883085367e-01  9.8735721623188444e-01  9.8791112159953653e-01  9.8822399480763579e-01  9.8872518276049470e-01  9.8919875895810272e-01  9.8983294281534151e-01  9.9032395491229663e-01  9.9083025054571328e-01  9.9112357929138351e-01  9.9137267881993119e-01  9.9152143279602256e-01  9.9163653865178436e-01  9.9179641860877732e-01  9.9193370679861192e-01  9.9215804090572890e-01  9.9234676229170615e-01  9.9257459705954487e-01  9.9276361041060379e-01  9.9292157859245789e-01  9.9307713274086340e-01  9.9315418265319855e-01  9.9328735565519521e-01  9.9332381448247975e-01  9.9345507904933472e-01  9.9350047172954170e-01  9.9362547700051418e-01  9.9370599931951809e-01  9.9380490029479096e-01  9.9391650839741452e-01  9.9397565713024594e-01  9.9409877601887875e-01  9.9412530712716618e-01  9.9423503730177498e-01  9.9425552808558970e-01  9.9433044127528336e-01  9.9437377024785656e-01  9.9440248128422359e-01  9.9448416720420774e-01  9.9447108104163062e-01  9.9458264239888217e-01  9.9454815573311905e-01  9.9466395638643257e-01  9.9463520636129332e-01  9.9472511263268792e-01  9.9472645370732904e-01  9.9477023182588942e-01  9.9480871232975088e-01  9.9480951442938581e-01  9.9487087021763054e-01  9.9485074983307753e-01  9.9490824638152386e-01  9.9489697723896375e-01  9.9492370805291475e-01  9.9494315292210078e-01  9.9492746550588373e-01  9.9497969065265679e-01  9.9493068799892614e-01  9.9499852488571661e-01  9.9494062276272566e-01  9.9499594661948632e-01  9.9495720775021812e-01  9.9497737613898407e-01  9.9497144638896251e-01  9.9495393924927811e-01  9.9497314104244960e-01  9.9493371652984863e-01  9.9495618326439228e-01  9.9492052810261200e-01  9.9491912971313967e-01  9.9491069234204099e-01  9.9486925490053479e-01  9.9489245963929240e-01  9.9481551171510130e-01  9.9485525512147177e-01  9.9476214034434429e-01  9.9479366721844809e-01  9.9470881006611822e-01  9.9470906573133033e-01  9.9465122834267516e-01  9.9461090757892634e-01  9.9458424412954272e-01  9.9451274067182149e-01  9.9450510103199830e-01  9.9442594479641222e-01  9.9441285804918722e-01  9.9435037932036063e-01  9.9430552619429846e-01  9.9427092927128491e-01  9.9417704529696682e-01  9.9416478686509979e-01  9.9402084936298529e-01  9.9401680386758628e-01  9.9384048112565260e-01  9.9383321068525166e-01  9.9365414719518752e-01  9.9363884241306166e-01  9.9348316377104384e-01  9.9345011476899514e-01  9.9332286079597942e-01  9.9324831562012250e-01  9.9312825694316786e-01  9.9298939197916625e-01  9.9285436243098801e-01  9.9266002894158256e-01  9.9252298539582717e-01  9.9231984015749219e-01  9.9220964151943403e-01  9.9202941334236705e-01  9.9192355698310031e-01  9.9171396348119112e-01  9.9153759997724800e-01  9.9121876332932113e-01  9.9095318596360449e-01  9.9057052191821782e-01  9.9031385327048971e-01  9.8996465253022392e-01  9.8968432837894138e-01  9.8924670388680902e-01  9.8867143712684635e-01  9.8783312670809775e-01  9.8695808522419992e-01  9.8573231230091252e-01  9.8442347734598901e-01  9.8231870546854194e-01  9.7931611507072547e-01  9.7462638815013580e-01  9.6874387285722585e-01  9.6183633010752112e-01  9.5501135451562780e-01  9.4890456171719761e-01  9.4438668418326499e-01  9.4113396924152437e-01  9.4041746240266821e-01  9.4132789848059739e-01  9.4779855738986596e-01  9.5946886607343584e-01  9.8033061342104055e-01  1.0063928875326915e+00  1.0292788046318404e+00  1.0446660747734278e+00  1.0459415845674649e+00  1.0440726531564966e+00  1.0398464202695623e+00  1.0372803747139920e+00  1.0378691203275554e+00  1.0361849862039523e+00  1.0340888619091191e+00  1.0322050957036730e+00  1.0297558826828292e+00  1.0283103053179203e+00  1.0278445356099892e+00  1.0266965271256965e+00  1.0249832771136835e+00  1.0244526674860381e+00  1.0238021741961061e+00  1.0231564988727497e+00  1.0225867817506793e+00  1.0220099626677051e+00  1.0221950991785811e+00  1.0218019084058818e+00  1.0214920243512551e+00  1.0219568427605701e+00  1.0224225476060198e+00  1.0224157781081677e+00  1.0223518052525431e+00  1.0229309072365240e+00  1.0233203774989241e+00  1.0240191092700652e+00  1.0244706860172654e+00  1.0249074711398265e+00  1.0261491205349003e+00  1.0272898252835765e+00  1.0288631967929223e+00  1.0304007387115248e+00  1.0318913844905402e+00  1.0342530401720853e+00  1.0361138390900870e+00  1.0376711155770411e+00  1.0380209852014759e+00  1.0394000206250744e+00  1.0426811260324547e+00  1.0442878184189157e+00  1.0403364560510282e+00  1.0276543165929435e+00  1.0072554275200090e+00  9.8314631146813203e-01  9.6247457442028883e-01  9.4960373248338714e-01  9.4366205163103256e-01  9.4223210804140178e-01  9.4338158807501271e-01  9.4618500710086395e-01  9.5031984245025414e-01  9.5542942901888284e-01  9.6116659234092128e-01  9.6707419624592905e-01  9.7260618028995538e-01  9.7742830078823462e-01  9.8118241991733746e-01  9.8394019042940173e-01  9.8577103489637918e-01  9.8691689831651075e-01  9.8771504464591553e-01  9.8824775310518709e-01  9.8879494961531655e-01  9.8927836847259021e-01  9.8979233484299789e-01  9.9025320535858774e-01  9.9066292982880233e-01  9.9098439822043283e-01  9.9125809350373306e-01  9.9145209687636882e-01  9.9164797959919115e-01  9.9181189260188363e-01  9.9199490809507784e-01  9.9217630615052665e-01  9.9236241011869852e-01  9.9254486968027555e-01  9.9271288244677902e-01  9.9286992043016087e-01  9.9300397542814844e-01  9.9313157152231313e-01  9.9323501285412485e-01  9.9334660926992502e-01  9.9343409473110234e-01  9.9353964478536250e-01  9.9362244527510468e-01  9.9372431533321970e-01  9.9380336189948437e-01  9.9389722863657204e-01  9.9397227850543968e-01  9.9405108164570199e-01  9.9412308899840640e-01  9.9418391990189747e-01  9.9425437084968904e-01  9.9429886793854039e-01  9.9436759057220470e-01  9.9440232715178922e-01  9.9446542003298455e-01  9.9449803478808174e-01  9.9455008337553119e-01  9.9458817233924057e-01  9.9462346594336737e-01  9.9467057905203671e-01  9.9468948010130809e-01  9.9474150572950937e-01  9.9474996066947419e-01  9.9479962207276240e-01  9.9480645994117711e-01  9.9484376351949355e-01  9.9485883612277393e-01  9.9487666882061010e-01  9.9490354130194070e-01  9.9490263267153556e-01  9.9493744948340224e-01  9.9492541688590319e-01  9.9495811566728687e-01  9.9494685854392906e-01  9.9496593160167868e-01  9.9496467726582472e-01  9.9496473264854990e-01  9.9497545455330483e-01  9.9495767125941037e-01  9.9497580738918745e-01  9.9494819034319115e-01  9.9496202498515618e-01  9.9493785427936143e-01  9.9493513596803107e-01  9.9492258294205305e-01  9.9489973477865246e-01  9.9489827139449727e-01  9.9485909133439765e-01  9.9486170149151187e-01  9.9481753914486115e-01  9.9481143229775504e-01  9.9477646453407131e-01  9.9475109652742999e-01  9.9473231422080044e-01  9.9468611784305616e-01  9.9467952064390086e-01  9.9461881198527879e-01  9.9461147040846731e-01  9.9454639644137688e-01  9.9452223773846415e-01  9.9446148279297530e-01  9.9440874004368640e-01  9.9435809782233031e-01  9.9427482523675004e-01  9.9423648845429102e-01  9.9413301283974032e-01  9.9410367878447103e-01  9.9399797965514280e-01  9.9396691337227205e-01  9.9387310009641550e-01  9.9382180661666886e-01  9.9374106972040210e-01  9.9364909925512079e-01  9.9357039127504521e-01  9.9342958141667292e-01  9.9334539172002156e-01  9.9316984285971188e-01  9.9309001308340428e-01  9.9290840732824581e-01  9.9284423370572039e-01  9.9267016202240865e-01  9.9259998972549834e-01  9.9240481509322753e-01  9.9227777240995985e-01  9.9202460177794916e-01  9.9181931973360105e-01  9.9153937765034983e-01  9.9130878491686780e-01  9.9107071702769334e-01  9.9086323550128541e-01  9.9062578520823741e-01  9.9034674498191488e-01  9.8994929790732467e-01  9.8949228522867405e-01  9.8893059959451080e-01  9.8831946484140254e-01  9.8772681944044549e-01  9.8680477019054536e-01  9.8559642643489631e-01  9.8365653125341657e-01  9.8085350120238202e-01  9.7714522864709163e-01  9.7252184199986746e-01  9.6736391203511141e-01  9.6162833392039282e-01  9.5600353519283998e-01  9.5082549763384960e-01  9.4630982584917311e-01  9.4344645012054817e-01  9.4180577336723825e-01  9.4351485234303289e-01  9.4906608815884319e-01  9.6124748484995659e-01  9.8118285234837599e-01  1.0054270639043414e+00  1.0291983020728495e+00  1.0426416445893578e+00  1.0460905506550684e+00  1.0438084239399932e+00  1.0399011789526442e+00  1.0382757028706293e+00  1.0374944606226042e+00  1.0357114815986663e+00  1.0341861042644409e+00  1.0317503423853460e+00  1.0294484438187068e+00  1.0287243069303396e+00  1.0279893112675575e+00  1.0265537861825578e+00  1.0255330711997530e+00  1.0246356541614232e+00  1.0235210947873026e+00  1.0231298488298897e+00  1.0225853689353042e+00  1.0225178089214804e+00  1.0220016244425911e+00  1.0214149641240240e+00  1.0218019084058834e+00  1.0225944952129988e+00  1.0224157781081671e+00  1.0223022277099487e+00  1.0228623329832569e+00  1.0230786642459917e+00  1.0235197093428607e+00  1.0239357378944902e+00  1.0244462204921843e+00  1.0255315221364767e+00  1.0263962415161536e+00  1.0277138338938694e+00  1.0288841930074271e+00  1.0304759956571221e+00  1.0323065942286891e+00  1.0340679187355171e+00  1.0355529558895413e+00  1.0368409303443402e+00  1.0387146594630465e+00  1.0406925778327230e+00  1.0424351750380259e+00  1.0409214870587602e+00  1.0341780646277960e+00  1.0210834486369631e+00  1.0047995602584221e+00  9.8705859937151164e-01  9.6942597835474109e-01  9.5617882326179215e-01  9.4846260841997654e-01  9.4651244328869433e-01  9.4734404234071645e-01  9.5032226483152504e-01  9.5394266926089621e-01  9.5812183379502369e-01  9.6224800827310975e-01  9.6629498611364539e-01  9.7006136695210210e-01  9.7360591866438395e-01  9.7690525312710708e-01  9.7993149135589774e-01  9.8263795712098811e-01  9.8488234807096775e-01  9.8672562754765536e-01  9.8796396666793485e-01  9.8892191163054821e-01  9.8937121348697488e-01  9.8979245677693717e-01  9.8996696033753384e-01  9.9027183963137111e-01  9.9053448502467389e-01  9.9089061719543192e-01  9.9124780614399821e-01  9.9157623620568780e-01  9.9188402125468533e-01  9.9208481351417754e-01  9.9228313508149824e-01  9.9238118597509772e-01  9.9251272850209626e-01  9.9260667594209284e-01  9.9272674313038689e-01  9.9287703347940992e-01  9.9299401041554936e-01  9.9318774999164050e-01  9.9328156109709320e-01  9.9346733322842218e-01  9.9353150932782952e-01  9.9367062645700799e-01  9.9372363404827668e-01  9.9380695989973789e-01  9.9387846382640488e-01  9.9391695080410436e-01  9.9402009124722901e-01  9.9403636661313666e-01  9.9415646377412170e-01  9.9417558807386608e-01  9.9428081077720720e-01  9.9432473997413673e-01  9.9438488491263688e-01  9.9446459470198367e-01  9.9446956569126099e-01  9.9457996885268507e-01  9.9454314830650070e-01  9.9466298061166969e-01  9.9461663355244312e-01  9.9471538177132135e-01  9.9469323008565180e-01  9.9474871280485888e-01  9.9476787781698328e-01  9.9477576300174875e-01  9.9483141812996323e-01  9.9480835428812786e-01  9.9487480009488694e-01  9.9485121476509553e-01  9.9489706846413539e-01  9.9489960236758623e-01  9.9490428924956420e-01  9.9494339307312307e-01  9.9490666201400646e-01  9.9497137060924401e-01  9.9491325811491049e-01  9.9497784137990908e-01  9.9492512877366412e-01  9.9496517659331818e-01  9.9493765715621729e-01  9.9494015792133894e-01  9.9494282286654689e-01  9.9491282245415558e-01  9.9493096801844383e-01  9.9489071644792193e-01  9.9489946442389743e-01  9.9487235112384365e-01  9.9485295788057304e-01  9.9485204836250263e-01  9.9479800299288457e-01  9.9482117562280492e-01  9.9474148841274801e-01  9.9477166682775653e-01  9.9468564033966012e-01  9.9470131371315107e-01  9.9462640890759535e-01  9.9461325591243466e-01  9.9455763420235688e-01  9.9451388917377004e-01  9.9447455260690432e-01  9.9441038155962769e-01  9.9437687894033300e-01  9.9430730151617319e-01  9.9426635755763759e-01  9.9420383135377932e-01  9.9414283204019349e-01  9.9409187981499236e-01  9.9400217893647147e-01  9.9395850104124650e-01  9.9383842875347050e-01  9.9379436168429103e-01  9.9365081675791156e-01  9.9360150133700631e-01  9.9344882133812051e-01  9.9339458722482932e-01  9.9324353350857608e-01  9.9318418173818901e-01  9.9302968561408955e-01  9.9295370763110180e-01  9.9277706432431978e-01  9.9266676000242360e-01  9.9245604800830400e-01  9.9231455646377331e-01  9.9208692499441131e-01  9.9194032477046279e-01  9.9172480768279347e-01  9.9157802496428893e-01  9.9134813770469032e-01  9.9115267733172530e-01  9.9082752653451711e-01  9.9052144766165773e-01  9.9008050234298228e-01  9.8966809510682530e-01  9.8915726663805548e-01  9.8857731033910090e-01  9.8788343011901047e-01  9.8684399276805534e-01  9.8539799389422944e-01  9.8347440192194857e-01  9.8073446540353337e-01  9.7755267526775913e-01  9.7372963242652610e-01  9.6975969674204487e-01  9.6569609516216603e-01  9.6157246508689065e-01  9.5781900685710564e-01  9.5357849412481854e-01  9.5026682838927179e-01  9.4705166089307391e-01  9.4643808440167576e-01  9.4850597720329810e-01  9.5594795094089624e-01  9.6894867157953823e-01  9.8616080564043962e-01  1.0057979853927088e+00  1.0216641612791557e+00  1.0342713723518693e+00  1.0385442732392463e+00  1.0412930918792722e+00  1.0406450643854119e+00  1.0395175415444462e+00  1.0381082696207578e+00  1.0348748488680988e+00  1.0338825431508178e+00  1.0319347285066078e+00  1.0306189844901366e+00  1.0295760351222865e+00  1.0280777799053531e+00  1.0264286116586567e+00  1.0255920863405212e+00  1.0246216093440750e+00  1.0240541274129833e+00  1.0234798042299311e+00  1.0227765575498002e+00  1.0223146956630216e+00  1.0217329219034932e+00  1.0220016244425885e+00  1.0221950991785818e+00  1.0227090701538117e+00  1.0223518052525438e+00  1.0228623329832569e+00  1.0228571667909541e+00  1.0232556408390199e+00  1.0237207587657029e+00  1.0243022254287493e+00  1.0250621288548993e+00  1.0256526214768189e+00  1.0269259529496164e+00  1.0281182866654777e+00  1.0296212433514818e+00  1.0310351626183660e+00  1.0322411398071167e+00  1.0340625313648282e+00  1.0353386960572033e+00  1.0370511507286024e+00  1.0387278971311249e+00  1.0413218440889966e+00  1.0413770806278393e+00  1.0350039685447194e+00  1.0229566191889989e+00  1.0091992036848603e+00  9.9948080900462688e-01  9.9121810855369941e-01  9.8115966634259255e-01  9.6870667254125031e-01  9.5863288509916178e-01  9.5403433518916558e-01  9.5346743620636054e-01  9.5546738472530479e-01  9.5786086167517326e-01  9.6041421667903792e-01  9.6256992304983413e-01  9.6460776618064459e-01  9.6677505101051042e-01  9.6927474457228224e-01  9.7229139597358771e-01  9.7561347418309319e-01  9.7906077530225288e-01  9.8220665238089677e-01  9.8484150586305774e-01  9.8676260683275541e-01  9.8807864611291762e-01  9.8881873246312124e-01  9.8932951237187294e-01  9.8959599775895613e-01  9.8996069549397459e-01  9.9025291061254150e-01  9.9068753000597176e-01  9.9104868236677113e-01  9.9144398631815200e-01  9.9173015376961227e-01  9.9198443520327395e-01  9.9215163602418854e-01  9.9229296860709881e-01  9.9241442776027777e-01  9.9252542662663379e-01  9.9266826904718541e-01  9.9279099852792774e-01  9.9296012322498284e-01  9.9308538535442736e-01  9.9324877778511911e-01  9.9335571853202465e-01  9.9349035920738638e-01  9.9357150338791500e-01  9.9367664596127647e-01  9.9374260789286717e-01  9.9382607560862291e-01  9.9389157875519341e-01  9.9396077302631147e-01  9.9403359320020079e-01  9.9409034095813797e-01  9.9417071727455752e-01  9.9421538973622603e-01  9.9429674498769716e-01  9.9433292002573903e-01  9.9440624554450585e-01  9.9444126324328652e-01  9.9449665277466615e-01  9.9453896247260698e-01  9.9457159538513684e-01  9.9462398030027699e-01  9.9463586157335548e-01  9.9469543774439995e-01  9.9469412353221154e-01  9.9475107493123394e-01  9.9475039231751383e-01  9.9479174574258389e-01  9.9480352253354098e-01  9.9482123567990532e-01  9.9485036250630954e-01  9.9484432426568814e-01  9.9488588264584443e-01  9.9486657040869642e-01  9.9490651439759925e-01  9.9488969075979572e-01  9.9491309651450088e-01  9.9491107604895479e-01  9.9490938755810066e-01  9.9492566586773090e-01  9.9490212023290592e-01  9.9492666108872385e-01  9.9489648047095836e-01  9.9491203988503307e-01  9.9489076640001761e-01  9.9488540966148220e-01  9.9488040545286405e-01  9.9485077826248125e-01  9.9485962692914665e-01  9.9481347946037502e-01  9.9482150024760119e-01  9.9477571400322484e-01  9.9476480914490339e-01  9.9473392262263782e-01  9.9469344097464785e-01  9.9468208816601678e-01  9.9461373278968646e-01  9.9461436423384353e-01  9.9453279541426609e-01  9.9452864279241937e-01  9.9445437913134771e-01  9.9442870455839660e-01  9.9437738577395585e-01  9.9432069206834417e-01  9.9429523341950909e-01  9.9420864857227165e-01  9.9419713510769370e-01  9.9409015819018276e-01  9.9407125722685585e-01  9.9395687256111021e-01  9.9391028915458191e-01  9.9380155927692382e-01  9.9371816562419124e-01  9.9362542414554844e-01  9.9351148330526950e-01  9.9343850315192084e-01  9.9330562612019568e-01  9.9324495538367863e-01  9.9309596442880765e-01  9.9302566319726071e-01  9.9285313264026154e-01  9.9274834382823207e-01  9.9254859430532616e-01  9.9240619522621654e-01  9.9219295268689445e-01  9.9203205093428437e-01  9.9182204650213757e-01  9.9164908196600754e-01  9.9141409498062627e-01  9.9119325144061698e-01  9.9086217658322306e-01  9.9053440815754357e-01  9.9008259703869861e-01  9.8963743288325123e-01  9.8909077410194624e-01  9.8848555544464023e-01  9.8768201865751382e-01  9.8657848240573764e-01  9.8485581189834392e-01  9.8268414804187409e-01  9.7958542367940693e-01  9.7623398076128265e-01  9.7257768750331031e-01  9.6915964234770680e-01  9.6625049676926111e-01  9.6376942345586081e-01  9.6189203749696017e-01  9.5991066537470271e-01  9.5790997765488139e-01  9.5576409910017956e-01  9.5399344164522826e-01  9.5442785107355554e-01  9.5811709189454541e-01  9.6718610207610878e-01  9.7874062747055235e-01  9.9218342220418720e-01  1.0019145855830354e+00  1.0125212349541628e+00  1.0223548410299215e+00  1.0327705852234472e+00  1.0411402013534032e+00  1.0417589917665473e+00  1.0417591727446951e+00  1.0370258639952883e+00  1.0343073175222188e+00  1.0340914258282066e+00  1.0323151926112109e+00  1.0313817968282721e+00  1.0297524931661732e+00  1.0273804744347859e+00  1.0263248793647965e+00  1.0261969399573689e+00  1.0251670843437573e+00  1.0245140206951124e+00  1.0234189268616256e+00  1.0229683325719863e+00  1.0226870376341055e+00  1.0223146956630218e+00  1.0225178089214810e+00  1.0220099626677084e+00  1.0227087630701872e+00  1.0229309072365242e+00  1.0230786642459917e+00  1.0232556408390192e+00  1.0237149903864478e+00  1.0241867689921447e+00  1.0247790944999706e+00  1.0251493220571246e+00  1.0264643144279100e+00  1.0275433428625746e+00  1.0288440771300353e+00  1.0301715448419368e+00  1.0312962828901779e+00  1.0328005694474989e+00  1.0333507332890979e+00  1.0345786430501593e+00  1.0370742613289239e+00  1.0406157935106002e+00  1.0411283933715207e+00  1.0351258684059075e+00  1.0242559643205231e+00  1.0129122493638572e+00  1.0041525276771059e+00  9.9910529568165540e-01  9.9565452108633179e-01  9.9106015439425221e-01  9