<?xml version="1.0"?>
<VTKFile type="UnstructuredGrid"  version="0.1"  >
<UnstructuredGrid>
<Piece  NumberOfPoints="40401" NumberOfCells="80000">
<Points>
<DataArray  type="Float64"  NumberOfComponents="3"  format="ascii">-5 -5 0  -4.95 -5 0  -4.9 -5 0  -4.85 -5 0  -4.8 -5 0  -4.75 -5 0  -4.7 -5 0  -4.65 -5 0  -4.6 -5 0  -4.55 -5 0  -4.5 -5 0  -4.45 -5 0  -4.4 -5 0  -4.35 -5 0  -4.3 -5 0  -4.25 -5 0  -4.2 -5 0  -4.15 -5 0  -4.1 -5 0  -4.05 -5 0  -4 -5 0  -3.95 -5 0  -3.9 -5 0  -3.85 -5 0  -3.8 -5 0  -3.75 -5 0  -3.7 -5 0  -3.65 -5 0  -3.6 -5 0  -3.55 -5 0  -3.5 -5 0  -3.45 -5 0  -3.4 -5 0  -3.35 -5 0  -3.3 -5 0  -3.25 -5 0  -3.2 -5 0  -3.15 -5 0  -3.1 -5 0  -3.05 -5 0  -3 -5 0  -2.95 -5 0  -2.9 -5 0  -2.85 -5 0  -2.8 -5 0  -2.75 -5 0  -2.7 -5 0  -2.65 -5 0  -2.6 -5 0  -2.55 -5 0  -2.5 -5 0  -2.45 -5 0  -2.4 -5 0  -2.35 -5 0  -2.3 -5 0  -2.25 -5 0  -2.2 -5 0  -2.15 -5 0  -2.1 -5 0  -2.05 -5 0  -2 -5 0  -1.95 -5 0  -1.9 -5 0  -1.85 -5 0  -1.8 -5 0  -1.75 -5 0  -1.7 -5 0  -1.65 -5 0  -1.6 -5 0  -1.55 -5 0  -1.5 -5 0  -1.45 -5 0  -1.4 -5 0  -1.35 -5 0  -1.3 -5 0  -1.25 -5 0  -1.2 -5 0  -1.15 -5 0  -1.1 -5 0  -1.05 -5 0  -1 -5 0  -0.9500000000000002 -5 0  -0.9000000000000004 -5 0  -0.8499999999999996 -5 0  -0.7999999999999998 -5 0  -0.75 -5 0  -0.7000000000000002 -5 0  -0.6500000000000004 -5 0  -0.5999999999999996 -5 0  -0.5499999999999998 -5 0  -0.5 -5 0  -0.4500000000000002 -5 0  -0.4000000000000004 -5 0  -0.3499999999999996 -5 0  -0.2999999999999998 -5 0  -0.25 -5 0  -0.2000000000000002 -5 0  -0.1500000000000004 -5 0  -0.09999999999999964 -5 0  -0.04999999999999982 -5 0  0 -5 0  0.04999999999999982 -5 0  0.09999999999999964 -5 0  0.1500000000000004 -5 0  0.2000000000000002 -5 0  0.25 -5 0  0.2999999999999998 -5 0  0.3499999999999996 -5 0  0.4000000000000004 -5 0  0.4500000000000002 -5 0  0.5 -5 0  0.5499999999999998 -5 0  0.5999999999999996 -5 0  0.6500000000000004 -5 0  0.7000000000000002 -5 0  0.75 -5 0  0.7999999999999998 -5 0  0.8499999999999996 -5 0  0.9000000000000004 -5 0  0.9500000000000002 -5 0  1 -5 0  1.05 -5 0  1.1 -5 0  1.15 -5 0  1.2 -5 0  1.25 -5 0  1.3 -5 0  1.35 -5 0  1.4 -5 0  1.45 -5 0  1.5 -5 0  1.55 -5 0  1.6 -5 0  1.65 -5 0  1.7 -5 0  1.75 -5 0  1.8 -5 0  1.85 -5 0  1.9 -5 0  1.95 -5 0  2 -5 0  2.05 -5 0  2.1 -5 0  2.15 -5 0  2.2 -5 0  2.25 -5 0  2.3 -5 0  2.35 -5 0  2.4 -5 0  2.45 -5 0  2.5 -5 0  2.55 -5 0  2.6 -5 0  2.65 -5 0  2.7 -5 0  2.75 -5 0  2.8 -5 0  2.85 -5 0  2.9 -5 0  2.95 -5 0  3 -5 0  3.050000000000001 -5 0  3.1 -5 0  3.15 -5 0  3.199999999999999 -5 0  3.25 -5 0  3.300000000000001 -5 0  3.35 -5 0  3.4 -5 0  3.449999999999999 -5 0  3.5 -5 0  3.550000000000001 -5 0  3.6 -5 0  3.65 -5 0  3.699999999999999 -5 0  3.75 -5 0  3.800000000000001 -5 0  3.85 -5 0  3.9 -5 0  3.949999999999999 -5 0  4 -5 0  4.050000000000001 -5 0  4.1 -5 0  4.15 -5 0  4.199999999999999 -5 0  4.25 -5 0  4.300000000000001 -5 0  4.35 -5 0  4.4 -5 0  4.449999999999999 -5 0  4.5 -5 0  4.550000000000001 -5 0  4.6 -5 0  4.65 -5 0  4.699999999999999 -5 0  4.75 -5 0  4.800000000000001 -5 0  4.85 -5 0  4.9 -5 0  4.949999999999999 -5 0  5 -5 0  -5 -4.95 0  -4.95 -4.95 0  -4.9 -4.95 0  -4.85 -4.95 0  -4.8 -4.95 0  -4.75 -4.95 0  -4.7 -4.95 0  -4.65 -4.95 0  -4.6 -4.95 0  -4.55 -4.95 0  -4.5 -4.95 0  -4.45 -4.95 0  -4.4 -4.95 0  -4.35 -4.95 0  -4.3 -4.95 0  -4.25 -4.95 0  -4.2 -4.95 0  -4.15 -4.95 0  -4.1 -4.95 0  -4.05 -4.95 0  -4 -4.95 0  -3.95 -4.95 0  -3.9 -4.95 0  -3.85 -4.95 0  -3.8 -4.95 0  -3.75 -4.95 0  -3.7 -4.95 0  -3.65 -4.95 0  -3.6 -4.95 0  -3.55 -4.95 0  -3.5 -4.95 0  -3.45 -4.95 0  -3.4 -4.95 0  -3.35 -4.95 0  -3.3 -4.95 0  -3.25 -4.95 0  -3.2 -4.95 0  -3.15 -4.95 0  -3.1 -4.95 0  -3.05 -4.95 0  -3 -4.95 0  -2.95 -4.95 0  -2.9 -4.95 0  -2.85 -4.95 0  -2.8 -4.95 0  -2.75 -4.95 0  -2.7 -4.95 0  -2.65 -4.95 0  -2.6 -4.95 0  -2.55 -4.95 0  -2.5 -4.95 0  -2.45 -4.95 0  -2.4 -4.95 0  -2.35 -4.95 0  -2.3 -4.95 0  -2.25 -4.95 0  -2.2 -4.95 0  -2.15 -4.95 0  -2.1 -4.95 0  -2.05 -4.95 0  -2 -4.95 0  -1.95 -4.95 0  -1.9 -4.95 0  -1.85 -4.95 0  -1.8 -4.95 0  -1.75 -4.95 0  -1.7 -4.95 0  -1.65 -4.95 0  -1.6 -4.95 0  -1.55 -4.95 0  -1.5 -4.95 0  -1.45 -4.95 0  -1.4 -4.95 0  -1.35 -4.95 0  -1.3 -4.95 0  -1.25 -4.95 0  -1.2 -4.95 0  -1.15 -4.95 0  -1.1 -4.95 0  -1.05 -4.95 0  -1 -4.95 0  -0.9500000000000002 -4.95 0  -0.9000000000000004 -4.95 0  -0.8499999999999996 -4.95 0  -0.7999999999999998 -4.95 0  -0.75 -4.95 0  -0.7000000000000002 -4.95 0  -0.6500000000000004 -4.95 0  -0.5999999999999996 -4.95 0  -0.5499999999999998 -4.95 0  -0.5 -4.95 0  -0.4500000000000002 -4.95 0  -0.4000000000000004 -4.95 0  -0.3499999999999996 -4.95 0  -0.2999999999999998 -4.95 0  -0.25 -4.95 0  -0.2000000000000002 -4.95 0  -0.1500000000000004 -4.95 0  -0.09999999999999964 -4.95 0  -0.04999999999999982 -4.95 0  0 -4.95 0  0.04999999999999982 -4.95 0  0.09999999999999964 -4.95 0  0.1500000000000004 -4.95 0  0.2000000000000002 -4.95 0  0.25 -4.95 0  0.2999999999999998 -4.95 0  0.3499999999999996 -4.95 0  0.4000000000000004 -4.95 0  0.4500000000000002 -4.95 0  0.5 -4.95 0  0.5499999999999998 -4.95 0  0.5999999999999996 -4.95 0  0.6500000000000004 -4.95 0  0.7000000000000002 -4.95 0  0.75 -4.95 0  0.7999999999999998 -4.95 0  0.8499999999999996 -4.95 0  0.9000000000000004 -4.95 0  0.9500000000000002 -4.95 0  1 -4.95 0  1.05 -4.95 0  1.1 -4.95 0  1.15 -4.95 0  1.2 -4.95 0  1.25 -4.95 0  1.3 -4.95 0  1.35 -4.95 0  1.4 -4.95 0  1.45 -4.95 0  1.5 -4.95 0  1.55 -4.95 0  1.6 -4.95 0  1.65 -4.95 0  1.7 -4.95 0  1.75 -4.95 0  1.8 -4.95 0  1.85 -4.95 0  1.9 -4.95 0  1.95 -4.95 0  2 -4.95 0  2.05 -4.95 0  2.1 -4.95 0  2.15 -4.95 0  2.2 -4.95 0  2.25 -4.95 0  2.3 -4.95 0  2.35 -4.95 0  2.4 -4.95 0  2.45 -4.95 0  2.5 -4.95 0  2.55 -4.95 0  2.6 -4.95 0  2.65 -4.95 0  2.7 -4.95 0  2.75 -4.95 0  2.8 -4.95 0  2.85 -4.95 0  2.9 -4.95 0  2.95 -4.95 0  3 -4.95 0  3.050000000000001 -4.95 0  3.1 -4.95 0  3.15 -4.95 0  3.199999999999999 -4.95 0  3.25 -4.95 0  3.300000000000001 -4.95 0  3.35 -4.95 0  3.4 -4.95 0  3.449999999999999 -4.95 0  3.5 -4.95 0  3.550000000000001 -4.95 0  3.6 -4.95 0  3.65 -4.95 0  3.699999999999999 -4.95 0  3.75 -4.95 0  3.800000000000001 -4.95 0  3.85 -4.95 0  3.9 -4.95 0  3.949999999999999 -4.95 0  4 -4.95 0  4.050000000000001 -4.95 0  4.1 -4.95 0  4.15 -4.95 0  4.199999999999999 -4.95 0  4.25 -4.95 0  4.300000000000001 -4.95 0  4.35 -4.95 0  4.4 -4.95 0  4.449999999999999 -4.95 0  4.5 -4.95 0  4.550000000000001 -4.95 0  4.6 -4.95 0  4.65 -4.95 0  4.699999999999999 -4.95 0  4.75 -4.95 0  4.800000000000001 -4.95 0  4.85 -4.95 0  4.9 -4.95 0  4.949999999999999 -4.95 0  5 -4.95 0  -5 -4.9 0  -4.95 -4.9 0  -4.9 -4.9 0  -4.85 -4.9 0  -4.8 -4.9 0  -4.75 -4.9 0  -4.7 -4.9 0  -4.65 -4.9 0  -4.6 -4.9 0  -4.55 -4.9 0  -4.5 -4.9 0  -4.45 -4.9 0  -4.4 -4.9 0  -4.35 -4.9 0  -4.3 -4.9 0  -4.25 -4.9 0  -4.2 -4.9 0  -4.15 -4.9 0  -4.1 -4.9 0  -4.05 -4.9 0  -4 -4.9 0  -3.95 -4.9 0  -3.9 -4.9 0  -3.85 -4.9 0  -3.8 -4.9 0  -3.75 -4.9 0  -3.7 -4.9 0  -3.65 -4.9 0  -3.6 -4.9 0  -3.55 -4.9 0  -3.5 -4.9 0  -3.45 -4.9 0  -3.4 -4.9 0  -3.35 -4.9 0  -3.3 -4.9 0  -3.25 -4.9 0  -3.2 -4.9 0  -3.15 -4.9 0  -3.1 -4.9 0  -3.05 -4.9 0  -3 -4.9 0  -2.95 -4.9 0  -2.9 -4.9 0  -2.85 -4.9 0  -2.8 -4.9 0  -2.75 -4.9 0  -2.7 -4.9 0  -2.65 -4.9 0  -2.6 -4.9 0  -2.55 -4.9 0  -2.5 -4.9 0  -2.45 -4.9 0  -2.4 -4.9 0  -2.35 -4.9 0  -2.3 -4.9 0  -2.25 -4.9 0  -2.2 -4.9 0  -2.15 -4.9 0  -2.1 -4.9 0  -2.05 -4.9 0  -2 -4.9 0  -1.95 -4.9 0  -1.9 -4.9 0  -1.85 -4.9 0  -1.8 -4.9 0  -1.75 -4.9 0  -1.7 -4.9 0  -1.65 -4.9 0  -1.6 -4.9 0  -1.55 -4.9 0  -1.5 -4.9 0  -1.45 -4.9 0  -1.4 -4.9 0  -1.35 -4.9 0  -1.3 -4.9 0  -1.25 -4.9 0  -1.2 -4.9 0  -1.15 -4.9 0  -1.1 -4.9 0  -1.05 -4.9 0  -1 -4.9 0  -0.9500000000000002 -4.9 0  -0.9000000000000004 -4.9 0  -0.8499999999999996 -4.9 0  -0.7999999999999998 -4.9 0  -0.75 -4.9 0  -0.7000000000000002 -4.9 0  -0.6500000000000004 -4.9 0  -0.5999999999999996 -4.9 0  -0.5499999999999998 -4.9 0  -0.5 -4.9 0  -0.4500000000000002 -4.9 0  -0.4000000000000004 -4.9 0  -0.3499999999999996 -4.9 0  -0.2999999999999998 -4.9 0  -0.25 -4.9 0  -0.2000000000000002 -4.9 0  -0.1500000000000004 -4.9 0  -0.09999999999999964 -4.9 0  -0.04999999999999982 -4.9 0  0 -4.9 0  0.04999999999999982 -4.9 0  0.09999999999999964 -4.9 0  0.1500000000000004 -4.9 0  0.2000000000000002 -4.9 0  0.25 -4.9 0  0.2999999999999998 -4.9 0  0.3499999999999996 -4.9 0  0.4000000000000004 -4.9 0  0.4500000000000002 -4.9 0  0.5 -4.9 0  0.5499999999999998 -4.9 0  0.5999999999999996 -4.9 0  0.6500000000000004 -4.9 0  0.7000000000000002 -4.9 0  0.75 -4.9 0  0.7999999999999998 -4.9 0  0.8499999999999996 -4.9 0  0.9000000000000004 -4.9 0  0.9500000000000002 -4.9 0  1 -4.9 0  1.05 -4.9 0  1.1 -4.9 0  1.15 -4.9 0  1.2 -4.9 0  1.25 -4.9 0  1.3 -4.9 0  1.35 -4.9 0  1.4 -4.9 0  1.45 -4.9 0  1.5 -4.9 0  1.55 -4.9 0  1.6 -4.9 0  1.65 -4.9 0  1.7 -4.9 0  1.75 -4.9 0  1.8 -4.9 0  1.85 -4.9 0  1.9 -4.9 0  1.95 -4.9 0  2 -4.9 0  2.05 -4.9 0  2.1 -4.9 0  2.15 -4.9 0  2.2 -4.9 0  2.25 -4.9 0  2.3 -4.9 0  2.35 -4.9 0  2.4 -4.9 0  2.45 -4.9 0  2.5 -4.9 0  2.55 -4.9 0  2.6 -4.9 0  2.65 -4.9 0  2.7 -4.9 0  2.75 -4.9 0  2.8 -4.9 0  2.85 -4.9 0  2.9 -4.9 0  2.95 -4.9 0  3 -4.9 0  3.050000000000001 -4.9 0  3.1 -4.9 0  3.15 -4.9 0  3.199999999999999 -4.9 0  3.25 -4.9 0  3.300000000000001 -4.9 0  3.35 -4.9 0  3.4 -4.9 0  3.449999999999999 -4.9 0  3.5 -4.9 0  3.550000000000001 -4.9 0  3.6 -4.9 0  3.65 -4.9 0  3.699999999999999 -4.9 0  3.75 -4.9 0  3.800000000000001 -4.9 0  3.85 -4.9 0  3.9 -4.9 0  3.949999999999999 -4.9 0  4 -4.9 0  4.050000000000001 -4.9 0  4.1 -4.9 0  4.15 -4.9 0  4.199999999999999 -4.9 0  4.25 -4.9 0  4.300000000000001 -4.9 0  4.35 -4.9 0  4.4 -4.9 0  4.449999999999999 -4.9 0  4.5 -4.9 0  4.550000000000001 -4.9 0  4.6 -4.9 0  4.65 -4.9 0  4.699999999999999 -4.9 0  4.75 -4.9 0  4.800000000000001 -4.9 0  4.85 -4.9 0  4.9 -4.9 0  4.949999999999999 -4.9 0  5 -4.9 0  -5 -4.85 0  -4.95 -4.85 0  -4.9 -4.85 0  -4.85 -4.85 0  -4.8 -4.85 0  -4.75 -4.85 0  -4.7 -4.85 0  -4.65 -4.85 0  -4.6 -4.85 0  -4.55 -4.85 0  -4.5 -4.85 0  
[...]
<PointData  Scalars="r"> 
<DataArray  type="Float64"  Name="r"  format="ascii">1.0000002598578699e+00  9.9999992510719793e-01  1.0000002036511468e+00  9.9999992297320361e-01  1.0000001301235955e+00  9.9999989125421507e-01  1.0000000461475473e+00  9.9999991845727632e-01  1.0000000313006137e+00  9.9999994898155686e-01  1.0000000853839515e+00  1.0000000080561302e+00  1.0000000203036647e+00  9.9999999140020035e-01  9.9999998412987989e-01  9.9999988162078213e-01  9.9999994414831928e-01  1.0000000290733728e+00  1.0000000077125180e+00  1.0000001182013849e+00  1.0000002509817927e+00  1.0000002062582769e+00  1.0000001329972528e+00  1.0000002659271143e+00  1.0000001544772250e+00  1.0000000640505784e+00  1.0000002025938055e+00  1.0000002690679439e+00  1.0000001160027665e+00  1.0000002714167431e+00  1.0000003226775867e+00  1.0000001114255055e+00  1.0000001169259234e+00  1.0000002432352888e+00  1.0000000530412647e+00  1.0000001052577199e+00  1.0000003266289581e+00  1.0000001880000400e+00  1.0000001326743126e+00  1.0000003648310449e+00  1.0000002792459195e+00  1.0000002709893332e+00  1.0000006307419325e+00  1.0000006702063142e+00  1.0000006154877190e+00  1.0000009421949096e+00  1.0000009882737535e+00  1.0000008329566055e+00  1.0000009881405569e+00  1.0000008005792473e+00  1.0000002739767504e+00  1.0000001069012323e+00  9.9999976101053201e-01  9.9999911609987069e-01  9.9999892488808662e-01  9.9999879268399083e-01  9.9999857158167071e-01  9.9999899075280618e-01  9.9999953438468636e-01  9.9999976981533156e-01  1.0000003621907954e+00  1.0000009016300762e+00  1.0000009082324091e+00  1.0000010247777111e+00  1.0000009798098719e+00  1.0000004562838507e+00  1.0000002706853415e+00  1.0000002057449329e+00  9.9999976835693560e-01  9.9999966667099793e-01  9.9999977454394229e-01  9.9999960407126010e-01  9.9999971786493658e-01  9.9999990393757432e-01  9.9999972078366961e-01  9.9999983380848567e-01  1.0000000676162952e+00  9.9999989030524039e-01  9.9999991075866523e-01  1.0000000718688424e+00  9.9999993077147875e-01  9.9999998302549653e-01  1.0000000900922446e+00  9.9999990434010977e-01  9.9999997658751072e-01  1.0000001144644897e+00  9.9999992875108923e-01  9.9999996245451828e-01  1.0000000819041031e+00  9.9999994744658494e-01  9.9999999738382750e-01  1.0000000571791214e+00  9.9999992328095433e-01  1.0000000215728284e+00  1.0000000665392643e+00  9.9999991240608299e-01  1.0000000187445561e+00  1.0000000587348910e+00  9.9999992415210015e-01  1.0000000366713280e+00  1.0000000291872739e+00  9.9999991310826397e-01  1.0000000781370191e+00  1.0000000217011680e+00  9.9999987560198200e-01  1.0000001013576658e+00  1.0000000426635562e+00  9.9999985037690720e-01  1.0000000967380647e+00  1.0000000571118968e+00  9.9999984992032853e-01  1.0000000955438000e+00  1.0000000497696468e+00  9.9999984618724891e-01  1.0000001165801671e+00  1.0000000452743931e+00  9.9999981564351981e-01  1.0000001402576992e+00  1.0000000723460323e+00  9.9999976996756879e-01  1.0000001340753366e+00  1.0000001302053421e+00  9.9999974166987615e-01  1.0000000865104670e+00  1.0000001916704195e+00  9.9999975327960433e-01  1.0000000137731426e+00  1.0000002281567091e+00  9.9999980271977607e-01  9.9999994360203159e-01  1.0000002277635078e+00  9.9999987095600007e-01  9.9999989616969054e-01  1.0000001973043131e+00  9.9999993611192295e-01  9.9999987788340206e-01  1.0000001514781649e+00  9.9999998547144564e-01  9.9999988231279691e-01  1.0000001058123973e+00  1.0000000141969010e+00  9.9999990098546498e-01  1.0000000672449871e+00  1.0000000274656045e+00  9.9999992261979331e-01  1.0000000411143171e+00  1.0000000280714116e+00  9.9999994470689246e-01  1.0000000228133474e+00  1.0000000251763357e+00  9.9999996055595219e-01  1.0000000141790730e+00  1.0000000177892281e+00  9.9999997472224456e-01  1.0000000073905164e+00  1.0000000133485953e+00  9.9999998237259269e-01  1.0000000059327352e+00  1.0000000072459225e+00  9.9999998989953898e-01  1.0000000030799141e+00  1.0000000050300111e+00  9.9999999291131725e-01  1.0000000031659704e+00  1.0000000017217552e+00  9.9999999667477035e-01  1.0000000014167330e+00  1.0000000013301105e+00  9.9999999754284452e-01  1.0000000016180872e+00  9.9999999988297950e-01  9.9999999931493688e-01  1.0000000004764593e+00  1.0000000001904568e+00  9.9999999942438433e-01  1.0000000005110776e+00  9.9999999988987587e-01  9.9999999988323773e-01  1.0000000002872120e+00  9.9999999991959021e-01  1.0000000001937293e+00  1.0000000000674341e+00  1.0000000002834200e+00  1.0000000000960665e+00  1.0000000003126193e+00  1.0000000002508129e+00  1.0000000001170153e+00  1.0000000003809770e+00  9.9999999971019815e-01  1.0000000004200513e+00  9.9999999893128300e-01  1.0000000004838376e+00  9.9999999771920989e-01  1.0000000006864809e+00  9.9999999616210811e-01  1.0000000011655035e+00  9.9999999437988218e-01  1.0000000018578690e+00  9.9999999281920793e-01  1.0000000023990869e+00  9.9999999240806070e-01  9.9999992510719682e-01  9.9999990052349264e-01  9.9999994612594245e-01  9.9999992478128275e-01  9.9999998172487992e-01  9.9999996847967920e-01  1.0000000522652985e+00  9.9999999405548579e-01  1.0000000402452773e+00  9.9999999804208584e-01  1.0000000042779127e+00  9.9999992396392057e-01  1.0000000091949459e+00  9.9999998214145824e-01  1.0000000044734290e+00  1.0000000533331992e+00  1.0000001138561176e+00  9.9999998958411840e-01  9.9999998673647550e-01  9.9999997117258843e-01  9.9999981715928676e-01  9.9999975125390572e-01  9.9999986558757314e-01  9.9999979918197179e-01  9.9999973745727866e-01  9.9999990387779669e-01  9.9999987483917296e-01  9.9999970786541259e-01  9.9999981138422223e-01  9.9999985170521477e-01  9.9999965778538646e-01  9.9999977339877544e-01  9.9999992705794338e-01  9.9999977004515761e-01  9.9999980815121658e-01  9.9999997296599852e-01  9.9999976036291449e-01  9.9999970472521449e-01  9.9999990017062668e-01  9.9999974391684054e-01  9.9999962494392836e-01  9.9999979523642379e-01  9.9999958292419278e-01  9.9999931272452935e-01  9.9999942461210667e-01  9.9999925542400547e-01  9.9999896899366214e-01  9.9999912350148390e-01  9.9999910584617735e-01  9.9999899049628127e-01  9.9999942459080171e-01  9.9999978480044860e-01  9.9999993475435400e-01  1.0000005355531214e+00  1.0000010122432283e+00  1.0000010802814721e+00  1.0000013701827357e+00  1.0000013606176332e+00  1.0000007702050770e+00  1.0000004285962139e+00  1.0000000487925726e+00  9.9999933068951474e-01  9.9999908306447449e-01  9.9999906757395840e-01  9.9999888909663848e-01  9.9999921083238552e-01  9.9999966073870528e-01  9.9999968911163084e-01  9.9999998159791881e-01  1.0000003375097950e+00  1.0000002354151334e+00  1.0000003069853394e+00  1.0000004174893253e+00  1.0000001511199696e+00  1.0000001699869425e+00  1.0000002933988150e+00  1.0000000197238852e+00  1.0000000014846631e+00  1.0000001520491408e+00  9.9999997305732247e-01  9.9999998833067738e-01  1.0000000970535283e+00  9.9999991984456449e-01  9.9999998751559716e-01  1.0000001165581374e+00  9.9999991940051058e-01  9.9999996057351093e-01  1.0000000984731230e+00  9.9999994842015616e-01  9.9999998102168575e-01  1.0000000614873203e+00  9.9999993427977496e-01  1.0000000165441105e+00  1.0000000640805877e+00  9.9999991125249255e-01  1.0000000173013448e+00  1.0000000699184712e+00  9.9999992065868570e-01  1.0000000196436549e+00  1.0000000434741241e+00  9.9999992633673151e-01  1.0000000556436828e+00  1.0000000196966754e+00  9.9999989714269677e-01  1.0000000930206996e+00  1.0000000301993368e+00  9.9999986091876247e-01  1.0000000995982115e+00  1.0000000526944071e+00  9.9999984964241750e-01  1.0000000920790004e+00  1.0000000559919475e+00  9.9999985157644122e-01  1.0000001010642150e+00  1.0000000471150061e+00  9.9999983606221821e-01  1.0000001250748256e+00  1.0000000568081235e+00  9.9999979738694234e-01  1.0000001347794392e+00  1.0000000993842892e+00  9.9999976025583603e-01  1.0000001074840228e+00  1.0000001587758698e+00  9.9999975313840150e-01  1.0000000471581172e+00  1.0000002059500452e+00  9.9999978502721576e-01  9.9999997716568034e-01  1.0000002213772621e+00  9.9999984391385333e-01  9.9999992121028014e-01  1.0000002040402629e+00  9.9999990889652257e-01  9.9999989146372581e-01  1.0000001654510728e+00  9.9999996351790255e-01  9.9999988665570405e-01  1.0000001207938380e+00  9.9999999983382359e-01  9.9999989912461484e-01  1.0000000803896374e+00  1.0000000190001030e+00  9.9999991888127937e-01  1.0000000500031656e+00  1.0000000248771173e+00  9.9999993984460533e-01  1.0000000292136537e+00  1.0000000236485274e+00  9.9999995751766857e-01  1.0000000168155370e+00  1.0000000188394633e+00  9.9999997133020979e-01  1.0000000097466655e+00  1.0000000134329170e+00  9.9999998135069157e-01  1.0000000057671974e+00  1.0000000090090213e+00  9.9999998784965505e-01  1.0000000041194150e+00  1.0000000049859352e+00  9.9999999297115461e-01  1.0000000023000382e+00  1.0000000032503829e+00  9.9999999521102978e-01  1.0000000023190059e+00  1.0000000008493342e+00  9.9999999810226681e-01  1.0000000006449199e+00  1.0000000011838552e+00  9.9999999799950223e-01  1.0000000015678818e+00  9.9999999926929528e-01  1.0000000003290623e+00  9.9999999940597051e-01  1.0000000010972847e+00  9.9999999851608667e-01  1.0000000014720571e+00  9.9999999857600674e-01  1.0000000012319512e+00  9.9999999856651189e-01  1.0000000013310140e+00  9.9999999831919506e-01  1.0000000013362373e+00  9.9999999831864883e-01  1.0000000011718380e+00  9.9999999842760190e-01  1.0000000011219432e+00  9.9999999866354083e-01  1.0000000011714916e+00  9.9999999919858185e-01  1.0000000013202652e+00  9.9999999997384192e-01  1.0000000015893709e+00  1.0000000008584162e+00  1.0000000018705846e+00  1.0000000017077926e+00  1.0000000021670896e+00  1.0000000022693352e+00  1.0000000024878892e+00  1.0000000023990898e+00  1.0000002036511448e+00  9.9999994612594378e-01  1.0000002119881104e+00  9.9999994300473094e-01  1.0000001520889683e+00  9.9999994260780012e-01  1.0000000671553246e+00  9.9999990650569193e-01  1.0000000488157155e+00  9.9999992834095686e-01  1.0000000324820784e+00  1.0000000047970903e+00  1.0000000771190041e+00  9.9999996482479925e-01  1.0000000388579389e+00  9.9999997494909076e-01  9.9999991023411672e-01  9.9999992746554833e-01  1.0000000365273567e+00  9.9999999981262999e-01  1.0000000739212347e+00  1.0000002591723243e+00  1.0000001993199226e+00  1.0000001574308131e+00  1.0000002782284592e+00  1.0000002465636921e+00  1.0000000797529669e+00  1.0000002561283228e+00  1.0000002926329583e+00  1.0000001465937620e+00  1.0000002438563633e+00  1.0000003742530561e+00  1.0000001405877681e+00  1.0000001706702750e+00  1.0000003072843402e+00  1.0000001289198410e+00  1.0000001182446152e+00  1.0000003668141473e+00  1.0000002224469489e+00  1.0000001514797145e+00  1.0000003843421399e+00  1.0000002910146069e+00  1.0000002038536209e+00  1.0000005377810235e+00  1.0000005706148078e+00  1.0000004836952969e+00  1.0000008066855781e+00  1.0000008747803277e+00  1.0000007156581643e+00  1.0000009262044989e+00  1.0000008455473339e+00  1.0000003866460894e+00  1.0000002744948076e+00  9.9999998366512677e-01  9.9999933715563549e-01  9.9999912306728111e-01  9.9999894831954184e-01  9.9999860345971003e-01  9.9999888449572572e-01  9.9999935601144607e-01  9.9999955647566219e-01  1.0000001553895632e+00  1.0000007483119973e+00  1.0000008090067118e+00  1.0000009993996646e+00  1.0000010534650750e+00  1.0000005723237027e+00  1.0000003688161854e+00  1.0000002881581573e+00  9.9999983682766047e-01  9.9999971592765924e-01  9.9999980184037474e-01  9.9999959243222969e-01  9.9999968491638591e-01  9.9999989339154305e-01  9.9999971977696123e-01  9.9999981064608712e-01  1.0000000412452408e+00  9.9999988379896132e-01  9.9999991509719666e-01  1.0000000716049826e+00  9.9999991895865958e-01  9.9999997339274282e-01  1.0000001001340426e+00  9.9999991346522887e-01  9.9999996369497912e-01  1.0000001065952075e+00  9.9999994114363222e-01  9.9999996674831837e-01  1.0000000722149904e+00  9.9999994500824829e-01  1.0000000027931815e+00  1.0000000607570079e+00  9.9999992027833495e-01  1.0000000148769794e+00  1.0000000711682808e+00  9.9999992031505958e-01  1.0000000098202084e+00  1.0000000544474494e+00  9.9999993526117747e-01  1.0000000341056163e+00  1.0000000217220182e+00  9.9999992005024785e-01  1.0000000779685845e+00  1.0000000172273262e+00  9.9999988078218438e-01  1.0000000987126376e+00  1.0000000399591422e+00  9.9999985729120078e-01  1.0000000921600611e+00  1.0000000539923908e+00  9.9999985819183634e-01  1.0000000901154000e+00  1.0000000469041250e+00  9.9999985550606363e-01  1.0000001089266202e+00  1.0000000427201128e+00  9.9999982839047574e-01  1.0000001297180248e+00  1.0000000669235272e+00  9.9999978829771330e-01  1.0000001237494607e+00  1.0000001177866085e+00  9.9999976410417746e-01  1.0000000816993169e+00  1.0000001711519064e+00  9.9999977474429735e-01  1.0000000184754996e+00  1.0000002022459882e+00  9.9999981806473492e-01  9.9999995774579165e-01  1.0000002017307938e+00  9.9999987690866421e-01  9.9999991721123260e-01  1.0000001749414129e+00  9.9999993365046280e-01  9.9999990083827961e-01  1.0000001359387780e+00  9.9999997593400181e-01  9.9999990501392011e-01  1.0000000955152737e+00  1.0000000025114444e+00  9.9999991937690069e-01  1.0000000630748742e+00  1.0000000137716150e+00  9.9999993888330652e-01  1.0000000381611480e+00  1.0000000175242736e+00  9.9999995542078612e-01  1.0000000234287030e+00  1.0000000145125476e+00  9.9999997065768143e-01  1.0000000128116209e+00  1.0000000118718084e+00  9.9999998010313496e-01  1.0000000082965683e+00  1.0000000072106363e+00  9.9999998830876047e-01  1.0000000042721500e+00  1.0000000051013449e+00  9.9999999234118586e-01  1.0000000031869936e+00  1.0000000023701354e+00  9.9999999603632939e-01  1.0000000015107404e+00  1.0000000016113300e+00  9.9999999744881152e-01  1.0000000012205208e+00  1.0000000005499989e+00  9.9999999881449830e-01  1.0000000005960914e+00  1.0000000002642768e+00  9.9999999946432105e-01  1.0000000001530001e+00  1.0000000004166938e+00  9.9999999932653738e-01  1.0000000006185208e+00  9.9999999961275443e-01  1.0000000003841871e+00  9.9999999959913155e-01  1.0000000006743475e+00  9.9999999944286089e-01  1.0000000007174021e+00  9.9999999970192432e-01  1.0000000005296974e+00  9.9999999994264477e-01  1.0000000004101082e+00  1.0000000000764251e+00  1.0000000000866387e+00  1.0000000002507421e+00  9.9999999940227546e-01  1.0000000004048339e+00  9.9999999836774600e-01  1.0000000006331760e+00  9.9999999693095409e-01  1.0000000011341958e+00  9.9999999523998306e-01  1.0000000017865498e+00  9.9999999369443771e-01  1.0000000022693352e+00  9.9999999281920637e-01  9.9999992297320428e-01  9.9999992478128275e-01  9.9999994300473050e-01  9.9999989132272249e-01  1.0000000002382201e+00  9.9999990637623870e-01  1.0000000410190819e+00  9.9999996976938021e-01  1.0000000740610604e+00  9.9999994807441472e-01  1.0000000776996463e+00  9.9999993577095825e-01  9.9999999079551327e-01  9.9999993350462013e-01  1.0000000536779841e+00  9.9999992738022081e-01  1.0000000736136503e+00  1.0000000659124875e+00  1.0000000175873140e+00  9.9999992623950584e-01  1.0000000098571178e+00  9.9999982447241786e-01  9.9999974264684932e-01  9.9999985091282118e-01  9.9999981137874883e-01  9.9999967936269529e-01  9.9999982949821209e-01  9.9999985548507198e-01  9.9999964143374853e-01  9.9999974538546677e-01  9.9999983631016087e-01  9.9999964531139729e-01  9.9999969007017242e-01  9.9999988705266685e-01  9.9999969011578549e-01  9.9999967618382701e-01  9.9999986320619605e-01  9.9999968532615113e-01  9.9999957344862467e-01  9.9999980660783716e-01  9.9999967326565331e-01  9.9999952720370511e-01  9.9999975225835025e-01  9.9999965108662026e-01  9.9999940683366306e-01  9.9999958893980334e-01  9.9999951181128932e-01  9.9999923327484219e-01  9.9999940684530930e-01  9.9999942059227509e-01  9.9999920492622940e-01  9.9999950450898711e-01  9.9999976238072330e-01  9.9999975729312107e-01  1.0000002307371927e+00  1.0000006705852595e+00  1.0000007037555965e+00  1.0000010347570396e+00  1.0000012035432804e+00  1.0000007860461340e+00  1.0000005750520313e+00  1.0000003087172777e+00  9.9999960611501726e-01  9.9999930982380802e-01  9.9999925015446811e-01  9.9999896588972403e-01  9.9999915863055833e-01  9.9999956394039213e-01  9.9999958570912684e-01  9.9999987529921841e-01  1.0000002590983010e+00  1.0000001748759086e+00  1.0000002631812899e+00  1.0000004274391030e+00  1.0000001810734995e+00  1.0000001715431366e+00  1.0000002995870407e+00  1.0000000472040251e+00  1.0000000207095272e+00  1.0000001606170548e+00  9.9999997370506244e-01  9.9999998424098280e-01  1.0000001106099985e+00  9.9999993281433108e-01  9.9999997148408271e-01  1.0000001096337716e+00  9.9999993838635282e-01  9.9999996139491143e-01  1.0000000850205499e+00  9.9999995158844390e-01  9.9999998602966944e-01  1.0000000619279992e+00  9.9999993462679027e-01  1.0000000079364129e+00  1.0000000671529321e+00  9.9999992478784760e-01  1.0000000044474484e+00  1.0000000616066691e+00  9.9999994013700233e-01  1.0000000147569399e+00  1.0000000290949576e+00  9.9999994124167946e-01  1.0000000552268953e+00  1.0000000081436335e+00  9.9999990935258576e-01  1.0000000898784775e+00  1.0000000208427589e+00  9.9999987590768247e-01  1.0000000936173741e+00  1.0000000416232735e+00  9.9999986783705608e-01  1.0000000858391660e+00  1.0000000427865059e+00  9.9999987156676795e-01  1.0000000945675405e+00  1.0000000322482705e+00  9.9999985888165910e-01  1.0000001180256965e+00  1.0000000378954434e+00  9.9999982439471435e-01  1.0000001303582560e+00  1.0000000728424603e+00  9.9999978924052513e-01  1.0000001112383574e+00  1.0000001241956513e+00  9.9999977802804274e-01  1.0000000630578469e+00  1.0000001672797443e+00  9.9999979977939568e-01  1.0000000044193509e+00  1.0000001852509526e+00  9.9999984523373753e-01  9.9999995576518119e-01  1.0000001753547265e+00  9.9999989840405545e-01  9.9999992709464847e-01  1.0000001471584181e+00  9.9999994433908124e-01  9.9999991969272817e-01  1.0000001112299723e+00  9.9999997760343151e-01  9.9999992605393484e-01  1.0000000782660639e+00  9.9999999624285374e-01  9.9999994056487895e-01  1.0000000510689544e+00  1.0000000053356823e+00  9.9999995568696121e-01  1.0000000322820115e+00  1.0000000073072062e+00  9.9999996960107429e-01  1.0000000195385887e+00  1.0000000064242984e+00  9.9999998043396798e-01  1.0000000113089922e+00  1.0000000050065243e+00  9.9999998747930863e-01  1.0000000071769741e+00  1.0000000024032527e+00  9.9999999354201285e-01  1.0000000031148415e+00  1.0000000024264086e+00  9.9999999527802230e-01  1.0000000029290081e+00  9.9999999997267719e-01  9.9999999895413039e-01  9.9999999992940802e-01  1.0000000017275148e+00  9.9999999761172309e-01  1.0000000019262285e+00  9.9999999874440848e-01  1.0000000011731669e+00  9.9999999829139063e-01  1.0000000023318691e+00  9.9999999737153034e-01  1.0000000025657292e+00  9.9999999750786350e-01  1.0000000025594780e+00  9.9999999710589771e-01  1.0000000031058698e+00  9.9999999665661876e-01  1.0000000031615657e+00  9.9999999674293905e-01  1.0000000029428229e+00  9.9999999676119222e-01  1.0000000028976843e+00  9.9999999677772222e-01  1.0000000027573654e+00  9.9999999713551957e-01  1.0000000025331957e+00  9.9999999778014292e-01  1.0000000023872642e+00  9.9999999872192313e-01  1.0000000021988662e+00  9.9999999995659672e-01  1.0000000019498527e+00  1.0000000011111472e+00  1.0000000018877855e+00  1.0000000017865487e+00  1.0000000021670901e+00  1.0000000018578681e+00  1.0000001301235946e+00  9.9999998172487903e-01  1.0000001520889681e+00  1.0000000002382217e+00  1.0000001240422343e+00  9.9999997001051000e-01  1.0000000921210721e+00  9.9999993708821000e-01  1.0000000227019636e+00  9.9999994786907775e-01  1.0000000476361244e+00  9.9999993539093035e-01  1.0000000935846363e+00  1.0000000176068076e+00  1.0000000386575121e+00  9.9999997093184689e-01  1.0000000717541735e+00  9.9999989191209038e-01  9.9999996311854011e-01  1.0000000394394479e+00  1.0000000435555902e+00  1.0000000109492764e+00  1.0000002353484334e+00  1.0000002051396286e+00  1.0000001021177711e+00  1.0000002653222857e+00  1