<?xml version="1.0"?>
<VTKFile type="UnstructuredGrid"  version="0.1"  >
<UnstructuredGrid>
<Piece  NumberOfPoints="40401" NumberOfCells="80000">
<Points>
<DataArray  type="Float64"  NumberOfComponents="3"  format="ascii">-5 -5 0  -4.95 -5 0  -4.9 -5 0  -4.85 -5 0  -4.8 -5 0  -4.75 -5 0  -4.7 -5 0  -4.65 -5 0  -4.6 -5 0  -4.55 -5 0  -4.5 -5 0  -4.45 -5 0  -4.4 -5 0  -4.35 -5 0  -4.3 -5 0  -4.25 -5 0  -4.2 -5 0  -4.15 -5 0  -4.1 -5 0  -4.05 -5 0  -4 -5 0  -3.95 -5 0  -3.9 -5 0  -3.85 -5 0  -3.8 -5 0  -3.75 -5 0  -3.7 -5 0  -3.65 -5 0  -3.6 -5 0  -3.55 -5 0  -3.5 -5 0  -3.45 -5 0  -3.4 -5 0  -3.35 -5 0  -3.3 -5 0  -3.25 -5 0  -3.2 -5 0  -3.15 -5 0  -3.1 -5 0  -3.05 -5 0  -3 -5 0  -2.95 -5 0  -2.9 -5 0  -2.85 -5 0  -2.8 -5 0  -2.75 -5 0  -2.7 -5 0  -2.65 -5 0  -2.6 -5 0  -2.55 -5 0  -2.5 -5 0  -2.45 -5 0  -2.4 -5 0  -2.35 -5 0  -2.3 -5 0  -2.25 -5 0  -2.2 -5 0  -2.15 -5 0  -2.1 -5 0  -2.05 -5 0  -2 -5 0  -1.95 -5 0  -1.9 -5 0  -1.85 -5 0  -1.8 -5 0  -1.75 -5 0  -1.7 -5 0  -1.65 -5 0  -1.6 -5 0  -1.55 -5 0  -1.5 -5 0  -1.45 -5 0  -1.4 -5 0  -1.35 -5 0  -1.3 -5 0  -1.25 -5 0  -1.2 -5 0  -1.15 -5 0  -1.1 -5 0  -1.05 -5 0  -1 -5 0  -0.9500000000000002 -5 0  -0.9000000000000004 -5 0  -0.8499999999999996 -5 0  -0.7999999999999998 -5 0  -0.75 -5 0  -0.7000000000000002 -5 0  -0.6500000000000004 -5 0  -0.5999999999999996 -5 0  -0.5499999999999998 -5 0  -0.5 -5 0  -0.4500000000000002 -5 0  -0.4000000000000004 -5 0  -0.3499999999999996 -5 0  -0.2999999999999998 -5 0  -0.25 -5 0  -0.2000000000000002 -5 0  -0.1500000000000004 -5 0  -0.09999999999999964 -5 0  -0.04999999999999982 -5 0  0 -5 0  0.04999999999999982 -5 0  0.09999999999999964 -5 0  0.1500000000000004 -5 0  0.2000000000000002 -5 0  0.25 -5 0  0.2999999999999998 -5 0  0.3499999999999996 -5 0  0.4000000000000004 -5 0  0.4500000000000002 -5 0  0.5 -5 0  0.5499999999999998 -5 0  0.5999999999999996 -5 0  0.6500000000000004 -5 0  0.7000000000000002 -5 0  0.75 -5 0  0.7999999999999998 -5 0  0.8499999999999996 -5 0  0.9000000000000004 -5 0  0.9500000000000002 -5 0  1 -5 0  1.05 -5 0  1.1 -5 0  1.15 -5 0  1.2 -5 0  1.25 -5 0  1.3 -5 0  1.35 -5 0  1.4 -5 0  1.45 -5 0  1.5 -5 0  1.55 -5 0  1.6 -5 0  1.65 -5 0  1.7 -5 0  1.75 -5 0  1.8 -5 0  1.85 -5 0  1.9 -5 0  1.95 -5 0  2 -5 0  2.05 -5 0  2.1 -5 0  2.15 -5 0  2.2 -5 0  2.25 -5 0  2.3 -5 0  2.35 -5 0  2.4 -5 0  2.45 -5 0  2.5 -5 0  2.55 -5 0  2.6 -5 0  2.65 -5 0  2.7 -5 0  2.75 -5 0  2.8 -5 0  2.85 -5 0  2.9 -5 0  2.95 -5 0  3 -5 0  3.050000000000001 -5 0  3.1 -5 0  3.15 -5 0  3.199999999999999 -5 0  3.25 -5 0  3.300000000000001 -5 0  3.35 -5 0  3.4 -5 0  3.449999999999999 -5 0  3.5 -5 0  3.550000000000001 -5 0  3.6 -5 0  3.65 -5 0  3.699999999999999 -5 0  3.75 -5 0  3.800000000000001 -5 0  3.85 -5 0  3.9 -5 0  3.949999999999999 -5 0  4 -5 0  4.050000000000001 -5 0  4.1 -5 0  4.15 -5 0  4.199999999999999 -5 0  4.25 -5 0  4.300000000000001 -5 0  4.35 -5 0  4.4 -5 0  4.449999999999999 -5 0  4.5 -5 0  4.550000000000001 -5 0  4.6 -5 0  4.65 -5 0  4.699999999999999 -5 0  4.75 -5 0  4.800000000000001 -5 0  4.85 -5 0  4.9 -5 0  4.949999999999999 -5 0  5 -5 0  -5 -4.95 0  -4.95 -4.95 0  -4.9 -4.95 0  -4.85 -4.95 0  -4.8 -4.95 0  -4.75 -4.95 0  -4.7 -4.95 0  -4.65 -4.95 0  -4.6 -4.95 0  -4.55 -4.95 0  -4.5 -4.95 0  -4.45 -4.95 0  -4.4 -4.95 0  -4.35 -4.95 0  -4.3 -4.95 0  -4.25 -4.95 0  -4.2 -4.95 0  -4.15 -4.95 0  -4.1 -4.95 0  -4.05 -4.95 0  -4 -4.95 0  -3.95 -4.95 0  -3.9 -4.95 0  -3.85 -4.95 0  -3.8 -4.95 0  -3.75 -4.95 0  -3.7 -4.95 0  -3.65 -4.95 0  -3.6 -4.95 0  -3.55 -4.95 0  -3.5 -4.95 0  -3.45 -4.95 0  -3.4 -4.95 0  -3.35 -4.95 0  -3.3 -4.95 0  -3.25 -4.95 0  -3.2 -4.95 0  -3.15 -4.95 0  -3.1 -4.95 0  -3.05 -4.95 0  -3 -4.95 0  -2.95 -4.95 0  -2.9 -4.95 0  -2.85 -4.95 0  -2.8 -4.95 0  -2.75 -4.95 0  -2.7 -4.95 0  -2.65 -4.95 0  -2.6 -4.95 0  -2.55 -4.95 0  -2.5 -4.95 0  -2.45 -4.95 0  -2.4 -4.95 0  -2.35 -4.95 0  -2.3 -4.95 0  -2.25 -4.95 0  -2.2 -4.95 0  -2.15 -4.95 0  -2.1 -4.95 0  -2.05 -4.95 0  -2 -4.95 0  -1.95 -4.95 0  -1.9 -4.95 0  -1.85 -4.95 0  -1.8 -4.95 0  -1.75 -4.95 0  -1.7 -4.95 0  -1.65 -4.95 0  -1.6 -4.95 0  -1.55 -4.95 0  -1.5 -4.95 0  -1.45 -4.95 0  -1.4 -4.95 0  -1.35 -4.95 0  -1.3 -4.95 0  -1.25 -4.95 0  -1.2 -4.95 0  -1.15 -4.95 0  -1.1 -4.95 0  -1.05 -4.95 0  -1 -4.95 0  -0.9500000000000002 -4.95 0  -0.9000000000000004 -4.95 0  -0.8499999999999996 -4.95 0  -0.7999999999999998 -4.95 0  -0.75 -4.95 0  -0.7000000000000002 -4.95 0  -0.6500000000000004 -4.95 0  -0.5999999999999996 -4.95 0  -0.5499999999999998 -4.95 0  -0.5 -4.95 0  -0.4500000000000002 -4.95 0  -0.4000000000000004 -4.95 0  -0.3499999999999996 -4.95 0  -0.2999999999999998 -4.95 0  -0.25 -4.95 0  -0.2000000000000002 -4.95 0  -0.1500000000000004 -4.95 0  -0.09999999999999964 -4.95 0  -0.04999999999999982 -4.95 0  0 -4.95 0  0.04999999999999982 -4.95 0  0.09999999999999964 -4.95 0  0.1500000000000004 -4.95 0  0.2000000000000002 -4.95 0  0.25 -4.95 0  0.2999999999999998 -4.95 0  0.3499999999999996 -4.95 0  0.4000000000000004 -4.95 0  0.4500000000000002 -4.95 0  0.5 -4.95 0  0.5499999999999998 -4.95 0  0.5999999999999996 -4.95 0  0.6500000000000004 -4.95 0  0.7000000000000002 -4.95 0  0.75 -4.95 0  0.7999999999999998 -4.95 0  0.8499999999999996 -4.95 0  0.9000000000000004 -4.95 0  0.9500000000000002 -4.95 0  1 -4.95 0  1.05 -4.95 0  1.1 -4.95 0  1.15 -4.95 0  1.2 -4.95 0  1.25 -4.95 0  1.3 -4.95 0  1.35 -4.95 0  1.4 -4.95 0  1.45 -4.95 0  1.5 -4.95 0  1.55 -4.95 0  1.6 -4.95 0  1.65 -4.95 0  1.7 -4.95 0  1.75 -4.95 0  1.8 -4.95 0  1.85 -4.95 0  1.9 -4.95 0  1.95 -4.95 0  2 -4.95 0  2.05 -4.95 0  2.1 -4.95 0  2.15 -4.95 0  2.2 -4.95 0  2.25 -4.95 0  2.3 -4.95 0  2.35 -4.95 0  2.4 -4.95 0  2.45 -4.95 0  2.5 -4.95 0  2.55 -4.95 0  2.6 -4.95 0  2.65 -4.95 0  2.7 -4.95 0  2.75 -4.95 0  2.8 -4.95 0  2.85 -4.95 0  2.9 -4.95 0  2.95 -4.95 0  3 -4.95 0  3.050000000000001 -4.95 0  3.1 -4.95 0  3.15 -4.95 0  3.199999999999999 -4.95 0  3.25 -4.95 0  3.300000000000001 -4.95 0  3.35 -4.95 0  3.4 -4.95 0  3.449999999999999 -4.95 0  3.5 -4.95 0  3.550000000000001 -4.95 0  3.6 -4.95 0  3.65 -4.95 0  3.699999999999999 -4.95 0  3.75 -4.95 0  3.800000000000001 -4.95 0  3.85 -4.95 0  3.9 -4.95 0  3.949999999999999 -4.95 0  4 -4.95 0  4.050000000000001 -4.95 0  4.1 -4.95 0  4.15 -4.95 0  4.199999999999999 -4.95 0  4.25 -4.95 0  4.300000000000001 -4.95 0  4.35 -4.95 0  4.4 -4.95 0  4.449999999999999 -4.95 0  4.5 -4.95 0  4.550000000000001 -4.95 0  4.6 -4.95 0  4.65 -4.95 0  4.699999999999999 -4.95 0  4.75 -4.95 0  4.800000000000001 -4.95 0  4.85 -4.95 0  4.9 -4.95 0  4.949999999999999 -4.95 0  5 -4.95 0  -5 -4.9 0  -4.95 -4.9 0  -4.9 -4.9 0  -4.85 -4.9 0  -4.8 -4.9 0  -4.75 -4.9 0  -4.7 -4.9 0  -4.65 -4.9 0  -4.6 -4.9 0  -4.55 -4.9 0  -4.5 -4.9 0  -4.45 -4.9 0  -4.4 -4.9 0  -4.35 -4.9 0  -4.3 -4.9 0  -4.25 -4.9 0  -4.2 -4.9 0  -4.15 -4.9 0  -4.1 -4.9 0  -4.05 -4.9 0  -4 -4.9 0  -3.95 -4.9 0  -3.9 -4.9 0  -3.85 -4.9 0  -3.8 -4.9 0  -3.75 -4.9 0  -3.7 -4.9 0  -3.65 -4.9 0  -3.6 -4.9 0  -3.55 -4.9 0  -3.5 -4.9 0  -3.45 -4.9 0  -3.4 -4.9 0  -3.35 -4.9 0  -3.3 -4.9 0  -3.25 -4.9 0  -3.2 -4.9 0  -3.15 -4.9 0  -3.1 -4.9 0  -3.05 -4.9 0  -3 -4.9 0  -2.95 -4.9 0  -2.9 -4.9 0  -2.85 -4.9 0  -2.8 -4.9 0  -2.75 -4.9 0  -2.7 -4.9 0  -2.65 -4.9 0  -2.6 -4.9 0  -2.55 -4.9 0  -2.5 -4.9 0  -2.45 -4.9 0  -2.4 -4.9 0  -2.35 -4.9 0  -2.3 -4.9 0  -2.25 -4.9 0  -2.2 -4.9 0  -2.15 -4.9 0  -2.1 -4.9 0  -2.05 -4.9 0  -2 -4.9 0  -1.95 -4.9 0  -1.9 -4.9 0  -1.85 -4.9 0  -1.8 -4.9 0  -1.75 -4.9 0  -1.7 -4.9 0  -1.65 -4.9 0  -1.6 -4.9 0  -1.55 -4.9 0  -1.5 -4.9 0  -1.45 -4.9 0  -1.4 -4.9 0  -1.35 -4.9 0  -1.3 -4.9 0  -1.25 -4.9 0  -1.2 -4.9 0  -1.15 -4.9 0  -1.1 -4.9 0  -1.05 -4.9 0  -1 -4.9 0  -0.9500000000000002 -4.9 0  -0.9000000000000004 -4.9 0  -0.8499999999999996 -4.9 0  -0.7999999999999998 -4.9 0  -0.75 -4.9 0  -0.7000000000000002 -4.9 0  -0.6500000000000004 -4.9 0  -0.5999999999999996 -4.9 0  -0.5499999999999998 -4.9 0  -0.5 -4.9 0  -0.4500000000000002 -4.9 0  -0.4000000000000004 -4.9 0  -0.3499999999999996 -4.9 0  -0.2999999999999998 -4.9 0  -0.25 -4.9 0  -0.2000000000000002 -4.9 0  -0.1500000000000004 -4.9 0  -0.09999999999999964 -4.9 0  -0.04999999999999982 -4.9 0  0 -4.9 0  0.04999999999999982 -4.9 0  0.09999999999999964 -4.9 0  0.1500000000000004 -4.9 0  0.2000000000000002 -4.9 0  0.25 -4.9 0  0.2999999999999998 -4.9 0  0.3499999999999996 -4.9 0  0.4000000000000004 -4.9 0  0.4500000000000002 -4.9 0  0.5 -4.9 0  0.5499999999999998 -4.9 0  0.5999999999999996 -4.9 0  0.6500000000000004 -4.9 0  0.7000000000000002 -4.9 0  0.75 -4.9 0  0.7999999999999998 -4.9 0  0.8499999999999996 -4.9 0  0.9000000000000004 -4.9 0  0.9500000000000002 -4.9 0  1 -4.9 0  1.05 -4.9 0  1.1 -4.9 0  1.15 -4.9 0  1.2 -4.9 0  1.25 -4.9 0  1.3 -4.9 0  1.35 -4.9 0  1.4 -4.9 0  1.45 -4.9 0  1.5 -4.9 0  1.55 -4.9 0  1.6 -4.9 0  1.65 -4.9 0  1.7 -4.9 0  1.75 -4.9 0  1.8 -4.9 0  1.85 -4.9 0  1.9 -4.9 0  1.95 -4.9 0  2 -4.9 0  2.05 -4.9 0  2.1 -4.9 0  2.15 -4.9 0  2.2 -4.9 0  2.25 -4.9 0  2.3 -4.9 0  2.35 -4.9 0  2.4 -4.9 0  2.45 -4.9 0  2.5 -4.9 0  2.55 -4.9 0  2.6 -4.9 0  2.65 -4.9 0  2.7 -4.9 0  2.75 -4.9 0  2.8 -4.9 0  2.85 -4.9 0  2.9 -4.9 0  2.95 -4.9 0  3 -4.9 0  3.050000000000001 -4.9 0  3.1 -4.9 0  3.15 -4.9 0  3.199999999999999 -4.9 0  3.25 -4.9 0  3.300000000000001 -4.9 0  3.35 -4.9 0  3.4 -4.9 0  3.449999999999999 -4.9 0  3.5 -4.9 0  3.550000000000001 -4.9 0  3.6 -4.9 0  3.65 -4.9 0  3.699999999999999 -4.9 0  3.75 -4.9 0  3.800000000000001 -4.9 0  3.85 -4.9 0  3.9 -4.9 0  3.949999999999999 -4.9 0  4 -4.9 0  4.050000000000001 -4.9 0  4.1 -4.9 0  4.15 -4.9 0  4.199999999999999 -4.9 0  4.25 -4.9 0  4.300000000000001 -4.9 0  4.35 -4.9 0  4.4 -4.9 0  4.449999999999999 -4.9 0  4.5 -4.9 0  4.550000000000001 -4.9 0  4.6 -4.9 0  4.65 -4.9 0  4.699999999999999 -4.9 0  4.75 -4.9 0  4.800000000000001 -4.9 0  4.85 -4.9 0  4.9 -4.9 0  4.949999999999999 -4.9 0  5 -4.9 0  -5 -4.85 0  -4.95 -4.85 0  -4.9 -4.85 0  -4.85 -4.85 0  -4.8 -4.85 0  -4.75 -4.85 0  -4.7 -4.85 0  -4.65 -4.85 0  -4.6 -4.85 0  -4.55 -4.85 0  -4.5 -4.85 0  
[...]
<PointData  Scalars="r"> 
<DataArray  type="Float64"  Name="r"  format="ascii">1.0190372077828067e+00  1.0189727759272564e+00  1.0196136387592378e+00  1.0196912878364659e+00  1.0197820282118708e+00  1.0201703554150401e+00  1.0205479126822212e+00  1.0216413480116959e+00  1.0223277488232088e+00  1.0229658272168465e+00  1.0240738413477797e+00  1.0250658708953304e+00  1.0272003878222096e+00  1.0290877874137137e+00  1.0310505439847524e+00  1.0327331653162477e+00  1.0340639067116195e+00  1.0366101259276135e+00  1.0377617291826577e+00  1.0388715831950250e+00  1.0401641201870488e+00  1.0428443565945702e+00  1.0385542369755099e+00  1.0190595870933894e+00  9.8991658970812013e-01  9.6416146542340952e-01  9.4943591993634524e-01  9.4302976280557882e-01  9.4210678177362439e-01  9.4357288987601773e-01  9.4719203530276508e-01  9.5187532805838970e-01  9.5785030443280994e-01  9.6415636960086093e-01  9.7052650644188121e-01  9.7613416434473621e-01  9.8064377115071866e-01  9.8391974989329689e-01  9.8589129831048583e-01  9.8712803087435541e-01  9.8765399809100829e-01  9.8813887064038342e-01  9.8847244466833373e-01  9.8903227575334685e-01  9.8953883439003809e-01  9.9017185407251307e-01  9.9061536484904689e-01  9.9105474987701636e-01  9.9128536396482458e-01  9.9148307766867017e-01  9.9161777908990567e-01  9.9173212229938434e-01  9.9191371943106132e-01  9.9207201585151383e-01  9.9230926510242967e-01  9.9250516210879058e-01  9.9271919965009858e-01  9.9289718655375570e-01  9.9303026535441608e-01  9.9317226149778615e-01  9.9323535119357675e-01  9.9336238772643404e-01  9.9340334254671703e-01  9.9353203188408745e-01  9.9359319285733760e-01  9.9371150976070399e-01  9.9380713550984845e-01  9.9389428335622132e-01  9.9401216802681047e-01  9.9406070620532605e-01  9.9417891405225933e-01  9.9420361534917812e-01  9.9429919619279483e-01  9.9432919109309836e-01  9.9438569854406389e-01  9.9444526558063773e-01  9.9445784125974002e-01  9.9455359956453770e-01  9.9453301451829890e-01  9.9464814576070593e-01  9.9461840385292355e-01  9.9472416205377334e-01  9.9471084272453902e-01  9.9478109657635205e-01  9.9480166200855313e-01  9.9482549857727798e-01  9.9487765438227072e-01  9.9486788560639494e-01  9.9493030097454815e-01  9.9491388145206916e-01  9.9495912130005559e-01  9.9496310641135410e-01  9.9497066054370797e-01  9.9500804035493429e-01  9.9497632288310300e-01  9.9503906104570639e-01  9.9498561198154623e-01  9.9505066160742439e-01  9.9500196489431980e-01  9.9504288270285035e-01  9.9502161834264724e-01  9.9502381136609386e-01  9.9503381108628808e-01  9.9500494053726729e-01  9.9502957294812044e-01  9.9499206486345881e-01  9.9500643308075076e-01  9.9498526603091020e-01  9.9496702729491382e-01  9.9497794785825100e-01  9.9492088385994848e-01  9.9495778486835940e-01  9.9487608512590919e-01  9.9491618775611301e-01  9.9483304728470878e-01  9.9485100165819251e-01  9.9478659249438384e-01  9.9476605427300591e-01  9.9472913861482837e-01  9.9467105316236837e-01  9.9465515500011226e-01  9.9457789509518379e-01  9.9456496637148772e-01  9.9449588557331237e-01  9.9446339605161937e-01  9.9442430289992301e-01  9.9435481188943309e-01  9.9434915261786483e-01  9.9423659277462206e-01  9.9424823597369538e-01  9.9409919419327364e-01  9.9410385859740669e-01  9.9393657250765211e-01  9.9391710648835963e-01  9.9375713151365885e-01  9.9371157752117023e-01  9.9358196153890088e-01  9.9351325681071279e-01  9.9341911671739491e-01  9.9331916650741758e-01  9.9323690106569706e-01  9.9308816426388624e-01  9.9298409755704520e-01  9.9278505007620055e-01  9.9265756971307884e-01  9.9244556943794160e-01  9.9232550938463848e-01  9.9214594143148727e-01  9.9203497064197399e-01  9.9185711709853130e-01  9.9169266779770626e-01  9.9142018761620621e-01  9.9115136407393423e-01  9.9077987682333435e-01  9.9048634030921512e-01  9.9013471493465255e-01  9.8984833908853076e-01  9.8950203287629435e-01  9.8900077966779754e-01  9.8831446654071387e-01  9.8749818814022272e-01  9.8640905858458650e-01  9.8524265136707045e-01  9.8352109178934000e-01  9.8111844830873574e-01  9.7714937507411004e-01  9.7192241451063210e-01  9.6528982153474663e-01  9.5833403108280402e-01  9.5168920560606618e-01  9.4642539485835475e-01  9.4258912809434525e-01  9.4153986694702352e-01  9.4304417013965769e-01  9.5092489920903123e-01  9.6529138372287404e-01  9.8826760309199302e-01  1.0145697149068471e+00  1.0340534673372865e+00  1.0449667734365813e+00  1.0433448122064737e+00  1.0401761977283275e+00  1.0369760768194103e+00  1.0347246698459653e+00  1.0353038464519100e+00  1.0333238425640017e+00  1.0307039263003841e+00  1.0287747251006178e+00  1.0268383274051835e+00  1.0254028176080785e+00  1.0247869570650567e+00  1.0237627485526137e+00  1.0219112785055231e+00  1.0214191361278391e+00  1.0208455469111051e+00  1.0201643106994243e+00  1.0195781215090989e+00  1.0189395072190739e+00  1.0192123107283877e+00  1.0187801511014900e+00  1.0183724550096966e+00  1.0189727759272567e+00  1.0194637472792407e+00  1.0193730567034380e+00  1.0193809888937346e+00  1.0199159822869126e+00  1.0203039384026049e+00  1.0210482375417096e+00  1.0215038574478996e+00  1.0219900185462008e+00  1.0231152046233765e+00  1.0241573677200970e+00  1.0257626783084057e+00  1.0273194652797981e+00  1.0288285882107495e+00  1.0310094770323062e+00  1.0330113770735398e+00  1.0350587838331324e+00  1.0356764071007616e+00  1.0365247278921061e+00  1.0393290415710836e+00  1.0421163781434315e+00  1.0409808582582438e+00  1.0316753149787194e+00  1.0142102315039243e+00  9.9092453275194947e-01  9.6857772976261058e-01  9.5317897628278425e-01  9.4559935567947739e-01  9.4360316935458799e-01  9.4489482541928993e-01  9.4814542812084224e-01  9.5275282139530315e-01  9.5825222994124593e-01  9.6413423534480935e-01  9.6996855789104874e-01  9.7517503934126148e-01  9.7952181764960233e-01  9.8275156467894642e-01  9.8501244563085122e-01  9.8648033175634753e-01  9.8737615607912410e-01  9.8805929986787711e-01  9.8855058807493312e-01  9.8909258448415183e-01  9.8958283534702562e-01  9.9007979989576722e-01  9.9051406545210452e-01  9.9088160717490859e-01  9.9116258325924000e-01  9.9140473168717935e-01  9.9158127731825330e-01  9.9177001473548310e-01  9.9193954061985667e-01  9.9212520548088434e-01  9.9231369371421208e-01  9.9249690028074977e-01  9.9267647788346491e-01  9.9283430817273688e-01  9.9298276329216950e-01  9.9310618160636377e-01  9.9322734957049730e-01  9.9332509754807696e-01  9.9343462549750450e-01  9.9352148614140101e-01  9.9362657383443376e-01  9.9371081911383718e-01  9.9381072334045117e-01  9.9389104010749429e-01  9.9398022365448402e-01  9.9405608119969091e-01  9.9412866222957075e-01  9.9420120091799036e-01  9.9425647764317460e-01  9.9432690008956726e-01  9.9436845112397898e-01  9.9443556354672036e-01  9.9447103637672185e-01  9.9453016968111541e-01  9.9456668637011358e-01  9.9461296866077942e-01  9.9465619933375826e-01  9.9468574923296205e-01  9.9473667672299104e-01  9.9475217897843748e-01  9.9480456502987447e-01  9.9481354516350151e-01  9.9485931992995602e-01  9.9487056746714631e-01  9.9490094681742780e-01  9.9492235872768908e-01  9.9493301102053355e-01  9.9496499421958007e-01  9.9495995924754099e-01  9.9499567263378730e-01  9.9498483707064100e-01  9.9501318266077732e-01  9.9500807989136530e-01  9.9501931731436943e-01  9.9502616901670726e-01  9.9501884615915293e-01  9.9503522515760856e-01  9.9501467609143113e-01  9.9503282505624246e-01  9.9500877229738582e-01  9.9501685524438066e-01  9.9500085917830416e-01  9.9498966126220056e-01  9.9498561987469569e-01  9.9495619334291840e-01  9.9495884121515299e-01  9.9491876874251928e-01  9.9491848373270675e-01  9.9488001405457327e-01  9.9486498372621424e-01  9.9483990084892560e-01  9.9480388260595842e-01  9.9479455728825084e-01  9.9474182608317563e-01  9.9473955359532229e-01  9.9468095523022948e-01  9.9467072692244485e-01  9.9461700212689197e-01  9.9458432086512816e-01  9.9454011215594507e-01  9.9447742010149087e-01  9.9444125939230188e-01  9.9435114973121419e-01  9.9431806504774134e-01  9.9421405609431235e-01  9.9417746710567112e-01  9.9407935514364143e-01  9.9403137848393286e-01  9.9395415038186186e-01  9.9388433934425857e-01  9.9382779102286001e-01  9.9372364450801143e-01  9.9367055890305722e-01  9.9352556301362183e-01  9.9345731389539660e-01  9.9328119495878930e-01  9.9319815926086796e-01  9.9301855852270704e-01  9.9293494379508085e-01  9.9277512969678228e-01  9.9268547725143796e-01  9.9252692309200885e-01  9.9239025198773601e-01  9.9218564555626598e-01  9.9196477755043866e-01  9.9171906736000848e-01  9.9144846259856145e-01  9.9123131631213068e-01  9.9098540743571917e-01  9.9080217215447708e-01  9.9053353695367785e-01  9.9022727601895089e-01  9.8980369579048055e-01  9.8929624634610391e-01  9.8867695599507388e-01  9.8814258055677384e-01  9.8729555255314883e-01  9.8636050043343171e-01  9.8473133554920622e-01  9.8244246061174612e-01  9.7913866115925974e-01  9.7496978871987161e-01  9.7008617285887044e-01  9.6450229077479965e-01  9.5882106711874937e-01  9.5330769134512106e-01  9.4836309339205660e-01  9.4501423282154140e-01  9.4322325931102202e-01  9.4547596693108027e-01  9.5244266911458131e-01  9.6697662640467918e-01  9.8885429626470567e-01  1.0133369150304281e+00  1.0339530459287958e+00  1.0432585172476214e+00  1.0434476467096783e+00  1.0404035271791441e+00  1.0369216072968523e+00  1.0355333393688522e+00  1.0349556013034478e+00  1.0326992264091601e+00  1.0308293395988137e+00  1.0285830625373305e+00  1.0265671816649800e+00  1.0257043065398628e+00  1.0251565039126038e+00  1.0234528052625158e+00  1.0223165575086168e+00  1.0215825624037687e+00  1.0205638322856672e+00  1.0202082374425845e+00  1.0195131184430273e+00  1.0194621537145760e+00  1.0190269225199204e+00  1.0183359618284802e+00  1.0187801511014911e+00  1.0196136387592381e+00  1.0193730567034367e+00  1.0193064984780746e+00  1.0198829952786208e+00  1.0200703152127999e+00  1.0205584608404894e+00  1.0209457206255370e+00  1.0214921358920379e+00  1.0225085373806455e+00  1.0233170589666698e+00  1.0246757572557781e+00  1.0258623003269112e+00  1.0273988096950071e+00  1.0291239006756239e+00  1.0310483151033687e+00  1.0327533258983002e+00  1.0340851594166072e+00  1.0357876518707538e+00  1.0377791133050998e+00  1.0400245703177784e+00  1.0400455679014369e+00  1.0358642997298273e+00  1.0249760648005386e+00  1.0099451501474557e+00  9.9292172997778194e-01  9.7526062373520972e-01  9.6075346890342050e-01  9.5147383933097351e-01  9.4857648510958525e-01  9.4916627383140328e-01  9.5221985061558334e-01  9.5598302152483638e-01  9.6021338237615317e-01  9.6430975823236253e-01  9.6827151463110039e-01  9.7193456156928826e-01  9.7537675572913751e-01  9.7856041915602254e-01  9.8142272331478941e-01  9.8393669251995164e-01  9.8591970459422862e-01  9.8752079372782287e-01  9.8850012673792531e-01  9.8927716166986346e-01  9.8959145168758156e-01  9.8995653788500493e-01  9.9012954317157098e-01  9.9045533011217890e-01  9.9075497578991989e-01  9.9112118290079887e-01  9.9147716849425382e-01  9.9177604688385967e-01  9.9204898184092483e-01  9.9221296527281222e-01  9.9238273503152863e-01  9.9247037874234256e-01  9.9259677024352033e-01  9.9270567510691210e-01  9.9283171477462129e-01  9.9299853526468929e-01  9.9311658374905321e-01  9.9331021908151107e-01  9.9339862727926953e-01  9.9356753899539718e-01  9.9362873811045560e-01  9.9374530725246268e-01  9.9380419847051182e-01  9.9386983622852432e-01  9.9395318385951881e-01  9.9398423235391631e-01  9.9409558537335230e-01  9.9411547962296176e-01  9.9423211760955144e-01  9.9426363376594484e-01  9.9435282863067187e-01  9.9441328925034600e-01  9.9445161011779193e-01  9.9454523730490063e-01  9.9453317264440155e-01  9.9464818673892463e-01  9.9460749542515337e-01  9.9471930679816079e-01  9.9468404778281783e-01  9.9476448097833203e-01  9.9476271808892081e-01  9.9479715864308038e-01  9.9483588881785212e-01  9.9482946191277177e-01  9.9489424555005423e-01  9.9487011237991718e-01  9.9493109326637053e-01  9.9491980712806172e-01  9.9494887707040103e-01  9.9497053700280269e-01  9.9495614581546843e-01  9.9501108868606769e-01  9.9496305113586747e-01  9.9503208844905944e-01  9.9497611749790782e-01  9.9503149093969967e-01  9.9499274054413411e-01  9.9501538276253176e-01  9.9500551169066709e-01  9.9499208514105020e-01  9.9500635845264473e-01  9.9497034039252608e-01  9.9498814074253850e-01  9.9495451402908719e-01  9.9495171537474159e-01  9.9493988594419447e-01  9.9490443764639769e-01  9.9491925669897985e-01  9.9485337979454846e-01  9.9488486914063379e-01  9.9480376242073998e-01  9.9483112707734500e-01  9.9475500155231000e-01  9.9475853021977467e-01  9.9470038383571979e-01  9.9467194233677902e-01  9.9463230100763078e-01  9.9457734181775770e-01  9.9454629100754577e-01  9.9447978081787192e-01  9.9444390471841415e-01  9.9438160211121762e-01  9.9432981813344445e-01  9.9428155755670211e-01  9.9420694821241118e-01  9.9417315743349755e-01  9.9407284629570625e-01  9.9404492996859539e-01  9.9392010576416878e-01  9.9388612556781930e-01  9.9374268671205601e-01  9.9369482532522169e-01  9.9354445805049518e-01  9.9348392855586221e-01  9.9333750166293766e-01  9.9326996717816651e-01  9.9312669245614926e-01  9.9304750877228631e-01  9.9289094191574667e-01  9.9278246023663497e-01  9.9259324759384637e-01  9.9244943637897587e-01  9.9223395043378815e-01  9.9207439862300117e-01  9.9186703826571765e-01  9.9170802456620788e-01  9.9150362315083418e-01  9.9131368117059027e-01  9.9103461040283414e-01  9.9074247545731342e-01  9.9033573148365184e-01  9.8992966223361667e-01  9.8944615013534376e-01  9.8889625286525906e-01  9.8832091716817383e-01  9.8742201212760572e-01  9.8625985970831542e-01  9.8461795168980892e-01  9.8226184087223778e-01  9.7936970152589142e-01  9.7577054680452779e-01  9.7189289642986421e-01  9.6779210614088151e-01  9.6360002204129913e-01  9.5978901925248372e-01  9.5545962153882502e-01  9.5217118129944323e-01  9.4886981139476057e-01  9.4871489724370817e-01  9.5149562398106236e-01  9.6038297531234751e-01  9.7463516568540620e-01  9.9232324044298215e-01  1.0113565195635534e+00  1.0251143189188998e+00  1.0353625549812255e+00  1.0375773925871394e+00  1.0393777654617935e+00  1.0383131331175903e+00  1.0365237037019175e+00  1.0350278193560785e+00  1.0318244303798838e+00  1.0308065111871605e+00  1.0291483237003298e+00  1.0276057314873213e+00  1.0264916939455839e+00  1.0250139600528905e+00  1.0232775999528176e+00  1.0225960108951744e+00  1.0216535031548128e+00  1.0211155280562341e+00  1.0203735947363710e+00  1.0196164514631980e+00  1.0193502432695223e+00  1.0187870074052419e+00  1.0190269225199173e+00  1.0192123107283888e+00  1.0196912878364672e+00  1.0193809888937351e+00  1.0198829952786210e+00  1.0198432690726806e+00  1.0202391319870046e+00  1.0207483883862911e+00  1.0213429176346933e+00  1.0220604655706400e+00  1.0226153039467605e+00  1.0238331676011123e+00  1.0250480252182024e+00  1.0265615737114406e+00  1.0280098344904640e+00  1.0292721328562728e+00  1.0311245934491264e+00  1.0324786159490849e+00  1.0342727862769912e+00  1.0356799281444360e+00  1.0384090464031823e+00  1.0399309621966317e+00  1.0365050668998077e+00  1.0265777871843564e+00  1.0128336961782107e+00  1.0020255299784551e+00  9.9390245850698811e-01  9.8563041026023979e-01  9.7421755711414759e-01  9.6337137199306089e-01  9.5733016717613528e-01  9.5572527328296786e-01  9.5716218110262574e-01  9.5924477855364032e-01  9.6156970745769543e-01  9.6363941028349198e-01  9.6570829660767732e-01  9.6806573506113303e-01  9.7082084946528713e-01  9.7405886292865007e-01  9.7748083513597439e-01  9.8083710751184838e-01  9.8373183984765766e-01  9.8601473389867256e-01  9.8756882608047214e-01  9.8858959980324412e-01  9.8912423304430797e-01  9.8954301807791112e-01  9.8978883706700516e-01  9.9017527326678434e-01  9.9050130029290961e-01  9.9094360675086590e-01  9.9130098510423026e-01  9.9165689926721123e-01  9.9190886316039417e-01  9.9211700638261280e-01  9.9226309120910094e-01  9.9238467184923917e-01  9.9251164868002095e-01  9.9262485841453518e-01  9.9278195922344681e-01  9.9290927214608415e-01  9.9308307509506422e-01  9.9320559291854715e-01  9.9336134871130244e-01  9.9346139599439709e-01  9.9358352438593533e-01  9.9366047702385185e-01  9.9375491686029893e-01  9.9382249219851926e-01  9.9389894240880505e-01  9.9396982644863141e-01  9.9403464903254080e-01  9.9411273134273737e-01  9.9416669420461801e-01  9.9424897604290563e-01  9.9429286132340067e-01  9.9437127832867511e-01  9.9440949732262440e-01  9.9447559226320315e-01  9.9451544189286434e-01  9.9456132618083015e-01  9.9460965491873976e-01  9.9463361528959926e-01  9.9469026775782898e-01  9.9469764900943247e-01  9.9475685143986503e-01  9.9475734146782191e-01  9.9480819257652520e-01  9.9481505819708016e-01  9.9484642239038990e-01  9.9486812655299950e-01  9.9487625562791671e-01  9.9491268301403391e-01  9.9490219890484199e-01  9.9494438515978412e-01  9.9492820158653006e-01  9.9496144037375900e-01  9.9495392776318359e-01  9.9496653106867583e-01  9.9497515439671802e-01  9.9496428932252057e-01  9.9498676318437673e-01  9.9496064072512247e-01  9.9498344855369958e-01  9.9495892476824332e-01  9.9496554799772141e-01  9.9495523687445564e-01  9.9493878063709484e-01  9.9494379527736132e-01  9.9490780939535883e-01  9.9491966814179267e-01  9.9487667340600017e-01  9.9487839797810185e-01  9.9484505051161609e-01  9.9482158913027774e-01  9.9480684091465976e-01  9.9475458527195215e-01  9.9475480327303734e-01  9.9468255434301511e-01  9.9468368511876559e-01  9.9460910338927500e-01  9.9459314637469287e-01  9.9453428954211398e-01  9.9448933185172461e-01  9.9445540314493297e-01  9.9438080743753587e-01  9.9436771549471981e-01  9.9427357731470811e-01  9.9426484007060678e-01  9.9416565107065524e-01  9.9413914833409212e-01  9.9404619677534733e-01  9.9398408371837854e-01  9.9390240613253011e-01  9.9379969501242360e-01  9.9372984085651073e-01  9.9359773803723206e-01  9.9353793226970655e-01  9.9339421718754373e-01  9.9333847165511602e-01  9.9319194000583755e-01  9.9312326933029271e-01  9.9296687080530266e-01  9.9286189815143611e-01  9.9268284382871841e-01  9.9253410269127285e-01  9.9233509881654669e-01  9.9215977964908098e-01  9.9195980980744980e-01  9.9177602013317756e-01  9.9156287690050215e-01  9.9135328601624395e-01  9.9106301344498171e-01  9.9076628399468614e-01  9.9035533361900674e-01  9.8993919661055718e-01  9.8943494377307206e-01  9.8887485241150064e-01  9.8821049993663745e-01  9.8728213151517608e-01  9.8588189031615436e-01  9.8404250422247130e-01  9.8128472997075200e-01  9.7814191391303895e-01  9.7449182262560574e-01  9.7092775867776304e-01  9.6772537837262762e-01  9.6493313096350586e-01  9.6289390131416142e-01  9.6081276537645854e-01  9.5908973506673012e-01  9.5725553127446428e-01  9.5627837941069882e-01  9.5768194062054857e-01  9.6256225979569576e-01  9.7258574159484901e-01  9.8376567911892665e-01  9.9623618492938182e-01  1.0046616924664968e+00  1.0151642810228965e+00  1.0250813098317293e+00  1.0341938735272715e+00  1.0407908327208080e+00  1.0393564807755944e+00  1.0381566294538667e+00  1.0338164952268156e+00  1.0312410683666962e+00  1.0315028813517153e+00  1.0296291943567064e+00  1.0280339148229574e+00  1.0264888429966548e+00  1.0243436963118089e+00  1.0234016129843393e+00  1.0232940120808860e+00  1.0222476721162974e+00  1.0214025638562259e+00  1.0202357352088391e+00  1.0199635027071945e+00  1.0198046223616246e+00  1.0193502432695225e+00  1.0194621537145767e+00  1.0189395072190763e+00  1.0197820282118715e+00  1.0199159822869126e+00  1.0200703152127994e+00  1.0202391319870046e+00  1.0207668859797210e+00  1.0212173671358196e+00  1.0217367576554726e+00  1.0221482380279994e+00  1.0234016320746662e+00  1.0244517674879092e+00  1.0257916739619712e+00  1.0271044317598081e+00  1.0283053639376685e+00  1.0299849078899508e+00  1.0307803497525765e+00  1.0318023277136290e+00  1.0336310037458525e+00  1.0372644148889365e+00  1.0396014632273514e+00  1.0363577393419734e+00  1.0272915748159492e+00  1.0158909479743339e+00  1.0063174053439521e+00  1.0005443761329609e+00  9.9724325012953363e-01  9.9432748018525874e-01  9