<?xml version="1.0"?>
<VTKFile type="UnstructuredGrid"  version="0.1"  >
<UnstructuredGrid>
<Piece  NumberOfPoints="40401" NumberOfCells="80000">
<Points>
<DataArray  type="Float64"  NumberOfComponents="3"  format="ascii">-5 -5 0  -4.95 -5 0  -4.9 -5 0  -4.85 -5 0  -4.8 -5 0  -4.75 -5 0  -4.7 -5 0  -4.65 -5 0  -4.6 -5 0  -4.55 -5 0  -4.5 -5 0  -4.45 -5 0  -4.4 -5 0  -4.35 -5 0  -4.3 -5 0  -4.25 -5 0  -4.2 -5 0  -4.15 -5 0  -4.1 -5 0  -4.05 -5 0  -4 -5 0  -3.95 -5 0  -3.9 -5 0  -3.85 -5 0  -3.8 -5 0  -3.75 -5 0  -3.7 -5 0  -3.65 -5 0  -3.6 -5 0  -3.55 -5 0  -3.5 -5 0  -3.45 -5 0  -3.4 -5 0  -3.35 -5 0  -3.3 -5 0  -3.25 -5 0  -3.2 -5 0  -3.15 -5 0  -3.1 -5 0  -3.05 -5 0  -3 -5 0  -2.95 -5 0  -2.9 -5 0  -2.85 -5 0  -2.8 -5 0  -2.75 -5 0  -2.7 -5 0  -2.65 -5 0  -2.6 -5 0  -2.55 -5 0  -2.5 -5 0  -2.45 -5 0  -2.4 -5 0  -2.35 -5 0  -2.3 -5 0  -2.25 -5 0  -2.2 -5 0  -2.15 -5 0  -2.1 -5 0  -2.05 -5 0  -2 -5 0  -1.95 -5 0  -1.9 -5 0  -1.85 -5 0  -1.8 -5 0  -1.75 -5 0  -1.7 -5 0  -1.65 -5 0  -1.6 -5 0  -1.55 -5 0  -1.5 -5 0  -1.45 -5 0  -1.4 -5 0  -1.35 -5 0  -1.3 -5 0  -1.25 -5 0  -1.2 -5 0  -1.15 -5 0  -1.1 -5 0  -1.05 -5 0  -1 -5 0  -0.9500000000000002 -5 0  -0.9000000000000004 -5 0  -0.8499999999999996 -5 0  -0.7999999999999998 -5 0  -0.75 -5 0  -0.7000000000000002 -5 0  -0.6500000000000004 -5 0  -0.5999999999999996 -5 0  -0.5499999999999998 -5 0  -0.5 -5 0  -0.4500000000000002 -5 0  -0.4000000000000004 -5 0  -0.3499999999999996 -5 0  -0.2999999999999998 -5 0  -0.25 -5 0  -0.2000000000000002 -5 0  -0.1500000000000004 -5 0  -0.09999999999999964 -5 0  -0.04999999999999982 -5 0  0 -5 0  0.04999999999999982 -5 0  0.09999999999999964 -5 0  0.1500000000000004 -5 0  0.2000000000000002 -5 0  0.25 -5 0  0.2999999999999998 -5 0  0.3499999999999996 -5 0  0.4000000000000004 -5 0  0.4500000000000002 -5 0  0.5 -5 0  0.5499999999999998 -5 0  0.5999999999999996 -5 0  0.6500000000000004 -5 0  0.7000000000000002 -5 0  0.75 -5 0  0.7999999999999998 -5 0  0.8499999999999996 -5 0  0.9000000000000004 -5 0  0.9500000000000002 -5 0  1 -5 0  1.05 -5 0  1.1 -5 0  1.15 -5 0  1.2 -5 0  1.25 -5 0  1.3 -5 0  1.35 -5 0  1.4 -5 0  1.45 -5 0  1.5 -5 0  1.55 -5 0  1.6 -5 0  1.65 -5 0  1.7 -5 0  1.75 -5 0  1.8 -5 0  1.85 -5 0  1.9 -5 0  1.95 -5 0  2 -5 0  2.05 -5 0  2.1 -5 0  2.15 -5 0  2.2 -5 0  2.25 -5 0  2.3 -5 0  2.35 -5 0  2.4 -5 0  2.45 -5 0  2.5 -5 0  2.55 -5 0  2.6 -5 0  2.65 -5 0  2.7 -5 0  2.75 -5 0  2.8 -5 0  2.85 -5 0  2.9 -5 0  2.95 -5 0  3 -5 0  3.050000000000001 -5 0  3.1 -5 0  3.15 -5 0  3.199999999999999 -5 0  3.25 -5 0  3.300000000000001 -5 0  3.35 -5 0  3.4 -5 0  3.449999999999999 -5 0  3.5 -5 0  3.550000000000001 -5 0  3.6 -5 0  3.65 -5 0  3.699999999999999 -5 0  3.75 -5 0  3.800000000000001 -5 0  3.85 -5 0  3.9 -5 0  3.949999999999999 -5 0  4 -5 0  4.050000000000001 -5 0  4.1 -5 0  4.15 -5 0  4.199999999999999 -5 0  4.25 -5 0  4.300000000000001 -5 0  4.35 -5 0  4.4 -5 0  4.449999999999999 -5 0  4.5 -5 0  4.550000000000001 -5 0  4.6 -5 0  4.65 -5 0  4.699999999999999 -5 0  4.75 -5 0  4.800000000000001 -5 0  4.85 -5 0  4.9 -5 0  4.949999999999999 -5 0  5 -5 0  -5 -4.95 0  -4.95 -4.95 0  -4.9 -4.95 0  -4.85 -4.95 0  -4.8 -4.95 0  -4.75 -4.95 0  -4.7 -4.95 0  -4.65 -4.95 0  -4.6 -4.95 0  -4.55 -4.95 0  -4.5 -4.95 0  -4.45 -4.95 0  -4.4 -4.95 0  -4.35 -4.95 0  -4.3 -4.95 0  -4.25 -4.95 0  -4.2 -4.95 0  -4.15 -4.95 0  -4.1 -4.95 0  -4.05 -4.95 0  -4 -4.95 0  -3.95 -4.95 0  -3.9 -4.95 0  -3.85 -4.95 0  -3.8 -4.95 0  -3.75 -4.95 0  -3.7 -4.95 0  -3.65 -4.95 0  -3.6 -4.95 0  -3.55 -4.95 0  -3.5 -4.95 0  -3.45 -4.95 0  -3.4 -4.95 0  -3.35 -4.95 0  -3.3 -4.95 0  -3.25 -4.95 0  -3.2 -4.95 0  -3.15 -4.95 0  -3.1 -4.95 0  -3.05 -4.95 0  -3 -4.95 0  -2.95 -4.95 0  -2.9 -4.95 0  -2.85 -4.95 0  -2.8 -4.95 0  -2.75 -4.95 0  -2.7 -4.95 0  -2.65 -4.95 0  -2.6 -4.95 0  -2.55 -4.95 0  -2.5 -4.95 0  -2.45 -4.95 0  -2.4 -4.95 0  -2.35 -4.95 0  -2.3 -4.95 0  -2.25 -4.95 0  -2.2 -4.95 0  -2.15 -4.95 0  -2.1 -4.95 0  -2.05 -4.95 0  -2 -4.95 0  -1.95 -4.95 0  -1.9 -4.95 0  -1.85 -4.95 0  -1.8 -4.95 0  -1.75 -4.95 0  -1.7 -4.95 0  -1.65 -4.95 0  -1.6 -4.95 0  -1.55 -4.95 0  -1.5 -4.95 0  -1.45 -4.95 0  -1.4 -4.95 0  -1.35 -4.95 0  -1.3 -4.95 0  -1.25 -4.95 0  -1.2 -4.95 0  -1.15 -4.95 0  -1.1 -4.95 0  -1.05 -4.95 0  -1 -4.95 0  -0.9500000000000002 -4.95 0  -0.9000000000000004 -4.95 0  -0.8499999999999996 -4.95 0  -0.7999999999999998 -4.95 0  -0.75 -4.95 0  -0.7000000000000002 -4.95 0  -0.6500000000000004 -4.95 0  -0.5999999999999996 -4.95 0  -0.5499999999999998 -4.95 0  -0.5 -4.95 0  -0.4500000000000002 -4.95 0  -0.4000000000000004 -4.95 0  -0.3499999999999996 -4.95 0  -0.2999999999999998 -4.95 0  -0.25 -4.95 0  -0.2000000000000002 -4.95 0  -0.1500000000000004 -4.95 0  -0.09999999999999964 -4.95 0  -0.04999999999999982 -4.95 0  0 -4.95 0  0.04999999999999982 -4.95 0  0.09999999999999964 -4.95 0  0.1500000000000004 -4.95 0  0.2000000000000002 -4.95 0  0.25 -4.95 0  0.2999999999999998 -4.95 0  0.3499999999999996 -4.95 0  0.4000000000000004 -4.95 0  0.4500000000000002 -4.95 0  0.5 -4.95 0  0.5499999999999998 -4.95 0  0.5999999999999996 -4.95 0  0.6500000000000004 -4.95 0  0.7000000000000002 -4.95 0  0.75 -4.95 0  0.7999999999999998 -4.95 0  0.8499999999999996 -4.95 0  0.9000000000000004 -4.95 0  0.9500000000000002 -4.95 0  1 -4.95 0  1.05 -4.95 0  1.1 -4.95 0  1.15 -4.95 0  1.2 -4.95 0  1.25 -4.95 0  1.3 -4.95 0  1.35 -4.95 0  1.4 -4.95 0  1.45 -4.95 0  1.5 -4.95 0  1.55 -4.95 0  1.6 -4.95 0  1.65 -4.95 0  1.7 -4.95 0  1.75 -4.95 0  1.8 -4.95 0  1.85 -4.95 0  1.9 -4.95 0  1.95 -4.95 0  2 -4.95 0  2.05 -4.95 0  2.1 -4.95 0  2.15 -4.95 0  2.2 -4.95 0  2.25 -4.95 0  2.3 -4.95 0  2.35 -4.95 0  2.4 -4.95 0  2.45 -4.95 0  2.5 -4.95 0  2.55 -4.95 0  2.6 -4.95 0  2.65 -4.95 0  2.7 -4.95 0  2.75 -4.95 0  2.8 -4.95 0  2.85 -4.95 0  2.9 -4.95 0  2.95 -4.95 0  3 -4.95 0  3.050000000000001 -4.95 0  3.1 -4.95 0  3.15 -4.95 0  3.199999999999999 -4.95 0  3.25 -4.95 0  3.300000000000001 -4.95 0  3.35 -4.95 0  3.4 -4.95 0  3.449999999999999 -4.95 0  3.5 -4.95 0  3.550000000000001 -4.95 0  3.6 -4.95 0  3.65 -4.95 0  3.699999999999999 -4.95 0  3.75 -4.95 0  3.800000000000001 -4.95 0  3.85 -4.95 0  3.9 -4.95 0  3.949999999999999 -4.95 0  4 -4.95 0  4.050000000000001 -4.95 0  4.1 -4.95 0  4.15 -4.95 0  4.199999999999999 -4.95 0  4.25 -4.95 0  4.300000000000001 -4.95 0  4.35 -4.95 0  4.4 -4.95 0  4.449999999999999 -4.95 0  4.5 -4.95 0  4.550000000000001 -4.95 0  4.6 -4.95 0  4.65 -4.95 0  4.699999999999999 -4.95 0  4.75 -4.95 0  4.800000000000001 -4.95 0  4.85 -4.95 0  4.9 -4.95 0  4.949999999999999 -4.95 0  5 -4.95 0  -5 -4.9 0  -4.95 -4.9 0  -4.9 -4.9 0  -4.85 -4.9 0  -4.8 -4.9 0  -4.75 -4.9 0  -4.7 -4.9 0  -4.65 -4.9 0  -4.6 -4.9 0  -4.55 -4.9 0  -4.5 -4.9 0  -4.45 -4.9 0  -4.4 -4.9 0  -4.35 -4.9 0  -4.3 -4.9 0  -4.25 -4.9 0  -4.2 -4.9 0  -4.15 -4.9 0  -4.1 -4.9 0  -4.05 -4.9 0  -4 -4.9 0  -3.95 -4.9 0  -3.9 -4.9 0  -3.85 -4.9 0  -3.8 -4.9 0  -3.75 -4.9 0  -3.7 -4.9 0  -3.65 -4.9 0  -3.6 -4.9 0  -3.55 -4.9 0  -3.5 -4.9 0  -3.45 -4.9 0  -3.4 -4.9 0  -3.35 -4.9 0  -3.3 -4.9 0  -3.25 -4.9 0  -3.2 -4.9 0  -3.15 -4.9 0  -3.1 -4.9 0  -3.05 -4.9 0  -3 -4.9 0  -2.95 -4.9 0  -2.9 -4.9 0  -2.85 -4.9 0  -2.8 -4.9 0  -2.75 -4.9 0  -2.7 -4.9 0  -2.65 -4.9 0  -2.6 -4.9 0  -2.55 -4.9 0  -2.5 -4.9 0  -2.45 -4.9 0  -2.4 -4.9 0  -2.35 -4.9 0  -2.3 -4.9 0  -2.25 -4.9 0  -2.2 -4.9 0  -2.15 -4.9 0  -2.1 -4.9 0  -2.05 -4.9 0  -2 -4.9 0  -1.95 -4.9 0  -1.9 -4.9 0  -1.85 -4.9 0  -1.8 -4.9 0  -1.75 -4.9 0  -1.7 -4.9 0  -1.65 -4.9 0  -1.6 -4.9 0  -1.55 -4.9 0  -1.5 -4.9 0  -1.45 -4.9 0  -1.4 -4.9 0  -1.35 -4.9 0  -1.3 -4.9 0  -1.25 -4.9 0  -1.2 -4.9 0  -1.15 -4.9 0  -1.1 -4.9 0  -1.05 -4.9 0  -1 -4.9 0  -0.9500000000000002 -4.9 0  -0.9000000000000004 -4.9 0  -0.8499999999999996 -4.9 0  -0.7999999999999998 -4.9 0  -0.75 -4.9 0  -0.7000000000000002 -4.9 0  -0.6500000000000004 -4.9 0  -0.5999999999999996 -4.9 0  -0.5499999999999998 -4.9 0  -0.5 -4.9 0  -0.4500000000000002 -4.9 0  -0.4000000000000004 -4.9 0  -0.3499999999999996 -4.9 0  -0.2999999999999998 -4.9 0  -0.25 -4.9 0  -0.2000000000000002 -4.9 0  -0.1500000000000004 -4.9 0  -0.09999999999999964 -4.9 0  -0.04999999999999982 -4.9 0  0 -4.9 0  0.04999999999999982 -4.9 0  0.09999999999999964 -4.9 0  0.1500000000000004 -4.9 0  0.2000000000000002 -4.9 0  0.25 -4.9 0  0.2999999999999998 -4.9 0  0.3499999999999996 -4.9 0  0.4000000000000004 -4.9 0  0.4500000000000002 -4.9 0  0.5 -4.9 0  0.5499999999999998 -4.9 0  0.5999999999999996 -4.9 0  0.6500000000000004 -4.9 0  0.7000000000000002 -4.9 0  0.75 -4.9 0  0.7999999999999998 -4.9 0  0.8499999999999996 -4.9 0  0.9000000000000004 -4.9 0  0.9500000000000002 -4.9 0  1 -4.9 0  1.05 -4.9 0  1.1 -4.9 0  1.15 -4.9 0  1.2 -4.9 0  1.25 -4.9 0  1.3 -4.9 0  1.35 -4.9 0  1.4 -4.9 0  1.45 -4.9 0  1.5 -4.9 0  1.55 -4.9 0  1.6 -4.9 0  1.65 -4.9 0  1.7 -4.9 0  1.75 -4.9 0  1.8 -4.9 0  1.85 -4.9 0  1.9 -4.9 0  1.95 -4.9 0  2 -4.9 0  2.05 -4.9 0  2.1 -4.9 0  2.15 -4.9 0  2.2 -4.9 0  2.25 -4.9 0  2.3 -4.9 0  2.35 -4.9 0  2.4 -4.9 0  2.45 -4.9 0  2.5 -4.9 0  2.55 -4.9 0  2.6 -4.9 0  2.65 -4.9 0  2.7 -4.9 0  2.75 -4.9 0  2.8 -4.9 0  2.85 -4.9 0  2.9 -4.9 0  2.95 -4.9 0  3 -4.9 0  3.050000000000001 -4.9 0  3.1 -4.9 0  3.15 -4.9 0  3.199999999999999 -4.9 0  3.25 -4.9 0  3.300000000000001 -4.9 0  3.35 -4.9 0  3.4 -4.9 0  3.449999999999999 -4.9 0  3.5 -4.9 0  3.550000000000001 -4.9 0  3.6 -4.9 0  3.65 -4.9 0  3.699999999999999 -4.9 0  3.75 -4.9 0  3.800000000000001 -4.9 0  3.85 -4.9 0  3.9 -4.9 0  3.949999999999999 -4.9 0  4 -4.9 0  4.050000000000001 -4.9 0  4.1 -4.9 0  4.15 -4.9 0  4.199999999999999 -4.9 0  4.25 -4.9 0  4.300000000000001 -4.9 0  4.35 -4.9 0  4.4 -4.9 0  4.449999999999999 -4.9 0  4.5 -4.9 0  4.550000000000001 -4.9 0  4.6 -4.9 0  4.65 -4.9 0  4.699999999999999 -4.9 0  4.75 -4.9 0  4.800000000000001 -4.9 0  4.85 -4.9 0  4.9 -4.9 0  4.949999999999999 -4.9 0  5 -4.9 0  -5 -4.85 0  -4.95 -4.85 0  -4.9 -4.85 0  -4.85 -4.85 0  -4.8 -4.85 0  -4.75 -4.85 0  -4.7 -4.85 0  -4.65 -4.85 0  -4.6 -4.85 0  -4.55 -4.85 0  -4.5 -4.85 0  
[...]
<PointData  Scalars="r"> 
<DataArray  type="Float64"  Name="r"  format="ascii">9.9999827501246652e-01  1.0000002219551118e+00  1.0000013936807779e+00  9.9999800578202669e-01  1.0000009037845607e+00  1.0000003929371482e+00  9.9999880263375263e-01  1.0000005910982723e+00  9.9999989204692841e-01  1.0000003676851950e+00  9.9999929065493265e-01  1.0000002288066780e+00  1.0000013229056430e+00  9.9999811005543160e-01  1.0000004703274963e+00  1.0000013836251078e+00  9.9999824413633132e-01  1.0000007895189433e+00  1.0000008567201424e+00  9.9999866092243395e-01  1.0000011151560271e+00  1.0000000596919949e+00  9.9999900962195654e-01  1.0000010933915315e+00  9.9999997532816376e-01  9.9999946795434413e-01  1.0000003815114056e+00  9.9999980758676443e-01  1.0000003159068640e+00  9.9999976267966217e-01  9.9999973938155262e-01  1.0000006898836489e+00  9.9999905508889730e-01  1.0000002877211966e+00  1.0000001562206382e+00  9.9999879408552839e-01  1.0000007593327827e+00  1.0000001028264636e+00  9.9999882439426080e-01  1.0000007446829162e+00  1.0000002661900249e+00  9.9999929495644113e-01  1.0000010970768320e+00  9.9999974499481714e-01  9.9999927968608682e-01  1.0000008282475430e+00  1.0000000498352757e+00  9.9999943633333011e-01  1.0000003214848496e+00  9.9999975936920182e-01  9.9999925663489875e-01  1.0000005019036435e+00  1.0000000027079436e+00  9.9999943159232307e-01  1.0000005293863479e+00  1.0000004964107065e+00  9.9999973035274070e-01  1.0000004639934894e+00  9.9999972833620943e-01  9.9999868506866429e-01  1.0000001073572868e+00  1.0000002258933443e+00  9.9999987475986563e-01  1.0000009146755631e+00  1.0000002259536884e+00  9.9999906654431092e-01  1.0000001530053493e+00  9.9999973925627383e-01  9.9999947473532480e-01  1.0000007902072663e+00  1.0000002508254811e+00  9.9999953569145561e-01  1.0000004397977245e+00  9.9999972046105723e-01  9.9999941289026817e-01  1.0000003865637157e+00  9.9999944244924099e-01  9.9999885725803894e-01  9.9999939942899496e-01  9.9999845123279685e-01  9.9999831264684524e-01  9.9999935049086397e-01  9.9999911994433677e-01  9.9999983736369935e-01  1.0000010331122056e+00  1.0000007108296216e+00  1.0000011637147570e+00  1.0000020867831818e+00  1.0000018653624902e+00  1.0000025195900806e+00  1.0000033993729316e+00  1.0000035685707453e+00  1.0000045966926610e+00  1.0000054131042455e+00  1.0000053304397081e+00  1.0000059092712685e+00  1.0000062658752318e+00  1.0000058996201824e+00  1.0000057939155971e+00  1.0000054763442257e+00  1.0000049653355700e+00  1.0000046628459858e+00  1.0000040179003840e+00  1.0000033097683854e+00  1.0000029132806860e+00  1.0000024546809514e+00  1.0000018254684144e+00  1.0000012287987641e+00  1.0000010021202670e+00  1.0000007868562903e+00  1.0000002461903787e+00  1.0000001035152555e+00  1.0000001239824978e+00  9.9999988637962467e-01  9.9999995901545169e-01  9.9999986490746640e-01  9.9999974225577226e-01  1.0000001399517200e+00  9.9999993555195088e-01  9.9999967556017544e-01  1.0000002127048990e+00  1.0000000498677022e+00  9.9999973414066878e-01  1.0000001632732831e+00  1.0000000191114660e+00  9.9999987937993240e-01  1.0000001529671563e+00  9.9999986345565817e-01  9.9999999354058067e-01  1.0000002316159522e+00  9.9999972745728405e-01  9.9999999056027022e-01  1.0000003358181004e+00  9.9999969593663118e-01  9.9999992295503781e-01  1.0000003712181287e+00  9.9999974303897332e-01  9.9999989587810234e-01  1.0000003120726146e+00  9.9999980123322740e-01  9.9999993489048178e-01  1.0000002305915425e+00  9.9999979649687420e-01  1.0000000322729763e+00  1.0000001694077727e+00  9.9999973882007454e-01  1.0000001302528996e+00  1.0000001551765996e+00  9.9999966945076391e-01  1.0000001740021687e+00  1.0000001930256444e+00  9.9999962089943850e-01  1.0000001598404062e+00  1.0000002341179532e+00  9.9999963740284670e-01  1.0000001024722520e+00  1.0000002263540348e+00  9.9999973608680393e-01  1.0000000351142966e+00  1.0000001454861105e+00  9.9999989205118578e-01  9.9999999726908939e-01  1.0000000056410501e+00  1.0000000525185049e+00  1.0000000083847367e+00  9.9999985708929484e-01  1.0000001473659610e+00  1.0000000833646614e+00  9.9999972620765543e-01  1.0000001621082375e+00  1.0000001912315748e+00  9.9999963125580704e-01  1.0000001334955078e+00  1.0000002541467388e+00  9.9999963635826217e-01  1.0000000381483636e+00  1.0000003189074165e+00  9.9999968119644633e-01  9.9999995836926026e-01  1.0000003580888985e+00  9.9999972032999129e-01  9.9999994862264108e-01  1.0000002868251581e+00  9.9999979777285242e-01  9.9999994069729736e-01  1.0000001984307747e+00  9.9999989648094667e-01  9.9999994787351820e-01  1.0000001316126750e+00  9.9999994895612287e-01  9.9999997295264587e-01  1.0000000431744624e+00  9.9999999185390964e-01  9.9999998362524967e-01  1.0000000156737550e+00  1.0000000107165925e+00  1.0000000308008095e+00  9.9999998511713883e-01  9.9999996710290207e-01  1.0000000488291014e+00  9.9999987309274974e-01  1.0000002219551127e+00  1.0000015018496413e+00  9.9999827371923566e-01  1.0000006819725644e+00  1.0000009256012596e+00  9.9999857884807297e-01  1.0000008811927701e+00  1.0000001807787846e+00  9.9999975560657750e-01  9.9999982258062270e-01  1.0000000536030911e+00  1.0000008290336730e+00  9.9999856964122058e-01  1.0000003440009535e+00  1.0000014233276526e+00  9.9999824484871358e-01  1.0000003968726194e+00  1.0000010302850115e+00  9.9999837359973298e-01  1.0000007350285089e+00  1.0000002620375414e+00  9.9999878926086128e-01  1.0000010828976618e+00  9.9999982387260045e-01  9.9999916893190244e-01  1.0000006161963502e+00  9.9999987680159907e-01  1.0000000138336120e+00  9.9999995320976898e-01  9.9999973773385464e-01  1.0000006380801771e+00  9.9999946735682588e-01  1.0000000987263089e+00  1.0000006860503416e+00  9.9999921799615732e-01  1.0000008602666397e+00  1.0000004414743571e+00  9.9999895928151250e-01  1.0000009532418956e+00  1.0000003375190918e+00  9.9999903712777627e-01  1.0000006437930336e+00  9.9999974478382736e-01  9.9999917336910094e-01  1.0000009280817186e+00  9.9999990745463785e-01  9.9999927100671271e-01  1.0000004948636323e+00  1.0000000997304448e+00  9.9999972468819420e-01  1.0000007480848720e+00  1.0000001731042507e+00  9.9999946758765079e-01  1.0000004987984610e+00  1.0000001345821343e+00  9.9999921802586322e-01  1.0000000118470633e+00  9.9999992777320312e-01  9.9999953128535246e-01  1.0000010620756230e+00  1.0000008068889437e+00  9.9999959343856759e-01  1.0000001703501746e+00  9.9999960830297996e-01  9.9999903891107533e-01  1.0000006077766390e+00  1.0000005205534281e+00  9.9999986309083821e-01  1.0000007561288045e+00  9.9999988585125910e-01  9.9999911610077363e-01  1.0000002031113586e+00  9.9999972609493837e-01  9.9999927447985182e-01  1.0000001317426617e+00  9.9999923051438977e-01  9.9999888107918411e-01  1.0000000345929079e+00  9.9999974101207489e-01  1.0000000697998332e+00  1.0000014415257983e+00  1.0000012316722862e+00  1.0000016407486809e+00  1.0000027646770699e+00  1.0000026291556012e+00  1.0000036254591036e+00  1.0000053734136340e+00  1.0000059216214336e+00  1.0000072214266553e+00  1.0000086973043061e+00  1.0000089820402434e+00  1.0000097531495238e+00  1.0000101922466700e+00  1.0000096588688669e+00  1.0000098600789300e+00  1.0000098950094367e+00  1.0000091818146191e+00  1.0000090438654634e+00  1.0000088920616521e+00  1.0000084293163993e+00  1.0000082243241897e+00  1.0000077623791630e+00  1.0000072262121515e+00  1.0000069635728948e+00  1.0000064218074838e+00  1.0000056562925794e+00  1.0000050353337158e+00  1.0000045517918694e+00  1.0000038814212400e+00  1.0000029769834444e+00  1.0000024660692597e+00  1.0000020609926472e+00  1.0000013552639038e+00  1.0000009857166734e+00  1.0000006676685134e+00  1.0000003109865356e+00  1.0000003808198854e+00  1.0000000659170178e+00  9.9999979198128419e-01  1.0000002379682640e+00  1.0000000151943156e+00  9.9999968999163347e-01  1.0000001766934346e+00  1.0000000399939271e+00  9.9999980751434014e-01  1.0000001411990025e+00  9.9999993879873617e-01  9.9999994766743172e-01  1.0000001908099745e+00  9.9999978522852906e-01  9.9999999362732950e-01  1.0000002958550709e+00  9.9999970578218900e-01  9.9999994643438395e-01  1.0000003632338923e+00  9.9999972673676352e-01  9.9999989658931743e-01  1.0000003397110278e+00  9.9999978697951530e-01  9.9999990939321060e-01  1.0000002609363690e+00  9.9999981113851966e-01  9.9999998687424785e-01  1.0000001880172538e+00  9.9999977351756719e-01  1.0000000889050069e+00  1.0000001550218880e+00  9.9999970398201288e-01  1.0000001569731056e+00  1.0000001763401849e+00  9.9999963804958647e-01  1.0000001683081357e+00  1.0000002205508634e+00  9.9999962191593739e-01  1.0000001275011863e+00  1.0000002364932656e+00  9.9999968858537513e-01  1.0000000573836274e+00  1.0000001926139779e+00  9.9999982107333807e-01  1.0000000046367399e+00  1.0000000761069965e+00  9.9999997817094666e-01  9.9999999784267468e-01  9.9999991702398683e-01  1.0000001051149967e+00  1.0000000442661083e+00  9.9999976926156253e-01  1.0000001581378926e+00  1.0000001386292123e+00  9.9999966431065512e-01  1.0000001477640341e+00  1.0000002361830655e+00  9.9999963216883170e-01  1.0000000898298886e+00  1.0000003051647519e+00  9.9999966169199028e-01  9.9999999953295737e-01  1.0000003387385785e+00  9.9999970117553816e-01  9.9999994194833108e-01  1.0000003114940326e+00  9.9999976749419939e-01  9.9999993756983974e-01  1.0000002384773148e+00  9.9999985682330561e-01  9.9999992875406751e-01  1.0000001570936827e+00  9.9999990794765070e-01  9.9999995673347253e-01  1.0000000694006570e+00  9.9999997123502515e-01  9.9999998375074350e-01  1.0000000159029965e+00  1.0000000027667877e+00  9.9999998986909622e-01  9.9999997481704095e-01  9.9999998470284057e-01  1.0000000392702320e+00  9.9999996712628558e-01  1.0000000488291005e+00  1.0000013936807792e+00  9.9999827371923500e-01  1.0000005756798582e+00  1.0000007495532695e+00  9.9999867100118456e-01  1.0000005698991763e+00  1.0000002604109859e+00  9.9999942812203235e-01  9.9999990988073839e-01  1.0000002615927699e+00  1.0000003691669666e+00  9.9999906558343166e-01  1.0000004649640399e+00  1.0000009349601187e+00  9.9999856826615974e-01  1.0000002315338368e+00  1.0000010665652650e+00  9.9999870683152348e-01  1.0000005454030667e+00  1.0000006423512908e+00  9.9999894981458748e-01  1.0000009472792735e+00  9.9999999277104812e-01  9.9999914623943786e-01  1.0000009294148877e+00  9.9999985262822322e-01  9.9999981558679374e-01  1.0000001134144152e+00  9.9999975589642986e-01  1.0000005247100427e+00  9.9999958690622093e-01  9.9999993281090593e-01  1.0000004968340552e+00  9.9999935703641640e-01  1.0000001680263586e+00  1.0000003165523650e+00  9.9999885735739513e-01  1.0000005987002227e+00  1.0000002881556185e+00  9.9999882437093357e-01  1.0000006818954141e+00  1.0000000687972779e+00  9.9999951720986813e-01  1.0000008228215274e+00  9.9999997251796036e-01  9.9999923305822569e-01  1.0000006561175114e+00  1.0000001675326453e+00  9.9999953187564350e-01  1.0000003646493507e+00  9.9999979147501017e-01  9.9999935572307352e-01  1.0000003052900297e+00  1.0000001292826726e+00  9.9999934614059616e-01  1.0000003894382039e+00  1.0000004328564045e+00  9.9999982285327949e-01  1.0000005958558102e+00  9.9999994914973689e-01  9.9999883192977079e-01  9.9999987502616072e-01  1.0000001340742444e+00  9.9999975135620978e-01  1.0000009841938480e+00  1.0000003344225716e+00  9.9999925426591774e-01  9.9999994329968556e-01  9.9999951424584355e-01  9.9999898946192700e-01  1.0000002269589370e+00  9.9999970539927929e-01  9.9999911160487409e-01  1.0000000350936313e+00  9.9999971792062781e-01  9.9999997892847536e-01  1.0000018161162174e+00  1.0000022304445544e+00  1.0000031677620176e+00  1.0000054011076731e+00  1.0000063235447221e+00  1.0000079881521875e+00  1.0000105421868064e+00  1.0000116895825693e+00  1.0000131828049579e+00  1.0000146097701839e+00  1.0000138434174470e+00  1.0000129922468306e+00  1.0000117646048798e+00  1.0000088445693160e+00  1.0000061073118260e+00  1.0000032461036894e+00  9.9999953716630707e-01  9.9999671562998727e-01  9.9999403124462050e-01  9.9999097864127240e-01  9.9998909772966615e-01  9.9998784542943686e-01  9.9998674694009249e-01  9.9998667563048171e-01  9.9998721974381211e-01  9.9998826704905219e-01  9.9999010353433326e-01  9.9999209133390055e-01  9.9999415168139405e-01  9.9999654735586663e-01  9.9999886060578469e-01  1.0000006429594079e+00  1.0000020207028419e+00  1.0000033270680408e+00  1.0000040913638548e+00  1.0000041116695593e+00  1.0000040851281069e+00  1.0000037823864183e+00  1.0000031376326179e+00  1.0000026665155433e+00  1.0000018925084777e+00  1.0000012166053069e+00  1.0000011530191717e+00  1.0000005580109155e+00  1.0000000405475171e+00  1.0000003706323035e+00  1.0000001096424376e+00  9.9999977995344536e-01  1.0000001376446190e+00  9.9999998229970433e-01  9.9999989136636591e-01  1.0000001412649480e+00  9.9999985538126135e-01  9.9999997788065720e-01  1.0000002407685209e+00  9.9999974585759732e-01  9.9999996365242794e-01  1.0000003311341250e+00  9.9999972727599873e-01  9.9999991323115922e-01  1.0000003389788179e+00  9.9999977932905859e-01  9.9999989862834571e-01  1.0000002806684101e+00  9.9999981481361433e-01  9.9999995879698178e-01  1.0000001979272188e+00  9.9999980274504419e-01  1.0000000521861543e+00  1.0000001494262849e+00  9.9999974504261191e-01  1.0000001290409011e+00  1.0000001593266608e+00  9.9999966982150656e-01  1.0000001629286237e+00  1.0000002018059764e+00  9.9999963037190587e-01  1.0000001409942731e+00  1.0000002331629663e+00  9.9999966723431188e-01  1.0000000741476804e+00  1.0000002173552074e+00  9.9999977728103329e-01  1.0000000050278162e+00  1.0000001359943149e+00  9.9999992251569991e-01  9.9999998307971105e-01  9.9999999612070412e-01  1.0000000570662106e+00  1.0000000271358036e+00  9.9999983199214260e-01  1.0000001465668311e+00  1.0000001109295182e+00  9.9999970028198826e-01  1.0000001658911395e+00  1.0000001964622913e+00  9.9999964570218269e-01  1.0000000991712432e+00  1.0000002875425855e+00  9.9999962781117691e-01  1.0000000286131407e+00  1.0000003295793716e+00  9.9999966771530280e-01  9.9999998286155423e-01  1.0000003107241375e+00  9.9999976210127628e-01  9.9999993836660017e-01  1.0000002606712921e+00  9.9999983859557695e-01  9.9999991721070780e-01  1.0000001987848595e+00  9.9999989981986159e-01  9.9999995015167420e-01  1.0000001176418756e+00  9.9999995173527478e-01  9.9999997822912423e-01  1.0000000352535339e+00  9.9999998620034025e-01  1.0000000035216186e+00  9.9999998620241848e-01  1.0000000258207193e+00  1.0000000366452686e+00  9.9999995776885942e-01  1.0000000392702337e+00  9.9999996710290229e-01  9.9999800578202691e-01  1.0000006819725653e+00  1.0000007495532706e+00  9.9999879518245105e-01  1.0000007201802472e+00  1.0000001939462571e+00  9.9999967469542705e-01  9.9999994610721143e-01  1.0000004333229291e+00  1.0000001231071460e+00  9.9999925917031951e-01  1.0000005624181092e+00  1.0000003982302914e+00  9.9999896402554478e-01  1.0000003833134243e+00  1.0000007979527494e+00  9.9999904337770473e-01  1.0000003336085881e+00  1.0000004597367305e+00  9.9999913797073314e-01  1.0000005524844078e+00  1.0000000351307383e+00  9.9999925315653870e-01  1.0000008329520873e+00  9.9999983000892168e-01  9.9999953950945597e-01  1.0000004334801593e+00  9.9999969311310277e-01  1.0000004144746673e+00  9.9999978851153382e-01  9.9999976222939035e-01  1.0000005531709459e+00  9.9999955332899959e-01  1.0000000530862825e+00  1.0000004006275305e+00  9.9999940406794918e-01  1.0000003976175742e+00  1.0000004947183438e+00  9.9999904854542099e-01  1.0000006100431786e+00  1.0000003364014893e+00  9.9999935157817177e-01  1.0000005376578325e+00  9.9999983703949791e-01  9.9999945050310457e-01  1.0000005982542912e+00  1.0000002175405038e+00  9.9999940289132316e-01  1.0000002989500616e+00  9.9999999206472578e-01  9.9999968615656254e-01  1.0000004667677516e+00  1.0000001692673322e+00  9.9999955779292593e-01  1.0000003070027781e+00  1.0000003537163515e+00  9.9999949397125232e-01  1.0000001377609771e+00  9.9999989274161749e-01  9.9999942276256892e-01  1.0000005579448610e+00  1.0000006857463317e+00  9.9999974876232933e-01  1.0000002776057713e+00  9.9999972451394792e-01  9.9999893682767582e-01  9.9999999930243710e-01  9.9999984222340843e-01  9.9999927288090573e-01  1.0000001019706597e+00  9.9999974309961737e-01  9.9999951381279462e-01  1.0000013261371703e+00  1.0000022715330050e+00  1.0000037716366574e+00  1.0000067724547803e+00  1.0000086155727628e+00  1.0000107705906545e+00  1.0000139071759038e+00  1.0000150291805732e+00  1.0000154008118107e+00  1.0000149398652072e+00  1.0000110262290254e+00  1.0000051156482437e+00  9.9999715945938195e-01  9.9998545084257551e-01  9.9997216270206224e-01  9.9995748313010779e-01  9.9994022948904537e-01  9.9992264135966846e-01  9.9990499371376984e-01  9.9988685546524314e-01  9.9987027524477767e-01  9.9985529273707086e-01  9.9984176524600221e-01  9.9983157388059918e-01  9.9982439257928790e-01  9.9981977170782865e-01  9.9981881524338667e-01  9.9982114698812830e-01  9.9982624373773776e-01  9.9983438676617198e-01  9.9984491958582278e-01  9.9985743091371604e-01  9.9987191390694508e-01  9.9988752323660546e-01  9.9990345057940522e-01  9.9991957072954019e-01  9.9993545562008623e-01  9.9995002053951643e-01  9.9996290277566469e-01  9.9997431174117102e-01  9.9998360731063818e-01  9.9999064820555683e-01  9.9999595922008244e-01  9.9999931680284715e-01  1.0000012836481273e+00  1.0000025126521295e+00  1.0000024419486930e+00  1.0000020097028086e+00  1.0000019971623826e+00  1.0000012872036876e+00  1.0000005832999828e+00  1.0000006467465998e+00  1.0000002833767636e+00  9.9999997401565222e-01  1.0000001637814975e+00  9.9999993000649801e-01  9.9999995000698005e-01  1.0000001734475186e+00  9.9999980298371871e-01  9.9999996789212653e-01  1.0000002739300156e+00  9.9999975481135384e-01  9.9999993253722663e-01  1.0000003150888643e+00  9.9999977970029208e-01  9.9999990562413643e-01  1.0000002826834387e+00  9.9999981810478755e-01  9.9999994077838694e-01  1.0000002096528271e+00  9.9999982080293071e-01  1.0000000251532539e+00  1.0000001464089239e+00  9.9999978383531885e-01  1.0000001020252085e+00  1.0000001418050124e+00  9.9999971141358313e-01  1.0000001503526919e+00  1.0000001752708627e+00  9.9999965766673327e-01  1.0000001443363695e+00  1.0000002144004525e+00  9.9999966781023764e-01  1.0000000836276404e+00  1.0000002276334552e+00  9.9999974565774807e-01  1.0000000134440430e+00  1.0000001755382193e+00  9.9999987705451454e-01  9.9999997123737605e-01  1.0000000603731964e+00  1.0000000103494986e+00  9.9999999026786068e-01  9.9999990514030479e-01  1.0000001029938457e+00  1.0000000715934574e+00  9.9999974788869994e-01  1.0000001485587766e+00  1.0000001643970180e+00  9.9999966007474772e-01  1.0000001215876386e+00  1.0000002601733220e+00  9.9999963881161724e-01  1.0000000548526455e+00  1.0000003355289528e+00  9.9999964769885552e-01  1.0000000103760964e+00  1.0000003206431867e+00  9.9999971803901944e-01  9.9999996126884128e-01  1.0000002618391748e+00  9.9999981995973963e-01  9.9999991856268289e-01  1.0000002224967015e+00  9.9999987685446434e-01  9.9999993510910901e-01  1.0000001305195867e+00  9.9999993829224987e-01  9.9999994948374982e-01  1.0000000738503101e+00  9.9999997066563684e-01  9.9999999845970799e-01  1.0000000080366591e+00  9.9999999683237062e-01  1.0000000221852126e+00  9.9999993202866955e-01  1.0000000366452675e+00  9.9999998470284068e-01  9.9999998511713717e-01  1.0000009037845603e+00  1.0000009256012599e+00  9.9999867100118489e-01  1.0000007201802477e+00  1.0000000370863018e+00  9.9999962314744573e-01  9.9999999209551271e-01  1.0000002084171860e+00  1.0000000612392677e+00  9.9999928758852408e-01  1.0000006457168760e+00  1.0000000366910908e+00  9.9999937195421762e-01  1.0000004463523333e+00  1.0000003460730951e+00  9.9999930009786664e-01  1.0000002235236765e+00  1.0000002226444302e+00  9.9999942642752182e-01  1.0000004877415953e+00  9.9999992669219362e-01  9.9999957381874049e-01  1.0000006248420796e+00  9.9999976483100184e-01  9.9999956786670008e-01  1.0000005151025275e+00  9