<?xml version="1.0"?>
<VTKFile type="UnstructuredGrid"  version="0.1"  >
<UnstructuredGrid>
<Piece  NumberOfPoints="40401" NumberOfCells="80000">
<Points>
<DataArray  type="Float64"  NumberOfComponents="3"  format="ascii">-5 -5 0  -4.95 -5 0  -4.9 -5 0  -4.85 -5 0  -4.8 -5 0  -4.75 -5 0  -4.7 -5 0  -4.65 -5 0  -4.6 -5 0  -4.55 -5 0  -4.5 -5 0  -4.45 -5 0  -4.4 -5 0  -4.35 -5 0  -4.3 -5 0  -4.25 -5 0  -4.2 -5 0  -4.15 -5 0  -4.1 -5 0  -4.05 -5 0  -4 -5 0  -3.95 -5 0  -3.9 -5 0  -3.85 -5 0  -3.8 -5 0  -3.75 -5 0  -3.7 -5 0  -3.65 -5 0  -3.6 -5 0  -3.55 -5 0  -3.5 -5 0  -3.45 -5 0  -3.4 -5 0  -3.35 -5 0  -3.3 -5 0  -3.25 -5 0  -3.2 -5 0  -3.15 -5 0  -3.1 -5 0  -3.05 -5 0  -3 -5 0  -2.95 -5 0  -2.9 -5 0  -2.85 -5 0  -2.8 -5 0  -2.75 -5 0  -2.7 -5 0  -2.65 -5 0  -2.6 -5 0  -2.55 -5 0  -2.5 -5 0  -2.45 -5 0  -2.4 -5 0  -2.35 -5 0  -2.3 -5 0  -2.25 -5 0  -2.2 -5 0  -2.15 -5 0  -2.1 -5 0  -2.05 -5 0  -2 -5 0  -1.95 -5 0  -1.9 -5 0  -1.85 -5 0  -1.8 -5 0  -1.75 -5 0  -1.7 -5 0  -1.65 -5 0  -1.6 -5 0  -1.55 -5 0  -1.5 -5 0  -1.45 -5 0  -1.4 -5 0  -1.35 -5 0  -1.3 -5 0  -1.25 -5 0  -1.2 -5 0  -1.15 -5 0  -1.1 -5 0  -1.05 -5 0  -1 -5 0  -0.9500000000000002 -5 0  -0.9000000000000004 -5 0  -0.8499999999999996 -5 0  -0.7999999999999998 -5 0  -0.75 -5 0  -0.7000000000000002 -5 0  -0.6500000000000004 -5 0  -0.5999999999999996 -5 0  -0.5499999999999998 -5 0  -0.5 -5 0  -0.4500000000000002 -5 0  -0.4000000000000004 -5 0  -0.3499999999999996 -5 0  -0.2999999999999998 -5 0  -0.25 -5 0  -0.2000000000000002 -5 0  -0.1500000000000004 -5 0  -0.09999999999999964 -5 0  -0.04999999999999982 -5 0  0 -5 0  0.04999999999999982 -5 0  0.09999999999999964 -5 0  0.1500000000000004 -5 0  0.2000000000000002 -5 0  0.25 -5 0  0.2999999999999998 -5 0  0.3499999999999996 -5 0  0.4000000000000004 -5 0  0.4500000000000002 -5 0  0.5 -5 0  0.5499999999999998 -5 0  0.5999999999999996 -5 0  0.6500000000000004 -5 0  0.7000000000000002 -5 0  0.75 -5 0  0.7999999999999998 -5 0  0.8499999999999996 -5 0  0.9000000000000004 -5 0  0.9500000000000002 -5 0  1 -5 0  1.05 -5 0  1.1 -5 0  1.15 -5 0  1.2 -5 0  1.25 -5 0  1.3 -5 0  1.35 -5 0  1.4 -5 0  1.45 -5 0  1.5 -5 0  1.55 -5 0  1.6 -5 0  1.65 -5 0  1.7 -5 0  1.75 -5 0  1.8 -5 0  1.85 -5 0  1.9 -5 0  1.95 -5 0  2 -5 0  2.05 -5 0  2.1 -5 0  2.15 -5 0  2.2 -5 0  2.25 -5 0  2.3 -5 0  2.35 -5 0  2.4 -5 0  2.45 -5 0  2.5 -5 0  2.55 -5 0  2.6 -5 0  2.65 -5 0  2.7 -5 0  2.75 -5 0  2.8 -5 0  2.85 -5 0  2.9 -5 0  2.95 -5 0  3 -5 0  3.050000000000001 -5 0  3.1 -5 0  3.15 -5 0  3.199999999999999 -5 0  3.25 -5 0  3.300000000000001 -5 0  3.35 -5 0  3.4 -5 0  3.449999999999999 -5 0  3.5 -5 0  3.550000000000001 -5 0  3.6 -5 0  3.65 -5 0  3.699999999999999 -5 0  3.75 -5 0  3.800000000000001 -5 0  3.85 -5 0  3.9 -5 0  3.949999999999999 -5 0  4 -5 0  4.050000000000001 -5 0  4.1 -5 0  4.15 -5 0  4.199999999999999 -5 0  4.25 -5 0  4.300000000000001 -5 0  4.35 -5 0  4.4 -5 0  4.449999999999999 -5 0  4.5 -5 0  4.550000000000001 -5 0  4.6 -5 0  4.65 -5 0  4.699999999999999 -5 0  4.75 -5 0  4.800000000000001 -5 0  4.85 -5 0  4.9 -5 0  4.949999999999999 -5 0  5 -5 0  -5 -4.95 0  -4.95 -4.95 0  -4.9 -4.95 0  -4.85 -4.95 0  -4.8 -4.95 0  -4.75 -4.95 0  -4.7 -4.95 0  -4.65 -4.95 0  -4.6 -4.95 0  -4.55 -4.95 0  -4.5 -4.95 0  -4.45 -4.95 0  -4.4 -4.95 0  -4.35 -4.95 0  -4.3 -4.95 0  -4.25 -4.95 0  -4.2 -4.95 0  -4.15 -4.95 0  -4.1 -4.95 0  -4.05 -4.95 0  -4 -4.95 0  -3.95 -4.95 0  -3.9 -4.95 0  -3.85 -4.95 0  -3.8 -4.95 0  -3.75 -4.95 0  -3.7 -4.95 0  -3.65 -4.95 0  -3.6 -4.95 0  -3.55 -4.95 0  -3.5 -4.95 0  -3.45 -4.95 0  -3.4 -4.95 0  -3.35 -4.95 0  -3.3 -4.95 0  -3.25 -4.95 0  -3.2 -4.95 0  -3.15 -4.95 0  -3.1 -4.95 0  -3.05 -4.95 0  -3 -4.95 0  -2.95 -4.95 0  -2.9 -4.95 0  -2.85 -4.95 0  -2.8 -4.95 0  -2.75 -4.95 0  -2.7 -4.95 0  -2.65 -4.95 0  -2.6 -4.95 0  -2.55 -4.95 0  -2.5 -4.95 0  -2.45 -4.95 0  -2.4 -4.95 0  -2.35 -4.95 0  -2.3 -4.95 0  -2.25 -4.95 0  -2.2 -4.95 0  -2.15 -4.95 0  -2.1 -4.95 0  -2.05 -4.95 0  -2 -4.95 0  -1.95 -4.95 0  -1.9 -4.95 0  -1.85 -4.95 0  -1.8 -4.95 0  -1.75 -4.95 0  -1.7 -4.95 0  -1.65 -4.95 0  -1.6 -4.95 0  -1.55 -4.95 0  -1.5 -4.95 0  -1.45 -4.95 0  -1.4 -4.95 0  -1.35 -4.95 0  -1.3 -4.95 0  -1.25 -4.95 0  -1.2 -4.95 0  -1.15 -4.95 0  -1.1 -4.95 0  -1.05 -4.95 0  -1 -4.95 0  -0.9500000000000002 -4.95 0  -0.9000000000000004 -4.95 0  -0.8499999999999996 -4.95 0  -0.7999999999999998 -4.95 0  -0.75 -4.95 0  -0.7000000000000002 -4.95 0  -0.6500000000000004 -4.95 0  -0.5999999999999996 -4.95 0  -0.5499999999999998 -4.95 0  -0.5 -4.95 0  -0.4500000000000002 -4.95 0  -0.4000000000000004 -4.95 0  -0.3499999999999996 -4.95 0  -0.2999999999999998 -4.95 0  -0.25 -4.95 0  -0.2000000000000002 -4.95 0  -0.1500000000000004 -4.95 0  -0.09999999999999964 -4.95 0  -0.04999999999999982 -4.95 0  0 -4.95 0  0.04999999999999982 -4.95 0  0.09999999999999964 -4.95 0  0.1500000000000004 -4.95 0  0.2000000000000002 -4.95 0  0.25 -4.95 0  0.2999999999999998 -4.95 0  0.3499999999999996 -4.95 0  0.4000000000000004 -4.95 0  0.4500000000000002 -4.95 0  0.5 -4.95 0  0.5499999999999998 -4.95 0  0.5999999999999996 -4.95 0  0.6500000000000004 -4.95 0  0.7000000000000002 -4.95 0  0.75 -4.95 0  0.7999999999999998 -4.95 0  0.8499999999999996 -4.95 0  0.9000000000000004 -4.95 0  0.9500000000000002 -4.95 0  1 -4.95 0  1.05 -4.95 0  1.1 -4.95 0  1.15 -4.95 0  1.2 -4.95 0  1.25 -4.95 0  1.3 -4.95 0  1.35 -4.95 0  1.4 -4.95 0  1.45 -4.95 0  1.5 -4.95 0  1.55 -4.95 0  1.6 -4.95 0  1.65 -4.95 0  1.7 -4.95 0  1.75 -4.95 0  1.8 -4.95 0  1.85 -4.95 0  1.9 -4.95 0  1.95 -4.95 0  2 -4.95 0  2.05 -4.95 0  2.1 -4.95 0  2.15 -4.95 0  2.2 -4.95 0  2.25 -4.95 0  2.3 -4.95 0  2.35 -4.95 0  2.4 -4.95 0  2.45 -4.95 0  2.5 -4.95 0  2.55 -4.95 0  2.6 -4.95 0  2.65 -4.95 0  2.7 -4.95 0  2.75 -4.95 0  2.8 -4.95 0  2.85 -4.95 0  2.9 -4.95 0  2.95 -4.95 0  3 -4.95 0  3.050000000000001 -4.95 0  3.1 -4.95 0  3.15 -4.95 0  3.199999999999999 -4.95 0  3.25 -4.95 0  3.300000000000001 -4.95 0  3.35 -4.95 0  3.4 -4.95 0  3.449999999999999 -4.95 0  3.5 -4.95 0  3.550000000000001 -4.95 0  3.6 -4.95 0  3.65 -4.95 0  3.699999999999999 -4.95 0  3.75 -4.95 0  3.800000000000001 -4.95 0  3.85 -4.95 0  3.9 -4.95 0  3.949999999999999 -4.95 0  4 -4.95 0  4.050000000000001 -4.95 0  4.1 -4.95 0  4.15 -4.95 0  4.199999999999999 -4.95 0  4.25 -4.95 0  4.300000000000001 -4.95 0  4.35 -4.95 0  4.4 -4.95 0  4.449999999999999 -4.95 0  4.5 -4.95 0  4.550000000000001 -4.95 0  4.6 -4.95 0  4.65 -4.95 0  4.699999999999999 -4.95 0  4.75 -4.95 0  4.800000000000001 -4.95 0  4.85 -4.95 0  4.9 -4.95 0  4.949999999999999 -4.95 0  5 -4.95 0  -5 -4.9 0  -4.95 -4.9 0  -4.9 -4.9 0  -4.85 -4.9 0  -4.8 -4.9 0  -4.75 -4.9 0  -4.7 -4.9 0  -4.65 -4.9 0  -4.6 -4.9 0  -4.55 -4.9 0  -4.5 -4.9 0  -4.45 -4.9 0  -4.4 -4.9 0  -4.35 -4.9 0  -4.3 -4.9 0  -4.25 -4.9 0  -4.2 -4.9 0  -4.15 -4.9 0  -4.1 -4.9 0  -4.05 -4.9 0  -4 -4.9 0  -3.95 -4.9 0  -3.9 -4.9 0  -3.85 -4.9 0  -3.8 -4.9 0  -3.75 -4.9 0  -3.7 -4.9 0  -3.65 -4.9 0  -3.6 -4.9 0  -3.55 -4.9 0  -3.5 -4.9 0  -3.45 -4.9 0  -3.4 -4.9 0  -3.35 -4.9 0  -3.3 -4.9 0  -3.25 -4.9 0  -3.2 -4.9 0  -3.15 -4.9 0  -3.1 -4.9 0  -3.05 -4.9 0  -3 -4.9 0  -2.95 -4.9 0  -2.9 -4.9 0  -2.85 -4.9 0  -2.8 -4.9 0  -2.75 -4.9 0  -2.7 -4.9 0  -2.65 -4.9 0  -2.6 -4.9 0  -2.55 -4.9 0  -2.5 -4.9 0  -2.45 -4.9 0  -2.4 -4.9 0  -2.35 -4.9 0  -2.3 -4.9 0  -2.25 -4.9 0  -2.2 -4.9 0  -2.15 -4.9 0  -2.1 -4.9 0  -2.05 -4.9 0  -2 -4.9 0  -1.95 -4.9 0  -1.9 -4.9 0  -1.85 -4.9 0  -1.8 -4.9 0  -1.75 -4.9 0  -1.7 -4.9 0  -1.65 -4.9 0  -1.6 -4.9 0  -1.55 -4.9 0  -1.5 -4.9 0  -1.45 -4.9 0  -1.4 -4.9 0  -1.35 -4.9 0  -1.3 -4.9 0  -1.25 -4.9 0  -1.2 -4.9 0  -1.15 -4.9 0  -1.1 -4.9 0  -1.05 -4.9 0  -1 -4.9 0  -0.9500000000000002 -4.9 0  -0.9000000000000004 -4.9 0  -0.8499999999999996 -4.9 0  -0.7999999999999998 -4.9 0  -0.75 -4.9 0  -0.7000000000000002 -4.9 0  -0.6500000000000004 -4.9 0  -0.5999999999999996 -4.9 0  -0.5499999999999998 -4.9 0  -0.5 -4.9 0  -0.4500000000000002 -4.9 0  -0.4000000000000004 -4.9 0  -0.3499999999999996 -4.9 0  -0.2999999999999998 -4.9 0  -0.25 -4.9 0  -0.2000000000000002 -4.9 0  -0.1500000000000004 -4.9 0  -0.09999999999999964 -4.9 0  -0.04999999999999982 -4.9 0  0 -4.9 0  0.04999999999999982 -4.9 0  0.09999999999999964 -4.9 0  0.1500000000000004 -4.9 0  0.2000000000000002 -4.9 0  0.25 -4.9 0  0.2999999999999998 -4.9 0  0.3499999999999996 -4.9 0  0.4000000000000004 -4.9 0  0.4500000000000002 -4.9 0  0.5 -4.9 0  0.5499999999999998 -4.9 0  0.5999999999999996 -4.9 0  0.6500000000000004 -4.9 0  0.7000000000000002 -4.9 0  0.75 -4.9 0  0.7999999999999998 -4.9 0  0.8499999999999996 -4.9 0  0.9000000000000004 -4.9 0  0.9500000000000002 -4.9 0  1 -4.9 0  1.05 -4.9 0  1.1 -4.9 0  1.15 -4.9 0  1.2 -4.9 0  1.25 -4.9 0  1.3 -4.9 0  1.35 -4.9 0  1.4 -4.9 0  1.45 -4.9 0  1.5 -4.9 0  1.55 -4.9 0  1.6 -4.9 0  1.65 -4.9 0  1.7 -4.9 0  1.75 -4.9 0  1.8 -4.9 0  1.85 -4.9 0  1.9 -4.9 0  1.95 -4.9 0  2 -4.9 0  2.05 -4.9 0  2.1 -4.9 0  2.15 -4.9 0  2.2 -4.9 0  2.25 -4.9 0  2.3 -4.9 0  2.35 -4.9 0  2.4 -4.9 0  2.45 -4.9 0  2.5 -4.9 0  2.55 -4.9 0  2.6 -4.9 0  2.65 -4.9 0  2.7 -4.9 0  2.75 -4.9 0  2.8 -4.9 0  2.85 -4.9 0  2.9 -4.9 0  2.95 -4.9 0  3 -4.9 0  3.050000000000001 -4.9 0  3.1 -4.9 0  3.15 -4.9 0  3.199999999999999 -4.9 0  3.25 -4.9 0  3.300000000000001 -4.9 0  3.35 -4.9 0  3.4 -4.9 0  3.449999999999999 -4.9 0  3.5 -4.9 0  3.550000000000001 -4.9 0  3.6 -4.9 0  3.65 -4.9 0  3.699999999999999 -4.9 0  3.75 -4.9 0  3.800000000000001 -4.9 0  3.85 -4.9 0  3.9 -4.9 0  3.949999999999999 -4.9 0  4 -4.9 0  4.050000000000001 -4.9 0  4.1 -4.9 0  4.15 -4.9 0  4.199999999999999 -4.9 0  4.25 -4.9 0  4.300000000000001 -4.9 0  4.35 -4.9 0  4.4 -4.9 0  4.449999999999999 -4.9 0  4.5 -4.9 0  4.550000000000001 -4.9 0  4.6 -4.9 0  4.65 -4.9 0  4.699999999999999 -4.9 0  4.75 -4.9 0  4.800000000000001 -4.9 0  4.85 -4.9 0  4.9 -4.9 0  4.949999999999999 -4.9 0  5 -4.9 0  -5 -4.85 0  -4.95 -4.85 0  -4.9 -4.85 0  -4.85 -4.85 0  -4.8 -4.85 0  -4.75 -4.85 0  -4.7 -4.85 0  -4.65 -4.85 0  -4.6 -4.85 0  -4.55 -4.85 0  -4.5 -4.85 0  
[...]
<PointData  Scalars="r"> 
<DataArray  type="Float64"  Name="r"  format="ascii">1.0000003913476463e+00  1.0000003813901572e+00  9.9999892472617447e-01  1.0000012683600259e+00  9.9999980725257254e-01  9.9999998557440339e-01  1.0000000222980645e+00  9.9999951397436604e-01  1.0000011956229702e+00  9.9999867760352890e-01  1.0000001109733434e+00  1.0000016226544930e+00  9.9999831681375539e-01  1.0000005483452119e+00  1.0000006437419837e+00  9.9999877148431937e-01  1.0000008130753435e+00  9.9999997259802453e-01  9.9999917264131655e-01  1.0000010236760617e+00  1.0000000079636489e+00  9.9999907702802793e-01  1.0000007033163478e+00  1.0000001088487533e+00  9.9999970944402472e-01  1.0000002478948191e+00  9.9999976727941875e-01  1.0000003182810546e+00  9.9999984303726153e-01  1.0000000841188854e+00  1.0000001724025449e+00  9.9999947304749182e-01  1.0000009958189311e+00  9.9999951875910131e-01  9.9999922365253802e-01  1.0000011150875676e+00  9.9999930397464420e-01  9.9999986754034953e-01  1.0000008360270722e+00  9.9999878023235145e-01  1.0000003549166039e+00  1.0000009912477230e+00  9.9999877765509204e-01  1.0000006385587463e+00  1.0000001130364315e+00  9.9999934195297613e-01  1.0000011106121311e+00  9.9999973990385616e-01  9.9999956491013919e-01  1.0000003028541882e+00  9.9999970054901877e-01  1.0000000316059356e+00  1.0000002732699853e+00  9.9999957862562661e-01  1.0000001280263355e+00  9.9999988099971804e-01  9.9999969844687708e-01  9.9999947719871574e-01  9.9999851934268580e-01  9.9999909494648165e-01  1.0000001492698183e+00  1.0000022371644210e+00  1.0000062009294655e+00  1.0000106296360254e+00  1.0000161585342930e+00  1.0000227641073438e+00  1.0000267794873410e+00  1.0000262975259466e+00  1.0000168432940912e+00  9.9999180397112597e-01  9.9994726134076761e-01  9.9987773152235471e-01  9.9977917161379093e-01  9.9965250860968791e-01  9.9950158796353450e-01  9.9933578558155800e-01  9.9917351336886240e-01  9.9903777677848793e-01  9.9895877383630338e-01  9.9897238991127635e-01  9.9911531897362482e-01  9.9942490255563865e-01  9.9993627992751377e-01  1.0006760872709457e+00  1.0016627172377413e+00  1.0029028983274675e+00  1.0043884972229229e+00  1.0060992631118699e+00  1.0080016285653681e+00  1.0100494431486913e+00  1.0121894720813820e+00  1.0143622443187461e+00  1.0165041648569382e+00  1.0185532131066322e+00  1.0204487838398328e+00  1.0221344653184534e+00  1.0235618316711610e+00  1.0246885900211604e+00  1.0254806514600259e+00  1.0259151958966113e+00  1.0259776362848554e+00  1.0256638130078872e+00  1.0249812840026868e+00  1.0239468904994808e+00  1.0225893471605620e+00  1.0209487822576835e+00  1.0190735089361711e+00  1.0170222502086477e+00  1.0148614758818715e+00  1.0126607743903009e+00  1.0104919947475133e+00  1.0084241511495304e+00  1.0065185450663852e+00  1.0048259280782692e+00  1.0033812496874277e+00  1.0022018229103438e+00  1.0012878509436487e+00  1.0006223397371743e+00  1.0001745146807843e+00  9.9990506005953383e-01  9.9977126526228188e-01  9.9973150826763157e-01  9.9974880746538641e-01  9.9979448917800018e-01  9.9984846805166261e-01  9.9989796643839557e-01  9.9993731736386671e-01  9.9996527972987481e-01  9.9998297617498311e-01  9.9999329501839329e-01  9.9999841137410128e-01  1.0000001667050638e+00  1.0000008899196511e+00  1.0000009540776129e+00  1.0000003046404384e+00  1.0000002486091335e+00  1.0000003152495407e+00  9.9999987452543404e-01  9.9999999201732737e-01  1.0000001522548514e+00  9.9999985588189999e-01  1.0000000147358687e+00  1.0000001012430613e+00  9.9999985948057390e-01  1.0000000844248746e+00  1.0000000410867882e+00  9.9999984370667450e-01  1.0000001547377324e+00  9.9999999731061751e-01  9.9999982930680587e-01  1.0000001889932728e+00  9.9999997930022644e-01  9.9999982480660876e-01  1.0000002177295935e+00  9.9999993067225679e-01  9.9999985840981387e-01  1.0000002572965556e+00  9.9999983640836898e-01  9.9999991912162589e-01  1.0000003002766404e+00  9.9999974539744996e-01  9.9999994264832837e-01  1.0000003596805755e+00  9.9999968596844258e-01  9.9999992316377584e-01  1.0000003937003186e+00  9.9999970822566941e-01  9.9999986744321745e-01  1.0000003791195757e+00  9.9999980908543928e-01  9.9999981348957867e-01  1.0000003123029342e+00  9.9999992666931359e-01  9.9999982058709602e-01  1.0000001614304765e+00  1.0000000412999714e+00  9.9999988256353978e-01  9.9999998337974150e-01  1.0000001137087302e+00  1.0000000007310457e+00  9.9999985158121485e-01  1.0000000925751480e+00  1.0000001676623169e+00  9.9999972289409333e-01  1.0000000161899536e+00  1.0000003410123395e+00  9.9999962753251248e-01  9.9999996699793992e-01  1.0000004489777563e+00  9.9999963888205767e-01  9.9999990399450234e-01  1.0000005066683302e+00  9.9999966150675668e-01  9.9999977359481063e-01  1.0000005134850645e+00  9.9999966970481369e-01  9.9999976155880599e-01  1.0000005373349423e+00  9.9999974536102221e-01  9.9999972741545395e-01  1.0000005503290035e+00  1.0000003813901557e+00  9.9999916406605216e-01  1.0000007506004365e+00  9.9999983111544233e-01  9.9999926433327846e-01  1.0000003312861945e+00  9.9999964242243444e-01  1.0000007736230112e+00  9.9999926125742933e-01  9.9999990055433019e-01  1.0000014241952351e+00  9.9999836668067776e-01  1.0000001530517604e+00  1.0000010729114837e+00  9.9999869100673755e-01  1.0000006581596941e+00  1.0000003375777438e+00  9.9999910559818372e-01  1.0000009221580251e+00  9.9999990208444922e-01  9.9999907054079051e-01  1.0000008389455155e+00  1.0000000912488936e+00  9.9999938808428090e-01  1.0000002628638096e+00  9.9999991103448527e-01  1.0000000775085711e+00  9.9999996650171274e-01  9.9999982293140877e-01  1.0000002216033348e+00  9.9999960139951982e-01  1.0000004407240362e+00  9.9999975819495102e-01  9.9999928006780170e-01  1.0000012194385866e+00  9.9999960206908201e-01  9.9999954873001917e-01  1.0000009753603418e+00  9.9999911010812581e-01  1.0000002751802308e+00  1.0000009375695023e+00  9.9999867680938326e-01  1.0000003853445838e+00  1.0000004904945052e+00  9.9999915513687809e-01  1.0000007584898312e+00  9.9999963608771569e-01  9.9999928698091090e-01  1.0000007127446275e+00  9.9999989577859816e-01  1.0000000685659625e+00  1.0000003217858220e+00  9.9999960891469097e-01  1.0000000868890753e+00  9.9999987107802313e-01  9.9999930954441718e-01  9.9999945384280298e-01  9.9999918234904528e-01  1.0000003101161068e+00  1.0000018428815425e+00  1.0000033652740465e+00  1.0000064301277340e+00  1.0000095214589633e+00  1.0000127301189192e+00  1.0000153131768823e+00  1.0000128201155414e+00  1.0000027009446477e+00  9.9998131795119249e-01  9.9994305329419853e-01  9.9988614744052029e-01  9.9980916613967119e-01  9.9971345460106320e-01  9.9960813753160005e-01  9.9950735342434027e-01  9.9943259365734283e-01  9.9941534105831065e-01  9.9949224186121877e-01  9.9970541514711742e-01  1.0001010691679906e+00  1.0007223717946152e+00  1.0016081145161893e+00  1.0027888071719437e+00  1.0042801927911535e+00  1.0060837056560255e+00  1.0081854364275784e+00  1.0105543206052721e+00  1.0131471936163958e+00  1.0159103264982094e+00  1.0187814308657348e+00  1.0216963674260546e+00  1.0245903676733779e+00  1.0273996351668195e+00  1.0300666443837998e+00  1.0325392202558239e+00  1.0347712560094409e+00  1.0367254724046238e+00  1.0383701603844564e+00  1.0396799085578783e+00  1.0406371906500564e+00  1.0412281614756402e+00  1.0414437231292653e+00  1.0412806897629507e+00  1.0407386258845559e+00  1.0398221712811093e+00  1.0385414018258974e+00  1.0369100631143660e+00  1.0349495502758228e+00  1.0326890276439047e+00  1.0301642742468742e+00  1.0274214401850490e+00  1.0245164414773400e+00  1.0215136014816322e+00  1.0184859621098419e+00  1.0155111990932466e+00  1.0126679312879376e+00  1.0100315475285120e+00  1.0076664850688921e+00  1.0056209099588147e+00  1.0039228990504241e+00  1.0025771599267430e+00  1.0015654090732662e+00  1.0008500560463909e+00  1.0003809573933173e+00  1.0001023248179008e+00  9.9995907240468773e-01  9.9990349747506535e-01  9.9989808513805722e-01  9.9991584370513276e-01  9.9994029109202265e-01  9.9996244746467711e-01  9.9997877661082191e-01  9.9998971879535747e-01  9.9999594017577709e-01  9.9999859011874037e-01  1.0000000022653490e+00  1.0000005355845425e+00  1.0000001282897835e+00  1.0000001646853338e+00  1.0000002776282506e+00  9.9999989823942859e-01  1.0000000055341045e+00  1.0000001218263672e+00  9.9999986946979369e-01  1.0000000507796520e+00  1.0000000590888503e+00  9.9999985703325678e-01  1.0000001236486908e+00  1.0000000132129476e+00  9.9999983375213652e-01  1.0000001757999637e+00  9.9999999001136231e-01  9.9999982072191662e-01  1.0000002057238480e+00  9.9999995596495295e-01  9.9999983888505606e-01  1.0000002338554030e+00  9.9999988000592599e-01  9.9999988796297146e-01  1.0000002722563124e+00  9.9999978419213154e-01  9.9999993001993559e-01  1.0000003295758304e+00  9.9999971154223988e-01  9.9999993113212637e-01  1.0000003889098787e+00  9.9999969677318579e-01  9.9999989483631047e-01  1.0000003994721436e+00  9.9999976209427255e-01  9.9999983721281915e-01  1.0000003424860175e+00  9.9999987608420238e-01  9.9999980391771459e-01  1.0000002271336919e+00  9.9999999566436293e-01  9.9999984477047554e-01  1.0000000657248089e+00  1.0000000873073323e+00  9.9999994854884267e-01  9.9999989740760653e-01  1.0000001026669367e+00  1.0000000884889904e+00  9.9999976940004209e-01  1.0000000567214438e+00  1.0000002718965393e+00  9.9999967040452054e-01  9.9999999263894601e-01  1.0000004055987799e+00  9.9999962104883100e-01  9.9999990965198571e-01  1.0000004531902416e+00  9.9999963869934538e-01  9.9999981005587257e-01  1.0000005462769779e+00  9.9999969988798387e-01  9.9999979760720881e-01  1.0000005522082871e+00  9.9999971135880350e-01  9.9999972778565061e-01  1.0000005301827239e+00  9.9999972741545007e-01  9.9999892472617302e-01  1.0000007506004378e+00  9.9999962695725475e-01  9.9999985648496881e-01  1.0000004494809631e+00  9.9999998233406340e-01  1.0000004926020898e+00  9.9999937071436584e-01  9.9999992652089154e-01  1.0000009623169490e+00  9.9999872583592486e-01  1.0000002322067947e+00  1.0000010739716383e+00  9.9999898227486061e-01  1.0000002665885814e+00  1.0000005045240119e+00  9.9999911695679111e-01  1.0000005621321943e+00  1.0000000472666966e+00  9.9999917586994969e-01  1.0000008943347392e+00  9.9999998154127978e-01  9.9999934201875007e-01  1.0000004007188221e+00  1.0000000498197275e+00  1.0000000270998817e+00  9.9999993744613525e-01  9.9999994079958598e-01  1.0000001956520361e+00  9.9999982235273377e-01  1.0000002389008900e+00  9.9999993236186346e-01  9.9999966058648027e-01  1.0000008216626830e+00  9.9999970291393547e-01  9.9999932497964628e-01  1.0000008642788112e+00  9.9999943572655747e-01  9.9999993798341780e-01  1.0000007794049290e+00  9.9999878203321069e-01  1.0000004564995415e+00  1.0000006041278302e+00  9.9999920331166636e-01  1.0000004903735968e+00  9.9999991071126892e-01  9.9999955802289175e-01  1.0000008642792200e+00  9.9999994227761557e-01  9.9999963097011924e-01  1.0000002472154337e+00  9.9999936054546557e-01  9.9999993472457160e-01  9.9999967112577715e-01  9.9999923871367080e-01  9.9999999877151746e-01  1.0000006487460993e+00  1.0000024812329356e+00  1.0000051992376890e+00  1.0000079143336478e+00  1.0000116870253648e+00  1.0000140196573195e+00  1.0000117424364707e+00  1.0000019973530316e+00  9.9997771972565841e-01  9.9993453572825675e-01  9.9986917482707383e-01  9.9977950300984741e-01  9.9967200731830685e-01  9.9956141189495529e-01  9.9947301046934167e-01  9.9944844066367255e-01  9.9954290837777515e-01  9.9982401482198979e-01  1.0003715558986090e+00  1.0012668376721743e+00  1.0025863443257086e+00  1.0043935848471686e+00  1.0067276298297068e+00  1.0095975989681256e+00  1.0129807072599113e+00  1.0168193789974271e+00  1.0210284791281066e+00  1.0255027637469818e+00  1.0301237270648733e+00  1.0347715805018740e+00  1.0393337055379575e+00  1.0437096654320692e+00  1.0478187912965065e+00  1.0516010735518435e+00  1.0550156327224709e+00  1.0580425250632843e+00  1.0606776410943484e+00  1.0629284884661359e+00  1.0648131217910100e+00  1.0663539674766951e+00  1.0675751442267902e+00  1.0685022167889793e+00  1.0691563774932136e+00  1.0695546321819003e+00  1.0697102419021289e+00  1.0696287674238465e+00  1.0693094500015135e+00  1.0687454585130562e+00  1.0679214497762068e+00  1.0668168227660961e+00  1.0654055618527838e+00  1.0636558235942351e+00  1.0615352347540929e+00  1.0590131035474741e+00  1.0560635274220624e+00  1.0526728634576568e+00  1.0488448159209325e+00  1.0446068014062075e+00  1.0400165769595600e+00  1.0351638937958954e+00  1.0301706923803098e+00  1.0251866283149516e+00  1.0203766179767673e+00  1.0159047674783186e+00  1.0119159636129931e+00  1.0085174344967873e+00  1.0057647544149519e+00  1.0036565369404176e+00  1.0021400746396605e+00  1.0011246729970618e+00  1.0004998177022206e+00  1.0001545331836879e+00  9.9999122731984469e-01  9.9993374695188075e-01  9.9992960640064421e-01  9.9994577762956438e-01  9.9996484477258352e-01  9.9998061542621219e-01  9.9999093098438663e-01  9.9999618803105750e-01  9.9999899378782331e-01  1.0000002030798545e+00  1.0000001109413061e+00  1.0000001843683020e+00  1.0000002515054314e+00  9.9999993669288989e-01  1.0000000519869761e+00  1.0000000662639605e+00  9.9999987651303990e-01  1.0000000993216795e+00  1.0000000177503896e+00  9.9999985306165451e-01  1.0000001530593419e+00  1.0000000012098658e+00  9.9999982346991045e-01  1.0000001947143942e+00  9.9999997177806876e-01  9.9999983244166757e-01  1.0000002192888040e+00  9.9999991425712498e-01  9.9999987965436077e-01  1.0000002449060108e+00  9.9999983664484060e-01  9.9999992183188413e-01  1.0000002985048564e+00  9.9999975115586459e-01  9.9999993471499204e-01  1.0000003567571503e+00  9.9999970950272732e-01  9.9999989788159205e-01  1.0000003944806108e+00  9.9999973412045362e-01  9.9999984664652641e-01  1.0000003692716837e+00  9.9999983025978412e-01  9.9999981785279568e-01  1.0000002696960413e+00  9.9999996847683681e-01  9.9999981888532075e-01  1.0000001294084073e+00  1.0000000641841511e+00  9.9999989480360341e-01  9.9999996295341032e-01  1.0000000984413724e+00  1.0000000483775113e+00  9.9999981020674222e-01  1.0000000889905996e+00  1.0000002092940754e+00  9.9999968521822991e-01  1.0000000298219933e+00  1.0000003385100100e+00  9.9999963915056922e-01  9.9999994537829251e-01  1.0000004435394867e+00  9.9999966792724482e-01  9.9999985993248830e-01  1.0000005330615627e+00  9.9999967935561840e-01  9.9999975804444929e-01  1.0000005205126206e+00  9.9999968616392776e-01  9.9999972604958987e-01  1.0000005593083900e+00  9.9999972778565049e-01  9.9999974536102365e-01  1.0000012683600261e+00  9.9999983111544144e-01  9.9999985648496781e-01  1.0000005684996345e+00  9.9999926710747100e-01  1.0000005322608707e+00  9.9999924938707507e-01  1.0000000096339938e+00  1.0000009064774851e+00  9.9999897107876257e-01  1.0000003641815620e+00  1.0000007332823009e+00  9.9999905526454691e-01  1.0000001693008023e+00  1.0000003657890992e+00  9.9999949002502098e-01  1.0000003137080886e+00  1.0000001935816796e+00  9.9999947805148048e-01  1.0000006054448438e+00  9.9999999247364024e-01  9.9999938383889442e-01  1.0000005285740463e+00  1.0000000317715154e+00  9.9999986954188336e-01  9.9999998565870285e-01  9.9999988334311385e-01  1.0000002697073456e+00  9.9999978863223471e-01  1.0000001317658480e+00  9.9999996418853876e-01  9.9999979745243239e-01  1.0000004506150608e+00  9.9999967811710933e-01  9.9999960966213486e-01  1.0000006784920012e+00  9.9999977394228867e-01  9.9999975775892580e-01  1.0000005814343951e+00  9.9999920417873500e-01  1.0000003696484041e+00  1.0000005567907002e+00  9.9999911575996059e-01  1.0000004287780564e+00  1.0000000284014388e+00  9.9999972122490666e-01  1.0000006354728133e+00  9.9999970282574258e-01  9.9999951469549675e-01  1.0000002800994570e+00  9.9999949119577702e-01  9.9999976148425562e-01  9.9999980291128565e-01  9.9999941191194530e-01  1.0000011360274170e+00  1.0000027285405328e+00  1.0000056847037249e+00  1.0000098565392339e+00  1.0000130225314692e+00  1.0000142223427031e+00  1.0000086755031021e+00  9.9998952562003129e-01  9.9995144115669532e-01  9.9988687763632189e-01  9.9979289608928013e-01  9.9967540741963257e-01  9.9954973264937563e-01  9.9945142053982372e-01  9.9943810068295702e-01  9.9959092949888440e-01  1.0000172587087064e+00  1.0008430852691690e+00  1.0022005176508413e+00  1.0042152420526511e+00  1.0069842844189762e+00  1.0105585600681517e+00  1.0149317596913505e+00  1.0200318872509500e+00  1.0257254823292341e+00  1.0318309152307092e+00  1.0381345311745092e+00  1.0444135509911179e+00  1.0504586349423957e+00  1.0560888335470779e+00  1.0611660500776787e+00  1.0656010009607630e+00  1.0693511074493500e+00  1.0724175249357577e+00  1.0748366400469935e+00  1.0766685742583966e+00  1.0779907152051640e+00  1.0788874797923873e+00  1.0794422666711261e+00  1.0797352103959028e+00  1.0798377995491657e+00  1.0798110871034048e+00  1.0797072063050337e+00  1.0795666587563539e+00  1.0794201641010388e+00  1.0792912550334031e+00  1.0791938949809234e+00  1.0791348892005963e+00  1.0791150974014641e+00  1.0791272069428999e+00  1.0791576065223123e+00  1.0791852236013335e+00  1.0791788028826985e+00  1.0790984362080098e+00  1.0788931130513939e+00  1.0784981995125469e+00  1.0778369689348506e+00  1.0768202607086306e+00  1.0753482306206203e+00  1.0733164606561294e+00  1.0706230968036814e+00  1.0671813083955590e+00  1.0629359545299524e+00  1.0578801779162093e+00  1.0520728177532437e+00  1.0456517291238017e+00  1.0388352738327720e+00  1.0319089683972757e+00  1.0251965085427932e+00  1.0190169256230812e+00  1.0136356798982378e+00  1.0092233389221894e+00  1.0058341021273745e+00  1.0034092385654449e+00  1.0018049496362016e+00  1.0008338857906496e+00  1.0003051906217562e+00  1.0000552587431679e+00  9.9996227774969781e-01  9.9994471569803078e-01  9.9995533439054318e-01  9.9997206442670727e-01  9.9998552639720006e-01  9.9999344072478524e-01  9.9999777616240593e-01  9.9999971803091303e-01  1.0000000385028003e+00  1.0000002165061515e+00  1.0000001929960833e+00  9.9999995865955826e-01  1.0000001098258910e+00  1.0000000181494795e+00  9.9999987156798908e-01  1.0000001357835759e+00  9.9999999842148635e-01  9.9999983954970917e-01  1.0000001756815253e+00  9.9999998305122695e-01  9.9999983324777120e-01  1.0000002010603626e+00  9.9999993998799197e-01  9.9999986805727414e-01  1.0000002152233343e+00  9.9999987523763012e-01  9.9999990836800434e-01  1.0000002528454794e+00  9.9999979632404634e-01  9.9999992746497257e-01  1.0000003169068454e+00  9.9999973765465799e-01  9.9999991345603945e-01  1.0000003689541692e+00  9.9999974638882527e-01  9.9999986069580493e-01  1.0000003809151712e+00  9.9999981054516884e-01  9.9999981801904769e-01  1.0000003115406189e+00  9.9999991693468182e-01  9.9999981306163321e-01  1.0000001728793080e+00  1.0000000368094235e+00  9.9999986069663815e-01  1.0000000204107289e+00  1.0000000981557906e+00  9.9999998655139133e-01  9.9999986379053518e-01  1.0000000843914794e+00  1.0000001559212386e+00  9.9999971101772311e-01  1.0000000668082778e+00  1.0000002935001293e+00  9.9999965558642157e-01  9.9999999396592720e-01  1.0000003917821854e+00  9.9999967015816293e-01  9.9999986038925381e-01  1.0000004850056792e+00  9.9999965299654570e-01  9.9999978861031869e-01  1.0000005221111681e+00  9.9999974299087235e-01  9.9999974202863451e-01  1.0000005743872120e+00  9.9999972604958987e-01  9.9999971135880517e-01  1.0000005373349423e+00  9.9999980725257342e-01  9.9999926433327679e-01  1.0000004494809638e+00  9.9999926710747256e-01  1.0000006060508695e+00  9.9999994049256358e-01  9.9999971910056995e-01  1.0000011066530314e+00  9.9999898788391173e-01  1.0000001440443964e+00  1.0000005122820985e+00  9.9999918036274893e-01  1.0000002618025161e+00  1.0000003131436572e+00  9.9999967838215931e-01  1.0000002566781767e+00  9.9999996452790774e-01  9.9999973587691149e-01  1.0000002601596769e+00  9.9999989748543638e-01  9.9999966738519463e-01  1.0000003287310402e+00  1.0000000300023457e+00  9.9999971779950503e-01  1.0000000829762830e+00  9.9999990083936285e-01  1