<?xml version="1.0"?>
<VTKFile type="UnstructuredGrid"  version="0.1"  >
<UnstructuredGrid>
<Piece  NumberOfPoints="40401" NumberOfCells="80000">
<Points>
<DataArray  type="Float64"  NumberOfComponents="3"  format="ascii">-5 -5 0  -4.95 -5 0  -4.9 -5 0  -4.85 -5 0  -4.8 -5 0  -4.75 -5 0  -4.7 -5 0  -4.65 -5 0  -4.6 -5 0  -4.55 -5 0  -4.5 -5 0  -4.45 -5 0  -4.4 -5 0  -4.35 -5 0  -4.3 -5 0  -4.25 -5 0  -4.2 -5 0  -4.15 -5 0  -4.1 -5 0  -4.05 -5 0  -4 -5 0  -3.95 -5 0  -3.9 -5 0  -3.85 -5 0  -3.8 -5 0  -3.75 -5 0  -3.7 -5 0  -3.65 -5 0  -3.6 -5 0  -3.55 -5 0  -3.5 -5 0  -3.45 -5 0  -3.4 -5 0  -3.35 -5 0  -3.3 -5 0  -3.25 -5 0  -3.2 -5 0  -3.15 -5 0  -3.1 -5 0  -3.05 -5 0  -3 -5 0  -2.95 -5 0  -2.9 -5 0  -2.85 -5 0  -2.8 -5 0  -2.75 -5 0  -2.7 -5 0  -2.65 -5 0  -2.6 -5 0  -2.55 -5 0  -2.5 -5 0  -2.45 -5 0  -2.4 -5 0  -2.35 -5 0  -2.3 -5 0  -2.25 -5 0  -2.2 -5 0  -2.15 -5 0  -2.1 -5 0  -2.05 -5 0  -2 -5 0  -1.95 -5 0  -1.9 -5 0  -1.85 -5 0  -1.8 -5 0  -1.75 -5 0  -1.7 -5 0  -1.65 -5 0  -1.6 -5 0  -1.55 -5 0  -1.5 -5 0  -1.45 -5 0  -1.4 -5 0  -1.35 -5 0  -1.3 -5 0  -1.25 -5 0  -1.2 -5 0  -1.15 -5 0  -1.1 -5 0  -1.05 -5 0  -1 -5 0  -0.9500000000000002 -5 0  -0.9000000000000004 -5 0  -0.8499999999999996 -5 0  -0.7999999999999998 -5 0  -0.75 -5 0  -0.7000000000000002 -5 0  -0.6500000000000004 -5 0  -0.5999999999999996 -5 0  -0.5499999999999998 -5 0  -0.5 -5 0  -0.4500000000000002 -5 0  -0.4000000000000004 -5 0  -0.3499999999999996 -5 0  -0.2999999999999998 -5 0  -0.25 -5 0  -0.2000000000000002 -5 0  -0.1500000000000004 -5 0  -0.09999999999999964 -5 0  -0.04999999999999982 -5 0  0 -5 0  0.04999999999999982 -5 0  0.09999999999999964 -5 0  0.1500000000000004 -5 0  0.2000000000000002 -5 0  0.25 -5 0  0.2999999999999998 -5 0  0.3499999999999996 -5 0  0.4000000000000004 -5 0  0.4500000000000002 -5 0  0.5 -5 0  0.5499999999999998 -5 0  0.5999999999999996 -5 0  0.6500000000000004 -5 0  0.7000000000000002 -5 0  0.75 -5 0  0.7999999999999998 -5 0  0.8499999999999996 -5 0  0.9000000000000004 -5 0  0.9500000000000002 -5 0  1 -5 0  1.05 -5 0  1.1 -5 0  1.15 -5 0  1.2 -5 0  1.25 -5 0  1.3 -5 0  1.35 -5 0  1.4 -5 0  1.45 -5 0  1.5 -5 0  1.55 -5 0  1.6 -5 0  1.65 -5 0  1.7 -5 0  1.75 -5 0  1.8 -5 0  1.85 -5 0  1.9 -5 0  1.95 -5 0  2 -5 0  2.05 -5 0  2.1 -5 0  2.15 -5 0  2.2 -5 0  2.25 -5 0  2.3 -5 0  2.35 -5 0  2.4 -5 0  2.45 -5 0  2.5 -5 0  2.55 -5 0  2.6 -5 0  2.65 -5 0  2.7 -5 0  2.75 -5 0  2.8 -5 0  2.85 -5 0  2.9 -5 0  2.95 -5 0  3 -5 0  3.050000000000001 -5 0  3.1 -5 0  3.15 -5 0  3.199999999999999 -5 0  3.25 -5 0  3.300000000000001 -5 0  3.35 -5 0  3.4 -5 0  3.449999999999999 -5 0  3.5 -5 0  3.550000000000001 -5 0  3.6 -5 0  3.65 -5 0  3.699999999999999 -5 0  3.75 -5 0  3.800000000000001 -5 0  3.85 -5 0  3.9 -5 0  3.949999999999999 -5 0  4 -5 0  4.050000000000001 -5 0  4.1 -5 0  4.15 -5 0  4.199999999999999 -5 0  4.25 -5 0  4.300000000000001 -5 0  4.35 -5 0  4.4 -5 0  4.449999999999999 -5 0  4.5 -5 0  4.550000000000001 -5 0  4.6 -5 0  4.65 -5 0  4.699999999999999 -5 0  4.75 -5 0  4.800000000000001 -5 0  4.85 -5 0  4.9 -5 0  4.949999999999999 -5 0  5 -5 0  -5 -4.95 0  -4.95 -4.95 0  -4.9 -4.95 0  -4.85 -4.95 0  -4.8 -4.95 0  -4.75 -4.95 0  -4.7 -4.95 0  -4.65 -4.95 0  -4.6 -4.95 0  -4.55 -4.95 0  -4.5 -4.95 0  -4.45 -4.95 0  -4.4 -4.95 0  -4.35 -4.95 0  -4.3 -4.95 0  -4.25 -4.95 0  -4.2 -4.95 0  -4.15 -4.95 0  -4.1 -4.95 0  -4.05 -4.95 0  -4 -4.95 0  -3.95 -4.95 0  -3.9 -4.95 0  -3.85 -4.95 0  -3.8 -4.95 0  -3.75 -4.95 0  -3.7 -4.95 0  -3.65 -4.95 0  -3.6 -4.95 0  -3.55 -4.95 0  -3.5 -4.95 0  -3.45 -4.95 0  -3.4 -4.95 0  -3.35 -4.95 0  -3.3 -4.95 0  -3.25 -4.95 0  -3.2 -4.95 0  -3.15 -4.95 0  -3.1 -4.95 0  -3.05 -4.95 0  -3 -4.95 0  -2.95 -4.95 0  -2.9 -4.95 0  -2.85 -4.95 0  -2.8 -4.95 0  -2.75 -4.95 0  -2.7 -4.95 0  -2.65 -4.95 0  -2.6 -4.95 0  -2.55 -4.95 0  -2.5 -4.95 0  -2.45 -4.95 0  -2.4 -4.95 0  -2.35 -4.95 0  -2.3 -4.95 0  -2.25 -4.95 0  -2.2 -4.95 0  -2.15 -4.95 0  -2.1 -4.95 0  -2.05 -4.95 0  -2 -4.95 0  -1.95 -4.95 0  -1.9 -4.95 0  -1.85 -4.95 0  -1.8 -4.95 0  -1.75 -4.95 0  -1.7 -4.95 0  -1.65 -4.95 0  -1.6 -4.95 0  -1.55 -4.95 0  -1.5 -4.95 0  -1.45 -4.95 0  -1.4 -4.95 0  -1.35 -4.95 0  -1.3 -4.95 0  -1.25 -4.95 0  -1.2 -4.95 0  -1.15 -4.95 0  -1.1 -4.95 0  -1.05 -4.95 0  -1 -4.95 0  -0.9500000000000002 -4.95 0  -0.9000000000000004 -4.95 0  -0.8499999999999996 -4.95 0  -0.7999999999999998 -4.95 0  -0.75 -4.95 0  -0.7000000000000002 -4.95 0  -0.6500000000000004 -4.95 0  -0.5999999999999996 -4.95 0  -0.5499999999999998 -4.95 0  -0.5 -4.95 0  -0.4500000000000002 -4.95 0  -0.4000000000000004 -4.95 0  -0.3499999999999996 -4.95 0  -0.2999999999999998 -4.95 0  -0.25 -4.95 0  -0.2000000000000002 -4.95 0  -0.1500000000000004 -4.95 0  -0.09999999999999964 -4.95 0  -0.04999999999999982 -4.95 0  0 -4.95 0  0.04999999999999982 -4.95 0  0.09999999999999964 -4.95 0  0.1500000000000004 -4.95 0  0.2000000000000002 -4.95 0  0.25 -4.95 0  0.2999999999999998 -4.95 0  0.3499999999999996 -4.95 0  0.4000000000000004 -4.95 0  0.4500000000000002 -4.95 0  0.5 -4.95 0  0.5499999999999998 -4.95 0  0.5999999999999996 -4.95 0  0.6500000000000004 -4.95 0  0.7000000000000002 -4.95 0  0.75 -4.95 0  0.7999999999999998 -4.95 0  0.8499999999999996 -4.95 0  0.9000000000000004 -4.95 0  0.9500000000000002 -4.95 0  1 -4.95 0  1.05 -4.95 0  1.1 -4.95 0  1.15 -4.95 0  1.2 -4.95 0  1.25 -4.95 0  1.3 -4.95 0  1.35 -4.95 0  1.4 -4.95 0  1.45 -4.95 0  1.5 -4.95 0  1.55 -4.95 0  1.6 -4.95 0  1.65 -4.95 0  1.7 -4.95 0  1.75 -4.95 0  1.8 -4.95 0  1.85 -4.95 0  1.9 -4.95 0  1.95 -4.95 0  2 -4.95 0  2.05 -4.95 0  2.1 -4.95 0  2.15 -4.95 0  2.2 -4.95 0  2.25 -4.95 0  2.3 -4.95 0  2.35 -4.95 0  2.4 -4.95 0  2.45 -4.95 0  2.5 -4.95 0  2.55 -4.95 0  2.6 -4.95 0  2.65 -4.95 0  2.7 -4.95 0  2.75 -4.95 0  2.8 -4.95 0  2.85 -4.95 0  2.9 -4.95 0  2.95 -4.95 0  3 -4.95 0  3.050000000000001 -4.95 0  3.1 -4.95 0  3.15 -4.95 0  3.199999999999999 -4.95 0  3.25 -4.95 0  3.300000000000001 -4.95 0  3.35 -4.95 0  3.4 -4.95 0  3.449999999999999 -4.95 0  3.5 -4.95 0  3.550000000000001 -4.95 0  3.6 -4.95 0  3.65 -4.95 0  3.699999999999999 -4.95 0  3.75 -4.95 0  3.800000000000001 -4.95 0  3.85 -4.95 0  3.9 -4.95 0  3.949999999999999 -4.95 0  4 -4.95 0  4.050000000000001 -4.95 0  4.1 -4.95 0  4.15 -4.95 0  4.199999999999999 -4.95 0  4.25 -4.95 0  4.300000000000001 -4.95 0  4.35 -4.95 0  4.4 -4.95 0  4.449999999999999 -4.95 0  4.5 -4.95 0  4.550000000000001 -4.95 0  4.6 -4.95 0  4.65 -4.95 0  4.699999999999999 -4.95 0  4.75 -4.95 0  4.800000000000001 -4.95 0  4.85 -4.95 0  4.9 -4.95 0  4.949999999999999 -4.95 0  5 -4.95 0  -5 -4.9 0  -4.95 -4.9 0  -4.9 -4.9 0  -4.85 -4.9 0  -4.8 -4.9 0  -4.75 -4.9 0  -4.7 -4.9 0  -4.65 -4.9 0  -4.6 -4.9 0  -4.55 -4.9 0  -4.5 -4.9 0  -4.45 -4.9 0  -4.4 -4.9 0  -4.35 -4.9 0  -4.3 -4.9 0  -4.25 -4.9 0  -4.2 -4.9 0  -4.15 -4.9 0  -4.1 -4.9 0  -4.05 -4.9 0  -4 -4.9 0  -3.95 -4.9 0  -3.9 -4.9 0  -3.85 -4.9 0  -3.8 -4.9 0  -3.75 -4.9 0  -3.7 -4.9 0  -3.65 -4.9 0  -3.6 -4.9 0  -3.55 -4.9 0  -3.5 -4.9 0  -3.45 -4.9 0  -3.4 -4.9 0  -3.35 -4.9 0  -3.3 -4.9 0  -3.25 -4.9 0  -3.2 -4.9 0  -3.15 -4.9 0  -3.1 -4.9 0  -3.05 -4.9 0  -3 -4.9 0  -2.95 -4.9 0  -2.9 -4.9 0  -2.85 -4.9 0  -2.8 -4.9 0  -2.75 -4.9 0  -2.7 -4.9 0  -2.65 -4.9 0  -2.6 -4.9 0  -2.55 -4.9 0  -2.5 -4.9 0  -2.45 -4.9 0  -2.4 -4.9 0  -2.35 -4.9 0  -2.3 -4.9 0  -2.25 -4.9 0  -2.2 -4.9 0  -2.15 -4.9 0  -2.1 -4.9 0  -2.05 -4.9 0  -2 -4.9 0  -1.95 -4.9 0  -1.9 -4.9 0  -1.85 -4.9 0  -1.8 -4.9 0  -1.75 -4.9 0  -1.7 -4.9 0  -1.65 -4.9 0  -1.6 -4.9 0  -1.55 -4.9 0  -1.5 -4.9 0  -1.45 -4.9 0  -1.4 -4.9 0  -1.35 -4.9 0  -1.3 -4.9 0  -1.25 -4.9 0  -1.2 -4.9 0  -1.15 -4.9 0  -1.1 -4.9 0  -1.05 -4.9 0  -1 -4.9 0  -0.9500000000000002 -4.9 0  -0.9000000000000004 -4.9 0  -0.8499999999999996 -4.9 0  -0.7999999999999998 -4.9 0  -0.75 -4.9 0  -0.7000000000000002 -4.9 0  -0.6500000000000004 -4.9 0  -0.5999999999999996 -4.9 0  -0.5499999999999998 -4.9 0  -0.5 -4.9 0  -0.4500000000000002 -4.9 0  -0.4000000000000004 -4.9 0  -0.3499999999999996 -4.9 0  -0.2999999999999998 -4.9 0  -0.25 -4.9 0  -0.2000000000000002 -4.9 0  -0.1500000000000004 -4.9 0  -0.09999999999999964 -4.9 0  -0.04999999999999982 -4.9 0  0 -4.9 0  0.04999999999999982 -4.9 0  0.09999999999999964 -4.9 0  0.1500000000000004 -4.9 0  0.2000000000000002 -4.9 0  0.25 -4.9 0  0.2999999999999998 -4.9 0  0.3499999999999996 -4.9 0  0.4000000000000004 -4.9 0  0.4500000000000002 -4.9 0  0.5 -4.9 0  0.5499999999999998 -4.9 0  0.5999999999999996 -4.9 0  0.6500000000000004 -4.9 0  0.7000000000000002 -4.9 0  0.75 -4.9 0  0.7999999999999998 -4.9 0  0.8499999999999996 -4.9 0  0.9000000000000004 -4.9 0  0.9500000000000002 -4.9 0  1 -4.9 0  1.05 -4.9 0  1.1 -4.9 0  1.15 -4.9 0  1.2 -4.9 0  1.25 -4.9 0  1.3 -4.9 0  1.35 -4.9 0  1.4 -4.9 0  1.45 -4.9 0  1.5 -4.9 0  1.55 -4.9 0  1.6 -4.9 0  1.65 -4.9 0  1.7 -4.9 0  1.75 -4.9 0  1.8 -4.9 0  1.85 -4.9 0  1.9 -4.9 0  1.95 -4.9 0  2 -4.9 0  2.05 -4.9 0  2.1 -4.9 0  2.15 -4.9 0  2.2 -4.9 0  2.25 -4.9 0  2.3 -4.9 0  2.35 -4.9 0  2.4 -4.9 0  2.45 -4.9 0  2.5 -4.9 0  2.55 -4.9 0  2.6 -4.9 0  2.65 -4.9 0  2.7 -4.9 0  2.75 -4.9 0  2.8 -4.9 0  2.85 -4.9 0  2.9 -4.9 0  2.95 -4.9 0  3 -4.9 0  3.050000000000001 -4.9 0  3.1 -4.9 0  3.15 -4.9 0  3.199999999999999 -4.9 0  3.25 -4.9 0  3.300000000000001 -4.9 0  3.35 -4.9 0  3.4 -4.9 0  3.449999999999999 -4.9 0  3.5 -4.9 0  3.550000000000001 -4.9 0  3.6 -4.9 0  3.65 -4.9 0  3.699999999999999 -4.9 0  3.75 -4.9 0  3.800000000000001 -4.9 0  3.85 -4.9 0  3.9 -4.9 0  3.949999999999999 -4.9 0  4 -4.9 0  4.050000000000001 -4.9 0  4.1 -4.9 0  4.15 -4.9 0  4.199999999999999 -4.9 0  4.25 -4.9 0  4.300000000000001 -4.9 0  4.35 -4.9 0  4.4 -4.9 0  4.449999999999999 -4.9 0  4.5 -4.9 0  4.550000000000001 -4.9 0  4.6 -4.9 0  4.65 -4.9 0  4.699999999999999 -4.9 0  4.75 -4.9 0  4.800000000000001 -4.9 0  4.85 -4.9 0  4.9 -4.9 0  4.949999999999999 -4.9 0  5 -4.9 0  -5 -4.85 0  -4.95 -4.85 0  -4.9 -4.85 0  -4.85 -4.85 0  -4.8 -4.85 0  -4.75 -4.85 0  -4.7 -4.85 0  -4.65 -4.85 0  -4.6 -4.85 0  -4.55 -4.85 0  -4.5 -4.85 0  
[...]
<PointData  Scalars="r"> 
<DataArray  type="Float64"  Name="r"  format="ascii">1.0000006232509280e+00  9.9999947216374097e-01  1.0000002746652095e+00  9.9999987736382290e-01  1.0000006290000876e+00  1.0000014527128958e+00  1.0000048273541446e+00  1.0000071757760902e+00  1.0000070038662283e+00  9.9998683743617733e-01  9.9992323608966571e-01  9.9978889259706005e-01  9.9960445503959383e-01  9.9955054683030153e-01  1.0001812362260520e+00  1.0026867422574213e+00  1.0090147139875645e+00  1.0214436586498044e+00  1.0412330630329274e+00  1.0667366024801146e+00  1.0927041450906034e+00  1.1124697115805020e+00  1.1219647880608870e+00  1.1217213504275236e+00  1.1154078087415755e+00  1.1072711630122678e+00  1.1004116767528500e+00  1.0960139619556508e+00  1.0935126665652348e+00  1.0914933548705759e+00  1.0887157342923786e+00  1.0846492811742865e+00  1.0794921270227646e+00  1.0738499214150139e+00  1.0683560044222578e+00  1.0634092325670104e+00  1.0590929773857352e+00  1.0552450778039038e+00  1.0516285148118214e+00  1.0480441902399562e+00  1.0444105512855197e+00  1.0407428004107708e+00  1.0371089169374972e+00  1.0335743508632622e+00  1.0301691418326679e+00  1.0268827104363647e+00  1.0236820235543358e+00  1.0205247614562591e+00  1.0173903156577098e+00  1.0142732356627771e+00  1.0111889619786243e+00  1.0081616904606261e+00  1.0052114919651858e+00  1.0023505104403649e+00  9.9958002854541772e-01  9.9688937825180068e-01  9.9426905455594972e-01  9.9170513202454902e-01  9.8919381072932144e-01  9.8673553280552695e-01  9.8433406469310947e-01  9.8200084205315030e-01  9.7974259576044020e-01  9.7756631032032693e-01  9.7547676997451793e-01  9.7347170365305258e-01  9.7154892319785568e-01  9.6970343292768735e-01  9.6792831810101621e-01  9.6622068075355461e-01  9.6457457847789763e-01  9.6298998498972954e-01  9.6146549461136555e-01  9.6000060218781635e-01  9.5859847538276832e-01  9.5725824212154753e-01  9.5598011775538383e-01  9.5476810624695463e-01  9.5361584305519231e-01  9.5252687762186772e-01  9.5149819928955603e-01  9.5052549036163803e-01  9.4961101562058936e-01  9.4875038976678439e-01  9.4794118036864317e-01  9.4718599548945903e-01  9.4647939419113936e-01  9.4582330661043623e-01  9.4521812597538690e-01  9.4466016638603290e-01  9.4415332411070951e-01  9.4369577186878439e-01  9.4328599658028189e-01  9.4292733859024958e-01  9.4261622115028831e-01  9.4235390278766107e-01  9.4214095505190076e-01  9.4197553328852113e-01  9.4185816138253053e-01  9.4178887416023660e-01  9.4176610902227786e-01  9.4179183988695769e-01  9.4186247525402977e-01  9.4198175183411903e-01  9.4214706403464854e-01  9.4235890557662261e-01  9.4261761877905903e-01  9.4292446957671672e-01  9.4327448057552021e-01  9.4367540049648080e-01  9.4411958835364929e-01  9.4461313833321880e-01  9.4515149498906348e-01  9.4574179846254502e-01  9.4637585632595123e-01  9.4706618574677870e-01  9.4780112894238966e-01  9.4859851471673295e-01  9.4944195624470784e-01  9.5035468462376160e-01  9.5131759072436939e-01  9.5235642491544026e-01  9.5344557455773449e-01  9.5461981992829914e-01  9.5583890248827974e-01  9.5714592829714906e-01  9.5849160961834912e-01  9.5992321795605540e-01  9.6138143215034078e-01  9.6292795757884164e-01  9.6449077700850183e-01  9.6614998215735848e-01  9.6782590356583142e-01  9.6961601028826250e-01  9.7143160924639738e-01  9.7338366915670893e-01  9.7536518717696941e-01  9.7749453193684810e-01  9.7963841635321935e-01  9.8191721752326189e-01  9.8417892568039056e-01  9.8655370036567025e-01  9.8888979950532652e-01  9.9134643610280482e-01  9.9378635096906176e-01  9.9639660360323989e-01  9.9904308484888071e-01  1.0019004523423798e+00  1.0048011644087078e+00  1.0078717954246990e+00  1.0109064896070288e+00  1.0140150932248875e+00  1.0170293695937280e+00  1.0201214902175264e+00  1.0232241372356878e+00  1.0265559576599661e+00  1.0300515515164592e+00  1.0338126108571810e+00  1.0376283975726759e+00  1.0414481971938041e+00  1.0450681466169924e+00  1.0485830332258532e+00  1.0520943152550528e+00  1.0559246245820995e+00  1.0601999508088586e+00  1.0649099492277072e+00  1.0696706757997749e+00  1.0740534580555829e+00  1.0777879627750591e+00  1.0812134787848662e+00  1.0852008161646816e+00  1.0906099072444413e+00  1.0971804961975424e+00  1.1031405461456762e+00  1.1065377253339597e+00  1.1078532332231197e+00  1.1105770171722011e+00  1.1171759635264045e+00  1.1234906687518649e+00  1.1194276067023283e+00  1.0986091235895530e+00  1.0667031554796660e+00  1.0365080771347417e+00  1.0162582677973684e+00  1.0059428726855950e+00  1.0017691409152634e+00  1.0004031859040898e+00  1.0000518707191333e+00  9.9999146915303128e-01  9.9999179014217920e-01  9.9999711259719504e-01  9.9999924861842482e-01  1.0000000006213812e+00  1.0000001633597280e+00  9.9999981591931741e-01  1.0000000866570706e+00  1.0000002023048677e+00  9.9999965664583679e-01  1.0000001831633338e+00  1.0000002077758590e+00  9.9999956404154122e-01  9.9999947216374130e-01  9.9999986583907263e-01  9.9999997264810780e-01  9.9999966066517598e-01  1.0000002379883524e+00  1.0000018173236527e+00  1.0000039185937131e+00  1.0000056254854941e+00  9.9999852130098332e-01  9.9996751316002996e-01  9.9989268931004927e-01  9.9976938011094729e-01  9.9967414733389448e-01  9.9989438197454117e-01  1.0011199948962417e+00  1.0045993719771396e+00  1.0120377794193123e+00  1.0249880453332141e+00  1.0437888824288861e+00  1.0666254695701163e+00  1.0894663346884090e+00  1.1073817417757277e+00  1.1169405641650521e+00  1.1180942969105960e+00  1.1137517438521389e+00  1.1074854671621910e+00  1.1016958023814869e+00  1.0972721126859799e+00  1.0940022440459829e+00  1.0911091979119154e+00  1.0878022288086051e+00  1.0836945998757295e+00  1.0788833621428184e+00  1.0737396236822103e+00  1.0686570582898489e+00  1.0638889550650981e+00  1.0595080645833370e+00  1.0554620567701656e+00  1.0516380436409094e+00  1.0479307312696216e+00  1.0442812952865625e+00  1.0406734433821307e+00  1.0371229260537864e+00  1.0336480966425774e+00  1.0302586777766345e+00  1.0269510825917010e+00  1.0237104915171300e+00  1.0205244436325642e+00  1.0173842941207050e+00  1.0142871424174986e+00  1.0112401951274324e+00  1.0082488634635813e+00  1.0053209613796874e+00  1.0024613683609507e+00  9.9967062766338166e-01  9.9694933510371053e-01  9.9429554669375042e-01  9.9170797228577701e-01  9.8918829911677042e-01  9.8673516869343891e-01  9.8435329189613130e-01  9.8204391046395956e-01  9.7980853285026370e-01  9.7765035884990381e-01  9.7556776721631111e-01  9.7356072912216829e-01  9.7162877218603094e-01  9.6976858499689544e-01  9.6798031046508570e-01  9.6626095573554260e-01  9.6460983756836671e-01  9.6302615441328387e-01  9.6150724452476455e-01  9.6005445182561289e-01  9.5866521160555507e-01  9.5733800945162617e-01  9.5607458226256026e-01  9.5486969898745022e-01  9.5372424861374994e-01  9.5263825078193021e-01  9.5160641218968334e-01  9.5063238860558152e-01  9.4971302311175754e-01  9.4884599206653408e-01  9.4803470701549841e-01  9.4727493439539678e-01  9.4656735987696905e-01  9.4591369778783407e-01  9.4530955818618190e-01  9.4475797204738288e-01  9.4425756635056768e-01  9.4380561830594711e-01  9.4340508109408450e-01  9.4305292983169686e-01  9.4274854529684982e-01  9.4249360917787617e-01  9.4228454691808605e-01  9.4212250994312929e-01  9.4200679313819691e-01  9.4193642270663214e-01  9.4191181659631817e-01  9.4193208437446241e-01  9.4199765053987405e-01  9.4210953638339112e-01  9.4226491626295172e-01  9.4246812444544958e-01  9.4271686619443917e-01  9.4301211577810196e-01  9.4335616481549001e-01  9.4374986701412522e-01  9.4419120379895660e-01  9.4468693533973203e-01  9.4523254446834482e-01  9.4583313117802137e-01  9.4648597152369729e-01  9.4719602878220055e-01  9.4795838194096638e-01  9.4877925482514924e-01  9.4965076681236837e-01  9.5058266231741528e-01  9.5156156800670844e-01  9.5260053917664722e-01  9.5368608915852093e-01  9.5483169582938654e-01  9.5602268873212437e-01  9.5728184636309954e-01  9.5858714376693943e-01  9.5997033395674225e-01  9.6140731875498830e-01  9.6293254235929082e-01  9.6451525644258551e-01  9.6619502821113024e-01  9.6792709097913832e-01  9.6975497094261187e-01  9.7162074048208602e-01  9.7357289361298827e-01  9.7554728420960246e-01  9.7760468490780783e-01  9.7968095459297899e-01  9.8185806915193141e-01  9.8407172059895343e-01  9.8641787440425588e-01  9.8882216911179399e-01  9.9137363979041315e-01  9.9397147580525791e-01  9.9668878991676413e-01  9.9940166027761967e-01  1.0021889853911226e+00  1.0049440603097741e+00  1.0077856721074083e+00  1.0106521033527420e+00  1.0136926153135164e+00  1.0168424125962439e+00  1.0202024192915813e+00  1.0236300669740810e+00  1.0271402157918781e+00  1.0305629010654691e+00  1.0339523155583039e+00  1.0372776151930196e+00  1.0407452740172360e+00  1.0444303347867858e+00  1.0484756784878000e+00  1.0527461830434279e+00  1.0570762328684793e+00  1.0611563020825447e+00  1.0649106244660618e+00  1.0684753169317742e+00  1.0723458834584145e+00  1.0769763951854647e+00  1.0824427271048878e+00  1.0880311452502320e+00  1.0926386247605044e+00  1.0957816064041166e+00  1.0985855896658776e+00  1.1031001070894497e+00  1.1099497640328766e+00  1.1165140366285127e+00  1.1184288458323790e+00  1.1133284631419720e+00  1.1021985037389437e+00  1.0866152851435043e+00  1.0669941743223978e+00  1.0451286284833403e+00  1.0255133713930207e+00  1.0119210343293947e+00  1.0045988638457295e+00  1.0014586270508654e+00  1.0003669603711252e+00  1.0000628061053924e+00  1.0000008279674513e+00  9.9999538847475389e-01  9.9999795265304703e-01  9.9999959073656730e-01  9.9999978155728220e-01  1.0000000695006701e+00  1.0000001740010847e+00  9.9999970791233861e-01  1.0000001298725947e+00  1.0000001918471826e+00  9.9999960547676536e-01  1.0000002077758592e+00  1.0000002746652115e+00  9.9999997264810903e-01  1.0000001536625358e+00  1.0000003889249631e+00  1.0000026197376364e+00  1.0000037006153200e+00  1.0000045709933316e+00  9.9999433932850912e-01  9.9996162317021797e-01  9.9988948659372134e-01  9.9978866840895675e-01  9.9976068640876103e-01  1.0001298323397105e+00  1.0016001463816393e+00  1.0053234657886738e+00  1.0126172427390745e+00  1.0241689360321320e+00  1.0390870555456981e+00  1.0548145240774471e+00  1.0685448555366908e+00  1.0791639263748092e+00  1.0875865430902285e+00  1.0950022071900278e+00  1.1012758104550562e+00  1.1054047642409921e+00  1.1067921866906305e+00  1.1054765013540282e+00  1.1017837957013741e+00  1.0964211958481767e+00  1.0905026033945833e+00  1.0850591171310071e+00  1.0805289047929996e+00  1.0767376805857483e+00  1.0732186946977071e+00  1.0695408541954328e+00  1.0654806008013791e+00  1.0610710408043100e+00  1.0565173932178207e+00  1.0520766938462878e+00  1.0479309779116024e+00  1.0441316183773117e+00  1.0406081392448960e+00  1.0372358151889516e+00  1.0338983503476968e+00  1.0305365677096723e+00  1.0271475395304062e+00  1.0237749468211228e+00  1.0204689420383632e+00  1.0172677189692692e+00  1.0141836236380259e+00  1.0112041082986061e+00  1.0083023088394516e+00  1.0054533327068191e+00  1.0026386463089016e+00  9.9985735283009636e-01  9.9711764955114157e-01  9.9443715756932338e-01  9.9183213564788297e-01  9.8931416499401181e-01  9.8688817257841543e-01  9.8455125117780273e-01  9.8229460029789906e-01  9.8011008916965614e-01  9.7798820747621906e-01  9.7592409161951554e-01  9.7391785427037059e-01  9.7197043440049369e-01  9.7008796908308770e-01  9.6827466279135777e-01  9.6653541839782919e-01  9.6487307682981638e-01  9.6328702544640743e-01  9.6177705037242878e-01  9.6033916175996770e-01  9.5896804652363643e-01  9.5766254654544047e-01  9.5641467487086218e-01  9.5522407655688479e-01  9.5408896677484034e-01  9.5300584613393180e-01  9.5197683580053327e-01  9.5100214941254413e-01  9.5007939000271968e-01  9.4921393241454832e-01  9.4840270811992511e-01  9.4764668301400989e-01  9.4694785518738767e-01  9.4630236735188134e-01  9.4571182247515251e-01  9.4517517265328332e-01  9.4468875451822021e-01  9.4425460656746696e-01  9.4386939548121462e-01  9.4353158458030839e-01  9.4324183824240226e-01  9.4299721882547582e-01  9.4279728636193560e-01  9.4264287064805574e-01  9.4253119762324966e-01  9.4246427901916763e-01  9.4243972769360262e-01  9.4245980184613465e-01  9.4252293960213274e-01  9.4263004519170901e-01  9.4278127251101207e-01  9.4297926733107040e-01  9.4321965133515118e-01  9.4351037582375297e-01  9.4384507070640355e-01  9.4422945968024585e-01  9.4466041484411267e-01  9.4514411839611501e-01  9.4567234033601122e-01  9.4625777950048673e-01  9.4688802212482492e-01  9.4757815374331289e-01  9.4831288932599200e-01  9.4911153937496540e-01  9.4995481723987607e-01  9.5086653595862070e-01  9.5182136771213166e-01  9.5285329183782919e-01  9.5392536023951380e-01  9.5508206635844861e-01  9.5627859469053755e-01  9.5756594839320264e-01  9.5888750569510128e-01  9.6030909118436536e-01  9.6175423918170122e-01  9.6330457576227635e-01  9.6486800989157395e-01  9.6654134379619894e-01  9.6821646941003847e-01  9.7001218210700435e-01  9.7180265460919812e-01  9.7373233225492661e-01  9.7565659842614127e-01  9.7774194625194455e-01  9.7982274566766336e-01  9.8208032151021718e-01  9.8432140489812159e-01  9.8673986390666291e-01  9.8911530746294640e-01  9.9165753172591009e-01  9.9413515182159962e-01  9.9678214233169027e-01  9.9937213963498861e-01  1.0021647713335933e+00  1.0049318634611339e+00  1.0079333943418081e+00  1.0109170978232482e+00  1.0141098971094822e+00  1.0172352244559892e+00  1.0205023989188573e+00  1.0236635450727229e+00  1.0269680437572797e+00  1.0302456792187753e+00  1.0337730792237902e+00  1.0373915724168419e+00  1.0412767699456844e+00  1.0451693581318280e+00  1.0491124012776243e+00  1.0528593161027404e+00  1.0565656325051400e+00  1.0602712142261501e+00  1.0643423911976757e+00  1.0688466381538329e+00  1.0737449117187123e+00  1.0785191819735214e+00  1.0827735361838271e+00  1.0864555748779003e+00  1.0902400689712963e+00  1.0948329409394897e+00  1.1003048830204500e+00  1.1057210273050071e+00  1.1096956485290139e+00  1.1107011648712586e+00  1.1071753618713280e+00  1.0983462335164298e+00  1.0859923696164768e+00  1.0739220463429826e+00  1.0638579531532859e+00  1.0531583102583291e+00  1.0391590007128833e+00  1.0239191850678075e+00  1.0118271661493494e+00  1.0047428291171108e+00  1.0015474158557178e+00  1.0004005091594625e+00  1.0000723325738996e+00  1.0000028337930678e+00  9.9999585960686577e-01  9.9999783986685342e-01  9.9999948042042641e-01  1.0000000929305817e+00  9.9999975835558397e-01  1.0000001438895321e+00  1.0000001701968666e+00  9.9999967423278602e-01  1.0000001918471815e+00  1.0000001831633341e+00  9.9999987736382312e-01  9.9999966066517421e-01  1.0000003889249631e+00  1.0000023070237911e+00  1.0000035900965132e+00  1.0000035775327298e+00  9.9999247391577051e-01  9.9995645607870154e-01  9.9988070981342614e-01  9.9978038627282584e-01  9.9978032371389169e-01  1.0002519306203492e+00  1.0019787681388954e+00  1.0061798678027949e+00  1.0141047594341652e+00  1.0260414476831570e+00  1.0402597670491065e+00  1.0531376050244869e+00  1.0611759893468615e+00  1.0636731232675227e+00  1.0635783388090965e+00  1.0655660970906733e+00  1.0728147086639335e+00  1.0847061226195494e+00  1.0970509306357485e+00  1.1050278711015804e+00  1.1064952697657737e+00  1.1026224372859548e+00  1.0960345657254116e+00  1.0890853013670900e+00  1.0832414663126100e+00  1.0789742438581513e+00  1.0758800541930531e+00  1.0731128608274849e+00  1.0699460690932385e+00  1.0661039832239645e+00  1.0617255236354919e+00  1.0571453352749227e+00  1.0526738237374214e+00  1.0484831083830128e+00  1.0445987678813913e+00  1.0409463579267164e+00  1.0374270651074393e+00  1.0339638428316560e+00  1.0305274772279480e+00  1.0271310938039611e+00  1.0238046616227348e+00  1.0205722144459661e+00  1.0174432128605402e+00  1.0144041811039719e+00  1.0114357110430143e+00  1.0085180364711595e+00  1.0056417119960495e+00  1.0028082671520413e+00  1.0000279944450714e+00  9.9731366009853828e-01  9.9467699932072551e-01  9.9212177711126748e-01  9.8965029959284301e-01  9.8725541986533794e-01  9.8493223987594203e-01  9.8267460950450891e-01  9.8047933281779109e-01  9.7834588861527461e-01  9.7627728844667039e-01  9.7427557685688582e-01  9.7234544910002474e-01  9.7048830603127723e-01  9.6870582351384860e-01  9.6699730333514700e-01  9.6536022162559221e-01  9.6379296385945190e-01  9.6229207117794957e-01  9.6085399385248405e-01  9.5947940047463309e-01  9.5816397970471234e-01  9.5690892728495380e-01  9.5571523464977870e-01  9.5457987561669422e-01  9.5350624650273552e-01  9.5249338630416835e-01  9.5153972088261141e-01  9.5064752251843132e-01  9.4981423255225361e-01  9.4903789005422978e-01  9.4832011526975724e-01  9.4765592945956523e-01  9.4704599563480485e-01  9.4648880607977859e-01  9.4598085774451202e-01  9.4552318747060060e-01  9.4511319174129982e-01  9.4474866642682875e-01  9.4443082458328775e-01  9.4415634675657090e-01  9.4392558374296787e-01  9.4373792214766494e-01  9.4359212207130050e-01  9.4348771330240833e-01  9.4342508351656940e-01  9.4340285346153396e-01  9.4342319901429572e-01  9.4348281502226894e-01  9.4358664273515114e-01  9.4373120833017898e-01  9.4391929735627111e-01  9.4415006413161850e-01  9.4442724228753216e-01  9.4474507295722476e-01  9.4511383452312792e-01  9.4552425420895336e-01  9.4598592824829431e-01  9.4649114948402757e-01  9.4705098351692718e-01  9.4765282978103360e-01  9.4831364744432611e-01  9.4901641702940165e-01  9.4978373092356561e-01  9.5059278198344566e-01  9.5147331365656873e-01  9.5239751823271690e-01  9.5340080155976414e-01  9.5444687985679699e-01  9.5558338681173194e-01  9.5675764037782074e-01  9.5803026226403043e-01  9.5933504712386919e-01  9.6074286427974187e-01  9.6217046988238797e-01  9.6370881227087823e-01  9.6525219404142359e-01  9.6691589166203185e-01  9.6857498281740462e-01  9.7037076367260899e-01  9.7215729271311546e-01  9.7410385010018885e-01  9.7603613464039551e-01  9.7814994122021226e-01  9.8023527215866535e-01  9.8250939590842779e-01  9.8472748419468414e-01  9.8713064633589509e-01  9.8944760623089034e-01  9.9195632888156826e-01  9.9437173706838933e-01  9.9701370496065223e-01  9.9958647676493995e-01  1.0024309781563181e+00  1.0052217295140593e+00  1.0082888005607493e+00  1.0112608742725739e+00  1.0144531771618530e+00  1.0174858097281894e+00  1.0207023992442388e+00  1.0237813691243307e+00  1.0271191181171022e+00  1.0304391551949352e+00  1.0341041330360947e+00  1.0377728774647546e+00  1.0416702880876716e+00  1.0453970600471041e+00  1.0491626355940622e+00  1.0527437899434520e+00  1.0565295814193929e+00  1.0604764890621536e+00  1.0648766783575627e+00  1.0694440028245307e+00  1.0740910138812005e+00  1.0784041252631869e+00  1.0823915942547446e+00  1.0860745493184119e+00  1.0899817391765785e+00  1.0945974799940537e+00  1.1000023227524949e+00  1.1045869181014731e+00  1.1052294151008117e+00  1.0992345166007740e+00  1.0873791559114108e+00  1.0740706701200839e+00  1.0641653087008345e+00  1.0596706145354693e+00  1.0593444717108684e+00  1.0594166452776763e+00  1.0548035633521133e+00  1.0429614941486645e+00  1.0272809702630885e+00  1.0138377807941732e+00  1.0056436884260609e+00  1.0018632759499990e+00  1.0004878719988719e+00  1.0000905671206477e+00  1.0000048300062545e+00  9.9999546094246849e-01  9.9999786211808006e-01  9.9999917551958029e-01  1.0000000312724693e+00  1.0000001542202210e+00  9.9999971097451190e-01  1.0000001701968670e+00  1.0000001298725953e+00  9.9999965664583801e-01  1.0000006290000871e+00  1.0000002379883515e+00  1.0000026197376368e+00  1.0000035900965127e+00  1.0000039591485219e+00  9.9999239903517989e-01  9.9995537269697332e-01  9.9987649113804833e-01  9.9977503056773120e-01  9.9978839696862942e-01  1.0003257452373429e+00  1.0022380092138605e+00  1.0068274536947950e+00  1.0153585859886247e+00  1.0279486086095444e+00  1.0424742827248090e+00  1.0548746218040947e+00  1.0614310811765966e+00  1.0614173671830738e+00  1.0575814039841205e+00  1.0540885914159657e+00  1.0540821983571667e+00  1.0586955685633910e+00  1.0673269347268675e+00  1.0780393392516399e+00  1.0879125655114212e+00  1