<?xml version="1.0"?>
<VTKFile type="UnstructuredGrid"  version="0.1"  >
<UnstructuredGrid>
<Piece  NumberOfPoints="40401" NumberOfCells="80000">
<Points>
<DataArray  type="Float64"  NumberOfComponents="3"  format="ascii">-5 -5 0  -4.95 -5 0  -4.9 -5 0  -4.85 -5 0  -4.8 -5 0  -4.75 -5 0  -4.7 -5 0  -4.65 -5 0  -4.6 -5 0  -4.55 -5 0  -4.5 -5 0  -4.45 -5 0  -4.4 -5 0  -4.35 -5 0  -4.3 -5 0  -4.25 -5 0  -4.2 -5 0  -4.15 -5 0  -4.1 -5 0  -4.05 -5 0  -4 -5 0  -3.95 -5 0  -3.9 -5 0  -3.85 -5 0  -3.8 -5 0  -3.75 -5 0  -3.7 -5 0  -3.65 -5 0  -3.6 -5 0  -3.55 -5 0  -3.5 -5 0  -3.45 -5 0  -3.4 -5 0  -3.35 -5 0  -3.3 -5 0  -3.25 -5 0  -3.2 -5 0  -3.15 -5 0  -3.1 -5 0  -3.05 -5 0  -3 -5 0  -2.95 -5 0  -2.9 -5 0  -2.85 -5 0  -2.8 -5 0  -2.75 -5 0  -2.7 -5 0  -2.65 -5 0  -2.6 -5 0  -2.55 -5 0  -2.5 -5 0  -2.45 -5 0  -2.4 -5 0  -2.35 -5 0  -2.3 -5 0  -2.25 -5 0  -2.2 -5 0  -2.15 -5 0  -2.1 -5 0  -2.05 -5 0  -2 -5 0  -1.95 -5 0  -1.9 -5 0  -1.85 -5 0  -1.8 -5 0  -1.75 -5 0  -1.7 -5 0  -1.65 -5 0  -1.6 -5 0  -1.55 -5 0  -1.5 -5 0  -1.45 -5 0  -1.4 -5 0  -1.35 -5 0  -1.3 -5 0  -1.25 -5 0  -1.2 -5 0  -1.15 -5 0  -1.1 -5 0  -1.05 -5 0  -1 -5 0  -0.9500000000000002 -5 0  -0.9000000000000004 -5 0  -0.8499999999999996 -5 0  -0.7999999999999998 -5 0  -0.75 -5 0  -0.7000000000000002 -5 0  -0.6500000000000004 -5 0  -0.5999999999999996 -5 0  -0.5499999999999998 -5 0  -0.5 -5 0  -0.4500000000000002 -5 0  -0.4000000000000004 -5 0  -0.3499999999999996 -5 0  -0.2999999999999998 -5 0  -0.25 -5 0  -0.2000000000000002 -5 0  -0.1500000000000004 -5 0  -0.09999999999999964 -5 0  -0.04999999999999982 -5 0  0 -5 0  0.04999999999999982 -5 0  0.09999999999999964 -5 0  0.1500000000000004 -5 0  0.2000000000000002 -5 0  0.25 -5 0  0.2999999999999998 -5 0  0.3499999999999996 -5 0  0.4000000000000004 -5 0  0.4500000000000002 -5 0  0.5 -5 0  0.5499999999999998 -5 0  0.5999999999999996 -5 0  0.6500000000000004 -5 0  0.7000000000000002 -5 0  0.75 -5 0  0.7999999999999998 -5 0  0.8499999999999996 -5 0  0.9000000000000004 -5 0  0.9500000000000002 -5 0  1 -5 0  1.05 -5 0  1.1 -5 0  1.15 -5 0  1.2 -5 0  1.25 -5 0  1.3 -5 0  1.35 -5 0  1.4 -5 0  1.45 -5 0  1.5 -5 0  1.55 -5 0  1.6 -5 0  1.65 -5 0  1.7 -5 0  1.75 -5 0  1.8 -5 0  1.85 -5 0  1.9 -5 0  1.95 -5 0  2 -5 0  2.05 -5 0  2.1 -5 0  2.15 -5 0  2.2 -5 0  2.25 -5 0  2.3 -5 0  2.35 -5 0  2.4 -5 0  2.45 -5 0  2.5 -5 0  2.55 -5 0  2.6 -5 0  2.65 -5 0  2.7 -5 0  2.75 -5 0  2.8 -5 0  2.85 -5 0  2.9 -5 0  2.95 -5 0  3 -5 0  3.050000000000001 -5 0  3.1 -5 0  3.15 -5 0  3.199999999999999 -5 0  3.25 -5 0  3.300000000000001 -5 0  3.35 -5 0  3.4 -5 0  3.449999999999999 -5 0  3.5 -5 0  3.550000000000001 -5 0  3.6 -5 0  3.65 -5 0  3.699999999999999 -5 0  3.75 -5 0  3.800000000000001 -5 0  3.85 -5 0  3.9 -5 0  3.949999999999999 -5 0  4 -5 0  4.050000000000001 -5 0  4.1 -5 0  4.15 -5 0  4.199999999999999 -5 0  4.25 -5 0  4.300000000000001 -5 0  4.35 -5 0  4.4 -5 0  4.449999999999999 -5 0  4.5 -5 0  4.550000000000001 -5 0  4.6 -5 0  4.65 -5 0  4.699999999999999 -5 0  4.75 -5 0  4.800000000000001 -5 0  4.85 -5 0  4.9 -5 0  4.949999999999999 -5 0  5 -5 0  -5 -4.95 0  -4.95 -4.95 0  -4.9 -4.95 0  -4.85 -4.95 0  -4.8 -4.95 0  -4.75 -4.95 0  -4.7 -4.95 0  -4.65 -4.95 0  -4.6 -4.95 0  -4.55 -4.95 0  -4.5 -4.95 0  -4.45 -4.95 0  -4.4 -4.95 0  -4.35 -4.95 0  -4.3 -4.95 0  -4.25 -4.95 0  -4.2 -4.95 0  -4.15 -4.95 0  -4.1 -4.95 0  -4.05 -4.95 0  -4 -4.95 0  -3.95 -4.95 0  -3.9 -4.95 0  -3.85 -4.95 0  -3.8 -4.95 0  -3.75 -4.95 0  -3.7 -4.95 0  -3.65 -4.95 0  -3.6 -4.95 0  -3.55 -4.95 0  -3.5 -4.95 0  -3.45 -4.95 0  -3.4 -4.95 0  -3.35 -4.95 0  -3.3 -4.95 0  -3.25 -4.95 0  -3.2 -4.95 0  -3.15 -4.95 0  -3.1 -4.95 0  -3.05 -4.95 0  -3 -4.95 0  -2.95 -4.95 0  -2.9 -4.95 0  -2.85 -4.95 0  -2.8 -4.95 0  -2.75 -4.95 0  -2.7 -4.95 0  -2.65 -4.95 0  -2.6 -4.95 0  -2.55 -4.95 0  -2.5 -4.95 0  -2.45 -4.95 0  -2.4 -4.95 0  -2.35 -4.95 0  -2.3 -4.95 0  -2.25 -4.95 0  -2.2 -4.95 0  -2.15 -4.95 0  -2.1 -4.95 0  -2.05 -4.95 0  -2 -4.95 0  -1.95 -4.95 0  -1.9 -4.95 0  -1.85 -4.95 0  -1.8 -4.95 0  -1.75 -4.95 0  -1.7 -4.95 0  -1.65 -4.95 0  -1.6 -4.95 0  -1.55 -4.95 0  -1.5 -4.95 0  -1.45 -4.95 0  -1.4 -4.95 0  -1.35 -4.95 0  -1.3 -4.95 0  -1.25 -4.95 0  -1.2 -4.95 0  -1.15 -4.95 0  -1.1 -4.95 0  -1.05 -4.95 0  -1 -4.95 0  -0.9500000000000002 -4.95 0  -0.9000000000000004 -4.95 0  -0.8499999999999996 -4.95 0  -0.7999999999999998 -4.95 0  -0.75 -4.95 0  -0.7000000000000002 -4.95 0  -0.6500000000000004 -4.95 0  -0.5999999999999996 -4.95 0  -0.5499999999999998 -4.95 0  -0.5 -4.95 0  -0.4500000000000002 -4.95 0  -0.4000000000000004 -4.95 0  -0.3499999999999996 -4.95 0  -0.2999999999999998 -4.95 0  -0.25 -4.95 0  -0.2000000000000002 -4.95 0  -0.1500000000000004 -4.95 0  -0.09999999999999964 -4.95 0  -0.04999999999999982 -4.95 0  0 -4.95 0  0.04999999999999982 -4.95 0  0.09999999999999964 -4.95 0  0.1500000000000004 -4.95 0  0.2000000000000002 -4.95 0  0.25 -4.95 0  0.2999999999999998 -4.95 0  0.3499999999999996 -4.95 0  0.4000000000000004 -4.95 0  0.4500000000000002 -4.95 0  0.5 -4.95 0  0.5499999999999998 -4.95 0  0.5999999999999996 -4.95 0  0.6500000000000004 -4.95 0  0.7000000000000002 -4.95 0  0.75 -4.95 0  0.7999999999999998 -4.95 0  0.8499999999999996 -4.95 0  0.9000000000000004 -4.95 0  0.9500000000000002 -4.95 0  1 -4.95 0  1.05 -4.95 0  1.1 -4.95 0  1.15 -4.95 0  1.2 -4.95 0  1.25 -4.95 0  1.3 -4.95 0  1.35 -4.95 0  1.4 -4.95 0  1.45 -4.95 0  1.5 -4.95 0  1.55 -4.95 0  1.6 -4.95 0  1.65 -4.95 0  1.7 -4.95 0  1.75 -4.95 0  1.8 -4.95 0  1.85 -4.95 0  1.9 -4.95 0  1.95 -4.95 0  2 -4.95 0  2.05 -4.95 0  2.1 -4.95 0  2.15 -4.95 0  2.2 -4.95 0  2.25 -4.95 0  2.3 -4.95 0  2.35 -4.95 0  2.4 -4.95 0  2.45 -4.95 0  2.5 -4.95 0  2.55 -4.95 0  2.6 -4.95 0  2.65 -4.95 0  2.7 -4.95 0  2.75 -4.95 0  2.8 -4.95 0  2.85 -4.95 0  2.9 -4.95 0  2.95 -4.95 0  3 -4.95 0  3.050000000000001 -4.95 0  3.1 -4.95 0  3.15 -4.95 0  3.199999999999999 -4.95 0  3.25 -4.95 0  3.300000000000001 -4.95 0  3.35 -4.95 0  3.4 -4.95 0  3.449999999999999 -4.95 0  3.5 -4.95 0  3.550000000000001 -4.95 0  3.6 -4.95 0  3.65 -4.95 0  3.699999999999999 -4.95 0  3.75 -4.95 0  3.800000000000001 -4.95 0  3.85 -4.95 0  3.9 -4.95 0  3.949999999999999 -4.95 0  4 -4.95 0  4.050000000000001 -4.95 0  4.1 -4.95 0  4.15 -4.95 0  4.199999999999999 -4.95 0  4.25 -4.95 0  4.300000000000001 -4.95 0  4.35 -4.95 0  4.4 -4.95 0  4.449999999999999 -4.95 0  4.5 -4.95 0  4.550000000000001 -4.95 0  4.6 -4.95 0  4.65 -4.95 0  4.699999999999999 -4.95 0  4.75 -4.95 0  4.800000000000001 -4.95 0  4.85 -4.95 0  4.9 -4.95 0  4.949999999999999 -4.95 0  5 -4.95 0  -5 -4.9 0  -4.95 -4.9 0  -4.9 -4.9 0  -4.85 -4.9 0  -4.8 -4.9 0  -4.75 -4.9 0  -4.7 -4.9 0  -4.65 -4.9 0  -4.6 -4.9 0  -4.55 -4.9 0  -4.5 -4.9 0  -4.45 -4.9 0  -4.4 -4.9 0  -4.35 -4.9 0  -4.3 -4.9 0  -4.25 -4.9 0  -4.2 -4.9 0  -4.15 -4.9 0  -4.1 -4.9 0  -4.05 -4.9 0  -4 -4.9 0  -3.95 -4.9 0  -3.9 -4.9 0  -3.85 -4.9 0  -3.8 -4.9 0  -3.75 -4.9 0  -3.7 -4.9 0  -3.65 -4.9 0  -3.6 -4.9 0  -3.55 -4.9 0  -3.5 -4.9 0  -3.45 -4.9 0  -3.4 -4.9 0  -3.35 -4.9 0  -3.3 -4.9 0  -3.25 -4.9 0  -3.2 -4.9 0  -3.15 -4.9 0  -3.1 -4.9 0  -3.05 -4.9 0  -3 -4.9 0  -2.95 -4.9 0  -2.9 -4.9 0  -2.85 -4.9 0  -2.8 -4.9 0  -2.75 -4.9 0  -2.7 -4.9 0  -2.65 -4.9 0  -2.6 -4.9 0  -2.55 -4.9 0  -2.5 -4.9 0  -2.45 -4.9 0  -2.4 -4.9 0  -2.35 -4.9 0  -2.3 -4.9 0  -2.25 -4.9 0  -2.2 -4.9 0  -2.15 -4.9 0  -2.1 -4.9 0  -2.05 -4.9 0  -2 -4.9 0  -1.95 -4.9 0  -1.9 -4.9 0  -1.85 -4.9 0  -1.8 -4.9 0  -1.75 -4.9 0  -1.7 -4.9 0  -1.65 -4.9 0  -1.6 -4.9 0  -1.55 -4.9 0  -1.5 -4.9 0  -1.45 -4.9 0  -1.4 -4.9 0  -1.35 -4.9 0  -1.3 -4.9 0  -1.25 -4.9 0  -1.2 -4.9 0  -1.15 -4.9 0  -1.1 -4.9 0  -1.05 -4.9 0  -1 -4.9 0  -0.9500000000000002 -4.9 0  -0.9000000000000004 -4.9 0  -0.8499999999999996 -4.9 0  -0.7999999999999998 -4.9 0  -0.75 -4.9 0  -0.7000000000000002 -4.9 0  -0.6500000000000004 -4.9 0  -0.5999999999999996 -4.9 0  -0.5499999999999998 -4.9 0  -0.5 -4.9 0  -0.4500000000000002 -4.9 0  -0.4000000000000004 -4.9 0  -0.3499999999999996 -4.9 0  -0.2999999999999998 -4.9 0  -0.25 -4.9 0  -0.2000000000000002 -4.9 0  -0.1500000000000004 -4.9 0  -0.09999999999999964 -4.9 0  -0.04999999999999982 -4.9 0  0 -4.9 0  0.04999999999999982 -4.9 0  0.09999999999999964 -4.9 0  0.1500000000000004 -4.9 0  0.2000000000000002 -4.9 0  0.25 -4.9 0  0.2999999999999998 -4.9 0  0.3499999999999996 -4.9 0  0.4000000000000004 -4.9 0  0.4500000000000002 -4.9 0  0.5 -4.9 0  0.5499999999999998 -4.9 0  0.5999999999999996 -4.9 0  0.6500000000000004 -4.9 0  0.7000000000000002 -4.9 0  0.75 -4.9 0  0.7999999999999998 -4.9 0  0.8499999999999996 -4.9 0  0.9000000000000004 -4.9 0  0.9500000000000002 -4.9 0  1 -4.9 0  1.05 -4.9 0  1.1 -4.9 0  1.15 -4.9 0  1.2 -4.9 0  1.25 -4.9 0  1.3 -4.9 0  1.35 -4.9 0  1.4 -4.9 0  1.45 -4.9 0  1.5 -4.9 0  1.55 -4.9 0  1.6 -4.9 0  1.65 -4.9 0  1.7 -4.9 0  1.75 -4.9 0  1.8 -4.9 0  1.85 -4.9 0  1.9 -4.9 0  1.95 -4.9 0  2 -4.9 0  2.05 -4.9 0  2.1 -4.9 0  2.15 -4.9 0  2.2 -4.9 0  2.25 -4.9 0  2.3 -4.9 0  2.35 -4.9 0  2.4 -4.9 0  2.45 -4.9 0  2.5 -4.9 0  2.55 -4.9 0  2.6 -4.9 0  2.65 -4.9 0  2.7 -4.9 0  2.75 -4.9 0  2.8 -4.9 0  2.85 -4.9 0  2.9 -4.9 0  2.95 -4.9 0  3 -4.9 0  3.050000000000001 -4.9 0  3.1 -4.9 0  3.15 -4.9 0  3.199999999999999 -4.9 0  3.25 -4.9 0  3.300000000000001 -4.9 0  3.35 -4.9 0  3.4 -4.9 0  3.449999999999999 -4.9 0  3.5 -4.9 0  3.550000000000001 -4.9 0  3.6 -4.9 0  3.65 -4.9 0  3.699999999999999 -4.9 0  3.75 -4.9 0  3.800000000000001 -4.9 0  3.85 -4.9 0  3.9 -4.9 0  3.949999999999999 -4.9 0  4 -4.9 0  4.050000000000001 -4.9 0  4.1 -4.9 0  4.15 -4.9 0  4.199999999999999 -4.9 0  4.25 -4.9 0  4.300000000000001 -4.9 0  4.35 -4.9 0  4.4 -4.9 0  4.449999999999999 -4.9 0  4.5 -4.9 0  4.550000000000001 -4.9 0  4.6 -4.9 0  4.65 -4.9 0  4.699999999999999 -4.9 0  4.75 -4.9 0  4.800000000000001 -4.9 0  4.85 -4.9 0  4.9 -4.9 0  4.949999999999999 -4.9 0  5 -4.9 0  -5 -4.85 0  -4.95 -4.85 0  -4.9 -4.85 0  -4.85 -4.85 0  -4.8 -4.85 0  -4.75 -4.85 0  -4.7 -4.85 0  -4.65 -4.85 0  -4.6 -4.85 0  -4.55 -4.85 0  -4.5 -4.85 0  
[...]
<PointData  Scalars="r"> 
<DataArray  type="Float64"  Name="r"  format="ascii">1.0000017719244041e+00  9.9999709649679769e-01  1.0000015907286288e+00  1.0000002968185260e+00  9.9999873034952291e-01  1.0000005063255724e+00  9.9999972814971883e-01  1.0000003682645011e+00  9.9999988709741972e-01  9.9999964538153974e-01  1.0000012412038037e+00  9.9999933167277544e-01  9.9999952962763006e-01  1.0000013669784651e+00  9.9999839968375193e-01  9.9999990311688192e-01  1.0000013947551667e+00  9.9999832132353295e-01  1.0000000869774588e+00  1.0000014039172906e+00  9.9999842077332490e-01  9.9999986331009683e-01  1.0000007716041830e+00  9.9999918626954054e-01  9.9999965822219372e-01  1.0000005191547947e+00  9.9999962964981082e-01  9.9999943867019747e-01  1.0000005294090333e+00  9.9999978690702362e-01  9.9999933946081332e-01  1.0000004585265436e+00  1.0000002525504281e+00  9.9999902292241194e-01  1.0000004811874379e+00  1.0000006247373843e+00  9.9999934546541025e-01  1.0000007593059277e+00  1.0000006231612488e+00  9.9999944199534418e-01  1.0000006184132773e+00  1.0000007347250528e+00  9.9999909599179504e-01  1.0000000853817403e+00  1.0000001833979728e+00  9.9999885576922964e-01  9.9999992266192084e-01  1.0000002006008943e+00  9.9999913527340212e-01  1.0000000866343268e+00  1.0000007012032330e+00  9.9999954372309041e-01  1.0000005436241313e+00  1.0000008101173463e+00  9.9999969719251547e-01  1.0000001184584344e+00  1.0000001988526315e+00  9.9999880706364430e-01  9.9999946954063612e-01  9.9999999992674937e-01  9.9999961442702323e-01  1.0000007092594110e+00  1.0000010304139895e+00  9.9999988297955056e-01  1.0000000161554707e+00  9.9999988981708199e-01  9.9999920629436534e-01  1.0000000439311354e+00  1.0000002806758999e+00  9.9999974560756211e-01  1.0000000996451690e+00  9.9999981185814057e-01  9.9999917328154964e-01  9.9999980119271503e-01  1.0000000750640377e+00  1.0000002855749111e+00  1.0000010346663388e+00  1.0000008732112693e+00  1.0000005109386998e+00  1.0000005497828781e+00  9.9999983720644814e-01  9.9999939889835832e-01  9.9999948550784468e-01  9.9999929000549392e-01  9.9999963476658504e-01  1.0000000058176204e+00  9.9999984376991058e-01  1.0000002879462719e+00  1.0000005222180026e+00  1.0000001813966457e+00  1.0000003448097028e+00  1.0000001939104233e+00  9.9999993079032390e-01  1.0000002821425535e+00  9.9999992004229110e-01  9.9999962503331774e-01  1.0000001881176932e+00  9.9999993817266453e-01  9.9999969821954204e-01  1.0000001212192096e+00  9.9999982795377285e-01  9.9999990086629320e-01  1.0000002699172073e+00  9.9999966713459087e-01  9.9999988419640051e-01  1.0000004229093815e+00  9.9999971832811874e-01  9.9999983417599370e-01  1.0000003268777040e+00  9.9999979970288466e-01  9.9999999691795216e-01  1.0000001704872177e+00  9.9999969269727007e-01  1.0000002049238086e+00  1.0000001829830598e+00  9.9999953203492675e-01  1.0000002441713383e+00  1.0000002687571343e+00  9.9999953053174562e-01  1.0000001625154136e+00  1.0000002414034646e+00  9.9999966975265642e-01  1.0000001379685703e+00  1.0000000808185734e+00  9.9999979246175197e-01  1.0000002253800411e+00  9.9999992079292799e-01  9.9999980526980659e-01  1.0000003393345325e+00  9.9999986650403294e-01  9.9999974901501276e-01  1.0000003767381327e+00  9.9999992021844786e-01  9.9999970459558396e-01  1.0000003135104127e+00  1.0000000145881403e+00  9.9999972878915477e-01  1.0000001744041316e+00  1.0000000951788566e+00  9.9999981972419349e-01  1.0000000235640378e+00  1.0000001049873795e+00  9.9999997413376496e-01  9.9999990134188887e-01  1.0000000322887710e+00  1.0000001501384881e+00  9.9999985463301444e-01  9.9999988372673343e-01  1.0000003004284923e+00  9.9999990109227654e-01  9.9999969946372858e-01  1.0000003857146020e+00  1.0000000128888802e+00  9.9999955252612915e-01  1.0000003689805763e+00  1.0000001647713386e+00  9.9999946642339566e-01  1.0000002916810558e+00  1.0000002781285946e+00  9.9999948224001434e-01  1.0000001711143980e+00  1.0000003350179987e+00  9.9999957091850600e-01  1.0000000563156433e+00  1.0000003226581533e+00  9.9999969897371399e-01  9.9999997450827460e-01  1.0000002516010140e+00  9.9999984209152570e-01  9.9999991466936133e-01  1.0000001771660982e+00  9.9999994376352885e-01  9.9999990595460087e-01  1.0000000957435555e+00  1.0000000171871350e+00  9.9999992400003335e-01  1.0000000266304796e+00  1.0000000735471710e+00  9.9999993205670967e-01  1.0000000104549867e+00  1.0000000646641007e+00  9.9999997114316674e-01  9.9999998055948647e-01  1.0000000328710787e+00  1.0000000193960352e+00  9.9999991666839461e-01  1.0000000511093075e+00  1.0000000091749313e+00  9.9999991698699964e-01  1.0000000461718646e+00  1.0000000109967111e+00  9.9999993391627240e-01  1.0000000291927615e+00  1.0000000412289456e+00  9.9999994232725853e-01  1.0000000478884785e+00  1.0000000513408400e+00  9.9999995259952801e-01  9.9999998142763047e-01  1.0000000633169157e+00  9.9999984103628647e-01  9.9999709649679858e-01  1.0000012376745944e+00  1.0000010947918749e+00  9.9999811488321921e-01  1.0000011612809907e+00  1.0000001801539613e+00  9.9999983642547130e-01  1.0000001621426631e+00  9.9999947208165396e-01  1.0000007409626064e+00  9.9999939787013292e-01  9.9999929544059518e-01  1.0000013725226859e+00  9.9999893356885883e-01  9.9999995875572467e-01  1.0000016488753725e+00  9.9999855562515716e-01  1.0000001572421076e+00  1.0000015089444454e+00  9.9999853447544851e-01  1.0000000728289624e+00  1.0000014011142324e+00  9.9999920219784078e-01  1.0000000069522235e+00  1.0000008563969400e+00  9.9999973226438554e-01  9.9999978808951306e-01  1.0000006623966515e+00  1.0000000200224537e+00  9.9999955711015642e-01  1.0000006785441460e+00  1.0000002164293198e+00  9.9999926705164799e-01  1.0000005410558015e+00  1.0000005301616215e+00  9.9999903484449171e-01  1.0000002163252326e+00  1.0000001913147121e+00  9.9999887524966280e-01  1.0000001517570378e+00  1.0000002076028809e+00  9.9999890024534377e-01  1.0000001787432220e+00  1.0000006848906144e+00  9.9999945636226284e-01  1.0000005978110962e+00  1.0000008726130007e+00  9.9999961727854181e-01  1.0000004241760638e+00  1.0000006808157389e+00  9.9999928109654823e-01  9.9999994209983678e-01  1.0000002212771935e+00  9.9999899910508605e-01  9.9999975639541849e-01  1.0000002664790126e+00  9.9999951329396974e-01  1.0000005357186486e+00  1.0000011485871563e+00  1.0000000919363221e+00  1.0000003351999192e+00  1.0000000370580140e+00  9.9999881966159443e-01  9.9999949802375188e-01  1.0000001536614092e+00  9.9999984376741924e-01  1.0000005936940293e+00  1.0000005494490545e+00  9.9999964383930973e-01  1.0000000320158771e+00  1.0000001106714347e+00  9.9999984480164306e-01  1.0000006208206362e+00  1.0000006407679918e+00  1.0000000273459531e+00  9.9999999024428421e-01  9.9999934936024670e-01  9.9999889339448700e-01  9.9999934197635398e-01  9.9999937090691993e-01  9.9999966793480144e-01  1.0000004454678322e+00  1.0000005231036273e+00  1.0000006408283451e+00  1.0000006712567864e+00  1.0000001221737720e+00  1.0000001146189541e+00  1.0000000381105587e+00  9.9999949379589492e-01  9.9999966326187439e-01  9.9999975921514828e-01  9.9999961933441217e-01  1.0000000202304202e+00  9.9999988503641557e-01  9.9999976115783729e-01  1.0000003588494317e+00  1.0000000995315526e+00  9.9999981234292790e-01  1.0000003048526573e+00  1.0000000590031917e+00  9.9999995522719898e-01  1.0000002839375197e+00  9.9999980726706739e-01  9.9999997352026515e-01  1.0000004205536179e+00  9.9999971572531277e-01  9.9999986050048151e-01  1.0000004086407825e+00  9.9999979922844895e-01  9.9999991168477453e-01  1.0000002345590846e+00  9.9999976669154611e-01  1.0000001224873105e+00  1.0000001666265692e+00  9.9999959801560345e-01  1.0000002378393165e+00  1.0000002436485311e+00  9.9999951608062743e-01  1.0000001886511698e+00  1.0000002766102836e+00  9.9999960791613463e-01  1.0000001268446244e+00  1.0000001637894471e+00  9.9999974910710454e-01  1.0000001739859956e+00  9.9999999015943852e-01  9.9999980516613451e-01  1.0000002907038175e+00  9.9999988854759803e-01  9.9999976736692509e-01  1.0000003666321788e+00  9.9999990249902726e-01  9.9999971149478772e-01  1.0000003437232559e+00  9.9999998480035313e-01  9.9999970712379993e-01  1.0000002326970865e+00  1.0000000713867963e+00  9.9999977470547508e-01  1.0000000827173465e+00  1.0000001097986346e+00  9.9999990731697186e-01  9.9999994543992143e-01  1.0000000690874511e+00  1.0000000807634484e+00  9.9999986275674224e-01  9.9999995122826169e-01  1.0000002450250607e+00  9.9999987090416365e-01  9.9999977812089214e-01  1.0000003587230715e+00  9.9999996064837893e-01  9.9999961035570972e-01  1.0000003842339558e+00  1.0000001015511495e+00  9.9999949765170837e-01  1.0000003260003298e+00  1.0000002396432692e+00  9.9999946783000038e-01  1.0000002202001839e+00  1.0000003211533914e+00  9.9999952863147568e-01  1.0000000964650357e+00  1.0000003395247750e+00  9.9999964025666366e-01  1.0000000001576523e+00  1.0000002931787642e+00  9.9999977618244384e-01  9.9999993812198651e-01  1.0000002146167379e+00  9.9999989917477095e-01  9.9999991071874794e-01  1.0000001317440188e+00  9.9999998364010334e-01  9.9999991653161846e-01  1.0000000500422486e+00  1.0000000395434636e+00  9.9999992421189043e-01  9.9999999912904824e-01  1.0000000520900421e+00  9.9999994745265441e-01  9.9999997069410118e-01  1.0000000432981266e+00  9.9999999813582774e-01  9.9999994028506922e-01  1.0000000608097650e+00  1.0000000189768106e+00  9.9999993804271170e-01  1.0000000587723332e+00  1.0000000290793785e+00  9.9999993786482000e-01  1.0000000439984364e+00  1.0000000388899828e+00  9.9999992389490411e-01  1.0000000370944717e+00  1.0000000144418608e+00  9.9999992648400660e-01  1.0000000038460064e+00  1.0000000546862440e+00  9.9999993840543322e-01  1.0000000633169168e+00  1.0000015907286293e+00  1.0000010947918752e+00  9.9999826337015674e-01  1.0000007024076005e+00  1.0000005540929209e+00  9.9999898062476311e-01  1.0000002670701320e+00  9.9999968167206477e-01  1.0000003859574338e+00  9.9999992307608299e-01  9.9999943139279224e-01  1.0000013528104224e+00  9.9999928841564556e-01  9.9999964140862585e-01  1.0000013111515347e+00  9.9999860683743735e-01  9.9999984224066929e-01  1.0000013747651217e+00  9.9999856618115979e-01  1.0000000220516312e+00  1.0000012275041477e+00  9.9999897512753178e-01  9.9999958933715605e-01  1.0000008241610499e+00  9.9999937530445637e-01  9.9999967817462754e-01  1.0000004584356126e+00  9.9999976485387132e-01  9.9999954934481061e-01  1.0000003323767954e+00  1.0000001167499479e+00  9.9999918361747764e-01  1.0000004702685208e+00  1.0000003072738506e+00  9.9999908517587122e-01  1.0000002704618376e+00  1.0000005523103517e+00  9.9999939176536634e-01  1.0000004680030905e+00  1.0000007168830627e+00  9.9999933570552413e-01  1.0000005634281699e+00  1.0000007520871281e+00  9.9999931539341325e-01  1.0000000472321913e+00  1.0000003117144944e+00  9.9999904174295384e-01  9.9999984379446460e-01  1.0000003098235475e+00  9.9999909354406613e-01  1.0000000244957270e+00  1.0000005250885731e+00  9.9999961388313097e-01  1.0000002857504451e+00  1.0000008628630688e+00  9.9999972880453014e-01  1.0000002854730485e+00  1.0000003378078561e+00  9.9999907135721289e-01  9.9999938582802506e-01  9.9999986997431767e-01  9.9999941709622242e-01  1.0000005019909506e+00  1.0000010156919827e+00  1.0000000773494631e+00  1.0000001630697652e+00  9.9999994958266103e-01  9.9999922267181962e-01  9.9999988472275592e-01  1.0000002230637610e+00  9.9999978154000047e-01  1.0000001684337263e+00  9.9999988915942406e-01  9.9999927182379866e-01  9.9999968694473373e-01  9.9999991863632032e-01  1.0000001239140301e+00  1.0000009105766883e+00  1.0000008666849118e+00  1.0000006291145012e+00  1.0000006476806300e+00  1.0000000037194683e+00  9.9999954738141406e-01  9.9999950757181888e-01  9.9999924888201686e-01  9.9999957306205600e-01  9.9999991021744916e-01  9.9999979114195847e-01  1.0000002269387720e+00  1.0000004607940460e+00  1.0000002118400477e+00  1.0000003937801116e+00  1.0000001983172868e+00  9.9999995512591089e-01  1.0000003093666188e+00  9.9999994997965969e-01  9.9999965173704652e-01  1.0000001606380868e+00  9.9999992718642494e-01  9.9999973682976839e-01  1.0000001103894804e+00  9.9999979832162622e-01  9.9999990209071299e-01  1.0000002752259174e+00  9.9999968043138265e-01  9.9999986698219989e-01  1.0000003918663445e+00  9.9999975403169783e-01  9.9999984903307715e-01  1.0000002811775148e+00  9.9999980818805445e-01  1.0000000197827641e+00  1.0000001627467809e+00  9.9999968534573991e-01  1.0000001916625183e+00  1.0000002005705768e+00  9.9999955571836696e-01  1.0000001951263173e+00  1.0000002739115725e+00  9.9999958264891675e-01  1.0000001212702709e+00  1.0000002224565105e+00  9.9999971430739309e-01  1.0000001223354396e+00  1.0000000688035178e+00  9.9999980101919350e-01  1.0000002204401961e+00  9.9999993940677456e-01  9.9999978932400158e-01  1.0000003174860328e+00  9.9999991570738378e-01  9.9999973117124541e-01  1.0000003344781339e+00  9.9999997396011719e-01  9.9999970696996920e-01  1.0000002566283488e+00  1.0000000571682508e+00  9.9999974716771545e-01  1.0000001284070612e+00  1.0000001028423913e+00  9.9999986180524980e-01  9.9999998770134380e-01  1.0000000868029459e+00  1.0000000227619534e+00  9.9999988619903291e-01  9.9999999312900778e-01  1.0000001949386594e+00  9.9999985868359409e-01  9.9999983926084823e-01  1.0000003292017299e+00  9.9999991672287547e-01  9.9999967211171892e-01  1.0000003799849864e+00  1.0000000474267703e+00  9.9999953361035132e-01  1.0000003517787428e+00  1.0000001862313868e+00  9.9999948065307842e-01  1.0000002502090257e+00  1.0000002987141137e+00  9.9999950842174579e-01  1.0000001281777455e+00  1.0000003443660923e+00  9.9999960529031640e-01  1.0000000166637288e+00  1.0000003262533548e+00  9.9999973135492470e-01  9.9999993938019560e-01  1.0000002647955404e+00  9.9999984638877171e-01  9.9999991221193840e-01  1.0000001724711380e+00  9.9999994689296023e-01  9.9999991119703047e-01  1.0000000882524378e+00  1.0000000174313763e+00  9.9999992528538806e-01  1.0000000363111452e+00  1.0000000425791475e+00  9.9999996832483340e-01  9.9999998901768949e-01  1.0000000524020634e+00  1.0000000105108648e+00  9.9999993226291906e-01  1.0000000751170628e+00  9.9999999397908002e-01  9.9999993367314777e-01  1.0000000471687287e+00  1.0000000086103240e+00  9.9999993075619786e-01  1.0000000258958388e+00  1.0000000378779492e+00  9.9999990884447187e-01  1.0000000440133447e+00  1.0000000338389456e+00  9.9999993135680021e-01  1.0000000522501755e+00  1.0000000560134095e+00  9.9999992516112235e-01  1.0000000546862433e+00  9.9999998142763180e-01  1.0000002968185253e+00  9.9999811488321855e-01  1.0000007024076008e+00  1.0000004854092461e+00  9.9999925303026804e-01  1.0000002801172696e+00  1.0000003474167378e+00  9.9999998950470514e-01  1.0000001642052847e+00  9.9999942391453445e-01  1.0000007993299682e+00  9.9999947971168124e-01  9.9999938408266409e-01  1.0000010985580383e+00  9.9999915671568429e-01  9.9999978620568652e-01  1.0000013836883508e+00  9.9999888322717623e-01  9.9999989332040506e-01  1.0000011889996741e+00  9.9999897911402835e-01  9.9999977358959247e-01  1.0000009072358567e+00  9.9999964530862351e-01  9.9999970169901287e-01  1.0000006130203221e+00  9.9999980899778596e-01  9.9999974542585979e-01  1.0000003475363177e+00  1.0000000925761947e+00  9.9999953086739668e-01  1.0000002935282657e+00  1.0000004294215887e+00  9.9999919387870906e-01  1.0000003479394608e+00  1.0000005310578530e+00  9.9999938953696754e-01  1.0000001126413471e+00  1.0000004413493506e+00  9.9999924178546362e-01  1.0000001243991612e+00  1.0000005119936031e+00  9.9999911072090941e-01  1.0000000579781227e+00  1.0000004977123966e+00  9.9999954583799477e-01  1.0000001509530860e+00  1.0000007025148641e+00  9.9999949124119181e-01  1.0000001793465840e+00  1.0000005996761003e+00  9.9999951706811951e-01  9.9999998124770084e-01  1.0000004040217270e+00  9.9999940195848436e-01  9.9999982051894687e-01  1.0000002852562251e+00  9.9999940018991940e-01  1.0000001181837335e+00  1.0000007228179535e+00  1.0000000916966270e+00  1.0000003637919543e+00  1.0000003502976278e+00  9.9999920615252769e-01  9.9999955399670948e-01  9.9999998047133531e-01  9.9999973198292125e-01  1.0000003800592669e+00  1.0000005312537847e+00  9.9999983877891840e-01  1.0000000826840560e+00  1.0000001196538726e+00  9.9999985883751197e-01  1.0000004598000609e+00  1.0000005415748250e+00  1.0000001290494447e+00  1.0000000726103457e+00  9.9999952330407738e-01  9.9999906793185611e-01  9.9999932086291743e-01  9.9999931489805394e-01  9.9999960494132312e-01  1.0000002384134816e+00  1.0000003974416061e+00  1.0000006203567788e+00  1.0000006597710687e+00  1.0000002041433080e+00  1.0000001991684095e+00  1.0000000631211050e+00  9.9999960065209526e-01  9.9999972286016303e-01  9.9999971118675302e-01  9.9999961902203827e-01  1.0000000170400600e+00  9.9999986151276998e-01  9.9999976665034851e-01  1.0000003101090660e+00  1.0000000891664551e+00  9.9999987718682581e-01  1.0000002796401564e+00  1.0000000313398023e+00  9.9999999961227826e-01  1.0000002885890453e+00  9.9999981926432080e-01  9.9999997243594696e-01  1.0000003870935710e+00  9.9999977160545550e-01  9.9999987780296895e-01  1.0000003355836073e+00  9.9999983740786813e-01  9.9999994730862607e-01  1.0000001913532217e+00  9.9999977911308657e-01  1.0000001183964142e+00  1.0000001662765854e+00  9.9999963850815765e-01  1.0000001776774414e+00  1.0000002404247839e+00  9.9999960225947970e-01  1.0000001169088324e+00  1.0000002482071080e+00  9.9999969486731211e-01  1.0000000824257147e+00  1.0000001382902999e+00  9.9999979508059578e-01  1.0000001431495493e+00  1.0000000076554749e+00  9.9999981118835224e-01  1.0000002403967740e+00  9.9999995370934835e-01  9.9999976273528834e-01  1.0000002878474770e+00  9.9999998288997682e-01  9.9999972545221738e-01  1.0000002490318669e+00  1.0000000493935459e+00  9.9999974311034578e-01  1.0000001504000795e+00  1.0000000956878865e+00  9.9999983044768648e-01  1.0000000279376240e+00  1.0000000894467622e+00  9.9999997564661902e-01  9.9999991801783172e-01  1.0000000219669567e+00  1.0000001389388602e+00  9.9999987014189951e-01  9.9999988620175573e-01  1.0000002893940334e+00  9.9999989330941352e-01  9.9999972948839244e-01  1.0000003667687054e+00  9.9999999735939737e-01  9.9999958569794478e-01  1.0000003621153881e+00  1.0000001352884806e+00  9.9999950482445232e-01  1.0000002847558285e+00  1.0000002534258996e+00  9.9999951532939013e-01  1.0000001547399258e+00  1.0000003332958347e+00  9.9999958298857128e-01  1.0000000374954305e+00  1.0000003384980440e+00  9.9999969930865806e-01  9.9999994350217447e-01  1.0000002990123540e+00  9.9999981308083541e-01  9.9999990096360281e-01  1.0000002245383692e+00  9.9999990760124702e-01  9.9999990340493394e-01  1.0000001308736126e+00  9.9999998587341787e-01  9.9999991395114818e-01  1.0000000623493313e+00  1.0000000152030319e+00  9.9999994955480542e-01  9.9999999781326543e-01  1.0000000251743388e+00  9.9999999364563841e-01  9.9999993426120859e-01  1.0000000593713221e+00  1.0000000001758191e+00  9.9999993304741308e-01  1.0000000614819475e+00  1.0000000171598125e+00  9.9999993972513057e-01  1.0000000451687603e+00  1.0000000440568544e+00  9.9999992228501910e-01  1.0000000515879310e+00  1.0000000378383289e+00  9.9999992523987780e-01  1.0000000325694092e+00  1.0000000421661615e+00  9.9999988908224080e-01  1.0000000560134104e+00  1.0000000038460066e+00  9.9999995259952967e-01  9.9999873034952136e-01  1.0000011612809896e+00  1.0000005540929204e+00  9.9999925303026760e-01  1.0000003575508465e+00  1.0000000707552474e+00  9.9999977389429706e-01  9.9999994048644414e-01  9.9999962349234861e-01  1.0000004264063267e+00  9.9999987490090325e-01  9.9999954563432980e-01  1.0000008963027547e+00  9.9999966385105910e-01  9.9999959748294531e-01  1.0000009804544672e+00  9.9999923420082537e-01  9.9999958943477085e-01  1.0000011323899665e+00  9.9999924711393329e-01  9.9999978723536420e-01  1.0000009872456908e+00  9.9999955734816437e-01  9.9999979471570843e-01  1.0000003697781927e+00  9.9999998085391772e-01  9