<?xml version="1.0"?>
<VTKFile type="UnstructuredGrid"  version="0.1"  >
<UnstructuredGrid>
<Piece  NumberOfPoints="40401" NumberOfCells="80000">
<Points>
<DataArray  type="Float64"  NumberOfComponents="3"  format="ascii">-5 -5 0  -4.95 -5 0  -4.9 -5 0  -4.85 -5 0  -4.8 -5 0  -4.75 -5 0  -4.7 -5 0  -4.65 -5 0  -4.6 -5 0  -4.55 -5 0  -4.5 -5 0  -4.45 -5 0  -4.4 -5 0  -4.35 -5 0  -4.3 -5 0  -4.25 -5 0  -4.2 -5 0  -4.15 -5 0  -4.1 -5 0  -4.05 -5 0  -4 -5 0  -3.95 -5 0  -3.9 -5 0  -3.85 -5 0  -3.8 -5 0  -3.75 -5 0  -3.7 -5 0  -3.65 -5 0  -3.6 -5 0  -3.55 -5 0  -3.5 -5 0  -3.45 -5 0  -3.4 -5 0  -3.35 -5 0  -3.3 -5 0  -3.25 -5 0  -3.2 -5 0  -3.15 -5 0  -3.1 -5 0  -3.05 -5 0  -3 -5 0  -2.95 -5 0  -2.9 -5 0  -2.85 -5 0  -2.8 -5 0  -2.75 -5 0  -2.7 -5 0  -2.65 -5 0  -2.6 -5 0  -2.55 -5 0  -2.5 -5 0  -2.45 -5 0  -2.4 -5 0  -2.35 -5 0  -2.3 -5 0  -2.25 -5 0  -2.2 -5 0  -2.15 -5 0  -2.1 -5 0  -2.05 -5 0  -2 -5 0  -1.95 -5 0  -1.9 -5 0  -1.85 -5 0  -1.8 -5 0  -1.75 -5 0  -1.7 -5 0  -1.65 -5 0  -1.6 -5 0  -1.55 -5 0  -1.5 -5 0  -1.45 -5 0  -1.4 -5 0  -1.35 -5 0  -1.3 -5 0  -1.25 -5 0  -1.2 -5 0  -1.15 -5 0  -1.1 -5 0  -1.05 -5 0  -1 -5 0  -0.9500000000000002 -5 0  -0.9000000000000004 -5 0  -0.8499999999999996 -5 0  -0.7999999999999998 -5 0  -0.75 -5 0  -0.7000000000000002 -5 0  -0.6500000000000004 -5 0  -0.5999999999999996 -5 0  -0.5499999999999998 -5 0  -0.5 -5 0  -0.4500000000000002 -5 0  -0.4000000000000004 -5 0  -0.3499999999999996 -5 0  -0.2999999999999998 -5 0  -0.25 -5 0  -0.2000000000000002 -5 0  -0.1500000000000004 -5 0  -0.09999999999999964 -5 0  -0.04999999999999982 -5 0  0 -5 0  0.04999999999999982 -5 0  0.09999999999999964 -5 0  0.1500000000000004 -5 0  0.2000000000000002 -5 0  0.25 -5 0  0.2999999999999998 -5 0  0.3499999999999996 -5 0  0.4000000000000004 -5 0  0.4500000000000002 -5 0  0.5 -5 0  0.5499999999999998 -5 0  0.5999999999999996 -5 0  0.6500000000000004 -5 0  0.7000000000000002 -5 0  0.75 -5 0  0.7999999999999998 -5 0  0.8499999999999996 -5 0  0.9000000000000004 -5 0  0.9500000000000002 -5 0  1 -5 0  1.05 -5 0  1.1 -5 0  1.15 -5 0  1.2 -5 0  1.25 -5 0  1.3 -5 0  1.35 -5 0  1.4 -5 0  1.45 -5 0  1.5 -5 0  1.55 -5 0  1.6 -5 0  1.65 -5 0  1.7 -5 0  1.75 -5 0  1.8 -5 0  1.85 -5 0  1.9 -5 0  1.95 -5 0  2 -5 0  2.05 -5 0  2.1 -5 0  2.15 -5 0  2.2 -5 0  2.25 -5 0  2.3 -5 0  2.35 -5 0  2.4 -5 0  2.45 -5 0  2.5 -5 0  2.55 -5 0  2.6 -5 0  2.65 -5 0  2.7 -5 0  2.75 -5 0  2.8 -5 0  2.85 -5 0  2.9 -5 0  2.95 -5 0  3 -5 0  3.050000000000001 -5 0  3.1 -5 0  3.15 -5 0  3.199999999999999 -5 0  3.25 -5 0  3.300000000000001 -5 0  3.35 -5 0  3.4 -5 0  3.449999999999999 -5 0  3.5 -5 0  3.550000000000001 -5 0  3.6 -5 0  3.65 -5 0  3.699999999999999 -5 0  3.75 -5 0  3.800000000000001 -5 0  3.85 -5 0  3.9 -5 0  3.949999999999999 -5 0  4 -5 0  4.050000000000001 -5 0  4.1 -5 0  4.15 -5 0  4.199999999999999 -5 0  4.25 -5 0  4.300000000000001 -5 0  4.35 -5 0  4.4 -5 0  4.449999999999999 -5 0  4.5 -5 0  4.550000000000001 -5 0  4.6 -5 0  4.65 -5 0  4.699999999999999 -5 0  4.75 -5 0  4.800000000000001 -5 0  4.85 -5 0  4.9 -5 0  4.949999999999999 -5 0  5 -5 0  -5 -4.95 0  -4.95 -4.95 0  -4.9 -4.95 0  -4.85 -4.95 0  -4.8 -4.95 0  -4.75 -4.95 0  -4.7 -4.95 0  -4.65 -4.95 0  -4.6 -4.95 0  -4.55 -4.95 0  -4.5 -4.95 0  -4.45 -4.95 0  -4.4 -4.95 0  -4.35 -4.95 0  -4.3 -4.95 0  -4.25 -4.95 0  -4.2 -4.95 0  -4.15 -4.95 0  -4.1 -4.95 0  -4.05 -4.95 0  -4 -4.95 0  -3.95 -4.95 0  -3.9 -4.95 0  -3.85 -4.95 0  -3.8 -4.95 0  -3.75 -4.95 0  -3.7 -4.95 0  -3.65 -4.95 0  -3.6 -4.95 0  -3.55 -4.95 0  -3.5 -4.95 0  -3.45 -4.95 0  -3.4 -4.95 0  -3.35 -4.95 0  -3.3 -4.95 0  -3.25 -4.95 0  -3.2 -4.95 0  -3.15 -4.95 0  -3.1 -4.95 0  -3.05 -4.95 0  -3 -4.95 0  -2.95 -4.95 0  -2.9 -4.95 0  -2.85 -4.95 0  -2.8 -4.95 0  -2.75 -4.95 0  -2.7 -4.95 0  -2.65 -4.95 0  -2.6 -4.95 0  -2.55 -4.95 0  -2.5 -4.95 0  -2.45 -4.95 0  -2.4 -4.95 0  -2.35 -4.95 0  -2.3 -4.95 0  -2.25 -4.95 0  -2.2 -4.95 0  -2.15 -4.95 0  -2.1 -4.95 0  -2.05 -4.95 0  -2 -4.95 0  -1.95 -4.95 0  -1.9 -4.95 0  -1.85 -4.95 0  -1.8 -4.95 0  -1.75 -4.95 0  -1.7 -4.95 0  -1.65 -4.95 0  -1.6 -4.95 0  -1.55 -4.95 0  -1.5 -4.95 0  -1.45 -4.95 0  -1.4 -4.95 0  -1.35 -4.95 0  -1.3 -4.95 0  -1.25 -4.95 0  -1.2 -4.95 0  -1.15 -4.95 0  -1.1 -4.95 0  -1.05 -4.95 0  -1 -4.95 0  -0.9500000000000002 -4.95 0  -0.9000000000000004 -4.95 0  -0.8499999999999996 -4.95 0  -0.7999999999999998 -4.95 0  -0.75 -4.95 0  -0.7000000000000002 -4.95 0  -0.6500000000000004 -4.95 0  -0.5999999999999996 -4.95 0  -0.5499999999999998 -4.95 0  -0.5 -4.95 0  -0.4500000000000002 -4.95 0  -0.4000000000000004 -4.95 0  -0.3499999999999996 -4.95 0  -0.2999999999999998 -4.95 0  -0.25 -4.95 0  -0.2000000000000002 -4.95 0  -0.1500000000000004 -4.95 0  -0.09999999999999964 -4.95 0  -0.04999999999999982 -4.95 0  0 -4.95 0  0.04999999999999982 -4.95 0  0.09999999999999964 -4.95 0  0.1500000000000004 -4.95 0  0.2000000000000002 -4.95 0  0.25 -4.95 0  0.2999999999999998 -4.95 0  0.3499999999999996 -4.95 0  0.4000000000000004 -4.95 0  0.4500000000000002 -4.95 0  0.5 -4.95 0  0.5499999999999998 -4.95 0  0.5999999999999996 -4.95 0  0.6500000000000004 -4.95 0  0.7000000000000002 -4.95 0  0.75 -4.95 0  0.7999999999999998 -4.95 0  0.8499999999999996 -4.95 0  0.9000000000000004 -4.95 0  0.9500000000000002 -4.95 0  1 -4.95 0  1.05 -4.95 0  1.1 -4.95 0  1.15 -4.95 0  1.2 -4.95 0  1.25 -4.95 0  1.3 -4.95 0  1.35 -4.95 0  1.4 -4.95 0  1.45 -4.95 0  1.5 -4.95 0  1.55 -4.95 0  1.6 -4.95 0  1.65 -4.95 0  1.7 -4.95 0  1.75 -4.95 0  1.8 -4.95 0  1.85 -4.95 0  1.9 -4.95 0  1.95 -4.95 0  2 -4.95 0  2.05 -4.95 0  2.1 -4.95 0  2.15 -4.95 0  2.2 -4.95 0  2.25 -4.95 0  2.3 -4.95 0  2.35 -4.95 0  2.4 -4.95 0  2.45 -4.95 0  2.5 -4.95 0  2.55 -4.95 0  2.6 -4.95 0  2.65 -4.95 0  2.7 -4.95 0  2.75 -4.95 0  2.8 -4.95 0  2.85 -4.95 0  2.9 -4.95 0  2.95 -4.95 0  3 -4.95 0  3.050000000000001 -4.95 0  3.1 -4.95 0  3.15 -4.95 0  3.199999999999999 -4.95 0  3.25 -4.95 0  3.300000000000001 -4.95 0  3.35 -4.95 0  3.4 -4.95 0  3.449999999999999 -4.95 0  3.5 -4.95 0  3.550000000000001 -4.95 0  3.6 -4.95 0  3.65 -4.95 0  3.699999999999999 -4.95 0  3.75 -4.95 0  3.800000000000001 -4.95 0  3.85 -4.95 0  3.9 -4.95 0  3.949999999999999 -4.95 0  4 -4.95 0  4.050000000000001 -4.95 0  4.1 -4.95 0  4.15 -4.95 0  4.199999999999999 -4.95 0  4.25 -4.95 0  4.300000000000001 -4.95 0  4.35 -4.95 0  4.4 -4.95 0  4.449999999999999 -4.95 0  4.5 -4.95 0  4.550000000000001 -4.95 0  4.6 -4.95 0  4.65 -4.95 0  4.699999999999999 -4.95 0  4.75 -4.95 0  4.800000000000001 -4.95 0  4.85 -4.95 0  4.9 -4.95 0  4.949999999999999 -4.95 0  5 -4.95 0  -5 -4.9 0  -4.95 -4.9 0  -4.9 -4.9 0  -4.85 -4.9 0  -4.8 -4.9 0  -4.75 -4.9 0  -4.7 -4.9 0  -4.65 -4.9 0  -4.6 -4.9 0  -4.55 -4.9 0  -4.5 -4.9 0  -4.45 -4.9 0  -4.4 -4.9 0  -4.35 -4.9 0  -4.3 -4.9 0  -4.25 -4.9 0  -4.2 -4.9 0  -4.15 -4.9 0  -4.1 -4.9 0  -4.05 -4.9 0  -4 -4.9 0  -3.95 -4.9 0  -3.9 -4.9 0  -3.85 -4.9 0  -3.8 -4.9 0  -3.75 -4.9 0  -3.7 -4.9 0  -3.65 -4.9 0  -3.6 -4.9 0  -3.55 -4.9 0  -3.5 -4.9 0  -3.45 -4.9 0  -3.4 -4.9 0  -3.35 -4.9 0  -3.3 -4.9 0  -3.25 -4.9 0  -3.2 -4.9 0  -3.15 -4.9 0  -3.1 -4.9 0  -3.05 -4.9 0  -3 -4.9 0  -2.95 -4.9 0  -2.9 -4.9 0  -2.85 -4.9 0  -2.8 -4.9 0  -2.75 -4.9 0  -2.7 -4.9 0  -2.65 -4.9 0  -2.6 -4.9 0  -2.55 -4.9 0  -2.5 -4.9 0  -2.45 -4.9 0  -2.4 -4.9 0  -2.35 -4.9 0  -2.3 -4.9 0  -2.25 -4.9 0  -2.2 -4.9 0  -2.15 -4.9 0  -2.1 -4.9 0  -2.05 -4.9 0  -2 -4.9 0  -1.95 -4.9 0  -1.9 -4.9 0  -1.85 -4.9 0  -1.8 -4.9 0  -1.75 -4.9 0  -1.7 -4.9 0  -1.65 -4.9 0  -1.6 -4.9 0  -1.55 -4.9 0  -1.5 -4.9 0  -1.45 -4.9 0  -1.4 -4.9 0  -1.35 -4.9 0  -1.3 -4.9 0  -1.25 -4.9 0  -1.2 -4.9 0  -1.15 -4.9 0  -1.1 -4.9 0  -1.05 -4.9 0  -1 -4.9 0  -0.9500000000000002 -4.9 0  -0.9000000000000004 -4.9 0  -0.8499999999999996 -4.9 0  -0.7999999999999998 -4.9 0  -0.75 -4.9 0  -0.7000000000000002 -4.9 0  -0.6500000000000004 -4.9 0  -0.5999999999999996 -4.9 0  -0.5499999999999998 -4.9 0  -0.5 -4.9 0  -0.4500000000000002 -4.9 0  -0.4000000000000004 -4.9 0  -0.3499999999999996 -4.9 0  -0.2999999999999998 -4.9 0  -0.25 -4.9 0  -0.2000000000000002 -4.9 0  -0.1500000000000004 -4.9 0  -0.09999999999999964 -4.9 0  -0.04999999999999982 -4.9 0  0 -4.9 0  0.04999999999999982 -4.9 0  0.09999999999999964 -4.9 0  0.1500000000000004 -4.9 0  0.2000000000000002 -4.9 0  0.25 -4.9 0  0.2999999999999998 -4.9 0  0.3499999999999996 -4.9 0  0.4000000000000004 -4.9 0  0.4500000000000002 -4.9 0  0.5 -4.9 0  0.5499999999999998 -4.9 0  0.5999999999999996 -4.9 0  0.6500000000000004 -4.9 0  0.7000000000000002 -4.9 0  0.75 -4.9 0  0.7999999999999998 -4.9 0  0.8499999999999996 -4.9 0  0.9000000000000004 -4.9 0  0.9500000000000002 -4.9 0  1 -4.9 0  1.05 -4.9 0  1.1 -4.9 0  1.15 -4.9 0  1.2 -4.9 0  1.25 -4.9 0  1.3 -4.9 0  1.35 -4.9 0  1.4 -4.9 0  1.45 -4.9 0  1.5 -4.9 0  1.55 -4.9 0  1.6 -4.9 0  1.65 -4.9 0  1.7 -4.9 0  1.75 -4.9 0  1.8 -4.9 0  1.85 -4.9 0  1.9 -4.9 0  1.95 -4.9 0  2 -4.9 0  2.05 -4.9 0  2.1 -4.9 0  2.15 -4.9 0  2.2 -4.9 0  2.25 -4.9 0  2.3 -4.9 0  2.35 -4.9 0  2.4 -4.9 0  2.45 -4.9 0  2.5 -4.9 0  2.55 -4.9 0  2.6 -4.9 0  2.65 -4.9 0  2.7 -4.9 0  2.75 -4.9 0  2.8 -4.9 0  2.85 -4.9 0  2.9 -4.9 0  2.95 -4.9 0  3 -4.9 0  3.050000000000001 -4.9 0  3.1 -4.9 0  3.15 -4.9 0  3.199999999999999 -4.9 0  3.25 -4.9 0  3.300000000000001 -4.9 0  3.35 -4.9 0  3.4 -4.9 0  3.449999999999999 -4.9 0  3.5 -4.9 0  3.550000000000001 -4.9 0  3.6 -4.9 0  3.65 -4.9 0  3.699999999999999 -4.9 0  3.75 -4.9 0  3.800000000000001 -4.9 0  3.85 -4.9 0  3.9 -4.9 0  3.949999999999999 -4.9 0  4 -4.9 0  4.050000000000001 -4.9 0  4.1 -4.9 0  4.15 -4.9 0  4.199999999999999 -4.9 0  4.25 -4.9 0  4.300000000000001 -4.9 0  4.35 -4.9 0  4.4 -4.9 0  4.449999999999999 -4.9 0  4.5 -4.9 0  4.550000000000001 -4.9 0  4.6 -4.9 0  4.65 -4.9 0  4.699999999999999 -4.9 0  4.75 -4.9 0  4.800000000000001 -4.9 0  4.85 -4.9 0  4.9 -4.9 0  4.949999999999999 -4.9 0  5 -4.9 0  -5 -4.85 0  -4.95 -4.85 0  -4.9 -4.85 0  -4.85 -4.85 0  -4.8 -4.85 0  -4.75 -4.85 0  -4.7 -4.85 0  -4.65 -4.85 0  -4.6 -4.85 0  -4.55 -4.85 0  -4.5 -4.85 0  
[...]
<PointData  Scalars="r"> 
<DataArray  type="Float64"  Name="r"  format="ascii">1.0000000000000018e+00  1.0000000000000007e+00  1.0000000000000009e+00  1.0000000000000004e+00  1.0000000000000004e+00  9.9999999999999989e-01  1.0000000000000004e+00  9.9999999999999811e-01  9.9999999999999756e-01  9.9999999999999145e-01  9.9999999999998523e-01  9.9999999999996991e-01  9.9999999999994427e-01  9.9999999999990008e-01  9.9999999999981726e-01  9.9999999999964762e-01  9.9999999999927636e-01  9.9999999999842692e-01  9.9999999999646827e-01  9.9999999999205846e-01  9.9999999998250344e-01  9.9999999996276634e-01  9.9999999992403743e-01  9.9999999985201626e-01  9.9999999972523756e-01  9.9999999951419194e-01  9.9999999918244420e-01  9.9999999869095590e-01  9.9999999800645700e-01  9.9999999711348597e-01  9.9999999602767176e-01  9.9999999480556589e-01  9.9999999354549196e-01  9.9999999237548598e-01  9.9999999142877882e-01  9.9999999081364366e-01  9.9999999058970412e-01  9.9999999076157831e-01  9.9999999129194317e-01  9.9999999212522450e-01  9.9999999320607980e-01  9.9999999447893240e-01  9.9999999587069865e-01  9.9999999727782951e-01  9.9999999857728272e-01  9.9999999965966191e-01  1.0000000004645186e+00  1.0000000009930570e+00  1.0000000012847965e+00  1.0000000013797801e+00  1.0000000013092234e+00  1.0000000011177375e+00  1.0000000008725840e+00  1.0000000006401193e+00  1.0000000004568750e+00  1.0000000003198313e+00  1.0000000002049985e+00  1.0000000001071818e+00  1.0000000000498850e+00  1.0000000000381739e+00  1.0000000000344449e+00  1.0000000000121001e+00  9.9999999999189559e-01  9.9999999999547651e-01  1.0000000000086628e+00  1.0000000000098417e+00  9.9999999999735811e-01  9.9999999998780853e-01  9.9999999999872946e-01  1.0000000000152800e+00  1.0000000000035170e+00  9.9999999998156752e-01  9.9999999999670319e-01  1.0000000000211084e+00  1.0000000000005840e+00  9.9999999997762956e-01  1.0000000000040195e+00  1.0000000000213929e+00  9.9999999999066846e-01  9.9999999998217493e-01  1.0000000000138829e+00  1.0000000000120532e+00  9.9999999998364164e-01  9.9999999999484812e-01  1.0000000000160354e+00  9.9999999999860545e-01  9.9999999998696476e-01  1.0000000000062013e+00  1.0000000000082718e+00  9.9999999999157385e-01  9.9999999999687539e-01  1.0000000000080504e+00  9.9999999999892775e-01  9.9999999999420341e-01  1.0000000000034852e+00  1.0000000000028058e+00  9.9999999999601996e-01  9.9999999999982225e-01  1.0000000000030582e+00  9.9999999999859568e-01  9.9999999999847244e-01  1.0000000000018168e+00  1.0000000000001497e+00  9.9999999999861622e-01  1.0000000000006477e+00  1.0000000000006246e+00  9.9999999999919509e-01  1.0000000000000175e+00  1.0000000000005502e+00  9.9999999999966815e-01  9.9999999999981926e-01  1.0000000000003364e+00  9.9999999999992040e-01  9.9999999999982170e-01  1.0000000000001634e+00  1.0000000000000184e+00  9.9999999999988032e-01  1.0000000000000653e+00  1.0000000000000364e+00  9.9999999999993239e-01  1.0000000000000184e+00  1.0000000000000306e+00  9.9999999999996714e-01  1.0000000000000033e+00  1.0000000000000195e+00  9.9999999999998590e-01  9.9999999999999811e-01  1.0000000000000100e+00  9.9999999999999445e-01  9.9999999999999756e-01  1.0000000000000042e+00  9.9999999999999856e-01  9.9999999999999600e-01  1.0000000000000031e+00  9.9999999999999778e-01  9.9999999999999867e-01  1.0000000000000020e+00  1.0000000000000000e+00  1.0000000000000000e+00  1.0000000000000018e+00  1.0000000000000011e+00  9.9999999999999978e-01  1.0000000000000016e+00  1.0000000000000007e+00  9.9999999999999922e-01  1.0000000000000002e+00  1.0000000000000004e+00  9.9999999999999956e-01  1.0000000000000004e+00  1.0000000000000004e+00  1.0000000000000002e+00  9.9999999999999944e-01  1.0000000000000016e+00  1.0000000000000000e+00  1.0000000000000002e+00  1.0000000000000000e+00  1.0000000000000000e+00  9.9999999999999922e-01  1.0000000000000002e+00  1.0000000000000000e+00  9.9999999999999978e-01  1.0000000000000002e+00  9.9999999999999878e-01  9.9999999999999956e-01  1.0000000000000002e+00  1.0000000000000000e+00  9.9999999999999867e-01  1.0000000000000002e+00  1.0000000000000000e+00  1.0000000000000000e+00  1.0000000000000000e+00  9.9999999999999944e-01  1.0000000000000000e+00  1.0000000000000000e+00  1.0000000000000000e+00  9.9999999999999978e-01  1.0000000000000000e+00  9.9999999999999933e-01  9.9999999999999911e-01  9.9999999999999956e-01  9.9999999999999967e-01  9.9999999999999989e-01  1.0000000000000000e+00  9.9999999999999956e-01  1.0000000000000002e+00  9.9999999999999978e-01  9.9999999999999878e-01  9.9999999999999900e-01  1.0000000000000000e+00  1.0000000000000000e+00  1.0000000000000002e+00  9.9999999999999956e-01  9.9999999999999956e-01  9.9999999999999933e-01  9.9999999999999922e-01  9.9999999999999811e-01  9.9999999999999911e-01  9.9999999999999933e-01  9.9999999999999944e-01  1.0000000000000000e+00  9.9999999999999845e-01  9.9999999999999944e-01  1.0000000000000002e+00  1.0000000000000002e+00  1.0000000000000000e+00  9.9999999999999933e-01  1.0000000000000002e+00  1.0000000000000002e+00  1.0000000000000002e+00  1.0000000000000029e+00  1.0000000000000056e+00  1.0000000000000113e+00  1.0000000000000220e+00  1.0000000000000409e+00  1.0000000000000739e+00  1.0000000000001332e+00  1.0000000000002485e+00  1.0000000000004980e+00  1.0000000000010689e+00  1.0000000000024101e+00  1.0000000000055083e+00  1.0000000000124061e+00  1.0000000000270433e+00  1.0000000000565250e+00  1.0000000001127689e+00  1.0000000002142961e+00  1.0000000003875928e+00  1.0000000006670384e+00  1.0000000010921026e+00  1.0000000017007660e+00  1.0000000025188964e+00  1.0000000035470451e+00  1.0000000047483801e+00  1.0000000060431626e+00  1.0000000073146253e+00  1.0000000084279295e+00  1.0000000092584278e+00  1.0000000097192623e+00  1.0000000097761967e+00  1.0000000094434587e+00  1.0000000087648302e+00  1.0000000077927651e+00  1.0000000065805643e+00  1.0000000051935509e+00  1.0000000037256638e+00  1.0000000022986764e+00  1.0000000010366881e+00  1.0000000000300560e+00  9.9999999931092476e-01  9.9999999885926283e-01  9.9999999863643896e-01  9.9999999860970268e-01  9.9999999874053991e-01  9.9999999896618919e-01  9.9999999921307359e-01  9.9999999942782536e-01  9.9999999959384511e-01  9.9999999972552656e-01  9.9999999983867716e-01  9.9999999992112421e-01  9.9999999995440747e-01  9.9999999995947542e-01  9.9999999997548816e-01  1.0000000000008149e+00  1.0000000000073490e+00  9.9999999999593581e-01  9.9999999998963640e-01  9.9999999999689759e-01  1.0000000000085782e+00  1.0000000000079106e+00  9.9999999999140066e-01  9.9999999998788269e-01  1.0000000000100298e+00  1.0000000000145812e+00  9.9999999998707256e-01  9.9999999998533862e-01  1.0000000000165123e+00  1.0000000000120339e+00  9.9999999998042755e-01  9.9999999999298672e-01  1.0000000000208515e+00  1.0000000000005971e+00  9.9999999998047762e-01  1.0000000000057365e+00  1.0000000000155269e+00  9.9999999998952926e-01  9.9999999999035238e-01  1.0000000000125480e+00  1.0000000000032705e+00  9.9999999998827960e-01  1.0000000000021056e+00  1.0000000000086158e+00  9.9999999999461409e-01  9.9999999999553280e-01  1.0000000000062292e+00  1.0000000000006140e+00  9.9999999999491973e-01  1.0000000000019518e+00  1.0000000000028924e+00  9.9999999999710854e-01  9.9999999999930200e-01  1.0000000000024867e+00  9.9999999999921851e-01  9.9999999999860445e-01  1.0000000000013090e+00  1.0000000000002871e+00  9.9999999999890998e-01  1.0000000000004057e+00  1.0000000000005358e+00  9.9999999999941058e-01  9.9999999999997102e-01  1.0000000000004237e+00  9.9999999999976752e-01  9.9999999999985234e-01  1.0000000000002489e+00  9.9999999999994682e-01  9.9999999999986655e-01  1.0000000000001199e+00  1.0000000000000102e+00  9.9999999999991152e-01  1.0000000000000475e+00  1.0000000000000233e+00  9.9999999999995093e-01  1.0000000000000151e+00  1.0000000000000195e+00  9.9999999999997613e-01  1.0000000000000038e+00  1.0000000000000120e+00  9.9999999999998901e-01  9.9999999999999933e-01  1.0000000000000062e+00  9.9999999999999512e-01  9.9999999999999756e-01  1.0000000000000033e+00  9.9999999999999656e-01  9.9999999999999867e-01  1.0000000000000031e+00  9.9999999999999889e-01  9.9999999999999867e-01  1.0000000000000009e+00  9.9999999999999967e-01  9.9999999999999933e-01  1.0000000000000007e+00  1.0000000000000000e+00  9.9999999999999911e-01  1.0000000000000000e+00  9.9999999999999989e-01  9.9999999999999956e-01  1.0000000000000004e+00  1.0000000000000004e+00  9.9999999999999989e-01  1.0000000000000002e+00  1.0000000000000002e+00  9.9999999999999978e-01  9.9999999999999956e-01  1.0000000000000002e+00  1.0000000000000002e+00  9.9999999999999944e-01  1.0000000000000002e+00  1.0000000000000000e+00  1.0000000000000000e+00  1.0000000000000000e+00  9.9999999999999900e-01  9.9999999999999978e-01  9.9999999999999956e-01  9.9999999999999989e-01  9.9999999999999911e-01  1.0000000000000002e+00  1.0000000000000007e+00  1.0000000000000002e+00  1.0000000000000004e+00  1.0000000000000000e+00  1.0000000000000000e+00  1.0000000000000000e+00  9.9999999999999978e-01  9.9999999999999989e-01  9.9999999999999978e-01  9.9999999999999944e-01  1.0000000000000000e+00  1.0000000000000000e+00  9.9999999999999967e-01  1.0000000000000000e+00  9.9999999999999989e-01  1.0000000000000000e+00  1.0000000000000002e+00  1.0000000000000002e+00  1.0000000000000000e+00  1.0000000000000002e+00  1.0000000000000002e+00  1.0000000000000000e+00  1.0000000000000002e+00  1.0000000000000000e+00  1.0000000000000000e+00  9.9999999999999978e-01  9.9999999999999944e-01  9.9999999999999911e-01  9.9999999999999811e-01  9.9999999999999911e-01  9.9999999999999978e-01  1.0000000000000000e+00  9.9999999999999922e-01  1.0000000000000007e+00  1.0000000000000004e+00  1.0000000000000011e+00  1.0000000000000004e+00  1.0000000000000002e+00  1.0000000000000004e+00  1.0000000000000002e+00  1.0000000000000004e+00  1.0000000000000000e+00  9.9999999999999867e-01  9.9999999999999489e-01  9.9999999999999101e-01  9.9999999999998246e-01  9.9999999999997069e-01  9.9999999999994849e-01  9.9999999999991285e-01  9.9999999999984546e-01  9.9999999999970346e-01  9.9999999999936828e-01  9.9999999999853884e-01  9.9999999999651157e-01  9.9999999999175582e-01  9.9999999998118350e-01  9.9999999995900091e-01  9.9999999991508937e-01  9.9999999983306620e-01  9.9999999968844000e-01  9.9999999944772588e-01  9.9999999906980364e-01  9.9999999851087407e-01  9.9999999773377768e-01  9.9999999672114182e-01  9.9999999548959173e-01  9.9999999409991991e-01  9.9999999265738937e-01  9.9999999129856931e-01  9.9999999016571139e-01  9.9999998937612589e-01  9.9999998899913389e-01  9.9999998905099297e-01  9.9999998950808444e-01  9.9999999032821574e-01  9.9999999146494467e-01  9.9999999286286889e-01  9.9999999443849230e-01  9.9999999607019174e-01  9.9999999761561575e-01  9.9999999894865299e-01  9.9999999999371258e-01  1.0000000007366618e+00  1.0000000012021488e+00  1.0000000014190273e+00  1.0000000014171742e+00  1.0000000012530019e+00  1.0000000010105292e+00  1.0000000007659982e+00  1.0000000005595788e+00  1.0000000003938616e+00  1.0000000002529252e+00  1.0000000001372249e+00  1.0000000000708609e+00  1.0000000000534148e+00  1.0000000000413221e+00  1.0000000000115259e+00  9.9999999999204103e-01  9.9999999999985356e-01  1.0000000000110865e+00  1.0000000000072431e+00  9.9999999999521005e-01  9.9999999998945666e-01  1.0000000000010458e+00  1.0000000000149123e+00  1.0000000000009159e+00  9.9999999998084688e-01  9.9999999999995981e-01  1.0000000000224347e+00  9.9999999999639788e-01  9.9999999997642275e-01  1.0000000000091274e+00  1.0000000000216780e+00  9.9999999998505540e-01  9.9999999998341438e-01  1.0000000000192368e+00  1.0000000000091145e+00  9.9999999997944566e-01  9.9999999999911360e-01  1.0000000000183622e+00  9.9999999999383071e-01  9.9999999998676858e-01  1.0000000000104832e+00  1.0000000000066513e+00  9.9999999998861089e-01  9.9999999999954581e-01  1.0000000000093126e+00  9.9999999999615097e-01  9.9999999999448463e-01  1.0000000000055818e+00  1.0000000000015596e+00  9.9999999999498967e-01  1.0000000000013145e+00  1.0000000000030838e+00  9.9999999999743949e-01  9.9999999999906730e-01  1.0000000000023654e+00  9.9999999999940292e-01  9.9999999999862488e-01  1.0000000000011904e+00  1.0000000000003109e+00  9.9999999999898537e-01  1.0000000000003686e+00  1.0000000000004918e+00  9.9999999999945410e-01  9.9999999999999012e-01  1.0000000000003804e+00  9.9999999999977407e-01  9.9999999999988165e-01  1.0000000000002269e+00  9.9999999999993405e-01  9.9999999999989064e-01  1.0000000000001150e+00  9.9999999999999800e-01  9.9999999999992772e-01  1.0000000000000508e+00  1.0000000000000140e+00  9.9999999999995892e-01  1.0000000000000204e+00  1.0000000000000129e+00  9.9999999999997924e-01  1.0000000000000078e+00  1.0000000000000080e+00  9.9999999999998990e-01  1.0000000000000016e+00  1.0000000000000056e+00  9.9999999999999423e-01  1.0000000000000007e+00  1.0000000000000038e+00  9.9999999999999678e-01  9.9999999999999967e-01  1.0000000000000011e+00  9.9999999999999978e-01  9.9999999999999967e-01  1.0000000000000011e+00  9.9999999999999922e-01  1.0000000000000000e+00  1.0000000000000007e+00  1.0000000000000004e+00  9.9999999999999922e-01  1.0000000000000009e+00  1.0000000000000002e+00  1.0000000000000002e+00  1.0000000000000002e+00  1.0000000000000002e+00  1.0000000000000000e+00  1.0000000000000002e+00  1.0000000000000002e+00  1.0000000000000002e+00  9.9999999999999933e-01  1.0000000000000004e+00  9.9999999999999944e-01  9.9999999999999989e-01  1.0000000000000000e+00  9.9999999999999856e-01  9.9999999999999933e-01  9.9999999999999889e-01  9.9999999999999989e-01  9.9999999999999989e-01  1.0000000000000000e+00  1.0000000000000002e+00  1.0000000000000000e+00  9.9999999999999911e-01  1.0000000000000000e+00  9.9999999999999989e-01  9.9999999999999933e-01  9.9999999999999944e-01  1.0000000000000000e+00  9.9999999999999989e-01  9.9999999999999933e-01  9.9999999999999989e-01  9.9999999999999967e-01  9.9999999999999967e-01  9.9999999999999967e-01  1.0000000000000000e+00  9.9999999999999967e-01  9.9999999999999989e-01  9.9999999999999978e-01  1.0000000000000000e+00  9.9999999999999978e-01  1.0000000000000000e+00  9.9999999999999956e-01  9.9999999999999967e-01  9.9999999999999944e-01  1.0000000000000000e+00  1.0000000000000000e+00  9.9999999999999933e-01  9.9999999999999944e-01  9.9999999999999922e-01  9.9999999999999911e-01  9.9999999999999978e-01  9.9999999999999944e-01  9.9999999999999878e-01  1.0000000000000000e+00  1.0000000000000000e+00  1.0000000000000002e+00  1.0000000000000000e+00  1.0000000000000000e+00  1.0000000000000002e+00  9.9999999999999978e-01  9.9999999999999956e-01  1.0000000000000007e+00  1.0000000000000002e+00  1.0000000000000020e+00  1.0000000000000029e+00  1.0000000000000062e+00  1.0000000000000122e+00  1.0000000000000229e+00  1.0000000000000380e+00  1.0000000000000602e+00  1.0000000000000975e+00  1.0000000000001728e+00  1.0000000000003568e+00  1.0000000000008660e+00  1.0000000000022342e+00  1.0000000000056997e+00  1.0000000000138851e+00  1.0000000000319085e+00  1.0000000000690503e+00  1.0000000001408902e+00  1.0000000002715683e+00  1.0000000004954492e+00  1.0000000008568186e+00  1.0000000014060786e+00  1.0000000021911470e+00  1.0000000032441103e+00  1.0000000045651114e+00  1.0000000061083429e+00  1.0000000077767910e+00  1.0000000094310293e+00  1.0000000109127714e+00  1.0000000120775332e+00  1.0000000128240740e+00  1.0000000131067801e+00  1.0000000129264612e+00  1.0000000123087922e+00  1.0000000112863645e+00  1.0000000098990205e+00  1.0000000082151645e+00  1.0000000063530525e+00  1.0000000044725099e+00  1.0000000027354274e+00  1.0000000012623540e+00  1.0000000001097684e+00  9.9999999928024130e-01  9.9999999875852086e-01  9.9999999853038435e-01  9.9999999855532173e-01  9.9999999874348555e-01  9.9999999899047254e-01  9.9999999922801930e-01  9.9999999943376161e-01  9.9999999961288366e-01  9.9999999976887133e-01  9.9999999987852894e-01  9.9999999992218802e-01  9.9999999993543520e-01  9.9999999996790101e-01  1.0000000000044991e+00  1.0000000000054929e+00  9.9999999998743527e-01  9.9999999998748113e-01  1.0000000000022635e+00  1.0000000000113693e+00  1.0000000000046139e+00  9.9999999998701283e-01  9.9999999998911837e-01  1.0000000000163713e+00  1.0000000000143638e+00  9.9999999997853861e-01  9.9999999998601974e-01  1.0000000000268421e+00  1.0000000000093592e+00  9.9999999996946820e-01  9.9999999999868028e-01  1.0000000000306843e+00  9.9999999999182732e-01  9.9999999997360822e-01  1.0000000000165370e+00  1.0000000000181513e+00  9.9999999997857092e-01  9.9999999999218570e-01  1.0000000000215901e+00  9.9999999999796219e-01  9.9999999998270095e-01  1.0000000000090346e+00  1.0000000000102420e+00  9.9999999998813127e-01  9.9999999999719935e-01  1.0000000000106948e+00  9.9999999999713274e-01  9.9999999999308486e-01  1.0000000000055997e+00  1.0000000000024656e+00  9.9999999999451916e-01  1.0000000000009865e+00  1.0000000000035489e+00  9.9999999999737921e-01  9.9999999999882494e-01  1.0000000000025457e+00  9.9999999999942768e-01  9.9999999999850164e-01  1.0000000000012634e+00  1.0000000000003235e+00  9.9999999999892342e-01  1.0000000000004146e+00  1.0000000000004960e+00  9.9999999999941080e-01  1.0000000000000220e+00  1.0000000000003866e+00  9.9999999999974043e-01  9.9999999999990352e-01  1.0000000000002349e+00  9.9999999999990963e-01  9.9999999999990230e-01  1.0000000000001239e+00  9.9999999999997957e-01  9.9999999999993205e-01  1.0000000000000593e+00  1.0000000000000018e+00  9.9999999999996003e-01  1.0000000000000258e+00  1.0000000000000062e+00  9.9999999999997768e-01  1.0000000000000104e+00  1.0000000000000053e+00  9.9999999999998801e-01  1.0000000000000044e+00  1.0000000000000040e+00  9.9999999999999323e-01  1.0000000000000018e+00  1.0000000000000027e+00  9.9999999999999678e-01  1.0000000000000002e+00  9.9999999999999922e-01  9.9999999999999822e-01  9.9999999999999956e-01  1.0000000000000002e+00  9.9999999999999811e-01  9.9999999999999900e-01  1.0000000000000000e+00  1.0000000000000002e+00  9.9999999999999978e-01  1.0000000000000007e+00  1.0000000000000000e+00  9.9999999999999989e-01  1.0000000000000002e+00  1.0000000000000002e+00  9.9999999999999933e-01  9.9999999999999933e-01  1.0000000000000002e+00  1.0000000000000002e+00  1.0000000000000000e+00  1.0000000000000011e+00  9.9999999999999944e-01  9.9999999999999989e-01  1.0000000000000000e+00  1.0000000000000000e+00  9.9999999999999944e-01  1.0000000000000002e+00  9.9999999999999922e-01  9.9999999999999967e-01  9.9999999999999911e-01  1.0000000000000002e+00  1.0000000000000004e+00  1.0000000000000000e+00  9.9999999999999956e-01  1.0000000000000000e+00  1.0000000000000000e+00  9.9999999999999933e-01  9.9999999999999967e-01  9.9999999999999933e-01  9.9999999999999956e-01  9.9999999999999989e-01  9.9999999999999967e-01  1.0000000000000000e+00  1.0000000000000000e+00  1.0000000000000000e+00  1.0000000000000000e+00  1.0000000000000004e+00  1.0000000000000000e+00  9.9999999999999978e-01  1.0000000000000002e+00  1.0000000000000002e+00  9.9999999999999989e-01  1.0000000000000002e+00  9.9999999999999978e-01  1.0000000000000000e+00  1.0000000000000002e+00  9.9999999999999978e-01  9.9999999999999933e-01  9.9999999999999956e-01  9.9999999999999900e-01  9.9999999999999967e-01  9.9999999999999978e-01  9.9999999999999967e-01  9.9999999999999889e-01  1.0000000000000002e+00  1.0000000000000007e+00  1.0000000000000007e+00  1.0000000000000002e+00  1.0000000000000002e+00  1.0000000000000002e+00  1.0000000000000002e+00  9.9999999999999911e-01  9.9999999999999667e-01  9.9999999999999412e-01  9.9999999999998790e-01  9.9999999999998157e-01  9.9999999999997091e-01  9.9999999999995981e-01  9.9999999999994815e-01  9.9999999999993039e-01  9.9999999999987321e-01  9.9999999999964095e-01  9.9999999999884048e-01  9.9999999999649336e-01  9.9999999999037004e-01  9.9999999997591782e-01  9.9999999994452282e-01  9.9999999988114496e-01  9.9999999976156140e-01  9