<?xml version="1.0"?>
<VTKFile type="UnstructuredGrid"  version="0.1"  >
<UnstructuredGrid>
<Piece  NumberOfPoints="8241" NumberOfCells="16000">
<Points>
<DataArray  type="Float64"  NumberOfComponents="3"  format="ascii">-5 -1 0  -4.95 -1 0  -4.9 -1 0  -4.85 -1 0  -4.8 -1 0  -4.75 -1 0  -4.7 -1 0  -4.65 -1 0  -4.6 -1 0  -4.55 -1 0  -4.5 -1 0  -4.45 -1 0  -4.4 -1 0  -4.35 -1 0  -4.3 -1 0  -4.25 -1 0  -4.2 -1 0  -4.15 -1 0  -4.1 -1 0  -4.05 -1 0  -4 -1 0  -3.95 -1 0  -3.9 -1 0  -3.85 -1 0  -3.8 -1 0  -3.75 -1 0  -3.7 -1 0  -3.65 -1 0  -3.6 -1 0  -3.55 -1 0  -3.5 -1 0  -3.45 -1 0  -3.4 -1 0  -3.35 -1 0  -3.3 -1 0  -3.25 -1 0  -3.2 -1 0  -3.15 -1 0  -3.1 -1 0  -3.05 -1 0  -3 -1 0  -2.95 -1 0  -2.9 -1 0  -2.85 -1 0  -2.8 -1 0  -2.75 -1 0  -2.7 -1 0  -2.65 -1 0  -2.6 -1 0  -2.55 -1 0  -2.5 -1 0  -2.45 -1 0  -2.4 -1 0  -2.35 -1 0  -2.3 -1 0  -2.25 -1 0  -2.2 -1 0  -2.15 -1 0  -2.1 -1 0  -2.05 -1 0  -2 -1 0  -1.95 -1 0  -1.9 -1 0  -1.85 -1 0  -1.8 -1 0  -1.75 -1 0  -1.7 -1 0  -1.65 -1 0  -1.6 -1 0  -1.55 -1 0  -1.5 -1 0  -1.45 -1 0  -1.4 -1 0  -1.35 -1 0  -1.3 -1 0  -1.25 -1 0  -1.2 -1 0  -1.15 -1 0  -1.1 -1 0  -1.05 -1 0  -1 -1 0  -0.9500000000000002 -1 0  -0.9000000000000004 -1 0  -0.8499999999999996 -1 0  -0.7999999999999998 -1 0  -0.75 -1 0  -0.7000000000000002 -1 0  -0.6500000000000004 -1 0  -0.5999999999999996 -1 0  -0.5499999999999998 -1 0  -0.5 -1 0  -0.4500000000000002 -1 0  -0.4000000000000004 -1 0  -0.3499999999999996 -1 0  -0.2999999999999998 -1 0  -0.25 -1 0  -0.2000000000000002 -1 0  -0.1500000000000004 -1 0  -0.09999999999999964 -1 0  -0.04999999999999982 -1 0  0 -1 0  0.04999999999999982 -1 0  0.09999999999999964 -1 0  0.1500000000000004 -1 0  0.2000000000000002 -1 0  0.25 -1 0  0.2999999999999998 -1 0  0.3499999999999996 -1 0  0.4000000000000004 -1 0  0.4500000000000002 -1 0  0.5 -1 0  0.5499999999999998 -1 0  0.5999999999999996 -1 0  0.6500000000000004 -1 0  0.7000000000000002 -1 0  0.75 -1 0  0.7999999999999998 -1 0  0.8499999999999996 -1 0  0.9000000000000004 -1 0  0.9500000000000002 -1 0  1 -1 0  1.05 -1 0  1.1 -1 0  1.15 -1 0  1.2 -1 0  1.25 -1 0  1.3 -1 0  1.35 -1 0  1.4 -1 0  1.45 -1 0  1.5 -1 0  1.55 -1 0  1.6 -1 0  1.65 -1 0  1.7 -1 0  1.75 -1 0  1.8 -1 0  1.85 -1 0  1.9 -1 0  1.95 -1 0  2 -1 0  2.05 -1 0  2.1 -1 0  2.15 -1 0  2.2 -1 0  2.25 -1 0  2.3 -1 0  2.35 -1 0  2.4 -1 0  2.45 -1 0  2.5 -1 0  2.55 -1 0  2.6 -1 0  2.65 -1 0  2.7 -1 0  2.75 -1 0  2.8 -1 0  2.85 -1 0  2.9 -1 0  2.95 -1 0  3 -1 0  3.050000000000001 -1 0  3.1 -1 0  3.15 -1 0  3.199999999999999 -1 0  3.25 -1 0  3.300000000000001 -1 0  3.35 -1 0  3.4 -1 0  3.449999999999999 -1 0  3.5 -1 0  3.550000000000001 -1 0  3.6 -1 0  3.65 -1 0  3.699999999999999 -1 0  3.75 -1 0  3.800000000000001 -1 0  3.85 -1 0  3.9 -1 0  3.949999999999999 -1 0  4 -1 0  4.050000000000001 -1 0  4.1 -1 0  4.15 -1 0  4.199999999999999 -1 0  4.25 -1 0  4.300000000000001 -1 0  4.35 -1 0  4.4 -1 0  4.449999999999999 -1 0  4.5 -1 0  4.550000000000001 -1 0  4.6 -1 0  4.65 -1 0  4.699999999999999 -1 0  4.75 -1 0  4.800000000000001 -1 0  4.85 -1 0  4.9 -1 0  4.949999999999999 -1 0  5 -1 0  -5 -0.95 0  -4.95 -0.95 0  -4.9 -0.95 0  -4.85 -0.95 0  -4.8 -0.95 0  -4.75 -0.95 0  -4.7 -0.95 0  -4.65 -0.95 0  -4.6 -0.95 0  -4.55 -0.95 0  -4.5 -0.95 0  -4.45 -0.95 0  -4.4 -0.95 0  -4.35 -0.95 0  -4.3 -0.95 0  -4.25 -0.95 0  -4.2 -0.95 0  -4.15 -0.95 0  -4.1 -0.95 0  -4.05 -0.95 0  -4 -0.95 0  -3.95 -0.95 0  -3.9 -0.95 0  -3.85 -0.95 0  -3.8 -0.95 0  -3.75 -0.95 0  -3.7 -0.95 0  -3.65 -0.95 0  -3.6 -0.95 0  -3.55 -0.95 0  -3.5 -0.95 0  -3.45 -0.95 0  -3.4 -0.95 0  -3.35 -0.95 0  -3.3 -0.95 0  -3.25 -0.95 0  -3.2 -0.95 0  -3.15 -0.95 0  -3.1 -0.95 0  -3.05 -0.95 0  -3 -0.95 0  -2.95 -0.95 0  -2.9 -0.95 0  -2.85 -0.95 0  -2.8 -0.95 0  -2.75 -0.95 0  -2.7 -0.95 0  -2.65 -0.95 0  -2.6 -0.95 0  -2.55 -0.95 0  -2.5 -0.95 0  -2.45 -0.95 0  -2.4 -0.95 0  -2.35 -0.95 0  -2.3 -0.95 0  -2.25 -0.95 0  -2.2 -0.95 0  -2.15 -0.95 0  -2.1 -0.95 0  -2.05 -0.95 0  -2 -0.95 0  -1.95 -0.95 0  -1.9 -0.95 0  -1.85 -0.95 0  -1.8 -0.95 0  -1.75 -0.95 0  -1.7 -0.95 0  -1.65 -0.95 0  -1.6 -0.95 0  -1.55 -0.95 0  -1.5 -0.95 0  -1.45 -0.95 0  -1.4 -0.95 0  -1.35 -0.95 0  -1.3 -0.95 0  -1.25 -0.95 0  -1.2 -0.95 0  -1.15 -0.95 0  -1.1 -0.95 0  -1.05 -0.95 0  -1 -0.95 0  -0.9500000000000002 -0.95 0  -0.9000000000000004 -0.95 0  -0.8499999999999996 -0.95 0  -0.7999999999999998 -0.95 0  -0.75 -0.95 0  -0.7000000000000002 -0.95 0  -0.6500000000000004 -0.95 0  -0.5999999999999996 -0.95 0  -0.5499999999999998 -0.95 0  -0.5 -0.95 0  -0.4500000000000002 -0.95 0  -0.4000000000000004 -0.95 0  -0.3499999999999996 -0.95 0  -0.2999999999999998 -0.95 0  -0.25 -0.95 0  -0.2000000000000002 -0.95 0  -0.1500000000000004 -0.95 0  -0.09999999999999964 -0.95 0  -0.04999999999999982 -0.95 0  0 -0.95 0  0.04999999999999982 -0.95 0  0.09999999999999964 -0.95 0  0.1500000000000004 -0.95 0  0.2000000000000002 -0.95 0  0.25 -0.95 0  0.2999999999999998 -0.95 0  0.3499999999999996 -0.95 0  0.4000000000000004 -0.95 0  0.4500000000000002 -0.95 0  0.5 -0.95 0  0.5499999999999998 -0.95 0  0.5999999999999996 -0.95 0  0.6500000000000004 -0.95 0  0.7000000000000002 -0.95 0  0.75 -0.95 0  0.7999999999999998 -0.95 0  0.8499999999999996 -0.95 0  0.9000000000000004 -0.95 0  0.9500000000000002 -0.95 0  1 -0.95 0  1.05 -0.95 0  1.1 -0.95 0  1.15 -0.95 0  1.2 -0.95 0  1.25 -0.95 0  1.3 -0.95 0  1.35 -0.95 0  1.4 -0.95 0  1.45 -0.95 0  1.5 -0.95 0  1.55 -0.95 0  1.6 -0.95 0  1.65 -0.95 0  1.7 -0.95 0  1.75 -0.95 0  1.8 -0.95 0  1.85 -0.95 0  1.9 -0.95 0  1.95 -0.95 0  2 -0.95 0  2.05 -0.95 0  2.1 -0.95 0  2.15 -0.95 0  2.2 -0.95 0  2.25 -0.95 0  2.3 -0.95 0  2.35 -0.95 0  2.4 -0.95 0  2.45 -0.95 0  2.5 -0.95 0  2.55 -0.95 0  2.6 -0.95 0  2.65 -0.95 0  2.7 -0.95 0  2.75 -0.95 0  2.8 -0.95 0  2.85 -0.95 0  2.9 -0.95 0  2.95 -0.95 0  3 -0.95 0  3.050000000000001 -0.95 0  3.1 -0.95 0  3.15 -0.95 0  3.199999999999999 -0.95 0  3.25 -0.95 0  3.300000000000001 -0.95 0  3.35 -0.95 0  3.4 -0.95 0  3.449999999999999 -0.95 0  3.5 -0.95 0  3.550000000000001 -0.95 0  3.6 -0.95 0  3.65 -0.95 0  3.699999999999999 -0.95 0  3.75 -0.95 0  3.800000000000001 -0.95 0  3.85 -0.95 0  3.9 -0.95 0  3.949999999999999 -0.95 0  4 -0.95 0  4.050000000000001 -0.95 0  4.1 -0.95 0  4.15 -0.95 0  4.199999999999999 -0.95 0  4.25 -0.95 0  4.300000000000001 -0.95 0  4.35 -0.95 0  4.4 -0.95 0  4.449999999999999 -0.95 0  4.5 -0.95 0  4.550000000000001 -0.95 0  4.6 -0.95 0  4.65 -0.95 0  4.699999999999999 -0.95 0  4.75 -0.95 0  4.800000000000001 -0.95 0  4.85 -0.95 0  4.9 -0.95 0  4.949999999999999 -0.95 0  5 -0.95 0  -5 -0.9 0  -4.95 -0.9 0  -4.9 -0.9 0  -4.85 -0.9 0  -4.8 -0.9 0  -4.75 -0.9 0  -4.7 -0.9 0  -4.65 -0.9 0  -4.6 -0.9 0  -4.55 -0.9 0  -4.5 -0.9 0  -4.45 -0.9 0  -4.4 -0.9 0  -4.35 -0.9 0  -4.3 -0.9 0  -4.25 -0.9 0  -4.2 -0.9 0  -4.15 -0.9 0  -4.1 -0.9 0  -4.05 -0.9 0  -4 -0.9 0  -3.95 -0.9 0  -3.9 -0.9 0  -3.85 -0.9 0  -3.8 -0.9 0  -3.75 -0.9 0  -3.7 -0.9 0  -3.65 -0.9 0  -3.6 -0.9 0  -3.55 -0.9 0  -3.5 -0.9 0  -3.45 -0.9 0  -3.4 -0.9 0  -3.35 -0.9 0  -3.3 -0.9 0  -3.25 -0.9 0  -3.2 -0.9 0  -3.15 -0.9 0  -3.1 -0.9 0  -3.05 -0.9 0  -3 -0.9 0  -2.95 -0.9 0  -2.9 -0.9 0  -2.85 -0.9 0  -2.8 -0.9 0  -2.75 -0.9 0  -2.7 -0.9 0  -2.65 -0.9 0  -2.6 -0.9 0  -2.55 -0.9 0  -2.5 -0.9 0  -2.45 -0.9 0  -2.4 -0.9 0  -2.35 -0.9 0  -2.3 -0.9 0  -2.25 -0.9 0  -2.2 -0.9 0  -2.15 -0.9 0  -2.1 -0.9 0  -2.05 -0.9 0  -2 -0.9 0  -1.95 -0.9 0  -1.9 -0.9 0  -1.85 -0.9 0  -1.8 -0.9 0  -1.75 -0.9 0  -1.7 -0.9 0  -1.65 -0.9 0  -1.6 -0.9 0  -1.55 -0.9 0  -1.5 -0.9 0  -1.45 -0.9 0  -1.4 -0.9 0  -1.35 -0.9 0  -1.3 -0.9 0  -1.25 -0.9 0  -1.2 -0.9 0  -1.15 -0.9 0  -1.1 -0.9 0  -1.05 -0.9 0  -1 -0.9 0  -0.9500000000000002 -0.9 0  -0.9000000000000004 -0.9 0  -0.8499999999999996 -0.9 0  -0.7999999999999998 -0.9 0  -0.75 -0.9 0  -0.7000000000000002 -0.9 0  -0.6500000000000004 -0.9 0  -0.5999999999999996 -0.9 0  -0.5499999999999998 -0.9 0  -0.5 -0.9 0  -0.4500000000000002 -0.9 0  -0.4000000000000004 -0.9 0  -0.3499999999999996 -0.9 0  -0.2999999999999998 -0.9 0  -0.25 -0.9 0  -0.2000000000000002 -0.9 0  -0.1500000000000004 -0.9 0  -0.09999999999999964 -0.9 0  -0.04999999999999982 -0.9 0  0 -0.9 0  0.04999999999999982 -0.9 0  0.09999999999999964 -0.9 0  0.1500000000000004 -0.9 0  0.2000000000000002 -0.9 0  0.25 -0.9 0  0.2999999999999998 -0.9 0  0.3499999999999996 -0.9 0  0.4000000000000004 -0.9 0  0.4500000000000002 -0.9 0  0.5 -0.9 0  0.5499999999999998 -0.9 0  0.5999999999999996 -0.9 0  0.6500000000000004 -0.9 0  0.7000000000000002 -0.9 0  0.75 -0.9 0  0.7999999999999998 -0.9 0  0.8499999999999996 -0.9 0  0.9000000000000004 -0.9 0  0.9500000000000002 -0.9 0  1 -0.9 0  1.05 -0.9 0  1.1 -0.9 0  1.15 -0.9 0  1.2 -0.9 0  1.25 -0.9 0  1.3 -0.9 0  1.35 -0.9 0  1.4 -0.9 0  1.45 -0.9 0  1.5 -0.9 0  1.55 -0.9 0  1.6 -0.9 0  1.65 -0.9 0  1.7 -0.9 0  1.75 -0.9 0  1.8 -0.9 0  1.85 -0.9 0  1.9 -0.9 0  1.95 -0.9 0  2 -0.9 0  2.05 -0.9 0  2.1 -0.9 0  2.15 -0.9 0  2.2 -0.9 0  2.25 -0.9 0  2.3 -0.9 0  2.35 -0.9 0  2.4 -0.9 0  2.45 -0.9 0  2.5 -0.9 0  2.55 -0.9 0  2.6 -0.9 0  2.65 -0.9 0  2.7 -0.9 0  2.75 -0.9 0  2.8 -0.9 0  2.85 -0.9 0  2.9 -0.9 0  2.95 -0.9 0  3 -0.9 0  3.050000000000001 -0.9 0  3.1 -0.9 0  3.15 -0.9 0  3.199999999999999 -0.9 0  3.25 -0.9 0  3.300000000000001 -0.9 0  3.35 -0.9 0  3.4 -0.9 0  3.449999999999999 -0.9 0  3.5 -0.9 0  3.550000000000001 -0.9 0  3.6 -0.9 0  3.65 -0.9 0  3.699999999999999 -0.9 0  3.75 -0.9 0  3.800000000000001 -0.9 0  3.85 -0.9 0  3.9 -0.9 0  3.949999999999999 -0.9 0  4 -0.9 0  4.050000000000001 -0.9 0  4.1 -0.9 0  4.15 -0.9 0  4.199999999999999 -0.9 0  4.25 -0.9 0  4.300000000000001 -0.9 0  4.35 -0.9 0  4.4 -0.9 0  4.449999999999999 -0.9 0  4.5 -0.9 0  4.550000000000001 -0.9 0  4.6 -0.9 0  4.65 -0.9 0  4.699999999999999 -0.9 0  4.75 -0.9 0  4.800000000000001 -0.9 0  4.85 -0.9 0  4.9 -0.9 0  4.949999999999999 -0.9 0  5 -0.9 0  -5 -0.85 0  -4.95 -0.85 0  -4.9 -0.85 0  -4.85 -0.85 0  -4.8 -0.85 0  -4.75 -0.85 0  -4.7 -0.85 0  -4.65 -0.85 0  -4.6 -0.85 0  -4.55 -0.85 0  -4.5 -0.85 0  -
[...]
<PointData  Vectors="f_15"> 
<DataArray  type="Float64"  Name="f_15"  NumberOfComponents="3" format="ascii">8.1336677323583597e+00 0.0000000000000000e+00 0.0000000000000000e+00  8.1325380691223828e+00 8.8846103623613434e-02 0.0000000000000000e+00  8.1312548083662062e+00 1.7447703249852201e-01 0.0000000000000000e+00  8.1275243559183998e+00 2.6380176537681005e-01 0.0000000000000000e+00  8.1236583399426472e+00 3.4892711906887680e-01 0.0000000000000000e+00  8.1176106119905551e+00 4.3771155745332091e-01 0.0000000000000000e+00  8.1109829653392502e+00 5.2244410446021294e-01 0.0000000000000000e+00  8.1024929198034652e+00 6.1049783064898833e-01 0.0000000000000000e+00  8.0933127740973969e+00 6.9454542777072648e-01 0.0000000000000000e+00  8.0822181908948441e+00 7.8159719156392327e-01 0.0000000000000000e+00  8.0703524554291182e+00 8.6486817370029045e-01 0.0000000000000000e+00  8.0568557043079618e+00 9.5071837165231177e-01 0.0000000000000000e+00  8.0421333224382021e+00 1.0327690859648042e+00 0.0000000000000000e+00  8.0260931759940384e+00 1.1173671783224230e+00 0.0000000000000000e+00  8.0087564533262725e+00 1.1984052097535738e+00 0.0000000000000000e+00  7.9899346788068248e+00 1.2803838317451235e+00 0.0000000000000000e+00  7.9699483956966644e+00 1.3617792441805701e+00 0.0000000000000000e+00  7.9485113448091145e+00 1.4399294918657599e+00 0.0000000000000000e+00  7.9257185897873352e+00 1.5213886906743557e+00 0.0000000000000000e+00  7.9016291795117608e+00 1.5966824808346793e+00 0.0000000000000000e+00  7.8762317945206872e+00 1.6772528223237382e+00 0.0000000000000000e+00  7.8493546040776190e+00 1.7485315867639950e+00 0.0000000000000000e+00  7.8213882417789975e+00 1.8317423710652898e+00 0.0000000000000000e+00  7.7919173818335574e+00 1.8940019083807602e+00 0.0000000000000000e+00  7.7613375525156947e+00 1.9828676066448230e+00 0.0000000000000000e+00  7.7293326117364511e+00 2.0385591815298465e+00 0.0000000000000000e+00  7.6963907322721061e+00 2.1234768115901548e+00 0.0000000000000000e+00  7.6618719145014849e+00 2.1867212913145000e+00 0.0000000000000000e+00  7.6266598659945730e+00 2.2558009422863048e+00 0.0000000000000000e+00  7.5899467992779295e+00 2.3290518474350903e+00 0.0000000000000000e+00  7.5525622245305728e+00 2.3924095764211564e+00 0.0000000000000000e+00  7.5136913822673144e+00 2.4581189594800699e+00 0.0000000000000000e+00  7.4746861450891897e+00 2.5307741788699416e+00 0.0000000000000000e+00  7.4335903106974479e+00 2.5861429949336880e+00 0.0000000000000000e+00  7.3931621437872970e+00 2.6580441281744545e+00 0.0000000000000000e+00  7.3504136500296386e+00 2.7187601398293224e+00 0.0000000000000000e+00  7.3084494198049565e+00 2.7802439691315892e+00 0.0000000000000000e+00  7.2643341023698529e+00 2.8450130813517815e+00 0.0000000000000000e+00  7.2213722669676299e+00 2.9055013711073587e+00 0.0000000000000000e+00  7.1758418223982110e+00 2.9664652997010665e+00 0.0000000000000000e+00  7.1320246640553764e+00 3.0270040047515923e+00 0.0000000000000000e+00  7.0857684740116094e+00 3.0889951727811318e+00 0.0000000000000000e+00  7.0409278392316974e+00 3.1462297065803004e+00 0.0000000000000000e+00  6.9940342036336807e+00 3.2079934790769871e+00 0.0000000000000000e+00  6.9489551824420133e+00 3.2660648401172252e+00 0.0000000000000000e+00  6.9011165289097969e+00 3.3260984100219320e+00 0.0000000000000000e+00  6.8558733328582315e+00 3.3835555494594161e+00 0.0000000000000000e+00  6.8079215248000864e+00 3.4436820681771922e+00 0.0000000000000000e+00  6.7619446091884452e+00 3.5012474318937263e+00 0.0000000000000000e+00  6.7143105289556511e+00 3.5600289642491840e+00 0.0000000000000000e+00  6.6679088622192522e+00 3.6182808718577339e+00 0.0000000000000000e+00  6.6203521370032901e+00 3.6762641957803153e+00 0.0000000000000000e+00  6.5738414371635647e+00 3.7350200907010134e+00 0.0000000000000000e+00  6.5264742748978115e+00 3.7925654725031861e+00 0.0000000000000000e+00  6.4797739624202597e+00 3.8510933158778262e+00 0.0000000000000000e+00  6.4328592516445227e+00 3.9088673124508415e+00 0.0000000000000000e+00  6.3858424544121233e+00 3.9676448763322649e+00 0.0000000000000000e+00  6.3396513262650060e+00 4.0247541680349448e+00 0.0000000000000000e+00  6.2921913080952443e+00 4.0843143195392599e+00 0.0000000000000000e+00  6.2467419804625433e+00 4.1409009071864080e+00 0.0000000000000000e+00  6.1991740661657984e+00 4.2008138205236838e+00 0.0000000000000000e+00  6.1541402728361279e+00 4.2574506118397526e+00 0.0000000000000000e+00  6.1065668696546309e+00 4.3176103377006978e+00 0.0000000000000000e+00  6.0622787369821491e+00 4.3737029472109370e+00 0.0000000000000000e+00  6.0143729262274892e+00 4.4347790837674363e+00 0.0000000000000000e+00  5.9707986488904385e+00 4.4904987551769668e+00 0.0000000000000000e+00  5.9230460840561427e+00 4.5517294049773875e+00 0.0000000000000000e+00  5.8798049499663358e+00 4.6074460686867988e+00 0.0000000000000000e+00  5.8320639780784642e+00 4.6693422469027794e+00 0.0000000000000000e+00  5.7896861445486500e+00 4.7242445129837982e+00 0.0000000000000000e+00  5.7418122230594557e+00 4.7868800356884620e+00 0.0000000000000000e+00  5.6996490740357197e+00 4.8419494481196139e+00 0.0000000000000000e+00  5.6526176191729753e+00 4.9041414297936949e+00 0.0000000000000000e+00  5.6104095258962596e+00 4.9595444470083372e+00 0.0000000000000000e+00  5.5634186459936439e+00 5.0222835853640975e+00 0.0000000000000000e+00  5.5222208649892615e+00 5.0768214334301112e+00 0.0000000000000000e+00  5.4752352369814785e+00 5.1401930437319159e+00 0.0000000000000000e+00  5.4338174651793629e+00 5.1952496260248546e+00 0.0000000000000000e+00  5.3882686823188291e+00 5.2573717640426842e+00 0.0000000000000000e+00  5.3463368573440171e+00 5.3135891551075600e+00 0.0000000000000000e+00  5.3012219901628423e+00 5.3756371018059532e+00 0.0000000000000000e+00  5.2599090519637661e+00 5.4313282977116453e+00 0.0000000000000000e+00  5.2151317295329855e+00 5.4936551326597991e+00 0.0000000000000000e+00  5.1734686266086216e+00 5.5502374101769707e+00 0.0000000000000000e+00  5.1300245571335088e+00 5.6111539717937946e+00 0.0000000000000000e+00  5.0878506558689516e+00 5.6688918990470141e+00 0.0000000000000000e+00  5.0451861276164340e+00 5.7293821014123925e+00 0.0000000000000000e+00  5.0033004767407530e+00 5.7871678885028563e+00 0.0000000000000000e+00  4.9609479025408207e+00 5.8473825793567560e+00 0.0000000000000000e+00  4.9193088027162162e+00 5.9057121564772483e+00 0.0000000000000000e+00  4.8772171323201690e+00 5.9660786047340704e+00 0.0000000000000000e+00  4.8358956901597034e+00 6.0239475673952363e+00 0.0000000000000000e+00  4.7942441182369784e+00 6.0844781941622648e+00 0.0000000000000000e+00  4.7538893394963591e+00 6.1418296412243620e+00 0.0000000000000000e+00  4.7110138790503449e+00 6.2038354601062720e+00 0.0000000000000000e+00  4.6730102224018770e+00 6.2587715824362951e+00 0.0000000000000000e+00  4.6259661608303695e+00 6.3275429595659576e+00 0.0000000000000000e+00  4.5932840374272521e+00 6.3746615228262540e+00 0.0000000000000000e+00  4.5487963254266202e+00 6.4404546646454133e+00 0.0000000000000000e+00  4.5113388578734153e+00 6.4953188996294244e+00 0.0000000000000000e+00  4.4686919962399436e+00 6.5590184717845181e+00 0.0000000000000000e+00  4.4357604002694400e+00 6.6065150477884886e+00 0.0000000000000000e+00  4.3860785275965792e+00 6.6821221645960716e+00 0.0000000000000000e+00  4.3527627224164007e+00 6.7308334450829772e+00 0.0000000000000000e+00  4.3094727571981011e+00 6.7971442341933779e+00 0.0000000000000000e+00  4.2734431411647762e+00 6.8501477621894260e+00 0.0000000000000000e+00  4.2307600711952391e+00 6.9169931611282109e+00 0.0000000000000000e+00  4.1948612720861647e+00 6.9692139211097004e+00 0.0000000000000000e+00  4.1563718791691295e+00 7.0307722853266617e+00 0.0000000000000000e+00  4.1213018081910073e+00 7.0830229358397343e+00 0.0000000000000000e+00  4.0827236849088973e+00 7.1447926820209888e+00 0.0000000000000000e+00  4.0455307081219676e+00 7.1993450831222194e+00 0.0000000000000000e+00  4.0079260097437492e+00 7.2614834156086374e+00 0.0000000000000000e+00  3.9721813821270873e+00 7.3143470811611380e+00 0.0000000000000000e+00  3.9372907509734856e+00 7.3718115431064648e+00 0.0000000000000000e+00  3.9027248405618411e+00 7.4243631442879643e+00 0.0000000000000000e+00  3.8717196960917590e+00 7.4769648832477884e+00 0.0000000000000000e+00  3.8372382752260528e+00 7.5262838597602171e+00 0.0000000000000000e+00  3.8020470469374898e+00 7.5875166185158323e+00 0.0000000000000000e+00  3.8130110316424752e+00 7.5667452728629216e+00 0.0000000000000000e+00  3.8718085544283460e+00 7.4769944001717601e+00 0.0000000000000000e+00  3.9132322961745083e+00 7.4053343236568141e+00 0.0000000000000000e+00  3.9327670146100382e+00 7.3794854299389963e+00 0.0000000000000000e+00  3.9388823204563663e+00 7.3645636904155101e+00 0.0000000000000000e+00  3.9442920551489919e+00 7.3622584280429084e+00 0.0000000000000000e+00  3.9458047115900685e+00 7.3527161989396976e+00 0.0000000000000000e+00  3.9487912849584212e+00 7.3554402752157158e+00 0.0000000000000000e+00  3.9516373470074808e+00 7.3444945454366657e+00 0.0000000000000000e+00  3.9525026554175318e+00 7.3481525709005426e+00 0.0000000000000000e+00  3.9570831414327459e+00 7.3387880564166625e+00 0.0000000000000000e+00  3.9531207534066142e+00 7.3439845945195961e+00 0.0000000000000000e+00  3.9602139151416105e+00 7.3374807044946122e+00 0.0000000000000000e+00  3.9515208208055217e+00 7.3397984465611241e+00 0.0000000000000000e+00  3.9650922265034128e+00 7.3393112246820111e+00 0.0000000000000000e+00  3.9480359075561267e+00 7.3326775303694305e+00 0.0000000000000000e+00  3.9714473428658508e+00 7.3425660752817494e+00 0.0000000000000000e+00  3.9434694139431561e+00 7.3280039085655222e+00 0.0000000000000000e+00  3.9769161438076353e+00 7.3432899393936921e+00 0.0000000000000000e+00  3.9391892111111981e+00 7.3255137132266732e+00 0.0000000000000000e+00  3.9826065390156042e+00 7.3456229694888009e+00 0.0000000000000000e+00  3.9339644760873473e+00 7.3188710840870979e+00 0.0000000000000000e+00  3.9883410973354083e+00 7.3524685698502541e+00 0.0000000000000000e+00  3.9300232200840850e+00 7.3109947616695781e+00 0.0000000000000000e+00  3.9909438967036714e+00 7.3585084292579710e+00 0.0000000000000000e+00  3.9286920128916201e+00 7.3035469252626477e+00 0.0000000000000000e+00  3.9930310543559955e+00 7.3680217607080616e+00 0.0000000000000000e+00  3.9254440461912785e+00 7.2895287518650473e+00 0.0000000000000000e+00  3.9974201689992324e+00 7.3826577578875234e+00 0.0000000000000000e+00  3.9218034702390003e+00 7.2769206738977630e+00 0.0000000000000000e+00  3.9993304697849679e+00 7.3893728312478890e+00 0.0000000000000000e+00  3.9214918713021447e+00 7.2738445295256611e+00 0.0000000000000000e+00  3.9996647944391772e+00 7.3918211719766012e+00 0.0000000000000000e+00  3.9200277427271302e+00 7.2681894770899005e+00 0.0000000000000000e+00  4.0018351400066345e+00 7.3985815011783549e+00 0.0000000000000000e+00  3.9189165967860369e+00 7.2639578875245316e+00 0.0000000000000000e+00  4.0000974898103889e+00 7.3959868591625604e+00 0.0000000000000000e+00  3.9231756326787464e+00 7.2720396534574538e+00 0.0000000000000000e+00  3.9948721883202145e+00 7.3869781498570086e+00 0.0000000000000000e+00  3.9275612964077156e+00 7.2770844413534945e+00 0.0000000000000000e+00  3.9913799818543074e+00 7.3852565426813896e+00 0.0000000000000000e+00  3.9309205269408034e+00 7.2795601443276743e+00 0.0000000000000000e+00  3.9869237575375793e+00 7.3773623222016296e+00 0.0000000000000000e+00  3.9357565050792687e+00 7.2921726302699525e+00 0.0000000000000000e+00  3.9823530281938040e+00 7.3646837346027443e+00 0.0000000000000000e+00  3.9396058188180123e+00 7.3000054127816369e+00 0.0000000000000000e+00  3.9781115203735053e+00 7.3607559786578740e+00 0.0000000000000000e+00  3.9443646927986582e+00 7.3039608496176855e+00 0.0000000000000000e+00  3.9735198566856695e+00 7.3525268206949201e+00 0.0000000000000000e+00  3.9462458172035988e+00 7.3136018818653099e+00 0.0000000000000000e+00  3.9745961657791149e+00 7.3455954364455271e+00 0.0000000000000000e+00  3.9445989263226027e+00 7.3131046118692069e+00 0.0000000000000000e+00  3.9727529973679143e+00 7.3479933628314420e+00 0.0000000000000000e+00  3.9503343040322987e+00 7.3126486592438154e+00 0.0000000000000000e+00  3.9666603053777081e+00 7.3408092568453229e+00 0.0000000000000000e+00  3.9505352856283307e+00 7.3184253131504438e+00 0.0000000000000000e+00  3.9735225476291105e+00 7.3386245962791152e+00 0.0000000000000000e+00  3.9416538210839649e+00 7.3085033374077790e+00 0.0000000000000000e+00  3.9763675983119944e+00 7.3467561393166934e+00 0.0000000000000000e+00  3.9474825246735068e+00 7.3031150106802496e+00 0.0000000000000000e+00  3.9652773398240049e+00 7.3358360157722213e+00 0.0000000000000000e+00  3.9555885884175717e+00 7.3167853645162007e+00 0.0000000000000000e+00  3.9612430479084053e+00 7.3143823868194078e+00 0.0000000000000000e+00  3.9577568059849511e+00 7.3301897298049479e+00 0.0000000000000000e+00  3.9525686926183776e+00 7.2930517450644894e+00 0.0000000000000000e+00  3.9726041463007116e+00 7.3538593783479964e+00 0.0000000000000000e+00  3.9213084794102473e+00 7.2423234602861584e+00 0.0000000000000000e+00  4.0183978001292386e+00 7.4428732283557579e+00 0.0000000000000000e+00  3.8639341428070018e+00 7.0409613624162617e+00 0.0000000000000000e+00  4.0651389639324833e+00 7.7852216973242774e+00 0.0000000000000000e+00  3.9808903386116845e+00 6.3569280380017457e+00 0.0000000000000000e+00  3.5284847582442826e+00 9.0015592896967878e+00 0.0000000000000000e+00  5.9608218037159491e+00 3.5445763518302402e+00 0.0000000000000000e+00  9.2688456900977698e+00 2.1035778901212110e-01 0.0000000000000000e+00  9.5433643590634141e+00 -6.3320482541520937e-02 0.0000000000000000e+00  9.3881730427374652e+00 -3.5096339663382728e-02 0.0000000000000000e+00  9.4932854987421660e+00 -8.4039078308950924e-02 0.0000000000000000e+00  9.4882126062221630e+00 -7.3115862340308438e-02 0.0000000000000000e+00  9.5018904652532044e+00 -7.9673758979167342e-02 0.0000000000000000e+00  9.5001790187654134e+00 -1.1735500038995367e-01 0.0000000000000000e+00  9.4926876706184959e+00 -1.2145953742941832e-02 0.0000000000000000e+00  9.4992112960418176e+00 0.0000000000000000e+00 0.0000000000000000e+00  8.1328863058111622e+00 0.0000000000000000e+00 1.1273418786564504e-03  8.1323719795064164e+00 8.6174684761240017e-02 -1.2141920303898501e-03  8.1303115045030676e+00 1.7503883973474482e-01 1.4058141624225641e-03  8.1272451295470010e+00 2.6086100428393033e-01 -1.5729255384285812e-03  8.1228059534733230e+00 3.4941454748000600e-01 1.6930746031941879e-03  8.1170878817205896e+00 4.3481282343740796e-01 -1.7879526673101390e-03  8.1100913292662575e+00 5.2305722509129349e-01 1.9153483211623791e-03  8.1019699766814295e+00 6.0753650609501342e-01 -1.9863360178489580e-03  8.0922379835027201e+00 6.9524127720812356e-01 2.1225935354293630e-03  8.0815952604281502e+00 7.7873401312468027e-01 -2.1978879975132850e-03  8.0693135348015499e+00 8.6560987891332364e-01 2.3450537644312233e-03  8.0560006298434033e+00 9.4776802039861452e-01 -2.4654760150551337e-03  8.0410072183211927e+00 1.0337894841335769e+00 2.7141235996486646e-03  8.0252734497200890e+00 1.1144469223624756e+00 -2.9946990021197978e-03  8.0073335130155723e+00 1.1990483669602843e+00 3.4175122289000289e-03  7.9891195382638527e+00 1.2783929830127656e+00 -3.8073195661247365e-03  7.9684213186632675e+00 1.3615117296583712e+00 4.2084750915005690e-03  7.9475393014005924e+00 1.4385207689119626e+00 -4.4611043937521641e-03  7.9240507370676170e+00 1.5211754452311812e+00 4.6946796146504731e-03  7.9006991485229330e+00 1.5951251703747484e+00 -4.9056587787291552e-03  7.8742502007744770e+00 1.6764109215008958e+00 5.2666098783347394e-03  7.8484872360345452e+00 1.7492430808477930e+00 -5.7064505372504569e-03  7.8192408899425896e+00 1.8269479603068028e+00 6.1236065922761033e-03  7.7909792440130055e+00 1.8990463495073588e+00 -6.2209766455425045e-03  7.7590879442553380e+00 1.9755374377541886e+00 5.8611758271085333e-03  7.7283944126719648e+00 2.0420146462163862e+00 -5.1413041218205113e-03  7.6940315745199710e+00 2.1223400797287244e+00 4.4445918804114576e-03  7.6609029904017678e+00 2.1812195846791513e+00 -4.2194406728525650e-03  7.6243417389056702e+00 2.2620960591062120e+00 4.4972912211338053e-03  7.5889384513083806e+00 2.3216854849048776e+00 -4.9367853213073201e-03  7.5502112283069573e+00 2.3936855230418850e+00 4.9467488851934272e-03  7.5129262197166398e+00 2.4597108726245818e+00 -4.4343563195094748e-03  7.4721510140373244e+00 2.5248874506052190e+00 3.8018845494348901e-03  7.4331321175167258e+00 2.5885985072013407e+00 -3.8077127004621592e-03  7.3906711599309007e+00 2.6581462785968153e+00 4.5921086855902921e-03  7.3501381451278807e+00 2.7129597477477807e+00 -5.6571074955551227e-03  7.3060838925074716e+00 2.7857472840947430e+00 6.0190484050922158e-03  7.2644364080767057e+00 2.8398312285028968e+00 -5.3769959738957729e-03  7.2191327604298490e+00 2.9072448564260007e+00 4.1404681854399833e-03  7.1761676910634176e+00 2.9645529028558442e+00 -3.2697017880694338e-03  7.1303978871273630e+00 3.0294556577191574e+00 3.0838972018624226e-03  7.0861022399360207e+00 3.0851718024699499e+00 -3.2912293824859831e-03  7.0398005268310540e+00 3.1498870868195383e+00 3.1519989287890314e-03  6.9949712963275488e+00 3.2061133789517178e+00 -2.5792254062052154e-03  6.9479633924820376e+00 3.2681848677189964e+00 1.8784383557154407e-03  6.9025948669006434e+00 3.3252379270416950e+00 -1.5736010846030763e-03  6.8556511928857464e+00 3.3864921755313167e+00 1.5277349192294170e-03  6.8093996408296888e+00 3.4436297851474120e+00 -1.5219253014946343e-03  6.7626729621980948e+00 3.5036836182536466e+00 1.3165100279325685e-03  6.7161217188490143e+00 3.5613383734667825e+00 -1.1606113104390735e-03  6.6691764121158528e+00 3.6209302489330102e+00 1.0738410998801971e-03  6.6227456407800815e+00 3.6784980904339086e+00 -1.0913931271123714e-03  6.5756793229633246e+00 3.7379760888933293e+00 1.0549724043477217e-03  6.5292760564459726e+00 3.7951181186143406e+00 -1.0682739958038489e-03  6.4823290941964613e+00 3.8550461410373877e+00 1.0673922092356259e-03  6.4359210020937621e+00 3.9120723657223522e+00 -1.0708979239467985e-03  6.3892095603613344e+00 3.9715086724255522e+00 1.0162157760757178e-03  6.3428164111420582e+00 4.0290115542016904e+00 -1.0018562124026397e-03  6.2962867972020167e+00 4.0883470218575644e+00 9.8001789310576699e-04  6.2502169167789630e+00 4.1456672458770738e+00 -9.7006016369139379e-04  6.2036032931232477e+00 4.2053604003542890e+00 9.5047037432441817e-04  6.1579250981831848e+00 4.2624719542181708e+00 -9.7129612369513526e-04  6.1115599206650817e+00 4.3220706976979448e+00 9.7093720338715397e-04  6.0659110909282141e+00 4.3796137643599815e+00 -9.4904672804554491e-04  6.0198667814581102e+00 4.4390919057443252e+00 9.0927279284399947e-04  5.9746065271183983e+00 4.4964020480162112e+00 -8.7278411165760703e-04  5.9285695475983839e+00 4.5562011948886614e+00 8.2790690741564978e-04  5.8835723000717906e+00 4.6137433133904482e+00 -7.8116832745442517e-04  5.8380733383745440e+00 4.6729977865063024e+00 7.5109074896465510e-04  5.7930825552486453e+00 4.7309930581339339e+00 -7.2271481467906494e-04  5.7476999458092548e+00 4.7905136569053584e+00 7.0800089436271222e-04  5.7034805113575384e+00 4.8479120082638021e+00 -6.6687473086895371e-04  5.6580563919707965e+00 4.9077801520509965e+00 6.2504983249721117e-04  5.6137922075939510e+00 4.9657238984638044e+00 -5.6453698942869070e-04  5.5694288606157558e+00 5.0246613002945475e+00 5.4772336569905975e-04  5.5249330512713444e+00 5.0833270614008903e+00 -4.9993728365674522e-04  5.4806054901097747e+00 5.1425040827361110e+00 4.6691434749064837e-04  5.4371293218320398e+00 5.2004140286279750e+00 -3.9905537508720272e-04  5.3926900822497705e+00 5.2602039749582081e+00 3.9457009567965681e-04  5.3490939329102476e+00 5.3186244424815508e+00 -3.6604721149920599e-04  5.3058640588470780e+00 5.3772514005793886e+00 3.7187404210039452e-04  5.2619491218261496e+00 5.4366978072776000e+00 -3.2254298144942020e-04  5.2189779911117995e+00 5.495374745