<?xml version="1.0"?>
<VTKFile type="UnstructuredGrid"  version="0.1"  >
<UnstructuredGrid>
<Piece  NumberOfPoints="8241" NumberOfCells="16000">
<Points>
<DataArray  type="Float64"  NumberOfComponents="3"  format="ascii">-5 -1 0  -4.95 -1 0  -4.9 -1 0  -4.85 -1 0  -4.8 -1 0  -4.75 -1 0  -4.7 -1 0  -4.65 -1 0  -4.6 -1 0  -4.55 -1 0  -4.5 -1 0  -4.45 -1 0  -4.4 -1 0  -4.35 -1 0  -4.3 -1 0  -4.25 -1 0  -4.2 -1 0  -4.15 -1 0  -4.1 -1 0  -4.05 -1 0  -4 -1 0  -3.95 -1 0  -3.9 -1 0  -3.85 -1 0  -3.8 -1 0  -3.75 -1 0  -3.7 -1 0  -3.65 -1 0  -3.6 -1 0  -3.55 -1 0  -3.5 -1 0  -3.45 -1 0  -3.4 -1 0  -3.35 -1 0  -3.3 -1 0  -3.25 -1 0  -3.2 -1 0  -3.15 -1 0  -3.1 -1 0  -3.05 -1 0  -3 -1 0  -2.95 -1 0  -2.9 -1 0  -2.85 -1 0  -2.8 -1 0  -2.75 -1 0  -2.7 -1 0  -2.65 -1 0  -2.6 -1 0  -2.55 -1 0  -2.5 -1 0  -2.45 -1 0  -2.4 -1 0  -2.35 -1 0  -2.3 -1 0  -2.25 -1 0  -2.2 -1 0  -2.15 -1 0  -2.1 -1 0  -2.05 -1 0  -2 -1 0  -1.95 -1 0  -1.9 -1 0  -1.85 -1 0  -1.8 -1 0  -1.75 -1 0  -1.7 -1 0  -1.65 -1 0  -1.6 -1 0  -1.55 -1 0  -1.5 -1 0  -1.45 -1 0  -1.4 -1 0  -1.35 -1 0  -1.3 -1 0  -1.25 -1 0  -1.2 -1 0  -1.15 -1 0  -1.1 -1 0  -1.05 -1 0  -1 -1 0  -0.9500000000000002 -1 0  -0.9000000000000004 -1 0  -0.8499999999999996 -1 0  -0.7999999999999998 -1 0  -0.75 -1 0  -0.7000000000000002 -1 0  -0.6500000000000004 -1 0  -0.5999999999999996 -1 0  -0.5499999999999998 -1 0  -0.5 -1 0  -0.4500000000000002 -1 0  -0.4000000000000004 -1 0  -0.3499999999999996 -1 0  -0.2999999999999998 -1 0  -0.25 -1 0  -0.2000000000000002 -1 0  -0.1500000000000004 -1 0  -0.09999999999999964 -1 0  -0.04999999999999982 -1 0  0 -1 0  0.04999999999999982 -1 0  0.09999999999999964 -1 0  0.1500000000000004 -1 0  0.2000000000000002 -1 0  0.25 -1 0  0.2999999999999998 -1 0  0.3499999999999996 -1 0  0.4000000000000004 -1 0  0.4500000000000002 -1 0  0.5 -1 0  0.5499999999999998 -1 0  0.5999999999999996 -1 0  0.6500000000000004 -1 0  0.7000000000000002 -1 0  0.75 -1 0  0.7999999999999998 -1 0  0.8499999999999996 -1 0  0.9000000000000004 -1 0  0.9500000000000002 -1 0  1 -1 0  1.05 -1 0  1.1 -1 0  1.15 -1 0  1.2 -1 0  1.25 -1 0  1.3 -1 0  1.35 -1 0  1.4 -1 0  1.45 -1 0  1.5 -1 0  1.55 -1 0  1.6 -1 0  1.65 -1 0  1.7 -1 0  1.75 -1 0  1.8 -1 0  1.85 -1 0  1.9 -1 0  1.95 -1 0  2 -1 0  2.05 -1 0  2.1 -1 0  2.15 -1 0  2.2 -1 0  2.25 -1 0  2.3 -1 0  2.35 -1 0  2.4 -1 0  2.45 -1 0  2.5 -1 0  2.55 -1 0  2.6 -1 0  2.65 -1 0  2.7 -1 0  2.75 -1 0  2.8 -1 0  2.85 -1 0  2.9 -1 0  2.95 -1 0  3 -1 0  3.050000000000001 -1 0  3.1 -1 0  3.15 -1 0  3.199999999999999 -1 0  3.25 -1 0  3.300000000000001 -1 0  3.35 -1 0  3.4 -1 0  3.449999999999999 -1 0  3.5 -1 0  3.550000000000001 -1 0  3.6 -1 0  3.65 -1 0  3.699999999999999 -1 0  3.75 -1 0  3.800000000000001 -1 0  3.85 -1 0  3.9 -1 0  3.949999999999999 -1 0  4 -1 0  4.050000000000001 -1 0  4.1 -1 0  4.15 -1 0  4.199999999999999 -1 0  4.25 -1 0  4.300000000000001 -1 0  4.35 -1 0  4.4 -1 0  4.449999999999999 -1 0  4.5 -1 0  4.550000000000001 -1 0  4.6 -1 0  4.65 -1 0  4.699999999999999 -1 0  4.75 -1 0  4.800000000000001 -1 0  4.85 -1 0  4.9 -1 0  4.949999999999999 -1 0  5 -1 0  -5 -0.95 0  -4.95 -0.95 0  -4.9 -0.95 0  -4.85 -0.95 0  -4.8 -0.95 0  -4.75 -0.95 0  -4.7 -0.95 0  -4.65 -0.95 0  -4.6 -0.95 0  -4.55 -0.95 0  -4.5 -0.95 0  -4.45 -0.95 0  -4.4 -0.95 0  -4.35 -0.95 0  -4.3 -0.95 0  -4.25 -0.95 0  -4.2 -0.95 0  -4.15 -0.95 0  -4.1 -0.95 0  -4.05 -0.95 0  -4 -0.95 0  -3.95 -0.95 0  -3.9 -0.95 0  -3.85 -0.95 0  -3.8 -0.95 0  -3.75 -0.95 0  -3.7 -0.95 0  -3.65 -0.95 0  -3.6 -0.95 0  -3.55 -0.95 0  -3.5 -0.95 0  -3.45 -0.95 0  -3.4 -0.95 0  -3.35 -0.95 0  -3.3 -0.95 0  -3.25 -0.95 0  -3.2 -0.95 0  -3.15 -0.95 0  -3.1 -0.95 0  -3.05 -0.95 0  -3 -0.95 0  -2.95 -0.95 0  -2.9 -0.95 0  -2.85 -0.95 0  -2.8 -0.95 0  -2.75 -0.95 0  -2.7 -0.95 0  -2.65 -0.95 0  -2.6 -0.95 0  -2.55 -0.95 0  -2.5 -0.95 0  -2.45 -0.95 0  -2.4 -0.95 0  -2.35 -0.95 0  -2.3 -0.95 0  -2.25 -0.95 0  -2.2 -0.95 0  -2.15 -0.95 0  -2.1 -0.95 0  -2.05 -0.95 0  -2 -0.95 0  -1.95 -0.95 0  -1.9 -0.95 0  -1.85 -0.95 0  -1.8 -0.95 0  -1.75 -0.95 0  -1.7 -0.95 0  -1.65 -0.95 0  -1.6 -0.95 0  -1.55 -0.95 0  -1.5 -0.95 0  -1.45 -0.95 0  -1.4 -0.95 0  -1.35 -0.95 0  -1.3 -0.95 0  -1.25 -0.95 0  -1.2 -0.95 0  -1.15 -0.95 0  -1.1 -0.95 0  -1.05 -0.95 0  -1 -0.95 0  -0.9500000000000002 -0.95 0  -0.9000000000000004 -0.95 0  -0.8499999999999996 -0.95 0  -0.7999999999999998 -0.95 0  -0.75 -0.95 0  -0.7000000000000002 -0.95 0  -0.6500000000000004 -0.95 0  -0.5999999999999996 -0.95 0  -0.5499999999999998 -0.95 0  -0.5 -0.95 0  -0.4500000000000002 -0.95 0  -0.4000000000000004 -0.95 0  -0.3499999999999996 -0.95 0  -0.2999999999999998 -0.95 0  -0.25 -0.95 0  -0.2000000000000002 -0.95 0  -0.1500000000000004 -0.95 0  -0.09999999999999964 -0.95 0  -0.04999999999999982 -0.95 0  0 -0.95 0  0.04999999999999982 -0.95 0  0.09999999999999964 -0.95 0  0.1500000000000004 -0.95 0  0.2000000000000002 -0.95 0  0.25 -0.95 0  0.2999999999999998 -0.95 0  0.3499999999999996 -0.95 0  0.4000000000000004 -0.95 0  0.4500000000000002 -0.95 0  0.5 -0.95 0  0.5499999999999998 -0.95 0  0.5999999999999996 -0.95 0  0.6500000000000004 -0.95 0  0.7000000000000002 -0.95 0  0.75 -0.95 0  0.7999999999999998 -0.95 0  0.8499999999999996 -0.95 0  0.9000000000000004 -0.95 0  0.9500000000000002 -0.95 0  1 -0.95 0  1.05 -0.95 0  1.1 -0.95 0  1.15 -0.95 0  1.2 -0.95 0  1.25 -0.95 0  1.3 -0.95 0  1.35 -0.95 0  1.4 -0.95 0  1.45 -0.95 0  1.5 -0.95 0  1.55 -0.95 0  1.6 -0.95 0  1.65 -0.95 0  1.7 -0.95 0  1.75 -0.95 0  1.8 -0.95 0  1.85 -0.95 0  1.9 -0.95 0  1.95 -0.95 0  2 -0.95 0  2.05 -0.95 0  2.1 -0.95 0  2.15 -0.95 0  2.2 -0.95 0  2.25 -0.95 0  2.3 -0.95 0  2.35 -0.95 0  2.4 -0.95 0  2.45 -0.95 0  2.5 -0.95 0  2.55 -0.95 0  2.6 -0.95 0  2.65 -0.95 0  2.7 -0.95 0  2.75 -0.95 0  2.8 -0.95 0  2.85 -0.95 0  2.9 -0.95 0  2.95 -0.95 0  3 -0.95 0  3.050000000000001 -0.95 0  3.1 -0.95 0  3.15 -0.95 0  3.199999999999999 -0.95 0  3.25 -0.95 0  3.300000000000001 -0.95 0  3.35 -0.95 0  3.4 -0.95 0  3.449999999999999 -0.95 0  3.5 -0.95 0  3.550000000000001 -0.95 0  3.6 -0.95 0  3.65 -0.95 0  3.699999999999999 -0.95 0  3.75 -0.95 0  3.800000000000001 -0.95 0  3.85 -0.95 0  3.9 -0.95 0  3.949999999999999 -0.95 0  4 -0.95 0  4.050000000000001 -0.95 0  4.1 -0.95 0  4.15 -0.95 0  4.199999999999999 -0.95 0  4.25 -0.95 0  4.300000000000001 -0.95 0  4.35 -0.95 0  4.4 -0.95 0  4.449999999999999 -0.95 0  4.5 -0.95 0  4.550000000000001 -0.95 0  4.6 -0.95 0  4.65 -0.95 0  4.699999999999999 -0.95 0  4.75 -0.95 0  4.800000000000001 -0.95 0  4.85 -0.95 0  4.9 -0.95 0  4.949999999999999 -0.95 0  5 -0.95 0  -5 -0.9 0  -4.95 -0.9 0  -4.9 -0.9 0  -4.85 -0.9 0  -4.8 -0.9 0  -4.75 -0.9 0  -4.7 -0.9 0  -4.65 -0.9 0  -4.6 -0.9 0  -4.55 -0.9 0  -4.5 -0.9 0  -4.45 -0.9 0  -4.4 -0.9 0  -4.35 -0.9 0  -4.3 -0.9 0  -4.25 -0.9 0  -4.2 -0.9 0  -4.15 -0.9 0  -4.1 -0.9 0  -4.05 -0.9 0  -4 -0.9 0  -3.95 -0.9 0  -3.9 -0.9 0  -3.85 -0.9 0  -3.8 -0.9 0  -3.75 -0.9 0  -3.7 -0.9 0  -3.65 -0.9 0  -3.6 -0.9 0  -3.55 -0.9 0  -3.5 -0.9 0  -3.45 -0.9 0  -3.4 -0.9 0  -3.35 -0.9 0  -3.3 -0.9 0  -3.25 -0.9 0  -3.2 -0.9 0  -3.15 -0.9 0  -3.1 -0.9 0  -3.05 -0.9 0  -3 -0.9 0  -2.95 -0.9 0  -2.9 -0.9 0  -2.85 -0.9 0  -2.8 -0.9 0  -2.75 -0.9 0  -2.7 -0.9 0  -2.65 -0.9 0  -2.6 -0.9 0  -2.55 -0.9 0  -2.5 -0.9 0  -2.45 -0.9 0  -2.4 -0.9 0  -2.35 -0.9 0  -2.3 -0.9 0  -2.25 -0.9 0  -2.2 -0.9 0  -2.15 -0.9 0  -2.1 -0.9 0  -2.05 -0.9 0  -2 -0.9 0  -1.95 -0.9 0  -1.9 -0.9 0  -1.85 -0.9 0  -1.8 -0.9 0  -1.75 -0.9 0  -1.7 -0.9 0  -1.65 -0.9 0  -1.6 -0.9 0  -1.55 -0.9 0  -1.5 -0.9 0  -1.45 -0.9 0  -1.4 -0.9 0  -1.35 -0.9 0  -1.3 -0.9 0  -1.25 -0.9 0  -1.2 -0.9 0  -1.15 -0.9 0  -1.1 -0.9 0  -1.05 -0.9 0  -1 -0.9 0  -0.9500000000000002 -0.9 0  -0.9000000000000004 -0.9 0  -0.8499999999999996 -0.9 0  -0.7999999999999998 -0.9 0  -0.75 -0.9 0  -0.7000000000000002 -0.9 0  -0.6500000000000004 -0.9 0  -0.5999999999999996 -0.9 0  -0.5499999999999998 -0.9 0  -0.5 -0.9 0  -0.4500000000000002 -0.9 0  -0.4000000000000004 -0.9 0  -0.3499999999999996 -0.9 0  -0.2999999999999998 -0.9 0  -0.25 -0.9 0  -0.2000000000000002 -0.9 0  -0.1500000000000004 -0.9 0  -0.09999999999999964 -0.9 0  -0.04999999999999982 -0.9 0  0 -0.9 0  0.04999999999999982 -0.9 0  0.09999999999999964 -0.9 0  0.1500000000000004 -0.9 0  0.2000000000000002 -0.9 0  0.25 -0.9 0  0.2999999999999998 -0.9 0  0.3499999999999996 -0.9 0  0.4000000000000004 -0.9 0  0.4500000000000002 -0.9 0  0.5 -0.9 0  0.5499999999999998 -0.9 0  0.5999999999999996 -0.9 0  0.6500000000000004 -0.9 0  0.7000000000000002 -0.9 0  0.75 -0.9 0  0.7999999999999998 -0.9 0  0.8499999999999996 -0.9 0  0.9000000000000004 -0.9 0  0.9500000000000002 -0.9 0  1 -0.9 0  1.05 -0.9 0  1.1 -0.9 0  1.15 -0.9 0  1.2 -0.9 0  1.25 -0.9 0  1.3 -0.9 0  1.35 -0.9 0  1.4 -0.9 0  1.45 -0.9 0  1.5 -0.9 0  1.55 -0.9 0  1.6 -0.9 0  1.65 -0.9 0  1.7 -0.9 0  1.75 -0.9 0  1.8 -0.9 0  1.85 -0.9 0  1.9 -0.9 0  1.95 -0.9 0  2 -0.9 0  2.05 -0.9 0  2.1 -0.9 0  2.15 -0.9 0  2.2 -0.9 0  2.25 -0.9 0  2.3 -0.9 0  2.35 -0.9 0  2.4 -0.9 0  2.45 -0.9 0  2.5 -0.9 0  2.55 -0.9 0  2.6 -0.9 0  2.65 -0.9 0  2.7 -0.9 0  2.75 -0.9 0  2.8 -0.9 0  2.85 -0.9 0  2.9 -0.9 0  2.95 -0.9 0  3 -0.9 0  3.050000000000001 -0.9 0  3.1 -0.9 0  3.15 -0.9 0  3.199999999999999 -0.9 0  3.25 -0.9 0  3.300000000000001 -0.9 0  3.35 -0.9 0  3.4 -0.9 0  3.449999999999999 -0.9 0  3.5 -0.9 0  3.550000000000001 -0.9 0  3.6 -0.9 0  3.65 -0.9 0  3.699999999999999 -0.9 0  3.75 -0.9 0  3.800000000000001 -0.9 0  3.85 -0.9 0  3.9 -0.9 0  3.949999999999999 -0.9 0  4 -0.9 0  4.050000000000001 -0.9 0  4.1 -0.9 0  4.15 -0.9 0  4.199999999999999 -0.9 0  4.25 -0.9 0  4.300000000000001 -0.9 0  4.35 -0.9 0  4.4 -0.9 0  4.449999999999999 -0.9 0  4.5 -0.9 0  4.550000000000001 -0.9 0  4.6 -0.9 0  4.65 -0.9 0  4.699999999999999 -0.9 0  4.75 -0.9 0  4.800000000000001 -0.9 0  4.85 -0.9 0  4.9 -0.9 0  4.949999999999999 -0.9 0  5 -0.9 0  -5 -0.85 0  -4.95 -0.85 0  -4.9 -0.85 0  -4.85 -0.85 0  -4.8 -0.85 0  -4.75 -0.85 0  -4.7 -0.85 0  -4.65 -0.85 0  -4.6 -0.85 0  -4.55 -0.85 0  -4.5 -0.85 0  -
[...]
<PointData  Vectors="f_15"> 
<DataArray  type="Float64"  Name="f_15"  NumberOfComponents="3" format="ascii">1.9527977542649499e+00 0.0000000000000000e+00 0.0000000000000000e+00  1.9527822715947731e+00 4.4310889542049994e-02 0.0000000000000000e+00  1.9527070144742709e+00 8.8517382640307979e-02 0.0000000000000000e+00  1.9525999854013982e+00 1.3283990838228377e-01 0.0000000000000000e+00  1.9524334811877173e+00 1.7704749251519308e-01 0.0000000000000000e+00  1.9522345942279480e+00 2.2131574268825013e-01 0.0000000000000000e+00  1.9519746305892418e+00 2.6549946144105036e-01 0.0000000000000000e+00  1.9516820229348322e+00 3.0970160647951550e-01 0.0000000000000000e+00  1.9513282510431758e+00 3.5383930435535377e-01 0.0000000000000000e+00  1.9509380340603779e+00 3.9795347802743203e-01 0.0000000000000000e+00  1.9504880978579691e+00 4.4202350182397215e-01 0.0000000000000000e+00  1.9499983623477697e+00 4.8603319481032958e-01 0.0000000000000000e+00  1.9494473784275477e+00 5.3001384783847405e-01 0.0000000000000000e+00  1.9488548604308387e+00 5.7388771167032537e-01 0.0000000000000000e+00  1.9481991765318056e+00 6.1776107609677144e-01 0.0000000000000000e+00  1.9474981846859747e+00 6.6149249384100217e-01 0.0000000000000000e+00  1.9467329791567791e+00 7.0518559073678289e-01 0.0000000000000000e+00  1.9459186821795746e+00 7.4880075263884327e-01 0.0000000000000000e+00  1.9450363261746284e+00 7.9226535699119183e-01 0.0000000000000000e+00  1.9441033215035806e+00 8.3570307458116766e-01 0.0000000000000000e+00  1.9430965426149593e+00 8.7896318997635481e-01 0.0000000000000000e+00  1.9420357821331122e+00 9.2216514611241551e-01 0.0000000000000000e+00  1.9408982879749779e+00 9.6515166145415998e-01 0.0000000000000000e+00  1.9396994587356002e+00 1.0081384577538528e+00 0.0000000000000000e+00  1.9384212912258632e+00 1.0508015842567922e+00 0.0000000000000000e+00  1.9370763345245350e+00 1.0934595036080992e+00 0.0000000000000000e+00  1.9356446450284897e+00 1.1358563625293188e+00 0.0000000000000000e+00  1.9341417004719448e+00 1.1780989068296135e+00 0.0000000000000000e+00  1.9325479795427118e+00 1.2201140521472726e+00 0.0000000000000000e+00  1.9308694660440864e+00 1.2619913219454069e+00 0.0000000000000000e+00  1.9291028471447518e+00 1.3035278107106303e+00 0.0000000000000000e+00  1.9272362739915061e+00 1.3449116516882607e+00 0.0000000000000000e+00  1.9252792938692398e+00 1.3860064468328890e+00 0.0000000000000000e+00  1.9232092442385995e+00 1.4267878619097831e+00 0.0000000000000000e+00  1.9210530472884324e+00 1.4673071272399567e+00 0.0000000000000000e+00  1.9187549538324802e+00 1.5074922654152976e+00 0.0000000000000000e+00  1.9163893971281918e+00 1.5473280045711353e+00 0.0000000000000000e+00  1.9138495459143103e+00 1.5867500744362462e+00 0.0000000000000000e+00  1.9112560185824765e+00 1.6259091121330556e+00 0.0000000000000000e+00  1.9084598260689358e+00 1.6644180644606590e+00 0.0000000000000000e+00  1.9056358700815124e+00 1.7027345781644376e+00 0.0000000000000000e+00  1.9025606814974698e+00 1.7402816672101686e+00 0.0000000000000000e+00  1.8995083857457671e+00 1.7776180840756310e+00 0.0000000000000000e+00  1.8961516753447820e+00 1.8139729199763341e+00 0.0000000000000000e+00  1.8928708123325764e+00 1.8502645380336240e+00 0.0000000000000000e+00  1.8892417408567899e+00 1.8852264126468339e+00 0.0000000000000000e+00  1.8857609875311019e+00 1.9202388071105441e+00 0.0000000000000000e+00  1.8818761962127870e+00 1.9536451128973302e+00 0.0000000000000000e+00  1.8782503113597411e+00 1.9871324652617892e+00 0.0000000000000000e+00  1.8741726760945787e+00 2.0186492549632158e+00 0.0000000000000000e+00  1.8704850723129922e+00 2.0503726842608785e+00 0.0000000000000000e+00  1.8663311001475862e+00 2.0795884560145406e+00 0.0000000000000000e+00  1.8627403245367571e+00 2.1090817215361102e+00 0.0000000000000000e+00  1.8586919532326274e+00 2.1355311345880881e+00 0.0000000000000000e+00  1.8554448868586964e+00 2.1621769112784159e+00 0.0000000000000000e+00  1.8517944208493835e+00 2.1851204168497134e+00 0.0000000000000000e+00  1.8492265530700775e+00 2.2081779577671838e+00 0.0000000000000000e+00  1.8463526591465129e+00 2.2267419995535698e+00 0.0000000000000000e+00  1.8448468609291226e+00 2.2453610192408968e+00 0.0000000000000000e+00  1.8430764471567151e+00 2.2588903558539175e+00 0.0000000000000000e+00  1.8428460255065424e+00 2.2726580185990124e+00 0.0000000000000000e+00  1.8422095710943509e+00 2.2812192936818545e+00 0.0000000000000000e+00  1.8430379934927188e+00 2.2907775834403927e+00 0.0000000000000000e+00  1.8431248056605860e+00 2.2955329633091357e+00 0.0000000000000000e+00  1.8444559173676718e+00 2.3023247314302688e+00 0.0000000000000000e+00  1.8447007210393431e+00 2.3048353144520242e+00 0.0000000000000000e+00  1.8460556695441059e+00 2.3101518452525314e+00 0.0000000000000000e+00  1.8461498381896944e+00 2.3114299230915347e+00 0.0000000000000000e+00  1.8473260613998976e+00 2.3158993261223744e+00 0.0000000000000000e+00  1.8472188125563422e+00 2.3164094568983584e+00 0.0000000000000000e+00  1.8482027721427379e+00 2.3202280873274383e+00 0.0000000000000000e+00  1.8479252546082816e+00 2.3201915633006625e+00 0.0000000000000000e+00  1.8487514284471724e+00 2.3234662531864911e+00 0.0000000000000000e+00  1.8483726100894557e+00 2.3230315226001146e+00 0.0000000000000000e+00  1.8490460374655322e+00 2.3258165957131713e+00 0.0000000000000000e+00  1.8486333559461852e+00 2.3251651639848192e+00 0.0000000000000000e+00  1.8491823917567300e+00 2.3274853147581980e+00 0.0000000000000000e+00  1.8487509475148163e+00 2.3267282282032675e+00 0.0000000000000000e+00  1.8492123745647184e+00 2.3286863545059746e+00 0.0000000000000000e+00  1.8487989518912635e+00 2.3278751505509652e+00 0.0000000000000000e+00  1.8491562709874334e+00 2.3294856835034130e+00 0.0000000000000000e+00  1.8488082082633597e+00 2.3287784320039959e+00 0.0000000000000000e+00  1.8490763431351613e+00 2.3300071753685110e+00 0.0000000000000000e+00  1.8487690193316348e+00 2.3294134925991821e+00 0.0000000000000000e+00  1.8489972256077485e+00 2.3304366551657467e+00 0.0000000000000000e+00  1.8487180292689180e+00 2.3298612677689401e+00 0.0000000000000000e+00  1.8488987500808278e+00 2.3306884862348398e+00 0.0000000000000000e+00  1.8486833630457389e+00 2.3302863794936908e+00 0.0000000000000000e+00  1.8488031513529819e+00 2.3308321302458412e+00 0.0000000000000000e+00  1.8486284361340044e+00 2.3305447427861412e+00 0.0000000000000000e+00  1.8487487576648640e+00 2.3310545705584729e+00 0.0000000000000000e+00  1.8485560913786121e+00 2.3306828880118760e+00 0.0000000000000000e+00  1.8486942973037936e+00 2.3311720575211634e+00 0.0000000000000000e+00  1.8485279878062910e+00 2.3308937224802695e+00 0.0000000000000000e+00  1.8486196886609252e+00 2.3312046252404155e+00 0.0000000000000000e+00  1.8484933175125491e+00 2.3310101901451588e+00 0.0000000000000000e+00  1.8486029904242793e+00 2.3313445698786865e+00 0.0000000000000000e+00  1.8484193483424856e+00 2.3310179982280843e+00 0.0000000000000000e+00  1.8485914853792271e+00 2.3314367286170508e+00 0.0000000000000000e+00  1.8484047581854253e+00 2.3311160249090643e+00 0.0000000000000000e+00  1.8485251606073683e+00 2.3314252687124721e+00 0.0000000000000000e+00  1.8484023142689876e+00 2.3312049560915420e+00 0.0000000000000000e+00  1.8485191553478326e+00 2.3314816738456949e+00 0.0000000000000000e+00  1.8483335243734504e+00 2.3311868064931516e+00 0.0000000000000000e+00  1.8485355870623570e+00 2.3315635634027174e+00 0.0000000000000000e+00  1.8483205965475384e+00 2.3312219911697825e+00 0.0000000000000000e+00  1.8484726935880045e+00 2.3315295254341715e+00 0.0000000000000000e+00  1.8483477536311104e+00 2.3313144581113199e+00 0.0000000000000000e+00  1.8484561569210942e+00 2.3315273195101938e+00 0.0000000000000000e+00  1.8482883429049795e+00 2.3312954908874106e+00 0.0000000000000000e+00  1.8484904850518431e+00 2.3315970527815173e+00 0.0000000000000000e+00  1.8482700987573550e+00 2.3313020068823613e+00 0.0000000000000000e+00  1.8484340625082321e+00 2.3315475024201344e+00 0.0000000000000000e+00  1.8483094745096873e+00 2.3313892920224903e+00 0.0000000000000000e+00  1.8484119277608935e+00 2.3315367435763865e+00 0.0000000000000000e+00  1.8482609692256071e+00 2.3313460162537019e+00 0.0000000000000000e+00  1.8484476571464568e+00 2.3315912191117985e+00 0.0000000000000000e+00  1.8482433885800329e+00 2.3313719833889741e+00 0.0000000000000000e+00  1.8484015093257591e+00 2.3315118103667438e+00 0.0000000000000000e+00  1.8482726482028093e+00 2.3314345726280181e+00 0.0000000000000000e+00  1.8483937946068292e+00 2.3315365914774917e+00 0.0000000000000000e+00  1.8482267403359804e+00 2.3313556404194111e+00 0.0000000000000000e+00  1.8484166562563569e+00 2.3315737179557852e+00 0.0000000000000000e+00  1.8482219536766455e+00 2.3314184601198402e+00 0.0000000000000000e+00  1.8483822025854240e+00 2.3314460929475360e+00 0.0000000000000000e+00  1.8482302999371698e+00 2.3314950278710933e+00 0.0000000000000000e+00  1.8483848387779083e+00 2.3314705260584283e+00 0.0000000000000000e+00  1.8481979435451901e+00 2.3313928577381788e+00 0.0000000000000000e+00  1.8483933960352754e+00 2.3315554525933928e+00 0.0000000000000000e+00  1.8481936407366315e+00 2.3313312641654158e+00 0.0000000000000000e+00  1.8483737772794397e+00 2.3315919594322123e+00 0.0000000000000000e+00  1.8481923101149467e+00 2.3312853032045542e+00 0.0000000000000000e+00  1.8483738331408370e+00 2.3315871850535923e+00 0.0000000000000000e+00  1.8481698625692198e+00 2.3313590285167303e+00 0.0000000000000000e+00  1.8483865412961744e+00 2.3313918844190771e+00 0.0000000000000000e+00  1.8481410001078116e+00 2.3316251007637403e+00 0.0000000000000000e+00  1.8483958004823300e+00 2.3310614834011547e+00 0.0000000000000000e+00  1.8481362988003784e+00 2.3319146290257757e+00 0.0000000000000000e+00  1.8483707747148548e+00 2.3308557641726462e+00 0.0000000000000000e+00  1.8481348064144039e+00 2.3319413817069568e+00 0.0000000000000000e+00  1.8483989231456195e+00 2.3309827249159478e+00 0.0000000000000000e+00  1.8480557312773764e+00 2.3316573370144860e+00 0.0000000000000000e+00  1.8484579884457921e+00 2.3312939085653643e+00 0.0000000000000000e+00  1.8480241092103975e+00 2.3313668149792366e+00 0.0000000000000000e+00  1.8484291723546360e+00 2.3314534302444962e+00 0.0000000000000000e+00  1.8480481966667528e+00 2.3312840467729434e+00 0.0000000000000000e+00  1.8484175049411951e+00 2.3314793294837428e+00 0.0000000000000000e+00  1.8480069817148694e+00 2.3312038452040333e+00 0.0000000000000000e+00  1.8484658714389082e+00 2.3315354277360560e+00 0.0000000000000000e+00  1.8479762309522088e+00 2.3311431605177826e+00 0.0000000000000000e+00  1.8484166983533816e+00 2.3314721409203250e+00 0.0000000000000000e+00  1.8480300764766859e+00 2.3312810785531326e+00 0.0000000000000000e+00  1.8482611153054698e+00 2.3314551200692804e+00 0.0000000000000000e+00  1.8479019271592514e+00 2.3315137414924485e+00 0.0000000000000000e+00  1.8480835332413139e+00 2.3318209770026805e+00 0.0000000000000000e+00  1.8475765136462030e+00 2.3318296461231136e+00 0.0000000000000000e+00  1.8477631202310212e+00 2.3320906251052622e+00 0.0000000000000000e+00  1.8475927241208097e+00 2.3320939032313666e+00 0.0000000000000000e+00  1.8476291853576583e+00 2.3313667864737222e+00 0.0000000000000000e+00  1.8481909495759634e+00 2.3316583389918129e+00 0.0000000000000000e+00  1.8480216532425076e+00 2.3299317072963408e+00 0.0000000000000000e+00  1.8488951539816405e+00 2.3307833013284389e+00 0.0000000000000000e+00  1.8483250623509475e+00 2.3289588221924404e+00 0.0000000000000000e+00  1.8490987161645465e+00 2.3303142066984055e+00 0.0000000000000000e+00  1.8484253703860358e+00 2.3288178602208611e+00 0.0000000000000000e+00  1.8487394315181784e+00 2.3294492165103593e+00 0.0000000000000000e+00  1.8500636334830824e+00 2.3280589818550097e+00 0.0000000000000000e+00  1.8462428899163106e+00 2.3282406908026156e+00 0.0000000000000000e+00  1.8277700566844830e+00 2.3923477186625126e+00 0.0000000000000000e+00  2.1264667109740549e+00 1.6952650723957501e+00 0.0000000000000000e+00  2.7048873066078056e+00 4.6387933472160897e-01 0.0000000000000000e+00  2.9495223417243039e+00 4.9630644551897314e-02 0.0000000000000000e+00  2.9722620102679209e+00 3.2833923595155497e-03 0.0000000000000000e+00  2.9626857355795164e+00 3.8596648975531495e-03 0.0000000000000000e+00  2.9717049288721591e+00 -7.8678240641284428e-03 0.0000000000000000e+00  2.9715599560687620e+00 -5.8075422364227500e-03 0.0000000000000000e+00  2.9710650947335702e+00 -7.6292656763494405e-03 0.0000000000000000e+00  2.9728135180880200e+00 -1.0311801070431083e-02 0.0000000000000000e+00  2.9722347428347251e+00 -9.3687996472376807e-03 0.0000000000000000e+00  2.9716294244861281e+00 -8.1249219044864304e-03 0.0000000000000000e+00  2.9716411267082683e+00 -8.6931255014235948e-03 0.0000000000000000e+00  2.9719626863268469e+00 -8.8071708997545205e-03 0.0000000000000000e+00  2.9718663549380802e+00 -9.1413856035360355e-03 0.0000000000000000e+00  2.9719122707256478e+00 -8.6835767892312482e-03 0.0000000000000000e+00  2.9716886625501409e+00 -8.9518348569996766e-03 0.0000000000000000e+00  2.9718413323502886e+00 -8.6678860508059372e-03 0.0000000000000000e+00  2.9716715240080962e+00 -8.8029551306342581e-03 0.0000000000000000e+00  2.9718806836301592e+00 -8.9373457373569682e-03 0.0000000000000000e+00  2.9716456761955752e+00 -8.9259853100713410e-03 0.0000000000000000e+00  2.9718165816888544e+00 -8.5261316890116994e-03 0.0000000000000000e+00  2.9716335817825170e+00 -9.1959516439889498e-03 0.0000000000000000e+00  2.9718070026643031e+00 -8.6164580974252263e-03 0.0000000000000000e+00  2.9716041889727469e+00 -8.8349970522869133e-03 0.0000000000000000e+00  2.9718042190115126e+00 -9.6011429660621296e-03 0.0000000000000000e+00  2.9715975704205220e+00 -8.5644404958148297e-03 0.0000000000000000e+00  2.9717613131941958e+00 -9.5085465568023903e-03 0.0000000000000000e+00  2.9716039462879151e+00 -9.7896617787234831e-03 0.0000000000000000e+00  2.9717314611839534e+00 -8.4929697586523557e-03 0.0000000000000000e+00  2.9715972870347169e+00 -1.4838425674823926e-02 0.0000000000000000e+00  2.9716847697804307e+00 -1.0042095784720356e-02 0.0000000000000000e+00  2.9716159819453978e+00 0.0000000000000000e+00 0.0000000000000000e+00  1.9528064443908923e+00 0.0000000000000000e+00 -3.2612887399316226e-05  1.9527825037981934e+00 4.4274424710114800e-02 4.7340319640155509e-06  1.9527145925970950e+00 8.8568949853761694e-02 1.2057530759627683e-05  1.9525997767929097e+00 1.3282573261964975e-01 -5.0695381216335476e-06  1.9524404385047383e+00 1.7707579176749924e-01 3.1830142075715683e-06  1.9522325842145387e+00 2.2131195451331723e-01 -8.9236130558196262e-07  1.9519808126368341e+00 2.6551726680538196e-01 1.0658423806572485e-06  1.9516797846738292e+00 3.0970305501912443e-01 -8.5910053518028016e-07  1.9513323309078601e+00 3.5384579982902825e-01 1.4259661039938190e-06  1.9509359598980540e+00 3.9795994916094196e-01 -5.1319350769824819e-07  1.9504915463771566e+00 4.4202411602092645e-01 -3.6188086423643016e-07  1.9499952641222249e+00 4.8604398244472002e-01 2.9663244825421125e-06  1.9494509900732817e+00 5.2999983991032218e-01 -6.0846579479472611e-06  1.9488517309861859e+00 5.7391511663480743e-01 1.0629597434055646e-05  1.9482021690920357e+00 6.1773732955548766e-01 -1.4615404881543289e-05  1.9474957430823474e+00 6.6150568279248545e-01 1.7319984830013687e-05  1.9467361873996198e+00 7.0519357856742915e-01 -1.6868548553619976e-05  1.9459161067106834e+00 7.4878162859886588e-01 1.2800096699048458e-05  1.9450406722642832e+00 7.9228209051372045e-01 -5.7916624847537329e-06  1.9441011389679386e+00 8.3569518440706358e-01 -2.5695478989615921e-06  1.9431008416256668e+00 8.7897155273226135e-01 9.3682650024310970e-06  1.9420357601726046e+00 9.2213245534185317e-01 -1.3781530402976499e-05  1.9409019137058920e+00 9.6521097663646593e-01 1.3734019886288602e-05  1.9397005447114930e+00 1.0080662899919477e+00 -1.0184289426849421e-05  1.9384269132097502e+00 1.0508444033396565e+00 2.1001826864546923e-06  1.9370760324764542e+00 1.0934530930914474e+00 6.2703769498224506e-06  1.9356522101686966e+00 1.1358346255739742e+00 -1.3346959127458257e-05  1.9341430205558729e+00 1.1780999157455987e+00 1.4462293544812301e-05  1.9325529205766079e+00 1.2201381012713330e+00 -1.2598488983608797e-05  1.9308743095047074e+00 1.2619478040464969e+00 8.2894693940706956e-06  1.9291068175695276e+00 1.3035425143106740e+00 -6.9544438267808816e-06  1.9272405128514394e+00 1.3449246663442835e+00 6.4372574890241663e-06  1.9252828239760031e+00 1.3859725399113401e+00 -8.0006971335290720e-06  1.9232172911851859e+00 1.4268004441507758e+00 6.8817752087193823e-06  1.9210483042943876e+00 1.4673141260166933e+00 -5.2387726797430294e-06  1.9187704686039200e+00 1.5074770431312619e+00 9.3277459800681815e-07  1.9163791807648514e+00 1.5473128526586821e+00 8.8959927849217585e-07  1.9138665941306865e+00 1.5868024788736563e+00 -2.1821294352657049e-06  1.9112416607713978e+00 1.6258310519358534e+00 7.8454428006445198e-07  1.9084858653866836e+00 1.6644856612211492e+00 -3.3532798168436704e-06  1.9056068803355299e+00 1.7026763384970030e+00 7.2975309791193417e-06  1.9026022857668985e+00 1.7403439571772359e+00 -1.3938792599386007e-05  1.8994670458515641e+00 1.7775070460408045e+00 1.6729505355318243e-05  1.8962025016412263e+00 1.8141195877636644e+00 -2.0031894557732169e-05  1.8928178994666791e+00 1.8500834887309179e+00 2.2560904504253015e-05  1.8893077466709374e+00 1.8854079188534343e+00 -2.8027292698509152e-05  1.8856837531040003e+00 1.9200489962359752e+00 3.2052209544989939e-05  1.8819635913089219e+00 1.9538558737564833e+00 -3.7799572953350639e-05  1.8781496206670683e+00 1.9868861620692060e+00 4.1901189948297614e-05  1.8742751398044355e+00 2.0189593273017188e+00 -4.6911298002398520e-05  1.8703630095266162e+00 2.0500380858953204e+00 4.8913854734647234e-05  1.8664536258976232e+00 2.0799676275549133e+00 -5.2777251138044347e-05  1.8625860840746356e+00 2.1087167712004780e+00 5.5426862933832105e-05  1.8588393596829287e+00 2.1359682384304848e+00 -6.0163622728931321e-05  1.8552604430107298e+00 2.1617418214762738e+00 6.3019944054092022e-05  1.8519637259619182e+00 2.1856583702079049e+00 -6.7683087387299446e-05  1.8490183200877919e+00 2.2076464624876158e+00 7.0872460120174446e-05  1.8465516003966540e+00 2.2273528994133658e+00 -7.2545331693770151e-05  1.8446125519988741e+00 2.2447629631291299e+00 7.6067896053600556e-05  1.8433092084525233e+00 2.2595553434210811e+00 -7.5109256979985918e-05  1.8425916240723643e+00 2.2719748589472002e+00 7.9564055242126153e-05  1.8424703136988878e+00 2.2819585377739431e+00 -7.7664536463741614e-05  1.8427690138169777e+00 2.2900110258160340e+00 8.0055262666718337e-05  1.8434103908163615e+00 2.2963243266982976e+00 -8.0502967169877155e-05  1.8441616674262835e+00 2.3015138781650433e+00 7.6676971147955845e-05  1.8450007970019426e+00 2.3056866724846907e+00 -7.5491027193589055e-05  1.8457397164697100e+00 2.3093123899837291e+00 6.8883078917709672e-05  1.8464484649101816e+00 2.3123379686806529e+00 -6.3336541988612659e-05  1.8470081797344653e+00 2.3150417785727169e+00 5.6079035686836654e-05  1.8475241737034835e+00 2.3173155804185246e+00 -4.6869658397028860e-05  1.8478869058332328e+00 2.3193580417696888e+00 3.7434138300230346e-05  1.8482399144604085e+00 2.3210855738471845e+00 -2.4570487457415836e-05  1.8484519292811461e+00 2.3225877839860720e+00 1.1350832977992214e-05  1.8486630565332240e+00 2.3239006033713441e+00 3.3031287146098340e-06  1.8487788943516923e+00 2.3249888028023236e+00 -1.8933519014805668e-05  1.8488946040874670e+00 2.3259734187917558e+00 3.4078520624211563e-05  1.8489258064171181e+00 2.3267237119162867e+00 -4.9998681564439894e-05  1.8489951675627017e+00 2.3275100351575633e+00 6.3991505574228659e-05  1.8489778670249317e+00 2.3279597618781134e+00 -7.8494483314493080e-05  1.8489929631265907e+00 2.3285988194141494e+00 9.0907192610093513e-05  1.8489736573199249e+00 2.3288797634080094e+00 -1.0331898570908329e-04  1.8489526612279890e+00 2.3293695866800954e+00 1.1369172866743010e-04  1.84891213718636