<?xml version="1.0"?>
<VTKFile type="UnstructuredGrid"  version="0.1"  >
<UnstructuredGrid>
<Piece  NumberOfPoints="8241" NumberOfCells="16000">
<Points>
<DataArray  type="Float64"  NumberOfComponents="3"  format="ascii">-5 -1 0  -4.95 -1 0  -4.9 -1 0  -4.85 -1 0  -4.8 -1 0  -4.75 -1 0  -4.7 -1 0  -4.65 -1 0  -4.6 -1 0  -4.55 -1 0  -4.5 -1 0  -4.45 -1 0  -4.4 -1 0  -4.35 -1 0  -4.3 -1 0  -4.25 -1 0  -4.2 -1 0  -4.15 -1 0  -4.1 -1 0  -4.05 -1 0  -4 -1 0  -3.95 -1 0  -3.9 -1 0  -3.85 -1 0  -3.8 -1 0  -3.75 -1 0  -3.7 -1 0  -3.65 -1 0  -3.6 -1 0  -3.55 -1 0  -3.5 -1 0  -3.45 -1 0  -3.4 -1 0  -3.35 -1 0  -3.3 -1 0  -3.25 -1 0  -3.2 -1 0  -3.15 -1 0  -3.1 -1 0  -3.05 -1 0  -3 -1 0  -2.95 -1 0  -2.9 -1 0  -2.85 -1 0  -2.8 -1 0  -2.75 -1 0  -2.7 -1 0  -2.65 -1 0  -2.6 -1 0  -2.55 -1 0  -2.5 -1 0  -2.45 -1 0  -2.4 -1 0  -2.35 -1 0  -2.3 -1 0  -2.25 -1 0  -2.2 -1 0  -2.15 -1 0  -2.1 -1 0  -2.05 -1 0  -2 -1 0  -1.95 -1 0  -1.9 -1 0  -1.85 -1 0  -1.8 -1 0  -1.75 -1 0  -1.7 -1 0  -1.65 -1 0  -1.6 -1 0  -1.55 -1 0  -1.5 -1 0  -1.45 -1 0  -1.4 -1 0  -1.35 -1 0  -1.3 -1 0  -1.25 -1 0  -1.2 -1 0  -1.15 -1 0  -1.1 -1 0  -1.05 -1 0  -1 -1 0  -0.9500000000000002 -1 0  -0.9000000000000004 -1 0  -0.8499999999999996 -1 0  -0.7999999999999998 -1 0  -0.75 -1 0  -0.7000000000000002 -1 0  -0.6500000000000004 -1 0  -0.5999999999999996 -1 0  -0.5499999999999998 -1 0  -0.5 -1 0  -0.4500000000000002 -1 0  -0.4000000000000004 -1 0  -0.3499999999999996 -1 0  -0.2999999999999998 -1 0  -0.25 -1 0  -0.2000000000000002 -1 0  -0.1500000000000004 -1 0  -0.09999999999999964 -1 0  -0.04999999999999982 -1 0  0 -1 0  0.04999999999999982 -1 0  0.09999999999999964 -1 0  0.1500000000000004 -1 0  0.2000000000000002 -1 0  0.25 -1 0  0.2999999999999998 -1 0  0.3499999999999996 -1 0  0.4000000000000004 -1 0  0.4500000000000002 -1 0  0.5 -1 0  0.5499999999999998 -1 0  0.5999999999999996 -1 0  0.6500000000000004 -1 0  0.7000000000000002 -1 0  0.75 -1 0  0.7999999999999998 -1 0  0.8499999999999996 -1 0  0.9000000000000004 -1 0  0.9500000000000002 -1 0  1 -1 0  1.05 -1 0  1.1 -1 0  1.15 -1 0  1.2 -1 0  1.25 -1 0  1.3 -1 0  1.35 -1 0  1.4 -1 0  1.45 -1 0  1.5 -1 0  1.55 -1 0  1.6 -1 0  1.65 -1 0  1.7 -1 0  1.75 -1 0  1.8 -1 0  1.85 -1 0  1.9 -1 0  1.95 -1 0  2 -1 0  2.05 -1 0  2.1 -1 0  2.15 -1 0  2.2 -1 0  2.25 -1 0  2.3 -1 0  2.35 -1 0  2.4 -1 0  2.45 -1 0  2.5 -1 0  2.55 -1 0  2.6 -1 0  2.65 -1 0  2.7 -1 0  2.75 -1 0  2.8 -1 0  2.85 -1 0  2.9 -1 0  2.95 -1 0  3 -1 0  3.050000000000001 -1 0  3.1 -1 0  3.15 -1 0  3.199999999999999 -1 0  3.25 -1 0  3.300000000000001 -1 0  3.35 -1 0  3.4 -1 0  3.449999999999999 -1 0  3.5 -1 0  3.550000000000001 -1 0  3.6 -1 0  3.65 -1 0  3.699999999999999 -1 0  3.75 -1 0  3.800000000000001 -1 0  3.85 -1 0  3.9 -1 0  3.949999999999999 -1 0  4 -1 0  4.050000000000001 -1 0  4.1 -1 0  4.15 -1 0  4.199999999999999 -1 0  4.25 -1 0  4.300000000000001 -1 0  4.35 -1 0  4.4 -1 0  4.449999999999999 -1 0  4.5 -1 0  4.550000000000001 -1 0  4.6 -1 0  4.65 -1 0  4.699999999999999 -1 0  4.75 -1 0  4.800000000000001 -1 0  4.85 -1 0  4.9 -1 0  4.949999999999999 -1 0  5 -1 0  -5 -0.95 0  -4.95 -0.95 0  -4.9 -0.95 0  -4.85 -0.95 0  -4.8 -0.95 0  -4.75 -0.95 0  -4.7 -0.95 0  -4.65 -0.95 0  -4.6 -0.95 0  -4.55 -0.95 0  -4.5 -0.95 0  -4.45 -0.95 0  -4.4 -0.95 0  -4.35 -0.95 0  -4.3 -0.95 0  -4.25 -0.95 0  -4.2 -0.95 0  -4.15 -0.95 0  -4.1 -0.95 0  -4.05 -0.95 0  -4 -0.95 0  -3.95 -0.95 0  -3.9 -0.95 0  -3.85 -0.95 0  -3.8 -0.95 0  -3.75 -0.95 0  -3.7 -0.95 0  -3.65 -0.95 0  -3.6 -0.95 0  -3.55 -0.95 0  -3.5 -0.95 0  -3.45 -0.95 0  -3.4 -0.95 0  -3.35 -0.95 0  -3.3 -0.95 0  -3.25 -0.95 0  -3.2 -0.95 0  -3.15 -0.95 0  -3.1 -0.95 0  -3.05 -0.95 0  -3 -0.95 0  -2.95 -0.95 0  -2.9 -0.95 0  -2.85 -0.95 0  -2.8 -0.95 0  -2.75 -0.95 0  -2.7 -0.95 0  -2.65 -0.95 0  -2.6 -0.95 0  -2.55 -0.95 0  -2.5 -0.95 0  -2.45 -0.95 0  -2.4 -0.95 0  -2.35 -0.95 0  -2.3 -0.95 0  -2.25 -0.95 0  -2.2 -0.95 0  -2.15 -0.95 0  -2.1 -0.95 0  -2.05 -0.95 0  -2 -0.95 0  -1.95 -0.95 0  -1.9 -0.95 0  -1.85 -0.95 0  -1.8 -0.95 0  -1.75 -0.95 0  -1.7 -0.95 0  -1.65 -0.95 0  -1.6 -0.95 0  -1.55 -0.95 0  -1.5 -0.95 0  -1.45 -0.95 0  -1.4 -0.95 0  -1.35 -0.95 0  -1.3 -0.95 0  -1.25 -0.95 0  -1.2 -0.95 0  -1.15 -0.95 0  -1.1 -0.95 0  -1.05 -0.95 0  -1 -0.95 0  -0.9500000000000002 -0.95 0  -0.9000000000000004 -0.95 0  -0.8499999999999996 -0.95 0  -0.7999999999999998 -0.95 0  -0.75 -0.95 0  -0.7000000000000002 -0.95 0  -0.6500000000000004 -0.95 0  -0.5999999999999996 -0.95 0  -0.5499999999999998 -0.95 0  -0.5 -0.95 0  -0.4500000000000002 -0.95 0  -0.4000000000000004 -0.95 0  -0.3499999999999996 -0.95 0  -0.2999999999999998 -0.95 0  -0.25 -0.95 0  -0.2000000000000002 -0.95 0  -0.1500000000000004 -0.95 0  -0.09999999999999964 -0.95 0  -0.04999999999999982 -0.95 0  0 -0.95 0  0.04999999999999982 -0.95 0  0.09999999999999964 -0.95 0  0.1500000000000004 -0.95 0  0.2000000000000002 -0.95 0  0.25 -0.95 0  0.2999999999999998 -0.95 0  0.3499999999999996 -0.95 0  0.4000000000000004 -0.95 0  0.4500000000000002 -0.95 0  0.5 -0.95 0  0.5499999999999998 -0.95 0  0.5999999999999996 -0.95 0  0.6500000000000004 -0.95 0  0.7000000000000002 -0.95 0  0.75 -0.95 0  0.7999999999999998 -0.95 0  0.8499999999999996 -0.95 0  0.9000000000000004 -0.95 0  0.9500000000000002 -0.95 0  1 -0.95 0  1.05 -0.95 0  1.1 -0.95 0  1.15 -0.95 0  1.2 -0.95 0  1.25 -0.95 0  1.3 -0.95 0  1.35 -0.95 0  1.4 -0.95 0  1.45 -0.95 0  1.5 -0.95 0  1.55 -0.95 0  1.6 -0.95 0  1.65 -0.95 0  1.7 -0.95 0  1.75 -0.95 0  1.8 -0.95 0  1.85 -0.95 0  1.9 -0.95 0  1.95 -0.95 0  2 -0.95 0  2.05 -0.95 0  2.1 -0.95 0  2.15 -0.95 0  2.2 -0.95 0  2.25 -0.95 0  2.3 -0.95 0  2.35 -0.95 0  2.4 -0.95 0  2.45 -0.95 0  2.5 -0.95 0  2.55 -0.95 0  2.6 -0.95 0  2.65 -0.95 0  2.7 -0.95 0  2.75 -0.95 0  2.8 -0.95 0  2.85 -0.95 0  2.9 -0.95 0  2.95 -0.95 0  3 -0.95 0  3.050000000000001 -0.95 0  3.1 -0.95 0  3.15 -0.95 0  3.199999999999999 -0.95 0  3.25 -0.95 0  3.300000000000001 -0.95 0  3.35 -0.95 0  3.4 -0.95 0  3.449999999999999 -0.95 0  3.5 -0.95 0  3.550000000000001 -0.95 0  3.6 -0.95 0  3.65 -0.95 0  3.699999999999999 -0.95 0  3.75 -0.95 0  3.800000000000001 -0.95 0  3.85 -0.95 0  3.9 -0.95 0  3.949999999999999 -0.95 0  4 -0.95 0  4.050000000000001 -0.95 0  4.1 -0.95 0  4.15 -0.95 0  4.199999999999999 -0.95 0  4.25 -0.95 0  4.300000000000001 -0.95 0  4.35 -0.95 0  4.4 -0.95 0  4.449999999999999 -0.95 0  4.5 -0.95 0  4.550000000000001 -0.95 0  4.6 -0.95 0  4.65 -0.95 0  4.699999999999999 -0.95 0  4.75 -0.95 0  4.800000000000001 -0.95 0  4.85 -0.95 0  4.9 -0.95 0  4.949999999999999 -0.95 0  5 -0.95 0  -5 -0.9 0  -4.95 -0.9 0  -4.9 -0.9 0  -4.85 -0.9 0  -4.8 -0.9 0  -4.75 -0.9 0  -4.7 -0.9 0  -4.65 -0.9 0  -4.6 -0.9 0  -4.55 -0.9 0  -4.5 -0.9 0  -4.45 -0.9 0  -4.4 -0.9 0  -4.35 -0.9 0  -4.3 -0.9 0  -4.25 -0.9 0  -4.2 -0.9 0  -4.15 -0.9 0  -4.1 -0.9 0  -4.05 -0.9 0  -4 -0.9 0  -3.95 -0.9 0  -3.9 -0.9 0  -3.85 -0.9 0  -3.8 -0.9 0  -3.75 -0.9 0  -3.7 -0.9 0  -3.65 -0.9 0  -3.6 -0.9 0  -3.55 -0.9 0  -3.5 -0.9 0  -3.45 -0.9 0  -3.4 -0.9 0  -3.35 -0.9 0  -3.3 -0.9 0  -3.25 -0.9 0  -3.2 -0.9 0  -3.15 -0.9 0  -3.1 -0.9 0  -3.05 -0.9 0  -3 -0.9 0  -2.95 -0.9 0  -2.9 -0.9 0  -2.85 -0.9 0  -2.8 -0.9 0  -2.75 -0.9 0  -2.7 -0.9 0  -2.65 -0.9 0  -2.6 -0.9 0  -2.55 -0.9 0  -2.5 -0.9 0  -2.45 -0.9 0  -2.4 -0.9 0  -2.35 -0.9 0  -2.3 -0.9 0  -2.25 -0.9 0  -2.2 -0.9 0  -2.15 -0.9 0  -2.1 -0.9 0  -2.05 -0.9 0  -2 -0.9 0  -1.95 -0.9 0  -1.9 -0.9 0  -1.85 -0.9 0  -1.8 -0.9 0  -1.75 -0.9 0  -1.7 -0.9 0  -1.65 -0.9 0  -1.6 -0.9 0  -1.55 -0.9 0  -1.5 -0.9 0  -1.45 -0.9 0  -1.4 -0.9 0  -1.35 -0.9 0  -1.3 -0.9 0  -1.25 -0.9 0  -1.2 -0.9 0  -1.15 -0.9 0  -1.1 -0.9 0  -1.05 -0.9 0  -1 -0.9 0  -0.9500000000000002 -0.9 0  -0.9000000000000004 -0.9 0  -0.8499999999999996 -0.9 0  -0.7999999999999998 -0.9 0  -0.75 -0.9 0  -0.7000000000000002 -0.9 0  -0.6500000000000004 -0.9 0  -0.5999999999999996 -0.9 0  -0.5499999999999998 -0.9 0  -0.5 -0.9 0  -0.4500000000000002 -0.9 0  -0.4000000000000004 -0.9 0  -0.3499999999999996 -0.9 0  -0.2999999999999998 -0.9 0  -0.25 -0.9 0  -0.2000000000000002 -0.9 0  -0.1500000000000004 -0.9 0  -0.09999999999999964 -0.9 0  -0.04999999999999982 -0.9 0  0 -0.9 0  0.04999999999999982 -0.9 0  0.09999999999999964 -0.9 0  0.1500000000000004 -0.9 0  0.2000000000000002 -0.9 0  0.25 -0.9 0  0.2999999999999998 -0.9 0  0.3499999999999996 -0.9 0  0.4000000000000004 -0.9 0  0.4500000000000002 -0.9 0  0.5 -0.9 0  0.5499999999999998 -0.9 0  0.5999999999999996 -0.9 0  0.6500000000000004 -0.9 0  0.7000000000000002 -0.9 0  0.75 -0.9 0  0.7999999999999998 -0.9 0  0.8499999999999996 -0.9 0  0.9000000000000004 -0.9 0  0.9500000000000002 -0.9 0  1 -0.9 0  1.05 -0.9 0  1.1 -0.9 0  1.15 -0.9 0  1.2 -0.9 0  1.25 -0.9 0  1.3 -0.9 0  1.35 -0.9 0  1.4 -0.9 0  1.45 -0.9 0  1.5 -0.9 0  1.55 -0.9 0  1.6 -0.9 0  1.65 -0.9 0  1.7 -0.9 0  1.75 -0.9 0  1.8 -0.9 0  1.85 -0.9 0  1.9 -0.9 0  1.95 -0.9 0  2 -0.9 0  2.05 -0.9 0  2.1 -0.9 0  2.15 -0.9 0  2.2 -0.9 0  2.25 -0.9 0  2.3 -0.9 0  2.35 -0.9 0  2.4 -0.9 0  2.45 -0.9 0  2.5 -0.9 0  2.55 -0.9 0  2.6 -0.9 0  2.65 -0.9 0  2.7 -0.9 0  2.75 -0.9 0  2.8 -0.9 0  2.85 -0.9 0  2.9 -0.9 0  2.95 -0.9 0  3 -0.9 0  3.050000000000001 -0.9 0  3.1 -0.9 0  3.15 -0.9 0  3.199999999999999 -0.9 0  3.25 -0.9 0  3.300000000000001 -0.9 0  3.35 -0.9 0  3.4 -0.9 0  3.449999999999999 -0.9 0  3.5 -0.9 0  3.550000000000001 -0.9 0  3.6 -0.9 0  3.65 -0.9 0  3.699999999999999 -0.9 0  3.75 -0.9 0  3.800000000000001 -0.9 0  3.85 -0.9 0  3.9 -0.9 0  3.949999999999999 -0.9 0  4 -0.9 0  4.050000000000001 -0.9 0  4.1 -0.9 0  4.15 -0.9 0  4.199999999999999 -0.9 0  4.25 -0.9 0  4.300000000000001 -0.9 0  4.35 -0.9 0  4.4 -0.9 0  4.449999999999999 -0.9 0  4.5 -0.9 0  4.550000000000001 -0.9 0  4.6 -0.9 0  4.65 -0.9 0  4.699999999999999 -0.9 0  4.75 -0.9 0  4.800000000000001 -0.9 0  4.85 -0.9 0  4.9 -0.9 0  4.949999999999999 -0.9 0  5 -0.9 0  -5 -0.85 0  -4.95 -0.85 0  -4.9 -0.85 0  -4.85 -0.85 0  -4.8 -0.85 0  -4.75 -0.85 0  -4.7 -0.85 0  -4.65 -0.85 0  -4.6 -0.85 0  -4.55 -0.85 0  -4.5 -0.85 0  -
[...]
<PointData  Vectors="f_15"> 
<DataArray  type="Float64"  Name="f_15"  NumberOfComponents="3" format="ascii">3.0000000000000004e+00 0.0000000000000000e+00 0.0000000000000000e+00  3.0000000000000004e+00 1.1353835544376917e-15 0.0000000000000000e+00  3.0000000000000018e+00 -5.4525670865873728e-16 0.0000000000000000e+00  3.0000000000000000e+00 5.3050564605817527e-16 0.0000000000000000e+00  3.0000000000000013e+00 -1.7527155518042699e-16 0.0000000000000000e+00  3.0000000000000009e+00 -7.5714949805633506e-16 0.0000000000000000e+00  3.0000000000000013e+00 -5.0972334562893071e-16 0.0000000000000000e+00  3.0000000000000004e+00 -4.0830714632165376e-16 0.0000000000000000e+00  3.0000000000000000e+00 -1.1112895518774170e-15 0.0000000000000000e+00  3.0000000000000013e+00 -9.9849587396442433e-16 0.0000000000000000e+00  3.0000000000000000e+00 1.0558825694967701e-15 0.0000000000000000e+00  3.0000000000000009e+00 -5.3174871557706196e-16 0.0000000000000000e+00  3.0000000000000009e+00 6.4226336390535560e-16 0.0000000000000000e+00  3.0000000000000000e+00 -6.8052529159947307e-16 0.0000000000000000e+00  3.0000000000000018e+00 5.0550028368332733e-16 0.0000000000000000e+00  3.0000000000000004e+00 -6.7776245969831804e-16 0.0000000000000000e+00  3.0000000000000009e+00 9.9878440192048703e-16 0.0000000000000000e+00  3.0000000000000004e+00 -3.8387559034902761e-16 0.0000000000000000e+00  3.0000000000000000e+00 4.2250149018935767e-16 0.0000000000000000e+00  3.0000000000000004e+00 -9.2105272010649598e-16 0.0000000000000000e+00  3.0000000000000018e+00 3.5615581405272085e-16 0.0000000000000000e+00  3.0000000000000004e+00 -1.0451571060753814e-15 0.0000000000000000e+00  3.0000000000000027e+00 2.2378929707896143e-15 0.0000000000000000e+00  2.9999999999999991e+00 -3.6994962373780774e-15 0.0000000000000000e+00  3.0000000000000062e+00 8.6031024346759975e-15 0.0000000000000000e+00  2.9999999999999880e+00 -1.7361852454586438e-14 0.0000000000000000e+00  3.0000000000000289e+00 3.7374794199740652e-14 0.0000000000000000e+00  2.9999999999999427e+00 -8.2048204216801566e-14 0.0000000000000000e+00  3.0000000000001230e+00 1.7758485735095916e-13 0.0000000000000000e+00  2.9999999999997531e+00 -3.7265783956570315e-13 0.0000000000000000e+00  3.0000000000004845e+00 7.5350291535040202e-13 0.0000000000000000e+00  2.9999999999990838e+00 -1.4676444215805879e-12 0.0000000000000000e+00  3.0000000000016884e+00 2.7635071731795021e-12 0.0000000000000000e+00  2.9999999999969793e+00 -5.0329615058735402e-12 0.0000000000000000e+00  3.0000000000052656e+00 8.9022360759093579e-12 0.0000000000000000e+00  2.9999999999910405e+00 -1.5325325637114945e-11 0.0000000000000000e+00  3.0000000000149227e+00 2.5760400196564924e-11 0.0000000000000000e+00  2.9999999999756248e+00 -4.2382510875069815e-11 0.0000000000000000e+00  3.0000000000391389e+00 6.8426824735571334e-11 0.0000000000000000e+00  2.9999999999381091e+00 -1.0867280608815731e-10 0.0000000000000000e+00  3.0000000000965983e+00 1.7014737337403577e-10 0.0000000000000000e+00  2.9999999998509268e+00 -2.6318528990739486e-10 0.0000000000000000e+00  3.0000000002278608e+00 4.0293626007425372e-10 0.0000000000000000e+00  2.9999999996545310e+00 -6.1159176529795538e-10 0.0000000000000000e+00  3.0000000005201946e+00 9.2157657817592882e-10 0.0000000000000000e+00  2.9999999992212572e+00 -1.3802262812252295e-09 0.0000000000000000e+00  3.0000000011600867e+00 2.0566016447250897e-09 0.0000000000000000e+00  2.9999999982789598e+00 -3.0514179555997013e-09 0.0000000000000000e+00  3.0000000025443008e+00 4.5113275892161217e-09 0.0000000000000000e+00  2.9999999962502515e+00 -6.6490251502837803e-09 0.0000000000000000e+00  3.0000000055102687e+00 9.7712414759152000e-09 0.0000000000000000e+00  2.9999999919260931e+00 -1.4317841557193501e-08 0.0000000000000000e+00  3.0000000117955152e+00 2.0917932932500124e-08 0.0000000000000000e+00  2.9999999828170991e+00 -3.0471369236733960e-08 0.0000000000000000e+00  3.0000000249624033e+00 4.4267534583038334e-08 0.0000000000000000e+00  2.9999999638287944e+00 -6.4147162365538713e-08 0.0000000000000000e+00  3.0000000522736876e+00 9.2718274834416800e-08 0.0000000000000000e+00  2.9999999246793299e+00 -1.3361479850100480e-07 0.0000000000000000e+00  3.0000001081354188e+00 1.9186637908794545e-07 0.0000000000000000e+00  2.9999998453539294e+00 -2.7437637438588881e-07 0.0000000000000000e+00  3.0000002202597509e+00 3.9082637570466883e-07 0.0000000000000000e+00  2.9999996873063877e+00 -5.5471348045584014e-07 0.0000000000000000e+00  3.0000004424387989e+00 7.8519898980916025e-07 0.0000000000000000e+00  2.9999993757341024e+00 -1.1078833628312379e-06 0.0000000000000000e+00  3.0000008765496076e+00 1.5569947160257292e-06 0.0000000000000000e+00  2.9999987754965272e+00 -2.1745348344120523e-06 0.0000000000000000e+00  3.0000016978127886e+00 3.0166651543718406e-06 0.0000000000000000e+00  2.9999976581649355e+00 -4.1571539637404429e-06 0.0000000000000000e+00  3.0000032131142977e+00 5.7059031212917873e-06 0.0000000000000000e+00  2.9999956005963417e+00 -7.8123555862534920e-06 0.0000000000000000e+00  3.0000059973366393e+00 1.0663311050774508e-05 0.0000000000000000e+00  2.9999918803380763e+00 -1.4455363953204500e-05 0.0000000000000000e+00  3.0000108675575947e+00 1.9351539789564119e-05 0.0000000000000000e+00  2.9999856546416512e+00 -2.5542191966003302e-05 0.0000000000000000e+00  3.0000187537449055e+00 3.3324996882293654e-05 0.0000000000000000e+00  2.9999756066431336e+00 -4.3342139020873094e-05 0.0000000000000000e+00  3.0000317592022703e+00 5.6503129303230074e-05 0.0000000000000000e+00  2.9999588309015084e+00 -7.3518811339453612e-05 0.0000000000000000e+00  3.0000524954809946e+00 9.4125350850829412e-05 0.0000000000000000e+00  2.9999350253396799e+00 -1.1655661850469815e-04 0.0000000000000000e+00  3.0000776810736380e+00 1.3888638351463456e-04 0.0000000000000000e+00  2.9999090082577387e+00 -1.6170949841297390e-04 0.0000000000000000e+00  3.0001070052496170e+00 1.8990417277757956e-04 0.0000000000000000e+00  2.9998719755306369e+00 -2.2948574367886719e-04 0.0000000000000000e+00  3.0001520639454462e+00 2.7755498400667498e-04 0.0000000000000000e+00  2.9998305922286495e+00 -3.1430021815516700e-04 0.0000000000000000e+00  3.0001662110685277e+00 3.1022902449906811e-04 0.0000000000000000e+00  2.9998611437234888e+00 -2.5099958906412849e-04 0.0000000000000000e+00  3.0000934293852990e+00 1.8153690234347386e-04 0.0000000000000000e+00  2.9999109149217156e+00 -1.0199811482856890e-04 0.0000000000000000e+00  2.9999799993079317e+00 2.8764676937276202e-04 0.0000000000000000e+00  2.9996898523903823e+00 3.5205722176842320e-04 0.0000000000000000e+00  2.9989277383465209e+00 1.7442726023970999e-03 0.0000000000000000e+00  2.9971183933748922e+00 5.8461260275588815e-03 0.0000000000000000e+00  2.9906937782246339e+00 1.5383235356681518e-02 0.0000000000000000e+00  2.9774597909471252e+00 4.1720221284668971e-02 0.0000000000000000e+00  2.9474661302664189e+00 9.3883473069270182e-02 0.0000000000000000e+00  2.8950058006581507e+00 1.9126079105042890e-01 0.0000000000000000e+00  2.8123235050363284e+00 3.4348853409944402e-01 0.0000000000000000e+00  2.7006115581699448e+00 5.5131352983738491e-01 0.0000000000000000e+00  2.5698665500587610e+00 8.0522482016053643e-01 0.0000000000000000e+00  2.4275887007216079e+00 1.0823496475524106e+00 0.0000000000000000e+00  2.2870844586177652e+00 1.3641366514467432e+00 0.0000000000000000e+00  2.1543963967981421e+00 1.6298178204061271e+00 0.0000000000000000e+00  2.0288322317140901e+00 1.8372382881189822e+00 0.0000000000000000e+00  1.9048308768179232e+00 1.9349866987490056e+00 0.0000000000000000e+00  1.7699251793970154e+00 1.8750227096684775e+00 0.0000000000000000e+00  1.6141540265744285e+00 1.6311033478962655e+00 0.0000000000000000e+00  1.4275996965022937e+00 1.2074863136266965e+00 0.0000000000000000e+00  1.2398306865944846e+00 7.0956481843772534e-01 0.0000000000000000e+00  1.1098386982096367e+00 3.3500039714603669e-01 0.0000000000000000e+00  1.0451576375632705e+00 1.4011019574672168e-01 0.0000000000000000e+00  1.0177693194009207e+00 5.5690931225458762e-02 0.0000000000000000e+00  1.0067364068093223e+00 2.1202937615852326e-02 0.0000000000000000e+00  1.0024152571651876e+00 7.6559849948656033e-03 0.0000000000000000e+00  1.0008112068273129e+00 2.5830867056401319e-03 0.0000000000000000e+00  1.0002542342388563e+00 8.0762470121895232e-04 0.0000000000000000e+00  1.0000727837283701e+00 2.3677393531233468e-04 0.0000000000000000e+00  1.0000196740950225e+00 6.3007651163373291e-05 0.0000000000000000e+00  1.0000049345819935e+00 1.5617076003195236e-05 0.0000000000000000e+00  1.0000010354119730e+00 3.8788658289955114e-06 0.0000000000000000e+00  1.0000002723586667e+00 6.8598913385230281e-07 0.0000000000000000e+00  1.0000000466731831e+00 1.7075742835579938e-07 0.0000000000000000e+00  1.0000000008392860e+00 5.0480598709298440e-08 0.0000000000000000e+00  1.0000000074381790e+00 -1.0896774318225205e-08 0.0000000000000000e+00  9.9999999850513799e-01 6.7314145395411009e-09 0.0000000000000000e+00  9.9999999974319065e-01 5.1191019597210150e-10 0.0000000000000000e+00  1.0000000006534313e+00 -1.6462352408867581e-09 0.0000000000000000e+00  9.9999999965431041e-01 1.0114770668055361e-09 0.0000000000000000e+00  1.0000000000678055e+00 -2.4381015038670679e-10 0.0000000000000000e+00  1.0000000000404110e+00 -8.5452257851800135e-11 0.0000000000000000e+00  9.9999999995778943e-01 1.1364720301506372e-10 0.0000000000000000e+00  1.0000000000174716e+00 -5.2433022156783535e-11 0.0000000000000000e+00  9.9999999999879319e-01 6.7041656319093726e-12 0.0000000000000000e+00  9.9999999999668698e-01 7.9772352307971488e-12 0.0000000000000000e+00  1.0000000000023797e+00 -6.6015055497838612e-12 0.0000000000000000e+00  9.9999999999926037e-01 2.3310890700662548e-12 0.0000000000000000e+00  9.9999999999992273e-01 4.0265995740996142e-14 0.0000000000000000e+00  1.0000000000002169e+00 -5.5312179045969918e-13 0.0000000000000000e+00  9.9999999999988254e-01 3.3655887888010946e-13 0.0000000000000000e+00  1.0000000000000251e+00 -8.5157673688784783e-14 0.0000000000000000e+00  1.0000000000000111e+00 -2.2439843611521064e-14 0.0000000000000000e+00  9.9999999999998823e-01 3.2671109678207686e-14 0.0000000000000000e+00  1.0000000000000053e+00 -1.5962428105340589e-14 0.0000000000000000e+00  9.9999999999999967e-01 3.4304190565363520e-15 0.0000000000000000e+00  9.9999999999999978e-01 1.3968442767283223e-15 0.0000000000000000e+00  1.0000000000000009e+00 -1.5099473610214740e-15 0.0000000000000000e+00  1.0000000000000002e+00 1.1620773045588532e-15 0.0000000000000000e+00  1.0000000000000000e+00 4.4057307805744074e-16 0.0000000000000000e+00  1.0000000000000007e+00 -1.1869605742883946e-15 0.0000000000000000e+00  1.0000000000000000e+00 3.9773149068276314e-16 0.0000000000000000e+00  1.0000000000000007e+00 -8.1749926718877387e-16 0.0000000000000000e+00  9.9999999999999967e-01 2.0176881905983946e-15 0.0000000000000000e+00  1.0000000000000002e+00 -6.2064002528025128e-16 0.0000000000000000e+00  1.0000000000000000e+00 -1.4916527921268480e-16 0.0000000000000000e+00  1.0000000000000000e+00 -1.1778301846537421e-16 0.0000000000000000e+00  1.0000000000000002e+00 6.6114406022733363e-16 0.0000000000000000e+00  1.0000000000000002e+00 -6.6290401357035995e-16 0.0000000000000000e+00  1.0000000000000000e+00 -6.2016842337749146e-16 0.0000000000000000e+00  1.0000000000000004e+00 7.6904625650545656e-16 0.0000000000000000e+00  9.9999999999999967e-01 8.0341043168234971e-16 0.0000000000000000e+00  1.0000000000000007e+00 3.4082997261506431e-17 0.0000000000000000e+00  1.0000000000000004e+00 4.8523103789843304e-16 0.0000000000000000e+00  1.0000000000000002e+00 -6.9476700829620155e-16 0.0000000000000000e+00  1.0000000000000007e+00 -8.4260362010536743e-16 0.0000000000000000e+00  1.0000000000000002e+00 -5.4468364895422144e-16 0.0000000000000000e+00  1.0000000000000002e+00 3.2287022330080245e-17 0.0000000000000000e+00  1.0000000000000004e+00 1.0231387623225399e-15 0.0000000000000000e+00  1.0000000000000002e+00 -9.7019734216107553e-16 0.0000000000000000e+00  1.0000000000000009e+00 4.8436590327560969e-16 0.0000000000000000e+00  1.0000000000000000e+00 -1.6965070410746764e-16 0.0000000000000000e+00  1.0000000000000004e+00 1.2217483365698901e-15 0.0000000000000000e+00  9.9999999999999989e-01 -2.8228973599681129e-16 0.0000000000000000e+00  1.0000000000000004e+00 -2.8860942030387718e-16 0.0000000000000000e+00  1.0000000000000002e+00 4.9490937086511339e-16 0.0000000000000000e+00  1.0000000000000004e+00 -1.6796941558863562e-15 0.0000000000000000e+00  1.0000000000000000e+00 -6.6329203999512652e-16 0.0000000000000000e+00  1.0000000000000000e+00 9.7200574646896665e-16 0.0000000000000000e+00  1.0000000000000000e+00 5.7071483204341626e-16 0.0000000000000000e+00  1.0000000000000004e+00 1.0622562968271305e-15 0.0000000000000000e+00  1.0000000000000000e+00 -9.2094451941376029e-16 0.0000000000000000e+00  1.0000000000000004e+00 1.0409663033197978e-15 0.0000000000000000e+00  1.0000000000000002e+00 -1.1324935216320475e-16 0.0000000000000000e+00  1.0000000000000004e+00 -1.2076533974525072e-15 0.0000000000000000e+00  1.0000000000000002e+00 8.3564383711168668e-16 0.0000000000000000e+00  1.0000000000000004e+00 -7.1057872233679950e-16 0.0000000000000000e+00  9.9999999999999989e-01 1.0638133102076734e-15 0.0000000000000000e+00  1.0000000000000004e+00 2.1047569736639608e-16 0.0000000000000000e+00  1.0000000000000000e+00 4.3358582564046781e-16 0.0000000000000000e+00  1.0000000000000007e+00 -4.0658032358218565e-16 0.0000000000000000e+00  9.9999999999999989e-01 2.4282414884998093e-16 0.0000000000000000e+00  1.0000000000000000e+00 -3.9183796675642370e-16 0.0000000000000000e+00  1.0000000000000004e+00 -1.4564484986516474e-16 0.0000000000000000e+00  1.0000000000000002e+00 5.3560032556901038e-17 0.0000000000000000e+00  1.0000000000000002e+00 -2.1913396750944199e-17 0.0000000000000000e+00  1.0000000000000002e+00 -4.3401666099641066e-16 0.0000000000000000e+00  1.0000000000000004e+00 7.7682596215979881e-17 0.0000000000000000e+00  1.0000000000000004e+00 2.1496067448193273e-16 0.0000000000000000e+00  1.0000000000000004e+00 -2.3885773389435559e-16 0.0000000000000000e+00  1.0000000000000002e+00 -1.0179051484061772e-15 0.0000000000000000e+00  1.0000000000000000e+00 0.0000000000000000e+00 0.0000000000000000e+00  2.9999999999999991e+00 0.0000000000000000e+00 -8.6591157988303709e-16  3.0000000000000013e+00 -8.0836006964771540e-16 -1.2626419783300024e-16  3.0000000000000000e+00 3.0675677331963010e-16 -1.7884425358423413e-16  3.0000000000000004e+00 2.6167388652338903e-16 -2.5363269889399477e-16  3.0000000000000009e+00 -3.8657955114557685e-16 1.7734284282997484e-16  3.0000000000000000e+00 -1.2291690768948015e-16 -2.3477967432238343e-17  3.0000000000000004e+00 1.4701604473358369e-16 -3.1091465566436589e-16  3.0000000000000004e+00 4.1599504080241222e-16 4.2478321681165253e-16  3.0000000000000009e+00 2.2549951749387287e-16 -6.0304686590979464e-16  3.0000000000000000e+00 1.4549474612298663e-15 8.4788782454131619e-16  3.0000000000000000e+00 3.9629669705752393e-16 -1.3612891156722851e-16  3.0000000000000009e+00 3.6284536484958835e-16 3.7798182377988585e-16  2.9999999999999996e+00 -3.6081702503410419e-16 -1.6619530988228936e-16  3.0000000000000009e+00 -2.6046324073310200e-16 3.5706361314515625e-16  3.0000000000000004e+00 -3.9045454085084549e-16 1.1752915257289596e-17  3.0000000000000004e+00 -3.4001099078012580e-16 -3.3608520109259146e-16  3.0000000000000009e+00 1.4576496751912398e-16 -5.8778485483233417e-18  3.0000000000000004e+00 -8.4217059867132160e-16 -3.6653314973014472e-16  3.0000000000000009e+00 -1.7922712516505273e-16 3.1731829476690980e-16  3.0000000000000009e+00 -5.1220460986607704e-16 -4.6087551221314427e-16  3.0000000000000004e+00 -6.5952989107435421e-16 8.5360423744821230e-16  3.0000000000000013e+00 -1.6128705323424791e-16 -7.8985099922740385e-16  3.0000000000000009e+00 -9.8715904831725815e-16 1.7422394813558314e-15  3.0000000000000013e+00 -2.7864679834846135e-16 -3.3112466726009696e-15  2.9999999999999991e+00 7.6162561985058315e-16 7.4708649078712296e-15  3.0000000000000044e+00 -2.4880523255564848e-16 -1.5634198981588264e-14  2.9999999999999929e+00 1.7007578394338204e-15 3.2271325109636355e-14  3.0000000000000151e+00 -1.7870467626453321e-15 -6.5319542587748088e-14  2.9999999999999738e+00 4.3397471211298319e-15 1.2989880854516011e-13  3.0000000000000475e+00 -1.2125496865154948e-14 -2.4938096515642661e-13  2.9999999999999281e+00 3.7059028096300391e-14 4.6280679112247087e-13  3.0000000000001066e+00 -9.9625734340140943e-14 -8.3002078682090570e-13  2.9999999999998623e+00 2.3870033130743081e-13 1.4451004969853195e-12  3.0000000000001537e+00 -5.3102185972911919e-13 -2.4476881607644844e-12  2.9999999999998876e+00 1.0965801369238704e-12 4.0429647972553100e-12  2.9999999999999569e+00 -2.1501418193424709e-12 -6.5324148454426569e-12  3.0000000000004277e+00 4.0119960271544577e-12 1.0354073200031248e-11  2.9999999999987899e+00 -7.1984970335094509e-12 -1.6143357794461313e-11  3.0000000000026694e+00 1.2478348529141143e-11 2.4825442445478961e-11  2.9999999999947913e+00 -2.1000941581870776e-11 -3.7750813488728443e-11  3.0000000000094325e+00 3.4462807791198399e-11 5.6901415379160705e-11  2.9999999999837850e+00 -5.5334047786542781e-11 -8.5193452443207167e-11  3.0000000000268372e+00 8.7238223929091709e-11 1.2692617732355186e-10  2.9999999999568594e+00 -1.3544512729247940e-10 -1.8844306529201089e-10  3.0000000000678022e+00 2.0765549173674136e-10 2.7909348814345448e-10  2.9999999998953406e+00 -3.1503407394226880e-10 -4.1264917920273932e-10  3.0000000001592100e+00 4.7372508748828750e-10 6.0935290991734543e-10  2.9999999997607132e+00 -7.0701845293116333e-10 -8.9887680881662989e-10  3.0000000003561644e+00 1.0486049472464965e-09 1.3245418784305114e-09  2.9999999994737978e+00 -1.5475102001196019e-09 -1.9493091274377983e-09  3.0000000007732783e+00 2.2751655062128803e-09 2.8643165986069572e-09  2.9999999988681707e+00 -3.3349398235851448e-09 -4.2011204303743676e-09  3.0000000016504629e+00 4.8740374062031497e-09 6.1493772856953296e-09  2.9999999976039144e+00 -7.0990815167124943e-09 -8.9819747569673919e-09  3.0000000034609298e+00 1.0298468027291934e-08 1.3090287513741560e-08  2.9999999950256298e+00 -1.4881403433904025e-08 -1.9031352292802339e-08  3.0000000071270501e+00 2.1437284692454454e-08 2.7593029969564234e-08  2.9999999898041674e+00 -3.0826805154265071e-08 -3.9879727048766181e-08  3.0000000145811669e+00 4.4259509655749647e-08 5.7445736189401761e-08  2.9999999792122822e+00 -6.3391452648215998e-08 -8.2465135229390569e-08  3.0000000294725360e+00 9.0316552549335095e-08 1.1802357063694068e-07  2.9999999586499011e+00 -1.2784344529943114e-07 -1.6837169947138677e-07  3.0000000576253920e+00 1.7967674283946264e-07 2.3946571225753377e-07  2.9999999201651137e+00 -2.5180189156591885e-07 -3.3906894631467530e-07  3.0000001112785473e+00 3.5257115014168392e-07 4.7800365186264030e-07  2.9999998449724470e+00 -4.9461945593355657e-07 -6.6986695849852053e-07  3.0000002164040316e+00 6.9073062698239647e-07 9.3496279474818915e-07  2.9999997044194333e+00 -9.5548812887623221e-07 -1.2984522267436624e-06  3.0000003969342597e+00 1.2997703092708667e-06 1.7987188544995822e-06  2.9999994805852950e+00 -1.7461655360712774e-06 -2.4779368028234023e-06  3.0000006838001378e+00 2.3398683328461255e-06 3.3942440947640230e-06  2.9999990840488078e+00 -3.1633089820863148e-06 -4.6056965583602018e-06  3.0000012552911905e+00 4.3235618127130785e-06 6.1923571896745209e-06  2.9999982909394292e+00 -5.8611230454861124e-06 -8.2655634258912674e-06  3.0000022006118665e+00 7.7214202113030261e-06 1.0973675314850642e-05  2.9999973550305898e+00 -9.7247481628774612e-06 -1.4534277679427568e-05  3.0000029759182461e+00 1.1873208144523657e-05 1.9100650385389882e-05  2.9999965385222738e+00 -1.4661726452350463e-05 -2.4781319132579387e-05  3.0000045597841307e+00 1.9072762684504513e-05 3.1510039116283937e-05  2.9999934193470623e+00 -2.5901985458376741e-05 -3.9243175576089241e-05  3.0000089742528897e+00 3.4094190173311170e-05 4.8273