<?xml version="1.0"?>
<VTKFile type="UnstructuredGrid"  version="0.1"  >
<UnstructuredGrid>
<Piece  NumberOfPoints="8241" NumberOfCells="16000">
<Points>
<DataArray  type="Float64"  NumberOfComponents="3"  format="ascii">-5 -1 0  -4.95 -1 0  -4.9 -1 0  -4.85 -1 0  -4.8 -1 0  -4.75 -1 0  -4.7 -1 0  -4.65 -1 0  -4.6 -1 0  -4.55 -1 0  -4.5 -1 0  -4.45 -1 0  -4.4 -1 0  -4.35 -1 0  -4.3 -1 0  -4.25 -1 0  -4.2 -1 0  -4.15 -1 0  -4.1 -1 0  -4.05 -1 0  -4 -1 0  -3.95 -1 0  -3.9 -1 0  -3.85 -1 0  -3.8 -1 0  -3.75 -1 0  -3.7 -1 0  -3.65 -1 0  -3.6 -1 0  -3.55 -1 0  -3.5 -1 0  -3.45 -1 0  -3.4 -1 0  -3.35 -1 0  -3.3 -1 0  -3.25 -1 0  -3.2 -1 0  -3.15 -1 0  -3.1 -1 0  -3.05 -1 0  -3 -1 0  -2.95 -1 0  -2.9 -1 0  -2.85 -1 0  -2.8 -1 0  -2.75 -1 0  -2.7 -1 0  -2.65 -1 0  -2.6 -1 0  -2.55 -1 0  -2.5 -1 0  -2.45 -1 0  -2.4 -1 0  -2.35 -1 0  -2.3 -1 0  -2.25 -1 0  -2.2 -1 0  -2.15 -1 0  -2.1 -1 0  -2.05 -1 0  -2 -1 0  -1.95 -1 0  -1.9 -1 0  -1.85 -1 0  -1.8 -1 0  -1.75 -1 0  -1.7 -1 0  -1.65 -1 0  -1.6 -1 0  -1.55 -1 0  -1.5 -1 0  -1.45 -1 0  -1.4 -1 0  -1.35 -1 0  -1.3 -1 0  -1.25 -1 0  -1.2 -1 0  -1.15 -1 0  -1.1 -1 0  -1.05 -1 0  -1 -1 0  -0.9500000000000002 -1 0  -0.9000000000000004 -1 0  -0.8499999999999996 -1 0  -0.7999999999999998 -1 0  -0.75 -1 0  -0.7000000000000002 -1 0  -0.6500000000000004 -1 0  -0.5999999999999996 -1 0  -0.5499999999999998 -1 0  -0.5 -1 0  -0.4500000000000002 -1 0  -0.4000000000000004 -1 0  -0.3499999999999996 -1 0  -0.2999999999999998 -1 0  -0.25 -1 0  -0.2000000000000002 -1 0  -0.1500000000000004 -1 0  -0.09999999999999964 -1 0  -0.04999999999999982 -1 0  0 -1 0  0.04999999999999982 -1 0  0.09999999999999964 -1 0  0.1500000000000004 -1 0  0.2000000000000002 -1 0  0.25 -1 0  0.2999999999999998 -1 0  0.3499999999999996 -1 0  0.4000000000000004 -1 0  0.4500000000000002 -1 0  0.5 -1 0  0.5499999999999998 -1 0  0.5999999999999996 -1 0  0.6500000000000004 -1 0  0.7000000000000002 -1 0  0.75 -1 0  0.7999999999999998 -1 0  0.8499999999999996 -1 0  0.9000000000000004 -1 0  0.9500000000000002 -1 0  1 -1 0  1.05 -1 0  1.1 -1 0  1.15 -1 0  1.2 -1 0  1.25 -1 0  1.3 -1 0  1.35 -1 0  1.4 -1 0  1.45 -1 0  1.5 -1 0  1.55 -1 0  1.6 -1 0  1.65 -1 0  1.7 -1 0  1.75 -1 0  1.8 -1 0  1.85 -1 0  1.9 -1 0  1.95 -1 0  2 -1 0  2.05 -1 0  2.1 -1 0  2.15 -1 0  2.2 -1 0  2.25 -1 0  2.3 -1 0  2.35 -1 0  2.4 -1 0  2.45 -1 0  2.5 -1 0  2.55 -1 0  2.6 -1 0  2.65 -1 0  2.7 -1 0  2.75 -1 0  2.8 -1 0  2.85 -1 0  2.9 -1 0  2.95 -1 0  3 -1 0  3.050000000000001 -1 0  3.1 -1 0  3.15 -1 0  3.199999999999999 -1 0  3.25 -1 0  3.300000000000001 -1 0  3.35 -1 0  3.4 -1 0  3.449999999999999 -1 0  3.5 -1 0  3.550000000000001 -1 0  3.6 -1 0  3.65 -1 0  3.699999999999999 -1 0  3.75 -1 0  3.800000000000001 -1 0  3.85 -1 0  3.9 -1 0  3.949999999999999 -1 0  4 -1 0  4.050000000000001 -1 0  4.1 -1 0  4.15 -1 0  4.199999999999999 -1 0  4.25 -1 0  4.300000000000001 -1 0  4.35 -1 0  4.4 -1 0  4.449999999999999 -1 0  4.5 -1 0  4.550000000000001 -1 0  4.6 -1 0  4.65 -1 0  4.699999999999999 -1 0  4.75 -1 0  4.800000000000001 -1 0  4.85 -1 0  4.9 -1 0  4.949999999999999 -1 0  5 -1 0  -5 -0.95 0  -4.95 -0.95 0  -4.9 -0.95 0  -4.85 -0.95 0  -4.8 -0.95 0  -4.75 -0.95 0  -4.7 -0.95 0  -4.65 -0.95 0  -4.6 -0.95 0  -4.55 -0.95 0  -4.5 -0.95 0  -4.45 -0.95 0  -4.4 -0.95 0  -4.35 -0.95 0  -4.3 -0.95 0  -4.25 -0.95 0  -4.2 -0.95 0  -4.15 -0.95 0  -4.1 -0.95 0  -4.05 -0.95 0  -4 -0.95 0  -3.95 -0.95 0  -3.9 -0.95 0  -3.85 -0.95 0  -3.8 -0.95 0  -3.75 -0.95 0  -3.7 -0.95 0  -3.65 -0.95 0  -3.6 -0.95 0  -3.55 -0.95 0  -3.5 -0.95 0  -3.45 -0.95 0  -3.4 -0.95 0  -3.35 -0.95 0  -3.3 -0.95 0  -3.25 -0.95 0  -3.2 -0.95 0  -3.15 -0.95 0  -3.1 -0.95 0  -3.05 -0.95 0  -3 -0.95 0  -2.95 -0.95 0  -2.9 -0.95 0  -2.85 -0.95 0  -2.8 -0.95 0  -2.75 -0.95 0  -2.7 -0.95 0  -2.65 -0.95 0  -2.6 -0.95 0  -2.55 -0.95 0  -2.5 -0.95 0  -2.45 -0.95 0  -2.4 -0.95 0  -2.35 -0.95 0  -2.3 -0.95 0  -2.25 -0.95 0  -2.2 -0.95 0  -2.15 -0.95 0  -2.1 -0.95 0  -2.05 -0.95 0  -2 -0.95 0  -1.95 -0.95 0  -1.9 -0.95 0  -1.85 -0.95 0  -1.8 -0.95 0  -1.75 -0.95 0  -1.7 -0.95 0  -1.65 -0.95 0  -1.6 -0.95 0  -1.55 -0.95 0  -1.5 -0.95 0  -1.45 -0.95 0  -1.4 -0.95 0  -1.35 -0.95 0  -1.3 -0.95 0  -1.25 -0.95 0  -1.2 -0.95 0  -1.15 -0.95 0  -1.1 -0.95 0  -1.05 -0.95 0  -1 -0.95 0  -0.9500000000000002 -0.95 0  -0.9000000000000004 -0.95 0  -0.8499999999999996 -0.95 0  -0.7999999999999998 -0.95 0  -0.75 -0.95 0  -0.7000000000000002 -0.95 0  -0.6500000000000004 -0.95 0  -0.5999999999999996 -0.95 0  -0.5499999999999998 -0.95 0  -0.5 -0.95 0  -0.4500000000000002 -0.95 0  -0.4000000000000004 -0.95 0  -0.3499999999999996 -0.95 0  -0.2999999999999998 -0.95 0  -0.25 -0.95 0  -0.2000000000000002 -0.95 0  -0.1500000000000004 -0.95 0  -0.09999999999999964 -0.95 0  -0.04999999999999982 -0.95 0  0 -0.95 0  0.04999999999999982 -0.95 0  0.09999999999999964 -0.95 0  0.1500000000000004 -0.95 0  0.2000000000000002 -0.95 0  0.25 -0.95 0  0.2999999999999998 -0.95 0  0.3499999999999996 -0.95 0  0.4000000000000004 -0.95 0  0.4500000000000002 -0.95 0  0.5 -0.95 0  0.5499999999999998 -0.95 0  0.5999999999999996 -0.95 0  0.6500000000000004 -0.95 0  0.7000000000000002 -0.95 0  0.75 -0.95 0  0.7999999999999998 -0.95 0  0.8499999999999996 -0.95 0  0.9000000000000004 -0.95 0  0.9500000000000002 -0.95 0  1 -0.95 0  1.05 -0.95 0  1.1 -0.95 0  1.15 -0.95 0  1.2 -0.95 0  1.25 -0.95 0  1.3 -0.95 0  1.35 -0.95 0  1.4 -0.95 0  1.45 -0.95 0  1.5 -0.95 0  1.55 -0.95 0  1.6 -0.95 0  1.65 -0.95 0  1.7 -0.95 0  1.75 -0.95 0  1.8 -0.95 0  1.85 -0.95 0  1.9 -0.95 0  1.95 -0.95 0  2 -0.95 0  2.05 -0.95 0  2.1 -0.95 0  2.15 -0.95 0  2.2 -0.95 0  2.25 -0.95 0  2.3 -0.95 0  2.35 -0.95 0  2.4 -0.95 0  2.45 -0.95 0  2.5 -0.95 0  2.55 -0.95 0  2.6 -0.95 0  2.65 -0.95 0  2.7 -0.95 0  2.75 -0.95 0  2.8 -0.95 0  2.85 -0.95 0  2.9 -0.95 0  2.95 -0.95 0  3 -0.95 0  3.050000000000001 -0.95 0  3.1 -0.95 0  3.15 -0.95 0  3.199999999999999 -0.95 0  3.25 -0.95 0  3.300000000000001 -0.95 0  3.35 -0.95 0  3.4 -0.95 0  3.449999999999999 -0.95 0  3.5 -0.95 0  3.550000000000001 -0.95 0  3.6 -0.95 0  3.65 -0.95 0  3.699999999999999 -0.95 0  3.75 -0.95 0  3.800000000000001 -0.95 0  3.85 -0.95 0  3.9 -0.95 0  3.949999999999999 -0.95 0  4 -0.95 0  4.050000000000001 -0.95 0  4.1 -0.95 0  4.15 -0.95 0  4.199999999999999 -0.95 0  4.25 -0.95 0  4.300000000000001 -0.95 0  4.35 -0.95 0  4.4 -0.95 0  4.449999999999999 -0.95 0  4.5 -0.95 0  4.550000000000001 -0.95 0  4.6 -0.95 0  4.65 -0.95 0  4.699999999999999 -0.95 0  4.75 -0.95 0  4.800000000000001 -0.95 0  4.85 -0.95 0  4.9 -0.95 0  4.949999999999999 -0.95 0  5 -0.95 0  -5 -0.9 0  -4.95 -0.9 0  -4.9 -0.9 0  -4.85 -0.9 0  -4.8 -0.9 0  -4.75 -0.9 0  -4.7 -0.9 0  -4.65 -0.9 0  -4.6 -0.9 0  -4.55 -0.9 0  -4.5 -0.9 0  -4.45 -0.9 0  -4.4 -0.9 0  -4.35 -0.9 0  -4.3 -0.9 0  -4.25 -0.9 0  -4.2 -0.9 0  -4.15 -0.9 0  -4.1 -0.9 0  -4.05 -0.9 0  -4 -0.9 0  -3.95 -0.9 0  -3.9 -0.9 0  -3.85 -0.9 0  -3.8 -0.9 0  -3.75 -0.9 0  -3.7 -0.9 0  -3.65 -0.9 0  -3.6 -0.9 0  -3.55 -0.9 0  -3.5 -0.9 0  -3.45 -0.9 0  -3.4 -0.9 0  -3.35 -0.9 0  -3.3 -0.9 0  -3.25 -0.9 0  -3.2 -0.9 0  -3.15 -0.9 0  -3.1 -0.9 0  -3.05 -0.9 0  -3 -0.9 0  -2.95 -0.9 0  -2.9 -0.9 0  -2.85 -0.9 0  -2.8 -0.9 0  -2.75 -0.9 0  -2.7 -0.9 0  -2.65 -0.9 0  -2.6 -0.9 0  -2.55 -0.9 0  -2.5 -0.9 0  -2.45 -0.9 0  -2.4 -0.9 0  -2.35 -0.9 0  -2.3 -0.9 0  -2.25 -0.9 0  -2.2 -0.9 0  -2.15 -0.9 0  -2.1 -0.9 0  -2.05 -0.9 0  -2 -0.9 0  -1.95 -0.9 0  -1.9 -0.9 0  -1.85 -0.9 0  -1.8 -0.9 0  -1.75 -0.9 0  -1.7 -0.9 0  -1.65 -0.9 0  -1.6 -0.9 0  -1.55 -0.9 0  -1.5 -0.9 0  -1.45 -0.9 0  -1.4 -0.9 0  -1.35 -0.9 0  -1.3 -0.9 0  -1.25 -0.9 0  -1.2 -0.9 0  -1.15 -0.9 0  -1.1 -0.9 0  -1.05 -0.9 0  -1 -0.9 0  -0.9500000000000002 -0.9 0  -0.9000000000000004 -0.9 0  -0.8499999999999996 -0.9 0  -0.7999999999999998 -0.9 0  -0.75 -0.9 0  -0.7000000000000002 -0.9 0  -0.6500000000000004 -0.9 0  -0.5999999999999996 -0.9 0  -0.5499999999999998 -0.9 0  -0.5 -0.9 0  -0.4500000000000002 -0.9 0  -0.4000000000000004 -0.9 0  -0.3499999999999996 -0.9 0  -0.2999999999999998 -0.9 0  -0.25 -0.9 0  -0.2000000000000002 -0.9 0  -0.1500000000000004 -0.9 0  -0.09999999999999964 -0.9 0  -0.04999999999999982 -0.9 0  0 -0.9 0  0.04999999999999982 -0.9 0  0.09999999999999964 -0.9 0  0.1500000000000004 -0.9 0  0.2000000000000002 -0.9 0  0.25 -0.9 0  0.2999999999999998 -0.9 0  0.3499999999999996 -0.9 0  0.4000000000000004 -0.9 0  0.4500000000000002 -0.9 0  0.5 -0.9 0  0.5499999999999998 -0.9 0  0.5999999999999996 -0.9 0  0.6500000000000004 -0.9 0  0.7000000000000002 -0.9 0  0.75 -0.9 0  0.7999999999999998 -0.9 0  0.8499999999999996 -0.9 0  0.9000000000000004 -0.9 0  0.9500000000000002 -0.9 0  1 -0.9 0  1.05 -0.9 0  1.1 -0.9 0  1.15 -0.9 0  1.2 -0.9 0  1.25 -0.9 0  1.3 -0.9 0  1.35 -0.9 0  1.4 -0.9 0  1.45 -0.9 0  1.5 -0.9 0  1.55 -0.9 0  1.6 -0.9 0  1.65 -0.9 0  1.7 -0.9 0  1.75 -0.9 0  1.8 -0.9 0  1.85 -0.9 0  1.9 -0.9 0  1.95 -0.9 0  2 -0.9 0  2.05 -0.9 0  2.1 -0.9 0  2.15 -0.9 0  2.2 -0.9 0  2.25 -0.9 0  2.3 -0.9 0  2.35 -0.9 0  2.4 -0.9 0  2.45 -0.9 0  2.5 -0.9 0  2.55 -0.9 0  2.6 -0.9 0  2.65 -0.9 0  2.7 -0.9 0  2.75 -0.9 0  2.8 -0.9 0  2.85 -0.9 0  2.9 -0.9 0  2.95 -0.9 0  3 -0.9 0  3.050000000000001 -0.9 0  3.1 -0.9 0  3.15 -0.9 0  3.199999999999999 -0.9 0  3.25 -0.9 0  3.300000000000001 -0.9 0  3.35 -0.9 0  3.4 -0.9 0  3.449999999999999 -0.9 0  3.5 -0.9 0  3.550000000000001 -0.9 0  3.6 -0.9 0  3.65 -0.9 0  3.699999999999999 -0.9 0  3.75 -0.9 0  3.800000000000001 -0.9 0  3.85 -0.9 0  3.9 -0.9 0  3.949999999999999 -0.9 0  4 -0.9 0  4.050000000000001 -0.9 0  4.1 -0.9 0  4.15 -0.9 0  4.199999999999999 -0.9 0  4.25 -0.9 0  4.300000000000001 -0.9 0  4.35 -0.9 0  4.4 -0.9 0  4.449999999999999 -0.9 0  4.5 -0.9 0  4.550000000000001 -0.9 0  4.6 -0.9 0  4.65 -0.9 0  4.699999999999999 -0.9 0  4.75 -0.9 0  4.800000000000001 -0.9 0  4.85 -0.9 0  4.9 -0.9 0  4.949999999999999 -0.9 0  5 -0.9 0  -5 -0.85 0  -4.95 -0.85 0  -4.9 -0.85 0  -4.85 -0.85 0  -4.8 -0.85 0  -4.75 -0.85 0  -4.7 -0.85 0  -4.65 -0.85 0  -4.6 -0.85 0  -4.55 -0.85 0  -4.5 -0.85 0  -
[...]
<PointData  Vectors="f_15"> 
<DataArray  type="Float64"  Name="f_15"  NumberOfComponents="3" format="ascii">2.9933238682905468e+00 0.0000000000000000e+00 0.0000000000000000e+00  3.0035668241532782e+00 3.5788557940594427e-02 0.0000000000000000e+00  2.9942446432356031e+00 -4.0682265264817420e-02 0.0000000000000000e+00  3.0043662464789223e+00 2.9501244744663216e-02 0.0000000000000000e+00  2.9936472355418422e+00 -2.8909095576315366e-02 0.0000000000000000e+00  3.0047916563604637e+00 1.8314926496397346e-02 0.0000000000000000e+00  2.9946738446708800e+00 -1.9437196286082672e-02 0.0000000000000000e+00  3.0042750615921676e+00 1.4638872791329766e-02 0.0000000000000000e+00  2.9949848424878280e+00 -1.6234782766046060e-02 0.0000000000000000e+00  3.0052297176656486e+00 1.3762306543585722e-02 0.0000000000000000e+00  2.9945968140428412e+00 -1.3056255067700711e-02 0.0000000000000000e+00  3.0055155664730573e+00 1.1380868037126778e-02 0.0000000000000000e+00  2.9953790990702931e+00 -9.1433737525596030e-03 0.0000000000000000e+00  3.0052451459998952e+00 9.4278149515972538e-03 0.0000000000000000e+00  2.9955445918607420e+00 -7.1605440545305611e-03 0.0000000000000000e+00  3.0058130492242072e+00 8.8721940357344466e-03 0.0000000000000000e+00  2.9952140765033315e+00 -5.5409196468532099e-03 0.0000000000000000e+00  3.0058531452599553e+00 6.9025247015235165e-03 0.0000000000000000e+00  2.9954354328914907e+00 -2.6647773020226340e-03 0.0000000000000000e+00  3.0054271466552995e+00 4.7401082374494887e-03 0.0000000000000000e+00  2.9952291400451383e+00 -1.2154617902034139e-03 0.0000000000000000e+00  3.0052675977001959e+00 4.3809749098265268e-03 0.0000000000000000e+00  2.9945402806867105e+00 1.8186785244270141e-04 0.0000000000000000e+00  3.0045804379169390e+00 3.3191187172971382e-03 0.0000000000000000e+00  2.9937523441448013e+00 3.8517494537920211e-03 0.0000000000000000e+00  3.0030465753700928e+00 3.2417401281436336e-03 0.0000000000000000e+00  2.9920309101366396e+00 7.7924404064697765e-03 0.0000000000000000e+00  3.0005462768471594e+00 6.8620756586477358e-03 0.0000000000000000e+00  2.9887135039867654e+00 1.4305314853382135e-02 0.0000000000000000e+00  2.9959931318046031e+00 1.3054899266474298e-02 0.0000000000000000e+00  2.9831592607388213e+00 2.6340228349623650e-02 0.0000000000000000e+00  2.9884250447286904e+00 2.4825388379971541e-02 0.0000000000000000e+00  2.9741048665159506e+00 4.3432873451296566e-02 0.0000000000000000e+00  2.9769037310087882e+00 4.5151830841349321e-02 0.0000000000000000e+00  2.9606451438975472e+00 6.8546510472594968e-02 0.0000000000000000e+00  2.9603388859207422e+00 7.3874588569538990e-02 0.0000000000000000e+00  2.9419818830612980e+00 1.0353005839873898e-01 0.0000000000000000e+00  2.9384002372366820e+00 1.1374055910813320e-01 0.0000000000000000e+00  2.9174831888778852e+00 1.4704281516574721e-01 0.0000000000000000e+00  2.9108398692635684e+00 1.6590509650218099e-01 0.0000000000000000e+00  2.8875503355986285e+00 2.0016399759441980e-01 0.0000000000000000e+00  2.8775750415199250e+00 2.2877832485609695e-01 0.0000000000000000e+00  2.8524160619177965e+00 2.6224765810994771e-01 0.0000000000000000e+00  2.8396460459897832e+00 3.0335210913296978e-01 0.0000000000000000e+00  2.8122793938831885e+00 3.3060977887077481e-01 0.0000000000000000e+00  2.7975190273446668e+00 3.8847333964887859e-01 0.0000000000000000e+00  2.7685719077847617e+00 4.0629434884571652e-01 0.0000000000000000e+00  2.7513034209208422e+00 4.8044411333716713e-01 0.0000000000000000e+00  2.7218973595702680e+00 4.8910925932108457e-01 0.0000000000000000e+00  2.7024350993459141e+00 5.7906965494411466e-01 0.0000000000000000e+00  2.6722607364132656e+00 5.7699206863932806e-01 0.0000000000000000e+00  2.6514110522254466e+00 6.8226183658969441e-01 0.0000000000000000e+00  2.6210662863442957e+00 6.7229367103741666e-01 0.0000000000000000e+00  2.5980403608728291e+00 7.8598110481705419e-01 0.0000000000000000e+00  2.5686695081962867e+00 7.7444088898767005e-01 0.0000000000000000e+00  2.5437083242276541e+00 8.9226299504560935e-01 0.0000000000000000e+00  2.5145948193568750e+00 8.7969783210119434e-01 0.0000000000000000e+00  2.4887791953986262e+00 1.0003282820706083e+00 0.0000000000000000e+00  2.4600543322621435e+00 9.9111753380347678e-01 0.0000000000000000e+00  2.4327311718515019e+00 1.1064808427476269e+00 0.0000000000000000e+00  2.4052676968866402e+00 1.1063360419705601e+00 0.0000000000000000e+00  2.3767670218047070e+00 1.2171305107101014e+00 0.0000000000000000e+00  2.3495582013345144e+00 1.2188392098016181e+00 0.0000000000000000e+00  2.3210368639185006e+00 1.3299911680939036e+00 0.0000000000000000e+00  2.2941341967422373e+00 1.3390152192675564e+00 0.0000000000000000e+00  2.2647025797995846e+00 1.4356617331348702e+00 0.0000000000000000e+00  2.2391501146490382e+00 1.4611119624096354e+00 0.0000000000000000e+00  2.2089575186721579e+00 1.5539866622515741e+00 0.0000000000000000e+00  2.1835600976880882e+00 1.5697573348155414e+00 0.0000000000000000e+00  2.1540240244360316e+00 1.6737954722326900e+00 0.0000000000000000e+00  2.1286887998929283e+00 1.6945576761967400e+00 0.0000000000000000e+00  2.0987725658873919e+00 1.7810847256576474e+00 0.0000000000000000e+00  2.0749286948506600e+00 1.8130803860194562e+00 0.0000000000000000e+00  2.0446649951563507e+00 1.9046997666841736e+00 0.0000000000000000e+00  2.0214004574650466e+00 1.9258226968472301e+00 0.0000000000000000e+00  1.9920561909559897e+00 2.0191905967202382e+00 0.0000000000000000e+00  1.9694893295042384e+00 2.0429034925800433e+00 0.0000000000000000e+00  1.9410183157386458e+00 2.1318513907373777e+00 0.0000000000000000e+00  1.9202248336707444e+00 2.1551311796407453e+00 0.0000000000000000e+00  1.8951759018184986e+00 2.2366154618709722e+00 0.0000000000000000e+00  1.8762698689771600e+00 2.2491715473662039e+00 0.0000000000000000e+00  1.8593078497560087e+00 2.3213749591064876e+00 0.0000000000000000e+00  1.8475789422249087e+00 2.3191940909926454e+00 0.0000000000000000e+00  1.8412101439015527e+00 2.3572698890991641e+00 0.0000000000000000e+00  1.8429197608379972e+00 2.3327099116020320e+00 0.0000000000000000e+00  1.8408287231043521e+00 2.3557592990174454e+00 0.0000000000000000e+00  1.8459149359634355e+00 2.3267056481884598e+00 0.0000000000000000e+00  1.8412576999663313e+00 2.3566254913918296e+00 0.0000000000000000e+00  1.8470354560686821e+00 2.3214816729145147e+00 0.0000000000000000e+00  1.8448980120181477e+00 2.3513137783300095e+00 0.0000000000000000e+00  1.8448950704923888e+00 2.3187443850462808e+00 0.0000000000000000e+00  1.8500781391209504e+00 2.3496801370469269e+00 0.0000000000000000e+00  1.8391104640732068e+00 2.3226927274725568e+00 0.0000000000000000e+00  1.8563141627601567e+00 2.3414744898562070e+00 0.0000000000000000e+00  1.8347015528846387e+00 2.3288404694948679e+00 0.0000000000000000e+00  1.8608736921202351e+00 2.3310242614973671e+00 0.0000000000000000e+00  1.8317768098562710e+00 2.3379990991573165e+00 0.0000000000000000e+00  1.8617464881638739e+00 2.3239200590964195e+00 0.0000000000000000e+00  1.8342925348406558e+00 2.3401842010999108e+00 0.0000000000000000e+00  1.8580458706611096e+00 2.3216990310578058e+00 0.0000000000000000e+00  1.8383322973102669e+00 2.3410727293776574e+00 0.0000000000000000e+00  1.8543879771484972e+00 2.3209306076346103e+00 0.0000000000000000e+00  1.8428374653054418e+00 2.3383092669961565e+00 0.0000000000000000e+00  1.8499926134753473e+00 2.3240435001726860e+00 0.0000000000000000e+00  1.8472927995359754e+00 2.3342663060017910e+00 0.0000000000000000e+00  1.8454110491489453e+00 2.3285150687653595e+00 0.0000000000000000e+00  1.8514911720470493e+00 2.3277955243800710e+00 0.0000000000000000e+00  1.8440103951735929e+00 2.3306358731409991e+00 0.0000000000000000e+00  1.8510460433302471e+00 2.3282990395777459e+00 0.0000000000000000e+00  1.8429920980908319e+00 2.3322910885426023e+00 0.0000000000000000e+00  1.8549272546005484e+00 2.3205163829245690e+00 0.0000000000000000e+00  1.8394051772848223e+00 2.3392566231863610e+00 0.0000000000000000e+00  1.8556369308583600e+00 2.3183419488143571e+00 0.0000000000000000e+00  1.8402785581828114e+00 2.3381170618641351e+00 0.0000000000000000e+00  1.8562210444072917e+00 2.3161318274509379e+00 0.0000000000000000e+00  1.8376562303196957e+00 2.3428688156608999e+00 0.0000000000000000e+00  1.8587135054176538e+00 2.3110056851240293e+00 0.0000000000000000e+00  1.8371104066457107e+00 2.3441171040733866e+00 0.0000000000000000e+00  1.8578979396859669e+00 2.3117498230485110e+00 0.0000000000000000e+00  1.8369828948697589e+00 2.3442613218389838e+00 0.0000000000000000e+00  1.8600279027204545e+00 2.3048241856657641e+00 0.0000000000000000e+00  1.8343929139660407e+00 2.3457074296307465e+00 0.0000000000000000e+00  1.8603461326257174e+00 2.2972379456970340e+00 0.0000000000000000e+00  1.8368942822552128e+00 2.3346861415937035e+00 0.0000000000000000e+00  1.8573847882877232e+00 2.2949104979742789e+00 0.0000000000000000e+00  1.8379993562415928e+00 2.3273264158914082e+00 0.0000000000000000e+00  1.8579166904768165e+00 2.2907011084702709e+00 0.0000000000000000e+00  1.8381354913767849e+00 2.3260157302098881e+00 0.0000000000000000e+00  1.8559938267692255e+00 2.2973151857795102e+00 0.0000000000000000e+00  1.8408896570592350e+00 2.3246764094115409e+00 0.0000000000000000e+00  1.8538965616235645e+00 2.3060949347429687e+00 0.0000000000000000e+00  1.8419757841887838e+00 2.3269473675451855e+00 0.0000000000000000e+00  1.8529963340471434e+00 2.3133923708585047e+00 0.0000000000000000e+00  1.8419887882631041e+00 2.3276595213385818e+00 0.0000000000000000e+00  1.8539954185791196e+00 2.3154227575954907e+00 0.0000000000000000e+00  1.8392963530648199e+00 2.3324880411838551e+00 0.0000000000000000e+00  1.8558578145146394e+00 2.3136661710997828e+00 0.0000000000000000e+00  1.8385092492628137e+00 2.3321850219010596e+00 0.0000000000000000e+00  1.8553620859924091e+00 2.3160924973846071e+00 0.0000000000000000e+00  1.8371652669735246e+00 2.3341188766083714e+00 0.0000000000000000e+00  1.8588565576344898e+00 2.3071335988658359e+00 0.0000000000000000e+00  1.8325033709035017e+00 2.3463006586674311e+00 0.0000000000000000e+00  1.8613296559598889e+00 2.2983866829984851e+00 0.0000000000000000e+00  1.8335251311629721e+00 2.3460665609748879e+00 0.0000000000000000e+00  1.8581658770058325e+00 2.3027284660394058e+00 0.0000000000000000e+00  1.8361014982089461e+00 2.3419617362644813e+00 0.0000000000000000e+00  1.8580691510956604e+00 2.2988930246581551e+00 0.0000000000000000e+00  1.8347862147224592e+00 2.3480402156859665e+00 0.0000000000000000e+00  1.8585499636954832e+00 2.2923709187310828e+00 0.0000000000000000e+00  1.8367743523302051e+00 2.3467836604588479e+00 0.0000000000000000e+00  1.8541285716527793e+00 2.2963084458949958e+00 0.0000000000000000e+00  1.8403158695283539e+00 2.3372936929871080e+00 0.0000000000000000e+00  1.8498808532564051e+00 2.2966717137889590e+00 0.0000000000000000e+00  1.8352906577187287e+00 2.3234175485771704e+00 0.0000000000000000e+00  1.8361647599717796e+00 2.2616852077432892e+00 0.0000000000000000e+00  1.7923972484180848e+00 2.2274271381740562e+00 0.0000000000000000e+00  1.7414566712931836e+00 2.0459175618926713e+00 0.0000000000000000e+00  1.5920826861013457e+00 1.7195972132912358e+00 0.0000000000000000e+00  1.2861368041122963e+00 8.3327251663854374e-01 0.0000000000000000e+00  1.0666552618569365e+00 2.5108827722537164e-01 0.0000000000000000e+00  1.0143127422720901e+00 -8.6514983758715601e-03 0.0000000000000000e+00  9.9724851818757032e-01 3.7281905898664716e-02 0.0000000000000000e+00  1.0028254491175401e+00 -4.1528451135370612e-02 0.0000000000000000e+00  9.9765363095803827e-01 3.0061721847226112e-02 0.0000000000000000e+00  1.0019268436827224e+00 -4.5105930083525779e-02 0.0000000000000000e+00  9.9644623575350100e-01 3.7891391273093093e-02 0.0000000000000000e+00  1.0045612792036964e+00 -5.7181941404148888e-02 0.0000000000000000e+00  9.9289548106721126e-01 5.1107402741798751e-02 0.0000000000000000e+00  1.0091731259274428e+00 -7.1431338606399414e-02 0.0000000000000000e+00  9.8662509912251917e-01 6.8583022054738402e-02 0.0000000000000000e+00  1.0177004824930729e+00 -9.3382791216091998e-02 0.0000000000000000e+00  9.7670476106502691e-01 9.4644012395253108e-02 0.0000000000000000e+00  1.0282082128794756e+00 -1.1780458034686338e-01 0.0000000000000000e+00  9.6705309891121127e-01 1.1849888741760260e-01 0.0000000000000000e+00  1.0372932034837044e+00 -1.3605199118268352e-01 0.0000000000000000e+00  9.5890569408052173e-01 1.3737123195476167e-01 0.0000000000000000e+00  1.0452736200150761e+00 -1.5131363012823798e-01 0.0000000000000000e+00  9.5192670659628276e-01 1.5395168545459070e-01 0.0000000000000000e+00  1.0513147651396135e+00 -1.6188817505410361e-01 0.0000000000000000e+00  9.4757477731598982e-01 1.6319809873204308e-01 0.0000000000000000e+00  1.0544778299244704e+00 -1.6445156907915573e-01 0.0000000000000000e+00  9.4568746962884098e-01 1.6455772213694353e-01 0.0000000000000000e+00  1.0556570626790043e+00 -1.6154329703715103e-01 0.0000000000000000e+00  9.4551557728381708e-01 1.6044460556347392e-01 0.0000000000000000e+00  1.0550891983288082e+00 -1.5366124425083680e-01 0.0000000000000000e+00  9.4726687810079957e-01 1.4984916520996824e-01 0.0000000000000000e+00  1.0528373418235415e+00 -1.4028297167839135e-01 0.0000000000000000e+00  9.5059774784828976e-01 1.3341769930934005e-01 0.0000000000000000e+00  1.0496629816447480e+00 -1.2323497628667530e-01 0.0000000000000000e+00  9.5495184172753955e-01 1.1305873448518118e-01 0.0000000000000000e+00  1.0461024140607647e+00 -1.0377723549412277e-01 0.0000000000000000e+00  9.6015355859066620e-01 8.9504732834588471e-02 0.0000000000000000e+00  1.0425795398387374e+00 -8.2838207767575084e-02 0.0000000000000000e+00  9.6590261514077991e-01 6.4034044868182663e-02 0.0000000000000000e+00  1.0396994653160838e+00 -6.1933112112458499e-02 0.0000000000000000e+00  9.7185180041519081e-01 3.7829785713642941e-02 0.0000000000000000e+00  1.0378609720875598e+00 -4.1645763925330634e-02 0.0000000000000000e+00  9.7795248462028483e-01 1.1467511793817645e-02 0.0000000000000000e+00  1.0369657775703109e+00 -2.2982323123161185e-02 0.0000000000000000e+00  9.8446502385181067e-01 -1.1543785025005802e-02 0.0000000000000000e+00  1.0366170311908780e+00 0.0000000000000000e+00 0.0000000000000000e+00  2.9999414417620827e+00 0.0000000000000000e+00 -2.8490290536105002e-02  3.0026127923709720e+00 -9.5431565319033778e-03 1.8344358250695040e-03  3.0008349851256080e+00 1.4962029601432020e-02 1.3075090577049045e-02  3.0007563422734682e+00 2.4687193209844043e-03 -7.6219383985656848e-03  3.0010112544336733e+00 1.2058841751509447e-03 4.9410366574456060e-03  3.0010505027014953e+00 5.8307676493607064e-03 -3.4301344947773138e-03  2.9999623902283905e+00 8.2553656091991000e-04 2.5334826568737079e-03  3.0007660653955752e+00 1.9569424892550502e-03 -2.5537700075849361e-03  3.0004683344208534e+00 1.7484508453419602e-03 2.1399826445171145e-03  2.9997133565431713e+00 7.0848111505460653e-04 -2.1253287012398840e-03  3.0002716238208800e+00 -6.1781848236362020e-05 1.6674270477404825e-03  2.9999912507389830e+00 1.0207027816028231e-03 -1.5680109761498371e-03  2.9995001857560553e+00 -1.1904188798425514e-03 1.1779176554194372e-03  2.9997000690072442e+00 -4.3024786367668512e-05 -9.7318412275053021e-04  2.9998118109076701e+00 -1.0264240207020266e-03 5.6015277351469767e-04  2.9990379455972516e+00 -5.7813031650030518e-04 -2.6349339348022812e-04  2.9997250557873349e+00 -2.1368522671739313e-03 -1.1047830469924291e-04  2.9992334388596027e+00 5.3875541417726868e-04 4.0564174327591970e-04  2.9993571231653489e+00 -2.9875633638406069e-03 -7.7332809336500658e-04  2.9991473839563372e+00 6.0951994051643968e-04 1.1791862371980078e-03  2.9995357087468761e+00 -2.0617856614317284e-03 -1.6136358549037960e-03  2.9987264834962692e+00 9.8898944679379859e-04 2.0348559806338726e-03  2.9993360550784298e+00 -1.9822617063547151e-03 -2.3932257509085473e-03  2.9984224916822435e+00 3.4849266653983690e-03 2.7386376432324395e-03  2.9984747378053473e+00 -1.1250542197961478e-03 -3.0941456145538045e-03  2.9973573729163889e+00 5.8371160979149225e-03 3.5225363071066575e-03  2.9969770322608191e+00 2.7471809041445623e-03 -3.9429046735964908e-03  2.9949464366684961e+00 1.0210605383919970e-02 4.3619881225473974e-03  2.9938201109410403e+00 8.1803684967353685e-03 -4.7172334571376649e-03  2.9907132272705659e+00 1.9303428043705200e-02 5.1069360205664412e-03  2.9881135327561221e+00 1.8045518815143647e-02 -5.5327496951851317e-03  2.9834288655732255e+00 3.2591004682520221e-02 6.0763671662215817e-03  2.9789977041675519e+00 3.5155453089940059e-02 -6.6500750770771217e-03  2.9721181351622254e+00 5.3331218240514761e-02 7.2982860516191865e-03  2.9652917184959757e+00 5.9329551110640005e-02 -7.9615102855912934e-03  2.9559086345582930e+00 8.3846183175708286e-02 8.7792356214213343e-03  2.9464230393180526e+00 9.3363356905744835e-02 -9.7016981426268252e-03  2.9340141365510619e+00 1.2355790159048700e-01 1.0825887840556334e-02  2.9219531700858790e+00 1.3834250206818993e-01 -1.2000671115634652e-02  2.9065884630905248e+00 1.7432164374317624e-01 1.3287841457537706e-02  2.8916455602100801e+00 1.9274298775878826e-01 -1.4525070838667603e-02  2.8737407777195325e+00 2.3597280221822792e-01 1.5839024520771974e-02  2.8563437719988376e+00 2.5755432395186834e-01 -1.7008050441474864e-02  2.8356279631676875e+00 3.0611538948980932e-01 1.8065134265080492e-02  2.8164768927884110e+00 3.3194215356558338e-01 -1.8713420867570708e-02  2.7935671198606080e+00 3.8512934824710626e-01 1.8971953223050880e-02  2.7722299576142069e+00 4.1336212494876162e-01 -1.8695424180552540e-02  2.7481375075788570e+00 4.7157863275019535e-01 1.7968256794213353e-02  2.7250393822754306e+00 5.0263560857283185e-01 -1.6770129541185994e-02  2.6994152876303108e+00 5.6239745710520872e-01 1.5045706403109866e-02  2.6754240043390207e+00 5.9875350273932759e-01 -1.2892919081544461e-02  2.6488294626082527e+00 6.5846028767675269e-01 1.0272725190537263e-02  2.6232534245349877e+00 6.9874541460048489e-01 -7.6309789226152638e-03  2.5967865499768985e+00 7.5889870427687889e-01 4.9125744934788345e-03  2.5699082115383325e+00 8.0392422550577891e-01 -2.5649513205925909e-03  2.5429178512810511e+00 8.6093402884911630e-01 2.7857166496875327e-04  2.5157354058923254e+00 9.1294582413627412e-01 1.6844853703703476e-03  2.4884810195557239e+00 9.6740953321203271e-01 -3.5966675821849058e-03  2.4602364241044703e+00 1.0219629258748264e+00 5.0574769023573104e-03  2.4336889286636576e+00 1.0773229403591602e+00 -6.2432975540456272e-03  2.4046445277218891e+00 1.1352346955759649e+00 6.7851864479108147e-03  2.3778562238813254e+00 1.1858762704663741e+00 -6.9799784003116783e-03  2.3491497840572819e+00 1.2508897306084332e+00 6.8212216882430118e-03  2.3221498222482242e+00 1.3008115837410643e+00 -6.5266791471932407e-03  2.2930216722935266e+00 1.3608387856537461e+00 5.6181505105672202e-03  2.2666668686419169e+00 1.4195556303605421e+00 -4.0536314213391175e-03  2.2375173182950925e+00 1.4783519042800717e+00 1.7707774135609638e-03  2.2105352700804453e+00 1.5296046442745388e+00 -4.1632116451038988e-05  2.1827358150162901e+00 1.5975872297627522e+00 -8.1969282488360891e-04  2.1551718457613149e+00 1.6527185876499091e+00 1.0978702971661304e-03  2.1276005638828934e+00 1.7040565124652045e+00 -2.0796934615525350e-03  2.1008035254456314e+00 1.7731935561363961e+00 3.0530467196365988e-03  2.0734292658699478e+00 1.8279833277727862e+00 -3.3200352173881962e-03  2.0463654379981677e+00 1.8835483363427630e+00 2.9092530330203769e-03  2.0205390977303215e+00 1.9432372783554510e+00 -3.4602532614435482e-03  1.9932483087899771e+00 2.0056102168924612e+00 4.5376337041373961e-03  1.9686245247593099e+00 2.0558753377158334e+00 -4.9058738212623540e-03  1.9424493948062458e+00 2.1187208814982346e+00 4.3703385856452967e-03  1.9197131496964390e+00 2.1663313656600760e+00 -4.2938990170535178e-03  1.8952482550868190e+00 2.2222396730895397e+00 4.1283866890168891e-03  1.8767575804016108e+00 2.2673828255738049e+00 -3.1823507912071120e-03  1.8585854114759441e+00 2.3082680759793925e+00 2.5539673542889032e-03 