<?xml version="1.0"?>
<VTKFile type="UnstructuredGrid"  version="0.1"  >
<UnstructuredGrid>
<Piece  NumberOfPoints="8241" NumberOfCells="16000">
<Points>
<DataArray  type="Float64"  NumberOfComponents="3"  format="ascii">-5 -1 0  -4.95 -1 0  -4.9 -1 0  -4.85 -1 0  -4.8 -1 0  -4.75 -1 0  -4.7 -1 0  -4.65 -1 0  -4.6 -1 0  -4.55 -1 0  -4.5 -1 0  -4.45 -1 0  -4.4 -1 0  -4.35 -1 0  -4.3 -1 0  -4.25 -1 0  -4.2 -1 0  -4.15 -1 0  -4.1 -1 0  -4.05 -1 0  -4 -1 0  -3.95 -1 0  -3.9 -1 0  -3.85 -1 0  -3.8 -1 0  -3.75 -1 0  -3.7 -1 0  -3.65 -1 0  -3.6 -1 0  -3.55 -1 0  -3.5 -1 0  -3.45 -1 0  -3.4 -1 0  -3.35 -1 0  -3.3 -1 0  -3.25 -1 0  -3.2 -1 0  -3.15 -1 0  -3.1 -1 0  -3.05 -1 0  -3 -1 0  -2.95 -1 0  -2.9 -1 0  -2.85 -1 0  -2.8 -1 0  -2.75 -1 0  -2.7 -1 0  -2.65 -1 0  -2.6 -1 0  -2.55 -1 0  -2.5 -1 0  -2.45 -1 0  -2.4 -1 0  -2.35 -1 0  -2.3 -1 0  -2.25 -1 0  -2.2 -1 0  -2.15 -1 0  -2.1 -1 0  -2.05 -1 0  -2 -1 0  -1.95 -1 0  -1.9 -1 0  -1.85 -1 0  -1.8 -1 0  -1.75 -1 0  -1.7 -1 0  -1.65 -1 0  -1.6 -1 0  -1.55 -1 0  -1.5 -1 0  -1.45 -1 0  -1.4 -1 0  -1.35 -1 0  -1.3 -1 0  -1.25 -1 0  -1.2 -1 0  -1.15 -1 0  -1.1 -1 0  -1.05 -1 0  -1 -1 0  -0.9500000000000002 -1 0  -0.9000000000000004 -1 0  -0.8499999999999996 -1 0  -0.7999999999999998 -1 0  -0.75 -1 0  -0.7000000000000002 -1 0  -0.6500000000000004 -1 0  -0.5999999999999996 -1 0  -0.5499999999999998 -1 0  -0.5 -1 0  -0.4500000000000002 -1 0  -0.4000000000000004 -1 0  -0.3499999999999996 -1 0  -0.2999999999999998 -1 0  -0.25 -1 0  -0.2000000000000002 -1 0  -0.1500000000000004 -1 0  -0.09999999999999964 -1 0  -0.04999999999999982 -1 0  0 -1 0  0.04999999999999982 -1 0  0.09999999999999964 -1 0  0.1500000000000004 -1 0  0.2000000000000002 -1 0  0.25 -1 0  0.2999999999999998 -1 0  0.3499999999999996 -1 0  0.4000000000000004 -1 0  0.4500000000000002 -1 0  0.5 -1 0  0.5499999999999998 -1 0  0.5999999999999996 -1 0  0.6500000000000004 -1 0  0.7000000000000002 -1 0  0.75 -1 0  0.7999999999999998 -1 0  0.8499999999999996 -1 0  0.9000000000000004 -1 0  0.9500000000000002 -1 0  1 -1 0  1.05 -1 0  1.1 -1 0  1.15 -1 0  1.2 -1 0  1.25 -1 0  1.3 -1 0  1.35 -1 0  1.4 -1 0  1.45 -1 0  1.5 -1 0  1.55 -1 0  1.6 -1 0  1.65 -1 0  1.7 -1 0  1.75 -1 0  1.8 -1 0  1.85 -1 0  1.9 -1 0  1.95 -1 0  2 -1 0  2.05 -1 0  2.1 -1 0  2.15 -1 0  2.2 -1 0  2.25 -1 0  2.3 -1 0  2.35 -1 0  2.4 -1 0  2.45 -1 0  2.5 -1 0  2.55 -1 0  2.6 -1 0  2.65 -1 0  2.7 -1 0  2.75 -1 0  2.8 -1 0  2.85 -1 0  2.9 -1 0  2.95 -1 0  3 -1 0  3.050000000000001 -1 0  3.1 -1 0  3.15 -1 0  3.199999999999999 -1 0  3.25 -1 0  3.300000000000001 -1 0  3.35 -1 0  3.4 -1 0  3.449999999999999 -1 0  3.5 -1 0  3.550000000000001 -1 0  3.6 -1 0  3.65 -1 0  3.699999999999999 -1 0  3.75 -1 0  3.800000000000001 -1 0  3.85 -1 0  3.9 -1 0  3.949999999999999 -1 0  4 -1 0  4.050000000000001 -1 0  4.1 -1 0  4.15 -1 0  4.199999999999999 -1 0  4.25 -1 0  4.300000000000001 -1 0  4.35 -1 0  4.4 -1 0  4.449999999999999 -1 0  4.5 -1 0  4.550000000000001 -1 0  4.6 -1 0  4.65 -1 0  4.699999999999999 -1 0  4.75 -1 0  4.800000000000001 -1 0  4.85 -1 0  4.9 -1 0  4.949999999999999 -1 0  5 -1 0  -5 -0.95 0  -4.95 -0.95 0  -4.9 -0.95 0  -4.85 -0.95 0  -4.8 -0.95 0  -4.75 -0.95 0  -4.7 -0.95 0  -4.65 -0.95 0  -4.6 -0.95 0  -4.55 -0.95 0  -4.5 -0.95 0  -4.45 -0.95 0  -4.4 -0.95 0  -4.35 -0.95 0  -4.3 -0.95 0  -4.25 -0.95 0  -4.2 -0.95 0  -4.15 -0.95 0  -4.1 -0.95 0  -4.05 -0.95 0  -4 -0.95 0  -3.95 -0.95 0  -3.9 -0.95 0  -3.85 -0.95 0  -3.8 -0.95 0  -3.75 -0.95 0  -3.7 -0.95 0  -3.65 -0.95 0  -3.6 -0.95 0  -3.55 -0.95 0  -3.5 -0.95 0  -3.45 -0.95 0  -3.4 -0.95 0  -3.35 -0.95 0  -3.3 -0.95 0  -3.25 -0.95 0  -3.2 -0.95 0  -3.15 -0.95 0  -3.1 -0.95 0  -3.05 -0.95 0  -3 -0.95 0  -2.95 -0.95 0  -2.9 -0.95 0  -2.85 -0.95 0  -2.8 -0.95 0  -2.75 -0.95 0  -2.7 -0.95 0  -2.65 -0.95 0  -2.6 -0.95 0  -2.55 -0.95 0  -2.5 -0.95 0  -2.45 -0.95 0  -2.4 -0.95 0  -2.35 -0.95 0  -2.3 -0.95 0  -2.25 -0.95 0  -2.2 -0.95 0  -2.15 -0.95 0  -2.1 -0.95 0  -2.05 -0.95 0  -2 -0.95 0  -1.95 -0.95 0  -1.9 -0.95 0  -1.85 -0.95 0  -1.8 -0.95 0  -1.75 -0.95 0  -1.7 -0.95 0  -1.65 -0.95 0  -1.6 -0.95 0  -1.55 -0.95 0  -1.5 -0.95 0  -1.45 -0.95 0  -1.4 -0.95 0  -1.35 -0.95 0  -1.3 -0.95 0  -1.25 -0.95 0  -1.2 -0.95 0  -1.15 -0.95 0  -1.1 -0.95 0  -1.05 -0.95 0  -1 -0.95 0  -0.9500000000000002 -0.95 0  -0.9000000000000004 -0.95 0  -0.8499999999999996 -0.95 0  -0.7999999999999998 -0.95 0  -0.75 -0.95 0  -0.7000000000000002 -0.95 0  -0.6500000000000004 -0.95 0  -0.5999999999999996 -0.95 0  -0.5499999999999998 -0.95 0  -0.5 -0.95 0  -0.4500000000000002 -0.95 0  -0.4000000000000004 -0.95 0  -0.3499999999999996 -0.95 0  -0.2999999999999998 -0.95 0  -0.25 -0.95 0  -0.2000000000000002 -0.95 0  -0.1500000000000004 -0.95 0  -0.09999999999999964 -0.95 0  -0.04999999999999982 -0.95 0  0 -0.95 0  0.04999999999999982 -0.95 0  0.09999999999999964 -0.95 0  0.1500000000000004 -0.95 0  0.2000000000000002 -0.95 0  0.25 -0.95 0  0.2999999999999998 -0.95 0  0.3499999999999996 -0.95 0  0.4000000000000004 -0.95 0  0.4500000000000002 -0.95 0  0.5 -0.95 0  0.5499999999999998 -0.95 0  0.5999999999999996 -0.95 0  0.6500000000000004 -0.95 0  0.7000000000000002 -0.95 0  0.75 -0.95 0  0.7999999999999998 -0.95 0  0.8499999999999996 -0.95 0  0.9000000000000004 -0.95 0  0.9500000000000002 -0.95 0  1 -0.95 0  1.05 -0.95 0  1.1 -0.95 0  1.15 -0.95 0  1.2 -0.95 0  1.25 -0.95 0  1.3 -0.95 0  1.35 -0.95 0  1.4 -0.95 0  1.45 -0.95 0  1.5 -0.95 0  1.55 -0.95 0  1.6 -0.95 0  1.65 -0.95 0  1.7 -0.95 0  1.75 -0.95 0  1.8 -0.95 0  1.85 -0.95 0  1.9 -0.95 0  1.95 -0.95 0  2 -0.95 0  2.05 -0.95 0  2.1 -0.95 0  2.15 -0.95 0  2.2 -0.95 0  2.25 -0.95 0  2.3 -0.95 0  2.35 -0.95 0  2.4 -0.95 0  2.45 -0.95 0  2.5 -0.95 0  2.55 -0.95 0  2.6 -0.95 0  2.65 -0.95 0  2.7 -0.95 0  2.75 -0.95 0  2.8 -0.95 0  2.85 -0.95 0  2.9 -0.95 0  2.95 -0.95 0  3 -0.95 0  3.050000000000001 -0.95 0  3.1 -0.95 0  3.15 -0.95 0  3.199999999999999 -0.95 0  3.25 -0.95 0  3.300000000000001 -0.95 0  3.35 -0.95 0  3.4 -0.95 0  3.449999999999999 -0.95 0  3.5 -0.95 0  3.550000000000001 -0.95 0  3.6 -0.95 0  3.65 -0.95 0  3.699999999999999 -0.95 0  3.75 -0.95 0  3.800000000000001 -0.95 0  3.85 -0.95 0  3.9 -0.95 0  3.949999999999999 -0.95 0  4 -0.95 0  4.050000000000001 -0.95 0  4.1 -0.95 0  4.15 -0.95 0  4.199999999999999 -0.95 0  4.25 -0.95 0  4.300000000000001 -0.95 0  4.35 -0.95 0  4.4 -0.95 0  4.449999999999999 -0.95 0  4.5 -0.95 0  4.550000000000001 -0.95 0  4.6 -0.95 0  4.65 -0.95 0  4.699999999999999 -0.95 0  4.75 -0.95 0  4.800000000000001 -0.95 0  4.85 -0.95 0  4.9 -0.95 0  4.949999999999999 -0.95 0  5 -0.95 0  -5 -0.9 0  -4.95 -0.9 0  -4.9 -0.9 0  -4.85 -0.9 0  -4.8 -0.9 0  -4.75 -0.9 0  -4.7 -0.9 0  -4.65 -0.9 0  -4.6 -0.9 0  -4.55 -0.9 0  -4.5 -0.9 0  -4.45 -0.9 0  -4.4 -0.9 0  -4.35 -0.9 0  -4.3 -0.9 0  -4.25 -0.9 0  -4.2 -0.9 0  -4.15 -0.9 0  -4.1 -0.9 0  -4.05 -0.9 0  -4 -0.9 0  -3.95 -0.9 0  -3.9 -0.9 0  -3.85 -0.9 0  -3.8 -0.9 0  -3.75 -0.9 0  -3.7 -0.9 0  -3.65 -0.9 0  -3.6 -0.9 0  -3.55 -0.9 0  -3.5 -0.9 0  -3.45 -0.9 0  -3.4 -0.9 0  -3.35 -0.9 0  -3.3 -0.9 0  -3.25 -0.9 0  -3.2 -0.9 0  -3.15 -0.9 0  -3.1 -0.9 0  -3.05 -0.9 0  -3 -0.9 0  -2.95 -0.9 0  -2.9 -0.9 0  -2.85 -0.9 0  -2.8 -0.9 0  -2.75 -0.9 0  -2.7 -0.9 0  -2.65 -0.9 0  -2.6 -0.9 0  -2.55 -0.9 0  -2.5 -0.9 0  -2.45 -0.9 0  -2.4 -0.9 0  -2.35 -0.9 0  -2.3 -0.9 0  -2.25 -0.9 0  -2.2 -0.9 0  -2.15 -0.9 0  -2.1 -0.9 0  -2.05 -0.9 0  -2 -0.9 0  -1.95 -0.9 0  -1.9 -0.9 0  -1.85 -0.9 0  -1.8 -0.9 0  -1.75 -0.9 0  -1.7 -0.9 0  -1.65 -0.9 0  -1.6 -0.9 0  -1.55 -0.9 0  -1.5 -0.9 0  -1.45 -0.9 0  -1.4 -0.9 0  -1.35 -0.9 0  -1.3 -0.9 0  -1.25 -0.9 0  -1.2 -0.9 0  -1.15 -0.9 0  -1.1 -0.9 0  -1.05 -0.9 0  -1 -0.9 0  -0.9500000000000002 -0.9 0  -0.9000000000000004 -0.9 0  -0.8499999999999996 -0.9 0  -0.7999999999999998 -0.9 0  -0.75 -0.9 0  -0.7000000000000002 -0.9 0  -0.6500000000000004 -0.9 0  -0.5999999999999996 -0.9 0  -0.5499999999999998 -0.9 0  -0.5 -0.9 0  -0.4500000000000002 -0.9 0  -0.4000000000000004 -0.9 0  -0.3499999999999996 -0.9 0  -0.2999999999999998 -0.9 0  -0.25 -0.9 0  -0.2000000000000002 -0.9 0  -0.1500000000000004 -0.9 0  -0.09999999999999964 -0.9 0  -0.04999999999999982 -0.9 0  0 -0.9 0  0.04999999999999982 -0.9 0  0.09999999999999964 -0.9 0  0.1500000000000004 -0.9 0  0.2000000000000002 -0.9 0  0.25 -0.9 0  0.2999999999999998 -0.9 0  0.3499999999999996 -0.9 0  0.4000000000000004 -0.9 0  0.4500000000000002 -0.9 0  0.5 -0.9 0  0.5499999999999998 -0.9 0  0.5999999999999996 -0.9 0  0.6500000000000004 -0.9 0  0.7000000000000002 -0.9 0  0.75 -0.9 0  0.7999999999999998 -0.9 0  0.8499999999999996 -0.9 0  0.9000000000000004 -0.9 0  0.9500000000000002 -0.9 0  1 -0.9 0  1.05 -0.9 0  1.1 -0.9 0  1.15 -0.9 0  1.2 -0.9 0  1.25 -0.9 0  1.3 -0.9 0  1.35 -0.9 0  1.4 -0.9 0  1.45 -0.9 0  1.5 -0.9 0  1.55 -0.9 0  1.6 -0.9 0  1.65 -0.9 0  1.7 -0.9 0  1.75 -0.9 0  1.8 -0.9 0  1.85 -0.9 0  1.9 -0.9 0  1.95 -0.9 0  2 -0.9 0  2.05 -0.9 0  2.1 -0.9 0  2.15 -0.9 0  2.2 -0.9 0  2.25 -0.9 0  2.3 -0.9 0  2.35 -0.9 0  2.4 -0.9 0  2.45 -0.9 0  2.5 -0.9 0  2.55 -0.9 0  2.6 -0.9 0  2.65 -0.9 0  2.7 -0.9 0  2.75 -0.9 0  2.8 -0.9 0  2.85 -0.9 0  2.9 -0.9 0  2.95 -0.9 0  3 -0.9 0  3.050000000000001 -0.9 0  3.1 -0.9 0  3.15 -0.9 0  3.199999999999999 -0.9 0  3.25 -0.9 0  3.300000000000001 -0.9 0  3.35 -0.9 0  3.4 -0.9 0  3.449999999999999 -0.9 0  3.5 -0.9 0  3.550000000000001 -0.9 0  3.6 -0.9 0  3.65 -0.9 0  3.699999999999999 -0.9 0  3.75 -0.9 0  3.800000000000001 -0.9 0  3.85 -0.9 0  3.9 -0.9 0  3.949999999999999 -0.9 0  4 -0.9 0  4.050000000000001 -0.9 0  4.1 -0.9 0  4.15 -0.9 0  4.199999999999999 -0.9 0  4.25 -0.9 0  4.300000000000001 -0.9 0  4.35 -0.9 0  4.4 -0.9 0  4.449999999999999 -0.9 0  4.5 -0.9 0  4.550000000000001 -0.9 0  4.6 -0.9 0  4.65 -0.9 0  4.699999999999999 -0.9 0  4.75 -0.9 0  4.800000000000001 -0.9 0  4.85 -0.9 0  4.9 -0.9 0  4.949999999999999 -0.9 0  5 -0.9 0  -5 -0.85 0  -4.95 -0.85 0  -4.9 -0.85 0  -4.85 -0.85 0  -4.8 -0.85 0  -4.75 -0.85 0  -4.7 -0.85 0  -4.65 -0.85 0  -4.6 -0.85 0  -4.55 -0.85 0  -4.5 -0.85 0  -
[...]
<PointData  Vectors="f_15"> 
<DataArray  type="Float64"  Name="f_15"  NumberOfComponents="3" format="ascii">2.0557869562657092e+00 0.0000000000000000e+00 0.0000000000000000e+00  2.0445892643452970e+00 4.5726238464275669e-02 0.0000000000000000e+00  2.0544156287883979e+00 1.0241906410071289e-01 0.0000000000000000e+00  2.0444758022370797e+00 1.3944154918565435e-01 0.0000000000000000e+00  2.0540890478585578e+00 2.0036877667049219e-01 0.0000000000000000e+00  2.0429818831250999e+00 2.3608704054219240e-01 0.0000000000000000e+00  2.0537760896820645e+00 2.9640016469968389e-01 0.0000000000000000e+00  2.0413819424885964e+00 3.3444412175733473e-01 0.0000000000000000e+00  2.0528622133488805e+00 3.9088512664061303e-01 0.0000000000000000e+00  2.0395851041500368e+00 4.3332557789616505e-01 0.0000000000000000e+00  2.0516679136420874e+00 4.8390285520300702e-01 0.0000000000000000e+00  2.0372696137227182e+00 5.3651691955246428e-01 0.0000000000000000e+00  2.0501933936226036e+00 5.6748732031859717e-01 0.0000000000000000e+00  2.0345656231012610e+00 6.5020965675070752e-01 0.0000000000000000e+00  2.0482014956991774e+00 6.4616496935036716e-01 0.0000000000000000e+00  2.0314760571970338e+00 7.5239619648986522e-01 0.0000000000000000e+00  2.0459232635118383e+00 7.5451792870180090e-01 0.0000000000000000e+00  2.0275932115426243e+00 8.1284346794981621e-01 0.0000000000000000e+00  2.0436236118264990e+00 8.9495685426884941e-01 0.0000000000000000e+00  2.0229663215056521e+00 8.6369348266522650e-01 0.0000000000000000e+00  2.0405338857674300e+00 1.0158753594716641e+00 0.0000000000000000e+00  2.0184282542140504e+00 9.4548432734720234e-01 0.0000000000000000e+00  2.0363225258307804e+00 1.1137192435719625e+00 0.0000000000000000e+00  2.0134785840192251e+00 1.0344809907341654e+00 0.0000000000000000e+00  2.0317353980490021e+00 1.2067565620491192e+00 0.0000000000000000e+00  2.0077310907590027e+00 1.1364051542831266e+00 0.0000000000000000e+00  2.0263090276376099e+00 1.2808799274009828e+00 0.0000000000000000e+00  2.0018473225953710e+00 1.2391618499657169e+00 0.0000000000000000e+00  2.0198812771135866e+00 1.3734817265640100e+00 0.0000000000000000e+00  1.9947736130517009e+00 1.3182299248513978e+00 0.0000000000000000e+00  2.0132830462132434e+00 1.4645432113144634e+00 0.0000000000000000e+00  1.9868291544801542e+00 1.4155027828391558e+00 0.0000000000000000e+00  2.0051777231628338e+00 1.5412414833366996e+00 0.0000000000000000e+00  1.9790436556251172e+00 1.5016616834725334e+00 0.0000000000000000e+00  1.9956499883888312e+00 1.6311173092311100e+00 0.0000000000000000e+00  1.9700573329946742e+00 1.5860780517900475e+00 0.0000000000000000e+00  1.9857385529265308e+00 1.7060288631222047e+00 0.0000000000000000e+00  1.9598196203996880e+00 1.6759348627602135e+00 0.0000000000000000e+00  1.9744921842973100e+00 1.7828285873407781e+00 0.0000000000000000e+00  1.9491578723456155e+00 1.7566573994885015e+00 0.0000000000000000e+00  1.9618067232485497e+00 1.8592533160587732e+00 0.0000000000000000e+00  1.9372721668660664e+00 1.8336247754010266e+00 0.0000000000000000e+00  1.9486122348360564e+00 1.9333046479412181e+00 0.0000000000000000e+00  1.9240315692194703e+00 1.9095765284904884e+00 0.0000000000000000e+00  1.9340395167245197e+00 2.0016517930255819e+00 0.0000000000000000e+00  1.9106187462451683e+00 1.9807980835455894e+00 0.0000000000000000e+00  1.9181222720495892e+00 2.0697119486908173e+00 0.0000000000000000e+00  1.8962453806231321e+00 2.0491103984245815e+00 0.0000000000000000e+00  1.9020236018907308e+00 2.1289787815247547e+00 0.0000000000000000e+00  1.8812559124193582e+00 2.1173985687437473e+00 0.0000000000000000e+00  1.8853037799514041e+00 2.1820891196694663e+00 0.0000000000000000e+00  1.8668977362364838e+00 2.1803117766920264e+00 0.0000000000000000e+00  1.8689408957516256e+00 2.2295043287983640e+00 0.0000000000000000e+00  1.8532755960342913e+00 2.2377555354294763e+00 0.0000000000000000e+00  1.8549212806085646e+00 2.2660604669650755e+00 0.0000000000000000e+00  1.8424322138338054e+00 2.2858972222748242e+00 0.0000000000000000e+00  1.8444264851688352e+00 2.2926924115799774e+00 0.0000000000000000e+00  1.8368680594071725e+00 2.3168474385253468e+00 0.0000000000000000e+00  1.8392889171402000e+00 2.3062845607270877e+00 0.0000000000000000e+00  1.8362813573429506e+00 2.3320614932433799e+00 0.0000000000000000e+00  1.8387366743493305e+00 2.3080032106090016e+00 0.0000000000000000e+00  1.8388335500104189e+00 2.3380351283009078e+00 0.0000000000000000e+00  1.8391926152119977e+00 2.3070425935033052e+00 0.0000000000000000e+00  1.8417194399554626e+00 2.3379606022042649e+00 0.0000000000000000e+00  1.8400213309753863e+00 2.3073261190496086e+00 0.0000000000000000e+00  1.8432844639127228e+00 2.3383331522961459e+00 0.0000000000000000e+00  1.8406552776757026e+00 2.3073350997238280e+00 0.0000000000000000e+00  1.8449338327010203e+00 2.3370746555641668e+00 0.0000000000000000e+00  1.8401715812762691e+00 2.3108607567915649e+00 0.0000000000000000e+00  1.8466858485218738e+00 2.3323832221267042e+00 0.0000000000000000e+00  1.8401735645887167e+00 2.3149668350238808e+00 0.0000000000000000e+00  1.8471774827758609e+00 2.3307847652276168e+00 0.0000000000000000e+00  1.8405664917046713e+00 2.3154877273616967e+00 0.0000000000000000e+00  1.8478513331842747e+00 2.3296531170150772e+00 0.0000000000000000e+00  1.8403868511890016e+00 2.3201207785817788e+00 0.0000000000000000e+00  1.8484984866281733e+00 2.3233137080939437e+00 0.0000000000000000e+00  1.8411236712019201e+00 2.3273358792709753e+00 0.0000000000000000e+00  1.8481921353206601e+00 2.3181370344804586e+00 0.0000000000000000e+00  1.8418372169940480e+00 2.3329680111848297e+00 0.0000000000000000e+00  1.8487122565180043e+00 2.3121563797967979e+00 0.0000000000000000e+00  1.8420497316306528e+00 2.3425346754406426e+00 0.0000000000000000e+00  1.8487540792967438e+00 2.3025979687150211e+00 0.0000000000000000e+00  1.8434293511705311e+00 2.3517519571545620e+00 0.0000000000000000e+00  1.8481154450632256e+00 2.2978733067776251e+00 0.0000000000000000e+00  1.8441336594984881e+00 2.3558471135486139e+00 0.0000000000000000e+00  1.8489054111685730e+00 2.2951443712321162e+00 0.0000000000000000e+00  1.8441067119797836e+00 2.3611916552918966e+00 0.0000000000000000e+00  1.8492578997524058e+00 2.2906741181792043e+00 0.0000000000000000e+00  1.8447531543932139e+00 2.3656889582888807e+00 0.0000000000000000e+00  1.8495644515980254e+00 2.2905819531704537e+00 0.0000000000000000e+00  1.8445401719199455e+00 2.3652646253714806e+00 0.0000000000000000e+00  1.8508615040466401e+00 2.2922083806184075e+00 0.0000000000000000e+00  1.8440967227532705e+00 2.3667958260362201e+00 0.0000000000000000e+00  1.8514092052907409e+00 2.2910509581993290e+00 0.0000000000000000e+00  1.8441013461248390e+00 2.3689908508301025e+00 0.0000000000000000e+00  1.8523072313891795e+00 2.2921957962744255e+00 0.0000000000000000e+00  1.8434180268161464e+00 2.3674712401000604e+00 0.0000000000000000e+00  1.8531780888263947e+00 2.2948159684874851e+00 0.0000000000000000e+00  1.8435092112955060e+00 2.3678556274344578e+00 0.0000000000000000e+00  1.8528618175056157e+00 2.2941962225473875e+00 0.0000000000000000e+00  1.8441028332888223e+00 2.3687526875344349e+00 0.0000000000000000e+00  1.8530150765895981e+00 2.2961526714018285e+00 0.0000000000000000e+00  1.8438679867505259e+00 2.3654927030896444e+00 0.0000000000000000e+00  1.8529564501806395e+00 2.3005786441171021e+00 0.0000000000000000e+00  1.8448845199397439e+00 2.3621970141121382e+00 0.0000000000000000e+00  1.8515507412751147e+00 2.3033571797236854e+00 0.0000000000000000e+00  1.8461459845376289e+00 2.3586336148853206e+00 0.0000000000000000e+00  1.8509548290067550e+00 2.3091366504948039e+00 0.0000000000000000e+00  1.8462174840883911e+00 2.3511394718909902e+00 0.0000000000000000e+00  1.8507900129417145e+00 2.3159660874518315e+00 0.0000000000000000e+00  1.8470187047308675e+00 2.3458639695567229e+00 0.0000000000000000e+00  1.8492945818960962e+00 2.3193671498170754e+00 0.0000000000000000e+00  1.8482887311748279e+00 2.3422453410610915e+00 0.0000000000000000e+00  1.8488318625119520e+00 2.3234548873343051e+00 0.0000000000000000e+00  1.8478397263179898e+00 2.3370761305440153e+00 0.0000000000000000e+00  1.8492661465535774e+00 2.3272681068474337e+00 0.0000000000000000e+00  1.8479117009177826e+00 2.3352488911643916e+00 0.0000000000000000e+00  1.8483873653484977e+00 2.3266347819705531e+00 0.0000000000000000e+00  1.8488959936764311e+00 2.3351061007999827e+00 0.0000000000000000e+00  1.8479336301221279e+00 2.3284586884927214e+00 0.0000000000000000e+00  1.8482317724538440e+00 2.3314679869174912e+00 0.0000000000000000e+00  1.8489658336878336e+00 2.3309093936495056e+00 0.0000000000000000e+00  1.8478220117400390e+00 2.3307037912375295e+00 0.0000000000000000e+00  1.8482446391617413e+00 2.3297231138902790e+00 0.0000000000000000e+00  1.8486601728060557e+00 2.3313734898997938e+00 0.0000000000000000e+00  1.8482419189341572e+00 2.3304269073765020e+00 0.0000000000000000e+00  1.8477154728534126e+00 2.3280756760098056e+00 0.0000000000000000e+00  1.8491469440968558e+00 2.3333210854686537e+00 0.0000000000000000e+00  1.8475588807891119e+00 2.3268888813725139e+00 0.0000000000000000e+00  1.8484624949627995e+00 2.3314589658516773e+00 0.0000000000000000e+00  1.8483963502747789e+00 2.3274314933307285e+00 0.0000000000000000e+00  1.8482258345428269e+00 2.3338273712852744e+00 0.0000000000000000e+00  1.8478028268661022e+00 2.3213773519402521e+00 0.0000000000000000e+00  1.8487911056927890e+00 2.3392376719253924e+00 0.0000000000000000e+00  1.8484520103358077e+00 2.3181127822195280e+00 0.0000000000000000e+00  1.8469963578729425e+00 2.3388782193296733e+00 0.0000000000000000e+00  1.8499697715002741e+00 2.3199259252261073e+00 0.0000000000000000e+00  1.8471413225656284e+00 2.3366001463798476e+00 0.0000000000000000e+00  1.8492238245096884e+00 2.3200607446411263e+00 0.0000000000000000e+00  1.8470108374889698e+00 2.3370752546791906e+00 0.0000000000000000e+00  1.8515311648295196e+00 2.3197255741255614e+00 0.0000000000000000e+00  1.8451532774722468e+00 2.3321440143408392e+00 0.0000000000000000e+00  1.8527138559649314e+00 2.3246065065282391e+00 0.0000000000000000e+00  1.8468485472497238e+00 2.3265804977251303e+00 0.0000000000000000e+00  1.8527865138597497e+00 2.3205717347443549e+00 0.0000000000000000e+00  1.8480125108534848e+00 2.3282268188790929e+00 0.0000000000000000e+00  1.8554665261004453e+00 2.3141719707769037e+00 0.0000000000000000e+00  1.8494629168078784e+00 2.3218296268404641e+00 0.0000000000000000e+00  1.8575364840300417e+00 2.3109727744721731e+00 0.0000000000000000e+00  1.8537543143556228e+00 2.3146106415629757e+00 0.0000000000000000e+00  1.8588632877678979e+00 2.2990390480558616e+00 0.0000000000000000e+00  1.8582688743776556e+00 2.3079362456996777e+00 0.0000000000000000e+00  1.8621825183737635e+00 2.2873571547056906e+00 0.0000000000000000e+00  1.8607313344124778e+00 2.2946341090805071e+00 0.0000000000000000e+00  1.8654741512226005e+00 2.2774938636378614e+00 0.0000000000000000e+00  1.8646669730545229e+00 2.2835991009620464e+00 0.0000000000000000e+00  1.8657242484206242e+00 2.2665304382492795e+00 0.0000000000000000e+00  1.8683389044292846e+00 2.2760671726820272e+00 0.0000000000000000e+00  1.8682116771649400e+00 2.2602911065240026e+00 0.0000000000000000e+00  1.8693583681662813e+00 2.2686228118113361e+00 0.0000000000000000e+00  1.8725944229696887e+00 2.2547808359702382e+00 0.0000000000000000e+00  1.8739604862055326e+00 2.2638503452288470e+00 0.0000000000000000e+00  1.8790173166845370e+00 2.2420392128445759e+00 0.0000000000000000e+00  1.8823857185502724e+00 2.2539807376965766e+00 0.0000000000000000e+00  1.8926608032588508e+00 2.2287833871462417e+00 0.0000000000000000e+00  1.8907604935005848e+00 2.2388846740926680e+00 0.0000000000000000e+00  1.9058057430391435e+00 2.2208312617885460e+00 0.0000000000000000e+00  1.8898011670531645e+00 2.2508688547895677e+00 0.0000000000000000e+00  1.9008417903819619e+00 2.2365131427660785e+00 0.0000000000000000e+00  1.8685146242693527e+00 2.2950634833462327e+00 0.0000000000000000e+00  1.8779955715168888e+00 2.2845881778254897e+00 0.0000000000000000e+00  1.8396030761453885e+00 2.3367661737376557e+00 0.0000000000000000e+00  1.8631014160583965e+00 2.3122658218450374e+00 0.0000000000000000e+00  1.8288653988469328e+00 2.3528205041910599e+00 0.0000000000000000e+00  1.8612211404371877e+00 2.3126674442224959e+00 0.0000000000000000e+00  1.8269435958598945e+00 2.3482367163880795e+00 0.0000000000000000e+00  1.8595310074391656e+00 2.3231840565054274e+00 0.0000000000000000e+00  1.8003955200694317e+00 2.3858443803624141e+00 0.0000000000000000e+00  1.9729017408954006e+00 2.0768477123923637e+00 0.0000000000000000e+00  2.5217250350996099e+00 7.9879761923928194e-01 0.0000000000000000e+00  2.9082391783688979e+00 9.2554188495771197e-02 0.0000000000000000e+00  2.9680613826329916e+00 6.2127296404739544e-03 0.0000000000000000e+00  2.9674947065538770e+00 -2.8801954050125065e-02 0.0000000000000000e+00  2.9658546956586807e+00 -1.1506834279223893e-02 0.0000000000000000e+00  2.9760418804948574e+00 -4.5223850911108539e-02 0.0000000000000000e+00  2.9689687750095670e+00 -6.9250651430638188e-03 0.0000000000000000e+00  2.9745907177336322e+00 -4.9980521666666576e-02 0.0000000000000000e+00  2.9721781331483936e+00 -6.2325075355799554e-03 0.0000000000000000e+00  2.9747812865070866e+00 -3.8820258479266574e-02 0.0000000000000000e+00  2.9707406386647359e+00 -4.9638778094437007e-03 0.0000000000000000e+00  2.9754623137408802e+00 -3.3003012599239857e-02 0.0000000000000000e+00  2.9727512346071441e+00 -1.9705927596032291e-02 0.0000000000000000e+00  2.9744622194416959e+00 -5.4949334398616802e-02 0.0000000000000000e+00  2.9738737210521524e+00 -5.6820761647289407e-02 0.0000000000000000e+00  2.9757472774856422e+00 -8.1197313815990532e-02 0.0000000000000000e+00  2.9721775779650708e+00 -7.1761126192126781e-02 0.0000000000000000e+00  2.9778394606692959e+00 -7.4948397132309358e-02 0.0000000000000000e+00  2.9716605561404452e+00 -4.8313205942953193e-02 0.0000000000000000e+00  2.9775178415008590e+00 -6.0281012951412388e-02 0.0000000000000000e+00  2.9711699444087363e+00 -2.6905286372992977e-02 0.0000000000000000e+00  2.9781110316109767e+00 0.0000000000000000e+00 0.0000000000000000e+00  2.0504993390408033e+00 0.0000000000000000e+00 7.1299690047915030e-03  2.0476457998498359e+00 4.7140760158630786e-02 -5.1320034156594283e-03  2.0502469463553976e+00 9.7996682081995787e-02 5.2419068721019351e-03  2.0486050860582634e+00 1.4259787903446394e-01 -5.9088929316487484e-03  2.0490951008000833e+00 1.9788838666524919e-01 6.5061134379474327e-03  2.0485869504478362e+00 2.3848320537139750e-01 -7.3775235160815945e-03  2.0481656844382212e+00 2.9688322484919594e-01 8.2119818135901572e-03  2.0475497558174678e+00 3.3391075549225069e-01 -9.0644960406278362e-03  2.0469728696059954e+00 3.9503598134624329e-01 1.0141789344814611e-02  2.0462088212501803e+00 4.2948101638463509e-01 -1.1093769650866052e-02  2.0451216746263965e+00 4.9354074313642232e-01 1.2378002227103436e-02  2.0446076357956082e+00 5.2153215027008615e-01 -1.3815079488808762e-02  2.0428030438898994e+00 5.9597129461177123e-01 1.6436956131394554e-02  2.0425694565272017e+00 6.1163127216220725e-01 -2.0668880621777776e-02  2.0399709412707154e+00 6.9341110254716731e-01 2.7288393822653599e-02  2.0402813606981498e+00 7.1227000577152089e-01 -3.4939537677812472e-02  2.0364420184369014e+00 7.7851043148445875e-01 4.1177744347982957e-02  2.0375987417406023e+00 8.1746704900457201e-01 -4.2130187198199026e-02  2.0328697679158534e+00 8.6957924723971847e-01 3.6641911512755081e-02  2.0335395471741502e+00 9.0830057447796886e-01 -2.4007678036068646e-02  2.0299376261798554e+00 9.6914533038672357e-01 9.6160846071311548e-03  2.0282111827114542e+00 1.0028141065696012e+00 3.7756548825849867e-03  2.0265424794000748e+00 1.0518437688153113e+00 -1.3245132946802414e-02  2.0230292823274265e+00 1.1090531839098259e+00 1.8354237891962229e-02  2.0217753726860344e+00 1.1377174653654347e+00 -1.9408713076500730e-02  2.0178229961448260e+00 1.1959707029085738e+00 1.5647877754577745e-02  2.0161744642655215e+00 1.2369904163775214e+00 -9.1904991938255333e-03  2.0121714616325375e+00 1.2847513833404864e+00 2.9203077160166071e-03  2.0094454446429908e+00 1.3223741227004053e+00 -3.3199849394797379e-04  2.0062333363163010e+00 1.3758213672083297e+00 9.4827601236898546e-04  2.0019745433260328e+00 1.4177931514262008e+00 -1.1929392358549444e-03  1.9989863378263608e+00 1.4542485331490720e+00 -9.0977537363240337e-04  1.9944256610758344e+00 1.5067583352640197e+00 3.8334986720944663e-03  1.9906301488685276e+00 1.5456249430661375e+00 -4.9744448669274089e-03  1.9855681413820949e+00 1.5891411251457057e+00 5.1334102576650904e-03  1.9821192789066995e+00 1.6251441718297199e+00 -6.1729473719378345e-03  1.9753756856230908e+00 1.6800627683139806e+00 8.3962680751362290e-03  1.9724781791689310e+00 1.7040805602528886e+00 -1.0004339971041262e-02  1.9647794307209592e+00 1.7600332247698391e+00 1.0398063526276997e-02  1.9614953360136096e+00 1.7859808377242943e+00 -1.1191980742779538e-02  1.9528608622445611e+00 1.8387026721512334e+00 1.3410317319824845e-02  1.9502331469750065e+00 1.8618263837976861e+00 -1.5604297966458793e-02  1.9394232452454394e+00 1.9184972666680373e+00 1.7664155705870405e-02  1.9378240639821107e+00 1.9321797722223444e+00 -1.9385934948820360e-02  1.9255698238531267e+00 1.9944307441343170e+00 2.2425483720889993e-02  1.9241990269367799e+00 2.0021504371214283e+00 -2.4850428371154094e-02  1.9105006372609179e+00 2.0673876168891150e+00 2.7557196350740200e-02  1.9103978863435176e+00 2.0646838602964332e+00 -2.9161955551554718e-02  1.8945117973112742e+00 2.1395754467260777e+00 3.1775643035801757e-02  1.8957715460778541e+00 2.1239049994450889e+00 -3.3092225156852187e-02  1.8789077952205084e+00 2.2049647700153665e+00 3.5041381531583371e-02  1.8809466935429771e+00 2.1803356697091965e+00 -3.5317408578123564e-02  1.8636978830401425e+00 2.2629910874658905e+00 3.6515333289435681e-02  1.8675683234234823e+00 2.2292636145236879e+00 -3.6308131435850155e-02  1.8505445468759010e+00 2.3128138667589013e+00 3.6617659268721889e-02  1.8563285649052583e+00 2.2702620988548765e+00 -3.5614202709413588e-02  1.8419158778360716e+00 2.3454205450488379e+00 3.4751749459432719e-02  1.8495136557082184e+00 2.2994898916848077e+00 -3.3752016299982458e-02  1.8385862123877819e+00 2.3623795029371144e+00 3.2484339334517415e-02  1.8482131000820010e+00 2.3126033765675760e+00 -3.1332426703593652e-02  1.8400177255226842e+00 2.3661555381247465e+00 2.9562668586073253e-02  1.8494751488361012e+00 2.3172974616160795e+00 -2.8746780102420239e-02  1.8428685036615258e+00 2.3631546759177429e+00 2.7117469640719746e-02  1.8512814667316899e+00 2.3206831585716450e+00 -2.6352038612862200e-02  1.8445170270665752e+00 2.3613872242029714e+00 2.4793005492777711e-02  1.8526408802687289e+00 2.3217870916962715e+00 -2.4257902194395959e-02  1.8461466908529154e+00 2.3597192830104841e+00 2.2867558975538188e-02  1.8526835233338714e+00 2.3250243952197334e+00 -2.2258323563967727e-02  1.8476597112676207e+00 2.3561203260598660e+00 2.1047484300744702e-02  1.8529097085607193e+00 2.3279230213823037e+00 -2.0529284011107391e-02  1.8478858173405761e+00 2.3555791286337069e+00 1.9480955501487044e-02  1.8533705810942931e+00 2.3269262041031493e+00 -1.8933534772021945e-02  1.8484370886069785e+00 2.3555406866417283e+00 1.8025950843872037e-02  1.8529411332251469e+00 2.3289203009418387e+00 -1.7364055387808292e-02  1.8491165608659090e+00 2.3509099110619678e+00 1.6349099188593536e-02  1.8529131453190866e+00 2.3322065989405458e+00 -1.5624390402048551e-02  1.8488638111751765e+00 2.3486973330049468e+00 1.4725837446297064e-02  1.8528045495358310e+00 2.3319182377207661e+00 -1.4229581541668980e-02  1.8493095708863045e+00 2.3472859156975141e+00 1.3777478151051155e-02  1.8520592999076602e+00 2.3334185004509780e+00 -1.3707071548768086e-02  1.8491992623701654e+00 2.3436325616936449e+00 1.3625704034336737e-02  1.8524053828652696e+00 2.3338123624216984e+00 -1.3803383526878559e-02  1.8482581323524243e+00 