<?xml version="1.0"?>
<VTKFile type="UnstructuredGrid"  version="0.1"  >
<UnstructuredGrid>
<Piece  NumberOfPoints="8241" NumberOfCells="16000">
<Points>
<DataArray  type="Float64"  NumberOfComponents="3"  format="ascii">-5 -1 0  -4.95 -1 0  -4.9 -1 0  -4.85 -1 0  -4.8 -1 0  -4.75 -1 0  -4.7 -1 0  -4.65 -1 0  -4.6 -1 0  -4.55 -1 0  -4.5 -1 0  -4.45 -1 0  -4.4 -1 0  -4.35 -1 0  -4.3 -1 0  -4.25 -1 0  -4.2 -1 0  -4.15 -1 0  -4.1 -1 0  -4.05 -1 0  -4 -1 0  -3.95 -1 0  -3.9 -1 0  -3.85 -1 0  -3.8 -1 0  -3.75 -1 0  -3.7 -1 0  -3.65 -1 0  -3.6 -1 0  -3.55 -1 0  -3.5 -1 0  -3.45 -1 0  -3.4 -1 0  -3.35 -1 0  -3.3 -1 0  -3.25 -1 0  -3.2 -1 0  -3.15 -1 0  -3.1 -1 0  -3.05 -1 0  -3 -1 0  -2.95 -1 0  -2.9 -1 0  -2.85 -1 0  -2.8 -1 0  -2.75 -1 0  -2.7 -1 0  -2.65 -1 0  -2.6 -1 0  -2.55 -1 0  -2.5 -1 0  -2.45 -1 0  -2.4 -1 0  -2.35 -1 0  -2.3 -1 0  -2.25 -1 0  -2.2 -1 0  -2.15 -1 0  -2.1 -1 0  -2.05 -1 0  -2 -1 0  -1.95 -1 0  -1.9 -1 0  -1.85 -1 0  -1.8 -1 0  -1.75 -1 0  -1.7 -1 0  -1.65 -1 0  -1.6 -1 0  -1.55 -1 0  -1.5 -1 0  -1.45 -1 0  -1.4 -1 0  -1.35 -1 0  -1.3 -1 0  -1.25 -1 0  -1.2 -1 0  -1.15 -1 0  -1.1 -1 0  -1.05 -1 0  -1 -1 0  -0.9500000000000002 -1 0  -0.9000000000000004 -1 0  -0.8499999999999996 -1 0  -0.7999999999999998 -1 0  -0.75 -1 0  -0.7000000000000002 -1 0  -0.6500000000000004 -1 0  -0.5999999999999996 -1 0  -0.5499999999999998 -1 0  -0.5 -1 0  -0.4500000000000002 -1 0  -0.4000000000000004 -1 0  -0.3499999999999996 -1 0  -0.2999999999999998 -1 0  -0.25 -1 0  -0.2000000000000002 -1 0  -0.1500000000000004 -1 0  -0.09999999999999964 -1 0  -0.04999999999999982 -1 0  0 -1 0  0.04999999999999982 -1 0  0.09999999999999964 -1 0  0.1500000000000004 -1 0  0.2000000000000002 -1 0  0.25 -1 0  0.2999999999999998 -1 0  0.3499999999999996 -1 0  0.4000000000000004 -1 0  0.4500000000000002 -1 0  0.5 -1 0  0.5499999999999998 -1 0  0.5999999999999996 -1 0  0.6500000000000004 -1 0  0.7000000000000002 -1 0  0.75 -1 0  0.7999999999999998 -1 0  0.8499999999999996 -1 0  0.9000000000000004 -1 0  0.9500000000000002 -1 0  1 -1 0  1.05 -1 0  1.1 -1 0  1.15 -1 0  1.2 -1 0  1.25 -1 0  1.3 -1 0  1.35 -1 0  1.4 -1 0  1.45 -1 0  1.5 -1 0  1.55 -1 0  1.6 -1 0  1.65 -1 0  1.7 -1 0  1.75 -1 0  1.8 -1 0  1.85 -1 0  1.9 -1 0  1.95 -1 0  2 -1 0  2.05 -1 0  2.1 -1 0  2.15 -1 0  2.2 -1 0  2.25 -1 0  2.3 -1 0  2.35 -1 0  2.4 -1 0  2.45 -1 0  2.5 -1 0  2.55 -1 0  2.6 -1 0  2.65 -1 0  2.7 -1 0  2.75 -1 0  2.8 -1 0  2.85 -1 0  2.9 -1 0  2.95 -1 0  3 -1 0  3.050000000000001 -1 0  3.1 -1 0  3.15 -1 0  3.199999999999999 -1 0  3.25 -1 0  3.300000000000001 -1 0  3.35 -1 0  3.4 -1 0  3.449999999999999 -1 0  3.5 -1 0  3.550000000000001 -1 0  3.6 -1 0  3.65 -1 0  3.699999999999999 -1 0  3.75 -1 0  3.800000000000001 -1 0  3.85 -1 0  3.9 -1 0  3.949999999999999 -1 0  4 -1 0  4.050000000000001 -1 0  4.1 -1 0  4.15 -1 0  4.199999999999999 -1 0  4.25 -1 0  4.300000000000001 -1 0  4.35 -1 0  4.4 -1 0  4.449999999999999 -1 0  4.5 -1 0  4.550000000000001 -1 0  4.6 -1 0  4.65 -1 0  4.699999999999999 -1 0  4.75 -1 0  4.800000000000001 -1 0  4.85 -1 0  4.9 -1 0  4.949999999999999 -1 0  5 -1 0  -5 -0.95 0  -4.95 -0.95 0  -4.9 -0.95 0  -4.85 -0.95 0  -4.8 -0.95 0  -4.75 -0.95 0  -4.7 -0.95 0  -4.65 -0.95 0  -4.6 -0.95 0  -4.55 -0.95 0  -4.5 -0.95 0  -4.45 -0.95 0  -4.4 -0.95 0  -4.35 -0.95 0  -4.3 -0.95 0  -4.25 -0.95 0  -4.2 -0.95 0  -4.15 -0.95 0  -4.1 -0.95 0  -4.05 -0.95 0  -4 -0.95 0  -3.95 -0.95 0  -3.9 -0.95 0  -3.85 -0.95 0  -3.8 -0.95 0  -3.75 -0.95 0  -3.7 -0.95 0  -3.65 -0.95 0  -3.6 -0.95 0  -3.55 -0.95 0  -3.5 -0.95 0  -3.45 -0.95 0  -3.4 -0.95 0  -3.35 -0.95 0  -3.3 -0.95 0  -3.25 -0.95 0  -3.2 -0.95 0  -3.15 -0.95 0  -3.1 -0.95 0  -3.05 -0.95 0  -3 -0.95 0  -2.95 -0.95 0  -2.9 -0.95 0  -2.85 -0.95 0  -2.8 -0.95 0  -2.75 -0.95 0  -2.7 -0.95 0  -2.65 -0.95 0  -2.6 -0.95 0  -2.55 -0.95 0  -2.5 -0.95 0  -2.45 -0.95 0  -2.4 -0.95 0  -2.35 -0.95 0  -2.3 -0.95 0  -2.25 -0.95 0  -2.2 -0.95 0  -2.15 -0.95 0  -2.1 -0.95 0  -2.05 -0.95 0  -2 -0.95 0  -1.95 -0.95 0  -1.9 -0.95 0  -1.85 -0.95 0  -1.8 -0.95 0  -1.75 -0.95 0  -1.7 -0.95 0  -1.65 -0.95 0  -1.6 -0.95 0  -1.55 -0.95 0  -1.5 -0.95 0  -1.45 -0.95 0  -1.4 -0.95 0  -1.35 -0.95 0  -1.3 -0.95 0  -1.25 -0.95 0  -1.2 -0.95 0  -1.15 -0.95 0  -1.1 -0.95 0  -1.05 -0.95 0  -1 -0.95 0  -0.9500000000000002 -0.95 0  -0.9000000000000004 -0.95 0  -0.8499999999999996 -0.95 0  -0.7999999999999998 -0.95 0  -0.75 -0.95 0  -0.7000000000000002 -0.95 0  -0.6500000000000004 -0.95 0  -0.5999999999999996 -0.95 0  -0.5499999999999998 -0.95 0  -0.5 -0.95 0  -0.4500000000000002 -0.95 0  -0.4000000000000004 -0.95 0  -0.3499999999999996 -0.95 0  -0.2999999999999998 -0.95 0  -0.25 -0.95 0  -0.2000000000000002 -0.95 0  -0.1500000000000004 -0.95 0  -0.09999999999999964 -0.95 0  -0.04999999999999982 -0.95 0  0 -0.95 0  0.04999999999999982 -0.95 0  0.09999999999999964 -0.95 0  0.1500000000000004 -0.95 0  0.2000000000000002 -0.95 0  0.25 -0.95 0  0.2999999999999998 -0.95 0  0.3499999999999996 -0.95 0  0.4000000000000004 -0.95 0  0.4500000000000002 -0.95 0  0.5 -0.95 0  0.5499999999999998 -0.95 0  0.5999999999999996 -0.95 0  0.6500000000000004 -0.95 0  0.7000000000000002 -0.95 0  0.75 -0.95 0  0.7999999999999998 -0.95 0  0.8499999999999996 -0.95 0  0.9000000000000004 -0.95 0  0.9500000000000002 -0.95 0  1 -0.95 0  1.05 -0.95 0  1.1 -0.95 0  1.15 -0.95 0  1.2 -0.95 0  1.25 -0.95 0  1.3 -0.95 0  1.35 -0.95 0  1.4 -0.95 0  1.45 -0.95 0  1.5 -0.95 0  1.55 -0.95 0  1.6 -0.95 0  1.65 -0.95 0  1.7 -0.95 0  1.75 -0.95 0  1.8 -0.95 0  1.85 -0.95 0  1.9 -0.95 0  1.95 -0.95 0  2 -0.95 0  2.05 -0.95 0  2.1 -0.95 0  2.15 -0.95 0  2.2 -0.95 0  2.25 -0.95 0  2.3 -0.95 0  2.35 -0.95 0  2.4 -0.95 0  2.45 -0.95 0  2.5 -0.95 0  2.55 -0.95 0  2.6 -0.95 0  2.65 -0.95 0  2.7 -0.95 0  2.75 -0.95 0  2.8 -0.95 0  2.85 -0.95 0  2.9 -0.95 0  2.95 -0.95 0  3 -0.95 0  3.050000000000001 -0.95 0  3.1 -0.95 0  3.15 -0.95 0  3.199999999999999 -0.95 0  3.25 -0.95 0  3.300000000000001 -0.95 0  3.35 -0.95 0  3.4 -0.95 0  3.449999999999999 -0.95 0  3.5 -0.95 0  3.550000000000001 -0.95 0  3.6 -0.95 0  3.65 -0.95 0  3.699999999999999 -0.95 0  3.75 -0.95 0  3.800000000000001 -0.95 0  3.85 -0.95 0  3.9 -0.95 0  3.949999999999999 -0.95 0  4 -0.95 0  4.050000000000001 -0.95 0  4.1 -0.95 0  4.15 -0.95 0  4.199999999999999 -0.95 0  4.25 -0.95 0  4.300000000000001 -0.95 0  4.35 -0.95 0  4.4 -0.95 0  4.449999999999999 -0.95 0  4.5 -0.95 0  4.550000000000001 -0.95 0  4.6 -0.95 0  4.65 -0.95 0  4.699999999999999 -0.95 0  4.75 -0.95 0  4.800000000000001 -0.95 0  4.85 -0.95 0  4.9 -0.95 0  4.949999999999999 -0.95 0  5 -0.95 0  -5 -0.9 0  -4.95 -0.9 0  -4.9 -0.9 0  -4.85 -0.9 0  -4.8 -0.9 0  -4.75 -0.9 0  -4.7 -0.9 0  -4.65 -0.9 0  -4.6 -0.9 0  -4.55 -0.9 0  -4.5 -0.9 0  -4.45 -0.9 0  -4.4 -0.9 0  -4.35 -0.9 0  -4.3 -0.9 0  -4.25 -0.9 0  -4.2 -0.9 0  -4.15 -0.9 0  -4.1 -0.9 0  -4.05 -0.9 0  -4 -0.9 0  -3.95 -0.9 0  -3.9 -0.9 0  -3.85 -0.9 0  -3.8 -0.9 0  -3.75 -0.9 0  -3.7 -0.9 0  -3.65 -0.9 0  -3.6 -0.9 0  -3.55 -0.9 0  -3.5 -0.9 0  -3.45 -0.9 0  -3.4 -0.9 0  -3.35 -0.9 0  -3.3 -0.9 0  -3.25 -0.9 0  -3.2 -0.9 0  -3.15 -0.9 0  -3.1 -0.9 0  -3.05 -0.9 0  -3 -0.9 0  -2.95 -0.9 0  -2.9 -0.9 0  -2.85 -0.9 0  -2.8 -0.9 0  -2.75 -0.9 0  -2.7 -0.9 0  -2.65 -0.9 0  -2.6 -0.9 0  -2.55 -0.9 0  -2.5 -0.9 0  -2.45 -0.9 0  -2.4 -0.9 0  -2.35 -0.9 0  -2.3 -0.9 0  -2.25 -0.9 0  -2.2 -0.9 0  -2.15 -0.9 0  -2.1 -0.9 0  -2.05 -0.9 0  -2 -0.9 0  -1.95 -0.9 0  -1.9 -0.9 0  -1.85 -0.9 0  -1.8 -0.9 0  -1.75 -0.9 0  -1.7 -0.9 0  -1.65 -0.9 0  -1.6 -0.9 0  -1.55 -0.9 0  -1.5 -0.9 0  -1.45 -0.9 0  -1.4 -0.9 0  -1.35 -0.9 0  -1.3 -0.9 0  -1.25 -0.9 0  -1.2 -0.9 0  -1.15 -0.9 0  -1.1 -0.9 0  -1.05 -0.9 0  -1 -0.9 0  -0.9500000000000002 -0.9 0  -0.9000000000000004 -0.9 0  -0.8499999999999996 -0.9 0  -0.7999999999999998 -0.9 0  -0.75 -0.9 0  -0.7000000000000002 -0.9 0  -0.6500000000000004 -0.9 0  -0.5999999999999996 -0.9 0  -0.5499999999999998 -0.9 0  -0.5 -0.9 0  -0.4500000000000002 -0.9 0  -0.4000000000000004 -0.9 0  -0.3499999999999996 -0.9 0  -0.2999999999999998 -0.9 0  -0.25 -0.9 0  -0.2000000000000002 -0.9 0  -0.1500000000000004 -0.9 0  -0.09999999999999964 -0.9 0  -0.04999999999999982 -0.9 0  0 -0.9 0  0.04999999999999982 -0.9 0  0.09999999999999964 -0.9 0  0.1500000000000004 -0.9 0  0.2000000000000002 -0.9 0  0.25 -0.9 0  0.2999999999999998 -0.9 0  0.3499999999999996 -0.9 0  0.4000000000000004 -0.9 0  0.4500000000000002 -0.9 0  0.5 -0.9 0  0.5499999999999998 -0.9 0  0.5999999999999996 -0.9 0  0.6500000000000004 -0.9 0  0.7000000000000002 -0.9 0  0.75 -0.9 0  0.7999999999999998 -0.9 0  0.8499999999999996 -0.9 0  0.9000000000000004 -0.9 0  0.9500000000000002 -0.9 0  1 -0.9 0  1.05 -0.9 0  1.1 -0.9 0  1.15 -0.9 0  1.2 -0.9 0  1.25 -0.9 0  1.3 -0.9 0  1.35 -0.9 0  1.4 -0.9 0  1.45 -0.9 0  1.5 -0.9 0  1.55 -0.9 0  1.6 -0.9 0  1.65 -0.9 0  1.7 -0.9 0  1.75 -0.9 0  1.8 -0.9 0  1.85 -0.9 0  1.9 -0.9 0  1.95 -0.9 0  2 -0.9 0  2.05 -0.9 0  2.1 -0.9 0  2.15 -0.9 0  2.2 -0.9 0  2.25 -0.9 0  2.3 -0.9 0  2.35 -0.9 0  2.4 -0.9 0  2.45 -0.9 0  2.5 -0.9 0  2.55 -0.9 0  2.6 -0.9 0  2.65 -0.9 0  2.7 -0.9 0  2.75 -0.9 0  2.8 -0.9 0  2.85 -0.9 0  2.9 -0.9 0  2.95 -0.9 0  3 -0.9 0  3.050000000000001 -0.9 0  3.1 -0.9 0  3.15 -0.9 0  3.199999999999999 -0.9 0  3.25 -0.9 0  3.300000000000001 -0.9 0  3.35 -0.9 0  3.4 -0.9 0  3.449999999999999 -0.9 0  3.5 -0.9 0  3.550000000000001 -0.9 0  3.6 -0.9 0  3.65 -0.9 0  3.699999999999999 -0.9 0  3.75 -0.9 0  3.800000000000001 -0.9 0  3.85 -0.9 0  3.9 -0.9 0  3.949999999999999 -0.9 0  4 -0.9 0  4.050000000000001 -0.9 0  4.1 -0.9 0  4.15 -0.9 0  4.199999999999999 -0.9 0  4.25 -0.9 0  4.300000000000001 -0.9 0  4.35 -0.9 0  4.4 -0.9 0  4.449999999999999 -0.9 0  4.5 -0.9 0  4.550000000000001 -0.9 0  4.6 -0.9 0  4.65 -0.9 0  4.699999999999999 -0.9 0  4.75 -0.9 0  4.800000000000001 -0.9 0  4.85 -0.9 0  4.9 -0.9 0  4.949999999999999 -0.9 0  5 -0.9 0  -5 -0.85 0  -4.95 -0.85 0  -4.9 -0.85 0  -4.85 -0.85 0  -4.8 -0.85 0  -4.75 -0.85 0  -4.7 -0.85 0  -4.65 -0.85 0  -4.6 -0.85 0  -4.55 -0.85 0  -4.5 -0.85 0  -
[...]
<PointData  Vectors="f_15"> 
<DataArray  type="Float64"  Name="f_15"  NumberOfComponents="3" format="ascii">3.0000000000000009e+00 0.0000000000000000e+00 0.0000000000000000e+00  3.0000000000000000e+00 -1.2919828396097779e-15 0.0000000000000000e+00  3.0000000000000004e+00 7.2149269942842227e-16 0.0000000000000000e+00  3.0000000000000009e+00 -4.4129874424882818e-16 0.0000000000000000e+00  3.0000000000000000e+00 3.7353435295184689e-16 0.0000000000000000e+00  3.0000000000000004e+00 1.4530533142428028e-15 0.0000000000000000e+00  3.0000000000000000e+00 -2.8452660353528387e-15 0.0000000000000000e+00  3.0000000000000004e+00 9.4115925886269019e-16 0.0000000000000000e+00  3.0000000000000018e+00 2.2822453725623888e-16 0.0000000000000000e+00  3.0000000000000000e+00 -9.7995952917101224e-16 0.0000000000000000e+00  3.0000000000000013e+00 1.4065376725234132e-15 0.0000000000000000e+00  3.0000000000000018e+00 -2.4054013858798159e-15 0.0000000000000000e+00  3.0000000000000004e+00 1.3008851500532722e-15 0.0000000000000000e+00  3.0000000000000018e+00 -1.8024434222673893e-16 0.0000000000000000e+00  3.0000000000000000e+00 5.4924123335361751e-16 0.0000000000000000e+00  3.0000000000000018e+00 5.1272033040039692e-16 0.0000000000000000e+00  3.0000000000000000e+00 -1.4319278154613653e-15 0.0000000000000000e+00  3.0000000000000022e+00 -1.0770909994881759e-15 0.0000000000000000e+00  3.0000000000000013e+00 1.3134489133923155e-15 0.0000000000000000e+00  3.0000000000000018e+00 5.1683898873504193e-16 0.0000000000000000e+00  3.0000000000000000e+00 1.1955527806592339e-15 0.0000000000000000e+00  3.0000000000000013e+00 1.2246276102021181e-16 0.0000000000000000e+00  3.0000000000000004e+00 -8.4341204463793657e-16 0.0000000000000000e+00  3.0000000000000004e+00 7.2362671480562969e-16 0.0000000000000000e+00  3.0000000000000009e+00 -1.8320486436791365e-15 0.0000000000000000e+00  3.0000000000000013e+00 7.5480501153499291e-16 0.0000000000000000e+00  3.0000000000000009e+00 5.5619953543178877e-16 0.0000000000000000e+00  3.0000000000000004e+00 3.0163926415601649e-16 0.0000000000000000e+00  3.0000000000000004e+00 -4.7718596792951810e-16 0.0000000000000000e+00  3.0000000000000018e+00 3.0097039719967889e-16 0.0000000000000000e+00  3.0000000000000000e+00 -7.3046845701378045e-16 0.0000000000000000e+00  3.0000000000000013e+00 5.8843653161809008e-17 0.0000000000000000e+00  3.0000000000000009e+00 -7.0735373184654861e-16 0.0000000000000000e+00  3.0000000000000018e+00 1.5418242973031393e-15 0.0000000000000000e+00  3.0000000000000000e+00 -6.3726919275072982e-16 0.0000000000000000e+00  3.0000000000000004e+00 3.5723492357928881e-16 0.0000000000000000e+00  3.0000000000000013e+00 2.2734354328207431e-15 0.0000000000000000e+00  2.9999999999999991e+00 -1.1964976283157720e-15 0.0000000000000000e+00  3.0000000000000009e+00 1.1758840955086257e-15 0.0000000000000000e+00  2.9999999999999991e+00 -3.2962261508925474e-15 0.0000000000000000e+00  3.0000000000000031e+00 3.0411774155544579e-15 0.0000000000000000e+00  2.9999999999999969e+00 -7.0955157573093498e-15 0.0000000000000000e+00  3.0000000000000084e+00 1.1306398745125903e-14 0.0000000000000000e+00  2.9999999999999893e+00 -1.8647579510704409e-14 0.0000000000000000e+00  3.0000000000000195e+00 3.1495938750943262e-14 0.0000000000000000e+00  2.9999999999999707e+00 -5.2143872032772743e-14 0.0000000000000000e+00  3.0000000000000502e+00 8.7118630341492351e-14 0.0000000000000000e+00  2.9999999999999201e+00 -1.4205230896862574e-13 0.0000000000000000e+00  3.0000000000001323e+00 2.3388237645835781e-13 0.0000000000000000e+00  2.9999999999997846e+00 -3.8244408365993207e-13 0.0000000000000000e+00  3.0000000000003526e+00 6.2384032265385626e-13 0.0000000000000000e+00  2.9999999999994258e+00 -1.0195517275018431e-12 0.0000000000000000e+00  3.0000000000009397e+00 1.6624956328740190e-12 0.0000000000000000e+00  2.9999999999984697e+00 -2.7137473188764468e-12 0.0000000000000000e+00  3.0000000000025002e+00 4.4264439005124288e-12 0.0000000000000000e+00  2.9999999999959264e+00 -7.2156392689531572e-12 0.0000000000000000e+00  3.0000000000066405e+00 1.1758890662523325e-11 0.0000000000000000e+00  2.9999999999891900e+00 -1.9148757286365798e-11 0.0000000000000000e+00  3.0000000000175944e+00 3.1159689545122383e-11 0.0000000000000000e+00  2.9999999999713873e+00 -5.0676311777246197e-11 0.0000000000000000e+00  3.0000000000465215e+00 8.2384030256969180e-11 0.0000000000000000e+00  2.9999999999243947e+00 -1.3389983151111406e-10 0.0000000000000000e+00  3.0000000001228155e+00 2.1752367401833319e-10 0.0000000000000000e+00  2.9999999998006710e+00 -3.5304317086040945e-10 0.0000000000000000e+00  3.0000000003231326e+00 5.7231558323948402e-10 0.0000000000000000e+00  2.9999999994767248e+00 -9.2667905133609279e-10 0.0000000000000000e+00  3.0000000008467516e+00 1.4994342013195114e-09 0.0000000000000000e+00  2.9999999986300283e+00 -2.4257885908490334e-09 0.0000000000000000e+00  3.0000000022160247e+00 3.9245398644224500e-09 0.0000000000000000e+00  2.9999999964176602e+00 -6.3450771977586149e-09 0.0000000000000000e+00  3.0000000057807941e+00 1.0240532146175234e-08 0.0000000000000000e+00  2.9999999906930932e+00 -1.6484398241683284e-08 0.0000000000000000e+00  3.0000000149518118e+00 2.6474747336898907e-08 0.0000000000000000e+00  2.9999999759969818e+00 -4.2488543847990744e-08 0.0000000000000000e+00  3.0000000385589609e+00 6.8253524031436983e-08 0.0000000000000000e+00  2.9999999380108591e+00 -1.0977586381862335e-07 0.0000000000000000e+00  3.0000000995502569e+00 1.7639133620021594e-07 0.0000000000000000e+00  2.9999998407863000e+00 -2.8218376438217846e-07 0.0000000000000000e+00  3.0000002531428938e+00 4.4844626413537251e-07 0.0000000000000000e+00  2.9999995993406481e+00 -7.0901315351980747e-07 0.0000000000000000e+00  3.0000006340663412e+00 1.1210604532168143e-06 0.0000000000000000e+00  2.9999989922545276e+00 -1.7821415134439374e-06 0.0000000000000000e+00  3.0000016081420569e+00 2.8484267364874540e-06 0.0000000000000000e+00  2.9999974403275251e+00 -4.5426511494465857e-06 0.0000000000000000e+00  3.0000040256160165e+00 7.1482802235248273e-06 0.0000000000000000e+00  2.9999937759690347e+00 -1.1029859189494046e-05 0.0000000000000000e+00  3.0000095121633845e+00 1.6790256947100590e-05 0.0000000000000000e+00  2.9999854042341734e+00 -2.5691659777022142e-05 0.0000000000000000e+00  3.0000228159646358e+00 4.0241778584087396e-05 0.0000000000000000e+00  2.9999637924899059e+00 -6.4327734721738076e-05 0.0000000000000000e+00  3.0000568624024910e+00 1.0177352717078543e-04 0.0000000000000000e+00  2.9999145192544359e+00 -1.5331494719443716e-04 0.0000000000000000e+00  3.0001209251846563e+00 2.1480354893364941e-04 0.0000000000000000e+00  2.9998363071346339e+00 -2.8612257890257522e-04 0.0000000000000000e+00  3.0002248149355455e+00 3.9498101538485439e-04 0.0000000000000000e+00  2.9996491609316318e+00 -5.9566800401777975e-04 0.0000000000000000e+00  3.0004455815130244e+00 1.1763468664386591e-03 0.0000000000000000e+00  2.9986633586434066e+00 -6.1615264817897373e-04 0.0000000000000000e+00  2.9972554126679429e+00 7.9451326207844002e-03 0.0000000000000000e+00  2.9815023611217462e+00 3.1653747292858657e-02 0.0000000000000000e+00  2.9284140824325453e+00 1.2654572314445281e-01 0.0000000000000000e+00  2.8084018886228796e+00 3.2774920547337666e-01 0.0000000000000000e+00  2.5887756549393957e+00 5.4003560630027070e-01 0.0000000000000000e+00  2.2873388690484666e+00 6.7262531886048726e-01 0.0000000000000000e+00  1.9510615379415766e+00 6.8684442590410100e-01 0.0000000000000000e+00  1.6339778103975724e+00 5.8998008499892607e-01 0.0000000000000000e+00  1.3787462730571369e+00 4.2829541678515931e-01 0.0000000000000000e+00  1.2030685609539191e+00 2.6609501595890456e-01 0.0000000000000000e+00  1.0984646816346400e+00 1.4488846813800932e-01 0.0000000000000000e+00  1.0435116644126545e+00 7.0547369350479797e-02 0.0000000000000000e+00  1.0175834338122158e+00 3.1045641752664981e-02 0.0000000000000000e+00  1.0064998747326972e+00 1.2390884047198441e-02 0.0000000000000000e+00  1.0021968561626819e+00 4.4856360688834461e-03 0.0000000000000000e+00  1.0006782954910420e+00 1.4730644049064329e-03 0.0000000000000000e+00  1.0001912201081729e+00 4.3894680937138378e-04 0.0000000000000000e+00  1.0000492449978720e+00 1.1868316568421167e-04 0.0000000000000000e+00  1.0000115808212535e+00 2.9170075838015603e-05 0.0000000000000000e+00  1.0000024884137593e+00 6.5226919546018216e-06 0.0000000000000000e+00  1.0000004900754167e+00 1.3257358175275771e-06 0.0000000000000000e+00  1.0000000879754314e+00 2.4697949722435100e-07 0.0000000000000000e+00  1.0000000145153010e+00 4.1878952284384978e-08 0.0000000000000000e+00  1.0000000022434783e+00 6.3965014575354516e-09 0.0000000000000000e+00  1.0000000002898746e+00 9.7854244486106473e-10 0.0000000000000000e+00  1.0000000000422389e+00 1.1235216771583009e-10 0.0000000000000000e+00  1.0000000000063214e+00 1.1277569570209497e-11 0.0000000000000000e+00  9.9999999999916866e-01 5.3680250536843469e-12 0.0000000000000000e+00  1.0000000000005285e+00 -1.2358537288222061e-12 0.0000000000000000e+00  9.9999999999998146e-01 1.5739277758781848e-13 0.0000000000000000e+00  9.9999999999993150e-01 1.7172410930532659e-13 0.0000000000000000e+00  1.0000000000000433e+00 -1.1809122258621041e-13 0.0000000000000000e+00  9.9999999999998879e-01 3.5813534193435057e-14 0.0000000000000000e+00  9.9999999999999922e-01 2.0677031651248890e-16 0.0000000000000000e+00  1.0000000000000038e+00 -5.7958757183960310e-15 0.0000000000000000e+00  9.9999999999999889e-01 3.4210058739198206e-15 0.0000000000000000e+00  1.0000000000000002e+00 -1.2495198481422038e-15 0.0000000000000000e+00  1.0000000000000013e+00 -1.4466450358207895e-16 0.0000000000000000e+00  9.9999999999999989e-01 2.0035185199182574e-16 0.0000000000000000e+00  1.0000000000000009e+00 -1.5151078015869616e-16 0.0000000000000000e+00  1.0000000000000004e+00 -3.0664410021771298e-16 0.0000000000000000e+00  1.0000000000000007e+00 7.4990979260085688e-16 0.0000000000000000e+00  1.0000000000000004e+00 6.4765630211860935e-17 0.0000000000000000e+00  1.0000000000000000e+00 -2.3939054900206081e-16 0.0000000000000000e+00  1.0000000000000009e+00 -4.4322592569684521e-16 0.0000000000000000e+00  1.0000000000000007e+00 -6.4570913650066807e-17 0.0000000000000000e+00  1.0000000000000004e+00 6.7023932946278084e-16 0.0000000000000000e+00  1.0000000000000007e+00 4.6485410145776305e-17 0.0000000000000000e+00  1.0000000000000002e+00 -4.4591030540554780e-16 0.0000000000000000e+00  1.0000000000000009e+00 -1.7733281623562365e-16 0.0000000000000000e+00  1.0000000000000007e+00 6.2139061920654370e-16 0.0000000000000000e+00  1.0000000000000000e+00 9.3166820638430701e-17 0.0000000000000000e+00  1.0000000000000004e+00 -2.5355660090263683e-16 0.0000000000000000e+00  1.0000000000000007e+00 -6.2441036842745662e-16 0.0000000000000000e+00  1.0000000000000004e+00 2.6720457925732912e-16 0.0000000000000000e+00  1.0000000000000009e+00 4.1692366536629017e-16 0.0000000000000000e+00  1.0000000000000002e+00 -1.0123204334257353e-15 0.0000000000000000e+00  1.0000000000000011e+00 1.4328551039518917e-15 0.0000000000000000e+00  1.0000000000000002e+00 -1.0088426231426642e-15 0.0000000000000000e+00  1.0000000000000004e+00 6.2618336719075059e-16 0.0000000000000000e+00  1.0000000000000009e+00 -6.1957378742966017e-16 0.0000000000000000e+00  1.0000000000000004e+00 -3.6589644335617873e-16 0.0000000000000000e+00  1.0000000000000009e+00 1.5664929944685142e-15 0.0000000000000000e+00  9.9999999999999967e-01 4.1312182410639707e-16 0.0000000000000000e+00  1.0000000000000002e+00 -5.4748133034500125e-16 0.0000000000000000e+00  1.0000000000000002e+00 1.4934402548375834e-16 0.0000000000000000e+00  1.0000000000000000e+00 -7.6267936952048431e-16 0.0000000000000000e+00  1.0000000000000009e+00 8.1055580332219574e-17 0.0000000000000000e+00  1.0000000000000004e+00 -5.2419805534889935e-16 0.0000000000000000e+00  1.0000000000000004e+00 9.7348110722912093e-16 0.0000000000000000e+00  1.0000000000000002e+00 -1.2455938765249045e-16 0.0000000000000000e+00  1.0000000000000000e+00 1.1639297749415578e-16 0.0000000000000000e+00  1.0000000000000004e+00 -1.6204543749631451e-16 0.0000000000000000e+00  1.0000000000000002e+00 -4.0675634699022817e-16 0.0000000000000000e+00  1.0000000000000004e+00 1.3050125209304226e-15 0.0000000000000000e+00  1.0000000000000000e+00 -7.4905029028640183e-16 0.0000000000000000e+00  1.0000000000000000e+00 2.9375274315528959e-16 0.0000000000000000e+00  1.0000000000000007e+00 -9.7840831368896994e-16 0.0000000000000000e+00  1.0000000000000002e+00 -6.9549921418405849e-16 0.0000000000000000e+00  1.0000000000000018e+00 2.1364827659239556e-16 0.0000000000000000e+00  1.0000000000000002e+00 1.0108476577921553e-15 0.0000000000000000e+00  1.0000000000000002e+00 -2.4751778778217099e-16 0.0000000000000000e+00  1.0000000000000007e+00 4.4308617938825589e-16 0.0000000000000000e+00  1.0000000000000000e+00 1.9310420330707837e-16 0.0000000000000000e+00  9.9999999999999989e-01 2.7669742039197473e-17 0.0000000000000000e+00  1.0000000000000004e+00 -4.7742544623279207e-16 0.0000000000000000e+00  1.0000000000000000e+00 1.4445687384980947e-16 0.0000000000000000e+00  1.0000000000000007e+00 -3.2605331642432474e-16 0.0000000000000000e+00  1.0000000000000002e+00 2.2951446739426689e-16 0.0000000000000000e+00  1.0000000000000004e+00 4.2944791209621483e-16 0.0000000000000000e+00  1.0000000000000000e+00 5.4470887362999280e-16 0.0000000000000000e+00  9.9999999999999944e-01 5.5531483229167163e-17 0.0000000000000000e+00  1.0000000000000004e+00 -1.4003993466939675e-15 0.0000000000000000e+00  1.0000000000000002e+00 9.4923174958998789e-16 0.0000000000000000e+00  1.0000000000000000e+00 -3.6297348180646103e-16 0.0000000000000000e+00  1.0000000000000004e+00 1.4292395637869673e-16 0.0000000000000000e+00  1.0000000000000000e+00 -1.6314392780333546e-16 0.0000000000000000e+00  1.0000000000000002e+00 1.6412014027395021e-16 0.0000000000000000e+00  1.0000000000000004e+00 -3.4758487703617950e-16 0.0000000000000000e+00  9.9999999999999989e-01 5.1192608983284958e-16 0.0000000000000000e+00  1.0000000000000004e+00 -3.7440269047958482e-16 0.0000000000000000e+00  9.9999999999999989e-01 -2.6524542956234461e-16 0.0000000000000000e+00  1.0000000000000009e+00 0.0000000000000000e+00 0.0000000000000000e+00  3.0000000000000013e+00 0.0000000000000000e+00 1.8918383406338772e-15  3.0000000000000004e+00 2.0706716854611991e-16 5.6434337073448758e-16  3.0000000000000013e+00 -4.1384887594423763e-16 3.4399157017794691e-16  3.0000000000000004e+00 -9.9316565325879790e-17 3.1044720647521250e-16  3.0000000000000009e+00 6.4047995626890122e-16 -1.6382791453138216e-16  3.0000000000000009e+00 4.9746375143032376e-16 -3.5453859299894498e-17  3.0000000000000004e+00 1.6882693121563831e-16 9.7677136193363573e-17  3.0000000000000009e+00 5.1173291820334789e-16 1.4182967466293397e-16  3.0000000000000000e+00 2.2554403780161729e-16 1.0428546065065471e-17  3.0000000000000009e+00 -1.6163280553358093e-15 4.8577688911818687e-16  3.0000000000000013e+00 -1.5027076165483625e-15 -3.3251362318564856e-16  3.0000000000000004e+00 1.3973097784258895e-15 -2.0205741669779368e-16  3.0000000000000013e+00 8.1251701681581954e-16 -3.9244851485856024e-17  2.9999999999999996e+00 8.4412744330150145e-16 7.4352636264349255e-16  3.0000000000000004e+00 -1.1574270103421466e-16 2.1050588989260048e-16  3.0000000000000004e+00 -1.0438329169800794e-15 1.2180176540251900e-15  3.0000000000000004e+00 -8.0439434243790683e-16 5.0470945229667038e-16  3.0000000000000013e+00 4.0958736055457725e-16 -2.0785569464697311e-16  3.0000000000000000e+00 7.9369674931841861e-16 -5.4726950871586353e-16  3.0000000000000009e+00 -1.5527841853981518e-16 -1.1526296817826040e-15  3.0000000000000013e+00 -5.7129179922994557e-16 3.3045954925547986e-16  3.0000000000000009e+00 -2.5100805043621120e-16 -9.4699910111359704e-16  3.0000000000000004e+00 1.2822579999328707e-15 -3.6957242857287160e-16  3.0000000000000009e+00 -1.5143416531461670e-15 3.4853255859050253e-16  3.0000000000000009e+00 1.3921898752137924e-15 -1.0006091838636656e-15  3.0000000000000009e+00 -1.2524828205582111e-15 1.1347996997939575e-15  3.0000000000000009e+00 -9.7088843441784468e-16 -6.8248870192220288e-17  3.0000000000000013e+00 1.7462434300902283e-15 -5.9437851835047743e-16  3.0000000000000009e+00 -3.1403345275461952e-16 5.7999166632618501e-16  3.0000000000000000e+00 1.3454553916258688e-15 -1.5603842990140613e-15  3.0000000000000009e+00 -1.6136483034695722e-15 3.5832846072426821e-16  3.0000000000000009e+00 -1.4447653795172356e-16 4.2066148355171586e-16  3.0000000000000009e+00 7.0651482002614318e-16 -4.6306889765258636e-16  3.0000000000000004e+00 -1.2556396981171092e-16 -4.5520877795129074e-16  3.0000000000000009e+00 -8.3022745372134468e-16 -1.1621272540653320e-16  3.0000000000000022e+00 2.0248201063964567e-16 -4.6890883337588989e-16  3.0000000000000004e+00 -1.1301457427307320e-15 5.1658368179425686e-16  3.0000000000000018e+00 -2.2628689646193176e-16 -2.4304591946131337e-15  3.0000000000000027e+00 -7.0588500573927708e-16 3.2872296396935722e-16  3.0000000000000013e+00 1.0835870202493882e-15 -1.2726647730041478e-15  3.0000000000000018e+00 1.5100720687504628e-15 8.7347868971682436e-16  3.0000000000000004e+00 -1.7856681747961572e-15 -2.0437762322452533e-15  3.0000000000000018e+00 3.9889879207599718e-15 3.0140920120448088e-15  2.9999999999999996e+00 -5.4511209336585428e-15 -4.7394660334996390e-15  3.0000000000000040e+00 8.3329929210531751e-15 8.1325539601097417e-15  2.9999999999999960e+00 -1.3004106270749481e-14 -1.3411972530866264e-14  3.0000000000000089e+00 2.0428118613847168e-14 2.2033495704742326e-14  2.9999999999999871e+00 -3.3696515083570549e-14 -3.7422132520251736e-14  3.0000000000000235e+00 5.6404121606450958e-14 6.0177347787650433e-14  2.9999999999999640e+00 -9.3557101320813933e-14 -9.9044931793193054e-14  3.0000000000000617e+00 1.5272246164710892e-13 1.5988382995951218e-13  2.9999999999999023e+00 -2.5138077970846293e-13 -2.6088888589044474e-13  3.0000000000001621e+00 4.1170582294107100e-13 4.2602250180889952e-13  2.9999999999997389e+00 -6.6877280095708663e-13 -6.9638487308250910e-13  3.0000000000004268e+00 1.0901454161428743e-12 1.1364790628107373e-12  2.9999999999993068e+00 -1.7762254412369803e-12 -1.8539000552006760e-12  3.0000000000011320e+00 2.8917593767350576e-12 3.0224753272477256e-12  2.9999999999981584e+00 -4.7115381446956414e-12 -4.9267324430387058e-12  3.0000000000029994e+00 7.6712450569016921e-12 8.0207319691303169e-12  2.9999999999951292e+00 -1.2473521743118574e-11 -1.3058635062246513e-11  3.0000000000079039e+00 2.0257529066438434e-11 2.1251347969800273e-11  2.9999999999871898e+00 -3.2869466130394032e-11 -3.4564500436893375e-11  3.0000000000207745e+00 5.3344186791472240e-11 5.6177897301004712e-11  2.9999999999662799e+00 -8.6620716879709897e-11 -9.1213857628423572e-11  3.0000000000547522e+00 1.4064205543217927e-10 1.4799567531901763e-10  2.9999999999112799e+00 -2.2805897191981245e-10 -2.3999069333050107e-10  3.0000000001432956e+00 3.6877405572263313e-10 3.8908932801257694e-10  2.9999999997694253e+00 -5.9472998321994548e-10 -6.3050536293257534e-10  3.0000000003708394e+00 9.5807627273977955e-10 1.0209087895759170e-09  2.9999999994023061e+00 -1.5459101499202473e-09 -1.6503544160707267e-09  3.0000000009675460e+00 2.5008567116826396e-09 2.6636980994066113e-09  2.9999999984328056e+00 -4.0490030814476993e-09 -4.2932973371256969e-09  3.0000000025268259e+00 6.5319000362516136e-09 6.9183792795515324e-09  2.9999999959663715e+00 -1.0460564490125747e-08 -1.1150852463931048e-08  3.0000000063844134e+00 1.6639390935767519e-08 1.7970040660979422e-08  2.9999999898961027e+00 -2.6441158987468431e-08 -2.8909091098484885e-08  3.0000000161561755e+00 4.2309839391431949e-08 4.6342924377552207e-08  2.9999999738073360e+00 -6.8358989748879600e-08 -7.4009057056061742e-08  3.0000000425818882e+00 1.1073467463536458e-07 1.1793766045416670e-07  2.9999999318650703e+00 -1.7739169862095485e-07 -1.8811697369401967e-07  3.0000001058556585e+00 2.7805705856574576e-07 3.008475473066