<?xml version="1.0"?>
<VTKFile type="UnstructuredGrid"  version="0.1"  >
<UnstructuredGrid>
<Piece  NumberOfPoints="8241" NumberOfCells="16000">
<Points>
<DataArray  type="Float64"  NumberOfComponents="3"  format="ascii">-5 -1 0  -4.95 -1 0  -4.9 -1 0  -4.85 -1 0  -4.8 -1 0  -4.75 -1 0  -4.7 -1 0  -4.65 -1 0  -4.6 -1 0  -4.55 -1 0  -4.5 -1 0  -4.45 -1 0  -4.4 -1 0  -4.35 -1 0  -4.3 -1 0  -4.25 -1 0  -4.2 -1 0  -4.15 -1 0  -4.1 -1 0  -4.05 -1 0  -4 -1 0  -3.95 -1 0  -3.9 -1 0  -3.85 -1 0  -3.8 -1 0  -3.75 -1 0  -3.7 -1 0  -3.65 -1 0  -3.6 -1 0  -3.55 -1 0  -3.5 -1 0  -3.45 -1 0  -3.4 -1 0  -3.35 -1 0  -3.3 -1 0  -3.25 -1 0  -3.2 -1 0  -3.15 -1 0  -3.1 -1 0  -3.05 -1 0  -3 -1 0  -2.95 -1 0  -2.9 -1 0  -2.85 -1 0  -2.8 -1 0  -2.75 -1 0  -2.7 -1 0  -2.65 -1 0  -2.6 -1 0  -2.55 -1 0  -2.5 -1 0  -2.45 -1 0  -2.4 -1 0  -2.35 -1 0  -2.3 -1 0  -2.25 -1 0  -2.2 -1 0  -2.15 -1 0  -2.1 -1 0  -2.05 -1 0  -2 -1 0  -1.95 -1 0  -1.9 -1 0  -1.85 -1 0  -1.8 -1 0  -1.75 -1 0  -1.7 -1 0  -1.65 -1 0  -1.6 -1 0  -1.55 -1 0  -1.5 -1 0  -1.45 -1 0  -1.4 -1 0  -1.35 -1 0  -1.3 -1 0  -1.25 -1 0  -1.2 -1 0  -1.15 -1 0  -1.1 -1 0  -1.05 -1 0  -1 -1 0  -0.9500000000000002 -1 0  -0.9000000000000004 -1 0  -0.8499999999999996 -1 0  -0.7999999999999998 -1 0  -0.75 -1 0  -0.7000000000000002 -1 0  -0.6500000000000004 -1 0  -0.5999999999999996 -1 0  -0.5499999999999998 -1 0  -0.5 -1 0  -0.4500000000000002 -1 0  -0.4000000000000004 -1 0  -0.3499999999999996 -1 0  -0.2999999999999998 -1 0  -0.25 -1 0  -0.2000000000000002 -1 0  -0.1500000000000004 -1 0  -0.09999999999999964 -1 0  -0.04999999999999982 -1 0  0 -1 0  0.04999999999999982 -1 0  0.09999999999999964 -1 0  0.1500000000000004 -1 0  0.2000000000000002 -1 0  0.25 -1 0  0.2999999999999998 -1 0  0.3499999999999996 -1 0  0.4000000000000004 -1 0  0.4500000000000002 -1 0  0.5 -1 0  0.5499999999999998 -1 0  0.5999999999999996 -1 0  0.6500000000000004 -1 0  0.7000000000000002 -1 0  0.75 -1 0  0.7999999999999998 -1 0  0.8499999999999996 -1 0  0.9000000000000004 -1 0  0.9500000000000002 -1 0  1 -1 0  1.05 -1 0  1.1 -1 0  1.15 -1 0  1.2 -1 0  1.25 -1 0  1.3 -1 0  1.35 -1 0  1.4 -1 0  1.45 -1 0  1.5 -1 0  1.55 -1 0  1.6 -1 0  1.65 -1 0  1.7 -1 0  1.75 -1 0  1.8 -1 0  1.85 -1 0  1.9 -1 0  1.95 -1 0  2 -1 0  2.05 -1 0  2.1 -1 0  2.15 -1 0  2.2 -1 0  2.25 -1 0  2.3 -1 0  2.35 -1 0  2.4 -1 0  2.45 -1 0  2.5 -1 0  2.55 -1 0  2.6 -1 0  2.65 -1 0  2.7 -1 0  2.75 -1 0  2.8 -1 0  2.85 -1 0  2.9 -1 0  2.95 -1 0  3 -1 0  3.050000000000001 -1 0  3.1 -1 0  3.15 -1 0  3.199999999999999 -1 0  3.25 -1 0  3.300000000000001 -1 0  3.35 -1 0  3.4 -1 0  3.449999999999999 -1 0  3.5 -1 0  3.550000000000001 -1 0  3.6 -1 0  3.65 -1 0  3.699999999999999 -1 0  3.75 -1 0  3.800000000000001 -1 0  3.85 -1 0  3.9 -1 0  3.949999999999999 -1 0  4 -1 0  4.050000000000001 -1 0  4.1 -1 0  4.15 -1 0  4.199999999999999 -1 0  4.25 -1 0  4.300000000000001 -1 0  4.35 -1 0  4.4 -1 0  4.449999999999999 -1 0  4.5 -1 0  4.550000000000001 -1 0  4.6 -1 0  4.65 -1 0  4.699999999999999 -1 0  4.75 -1 0  4.800000000000001 -1 0  4.85 -1 0  4.9 -1 0  4.949999999999999 -1 0  5 -1 0  -5 -0.95 0  -4.95 -0.95 0  -4.9 -0.95 0  -4.85 -0.95 0  -4.8 -0.95 0  -4.75 -0.95 0  -4.7 -0.95 0  -4.65 -0.95 0  -4.6 -0.95 0  -4.55 -0.95 0  -4.5 -0.95 0  -4.45 -0.95 0  -4.4 -0.95 0  -4.35 -0.95 0  -4.3 -0.95 0  -4.25 -0.95 0  -4.2 -0.95 0  -4.15 -0.95 0  -4.1 -0.95 0  -4.05 -0.95 0  -4 -0.95 0  -3.95 -0.95 0  -3.9 -0.95 0  -3.85 -0.95 0  -3.8 -0.95 0  -3.75 -0.95 0  -3.7 -0.95 0  -3.65 -0.95 0  -3.6 -0.95 0  -3.55 -0.95 0  -3.5 -0.95 0  -3.45 -0.95 0  -3.4 -0.95 0  -3.35 -0.95 0  -3.3 -0.95 0  -3.25 -0.95 0  -3.2 -0.95 0  -3.15 -0.95 0  -3.1 -0.95 0  -3.05 -0.95 0  -3 -0.95 0  -2.95 -0.95 0  -2.9 -0.95 0  -2.85 -0.95 0  -2.8 -0.95 0  -2.75 -0.95 0  -2.7 -0.95 0  -2.65 -0.95 0  -2.6 -0.95 0  -2.55 -0.95 0  -2.5 -0.95 0  -2.45 -0.95 0  -2.4 -0.95 0  -2.35 -0.95 0  -2.3 -0.95 0  -2.25 -0.95 0  -2.2 -0.95 0  -2.15 -0.95 0  -2.1 -0.95 0  -2.05 -0.95 0  -2 -0.95 0  -1.95 -0.95 0  -1.9 -0.95 0  -1.85 -0.95 0  -1.8 -0.95 0  -1.75 -0.95 0  -1.7 -0.95 0  -1.65 -0.95 0  -1.6 -0.95 0  -1.55 -0.95 0  -1.5 -0.95 0  -1.45 -0.95 0  -1.4 -0.95 0  -1.35 -0.95 0  -1.3 -0.95 0  -1.25 -0.95 0  -1.2 -0.95 0  -1.15 -0.95 0  -1.1 -0.95 0  -1.05 -0.95 0  -1 -0.95 0  -0.9500000000000002 -0.95 0  -0.9000000000000004 -0.95 0  -0.8499999999999996 -0.95 0  -0.7999999999999998 -0.95 0  -0.75 -0.95 0  -0.7000000000000002 -0.95 0  -0.6500000000000004 -0.95 0  -0.5999999999999996 -0.95 0  -0.5499999999999998 -0.95 0  -0.5 -0.95 0  -0.4500000000000002 -0.95 0  -0.4000000000000004 -0.95 0  -0.3499999999999996 -0.95 0  -0.2999999999999998 -0.95 0  -0.25 -0.95 0  -0.2000000000000002 -0.95 0  -0.1500000000000004 -0.95 0  -0.09999999999999964 -0.95 0  -0.04999999999999982 -0.95 0  0 -0.95 0  0.04999999999999982 -0.95 0  0.09999999999999964 -0.95 0  0.1500000000000004 -0.95 0  0.2000000000000002 -0.95 0  0.25 -0.95 0  0.2999999999999998 -0.95 0  0.3499999999999996 -0.95 0  0.4000000000000004 -0.95 0  0.4500000000000002 -0.95 0  0.5 -0.95 0  0.5499999999999998 -0.95 0  0.5999999999999996 -0.95 0  0.6500000000000004 -0.95 0  0.7000000000000002 -0.95 0  0.75 -0.95 0  0.7999999999999998 -0.95 0  0.8499999999999996 -0.95 0  0.9000000000000004 -0.95 0  0.9500000000000002 -0.95 0  1 -0.95 0  1.05 -0.95 0  1.1 -0.95 0  1.15 -0.95 0  1.2 -0.95 0  1.25 -0.95 0  1.3 -0.95 0  1.35 -0.95 0  1.4 -0.95 0  1.45 -0.95 0  1.5 -0.95 0  1.55 -0.95 0  1.6 -0.95 0  1.65 -0.95 0  1.7 -0.95 0  1.75 -0.95 0  1.8 -0.95 0  1.85 -0.95 0  1.9 -0.95 0  1.95 -0.95 0  2 -0.95 0  2.05 -0.95 0  2.1 -0.95 0  2.15 -0.95 0  2.2 -0.95 0  2.25 -0.95 0  2.3 -0.95 0  2.35 -0.95 0  2.4 -0.95 0  2.45 -0.95 0  2.5 -0.95 0  2.55 -0.95 0  2.6 -0.95 0  2.65 -0.95 0  2.7 -0.95 0  2.75 -0.95 0  2.8 -0.95 0  2.85 -0.95 0  2.9 -0.95 0  2.95 -0.95 0  3 -0.95 0  3.050000000000001 -0.95 0  3.1 -0.95 0  3.15 -0.95 0  3.199999999999999 -0.95 0  3.25 -0.95 0  3.300000000000001 -0.95 0  3.35 -0.95 0  3.4 -0.95 0  3.449999999999999 -0.95 0  3.5 -0.95 0  3.550000000000001 -0.95 0  3.6 -0.95 0  3.65 -0.95 0  3.699999999999999 -0.95 0  3.75 -0.95 0  3.800000000000001 -0.95 0  3.85 -0.95 0  3.9 -0.95 0  3.949999999999999 -0.95 0  4 -0.95 0  4.050000000000001 -0.95 0  4.1 -0.95 0  4.15 -0.95 0  4.199999999999999 -0.95 0  4.25 -0.95 0  4.300000000000001 -0.95 0  4.35 -0.95 0  4.4 -0.95 0  4.449999999999999 -0.95 0  4.5 -0.95 0  4.550000000000001 -0.95 0  4.6 -0.95 0  4.65 -0.95 0  4.699999999999999 -0.95 0  4.75 -0.95 0  4.800000000000001 -0.95 0  4.85 -0.95 0  4.9 -0.95 0  4.949999999999999 -0.95 0  5 -0.95 0  -5 -0.9 0  -4.95 -0.9 0  -4.9 -0.9 0  -4.85 -0.9 0  -4.8 -0.9 0  -4.75 -0.9 0  -4.7 -0.9 0  -4.65 -0.9 0  -4.6 -0.9 0  -4.55 -0.9 0  -4.5 -0.9 0  -4.45 -0.9 0  -4.4 -0.9 0  -4.35 -0.9 0  -4.3 -0.9 0  -4.25 -0.9 0  -4.2 -0.9 0  -4.15 -0.9 0  -4.1 -0.9 0  -4.05 -0.9 0  -4 -0.9 0  -3.95 -0.9 0  -3.9 -0.9 0  -3.85 -0.9 0  -3.8 -0.9 0  -3.75 -0.9 0  -3.7 -0.9 0  -3.65 -0.9 0  -3.6 -0.9 0  -3.55 -0.9 0  -3.5 -0.9 0  -3.45 -0.9 0  -3.4 -0.9 0  -3.35 -0.9 0  -3.3 -0.9 0  -3.25 -0.9 0  -3.2 -0.9 0  -3.15 -0.9 0  -3.1 -0.9 0  -3.05 -0.9 0  -3 -0.9 0  -2.95 -0.9 0  -2.9 -0.9 0  -2.85 -0.9 0  -2.8 -0.9 0  -2.75 -0.9 0  -2.7 -0.9 0  -2.65 -0.9 0  -2.6 -0.9 0  -2.55 -0.9 0  -2.5 -0.9 0  -2.45 -0.9 0  -2.4 -0.9 0  -2.35 -0.9 0  -2.3 -0.9 0  -2.25 -0.9 0  -2.2 -0.9 0  -2.15 -0.9 0  -2.1 -0.9 0  -2.05 -0.9 0  -2 -0.9 0  -1.95 -0.9 0  -1.9 -0.9 0  -1.85 -0.9 0  -1.8 -0.9 0  -1.75 -0.9 0  -1.7 -0.9 0  -1.65 -0.9 0  -1.6 -0.9 0  -1.55 -0.9 0  -1.5 -0.9 0  -1.45 -0.9 0  -1.4 -0.9 0  -1.35 -0.9 0  -1.3 -0.9 0  -1.25 -0.9 0  -1.2 -0.9 0  -1.15 -0.9 0  -1.1 -0.9 0  -1.05 -0.9 0  -1 -0.9 0  -0.9500000000000002 -0.9 0  -0.9000000000000004 -0.9 0  -0.8499999999999996 -0.9 0  -0.7999999999999998 -0.9 0  -0.75 -0.9 0  -0.7000000000000002 -0.9 0  -0.6500000000000004 -0.9 0  -0.5999999999999996 -0.9 0  -0.5499999999999998 -0.9 0  -0.5 -0.9 0  -0.4500000000000002 -0.9 0  -0.4000000000000004 -0.9 0  -0.3499999999999996 -0.9 0  -0.2999999999999998 -0.9 0  -0.25 -0.9 0  -0.2000000000000002 -0.9 0  -0.1500000000000004 -0.9 0  -0.09999999999999964 -0.9 0  -0.04999999999999982 -0.9 0  0 -0.9 0  0.04999999999999982 -0.9 0  0.09999999999999964 -0.9 0  0.1500000000000004 -0.9 0  0.2000000000000002 -0.9 0  0.25 -0.9 0  0.2999999999999998 -0.9 0  0.3499999999999996 -0.9 0  0.4000000000000004 -0.9 0  0.4500000000000002 -0.9 0  0.5 -0.9 0  0.5499999999999998 -0.9 0  0.5999999999999996 -0.9 0  0.6500000000000004 -0.9 0  0.7000000000000002 -0.9 0  0.75 -0.9 0  0.7999999999999998 -0.9 0  0.8499999999999996 -0.9 0  0.9000000000000004 -0.9 0  0.9500000000000002 -0.9 0  1 -0.9 0  1.05 -0.9 0  1.1 -0.9 0  1.15 -0.9 0  1.2 -0.9 0  1.25 -0.9 0  1.3 -0.9 0  1.35 -0.9 0  1.4 -0.9 0  1.45 -0.9 0  1.5 -0.9 0  1.55 -0.9 0  1.6 -0.9 0  1.65 -0.9 0  1.7 -0.9 0  1.75 -0.9 0  1.8 -0.9 0  1.85 -0.9 0  1.9 -0.9 0  1.95 -0.9 0  2 -0.9 0  2.05 -0.9 0  2.1 -0.9 0  2.15 -0.9 0  2.2 -0.9 0  2.25 -0.9 0  2.3 -0.9 0  2.35 -0.9 0  2.4 -0.9 0  2.45 -0.9 0  2.5 -0.9 0  2.55 -0.9 0  2.6 -0.9 0  2.65 -0.9 0  2.7 -0.9 0  2.75 -0.9 0  2.8 -0.9 0  2.85 -0.9 0  2.9 -0.9 0  2.95 -0.9 0  3 -0.9 0  3.050000000000001 -0.9 0  3.1 -0.9 0  3.15 -0.9 0  3.199999999999999 -0.9 0  3.25 -0.9 0  3.300000000000001 -0.9 0  3.35 -0.9 0  3.4 -0.9 0  3.449999999999999 -0.9 0  3.5 -0.9 0  3.550000000000001 -0.9 0  3.6 -0.9 0  3.65 -0.9 0  3.699999999999999 -0.9 0  3.75 -0.9 0  3.800000000000001 -0.9 0  3.85 -0.9 0  3.9 -0.9 0  3.949999999999999 -0.9 0  4 -0.9 0  4.050000000000001 -0.9 0  4.1 -0.9 0  4.15 -0.9 0  4.199999999999999 -0.9 0  4.25 -0.9 0  4.300000000000001 -0.9 0  4.35 -0.9 0  4.4 -0.9 0  4.449999999999999 -0.9 0  4.5 -0.9 0  4.550000000000001 -0.9 0  4.6 -0.9 0  4.65 -0.9 0  4.699999999999999 -0.9 0  4.75 -0.9 0  4.800000000000001 -0.9 0  4.85 -0.9 0  4.9 -0.9 0  4.949999999999999 -0.9 0  5 -0.9 0  -5 -0.85 0  -4.95 -0.85 0  -4.9 -0.85 0  -4.85 -0.85 0  -4.8 -0.85 0  -4.75 -0.85 0  -4.7 -0.85 0  -4.65 -0.85 0  -4.6 -0.85 0  -4.55 -0.85 0  -4.5 -0.85 0  -
[...]
<PointData  Vectors="f_15"> 
<DataArray  type="Float64"  Name="f_15"  NumberOfComponents="3" format="ascii">2.8677104021546125e+00 0.0000000000000000e+00 0.0000000000000000e+00  2.8687706034486773e+00 3.3981512321666532e-02 0.0000000000000000e+00  2.8643863788359156e+00 5.8765317966941559e-02 0.0000000000000000e+00  2.8632166592683186e+00 9.4749302172270844e-02 0.0000000000000000e+00  2.8556872199446901e+00 1.2509126022541453e-01 0.0000000000000000e+00  2.8516051713304971e+00 1.5530324608042423e-01 0.0000000000000000e+00  2.8425305614929588e+00 1.8981188698490706e-01 0.0000000000000000e+00  2.8349003254245981e+00 2.1679046861239318e-01 0.0000000000000000e+00  2.8242052798221118e+00 2.5327989046565907e-01 0.0000000000000000e+00  2.8146074167470774e+00 2.7796965365852161e-01 0.0000000000000000e+00  2.8015607782823970e+00 3.1674770017262271e-01 0.0000000000000000e+00  2.7902666926905106e+00 3.3891602570149898e-01 0.0000000000000000e+00  2.7762747270410322e+00 3.7969558707128381e-01 0.0000000000000000e+00  2.7627118748092672e+00 4.0041507049777669e-01 0.0000000000000000e+00  2.7479288104212864e+00 4.4313809547027849e-01 0.0000000000000000e+00  2.7336201173120300e+00 4.6141179119085851e-01 0.0000000000000000e+00  2.7172347863963711e+00 5.0832358664861421e-01 0.0000000000000000e+00  2.7024387379917245e+00 5.2268776992751087e-01 0.0000000000000000e+00  2.6857832508033455e+00 5.7413838723283395e-01 0.0000000000000000e+00  2.6696823832991670e+00 5.8508925079984775e-01 0.0000000000000000e+00  2.6528373760434447e+00 6.4168964790218652e-01 0.0000000000000000e+00  2.6368095939506868e+00 6.4673249238658359e-01 0.0000000000000000e+00  2.6187679539784985e+00 7.1216164393467851e-01 0.0000000000000000e+00  2.6028913846250767e+00 7.0843710648310154e-01 0.0000000000000000e+00  2.5849376267409041e+00 7.8367943627584191e-01 0.0000000000000000e+00  2.5682280459504865e+00 7.7124856522413099e-01 0.0000000000000000e+00  2.5502456270388203e+00 8.5680908463354366e-01 0.0000000000000000e+00  2.5341719554693563e+00 8.3394635386128257e-01 0.0000000000000000e+00  2.5148737024309051e+00 9.3092944382517129e-01 0.0000000000000000e+00  2.4996361679683607e+00 8.9942561764792373e-01 0.0000000000000000e+00  2.4800314746738290e+00 1.0028964739399107e+00 0.0000000000000000e+00  2.4648456459697399e+00 9.6678081642754155e-01 0.0000000000000000e+00  2.4445621402858961e+00 1.0799844369361251e+00 0.0000000000000000e+00  2.4309281902338022e+00 1.0236728199862375e+00 0.0000000000000000e+00  2.4086599727167974e+00 1.1725234223599865e+00 0.0000000000000000e+00  2.3966825934373972e+00 1.0703977515470031e+00 0.0000000000000000e+00  2.3733583932627695e+00 1.2642407565816565e+00 0.0000000000000000e+00  2.3624376405653869e+00 1.1379745250699165e+00 0.0000000000000000e+00  2.3374762573385128e+00 1.3206683818330491e+00 0.0000000000000000e+00  2.3294098605095233e+00 1.2474295941504667e+00 0.0000000000000000e+00  2.3014959715650734e+00 1.3428810194529801e+00 0.0000000000000000e+00  2.2956815155110224e+00 1.3701090856134301e+00 0.0000000000000000e+00  2.2670389388166923e+00 1.3728911185086050e+00 0.0000000000000000e+00  2.2604291718797116e+00 1.4674559053669152e+00 0.0000000000000000e+00  2.2330327361443865e+00 1.4360620115268168e+00 0.0000000000000000e+00  2.2254015003045531e+00 1.5363742671950409e+00 0.0000000000000000e+00  2.1990049504827600e+00 1.5184214677400349e+00 0.0000000000000000e+00  2.1907719521513944e+00 1.6058393808524969e+00 0.0000000000000000e+00  2.1650312543236105e+00 1.5852195860456959e+00 0.0000000000000000e+00  2.1570298473719673e+00 1.6951225828444185e+00 0.0000000000000000e+00  2.1299990105284929e+00 1.6470907943807815e+00 0.0000000000000000e+00  2.1243176283777414e+00 1.7693068023210796e+00 0.0000000000000000e+00  2.0955099098658865e+00 1.7302674218670391e+00 0.0000000000000000e+00  2.0904960088111340e+00 1.8362909371824219e+00 0.0000000000000000e+00  2.0625673906157456e+00 1.8042312673715615e+00 0.0000000000000000e+00  2.0565031290295495e+00 1.9123370986634802e+00 0.0000000000000000e+00  2.0291799062332090e+00 1.8793233995954648e+00 0.0000000000000000e+00  2.0238358589243739e+00 1.9803804763447124e+00 0.0000000000000000e+00  1.9957844031834127e+00 1.9587769707971900e+00 0.0000000000000000e+00  1.9910352655920136e+00 2.0461155919186558e+00 0.0000000000000000e+00  1.9641289238405382e+00 2.0367866913955504e+00 0.0000000000000000e+00  1.9581968831781009e+00 2.1145344522325447e+00 0.0000000000000000e+00  1.9331578575256823e+00 2.1089807077390659e+00 0.0000000000000000e+00  1.9274353538895375e+00 2.1787300356241066e+00 0.0000000000000000e+00  1.9027543276408967e+00 2.1843694555997160e+00 0.0000000000000000e+00  1.8987057216556280e+00 2.2379139222575120e+00 0.0000000000000000e+00  1.8759970714094159e+00 2.2492970801740988e+00 0.0000000000000000e+00  1.8727602792317923e+00 2.2924084275130157e+00 0.0000000000000000e+00  1.8554090504474194e+00 2.3003990710209488e+00 0.0000000000000000e+00  1.8546496484219162e+00 2.3305408033208770e+00 0.0000000000000000e+00  1.8428278776520473e+00 2.3333990948176688e+00 0.0000000000000000e+00  1.8471832896784706e+00 2.3418589613998555e+00 0.0000000000000000e+00  1.8405642554712311e+00 2.3441511444176286e+00 0.0000000000000000e+00  1.8458191631781009e+00 2.3385890331834274e+00 0.0000000000000000e+00  1.8430859491232867e+00 2.3462046164558004e+00 0.0000000000000000e+00  1.8463829526868156e+00 2.3288185242995509e+00 0.0000000000000000e+00  1.8441185836732730e+00 2.3512082823659219e+00 0.0000000000000000e+00  1.8472311415375089e+00 2.3197338535102485e+00 0.0000000000000000e+00  1.8454507143508583e+00 2.3546045568343463e+00 0.0000000000000000e+00  1.8466405698847934e+00 2.3159556206886962e+00 0.0000000000000000e+00  1.8471708628807377e+00 2.3543004694771952e+00 0.0000000000000000e+00  1.8467622426895312e+00 2.3129220454460508e+00 0.0000000000000000e+00  1.8471821487278952e+00 2.3555624964426003e+00 0.0000000000000000e+00  1.8471717860497670e+00 2.3119587053984665e+00 0.0000000000000000e+00  1.8482249675971956e+00 2.3528712575745048e+00 0.0000000000000000e+00  1.8461860806704939e+00 2.3144755673585347e+00 0.0000000000000000e+00  1.8495444438347952e+00 2.3488356121382195e+00 0.0000000000000000e+00  1.8459117523206838e+00 2.3166464936342526e+00 0.0000000000000000e+00  1.8491037593062774e+00 2.3479076366066325e+00 0.0000000000000000e+00  1.8464127346357020e+00 2.3173451018244413e+00 0.0000000000000000e+00  1.8498726463708195e+00 2.3446192757894035e+00 0.0000000000000000e+00  1.8454750056698641e+00 2.3202797784365461e+00 0.0000000000000000e+00  1.8507366550450088e+00 2.3418111966553234e+00 0.0000000000000000e+00  1.8452727847411050e+00 2.3218975573007508e+00 0.0000000000000000e+00  1.8503772378581709e+00 2.3410891981203195e+00 0.0000000000000000e+00  1.8457601714667056e+00 2.3219986248006186e+00 0.0000000000000000e+00  1.8505741723554490e+00 2.3396444144558326e+00 0.0000000000000000e+00  1.8452444244898518e+00 2.3237222198452852e+00 0.0000000000000000e+00  1.8507939340614388e+00 2.3385157571591155e+00 0.0000000000000000e+00  1.8456810321561652e+00 2.3231997608835058e+00 0.0000000000000000e+00  1.8502006756233711e+00 2.3395096676055842e+00 0.0000000000000000e+00  1.8457604100228335e+00 2.3224182139278104e+00 0.0000000000000000e+00  1.8507894653491528e+00 2.3390895065702879e+00 0.0000000000000000e+00  1.8450498342470041e+00 2.3228132778705133e+00 0.0000000000000000e+00  1.8514649156883973e+00 2.3381268085489766e+00 0.0000000000000000e+00  1.8443154007874119e+00 2.3239786790753008e+00 0.0000000000000000e+00  1.8521752506366467e+00 2.3366634523431653e+00 0.0000000000000000e+00  1.8436522850903019e+00 2.3248744462719499e+00 0.0000000000000000e+00  1.8529647474788042e+00 2.3350998760897954e+00 0.0000000000000000e+00  1.8430917038981147e+00 2.3259572876234529e+00 0.0000000000000000e+00  1.8529105728291029e+00 2.3347746854606393e+00 0.0000000000000000e+00  1.8428509451083139e+00 2.3259365750989103e+00 0.0000000000000000e+00  1.8546895943154103e+00 2.3317178916480401e+00 0.0000000000000000e+00  1.8400183570999522e+00 2.3300147342333912e+00 0.0000000000000000e+00  1.8567344703988367e+00 2.3283695049829154e+00 0.0000000000000000e+00  1.8392619611074694e+00 2.3307178772066073e+00 0.0000000000000000e+00  1.8572390139093724e+00 2.3267031176281838e+00 0.0000000000000000e+00  1.8381110057354502e+00 2.3337558518720836e+00 0.0000000000000000e+00  1.8585583612585415e+00 2.3225562968247995e+00 0.0000000000000000e+00  1.8375473069369399e+00 2.3365163766429458e+00 0.0000000000000000e+00  1.8572682766762139e+00 2.3225180994564929e+00 0.0000000000000000e+00  1.8410860049288935e+00 2.3321676385461561e+00 0.0000000000000000e+00  1.8523501270185310e+00 2.3297073145530121e+00 0.0000000000000000e+00  1.8453177101272251e+00 2.3255673808981476e+00 0.0000000000000000e+00  1.8497395664180296e+00 2.3336283886703169e+00 0.0000000000000000e+00  1.8473198188600999e+00 2.3219783999329180e+00 0.0000000000000000e+00  1.8467355300025106e+00 2.3402520151558366e+00 0.0000000000000000e+00  1.8508801192002275e+00 2.3125227703494691e+00 0.0000000000000000e+00  1.8441891263841512e+00 2.3482026273376495e+00 0.0000000000000000e+00  1.8513983443407287e+00 2.3078244589553552e+00 0.0000000000000000e+00  1.8449270651935712e+00 2.3502305533168717e+00 0.0000000000000000e+00  1.8502424232321473e+00 2.3061233157391552e+00 0.0000000000000000e+00  1.8461692999883976e+00 2.3521492064483329e+00 0.0000000000000000e+00  1.8487952125553089e+00 2.3042954421162793e+00 0.0000000000000000e+00  1.8475305848075270e+00 2.3519466481516011e+00 0.0000000000000000e+00  1.8477647154026455e+00 2.3019288443987755e+00 0.0000000000000000e+00  1.8483378933114250e+00 2.3485649399891844e+00 0.0000000000000000e+00  1.8468210407556778e+00 2.2980873645918454e+00 0.0000000000000000e+00  1.8493717742370319e+00 2.3423333705257305e+00 0.0000000000000000e+00  1.8462161493952856e+00 2.2931085750285449e+00 0.0000000000000000e+00  1.8490468682797614e+00 2.3376620917882542e+00 0.0000000000000000e+00  1.8474291358801851e+00 2.2881930943341522e+00 0.0000000000000000e+00  1.8475159322578198e+00 2.3366080138609346e+00 0.0000000000000000e+00  1.8486975802806711e+00 2.2872714213757335e+00 0.0000000000000000e+00  1.8465385297148091e+00 2.3381595661100967e+00 0.0000000000000000e+00  1.8498857082475684e+00 2.2892391024835050e+00 0.0000000000000000e+00  1.8446992362040664e+00 2.3430678913887255e+00 0.0000000000000000e+00  1.8521992822571651e+00 2.2913205429884496e+00 0.0000000000000000e+00  1.8424746851090101e+00 2.3474354465534444e+00 0.0000000000000000e+00  1.8541169522957064e+00 2.2945105732335391e+00 0.0000000000000000e+00  1.8404503102505987e+00 2.3507029500877108e+00 0.0000000000000000e+00  1.8565776554231275e+00 2.2947476773472752e+00 0.0000000000000000e+00  1.8380140201206656e+00 2.3540825399957033e+00 0.0000000000000000e+00  1.8582742941915127e+00 2.2958368421996425e+00 0.0000000000000000e+00  1.8374540804926986e+00 2.3524323813412242e+00 0.0000000000000000e+00  1.8588626045164125e+00 2.2985896477512164e+00 0.0000000000000000e+00  1.8368202136169007e+00 2.3501782260457915e+00 0.0000000000000000e+00  1.8603734515764354e+00 2.2995844770068112e+00 0.0000000000000000e+00  1.8369929038265471e+00 2.3446403562443758e+00 0.0000000000000000e+00  1.8606829629689083e+00 2.3025091186708311e+00 0.0000000000000000e+00  1.8392300258579191e+00 2.3360661814868990e+00 0.0000000000000000e+00  1.8615850971413723e+00 2.3015520302607890e+00 0.0000000000000000e+00  1.8421992196254269e+00 2.3266575886716967e+00 0.0000000000000000e+00  1.8626125696933051e+00 2.3018760600275550e+00 0.0000000000000000e+00  1.8482009965355413e+00 2.3085452316662369e+00 0.0000000000000000e+00  1.8636845476905837e+00 2.3037859561114784e+00 0.0000000000000000e+00  1.8536663997968554e+00 2.2929051743784115e+00 0.0000000000000000e+00  1.8683641658467178e+00 2.2971231438730131e+00 0.0000000000000000e+00  1.8580865882920270e+00 2.2798383474034352e+00 0.0000000000000000e+00  1.8709653154695123e+00 2.2966964347959711e+00 0.0000000000000000e+00  1.8658671837465943e+00 2.2588126378247084e+00 0.0000000000000000e+00  1.8709094372664405e+00 2.3011616023768635e+00 0.0000000000000000e+00  1.8694480212456241e+00 2.2479010956760042e+00 0.0000000000000000e+00  1.8756020931848338e+00 2.2967424934540652e+00 0.0000000000000000e+00  1.8664428262332649e+00 2.2477826325608268e+00 0.0000000000000000e+00  1.8784761864567066e+00 2.2977262238764933e+00 0.0000000000000000e+00  1.8665162040053500e+00 2.2450187190369109e+00 0.0000000000000000e+00  1.8746245651348081e+00 2.3051966069681424e+00 0.0000000000000000e+00  1.8662827746282513e+00 2.2497708571387709e+00 0.0000000000000000e+00  1.8737770241451805e+00 2.3078950981840372e+00 0.0000000000000000e+00  1.8592699540279216e+00 2.2627778679788433e+00 0.0000000000000000e+00  1.8752169887065653e+00 2.3065853331635005e+00 0.0000000000000000e+00  1.8542850525531474e+00 2.2706339934704109e+00 0.0000000000000000e+00  1.8709248213269334e+00 2.2957262351469576e+00 0.0000000000000000e+00  1.8543175838277501e+00 2.2631964100243018e+00 0.0000000000000000e+00  1.8646353795736941e+00 2.2716691905400848e+00 0.0000000000000000e+00  1.8527925620922683e+00 2.2460941938775316e+00 0.0000000000000000e+00  1.8599969681226629e+00 2.2498015766737267e+00 0.0000000000000000e+00  1.8459345459887440e+00 2.2308170065519519e+00 0.0000000000000000e+00  1.8428793149336258e+00 2.2176688188123124e+00 0.0000000000000000e+00  1.7976851229476059e+00 2.1448013127418526e+00 0.0000000000000000e+00  1.7506064588941046e+00 2.0200619581328021e+00 0.0000000000000000e+00  1.5951522207087294e+00 1.6818475095774303e+00 0.0000000000000000e+00  1.3054834651318834e+00 8.8393425457967922e-01 0.0000000000000000e+00  1.0783275683844287e+00 2.1305525668360054e-01 0.0000000000000000e+00  1.0109416997772216e+00 6.3559599995561641e-02 0.0000000000000000e+00  1.0153965873495205e+00 -1.9130070419711827e-02 0.0000000000000000e+00  9.9365494934979715e-01 2.7956274026051664e-02 0.0000000000000000e+00  1.0135532366253941e+00 -1.7759356767516103e-02 0.0000000000000000e+00  9.9560796249067374e-01 1.3393820190788212e-02 0.0000000000000000e+00  1.0136799505182510e+00 0.0000000000000000e+00 0.0000000000000000e+00  2.8715980370323737e+00 0.0000000000000000e+00 -2.7035247596215407e-03  2.8705683695387596e+00 3.3177189191480910e-02 -9.5487069172764917e-05  2.8693386682613755e+00 6.8561121108508219e-02 3.2002047792174470e-03  2.8654064496432903e+00 1.0029621810013112e-01 -2.6137858459356644e-03  2.8611231638731858e+00 1.3314113502208874e-01 2.6798074390287016e-03  2.8553771855553394e+00 1.6539402063234834e-01 -2.5569102193723475e-03  2.8477013451084860e+00 1.9858299160889370e-01 2.9133759940880655e-03  2.8398370497189660e+00 2.2900803182732135e-01 -2.8762948010920462e-03  2.8303266482321905e+00 2.6280498303201105e-01 3.1822695489556563e-03  2.8196570520613484e+00 2.9266912116857785e-01 -3.2575745623827450e-03  2.8084403847362722e+00 3.2627116367669212e-01 3.4772910791027317e-03  2.7964432044909020e+00 3.5562801610972228e-01 -3.5471118620654571e-03  2.7828713737719921e+00 3.8981585220588882e-01 3.7236793266122838e-03  2.7697564977144991e+00 4.1855605368474025e-01 -3.8254038468878782e-03  2.7552863382127262e+00 4.5271627078425125e-01 4.0275651482835949e-03  2.7403485686044520e+00 4.8230576083097720e-01 -4.1881144207396971e-03  2.7251886673159071e+00 5.1594738857897871e-01 4.3713403685441262e-03  2.7098383674717121e+00 5.4586731160725366e-01 -4.5415353952438023e-03  2.6931763776146966e+00 5.8046106115435070e-01 4.6890479645992304e-03  2.6775680984409815e+00 6.1026536661883080e-01 -4.8696559961472147e-03  2.6607670283447251e+00 6.4485209792660259e-01 5.0121864875361365e-03  2.6439677371889214e+00 6.7647280690492939e-01 -5.1770687351618610e-03  2.6271134372645069e+00 7.1009687926747778e-01 5.2551094294382679e-03  2.6104331039375608e+00 7.4268956095309491e-01 -5.3101553817406543e-03  2.5925434885345071e+00 7.7719390875075289e-01 5.1223595977773631e-03  2.5759064121368342e+00 8.0980630775048845e-01 -4.7568180049908934e-03  2.5584088681337227e+00 8.4418252983523179e-01 3.9282020242621934e-03  2.5405927380508233e+00 8.7868984649460558e-01 -2.7964171092429596e-03  2.5235687382561980e+00 9.1202262658307554e-01 1.3146974487513495e-03  2.5057850802972013e+00 9.4742353448728600e-01 4.8858229441788626e-05  2.4881308633285864e+00 9.8061513994079441e-01 -1.0051443764964435e-03  2.4704297998853195e+00 1.0190066215875471e+00 1.0160799548617587e-03  2.4531592581214205e+00 1.0451775612239880e+00 -3.6427058968463652e-05  2.4347719223768149e+00 1.0955157236376480e+00 -1.3971166928643517e-03  2.4174915644061095e+00 1.1093764624335465e+00 2.7157149030792305e-03  2.3998171265990305e+00 1.1667750224377715e+00 -3.0042440298295456e-03  2.3813811370316804e+00 1.1854822759910333e+00 3.0467241575399032e-03  2.3645388459172785e+00 1.2239846282021507e+00 -5.2120035763161508e-03  2.3454854704987489e+00 1.2747540053633319e+00 1.2049979346784638e-02  2.3299977707537525e+00 1.2736145254568108e+00 -2.6327115231670129e-02  2.3078677806467125e+00 1.3684650227980362e+00 4.7007646908275996e-02  2.2974619862953238e+00 1.3236463856388772e+00 -6.8029813097261291e-02  2.2694207775054793e+00 1.4603066976647101e+00 8.4983714083452899e-02  2.2638134480432148e+00 1.3831401004096435e+00 -8.8085573406511158e-02  2.2338639790341648e+00 1.5339056876925334e+00 8.0680761874994053e-02  2.2275695526310573e+00 1.4679462089778017e+00 -6.2280600418590730e-02  2.2006008686080909e+00 1.5845478078322610e+00 4.3143621953408359e-02  2.1906984936889575e+00 1.5604006341822327e+00 -2.7455811142435161e-02  2.1676679494714248e+00 1.6440093354538738e+00 1.9021761030203997e-02  2.1541496009210603e+00 1.6399973658900904e+00 -1.6321811538933594e-02  2.1346144941091847e+00 1.7074929770060427e+00 1.5366672757382438e-02  2.1189778335872886e+00 1.7249184628446930e+00 -1.3914761829903387e-02  2.1003617552970035e+00 1.7702527184062029e+00 1.0401370941457558e-02  2.0853927128109344e+00 1.7992339810957860e+00 -8.1702767676429828e-03  2.0662362145540070e+00 1.8459336482243189e+00 6.4445536939090617e-03  2.0513960004939036e+00 1.8716930314983882e+00 -6.0787985537331859e-03  2.0335619792874162e+00 1.9141113704426047e+00 4.8047465073138068e-03  2.0175501169441894e+00 1.9492526913630182e+00 -4.2148858572211793e-03  2.0006233481392139e+00 1.9837815135937273e+00 3.8447701479862404e-03  1.9855039063249191e+00 2.0222868387288435e+00 -4.3893829723538258e-03  1.9674670224127797e+00 2.0570473541735117e+00 4.7113787305027048e-03  1.9539930499682663e+00 2.0902336022156920e+00 -5.7715283626978246e-03  1.9360663959329867e+00 2.1297054571906604e+00 6.9028680125781299e-03  1.9229133319790486e+00 2.1610137373620542e+00 -7.8716827450354947e-03  1.9061101945108598e+00 2.1963501932707326e+00 8.4528927477224951e-03  1.8948630002886835e+00 2.2235750205447795e+00 -9.5596562323973216e-03  1.8779436123107698e+00 2.2627654450346832e+00 1.0656997075457701e-02  1.8710483244993839e+00 2.2769999455752914e+00 -1.1337458616735362e-02  1.8558212632731126e+00 2.3147653726583344e+00 1.1608007966565607e-02  1.8531146255188957e+00 2.3174125386741231e+00 -1.2143238981594960e-02  1.8435011806113906e+00 2.3428795895478762e+00 1.2511793974674520e-02  1.8460748495790440e+00 2.3347066777098253e+00 -1.2771024580914673e-02  1.8400055808477671e+00 2.3511436333972786e+00 1.3190371760966152e-02  1.8470207113368420e+00 2.3328274230770849e+00 -1.3644046683140664e-02  1.8410825928582353e+00 2.3479252054748638e+00 1.3617123438467955e-02  1.8475661729242077e+00 2.3318017492432679e+00 -1.3553350042156909e-02  1.8428066796325164e+00 2.3449557932987553e+00 1.3501559112338551e-02  1.8485538578947192e+00 2.3288832155217207e+00 -1.3371908026263897e-02  1.8431022006505380e+00 2.3450998055532857e+00 1.2969743245571937e-02  1.8497333803839777e+00 2.3249447287878100e+00 -1.2657478859051861e-02  1.8438329823238000e+00 2.3448410124618979e+00 1.2141628248094369e-02  1.8492102999819076e+00 2.3251997151405916e+00 -1.1528997216993176e-02  1.8450849893888572e+00 2.3430885460206