<?xml version="1.0"?>
<VTKFile type="UnstructuredGrid"  version="0.1"  >
<UnstructuredGrid>
<Piece  NumberOfPoints="8241" NumberOfCells="16000">
<Points>
<DataArray  type="Float64"  NumberOfComponents="3"  format="ascii">-5 -1 0  -4.95 -1 0  -4.9 -1 0  -4.85 -1 0  -4.8 -1 0  -4.75 -1 0  -4.7 -1 0  -4.65 -1 0  -4.6 -1 0  -4.55 -1 0  -4.5 -1 0  -4.45 -1 0  -4.4 -1 0  -4.35 -1 0  -4.3 -1 0  -4.25 -1 0  -4.2 -1 0  -4.15 -1 0  -4.1 -1 0  -4.05 -1 0  -4 -1 0  -3.95 -1 0  -3.9 -1 0  -3.85 -1 0  -3.8 -1 0  -3.75 -1 0  -3.7 -1 0  -3.65 -1 0  -3.6 -1 0  -3.55 -1 0  -3.5 -1 0  -3.45 -1 0  -3.4 -1 0  -3.35 -1 0  -3.3 -1 0  -3.25 -1 0  -3.2 -1 0  -3.15 -1 0  -3.1 -1 0  -3.05 -1 0  -3 -1 0  -2.95 -1 0  -2.9 -1 0  -2.85 -1 0  -2.8 -1 0  -2.75 -1 0  -2.7 -1 0  -2.65 -1 0  -2.6 -1 0  -2.55 -1 0  -2.5 -1 0  -2.45 -1 0  -2.4 -1 0  -2.35 -1 0  -2.3 -1 0  -2.25 -1 0  -2.2 -1 0  -2.15 -1 0  -2.1 -1 0  -2.05 -1 0  -2 -1 0  -1.95 -1 0  -1.9 -1 0  -1.85 -1 0  -1.8 -1 0  -1.75 -1 0  -1.7 -1 0  -1.65 -1 0  -1.6 -1 0  -1.55 -1 0  -1.5 -1 0  -1.45 -1 0  -1.4 -1 0  -1.35 -1 0  -1.3 -1 0  -1.25 -1 0  -1.2 -1 0  -1.15 -1 0  -1.1 -1 0  -1.05 -1 0  -1 -1 0  -0.9500000000000002 -1 0  -0.9000000000000004 -1 0  -0.8499999999999996 -1 0  -0.7999999999999998 -1 0  -0.75 -1 0  -0.7000000000000002 -1 0  -0.6500000000000004 -1 0  -0.5999999999999996 -1 0  -0.5499999999999998 -1 0  -0.5 -1 0  -0.4500000000000002 -1 0  -0.4000000000000004 -1 0  -0.3499999999999996 -1 0  -0.2999999999999998 -1 0  -0.25 -1 0  -0.2000000000000002 -1 0  -0.1500000000000004 -1 0  -0.09999999999999964 -1 0  -0.04999999999999982 -1 0  0 -1 0  0.04999999999999982 -1 0  0.09999999999999964 -1 0  0.1500000000000004 -1 0  0.2000000000000002 -1 0  0.25 -1 0  0.2999999999999998 -1 0  0.3499999999999996 -1 0  0.4000000000000004 -1 0  0.4500000000000002 -1 0  0.5 -1 0  0.5499999999999998 -1 0  0.5999999999999996 -1 0  0.6500000000000004 -1 0  0.7000000000000002 -1 0  0.75 -1 0  0.7999999999999998 -1 0  0.8499999999999996 -1 0  0.9000000000000004 -1 0  0.9500000000000002 -1 0  1 -1 0  1.05 -1 0  1.1 -1 0  1.15 -1 0  1.2 -1 0  1.25 -1 0  1.3 -1 0  1.35 -1 0  1.4 -1 0  1.45 -1 0  1.5 -1 0  1.55 -1 0  1.6 -1 0  1.65 -1 0  1.7 -1 0  1.75 -1 0  1.8 -1 0  1.85 -1 0  1.9 -1 0  1.95 -1 0  2 -1 0  2.05 -1 0  2.1 -1 0  2.15 -1 0  2.2 -1 0  2.25 -1 0  2.3 -1 0  2.35 -1 0  2.4 -1 0  2.45 -1 0  2.5 -1 0  2.55 -1 0  2.6 -1 0  2.65 -1 0  2.7 -1 0  2.75 -1 0  2.8 -1 0  2.85 -1 0  2.9 -1 0  2.95 -1 0  3 -1 0  3.050000000000001 -1 0  3.1 -1 0  3.15 -1 0  3.199999999999999 -1 0  3.25 -1 0  3.300000000000001 -1 0  3.35 -1 0  3.4 -1 0  3.449999999999999 -1 0  3.5 -1 0  3.550000000000001 -1 0  3.6 -1 0  3.65 -1 0  3.699999999999999 -1 0  3.75 -1 0  3.800000000000001 -1 0  3.85 -1 0  3.9 -1 0  3.949999999999999 -1 0  4 -1 0  4.050000000000001 -1 0  4.1 -1 0  4.15 -1 0  4.199999999999999 -1 0  4.25 -1 0  4.300000000000001 -1 0  4.35 -1 0  4.4 -1 0  4.449999999999999 -1 0  4.5 -1 0  4.550000000000001 -1 0  4.6 -1 0  4.65 -1 0  4.699999999999999 -1 0  4.75 -1 0  4.800000000000001 -1 0  4.85 -1 0  4.9 -1 0  4.949999999999999 -1 0  5 -1 0  -5 -0.95 0  -4.95 -0.95 0  -4.9 -0.95 0  -4.85 -0.95 0  -4.8 -0.95 0  -4.75 -0.95 0  -4.7 -0.95 0  -4.65 -0.95 0  -4.6 -0.95 0  -4.55 -0.95 0  -4.5 -0.95 0  -4.45 -0.95 0  -4.4 -0.95 0  -4.35 -0.95 0  -4.3 -0.95 0  -4.25 -0.95 0  -4.2 -0.95 0  -4.15 -0.95 0  -4.1 -0.95 0  -4.05 -0.95 0  -4 -0.95 0  -3.95 -0.95 0  -3.9 -0.95 0  -3.85 -0.95 0  -3.8 -0.95 0  -3.75 -0.95 0  -3.7 -0.95 0  -3.65 -0.95 0  -3.6 -0.95 0  -3.55 -0.95 0  -3.5 -0.95 0  -3.45 -0.95 0  -3.4 -0.95 0  -3.35 -0.95 0  -3.3 -0.95 0  -3.25 -0.95 0  -3.2 -0.95 0  -3.15 -0.95 0  -3.1 -0.95 0  -3.05 -0.95 0  -3 -0.95 0  -2.95 -0.95 0  -2.9 -0.95 0  -2.85 -0.95 0  -2.8 -0.95 0  -2.75 -0.95 0  -2.7 -0.95 0  -2.65 -0.95 0  -2.6 -0.95 0  -2.55 -0.95 0  -2.5 -0.95 0  -2.45 -0.95 0  -2.4 -0.95 0  -2.35 -0.95 0  -2.3 -0.95 0  -2.25 -0.95 0  -2.2 -0.95 0  -2.15 -0.95 0  -2.1 -0.95 0  -2.05 -0.95 0  -2 -0.95 0  -1.95 -0.95 0  -1.9 -0.95 0  -1.85 -0.95 0  -1.8 -0.95 0  -1.75 -0.95 0  -1.7 -0.95 0  -1.65 -0.95 0  -1.6 -0.95 0  -1.55 -0.95 0  -1.5 -0.95 0  -1.45 -0.95 0  -1.4 -0.95 0  -1.35 -0.95 0  -1.3 -0.95 0  -1.25 -0.95 0  -1.2 -0.95 0  -1.15 -0.95 0  -1.1 -0.95 0  -1.05 -0.95 0  -1 -0.95 0  -0.9500000000000002 -0.95 0  -0.9000000000000004 -0.95 0  -0.8499999999999996 -0.95 0  -0.7999999999999998 -0.95 0  -0.75 -0.95 0  -0.7000000000000002 -0.95 0  -0.6500000000000004 -0.95 0  -0.5999999999999996 -0.95 0  -0.5499999999999998 -0.95 0  -0.5 -0.95 0  -0.4500000000000002 -0.95 0  -0.4000000000000004 -0.95 0  -0.3499999999999996 -0.95 0  -0.2999999999999998 -0.95 0  -0.25 -0.95 0  -0.2000000000000002 -0.95 0  -0.1500000000000004 -0.95 0  -0.09999999999999964 -0.95 0  -0.04999999999999982 -0.95 0  0 -0.95 0  0.04999999999999982 -0.95 0  0.09999999999999964 -0.95 0  0.1500000000000004 -0.95 0  0.2000000000000002 -0.95 0  0.25 -0.95 0  0.2999999999999998 -0.95 0  0.3499999999999996 -0.95 0  0.4000000000000004 -0.95 0  0.4500000000000002 -0.95 0  0.5 -0.95 0  0.5499999999999998 -0.95 0  0.5999999999999996 -0.95 0  0.6500000000000004 -0.95 0  0.7000000000000002 -0.95 0  0.75 -0.95 0  0.7999999999999998 -0.95 0  0.8499999999999996 -0.95 0  0.9000000000000004 -0.95 0  0.9500000000000002 -0.95 0  1 -0.95 0  1.05 -0.95 0  1.1 -0.95 0  1.15 -0.95 0  1.2 -0.95 0  1.25 -0.95 0  1.3 -0.95 0  1.35 -0.95 0  1.4 -0.95 0  1.45 -0.95 0  1.5 -0.95 0  1.55 -0.95 0  1.6 -0.95 0  1.65 -0.95 0  1.7 -0.95 0  1.75 -0.95 0  1.8 -0.95 0  1.85 -0.95 0  1.9 -0.95 0  1.95 -0.95 0  2 -0.95 0  2.05 -0.95 0  2.1 -0.95 0  2.15 -0.95 0  2.2 -0.95 0  2.25 -0.95 0  2.3 -0.95 0  2.35 -0.95 0  2.4 -0.95 0  2.45 -0.95 0  2.5 -0.95 0  2.55 -0.95 0  2.6 -0.95 0  2.65 -0.95 0  2.7 -0.95 0  2.75 -0.95 0  2.8 -0.95 0  2.85 -0.95 0  2.9 -0.95 0  2.95 -0.95 0  3 -0.95 0  3.050000000000001 -0.95 0  3.1 -0.95 0  3.15 -0.95 0  3.199999999999999 -0.95 0  3.25 -0.95 0  3.300000000000001 -0.95 0  3.35 -0.95 0  3.4 -0.95 0  3.449999999999999 -0.95 0  3.5 -0.95 0  3.550000000000001 -0.95 0  3.6 -0.95 0  3.65 -0.95 0  3.699999999999999 -0.95 0  3.75 -0.95 0  3.800000000000001 -0.95 0  3.85 -0.95 0  3.9 -0.95 0  3.949999999999999 -0.95 0  4 -0.95 0  4.050000000000001 -0.95 0  4.1 -0.95 0  4.15 -0.95 0  4.199999999999999 -0.95 0  4.25 -0.95 0  4.300000000000001 -0.95 0  4.35 -0.95 0  4.4 -0.95 0  4.449999999999999 -0.95 0  4.5 -0.95 0  4.550000000000001 -0.95 0  4.6 -0.95 0  4.65 -0.95 0  4.699999999999999 -0.95 0  4.75 -0.95 0  4.800000000000001 -0.95 0  4.85 -0.95 0  4.9 -0.95 0  4.949999999999999 -0.95 0  5 -0.95 0  -5 -0.9 0  -4.95 -0.9 0  -4.9 -0.9 0  -4.85 -0.9 0  -4.8 -0.9 0  -4.75 -0.9 0  -4.7 -0.9 0  -4.65 -0.9 0  -4.6 -0.9 0  -4.55 -0.9 0  -4.5 -0.9 0  -4.45 -0.9 0  -4.4 -0.9 0  -4.35 -0.9 0  -4.3 -0.9 0  -4.25 -0.9 0  -4.2 -0.9 0  -4.15 -0.9 0  -4.1 -0.9 0  -4.05 -0.9 0  -4 -0.9 0  -3.95 -0.9 0  -3.9 -0.9 0  -3.85 -0.9 0  -3.8 -0.9 0  -3.75 -0.9 0  -3.7 -0.9 0  -3.65 -0.9 0  -3.6 -0.9 0  -3.55 -0.9 0  -3.5 -0.9 0  -3.45 -0.9 0  -3.4 -0.9 0  -3.35 -0.9 0  -3.3 -0.9 0  -3.25 -0.9 0  -3.2 -0.9 0  -3.15 -0.9 0  -3.1 -0.9 0  -3.05 -0.9 0  -3 -0.9 0  -2.95 -0.9 0  -2.9 -0.9 0  -2.85 -0.9 0  -2.8 -0.9 0  -2.75 -0.9 0  -2.7 -0.9 0  -2.65 -0.9 0  -2.6 -0.9 0  -2.55 -0.9 0  -2.5 -0.9 0  -2.45 -0.9 0  -2.4 -0.9 0  -2.35 -0.9 0  -2.3 -0.9 0  -2.25 -0.9 0  -2.2 -0.9 0  -2.15 -0.9 0  -2.1 -0.9 0  -2.05 -0.9 0  -2 -0.9 0  -1.95 -0.9 0  -1.9 -0.9 0  -1.85 -0.9 0  -1.8 -0.9 0  -1.75 -0.9 0  -1.7 -0.9 0  -1.65 -0.9 0  -1.6 -0.9 0  -1.55 -0.9 0  -1.5 -0.9 0  -1.45 -0.9 0  -1.4 -0.9 0  -1.35 -0.9 0  -1.3 -0.9 0  -1.25 -0.9 0  -1.2 -0.9 0  -1.15 -0.9 0  -1.1 -0.9 0  -1.05 -0.9 0  -1 -0.9 0  -0.9500000000000002 -0.9 0  -0.9000000000000004 -0.9 0  -0.8499999999999996 -0.9 0  -0.7999999999999998 -0.9 0  -0.75 -0.9 0  -0.7000000000000002 -0.9 0  -0.6500000000000004 -0.9 0  -0.5999999999999996 -0.9 0  -0.5499999999999998 -0.9 0  -0.5 -0.9 0  -0.4500000000000002 -0.9 0  -0.4000000000000004 -0.9 0  -0.3499999999999996 -0.9 0  -0.2999999999999998 -0.9 0  -0.25 -0.9 0  -0.2000000000000002 -0.9 0  -0.1500000000000004 -0.9 0  -0.09999999999999964 -0.9 0  -0.04999999999999982 -0.9 0  0 -0.9 0  0.04999999999999982 -0.9 0  0.09999999999999964 -0.9 0  0.1500000000000004 -0.9 0  0.2000000000000002 -0.9 0  0.25 -0.9 0  0.2999999999999998 -0.9 0  0.3499999999999996 -0.9 0  0.4000000000000004 -0.9 0  0.4500000000000002 -0.9 0  0.5 -0.9 0  0.5499999999999998 -0.9 0  0.5999999999999996 -0.9 0  0.6500000000000004 -0.9 0  0.7000000000000002 -0.9 0  0.75 -0.9 0  0.7999999999999998 -0.9 0  0.8499999999999996 -0.9 0  0.9000000000000004 -0.9 0  0.9500000000000002 -0.9 0  1 -0.9 0  1.05 -0.9 0  1.1 -0.9 0  1.15 -0.9 0  1.2 -0.9 0  1.25 -0.9 0  1.3 -0.9 0  1.35 -0.9 0  1.4 -0.9 0  1.45 -0.9 0  1.5 -0.9 0  1.55 -0.9 0  1.6 -0.9 0  1.65 -0.9 0  1.7 -0.9 0  1.75 -0.9 0  1.8 -0.9 0  1.85 -0.9 0  1.9 -0.9 0  1.95 -0.9 0  2 -0.9 0  2.05 -0.9 0  2.1 -0.9 0  2.15 -0.9 0  2.2 -0.9 0  2.25 -0.9 0  2.3 -0.9 0  2.35 -0.9 0  2.4 -0.9 0  2.45 -0.9 0  2.5 -0.9 0  2.55 -0.9 0  2.6 -0.9 0  2.65 -0.9 0  2.7 -0.9 0  2.75 -0.9 0  2.8 -0.9 0  2.85 -0.9 0  2.9 -0.9 0  2.95 -0.9 0  3 -0.9 0  3.050000000000001 -0.9 0  3.1 -0.9 0  3.15 -0.9 0  3.199999999999999 -0.9 0  3.25 -0.9 0  3.300000000000001 -0.9 0  3.35 -0.9 0  3.4 -0.9 0  3.449999999999999 -0.9 0  3.5 -0.9 0  3.550000000000001 -0.9 0  3.6 -0.9 0  3.65 -0.9 0  3.699999999999999 -0.9 0  3.75 -0.9 0  3.800000000000001 -0.9 0  3.85 -0.9 0  3.9 -0.9 0  3.949999999999999 -0.9 0  4 -0.9 0  4.050000000000001 -0.9 0  4.1 -0.9 0  4.15 -0.9 0  4.199999999999999 -0.9 0  4.25 -0.9 0  4.300000000000001 -0.9 0  4.35 -0.9 0  4.4 -0.9 0  4.449999999999999 -0.9 0  4.5 -0.9 0  4.550000000000001 -0.9 0  4.6 -0.9 0  4.65 -0.9 0  4.699999999999999 -0.9 0  4.75 -0.9 0  4.800000000000001 -0.9 0  4.85 -0.9 0  4.9 -0.9 0  4.949999999999999 -0.9 0  5 -0.9 0  -5 -0.85 0  -4.95 -0.85 0  -4.9 -0.85 0  -4.85 -0.85 0  -4.8 -0.85 0  -4.75 -0.85 0  -4.7 -0.85 0  -4.65 -0.85 0  -4.6 -0.85 0  -4.55 -0.85 0  -4.5 -0.85 0  -
[...]
<PointData  Vectors="f_15"> 
<DataArray  type="Float64"  Name="f_15"  NumberOfComponents="3" format="ascii">1.3025745608391084e+00 0.0000000000000000e+00 0.0000000000000000e+00  1.2970746591463114e+00 -2.5347916266667485e-02 0.0000000000000000e+00  1.3038409830392401e+00 1.2004680497799998e-01 0.0000000000000000e+00  1.2935445936988152e+00 8.0120272969186529e-02 0.0000000000000000e+00  1.3070379148051330e+00 1.6920303250258048e-01 0.0000000000000000e+00  1.2927959874449730e+00 1.4781983923657330e-01 0.0000000000000000e+00  1.3056455779133085e+00 2.4001293296709139e-01 0.0000000000000000e+00  1.2940987547746332e+00 2.1453881222595958e-01 0.0000000000000000e+00  1.3068153617758926e+00 2.9398254045662453e-01 0.0000000000000000e+00  1.2910516389018349e+00 2.9000429865102417e-01 0.0000000000000000e+00  1.3096848787266984e+00 3.5983777639651909e-01 0.0000000000000000e+00  1.2908164778748350e+00 3.4943256747220053e-01 0.0000000000000000e+00  1.3080452842378336e+00 4.2415325662130610e-01 0.0000000000000000e+00  1.2924239166648970e+00 4.2611816218800530e-01 0.0000000000000000e+00  1.3089253701973351e+00 4.7770256189889582e-01 0.0000000000000000e+00  1.2901060789235750e+00 4.9285870560460809e-01 0.0000000000000000e+00  1.3110341397968686e+00 5.5307949906061760e-01 0.0000000000000000e+00  1.2906908180639651e+00 5.4659860610521627e-01 0.0000000000000000e+00  1.3091797625343382e+00 6.1953456347389813e-01 0.0000000000000000e+00  1.2928535845834874e+00 6.1711096226312356e-01 0.0000000000000000e+00  1.3099383465765029e+00 6.8363364511196301e-01 0.0000000000000000e+00  1.2916333374062388e+00 6.6956321328100776e-01 0.0000000000000000e+00  1.3120705968027200e+00 7.5646232647946099e-01 0.0000000000000000e+00  1.2932839656137507e+00 7.3332373514045579e-01 0.0000000000000000e+00  1.3112387718433283e+00 8.1293235237138650e-01 0.0000000000000000e+00  1.2963949819875917e+00 7.9341047620243632e-01 0.0000000000000000e+00  1.3136150461272642e+00 8.7714794231376825e-01 0.0000000000000000e+00  1.2972207396375464e+00 8.4852347270986028e-01 0.0000000000000000e+00  1.3177679169938730e+00 9.3538540250090363e-01 0.0000000000000000e+00  1.3016346859297727e+00 9.0412334093625690e-01 0.0000000000000000e+00  1.3209610380776273e+00 9.8210263793737251e-01 0.0000000000000000e+00  1.3082185814106413e+00 9.5875808141177887e-01 0.0000000000000000e+00  1.3285090887485687e+00 1.0281328395202420e+00 0.0000000000000000e+00  1.3146906506708487e+00 9.9852070057039610e-01 0.0000000000000000e+00  1.3386140393786599e+00 1.0668784561525175e+00 0.0000000000000000e+00  1.3253264175901083e+00 1.0414215495257961e+00 0.0000000000000000e+00  1.3486277649501894e+00 1.0930835967432218e+00 0.0000000000000000e+00  1.3373673400324744e+00 1.0801816333671961e+00 0.0000000000000000e+00  1.3614643225517971e+00 1.1222214661066690e+00 0.0000000000000000e+00  1.3483695155358417e+00 1.1107347799872975e+00 0.0000000000000000e+00  1.3742326851126319e+00 1.1508374560980419e+00 0.0000000000000000e+00  1.3612895965106118e+00 1.1478558412704012e+00 0.0000000000000000e+00  1.3854750571636463e+00 1.1727688943373824e+00 0.0000000000000000e+00  1.3738816809009218e+00 1.1846674160914374e+00 0.0000000000000000e+00  1.3981038281056075e+00 1.2016778235891201e+00 0.0000000000000000e+00  1.3854266538729141e+00 1.2148656180299955e+00 0.0000000000000000e+00  1.4100455669670824e+00 1.2316954457610538e+00 0.0000000000000000e+00  1.3985084859964900e+00 1.2506402547998894e+00 0.0000000000000000e+00  1.4210018354068119e+00 1.2560991130803487e+00 0.0000000000000000e+00  1.4110966711057478e+00 1.2861392101114748e+00 0.0000000000000000e+00  1.4332641683164118e+00 1.2866572944082222e+00 0.0000000000000000e+00  1.4230299521180194e+00 1.3156095831396959e+00 0.0000000000000000e+00  1.4449583515968307e+00 1.3185991720185308e+00 0.0000000000000000e+00  1.4362081278431595e+00 1.3488712189380450e+00 0.0000000000000000e+00  1.4560931270388988e+00 1.3466465932892404e+00 0.0000000000000000e+00  1.4488464922163915e+00 1.3817206667743374e+00 0.0000000000000000e+00  1.4684316607205075e+00 1.3795327018458488e+00 0.0000000000000000e+00  1.4608403643522794e+00 1.4103356119892261e+00 0.0000000000000000e+00  1.4804760314215630e+00 1.4126136913367464e+00 0.0000000000000000e+00  1.4737482987153332e+00 1.4423021922380990e+00 0.0000000000000000e+00  1.4919930354765381e+00 1.4428617757690909e+00 0.0000000000000000e+00  1.4865187471863177e+00 1.4733232559965734e+00 0.0000000000000000e+00  1.5042626779521997e+00 1.4768649270111611e+00 0.0000000000000000e+00  1.4987985937966619e+00 1.5013348859220021e+00 0.0000000000000000e+00  1.5165770442711655e+00 1.5098487557156191e+00 0.0000000000000000e+00  1.5115281218257850e+00 1.5330320242973452e+00 0.0000000000000000e+00  1.5284288564919144e+00 1.5398296869543320e+00 0.0000000000000000e+00  1.5245235406338489e+00 1.5641351241138337e+00 0.0000000000000000e+00  1.5403762980138533e+00 1.5727240672181042e+00 0.0000000000000000e+00  1.5373212242928882e+00 1.5924998032433704e+00 0.0000000000000000e+00  1.5525248275394969e+00 1.6048986962604697e+00 0.0000000000000000e+00  1.5501451430974320e+00 1.6237706428048631e+00 0.0000000000000000e+00  1.5643665956963293e+00 1.6339803436954123e+00 0.0000000000000000e+00  1.5633771324445234e+00 1.6555338510307263e+00 0.0000000000000000e+00  1.5759817833228482e+00 1.6643150140609235e+00 0.0000000000000000e+00  1.5764027464945680e+00 1.6856807910606864e+00 0.0000000000000000e+00  1.5881026227096002e+00 1.6945094632853908e+00 0.0000000000000000e+00  1.5889332398377125e+00 1.7174632127189204e+00 0.0000000000000000e+00  1.6001936030173209e+00 1.7231091143504411e+00 0.0000000000000000e+00  1.6018988876887013e+00 1.7495311784413874e+00 0.0000000000000000e+00  1.6117785729081282e+00 1.7528982820869019e+00 0.0000000000000000e+00  1.6147398637425170e+00 1.7803643141647194e+00 0.0000000000000000e+00  1.6240273975871551e+00 1.7831508106046841e+00 0.0000000000000000e+00  1.6266962041230371e+00 1.8114352815081987e+00 0.0000000000000000e+00  1.6364535267605653e+00 1.8130767538689343e+00 0.0000000000000000e+00  1.6391427071581857e+00 1.8421478052344975e+00 0.0000000000000000e+00  1.6480089766389352e+00 1.8425001916042729e+00 0.0000000000000000e+00  1.6516766330973709e+00 1.8743272736036125e+00 0.0000000000000000e+00  1.6601923165222727e+00 1.8686925811675879e+00 0.0000000000000000e+00  1.6630041138884084e+00 1.9079561938142187e+00 0.0000000000000000e+00  1.6727785724662514e+00 1.8955554261087877e+00 0.0000000000000000e+00  1.6746741876941289e+00 1.9372838830236936e+00 0.0000000000000000e+00  1.6842183654245342e+00 1.9249683714350052e+00 0.0000000000000000e+00  1.6866545918298146e+00 1.9674346582776070e+00 0.0000000000000000e+00  1.6960455156650180e+00 1.9476302421808589e+00 0.0000000000000000e+00  1.6973329398688566e+00 2.0032272865043868e+00 0.0000000000000000e+00  1.7083058404473732e+00 1.9693530968706261e+00 0.0000000000000000e+00  1.7081579219685670e+00 2.0307363801007527e+00 0.0000000000000000e+00  1.7193817222195489e+00 2.0016300370611306e+00 0.0000000000000000e+00  1.7193734109931265e+00 2.0505244730610683e+00 0.0000000000000000e+00  1.7304182023457548e+00 2.0314857673139928e+00 0.0000000000000000e+00  1.7295992933533813e+00 2.0767551202673400e+00 0.0000000000000000e+00  1.7415014921089751e+00 2.0556605595385897e+00 0.0000000000000000e+00  1.7399666710105555e+00 2.0986125168988221e+00 0.0000000000000000e+00  1.7512924946482149e+00 2.0890437771643278e+00 0.0000000000000000e+00  1.7507479184987276e+00 2.1105761417632150e+00 0.0000000000000000e+00  1.7606610815296999e+00 2.1215815654306680e+00 0.0000000000000000e+00  1.7605437474154912e+00 2.1304039187660595e+00 0.0000000000000000e+00  1.7701273640326354e+00 2.1419473795107442e+00 0.0000000000000000e+00  1.7701453264155549e+00 2.1537828123424636e+00 0.0000000000000000e+00  1.7781764784211351e+00 2.1645692767962270e+00 0.0000000000000000e+00  1.7802194175090544e+00 2.1696724324863426e+00 0.0000000000000000e+00  1.7856351182779990e+00 2.1874502190903411e+00 0.0000000000000000e+00  1.7890725550760918e+00 2.1888965977499204e+00 0.0000000000000000e+00  1.7936757621219483e+00 2.2024747895017240e+00 0.0000000000000000e+00  1.7975352224589831e+00 2.2071275543810911e+00 0.0000000000000000e+00  1.8010366570128125e+00 2.2202381831647204e+00 0.0000000000000000e+00  1.8078515236595205e+00 2.2146007442461362e+00 0.0000000000000000e+00  1.8099350843743611e+00 2.2342288486915480e+00 0.0000000000000000e+00  1.8210511836656762e+00 2.2167199538606011e+00 0.0000000000000000e+00  1.8254797827260887e+00 2.2313282669153121e+00 0.0000000000000000e+00  1.8421447855385897e+00 2.2032014572993548e+00 0.0000000000000000e+00  1.8503679507726813e+00 2.2124996785293702e+00 0.0000000000000000e+00  1.8742287253751040e+00 2.1686513235156659e+00 0.0000000000000000e+00  1.8818779560891787e+00 2.1798420759157615e+00 0.0000000000000000e+00  1.9068568593343145e+00 2.1353836533249448e+00 0.0000000000000000e+00  1.9071541007937549e+00 2.1547113492929530e+00 0.0000000000000000e+00  1.9238601711606127e+00 2.1246909282824644e+00 0.0000000000000000e+00  1.9122444202819129e+00 2.1639506709031076e+00 0.0000000000000000e+00  1.9179030954793637e+00 2.1493178064014136e+00 0.0000000000000000e+00  1.8875339339047923e+00 2.2243489484186498e+00 0.0000000000000000e+00  1.8676364095170632e+00 2.2504354126465906e+00 0.0000000000000000e+00  1.8010056001436823e+00 2.3847759704029894e+00 0.0000000000000000e+00  1.7382395237440997e+00 2.4626757434637434e+00 0.0000000000000000e+00  1.7355563240856255e+00 2.4626380983046325e+00 0.0000000000000000e+00  2.3299532213800132e+00 1.1031596427764359e+00 0.0000000000000000e+00  2.8852022331220022e+00 6.9772963697043167e-02 0.0000000000000000e+00  2.9699207094674480e+00 -7.5980706886672786e-02 0.0000000000000000e+00  2.9189819619794566e+00 -1.7382616486520293e-02 0.0000000000000000e+00  2.9696307284124805e+00 -8.3539856604665966e-02 0.0000000000000000e+00  2.9621555242640678e+00 -7.8305313411846170e-02 0.0000000000000000e+00  2.9699280953153382e+00 -8.2607035583154936e-02 0.0000000000000000e+00  2.9605457278483898e+00 -7.4438205372807001e-02 0.0000000000000000e+00  2.9735903042241629e+00 -7.7986024712539431e-02 0.0000000000000000e+00  2.9564550862349681e+00 -6.4678493161128281e-02 0.0000000000000000e+00  2.9779297190839511e+00 -7.8051994930554383e-02 0.0000000000000000e+00  2.9597363371868930e+00 -6.4404560800230146e-02 0.0000000000000000e+00  2.9768718101451714e+00 -6.9500077011791339e-02 0.0000000000000000e+00  2.9604650912985764e+00 -6.1029374111521983e-02 0.0000000000000000e+00  2.9784318347248000e+00 -6.4153209569111525e-02 0.0000000000000000e+00  2.9613005095382237e+00 -5.7525112187205935e-02 0.0000000000000000e+00  2.9793497150826149e+00 -5.9751959158543408e-02 0.0000000000000000e+00  2.9624917267547728e+00 -5.2958459354453702e-02 0.0000000000000000e+00  2.9797032951284508e+00 -5.4741257626984320e-02 0.0000000000000000e+00  2.9634167406250298e+00 -4.8747135865226901e-02 0.0000000000000000e+00  2.9803861559604496e+00 -5.0438325637874037e-02 0.0000000000000000e+00  2.9645074139974570e+00 -4.4587428646005803e-02 0.0000000000000000e+00  2.9800544105429299e+00 -4.5724274639578205e-02 0.0000000000000000e+00  2.9656748872720078e+00 -3.9985114835206073e-02 0.0000000000000000e+00  2.9801299298432347e+00 -4.3185119895256648e-02 0.0000000000000000e+00  2.9656054081980647e+00 -3.5975811302970714e-02 0.0000000000000000e+00  2.9805080625034024e+00 -4.5380127498869091e-02 0.0000000000000000e+00  2.9657287299382507e+00 -3.6320413061998777e-02 0.0000000000000000e+00  2.9795769744688547e+00 -5.2115941212837157e-02 0.0000000000000000e+00  2.9663367275734607e+00 -3.9260420583844741e-02 0.0000000000000000e+00  2.9789261554171467e+00 -5.6081299939115578e-02 0.0000000000000000e+00  2.9655617923130140e+00 -3.6818403473580945e-02 0.0000000000000000e+00  2.9791460762962840e+00 -5.2010508632498044e-02 0.0000000000000000e+00  2.9649381017385648e+00 -2.7245817005776184e-02 0.0000000000000000e+00  2.9782427746892641e+00 -4.3094862187989760e-02 0.0000000000000000e+00  2.9652561795544465e+00 -1.6417216920859325e-02 0.0000000000000000e+00  2.9775641633215337e+00 -3.2880336170952193e-02 0.0000000000000000e+00  2.9645361526978280e+00 -1.0611481629406831e-02 0.0000000000000000e+00  2.9779096074282503e+00 -2.5803466167058784e-02 0.0000000000000000e+00  2.9640560181857958e+00 -5.0601133095652404e-03 0.0000000000000000e+00  2.9773085293070047e+00 -2.6127376273450072e-02 0.0000000000000000e+00  2.9646269315018765e+00 -1.6417931651136130e-03 0.0000000000000000e+00  2.9768735476768335e+00 -2.7075431771444843e-02 0.0000000000000000e+00  2.9643468102921151e+00 -3.7547838084900018e-03 0.0000000000000000e+00  2.9774112152117773e+00 -2.8100656438968453e-02 0.0000000000000000e+00  2.9642630378284784e+00 -8.5931924562179431e-03 0.0000000000000000e+00  2.9769471097400615e+00 -2.7412003323576867e-02 0.0000000000000000e+00  2.9653287349560475e+00 -1.6565012295958036e-02 0.0000000000000000e+00  2.9764460285616674e+00 -2.4617213112770282e-02 0.0000000000000000e+00  2.9655026816318277e+00 -2.2818985978726759e-02 0.0000000000000000e+00  2.9769648305967067e+00 -2.0199478831041593e-02 0.0000000000000000e+00  2.9657634526290026e+00 -2.4271574344314300e-02 0.0000000000000000e+00  2.9763641728502028e+00 -1.4296563956190491e-02 0.0000000000000000e+00  2.9672305622903430e+00 -1.9708223202557627e-02 0.0000000000000000e+00  2.9756482863326132e+00 -1.1830179267837642e-02 0.0000000000000000e+00  2.9676852809439991e+00 -1.8868059505989881e-02 0.0000000000000000e+00  2.9759649752179480e+00 -2.8644602116253397e-02 0.0000000000000000e+00  2.9680491901485277e+00 -4.5768839241926235e-02 0.0000000000000000e+00  2.9750786508295013e+00 -6.3530076222176768e-02 0.0000000000000000e+00  2.9693542635337358e+00 -7.3463102173526459e-02 0.0000000000000000e+00  2.9740924997622846e+00 -7.4595549275892209e-02 0.0000000000000000e+00  2.9696010335789795e+00 -6.9017424719379578e-02 0.0000000000000000e+00  2.9742025230853568e+00 -5.2601457911619028e-02 0.0000000000000000e+00  2.9697180806484877e+00 -5.8022094206707682e-02 0.0000000000000000e+00  2.9732242724467022e+00 -2.7908563023426321e-02 0.0000000000000000e+00  2.9707118692199534e+00 0.0000000000000000e+00 0.0000000000000000e+00  1.2943484921180068e+00 0.0000000000000000e+00 4.8267378093049297e-02  1.2943606049337850e+00 4.3937465006167360e-02 2.6387238630254410e-03  1.2921981444932438e+00 3.9878693194879078e-02 -2.5524572964881625e-02  1.2964390187749539e+00 9.0018465544814033e-02 -1.3305986447429334e-03  1.2925257008351012e+00 1.2234789227668585e-01 1.7965194580664676e-02  1.2939704672807189e+00 1.4801973650549902e-01 -2.6292133933230360e-02  1.2946685936739784e+00 1.9956917398593943e-01 2.7068750182094644e-02  1.2940065708840900e+00 2.0462365868189072e-01 -2.3007211497483415e-02  1.2922546593171482e+00 2.7071633294285596e-01 2.2981415814686004e-02  1.2959334546193848e+00 2.7635137096956142e-01 -2.4605204658641033e-02  1.2924111576055339e+00 3.3028031398277663e-01 2.6731582813490005e-02  1.2933916076033851e+00 3.4347257513322249e-01 -2.4092095588431586e-02  1.2943113289414456e+00 4.0244615894290026e-01 2.2066810888892431e-02  1.2935709117474858e+00 4.0649334131309239e-01 -2.3223795020783360e-02  1.2918756232686635e+00 4.6589083029983747e-01 3.0587134685940365e-02  1.2954009897990943e+00 4.7431440083733667e-01 -3.5482077856004025e-02  1.2922793375566630e+00 5.3269748201596201e-01 3.4167927203804634e-02  1.2931534905269264e+00 5.3780127321347582e-01 -2.7196704576507972e-02  1.2942457354107653e+00 5.9784391823348471e-01 2.4132295600123636e-02  1.2936619394818147e+00 6.0378828605175594e-01 -2.5525798239897281e-02  1.2925432976393123e+00 6.5978288558657594e-01 2.6205065081399470e-02  1.2955499891289930e+00 6.7337482901613721e-01 -2.0706318134512385e-02  1.2936943737253204e+00 7.1968753795948104e-01 1.6241018879211387e-02  1.2942244273765975e+00 7.3440935544425201e-01 -1.5119256750643351e-02  1.2962770841141584e+00 7.8482303891008687e-01 1.4899410817946726e-02  1.2959401918542137e+00 7.9926309040785792e-01 -1.0910091991076586e-02  1.2963419254993647e+00 8.3703856927308107e-01 7.7580527464210123e-03  1.2993069954911158e+00 8.6237390965925664e-01 -6.6798403194381099e-03  1.2999275931924505e+00 8.9475491145107278e-01 5.6365586545024469e-03  1.3012582254027620e+00 9.1449964889430957e-01 -3.3524182460396373e-03  1.3056467100780793e+00 9.4786362649409905e-01 2.0841738042686677e-03  1.3074524122079254e+00 9.6612328905595357e-01 -1.8987768148113367e-03  1.3111055114185295e+00 9.8884402880654088e-01 1.0453437604721464e-03  1.3163363562400161e+00 1.0124367233678309e+00 -1.1118702720439193e-04  1.3210567332308227e+00 1.0303874320716788e+00 -2.0567090926454709e-04  1.3254416637345983e+00 1.0442761243782381e+00 -1.6972900438272463e-04  1.3330402925675855e+00 1.0672782974082735e+00 -1.5011389385441857e-04  1.3381052696798696e+00 1.0791962655559921e+00 -4.7552094685703202e-05  1.3443316908320992e+00 1.0950050320860518e+00 1.6582271465658146e-04  1.3512993406522553e+00 1.1128432717693737e+00 -6.5889386991302770e-04  1.3577528594522044e+00 1.1289217825596880e+00 9.5393762180178798e-04  1.3631233631036932e+00 1.1392601989194460e+00 -1.5984601560469721e-03  1.3708400144835107e+00 1.1634595258566063e+00 1.9048659429951791e-03  1.3765721636822665e+00 1.1731015312032227e+00 -2.3616772182892039e-03  1.3826723541754302e+00 1.1917442387707589e+00 2.6207284695564060e-03  1.3895331465808596e+00 1.2073752734181222e+00 -2.9776321889500561e-03  1.3960197436810571e+00 1.2260065156584896e+00 3.1934838841949690e-03  1.4015318871523288e+00 1.2355678264802166e+00 -3.5048734540589384e-03  1.4088055858810165e+00 1.2608008654247598e+00 3.6770551625766382e-03  1.4149184818485423e+00 1.2698490721806330e+00 -3.7589110707445059e-03  1.4207880775944430e+00 1.2895703447393456e+00 3.8854323825580103e-03  1.4276922871153419e+00 1.3044836363014560e+00 -3.9925766603072415e-03  1.4340209010418570e+00 1.3232880469072321e+00 3.9822125737514220e-03  1.4397867222461485e+00 1.3342571418143523e+00 -3.9311353528343048e-03  1.4466768105190295e+00 1.3571825928360972e+00 3.8018293933269358e-03  1.4530300072209961e+00 1.3684816516200959e+00 -3.6603211783362180e-03  1.4587049607769640e+00 1.3865854288397030e+00 3.5081137356758251e-03  1.4658161757619623e+00 1.4023722404311056e+00 -3.4141318311877653e-03  1.4717731678757688e+00 1.4200526801324640e+00 3.1872352258227612e-03  1.4779607030200133e+00 1.4326696571009609e+00 -2.8071730080873368e-03  1.4846311813031194e+00 1.4526308403645076e+00 2.3551810618552185e-03  1.4908420648670380e+00 1.4668423285198393e+00 -1.8053204075911900e-03  1.4969039288331694e+00 1.4818610046601908e+00 1.4290278894380571e-03  1.5036268886796900e+00 1.5001017844699998e+00 -9.8278988879508112e-04  1.5096647740103371e+00 1.5149172722541067e+00 8.0063121134234759e-04  1.5159053883712483e+00 1.5301267357642110e+00 -2.8065146057261469e-04  1.5225470233677352e+00 1.5470184763915884e+00 7.5821743910155757e-05  1.5283925771744375e+00 1.5635167497077080e+00 5.4156584752434826e-04  1.5350468230553451e+00 1.5761557203475633e+00 -5.9746614254162840e-04  1.5410748919688164e+00 1.5962444279961046e+00 1.1648822699099972e-03  1.5475266848345544e+00 1.6084094464650573e+00 -1.0329362881965440e-03  1.5534817035526554e+00 1.6259160526536252e+00 1.6776729994186941e-03  1.5602985688176763e+00 1.6405365255715947e+00 -1.5502213210035153e-03  1.5657505888329470e+00 1.6576977366232029e+00 2.2848510810305812e-03  1.5727866507505113e+00 1.6702717897049766e+00 -2.0994523942671692e-03  1.5784751618774768e+00 1.6894098203669765e+00 2.6954646486622063e-03  1.5848532906621777e+00 1.7015880202924210e+00 -2.4146965429911720e-03  1.5911106203135381e+00 1.7189973890288894e+00 2.7572026415826388e-03  1.5973493480848957e+00 1.7329362696116222e+00 -2.4448936011513744e-03  1.6032707875685863e+00 1.7495216332371020e+00 2.4121358353899488e-03  1.6097131563448228e+00 1.7627879620216833e+00 -2.0168414938613287e-03  1.6160422768885889e+00 1.7797023285003151e+00 