<?xml version="1.0"?>
<VTKFile type="UnstructuredGrid"  version="0.1"  >
<UnstructuredGrid>
<Piece  NumberOfPoints="8241" NumberOfCells="16000">
<Points>
<DataArray  type="Float64"  NumberOfComponents="3"  format="ascii">-5 -1 0  -4.95 -1 0  -4.9 -1 0  -4.85 -1 0  -4.8 -1 0  -4.75 -1 0  -4.7 -1 0  -4.65 -1 0  -4.6 -1 0  -4.55 -1 0  -4.5 -1 0  -4.45 -1 0  -4.4 -1 0  -4.35 -1 0  -4.3 -1 0  -4.25 -1 0  -4.2 -1 0  -4.15 -1 0  -4.1 -1 0  -4.05 -1 0  -4 -1 0  -3.95 -1 0  -3.9 -1 0  -3.85 -1 0  -3.8 -1 0  -3.75 -1 0  -3.7 -1 0  -3.65 -1 0  -3.6 -1 0  -3.55 -1 0  -3.5 -1 0  -3.45 -1 0  -3.4 -1 0  -3.35 -1 0  -3.3 -1 0  -3.25 -1 0  -3.2 -1 0  -3.15 -1 0  -3.1 -1 0  -3.05 -1 0  -3 -1 0  -2.95 -1 0  -2.9 -1 0  -2.85 -1 0  -2.8 -1 0  -2.75 -1 0  -2.7 -1 0  -2.65 -1 0  -2.6 -1 0  -2.55 -1 0  -2.5 -1 0  -2.45 -1 0  -2.4 -1 0  -2.35 -1 0  -2.3 -1 0  -2.25 -1 0  -2.2 -1 0  -2.15 -1 0  -2.1 -1 0  -2.05 -1 0  -2 -1 0  -1.95 -1 0  -1.9 -1 0  -1.85 -1 0  -1.8 -1 0  -1.75 -1 0  -1.7 -1 0  -1.65 -1 0  -1.6 -1 0  -1.55 -1 0  -1.5 -1 0  -1.45 -1 0  -1.4 -1 0  -1.35 -1 0  -1.3 -1 0  -1.25 -1 0  -1.2 -1 0  -1.15 -1 0  -1.1 -1 0  -1.05 -1 0  -1 -1 0  -0.9500000000000002 -1 0  -0.9000000000000004 -1 0  -0.8499999999999996 -1 0  -0.7999999999999998 -1 0  -0.75 -1 0  -0.7000000000000002 -1 0  -0.6500000000000004 -1 0  -0.5999999999999996 -1 0  -0.5499999999999998 -1 0  -0.5 -1 0  -0.4500000000000002 -1 0  -0.4000000000000004 -1 0  -0.3499999999999996 -1 0  -0.2999999999999998 -1 0  -0.25 -1 0  -0.2000000000000002 -1 0  -0.1500000000000004 -1 0  -0.09999999999999964 -1 0  -0.04999999999999982 -1 0  0 -1 0  0.04999999999999982 -1 0  0.09999999999999964 -1 0  0.1500000000000004 -1 0  0.2000000000000002 -1 0  0.25 -1 0  0.2999999999999998 -1 0  0.3499999999999996 -1 0  0.4000000000000004 -1 0  0.4500000000000002 -1 0  0.5 -1 0  0.5499999999999998 -1 0  0.5999999999999996 -1 0  0.6500000000000004 -1 0  0.7000000000000002 -1 0  0.75 -1 0  0.7999999999999998 -1 0  0.8499999999999996 -1 0  0.9000000000000004 -1 0  0.9500000000000002 -1 0  1 -1 0  1.05 -1 0  1.1 -1 0  1.15 -1 0  1.2 -1 0  1.25 -1 0  1.3 -1 0  1.35 -1 0  1.4 -1 0  1.45 -1 0  1.5 -1 0  1.55 -1 0  1.6 -1 0  1.65 -1 0  1.7 -1 0  1.75 -1 0  1.8 -1 0  1.85 -1 0  1.9 -1 0  1.95 -1 0  2 -1 0  2.05 -1 0  2.1 -1 0  2.15 -1 0  2.2 -1 0  2.25 -1 0  2.3 -1 0  2.35 -1 0  2.4 -1 0  2.45 -1 0  2.5 -1 0  2.55 -1 0  2.6 -1 0  2.65 -1 0  2.7 -1 0  2.75 -1 0  2.8 -1 0  2.85 -1 0  2.9 -1 0  2.95 -1 0  3 -1 0  3.050000000000001 -1 0  3.1 -1 0  3.15 -1 0  3.199999999999999 -1 0  3.25 -1 0  3.300000000000001 -1 0  3.35 -1 0  3.4 -1 0  3.449999999999999 -1 0  3.5 -1 0  3.550000000000001 -1 0  3.6 -1 0  3.65 -1 0  3.699999999999999 -1 0  3.75 -1 0  3.800000000000001 -1 0  3.85 -1 0  3.9 -1 0  3.949999999999999 -1 0  4 -1 0  4.050000000000001 -1 0  4.1 -1 0  4.15 -1 0  4.199999999999999 -1 0  4.25 -1 0  4.300000000000001 -1 0  4.35 -1 0  4.4 -1 0  4.449999999999999 -1 0  4.5 -1 0  4.550000000000001 -1 0  4.6 -1 0  4.65 -1 0  4.699999999999999 -1 0  4.75 -1 0  4.800000000000001 -1 0  4.85 -1 0  4.9 -1 0  4.949999999999999 -1 0  5 -1 0  -5 -0.95 0  -4.95 -0.95 0  -4.9 -0.95 0  -4.85 -0.95 0  -4.8 -0.95 0  -4.75 -0.95 0  -4.7 -0.95 0  -4.65 -0.95 0  -4.6 -0.95 0  -4.55 -0.95 0  -4.5 -0.95 0  -4.45 -0.95 0  -4.4 -0.95 0  -4.35 -0.95 0  -4.3 -0.95 0  -4.25 -0.95 0  -4.2 -0.95 0  -4.15 -0.95 0  -4.1 -0.95 0  -4.05 -0.95 0  -4 -0.95 0  -3.95 -0.95 0  -3.9 -0.95 0  -3.85 -0.95 0  -3.8 -0.95 0  -3.75 -0.95 0  -3.7 -0.95 0  -3.65 -0.95 0  -3.6 -0.95 0  -3.55 -0.95 0  -3.5 -0.95 0  -3.45 -0.95 0  -3.4 -0.95 0  -3.35 -0.95 0  -3.3 -0.95 0  -3.25 -0.95 0  -3.2 -0.95 0  -3.15 -0.95 0  -3.1 -0.95 0  -3.05 -0.95 0  -3 -0.95 0  -2.95 -0.95 0  -2.9 -0.95 0  -2.85 -0.95 0  -2.8 -0.95 0  -2.75 -0.95 0  -2.7 -0.95 0  -2.65 -0.95 0  -2.6 -0.95 0  -2.55 -0.95 0  -2.5 -0.95 0  -2.45 -0.95 0  -2.4 -0.95 0  -2.35 -0.95 0  -2.3 -0.95 0  -2.25 -0.95 0  -2.2 -0.95 0  -2.15 -0.95 0  -2.1 -0.95 0  -2.05 -0.95 0  -2 -0.95 0  -1.95 -0.95 0  -1.9 -0.95 0  -1.85 -0.95 0  -1.8 -0.95 0  -1.75 -0.95 0  -1.7 -0.95 0  -1.65 -0.95 0  -1.6 -0.95 0  -1.55 -0.95 0  -1.5 -0.95 0  -1.45 -0.95 0  -1.4 -0.95 0  -1.35 -0.95 0  -1.3 -0.95 0  -1.25 -0.95 0  -1.2 -0.95 0  -1.15 -0.95 0  -1.1 -0.95 0  -1.05 -0.95 0  -1 -0.95 0  -0.9500000000000002 -0.95 0  -0.9000000000000004 -0.95 0  -0.8499999999999996 -0.95 0  -0.7999999999999998 -0.95 0  -0.75 -0.95 0  -0.7000000000000002 -0.95 0  -0.6500000000000004 -0.95 0  -0.5999999999999996 -0.95 0  -0.5499999999999998 -0.95 0  -0.5 -0.95 0  -0.4500000000000002 -0.95 0  -0.4000000000000004 -0.95 0  -0.3499999999999996 -0.95 0  -0.2999999999999998 -0.95 0  -0.25 -0.95 0  -0.2000000000000002 -0.95 0  -0.1500000000000004 -0.95 0  -0.09999999999999964 -0.95 0  -0.04999999999999982 -0.95 0  0 -0.95 0  0.04999999999999982 -0.95 0  0.09999999999999964 -0.95 0  0.1500000000000004 -0.95 0  0.2000000000000002 -0.95 0  0.25 -0.95 0  0.2999999999999998 -0.95 0  0.3499999999999996 -0.95 0  0.4000000000000004 -0.95 0  0.4500000000000002 -0.95 0  0.5 -0.95 0  0.5499999999999998 -0.95 0  0.5999999999999996 -0.95 0  0.6500000000000004 -0.95 0  0.7000000000000002 -0.95 0  0.75 -0.95 0  0.7999999999999998 -0.95 0  0.8499999999999996 -0.95 0  0.9000000000000004 -0.95 0  0.9500000000000002 -0.95 0  1 -0.95 0  1.05 -0.95 0  1.1 -0.95 0  1.15 -0.95 0  1.2 -0.95 0  1.25 -0.95 0  1.3 -0.95 0  1.35 -0.95 0  1.4 -0.95 0  1.45 -0.95 0  1.5 -0.95 0  1.55 -0.95 0  1.6 -0.95 0  1.65 -0.95 0  1.7 -0.95 0  1.75 -0.95 0  1.8 -0.95 0  1.85 -0.95 0  1.9 -0.95 0  1.95 -0.95 0  2 -0.95 0  2.05 -0.95 0  2.1 -0.95 0  2.15 -0.95 0  2.2 -0.95 0  2.25 -0.95 0  2.3 -0.95 0  2.35 -0.95 0  2.4 -0.95 0  2.45 -0.95 0  2.5 -0.95 0  2.55 -0.95 0  2.6 -0.95 0  2.65 -0.95 0  2.7 -0.95 0  2.75 -0.95 0  2.8 -0.95 0  2.85 -0.95 0  2.9 -0.95 0  2.95 -0.95 0  3 -0.95 0  3.050000000000001 -0.95 0  3.1 -0.95 0  3.15 -0.95 0  3.199999999999999 -0.95 0  3.25 -0.95 0  3.300000000000001 -0.95 0  3.35 -0.95 0  3.4 -0.95 0  3.449999999999999 -0.95 0  3.5 -0.95 0  3.550000000000001 -0.95 0  3.6 -0.95 0  3.65 -0.95 0  3.699999999999999 -0.95 0  3.75 -0.95 0  3.800000000000001 -0.95 0  3.85 -0.95 0  3.9 -0.95 0  3.949999999999999 -0.95 0  4 -0.95 0  4.050000000000001 -0.95 0  4.1 -0.95 0  4.15 -0.95 0  4.199999999999999 -0.95 0  4.25 -0.95 0  4.300000000000001 -0.95 0  4.35 -0.95 0  4.4 -0.95 0  4.449999999999999 -0.95 0  4.5 -0.95 0  4.550000000000001 -0.95 0  4.6 -0.95 0  4.65 -0.95 0  4.699999999999999 -0.95 0  4.75 -0.95 0  4.800000000000001 -0.95 0  4.85 -0.95 0  4.9 -0.95 0  4.949999999999999 -0.95 0  5 -0.95 0  -5 -0.9 0  -4.95 -0.9 0  -4.9 -0.9 0  -4.85 -0.9 0  -4.8 -0.9 0  -4.75 -0.9 0  -4.7 -0.9 0  -4.65 -0.9 0  -4.6 -0.9 0  -4.55 -0.9 0  -4.5 -0.9 0  -4.45 -0.9 0  -4.4 -0.9 0  -4.35 -0.9 0  -4.3 -0.9 0  -4.25 -0.9 0  -4.2 -0.9 0  -4.15 -0.9 0  -4.1 -0.9 0  -4.05 -0.9 0  -4 -0.9 0  -3.95 -0.9 0  -3.9 -0.9 0  -3.85 -0.9 0  -3.8 -0.9 0  -3.75 -0.9 0  -3.7 -0.9 0  -3.65 -0.9 0  -3.6 -0.9 0  -3.55 -0.9 0  -3.5 -0.9 0  -3.45 -0.9 0  -3.4 -0.9 0  -3.35 -0.9 0  -3.3 -0.9 0  -3.25 -0.9 0  -3.2 -0.9 0  -3.15 -0.9 0  -3.1 -0.9 0  -3.05 -0.9 0  -3 -0.9 0  -2.95 -0.9 0  -2.9 -0.9 0  -2.85 -0.9 0  -2.8 -0.9 0  -2.75 -0.9 0  -2.7 -0.9 0  -2.65 -0.9 0  -2.6 -0.9 0  -2.55 -0.9 0  -2.5 -0.9 0  -2.45 -0.9 0  -2.4 -0.9 0  -2.35 -0.9 0  -2.3 -0.9 0  -2.25 -0.9 0  -2.2 -0.9 0  -2.15 -0.9 0  -2.1 -0.9 0  -2.05 -0.9 0  -2 -0.9 0  -1.95 -0.9 0  -1.9 -0.9 0  -1.85 -0.9 0  -1.8 -0.9 0  -1.75 -0.9 0  -1.7 -0.9 0  -1.65 -0.9 0  -1.6 -0.9 0  -1.55 -0.9 0  -1.5 -0.9 0  -1.45 -0.9 0  -1.4 -0.9 0  -1.35 -0.9 0  -1.3 -0.9 0  -1.25 -0.9 0  -1.2 -0.9 0  -1.15 -0.9 0  -1.1 -0.9 0  -1.05 -0.9 0  -1 -0.9 0  -0.9500000000000002 -0.9 0  -0.9000000000000004 -0.9 0  -0.8499999999999996 -0.9 0  -0.7999999999999998 -0.9 0  -0.75 -0.9 0  -0.7000000000000002 -0.9 0  -0.6500000000000004 -0.9 0  -0.5999999999999996 -0.9 0  -0.5499999999999998 -0.9 0  -0.5 -0.9 0  -0.4500000000000002 -0.9 0  -0.4000000000000004 -0.9 0  -0.3499999999999996 -0.9 0  -0.2999999999999998 -0.9 0  -0.25 -0.9 0  -0.2000000000000002 -0.9 0  -0.1500000000000004 -0.9 0  -0.09999999999999964 -0.9 0  -0.04999999999999982 -0.9 0  0 -0.9 0  0.04999999999999982 -0.9 0  0.09999999999999964 -0.9 0  0.1500000000000004 -0.9 0  0.2000000000000002 -0.9 0  0.25 -0.9 0  0.2999999999999998 -0.9 0  0.3499999999999996 -0.9 0  0.4000000000000004 -0.9 0  0.4500000000000002 -0.9 0  0.5 -0.9 0  0.5499999999999998 -0.9 0  0.5999999999999996 -0.9 0  0.6500000000000004 -0.9 0  0.7000000000000002 -0.9 0  0.75 -0.9 0  0.7999999999999998 -0.9 0  0.8499999999999996 -0.9 0  0.9000000000000004 -0.9 0  0.9500000000000002 -0.9 0  1 -0.9 0  1.05 -0.9 0  1.1 -0.9 0  1.15 -0.9 0  1.2 -0.9 0  1.25 -0.9 0  1.3 -0.9 0  1.35 -0.9 0  1.4 -0.9 0  1.45 -0.9 0  1.5 -0.9 0  1.55 -0.9 0  1.6 -0.9 0  1.65 -0.9 0  1.7 -0.9 0  1.75 -0.9 0  1.8 -0.9 0  1.85 -0.9 0  1.9 -0.9 0  1.95 -0.9 0  2 -0.9 0  2.05 -0.9 0  2.1 -0.9 0  2.15 -0.9 0  2.2 -0.9 0  2.25 -0.9 0  2.3 -0.9 0  2.35 -0.9 0  2.4 -0.9 0  2.45 -0.9 0  2.5 -0.9 0  2.55 -0.9 0  2.6 -0.9 0  2.65 -0.9 0  2.7 -0.9 0  2.75 -0.9 0  2.8 -0.9 0  2.85 -0.9 0  2.9 -0.9 0  2.95 -0.9 0  3 -0.9 0  3.050000000000001 -0.9 0  3.1 -0.9 0  3.15 -0.9 0  3.199999999999999 -0.9 0  3.25 -0.9 0  3.300000000000001 -0.9 0  3.35 -0.9 0  3.4 -0.9 0  3.449999999999999 -0.9 0  3.5 -0.9 0  3.550000000000001 -0.9 0  3.6 -0.9 0  3.65 -0.9 0  3.699999999999999 -0.9 0  3.75 -0.9 0  3.800000000000001 -0.9 0  3.85 -0.9 0  3.9 -0.9 0  3.949999999999999 -0.9 0  4 -0.9 0  4.050000000000001 -0.9 0  4.1 -0.9 0  4.15 -0.9 0  4.199999999999999 -0.9 0  4.25 -0.9 0  4.300000000000001 -0.9 0  4.35 -0.9 0  4.4 -0.9 0  4.449999999999999 -0.9 0  4.5 -0.9 0  4.550000000000001 -0.9 0  4.6 -0.9 0  4.65 -0.9 0  4.699999999999999 -0.9 0  4.75 -0.9 0  4.800000000000001 -0.9 0  4.85 -0.9 0  4.9 -0.9 0  4.949999999999999 -0.9 0  5 -0.9 0  -5 -0.85 0  -4.95 -0.85 0  -4.9 -0.85 0  -4.85 -0.85 0  -4.8 -0.85 0  -4.75 -0.85 0  -4.7 -0.85 0  -4.65 -0.85 0  -4.6 -0.85 0  -4.55 -0.85 0  -4.5 -0.85 0  -
[...]
<PointData  Vectors="f_15"> 
<DataArray  type="Float64"  Name="f_15"  NumberOfComponents="3" format="ascii">6.5448539439722548e+00 0.0000000000000000e+00 0.0000000000000000e+00  6.5441617790852229e+00 8.5198392644492998e-02 0.0000000000000000e+00  6.5443308320298490e+00 1.6765002612405350e-01 0.0000000000000000e+00  6.5427202907274573e+00 2.5348443405833704e-01 0.0000000000000000e+00  6.5425390041556533e+00 3.3569635739992443e-01 0.0000000000000000e+00  6.5402364855381041e+00 4.2138247201105783e-01 0.0000000000000000e+00  6.5393274316653240e+00 5.0356831528979606e-01 0.0000000000000000e+00  6.5364596353937863e+00 5.8894210129570801e-01 0.0000000000000000e+00  6.5350453521001199e+00 6.7132084570906336e-01 0.0000000000000000e+00  6.5312486649065837e+00 7.5653388969644486e-01 0.0000000000000000e+00  6.5294121032276555e+00 8.3702502183244953e-01 0.0000000000000000e+00  6.5249645019104392e+00 9.2680497806503959e-01 0.0000000000000000e+00  6.5222599449830962e+00 9.9938749321276876e-01 0.0000000000000000e+00  6.5173185044217874e+00 1.0961829625826216e+00 0.0000000000000000e+00  6.5139728728994406e+00 1.1672969988170760e+00 0.0000000000000000e+00  6.5080493534847390e+00 1.2540512574480793e+00 0.0000000000000000e+00  6.5043779197791460e+00 1.3448091395350439e+00 0.0000000000000000e+00  6.4974307042254136e+00 1.4084091398677587e+00 0.0000000000000000e+00  6.4931742054148653e+00 1.5140162825837125e+00 0.0000000000000000e+00  6.4854522870042866e+00 1.5748286652271930e+00 0.0000000000000000e+00  6.4804142133458553e+00 1.6733961627291398e+00 0.0000000000000000e+00  6.4719316120878183e+00 1.7399304225889678e+00 0.0000000000000000e+00  6.4660917371714559e+00 1.8375539892022572e+00 0.0000000000000000e+00  6.4568053289990601e+00 1.9012298694258329e+00 0.0000000000000000e+00  6.4500894405534561e+00 1.9966558501973506e+00 0.0000000000000000e+00  6.4400335764783234e+00 2.0667528109887239e+00 0.0000000000000000e+00  6.4323944990154374e+00 2.1541316255980689e+00 0.0000000000000000e+00  6.4213815365332403e+00 2.2264077329518055e+00 0.0000000000000000e+00  6.4129921460543526e+00 2.3134267003663753e+00 0.0000000000000000e+00  6.4009185448271948e+00 2.3857962616630850e+00 0.0000000000000000e+00  6.3915158966885404e+00 2.4686186982108018e+00 0.0000000000000000e+00  6.3786758986926930e+00 2.5431076187694401e+00 0.0000000000000000e+00  6.3680325860651799e+00 2.6244926030553652e+00 0.0000000000000000e+00  6.3543067532470543e+00 2.6977092108528136e+00 0.0000000000000000e+00  6.3425098648020759e+00 2.7770762280164103e+00 0.0000000000000000e+00  6.3278712361377156e+00 2.8514235919544353e+00 0.0000000000000000e+00  6.3146722077660877e+00 2.9279799392829435e+00 0.0000000000000000e+00  6.2993096642785984e+00 3.0022106768217274e+00 0.0000000000000000e+00  6.2845040053389951e+00 3.0767864781468375e+00 0.0000000000000000e+00  6.2684280633358886e+00 3.1504178042101101e+00 0.0000000000000000e+00  6.2519736601920304e+00 3.2238265745193355e+00 0.0000000000000000e+00  6.2351411701226631e+00 3.2957564094301532e+00 0.0000000000000000e+00  6.2169139996992904e+00 3.3679122025983963e+00 0.0000000000000000e+00  6.1995060190184788e+00 3.4389398131936804e+00 0.0000000000000000e+00  6.1791510365569486e+00 3.5090069426800707e+00 0.0000000000000000e+00  6.1614373376438119e+00 3.5795070119600361e+00 0.0000000000000000e+00  6.1387780399103304e+00 3.6469808404731183e+00 0.0000000000000000e+00  6.1207158034805369e+00 3.7172766795772727e+00 0.0000000000000000e+00  6.0957872929499981e+00 3.7818678532828405e+00 0.0000000000000000e+00  6.0775120050813811e+00 3.8523207527793297e+00 0.0000000000000000e+00  6.0498853842636686e+00 3.9132874329213063e+00 0.0000000000000000e+00  6.0319144569782353e+00 3.9844747886841239e+00 0.0000000000000000e+00  6.0013454535647668e+00 4.0416908479132605e+00 0.0000000000000000e+00  5.9835530280430085e+00 4.1132929240933951e+00 0.0000000000000000e+00  5.9503469573098808e+00 4.1669039071356613e+00 0.0000000000000000e+00  5.9328445105458281e+00 4.2396699590999063e+00 0.0000000000000000e+00  5.8964127226440421e+00 4.2879440371459889e+00 0.0000000000000000e+00  5.8800699996641983e+00 4.3636993926052714e+00 0.0000000000000000e+00  5.8401178010335437e+00 4.4060894052104276e+00 0.0000000000000000e+00  5.8246551828610151e+00 4.4840937345758327e+00 0.0000000000000000e+00  5.7818056537968356e+00 4.5216705798353924e+00 0.0000000000000000e+00  5.7673557086066927e+00 4.6021134837320066e+00 0.0000000000000000e+00  5.7208197879511076e+00 4.6334137889553642e+00 0.0000000000000000e+00  5.7085130204718535e+00 4.7181941389847726e+00 0.0000000000000000e+00  5.6581467182209080e+00 4.7429440328821553e+00 0.0000000000000000e+00  5.6473445605150090e+00 4.8304656484882500e+00 0.0000000000000000e+00  5.5941110506168661e+00 4.8511738916029818e+00 0.0000000000000000e+00  5.5851074241549767e+00 4.9407705549499710e+00 0.0000000000000000e+00  5.5277133257800690e+00 4.9557365618855780e+00 0.0000000000000000e+00  5.5220998115922697e+00 5.0501980162291593e+00 0.0000000000000000e+00  5.4606095343110432e+00 5.0590106413356182e+00 0.0000000000000000e+00  5.4568153096446901e+00 5.1558204609679015e+00 0.0000000000000000e+00  5.3933456787345300e+00 5.1620490325229751e+00 0.0000000000000000e+00  5.3911177285986369e+00 5.2604763893560786e+00 0.0000000000000000e+00  5.3239976306291492e+00 5.2617494105492035e+00 0.0000000000000000e+00  5.3255784579581187e+00 5.3647831443372942e+00 0.0000000000000000e+00  5.2549549684563974e+00 5.3614999311409841e+00 0.0000000000000000e+00  5.2575647426673697e+00 5.4654116556287304e+00 0.0000000000000000e+00  5.1869640565865343e+00 5.4618605532260798e+00 0.0000000000000000e+00  5.1898677938207847e+00 5.5656105841042569e+00 0.0000000000000000e+00  5.1168635451624933e+00 5.5597755170487613e+00 0.0000000000000000e+00  5.1229825743319664e+00 5.6658088620764087e+00 0.0000000000000000e+00  5.0480837201433095e+00 5.6585634278529309e+00 0.0000000000000000e+00  5.0532842376161087e+00 5.7627545630848420e+00 0.0000000000000000e+00  4.9808656436866805e+00 5.7588512971995574e+00 0.0000000000000000e+00  4.9850062080568494e+00 5.8593042232197208e+00 0.0000000000000000e+00  4.9111910424228409e+00 5.8571225464029393e+00 0.0000000000000000e+00  4.9178241359626469e+00 5.9567428135497948e+00 0.0000000000000000e+00  4.8436948762277856e+00 5.9561648459033929e+00 0.0000000000000000e+00  4.8478961529134876e+00 6.0512941140260885e+00 0.0000000000000000e+00  4.7774056574703838e+00 6.0571866263391172e+00 0.0000000000000000e+00  4.7800880465737681e+00 6.1464917010552220e+00 0.0000000000000000e+00  4.7094659090213362e+00 6.1544593237355096e+00 0.0000000000000000e+00  4.7134482396770636e+00 6.2430957528716053e+00 0.0000000000000000e+00  4.6428583644746606e+00 6.2538616821384956e+00 0.0000000000000000e+00  4.6434966287076911e+00 6.3402280040971419e+00 0.0000000000000000e+00  4.5771936720707957e+00 6.3521009902005181e+00 0.0000000000000000e+00  4.5821852029669161e+00 6.4314960762171740e+00 0.0000000000000000e+00  4.5086609836181877e+00 6.4500979571973831e+00 0.0000000000000000e+00  4.5142113824740955e+00 6.5307367710709761e+00 0.0000000000000000e+00  4.4447999425931108e+00 6.5489656364290090e+00 0.0000000000000000e+00  4.4522437135547266e+00 6.6190552623714272e+00 0.0000000000000000e+00  4.3782260153200019e+00 6.6457224463545872e+00 0.0000000000000000e+00  4.3865438413951319e+00 6.7255092490810027e+00 0.0000000000000000e+00  4.3114716688277221e+00 6.7398977157313533e+00 0.0000000000000000e+00  4.3225206597656962e+00 6.8186128963758463e+00 0.0000000000000000e+00  4.2470496438027681e+00 6.8485235780694165e+00 0.0000000000000000e+00  4.2577388127375624e+00 6.9077480661106989e+00 0.0000000000000000e+00  4.1851585911243658e+00 6.9412268842866389e+00 0.0000000000000000e+00  4.1990788607994771e+00 7.0105964279107091e+00 0.0000000000000000e+00  4.1193195527193094e+00 7.0300329504081596e+00 0.0000000000000000e+00  4.1363174143738961e+00 7.1059942895076675e+00 0.0000000000000000e+00  4.0584281449649877e+00 7.1398146242141864e+00 0.0000000000000000e+00  4.0749350419959054e+00 7.1811484183411505e+00 0.0000000000000000e+00  3.9970235035296593e+00 7.2491370706622948e+00 0.0000000000000000e+00  4.0151292015670146e+00 7.2726989424164126e+00 0.0000000000000000e+00  3.9374972837615392e+00 7.3367759419647438e+00 0.0000000000000000e+00  3.9555821627819561e+00 7.3713064359809870e+00 0.0000000000000000e+00  3.8809775909300011e+00 7.4285118601846909e+00 0.0000000000000000e+00  3.8983831723727715e+00 7.4532499723765904e+00 0.0000000000000000e+00  3.8289711386772827e+00 7.5231061769548875e+00 0.0000000000000000e+00  3.8431750031853045e+00 7.5301194379150020e+00 0.0000000000000000e+00  3.7854665617935601e+00 7.6014885266793533e+00 0.0000000000000000e+00  3.8727704276698076e+00 7.4798003882945290e+00 0.0000000000000000e+00  3.8852365715706103e+00 7.4432451251432576e+00 0.0000000000000000e+00  3.9501030639045016e+00 7.3608359914426691e+00 0.0000000000000000e+00  3.9215371582630536e+00 7.3789058355918877e+00 0.0000000000000000e+00  3.9631143566241209e+00 7.3464070633887557e+00 0.0000000000000000e+00  3.9281660847159023e+00 7.3682624237169785e+00 0.0000000000000000e+00  3.9669084728258310e+00 7.3343183418530726e+00 0.0000000000000000e+00  3.9332477304937301e+00 7.3682441699551529e+00 0.0000000000000000e+00  3.9725692501393048e+00 7.3201725229865655e+00 0.0000000000000000e+00  3.9354515048872902e+00 7.3681722775313947e+00 0.0000000000000000e+00  3.9745294304117413e+00 7.3146974967557643e+00 0.0000000000000000e+00  3.9400940087962972e+00 7.3649287918654149e+00 0.0000000000000000e+00  3.9717020153880500e+00 7.3152936286527481e+00 0.0000000000000000e+00  3.9444248446328460e+00 7.3592369424212984e+00 0.0000000000000000e+00  3.9721002160583514e+00 7.3174338412577598e+00 0.0000000000000000e+00  3.9441750415891454e+00 7.3554228544210920e+00 0.0000000000000000e+00  3.9733105817559293e+00 7.3176919527055801e+00 0.0000000000000000e+00  3.9454389194115347e+00 7.3538431910240440e+00 0.0000000000000000e+00  3.9726560224645349e+00 7.3177217698654449e+00 0.0000000000000000e+00  3.9469510638129135e+00 7.3509779215392239e+00 0.0000000000000000e+00  3.9727209191338240e+00 7.3194496404275498e+00 0.0000000000000000e+00  3.9481387866247997e+00 7.3487699119326990e+00 0.0000000000000000e+00  3.9708802093609163e+00 7.3195973777210597e+00 0.0000000000000000e+00  3.9514809082978459e+00 7.3479751876426613e+00 0.0000000000000000e+00  3.9681862729087740e+00 7.3210915551267428e+00 0.0000000000000000e+00  3.9536252925562443e+00 7.3438090718676330e+00 0.0000000000000000e+00  3.9665834638423165e+00 7.3259655775052828e+00 0.0000000000000000e+00  3.9563633536222138e+00 7.3393654632392593e+00 0.0000000000000000e+00  3.9629649499349981e+00 7.3274939267542702e+00 0.0000000000000000e+00  3.9599965987063186e+00 7.3396473083160041e+00 0.0000000000000000e+00  3.9611623520878765e+00 7.3266549143605841e+00 0.0000000000000000e+00  3.9596320532422671e+00 7.3389767530823748e+00 0.0000000000000000e+00  3.9623006582368037e+00 7.3284040517397351e+00 0.0000000000000000e+00  3.9600721892101558e+00 7.3368659585675315e+00 0.0000000000000000e+00  3.9596445350643710e+00 7.3291535145491604e+00 0.0000000000000000e+00  3.9647901780422719e+00 7.3357296082312082e+00 0.0000000000000000e+00  3.9550290668312145e+00 7.3312986746786120e+00 0.0000000000000000e+00  3.9688343154907053e+00 7.3315776813717575e+00 0.0000000000000000e+00  3.9515447880663142e+00 7.3352427151329866e+00 0.0000000000000000e+00  3.9732023813399930e+00 7.3291537912736722e+00 0.0000000000000000e+00  3.9464679768863293e+00 7.3358354729055142e+00 0.0000000000000000e+00  3.9778756349555815e+00 7.3275965400664145e+00 0.0000000000000000e+00  3.9452717676941531e+00 7.3405001241769421e+00 0.0000000000000000e+00  3.9729401198373551e+00 7.3191807022868964e+00 0.0000000000000000e+00  3.9562610242531191e+00 7.3525444499070023e+00 0.0000000000000000e+00  3.9551670955330187e+00 7.3064783057055385e+00 0.0000000000000000e+00  3.9716882954417430e+00 7.3710718051369284e+00 0.0000000000000000e+00  3.9338099713917853e+00 7.2883184585622915e+00 0.0000000000000000e+00  3.9842788043692376e+00 7.4060304803054713e+00 0.0000000000000000e+00  3.9030487939696172e+00 7.2395696946754535e+00 0.0000000000000000e+00  4.0192577312277873e+00 7.5068418688976468e+00 0.0000000000000000e+00  3.8536919399597789e+00 7.0449389697895919e+00 0.0000000000000000e+00  4.0245112956029896e+00 7.8694961459304107e+00 0.0000000000000000e+00  4.0470352301994117e+00 6.3262405437404423e+00 0.0000000000000000e+00  3.3813232227276253e+00 9.1643556601213092e+00 0.0000000000000000e+00  6.6275701937125460e+00 2.8302148651006940e+00 0.0000000000000000e+00  9.3591077646718901e+00 1.8331974161591280e-01 0.0000000000000000e+00  9.5561607979434893e+00 -3.4206173220998885e-02 0.0000000000000000e+00  9.4022087230057618e+00 -5.8670534650697350e-03 0.0000000000000000e+00  9.4998029278054918e+00 -4.3298620614872226e-02 0.0000000000000000e+00  9.4811821629335000e+00 -4.6812600255614782e-02 0.0000000000000000e+00  9.4991982893815496e+00 -6.8364789860750494e-02 0.0000000000000000e+00  9.4981475863806946e+00 -7.5892610491953852e-02 0.0000000000000000e+00  9.4854097711279746e+00 -6.6661288751297065e-02 0.0000000000000000e+00  9.4927810771040804e+00 -9.2065866725624335e-02 0.0000000000000000e+00  9.4948275132950375e+00 -9.6432151167866700e-02 0.0000000000000000e+00  9.4937944535981771e+00 -1.1193153714874442e-01 0.0000000000000000e+00  9.4901958211831055e+00 -1.0666181140625894e-01 0.0000000000000000e+00  9.4939011844375951e+00 -1.2382866057482282e-01 0.0000000000000000e+00  9.4909262889037986e+00 -1.0730539287834824e-01 0.0000000000000000e+00  9.4947892312183644e+00 -1.1296365943419191e-01 0.0000000000000000e+00  9.4890500266846356e+00 -1.0072023639295076e-01 0.0000000000000000e+00  9.4953733119087911e+00 -9.5213070774028324e-02 0.0000000000000000e+00  9.4889093972721650e+00 -9.4386984744899816e-02 0.0000000000000000e+00  9.4950309787767804e+00 -7.3544400059463139e-02 0.0000000000000000e+00  9.4890416176749905e+00 -1.1052146922438619e-01 0.0000000000000000e+00  9.4952847329297896e+00 -2.9468350416279061e-02 0.0000000000000000e+00  9.4881629037112951e+00 0.0000000000000000e+00 0.0000000000000000e+00  6.5441843132520141e+00 0.0000000000000000e+00 1.4496587101202843e-03  6.5441053582902429e+00 8.2914248637044344e-02 -1.4035944213536271e-03  6.5434517645589247e+00 1.6850928521760575e-01 1.7724141685723617e-03  6.5429348252592447e+00 2.5089014062888593e-01 -2.0706071353160786e-03  6.5416573116195114e+00 3.3686550408195787e-01 2.1986268781775745e-03  6.5403353312951458e+00 4.1874902281482146e-01 -2.2505189794173905e-03  6.5385647688651876e+00 5.0488492192335277e-01 2.3039736899333999e-03  6.5366602812493859e+00 5.8661399432314487e-01 -2.3399173912879707e-03  6.5340296312107267e+00 6.7259437215142825e-01 2.3704241608908366e-03  6.5316460974617456e+00 7.5358437527081712e-01 -2.2782241847925776e-03  6.5284040546466091e+00 8.4109259986557650e-01 2.2208308686760244e-03  6.5251501793191826e+00 9.1911862083401596e-01 -2.3409193765658101e-03  6.5213818874902341e+00 1.0086650588691235e+00 2.9658686314906059e-03  6.5175647083786217e+00 1.0869275351887899e+00 -4.0005717916676278e-03  6.5127617019709927e+00 1.1713886473888035e+00 5.0077279318802145e-03  6.5085828244133150e+00 1.2571659981207393e+00 -5.0707998567224872e-03  6.5030103160819319e+00 1.3345028745555010e+00 3.6541554200290017e-03  6.4977945400970167e+00 1.4212326089775287e+00 -8.9226251278433225e-04  6.4920623524384276e+00 1.5029794021736143e+00 -2.0554416820677936e-03  6.4854770724961419e+00 1.5828010995645561e+00 4.1625101340571034e-03  6.4794739002159565e+00 1.6657419170810366e+00 -4.9874819178656118e-03  6.4718121920513321e+00 1.7505375735182569e+00 4.9657452255191855e-03  6.4651233905617627e+00 1.8249087099533752e+00 -4.3947913435188109e-03  6.4566999940683321e+00 1.9123296322720464e+00 3.2625522199896738e-03  6.4489648822234971e+00 1.9905835190041954e+00 -1.4864866739402786e-03  6.4400594970046141e+00 2.0694985711434950e+00 -2.8798002746033171e-04  6.4309878749418043e+00 2.1519823680542705e+00 1.1891940453128880e-03  6.4216107682535251e+00 2.2299407358536136e+00 -1.0247307594341319e-03  6.4113891515980148e+00 2.3105714345978980e+00 5.7000926178784532e-04  6.4010772278808981e+00 2.3872187362943778e+00 -5.5700599165493575e-04  6.3900255053678086e+00 2.4683070079826468e+00 8.6348317537901737e-04  6.3786342491744117e+00 2.5442561446529712e+00 -9.3427459730762016e-04  6.3665437612441984e+00 2.6229338832341753e+00 6.8297526597576610e-04  6.3542415770952418e+00 2.6987641071363999e+00 -5.4954182341150040e-04  6.3409865165923494e+00 2.7770336533614697e+00 6.9489154138115551e-04  6.3276408003914808e+00 2.8509921680579500e+00 -8.6810038194884919e-04  6.3132988623061612e+00 2.9282799509833946e+00 8.1180228676816177e-04  6.2988123803201939e+00 3.0014978739273235e+00 -7.1081739932726091e-04  6.2832711778968493e+00 3.0771982482912863e+00 7.0665948484649639e-04  6.2677338078762714e+00 3.1497761927977286e+00 -7.7856314645413822e-04  6.2508222542571055e+00 3.2235830783521515e+00 7.7039155182365160e-04  6.2342305391162487e+00 3.2951403770837477e+00 -7.6358057929967694e-04  6.2159823300524604e+00 3.3678939910535197e+00 7.7467093392367015e-04  6.1981616393669174e+00 3.4376922877403202e+00 -7.9967197015842686e-04  6.1786409256615302e+00 3.5092820167359471e+00 7.4855323670356842e-04  6.1595936880524089e+00 3.5775498442441278e+00 -6.9506812089361008e-04  6.1386145488576469e+00 3.6477027599534302e+00 6.3126267696081569e-04  6.1184825049369529e+00 3.7145942987080054e+00 -5.7079246805478599e-04  6.0960516653743175e+00 3.7831442428226438e+00 4.5093287179469977e-04  6.0745644031243025e+00 3.8484929754961090e+00 -3.2360077183162602e-04  6.0510044997000119e+00 3.9154724772773148e+00 1.7493191682015554e-04  6.0280869309103551e+00 3.9796036869521925e+00 -6.8139016039853534e-05  6.0031292962966702e+00 4.0444028531406397e+00 -3.4946871822358305e-05  5.9792012025909536e+00 4.1076010920930504e+00 1.1727211746317291e-04  5.9527981390733125e+00 4.1706033672000240e+00 -2.4765589560970180e-04  5.9274724829389536e+00 4.2319094532611619e+00 3.6632153195801395e-04  5.9002610855513096e+00 4.2940051162245245e+00 -4.9467882843513193e-04  5.8734275495435293e+00 4.3535836668372090e+00 5.7799063809558290e-04  5.8449761187480869e+00 4.4136076140987415e+00 -6.6436075457024409e-04  5.8174092039780962e+00 4.4726939386245084e+00 7.0187284122237093e-04  5.7876215319591644e+00 4.5307891882710853e+00 -7.4570940854038045e-04  5.7588096069777999e+00 4.5880326059769159e+00 7.6224506795254750e-04  5.7285460297677888e+00 4.6458603276322243e+00 -7.9405770359151332e-04  5.6985257826949693e+00 4.7010729248847110e+00 7.8693861400408449e-04  5.6670299990920974e+00 4.7573154282571917e+00 -7.7434168925989461e-04  5.6368856689781266e+00 4.8124688958564033e+00 7.2517547940034255e-04  5.6042347296538395e+00 4.8668743255024829e+00 -6.9672360066910148e-04  5.5729758290980236e+00 4.9201875339991101e+00 6.5354243148364884e-04  5.5404720419881812e+00 4.9755337331569702e+00 -6.1812592229094790e-04  5.5082790721850863e+00 5.0262898495772630e+00 5.4699322199889481e-04  5.4744664869926032e+00 5.0807077989134957e+00 -4.8986207129184871e-04  5.4431951646153358e+00 5.1318863014821083e+00 4.2682473528335560e-04  5.4080337133141176e+00 5.1849178385523862e+00 -3.9901964406177973e-04  5.3759237444914634e+00 5.2340864836563785e+00 3.5820436921924669e-04  5.3417655385382652e+00 5.2889360000702688e+00 -3.2999156281687570e-04  5.3085828836205566e+00 5.3359983435164278e+00 2.8880613392401658e-04  5.2733102286953883e+00 5.3896390631263600e+00 -2.5328232423291110e-04  5.2418607625100515e+00 5.4381304094538576e+00 1.9134382018172103e-04  5.2052307549648900e+00 5.4903651965059472e+00 -1.1898183271369665e-04  5.1728263824092098e+00 5.5373329685260595e+00 2.1030872268820358e-05  5.1381506853880765e+00 5.5915089310097903e+00 8.0503794739232375e-05  5.1046811099273679e+00 5.6367401380115512e+00 -2.0899411081925628e-04  5.0686267152253084e+