<?xml version="1.0"?>
<VTKFile type="UnstructuredGrid"  version="0.1"  >
<UnstructuredGrid>
<Piece  NumberOfPoints="8241" NumberOfCells="16000">
<Points>
<DataArray  type="Float64"  NumberOfComponents="3"  format="ascii">-5 -1 0  -4.95 -1 0  -4.9 -1 0  -4.85 -1 0  -4.8 -1 0  -4.75 -1 0  -4.7 -1 0  -4.65 -1 0  -4.6 -1 0  -4.55 -1 0  -4.5 -1 0  -4.45 -1 0  -4.4 -1 0  -4.35 -1 0  -4.3 -1 0  -4.25 -1 0  -4.2 -1 0  -4.15 -1 0  -4.1 -1 0  -4.05 -1 0  -4 -1 0  -3.95 -1 0  -3.9 -1 0  -3.85 -1 0  -3.8 -1 0  -3.75 -1 0  -3.7 -1 0  -3.65 -1 0  -3.6 -1 0  -3.55 -1 0  -3.5 -1 0  -3.45 -1 0  -3.4 -1 0  -3.35 -1 0  -3.3 -1 0  -3.25 -1 0  -3.2 -1 0  -3.15 -1 0  -3.1 -1 0  -3.05 -1 0  -3 -1 0  -2.95 -1 0  -2.9 -1 0  -2.85 -1 0  -2.8 -1 0  -2.75 -1 0  -2.7 -1 0  -2.65 -1 0  -2.6 -1 0  -2.55 -1 0  -2.5 -1 0  -2.45 -1 0  -2.4 -1 0  -2.35 -1 0  -2.3 -1 0  -2.25 -1 0  -2.2 -1 0  -2.15 -1 0  -2.1 -1 0  -2.05 -1 0  -2 -1 0  -1.95 -1 0  -1.9 -1 0  -1.85 -1 0  -1.8 -1 0  -1.75 -1 0  -1.7 -1 0  -1.65 -1 0  -1.6 -1 0  -1.55 -1 0  -1.5 -1 0  -1.45 -1 0  -1.4 -1 0  -1.35 -1 0  -1.3 -1 0  -1.25 -1 0  -1.2 -1 0  -1.15 -1 0  -1.1 -1 0  -1.05 -1 0  -1 -1 0  -0.9500000000000002 -1 0  -0.9000000000000004 -1 0  -0.8499999999999996 -1 0  -0.7999999999999998 -1 0  -0.75 -1 0  -0.7000000000000002 -1 0  -0.6500000000000004 -1 0  -0.5999999999999996 -1 0  -0.5499999999999998 -1 0  -0.5 -1 0  -0.4500000000000002 -1 0  -0.4000000000000004 -1 0  -0.3499999999999996 -1 0  -0.2999999999999998 -1 0  -0.25 -1 0  -0.2000000000000002 -1 0  -0.1500000000000004 -1 0  -0.09999999999999964 -1 0  -0.04999999999999982 -1 0  0 -1 0  0.04999999999999982 -1 0  0.09999999999999964 -1 0  0.1500000000000004 -1 0  0.2000000000000002 -1 0  0.25 -1 0  0.2999999999999998 -1 0  0.3499999999999996 -1 0  0.4000000000000004 -1 0  0.4500000000000002 -1 0  0.5 -1 0  0.5499999999999998 -1 0  0.5999999999999996 -1 0  0.6500000000000004 -1 0  0.7000000000000002 -1 0  0.75 -1 0  0.7999999999999998 -1 0  0.8499999999999996 -1 0  0.9000000000000004 -1 0  0.9500000000000002 -1 0  1 -1 0  1.05 -1 0  1.1 -1 0  1.15 -1 0  1.2 -1 0  1.25 -1 0  1.3 -1 0  1.35 -1 0  1.4 -1 0  1.45 -1 0  1.5 -1 0  1.55 -1 0  1.6 -1 0  1.65 -1 0  1.7 -1 0  1.75 -1 0  1.8 -1 0  1.85 -1 0  1.9 -1 0  1.95 -1 0  2 -1 0  2.05 -1 0  2.1 -1 0  2.15 -1 0  2.2 -1 0  2.25 -1 0  2.3 -1 0  2.35 -1 0  2.4 -1 0  2.45 -1 0  2.5 -1 0  2.55 -1 0  2.6 -1 0  2.65 -1 0  2.7 -1 0  2.75 -1 0  2.8 -1 0  2.85 -1 0  2.9 -1 0  2.95 -1 0  3 -1 0  3.050000000000001 -1 0  3.1 -1 0  3.15 -1 0  3.199999999999999 -1 0  3.25 -1 0  3.300000000000001 -1 0  3.35 -1 0  3.4 -1 0  3.449999999999999 -1 0  3.5 -1 0  3.550000000000001 -1 0  3.6 -1 0  3.65 -1 0  3.699999999999999 -1 0  3.75 -1 0  3.800000000000001 -1 0  3.85 -1 0  3.9 -1 0  3.949999999999999 -1 0  4 -1 0  4.050000000000001 -1 0  4.1 -1 0  4.15 -1 0  4.199999999999999 -1 0  4.25 -1 0  4.300000000000001 -1 0  4.35 -1 0  4.4 -1 0  4.449999999999999 -1 0  4.5 -1 0  4.550000000000001 -1 0  4.6 -1 0  4.65 -1 0  4.699999999999999 -1 0  4.75 -1 0  4.800000000000001 -1 0  4.85 -1 0  4.9 -1 0  4.949999999999999 -1 0  5 -1 0  -5 -0.95 0  -4.95 -0.95 0  -4.9 -0.95 0  -4.85 -0.95 0  -4.8 -0.95 0  -4.75 -0.95 0  -4.7 -0.95 0  -4.65 -0.95 0  -4.6 -0.95 0  -4.55 -0.95 0  -4.5 -0.95 0  -4.45 -0.95 0  -4.4 -0.95 0  -4.35 -0.95 0  -4.3 -0.95 0  -4.25 -0.95 0  -4.2 -0.95 0  -4.15 -0.95 0  -4.1 -0.95 0  -4.05 -0.95 0  -4 -0.95 0  -3.95 -0.95 0  -3.9 -0.95 0  -3.85 -0.95 0  -3.8 -0.95 0  -3.75 -0.95 0  -3.7 -0.95 0  -3.65 -0.95 0  -3.6 -0.95 0  -3.55 -0.95 0  -3.5 -0.95 0  -3.45 -0.95 0  -3.4 -0.95 0  -3.35 -0.95 0  -3.3 -0.95 0  -3.25 -0.95 0  -3.2 -0.95 0  -3.15 -0.95 0  -3.1 -0.95 0  -3.05 -0.95 0  -3 -0.95 0  -2.95 -0.95 0  -2.9 -0.95 0  -2.85 -0.95 0  -2.8 -0.95 0  -2.75 -0.95 0  -2.7 -0.95 0  -2.65 -0.95 0  -2.6 -0.95 0  -2.55 -0.95 0  -2.5 -0.95 0  -2.45 -0.95 0  -2.4 -0.95 0  -2.35 -0.95 0  -2.3 -0.95 0  -2.25 -0.95 0  -2.2 -0.95 0  -2.15 -0.95 0  -2.1 -0.95 0  -2.05 -0.95 0  -2 -0.95 0  -1.95 -0.95 0  -1.9 -0.95 0  -1.85 -0.95 0  -1.8 -0.95 0  -1.75 -0.95 0  -1.7 -0.95 0  -1.65 -0.95 0  -1.6 -0.95 0  -1.55 -0.95 0  -1.5 -0.95 0  -1.45 -0.95 0  -1.4 -0.95 0  -1.35 -0.95 0  -1.3 -0.95 0  -1.25 -0.95 0  -1.2 -0.95 0  -1.15 -0.95 0  -1.1 -0.95 0  -1.05 -0.95 0  -1 -0.95 0  -0.9500000000000002 -0.95 0  -0.9000000000000004 -0.95 0  -0.8499999999999996 -0.95 0  -0.7999999999999998 -0.95 0  -0.75 -0.95 0  -0.7000000000000002 -0.95 0  -0.6500000000000004 -0.95 0  -0.5999999999999996 -0.95 0  -0.5499999999999998 -0.95 0  -0.5 -0.95 0  -0.4500000000000002 -0.95 0  -0.4000000000000004 -0.95 0  -0.3499999999999996 -0.95 0  -0.2999999999999998 -0.95 0  -0.25 -0.95 0  -0.2000000000000002 -0.95 0  -0.1500000000000004 -0.95 0  -0.09999999999999964 -0.95 0  -0.04999999999999982 -0.95 0  0 -0.95 0  0.04999999999999982 -0.95 0  0.09999999999999964 -0.95 0  0.1500000000000004 -0.95 0  0.2000000000000002 -0.95 0  0.25 -0.95 0  0.2999999999999998 -0.95 0  0.3499999999999996 -0.95 0  0.4000000000000004 -0.95 0  0.4500000000000002 -0.95 0  0.5 -0.95 0  0.5499999999999998 -0.95 0  0.5999999999999996 -0.95 0  0.6500000000000004 -0.95 0  0.7000000000000002 -0.95 0  0.75 -0.95 0  0.7999999999999998 -0.95 0  0.8499999999999996 -0.95 0  0.9000000000000004 -0.95 0  0.9500000000000002 -0.95 0  1 -0.95 0  1.05 -0.95 0  1.1 -0.95 0  1.15 -0.95 0  1.2 -0.95 0  1.25 -0.95 0  1.3 -0.95 0  1.35 -0.95 0  1.4 -0.95 0  1.45 -0.95 0  1.5 -0.95 0  1.55 -0.95 0  1.6 -0.95 0  1.65 -0.95 0  1.7 -0.95 0  1.75 -0.95 0  1.8 -0.95 0  1.85 -0.95 0  1.9 -0.95 0  1.95 -0.95 0  2 -0.95 0  2.05 -0.95 0  2.1 -0.95 0  2.15 -0.95 0  2.2 -0.95 0  2.25 -0.95 0  2.3 -0.95 0  2.35 -0.95 0  2.4 -0.95 0  2.45 -0.95 0  2.5 -0.95 0  2.55 -0.95 0  2.6 -0.95 0  2.65 -0.95 0  2.7 -0.95 0  2.75 -0.95 0  2.8 -0.95 0  2.85 -0.95 0  2.9 -0.95 0  2.95 -0.95 0  3 -0.95 0  3.050000000000001 -0.95 0  3.1 -0.95 0  3.15 -0.95 0  3.199999999999999 -0.95 0  3.25 -0.95 0  3.300000000000001 -0.95 0  3.35 -0.95 0  3.4 -0.95 0  3.449999999999999 -0.95 0  3.5 -0.95 0  3.550000000000001 -0.95 0  3.6 -0.95 0  3.65 -0.95 0  3.699999999999999 -0.95 0  3.75 -0.95 0  3.800000000000001 -0.95 0  3.85 -0.95 0  3.9 -0.95 0  3.949999999999999 -0.95 0  4 -0.95 0  4.050000000000001 -0.95 0  4.1 -0.95 0  4.15 -0.95 0  4.199999999999999 -0.95 0  4.25 -0.95 0  4.300000000000001 -0.95 0  4.35 -0.95 0  4.4 -0.95 0  4.449999999999999 -0.95 0  4.5 -0.95 0  4.550000000000001 -0.95 0  4.6 -0.95 0  4.65 -0.95 0  4.699999999999999 -0.95 0  4.75 -0.95 0  4.800000000000001 -0.95 0  4.85 -0.95 0  4.9 -0.95 0  4.949999999999999 -0.95 0  5 -0.95 0  -5 -0.9 0  -4.95 -0.9 0  -4.9 -0.9 0  -4.85 -0.9 0  -4.8 -0.9 0  -4.75 -0.9 0  -4.7 -0.9 0  -4.65 -0.9 0  -4.6 -0.9 0  -4.55 -0.9 0  -4.5 -0.9 0  -4.45 -0.9 0  -4.4 -0.9 0  -4.35 -0.9 0  -4.3 -0.9 0  -4.25 -0.9 0  -4.2 -0.9 0  -4.15 -0.9 0  -4.1 -0.9 0  -4.05 -0.9 0  -4 -0.9 0  -3.95 -0.9 0  -3.9 -0.9 0  -3.85 -0.9 0  -3.8 -0.9 0  -3.75 -0.9 0  -3.7 -0.9 0  -3.65 -0.9 0  -3.6 -0.9 0  -3.55 -0.9 0  -3.5 -0.9 0  -3.45 -0.9 0  -3.4 -0.9 0  -3.35 -0.9 0  -3.3 -0.9 0  -3.25 -0.9 0  -3.2 -0.9 0  -3.15 -0.9 0  -3.1 -0.9 0  -3.05 -0.9 0  -3 -0.9 0  -2.95 -0.9 0  -2.9 -0.9 0  -2.85 -0.9 0  -2.8 -0.9 0  -2.75 -0.9 0  -2.7 -0.9 0  -2.65 -0.9 0  -2.6 -0.9 0  -2.55 -0.9 0  -2.5 -0.9 0  -2.45 -0.9 0  -2.4 -0.9 0  -2.35 -0.9 0  -2.3 -0.9 0  -2.25 -0.9 0  -2.2 -0.9 0  -2.15 -0.9 0  -2.1 -0.9 0  -2.05 -0.9 0  -2 -0.9 0  -1.95 -0.9 0  -1.9 -0.9 0  -1.85 -0.9 0  -1.8 -0.9 0  -1.75 -0.9 0  -1.7 -0.9 0  -1.65 -0.9 0  -1.6 -0.9 0  -1.55 -0.9 0  -1.5 -0.9 0  -1.45 -0.9 0  -1.4 -0.9 0  -1.35 -0.9 0  -1.3 -0.9 0  -1.25 -0.9 0  -1.2 -0.9 0  -1.15 -0.9 0  -1.1 -0.9 0  -1.05 -0.9 0  -1 -0.9 0  -0.9500000000000002 -0.9 0  -0.9000000000000004 -0.9 0  -0.8499999999999996 -0.9 0  -0.7999999999999998 -0.9 0  -0.75 -0.9 0  -0.7000000000000002 -0.9 0  -0.6500000000000004 -0.9 0  -0.5999999999999996 -0.9 0  -0.5499999999999998 -0.9 0  -0.5 -0.9 0  -0.4500000000000002 -0.9 0  -0.4000000000000004 -0.9 0  -0.3499999999999996 -0.9 0  -0.2999999999999998 -0.9 0  -0.25 -0.9 0  -0.2000000000000002 -0.9 0  -0.1500000000000004 -0.9 0  -0.09999999999999964 -0.9 0  -0.04999999999999982 -0.9 0  0 -0.9 0  0.04999999999999982 -0.9 0  0.09999999999999964 -0.9 0  0.1500000000000004 -0.9 0  0.2000000000000002 -0.9 0  0.25 -0.9 0  0.2999999999999998 -0.9 0  0.3499999999999996 -0.9 0  0.4000000000000004 -0.9 0  0.4500000000000002 -0.9 0  0.5 -0.9 0  0.5499999999999998 -0.9 0  0.5999999999999996 -0.9 0  0.6500000000000004 -0.9 0  0.7000000000000002 -0.9 0  0.75 -0.9 0  0.7999999999999998 -0.9 0  0.8499999999999996 -0.9 0  0.9000000000000004 -0.9 0  0.9500000000000002 -0.9 0  1 -0.9 0  1.05 -0.9 0  1.1 -0.9 0  1.15 -0.9 0  1.2 -0.9 0  1.25 -0.9 0  1.3 -0.9 0  1.35 -0.9 0  1.4 -0.9 0  1.45 -0.9 0  1.5 -0.9 0  1.55 -0.9 0  1.6 -0.9 0  1.65 -0.9 0  1.7 -0.9 0  1.75 -0.9 0  1.8 -0.9 0  1.85 -0.9 0  1.9 -0.9 0  1.95 -0.9 0  2 -0.9 0  2.05 -0.9 0  2.1 -0.9 0  2.15 -0.9 0  2.2 -0.9 0  2.25 -0.9 0  2.3 -0.9 0  2.35 -0.9 0  2.4 -0.9 0  2.45 -0.9 0  2.5 -0.9 0  2.55 -0.9 0  2.6 -0.9 0  2.65 -0.9 0  2.7 -0.9 0  2.75 -0.9 0  2.8 -0.9 0  2.85 -0.9 0  2.9 -0.9 0  2.95 -0.9 0  3 -0.9 0  3.050000000000001 -0.9 0  3.1 -0.9 0  3.15 -0.9 0  3.199999999999999 -0.9 0  3.25 -0.9 0  3.300000000000001 -0.9 0  3.35 -0.9 0  3.4 -0.9 0  3.449999999999999 -0.9 0  3.5 -0.9 0  3.550000000000001 -0.9 0  3.6 -0.9 0  3.65 -0.9 0  3.699999999999999 -0.9 0  3.75 -0.9 0  3.800000000000001 -0.9 0  3.85 -0.9 0  3.9 -0.9 0  3.949999999999999 -0.9 0  4 -0.9 0  4.050000000000001 -0.9 0  4.1 -0.9 0  4.15 -0.9 0  4.199999999999999 -0.9 0  4.25 -0.9 0  4.300000000000001 -0.9 0  4.35 -0.9 0  4.4 -0.9 0  4.449999999999999 -0.9 0  4.5 -0.9 0  4.550000000000001 -0.9 0  4.6 -0.9 0  4.65 -0.9 0  4.699999999999999 -0.9 0  4.75 -0.9 0  4.800000000000001 -0.9 0  4.85 -0.9 0  4.9 -0.9 0  4.949999999999999 -0.9 0  5 -0.9 0  -5 -0.85 0  -4.95 -0.85 0  -4.9 -0.85 0  -4.85 -0.85 0  -4.8 -0.85 0  -4.75 -0.85 0  -4.7 -0.85 0  -4.65 -0.85 0  -4.6 -0.85 0  -4.55 -0.85 0  -4.5 -0.85 0  -
[...]
<PointData  Vectors="f_15"> 
<DataArray  type="Float64"  Name="f_15"  NumberOfComponents="3" format="ascii">9.7461907653506543e+00 0.0000000000000000e+00 0.0000000000000000e+00  9.7418157433471251e+00 3.4783353079085366e-02 0.0000000000000000e+00  9.7393482918859497e+00 7.3669213523282318e-02 0.0000000000000000e+00  9.7276161677860227e+00 1.0652332731643094e-01 0.0000000000000000e+00  9.7186305076140265e+00 1.4501933287597016e-01 0.0000000000000000e+00  9.6999594199903072e+00 1.7998824010541947e-01 0.0000000000000000e+00  9.6844420813848338e+00 2.1849504089167790e-01 0.0000000000000000e+00  9.6594442341354867e+00 2.5547957205591648e-01 0.0000000000000000e+00  9.6378461450788500e+00 2.9527164821984192e-01 0.0000000000000000e+00  9.6067939226096826e+00 3.3406823625215626e-01 0.0000000000000000e+00  9.5798774075547861e+00 3.7577030462952415e-01 0.0000000000000000e+00  9.5433226266316566e+00 4.1665876510636951e-01 0.0000000000000000e+00  9.5114704731847297e+00 4.6041224364019362e-01 0.0000000000000000e+00  9.4702331989325508e+00 5.0365700025999804e-01 0.0000000000000000e+00  9.4340083676938011e+00 5.4977048237884540e-01 0.0000000000000000e+00  9.3884908785114298e+00 5.9513949851240300e-01 0.0000000000000000e+00  9.3486877608924406e+00 6.4404584158767231e-01 0.0000000000000000e+00  9.2994029209701186e+00 6.9143253593018750e-01 0.0000000000000000e+00  9.2563819149695696e+00 7.4300904664808909e-01 0.0000000000000000e+00  9.2040567615430540e+00 7.9251617457329560e-01 0.0000000000000000e+00  9.1582425503646210e+00 8.4683789676701449e-01 0.0000000000000000e+00  9.1031853113118650e+00 8.9790449264870253e-01 0.0000000000000000e+00  9.0551939399593202e+00 9.5538574837692813e-01 0.0000000000000000e+00  8.9977817110313811e+00 1.0077027924678517e+00 0.0000000000000000e+00  8.9477999701275213e+00 1.0679640454119297e+00 0.0000000000000000e+00  8.8886288844020971e+00 1.1217599265179141e+00 0.0000000000000000e+00  8.8368807463600554e+00 1.1845337108359106e+00 0.0000000000000000e+00  8.7761640213360970e+00 1.2394240281658055e+00 0.0000000000000000e+00  8.7230711586989216e+00 1.3048412673998684e+00 0.0000000000000000e+00  8.6610723693727145e+00 1.3606182523728831e+00 0.0000000000000000e+00  8.6067004077186446e+00 1.4284888717062179e+00 0.0000000000000000e+00  8.5438559029439087e+00 1.4845619969635016e+00 0.0000000000000000e+00  8.4883579125564932e+00 1.5560649574036045e+00 0.0000000000000000e+00  8.4247367024296889e+00 1.6104437370974474e+00 0.0000000000000000e+00  8.3684482749478377e+00 1.6865323581945313e+00 0.0000000000000000e+00  8.3042415929244147e+00 1.7402779883770809e+00 0.0000000000000000e+00  8.2470448357750872e+00 1.8165405561136851e+00 0.0000000000000000e+00  8.1828048281030945e+00 1.8763891765847884e+00 0.0000000000000000e+00  8.1245078930372880e+00 1.9448632816514755e+00 0.0000000000000000e+00  8.0604430308961170e+00 2.0176137823611713e+00 0.0000000000000000e+00  8.0013137514503878e+00 2.0737541960815720e+00 0.0000000000000000e+00  7.9372866681001719e+00 2.1602188280403452e+00 0.0000000000000000e+00  7.8775610943352605e+00 2.2073344994205555e+00 0.0000000000000000e+00  7.8137238374840914e+00 2.2993848622693109e+00 0.0000000000000000e+00  7.7533525078849381e+00 2.3489898828291413e+00 0.0000000000000000e+00  7.6897331899001786e+00 2.4345171243461539e+00 0.0000000000000000e+00  7.6292100373001741e+00 2.4944269712893523e+00 0.0000000000000000e+00  7.5652425278712192e+00 2.5727648573058706e+00 0.0000000000000000e+00  7.5050106506607817e+00 2.6372186586072446e+00 0.0000000000000000e+00  7.4410219524770085e+00 2.7150018772229441e+00 0.0000000000000000e+00  7.3803642041135129e+00 2.7816460170737063e+00 0.0000000000000000e+00  7.3170163732355773e+00 2.8562150625673186e+00 0.0000000000000000e+00  7.2561813413869718e+00 2.9274517308782939e+00 0.0000000000000000e+00  7.1925964412998171e+00 3.0012779789670523e+00 0.0000000000000000e+00  7.1324722349835312e+00 3.0709400705272718e+00 0.0000000000000000e+00  7.0687489242079042e+00 3.1473153628516690e+00 0.0000000000000000e+00  7.0084698696298871e+00 3.2182102821581506e+00 0.0000000000000000e+00  6.9455039999327681e+00 3.2921054692187086e+00 0.0000000000000000e+00  6.8852338499491479e+00 3.3650891531954676e+00 0.0000000000000000e+00  6.8219410498652397e+00 3.4401831387474080e+00 0.0000000000000000e+00  6.7628914189471505e+00 3.5117546495058307e+00 0.0000000000000000e+00  6.6991256024828516e+00 3.5880675639168702e+00 0.0000000000000000e+00  6.6403858653288212e+00 3.6600789812382093e+00 0.0000000000000000e+00  6.5773159840099886e+00 3.7361155422819774e+00 0.0000000000000000e+00  6.5187016063626402e+00 3.8090538706434649e+00 0.0000000000000000e+00  6.4554914193130957e+00 3.8854010687054479e+00 0.0000000000000000e+00  6.3980516345647160e+00 3.9574234428802608e+00 0.0000000000000000e+00  6.3345985363955073e+00 4.0354276940136229e+00 0.0000000000000000e+00  6.2775037491811254e+00 4.1074963118688226e+00 0.0000000000000000e+00  6.2148641848511854e+00 4.1847675397865620e+00 0.0000000000000000e+00  6.1577549585215614e+00 4.2579483997275149e+00 0.0000000000000000e+00  6.0956278889087425e+00 4.3353129774744739e+00 0.0000000000000000e+00  6.0389569078649679e+00 4.4082912865598525e+00 0.0000000000000000e+00  5.9774321686407950e+00 4.4861827451823819e+00 0.0000000000000000e+00  5.9205795464285478e+00 4.5596738627729874e+00 0.0000000000000000e+00  5.8604809156305411e+00 4.6365755505085113e+00 0.0000000000000000e+00  5.8029208039356268e+00 4.7118012058870420e+00 0.0000000000000000e+00  5.7444671777113854e+00 4.7872689502896772e+00 0.0000000000000000e+00  5.6861794441999178e+00 4.8641323843851705e+00 0.0000000000000000e+00  5.6294971618254577e+00 4.9384269155610632e+00 0.0000000000000000e+00  5.5702288276899958e+00 5.0166956134450960e+00 0.0000000000000000e+00  5.5156759277170933e+00 5.0892898398602755e+00 0.0000000000000000e+00  5.4551339950360953e+00 5.1702138375212918e+00 0.0000000000000000e+00  5.4028155120540289e+00 5.2405029589706489e+00 0.0000000000000000e+00  5.3410513970583686e+00 5.3234659491879803e+00 0.0000000000000000e+00  5.2908125119643188e+00 5.3923993500569543e+00 0.0000000000000000e+00  5.2279888112877728e+00 5.4772925732221420e+00 0.0000000000000000e+00  5.1799298134915173e+00 5.5439301368298315e+00 0.0000000000000000e+00  5.1160251487895039e+00 5.6312398950354625e+00 0.0000000000000000e+00  5.0704223135463353e+00 5.6956590521422079e+00 0.0000000000000000e+00  5.0054125154145863e+00 5.7848447170304693e+00 0.0000000000000000e+00  4.9614698820520937e+00 5.8478604644466063e+00 0.0000000000000000e+00  4.8958225626877105e+00 5.9390543253475041e+00 0.0000000000000000e+00  4.8537457848238210e+00 6.0000817753215436e+00 0.0000000000000000e+00  4.7883756181439150e+00 6.0917660996436034e+00 0.0000000000000000e+00  4.7452344582203523e+00 6.1548250198145560e+00 0.0000000000000000e+00  4.6835286936885430e+00 6.2432510656185221e+00 0.0000000000000000e+00  4.6360851005363610e+00 6.3119233303321645e+00 0.0000000000000000e+00  4.5801116285543655e+00 6.3933114267247966e+00 0.0000000000000000e+00  4.5314209284769902e+00 6.4653973238141091e+00 0.0000000000000000e+00  4.4764030709778089e+00 6.5458819577176932e+00 0.0000000000000000e+00  4.4340385294695839e+00 6.6086944554229294e+00 0.0000000000000000e+00  4.3703380468285769e+00 6.7042271344680984e+00 0.0000000000000000e+00  4.3252112689376911e+00 6.7713315802608118e+00 0.0000000000000000e+00  4.2706605659337882e+00 6.8537668775423697e+00 0.0000000000000000e+00  4.2241040636801390e+00 6.9247162305482499e+00 0.0000000000000000e+00  4.1713415067008075e+00 7.0056875525032929e+00 0.0000000000000000e+00  4.1243535553842667e+00 7.0762821232869912e+00 0.0000000000000000e+00  4.0756736261146207e+00 7.1528125708229400e+00 0.0000000000000000e+00  4.0304514052068363e+00 7.2228545572756087e+00 0.0000000000000000e+00  3.9833395136661474e+00 7.2965484085393957e+00 0.0000000000000000e+00  3.9371148382538403e+00 7.3683231317923550e+00 0.0000000000000000e+00  3.8918905728481930e+00 7.4415846139694386e+00 0.0000000000000000e+00  3.8515496165350944e+00 7.5030267778673139e+00 0.0000000000000000e+00  3.8056965412749553e+00 7.5769842577677364e+00 0.0000000000000000e+00  3.7893488888592608e+00 7.6049093435593598e+00 0.0000000000000000e+00  3.8385330057214806e+00 7.5266162899389686e+00 0.0000000000000000e+00  3.8962440993312843e+00 7.4333310309015186e+00 0.0000000000000000e+00  3.9227476135361781e+00 7.3911370447023517e+00 0.0000000000000000e+00  3.9343527219042418e+00 7.3727156189146408e+00 0.0000000000000000e+00  3.9387597953192013e+00 7.3657167099456462e+00 0.0000000000000000e+00  3.9446554907467082e+00 7.3568363517145077e+00 0.0000000000000000e+00  3.9464082833658458e+00 7.3536251486365236e+00 0.0000000000000000e+00  3.9502624153339805e+00 7.3479462743629655e+00 0.0000000000000000e+00  3.9499856917399074e+00 7.3473924170288898e+00 0.0000000000000000e+00  3.9522808765406516e+00 7.3440290614496986e+00 0.0000000000000000e+00  3.9512675671447073e+00 7.3444625520397082e+00 0.0000000000000000e+00  3.9533929554092375e+00 7.3415422188568709e+00 0.0000000000000000e+00  3.9530781624662232e+00 7.3412624219103275e+00 0.0000000000000000e+00  3.9555590456884637e+00 7.3381271620842208e+00 0.0000000000000000e+00  3.9556749951362460e+00 7.3375484143728711e+00 0.0000000000000000e+00  3.9576201207295818e+00 7.3351817524515104e+00 0.0000000000000000e+00  3.9574014521992900e+00 7.3351192354921810e+00 0.0000000000000000e+00  3.9585030040762010e+00 7.3337350310911082e+00 0.0000000000000000e+00  3.9580971977780606e+00 7.3339128332657806e+00 0.0000000000000000e+00  3.9587790926166524e+00 7.3329764689938211e+00 0.0000000000000000e+00  3.9584934406320809e+00 7.3330482683052285e+00 0.0000000000000000e+00  3.9589902317091128e+00 7.3323179259315125e+00 0.0000000000000000e+00  3.9588341168690024e+00 7.3322855020456750e+00 0.0000000000000000e+00  3.9591704191629105e+00 7.3317475634363429e+00 0.0000000000000000e+00  3.9590751442153174e+00 7.3316715873246503e+00 0.0000000000000000e+00  3.9592811034410200e+00 7.3312843188087200e+00 0.0000000000000000e+00  3.9592155260204844e+00 7.3311904525012901e+00 0.0000000000000000e+00  3.9593370618290784e+00 7.3308932009713850e+00 0.0000000000000000e+00  3.9592920041078186e+00 7.3307858590065855e+00 0.0000000000000000e+00  3.9593600147158021e+00 7.3305426497143511e+00 0.0000000000000000e+00  3.9593231362492363e+00 7.3304236929105953e+00 0.0000000000000000e+00  3.9593558048967044e+00 7.3302036248275915e+00 0.0000000000000000e+00  3.9593152860663121e+00 7.3300718615735354e+00 0.0000000000000000e+00  3.9593240079635788e+00 7.3298352262198216e+00 0.0000000000000000e+00  3.9592776635256679e+00 7.3296626639376328e+00 0.0000000000000000e+00  3.9592689074883261e+00 7.3293614195649432e+00 0.0000000000000000e+00  3.9592167739167223e+00 7.3290903989172582e+00 0.0000000000000000e+00  3.9591959291201366e+00 7.3286516805695436e+00 0.0000000000000000e+00  3.9591365347488390e+00 7.3282035695619685e+00 0.0000000000000000e+00  3.9591063087266267e+00 7.3275309673490980e+00 0.0000000000000000e+00  3.9590407650937842e+00 7.3268087994487709e+00 0.0000000000000000e+00  3.9590008540110433e+00 7.3258078177335122e+00 0.0000000000000000e+00  3.9589303153434101e+00 7.3247246445889358e+00 0.0000000000000000e+00  3.9588819748723902e+00 7.3233284046905256e+00 0.0000000000000000e+00  3.9588050233354903e+00 7.3218509295356009e+00 0.0000000000000000e+00  3.9587502426854253e+00 7.3200552288990597e+00 0.0000000000000000e+00  3.9586660373299583e+00 7.3182241556905856e+00 0.0000000000000000e+00  3.9586052979713733e+00 7.3161105331783176e+00 0.0000000000000000e+00  3.9585131638920679e+00 7.3140432312753241e+00 0.0000000000000000e+00  3.9584478379112689e+00 7.3117572053590960e+00 0.0000000000000000e+00  3.9583450718522477e+00 7.3096272932738495e+00 0.0000000000000000e+00  3.9582776191130264e+00 7.3073380243357207e+00 0.0000000000000000e+00  3.9581609063314462e+00 7.3053216168160970e+00 0.0000000000000000e+00  3.9580933251288344e+00 7.3031826440942789e+00 0.0000000000000000e+00  3.9579588765291560e+00 7.3014118676334432e+00 0.0000000000000000e+00  3.9578924595180509e+00 7.2995192455215268e+00 0.0000000000000000e+00  3.9577346836333671e+00 7.2980638840076137e+00 0.0000000000000000e+00  3.9576671901251781e+00 7.2964381854782232e+00 0.0000000000000000e+00  3.9574736489576110e+00 7.2952937084597265e+00 0.0000000000000000e+00  3.9573931518538386e+00 7.2938861198631857e+00 0.0000000000000000e+00  3.9571241783040012e+00 7.2929635567662539e+00 0.0000000000000000e+00  3.9569822791922018e+00 7.2916297258409104e+00 0.0000000000000000e+00  3.9565148255625591e+00 7.2907028989457379e+00 0.0000000000000000e+00  3.9561203695425147e+00 7.2890645977396007e+00 0.0000000000000000e+00  3.9550551081832697e+00 7.2874819559927584e+00 0.0000000000000000e+00  3.9537250314936045e+00 7.2844199922145139e+00 0.0000000000000000e+00  3.9506887651445721e+00 7.2800269046373778e+00 0.0000000000000000e+00  3.9460387512512378e+00 7.2718182639707134e+00 0.0000000000000000e+00  3.9362732746463078e+00 7.2572338054988057e+00 0.0000000000000000e+00  3.9199046814141316e+00 7.2307895916581462e+00 0.0000000000000000e+00  3.8869497298309290e+00 7.1801704167595171e+00 0.0000000000000000e+00  3.8300383290121731e+00 7.0892383792970817e+00 0.0000000000000000e+00  3.7196645395736372e+00 6.9119863166104496e+00 0.0000000000000000e+00  3.5317614905392052e+00 6.5944866051660727e+00 0.0000000000000000e+00  3.1946516761409125e+00 5.9836409271238518e+00 0.0000000000000000e+00  2.6824169086690124e+00 4.9313182855367321e+00 0.0000000000000000e+00  1.9200926266762224e+00 2.9598885792508978e+00 0.0000000000000000e+00  1.2110827436457161e+00 6.7558213598835404e-01 0.0000000000000000e+00  1.0162666824374527e+00 5.3113974236095506e-02 0.0000000000000000e+00  1.0010044562444800e+00 2.2023596999618264e-03 0.0000000000000000e+00  9.9985803169123200e-01 6.6021768596088808e-04 0.0000000000000000e+00  1.0001276261340719e+00 -1.6919139903890474e-04 0.0000000000000000e+00  9.9984258007526339e-01 1.5110400340448540e-04 0.0000000000000000e+00  1.0000696556479312e+00 1.3467138891207681e-05 0.0000000000000000e+00  9.9984535286713083e-01 0.0000000000000000e+00 0.0000000000000000e+00  9.7429878544529132e+00 0.0000000000000000e+00 3.4596776985388908e-03  9.7415936941132468e+00 3.4345827134183306e-02 -1.7590271219482703e-03  9.7359910930522418e+00 6.9819754327876890e-02 8.0154162190828888e-04  9.7276405286042458e+00 1.0484645191841521e-01 -1.1612829279156812e-03  9.7152784163257788e+00 1.4262481921732945e-01 1.3159750743642340e-03  9.7000337215661965e+00 1.7758638825987078e-01 -1.3616363435937750e-03  9.6813354881024445e+00 2.1673140811582900e-01 1.4216079549991302e-03  9.6596650914964481e+00 2.5335321994179422e-01 -1.3311521281642975e-03  9.6348233276412643e+00 2.9371891809237288e-01 1.3350975668472997e-03  9.6074604480739207e+00 3.3244180781301674e-01 -1.2314952053858067e-03  9.5770108330614967e+00 3.7460288268471309e-01 1.2262868227340309e-03  9.5443189810887521e+00 4.1547987643732975e-01 -1.1239959235839752e-03  9.5090784577795322e+00 4.5981118743922939e-01 1.1093917614237823e-03  9.4716317723186414e+00 5.0312705095817056e-01 -1.0070423869534769e-03  9.4320076588191668e+00 5.4955719923277058e-01 9.7725964558901851e-04  9.3906154634326580e+00 5.9562360093287836e-01 -8.7715968449232564e-04  9.3471443526056177e+00 6.4422570921917444e-01 8.2213195097368525e-04  9.3021788548563382e+00 6.9284398546986692e-01 -7.2326641802188552e-04  9.2556066365517573e+00 7.4383470199235513e-01 6.4121504010307482e-04  9.2075148233088555e+00 7.9497833547950092e-01 -5.4217428212053839e-04  9.1581533473405869e+00 8.4796850497731902e-01 4.2979013186272543e-04  9.1075743274711929e+00 9.0188135790696544e-01 -3.2011578907960726e-04  9.0557962739911080e+00 9.5669473023157103e-01 1.6126055052066796e-04  9.0029399662027707e+00 1.0129310757099279e+00 -2.1055821440834232e-05  8.9493196440567822e+00 1.0697792550762784e+00 -1.9935109364508166e-04  8.8944480554023695e+00 1.1281499450166674e+00 3.7765550890235251e-04  8.8391518093250969e+00 1.1864751732515602e+00 -6.2607772486650553e-04  8.7827402525819931e+00 1.2472754522961640e+00 7.8701241959163099e-04  8.7259775489968412e+00 1.3067814958701269e+00 -9.9474949416497463e-04  8.6681347826096342e+00 1.3695866133617034e+00 1.1074184455627980e-03  8.6103169213934283e+00 1.4303056593241521e+00 -1.3038912126300201e-03  8.5511972940508585e+00 1.4952549741727392e+00 1.4930556398040969e-03  8.4924308583876886e+00 1.5563198626714549e+00 -1.9183109863746060e-03  8.4322994901964563e+00 1.6236969607920324e+00 2.5846388091668314e-03  8.3728897639982502e+00 1.6854629547072915e+00 -3.7235593835919568e-03  8.3115340094666958e+00 1.7537677125505118e+00 5.2076144857496672e-03  8.2520800391149898e+00 1.8174219553486486e+00 -6.9026296194754557e-03  8.1894174294841964e+00 1.8862860023048471e+00 8.2974156684285302e-03  8.1298826851282495e+00 1.9506587560615087e+00 -8.9582640624058362e-03  8.0666156849140442e+00 2.0214813462988532e+00 8.4764099715453050e-03  8.0063585182521706e+00 2.0857251041172056e+00 -6.7958983210765949e-03  7.9433023443675079e+00 2.1578403928251864e+00 4.1773561226744098e-03  7.8819899445533430e+00 2.2231884006974880e+00 -1.1927158205394415e-03  7.8194328304023983e+00 2.2954966458557422e+00 -1.4919911960349151e-03  7.7571149296305091e+00 2.3622520187556058e+00 3.3097464183869103e-03  7.6952016997220039e+00 2.4341095770568479e+00 -4.0239253408872779e-03  7.6319869904879818e+00 2.5039960472316949e+00 3.8062201515480037e-03  7.5704822578425395e+00 2.5727554666873642e+00 -3.0858568546642826e-03  7.5072234378533063e+00 2.6467637671918616e+00 2.3650067013641619e-03  7.4452097148627665e+00 2.7150919085155141e+00 -1.8429168699203252e-03  7.3826121733511325e+00 2.7875025669316895e+00 1.5149240583929029e-03  7.3203608336739867e+00 2.8596361469431573e+00 -1.2176703852630310e-03  7.2576054536044392e+00 2.9314941284976461e+00 9.8619815346990582e-04  7.1959583910509091e+00 3.0020401836422517e+00 -8.6351720628403538e-04  7.1331698168675182e+00 3.0769732157429939e+00 8.7278548555705783e-04  7.0712898541699900e+00 3.1481857600296346e+00 -8.2812019244402416e-04  7.0093701445450103e+00 3.2206523423754900e+00 7.2270270575592916e-04  6.9473852453815006e+00 3.2945042260131707e+00 -6.5005604925777525e-04  6.8853262086643188e+00 3.3681847916151590e+00 7.2550564867574191e-04  6.8243631523257138e+00 3.4400000293463164e+00 -7.8626454336639263e-04  6.7621209190216618e+00 3.5152553990697575e+00 7.1620422723106016e-04  6.7011712790909508e+00 3.5881293968079202e+00 -5.8655415084670143e-04  6.6399749758057860e+00 3.6624374272061653e+00 5.5902302239591018e-04  6.5788571935941036e+00 3.7364232567937985e+00 -5.7418244439560052e-04  6.5177900422005521e+00 3.8109825421252750e+00 5.2077306386396683e-04  6.4576680935788664e+00 3.8845138606040917e+00 -4.5444187166683380e-04  6.3965229843181888e+00 3.9604362664991841e+00 4.4218102270098881e-04  6.3366153203019699e+00 4.0340160769098690e+00 -4.3469206334586472e-04  6.2763758193200969e+00 4.1091719492937342e+00 3.5565663750595204e-04  6.2165005791890282e+00 4.1840757824720560e+00 -3.0037141128628402e-04  6.1565440622966294e+00 4.2594945150442385e+00 2.8038805541960663e-04  6.0975160190138977e+00 4.3337512628579926e+00 -2.6578070344517079e-04  6.0376149891971984e+00 4.4102161153388657e+00 2.1849234869262006e-04  5.9790603812516094e+00 4.4844360422324998e+00 -1.8908202944057962e-04  5.9197730129516204e+00 4.5607351753816543e+00 1.4564602018752253e-04  5.8615257166129728e+00 4.6356928194224887e+00 -1.0421256607589719e-04  5.8026035147299311e+00 4.7120308675293403e+00 9.5395044196084527e-05  5.7450891721922321e+00 4.7868373866615572e+00 -6.5209652459647161e-05  5.6862973458748325e+00 4.8639281617033827e+00 2.7493815992069561e-05  5.6294995316659282e+00 4.9382813473667735e+00 2.0405650631685351e-05  5.5710407345741295e+00 5.0159149829259162e+00 -4.9079550920499694e-06  5.5147890518099834e+00 5.0906122026829230e+00 7.9713398441697103e-05  5.4567694067468739e+00 5.168005991080061