<?xml version="1.0"?>
<VTKFile type="UnstructuredGrid"  version="0.1"  >
<UnstructuredGrid>
<Piece  NumberOfPoints="8241" NumberOfCells="16000">
<Points>
<DataArray  type="Float64"  NumberOfComponents="3"  format="ascii">-5 -1 0  -4.95 -1 0  -4.9 -1 0  -4.85 -1 0  -4.8 -1 0  -4.75 -1 0  -4.7 -1 0  -4.65 -1 0  -4.6 -1 0  -4.55 -1 0  -4.5 -1 0  -4.45 -1 0  -4.4 -1 0  -4.35 -1 0  -4.3 -1 0  -4.25 -1 0  -4.2 -1 0  -4.15 -1 0  -4.1 -1 0  -4.05 -1 0  -4 -1 0  -3.95 -1 0  -3.9 -1 0  -3.85 -1 0  -3.8 -1 0  -3.75 -1 0  -3.7 -1 0  -3.65 -1 0  -3.6 -1 0  -3.55 -1 0  -3.5 -1 0  -3.45 -1 0  -3.4 -1 0  -3.35 -1 0  -3.3 -1 0  -3.25 -1 0  -3.2 -1 0  -3.15 -1 0  -3.1 -1 0  -3.05 -1 0  -3 -1 0  -2.95 -1 0  -2.9 -1 0  -2.85 -1 0  -2.8 -1 0  -2.75 -1 0  -2.7 -1 0  -2.65 -1 0  -2.6 -1 0  -2.55 -1 0  -2.5 -1 0  -2.45 -1 0  -2.4 -1 0  -2.35 -1 0  -2.3 -1 0  -2.25 -1 0  -2.2 -1 0  -2.15 -1 0  -2.1 -1 0  -2.05 -1 0  -2 -1 0  -1.95 -1 0  -1.9 -1 0  -1.85 -1 0  -1.8 -1 0  -1.75 -1 0  -1.7 -1 0  -1.65 -1 0  -1.6 -1 0  -1.55 -1 0  -1.5 -1 0  -1.45 -1 0  -1.4 -1 0  -1.35 -1 0  -1.3 -1 0  -1.25 -1 0  -1.2 -1 0  -1.15 -1 0  -1.1 -1 0  -1.05 -1 0  -1 -1 0  -0.9500000000000002 -1 0  -0.9000000000000004 -1 0  -0.8499999999999996 -1 0  -0.7999999999999998 -1 0  -0.75 -1 0  -0.7000000000000002 -1 0  -0.6500000000000004 -1 0  -0.5999999999999996 -1 0  -0.5499999999999998 -1 0  -0.5 -1 0  -0.4500000000000002 -1 0  -0.4000000000000004 -1 0  -0.3499999999999996 -1 0  -0.2999999999999998 -1 0  -0.25 -1 0  -0.2000000000000002 -1 0  -0.1500000000000004 -1 0  -0.09999999999999964 -1 0  -0.04999999999999982 -1 0  0 -1 0  0.04999999999999982 -1 0  0.09999999999999964 -1 0  0.1500000000000004 -1 0  0.2000000000000002 -1 0  0.25 -1 0  0.2999999999999998 -1 0  0.3499999999999996 -1 0  0.4000000000000004 -1 0  0.4500000000000002 -1 0  0.5 -1 0  0.5499999999999998 -1 0  0.5999999999999996 -1 0  0.6500000000000004 -1 0  0.7000000000000002 -1 0  0.75 -1 0  0.7999999999999998 -1 0  0.8499999999999996 -1 0  0.9000000000000004 -1 0  0.9500000000000002 -1 0  1 -1 0  1.05 -1 0  1.1 -1 0  1.15 -1 0  1.2 -1 0  1.25 -1 0  1.3 -1 0  1.35 -1 0  1.4 -1 0  1.45 -1 0  1.5 -1 0  1.55 -1 0  1.6 -1 0  1.65 -1 0  1.7 -1 0  1.75 -1 0  1.8 -1 0  1.85 -1 0  1.9 -1 0  1.95 -1 0  2 -1 0  2.05 -1 0  2.1 -1 0  2.15 -1 0  2.2 -1 0  2.25 -1 0  2.3 -1 0  2.35 -1 0  2.4 -1 0  2.45 -1 0  2.5 -1 0  2.55 -1 0  2.6 -1 0  2.65 -1 0  2.7 -1 0  2.75 -1 0  2.8 -1 0  2.85 -1 0  2.9 -1 0  2.95 -1 0  3 -1 0  3.050000000000001 -1 0  3.1 -1 0  3.15 -1 0  3.199999999999999 -1 0  3.25 -1 0  3.300000000000001 -1 0  3.35 -1 0  3.4 -1 0  3.449999999999999 -1 0  3.5 -1 0  3.550000000000001 -1 0  3.6 -1 0  3.65 -1 0  3.699999999999999 -1 0  3.75 -1 0  3.800000000000001 -1 0  3.85 -1 0  3.9 -1 0  3.949999999999999 -1 0  4 -1 0  4.050000000000001 -1 0  4.1 -1 0  4.15 -1 0  4.199999999999999 -1 0  4.25 -1 0  4.300000000000001 -1 0  4.35 -1 0  4.4 -1 0  4.449999999999999 -1 0  4.5 -1 0  4.550000000000001 -1 0  4.6 -1 0  4.65 -1 0  4.699999999999999 -1 0  4.75 -1 0  4.800000000000001 -1 0  4.85 -1 0  4.9 -1 0  4.949999999999999 -1 0  5 -1 0  -5 -0.95 0  -4.95 -0.95 0  -4.9 -0.95 0  -4.85 -0.95 0  -4.8 -0.95 0  -4.75 -0.95 0  -4.7 -0.95 0  -4.65 -0.95 0  -4.6 -0.95 0  -4.55 -0.95 0  -4.5 -0.95 0  -4.45 -0.95 0  -4.4 -0.95 0  -4.35 -0.95 0  -4.3 -0.95 0  -4.25 -0.95 0  -4.2 -0.95 0  -4.15 -0.95 0  -4.1 -0.95 0  -4.05 -0.95 0  -4 -0.95 0  -3.95 -0.95 0  -3.9 -0.95 0  -3.85 -0.95 0  -3.8 -0.95 0  -3.75 -0.95 0  -3.7 -0.95 0  -3.65 -0.95 0  -3.6 -0.95 0  -3.55 -0.95 0  -3.5 -0.95 0  -3.45 -0.95 0  -3.4 -0.95 0  -3.35 -0.95 0  -3.3 -0.95 0  -3.25 -0.95 0  -3.2 -0.95 0  -3.15 -0.95 0  -3.1 -0.95 0  -3.05 -0.95 0  -3 -0.95 0  -2.95 -0.95 0  -2.9 -0.95 0  -2.85 -0.95 0  -2.8 -0.95 0  -2.75 -0.95 0  -2.7 -0.95 0  -2.65 -0.95 0  -2.6 -0.95 0  -2.55 -0.95 0  -2.5 -0.95 0  -2.45 -0.95 0  -2.4 -0.95 0  -2.35 -0.95 0  -2.3 -0.95 0  -2.25 -0.95 0  -2.2 -0.95 0  -2.15 -0.95 0  -2.1 -0.95 0  -2.05 -0.95 0  -2 -0.95 0  -1.95 -0.95 0  -1.9 -0.95 0  -1.85 -0.95 0  -1.8 -0.95 0  -1.75 -0.95 0  -1.7 -0.95 0  -1.65 -0.95 0  -1.6 -0.95 0  -1.55 -0.95 0  -1.5 -0.95 0  -1.45 -0.95 0  -1.4 -0.95 0  -1.35 -0.95 0  -1.3 -0.95 0  -1.25 -0.95 0  -1.2 -0.95 0  -1.15 -0.95 0  -1.1 -0.95 0  -1.05 -0.95 0  -1 -0.95 0  -0.9500000000000002 -0.95 0  -0.9000000000000004 -0.95 0  -0.8499999999999996 -0.95 0  -0.7999999999999998 -0.95 0  -0.75 -0.95 0  -0.7000000000000002 -0.95 0  -0.6500000000000004 -0.95 0  -0.5999999999999996 -0.95 0  -0.5499999999999998 -0.95 0  -0.5 -0.95 0  -0.4500000000000002 -0.95 0  -0.4000000000000004 -0.95 0  -0.3499999999999996 -0.95 0  -0.2999999999999998 -0.95 0  -0.25 -0.95 0  -0.2000000000000002 -0.95 0  -0.1500000000000004 -0.95 0  -0.09999999999999964 -0.95 0  -0.04999999999999982 -0.95 0  0 -0.95 0  0.04999999999999982 -0.95 0  0.09999999999999964 -0.95 0  0.1500000000000004 -0.95 0  0.2000000000000002 -0.95 0  0.25 -0.95 0  0.2999999999999998 -0.95 0  0.3499999999999996 -0.95 0  0.4000000000000004 -0.95 0  0.4500000000000002 -0.95 0  0.5 -0.95 0  0.5499999999999998 -0.95 0  0.5999999999999996 -0.95 0  0.6500000000000004 -0.95 0  0.7000000000000002 -0.95 0  0.75 -0.95 0  0.7999999999999998 -0.95 0  0.8499999999999996 -0.95 0  0.9000000000000004 -0.95 0  0.9500000000000002 -0.95 0  1 -0.95 0  1.05 -0.95 0  1.1 -0.95 0  1.15 -0.95 0  1.2 -0.95 0  1.25 -0.95 0  1.3 -0.95 0  1.35 -0.95 0  1.4 -0.95 0  1.45 -0.95 0  1.5 -0.95 0  1.55 -0.95 0  1.6 -0.95 0  1.65 -0.95 0  1.7 -0.95 0  1.75 -0.95 0  1.8 -0.95 0  1.85 -0.95 0  1.9 -0.95 0  1.95 -0.95 0  2 -0.95 0  2.05 -0.95 0  2.1 -0.95 0  2.15 -0.95 0  2.2 -0.95 0  2.25 -0.95 0  2.3 -0.95 0  2.35 -0.95 0  2.4 -0.95 0  2.45 -0.95 0  2.5 -0.95 0  2.55 -0.95 0  2.6 -0.95 0  2.65 -0.95 0  2.7 -0.95 0  2.75 -0.95 0  2.8 -0.95 0  2.85 -0.95 0  2.9 -0.95 0  2.95 -0.95 0  3 -0.95 0  3.050000000000001 -0.95 0  3.1 -0.95 0  3.15 -0.95 0  3.199999999999999 -0.95 0  3.25 -0.95 0  3.300000000000001 -0.95 0  3.35 -0.95 0  3.4 -0.95 0  3.449999999999999 -0.95 0  3.5 -0.95 0  3.550000000000001 -0.95 0  3.6 -0.95 0  3.65 -0.95 0  3.699999999999999 -0.95 0  3.75 -0.95 0  3.800000000000001 -0.95 0  3.85 -0.95 0  3.9 -0.95 0  3.949999999999999 -0.95 0  4 -0.95 0  4.050000000000001 -0.95 0  4.1 -0.95 0  4.15 -0.95 0  4.199999999999999 -0.95 0  4.25 -0.95 0  4.300000000000001 -0.95 0  4.35 -0.95 0  4.4 -0.95 0  4.449999999999999 -0.95 0  4.5 -0.95 0  4.550000000000001 -0.95 0  4.6 -0.95 0  4.65 -0.95 0  4.699999999999999 -0.95 0  4.75 -0.95 0  4.800000000000001 -0.95 0  4.85 -0.95 0  4.9 -0.95 0  4.949999999999999 -0.95 0  5 -0.95 0  -5 -0.9 0  -4.95 -0.9 0  -4.9 -0.9 0  -4.85 -0.9 0  -4.8 -0.9 0  -4.75 -0.9 0  -4.7 -0.9 0  -4.65 -0.9 0  -4.6 -0.9 0  -4.55 -0.9 0  -4.5 -0.9 0  -4.45 -0.9 0  -4.4 -0.9 0  -4.35 -0.9 0  -4.3 -0.9 0  -4.25 -0.9 0  -4.2 -0.9 0  -4.15 -0.9 0  -4.1 -0.9 0  -4.05 -0.9 0  -4 -0.9 0  -3.95 -0.9 0  -3.9 -0.9 0  -3.85 -0.9 0  -3.8 -0.9 0  -3.75 -0.9 0  -3.7 -0.9 0  -3.65 -0.9 0  -3.6 -0.9 0  -3.55 -0.9 0  -3.5 -0.9 0  -3.45 -0.9 0  -3.4 -0.9 0  -3.35 -0.9 0  -3.3 -0.9 0  -3.25 -0.9 0  -3.2 -0.9 0  -3.15 -0.9 0  -3.1 -0.9 0  -3.05 -0.9 0  -3 -0.9 0  -2.95 -0.9 0  -2.9 -0.9 0  -2.85 -0.9 0  -2.8 -0.9 0  -2.75 -0.9 0  -2.7 -0.9 0  -2.65 -0.9 0  -2.6 -0.9 0  -2.55 -0.9 0  -2.5 -0.9 0  -2.45 -0.9 0  -2.4 -0.9 0  -2.35 -0.9 0  -2.3 -0.9 0  -2.25 -0.9 0  -2.2 -0.9 0  -2.15 -0.9 0  -2.1 -0.9 0  -2.05 -0.9 0  -2 -0.9 0  -1.95 -0.9 0  -1.9 -0.9 0  -1.85 -0.9 0  -1.8 -0.9 0  -1.75 -0.9 0  -1.7 -0.9 0  -1.65 -0.9 0  -1.6 -0.9 0  -1.55 -0.9 0  -1.5 -0.9 0  -1.45 -0.9 0  -1.4 -0.9 0  -1.35 -0.9 0  -1.3 -0.9 0  -1.25 -0.9 0  -1.2 -0.9 0  -1.15 -0.9 0  -1.1 -0.9 0  -1.05 -0.9 0  -1 -0.9 0  -0.9500000000000002 -0.9 0  -0.9000000000000004 -0.9 0  -0.8499999999999996 -0.9 0  -0.7999999999999998 -0.9 0  -0.75 -0.9 0  -0.7000000000000002 -0.9 0  -0.6500000000000004 -0.9 0  -0.5999999999999996 -0.9 0  -0.5499999999999998 -0.9 0  -0.5 -0.9 0  -0.4500000000000002 -0.9 0  -0.4000000000000004 -0.9 0  -0.3499999999999996 -0.9 0  -0.2999999999999998 -0.9 0  -0.25 -0.9 0  -0.2000000000000002 -0.9 0  -0.1500000000000004 -0.9 0  -0.09999999999999964 -0.9 0  -0.04999999999999982 -0.9 0  0 -0.9 0  0.04999999999999982 -0.9 0  0.09999999999999964 -0.9 0  0.1500000000000004 -0.9 0  0.2000000000000002 -0.9 0  0.25 -0.9 0  0.2999999999999998 -0.9 0  0.3499999999999996 -0.9 0  0.4000000000000004 -0.9 0  0.4500000000000002 -0.9 0  0.5 -0.9 0  0.5499999999999998 -0.9 0  0.5999999999999996 -0.9 0  0.6500000000000004 -0.9 0  0.7000000000000002 -0.9 0  0.75 -0.9 0  0.7999999999999998 -0.9 0  0.8499999999999996 -0.9 0  0.9000000000000004 -0.9 0  0.9500000000000002 -0.9 0  1 -0.9 0  1.05 -0.9 0  1.1 -0.9 0  1.15 -0.9 0  1.2 -0.9 0  1.25 -0.9 0  1.3 -0.9 0  1.35 -0.9 0  1.4 -0.9 0  1.45 -0.9 0  1.5 -0.9 0  1.55 -0.9 0  1.6 -0.9 0  1.65 -0.9 0  1.7 -0.9 0  1.75 -0.9 0  1.8 -0.9 0  1.85 -0.9 0  1.9 -0.9 0  1.95 -0.9 0  2 -0.9 0  2.05 -0.9 0  2.1 -0.9 0  2.15 -0.9 0  2.2 -0.9 0  2.25 -0.9 0  2.3 -0.9 0  2.35 -0.9 0  2.4 -0.9 0  2.45 -0.9 0  2.5 -0.9 0  2.55 -0.9 0  2.6 -0.9 0  2.65 -0.9 0  2.7 -0.9 0  2.75 -0.9 0  2.8 -0.9 0  2.85 -0.9 0  2.9 -0.9 0  2.95 -0.9 0  3 -0.9 0  3.050000000000001 -0.9 0  3.1 -0.9 0  3.15 -0.9 0  3.199999999999999 -0.9 0  3.25 -0.9 0  3.300000000000001 -0.9 0  3.35 -0.9 0  3.4 -0.9 0  3.449999999999999 -0.9 0  3.5 -0.9 0  3.550000000000001 -0.9 0  3.6 -0.9 0  3.65 -0.9 0  3.699999999999999 -0.9 0  3.75 -0.9 0  3.800000000000001 -0.9 0  3.85 -0.9 0  3.9 -0.9 0  3.949999999999999 -0.9 0  4 -0.9 0  4.050000000000001 -0.9 0  4.1 -0.9 0  4.15 -0.9 0  4.199999999999999 -0.9 0  4.25 -0.9 0  4.300000000000001 -0.9 0  4.35 -0.9 0  4.4 -0.9 0  4.449999999999999 -0.9 0  4.5 -0.9 0  4.550000000000001 -0.9 0  4.6 -0.9 0  4.65 -0.9 0  4.699999999999999 -0.9 0  4.75 -0.9 0  4.800000000000001 -0.9 0  4.85 -0.9 0  4.9 -0.9 0  4.949999999999999 -0.9 0  5 -0.9 0  -5 -0.85 0  -4.95 -0.85 0  -4.9 -0.85 0  -4.85 -0.85 0  -4.8 -0.85 0  -4.75 -0.85 0  -4.7 -0.85 0  -4.65 -0.85 0  -4.6 -0.85 0  -4.55 -0.85 0  -4.5 -0.85 0  -
[...]
<PointData  Vectors="f_15"> 
<DataArray  type="Float64"  Name="f_15"  NumberOfComponents="3" format="ascii">2.2114786666740720e+00 0.0000000000000000e+00 0.0000000000000000e+00  2.2114241959490943e+00 4.8076681224196248e-02 0.0000000000000000e+00  2.2112393956552254e+00 9.6109742622651526e-02 0.0000000000000000e+00  2.2109487359267663e+00 1.4415686498999200e-01 0.0000000000000000e+00  2.2105263350173674e+00 1.9212100969069870e-01 0.0000000000000000e+00  2.2099885449030419e+00 2.4007053573323398e-01 0.0000000000000000e+00  2.2093242816416541e+00 2.8790746920771382e-01 0.0000000000000000e+00  2.2085383125485896e+00 3.3569987740548929e-01 0.0000000000000000e+00  2.2076148605652435e+00 3.8335559625069759e-01 0.0000000000000000e+00  2.2065722700617534e+00 4.3092589877086818e-01 0.0000000000000000e+00  2.2053830895936684e+00 4.7833354763075370e-01 0.0000000000000000e+00  2.2040614013933735e+00 5.2562534586564824e-01 0.0000000000000000e+00  2.2025923630555604e+00 5.7271375236247835e-01 0.0000000000000000e+00  2.2009799179796286e+00 6.1964700447475729e-01 0.0000000000000000e+00  2.1992023689016817e+00 6.6635831327559192e-01 0.0000000000000000e+00  2.1972796908789038e+00 7.1285101606863266e-01 0.0000000000000000e+00  2.1951756597830716e+00 7.5908962419146775e-01 0.0000000000000000e+00  2.1929086025052738e+00 8.0508253405250141e-01 0.0000000000000000e+00  2.1904520571233541e+00 8.5075012757487600e-01 0.0000000000000000e+00  2.1878171434565949e+00 8.9613543096820225e-01 0.0000000000000000e+00  2.1849677895638733e+00 9.4116159074649464e-01 0.0000000000000000e+00  2.1819333178793796e+00 9.8583908803568887e-01 0.0000000000000000e+00  2.1786621331117448e+00 1.0300779150478265e+00 0.0000000000000000e+00  2.1751831517127296e+00 1.0740014093367773e+00 0.0000000000000000e+00  2.1714534818435767e+00 1.1173143932737657e+00 0.0000000000000000e+00  2.1674975064786088e+00 1.1603307082217764e+00 0.0000000000000000e+00  2.1632619900076326e+00 1.2026879193973545e+00 0.0000000000000000e+00  2.1587900817112073e+00 1.2446154736368829e+00 0.0000000000000000e+00  2.1540167680834004e+00 1.2858897104376601e+00 0.0000000000000000e+00  2.1489829594909442e+00 1.3266811472272726e+00 0.0000000000000000e+00  2.1436364359222249e+00 1.3667034048189237e+00 0.0000000000000000e+00  2.1380144838626833e+00 1.4062280716198101e+00 0.0000000000000000e+00  2.1320576115185821e+00 1.4449691321617466e+00 0.0000000000000000e+00  2.1258228136931088e+00 1.4830787850692297e+00 0.0000000000000000e+00  2.1192431623444503e+00 1.5204191901156467e+00 0.0000000000000000e+00  2.1123762432049533e+00 1.5571165059529177e+00 0.0000000000000000e+00  2.1051685369891682e+00 1.5929498052491153e+00 0.0000000000000000e+00  2.0976801135411267e+00 1.6281480355559763e+00 0.0000000000000000e+00  2.0898518141092182e+00 1.6625155091991759e+00 0.0000000000000000e+00  2.0817640185876130e+00 1.6961649500153340e+00 0.0000000000000000e+00  2.0733565823621318e+00 1.7290415573796909e+00 0.0000000000000000e+00  2.0647087811699469e+00 1.7612169950994641e+00 0.0000000000000000e+00  2.0557770962796700e+00 1.7926119778981178e+00 0.0000000000000000e+00  2.0466426699506801e+00 1.8233603979837290e+00 0.0000000000000000e+00  2.0372601211703580e+00 1.8533742282165380e+00 0.0000000000000000e+00  2.0277236246741359e+00 1.8827540561297964e+00 0.0000000000000000e+00  2.0179930836142246e+00 1.9114644664097418e+00 0.0000000000000000e+00  2.0081568543218893e+00 1.9395993456015048e+00 0.0000000000000000e+00  1.9981867644858138e+00 1.9670789382534442e+00 0.0000000000000000e+00  1.9881768348892226e+00 1.9940250152856069e+00 0.0000000000000000e+00  1.9780923504443801e+00 2.0203722736922223e+00 0.0000000000000000e+00  1.9680372534092310e+00 2.0461707934716395e+00 0.0000000000000000e+00  1.9579862664159915e+00 2.0713770605165203e+00 0.0000000000000000e+00  1.9480361782025233e+00 2.0960126667384782e+00 0.0000000000000000e+00  1.9381783331934774e+00 2.1200144981855433e+00 0.0000000000000000e+00  1.9285214228089169e+00 2.1433202381865462e+00 0.0000000000000000e+00  1.9190597800371310e+00 2.1659136233266425e+00 0.0000000000000000e+00  1.9099252693495454e+00 2.1875778975306277e+00 0.0000000000000000e+00  1.9011370889677481e+00 2.2083011235782548e+00 0.0000000000000000e+00  1.8928398303348544e+00 2.2277906777105421e+00 0.0000000000000000e+00  1.8850864207026230e+00 2.2459386163126789e+00 0.0000000000000000e+00  1.8780537553901910e+00 2.2623636605501281e+00 0.0000000000000000e+00  1.8717917385282739e+00 2.2769851409643871e+00 0.0000000000000000e+00  1.8664790274415284e+00 2.2893566965388898e+00 0.0000000000000000e+00  1.8621179712917986e+00 2.2995355219177478e+00 0.0000000000000000e+00  1.8587749767649824e+00 2.3073287913482274e+00 0.0000000000000000e+00  1.8563183681524995e+00 2.3130636488389058e+00 0.0000000000000000e+00  1.8546657058746745e+00 2.3169257203056604e+00 0.0000000000000000e+00  1.8535473888841290e+00 2.3195567522112222e+00 0.0000000000000000e+00  1.8528443014733662e+00 2.3212008718741464e+00 0.0000000000000000e+00  1.8523322054396685e+00 2.3224061128879159e+00 0.0000000000000000e+00  1.8519657694730982e+00 2.3232726299547406e+00 0.0000000000000000e+00  1.8516298367806208e+00 2.3240469610866743e+00 0.0000000000000000e+00  1.8513596388853417e+00 2.3246739125180027e+00 0.0000000000000000e+00  1.8510834088059838e+00 2.3253256448534754e+00 0.0000000000000000e+00  1.8508408336635060e+00 2.3258617854178971e+00 0.0000000000000000e+00  1.8506117409984915e+00 2.3264056971003062e+00 0.0000000000000000e+00  1.8504034469285922e+00 2.3268668358631159e+00 0.0000000000000000e+00  1.8502012108589996e+00 2.3273482589086534e+00 0.0000000000000000e+00  1.8500277359695976e+00 2.3277060655716482e+00 0.0000000000000000e+00  1.8498723701392008e+00 2.3281166018954518e+00 0.0000000000000000e+00  1.8497059590132152e+00 2.3284234059522220e+00 0.0000000000000000e+00  1.8495921760489193e+00 2.3287530254059199e+00 0.0000000000000000e+00  1.8494531696286420e+00 2.3289943389742787e+00 0.0000000000000000e+00  1.8493579382769487e+00 2.3292929068781465e+00 0.0000000000000000e+00  1.8492355810331313e+00 2.3294573291185809e+00 0.0000000000000000e+00  1.8491832820271286e+00 2.3297139418945805e+00 0.0000000000000000e+00  1.8490565451048964e+00 2.3298322325836680e+00 0.0000000000000000e+00  1.8490280422730005e+00 2.3300730607632114e+00 0.0000000000000000e+00  1.8489174810777551e+00 2.3301247784047665e+00 0.0000000000000000e+00  1.8489094424093313e+00 2.3303569323948587e+00 0.0000000000000000e+00  1.8487902244296035e+00 2.3303655183267589e+00 0.0000000000000000e+00  1.8488230041672193e+00 2.3305818646750178e+00 0.0000000000000000e+00  1.8486933307667612e+00 2.3305401007217235e+00 0.0000000000000000e+00  1.8487359465015138e+00 2.3307904963506729e+00 0.0000000000000000e+00  1.8486159649522127e+00 2.3306766363322837e+00 0.0000000000000000e+00  1.8486799300016385e+00 2.3309367526509974e+00 0.0000000000000000e+00  1.8485336569177726e+00 2.3307999442787906e+00 0.0000000000000000e+00  1.8486406898886041e+00 2.3310631310019927e+00 0.0000000000000000e+00  1.8484713906750934e+00 2.3308707491452587e+00 0.0000000000000000e+00  1.8485965994799585e+00 2.3311950957934009e+00 0.0000000000000000e+00  1.8484205796177298e+00 2.3309149187791358e+00 0.0000000000000000e+00  1.8485723342124734e+00 2.3312893672863635e+00 0.0000000000000000e+00  1.8483606601944800e+00 2.3309626220003050e+00 0.0000000000000000e+00  1.8485615821532881e+00 2.3313752044787623e+00 0.0000000000000000e+00  1.8483093499881087e+00 2.3309633451541920e+00 0.0000000000000000e+00  1.8485506517815022e+00 2.3314856909402555e+00 0.0000000000000000e+00  1.8482634593782199e+00 2.3309381057013070e+00 0.0000000000000000e+00  1.8485462326762878e+00 2.3315734522285005e+00 0.0000000000000000e+00  1.8482201958822897e+00 2.3309314948971473e+00 0.0000000000000000e+00  1.8485465776238339e+00 2.3316347253923810e+00 0.0000000000000000e+00  1.8481767019904303e+00 2.3309044294306949e+00 0.0000000000000000e+00  1.8485535805249069e+00 2.3317344498196246e+00 0.0000000000000000e+00  1.8481327739358924e+00 2.3308317676132191e+00 0.0000000000000000e+00  1.8485614209504571e+00 2.3318173358875689e+00 0.0000000000000000e+00  1.8481034880603142e+00 2.3308221983911999e+00 0.0000000000000000e+00  1.8485489739443561e+00 2.3318154224875323e+00 0.0000000000000000e+00  1.8480902710057108e+00 2.3308509537945659e+00 0.0000000000000000e+00  1.8485430521220716e+00 2.3318313345058108e+00 0.0000000000000000e+00  1.8480639995127697e+00 2.3308060218149205e+00 0.0000000000000000e+00  1.8485411931064224e+00 2.3318900235767424e+00 0.0000000000000000e+00  1.8480588703665068e+00 2.3308217998098373e+00 0.0000000000000000e+00  1.8484996165784455e+00 2.3317820913890639e+00 0.0000000000000000e+00  1.8480959733508024e+00 2.3309789700784127e+00 0.0000000000000000e+00  1.8484498578810962e+00 2.3316555431309967e+00 0.0000000000000000e+00  1.8480952702914264e+00 2.3310205479499371e+00 0.0000000000000000e+00  1.8484516800497615e+00 2.3316695278215733e+00 0.0000000000000000e+00  1.8480903747587896e+00 2.3310175066825183e+00 0.0000000000000000e+00  1.8483966049765599e+00 2.3315687244451420e+00 0.0000000000000000e+00  1.8481547648660515e+00 2.3312001655294479e+00 0.0000000000000000e+00  1.8483270680819666e+00 2.3313677934344641e+00 0.0000000000000000e+00  1.8481641342191764e+00 2.3312817384665867e+00 0.0000000000000000e+00  1.8483372948398378e+00 2.3313851918981618e+00 0.0000000000000000e+00  1.8481384235164700e+00 2.3312227615971004e+00 0.0000000000000000e+00  1.8483051136972497e+00 2.3313529815850802e+00 0.0000000000000000e+00  1.8481986889832680e+00 2.3313216766834013e+00 0.0000000000000000e+00  1.8482235762405803e+00 2.3311840362704843e+00 0.0000000000000000e+00  1.8482226190657578e+00 2.3314378221458578e+00 0.0000000000000000e+00  1.8482307921126124e+00 2.3310986784705663e+00 0.0000000000000000e+00  1.8481880032747433e+00 2.3314184050466560e+00 0.0000000000000000e+00  1.8482225642508865e+00 2.3311390713170335e+00 0.0000000000000000e+00  1.8482121100862745e+00 2.3313607579994855e+00 0.0000000000000000e+00  1.8481689393693275e+00 2.3310941432637708e+00 0.0000000000000000e+00  1.8482412338996435e+00 2.3314131399302367e+00 0.0000000000000000e+00  1.8481460844547610e+00 2.3310129471796919e+00 0.0000000000000000e+00  1.8482119447339991e+00 2.3313429988520262e+00 0.0000000000000000e+00  1.8481854401855276e+00 2.3311010205020404e+00 0.0000000000000000e+00  1.8481634988942626e+00 2.3312041170784426e+00 0.0000000000000000e+00  1.8481614061945399e+00 2.3311151622772459e+00 0.0000000000000000e+00  1.8482218506310568e+00 2.3311983954621200e+00 0.0000000000000000e+00  1.8480813460547143e+00 2.3310588006098318e+00 0.0000000000000000e+00  1.8482281311343820e+00 2.3311231582562137e+00 0.0000000000000000e+00  1.8481009169759419e+00 2.3310285862893414e+00 0.0000000000000000e+00  1.8481932238606027e+00 2.3309851078769501e+00 0.0000000000000000e+00  1.8480754257826908e+00 2.3309043331521857e+00 0.0000000000000000e+00  1.8482107436062527e+00 2.3307434177541810e+00 0.0000000000000000e+00  1.8480759822238950e+00 2.3307577736267837e+00 0.0000000000000000e+00  1.8481565766454209e+00 2.3303809766620689e+00 0.0000000000000000e+00  1.8481122449475300e+00 2.3303571004898656e+00 0.0000000000000000e+00  1.8481686340119281e+00 2.3300939077212317e+00 0.0000000000000000e+00  1.8480641420003106e+00 2.3297531783677918e+00 0.0000000000000000e+00  1.8482007791994246e+00 2.3295509970459296e+00 0.0000000000000000e+00  1.8480507772270143e+00 2.3293455765127531e+00 0.0000000000000000e+00  1.8481242889665725e+00 2.3289083615198098e+00 0.0000000000000000e+00  1.8479282787477975e+00 2.3288635800680750e+00 0.0000000000000000e+00  1.8481195403220170e+00 2.3286184788028894e+00 0.0000000000000000e+00  1.8476203382670753e+00 2.3282530383439117e+00 0.0000000000000000e+00  1.8482654358751227e+00 2.3280971955583745e+00 0.0000000000000000e+00  1.8476388822479237e+00 2.3276014579356228e+00 0.0000000000000000e+00  1.8484421631286887e+00 2.3271231599780626e+00 0.0000000000000000e+00  1.8479772674611235e+00 2.3269404328886791e+00 0.0000000000000000e+00  1.8485922595236381e+00 2.3265965198880454e+00 0.0000000000000000e+00  1.8477862820632660e+00 2.3266582930320272e+00 0.0000000000000000e+00  1.8488533968064609e+00 2.3273358351802846e+00 0.0000000000000000e+00  1.8470019932505832e+00 2.3249365141571903e+00 0.0000000000000000e+00  1.8501176014858038e+00 2.3305517855081574e+00 0.0000000000000000e+00  1.8454856978765739e+00 2.3187622116144970e+00 0.0000000000000000e+00  1.8546815659426046e+00 2.3324690377429564e+00 0.0000000000000000e+00  1.8220026123733393e+00 2.3627690652320847e+00 0.0000000000000000e+00  1.9606105451858917e+00 2.1048839302081537e+00 0.0000000000000000e+00  2.5231321853709359e+00 8.1196106773511711e-01 0.0000000000000000e+00  2.9005064507785914e+00 1.2384773702576435e-01 0.0000000000000000e+00  2.9756219961111809e+00 2.4731694865951729e-03 0.0000000000000000e+00  2.9619856761807899e+00 6.5083816176860635e-03 0.0000000000000000e+00  2.9693792811739890e+00 -7.4499499896762272e-03 0.0000000000000000e+00  2.9723410151254424e+00 -7.8325937865612351e-03 0.0000000000000000e+00  2.9709463273684924e+00 -7.3151369112327679e-03 0.0000000000000000e+00  2.9724873848459539e+00 -1.0969802481740263e-02 0.0000000000000000e+00  2.9726969439483697e+00 -1.0604222903020016e-02 0.0000000000000000e+00  2.9718138330110331e+00 -8.8778875659508375e-03 0.0000000000000000e+00  2.9716156535180969e+00 -9.1124142364147984e-03 0.0000000000000000e+00  2.9719060773865436e+00 -9.3673540300371980e-03 0.0000000000000000e+00  2.9719380601965302e+00 -9.1716045103408771e-03 0.0000000000000000e+00  2.9718724123200708e+00 -1.0263821668543983e-02 0.0000000000000000e+00  2.9717505533848056e+00 -8.6363736471604322e-03 0.0000000000000000e+00  2.9716849877204057e+00 -9.8886435640424507e-03 0.0000000000000000e+00  2.9717642566381182e+00 -9.7687495223191447e-03 0.0000000000000000e+00  2.9717024723320979e+00 -8.9826477202744979e-03 0.0000000000000000e+00  2.9717582914859677e+00 -1.4879929767582338e-02 0.0000000000000000e+00  2.9716748816856864e+00 -1.0402513120953107e-02 0.0000000000000000e+00  2.9716650439903791e+00 0.0000000000000000e+00 0.0000000000000000e+00  2.2114794262650359e+00 0.0000000000000000e+00 -1.3696722809719974e-05  2.2114206127704739e+00 4.8068356102860775e-02 5.4409382059558151e-06  2.2112432333341911e+00 9.6124660112299518e-02 -1.2498709261594388e-06  2.2109467347422185e+00 1.4415232024732652e-01 3.5475868428682651e-06  2.2105260632249322e+00 1.9213336752273033e-01 -4.0309798832875584e-06  2.2099901762785774e+00 2.4006666062920978e-01 5.2702849104372086e-06  2.2093258812384842e+00 2.8791922758422411e-01 -4.8525219332329378e-06  2.2085355734161625e+00 3.3570046988857277e-01 5.2582803849916174e-06  2.2076205089680863e+00 3.8336376148424500e-01 -4.7784945347110240e-06  2.2065711271613893e+00 4.3092783268964385e-01 5.8376543368905632e-06  2.2053845337469355e+00 4.7834634480603178e-01 -6.1312530432969173e-06  2.2040638355913633e+00 5.2562460588612114e-01 7.5289840154568324e-06  2.2025958067254048e+00 5.7272337585686861e-01 -8.0788774099194673e-06  2.2009771918028922e+00 6.1965777976409753e-01 1.0417154219001026e-05  2.1992101315698154e+00 6.6635749548624046e-01 -1.3035959120775195e-05  2.1972776391699083e+00 7.1286252397872141e-01 1.7553509529973409e-05  2.1951793866629901e+00 7.5909759818120581e-01 -2.1293858816062212e-05  2.1929090960945650e+00 8.0508584284146145e-01 2.5161446720823698e-05  2.1904580069841244e+00 8.5075122043652696e-01 -2.7464959994177742e-05  2.1878117121376284e+00 8.9615551730964049e-01 3.0037954603298309e-05  2.1849778108697406e+00 9.4114954677157214e-01 -3.1746856344478331e-05  2.1819284181154974e+00 9.8584340761414935e-01 3.3160852722813165e-05  2.1786678243632731e+00 1.0301041806329125e+00 -3.1766568608362279e-05  2.1751807314842595e+00 1.0739615812666916e+00 2.7302443658379048e-05  2.1714610032549841e+00 1.1173515484871857e+00 -1.9095451587369132e-05  2.1674902002315775e+00 1.1603119258973218e+00 1.0066922848731340e-05  2.1632720817196986e+00 1.2026884192542286e+00 -2.1910439496319492e-06  2.1587850994757458e+00 1.2446008089090419e+00 -2.3504598914459104e-06  2.1540217992723396e+00 1.2859208369052073e+00 4.9174232563838442e-06  2.1489807852855969e+00 1.3266202428476130e+00 -6.1485837852135029e-06  2.1436439384054342e+00 1.3667429425012358e+00 7.2512345181695830e-06  2.1380072738602731e+00 1.4061997441553018e+00 -6.4997424419421877e-06  2.1320682412668277e+00 1.4449616515251220e+00 4.4098377088921702e-06  2.1258172277994261e+00 1.4830585388634618e+00 -7.9386865376634685e-07  2.1192501715488490e+00 1.5204431570253987e+00 -1.5926583812380357e-06  2.1123717383474738e+00 1.5570616619848905e+00 3.5804023049775361e-06  2.1051786127604677e+00 1.5929678818604931e+00 -3.9299760282666624e-06  2.0976705209174527e+00 1.6281350726807200e+00 4.2659783301962392e-06  2.0898633142609984e+00 1.6624978360366975e+00 -2.7184860192025219e-06  2.0817565113474981e+00 1.6961565356611636e+00 1.7537544344219701e-06  2.0733634313334952e+00 1.7290478507746132e+00 -1.1713538092977551e-06  2.0647018550274447e+00 1.7611898061313562e+00 2.3062753977252367e-06  2.0557861419158363e+00 1.7926231398325507e+00 -2.3332100920030435e-06  2.0466321179309470e+00 1.8233485150938464e+00 1.2095510261874764e-06  2.0372692653767013e+00 1.8533695855224297e+00 -3.3408529285753453e-07  2.0277165190569710e+00 1.8827448852542572e+00 9.4045091297928386e-07  2.0180001723057344e+00 1.9114762790665822e+00 -3.4198717461592327e-06  2.0081492404440215e+00 1.9395751198592537e+00 5.2045693690251123e-06  1.9981983524388192e+00 1.9670819778998989e+00 -7.8846835337696425e-06  1.9881664907538248e+00 1.9940279524807343e+00 8.7242997173075553e-06  1.9781021709051334e+00 2.0203652791198450e+00 -9.4082351430142269e-06  1.9680295617705641e+00 2.0461710572156284e+00 7.4255036855698482e-06  1.9579919061495366e+00 2.0713834255589521e+00 -8.6808677832606582e-06  1.9480256527366586e+00 2.0960250266495191e+00 8.9565586485737139e-06  1.9381857251648440e+00 2.1200071853130424e+00 -1.1333907254731827e-05  1.9285060857319720e+00 2.1433616020040196e+00 9.3242687107325768e-06  1.9190625618805315e+00 2.1659003958749188e+00 -1.0115397541371826e-05  1.9099097549749446e+00 2.1876239851270913e+00 7.1099456474602425e-06  1.9011320467130755e+00 2.2083165910100204e+00 -7.3832658737662407e-06  1.8928188063032620e+00 2.2278409371949914e+00 3.7244303940879095e-06  1.8850839546134495e+00 2.2459407854005198e+00 -4.9945311988085540e-06  1.8780300968064967e+00 2.2624319287213295e+00 2.8203748376420063e-06  1.8717900122408095e+00 2.2769776932513128e+00 -2.1300334425141210e-06  1.8664643009675825e+00 2.2894041726536880e+00 1.8303418550507398e-06  1.8621174424398013e+00 2.2995382158650930e+00 7.5694685312798787e-07  1.8587656512897694e+00 2.3073535638399276e+00 1.0525034548383885e-06  1.8563311022651769e+00 2.3130383163576909e+00 1.5641991758376138e-06  1.8546602105941876e+00 2.3169528366503198e+00 -1.3660096315647584e-06  1.8535594684241410e+00 2.3195215918580079e+00 -1.5717421068902231e-06  1.8528378292349601e+00 2.3212161849434803e+00 -2.9674301307772628e-06  1.8523276861495903e+00 2.3224146481186603e+00 -2.7382979874309578e-06  1.8519405399013933e+00 2.3233131758255872e+00 -6.2252933012279422e-07  1.8516176824042969e+00 2.3240619924210666e+00 -2.8712911275877842e-06  1.8513309820697783e+00 2.3247372995350060e+00 2.6068908803567486e-06  1.8510641134356325e+00 2.3253353332917102e+00 -4.8630303457234738e-06  1.8508277317300226e+00 2.3258881864806509e+00 5.8538762503779334e-06  1.8506024301873742e+00 2.3264030203608765e+00 -6.4459639309379264e-06  1.8503880385940132e+00 2.3268901755748495e+00 6.8929679356952177e-06  1.8502033721044517e+00 2.3273045033669626e+00 -7.9989837820415027e-06  1.8500250006698713e+00 2.3277238968636125e+00 8.2641088611002210e-06  1.8498564827431825e+00 2.3280891773724437e+00 -1.0280141448444268e-05  1.8497118129239858e+00 2.3284210192450621e+00 9.7816662317220785e-06  1.8495820361185682e+00 