<?xml version="1.0"?>
<VTKFile type="UnstructuredGrid"  version="0.1"  >
<UnstructuredGrid>
<Piece  NumberOfPoints="8241" NumberOfCells="16000">
<Points>
<DataArray  type="Float64"  NumberOfComponents="3"  format="ascii">-5 -1 0  -4.95 -1 0  -4.9 -1 0  -4.85 -1 0  -4.8 -1 0  -4.75 -1 0  -4.7 -1 0  -4.65 -1 0  -4.6 -1 0  -4.55 -1 0  -4.5 -1 0  -4.45 -1 0  -4.4 -1 0  -4.35 -1 0  -4.3 -1 0  -4.25 -1 0  -4.2 -1 0  -4.15 -1 0  -4.1 -1 0  -4.05 -1 0  -4 -1 0  -3.95 -1 0  -3.9 -1 0  -3.85 -1 0  -3.8 -1 0  -3.75 -1 0  -3.7 -1 0  -3.65 -1 0  -3.6 -1 0  -3.55 -1 0  -3.5 -1 0  -3.45 -1 0  -3.4 -1 0  -3.35 -1 0  -3.3 -1 0  -3.25 -1 0  -3.2 -1 0  -3.15 -1 0  -3.1 -1 0  -3.05 -1 0  -3 -1 0  -2.95 -1 0  -2.9 -1 0  -2.85 -1 0  -2.8 -1 0  -2.75 -1 0  -2.7 -1 0  -2.65 -1 0  -2.6 -1 0  -2.55 -1 0  -2.5 -1 0  -2.45 -1 0  -2.4 -1 0  -2.35 -1 0  -2.3 -1 0  -2.25 -1 0  -2.2 -1 0  -2.15 -1 0  -2.1 -1 0  -2.05 -1 0  -2 -1 0  -1.95 -1 0  -1.9 -1 0  -1.85 -1 0  -1.8 -1 0  -1.75 -1 0  -1.7 -1 0  -1.65 -1 0  -1.6 -1 0  -1.55 -1 0  -1.5 -1 0  -1.45 -1 0  -1.4 -1 0  -1.35 -1 0  -1.3 -1 0  -1.25 -1 0  -1.2 -1 0  -1.15 -1 0  -1.1 -1 0  -1.05 -1 0  -1 -1 0  -0.9500000000000002 -1 0  -0.9000000000000004 -1 0  -0.8499999999999996 -1 0  -0.7999999999999998 -1 0  -0.75 -1 0  -0.7000000000000002 -1 0  -0.6500000000000004 -1 0  -0.5999999999999996 -1 0  -0.5499999999999998 -1 0  -0.5 -1 0  -0.4500000000000002 -1 0  -0.4000000000000004 -1 0  -0.3499999999999996 -1 0  -0.2999999999999998 -1 0  -0.25 -1 0  -0.2000000000000002 -1 0  -0.1500000000000004 -1 0  -0.09999999999999964 -1 0  -0.04999999999999982 -1 0  0 -1 0  0.04999999999999982 -1 0  0.09999999999999964 -1 0  0.1500000000000004 -1 0  0.2000000000000002 -1 0  0.25 -1 0  0.2999999999999998 -1 0  0.3499999999999996 -1 0  0.4000000000000004 -1 0  0.4500000000000002 -1 0  0.5 -1 0  0.5499999999999998 -1 0  0.5999999999999996 -1 0  0.6500000000000004 -1 0  0.7000000000000002 -1 0  0.75 -1 0  0.7999999999999998 -1 0  0.8499999999999996 -1 0  0.9000000000000004 -1 0  0.9500000000000002 -1 0  1 -1 0  1.05 -1 0  1.1 -1 0  1.15 -1 0  1.2 -1 0  1.25 -1 0  1.3 -1 0  1.35 -1 0  1.4 -1 0  1.45 -1 0  1.5 -1 0  1.55 -1 0  1.6 -1 0  1.65 -1 0  1.7 -1 0  1.75 -1 0  1.8 -1 0  1.85 -1 0  1.9 -1 0  1.95 -1 0  2 -1 0  2.05 -1 0  2.1 -1 0  2.15 -1 0  2.2 -1 0  2.25 -1 0  2.3 -1 0  2.35 -1 0  2.4 -1 0  2.45 -1 0  2.5 -1 0  2.55 -1 0  2.6 -1 0  2.65 -1 0  2.7 -1 0  2.75 -1 0  2.8 -1 0  2.85 -1 0  2.9 -1 0  2.95 -1 0  3 -1 0  3.050000000000001 -1 0  3.1 -1 0  3.15 -1 0  3.199999999999999 -1 0  3.25 -1 0  3.300000000000001 -1 0  3.35 -1 0  3.4 -1 0  3.449999999999999 -1 0  3.5 -1 0  3.550000000000001 -1 0  3.6 -1 0  3.65 -1 0  3.699999999999999 -1 0  3.75 -1 0  3.800000000000001 -1 0  3.85 -1 0  3.9 -1 0  3.949999999999999 -1 0  4 -1 0  4.050000000000001 -1 0  4.1 -1 0  4.15 -1 0  4.199999999999999 -1 0  4.25 -1 0  4.300000000000001 -1 0  4.35 -1 0  4.4 -1 0  4.449999999999999 -1 0  4.5 -1 0  4.550000000000001 -1 0  4.6 -1 0  4.65 -1 0  4.699999999999999 -1 0  4.75 -1 0  4.800000000000001 -1 0  4.85 -1 0  4.9 -1 0  4.949999999999999 -1 0  5 -1 0  -5 -0.95 0  -4.95 -0.95 0  -4.9 -0.95 0  -4.85 -0.95 0  -4.8 -0.95 0  -4.75 -0.95 0  -4.7 -0.95 0  -4.65 -0.95 0  -4.6 -0.95 0  -4.55 -0.95 0  -4.5 -0.95 0  -4.45 -0.95 0  -4.4 -0.95 0  -4.35 -0.95 0  -4.3 -0.95 0  -4.25 -0.95 0  -4.2 -0.95 0  -4.15 -0.95 0  -4.1 -0.95 0  -4.05 -0.95 0  -4 -0.95 0  -3.95 -0.95 0  -3.9 -0.95 0  -3.85 -0.95 0  -3.8 -0.95 0  -3.75 -0.95 0  -3.7 -0.95 0  -3.65 -0.95 0  -3.6 -0.95 0  -3.55 -0.95 0  -3.5 -0.95 0  -3.45 -0.95 0  -3.4 -0.95 0  -3.35 -0.95 0  -3.3 -0.95 0  -3.25 -0.95 0  -3.2 -0.95 0  -3.15 -0.95 0  -3.1 -0.95 0  -3.05 -0.95 0  -3 -0.95 0  -2.95 -0.95 0  -2.9 -0.95 0  -2.85 -0.95 0  -2.8 -0.95 0  -2.75 -0.95 0  -2.7 -0.95 0  -2.65 -0.95 0  -2.6 -0.95 0  -2.55 -0.95 0  -2.5 -0.95 0  -2.45 -0.95 0  -2.4 -0.95 0  -2.35 -0.95 0  -2.3 -0.95 0  -2.25 -0.95 0  -2.2 -0.95 0  -2.15 -0.95 0  -2.1 -0.95 0  -2.05 -0.95 0  -2 -0.95 0  -1.95 -0.95 0  -1.9 -0.95 0  -1.85 -0.95 0  -1.8 -0.95 0  -1.75 -0.95 0  -1.7 -0.95 0  -1.65 -0.95 0  -1.6 -0.95 0  -1.55 -0.95 0  -1.5 -0.95 0  -1.45 -0.95 0  -1.4 -0.95 0  -1.35 -0.95 0  -1.3 -0.95 0  -1.25 -0.95 0  -1.2 -0.95 0  -1.15 -0.95 0  -1.1 -0.95 0  -1.05 -0.95 0  -1 -0.95 0  -0.9500000000000002 -0.95 0  -0.9000000000000004 -0.95 0  -0.8499999999999996 -0.95 0  -0.7999999999999998 -0.95 0  -0.75 -0.95 0  -0.7000000000000002 -0.95 0  -0.6500000000000004 -0.95 0  -0.5999999999999996 -0.95 0  -0.5499999999999998 -0.95 0  -0.5 -0.95 0  -0.4500000000000002 -0.95 0  -0.4000000000000004 -0.95 0  -0.3499999999999996 -0.95 0  -0.2999999999999998 -0.95 0  -0.25 -0.95 0  -0.2000000000000002 -0.95 0  -0.1500000000000004 -0.95 0  -0.09999999999999964 -0.95 0  -0.04999999999999982 -0.95 0  0 -0.95 0  0.04999999999999982 -0.95 0  0.09999999999999964 -0.95 0  0.1500000000000004 -0.95 0  0.2000000000000002 -0.95 0  0.25 -0.95 0  0.2999999999999998 -0.95 0  0.3499999999999996 -0.95 0  0.4000000000000004 -0.95 0  0.4500000000000002 -0.95 0  0.5 -0.95 0  0.5499999999999998 -0.95 0  0.5999999999999996 -0.95 0  0.6500000000000004 -0.95 0  0.7000000000000002 -0.95 0  0.75 -0.95 0  0.7999999999999998 -0.95 0  0.8499999999999996 -0.95 0  0.9000000000000004 -0.95 0  0.9500000000000002 -0.95 0  1 -0.95 0  1.05 -0.95 0  1.1 -0.95 0  1.15 -0.95 0  1.2 -0.95 0  1.25 -0.95 0  1.3 -0.95 0  1.35 -0.95 0  1.4 -0.95 0  1.45 -0.95 0  1.5 -0.95 0  1.55 -0.95 0  1.6 -0.95 0  1.65 -0.95 0  1.7 -0.95 0  1.75 -0.95 0  1.8 -0.95 0  1.85 -0.95 0  1.9 -0.95 0  1.95 -0.95 0  2 -0.95 0  2.05 -0.95 0  2.1 -0.95 0  2.15 -0.95 0  2.2 -0.95 0  2.25 -0.95 0  2.3 -0.95 0  2.35 -0.95 0  2.4 -0.95 0  2.45 -0.95 0  2.5 -0.95 0  2.55 -0.95 0  2.6 -0.95 0  2.65 -0.95 0  2.7 -0.95 0  2.75 -0.95 0  2.8 -0.95 0  2.85 -0.95 0  2.9 -0.95 0  2.95 -0.95 0  3 -0.95 0  3.050000000000001 -0.95 0  3.1 -0.95 0  3.15 -0.95 0  3.199999999999999 -0.95 0  3.25 -0.95 0  3.300000000000001 -0.95 0  3.35 -0.95 0  3.4 -0.95 0  3.449999999999999 -0.95 0  3.5 -0.95 0  3.550000000000001 -0.95 0  3.6 -0.95 0  3.65 -0.95 0  3.699999999999999 -0.95 0  3.75 -0.95 0  3.800000000000001 -0.95 0  3.85 -0.95 0  3.9 -0.95 0  3.949999999999999 -0.95 0  4 -0.95 0  4.050000000000001 -0.95 0  4.1 -0.95 0  4.15 -0.95 0  4.199999999999999 -0.95 0  4.25 -0.95 0  4.300000000000001 -0.95 0  4.35 -0.95 0  4.4 -0.95 0  4.449999999999999 -0.95 0  4.5 -0.95 0  4.550000000000001 -0.95 0  4.6 -0.95 0  4.65 -0.95 0  4.699999999999999 -0.95 0  4.75 -0.95 0  4.800000000000001 -0.95 0  4.85 -0.95 0  4.9 -0.95 0  4.949999999999999 -0.95 0  5 -0.95 0  -5 -0.9 0  -4.95 -0.9 0  -4.9 -0.9 0  -4.85 -0.9 0  -4.8 -0.9 0  -4.75 -0.9 0  -4.7 -0.9 0  -4.65 -0.9 0  -4.6 -0.9 0  -4.55 -0.9 0  -4.5 -0.9 0  -4.45 -0.9 0  -4.4 -0.9 0  -4.35 -0.9 0  -4.3 -0.9 0  -4.25 -0.9 0  -4.2 -0.9 0  -4.15 -0.9 0  -4.1 -0.9 0  -4.05 -0.9 0  -4 -0.9 0  -3.95 -0.9 0  -3.9 -0.9 0  -3.85 -0.9 0  -3.8 -0.9 0  -3.75 -0.9 0  -3.7 -0.9 0  -3.65 -0.9 0  -3.6 -0.9 0  -3.55 -0.9 0  -3.5 -0.9 0  -3.45 -0.9 0  -3.4 -0.9 0  -3.35 -0.9 0  -3.3 -0.9 0  -3.25 -0.9 0  -3.2 -0.9 0  -3.15 -0.9 0  -3.1 -0.9 0  -3.05 -0.9 0  -3 -0.9 0  -2.95 -0.9 0  -2.9 -0.9 0  -2.85 -0.9 0  -2.8 -0.9 0  -2.75 -0.9 0  -2.7 -0.9 0  -2.65 -0.9 0  -2.6 -0.9 0  -2.55 -0.9 0  -2.5 -0.9 0  -2.45 -0.9 0  -2.4 -0.9 0  -2.35 -0.9 0  -2.3 -0.9 0  -2.25 -0.9 0  -2.2 -0.9 0  -2.15 -0.9 0  -2.1 -0.9 0  -2.05 -0.9 0  -2 -0.9 0  -1.95 -0.9 0  -1.9 -0.9 0  -1.85 -0.9 0  -1.8 -0.9 0  -1.75 -0.9 0  -1.7 -0.9 0  -1.65 -0.9 0  -1.6 -0.9 0  -1.55 -0.9 0  -1.5 -0.9 0  -1.45 -0.9 0  -1.4 -0.9 0  -1.35 -0.9 0  -1.3 -0.9 0  -1.25 -0.9 0  -1.2 -0.9 0  -1.15 -0.9 0  -1.1 -0.9 0  -1.05 -0.9 0  -1 -0.9 0  -0.9500000000000002 -0.9 0  -0.9000000000000004 -0.9 0  -0.8499999999999996 -0.9 0  -0.7999999999999998 -0.9 0  -0.75 -0.9 0  -0.7000000000000002 -0.9 0  -0.6500000000000004 -0.9 0  -0.5999999999999996 -0.9 0  -0.5499999999999998 -0.9 0  -0.5 -0.9 0  -0.4500000000000002 -0.9 0  -0.4000000000000004 -0.9 0  -0.3499999999999996 -0.9 0  -0.2999999999999998 -0.9 0  -0.25 -0.9 0  -0.2000000000000002 -0.9 0  -0.1500000000000004 -0.9 0  -0.09999999999999964 -0.9 0  -0.04999999999999982 -0.9 0  0 -0.9 0  0.04999999999999982 -0.9 0  0.09999999999999964 -0.9 0  0.1500000000000004 -0.9 0  0.2000000000000002 -0.9 0  0.25 -0.9 0  0.2999999999999998 -0.9 0  0.3499999999999996 -0.9 0  0.4000000000000004 -0.9 0  0.4500000000000002 -0.9 0  0.5 -0.9 0  0.5499999999999998 -0.9 0  0.5999999999999996 -0.9 0  0.6500000000000004 -0.9 0  0.7000000000000002 -0.9 0  0.75 -0.9 0  0.7999999999999998 -0.9 0  0.8499999999999996 -0.9 0  0.9000000000000004 -0.9 0  0.9500000000000002 -0.9 0  1 -0.9 0  1.05 -0.9 0  1.1 -0.9 0  1.15 -0.9 0  1.2 -0.9 0  1.25 -0.9 0  1.3 -0.9 0  1.35 -0.9 0  1.4 -0.9 0  1.45 -0.9 0  1.5 -0.9 0  1.55 -0.9 0  1.6 -0.9 0  1.65 -0.9 0  1.7 -0.9 0  1.75 -0.9 0  1.8 -0.9 0  1.85 -0.9 0  1.9 -0.9 0  1.95 -0.9 0  2 -0.9 0  2.05 -0.9 0  2.1 -0.9 0  2.15 -0.9 0  2.2 -0.9 0  2.25 -0.9 0  2.3 -0.9 0  2.35 -0.9 0  2.4 -0.9 0  2.45 -0.9 0  2.5 -0.9 0  2.55 -0.9 0  2.6 -0.9 0  2.65 -0.9 0  2.7 -0.9 0  2.75 -0.9 0  2.8 -0.9 0  2.85 -0.9 0  2.9 -0.9 0  2.95 -0.9 0  3 -0.9 0  3.050000000000001 -0.9 0  3.1 -0.9 0  3.15 -0.9 0  3.199999999999999 -0.9 0  3.25 -0.9 0  3.300000000000001 -0.9 0  3.35 -0.9 0  3.4 -0.9 0  3.449999999999999 -0.9 0  3.5 -0.9 0  3.550000000000001 -0.9 0  3.6 -0.9 0  3.65 -0.9 0  3.699999999999999 -0.9 0  3.75 -0.9 0  3.800000000000001 -0.9 0  3.85 -0.9 0  3.9 -0.9 0  3.949999999999999 -0.9 0  4 -0.9 0  4.050000000000001 -0.9 0  4.1 -0.9 0  4.15 -0.9 0  4.199999999999999 -0.9 0  4.25 -0.9 0  4.300000000000001 -0.9 0  4.35 -0.9 0  4.4 -0.9 0  4.449999999999999 -0.9 0  4.5 -0.9 0  4.550000000000001 -0.9 0  4.6 -0.9 0  4.65 -0.9 0  4.699999999999999 -0.9 0  4.75 -0.9 0  4.800000000000001 -0.9 0  4.85 -0.9 0  4.9 -0.9 0  4.949999999999999 -0.9 0  5 -0.9 0  -5 -0.85 0  -4.95 -0.85 0  -4.9 -0.85 0  -4.85 -0.85 0  -4.8 -0.85 0  -4.75 -0.85 0  -4.7 -0.85 0  -4.65 -0.85 0  -4.6 -0.85 0  -4.55 -0.85 0  -4.5 -0.85 0  -
[...]
<PointData  Vectors="f_15"> 
<DataArray  type="Float64"  Name="f_15"  NumberOfComponents="3" format="ascii">2.3098872556084111e+00 0.0000000000000000e+00 0.0000000000000000e+00  2.3098030135347201e+00 4.8945156926756668e-02 0.0000000000000000e+00  2.3095425337477211e+00 9.7859968668526282e-02 0.0000000000000000e+00  2.3091167645097648e+00 1.4674778282568460e-01 0.0000000000000000e+00  2.3085123638065359e+00 1.9555627140735257e-01 0.0000000000000000e+00  2.3077314580486896e+00 2.4429510537027280e-01 0.0000000000000000e+00  2.3067743868820849e+00 2.9290872183468569e-01 0.0000000000000000e+00  2.3056328817810341e+00 3.4140773238273237e-01 0.0000000000000000e+00  2.3043012954131341e+00 3.8974049256447768e-01 0.0000000000000000e+00  2.3027823915193442e+00 4.3790343057714987e-01 0.0000000000000000e+00  2.3010624754656415e+00 4.8585530461125931e-01 0.0000000000000000e+00  2.2991364299403001e+00 5.3359078119418846e-01 0.0000000000000000e+00  2.2970027219935014e+00 5.8105615978472158e-01 0.0000000000000000e+00  2.2946478532667647e+00 6.2825082883680572e-01 0.0000000000000000e+00  2.2920623072868884e+00 6.7513185512979967e-01 0.0000000000000000e+00  2.2892454332593171e+00 7.2166787698218349e-01 0.0000000000000000e+00  2.2861781806181498e+00 7.6783625570023906e-01 0.0000000000000000e+00  2.2828548527672941e+00 8.1360971090821699e-01 0.0000000000000000e+00  2.2792651333789404e+00 8.5893450679086092e-01 0.0000000000000000e+00  2.2754000806562193e+00 9.0380453221507506e-01 0.0000000000000000e+00  2.2712383453091660e+00 9.4817573216910300e-01 0.0000000000000000e+00  2.2667872737452921e+00 9.9200869725938345e-01 0.0000000000000000e+00  2.2620153804541445e+00 1.0352657700184005e+00 0.0000000000000000e+00  2.2569295285934734e+00 1.0779722834606302e+00 0.0000000000000000e+00  2.2515039539242556e+00 1.1199658534484025e+00 0.0000000000000000e+00  2.2457497608499910e+00 1.1613963466694335e+00 0.0000000000000000e+00  2.2396293085462484e+00 1.2020611966905836e+00 0.0000000000000000e+00  2.2331729046509365e+00 1.2420659981466085e+00 0.0000000000000000e+00  2.2263375886546277e+00 1.2812897984210072e+00 0.0000000000000000e+00  2.2191554101583386e+00 1.3198337832175817e+00 0.0000000000000000e+00  2.2115916578228476e+00 1.3575026969310831e+00 0.0000000000000000e+00  2.2036874582217547e+00 1.3945188726347009e+00 0.0000000000000000e+00  2.1954004349606464e+00 1.4306555871189206e+00 0.0000000000000000e+00  2.1867899246263098e+00 1.4660868980372126e+00 0.0000000000000000e+00  2.1778163675795694e+00 1.5006857517388208e+00 0.0000000000000000e+00  2.1685399031421730e+00 1.5346215062018915e+00 0.0000000000000000e+00  2.1589298407988040e+00 1.5677087220866390e+00 0.0000000000000000e+00  2.1490591320658443e+00 1.6001921467115041e+00 0.0000000000000000e+00  2.1388873813729439e+00 1.6319329304081946e+00 0.0000000000000000e+00  2.1285032196501232e+00 1.6630586186373979e+00 0.0000000000000000e+00  2.1178690944748109e+00 1.6935446471928453e+00 0.0000000000000000e+00  2.1070714207781824e+00 1.7235154283112957e+00 0.0000000000000000e+00  2.0960741742598006e+00 1.7528828405969432e+00 0.0000000000000000e+00  2.0849758877529778e+00 1.7818272982172398e+00 0.0000000000000000e+00  2.0737258158719505e+00 1.8102571105719172e+00 0.0000000000000000e+00  2.0624286749263971e+00 1.8383232896044057e+00 0.0000000000000000e+00  2.0510395364623455e+00 1.8659295781673904e+00 0.0000000000000000e+00  2.0396492494406759e+00 1.8932614570268784e+00 0.0000000000000000e+00  2.0282170300841558e+00 1.9201473506441002e+00 0.0000000000000000e+00  2.0168398185988261e+00 1.9467933841953280e+00 0.0000000000000000e+00  2.0054628100166290e+00 1.9730575410111764e+00 0.0000000000000000e+00  1.9941887015938800e+00 1.9990343633970260e+00 0.0000000000000000e+00  1.9829710412025492e+00 2.0246361927744583e+00 0.0000000000000000e+00  1.9718991246555413e+00 2.0499360219198723e+00 0.0000000000000000e+00  1.9609405394616262e+00 2.0748067847296281e+00 0.0000000000000000e+00  1.9501929805148692e+00 2.0992496691769968e+00 0.0000000000000000e+00  1.9396229189652328e+00 2.1232299106688277e+00 0.0000000000000000e+00  1.9293445336659583e+00 2.1465666513558572e+00 0.0000000000000000e+00  1.9193506782940806e+00 2.1692727036982133e+00 0.0000000000000000e+00  1.9097559154225907e+00 2.1910958451200586e+00 0.0000000000000000e+00  1.9005921710034295e+00 2.2119597950301593e+00 0.0000000000000000e+00  1.8920064532199532e+00 2.2315310968020681e+00 0.0000000000000000e+00  1.8840474471146968e+00 2.2497288505130206e+00 0.0000000000000000e+00  1.8768990186276155e+00 2.2660515512460364e+00 0.0000000000000000e+00  1.8706287678664599e+00 2.2804409483477244e+00 0.0000000000000000e+00  1.8653804932254503e+00 2.2924498445685071e+00 0.0000000000000000e+00  1.8611695680155127e+00 2.3021401723583046e+00 0.0000000000000000e+00  1.8580170169682484e+00 2.3093501203445834e+00 0.0000000000000000e+00  1.8557680738187814e+00 2.3145583066030522e+00 0.0000000000000000e+00  1.8542790050600597e+00 2.3179374039627021e+00 0.0000000000000000e+00  1.8533109352440378e+00 2.3202026324491998e+00 0.0000000000000000e+00  1.8526773077353227e+00 2.3216251130286638e+00 0.0000000000000000e+00  1.8522183443071685e+00 2.3227143837357169e+00 0.0000000000000000e+00  1.8518675972690093e+00 2.3234734825298271e+00 0.0000000000000000e+00  1.8515578935618682e+00 2.3242389294415520e+00 0.0000000000000000e+00  1.8512678478891560e+00 2.3248342792811392e+00 0.0000000000000000e+00  1.8510193872593219e+00 2.3254662219615514e+00 0.0000000000000000e+00  1.8507686210185894e+00 2.3259767901135162e+00 0.0000000000000000e+00  1.8505448777865245e+00 2.3265417355823308e+00 0.0000000000000000e+00  1.8503339540573420e+00 2.3269600689985421e+00 0.0000000000000000e+00  1.8501537115160398e+00 2.3274328821332029e+00 0.0000000000000000e+00  1.8499612024880441e+00 2.3278019173235935e+00 0.0000000000000000e+00  1.8498197450069767e+00 2.3281813920866057e+00 0.0000000000000000e+00  1.8496612651210762e+00 2.3284888207558940e+00 0.0000000000000000e+00  1.8495402713131248e+00 2.3288001759767454e+00 0.0000000000000000e+00  1.8494049361035343e+00 2.3290680009290794e+00 0.0000000000000000e+00  1.8493188093812389e+00 2.3292947830750235e+00 0.0000000000000000e+00  1.8492028645501251e+00 2.3295192135347071e+00 0.0000000000000000e+00  1.8491280692684078e+00 2.3297132467016723e+00 0.0000000000000000e+00  1.8490401931865394e+00 2.3298841608666043e+00 0.0000000000000000e+00  1.8489788116082690e+00 2.3300337698410596e+00 0.0000000000000000e+00  1.8488952399200089e+00 2.3302034800152382e+00 0.0000000000000000e+00  1.8488606568923651e+00 2.3302859098244526e+00 0.0000000000000000e+00  1.8487924798177766e+00 2.3304293295473775e+00 0.0000000000000000e+00  1.8487500637200593e+00 2.3305107917553314e+00 0.0000000000000000e+00  1.8487091533646749e+00 2.3306148904949651e+00 0.0000000000000000e+00  1.8486695789613270e+00 2.3306680973786058e+00 0.0000000000000000e+00  1.8486291156254591e+00 2.3307876852296676e+00 0.0000000000000000e+00  1.8486059556695089e+00 2.3307835150296055e+00 0.0000000000000000e+00  1.8485745077083930e+00 2.3309153433100822e+00 0.0000000000000000e+00  1.8485384172917907e+00 2.3308891229530215e+00 0.0000000000000000e+00  1.8485330377059814e+00 2.3310176108192673e+00 0.0000000000000000e+00  1.8484902441521336e+00 2.3309623358916176e+00 0.0000000000000000e+00  1.8484866731623424e+00 2.3311126868174230e+00 0.0000000000000000e+00  1.8484534622076501e+00 2.3310135098457017e+00 0.0000000000000000e+00  1.8484540377725736e+00 2.3311882294712372e+00 0.0000000000000000e+00  1.8484129938251963e+00 2.3310560146310904e+00 0.0000000000000000e+00  1.8484293386151840e+00 2.3312432227157562e+00 0.0000000000000000e+00  1.8483838557058008e+00 2.3311027270650273e+00 0.0000000000000000e+00  1.8483963308117921e+00 2.3312745219658910e+00 0.0000000000000000e+00  1.8483687458470239e+00 2.3311442064183789e+00 0.0000000000000000e+00  1.8483685500502665e+00 2.3312894676807332e+00 0.0000000000000000e+00  1.8483486800529427e+00 2.3311910665175062e+00 0.0000000000000000e+00  1.8483441989312581e+00 2.3312909617581106e+00 0.0000000000000000e+00  1.8483411786955499e+00 2.3312381374416744e+00 0.0000000000000000e+00  1.8483110346689835e+00 2.3312664200817883e+00 0.0000000000000000e+00  1.8483447058542246e+00 2.3313022302594160e+00 0.0000000000000000e+00  1.8482724309667675e+00 2.3312221585046493e+00 0.0000000000000000e+00  1.8483521130065848e+00 2.3313777894879939e+00 0.0000000000000000e+00  1.8482382941736220e+00 2.3311603404456052e+00 0.0000000000000000e+00  1.8483609661438478e+00 2.3314414885956136e+00 0.0000000000000000e+00  1.8482014857537012e+00 2.3311157311123374e+00 0.0000000000000000e+00  1.8483697592911388e+00 2.3315051686757426e+00 0.0000000000000000e+00  1.8481700818921871e+00 2.3310245772375424e+00 0.0000000000000000e+00  1.8483841912998427e+00 2.3316089461059084e+00 0.0000000000000000e+00  1.8481295757581644e+00 2.3309393777937095e+00 0.0000000000000000e+00  1.8483908697992117e+00 2.3316488964832307e+00 0.0000000000000000e+00  1.8481251301337744e+00 2.3309389629068837e+00 0.0000000000000000e+00  1.8483582446878293e+00 2.3315985731220867e+00 0.0000000000000000e+00  1.8481373200865725e+00 2.3309772546551457e+00 0.0000000000000000e+00  1.8483399649370931e+00 2.3315802092812232e+00 0.0000000000000000e+00  1.8481218756976747e+00 2.3309580694123317e+00 0.0000000000000000e+00  1.8483356433631899e+00 2.3315488612859205e+00 0.0000000000000000e+00  1.8481348840821157e+00 2.3310497125045684e+00 0.0000000000000000e+00  1.8482640769448888e+00 2.3313540673939586e+00 0.0000000000000000e+00  1.8482040236281352e+00 2.3312343119897028e+00 0.0000000000000000e+00  1.8482092245880992e+00 2.3311840094625738e+00 0.0000000000000000e+00  1.8481856675325927e+00 2.3312804105319782e+00 0.0000000000000000e+00  1.8482346136828143e+00 2.3311975979682380e+00 0.0000000000000000e+00  1.8481737608469699e+00 2.3312292471344720e+00 0.0000000000000000e+00  1.8481721503998159e+00 2.3311138716739608e+00 0.0000000000000000e+00  1.8482479082555128e+00 2.3313936396924064e+00 0.0000000000000000e+00  1.8481022970979353e+00 2.3308736577364435e+00 0.0000000000000000e+00  1.8482479261338569e+00 2.3314322252388595e+00 0.0000000000000000e+00  1.8481241478785693e+00 2.3309611578650062e+00 0.0000000000000000e+00  1.8482084396943170e+00 2.3312005072559874e+00 0.0000000000000000e+00  1.8481079876356024e+00 2.3310569351598618e+00 0.0000000000000000e+00  1.8482460538047736e+00 2.3311860048116051e+00 0.0000000000000000e+00  1.8480439852137189e+00 2.3309335938080609e+00 0.0000000000000000e+00  1.8482515923667326e+00 2.3311779959626238e+00 0.0000000000000000e+00  1.8480718635086733e+00 2.3308878131169903e+00 0.0000000000000000e+00  1.8481757192139134e+00 2.3309844239175761e+00 0.0000000000000000e+00  1.8480999944345755e+00 2.3308226161549719e+00 0.0000000000000000e+00  1.8481831378378797e+00 2.3307513623014944e+00 0.0000000000000000e+00  1.8480149026589276e+00 2.3305670256258764e+00 0.0000000000000000e+00  1.8482646299666723e+00 2.3305392360227617e+00 0.0000000000000000e+00  1.8479262488332975e+00 2.3301074442752880e+00 0.0000000000000000e+00  1.8482967846683227e+00 2.3302192508981125e+00 0.0000000000000000e+00  1.8478933677349783e+00 2.3295885273953814e+00 0.0000000000000000e+00  1.8483256118632905e+00 2.3297027575816251e+00 0.0000000000000000e+00  1.8477997477619708e+00 2.3290174946481308e+00 0.0000000000000000e+00  1.8484560755327684e+00 2.3290781085363177e+00 0.0000000000000000e+00  1.8476618839303527e+00 2.3284381042335371e+00 0.0000000000000000e+00  1.8485436845605387e+00 2.3284500580570211e+00 0.0000000000000000e+00  1.8476667681392303e+00 2.3278321163690814e+00 0.0000000000000000e+00  1.8484714019773263e+00 2.3279722393262317e+00 0.0000000000000000e+00  1.8477483770418788e+00 2.3274434458338944e+00 0.0000000000000000e+00  1.8483362290843393e+00 2.3274414631867830e+00 0.0000000000000000e+00  1.8477350333383835e+00 2.3273698545267867e+00 0.0000000000000000e+00  1.8482662669144878e+00 2.3271805526582323e+00 0.0000000000000000e+00  1.8476794560310388e+00 2.3268373979216488e+00 0.0000000000000000e+00  1.8483887550263656e+00 2.3271653003062784e+00 0.0000000000000000e+00  1.8477421000172012e+00 2.3261072782703822e+00 0.0000000000000000e+00  1.8485915339531540e+00 2.3270429582070835e+00 0.0000000000000000e+00  1.8477113600721988e+00 2.3257216914227574e+00 0.0000000000000000e+00  1.8485897008726713e+00 2.3274561293380103e+00 0.0000000000000000e+00  1.8475879838180238e+00 2.3257883165726456e+00 0.0000000000000000e+00  1.8482807912703354e+00 2.3268079816357439e+00 0.0000000000000000e+00  1.8484415571298716e+00 2.3276231384224380e+00 0.0000000000000000e+00  1.8467588179523038e+00 2.3228304235656636e+00 0.0000000000000000e+00  1.8525176369648619e+00 2.3303859318391948e+00 0.0000000000000000e+00  1.8378913708866687e+00 2.3271087484258635e+00 0.0000000000000000e+00  1.8473362562235294e+00 2.3645583470688756e+00 0.0000000000000000e+00  2.2460484749184939e+00 1.4108543061940353e+00 0.0000000000000000e+00  2.7822013661811349e+00 3.2157990649967599e-01 0.0000000000000000e+00  2.9629412250356228e+00 2.7066662695714526e-02 0.0000000000000000e+00  2.9669982614186261e+00 5.5515753947182785e-03 0.0000000000000000e+00  2.9645407679603557e+00 -1.0265122125329893e-03 0.0000000000000000e+00  2.9723530279566415e+00 -9.1074695423697047e-03 0.0000000000000000e+00  2.9714758507786185e+00 -7.1192828561867372e-03 0.0000000000000000e+00  2.9716934167216911e+00 -9.6239831964838058e-03 0.0000000000000000e+00  2.9731170849424680e+00 -1.1605328082670277e-02 0.0000000000000000e+00  2.9722148659961243e+00 -9.4241062009726723e-03 0.0000000000000000e+00  2.9717280254054654e+00 -1.0030036116547328e-02 0.0000000000000000e+00  2.9718647605470072e+00 -8.7654407892919835e-03 0.0000000000000000e+00  2.9720866843000704e+00 -1.0498340827347512e-02 0.0000000000000000e+00  2.9719986541073520e+00 -1.0161670194683430e-02 0.0000000000000000e+00  2.9718678649556218e+00 -8.9717175172397967e-03 0.0000000000000000e+00  2.9718200492640157e+00 -1.4841011751210224e-02 0.0000000000000000e+00  2.9717721850637639e+00 -1.0583332532401684e-02 0.0000000000000000e+00  2.9719982650789118e+00 0.0000000000000000e+00 0.0000000000000000e+00  2.3098881853075035e+00 0.0000000000000000e+00 -1.1459203253881314e-05  2.3098011741689355e+00 4.8947421160069719e-02 6.2088511696882043e-06  2.3095463499938558e+00 9.7868462218111241e-02 -3.8825643661923421e-06  2.3091175527823240e+00 1.4675241568410066e-01 5.1055401764407008e-06  2.3085119856860032e+00 1.9556426715146652e-01 -5.3960938344038579e-06  2.3077354046665866e+00 2.4429950017273819e-01 6.0967959583260227e-06  2.3067761599806129e+00 2.9291634637827096e-01 -5.6649569928859006e-06  2.3056326994061020e+00 3.4141556921877075e-01 5.7823051749864114e-06  2.3043056519867995e+00 3.8974504099998653e-01 -5.4187684595688137e-06  2.3027842796511395e+00 4.3791133865433723e-01 6.2653103713445336e-06  2.3010623099668770e+00 4.8586351823544749e-01 -6.6551555504878903e-06  2.2991404590190787e+00 5.3359553066048715e-01 7.6351486745056348e-06  2.2970044834949905e+00 5.8106153081085410e-01 -7.6845446780417913e-06  2.2946468364926695e+00 6.2826296998636422e-01 8.6791672226498485e-06  2.2920662192935626e+00 6.7512951018928702e-01 -9.8920267758590292e-06  2.2892455072557323e+00 7.2167876922351759e-01 1.2747317049219593e-05  2.2861778390011485e+00 7.6784004890469326e-01 -1.5399061770573844e-05  2.2828556044652117e+00 8.1361409828885423e-01 1.8435858704323822e-05  2.2792672093707802e+00 8.5893162641310583e-01 -2.0645436226672518e-05  2.2753951815560165e+00 9.0382186420263966e-01 2.3850352581037531e-05  2.2712426253931164e+00 9.4816036331161202e-01 -2.7338662256098686e-05  2.2667830147232557e+00 9.9201842642803162e-01 3.1847779742126968e-05  2.2620165650183988e+00 1.0352712033989879e+00 -3.4605471106209617e-05  2.2569251206107994e+00 1.0779571292735068e+00 3.5380449340865328e-05  2.2515082761986149e+00 1.1199736037513177e+00 -3.2204638017152211e-05  2.2457409725583819e+00 1.1613979551874520e+00 2.7787740704078080e-05  2.2396349067245365e+00 1.2020439933407223e+00 -2.2235157577386449e-05  2.2331665123165103e+00 1.2420675825753917e+00 1.8772301788766590e-05  2.2263403954381222e+00 1.2812987927161590e+00 -1.4967183443263923e-05  2.2191493549042085e+00 1.3197960343963389e+00 1.2188904183105896e-05  2.2115979525950364e+00 1.3575259285766657e+00 -7.5142125622670386e-06  2.2036786208022736e+00 1.3944968506744311e+00 4.9375142365336190e-06  2.1954073311546920e+00 1.4306497685112631e+00 -3.0757204943173007e-06  2.1867842038406939e+00 1.4660680630772476e+00 5.3367784597305687e-06  2.1778219167294295e+00 1.5007053520743712e+00 -7.1200517877468005e-06  2.1685329296176938e+00 1.5345757514210709e+00 9.9990940586540610e-06  2.1589402678649927e+00 1.5677194396003939e+00 -1.0332389421490492e-05  2.1490493330903373e+00 1.6001878172586210e+00 1.1442554987905867e-05  2.1388975523100182e+00 1.6319105361018740e+00 -1.0478814181810257e-05  2.1284964569938105e+00 1.6630507909999515e+00 9.9674501981535296e-06  2.1178782535471314e+00 1.6935547394203079e+00 -8.5153478181774162e-06  2.1070619093457013e+00 1.7234897361271664e+00 9.0116943065603605e-06  2.0960876692458097e+00 1.7528887633502397e+00 -9.6475473097211807e-06  2.0849644034392378e+00 1.7818202229526938e+00 9.7411090466344342e-06  2.0737369141264419e+00 1.8102607829843027e+00 -8.7923938320685160e-06  2.0624216004511240e+00 1.8383065875014220e+00 8.0315162739658303e-06  2.0510493716571809e+00 1.8659522924035297e+00 -9.1453136105407377e-06  2.0396401650678144e+00 1.8932336411874358e+00 9.8651380345354852e-06  2.0282323628412064e+00 1.9201601924315530e+00 -1.1441022621419230e-05  2.0168290642183515e+00 1.9467947465013744e+00 1.2359847238761197e-05  2.0054765059854138e+00 1.9730471920813144e+00 -1.4273322312785582e-05  1.9941821789329284e+00 1.9990317606386845e+00 1.3168673901349248e-05  1.9829809267656189e+00 2.0246491518421990e+00 -1.1621388085072839e-05  1.9718897933204533e+00 2.0499365743248634e+00 9.4978575587233388e-06  1.9609522380087816e+00 2.0747967863493342e+00 -1.0338716110590841e-05  1.9501793604558224e+00 2.0992862567318076e+00 9.1655642634631344e-06  1.9396295239134893e+00 2.1232098271864221e+00 -8.7200522494369407e-06  1.9293336300047583e+00 2.1466024089105575e+00 6.0002119080760146e-06  1.9193483884532478e+00 2.1692795557687008e+00 -5.4802257134829833e-06  1.9097383675533888e+00 2.1911314718145327e+00 2.1046481979377789e-06  1.9005890115458550e+00 2.2119623672957975e+00 -2.2180371208295885e-06  1.8919810947408109e+00 2.2315996833801175e+00 1.5107293687969882e-07  1.8840401410239871e+00 2.2497215099686541e+00 -9.6913033929784686e-07  1.8768804147993643e+00 2.2661021497986922e+00 -6.6799144433343673e-07  1.8706189549400967e+00 2.2804429839444467e+00 1.4331388866726313e-06  1.8653645238484031e+00 2.2924869928017246e+00 4.8393697118992459e-07  1.8611697372676643e+00 2.3021175606326016e+00 2.0095709728430645e-06  1.8580073942271473e+00 2.3093851881897449e+00 2.1421081461453774e-06  1.8557728603108159e+00 2.3145108605546278e+00 -1.7109662483270940e-06  1.8542830544511837e+00 2.3179367332976004e+00 2.0569554228248524e-06  1.8533119064487573e+00 2.3201675481142323e+00 -6.6969882055185729e-06  1.8526642010398124e+00 2.3216478607052982e+00 2.1170146606168526e-06  1.8522084210374095e+00 2.3226845507801990e+00 -9.2602593874310164e-06  1.8518400879427370e+00 2.3235383366065774e+00 6.3237233406258452e-06  1.8515228248000637e+00 2.3242417852198609e+00 -1.0252359511544056e-05  1.8512475979263918e+00 2.3248845102823350e+00 9.3477143131525803e-06  1.8509893149726473e+00 2.3254630863285706e+00 -1.0459958818770887e-05  1.8507428317215910e+00 2.3260270530730724e+00 1.0066025847223541e-05  1.8505308515020698e+00 2.3265012491565558e+00 -1.1152732883765276e-05  1.8503239730377872e+00 2.3269840776941000e+00 1.1792198359576032e-05  1.8501315192358661e+00 2.3274037277135147e+00 -1.2652653468240662e-05  1.8499614777735618e+00 2.3278017482024382e+00 1.1593417979102460e-05  1.8498054917673195e+00 2.3281