<?xml version="1.0"?>
<VTKFile type="UnstructuredGrid"  version="0.1"  >
<UnstructuredGrid>
<Piece  NumberOfPoints="8241" NumberOfCells="16000">
<Points>
<DataArray  type="Float64"  NumberOfComponents="3"  format="ascii">-5 -1 0  -4.95 -1 0  -4.9 -1 0  -4.85 -1 0  -4.8 -1 0  -4.75 -1 0  -4.7 -1 0  -4.65 -1 0  -4.6 -1 0  -4.55 -1 0  -4.5 -1 0  -4.45 -1 0  -4.4 -1 0  -4.35 -1 0  -4.3 -1 0  -4.25 -1 0  -4.2 -1 0  -4.15 -1 0  -4.1 -1 0  -4.05 -1 0  -4 -1 0  -3.95 -1 0  -3.9 -1 0  -3.85 -1 0  -3.8 -1 0  -3.75 -1 0  -3.7 -1 0  -3.65 -1 0  -3.6 -1 0  -3.55 -1 0  -3.5 -1 0  -3.45 -1 0  -3.4 -1 0  -3.35 -1 0  -3.3 -1 0  -3.25 -1 0  -3.2 -1 0  -3.15 -1 0  -3.1 -1 0  -3.05 -1 0  -3 -1 0  -2.95 -1 0  -2.9 -1 0  -2.85 -1 0  -2.8 -1 0  -2.75 -1 0  -2.7 -1 0  -2.65 -1 0  -2.6 -1 0  -2.55 -1 0  -2.5 -1 0  -2.45 -1 0  -2.4 -1 0  -2.35 -1 0  -2.3 -1 0  -2.25 -1 0  -2.2 -1 0  -2.15 -1 0  -2.1 -1 0  -2.05 -1 0  -2 -1 0  -1.95 -1 0  -1.9 -1 0  -1.85 -1 0  -1.8 -1 0  -1.75 -1 0  -1.7 -1 0  -1.65 -1 0  -1.6 -1 0  -1.55 -1 0  -1.5 -1 0  -1.45 -1 0  -1.4 -1 0  -1.35 -1 0  -1.3 -1 0  -1.25 -1 0  -1.2 -1 0  -1.15 -1 0  -1.1 -1 0  -1.05 -1 0  -1 -1 0  -0.9500000000000002 -1 0  -0.9000000000000004 -1 0  -0.8499999999999996 -1 0  -0.7999999999999998 -1 0  -0.75 -1 0  -0.7000000000000002 -1 0  -0.6500000000000004 -1 0  -0.5999999999999996 -1 0  -0.5499999999999998 -1 0  -0.5 -1 0  -0.4500000000000002 -1 0  -0.4000000000000004 -1 0  -0.3499999999999996 -1 0  -0.2999999999999998 -1 0  -0.25 -1 0  -0.2000000000000002 -1 0  -0.1500000000000004 -1 0  -0.09999999999999964 -1 0  -0.04999999999999982 -1 0  0 -1 0  0.04999999999999982 -1 0  0.09999999999999964 -1 0  0.1500000000000004 -1 0  0.2000000000000002 -1 0  0.25 -1 0  0.2999999999999998 -1 0  0.3499999999999996 -1 0  0.4000000000000004 -1 0  0.4500000000000002 -1 0  0.5 -1 0  0.5499999999999998 -1 0  0.5999999999999996 -1 0  0.6500000000000004 -1 0  0.7000000000000002 -1 0  0.75 -1 0  0.7999999999999998 -1 0  0.8499999999999996 -1 0  0.9000000000000004 -1 0  0.9500000000000002 -1 0  1 -1 0  1.05 -1 0  1.1 -1 0  1.15 -1 0  1.2 -1 0  1.25 -1 0  1.3 -1 0  1.35 -1 0  1.4 -1 0  1.45 -1 0  1.5 -1 0  1.55 -1 0  1.6 -1 0  1.65 -1 0  1.7 -1 0  1.75 -1 0  1.8 -1 0  1.85 -1 0  1.9 -1 0  1.95 -1 0  2 -1 0  2.05 -1 0  2.1 -1 0  2.15 -1 0  2.2 -1 0  2.25 -1 0  2.3 -1 0  2.35 -1 0  2.4 -1 0  2.45 -1 0  2.5 -1 0  2.55 -1 0  2.6 -1 0  2.65 -1 0  2.7 -1 0  2.75 -1 0  2.8 -1 0  2.85 -1 0  2.9 -1 0  2.95 -1 0  3 -1 0  3.050000000000001 -1 0  3.1 -1 0  3.15 -1 0  3.199999999999999 -1 0  3.25 -1 0  3.300000000000001 -1 0  3.35 -1 0  3.4 -1 0  3.449999999999999 -1 0  3.5 -1 0  3.550000000000001 -1 0  3.6 -1 0  3.65 -1 0  3.699999999999999 -1 0  3.75 -1 0  3.800000000000001 -1 0  3.85 -1 0  3.9 -1 0  3.949999999999999 -1 0  4 -1 0  4.050000000000001 -1 0  4.1 -1 0  4.15 -1 0  4.199999999999999 -1 0  4.25 -1 0  4.300000000000001 -1 0  4.35 -1 0  4.4 -1 0  4.449999999999999 -1 0  4.5 -1 0  4.550000000000001 -1 0  4.6 -1 0  4.65 -1 0  4.699999999999999 -1 0  4.75 -1 0  4.800000000000001 -1 0  4.85 -1 0  4.9 -1 0  4.949999999999999 -1 0  5 -1 0  -5 -0.95 0  -4.95 -0.95 0  -4.9 -0.95 0  -4.85 -0.95 0  -4.8 -0.95 0  -4.75 -0.95 0  -4.7 -0.95 0  -4.65 -0.95 0  -4.6 -0.95 0  -4.55 -0.95 0  -4.5 -0.95 0  -4.45 -0.95 0  -4.4 -0.95 0  -4.35 -0.95 0  -4.3 -0.95 0  -4.25 -0.95 0  -4.2 -0.95 0  -4.15 -0.95 0  -4.1 -0.95 0  -4.05 -0.95 0  -4 -0.95 0  -3.95 -0.95 0  -3.9 -0.95 0  -3.85 -0.95 0  -3.8 -0.95 0  -3.75 -0.95 0  -3.7 -0.95 0  -3.65 -0.95 0  -3.6 -0.95 0  -3.55 -0.95 0  -3.5 -0.95 0  -3.45 -0.95 0  -3.4 -0.95 0  -3.35 -0.95 0  -3.3 -0.95 0  -3.25 -0.95 0  -3.2 -0.95 0  -3.15 -0.95 0  -3.1 -0.95 0  -3.05 -0.95 0  -3 -0.95 0  -2.95 -0.95 0  -2.9 -0.95 0  -2.85 -0.95 0  -2.8 -0.95 0  -2.75 -0.95 0  -2.7 -0.95 0  -2.65 -0.95 0  -2.6 -0.95 0  -2.55 -0.95 0  -2.5 -0.95 0  -2.45 -0.95 0  -2.4 -0.95 0  -2.35 -0.95 0  -2.3 -0.95 0  -2.25 -0.95 0  -2.2 -0.95 0  -2.15 -0.95 0  -2.1 -0.95 0  -2.05 -0.95 0  -2 -0.95 0  -1.95 -0.95 0  -1.9 -0.95 0  -1.85 -0.95 0  -1.8 -0.95 0  -1.75 -0.95 0  -1.7 -0.95 0  -1.65 -0.95 0  -1.6 -0.95 0  -1.55 -0.95 0  -1.5 -0.95 0  -1.45 -0.95 0  -1.4 -0.95 0  -1.35 -0.95 0  -1.3 -0.95 0  -1.25 -0.95 0  -1.2 -0.95 0  -1.15 -0.95 0  -1.1 -0.95 0  -1.05 -0.95 0  -1 -0.95 0  -0.9500000000000002 -0.95 0  -0.9000000000000004 -0.95 0  -0.8499999999999996 -0.95 0  -0.7999999999999998 -0.95 0  -0.75 -0.95 0  -0.7000000000000002 -0.95 0  -0.6500000000000004 -0.95 0  -0.5999999999999996 -0.95 0  -0.5499999999999998 -0.95 0  -0.5 -0.95 0  -0.4500000000000002 -0.95 0  -0.4000000000000004 -0.95 0  -0.3499999999999996 -0.95 0  -0.2999999999999998 -0.95 0  -0.25 -0.95 0  -0.2000000000000002 -0.95 0  -0.1500000000000004 -0.95 0  -0.09999999999999964 -0.95 0  -0.04999999999999982 -0.95 0  0 -0.95 0  0.04999999999999982 -0.95 0  0.09999999999999964 -0.95 0  0.1500000000000004 -0.95 0  0.2000000000000002 -0.95 0  0.25 -0.95 0  0.2999999999999998 -0.95 0  0.3499999999999996 -0.95 0  0.4000000000000004 -0.95 0  0.4500000000000002 -0.95 0  0.5 -0.95 0  0.5499999999999998 -0.95 0  0.5999999999999996 -0.95 0  0.6500000000000004 -0.95 0  0.7000000000000002 -0.95 0  0.75 -0.95 0  0.7999999999999998 -0.95 0  0.8499999999999996 -0.95 0  0.9000000000000004 -0.95 0  0.9500000000000002 -0.95 0  1 -0.95 0  1.05 -0.95 0  1.1 -0.95 0  1.15 -0.95 0  1.2 -0.95 0  1.25 -0.95 0  1.3 -0.95 0  1.35 -0.95 0  1.4 -0.95 0  1.45 -0.95 0  1.5 -0.95 0  1.55 -0.95 0  1.6 -0.95 0  1.65 -0.95 0  1.7 -0.95 0  1.75 -0.95 0  1.8 -0.95 0  1.85 -0.95 0  1.9 -0.95 0  1.95 -0.95 0  2 -0.95 0  2.05 -0.95 0  2.1 -0.95 0  2.15 -0.95 0  2.2 -0.95 0  2.25 -0.95 0  2.3 -0.95 0  2.35 -0.95 0  2.4 -0.95 0  2.45 -0.95 0  2.5 -0.95 0  2.55 -0.95 0  2.6 -0.95 0  2.65 -0.95 0  2.7 -0.95 0  2.75 -0.95 0  2.8 -0.95 0  2.85 -0.95 0  2.9 -0.95 0  2.95 -0.95 0  3 -0.95 0  3.050000000000001 -0.95 0  3.1 -0.95 0  3.15 -0.95 0  3.199999999999999 -0.95 0  3.25 -0.95 0  3.300000000000001 -0.95 0  3.35 -0.95 0  3.4 -0.95 0  3.449999999999999 -0.95 0  3.5 -0.95 0  3.550000000000001 -0.95 0  3.6 -0.95 0  3.65 -0.95 0  3.699999999999999 -0.95 0  3.75 -0.95 0  3.800000000000001 -0.95 0  3.85 -0.95 0  3.9 -0.95 0  3.949999999999999 -0.95 0  4 -0.95 0  4.050000000000001 -0.95 0  4.1 -0.95 0  4.15 -0.95 0  4.199999999999999 -0.95 0  4.25 -0.95 0  4.300000000000001 -0.95 0  4.35 -0.95 0  4.4 -0.95 0  4.449999999999999 -0.95 0  4.5 -0.95 0  4.550000000000001 -0.95 0  4.6 -0.95 0  4.65 -0.95 0  4.699999999999999 -0.95 0  4.75 -0.95 0  4.800000000000001 -0.95 0  4.85 -0.95 0  4.9 -0.95 0  4.949999999999999 -0.95 0  5 -0.95 0  -5 -0.9 0  -4.95 -0.9 0  -4.9 -0.9 0  -4.85 -0.9 0  -4.8 -0.9 0  -4.75 -0.9 0  -4.7 -0.9 0  -4.65 -0.9 0  -4.6 -0.9 0  -4.55 -0.9 0  -4.5 -0.9 0  -4.45 -0.9 0  -4.4 -0.9 0  -4.35 -0.9 0  -4.3 -0.9 0  -4.25 -0.9 0  -4.2 -0.9 0  -4.15 -0.9 0  -4.1 -0.9 0  -4.05 -0.9 0  -4 -0.9 0  -3.95 -0.9 0  -3.9 -0.9 0  -3.85 -0.9 0  -3.8 -0.9 0  -3.75 -0.9 0  -3.7 -0.9 0  -3.65 -0.9 0  -3.6 -0.9 0  -3.55 -0.9 0  -3.5 -0.9 0  -3.45 -0.9 0  -3.4 -0.9 0  -3.35 -0.9 0  -3.3 -0.9 0  -3.25 -0.9 0  -3.2 -0.9 0  -3.15 -0.9 0  -3.1 -0.9 0  -3.05 -0.9 0  -3 -0.9 0  -2.95 -0.9 0  -2.9 -0.9 0  -2.85 -0.9 0  -2.8 -0.9 0  -2.75 -0.9 0  -2.7 -0.9 0  -2.65 -0.9 0  -2.6 -0.9 0  -2.55 -0.9 0  -2.5 -0.9 0  -2.45 -0.9 0  -2.4 -0.9 0  -2.35 -0.9 0  -2.3 -0.9 0  -2.25 -0.9 0  -2.2 -0.9 0  -2.15 -0.9 0  -2.1 -0.9 0  -2.05 -0.9 0  -2 -0.9 0  -1.95 -0.9 0  -1.9 -0.9 0  -1.85 -0.9 0  -1.8 -0.9 0  -1.75 -0.9 0  -1.7 -0.9 0  -1.65 -0.9 0  -1.6 -0.9 0  -1.55 -0.9 0  -1.5 -0.9 0  -1.45 -0.9 0  -1.4 -0.9 0  -1.35 -0.9 0  -1.3 -0.9 0  -1.25 -0.9 0  -1.2 -0.9 0  -1.15 -0.9 0  -1.1 -0.9 0  -1.05 -0.9 0  -1 -0.9 0  -0.9500000000000002 -0.9 0  -0.9000000000000004 -0.9 0  -0.8499999999999996 -0.9 0  -0.7999999999999998 -0.9 0  -0.75 -0.9 0  -0.7000000000000002 -0.9 0  -0.6500000000000004 -0.9 0  -0.5999999999999996 -0.9 0  -0.5499999999999998 -0.9 0  -0.5 -0.9 0  -0.4500000000000002 -0.9 0  -0.4000000000000004 -0.9 0  -0.3499999999999996 -0.9 0  -0.2999999999999998 -0.9 0  -0.25 -0.9 0  -0.2000000000000002 -0.9 0  -0.1500000000000004 -0.9 0  -0.09999999999999964 -0.9 0  -0.04999999999999982 -0.9 0  0 -0.9 0  0.04999999999999982 -0.9 0  0.09999999999999964 -0.9 0  0.1500000000000004 -0.9 0  0.2000000000000002 -0.9 0  0.25 -0.9 0  0.2999999999999998 -0.9 0  0.3499999999999996 -0.9 0  0.4000000000000004 -0.9 0  0.4500000000000002 -0.9 0  0.5 -0.9 0  0.5499999999999998 -0.9 0  0.5999999999999996 -0.9 0  0.6500000000000004 -0.9 0  0.7000000000000002 -0.9 0  0.75 -0.9 0  0.7999999999999998 -0.9 0  0.8499999999999996 -0.9 0  0.9000000000000004 -0.9 0  0.9500000000000002 -0.9 0  1 -0.9 0  1.05 -0.9 0  1.1 -0.9 0  1.15 -0.9 0  1.2 -0.9 0  1.25 -0.9 0  1.3 -0.9 0  1.35 -0.9 0  1.4 -0.9 0  1.45 -0.9 0  1.5 -0.9 0  1.55 -0.9 0  1.6 -0.9 0  1.65 -0.9 0  1.7 -0.9 0  1.75 -0.9 0  1.8 -0.9 0  1.85 -0.9 0  1.9 -0.9 0  1.95 -0.9 0  2 -0.9 0  2.05 -0.9 0  2.1 -0.9 0  2.15 -0.9 0  2.2 -0.9 0  2.25 -0.9 0  2.3 -0.9 0  2.35 -0.9 0  2.4 -0.9 0  2.45 -0.9 0  2.5 -0.9 0  2.55 -0.9 0  2.6 -0.9 0  2.65 -0.9 0  2.7 -0.9 0  2.75 -0.9 0  2.8 -0.9 0  2.85 -0.9 0  2.9 -0.9 0  2.95 -0.9 0  3 -0.9 0  3.050000000000001 -0.9 0  3.1 -0.9 0  3.15 -0.9 0  3.199999999999999 -0.9 0  3.25 -0.9 0  3.300000000000001 -0.9 0  3.35 -0.9 0  3.4 -0.9 0  3.449999999999999 -0.9 0  3.5 -0.9 0  3.550000000000001 -0.9 0  3.6 -0.9 0  3.65 -0.9 0  3.699999999999999 -0.9 0  3.75 -0.9 0  3.800000000000001 -0.9 0  3.85 -0.9 0  3.9 -0.9 0  3.949999999999999 -0.9 0  4 -0.9 0  4.050000000000001 -0.9 0  4.1 -0.9 0  4.15 -0.9 0  4.199999999999999 -0.9 0  4.25 -0.9 0  4.300000000000001 -0.9 0  4.35 -0.9 0  4.4 -0.9 0  4.449999999999999 -0.9 0  4.5 -0.9 0  4.550000000000001 -0.9 0  4.6 -0.9 0  4.65 -0.9 0  4.699999999999999 -0.9 0  4.75 -0.9 0  4.800000000000001 -0.9 0  4.85 -0.9 0  4.9 -0.9 0  4.949999999999999 -0.9 0  5 -0.9 0  -5 -0.85 0  -4.95 -0.85 0  -4.9 -0.85 0  -4.85 -0.85 0  -4.8 -0.85 0  -4.75 -0.85 0  -4.7 -0.85 0  -4.65 -0.85 0  -4.6 -0.85 0  -4.55 -0.85 0  -4.5 -0.85 0  -
[...]
<PointData  Vectors="f_15"> 
<DataArray  type="Float64"  Name="f_15"  NumberOfComponents="3" format="ascii">1.2326440255982478e+00 0.0000000000000000e+00 0.0000000000000000e+00  1.2303511427699885e+00 -6.9136196251325232e-03 0.0000000000000000e+00  1.2345479479637791e+00 9.2413891350772895e-02 0.0000000000000000e+00  1.2265293956536321e+00 9.6993230755584151e-02 0.0000000000000000e+00  1.2372099709875972e+00 1.4578316839938360e-01 0.0000000000000000e+00  1.2266849995092755e+00 1.4902110976751359e-01 0.0000000000000000e+00  1.2346743374761699e+00 2.2065601464770795e-01 0.0000000000000000e+00  1.2283452838947067e+00 2.1105364508580010e-01 0.0000000000000000e+00  1.2356552607711317e+00 2.6893295121241062e-01 0.0000000000000000e+00  1.2251426700425296e+00 2.8151828410331509e-01 0.0000000000000000e+00  1.2380821850413621e+00 3.3447751669618797e-01 0.0000000000000000e+00  1.2255297746002469e+00 3.3626148770308645e-01 0.0000000000000000e+00  1.2358621659146902e+00 3.9078203644132153e-01 0.0000000000000000e+00  1.2273456025462031e+00 4.1073636292936577e-01 0.0000000000000000e+00  1.2371859868243551e+00 4.4668618297203072e-01 0.0000000000000000e+00  1.2248767500943338e+00 4.6067198974831586e-01 0.0000000000000000e+00  1.2397249187431909e+00 5.2352345908775111e-01 0.0000000000000000e+00  1.2262177191255657e+00 5.1435940095488741e-01 0.0000000000000000e+00  1.2382694778212726e+00 5.7983615644914610e-01 0.0000000000000000e+00  1.2289570365688225e+00 5.7367911127963644e-01 0.0000000000000000e+00  1.2406149323377353e+00 6.4776495727202921e-01 0.0000000000000000e+00  1.2282660101023120e+00 6.2059647240696325e-01 0.0000000000000000e+00  1.2444139576982705e+00 7.0470367341374585e-01 0.0000000000000000e+00  1.2318868252509563e+00 6.7737897809841241e-01 0.0000000000000000e+00  1.2455526930654421e+00 7.5878615849673692e-01 0.0000000000000000e+00  1.2373617316069303e+00 7.2503592740755718e-01 0.0000000000000000e+00  1.2513752055947054e+00 8.0768295282484903e-01 0.0000000000000000e+00  1.2413719404184156e+00 7.6909775699954630e-01 0.0000000000000000e+00  1.2594937853855885e+00 8.5135596875790609e-01 0.0000000000000000e+00  1.2503066961673504e+00 8.1241940038817229e-01 0.0000000000000000e+00  1.2667570482107797e+00 8.8320226978783301e-01 0.0000000000000000e+00  1.2613843950029935e+00 8.4889956546395218e-01 0.0000000000000000e+00  1.2781082145725073e+00 9.1708491105480650e-01 0.0000000000000000e+00  1.2712018691123119e+00 8.8102876631924332e-01 0.0000000000000000e+00  1.2903685983855284e+00 9.4404999483570140e-01 0.0000000000000000e+00  1.2837005532471417e+00 9.1727920824961950e-01 0.0000000000000000e+00  1.3008194401395192e+00 9.6794517758363963e-01 0.0000000000000000e+00  1.2962083810776979e+00 9.5222090005891069e-01 0.0000000000000000e+00  1.3130707891406082e+00 9.9659895339525795e-01 0.0000000000000000e+00  1.3070160234574204e+00 9.8372038567490527e-01 0.0000000000000000e+00  1.3250899972401475e+00 1.0232830958365084e+00 0.0000000000000000e+00  1.3192637024743261e+00 1.0205853186751033e+00 0.0000000000000000e+00  1.3357921880110839e+00 1.0471578885589321e+00 0.0000000000000000e+00  1.3311662516848468e+00 1.0556092330663440e+00 0.0000000000000000e+00  1.3477097942646994e+00 1.0758745009363664e+00 0.0000000000000000e+00  1.3421142316449273e+00 1.0865925062629358e+00 0.0000000000000000e+00  1.3592606991483214e+00 1.1043066855990715e+00 0.0000000000000000e+00  1.3540832951078421e+00 1.1212564232534115e+00 0.0000000000000000e+00  1.3701689126111638e+00 1.1295823108580161e+00 0.0000000000000000e+00  1.3656669088000422e+00 1.1551009264197063e+00 0.0000000000000000e+00  1.3818515344438134e+00 1.1588505753625662e+00 0.0000000000000000e+00  1.3769313363065685e+00 1.1843936536531456e+00 0.0000000000000000e+00  1.3930690728417425e+00 1.1897471379918401e+00 0.0000000000000000e+00  1.3888829103902844e+00 1.2155473772748673e+00 0.0000000000000000e+00  1.4040624088144764e+00 1.2178838295834489e+00 0.0000000000000000e+00  1.4005534603680951e+00 1.2473086095391586e+00 0.0000000000000000e+00  1.4153730557894588e+00 1.2485063915344645e+00 0.0000000000000000e+00  1.4124238374538105e+00 1.2752371144278494e+00 0.0000000000000000e+00  1.4262247329311311e+00 1.2815315945222954e+00 0.0000000000000000e+00  1.4247333515365981e+00 1.3036951976321867e+00 0.0000000000000000e+00  1.4371440419262436e+00 1.3119968511923989e+00 0.0000000000000000e+00  1.4368707983524236e+00 1.3340951894135040e+00 0.0000000000000000e+00  1.4481322401480849e+00 1.3427118383648773e+00 0.0000000000000000e+00  1.4493024895422970e+00 1.3626225406800556e+00 0.0000000000000000e+00  1.4589053721327392e+00 1.3749581113121967e+00 0.0000000000000000e+00  1.4617961066331355e+00 1.3914594973383041e+00 0.0000000000000000e+00  1.4699566643772792e+00 1.4049975079258965e+00 0.0000000000000000e+00  1.4741829071891863e+00 1.4224972615184710e+00 0.0000000000000000e+00  1.4809795078756507e+00 1.4342204155293639e+00 0.0000000000000000e+00  1.4866949516429213e+00 1.4527490388971986e+00 0.0000000000000000e+00  1.4922769576511685e+00 1.4644602424635043e+00 0.0000000000000000e+00  1.4986567590454019e+00 1.4827695462691532e+00 0.0000000000000000e+00  1.5042066381314743e+00 1.4934118754817731e+00 0.0000000000000000e+00  1.5105195081488385e+00 1.5143853115614412e+00 0.0000000000000000e+00  1.5158624222289705e+00 1.5209462112446501e+00 0.0000000000000000e+00  1.5226587582937867e+00 1.5463710685383187e+00 0.0000000000000000e+00  1.5278804517798514e+00 1.5485749674511129e+00 0.0000000000000000e+00  1.5339878503441902e+00 1.5778537607896619e+00 0.0000000000000000e+00  1.5406623151093424e+00 1.5763810452189193e+00 0.0000000000000000e+00  1.5453126287015166e+00 1.6099198815693374e+00 0.0000000000000000e+00  1.5528349568838520e+00 1.6026157071403178e+00 0.0000000000000000e+00  1.5572518406355775e+00 1.6442781652655938e+00 0.0000000000000000e+00  1.5651189766499511e+00 1.6276652776414593e+00 0.0000000000000000e+00  1.5684351686559286e+00 1.6777378695886425e+00 0.0000000000000000e+00  1.5780669349015219e+00 1.6563324156078845e+00 0.0000000000000000e+00  1.5797491766332008e+00 1.7076545377063514e+00 0.0000000000000000e+00  1.5900782043730681e+00 1.6857303691344545e+00 0.0000000000000000e+00  1.5919280587843978e+00 1.7411142933080836e+00 0.0000000000000000e+00  1.6020004211424006e+00 1.7097582278345498e+00 0.0000000000000000e+00  1.6033005338441073e+00 1.7766749359402434e+00 0.0000000000000000e+00  1.6145927946323151e+00 1.7379514567757706e+00 0.0000000000000000e+00  1.6148170259612900e+00 1.8032566359641713e+00 0.0000000000000000e+00  1.6260906390573235e+00 1.7728016430641214e+00 0.0000000000000000e+00  1.6272633140361701e+00 1.8301478367342094e+00 0.0000000000000000e+00  1.6375136429228843e+00 1.7994839349945644e+00 0.0000000000000000e+00  1.6386549566228139e+00 1.8646211721483739e+00 0.0000000000000000e+00  1.6498012327061633e+00 1.8255734364425638e+00 0.0000000000000000e+00  1.6500992701850214e+00 1.8895173206060480e+00 0.0000000000000000e+00  1.6608512321450555e+00 1.8633395238895314e+00 0.0000000000000000e+00  1.6625464531540100e+00 1.9084984580354134e+00 0.0000000000000000e+00  1.6717724661336255e+00 1.8961807861897033e+00 0.0000000000000000e+00  1.6738330318359518e+00 1.9361968989137066e+00 0.0000000000000000e+00  1.6835557966219383e+00 1.9237851192287923e+00 0.0000000000000000e+00  1.6850759278802658e+00 1.9595216608827766e+00 0.0000000000000000e+00  1.6940789301765811e+00 1.9589538191959133e+00 0.0000000000000000e+00  1.6972035040972209e+00 1.9783249917080683e+00 0.0000000000000000e+00  1.7044358714468957e+00 1.9893568833925170e+00 0.0000000000000000e+00  1.7083883859758444e+00 2.0045338110229656e+00 0.0000000000000000e+00  1.7155404960874121e+00 2.0136866895236856e+00 0.0000000000000000e+00  1.7200109915912305e+00 2.0275493759090395e+00 0.0000000000000000e+00  1.7262845607237953e+00 2.0408500709734252e+00 0.0000000000000000e+00  1.7340284271842805e+00 2.0434955018943417e+00 0.0000000000000000e+00  1.7397894055264549e+00 2.0600823425814609e+00 0.0000000000000000e+00  1.7517630008626495e+00 2.0540507087479241e+00 0.0000000000000000e+00  1.7607354114037745e+00 2.0643583256181173e+00 0.0000000000000000e+00  1.7788304736627378e+00 2.0462957178650965e+00 0.0000000000000000e+00  1.7905341278518345e+00 2.0538907923618912e+00 0.0000000000000000e+00  1.8159971671302668e+00 2.0221476234978248e+00 0.0000000000000000e+00  1.8259273987266424e+00 2.0321061762707751e+00 0.0000000000000000e+00  1.8509430092359866e+00 2.0033229179221412e+00 0.0000000000000000e+00  1.8542172240092021e+00 2.0218140733116607e+00 0.0000000000000000e+00  1.8717653090979822e+00 2.0060534910697045e+00 0.0000000000000000e+00  1.8632455034687434e+00 2.0442561603568259e+00 0.0000000000000000e+00  1.8693057294750564e+00 2.0473393882898403e+00 0.0000000000000000e+00  1.8379551700252248e+00 2.1288929995058554e+00 0.0000000000000000e+00  1.8091743205215471e+00 2.1875170632098557e+00 0.0000000000000000e+00  1.7328980006527981e+00 2.3294544634348155e+00 0.0000000000000000e+00  1.6703929676438070e+00 2.4621091636808519e+00 0.0000000000000000e+00  1.9400525329464118e+00 1.7710125166956312e+00 0.0000000000000000e+00  2.6675221180082667e+00 3.0650309091274153e-01 0.0000000000000000e+00  2.9305991259345876e+00 -1.4006000409395442e-01 0.0000000000000000e+00  2.9077854683084658e+00 -1.0818594279168642e-01 0.0000000000000000e+00  2.9034387192221542e+00 -1.0016589821812144e-01 0.0000000000000000e+00  2.9462990867691037e+00 -1.4445966243599118e-01 0.0000000000000000e+00  2.9326769519422293e+00 -1.2402468738375838e-01 0.0000000000000000e+00  2.9480540288597847e+00 -1.2980139542831856e-01 0.0000000000000000e+00  2.9410360690742587e+00 -1.1633837005588607e-01 0.0000000000000000e+00  2.9504267568796592e+00 -1.1418450003127469e-01 0.0000000000000000e+00  2.9450769737081619e+00 -1.0651565093226115e-01 0.0000000000000000e+00  2.9597095235819810e+00 -1.1221873628363994e-01 0.0000000000000000e+00  2.9495802530422304e+00 -9.9539039152744146e-02 0.0000000000000000e+00  2.9627388497843774e+00 -1.0237255340556993e-01 0.0000000000000000e+00  2.9537455231613570e+00 -9.2507365635408456e-02 0.0000000000000000e+00  2.9657927150534458e+00 -9.4337044841056275e-02 0.0000000000000000e+00  2.9575008738371582e+00 -8.5730137819702998e-02 0.0000000000000000e+00  2.9687601459438362e+00 -8.7124682024258354e-02 0.0000000000000000e+00  2.9591191217506347e+00 -7.7673237848268004e-02 0.0000000000000000e+00  2.9712019077840917e+00 -7.9291858704324147e-02 0.0000000000000000e+00  2.9608553078012774e+00 -7.1653849320089683e-02 0.0000000000000000e+00  2.9722267610393387e+00 -7.1144674353560533e-02 0.0000000000000000e+00  2.9624793741200039e+00 -6.5610936542172774e-02 0.0000000000000000e+00  2.9728848154145124e+00 -6.4022438314894042e-02 0.0000000000000000e+00  2.9626581511562216e+00 -5.8395565270893152e-02 0.0000000000000000e+00  2.9740032743379148e+00 -5.7888185264968486e-02 0.0000000000000000e+00  2.9624511950664760e+00 -5.1533563197240978e-02 0.0000000000000000e+00  2.9739438212897955e+00 -5.1555342779377199e-02 0.0000000000000000e+00  2.9629457197144498e+00 -4.5632890223010265e-02 0.0000000000000000e+00  2.9733534914417761e+00 -4.5505412424782565e-02 0.0000000000000000e+00  2.9628031098837679e+00 -3.9305801889246504e-02 0.0000000000000000e+00  2.9734887613525447e+00 -4.2100966568155707e-02 0.0000000000000000e+00  2.9622570838404720e+00 -3.4682604027032701e-02 0.0000000000000000e+00  2.9732386022831827e+00 -4.3165557455616316e-02 0.0000000000000000e+00  2.9624700754049726e+00 -3.5168449073977114e-02 0.0000000000000000e+00  2.9726201466658337e+00 -4.9833887463283676e-02 0.0000000000000000e+00  2.9625614935399955e+00 -3.7556090191006919e-02 0.0000000000000000e+00  2.9726323082579524e+00 -5.4142899150042799e-02 0.0000000000000000e+00  2.9623850404254246e+00 -3.5361079305124929e-02 0.0000000000000000e+00  2.9725949980219846e+00 -4.9642809374126025e-02 0.0000000000000000e+00  2.9627963666356076e+00 -2.6762567204788347e-02 0.0000000000000000e+00  2.9722650097728156e+00 -4.1016647978110984e-02 0.0000000000000000e+00  2.9631095639036231e+00 -1.6144048955934961e-02 0.0000000000000000e+00  2.9725119450240789e+00 -3.1809630427890985e-02 0.0000000000000000e+00  2.9630304035736246e+00 -1.0702878015994706e-02 0.0000000000000000e+00  2.9726243977589708e+00 -2.4873479804266612e-02 0.0000000000000000e+00  2.9635333275360018e+00 -6.1061397947914757e-03 0.0000000000000000e+00  2.9723102944560904e+00 -2.5115619971949610e-02 0.0000000000000000e+00  2.9638060252140330e+00 -3.0007178840043827e-03 0.0000000000000000e+00  2.9726637469481867e+00 -2.6498905608383101e-02 0.0000000000000000e+00  2.9635210909370837e+00 -5.1446350247768653e-03 0.0000000000000000e+00  2.9729100138170033e+00 -2.7500267679988356e-02 0.0000000000000000e+00  2.9637105339535266e+00 -1.0593181497366582e-02 0.0000000000000000e+00  2.9727591717918944e+00 -2.6315437572603104e-02 0.0000000000000000e+00  2.9636866138124711e+00 -1.8872447209210882e-02 0.0000000000000000e+00  2.9731318392514416e+00 -2.3598552032638092e-02 0.0000000000000000e+00  2.9631557777981947e+00 -2.4840484818015970e-02 0.0000000000000000e+00  2.9735305033439525e+00 -1.9064895597445574e-02 0.0000000000000000e+00  2.9628796765274186e+00 -2.6590230367987362e-02 0.0000000000000000e+00  2.9736420507777424e+00 -1.2523327918805388e-02 0.0000000000000000e+00  2.9625831627872210e+00 -2.2101577216502934e-02 0.0000000000000000e+00  2.9740220539650220e+00 -1.0295017867264005e-02 0.0000000000000000e+00  2.9619829719818873e+00 -2.0934908986299607e-02 0.0000000000000000e+00  2.9745191287372186e+00 -2.7484966306895644e-02 0.0000000000000000e+00  2.9614819875791163e+00 -4.8136307856297328e-02 0.0000000000000000e+00  2.9747264294404037e+00 -6.1791473761685499e-02 0.0000000000000000e+00  2.9610907204583490e+00 -7.4915692106111417e-02 0.0000000000000000e+00  2.9750221428074091e+00 -7.2825221937112189e-02 0.0000000000000000e+00  2.9606563056692408e+00 -6.9805673751462530e-02 0.0000000000000000e+00  2.9756300965379414e+00 -5.1505142443701211e-02 0.0000000000000000e+00  2.9603998787918449e+00 -5.8624234590328221e-02 0.0000000000000000e+00  2.9760411118116439e+00 -2.7066094036963698e-02 0.0000000000000000e+00  2.9605128645664527e+00 0.0000000000000000e+00 0.0000000000000000e+00  1.2244422988986572e+00 0.0000000000000000e+00 3.2033340855588240e-02  1.2256048014931771e+00 3.2603026130774364e-02 3.0479545778197134e-03  1.2218532847319443e+00 4.5946378262372072e-02 -1.7099586038096640e-02  1.2272557876964654e+00 7.9936120439673061e-02 -1.2581778518920284e-02  1.2228516105314973e+00 1.1814868136514842e-01 2.8081387153768927e-02  1.2244474939101870e+00 1.3663535232032609e-01 -3.4960618544207192e-02  1.2251929909914447e+00 1.9265676188901382e-01 3.2667813295170080e-02  1.2253857762060363e+00 1.8763568501367314e-01 -3.0150026668904505e-02  1.2225544616799153e+00 2.6150868263395849e-01 3.1385049472572604e-02  1.2278812031570914e+00 2.5612000078012731e-01 -3.5479460165677289e-02  1.2233959329810549e+00 3.1821941588655461e-01 3.6131554492809498e-02  1.2255337025968707e+00 3.1776120370970479e-01 -3.4088426127938373e-02  1.2256478572617169e+00 3.8844611269063489e-01 3.3380140025402287e-02  1.2266876193600333e+00 3.7613769708756434e-01 -3.6680670429897054e-02  1.2234182624319792e+00 4.4712110410537659e-01 3.8157111061351855e-02  1.2289492069038213e+00 4.4436059588468024e-01 -3.1869981225553082e-02  1.2250764319835203e+00 5.0124365172450402e-01 2.0729828999608676e-02  1.2268304613233758e+00 5.1016178367816156e-01 -1.3533087777646361e-02  1.2279886415411456e+00 5.5823350182743547e-01 1.1872290893635257e-02  1.2284630562133414e+00 5.7355697249192328e-01 -9.4923952059807245e-03  1.2271988966569276e+00 6.0950174583253269e-01 2.0374371123477088e-03  1.2314008535812322e+00 6.3986650239612086e-01 4.8424942032358753e-03  1.2304477726175833e+00 6.6285977101828431e-01 -6.0701328303766266e-03  1.2314077006197868e+00 6.9379702190803294e-01 6.6425677726964357e-03  1.2352970093944660e+00 7.1468928020529598e-01 -9.7931335594316389e-03  1.2359927744761412e+00 7.5020061404512939e-01 1.2895402701148110e-02  1.2381431115053367e+00 7.5931887865656489e-01 -1.2375658768213458e-02  1.2428393432491334e+00 7.9622390287384226e-01 1.2500291929032946e-02  1.2458214504103229e+00 8.0382899381535799e-01 -1.3350736006371709e-02  1.2487308986722407e+00 8.3398775325817975e-01 1.3244165918843019e-02  1.2557621341278249e+00 8.4180278198661829e-01 -1.1887961469071633e-02  1.2591988172014199e+00 8.6994380171760333e-01 1.1764977788730858e-02  1.2646084962195203e+00 8.7175124919383840e-01 -1.1665280836522362e-02  1.2710828129171545e+00 9.0018069821706903e-01 1.0810533527217312e-02  1.2766298508917948e+00 9.0561839529627708e-01 -9.6898503027841604e-03  1.2812789499565234e+00 9.2605888142998072e-01 9.1389034000996707e-03  1.2889152520987222e+00 9.3593034757185611e-01 -8.6281458193007664e-03  1.2935379412372472e+00 9.5713766096482289e-01 7.8739415960188755e-03  1.2994403031656909e+00 9.6343332349315203e-01 -7.5055545538215956e-03  1.3056572862372280e+00 9.8718970856085864e-01 7.1662551171860376e-03  1.3116416456163558e+00 9.9638356551334462e-01 -6.8336478011855164e-03  1.3163773158253151e+00 1.0143872299547438e+00 6.5637310930501784e-03  1.3236921122734544e+00 1.0275265645146352e+00 -6.5997661410757682e-03  1.3285108879491754e+00 1.0471625772238329e+00 6.7140990464375190e-03  1.3347910435902632e+00 1.0553095027973041e+00 -6.8972731188140035e-03  1.3403881508021471e+00 1.0795649612521290e+00 7.0519389945862473e-03  1.3470992182155512e+00 1.0876378802371434e+00 -7.1834432583111766e-03  1.3515860461594698e+00 1.1083865620122810e+00 7.3944896578939951e-03  1.3591161489798647e+00 1.1195742883265989e+00 -7.6556314417157286e-03  1.3637503670737736e+00 1.1414992863634861e+00 7.9945632585892001e-03  1.3707579971883872e+00 1.1479601231618060e+00 -8.2242862859628913e-03  1.3755762913735927e+00 1.1751490643854847e+00 8.5512905826579406e-03  1.3831755745713996e+00 1.1793436651496736e+00 -8.7496623928755030e-03  1.3872321909203307e+00 1.2051587838689337e+00 9.0586539873761078e-03  1.3952691741555479e+00 1.2117296864691613e+00 -9.3403109142677458e-03  1.3994289481786981e+00 1.2376346324394021e+00 9.5991167816927812e-03  1.4073851627294709e+00 1.2408036750613407e+00 -9.7303041486598157e-03  1.4112727659993711e+00 1.2713903675360623e+00 9.7945480603995345e-03  1.4198295502101805e+00 1.2715782998280727e+00 -9.8729031482877316e-03  1.4232314904452203e+00 1.3019882935478386e+00 9.9406145130756154e-03  1.4319144427383510e+00 1.3043985742494342e+00 -1.0014300079359188e-02  1.4353948633107392e+00 1.3332208051116918e+00 9.9929914746813026e-03  1.4441438381303335e+00 1.3349206201744088e+00 -9.7855387351728079e-03  1.4473454062496112e+00 1.3657894196147848e+00 9.5480542955660858e-03  1.4563747866940635e+00 1.3659937173110084e+00 -9.2133642578144746e-03  1.4595191451929967e+00 1.3961214012222922e+00 9.0773765341881762e-03  1.4683966569737226e+00 1.3988195773901797e+00 -8.7289960851158702e-03  1.4716399549323511e+00 1.4262213836330848e+00 8.5316942052339542e-03  1.4805391042931506e+00 1.4301586871118956e+00 -7.7834934223072636e-03  1.4838625486783439e+00 1.4573518684438029e+00 7.2102348469441557e-03  1.4922706799825258e+00 1.4615131982159335e+00 -6.0722979088498694e-03  1.4964620891422264e+00 1.4868960611201278e+00 5.4575902606367787e-03  1.5040174624071221e+00 1.4943517110509643e+00 -4.3102719076240055e-03  1.5085918183926703e+00 1.5156033647757472e+00 3.8810996253054830e-03  1.5161741466043470e+00 1.5265878349352484e+00 -2.7241173388892286e-03  1.5208305276779612e+00 1.5450865917519134e+00 2.3253459351004636e-03  1.5277211693405528e+00 1.5578829050661793e+00 -1.1565977689246400e-03  1.5335605146812483e+00 1.5746857745910634e+00 8.9409054655561451e-04  1.5394196163847358e+00 1.5892113126281004e+00 -6.2512151110519267e-05  1.5455110261926193e+00 1.6034565047962936e+00 1.1591238476418672e-04  1.5517984159452343e+00 1.6210165237582363e+00 3.1474688984676796e-04  1.5574861169154195e+00 1.6320186249953568e