<?xml version="1.0"?>
<VTKFile type="UnstructuredGrid"  version="0.1"  >
<UnstructuredGrid>
<Piece  NumberOfPoints="8241" NumberOfCells="16000">
<Points>
<DataArray  type="Float64"  NumberOfComponents="3"  format="ascii">-5 -1 0  -4.95 -1 0  -4.9 -1 0  -4.85 -1 0  -4.8 -1 0  -4.75 -1 0  -4.7 -1 0  -4.65 -1 0  -4.6 -1 0  -4.55 -1 0  -4.5 -1 0  -4.45 -1 0  -4.4 -1 0  -4.35 -1 0  -4.3 -1 0  -4.25 -1 0  -4.2 -1 0  -4.15 -1 0  -4.1 -1 0  -4.05 -1 0  -4 -1 0  -3.95 -1 0  -3.9 -1 0  -3.85 -1 0  -3.8 -1 0  -3.75 -1 0  -3.7 -1 0  -3.65 -1 0  -3.6 -1 0  -3.55 -1 0  -3.5 -1 0  -3.45 -1 0  -3.4 -1 0  -3.35 -1 0  -3.3 -1 0  -3.25 -1 0  -3.2 -1 0  -3.15 -1 0  -3.1 -1 0  -3.05 -1 0  -3 -1 0  -2.95 -1 0  -2.9 -1 0  -2.85 -1 0  -2.8 -1 0  -2.75 -1 0  -2.7 -1 0  -2.65 -1 0  -2.6 -1 0  -2.55 -1 0  -2.5 -1 0  -2.45 -1 0  -2.4 -1 0  -2.35 -1 0  -2.3 -1 0  -2.25 -1 0  -2.2 -1 0  -2.15 -1 0  -2.1 -1 0  -2.05 -1 0  -2 -1 0  -1.95 -1 0  -1.9 -1 0  -1.85 -1 0  -1.8 -1 0  -1.75 -1 0  -1.7 -1 0  -1.65 -1 0  -1.6 -1 0  -1.55 -1 0  -1.5 -1 0  -1.45 -1 0  -1.4 -1 0  -1.35 -1 0  -1.3 -1 0  -1.25 -1 0  -1.2 -1 0  -1.15 -1 0  -1.1 -1 0  -1.05 -1 0  -1 -1 0  -0.9500000000000002 -1 0  -0.9000000000000004 -1 0  -0.8499999999999996 -1 0  -0.7999999999999998 -1 0  -0.75 -1 0  -0.7000000000000002 -1 0  -0.6500000000000004 -1 0  -0.5999999999999996 -1 0  -0.5499999999999998 -1 0  -0.5 -1 0  -0.4500000000000002 -1 0  -0.4000000000000004 -1 0  -0.3499999999999996 -1 0  -0.2999999999999998 -1 0  -0.25 -1 0  -0.2000000000000002 -1 0  -0.1500000000000004 -1 0  -0.09999999999999964 -1 0  -0.04999999999999982 -1 0  0 -1 0  0.04999999999999982 -1 0  0.09999999999999964 -1 0  0.1500000000000004 -1 0  0.2000000000000002 -1 0  0.25 -1 0  0.2999999999999998 -1 0  0.3499999999999996 -1 0  0.4000000000000004 -1 0  0.4500000000000002 -1 0  0.5 -1 0  0.5499999999999998 -1 0  0.5999999999999996 -1 0  0.6500000000000004 -1 0  0.7000000000000002 -1 0  0.75 -1 0  0.7999999999999998 -1 0  0.8499999999999996 -1 0  0.9000000000000004 -1 0  0.9500000000000002 -1 0  1 -1 0  1.05 -1 0  1.1 -1 0  1.15 -1 0  1.2 -1 0  1.25 -1 0  1.3 -1 0  1.35 -1 0  1.4 -1 0  1.45 -1 0  1.5 -1 0  1.55 -1 0  1.6 -1 0  1.65 -1 0  1.7 -1 0  1.75 -1 0  1.8 -1 0  1.85 -1 0  1.9 -1 0  1.95 -1 0  2 -1 0  2.05 -1 0  2.1 -1 0  2.15 -1 0  2.2 -1 0  2.25 -1 0  2.3 -1 0  2.35 -1 0  2.4 -1 0  2.45 -1 0  2.5 -1 0  2.55 -1 0  2.6 -1 0  2.65 -1 0  2.7 -1 0  2.75 -1 0  2.8 -1 0  2.85 -1 0  2.9 -1 0  2.95 -1 0  3 -1 0  3.050000000000001 -1 0  3.1 -1 0  3.15 -1 0  3.199999999999999 -1 0  3.25 -1 0  3.300000000000001 -1 0  3.35 -1 0  3.4 -1 0  3.449999999999999 -1 0  3.5 -1 0  3.550000000000001 -1 0  3.6 -1 0  3.65 -1 0  3.699999999999999 -1 0  3.75 -1 0  3.800000000000001 -1 0  3.85 -1 0  3.9 -1 0  3.949999999999999 -1 0  4 -1 0  4.050000000000001 -1 0  4.1 -1 0  4.15 -1 0  4.199999999999999 -1 0  4.25 -1 0  4.300000000000001 -1 0  4.35 -1 0  4.4 -1 0  4.449999999999999 -1 0  4.5 -1 0  4.550000000000001 -1 0  4.6 -1 0  4.65 -1 0  4.699999999999999 -1 0  4.75 -1 0  4.800000000000001 -1 0  4.85 -1 0  4.9 -1 0  4.949999999999999 -1 0  5 -1 0  -5 -0.95 0  -4.95 -0.95 0  -4.9 -0.95 0  -4.85 -0.95 0  -4.8 -0.95 0  -4.75 -0.95 0  -4.7 -0.95 0  -4.65 -0.95 0  -4.6 -0.95 0  -4.55 -0.95 0  -4.5 -0.95 0  -4.45 -0.95 0  -4.4 -0.95 0  -4.35 -0.95 0  -4.3 -0.95 0  -4.25 -0.95 0  -4.2 -0.95 0  -4.15 -0.95 0  -4.1 -0.95 0  -4.05 -0.95 0  -4 -0.95 0  -3.95 -0.95 0  -3.9 -0.95 0  -3.85 -0.95 0  -3.8 -0.95 0  -3.75 -0.95 0  -3.7 -0.95 0  -3.65 -0.95 0  -3.6 -0.95 0  -3.55 -0.95 0  -3.5 -0.95 0  -3.45 -0.95 0  -3.4 -0.95 0  -3.35 -0.95 0  -3.3 -0.95 0  -3.25 -0.95 0  -3.2 -0.95 0  -3.15 -0.95 0  -3.1 -0.95 0  -3.05 -0.95 0  -3 -0.95 0  -2.95 -0.95 0  -2.9 -0.95 0  -2.85 -0.95 0  -2.8 -0.95 0  -2.75 -0.95 0  -2.7 -0.95 0  -2.65 -0.95 0  -2.6 -0.95 0  -2.55 -0.95 0  -2.5 -0.95 0  -2.45 -0.95 0  -2.4 -0.95 0  -2.35 -0.95 0  -2.3 -0.95 0  -2.25 -0.95 0  -2.2 -0.95 0  -2.15 -0.95 0  -2.1 -0.95 0  -2.05 -0.95 0  -2 -0.95 0  -1.95 -0.95 0  -1.9 -0.95 0  -1.85 -0.95 0  -1.8 -0.95 0  -1.75 -0.95 0  -1.7 -0.95 0  -1.65 -0.95 0  -1.6 -0.95 0  -1.55 -0.95 0  -1.5 -0.95 0  -1.45 -0.95 0  -1.4 -0.95 0  -1.35 -0.95 0  -1.3 -0.95 0  -1.25 -0.95 0  -1.2 -0.95 0  -1.15 -0.95 0  -1.1 -0.95 0  -1.05 -0.95 0  -1 -0.95 0  -0.9500000000000002 -0.95 0  -0.9000000000000004 -0.95 0  -0.8499999999999996 -0.95 0  -0.7999999999999998 -0.95 0  -0.75 -0.95 0  -0.7000000000000002 -0.95 0  -0.6500000000000004 -0.95 0  -0.5999999999999996 -0.95 0  -0.5499999999999998 -0.95 0  -0.5 -0.95 0  -0.4500000000000002 -0.95 0  -0.4000000000000004 -0.95 0  -0.3499999999999996 -0.95 0  -0.2999999999999998 -0.95 0  -0.25 -0.95 0  -0.2000000000000002 -0.95 0  -0.1500000000000004 -0.95 0  -0.09999999999999964 -0.95 0  -0.04999999999999982 -0.95 0  0 -0.95 0  0.04999999999999982 -0.95 0  0.09999999999999964 -0.95 0  0.1500000000000004 -0.95 0  0.2000000000000002 -0.95 0  0.25 -0.95 0  0.2999999999999998 -0.95 0  0.3499999999999996 -0.95 0  0.4000000000000004 -0.95 0  0.4500000000000002 -0.95 0  0.5 -0.95 0  0.5499999999999998 -0.95 0  0.5999999999999996 -0.95 0  0.6500000000000004 -0.95 0  0.7000000000000002 -0.95 0  0.75 -0.95 0  0.7999999999999998 -0.95 0  0.8499999999999996 -0.95 0  0.9000000000000004 -0.95 0  0.9500000000000002 -0.95 0  1 -0.95 0  1.05 -0.95 0  1.1 -0.95 0  1.15 -0.95 0  1.2 -0.95 0  1.25 -0.95 0  1.3 -0.95 0  1.35 -0.95 0  1.4 -0.95 0  1.45 -0.95 0  1.5 -0.95 0  1.55 -0.95 0  1.6 -0.95 0  1.65 -0.95 0  1.7 -0.95 0  1.75 -0.95 0  1.8 -0.95 0  1.85 -0.95 0  1.9 -0.95 0  1.95 -0.95 0  2 -0.95 0  2.05 -0.95 0  2.1 -0.95 0  2.15 -0.95 0  2.2 -0.95 0  2.25 -0.95 0  2.3 -0.95 0  2.35 -0.95 0  2.4 -0.95 0  2.45 -0.95 0  2.5 -0.95 0  2.55 -0.95 0  2.6 -0.95 0  2.65 -0.95 0  2.7 -0.95 0  2.75 -0.95 0  2.8 -0.95 0  2.85 -0.95 0  2.9 -0.95 0  2.95 -0.95 0  3 -0.95 0  3.050000000000001 -0.95 0  3.1 -0.95 0  3.15 -0.95 0  3.199999999999999 -0.95 0  3.25 -0.95 0  3.300000000000001 -0.95 0  3.35 -0.95 0  3.4 -0.95 0  3.449999999999999 -0.95 0  3.5 -0.95 0  3.550000000000001 -0.95 0  3.6 -0.95 0  3.65 -0.95 0  3.699999999999999 -0.95 0  3.75 -0.95 0  3.800000000000001 -0.95 0  3.85 -0.95 0  3.9 -0.95 0  3.949999999999999 -0.95 0  4 -0.95 0  4.050000000000001 -0.95 0  4.1 -0.95 0  4.15 -0.95 0  4.199999999999999 -0.95 0  4.25 -0.95 0  4.300000000000001 -0.95 0  4.35 -0.95 0  4.4 -0.95 0  4.449999999999999 -0.95 0  4.5 -0.95 0  4.550000000000001 -0.95 0  4.6 -0.95 0  4.65 -0.95 0  4.699999999999999 -0.95 0  4.75 -0.95 0  4.800000000000001 -0.95 0  4.85 -0.95 0  4.9 -0.95 0  4.949999999999999 -0.95 0  5 -0.95 0  -5 -0.9 0  -4.95 -0.9 0  -4.9 -0.9 0  -4.85 -0.9 0  -4.8 -0.9 0  -4.75 -0.9 0  -4.7 -0.9 0  -4.65 -0.9 0  -4.6 -0.9 0  -4.55 -0.9 0  -4.5 -0.9 0  -4.45 -0.9 0  -4.4 -0.9 0  -4.35 -0.9 0  -4.3 -0.9 0  -4.25 -0.9 0  -4.2 -0.9 0  -4.15 -0.9 0  -4.1 -0.9 0  -4.05 -0.9 0  -4 -0.9 0  -3.95 -0.9 0  -3.9 -0.9 0  -3.85 -0.9 0  -3.8 -0.9 0  -3.75 -0.9 0  -3.7 -0.9 0  -3.65 -0.9 0  -3.6 -0.9 0  -3.55 -0.9 0  -3.5 -0.9 0  -3.45 -0.9 0  -3.4 -0.9 0  -3.35 -0.9 0  -3.3 -0.9 0  -3.25 -0.9 0  -3.2 -0.9 0  -3.15 -0.9 0  -3.1 -0.9 0  -3.05 -0.9 0  -3 -0.9 0  -2.95 -0.9 0  -2.9 -0.9 0  -2.85 -0.9 0  -2.8 -0.9 0  -2.75 -0.9 0  -2.7 -0.9 0  -2.65 -0.9 0  -2.6 -0.9 0  -2.55 -0.9 0  -2.5 -0.9 0  -2.45 -0.9 0  -2.4 -0.9 0  -2.35 -0.9 0  -2.3 -0.9 0  -2.25 -0.9 0  -2.2 -0.9 0  -2.15 -0.9 0  -2.1 -0.9 0  -2.05 -0.9 0  -2 -0.9 0  -1.95 -0.9 0  -1.9 -0.9 0  -1.85 -0.9 0  -1.8 -0.9 0  -1.75 -0.9 0  -1.7 -0.9 0  -1.65 -0.9 0  -1.6 -0.9 0  -1.55 -0.9 0  -1.5 -0.9 0  -1.45 -0.9 0  -1.4 -0.9 0  -1.35 -0.9 0  -1.3 -0.9 0  -1.25 -0.9 0  -1.2 -0.9 0  -1.15 -0.9 0  -1.1 -0.9 0  -1.05 -0.9 0  -1 -0.9 0  -0.9500000000000002 -0.9 0  -0.9000000000000004 -0.9 0  -0.8499999999999996 -0.9 0  -0.7999999999999998 -0.9 0  -0.75 -0.9 0  -0.7000000000000002 -0.9 0  -0.6500000000000004 -0.9 0  -0.5999999999999996 -0.9 0  -0.5499999999999998 -0.9 0  -0.5 -0.9 0  -0.4500000000000002 -0.9 0  -0.4000000000000004 -0.9 0  -0.3499999999999996 -0.9 0  -0.2999999999999998 -0.9 0  -0.25 -0.9 0  -0.2000000000000002 -0.9 0  -0.1500000000000004 -0.9 0  -0.09999999999999964 -0.9 0  -0.04999999999999982 -0.9 0  0 -0.9 0  0.04999999999999982 -0.9 0  0.09999999999999964 -0.9 0  0.1500000000000004 -0.9 0  0.2000000000000002 -0.9 0  0.25 -0.9 0  0.2999999999999998 -0.9 0  0.3499999999999996 -0.9 0  0.4000000000000004 -0.9 0  0.4500000000000002 -0.9 0  0.5 -0.9 0  0.5499999999999998 -0.9 0  0.5999999999999996 -0.9 0  0.6500000000000004 -0.9 0  0.7000000000000002 -0.9 0  0.75 -0.9 0  0.7999999999999998 -0.9 0  0.8499999999999996 -0.9 0  0.9000000000000004 -0.9 0  0.9500000000000002 -0.9 0  1 -0.9 0  1.05 -0.9 0  1.1 -0.9 0  1.15 -0.9 0  1.2 -0.9 0  1.25 -0.9 0  1.3 -0.9 0  1.35 -0.9 0  1.4 -0.9 0  1.45 -0.9 0  1.5 -0.9 0  1.55 -0.9 0  1.6 -0.9 0  1.65 -0.9 0  1.7 -0.9 0  1.75 -0.9 0  1.8 -0.9 0  1.85 -0.9 0  1.9 -0.9 0  1.95 -0.9 0  2 -0.9 0  2.05 -0.9 0  2.1 -0.9 0  2.15 -0.9 0  2.2 -0.9 0  2.25 -0.9 0  2.3 -0.9 0  2.35 -0.9 0  2.4 -0.9 0  2.45 -0.9 0  2.5 -0.9 0  2.55 -0.9 0  2.6 -0.9 0  2.65 -0.9 0  2.7 -0.9 0  2.75 -0.9 0  2.8 -0.9 0  2.85 -0.9 0  2.9 -0.9 0  2.95 -0.9 0  3 -0.9 0  3.050000000000001 -0.9 0  3.1 -0.9 0  3.15 -0.9 0  3.199999999999999 -0.9 0  3.25 -0.9 0  3.300000000000001 -0.9 0  3.35 -0.9 0  3.4 -0.9 0  3.449999999999999 -0.9 0  3.5 -0.9 0  3.550000000000001 -0.9 0  3.6 -0.9 0  3.65 -0.9 0  3.699999999999999 -0.9 0  3.75 -0.9 0  3.800000000000001 -0.9 0  3.85 -0.9 0  3.9 -0.9 0  3.949999999999999 -0.9 0  4 -0.9 0  4.050000000000001 -0.9 0  4.1 -0.9 0  4.15 -0.9 0  4.199999999999999 -0.9 0  4.25 -0.9 0  4.300000000000001 -0.9 0  4.35 -0.9 0  4.4 -0.9 0  4.449999999999999 -0.9 0  4.5 -0.9 0  4.550000000000001 -0.9 0  4.6 -0.9 0  4.65 -0.9 0  4.699999999999999 -0.9 0  4.75 -0.9 0  4.800000000000001 -0.9 0  4.85 -0.9 0  4.9 -0.9 0  4.949999999999999 -0.9 0  5 -0.9 0  -5 -0.85 0  -4.95 -0.85 0  -4.9 -0.85 0  -4.85 -0.85 0  -4.8 -0.85 0  -4.75 -0.85 0  -4.7 -0.85 0  -4.65 -0.85 0  -4.6 -0.85 0  -4.55 -0.85 0  -4.5 -0.85 0  -
[...]
<PointData  Vectors="f_15"> 
<DataArray  type="Float64"  Name="f_15"  NumberOfComponents="3" format="ascii">1.9767938321865979e+00 0.0000000000000000e+00 0.0000000000000000e+00  1.9539155409133548e+00 2.9086083118206974e-02 0.0000000000000000e+00  1.9743302912020175e+00 1.1753446381759522e-01 0.0000000000000000e+00  1.9540902968257392e+00 1.2212085289598998e-01 0.0000000000000000e+00  1.9737003924362564e+00 2.0793645697012547e-01 0.0000000000000000e+00  1.9525751156842248e+00 2.2023049127520863e-01 0.0000000000000000e+00  1.9730963813643700e+00 2.9765518584753825e-01 0.0000000000000000e+00  1.9513991527128118e+00 3.1704085139608168e-01 0.0000000000000000e+00  1.9719092025863085e+00 3.8835577684027239e-01 0.0000000000000000e+00  1.9501826005821856e+00 4.1387800115173251e-01 0.0000000000000000e+00  1.9706336765854879e+00 4.7717412058501169e-01 0.0000000000000000e+00  1.9485818482561179e+00 5.1667003472072315e-01 0.0000000000000000e+00  1.9692224627322903e+00 5.5482284004269766e-01 0.0000000000000000e+00  1.9467259519147897e+00 6.3141265716528228e-01 0.0000000000000000e+00  1.9674209120719197e+00 6.2995496195598910e-01 0.0000000000000000e+00  1.9447015513377066e+00 7.2656482056953153e-01 0.0000000000000000e+00  1.9654084070250744e+00 7.4843404271183678e-01 0.0000000000000000e+00  1.9421083379461677e+00 7.6880847565894483e-01 0.0000000000000000e+00  1.9634263983613887e+00 8.9815334687354142e-01 0.0000000000000000e+00  1.9389666714245029e+00 8.1856273505021082e-01 0.0000000000000000e+00  1.9606745060157160e+00 1.0044778307334175e+00 0.0000000000000000e+00  1.9362219403428274e+00 9.1581435007349232e-01 0.0000000000000000e+00  1.9569429159634373e+00 1.0873013119556014e+00 0.0000000000000000e+00  1.9330558675410559e+00 1.0120497644276298e+00 0.0000000000000000e+00  1.9533268846075991e+00 1.1728446967835182e+00 0.0000000000000000e+00  1.9290457848614597e+00 1.1171129681001268e+00 0.0000000000000000e+00  1.9491710496517138e+00 1.2489714604230582e+00 0.0000000000000000e+00  1.9250749871628914e+00 1.2109146519865788e+00 0.0000000000000000e+00  1.9440618915279357e+00 1.3468045768098755e+00 0.0000000000000000e+00  1.9205457259349139e+00 1.2944337888617934e+00 0.0000000000000000e+00  1.9387196997211951e+00 1.4287483333559154e+00 0.0000000000000000e+00  1.9154877280923628e+00 1.3948451396129677e+00 0.0000000000000000e+00  1.9325046476828052e+00 1.5110250660731595e+00 0.0000000000000000e+00  1.9101517535674557e+00 1.4791661609894813e+00 0.0000000000000000e+00  1.9255811773566249e+00 1.5981635826965483e+00 0.0000000000000000e+00  1.9038371144338393e+00 1.5692809329457473e+00 0.0000000000000000e+00  1.9185610277772538e+00 1.6759532040979825e+00 0.0000000000000000e+00  1.8964790028071710e+00 1.6591392993753822e+00 0.0000000000000000e+00  1.9106171190769472e+00 1.7528999704426174e+00 0.0000000000000000e+00  1.8890367965510539e+00 1.7458381200892084e+00 0.0000000000000000e+00  1.9015089339869924e+00 1.8326950541935048e+00 0.0000000000000000e+00  1.8805496031409692e+00 1.8250270338023424e+00 0.0000000000000000e+00  1.8924314551720520e+00 1.9084911770340052e+00 0.0000000000000000e+00  1.8708470575881155e+00 1.9067095045649387e+00 0.0000000000000000e+00  1.8824826396819982e+00 1.9818417943058217e+00 0.0000000000000000e+00  1.8610973052626545e+00 1.9789499595923399e+00 0.0000000000000000e+00  1.8716827407448760e+00 2.0556524671547951e+00 0.0000000000000000e+00  1.8505807561659890e+00 2.0488849252381982e+00 0.0000000000000000e+00  1.8612805490315540e+00 2.1217072747178238e+00 0.0000000000000000e+00  1.8396103863843432e+00 2.1167340736831215e+00 0.0000000000000000e+00  1.8509749836476670e+00 2.1807931442898432e+00 0.0000000000000000e+00  1.8298576591601456e+00 2.1765779674260295e+00 0.0000000000000000e+00  1.8417254199920479e+00 2.2334344548595952e+00 0.0000000000000000e+00  1.8221005411994826e+00 2.2272463425357714e+00 0.0000000000000000e+00  1.8358404554349184e+00 2.2707928987867341e+00 0.0000000000000000e+00  1.8182767777746289e+00 2.2661534526981564e+00 0.0000000000000000e+00  1.8341467385084720e+00 2.2936321581632151e+00 0.0000000000000000e+00  1.8196183228049601e+00 2.2872877976802419e+00 0.0000000000000000e+00  1.8362591919204125e+00 2.3056466298323817e+00 0.0000000000000000e+00  1.8237290747067925e+00 2.2980037257201933e+00 0.0000000000000000e+00  1.8398109238491900e+00 2.3086385261757059e+00 0.0000000000000000e+00  1.8281701498797758e+00 2.3061263227441793e+00 0.0000000000000000e+00  1.8425756789654570e+00 2.3115230838196612e+00 0.0000000000000000e+00  1.8318407811914741e+00 2.3099054448085572e+00 0.0000000000000000e+00  1.8445466875653069e+00 2.3155210449039800e+00 0.0000000000000000e+00  1.8345999067802372e+00 2.3131289011337026e+00 0.0000000000000000e+00  1.8453984983785989e+00 2.3178730667497671e+00 0.0000000000000000e+00  1.8374449595722921e+00 2.3151332184566455e+00 0.0000000000000000e+00  1.8452337624231052e+00 2.3224967092107605e+00 0.0000000000000000e+00  1.8397349486018202e+00 2.3125306360982001e+00 0.0000000000000000e+00  1.8452289789033522e+00 2.3274792481523185e+00 0.0000000000000000e+00  1.8410463273606430e+00 2.3129773967531762e+00 0.0000000000000000e+00  1.8449855694594575e+00 2.3276240500344438e+00 0.0000000000000000e+00  1.8426907861462096e+00 2.3136304078112477e+00 0.0000000000000000e+00  1.8442276143468865e+00 2.3313653649148360e+00 0.0000000000000000e+00  1.8439947667502621e+00 2.3082240497601703e+00 0.0000000000000000e+00  1.8441508424701580e+00 2.3378909076931635e+00 0.0000000000000000e+00  1.8444814356105925e+00 2.3047748005611237e+00 0.0000000000000000e+00  1.8440511629061409e+00 2.3410899923333188e+00 0.0000000000000000e+00  1.8455065249374427e+00 2.3007863687623247e+00 0.0000000000000000e+00  1.8437898809206523e+00 2.3491140451471515e+00 0.0000000000000000e+00  1.8457053957026628e+00 2.2920514211845098e+00 0.0000000000000000e+00  1.8447130334495556e+00 2.3573375419680973e+00 0.0000000000000000e+00  1.8454435258883426e+00 2.2884770588991956e+00 0.0000000000000000e+00  1.8448817109740367e+00 2.3596836196431510e+00 0.0000000000000000e+00  1.8465914752616635e+00 2.2866721633042073e+00 0.0000000000000000e+00  1.8444717517304527e+00 2.3649220154313109e+00 0.0000000000000000e+00  1.8469044369570007e+00 2.2821444746679354e+00 0.0000000000000000e+00  1.8452562301904343e+00 2.3689156087645005e+00 0.0000000000000000e+00  1.8472039928012687e+00 2.2827244703452165e+00 0.0000000000000000e+00  1.8447352375187127e+00 2.3679809940592733e+00 0.0000000000000000e+00  1.8490361804003621e+00 2.2843982392920941e+00 0.0000000000000000e+00  1.8437156908390515e+00 2.3703541096030594e+00 0.0000000000000000e+00  1.8499813246215904e+00 2.2826511319094531e+00 0.0000000000000000e+00  1.8438278681889630e+00 2.3724609253580509e+00 0.0000000000000000e+00  1.8509583727721521e+00 2.2847290481175726e+00 0.0000000000000000e+00  1.8427685753290413e+00 2.3705976193178393e+00 0.0000000000000000e+00  1.8527321196858719e+00 2.2879288167114535e+00 0.0000000000000000e+00  1.8421756225569899e+00 2.3711105261274312e+00 0.0000000000000000e+00  1.8530932717670447e+00 2.2875414481089238e+00 0.0000000000000000e+00  1.8426597996904159e+00 2.3723050333582041e+00 0.0000000000000000e+00  1.8534961287693381e+00 2.2900832538048124e+00 0.0000000000000000e+00  1.8421107698864376e+00 2.3693190824623560e+00 0.0000000000000000e+00  1.8543948285296843e+00 2.2943592847360801e+00 0.0000000000000000e+00  1.8424743530640266e+00 2.3673746699434965e+00 0.0000000000000000e+00  1.8534884569396266e+00 2.2960698924101672e+00 0.0000000000000000e+00  1.8437240846330070e+00 2.3659911872183379e+00 0.0000000000000000e+00  1.8531859766011041e+00 2.3002645968605266e+00 0.0000000000000000e+00  1.8435610210998918e+00 2.3600132051555018e+00 0.0000000000000000e+00  1.8534881869156326e+00 2.3068832852214367e+00 0.0000000000000000e+00  1.8441808261499304e+00 2.3554088550767536e+00 0.0000000000000000e+00  1.8520844935046641e+00 2.3096844707672530e+00 0.0000000000000000e+00  1.8457343268980593e+00 2.3525973998917245e+00 0.0000000000000000e+00  1.8514826430111853e+00 2.3139751273860893e+00 0.0000000000000000e+00  1.8453441714484180e+00 2.3464652825500898e+00 0.0000000000000000e+00  1.8518946001862564e+00 2.3198096881682329e+00 0.0000000000000000e+00  1.8458772889657717e+00 2.3423003128626765e+00 0.0000000000000000e+00  1.8503691454895397e+00 2.3212090996834287e+00 0.0000000000000000e+00  1.8473688119844638e+00 2.3408939850838171e+00 0.0000000000000000e+00  1.8497052345022795e+00 2.3242581963714382e+00 0.0000000000000000e+00  1.8469159071841394e+00 2.3351949193259913e+00 0.0000000000000000e+00  1.8503898594997643e+00 2.3291811650224257e+00 0.0000000000000000e+00  1.8469232201311547e+00 2.3324898989573795e+00 0.0000000000000000e+00  1.8490960762942725e+00 2.3291620465733094e+00 0.0000000000000000e+00  1.8485283054135253e+00 2.3319746615583536e+00 0.0000000000000000e+00  1.8482980695241311e+00 2.3311042738691823e+00 0.0000000000000000e+00  1.8480815192735864e+00 2.3280572890484637e+00 0.0000000000000000e+00  1.8487664343339052e+00 2.3340972960431587e+00 0.0000000000000000e+00  1.8486283889610811e+00 2.3268252977902035e+00 0.0000000000000000e+00  1.8470426300694944e+00 2.3326968770316276e+00 0.0000000000000000e+00  1.8504795535690897e+00 2.3266147277243934e+00 0.0000000000000000e+00  1.8458583208940755e+00 2.3361276799969426e+00 0.0000000000000000e+00  1.8507978321460674e+00 2.3190556066837282e+00 0.0000000000000000e+00  1.8457968437127990e+00 2.3421011118066146e+00 0.0000000000000000e+00  1.8515135420825151e+00 2.3169192090922732e+00 0.0000000000000000e+00  1.8441879677117532e+00 2.3389770840865309e+00 0.0000000000000000e+00  1.8535001234847255e+00 2.3206505199417662e+00 0.0000000000000000e+00  1.8434359880738265e+00 2.3347385793947719e+00 0.0000000000000000e+00  1.8535073572884662e+00 2.3234240356578555e+00 0.0000000000000000e+00  1.8437967873472365e+00 2.3292414752623740e+00 0.0000000000000000e+00  1.8555231830868835e+00 2.3282428022960557e+00 0.0000000000000000e+00  1.8420762752690862e+00 2.3207818314362183e+00 0.0000000000000000e+00  1.8579275824019919e+00 2.3314324939971232e+00 0.0000000000000000e+00  1.8437002711084958e+00 2.3161299744070627e+00 0.0000000000000000e+00  1.8586195788478796e+00 2.3243886878423772e+00 0.0000000000000000e+00  1.8453620265325104e+00 2.3177953914096867e+00 0.0000000000000000e+00  1.8625214811474993e+00 2.3137964939716715e+00 0.0000000000000000e+00  1.8469049077323987e+00 2.3136339430689215e+00 0.0000000000000000e+00  1.8648548054882086e+00 2.3058555027187002e+00 0.0000000000000000e+00  1.8521990060760913e+00 2.3101418512971654e+00 0.0000000000000000e+00  1.8660309299202051e+00 2.2908833669057165e+00 0.0000000000000000e+00  1.8562877602766461e+00 2.3084905200001757e+00 0.0000000000000000e+00  1.8693270895140053e+00 2.2795043689638614e+00 0.0000000000000000e+00  1.8589424384404158e+00 2.2986038260847170e+00 0.0000000000000000e+00  1.8711338544031926e+00 2.2704389842198660e+00 0.0000000000000000e+00  1.8640529405210760e+00 2.2905132179142100e+00 0.0000000000000000e+00  1.8718072364342586e+00 2.2550278581323822e+00 0.0000000000000000e+00  1.8694441511604629e+00 2.2808464658632897e+00 0.0000000000000000e+00  1.8788955086450043e+00 2.2386135930652129e+00 0.0000000000000000e+00  1.8764289031313834e+00 2.2616767524018395e+00 0.0000000000000000e+00  1.8916440095907254e+00 2.2164575971909226e+00 0.0000000000000000e+00  1.8923448917065169e+00 2.2396170898604808e+00 0.0000000000000000e+00  1.9050252309669524e+00 2.1922514584326760e+00 0.0000000000000000e+00  1.9041449192877362e+00 2.2297491989759366e+00 0.0000000000000000e+00  1.9094093266260390e+00 2.1988071780773293e+00 0.0000000000000000e+00  1.8908101222648717e+00 2.2554161415650831e+00 0.0000000000000000e+00  1.8886275117131306e+00 2.2480763760967921e+00 0.0000000000000000e+00  1.8583696376705356e+00 2.3158402146120682e+00 0.0000000000000000e+00  1.8601583703533404e+00 2.2967751225829773e+00 0.0000000000000000e+00  1.8350112976967734e+00 2.3544279706215985e+00 0.0000000000000000e+00  1.8535628127083288e+00 2.3177157097580752e+00 0.0000000000000000e+00  1.8246193794501453e+00 2.3584428942373319e+00 0.0000000000000000e+00  1.8543590503016141e+00 2.3269104924243047e+00 0.0000000000000000e+00  1.8092883066739534e+00 2.3700736139124876e+00 0.0000000000000000e+00  1.8408019117536272e+00 2.3666410316426152e+00 0.0000000000000000e+00  2.1751439145903038e+00 1.5479405391682142e+00 0.0000000000000000e+00  2.7671771430285350e+00 3.5084489520869488e-01 0.0000000000000000e+00  2.9416648055733021e+00 4.0891984359081687e-02 0.0000000000000000e+00  2.9788258995111709e+00 -1.7957615712353062e-02 0.0000000000000000e+00  2.9535669024053046e+00 -1.7653518296854439e-03 0.0000000000000000e+00  2.9796331950790700e+00 -3.7107091622557632e-02 0.0000000000000000e+00  2.9613529893670809e+00 -9.9176706730695445e-03 0.0000000000000000e+00  2.9789155704920187e+00 -3.9654261571409430e-02 0.0000000000000000e+00  2.9624940285347492e+00 -1.7895314555226697e-02 0.0000000000000000e+00  2.9792842355699598e+00 -4.4052510653944159e-02 0.0000000000000000e+00  2.9625443467784689e+00 -1.2703899047610245e-02 0.0000000000000000e+00  2.9767005752469484e+00 -4.4612841621137593e-02 0.0000000000000000e+00  2.9649399305925175e+00 -9.3219014357246721e-03 0.0000000000000000e+00  2.9752229166184034e+00 -3.5889643854064686e-02 0.0000000000000000e+00  2.9651693905851868e+00 -9.0395824109402393e-03 0.0000000000000000e+00  2.9752870315143372e+00 -3.1242271803973223e-02 0.0000000000000000e+00  2.9652213675642822e+00 -2.1963331248263909e-02 0.0000000000000000e+00  2.9738045605259260e+00 -5.6337688707788637e-02 0.0000000000000000e+00  2.9671203344644654e+00 -5.7126373228105688e-02 0.0000000000000000e+00  2.9727480502979438e+00 -8.4612483445037329e-02 0.0000000000000000e+00  2.9670157830547645e+00 -7.2163257839095579e-02 0.0000000000000000e+00  2.9736837377693539e+00 -7.7321034960288082e-02 0.0000000000000000e+00  2.9681675290278209e+00 -4.8649896415659241e-02 0.0000000000000000e+00  2.9724796088818288e+00 -6.2640846017918417e-02 0.0000000000000000e+00  2.9710918164033560e+00 -2.6232360638292606e-02 0.0000000000000000e+00  2.9725606381065908e+00 0.0000000000000000e+00 0.0000000000000000e+00  1.9642127816265804e+00 0.0000000000000000e+00 2.1877539547948292e-02  1.9592121544686847e+00 4.8771402683870667e-02 -7.9275257991334707e-03  1.9638916565790472e+00 8.9232881533265709e-02 1.4395024379798972e-03  1.9614319874400530e+00 1.3655225087173120e-01 -4.8820451498790994e-03  1.9626472985304328e+00 1.9263490196080951e-01 6.6710664437816865e-03  1.9621310732654609e+00 2.2841684233907028e-01 -8.5729199789952061e-03  1.9621858588370396e+00 2.8942256487163565e-01 9.7042461042890615e-03  1.9615512879203774e+00 3.2267306045460359e-01 -1.0564276528872757e-02  1.9614401586002328e+00 3.8470863887115647e-01 1.1356569881410029e-02  1.9607664316633326e+00 4.1621436343143342e-01 -1.1946183142790964e-02  1.9600565532561542e+00 4.8118605646980356e-01 1.2642596361823277e-02  1.9596890527962949e+00 5.0549210766657526e-01 -1.3222976591455918e-02  1.9583572557123445e+00 5.8180923690746000e-01 1.4553922092977123e-02  1.9581077961507567e+00 5.9385115177507419e-01 -1.6789702721424684e-02  1.9564318473791598e+00 6.7372499996139934e-01 2.0030803677054128e-02  1.9560981124034340e+00 6.9950906223279696e-01 -2.2079104030499664e-02  1.9542233082194309e+00 7.4608097204554247e-01 1.9609076285399533e-02  1.9535649361729612e+00 8.1329883299844863e-01 -9.9359256762041707e-03  1.9521249314309432e+00 8.2790003759464215e-01 -5.3207653215087873e-03  1.9499108446130529e+00 9.0551109269332941e-01 2.2437475302851086e-02  1.9502646217646706e+00 9.2539965396626833e-01 -3.3594685465089522e-02  1.9459464597089697e+00 9.9786321481937423e-01 3.6985018020081431e-02  1.9472729933370840e+00 1.0102446192613326e+00 -3.3189740534927882e-02  1.9429496308969918e+00 1.0929873494986961e+00 2.6408867723787460e-02  1.9428667166412095e+00 1.1087171304189771e+00 -1.9186593554293876e-02  1.9397311484665307e+00 1.1676033506331007e+00 1.2197887244798415e-02  1.9385320400542971e+00 1.2089611528444790e+00 -7.8432376838306929e-03  1.9354055364422535e+00 1.2604488342660265e+00 6.7960458742862698e-03  1.9339553981726150e+00 1.2904167047522681e+00 -8.5948278939563822e-03  1.9307617990442403e+00 1.3498753317871699e+00 9.3647023945115457e-03  1.9286381083967781e+00 1.3873023707361416e+00 -7.0536263729686849e-03  1.9256108002480830e+00 1.4312798657706383e+00 3.2745682260174173e-03  1.9229370632089526e+00 1.4732949520957526e+00 -1.2975725905470131e-03  1.9198138481310683e+00 1.5219076660148865e+00 9.2953052815535216e-04  1.9163888180171960e+00 1.5609925859440141e+00 1.5464643925255028e-04  1.9139015864314650e+00 1.6013222087280110e+00 -2.3288650455175843e-03  1.9089511207564023e+00 1.6509310000351731e+00 3.9474885576350092e-03  1.9070574471096491e+00 1.6831577554662982e+00 -4.6115307997219596e-03  1.9014997994973359e+00 1.7346847372436967e+00 5.4685723959534676e-03  1.8991059832724950e+00 1.7662325438127111e+00 -7.2532971186858768e-03  1.8931113813046407e+00 1.8149019472201744e+00 8.5299236620390712e-03  1.8911917834423539e+00 1.8456382824684014e+00 -9.1126131704141050e-03  1.8835308335067626e+00 1.8977683957158311e+00 1.0318002879455033e-02  1.8824519381644116e+00 1.9206953263499904e+00 -1.2268223904696330e-02  1.8738236612937884e+00 1.9745665083953405e+00 1.4607461811366962e-02  1.8728243385755559e+00 1.9961015824157800e+00 -1.6112279873076434e-02  1.8631936372666040e+00 2.0502116721075696e+00 1.8499826801235044e-02  1.8635051574522512e+00 2.0631056617869090e+00 -2.0566333572280167e-02  1.8518341394347095e+00 2.1250093574203150e+00 2.3309177305682355e-02  1.8539903880672182e+00 2.1249652479208185e+00 -2.4890280174568461e-02  1.8413514039937577e+00 2.1922484154183723e+00 2.7515039530525667e-02  1.8449166082475907e+00 2.1828676514579275e+00 -2.8885559841193956e-02  1.8322070595103876e+00 2.2509362766221153e+00 3.1028342402151798e-02  1.8382199992602604e+00 2.2287089963344715e+00 -3.1355321923093663e-02  1.8261492748811572e+00 2.2987091027064825e+00 3.2596563066829461e-02  1.8348911041846669e+00 2.2632317348795743e+00 -3.2274593001539620e-02  1.8253244543373313e+00 2.3271020839687360e+00 3.2756395546384674e-02  1.8359669285399869e+00 2.2850344207239641e+00 -3.2084652490214048e-02  1.8287257423809282e+00 2.3402824254785202e+00 3.1674231347103586e-02  1.8401219053128806e+00 2.2942248702310355e+00 -3.0906656673908038e-02  1.8336294977559502e+00 2.3475204206743134e+00 2.9936229997794758e-02  1.8440959035115079e+00 2.3006742123041142e+00 -2.9158851520959192e-02  1.8379012036235500e+00 2.3494368890886999e+00 2.7663530530344208e-02  1.8471758102209970e+00 2.3079983415597907e+00 -2.6964855931183019e-02  1.8410663400719678e+00 2.3514373786424461e+00 2.5406180477859339e-02  1.8491939079613193e+00 2.3126637700036978e+00 -2.4663391114608628e-02  1.8439094230486412e+00 2.3530689687635302e+00 2.2993168334766938e-02  1.8502550977292185e+00 2.3182438136450294e+00 -2.2439475305095630e-02  1.8458441777230652e+00 2.3516096669732516e+00 2.1140040435698702e-02  1.8515391250450657e+00 2.3232930306683035e+00 -2.0825834461969797e-02  1.8467292511821169e+00 2.3530030948734217e+00 1.9859331978872879e-02  1.8525673463053869e+00 2.3230162472371827e+00 -1.9660288083582809e-02  1.8478373856134709e+00 2.3548298925098328e+00 1.8876543298083616e-02  1.8528024298190950e+00 2.3257874244067285e+00 -1.8623900089738361e-02  1.8485184853652250e+00 2.3515950013039206e+00 1.8011123648313712e-02  1.8534168273436693e+00 2.3298846463071672e+00 -1.7873307799858410e-02  1.8484306912328994e+00 2.3510595053584766e+00 1.7460199968077725e-02  1.8538188613204136e+00 2.3287458924118596e+00 -1.7532778827629745e-02  1.8488124538559743e+00 2.3517362934921868e+00 1.7448788155697847e-02  1.8536861672950604e+00 2.3304637855539796e+00 -1.7741739618418257e-02  1.8485588531171544e+00 2.3484377325263113e+00 1.7863715762384089e-02  1.8543941868320963e+00 2.3316571369746963e+00 -1.8174627453117272e-02  1.8478943082678008e