<?xml version="1.0"?>
<VTKFile type="UnstructuredGrid"  version="0.1"  >
<UnstructuredGrid>
<Piece  NumberOfPoints="8241" NumberOfCells="16000">
<Points>
<DataArray  type="Float64"  NumberOfComponents="3"  format="ascii">-5 -1 0  -4.95 -1 0  -4.9 -1 0  -4.85 -1 0  -4.8 -1 0  -4.75 -1 0  -4.7 -1 0  -4.65 -1 0  -4.6 -1 0  -4.55 -1 0  -4.5 -1 0  -4.45 -1 0  -4.4 -1 0  -4.35 -1 0  -4.3 -1 0  -4.25 -1 0  -4.2 -1 0  -4.15 -1 0  -4.1 -1 0  -4.05 -1 0  -4 -1 0  -3.95 -1 0  -3.9 -1 0  -3.85 -1 0  -3.8 -1 0  -3.75 -1 0  -3.7 -1 0  -3.65 -1 0  -3.6 -1 0  -3.55 -1 0  -3.5 -1 0  -3.45 -1 0  -3.4 -1 0  -3.35 -1 0  -3.3 -1 0  -3.25 -1 0  -3.2 -1 0  -3.15 -1 0  -3.1 -1 0  -3.05 -1 0  -3 -1 0  -2.95 -1 0  -2.9 -1 0  -2.85 -1 0  -2.8 -1 0  -2.75 -1 0  -2.7 -1 0  -2.65 -1 0  -2.6 -1 0  -2.55 -1 0  -2.5 -1 0  -2.45 -1 0  -2.4 -1 0  -2.35 -1 0  -2.3 -1 0  -2.25 -1 0  -2.2 -1 0  -2.15 -1 0  -2.1 -1 0  -2.05 -1 0  -2 -1 0  -1.95 -1 0  -1.9 -1 0  -1.85 -1 0  -1.8 -1 0  -1.75 -1 0  -1.7 -1 0  -1.65 -1 0  -1.6 -1 0  -1.55 -1 0  -1.5 -1 0  -1.45 -1 0  -1.4 -1 0  -1.35 -1 0  -1.3 -1 0  -1.25 -1 0  -1.2 -1 0  -1.15 -1 0  -1.1 -1 0  -1.05 -1 0  -1 -1 0  -0.9500000000000002 -1 0  -0.9000000000000004 -1 0  -0.8499999999999996 -1 0  -0.7999999999999998 -1 0  -0.75 -1 0  -0.7000000000000002 -1 0  -0.6500000000000004 -1 0  -0.5999999999999996 -1 0  -0.5499999999999998 -1 0  -0.5 -1 0  -0.4500000000000002 -1 0  -0.4000000000000004 -1 0  -0.3499999999999996 -1 0  -0.2999999999999998 -1 0  -0.25 -1 0  -0.2000000000000002 -1 0  -0.1500000000000004 -1 0  -0.09999999999999964 -1 0  -0.04999999999999982 -1 0  0 -1 0  0.04999999999999982 -1 0  0.09999999999999964 -1 0  0.1500000000000004 -1 0  0.2000000000000002 -1 0  0.25 -1 0  0.2999999999999998 -1 0  0.3499999999999996 -1 0  0.4000000000000004 -1 0  0.4500000000000002 -1 0  0.5 -1 0  0.5499999999999998 -1 0  0.5999999999999996 -1 0  0.6500000000000004 -1 0  0.7000000000000002 -1 0  0.75 -1 0  0.7999999999999998 -1 0  0.8499999999999996 -1 0  0.9000000000000004 -1 0  0.9500000000000002 -1 0  1 -1 0  1.05 -1 0  1.1 -1 0  1.15 -1 0  1.2 -1 0  1.25 -1 0  1.3 -1 0  1.35 -1 0  1.4 -1 0  1.45 -1 0  1.5 -1 0  1.55 -1 0  1.6 -1 0  1.65 -1 0  1.7 -1 0  1.75 -1 0  1.8 -1 0  1.85 -1 0  1.9 -1 0  1.95 -1 0  2 -1 0  2.05 -1 0  2.1 -1 0  2.15 -1 0  2.2 -1 0  2.25 -1 0  2.3 -1 0  2.35 -1 0  2.4 -1 0  2.45 -1 0  2.5 -1 0  2.55 -1 0  2.6 -1 0  2.65 -1 0  2.7 -1 0  2.75 -1 0  2.8 -1 0  2.85 -1 0  2.9 -1 0  2.95 -1 0  3 -1 0  3.050000000000001 -1 0  3.1 -1 0  3.15 -1 0  3.199999999999999 -1 0  3.25 -1 0  3.300000000000001 -1 0  3.35 -1 0  3.4 -1 0  3.449999999999999 -1 0  3.5 -1 0  3.550000000000001 -1 0  3.6 -1 0  3.65 -1 0  3.699999999999999 -1 0  3.75 -1 0  3.800000000000001 -1 0  3.85 -1 0  3.9 -1 0  3.949999999999999 -1 0  4 -1 0  4.050000000000001 -1 0  4.1 -1 0  4.15 -1 0  4.199999999999999 -1 0  4.25 -1 0  4.300000000000001 -1 0  4.35 -1 0  4.4 -1 0  4.449999999999999 -1 0  4.5 -1 0  4.550000000000001 -1 0  4.6 -1 0  4.65 -1 0  4.699999999999999 -1 0  4.75 -1 0  4.800000000000001 -1 0  4.85 -1 0  4.9 -1 0  4.949999999999999 -1 0  5 -1 0  -5 -0.95 0  -4.95 -0.95 0  -4.9 -0.95 0  -4.85 -0.95 0  -4.8 -0.95 0  -4.75 -0.95 0  -4.7 -0.95 0  -4.65 -0.95 0  -4.6 -0.95 0  -4.55 -0.95 0  -4.5 -0.95 0  -4.45 -0.95 0  -4.4 -0.95 0  -4.35 -0.95 0  -4.3 -0.95 0  -4.25 -0.95 0  -4.2 -0.95 0  -4.15 -0.95 0  -4.1 -0.95 0  -4.05 -0.95 0  -4 -0.95 0  -3.95 -0.95 0  -3.9 -0.95 0  -3.85 -0.95 0  -3.8 -0.95 0  -3.75 -0.95 0  -3.7 -0.95 0  -3.65 -0.95 0  -3.6 -0.95 0  -3.55 -0.95 0  -3.5 -0.95 0  -3.45 -0.95 0  -3.4 -0.95 0  -3.35 -0.95 0  -3.3 -0.95 0  -3.25 -0.95 0  -3.2 -0.95 0  -3.15 -0.95 0  -3.1 -0.95 0  -3.05 -0.95 0  -3 -0.95 0  -2.95 -0.95 0  -2.9 -0.95 0  -2.85 -0.95 0  -2.8 -0.95 0  -2.75 -0.95 0  -2.7 -0.95 0  -2.65 -0.95 0  -2.6 -0.95 0  -2.55 -0.95 0  -2.5 -0.95 0  -2.45 -0.95 0  -2.4 -0.95 0  -2.35 -0.95 0  -2.3 -0.95 0  -2.25 -0.95 0  -2.2 -0.95 0  -2.15 -0.95 0  -2.1 -0.95 0  -2.05 -0.95 0  -2 -0.95 0  -1.95 -0.95 0  -1.9 -0.95 0  -1.85 -0.95 0  -1.8 -0.95 0  -1.75 -0.95 0  -1.7 -0.95 0  -1.65 -0.95 0  -1.6 -0.95 0  -1.55 -0.95 0  -1.5 -0.95 0  -1.45 -0.95 0  -1.4 -0.95 0  -1.35 -0.95 0  -1.3 -0.95 0  -1.25 -0.95 0  -1.2 -0.95 0  -1.15 -0.95 0  -1.1 -0.95 0  -1.05 -0.95 0  -1 -0.95 0  -0.9500000000000002 -0.95 0  -0.9000000000000004 -0.95 0  -0.8499999999999996 -0.95 0  -0.7999999999999998 -0.95 0  -0.75 -0.95 0  -0.7000000000000002 -0.95 0  -0.6500000000000004 -0.95 0  -0.5999999999999996 -0.95 0  -0.5499999999999998 -0.95 0  -0.5 -0.95 0  -0.4500000000000002 -0.95 0  -0.4000000000000004 -0.95 0  -0.3499999999999996 -0.95 0  -0.2999999999999998 -0.95 0  -0.25 -0.95 0  -0.2000000000000002 -0.95 0  -0.1500000000000004 -0.95 0  -0.09999999999999964 -0.95 0  -0.04999999999999982 -0.95 0  0 -0.95 0  0.04999999999999982 -0.95 0  0.09999999999999964 -0.95 0  0.1500000000000004 -0.95 0  0.2000000000000002 -0.95 0  0.25 -0.95 0  0.2999999999999998 -0.95 0  0.3499999999999996 -0.95 0  0.4000000000000004 -0.95 0  0.4500000000000002 -0.95 0  0.5 -0.95 0  0.5499999999999998 -0.95 0  0.5999999999999996 -0.95 0  0.6500000000000004 -0.95 0  0.7000000000000002 -0.95 0  0.75 -0.95 0  0.7999999999999998 -0.95 0  0.8499999999999996 -0.95 0  0.9000000000000004 -0.95 0  0.9500000000000002 -0.95 0  1 -0.95 0  1.05 -0.95 0  1.1 -0.95 0  1.15 -0.95 0  1.2 -0.95 0  1.25 -0.95 0  1.3 -0.95 0  1.35 -0.95 0  1.4 -0.95 0  1.45 -0.95 0  1.5 -0.95 0  1.55 -0.95 0  1.6 -0.95 0  1.65 -0.95 0  1.7 -0.95 0  1.75 -0.95 0  1.8 -0.95 0  1.85 -0.95 0  1.9 -0.95 0  1.95 -0.95 0  2 -0.95 0  2.05 -0.95 0  2.1 -0.95 0  2.15 -0.95 0  2.2 -0.95 0  2.25 -0.95 0  2.3 -0.95 0  2.35 -0.95 0  2.4 -0.95 0  2.45 -0.95 0  2.5 -0.95 0  2.55 -0.95 0  2.6 -0.95 0  2.65 -0.95 0  2.7 -0.95 0  2.75 -0.95 0  2.8 -0.95 0  2.85 -0.95 0  2.9 -0.95 0  2.95 -0.95 0  3 -0.95 0  3.050000000000001 -0.95 0  3.1 -0.95 0  3.15 -0.95 0  3.199999999999999 -0.95 0  3.25 -0.95 0  3.300000000000001 -0.95 0  3.35 -0.95 0  3.4 -0.95 0  3.449999999999999 -0.95 0  3.5 -0.95 0  3.550000000000001 -0.95 0  3.6 -0.95 0  3.65 -0.95 0  3.699999999999999 -0.95 0  3.75 -0.95 0  3.800000000000001 -0.95 0  3.85 -0.95 0  3.9 -0.95 0  3.949999999999999 -0.95 0  4 -0.95 0  4.050000000000001 -0.95 0  4.1 -0.95 0  4.15 -0.95 0  4.199999999999999 -0.95 0  4.25 -0.95 0  4.300000000000001 -0.95 0  4.35 -0.95 0  4.4 -0.95 0  4.449999999999999 -0.95 0  4.5 -0.95 0  4.550000000000001 -0.95 0  4.6 -0.95 0  4.65 -0.95 0  4.699999999999999 -0.95 0  4.75 -0.95 0  4.800000000000001 -0.95 0  4.85 -0.95 0  4.9 -0.95 0  4.949999999999999 -0.95 0  5 -0.95 0  -5 -0.9 0  -4.95 -0.9 0  -4.9 -0.9 0  -4.85 -0.9 0  -4.8 -0.9 0  -4.75 -0.9 0  -4.7 -0.9 0  -4.65 -0.9 0  -4.6 -0.9 0  -4.55 -0.9 0  -4.5 -0.9 0  -4.45 -0.9 0  -4.4 -0.9 0  -4.35 -0.9 0  -4.3 -0.9 0  -4.25 -0.9 0  -4.2 -0.9 0  -4.15 -0.9 0  -4.1 -0.9 0  -4.05 -0.9 0  -4 -0.9 0  -3.95 -0.9 0  -3.9 -0.9 0  -3.85 -0.9 0  -3.8 -0.9 0  -3.75 -0.9 0  -3.7 -0.9 0  -3.65 -0.9 0  -3.6 -0.9 0  -3.55 -0.9 0  -3.5 -0.9 0  -3.45 -0.9 0  -3.4 -0.9 0  -3.35 -0.9 0  -3.3 -0.9 0  -3.25 -0.9 0  -3.2 -0.9 0  -3.15 -0.9 0  -3.1 -0.9 0  -3.05 -0.9 0  -3 -0.9 0  -2.95 -0.9 0  -2.9 -0.9 0  -2.85 -0.9 0  -2.8 -0.9 0  -2.75 -0.9 0  -2.7 -0.9 0  -2.65 -0.9 0  -2.6 -0.9 0  -2.55 -0.9 0  -2.5 -0.9 0  -2.45 -0.9 0  -2.4 -0.9 0  -2.35 -0.9 0  -2.3 -0.9 0  -2.25 -0.9 0  -2.2 -0.9 0  -2.15 -0.9 0  -2.1 -0.9 0  -2.05 -0.9 0  -2 -0.9 0  -1.95 -0.9 0  -1.9 -0.9 0  -1.85 -0.9 0  -1.8 -0.9 0  -1.75 -0.9 0  -1.7 -0.9 0  -1.65 -0.9 0  -1.6 -0.9 0  -1.55 -0.9 0  -1.5 -0.9 0  -1.45 -0.9 0  -1.4 -0.9 0  -1.35 -0.9 0  -1.3 -0.9 0  -1.25 -0.9 0  -1.2 -0.9 0  -1.15 -0.9 0  -1.1 -0.9 0  -1.05 -0.9 0  -1 -0.9 0  -0.9500000000000002 -0.9 0  -0.9000000000000004 -0.9 0  -0.8499999999999996 -0.9 0  -0.7999999999999998 -0.9 0  -0.75 -0.9 0  -0.7000000000000002 -0.9 0  -0.6500000000000004 -0.9 0  -0.5999999999999996 -0.9 0  -0.5499999999999998 -0.9 0  -0.5 -0.9 0  -0.4500000000000002 -0.9 0  -0.4000000000000004 -0.9 0  -0.3499999999999996 -0.9 0  -0.2999999999999998 -0.9 0  -0.25 -0.9 0  -0.2000000000000002 -0.9 0  -0.1500000000000004 -0.9 0  -0.09999999999999964 -0.9 0  -0.04999999999999982 -0.9 0  0 -0.9 0  0.04999999999999982 -0.9 0  0.09999999999999964 -0.9 0  0.1500000000000004 -0.9 0  0.2000000000000002 -0.9 0  0.25 -0.9 0  0.2999999999999998 -0.9 0  0.3499999999999996 -0.9 0  0.4000000000000004 -0.9 0  0.4500000000000002 -0.9 0  0.5 -0.9 0  0.5499999999999998 -0.9 0  0.5999999999999996 -0.9 0  0.6500000000000004 -0.9 0  0.7000000000000002 -0.9 0  0.75 -0.9 0  0.7999999999999998 -0.9 0  0.8499999999999996 -0.9 0  0.9000000000000004 -0.9 0  0.9500000000000002 -0.9 0  1 -0.9 0  1.05 -0.9 0  1.1 -0.9 0  1.15 -0.9 0  1.2 -0.9 0  1.25 -0.9 0  1.3 -0.9 0  1.35 -0.9 0  1.4 -0.9 0  1.45 -0.9 0  1.5 -0.9 0  1.55 -0.9 0  1.6 -0.9 0  1.65 -0.9 0  1.7 -0.9 0  1.75 -0.9 0  1.8 -0.9 0  1.85 -0.9 0  1.9 -0.9 0  1.95 -0.9 0  2 -0.9 0  2.05 -0.9 0  2.1 -0.9 0  2.15 -0.9 0  2.2 -0.9 0  2.25 -0.9 0  2.3 -0.9 0  2.35 -0.9 0  2.4 -0.9 0  2.45 -0.9 0  2.5 -0.9 0  2.55 -0.9 0  2.6 -0.9 0  2.65 -0.9 0  2.7 -0.9 0  2.75 -0.9 0  2.8 -0.9 0  2.85 -0.9 0  2.9 -0.9 0  2.95 -0.9 0  3 -0.9 0  3.050000000000001 -0.9 0  3.1 -0.9 0  3.15 -0.9 0  3.199999999999999 -0.9 0  3.25 -0.9 0  3.300000000000001 -0.9 0  3.35 -0.9 0  3.4 -0.9 0  3.449999999999999 -0.9 0  3.5 -0.9 0  3.550000000000001 -0.9 0  3.6 -0.9 0  3.65 -0.9 0  3.699999999999999 -0.9 0  3.75 -0.9 0  3.800000000000001 -0.9 0  3.85 -0.9 0  3.9 -0.9 0  3.949999999999999 -0.9 0  4 -0.9 0  4.050000000000001 -0.9 0  4.1 -0.9 0  4.15 -0.9 0  4.199999999999999 -0.9 0  4.25 -0.9 0  4.300000000000001 -0.9 0  4.35 -0.9 0  4.4 -0.9 0  4.449999999999999 -0.9 0  4.5 -0.9 0  4.550000000000001 -0.9 0  4.6 -0.9 0  4.65 -0.9 0  4.699999999999999 -0.9 0  4.75 -0.9 0  4.800000000000001 -0.9 0  4.85 -0.9 0  4.9 -0.9 0  4.949999999999999 -0.9 0  5 -0.9 0  -5 -0.85 0  -4.95 -0.85 0  -4.9 -0.85 0  -4.85 -0.85 0  -4.8 -0.85 0  -4.75 -0.85 0  -4.7 -0.85 0  -4.65 -0.85 0  -4.6 -0.85 0  -4.55 -0.85 0  -4.5 -0.85 0  -
[...]
<PointData  Vectors="f_15"> 
<DataArray  type="Float64"  Name="f_15"  NumberOfComponents="3" format="ascii">2.0934973962212835e+00 0.0000000000000000e+00 0.0000000000000000e+00  2.0868048607572924e+00 5.0661584091344344e-02 0.0000000000000000e+00  2.0925679484808621e+00 9.8447129520590454e-02 0.0000000000000000e+00  2.0865822889192822e+00 1.4557166127258300e-01 0.0000000000000000e+00  2.0921959862420803e+00 1.9847847906258534e-01 0.0000000000000000e+00  2.0851703401253823e+00 2.4252973391491850e-01 0.0000000000000000e+00  2.0917931230964837e+00 2.9642525460148567e-01 0.0000000000000000e+00  2.0834607229602944e+00 3.4177158253191681e-01 0.0000000000000000e+00  2.0907515432484245e+00 3.9222032768359594e-01 0.0000000000000000e+00  2.0814988197442816e+00 4.4161783076584887e-01 0.0000000000000000e+00  2.0893559863013382e+00 4.8675923742799504e-01 0.0000000000000000e+00  2.0789077479436333e+00 5.4491286796915883e-01 0.0000000000000000e+00  2.0876352536748364e+00 5.7300597205211190e-01 0.0000000000000000e+00  2.0758886432496420e+00 6.5747343896422272e-01 0.0000000000000000e+00  2.0852865027268712e+00 6.5410589661193497e-01 0.0000000000000000e+00  2.0723919903564987e+00 7.6117556928300534e-01 0.0000000000000000e+00  2.0826503406213588e+00 7.5903851307129400e-01 0.0000000000000000e+00  2.0679481692928969e+00 8.2962177556067795e-01 0.0000000000000000e+00  2.0799096215177810e+00 8.9244863456922463e-01 0.0000000000000000e+00  2.0627127767245250e+00 8.8595094628068527e-01 0.0000000000000000e+00  2.0763202417666706e+00 1.0137938108420281e+00 0.0000000000000000e+00  2.0573288466642352e+00 9.6474919357829925e-01 0.0000000000000000e+00  2.0716433740169586e+00 1.1168379223752447e+00 0.0000000000000000e+00  2.0514238357649655e+00 1.0489719768183683e+00 0.0000000000000000e+00  2.0664069772615745e+00 1.2157548859262666e+00 0.0000000000000000e+00  2.0447162785853621e+00 1.1450023857104448e+00 0.0000000000000000e+00  2.0601693109662382e+00 1.2928136830023320e+00 0.0000000000000000e+00  2.0377734213030188e+00 1.2493770389659551e+00 0.0000000000000000e+00  2.0528301472657242e+00 1.3807137412034958e+00 0.0000000000000000e+00  2.0294817404541590e+00 1.3295827344181477e+00 0.0000000000000000e+00  2.0453043140568541e+00 1.4740729682516329e+00 0.0000000000000000e+00  2.0199154244482123e+00 1.4228461226036455e+00 0.0000000000000000e+00  2.0362677422259061e+00 1.5495485149398962e+00 0.0000000000000000e+00  2.0104065696186533e+00 1.5103302649377430e+00 0.0000000000000000e+00  2.0255415555708765e+00 1.6384578077084149e+00 0.0000000000000000e+00  1.9996807325078561e+00 1.5906545022644685e+00 0.0000000000000000e+00  2.0141949690284386e+00 1.7134744516065081e+00 0.0000000000000000e+00  1.9876940588690013e+00 1.6797882914932016e+00 0.0000000000000000e+00  2.0012315660242859e+00 1.7883761897456218e+00 0.0000000000000000e+00  1.9751746950281182e+00 1.7563289878183854e+00 0.0000000000000000e+00  1.9867835820771662e+00 1.8650797681580726e+00 0.0000000000000000e+00  1.9612549093756260e+00 1.8307806551149572e+00 0.0000000000000000e+00  1.9716749298710787e+00 1.9369629901177248e+00 0.0000000000000000e+00  1.9459935490386897e+00 1.9036227147031703e+00 0.0000000000000000e+00  1.9550512159575044e+00 2.0037495094265556e+00 0.0000000000000000e+00  1.9304648422306911e+00 1.9735171248057817e+00 0.0000000000000000e+00  1.9370094116585039e+00 2.0683473215712294e+00 0.0000000000000000e+00  1.9140492382488621e+00 2.0408769527076744e+00 0.0000000000000000e+00  1.9185908742240181e+00 2.1247053245183811e+00 0.0000000000000000e+00  1.8971030302442793e+00 2.1089664468756322e+00 0.0000000000000000e+00  1.8994059966397487e+00 2.1749549495586140e+00 0.0000000000000000e+00  1.8807733392350356e+00 2.1726459336109509e+00 0.0000000000000000e+00  1.8803908462832011e+00 2.2206326808905801e+00 0.0000000000000000e+00  1.8649414774242394e+00 2.2318790595907032e+00 0.0000000000000000e+00  1.8633796717892914e+00 2.2572557164214797e+00 0.0000000000000000e+00  1.8514321104243594e+00 2.2838856101973639e+00 0.0000000000000000e+00  1.8494454019152300e+00 2.2864366949573665e+00 0.0000000000000000e+00  1.8428109286865766e+00 2.3194015210408923e+00 0.0000000000000000e+00  1.8409825300532427e+00 2.3031972108608212e+00 0.0000000000000000e+00  1.8396553857869404e+00 2.3392532791669485e+00 0.0000000000000000e+00  1.8382238448422943e+00 2.3067752857316473e+00 0.0000000000000000e+00  1.8411273069615248e+00 2.3460718041001472e+00 0.0000000000000000e+00  1.8376831429090463e+00 2.3054535237113924e+00 0.0000000000000000e+00  1.8439945786748635e+00 2.3454858252296935e+00 0.0000000000000000e+00  1.8380792695913648e+00 2.3048479931061281e+00 0.0000000000000000e+00  1.8455634999971322e+00 2.3453320235611108e+00 0.0000000000000000e+00  1.8387585334233769e+00 2.3036160467998590e+00 0.0000000000000000e+00  1.8470356772436272e+00 2.3439903433882074e+00 0.0000000000000000e+00  1.8383153114960060e+00 2.3063055872256188e+00 0.0000000000000000e+00  1.8488101132693333e+00 2.3398027758756705e+00 0.0000000000000000e+00  1.8382993249501838e+00 2.3093296051811265e+00 0.0000000000000000e+00  1.8493374493111672e+00 2.3385648342389018e+00 0.0000000000000000e+00  1.8388937599325215e+00 2.3093394696943212e+00 0.0000000000000000e+00  1.8499019949273636e+00 2.3377615203169508e+00 0.0000000000000000e+00  1.8388344515857877e+00 2.3137194579530789e+00 0.0000000000000000e+00  1.8505704771667983e+00 2.3319023593119286e+00 0.0000000000000000e+00  1.8396478974335435e+00 2.3206173666151533e+00 0.0000000000000000e+00  1.8502537668110333e+00 2.3266589646354281e+00 0.0000000000000000e+00  1.8405308565183947e+00 2.3268270497392622e+00 0.0000000000000000e+00  1.8507264166735287e+00 2.3202463094476955e+00 0.0000000000000000e+00  1.8406805492119711e+00 2.3367543176661307e+00 0.0000000000000000e+00  1.8510475222079925e+00 2.3105477095299878e+00 0.0000000000000000e+00  1.8418433746621510e+00 2.3463032472824983e+00 0.0000000000000000e+00  1.8505515817106692e+00 2.3051852518964799e+00 0.0000000000000000e+00  1.8426102963907633e+00 2.3511938217745088e+00 0.0000000000000000e+00  1.8511624615109794e+00 2.3020156370277736e+00 0.0000000000000000e+00  1.8426708850205398e+00 2.3565127389692360e+00 0.0000000000000000e+00  1.8516056246561208e+00 2.2975355571096174e+00 0.0000000000000000e+00  1.8432002215525771e+00 2.3611662740039754e+00 0.0000000000000000e+00  1.8517999242215104e+00 2.2969702092198818e+00 0.0000000000000000e+00  1.8432585960449908e+00 2.3610958967568489e+00 0.0000000000000000e+00  1.8526003517634515e+00 2.2984975095275479e+00 0.0000000000000000e+00  1.8432686128041027e+00 2.3620766315012669e+00 0.0000000000000000e+00  1.8527750880117861e+00 2.2975603491844705e+00 0.0000000000000000e+00  1.8434696225793528e+00 2.3642617968880257e+00 0.0000000000000000e+00  1.8532749752071083e+00 2.2982296018729271e+00 0.0000000000000000e+00  1.8431870081596922e+00 2.3629126390063964e+00 0.0000000000000000e+00  1.8536482607832292e+00 2.3005328351163472e+00 0.0000000000000000e+00  1.8436331027730781e+00 2.3630176873337692e+00 0.0000000000000000e+00  1.8529155665566255e+00 2.3000224713722068e+00 0.0000000000000000e+00  1.8444391022818090e+00 2.3636720085408567e+00 0.0000000000000000e+00  1.8527915848544443e+00 2.3017731232196339e+00 0.0000000000000000e+00  1.8443799411881272e+00 2.3602074961106858e+00 0.0000000000000000e+00  1.8525040738239398e+00 2.3062263206619495e+00 0.0000000000000000e+00  1.8454329617580474e+00 2.3565989155177838e+00 0.0000000000000000e+00  1.8509936194306835e+00 2.3091736595343759e+00 0.0000000000000000e+00  1.8467625124662215e+00 2.3524956115267273e+00 0.0000000000000000e+00  1.8502777328612197e+00 2.3152120896335551e+00 0.0000000000000000e+00  1.8467950859319131e+00 2.3449400645144411e+00 0.0000000000000000e+00  1.8501708460630770e+00 2.3216308350388029e+00 0.0000000000000000e+00  1.8474853910016957e+00 2.3400542806838547e+00 0.0000000000000000e+00  1.8487693684697597e+00 2.3246499856801957e+00 0.0000000000000000e+00  1.8486219670249537e+00 2.3367197679955094e+00 0.0000000000000000e+00  1.8483833528321327e+00 2.3283589217536171e+00 0.0000000000000000e+00  1.8481182811482977e+00 2.3322720947875824e+00 0.0000000000000000e+00  1.8489279035705737e+00 2.3308894433977430e+00 0.0000000000000000e+00  1.8479833783810238e+00 2.3320449197559321e+00 0.0000000000000000e+00  1.8482647081693755e+00 2.3289443695084047e+00 0.0000000000000000e+00  1.8488110287068937e+00 2.3328807082953666e+00 0.0000000000000000e+00  1.8479495154582151e+00 2.3297172185649129e+00 0.0000000000000000e+00  1.8480809271535825e+00 2.3306779255363126e+00 0.0000000000000000e+00  1.8489025704302018e+00 2.3308203461864458e+00 0.0000000000000000e+00  1.8478228006596633e+00 2.3308561322331025e+00 0.0000000000000000e+00  1.8482415609038931e+00 2.3289868057794547e+00 0.0000000000000000e+00  1.8483531136036255e+00 2.3321507754998474e+00 0.0000000000000000e+00  1.8485601055456347e+00 2.3291207118742547e+00 0.0000000000000000e+00  1.8473013407711325e+00 2.3291186181680494e+00 0.0000000000000000e+00  1.8494719124513999e+00 2.3319205694282585e+00 0.0000000000000000e+00  1.8470683729204236e+00 2.3278366351560580e+00 0.0000000000000000e+00  1.8490219177437628e+00 2.3303374645172021e+00 0.0000000000000000e+00  1.8475076900099352e+00 2.3282898439223767e+00 0.0000000000000000e+00  1.8493394194035522e+00 2.3322519296088435e+00 0.0000000000000000e+00  1.8464535146006911e+00 2.3230681658488641e+00 0.0000000000000000e+00  1.8499403248059330e+00 2.3375569293199785e+00 0.0000000000000000e+00  1.8474340813841663e+00 2.3189616773601234e+00 0.0000000000000000e+00  1.8479628216006150e+00 2.3383998081225301e+00 0.0000000000000000e+00  1.8486205285816439e+00 2.3203006196683451e+00 0.0000000000000000e+00  1.8485514303347657e+00 2.3366090663757264e+00 0.0000000000000000e+00  1.8477862426299905e+00 2.3193088014869532e+00 0.0000000000000000e+00  1.8480348404024862e+00 2.3391866828523766e+00 0.0000000000000000e+00  1.8501899387941119e+00 2.3174853921707315e+00 0.0000000000000000e+00  1.8463325041295944e+00 2.3351189790192795e+00 0.0000000000000000e+00  1.8508747894149280e+00 2.3226636903167566e+00 0.0000000000000000e+00  1.8479604019752471e+00 2.3299892437133991e+00 0.0000000000000000e+00  1.8507552459421077e+00 2.3194372511095320e+00 0.0000000000000000e+00  1.8490192235214533e+00 2.3312795624440392e+00 0.0000000000000000e+00  1.8528982600903663e+00 2.3151339399739501e+00 0.0000000000000000e+00  1.8501326898495551e+00 2.3241288132374307e+00 0.0000000000000000e+00  1.8551403241782078e+00 2.3130721480703480e+00 0.0000000000000000e+00  1.8536597777371937e+00 2.3158671118612402e+00 0.0000000000000000e+00  1.8564685807758963e+00 2.3022506045203848e+00 0.0000000000000000e+00  1.8582219149761237e+00 2.3071662300605817e+00 0.0000000000000000e+00  1.8597820435963954e+00 2.2907029592983275e+00 0.0000000000000000e+00  1.8604777017623404e+00 2.2927041757954303e+00 0.0000000000000000e+00  1.8639400164575315e+00 2.2809428603593851e+00 0.0000000000000000e+00  1.8640353349451473e+00 2.2803764748281337e+00 0.0000000000000000e+00  1.8647709940461397e+00 2.2714063728719713e+00 0.0000000000000000e+00  1.8677219640440343e+00 2.2725789157211174e+00 0.0000000000000000e+00  1.8671982798997193e+00 2.2675606569199056e+00 0.0000000000000000e+00  1.8676210687785773e+00 2.2658682114506576e+00 0.0000000000000000e+00  1.8716043042863462e+00 2.2662526247932839e+00 0.0000000000000000e+00  1.8685212041205317e+00 2.2645675393024085e+00 0.0000000000000000e+00  1.8763377538235542e+00 2.2585838047664231e+00 0.0000000000000000e+00  1.8721473973834100e+00 2.2614137247746946e+00 0.0000000000000000e+00  1.8859031047025645e+00 2.2501433816166529e+00 0.0000000000000000e+00  1.8778932022417405e+00 2.2489275928322097e+00 0.0000000000000000e+00  1.8997559846426713e+00 2.2365055541713352e+00 0.0000000000000000e+00  1.8841087896139599e+00 2.2478767962152761e+00 0.0000000000000000e+00  1.9061030137030324e+00 2.2297559958297639e+00 0.0000000000000000e+00  1.8798622489806167e+00 2.2677325439414600e+00 0.0000000000000000e+00  1.8935999923195959e+00 2.2610418960231002e+00 0.0000000000000000e+00  1.8575448171966573e+00 2.3067630117325786e+00 0.0000000000000000e+00  1.8711807569380465e+00 2.2997317809964546e+00 0.0000000000000000e+00  1.8384727106791490e+00 2.3428403970255891e+00 0.0000000000000000e+00  1.8575835640825320e+00 2.3098268243431770e+00 0.0000000000000000e+00  1.8385983569820170e+00 2.3472103629935726e+00 0.0000000000000000e+00  1.8527327228791513e+00 2.3112672721132319e+00 0.0000000000000000e+00  1.8396433256007276e+00 2.3457560313228463e+00 0.0000000000000000e+00  1.8429206707644297e+00 2.3152413032077517e+00 0.0000000000000000e+00  1.8275914534668716e+00 2.3902444424829636e+00 0.0000000000000000e+00  2.2042465661755766e+00 1.4933517369801859e+00 0.0000000000000000e+00  2.7541928388276764e+00 3.6628452991013410e-01 0.0000000000000000e+00  2.9597607036298408e+00 5.3220088397895812e-03 0.0000000000000000e+00  2.9663210431056157e+00 1.6124791899679654e-03 0.0000000000000000e+00  2.9681994203040380e+00 -3.7061333482782031e-02 0.0000000000000000e+00  2.9725530108432361e+00 -9.2910762346518870e-03 0.0000000000000000e+00  2.9727005120818077e+00 -4.4072117257274716e-02 0.0000000000000000e+00  2.9737045164570080e+00 -4.7411954909465657e-03 0.0000000000000000e+00  2.9762008645536309e+00 -3.8911497802729414e-02 0.0000000000000000e+00  2.9727822535828730e+00 -5.2920154249806893e-03 0.0000000000000000e+00  2.9772435462694293e+00 -3.0788634634726895e-02 0.0000000000000000e+00  2.9738617488613577e+00 -1.8037566451391627e-02 0.0000000000000000e+00  2.9768067677965537e+00 -5.3531693581262509e-02 0.0000000000000000e+00  2.9751099174222682e+00 -5.6225747797442736e-02 0.0000000000000000e+00  2.9786062324653271e+00 -7.9297546482936299e-02 0.0000000000000000e+00  2.9728774183015463e+00 -7.3315586848230377e-02 0.0000000000000000e+00  2.9803226892920849e+00 -7.3060031356961583e-02 0.0000000000000000e+00  2.9720045086788041e+00 -5.0526547302671927e-02 0.0000000000000000e+00  2.9802251623520517e+00 -6.0258566157556953e-02 0.0000000000000000e+00  2.9703078666660243e+00 -3.0161497411161621e-02 0.0000000000000000e+00  2.9809571505755743e+00 0.0000000000000000e+00 0.0000000000000000e+00  2.0905943301086256e+00 0.0000000000000000e+00 2.9813762894471589e-03  2.0887787617838667e+00 4.7019774111701239e-02 -4.0341276290412637e-03  2.0903793582184136e+00 1.0045117734151318e-01 5.7211696663982533e-03  2.0891611562396473e+00 1.4504646793573794e-01 -5.5803072822153271e-03  2.0893139987795393e+00 1.9963500249340860e-01 5.7881726194576348e-03  2.0888344957023537e+00 2.4260221013762279e-01 -6.2962659039410979e-03  2.0881886606969320e+00 2.9945785428561861e-01 6.9955964983256253e-03  2.0875979428078972e+00 3.3890104076756483e-01 -7.7822675108889620e-03  2.0868009842371271e+00 3.9872530104038967e-01 8.9075039967205887e-03  2.0860013538498827e+00 4.3545321298637274e-01 -9.9349324959379804e-03  2.0846983965692614e+00 4.9804566416900586e-01 1.1366640792015352e-02  2.0841506422358580e+00 5.2887135808378849e-01 -1.3015262089701315e-02  2.0820776141352053e+00 6.0092910144790102e-01 1.5907391930614238e-02  2.0818071268446365e+00 6.2011147358778373e-01 -2.0523669622856195e-02  2.0788378034592192e+00 7.0000075430681896e-01 2.7825486009398281e-02  2.0792891114050724e+00 7.1932866754571934e-01 -3.6837006853464624e-02  2.0746611371576908e+00 7.8970975217816752e-01 4.5733805610149190e-02  2.0764206398655936e+00 8.2089904457918428e-01 -5.0716249633619176e-02  2.0702991667645363e+00 8.8527962261417414e-01 5.0264691454047668e-02  2.0721393499030332e+00 9.0964145400804786e-01 -4.2193822444021402e-02  2.0665153607104139e+00 9.8742863855096319e-01 3.0489233798254148e-02  2.0663826340668825e+00 1.0026038754431768e+00 -1.6920986722541664e-02  2.0624862594844071e+00 1.0717157486789506e+00 4.6411836199098744e-03  2.0602415363460489e+00 1.1105638663083190e+00 4.9070577619905690e-03  2.0573626508168541e+00 1.1531807663231346e+00 -1.1038825138715996e-02  2.0538253349116409e+00 1.2036413536739889e+00 1.1667543897724732e-02  2.0511958031222828e+00 1.2488245767640533e+00 -7.5868574117106367e-03  2.0471358339455326e+00 1.2925331801512494e+00 1.0173369136646886e-03  2.0434524705600010e+00 1.3351054153583950e+00 3.5943189088633873e-03  2.0403040877536625e+00 1.3834921756584442e+00 -4.6311499524748301e-03  2.0346525832932900e+00 1.4290089485667612e+00 4.4235404652354354e-03  2.0320285812344268e+00 1.4607147854452178e+00 -5.6759857098227472e-03  2.0257821159861304e+00 1.5195359096169343e+00 8.4084464087722487e-03  2.0223261095834459e+00 1.5500767894328413e+00 -9.9439616843296479e-03  2.0155937574461209e+00 1.5993452145795906e+00 9.9236117107210763e-03  2.0122340038741053e+00 1.6306172693249394e+00 -1.0056865270044216e-02  2.0039473825482901e+00 1.6887649930201680e+00 1.1828756872824541e-02  2.0008849842612042e+00 1.7072765599609450e+00 -1.4011788212863106e-02  1.9916928995271255e+00 1.7670484688724331e+00 1.4953700268679997e-02  1.9882116576047912e+00 1.7884882994476903e+00 -1.5299187346589348e-02  1.9778884835087367e+00 1.8436665710668902e+00 1.7037526763301898e-02  1.9751510112198669e+00 1.8618920447766918e+00 -1.9478716124783878e-02  1.9624898874838690e+00 1.9218540557046653e+00 2.2276967590742214e-02  1.9608492268939151e+00 1.9298676578640201e+00 -2.4112097975368993e-02  1.9465566325334385e+00 1.9965637700358749e+00 2.6975699671366298e-02  1.9452905804455227e+00 1.9968433346852725e+00 -2.9430629637566378e-02  1.9294205049565705e+00 2.0679154831942159e+00 3.2367921836925731e-02  1.9293778534397916e+00 2.0572924174254474e+00 -3.3757224543766576e-02  1.9114266676713219e+00 2.1383878306924604e+00 3.5879481017327984e-02  1.9125200653157040e+00 2.1154371952898896e+00 -3.6752101878164752e-02  1.8937563593405415e+00 2.2019325639404856e+00 3.8403578063173564e-02  1.8953291227185864e+00 2.1713635839072114e+00 -3.8224492454076768e-02  1.8762805045673663e+00 2.2590956605298333e+00 3.8612967964094455e-02  1.8793469430471641e+00 2.2218801240722179e+00 -3.7856061371953194e-02  1.8604832663145388e+00 2.3089874631210505e+00 3.7700359832173042e-02  1.8651304060106819e+00 2.2654354150353262e+00 -3.6662499491065439e-02  1.8486861197482443e+00 2.3439117354929135e+00 3.5217758912324995e-02  1.8550171187070172e+00 2.2991221723708781e+00 -3.3878571061214308e-02  1.8420663870281169e+00 2.3644254137575142e+00 3.2289286280980121e-02  1.8508514232635800e+00 2.3159443198213991e+00 -3.1170632585158568e-02  1.8413562714646052e+00 2.3696545696203386e+00 2.9166043695183018e-02  1.8506097639985613e+00 2.3220600680193169e+00 -2.8140372872313985e-02  1.8435827246064080e+00 2.3658320012871434e+00 2.6463034836927704e-02  1.8519524848418467e+00 2.3245547422505082e+00 -2.5713843725958859e-02  1.8449090482052397e+00 2.3628658427518707e+00 2.4156363201686220e-02  1.8532764728219764e+00 2.3244009270656529e+00 -2.3611266546107058e-02  1.8461603986615809e+00 2.3606226173199989e+00 2.2360762825267409e-02  1.8531867143820389e+00 2.3267757144397634e+00 -2.1720032716507111e-02  1.8476371193163150e+00 2.3564798159581071e+00 2.0500873268957380e-02  1.8530880970222752e+00 2.3288796868158732e+00 -1.9833822969811309e-02  1.8478390003732559e+00 2.3553958499268104e+00 1.8727970585624067e-02  1.8533492005767129e+00 2.3279179546117530e+00 -1.7998212822273995e-02  1.8482452909524321e+00 2.3547080993744789e+00 1.6992109033987943e-02  1.8526937888209902e+00 2.3298168858659003e+00 -1.6184902947080786e-02  1.8490086880448875e+00 2.3496411653649329e+00 1.5035277562900493e-02  1.8524243607577571e+00 2.3328177436042106e+00 -1.4138238133932198e-02  1.8487723944059173e+00 2.3469760244675233e+00 1.3150718776246899e-02  1.8522106515772077e+00 2.3328152540406375e+00 -1.2548323573931798e-02  1.8491735218512242e+00 2.3449273871045642e+00 1.2038575612286830e-02  1.8512927057394637e+00 2.3341923469591181e+00 -1.1917045473738758e-02  1.8492467807082196e+00 2.3413200310559938e+00 1.1844311783597621e-02  1.8514206028011211e+00 2.3342599535139037e+00 -1.2063337249204404e-02  1.8482687788649435e+00 2.3