<?xml version="1.0"?>
<VTKFile type="UnstructuredGrid"  version="0.1"  >
<UnstructuredGrid>
<Piece  NumberOfPoints="8241" NumberOfCells="16000">
<Points>
<DataArray  type="Float64"  NumberOfComponents="3"  format="ascii">-5 -1 0  -4.95 -1 0  -4.9 -1 0  -4.85 -1 0  -4.8 -1 0  -4.75 -1 0  -4.7 -1 0  -4.65 -1 0  -4.6 -1 0  -4.55 -1 0  -4.5 -1 0  -4.45 -1 0  -4.4 -1 0  -4.35 -1 0  -4.3 -1 0  -4.25 -1 0  -4.2 -1 0  -4.15 -1 0  -4.1 -1 0  -4.05 -1 0  -4 -1 0  -3.95 -1 0  -3.9 -1 0  -3.85 -1 0  -3.8 -1 0  -3.75 -1 0  -3.7 -1 0  -3.65 -1 0  -3.6 -1 0  -3.55 -1 0  -3.5 -1 0  -3.45 -1 0  -3.4 -1 0  -3.35 -1 0  -3.3 -1 0  -3.25 -1 0  -3.2 -1 0  -3.15 -1 0  -3.1 -1 0  -3.05 -1 0  -3 -1 0  -2.95 -1 0  -2.9 -1 0  -2.85 -1 0  -2.8 -1 0  -2.75 -1 0  -2.7 -1 0  -2.65 -1 0  -2.6 -1 0  -2.55 -1 0  -2.5 -1 0  -2.45 -1 0  -2.4 -1 0  -2.35 -1 0  -2.3 -1 0  -2.25 -1 0  -2.2 -1 0  -2.15 -1 0  -2.1 -1 0  -2.05 -1 0  -2 -1 0  -1.95 -1 0  -1.9 -1 0  -1.85 -1 0  -1.8 -1 0  -1.75 -1 0  -1.7 -1 0  -1.65 -1 0  -1.6 -1 0  -1.55 -1 0  -1.5 -1 0  -1.45 -1 0  -1.4 -1 0  -1.35 -1 0  -1.3 -1 0  -1.25 -1 0  -1.2 -1 0  -1.15 -1 0  -1.1 -1 0  -1.05 -1 0  -1 -1 0  -0.9500000000000002 -1 0  -0.9000000000000004 -1 0  -0.8499999999999996 -1 0  -0.7999999999999998 -1 0  -0.75 -1 0  -0.7000000000000002 -1 0  -0.6500000000000004 -1 0  -0.5999999999999996 -1 0  -0.5499999999999998 -1 0  -0.5 -1 0  -0.4500000000000002 -1 0  -0.4000000000000004 -1 0  -0.3499999999999996 -1 0  -0.2999999999999998 -1 0  -0.25 -1 0  -0.2000000000000002 -1 0  -0.1500000000000004 -1 0  -0.09999999999999964 -1 0  -0.04999999999999982 -1 0  0 -1 0  0.04999999999999982 -1 0  0.09999999999999964 -1 0  0.1500000000000004 -1 0  0.2000000000000002 -1 0  0.25 -1 0  0.2999999999999998 -1 0  0.3499999999999996 -1 0  0.4000000000000004 -1 0  0.4500000000000002 -1 0  0.5 -1 0  0.5499999999999998 -1 0  0.5999999999999996 -1 0  0.6500000000000004 -1 0  0.7000000000000002 -1 0  0.75 -1 0  0.7999999999999998 -1 0  0.8499999999999996 -1 0  0.9000000000000004 -1 0  0.9500000000000002 -1 0  1 -1 0  1.05 -1 0  1.1 -1 0  1.15 -1 0  1.2 -1 0  1.25 -1 0  1.3 -1 0  1.35 -1 0  1.4 -1 0  1.45 -1 0  1.5 -1 0  1.55 -1 0  1.6 -1 0  1.65 -1 0  1.7 -1 0  1.75 -1 0  1.8 -1 0  1.85 -1 0  1.9 -1 0  1.95 -1 0  2 -1 0  2.05 -1 0  2.1 -1 0  2.15 -1 0  2.2 -1 0  2.25 -1 0  2.3 -1 0  2.35 -1 0  2.4 -1 0  2.45 -1 0  2.5 -1 0  2.55 -1 0  2.6 -1 0  2.65 -1 0  2.7 -1 0  2.75 -1 0  2.8 -1 0  2.85 -1 0  2.9 -1 0  2.95 -1 0  3 -1 0  3.050000000000001 -1 0  3.1 -1 0  3.15 -1 0  3.199999999999999 -1 0  3.25 -1 0  3.300000000000001 -1 0  3.35 -1 0  3.4 -1 0  3.449999999999999 -1 0  3.5 -1 0  3.550000000000001 -1 0  3.6 -1 0  3.65 -1 0  3.699999999999999 -1 0  3.75 -1 0  3.800000000000001 -1 0  3.85 -1 0  3.9 -1 0  3.949999999999999 -1 0  4 -1 0  4.050000000000001 -1 0  4.1 -1 0  4.15 -1 0  4.199999999999999 -1 0  4.25 -1 0  4.300000000000001 -1 0  4.35 -1 0  4.4 -1 0  4.449999999999999 -1 0  4.5 -1 0  4.550000000000001 -1 0  4.6 -1 0  4.65 -1 0  4.699999999999999 -1 0  4.75 -1 0  4.800000000000001 -1 0  4.85 -1 0  4.9 -1 0  4.949999999999999 -1 0  5 -1 0  -5 -0.95 0  -4.95 -0.95 0  -4.9 -0.95 0  -4.85 -0.95 0  -4.8 -0.95 0  -4.75 -0.95 0  -4.7 -0.95 0  -4.65 -0.95 0  -4.6 -0.95 0  -4.55 -0.95 0  -4.5 -0.95 0  -4.45 -0.95 0  -4.4 -0.95 0  -4.35 -0.95 0  -4.3 -0.95 0  -4.25 -0.95 0  -4.2 -0.95 0  -4.15 -0.95 0  -4.1 -0.95 0  -4.05 -0.95 0  -4 -0.95 0  -3.95 -0.95 0  -3.9 -0.95 0  -3.85 -0.95 0  -3.8 -0.95 0  -3.75 -0.95 0  -3.7 -0.95 0  -3.65 -0.95 0  -3.6 -0.95 0  -3.55 -0.95 0  -3.5 -0.95 0  -3.45 -0.95 0  -3.4 -0.95 0  -3.35 -0.95 0  -3.3 -0.95 0  -3.25 -0.95 0  -3.2 -0.95 0  -3.15 -0.95 0  -3.1 -0.95 0  -3.05 -0.95 0  -3 -0.95 0  -2.95 -0.95 0  -2.9 -0.95 0  -2.85 -0.95 0  -2.8 -0.95 0  -2.75 -0.95 0  -2.7 -0.95 0  -2.65 -0.95 0  -2.6 -0.95 0  -2.55 -0.95 0  -2.5 -0.95 0  -2.45 -0.95 0  -2.4 -0.95 0  -2.35 -0.95 0  -2.3 -0.95 0  -2.25 -0.95 0  -2.2 -0.95 0  -2.15 -0.95 0  -2.1 -0.95 0  -2.05 -0.95 0  -2 -0.95 0  -1.95 -0.95 0  -1.9 -0.95 0  -1.85 -0.95 0  -1.8 -0.95 0  -1.75 -0.95 0  -1.7 -0.95 0  -1.65 -0.95 0  -1.6 -0.95 0  -1.55 -0.95 0  -1.5 -0.95 0  -1.45 -0.95 0  -1.4 -0.95 0  -1.35 -0.95 0  -1.3 -0.95 0  -1.25 -0.95 0  -1.2 -0.95 0  -1.15 -0.95 0  -1.1 -0.95 0  -1.05 -0.95 0  -1 -0.95 0  -0.9500000000000002 -0.95 0  -0.9000000000000004 -0.95 0  -0.8499999999999996 -0.95 0  -0.7999999999999998 -0.95 0  -0.75 -0.95 0  -0.7000000000000002 -0.95 0  -0.6500000000000004 -0.95 0  -0.5999999999999996 -0.95 0  -0.5499999999999998 -0.95 0  -0.5 -0.95 0  -0.4500000000000002 -0.95 0  -0.4000000000000004 -0.95 0  -0.3499999999999996 -0.95 0  -0.2999999999999998 -0.95 0  -0.25 -0.95 0  -0.2000000000000002 -0.95 0  -0.1500000000000004 -0.95 0  -0.09999999999999964 -0.95 0  -0.04999999999999982 -0.95 0  0 -0.95 0  0.04999999999999982 -0.95 0  0.09999999999999964 -0.95 0  0.1500000000000004 -0.95 0  0.2000000000000002 -0.95 0  0.25 -0.95 0  0.2999999999999998 -0.95 0  0.3499999999999996 -0.95 0  0.4000000000000004 -0.95 0  0.4500000000000002 -0.95 0  0.5 -0.95 0  0.5499999999999998 -0.95 0  0.5999999999999996 -0.95 0  0.6500000000000004 -0.95 0  0.7000000000000002 -0.95 0  0.75 -0.95 0  0.7999999999999998 -0.95 0  0.8499999999999996 -0.95 0  0.9000000000000004 -0.95 0  0.9500000000000002 -0.95 0  1 -0.95 0  1.05 -0.95 0  1.1 -0.95 0  1.15 -0.95 0  1.2 -0.95 0  1.25 -0.95 0  1.3 -0.95 0  1.35 -0.95 0  1.4 -0.95 0  1.45 -0.95 0  1.5 -0.95 0  1.55 -0.95 0  1.6 -0.95 0  1.65 -0.95 0  1.7 -0.95 0  1.75 -0.95 0  1.8 -0.95 0  1.85 -0.95 0  1.9 -0.95 0  1.95 -0.95 0  2 -0.95 0  2.05 -0.95 0  2.1 -0.95 0  2.15 -0.95 0  2.2 -0.95 0  2.25 -0.95 0  2.3 -0.95 0  2.35 -0.95 0  2.4 -0.95 0  2.45 -0.95 0  2.5 -0.95 0  2.55 -0.95 0  2.6 -0.95 0  2.65 -0.95 0  2.7 -0.95 0  2.75 -0.95 0  2.8 -0.95 0  2.85 -0.95 0  2.9 -0.95 0  2.95 -0.95 0  3 -0.95 0  3.050000000000001 -0.95 0  3.1 -0.95 0  3.15 -0.95 0  3.199999999999999 -0.95 0  3.25 -0.95 0  3.300000000000001 -0.95 0  3.35 -0.95 0  3.4 -0.95 0  3.449999999999999 -0.95 0  3.5 -0.95 0  3.550000000000001 -0.95 0  3.6 -0.95 0  3.65 -0.95 0  3.699999999999999 -0.95 0  3.75 -0.95 0  3.800000000000001 -0.95 0  3.85 -0.95 0  3.9 -0.95 0  3.949999999999999 -0.95 0  4 -0.95 0  4.050000000000001 -0.95 0  4.1 -0.95 0  4.15 -0.95 0  4.199999999999999 -0.95 0  4.25 -0.95 0  4.300000000000001 -0.95 0  4.35 -0.95 0  4.4 -0.95 0  4.449999999999999 -0.95 0  4.5 -0.95 0  4.550000000000001 -0.95 0  4.6 -0.95 0  4.65 -0.95 0  4.699999999999999 -0.95 0  4.75 -0.95 0  4.800000000000001 -0.95 0  4.85 -0.95 0  4.9 -0.95 0  4.949999999999999 -0.95 0  5 -0.95 0  -5 -0.9 0  -4.95 -0.9 0  -4.9 -0.9 0  -4.85 -0.9 0  -4.8 -0.9 0  -4.75 -0.9 0  -4.7 -0.9 0  -4.65 -0.9 0  -4.6 -0.9 0  -4.55 -0.9 0  -4.5 -0.9 0  -4.45 -0.9 0  -4.4 -0.9 0  -4.35 -0.9 0  -4.3 -0.9 0  -4.25 -0.9 0  -4.2 -0.9 0  -4.15 -0.9 0  -4.1 -0.9 0  -4.05 -0.9 0  -4 -0.9 0  -3.95 -0.9 0  -3.9 -0.9 0  -3.85 -0.9 0  -3.8 -0.9 0  -3.75 -0.9 0  -3.7 -0.9 0  -3.65 -0.9 0  -3.6 -0.9 0  -3.55 -0.9 0  -3.5 -0.9 0  -3.45 -0.9 0  -3.4 -0.9 0  -3.35 -0.9 0  -3.3 -0.9 0  -3.25 -0.9 0  -3.2 -0.9 0  -3.15 -0.9 0  -3.1 -0.9 0  -3.05 -0.9 0  -3 -0.9 0  -2.95 -0.9 0  -2.9 -0.9 0  -2.85 -0.9 0  -2.8 -0.9 0  -2.75 -0.9 0  -2.7 -0.9 0  -2.65 -0.9 0  -2.6 -0.9 0  -2.55 -0.9 0  -2.5 -0.9 0  -2.45 -0.9 0  -2.4 -0.9 0  -2.35 -0.9 0  -2.3 -0.9 0  -2.25 -0.9 0  -2.2 -0.9 0  -2.15 -0.9 0  -2.1 -0.9 0  -2.05 -0.9 0  -2 -0.9 0  -1.95 -0.9 0  -1.9 -0.9 0  -1.85 -0.9 0  -1.8 -0.9 0  -1.75 -0.9 0  -1.7 -0.9 0  -1.65 -0.9 0  -1.6 -0.9 0  -1.55 -0.9 0  -1.5 -0.9 0  -1.45 -0.9 0  -1.4 -0.9 0  -1.35 -0.9 0  -1.3 -0.9 0  -1.25 -0.9 0  -1.2 -0.9 0  -1.15 -0.9 0  -1.1 -0.9 0  -1.05 -0.9 0  -1 -0.9 0  -0.9500000000000002 -0.9 0  -0.9000000000000004 -0.9 0  -0.8499999999999996 -0.9 0  -0.7999999999999998 -0.9 0  -0.75 -0.9 0  -0.7000000000000002 -0.9 0  -0.6500000000000004 -0.9 0  -0.5999999999999996 -0.9 0  -0.5499999999999998 -0.9 0  -0.5 -0.9 0  -0.4500000000000002 -0.9 0  -0.4000000000000004 -0.9 0  -0.3499999999999996 -0.9 0  -0.2999999999999998 -0.9 0  -0.25 -0.9 0  -0.2000000000000002 -0.9 0  -0.1500000000000004 -0.9 0  -0.09999999999999964 -0.9 0  -0.04999999999999982 -0.9 0  0 -0.9 0  0.04999999999999982 -0.9 0  0.09999999999999964 -0.9 0  0.1500000000000004 -0.9 0  0.2000000000000002 -0.9 0  0.25 -0.9 0  0.2999999999999998 -0.9 0  0.3499999999999996 -0.9 0  0.4000000000000004 -0.9 0  0.4500000000000002 -0.9 0  0.5 -0.9 0  0.5499999999999998 -0.9 0  0.5999999999999996 -0.9 0  0.6500000000000004 -0.9 0  0.7000000000000002 -0.9 0  0.75 -0.9 0  0.7999999999999998 -0.9 0  0.8499999999999996 -0.9 0  0.9000000000000004 -0.9 0  0.9500000000000002 -0.9 0  1 -0.9 0  1.05 -0.9 0  1.1 -0.9 0  1.15 -0.9 0  1.2 -0.9 0  1.25 -0.9 0  1.3 -0.9 0  1.35 -0.9 0  1.4 -0.9 0  1.45 -0.9 0  1.5 -0.9 0  1.55 -0.9 0  1.6 -0.9 0  1.65 -0.9 0  1.7 -0.9 0  1.75 -0.9 0  1.8 -0.9 0  1.85 -0.9 0  1.9 -0.9 0  1.95 -0.9 0  2 -0.9 0  2.05 -0.9 0  2.1 -0.9 0  2.15 -0.9 0  2.2 -0.9 0  2.25 -0.9 0  2.3 -0.9 0  2.35 -0.9 0  2.4 -0.9 0  2.45 -0.9 0  2.5 -0.9 0  2.55 -0.9 0  2.6 -0.9 0  2.65 -0.9 0  2.7 -0.9 0  2.75 -0.9 0  2.8 -0.9 0  2.85 -0.9 0  2.9 -0.9 0  2.95 -0.9 0  3 -0.9 0  3.050000000000001 -0.9 0  3.1 -0.9 0  3.15 -0.9 0  3.199999999999999 -0.9 0  3.25 -0.9 0  3.300000000000001 -0.9 0  3.35 -0.9 0  3.4 -0.9 0  3.449999999999999 -0.9 0  3.5 -0.9 0  3.550000000000001 -0.9 0  3.6 -0.9 0  3.65 -0.9 0  3.699999999999999 -0.9 0  3.75 -0.9 0  3.800000000000001 -0.9 0  3.85 -0.9 0  3.9 -0.9 0  3.949999999999999 -0.9 0  4 -0.9 0  4.050000000000001 -0.9 0  4.1 -0.9 0  4.15 -0.9 0  4.199999999999999 -0.9 0  4.25 -0.9 0  4.300000000000001 -0.9 0  4.35 -0.9 0  4.4 -0.9 0  4.449999999999999 -0.9 0  4.5 -0.9 0  4.550000000000001 -0.9 0  4.6 -0.9 0  4.65 -0.9 0  4.699999999999999 -0.9 0  4.75 -0.9 0  4.800000000000001 -0.9 0  4.85 -0.9 0  4.9 -0.9 0  4.949999999999999 -0.9 0  5 -0.9 0  -5 -0.85 0  -4.95 -0.85 0  -4.9 -0.85 0  -4.85 -0.85 0  -4.8 -0.85 0  -4.75 -0.85 0  -4.7 -0.85 0  -4.65 -0.85 0  -4.6 -0.85 0  -4.55 -0.85 0  -4.5 -0.85 0  -
[...]
<PointData  Vectors="f_15"> 
<DataArray  type="Float64"  Name="f_15"  NumberOfComponents="3" format="ascii">1.9877938987352826e+00 0.0000000000000000e+00 0.0000000000000000e+00  1.9877792724021868e+00 4.4914386810021523e-02 0.0000000000000000e+00  1.9876906083401660e+00 8.9719163014731096e-02 0.0000000000000000e+00  1.9875714423330400e+00 1.3464651397687105e-01 0.0000000000000000e+00  1.9873790166108698e+00 1.7944553483805539e-01 0.0000000000000000e+00  1.9871541852690975e+00 2.2431542678182095e-01 0.0000000000000000e+00  1.9868557829926352e+00 2.6908271555863805e-01 0.0000000000000000e+00  1.9865237311296791e+00 3.1387965883372354e-01 0.0000000000000000e+00  1.9861171475709363e+00 3.5859005845293029e-01 0.0000000000000000e+00  1.9856740224722047e+00 4.0328958875339227e-01 0.0000000000000000e+00  1.9851570707622881e+00 4.4791766932193888e-01 0.0000000000000000e+00  1.9845984709450972e+00 4.9250034782462543e-01 0.0000000000000000e+00  1.9839662186500324e+00 5.3702101186193474e-01 0.0000000000000000e+00  1.9832886149883959e+00 5.8145066432119985e-01 0.0000000000000000e+00  1.9825345713693856e+00 6.2584534414909709e-01 0.0000000000000000e+00  1.9817317827962551e+00 6.7010619153156015e-01 0.0000000000000000e+00  1.9808506398860615e+00 7.1430350618931782e-01 0.0000000000000000e+00  1.9799143822524883e+00 7.5841351038978755e-01 0.0000000000000000e+00  1.9788977000076080e+00 8.0235986776131885e-01 0.0000000000000000e+00  1.9778216828290687e+00 8.4625870150262028e-01 0.0000000000000000e+00  1.9766580978808825e+00 8.8996421161782857e-01 0.0000000000000000e+00  1.9754321505521311e+00 9.3359607702757597e-01 0.0000000000000000e+00  1.9741137846192496e+00 9.7698053181928957e-01 0.0000000000000000e+00  1.9727232144498521e+00 1.0203625612755554e+00 0.0000000000000000e+00  1.9712380095347231e+00 1.0633697297216149e+00 0.0000000000000000e+00  1.9696731668905072e+00 1.1063766149938357e+00 0.0000000000000000e+00  1.9680026383075797e+00 1.1490669064144927e+00 0.0000000000000000e+00  1.9662497058037725e+00 1.1915931884848456e+00 0.0000000000000000e+00  1.9643821345001069e+00 1.2338469437781763e+00 0.0000000000000000e+00  1.9624187230997154e+00 1.2759436237363608e+00 0.0000000000000000e+00  1.9603387849203906e+00 1.3176392886407811e+00 0.0000000000000000e+00  1.9581507713122961e+00 1.3591814071506638e+00 0.0000000000000000e+00  1.9558334073264882e+00 1.4003463033349146e+00 0.0000000000000000e+00  1.9534026669701734e+00 1.4412101674190252e+00 0.0000000000000000e+00  1.9508345569847050e+00 1.4817044269465358e+00 0.0000000000000000e+00  1.9481311840295008e+00 1.5218940287172245e+00 0.0000000000000000e+00  1.9452962751822445e+00 1.5615873431863909e+00 0.0000000000000000e+00  1.9423051118957939e+00 1.6009421006049449e+00 0.0000000000000000e+00  1.9391760318360214e+00 1.6398306440154036e+00 0.0000000000000000e+00  1.9358801752344410e+00 1.6781871985992931e+00 0.0000000000000000e+00  1.9324495193340134e+00 1.7161088437134067e+00 0.0000000000000000e+00  1.9288218877213299e+00 1.7534248058629054e+00 0.0000000000000000e+00  1.9250860398249043e+00 1.7902214599038917e+00 0.0000000000000000e+00  1.9211232349857321e+00 1.8262857723589225e+00 0.0000000000000000e+00  1.9170756899650931e+00 1.8619008998670796e+00 0.0000000000000000e+00  1.9127844172867023e+00 1.8965193563075582e+00 0.0000000000000000e+00  1.9084514503149153e+00 1.9307359108092794e+00 0.0000000000000000e+00  1.9038445179890211e+00 1.9637746089529924e+00 0.0000000000000000e+00  1.8992770004410462e+00 1.9963750164333895e+00 0.0000000000000000e+00  1.8944136788361652e+00 2.0275490086761740e+00 0.0000000000000000e+00  1.8896895239128151e+00 2.0583427129646941e+00 0.0000000000000000e+00  1.8846772079406751e+00 2.0873005095588888e+00 0.0000000000000000e+00  1.8799485011257433e+00 2.1159126352819921e+00 0.0000000000000000e+00  1.8749551320077489e+00 2.1422671719041952e+00 0.0000000000000000e+00  1.8704583289214225e+00 2.1681896464836417e+00 0.0000000000000000e+00  1.8657603025066882e+00 2.1913002419714847e+00 0.0000000000000000e+00  1.8618280294614702e+00 2.2138973990546575e+00 0.0000000000000000e+00  1.8578051657827011e+00 2.2329513135192594e+00 0.0000000000000000e+00  1.8548593978753447e+00 2.2513939236606606e+00 0.0000000000000000e+00  1.8519089376180844e+00 2.2656209338707201e+00 0.0000000000000000e+00  1.8502960250992500e+00 2.2793020015698513e+00 0.0000000000000000e+00  1.8486124409635063e+00 2.2884176615194303e+00 0.0000000000000000e+00  1.8483151318960576e+00 2.2976273248518955e+00 0.0000000000000000e+00  1.8476391260210241e+00 2.3024569598460061e+00 0.0000000000000000e+00  1.8481929070170360e+00 2.3085010434829916e+00 0.0000000000000000e+00  1.8479425622479682e+00 2.3106533479207481e+00 0.0000000000000000e+00  1.8487870195974749e+00 2.3150756991320196e+00 0.0000000000000000e+00  1.8485232351977638e+00 2.3158190125000839e+00 0.0000000000000000e+00  1.8493591658736133e+00 2.3195427778540365e+00 0.0000000000000000e+00  1.8489389959237024e+00 2.3194851689406679e+00 0.0000000000000000e+00  1.8497095724578714e+00 2.3228163127089854e+00 0.0000000000000000e+00  1.8491362043629858e+00 2.3222219321355677e+00 0.0000000000000000e+00  1.8498571436653253e+00 2.3252703634188054e+00 0.0000000000000000e+00  1.8491859025685313e+00 2.3242579665243968e+00 0.0000000000000000e+00  1.8498632069724441e+00 2.3270885611866232e+00 0.0000000000000000e+00  1.8491414675746833e+00 2.3257872375689717e+00 0.0000000000000000e+00  1.8497946900010909e+00 2.3284042000641012e+00 0.0000000000000000e+00  1.8490431036524009e+00 2.3269351136538821e+00 0.0000000000000000e+00  1.8496766954230797e+00 2.3293653051282042e+00 0.0000000000000000e+00  1.8489381668009810e+00 2.3278061809351556e+00 0.0000000000000000e+00  1.8495285235501564e+00 2.3300301276203363e+00 0.0000000000000000e+00  1.8488331864319583e+00 2.3285141452628784e+00 0.0000000000000000e+00  1.8493871812802871e+00 2.3304837358299975e+00 0.0000000000000000e+00  1.8487308274930043e+00 2.3290435623083243e+00 0.0000000000000000e+00  1.8492521229346293e+00 2.3308384503717607e+00 0.0000000000000000e+00  1.8486474038094629e+00 2.3294707233848970e+00 0.0000000000000000e+00  1.8491195489366568e+00 2.3310343981493635e+00 0.0000000000000000e+00  1.8485841204978877e+00 2.3298798645007874e+00 0.0000000000000000e+00  1.8490031435400818e+00 2.3311620573064324e+00 0.0000000000000000e+00  1.8485229195753501e+00 2.3301423542581201e+00 0.0000000000000000e+00  1.8489156989179036e+00 2.3313341664395422e+00 0.0000000000000000e+00  1.8484622378629401e+00 2.3303467916229592e+00 0.0000000000000000e+00  1.8488323180984190e+00 2.3313899842337986e+00 0.0000000000000000e+00  1.8484369789404491e+00 2.3305999344842965e+00 0.0000000000000000e+00  1.8487470917207416e+00 2.3314098548398015e+00 0.0000000000000000e+00  1.8484017879323156e+00 2.3307297341288322e+00 0.0000000000000000e+00  1.8487131238186298e+00 2.3315283621588621e+00 0.0000000000000000e+00  1.8483440773229012e+00 2.3307944632369102e+00 0.0000000000000000e+00  1.8486741347212019e+00 2.3315618887727458e+00 0.0000000000000000e+00  1.8483436731603584e+00 2.3309440887917754e+00 0.0000000000000000e+00  1.8486012205771329e+00 2.3315375883768104e+00 0.0000000000000000e+00  1.8483336586822086e+00 2.3310258851536827e+00 0.0000000000000000e+00  1.8485946980183858e+00 2.3316089835424876e+00 0.0000000000000000e+00  1.8482744152984223e+00 2.3310250760145084e+00 0.0000000000000000e+00  1.8485877000582647e+00 2.3316477770923902e+00 0.0000000000000000e+00  1.8482798437469317e+00 2.3311107487562532e+00 0.0000000000000000e+00  1.8485173761250480e+00 2.3315940963803299e+00 0.0000000000000000e+00  1.8482989512194550e+00 2.3311953073799683e+00 0.0000000000000000e+00  1.8485071030877465e+00 2.3316096468097198e+00 0.0000000000000000e+00  1.8482422678839039e+00 2.3311786014042566e+00 0.0000000000000000e+00  1.8485268518951139e+00 2.3316591859921152e+00 0.0000000000000000e+00  1.8482359486555471e+00 2.3312106579603769e+00 0.0000000000000000e+00  1.8484646069905890e+00 2.3315953331844796e+00 0.0000000000000000e+00  1.8482750024278873e+00 2.3313084919583282e+00 0.0000000000000000e+00  1.8484403121570701e+00 2.3315720367260058e+00 0.0000000000000000e+00  1.8482279004778992e+00 2.3312766749998222e+00 0.0000000000000000e+00  1.8484759778461468e+00 2.3316332199718368e+00 0.0000000000000000e+00  1.8482087355095620e+00 2.3312816336486453e+00 0.0000000000000000e+00  1.8484245806404196e+00 2.3315623332288320e+00 0.0000000000000000e+00  1.8482493506867619e+00 2.3313736107957612e+00 0.0000000000000000e+00  1.8484062603360190e+00 2.3315396266897790e+00 0.0000000000000000e+00  1.8482011813848855e+00 2.3313168341310702e+00 0.0000000000000000e+00  1.8484414588486335e+00 2.3315967078911477e+00 0.0000000000000000e+00  1.8481880826219850e+00 2.3313481005886367e+00 0.0000000000000000e+00  1.8483979602800078e+00 2.3314786644736070e+00 0.0000000000000000e+00  1.8482128512233404e+00 2.3314361486580308e+00 0.0000000000000000e+00  1.8483977572763008e+00 2.3314991145614838e+00 0.0000000000000000e+00  1.8481627285100168e+00 2.3313200405992056e+00 0.0000000000000000e+00  1.8484237195200812e+00 2.3315853125558883e+00 0.0000000000000000e+00  1.8481616561776912e+00 2.3313030112863271e+00 0.0000000000000000e+00  1.8483868993063386e+00 2.3315478978161757e+00 0.0000000000000000e+00  1.8481631096578273e+00 2.3312968064808177e+00 0.0000000000000000e+00  1.8484109309623380e+00 2.3315839562609191e+00 0.0000000000000000e+00  1.8481087478192983e+00 2.3312731079979541e+00 0.0000000000000000e+00  1.8484333302619589e+00 2.3314680642882042e+00 0.0000000000000000e+00  1.8480985311665639e+00 2.3315124383787311e+00 0.0000000000000000e+00  1.8484191549049189e+00 2.3311460300365003e+00 0.0000000000000000e+00  1.8480922950616527e+00 2.3317627190775605e+00 0.0000000000000000e+00  1.8484253034560432e+00 2.3310044656262194e+00 0.0000000000000000e+00  1.8480560652548843e+00 2.3317523279733074e+00 0.0000000000000000e+00  1.8484571012067579e+00 2.3310896935056165e+00 0.0000000000000000e+00  1.8480165276541762e+00 2.3315776103983104e+00 0.0000000000000000e+00  1.8484550670285309e+00 2.3312612906607599e+00 0.0000000000000000e+00  1.8480307134889917e+00 2.3314030926798948e+00 0.0000000000000000e+00  1.8484168697293222e+00 2.3313715250041662e+00 0.0000000000000000e+00  1.8480356880258058e+00 2.3312887758636363e+00 0.0000000000000000e+00  1.8484203119185947e+00 2.3314793706933710e+00 0.0000000000000000e+00  1.8480039746339858e+00 2.3311420048594389e+00 0.0000000000000000e+00  1.8484247356316763e+00 2.3315349921141419e+00 0.0000000000000000e+00  1.8480246756676073e+00 2.3311305833097715e+00 0.0000000000000000e+00  1.8483524489790009e+00 2.3314012478719128e+00 0.0000000000000000e+00  1.8481038184731697e+00 2.3312279490072076e+00 0.0000000000000000e+00  1.8482747476496559e+00 2.3313131943690495e+00 0.0000000000000000e+00  1.8480658575810049e+00 2.3312851431358386e+00 0.0000000000000000e+00  1.8481991677574516e+00 2.3314720780447478e+00 0.0000000000000000e+00  1.8478979150815251e+00 2.3314727093417251e+00 0.0000000000000000e+00  1.8478922254655978e+00 2.3317431051793558e+00 0.0000000000000000e+00  1.8477355827243769e+00 2.3318818519757305e+00 0.0000000000000000e+00  1.8475858651682855e+00 2.3317005036196932e+00 0.0000000000000000e+00  1.8477587814582286e+00 2.3317919304691297e+00 0.0000000000000000e+00  1.8477925597787814e+00 2.3308964751947632e+00 0.0000000000000000e+00  1.8482871583302343e+00 2.3309040956174933e+00 0.0000000000000000e+00  1.8482147941844702e+00 2.3294309029942482e+00 0.0000000000000000e+00  1.8488797712064353e+00 2.3300407580941900e+00 0.0000000000000000e+00  1.8485170654670890e+00 2.3291349859981545e+00 0.0000000000000000e+00  1.8482803789078799e+00 2.3279201305842401e+00 0.0000000000000000e+00  1.8499926746361286e+00 2.3324332304854045e+00 0.0000000000000000e+00  1.8457670766270042e+00 2.3211140121690756e+00 0.0000000000000000e+00  1.8554981305754537e+00 2.3360323771069185e+00 0.0000000000000000e+00  1.8274792734743994e+00 2.3450328994586576e+00 0.0000000000000000e+00  1.9003588451403182e+00 2.2535061213974199e+00 0.0000000000000000e+00  2.4129637413867124e+00 1.0431259915406699e+00 0.0000000000000000e+00  2.8624138365300484e+00 1.8647853202872425e-01 0.0000000000000000e+00  2.9749349105589937e+00 7.5583383639539177e-03 0.0000000000000000e+00  2.9636191787958404e+00 7.2809660090167941e-03 0.0000000000000000e+00  2.9676113619028945e+00 -4.4522053795651500e-03 0.0000000000000000e+00  2.9722834902385804e+00 -7.5662387102573801e-03 0.0000000000000000e+00  2.9710105246895582e+00 -6.1542987710967514e-03 0.0000000000000000e+00  2.9718502387162187e+00 -9.6564221536028904e-03 0.0000000000000000e+00  2.9728848841186268e+00 -1.0304974922545711e-02 0.0000000000000000e+00  2.9717462065998816e+00 -8.6773980765583129e-03 0.0000000000000000e+00  2.9716378712779861e+00 -8.3726995949534640e-03 0.0000000000000000e+00  2.9717238979983471e+00 -9.0027515717807684e-03 0.0000000000000000e+00  2.9720246596442266e+00 -8.8289655942460302e-03 0.0000000000000000e+00  2.9717556443344084e+00 -9.2023767416845210e-03 0.0000000000000000e+00  2.9719269520805258e+00 -8.8025215915090091e-03 0.0000000000000000e+00  2.9715916684752943e+00 -8.7415042569582123e-03 0.0000000000000000e+00  2.9718782607705552e+00 -8.9642724770023080e-03 0.0000000000000000e+00  2.9716432754514495e+00 -8.9698042420371174e-03 0.0000000000000000e+00  2.9718634716601637e+00 -8.6270989092471963e-03 0.0000000000000000e+00  2.9715955793287048e+00 -9.2077049744895226e-03 0.0000000000000000e+00  2.9718360881625343e+00 -8.6706690877321520e-03 0.0000000000000000e+00  2.9715760069222186e+00 -8.8340912923696360e-03 0.0000000000000000e+00  2.9718027560180529e+00 -9.6538710358981556e-03 0.0000000000000000e+00  2.9716029469829301e+00 -8.5648270383545562e-03 0.0000000000000000e+00  2.9717476308100057e+00 -9.5839632318260558e-03 0.0000000000000000e+00  2.9716205677311454e+00 -9.7705019762266039e-03 0.0000000000000000e+00  2.9717118198720667e+00 -8.5593249796635674e-03 0.0000000000000000e+00  2.9716209590101288e+00 -1.4851838193967041e-02 0.0000000000000000e+00  2.9716801745660080e+00 -1.0097003316705990e-02 0.0000000000000000e+00  2.9716275054963228e+00 0.0000000000000000e+00 0.0000000000000000e+00  1.9878034389829444e+00 0.0000000000000000e+00 -3.3618705493948013e-05  1.9877776022190397e+00 4.4875525314590554e-02 5.6603852945800357e-06  1.9876991715723127e+00 8.9771264898460684e-02 1.0933207087825848e-05  1.9875689535890857e+00 1.3462765227715320e-01 -3.9428176561043149e-06  1.9873864127274263e+00 1.7947471504542592e-01 2.2072681302631217e-06  1.9871503481620465e+00 2.2430657350866071e-01 2.2205816064658518e-07  1.9868625241906290e+00 2.6910202370233050e-01 5.2424286497537166e-08  1.9865190196800482e+00 3.1387573586532880e-01 2.9562612714826628e-07  1.9861226523784405e+00 3.5859947545687659e-01 4.3826323505282128e-07  1.9856697330043496e+00 4.0329002285348831e-01 4.4903023748819745e-07  1.9851612513159984e+00 4.4792306611892913e-01 -1.0380038439149143e-06  1.9845942911057068e+00 4.9250436630243416e-01 3.5484764858733271e-06  1.9839706773704147e+00 5.3701329371481143e-01 -6.4984513599157417e-06  1.9832838561152646e+00 5.8147216126952483e-01 1.1292617375763576e-05  1.9825393670447040e+00 6.2582600559825485e-01 -1.5712965471771806e-05  1.9817280291547643e+00 6.7011861727858446e-01 1.9362995809227906e-05  1.9808547623996886e+00 7.1431057988467128e-01 -2.0001039680639390e-05  1.9799116955058111e+00 7.5839895449652250e-01 1.7254060086213031e-05  1.9789029738334973e+00 8.0237369282058568e-01 -1.1140123876837987e-05  1.9778186378917400e+00 8.4625481725179463e-01 3.0589294037916561e-06  1.9766642464975797e+00 8.8997302498328579e-01 4.5984829473484255e-06  1.9754314958173746e+00 9.3356300925557034e-01 -1.0794106996212146e-05  1.9741181251971458e+00 9.7704603268673862e-01 1.3495508397114209e-05  1.9727248195432794e+00 1.0202831681236926e+00 -1.2933851145910567e-05  1.9712443480409971e+00 1.0634245267263769e+00 7.2227473650316732e-06  1.9696722180698478e+00 1.1063612770541855e+00 7.5858979939074252e-07  1.9680122484822877e+00 1.1490524166458258e+00 -9.6738557827812182e-06  1.9662497552692981e+00 1.1915918499291083e+00 1.4019487237955783e-05  1.9643890779011617e+00 1.2338744851241930e+00 -1.4987434373308094e-05  1.9624218155534379e+00 1.2758940396327532e+00 1.2039890914553637e-05  1.9603465017363946e+00 1.3176636773025696e+00 -1.0600620318236297e-05  1.9581503570156906e+00 1.3591826431124321e+00 9.4445730922096250e-06  1.9558434611250581e+00 1.4003237389085301e+00 -1.0835809546348047e-05  1.9534040204102656e+00 1.4412081598209943e+00 1.0583815886418519e-05  1.9508377823543783e+00 1.4817280559686348e+00 -1.0708978268167887e-05  1.9481375757418222e+00 1.5218535770657440e+00 8.1616129659146103e-06  1.9452978603701900e+00 1.5616023389934401e+00 -7.1551863500542935e-06  1.9423074996139458e+00 1.6009563196656624e+00 5.9390263855297688e-06  1.9391786807749480e+00 1.6397908056087316e+00 -8.0056787227527412e-06  1.9358864608213449e+00 1.6782128355327868e+00 7.5228703930856249e-06  1.9324418884807342e+00 1.7160987452538783e+00 -6.0195207542230156e-06  1.9288380454846310e+00 1.7534251286295797e+00 7.1340339790834178e-07  1.9250730298602583e+00 1.7901825874519186e+00 1.4534594161814068e-06  1.9211410654476397e+00 1.8263512002163818e+00 -3.5268817825701623e-06  1.9170590126748610e+00 1.8618056380620416e+00 3.9335040550594309e-06  1.9128110804598950e+00 1.8966017636240053e+00 -7.4449056964769871e-06  1.9084177701602882e+00 1.9306502326670805e+00 9.8841250550487314e-06  1.9038854520686326e+00 1.9638656712511096e+00 -1.3813575944011539e-05  1.8992281824978448e+00 1.9962561053165799e+00 1.6353851731150033e-05  1.8944616949855417e+00 2.0277135917633164e+00 -2.0302677302478720e-05  1.8896268704849208e+00 2.0581571418560127e+00 2.1432852140238466e-05  1.8847392642361671e+00 2.0875183372156534e+00 -2.3906471674975964e-05  1.8798602895396026e+00 2.1157092245218636e+00 2.5318915969341141e-05  1.8750362943625372e+00 2.1425297900015807e+00 -2.9287677906067093e-05  1.8703443942988658e+00 2.1679298143916617e+00 3.1738332797639652e-05  1.8658582699535258e+00 2.1916555022101591e+00 -3.6912834902099619e-05  1.8616909120072540e+00 2.2135567336336264e+00 4.0647029944451472e-05  1.8579302157422601e+00 2.2333756157514748e+00 -4.4284199220002804e-05  1.8546956178465284e+00 2.2509871087475308e+00 4.7958878630185695e-05  1.8520688352650483e+00 2.2661054658822684e+00 -4.9324405771619407e-05  1.8501075363705268e+00 2.2788008750420756e+00 5.5515257522426140e-05  1.8488069516683376e+00 2.2889944744847752e+00 -5.5811826689382922e-05  1.8481040901251491e+00 2.2970218569268384e+00 6.1801650178843300e-05  1.8478707595078969e+00 2.3031012669522579e+00 -6.4234755649087894e-05  1.8479497848211319e+00 2.3078221134571568e+00 6.4502849895729138e-05  1.8482037222129704e+00 2.3113828854920691e+00 -6.7140283779146690e-05  1.8485059934504169e+00 2.3143237786004169e+00 6.3627109813602621e-05  1.8488018685812506e+00 2.3166642607513510e+00 -6.3769746129936446e-05  1.8490469880965812e+00 2.3187206452939835e+00 6.0214266341599623e-05  1.8492450870231170e+00 2.3203951222682635e+00 -5.5851301588264098e-05  1.8493753257757564e+00 2.3219345943186149e+00 5.0273178062233359e-05  1.8494732931339530e+00 2.3231701679289185e+00 -4.1036425807850329e-05  1.8495174287904792e+00 2.3243120773527037e+00 3.1171294482425848e-05  1.8495323898522713e+00 2.3252538658805175e+00 -1.9007611158298289e-05  1.8495233516326373e+00 2.3260866697167146e+00 5.6672888675215193e-06  1.8494937636581954e+00 2.3268016085438075e+00 8.8228380689488176e-06  1.8494428464067412e+00 2.3274003621516148e+00 -2.5373300018194999e-05  1.8493935957477108e+00 2.3279677298469692e+00 4.1768828820179572e-05  1.8493333287649243e+00 2.3283563667351448e+00 -6.0544730627654462e-05  1.8492594115928325e+00 2.3288305202615072e+00 7.8596582222869123e-05  1.8492086130396592e+00 2.3290758279650130e+00 -9.8069619426261720e-05  1.8491310102569714e+00 2.3294726320180885e+00 1.1578033393377316e-04  1.8490752831639437e+0