<?xml version="1.0"?>
<VTKFile type="UnstructuredGrid"  version="0.1"  >
<UnstructuredGrid>
<Piece  NumberOfPoints="8241" NumberOfCells="16000">
<Points>
<DataArray  type="Float64"  NumberOfComponents="3"  format="ascii">-5 -1 0  -4.95 -1 0  -4.9 -1 0  -4.85 -1 0  -4.8 -1 0  -4.75 -1 0  -4.7 -1 0  -4.65 -1 0  -4.6 -1 0  -4.55 -1 0  -4.5 -1 0  -4.45 -1 0  -4.4 -1 0  -4.35 -1 0  -4.3 -1 0  -4.25 -1 0  -4.2 -1 0  -4.15 -1 0  -4.1 -1 0  -4.05 -1 0  -4 -1 0  -3.95 -1 0  -3.9 -1 0  -3.85 -1 0  -3.8 -1 0  -3.75 -1 0  -3.7 -1 0  -3.65 -1 0  -3.6 -1 0  -3.55 -1 0  -3.5 -1 0  -3.45 -1 0  -3.4 -1 0  -3.35 -1 0  -3.3 -1 0  -3.25 -1 0  -3.2 -1 0  -3.15 -1 0  -3.1 -1 0  -3.05 -1 0  -3 -1 0  -2.95 -1 0  -2.9 -1 0  -2.85 -1 0  -2.8 -1 0  -2.75 -1 0  -2.7 -1 0  -2.65 -1 0  -2.6 -1 0  -2.55 -1 0  -2.5 -1 0  -2.45 -1 0  -2.4 -1 0  -2.35 -1 0  -2.3 -1 0  -2.25 -1 0  -2.2 -1 0  -2.15 -1 0  -2.1 -1 0  -2.05 -1 0  -2 -1 0  -1.95 -1 0  -1.9 -1 0  -1.85 -1 0  -1.8 -1 0  -1.75 -1 0  -1.7 -1 0  -1.65 -1 0  -1.6 -1 0  -1.55 -1 0  -1.5 -1 0  -1.45 -1 0  -1.4 -1 0  -1.35 -1 0  -1.3 -1 0  -1.25 -1 0  -1.2 -1 0  -1.15 -1 0  -1.1 -1 0  -1.05 -1 0  -1 -1 0  -0.9500000000000002 -1 0  -0.9000000000000004 -1 0  -0.8499999999999996 -1 0  -0.7999999999999998 -1 0  -0.75 -1 0  -0.7000000000000002 -1 0  -0.6500000000000004 -1 0  -0.5999999999999996 -1 0  -0.5499999999999998 -1 0  -0.5 -1 0  -0.4500000000000002 -1 0  -0.4000000000000004 -1 0  -0.3499999999999996 -1 0  -0.2999999999999998 -1 0  -0.25 -1 0  -0.2000000000000002 -1 0  -0.1500000000000004 -1 0  -0.09999999999999964 -1 0  -0.04999999999999982 -1 0  0 -1 0  0.04999999999999982 -1 0  0.09999999999999964 -1 0  0.1500000000000004 -1 0  0.2000000000000002 -1 0  0.25 -1 0  0.2999999999999998 -1 0  0.3499999999999996 -1 0  0.4000000000000004 -1 0  0.4500000000000002 -1 0  0.5 -1 0  0.5499999999999998 -1 0  0.5999999999999996 -1 0  0.6500000000000004 -1 0  0.7000000000000002 -1 0  0.75 -1 0  0.7999999999999998 -1 0  0.8499999999999996 -1 0  0.9000000000000004 -1 0  0.9500000000000002 -1 0  1 -1 0  1.05 -1 0  1.1 -1 0  1.15 -1 0  1.2 -1 0  1.25 -1 0  1.3 -1 0  1.35 -1 0  1.4 -1 0  1.45 -1 0  1.5 -1 0  1.55 -1 0  1.6 -1 0  1.65 -1 0  1.7 -1 0  1.75 -1 0  1.8 -1 0  1.85 -1 0  1.9 -1 0  1.95 -1 0  2 -1 0  2.05 -1 0  2.1 -1 0  2.15 -1 0  2.2 -1 0  2.25 -1 0  2.3 -1 0  2.35 -1 0  2.4 -1 0  2.45 -1 0  2.5 -1 0  2.55 -1 0  2.6 -1 0  2.65 -1 0  2.7 -1 0  2.75 -1 0  2.8 -1 0  2.85 -1 0  2.9 -1 0  2.95 -1 0  3 -1 0  3.050000000000001 -1 0  3.1 -1 0  3.15 -1 0  3.199999999999999 -1 0  3.25 -1 0  3.300000000000001 -1 0  3.35 -1 0  3.4 -1 0  3.449999999999999 -1 0  3.5 -1 0  3.550000000000001 -1 0  3.6 -1 0  3.65 -1 0  3.699999999999999 -1 0  3.75 -1 0  3.800000000000001 -1 0  3.85 -1 0  3.9 -1 0  3.949999999999999 -1 0  4 -1 0  4.050000000000001 -1 0  4.1 -1 0  4.15 -1 0  4.199999999999999 -1 0  4.25 -1 0  4.300000000000001 -1 0  4.35 -1 0  4.4 -1 0  4.449999999999999 -1 0  4.5 -1 0  4.550000000000001 -1 0  4.6 -1 0  4.65 -1 0  4.699999999999999 -1 0  4.75 -1 0  4.800000000000001 -1 0  4.85 -1 0  4.9 -1 0  4.949999999999999 -1 0  5 -1 0  -5 -0.95 0  -4.95 -0.95 0  -4.9 -0.95 0  -4.85 -0.95 0  -4.8 -0.95 0  -4.75 -0.95 0  -4.7 -0.95 0  -4.65 -0.95 0  -4.6 -0.95 0  -4.55 -0.95 0  -4.5 -0.95 0  -4.45 -0.95 0  -4.4 -0.95 0  -4.35 -0.95 0  -4.3 -0.95 0  -4.25 -0.95 0  -4.2 -0.95 0  -4.15 -0.95 0  -4.1 -0.95 0  -4.05 -0.95 0  -4 -0.95 0  -3.95 -0.95 0  -3.9 -0.95 0  -3.85 -0.95 0  -3.8 -0.95 0  -3.75 -0.95 0  -3.7 -0.95 0  -3.65 -0.95 0  -3.6 -0.95 0  -3.55 -0.95 0  -3.5 -0.95 0  -3.45 -0.95 0  -3.4 -0.95 0  -3.35 -0.95 0  -3.3 -0.95 0  -3.25 -0.95 0  -3.2 -0.95 0  -3.15 -0.95 0  -3.1 -0.95 0  -3.05 -0.95 0  -3 -0.95 0  -2.95 -0.95 0  -2.9 -0.95 0  -2.85 -0.95 0  -2.8 -0.95 0  -2.75 -0.95 0  -2.7 -0.95 0  -2.65 -0.95 0  -2.6 -0.95 0  -2.55 -0.95 0  -2.5 -0.95 0  -2.45 -0.95 0  -2.4 -0.95 0  -2.35 -0.95 0  -2.3 -0.95 0  -2.25 -0.95 0  -2.2 -0.95 0  -2.15 -0.95 0  -2.1 -0.95 0  -2.05 -0.95 0  -2 -0.95 0  -1.95 -0.95 0  -1.9 -0.95 0  -1.85 -0.95 0  -1.8 -0.95 0  -1.75 -0.95 0  -1.7 -0.95 0  -1.65 -0.95 0  -1.6 -0.95 0  -1.55 -0.95 0  -1.5 -0.95 0  -1.45 -0.95 0  -1.4 -0.95 0  -1.35 -0.95 0  -1.3 -0.95 0  -1.25 -0.95 0  -1.2 -0.95 0  -1.15 -0.95 0  -1.1 -0.95 0  -1.05 -0.95 0  -1 -0.95 0  -0.9500000000000002 -0.95 0  -0.9000000000000004 -0.95 0  -0.8499999999999996 -0.95 0  -0.7999999999999998 -0.95 0  -0.75 -0.95 0  -0.7000000000000002 -0.95 0  -0.6500000000000004 -0.95 0  -0.5999999999999996 -0.95 0  -0.5499999999999998 -0.95 0  -0.5 -0.95 0  -0.4500000000000002 -0.95 0  -0.4000000000000004 -0.95 0  -0.3499999999999996 -0.95 0  -0.2999999999999998 -0.95 0  -0.25 -0.95 0  -0.2000000000000002 -0.95 0  -0.1500000000000004 -0.95 0  -0.09999999999999964 -0.95 0  -0.04999999999999982 -0.95 0  0 -0.95 0  0.04999999999999982 -0.95 0  0.09999999999999964 -0.95 0  0.1500000000000004 -0.95 0  0.2000000000000002 -0.95 0  0.25 -0.95 0  0.2999999999999998 -0.95 0  0.3499999999999996 -0.95 0  0.4000000000000004 -0.95 0  0.4500000000000002 -0.95 0  0.5 -0.95 0  0.5499999999999998 -0.95 0  0.5999999999999996 -0.95 0  0.6500000000000004 -0.95 0  0.7000000000000002 -0.95 0  0.75 -0.95 0  0.7999999999999998 -0.95 0  0.8499999999999996 -0.95 0  0.9000000000000004 -0.95 0  0.9500000000000002 -0.95 0  1 -0.95 0  1.05 -0.95 0  1.1 -0.95 0  1.15 -0.95 0  1.2 -0.95 0  1.25 -0.95 0  1.3 -0.95 0  1.35 -0.95 0  1.4 -0.95 0  1.45 -0.95 0  1.5 -0.95 0  1.55 -0.95 0  1.6 -0.95 0  1.65 -0.95 0  1.7 -0.95 0  1.75 -0.95 0  1.8 -0.95 0  1.85 -0.95 0  1.9 -0.95 0  1.95 -0.95 0  2 -0.95 0  2.05 -0.95 0  2.1 -0.95 0  2.15 -0.95 0  2.2 -0.95 0  2.25 -0.95 0  2.3 -0.95 0  2.35 -0.95 0  2.4 -0.95 0  2.45 -0.95 0  2.5 -0.95 0  2.55 -0.95 0  2.6 -0.95 0  2.65 -0.95 0  2.7 -0.95 0  2.75 -0.95 0  2.8 -0.95 0  2.85 -0.95 0  2.9 -0.95 0  2.95 -0.95 0  3 -0.95 0  3.050000000000001 -0.95 0  3.1 -0.95 0  3.15 -0.95 0  3.199999999999999 -0.95 0  3.25 -0.95 0  3.300000000000001 -0.95 0  3.35 -0.95 0  3.4 -0.95 0  3.449999999999999 -0.95 0  3.5 -0.95 0  3.550000000000001 -0.95 0  3.6 -0.95 0  3.65 -0.95 0  3.699999999999999 -0.95 0  3.75 -0.95 0  3.800000000000001 -0.95 0  3.85 -0.95 0  3.9 -0.95 0  3.949999999999999 -0.95 0  4 -0.95 0  4.050000000000001 -0.95 0  4.1 -0.95 0  4.15 -0.95 0  4.199999999999999 -0.95 0  4.25 -0.95 0  4.300000000000001 -0.95 0  4.35 -0.95 0  4.4 -0.95 0  4.449999999999999 -0.95 0  4.5 -0.95 0  4.550000000000001 -0.95 0  4.6 -0.95 0  4.65 -0.95 0  4.699999999999999 -0.95 0  4.75 -0.95 0  4.800000000000001 -0.95 0  4.85 -0.95 0  4.9 -0.95 0  4.949999999999999 -0.95 0  5 -0.95 0  -5 -0.9 0  -4.95 -0.9 0  -4.9 -0.9 0  -4.85 -0.9 0  -4.8 -0.9 0  -4.75 -0.9 0  -4.7 -0.9 0  -4.65 -0.9 0  -4.6 -0.9 0  -4.55 -0.9 0  -4.5 -0.9 0  -4.45 -0.9 0  -4.4 -0.9 0  -4.35 -0.9 0  -4.3 -0.9 0  -4.25 -0.9 0  -4.2 -0.9 0  -4.15 -0.9 0  -4.1 -0.9 0  -4.05 -0.9 0  -4 -0.9 0  -3.95 -0.9 0  -3.9 -0.9 0  -3.85 -0.9 0  -3.8 -0.9 0  -3.75 -0.9 0  -3.7 -0.9 0  -3.65 -0.9 0  -3.6 -0.9 0  -3.55 -0.9 0  -3.5 -0.9 0  -3.45 -0.9 0  -3.4 -0.9 0  -3.35 -0.9 0  -3.3 -0.9 0  -3.25 -0.9 0  -3.2 -0.9 0  -3.15 -0.9 0  -3.1 -0.9 0  -3.05 -0.9 0  -3 -0.9 0  -2.95 -0.9 0  -2.9 -0.9 0  -2.85 -0.9 0  -2.8 -0.9 0  -2.75 -0.9 0  -2.7 -0.9 0  -2.65 -0.9 0  -2.6 -0.9 0  -2.55 -0.9 0  -2.5 -0.9 0  -2.45 -0.9 0  -2.4 -0.9 0  -2.35 -0.9 0  -2.3 -0.9 0  -2.25 -0.9 0  -2.2 -0.9 0  -2.15 -0.9 0  -2.1 -0.9 0  -2.05 -0.9 0  -2 -0.9 0  -1.95 -0.9 0  -1.9 -0.9 0  -1.85 -0.9 0  -1.8 -0.9 0  -1.75 -0.9 0  -1.7 -0.9 0  -1.65 -0.9 0  -1.6 -0.9 0  -1.55 -0.9 0  -1.5 -0.9 0  -1.45 -0.9 0  -1.4 -0.9 0  -1.35 -0.9 0  -1.3 -0.9 0  -1.25 -0.9 0  -1.2 -0.9 0  -1.15 -0.9 0  -1.1 -0.9 0  -1.05 -0.9 0  -1 -0.9 0  -0.9500000000000002 -0.9 0  -0.9000000000000004 -0.9 0  -0.8499999999999996 -0.9 0  -0.7999999999999998 -0.9 0  -0.75 -0.9 0  -0.7000000000000002 -0.9 0  -0.6500000000000004 -0.9 0  -0.5999999999999996 -0.9 0  -0.5499999999999998 -0.9 0  -0.5 -0.9 0  -0.4500000000000002 -0.9 0  -0.4000000000000004 -0.9 0  -0.3499999999999996 -0.9 0  -0.2999999999999998 -0.9 0  -0.25 -0.9 0  -0.2000000000000002 -0.9 0  -0.1500000000000004 -0.9 0  -0.09999999999999964 -0.9 0  -0.04999999999999982 -0.9 0  0 -0.9 0  0.04999999999999982 -0.9 0  0.09999999999999964 -0.9 0  0.1500000000000004 -0.9 0  0.2000000000000002 -0.9 0  0.25 -0.9 0  0.2999999999999998 -0.9 0  0.3499999999999996 -0.9 0  0.4000000000000004 -0.9 0  0.4500000000000002 -0.9 0  0.5 -0.9 0  0.5499999999999998 -0.9 0  0.5999999999999996 -0.9 0  0.6500000000000004 -0.9 0  0.7000000000000002 -0.9 0  0.75 -0.9 0  0.7999999999999998 -0.9 0  0.8499999999999996 -0.9 0  0.9000000000000004 -0.9 0  0.9500000000000002 -0.9 0  1 -0.9 0  1.05 -0.9 0  1.1 -0.9 0  1.15 -0.9 0  1.2 -0.9 0  1.25 -0.9 0  1.3 -0.9 0  1.35 -0.9 0  1.4 -0.9 0  1.45 -0.9 0  1.5 -0.9 0  1.55 -0.9 0  1.6 -0.9 0  1.65 -0.9 0  1.7 -0.9 0  1.75 -0.9 0  1.8 -0.9 0  1.85 -0.9 0  1.9 -0.9 0  1.95 -0.9 0  2 -0.9 0  2.05 -0.9 0  2.1 -0.9 0  2.15 -0.9 0  2.2 -0.9 0  2.25 -0.9 0  2.3 -0.9 0  2.35 -0.9 0  2.4 -0.9 0  2.45 -0.9 0  2.5 -0.9 0  2.55 -0.9 0  2.6 -0.9 0  2.65 -0.9 0  2.7 -0.9 0  2.75 -0.9 0  2.8 -0.9 0  2.85 -0.9 0  2.9 -0.9 0  2.95 -0.9 0  3 -0.9 0  3.050000000000001 -0.9 0  3.1 -0.9 0  3.15 -0.9 0  3.199999999999999 -0.9 0  3.25 -0.9 0  3.300000000000001 -0.9 0  3.35 -0.9 0  3.4 -0.9 0  3.449999999999999 -0.9 0  3.5 -0.9 0  3.550000000000001 -0.9 0  3.6 -0.9 0  3.65 -0.9 0  3.699999999999999 -0.9 0  3.75 -0.9 0  3.800000000000001 -0.9 0  3.85 -0.9 0  3.9 -0.9 0  3.949999999999999 -0.9 0  4 -0.9 0  4.050000000000001 -0.9 0  4.1 -0.9 0  4.15 -0.9 0  4.199999999999999 -0.9 0  4.25 -0.9 0  4.300000000000001 -0.9 0  4.35 -0.9 0  4.4 -0.9 0  4.449999999999999 -0.9 0  4.5 -0.9 0  4.550000000000001 -0.9 0  4.6 -0.9 0  4.65 -0.9 0  4.699999999999999 -0.9 0  4.75 -0.9 0  4.800000000000001 -0.9 0  4.85 -0.9 0  4.9 -0.9 0  4.949999999999999 -0.9 0  5 -0.9 0  -5 -0.85 0  -4.95 -0.85 0  -4.9 -0.85 0  -4.85 -0.85 0  -4.8 -0.85 0  -4.75 -0.85 0  -4.7 -0.85 0  -4.65 -0.85 0  -4.6 -0.85 0  -4.55 -0.85 0  -4.5 -0.85 0  -
[...]
<PointData  Vectors="f_15"> 
<DataArray  type="Float64"  Name="f_15"  NumberOfComponents="3" format="ascii">1.8156508944584551e+00 0.0000000000000000e+00 0.0000000000000000e+00  1.8156374826495265e+00 4.1751793861664346e-02 0.0000000000000000e+00  1.8155972856441556e+00 8.3447162869145580e-02 0.0000000000000000e+00  1.8155302752698530e+00 1.2519957264535833e-01 0.0000000000000000e+00  1.8154350864442310e+00 1.6689841651010054e-01 0.0000000000000000e+00  1.8153174774696552e+00 2.0862251435256451e-01 0.0000000000000000e+00  1.8151649113870443e+00 2.5030198258626946e-01 0.0000000000000000e+00  1.8149944576478365e+00 2.9198820012888838e-01 0.0000000000000000e+00  1.8147884908796021e+00 3.3364586559893711e-01 0.0000000000000000e+00  1.8145611452006583e+00 3.7526957426748786e-01 0.0000000000000000e+00  1.8143003742253845e+00 4.1689740196441871e-01 0.0000000000000000e+00  1.8140182802231219e+00 4.5844926817174425e-01 0.0000000000000000e+00  1.8137005552374523e+00 5.0003591247384704e-01 0.0000000000000000e+00  1.8133588105592611e+00 5.4149092260248655e-01 0.0000000000000000e+00  1.8129899234443019e+00 5.8302755144286844e-01 0.0000000000000000e+00  1.8125817560947821e+00 6.2439727701338010e-01 0.0000000000000000e+00  1.8121610320926431e+00 6.6580909367655372e-01 0.0000000000000000e+00  1.8116868781008730e+00 7.0713334025473018e-01 0.0000000000000000e+00  1.8112134121021539e+00 7.4840500531906318e-01 0.0000000000000000e+00  1.8106649012588421e+00 7.8958900435612300e-01 0.0000000000000000e+00  1.8101471954859381e+00 8.3080951985662832e-01 0.0000000000000000e+00  1.8095145042231642e+00 8.7177311463166607e-01 0.0000000000000000e+00  1.8089528203278362e+00 9.1289652050871517e-01 0.0000000000000000e+00  1.8082350511453928e+00 9.5368484394948838e-01 0.0000000000000000e+00  1.8076290674996556e+00 9.9466273597741017e-01 0.0000000000000000e+00  1.8068167512322548e+00 1.0351911017551898e+00 0.0000000000000000e+00  1.8061746126781584e+00 1.0760908287588618e+00 0.0000000000000000e+00  1.8052591712342736e+00 1.1162871478968561e+00 0.0000000000000000e+00  1.8045793990963015e+00 1.1570360945990101e+00 0.0000000000000000e+00  1.8035620146894722e+00 1.1969305278663169e+00 0.0000000000000000e+00  1.8028425777853077e+00 1.2374869724981290e+00 0.0000000000000000e+00  1.8017184720970971e+00 1.2769712567986877e+00 0.0000000000000000e+00  1.8009632563528779e+00 1.3173607977574788e+00 0.0000000000000000e+00  1.7997317681828198e+00 1.3563861285136265e+00 0.0000000000000000e+00  1.7989365469987282e+00 1.3964915620003171e+00 0.0000000000000000e+00  1.7976065932678378e+00 1.4350579963041834e+00 0.0000000000000000e+00  1.7967688099764807e+00 1.4748158107560569e+00 0.0000000000000000e+00  1.7953486794321578e+00 1.5128040269974505e+00 0.0000000000000000e+00  1.7944709146671864e+00 1.5521566106039117e+00 0.0000000000000000e+00  1.7929783182666372e+00 1.5895121431362267e+00 0.0000000000000000e+00  1.7920640904111014e+00 1.6282812167012051e+00 0.0000000000000000e+00  1.7905262539385889e+00 1.6649327397570945e+00 0.0000000000000000e+00  1.7895910650444609e+00 1.7029797329211973e+00 0.0000000000000000e+00  1.7880493207608230e+00 1.7387485247686099e+00 0.0000000000000000e+00  1.7871192461125445e+00 1.7758841503027871e+00 0.0000000000000000e+00  1.7856402490118934e+00 1.8106002420133611e+00 0.0000000000000000e+00  1.7847738104514026e+00 1.8464905676333943e+00 0.0000000000000000e+00  1.7834462465313823e+00 1.8798994197918941e+00 0.0000000000000000e+00  1.7827515814879533e+00 1.9141762190384763e+00 0.0000000000000000e+00  1.7817255795505780e+00 1.9458119380951515e+00 0.0000000000000000e+00  1.7813532466507640e+00 1.9779433736179413e+00 0.0000000000000000e+00  1.7808592749504575e+00 2.0072608469212523e+00 0.0000000000000000e+00  1.7810502717981780e+00 2.0364617396661457e+00 0.0000000000000000e+00  1.7813585478516250e+00 2.0627094239596375e+00 0.0000000000000000e+00  1.7824242502362415e+00 2.0881815556000687e+00 0.0000000000000000e+00  1.7838220069630968e+00 2.1105251008300261e+00 0.0000000000000000e+00  1.7859571857959853e+00 2.1316163704575146e+00 0.0000000000000000e+00  1.7885767468797411e+00 2.1497855223760798e+00 0.0000000000000000e+00  1.7916955189920671e+00 2.1664628709796143e+00 0.0000000000000000e+00  1.7952442986914525e+00 2.1809990933136043e+00 0.0000000000000000e+00  1.7989355540319796e+00 2.1942759446878330e+00 0.0000000000000000e+00  1.8028543117822635e+00 2.2062614880421294e+00 0.0000000000000000e+00  1.8065509497819814e+00 2.2173036768961776e+00 0.0000000000000000e+00  1.8104248465691630e+00 2.2278221216215703e+00 0.0000000000000000e+00  1.8137671842282714e+00 2.2372142561113275e+00 0.0000000000000000e+00  1.8173603182568239e+00 2.2466845915186231e+00 0.0000000000000000e+00  1.8202894459683028e+00 2.2547965002999244e+00 0.0000000000000000e+00  1.8234953414981099e+00 2.2631578304840101e+00 0.0000000000000000e+00  1.8259816155234634e+00 2.2700800142460076e+00 0.0000000000000000e+00  1.8288474333896825e+00 2.2774698507531772e+00 0.0000000000000000e+00  1.8308501126360950e+00 2.2830921455775255e+00 0.0000000000000000e+00  1.8333690306944896e+00 2.2895620917604900e+00 0.0000000000000000e+00  1.8349816905790639e+00 2.2941145251660360e+00 0.0000000000000000e+00  1.8370924201010994e+00 2.2994939071267315e+00 0.0000000000000000e+00  1.8383593016824822e+00 2.3031699067154752e+00 0.0000000000000000e+00  1.8401469142110582e+00 2.3076372352000623e+00 0.0000000000000000e+00  1.8410315138135644e+00 2.3103489595432722e+00 0.0000000000000000e+00  1.8425451766302954e+00 2.3140957667844546e+00 0.0000000000000000e+00  1.8431573484806467e+00 2.3160771506019113e+00 0.0000000000000000e+00  1.8443453950829372e+00 2.3189684544297244e+00 0.0000000000000000e+00  1.8447676336347199e+00 2.3205072844962173e+00 0.0000000000000000e+00  1.8457226975194976e+00 2.3227198138210396e+00 0.0000000000000000e+00  1.8459108253654757e+00 2.3236978981745859e+00 0.0000000000000000e+00  1.8467224716103545e+00 2.3255409706232899e+00 0.0000000000000000e+00  1.8467586352341105e+00 2.3260897179455853e+00 0.0000000000000000e+00  1.8473796055053813e+00 2.3274354050590631e+00 0.0000000000000000e+00  1.8473582560560280e+00 2.3278704775383559e+00 0.0000000000000000e+00  1.8478475046668421e+00 2.3288156817552732e+00 0.0000000000000000e+00  1.8477156486235706e+00 2.3289842941080150e+00 0.0000000000000000e+00  1.8481733256919528e+00 2.3298401680136367e+00 0.0000000000000000e+00  1.8479644582114110e+00 2.3297905361699009e+00 0.0000000000000000e+00  1.8483337789893406e+00 2.3304010992300577e+00 0.0000000000000000e+00  1.8481457176895473e+00 2.3304147432185633e+00 0.0000000000000000e+00  1.8484370225160460e+00 2.3308078129801735e+00 0.0000000000000000e+00  1.8482135025127138e+00 2.3307229055047034e+00 0.0000000000000000e+00  1.8485203879638834e+00 2.3311303491494408e+00 0.0000000000000000e+00  1.8482612206112767e+00 2.3309731685962780e+00 0.0000000000000000e+00  1.8485197058097094e+00 2.3312339404540272e+00 0.0000000000000000e+00  1.8483163072551321e+00 2.3312023401450626e+00 0.0000000000000000e+00  1.8485140968525582e+00 2.3313266644533130e+00 0.0000000000000000e+00  1.8483157206859138e+00 2.3312805679593271e+00 0.0000000000000000e+00  1.8485223839314409e+00 2.3314213552693870e+00 0.0000000000000000e+00  1.8483225085849111e+00 2.3313682811512515e+00 0.0000000000000000e+00  1.8484862279142023e+00 2.3314198976757798e+00 0.0000000000000000e+00  1.8483490639939941e+00 2.3314666482067139e+00 0.0000000000000000e+00  1.8484570929841708e+00 2.3314217535384953e+00 0.0000000000000000e+00  1.8483469940440669e+00 2.3315066292006676e+00 0.0000000000000000e+00  1.8484445223381702e+00 2.3314524748651566e+00 0.0000000000000000e+00  1.8483473806415567e+00 2.3315174332677935e+00 0.0000000000000000e+00  1.8484144674651637e+00 2.3314719470682106e+00 0.0000000000000000e+00  1.8483673373390519e+00 2.3315523520558332e+00 0.0000000000000000e+00  1.8483769131858181e+00 2.3314389577174572e+00 0.0000000000000000e+00  1.8483746848429774e+00 2.3316137442564058e+00 0.0000000000000000e+00  1.8483680341390711e+00 2.3314309668190929e+00 0.0000000000000000e+00  1.8483601156819756e+00 2.3315852877693182e+00 0.0000000000000000e+00  1.8483552286204648e+00 2.3314986822235957e+00 0.0000000000000000e+00  1.8483765495296947e+00 2.3315520568042585e+00 0.0000000000000000e+00  1.8483120824007664e+00 2.3314957204695821e+00 0.0000000000000000e+00  1.8483919523938162e+00 2.3315876437063294e+00 0.0000000000000000e+00  1.8483092183512144e+00 2.3314713350917522e+00 0.0000000000000000e+00  1.8483608851312703e+00 2.3315956485182392e+00 0.0000000000000000e+00  1.8483175729607777e+00 2.3314751707807195e+00 0.0000000000000000e+00  1.8483637574996057e+00 2.3315888925282344e+00 0.0000000000000000e+00  1.8482823417525969e+00 2.3314979259843476e+00 0.0000000000000000e+00  1.8483804293551356e+00 2.3315140557884515e+00 0.0000000000000000e+00  1.8482713158652353e+00 2.3316316044487033e+00 0.0000000000000000e+00  1.8483588153937063e+00 2.3313496676344423e+00 0.0000000000000000e+00  1.8482872804346173e+00 2.3317233612007682e+00 0.0000000000000000e+00  1.8483342219800794e+00 2.3314086331032389e+00 0.0000000000000000e+00  1.8482837670474355e+00 2.3314646072745604e+00 0.0000000000000000e+00  1.8483411751627166e+00 2.3317812083457503e+00 0.0000000000000000e+00  1.8482545490144084e+00 2.3311199225488215e+00 0.0000000000000000e+00  1.8483519611058563e+00 2.3318709213363911e+00 0.0000000000000000e+00  1.8482487581569393e+00 2.3313893927113676e+00 0.0000000000000000e+00  1.8483238708309917e+00 2.3312590724744582e+00 0.0000000000000000e+00  1.8482681246237003e+00 2.3320997795881313e+00 0.0000000000000000e+00  1.8483159004003169e+00 2.3306923953234970e+00 0.0000000000000000e+00  1.8482180531750503e+00 2.3323231434609721e+00 0.0000000000000000e+00  1.8483813034698853e+00 2.3307800758236095e+00 0.0000000000000000e+00  1.8481564497012195e+00 2.3320151986860753e+00 0.0000000000000000e+00  1.8483786153340036e+00 2.3311234328272552e+00 0.0000000000000000e+00  1.8481916027465941e+00 2.3316852490414672e+00 0.0000000000000000e+00  1.8483375787511767e+00 2.3313824387769029e+00 0.0000000000000000e+00  1.8481733143132792e+00 2.3314592776973155e+00 0.0000000000000000e+00  1.8483558622676401e+00 2.3315745035622251e+00 0.0000000000000000e+00  1.8480703085962720e+00 2.3314960786064565e+00 0.0000000000000000e+00  1.8482143518359073e+00 2.3317177033021053e+00 0.0000000000000000e+00  1.8479123613198416e+00 2.3319385431035080e+00 0.0000000000000000e+00  1.8478338657637550e+00 2.3321363334618801e+00 0.0000000000000000e+00  1.8475708791313170e+00 2.3324253535808204e+00 0.0000000000000000e+00  1.8475840088141242e+00 2.3325289408119705e+00 0.0000000000000000e+00  1.8474288407800998e+00 2.3324955044498537e+00 0.0000000000000000e+00  1.8477862714290425e+00 2.3318343826971115e+00 0.0000000000000000e+00  1.8480812063629553e+00 2.3318203120218528e+00 0.0000000000000000e+00  1.8483451781810825e+00 2.3303785250213087e+00 0.0000000000000000e+00  1.8488002160200101e+00 2.3307621958445739e+00 0.0000000000000000e+00  1.8490521820403205e+00 2.3302270164557246e+00 0.0000000000000000e+00  1.8482941682044680e+00 2.3285656298413087e+00 0.0000000000000000e+00  1.8507162247611384e+00 2.3336386247056726e+00 0.0000000000000000e+00  1.8460408551408254e+00 2.3221574143955541e+00 0.0000000000000000e+00  1.8560423062143456e+00 2.3373975996725478e+00 0.0000000000000000e+00  1.8256936249859042e+00 2.3526900240150677e+00 0.0000000000000000e+00  1.9147551987515179e+00 2.2221671110787184e+00 0.0000000000000000e+00  2.4441700605239678e+00 9.7994176810775435e-01 0.0000000000000000e+00  2.8750229742503906e+00 1.7055703679099177e-01 0.0000000000000000e+00  2.9760754268489524e+00 9.8065059374245062e-03 0.0000000000000000e+00  2.9630781347924731e+00 1.2175171946525461e-02 0.0000000000000000e+00  2.9680010487693234e+00 -5.2678125628307986e-04 0.0000000000000000e+00  2.9723471945179845e+00 -3.0057468008912271e-03 0.0000000000000000e+00  2.9707998966684719e+00 -2.8263692725363212e-03 0.0000000000000000e+00  2.9721189582051935e+00 -6.6165253453139422e-03 0.0000000000000000e+00  2.9727116507423061e+00 -7.9199629134574390e-03 0.0000000000000000e+00  2.9718538798476173e+00 -6.6481616268468232e-03 0.0000000000000000e+00  2.9715294839214375e+00 -7.1262814639145343e-03 0.0000000000000000e+00  2.9719579066836839e+00 -7.8248857682945254e-03 0.0000000000000000e+00  2.9718608372828674e+00 -8.1988844710545808e-03 0.0000000000000000e+00  2.9720258770094024e+00 -8.5734878519087374e-03 0.0000000000000000e+00  2.9717622291469015e+00 -8.2277760592507007e-03 0.0000000000000000e+00  2.9718642183546709e+00 -8.6182103041098045e-03 0.0000000000000000e+00  2.9717451290387724e+00 -8.3498237126794009e-03 0.0000000000000000e+00  2.9719067246141164e+00 -8.7846089465338506e-03 0.0000000000000000e+00  2.9717339838891164e+00 -8.4087524477322647e-03 0.0000000000000000e+00  2.9718673031103173e+00 -8.8452676098578781e-03 0.0000000000000000e+00  2.9717238831696613e+00 -8.3513018028546389e-03 0.0000000000000000e+00  2.9718247834045393e+00 -8.8394249406144494e-03 0.0000000000000000e+00  2.9717347605049160e+00 -8.5300969219547131e-03 0.0000000000000000e+00  2.9718089930844833e+00 -8.6490107788655506e-03 0.0000000000000000e+00  2.9717178234459598e+00 -8.7416820076619082e-03 0.0000000000000000e+00  2.9717913318170579e+00 -8.7466274424660515e-03 0.0000000000000000e+00  2.9717090504365991e+00 -8.4503174914945973e-03 0.0000000000000000e+00  2.9717623953729140e+00 -8.9949166836141483e-03 0.0000000000000000e+00  2.9717162623448941e+00 -8.5456331034542993e-03 0.0000000000000000e+00  2.9717282188161156e+00 -8.6504115236239552e-03 0.0000000000000000e+00  2.9717150476320442e+00 -9.5228868699422601e-03 0.0000000000000000e+00  2.9717110498905748e+00 -8.3705826596280637e-03 0.0000000000000000e+00  2.9717115078286644e+00 -9.4777921871553490e-03 0.0000000000000000e+00  2.9716934857347455e+00 -9.6186614114292211e-03 0.0000000000000000e+00  2.9717300432516107e+00 -8.4557359214493932e-03 0.0000000000000000e+00  2.9716629214970429e+00 -1.4745325641207747e-02 0.0000000000000000e+00  2.9717576300360111e+00 -9.9677283551406273e-03 0.0000000000000000e+00  2.9716600679719920e+00 0.0000000000000000e+00 0.0000000000000000e+00  1.8156545911272426e+00 0.0000000000000000e+00 -1.7188017946570681e-05  1.8156394059410099e+00 4.1735385289547060e-02 1.5514717091140113e-06  1.8156000822910821e+00 8.3475497415171462e-02 7.4089101471664132e-06  1.8155326411132036e+00 1.2520230070197799e-01 -1.7884760601987538e-06  1.8154405078274931e+00 1.6691806247502811e-01 -9.9835006235929079e-07  1.8153176137498381e+00 2.0862935819847742e-01 2.7979196884346712e-06  1.8151713301973189e+00 2.5031705034195484e-01 -3.5246824364255537e-06  1.8149961713872551e+00 2.9200331083563424e-01 3.1179216572996942e-06  1.8147927588049548e+00 3.3364648564030980e-01 -3.1307827468104797e-06  1.8145630553448528e+00 3.7529334235515294e-01 3.0068754897954079e-06  1.8143060304011289e+00 4.1689023424441152e-01 -3.3447767722535629e-06  1.8140182147823660e+00 4.5847831880696360e-01 3.1285602869236862e-06  1.8137048749700784e+00 5.0001063652995881e-01 -2.9619096545701049e-06  1.8133624879501964e+00 5.4153576544025717e-01 1.8116518858811309e-06  1.8129887802650162e+00 5.8299734687765692e-01 1.3190558694869815e-07  1.8125886421801589e+00 6.2441217764363899e-01 -4.4078733820176615e-06  1.8121579751231569e+00 6.6582435913579197e-01 1.0767484361290041e-05  1.8116959852054457e+00 7.0711011503341692e-01 -1.9532019141388180e-05  1.8112039907863042e+00 7.4841089038478736e-01 2.8164558580186632e-05  1.8106843389828855e+00 7.8961204960542475e-01 -3.5678745280465583e-05  1.8101259421684111e+00 8.3076100218836080e-01 4.0281929103887673e-05  1.8095440892784138e+00 8.7181181798333596e-01 -4.3314264049200066e-05  1.8089234232154583e+00 9.1286409798631296e-01 4.4800701166323602e-05  1.8082740421144021e+00 9.5371200837213777e-01 -4.7294138209919215e-05  1.8075862925240327e+00 9.9459127064374830e-01 5.1160047619547179e-05  1.8068734773024495e+00 1.0352976241463123e+00 -5.7983927662047165e-05  1.8061132661623205e+00 1.0759469863971913e+00 6.5453824396121747e-05  1.8053326052724488e+00 1.1164186688793500e+00 -7.2875376622843517e-05  1.8045033641265757e+00 1.1568990972634350e+00 7.7893207734483865e-05  1.8036507371936235e+00 1.1970781282236622e+00 -8.1642188966591522e-05  1.8027482164949928e+00 1.2372839050217725e+00 8.3835202579428113e-05  1.8018275271157846e+00 1.2772138933777843e+00 -8.7156060146004066e-05  1.8008488299334628e+00 1.3170890570958012e+00 9.1600744808336551e-05  1.7998579408391833e+00 1.3566547000409244e+00 -9.7975771216260690e-05  1.7988074130924461e+00 1.3962157250740468e+00 1.0249732546451140e-04  1.7977470494709331e+00 1.4353553099766312e+00 -1.0438677306201292e-04  1.7966256253837505e+00 1.4744743461623733e+00 1.0251987521323888e-04  1.7955032361092043e+00 1.5131749083955572e+00 -1.0169260971927657e-04  1.7943173080405945e+00 1.5517721660586741e+00 1.0254045583588136e-04  1.7931413218722898e+00 1.5898868423754835e+00 -1.0569490787358058e-04  1.7919042946606714e+00 1.6279012388317673e+00 1.0659662907899961e-04  1.7906935007463531e+00 1.6653250152327244e+00 -1.0584257834422038e-04  1.7894284820826674e+00 1.7025693280534415e+00 1.0345838027781581e-04  1.7882114007027670e+00 1.7391741997479429e+00 -1.0220935100077566e-04  1.7869616736873997e+00 1.7754772078483596e+00 1.0086945671691435e-04  1.7857925470141924e+00 1.8110003940309620e+00 -1.0173160880021084e-04  1.7846187600892849e+00 1.8461322494293768e+00 1.0261966480542555e-04  1.7835906553632599e+00 1.8802796402881989e+00 -1.0403494321910062e-04  1.7826048444355940e+00 1.9138287447741900e+00 1.0217655980159811e-04  1.7818447274563123e+00 1.9461838754168768e+00 -1.0091173611313462e-04  1.7812306504967022e+00 1.9776575151835074e+00 9.8935292088162319e-05  1.7809502805716386e+00 2.0075550770130484e+00 -9.9297611424505503e-05  1.7809416160721683e+00 2.0362572191514436e+00 9.8769100173011016e-05  1.7814397349353763e+00 2.0629498512501514e+00 -9.8504431390269756e-05  1.7823350185983893e+00 2.0880023660044920e+00 9.7671452443500112e-05  1.7838726354723866e+00 2.1107103222270651e+00 -9.2308243452259042e-05  1.7859188879989014e+00 2.1315245661384532e+00 8.9939384658991895e-05  1.7885880697257079e+00 2.1498344750761209e+00 -8.2473919173628590e-05  1.7916894405460959e+00 2.1664661092357820e+00 8.0511273779017336e-05  1.7952487375117576e+00 2.1809879814093991e+00 -7.5551941087108112e-05  1.7989452674180366e+00 2.1942940327830160e+00 7.1001528783945809e-05  1.8028230466727424e+00 2.2061996971281914e+00 -6.7948759424519412e-05  1.8066135019349305e+00 2.2174481547388574e+00 6.0383845542798702e-05  1.8103275123159268e+00 2.2276165378445003e+00 -5.6032508522011414e-05  1.8138620232787404e+00 2.2374864105038061e+00 5.0845390001300154e-05  1.8172562535039229e+00 2.2464541776583826e+00 -4.7453713032836647e-05  1.8203817243339486e+00 2.2550339023044734e+00 4.6220655860032775e-05  1.8233808245630072e+00 2.2629157931767296e+00 -4.5896229607386512e-05  1.8261273739328301e+00 2.2704004301913434e+00 4.7661429013249198e-05  1.8286724811215365e+00 2.2770720653217409e+00 -5.0033455722147194e-05  1.8310317570282666e+00 2.2835305983348055e+00 5.3345835729479183e-05  1.8331994955774984e+00 2.2891691630960311e+00 -5.8681613546598336e-05  1.8351219628896251e+00 2.2944723446221533e+00 6.5070508126962285e-05  1.8369398789553066e+00 2.2991921624595473e+00 -7.4352471631853467e-05  1.8385154981174596e+00 2.3035594715476879e+00 8.4925983170189417e-05  1.8399408158024633e+00 2.3072270744100285e+00 -9.6539138060980513e-05  1.8412175205375068e+00 2.3108589578492595e+00 1.0815526307603185e-04  1.8423530496168952e+00 2.3136865236090518e+00 -1.1906109425963186e-04  1.8432844451111474e+00 2.3164747223584317e+00 1.3171750112683859e-04  1.8442034752968930e+00 2.3187061691545212e+00 -1.4353633801900936e-04  1.8448867408300267e+00 2.3208604947652351e+00 1.5871192682910228e-04  1.8455470902529254e+00 2.3223683069698211e+00 -1.7067355486865041e-04  1.846067