<?xml version="1.0"?>
<VTKFile type="UnstructuredGrid"  version="0.1"  >
<UnstructuredGrid>
<Piece  NumberOfPoints="8241" NumberOfCells="16000">
<Points>
<DataArray  type="Float64"  NumberOfComponents="3"  format="ascii">-5 -1 0  -4.95 -1 0  -4.9 -1 0  -4.85 -1 0  -4.8 -1 0  -4.75 -1 0  -4.7 -1 0  -4.65 -1 0  -4.6 -1 0  -4.55 -1 0  -4.5 -1 0  -4.45 -1 0  -4.4 -1 0  -4.35 -1 0  -4.3 -1 0  -4.25 -1 0  -4.2 -1 0  -4.15 -1 0  -4.1 -1 0  -4.05 -1 0  -4 -1 0  -3.95 -1 0  -3.9 -1 0  -3.85 -1 0  -3.8 -1 0  -3.75 -1 0  -3.7 -1 0  -3.65 -1 0  -3.6 -1 0  -3.55 -1 0  -3.5 -1 0  -3.45 -1 0  -3.4 -1 0  -3.35 -1 0  -3.3 -1 0  -3.25 -1 0  -3.2 -1 0  -3.15 -1 0  -3.1 -1 0  -3.05 -1 0  -3 -1 0  -2.95 -1 0  -2.9 -1 0  -2.85 -1 0  -2.8 -1 0  -2.75 -1 0  -2.7 -1 0  -2.65 -1 0  -2.6 -1 0  -2.55 -1 0  -2.5 -1 0  -2.45 -1 0  -2.4 -1 0  -2.35 -1 0  -2.3 -1 0  -2.25 -1 0  -2.2 -1 0  -2.15 -1 0  -2.1 -1 0  -2.05 -1 0  -2 -1 0  -1.95 -1 0  -1.9 -1 0  -1.85 -1 0  -1.8 -1 0  -1.75 -1 0  -1.7 -1 0  -1.65 -1 0  -1.6 -1 0  -1.55 -1 0  -1.5 -1 0  -1.45 -1 0  -1.4 -1 0  -1.35 -1 0  -1.3 -1 0  -1.25 -1 0  -1.2 -1 0  -1.15 -1 0  -1.1 -1 0  -1.05 -1 0  -1 -1 0  -0.9500000000000002 -1 0  -0.9000000000000004 -1 0  -0.8499999999999996 -1 0  -0.7999999999999998 -1 0  -0.75 -1 0  -0.7000000000000002 -1 0  -0.6500000000000004 -1 0  -0.5999999999999996 -1 0  -0.5499999999999998 -1 0  -0.5 -1 0  -0.4500000000000002 -1 0  -0.4000000000000004 -1 0  -0.3499999999999996 -1 0  -0.2999999999999998 -1 0  -0.25 -1 0  -0.2000000000000002 -1 0  -0.1500000000000004 -1 0  -0.09999999999999964 -1 0  -0.04999999999999982 -1 0  0 -1 0  0.04999999999999982 -1 0  0.09999999999999964 -1 0  0.1500000000000004 -1 0  0.2000000000000002 -1 0  0.25 -1 0  0.2999999999999998 -1 0  0.3499999999999996 -1 0  0.4000000000000004 -1 0  0.4500000000000002 -1 0  0.5 -1 0  0.5499999999999998 -1 0  0.5999999999999996 -1 0  0.6500000000000004 -1 0  0.7000000000000002 -1 0  0.75 -1 0  0.7999999999999998 -1 0  0.8499999999999996 -1 0  0.9000000000000004 -1 0  0.9500000000000002 -1 0  1 -1 0  1.05 -1 0  1.1 -1 0  1.15 -1 0  1.2 -1 0  1.25 -1 0  1.3 -1 0  1.35 -1 0  1.4 -1 0  1.45 -1 0  1.5 -1 0  1.55 -1 0  1.6 -1 0  1.65 -1 0  1.7 -1 0  1.75 -1 0  1.8 -1 0  1.85 -1 0  1.9 -1 0  1.95 -1 0  2 -1 0  2.05 -1 0  2.1 -1 0  2.15 -1 0  2.2 -1 0  2.25 -1 0  2.3 -1 0  2.35 -1 0  2.4 -1 0  2.45 -1 0  2.5 -1 0  2.55 -1 0  2.6 -1 0  2.65 -1 0  2.7 -1 0  2.75 -1 0  2.8 -1 0  2.85 -1 0  2.9 -1 0  2.95 -1 0  3 -1 0  3.050000000000001 -1 0  3.1 -1 0  3.15 -1 0  3.199999999999999 -1 0  3.25 -1 0  3.300000000000001 -1 0  3.35 -1 0  3.4 -1 0  3.449999999999999 -1 0  3.5 -1 0  3.550000000000001 -1 0  3.6 -1 0  3.65 -1 0  3.699999999999999 -1 0  3.75 -1 0  3.800000000000001 -1 0  3.85 -1 0  3.9 -1 0  3.949999999999999 -1 0  4 -1 0  4.050000000000001 -1 0  4.1 -1 0  4.15 -1 0  4.199999999999999 -1 0  4.25 -1 0  4.300000000000001 -1 0  4.35 -1 0  4.4 -1 0  4.449999999999999 -1 0  4.5 -1 0  4.550000000000001 -1 0  4.6 -1 0  4.65 -1 0  4.699999999999999 -1 0  4.75 -1 0  4.800000000000001 -1 0  4.85 -1 0  4.9 -1 0  4.949999999999999 -1 0  5 -1 0  -5 -0.95 0  -4.95 -0.95 0  -4.9 -0.95 0  -4.85 -0.95 0  -4.8 -0.95 0  -4.75 -0.95 0  -4.7 -0.95 0  -4.65 -0.95 0  -4.6 -0.95 0  -4.55 -0.95 0  -4.5 -0.95 0  -4.45 -0.95 0  -4.4 -0.95 0  -4.35 -0.95 0  -4.3 -0.95 0  -4.25 -0.95 0  -4.2 -0.95 0  -4.15 -0.95 0  -4.1 -0.95 0  -4.05 -0.95 0  -4 -0.95 0  -3.95 -0.95 0  -3.9 -0.95 0  -3.85 -0.95 0  -3.8 -0.95 0  -3.75 -0.95 0  -3.7 -0.95 0  -3.65 -0.95 0  -3.6 -0.95 0  -3.55 -0.95 0  -3.5 -0.95 0  -3.45 -0.95 0  -3.4 -0.95 0  -3.35 -0.95 0  -3.3 -0.95 0  -3.25 -0.95 0  -3.2 -0.95 0  -3.15 -0.95 0  -3.1 -0.95 0  -3.05 -0.95 0  -3 -0.95 0  -2.95 -0.95 0  -2.9 -0.95 0  -2.85 -0.95 0  -2.8 -0.95 0  -2.75 -0.95 0  -2.7 -0.95 0  -2.65 -0.95 0  -2.6 -0.95 0  -2.55 -0.95 0  -2.5 -0.95 0  -2.45 -0.95 0  -2.4 -0.95 0  -2.35 -0.95 0  -2.3 -0.95 0  -2.25 -0.95 0  -2.2 -0.95 0  -2.15 -0.95 0  -2.1 -0.95 0  -2.05 -0.95 0  -2 -0.95 0  -1.95 -0.95 0  -1.9 -0.95 0  -1.85 -0.95 0  -1.8 -0.95 0  -1.75 -0.95 0  -1.7 -0.95 0  -1.65 -0.95 0  -1.6 -0.95 0  -1.55 -0.95 0  -1.5 -0.95 0  -1.45 -0.95 0  -1.4 -0.95 0  -1.35 -0.95 0  -1.3 -0.95 0  -1.25 -0.95 0  -1.2 -0.95 0  -1.15 -0.95 0  -1.1 -0.95 0  -1.05 -0.95 0  -1 -0.95 0  -0.9500000000000002 -0.95 0  -0.9000000000000004 -0.95 0  -0.8499999999999996 -0.95 0  -0.7999999999999998 -0.95 0  -0.75 -0.95 0  -0.7000000000000002 -0.95 0  -0.6500000000000004 -0.95 0  -0.5999999999999996 -0.95 0  -0.5499999999999998 -0.95 0  -0.5 -0.95 0  -0.4500000000000002 -0.95 0  -0.4000000000000004 -0.95 0  -0.3499999999999996 -0.95 0  -0.2999999999999998 -0.95 0  -0.25 -0.95 0  -0.2000000000000002 -0.95 0  -0.1500000000000004 -0.95 0  -0.09999999999999964 -0.95 0  -0.04999999999999982 -0.95 0  0 -0.95 0  0.04999999999999982 -0.95 0  0.09999999999999964 -0.95 0  0.1500000000000004 -0.95 0  0.2000000000000002 -0.95 0  0.25 -0.95 0  0.2999999999999998 -0.95 0  0.3499999999999996 -0.95 0  0.4000000000000004 -0.95 0  0.4500000000000002 -0.95 0  0.5 -0.95 0  0.5499999999999998 -0.95 0  0.5999999999999996 -0.95 0  0.6500000000000004 -0.95 0  0.7000000000000002 -0.95 0  0.75 -0.95 0  0.7999999999999998 -0.95 0  0.8499999999999996 -0.95 0  0.9000000000000004 -0.95 0  0.9500000000000002 -0.95 0  1 -0.95 0  1.05 -0.95 0  1.1 -0.95 0  1.15 -0.95 0  1.2 -0.95 0  1.25 -0.95 0  1.3 -0.95 0  1.35 -0.95 0  1.4 -0.95 0  1.45 -0.95 0  1.5 -0.95 0  1.55 -0.95 0  1.6 -0.95 0  1.65 -0.95 0  1.7 -0.95 0  1.75 -0.95 0  1.8 -0.95 0  1.85 -0.95 0  1.9 -0.95 0  1.95 -0.95 0  2 -0.95 0  2.05 -0.95 0  2.1 -0.95 0  2.15 -0.95 0  2.2 -0.95 0  2.25 -0.95 0  2.3 -0.95 0  2.35 -0.95 0  2.4 -0.95 0  2.45 -0.95 0  2.5 -0.95 0  2.55 -0.95 0  2.6 -0.95 0  2.65 -0.95 0  2.7 -0.95 0  2.75 -0.95 0  2.8 -0.95 0  2.85 -0.95 0  2.9 -0.95 0  2.95 -0.95 0  3 -0.95 0  3.050000000000001 -0.95 0  3.1 -0.95 0  3.15 -0.95 0  3.199999999999999 -0.95 0  3.25 -0.95 0  3.300000000000001 -0.95 0  3.35 -0.95 0  3.4 -0.95 0  3.449999999999999 -0.95 0  3.5 -0.95 0  3.550000000000001 -0.95 0  3.6 -0.95 0  3.65 -0.95 0  3.699999999999999 -0.95 0  3.75 -0.95 0  3.800000000000001 -0.95 0  3.85 -0.95 0  3.9 -0.95 0  3.949999999999999 -0.95 0  4 -0.95 0  4.050000000000001 -0.95 0  4.1 -0.95 0  4.15 -0.95 0  4.199999999999999 -0.95 0  4.25 -0.95 0  4.300000000000001 -0.95 0  4.35 -0.95 0  4.4 -0.95 0  4.449999999999999 -0.95 0  4.5 -0.95 0  4.550000000000001 -0.95 0  4.6 -0.95 0  4.65 -0.95 0  4.699999999999999 -0.95 0  4.75 -0.95 0  4.800000000000001 -0.95 0  4.85 -0.95 0  4.9 -0.95 0  4.949999999999999 -0.95 0  5 -0.95 0  -5 -0.9 0  -4.95 -0.9 0  -4.9 -0.9 0  -4.85 -0.9 0  -4.8 -0.9 0  -4.75 -0.9 0  -4.7 -0.9 0  -4.65 -0.9 0  -4.6 -0.9 0  -4.55 -0.9 0  -4.5 -0.9 0  -4.45 -0.9 0  -4.4 -0.9 0  -4.35 -0.9 0  -4.3 -0.9 0  -4.25 -0.9 0  -4.2 -0.9 0  -4.15 -0.9 0  -4.1 -0.9 0  -4.05 -0.9 0  -4 -0.9 0  -3.95 -0.9 0  -3.9 -0.9 0  -3.85 -0.9 0  -3.8 -0.9 0  -3.75 -0.9 0  -3.7 -0.9 0  -3.65 -0.9 0  -3.6 -0.9 0  -3.55 -0.9 0  -3.5 -0.9 0  -3.45 -0.9 0  -3.4 -0.9 0  -3.35 -0.9 0  -3.3 -0.9 0  -3.25 -0.9 0  -3.2 -0.9 0  -3.15 -0.9 0  -3.1 -0.9 0  -3.05 -0.9 0  -3 -0.9 0  -2.95 -0.9 0  -2.9 -0.9 0  -2.85 -0.9 0  -2.8 -0.9 0  -2.75 -0.9 0  -2.7 -0.9 0  -2.65 -0.9 0  -2.6 -0.9 0  -2.55 -0.9 0  -2.5 -0.9 0  -2.45 -0.9 0  -2.4 -0.9 0  -2.35 -0.9 0  -2.3 -0.9 0  -2.25 -0.9 0  -2.2 -0.9 0  -2.15 -0.9 0  -2.1 -0.9 0  -2.05 -0.9 0  -2 -0.9 0  -1.95 -0.9 0  -1.9 -0.9 0  -1.85 -0.9 0  -1.8 -0.9 0  -1.75 -0.9 0  -1.7 -0.9 0  -1.65 -0.9 0  -1.6 -0.9 0  -1.55 -0.9 0  -1.5 -0.9 0  -1.45 -0.9 0  -1.4 -0.9 0  -1.35 -0.9 0  -1.3 -0.9 0  -1.25 -0.9 0  -1.2 -0.9 0  -1.15 -0.9 0  -1.1 -0.9 0  -1.05 -0.9 0  -1 -0.9 0  -0.9500000000000002 -0.9 0  -0.9000000000000004 -0.9 0  -0.8499999999999996 -0.9 0  -0.7999999999999998 -0.9 0  -0.75 -0.9 0  -0.7000000000000002 -0.9 0  -0.6500000000000004 -0.9 0  -0.5999999999999996 -0.9 0  -0.5499999999999998 -0.9 0  -0.5 -0.9 0  -0.4500000000000002 -0.9 0  -0.4000000000000004 -0.9 0  -0.3499999999999996 -0.9 0  -0.2999999999999998 -0.9 0  -0.25 -0.9 0  -0.2000000000000002 -0.9 0  -0.1500000000000004 -0.9 0  -0.09999999999999964 -0.9 0  -0.04999999999999982 -0.9 0  0 -0.9 0  0.04999999999999982 -0.9 0  0.09999999999999964 -0.9 0  0.1500000000000004 -0.9 0  0.2000000000000002 -0.9 0  0.25 -0.9 0  0.2999999999999998 -0.9 0  0.3499999999999996 -0.9 0  0.4000000000000004 -0.9 0  0.4500000000000002 -0.9 0  0.5 -0.9 0  0.5499999999999998 -0.9 0  0.5999999999999996 -0.9 0  0.6500000000000004 -0.9 0  0.7000000000000002 -0.9 0  0.75 -0.9 0  0.7999999999999998 -0.9 0  0.8499999999999996 -0.9 0  0.9000000000000004 -0.9 0  0.9500000000000002 -0.9 0  1 -0.9 0  1.05 -0.9 0  1.1 -0.9 0  1.15 -0.9 0  1.2 -0.9 0  1.25 -0.9 0  1.3 -0.9 0  1.35 -0.9 0  1.4 -0.9 0  1.45 -0.9 0  1.5 -0.9 0  1.55 -0.9 0  1.6 -0.9 0  1.65 -0.9 0  1.7 -0.9 0  1.75 -0.9 0  1.8 -0.9 0  1.85 -0.9 0  1.9 -0.9 0  1.95 -0.9 0  2 -0.9 0  2.05 -0.9 0  2.1 -0.9 0  2.15 -0.9 0  2.2 -0.9 0  2.25 -0.9 0  2.3 -0.9 0  2.35 -0.9 0  2.4 -0.9 0  2.45 -0.9 0  2.5 -0.9 0  2.55 -0.9 0  2.6 -0.9 0  2.65 -0.9 0  2.7 -0.9 0  2.75 -0.9 0  2.8 -0.9 0  2.85 -0.9 0  2.9 -0.9 0  2.95 -0.9 0  3 -0.9 0  3.050000000000001 -0.9 0  3.1 -0.9 0  3.15 -0.9 0  3.199999999999999 -0.9 0  3.25 -0.9 0  3.300000000000001 -0.9 0  3.35 -0.9 0  3.4 -0.9 0  3.449999999999999 -0.9 0  3.5 -0.9 0  3.550000000000001 -0.9 0  3.6 -0.9 0  3.65 -0.9 0  3.699999999999999 -0.9 0  3.75 -0.9 0  3.800000000000001 -0.9 0  3.85 -0.9 0  3.9 -0.9 0  3.949999999999999 -0.9 0  4 -0.9 0  4.050000000000001 -0.9 0  4.1 -0.9 0  4.15 -0.9 0  4.199999999999999 -0.9 0  4.25 -0.9 0  4.300000000000001 -0.9 0  4.35 -0.9 0  4.4 -0.9 0  4.449999999999999 -0.9 0  4.5 -0.9 0  4.550000000000001 -0.9 0  4.6 -0.9 0  4.65 -0.9 0  4.699999999999999 -0.9 0  4.75 -0.9 0  4.800000000000001 -0.9 0  4.85 -0.9 0  4.9 -0.9 0  4.949999999999999 -0.9 0  5 -0.9 0  -5 -0.85 0  -4.95 -0.85 0  -4.9 -0.85 0  -4.85 -0.85 0  -4.8 -0.85 0  -4.75 -0.85 0  -4.7 -0.85 0  -4.65 -0.85 0  -4.6 -0.85 0  -4.55 -0.85 0  -4.5 -0.85 0  -
[...]
<PointData  Vectors="f_15"> 
<DataArray  type="Float64"  Name="f_15"  NumberOfComponents="3" format="ascii">2.3832267725058274e+00 0.0000000000000000e+00 0.0000000000000000e+00  2.3835496557256977e+00 5.6233500884362138e-02 0.0000000000000000e+00  2.3827533002415797e+00 9.9639735142517533e-02 0.0000000000000000e+00  2.3826770951042757e+00 1.5796400112650877e-01 0.0000000000000000e+00  2.3810081175616560e+00 2.0400720508812070e-01 0.0000000000000000e+00  2.3805512754167695e+00 2.5958401402172887e-01 0.0000000000000000e+00  2.3783857638871009e+00 3.0669390030374732e-01 0.0000000000000000e+00  2.3772728633261058e+00 3.6192645744206570e-01 0.0000000000000000e+00  2.3742928300728772e+00 4.0749310687376783e-01 0.0000000000000000e+00  2.3730904240953992e+00 4.6349826572842845e-01 0.0000000000000000e+00  2.3689334582244079e+00 5.0743206446834765e-01 0.0000000000000000e+00  2.3673879108989002e+00 5.6435617706006180e-01 0.0000000000000000e+00  2.3625111161742263e+00 6.0442833382721739e-01 0.0000000000000000e+00  2.3603377097508691e+00 6.6549835932804691e-01 0.0000000000000000e+00  2.3544610456557358e+00 6.9917581667632944e-01 0.0000000000000000e+00  2.3520107102038841e+00 7.6262772232658194e-01 0.0000000000000000e+00  2.3450989402011873e+00 7.9670644907693178e-01 0.0000000000000000e+00  2.3416772985523311e+00 8.5165841706061662e-01 0.0000000000000000e+00  2.3345998495005666e+00 8.9627552500046237e-01 0.0000000000000000e+00  2.3296309823415844e+00 9.3709665929706620e-01 0.0000000000000000e+00  2.3221671370561547e+00 9.9107778681228320e-01 0.0000000000000000e+00  2.3161352162267272e+00 1.0226934050774510e+00 0.0000000000000000e+00  2.3080501602792425e+00 1.0829435637624367e+00 0.0000000000000000e+00  2.3004851508970723e+00 1.0997978334085350e+00 0.0000000000000000e+00  2.2924642992909177e+00 1.1816865201825224e+00 0.0000000000000000e+00  2.2830806246408080e+00 1.1642374751906477e+00 0.0000000000000000e+00  2.2746954954368350e+00 1.2785695774100967e+00 0.0000000000000000e+00  2.2641566111675582e+00 1.2365010879433391e+00 0.0000000000000000e+00  2.2552693765322629e+00 1.3518680387636004e+00 0.0000000000000000e+00  2.2431697190906630e+00 1.3248091798569772e+00 0.0000000000000000e+00  2.2343274564780726e+00 1.4144277213746854e+00 0.0000000000000000e+00  2.2208735401870330e+00 1.4026826409072026e+00 0.0000000000000000e+00  2.2114147063454155e+00 1.4883658439892240e+00 0.0000000000000000e+00  2.1974978369063551e+00 1.4674264716689778e+00 0.0000000000000000e+00  2.1873133687579052e+00 1.5596773385432585e+00 0.0000000000000000e+00  2.1727227642022808e+00 1.5366595055183090e+00 0.0000000000000000e+00  2.1622791619031725e+00 1.6219111099108783e+00 0.0000000000000000e+00  2.1469900745526576e+00 1.6040637834936187e+00 0.0000000000000000e+00  2.1366250645532077e+00 1.6874494841826984e+00 0.0000000000000000e+00  2.1202642571856538e+00 1.6628992129419085e+00 0.0000000000000000e+00  2.1108962226716366e+00 1.7541013797356677e+00 0.0000000000000000e+00  2.0927497788688081e+00 1.7233350257046556e+00 0.0000000000000000e+00  2.0849003460321884e+00 1.8144316864971617e+00 0.0000000000000000e+00  2.0650599201046456e+00 1.7865446850483757e+00 0.0000000000000000e+00  2.0583615797534036e+00 1.8711565644359160e+00 0.0000000000000000e+00  2.0379847288073756e+00 1.8523302569132880e+00 0.0000000000000000e+00  2.0313298031622034e+00 1.9241066453837095e+00 0.0000000000000000e+00  2.0109041846443940e+00 1.9175105759087105e+00 0.0000000000000000e+00  2.0050055104083468e+00 1.9775994282713707e+00 0.0000000000000000e+00  1.9835069985286118e+00 1.9866464546692479e+00 0.0000000000000000e+00  1.9789914063098371e+00 2.0253768606896934e+00 0.0000000000000000e+00  1.9568200553627026e+00 2.0546811591389580e+00 0.0000000000000000e+00  1.9535437340706601e+00 2.0805537592962429e+00 0.0000000000000000e+00  1.9301253028841299e+00 2.1175967152684505e+00 0.0000000000000000e+00  1.9293572489850515e+00 2.1333950277663929e+00 0.0000000000000000e+00  1.9047558954704187e+00 2.1781824305960078e+00 0.0000000000000000e+00  1.9052370925273479e+00 2.1912298451451488e+00 0.0000000000000000e+00  1.8818955314645611e+00 2.2282180405125067e+00 0.0000000000000000e+00  1.8832898627882844e+00 2.2476858182987267e+00 0.0000000000000000e+00  1.8604862553771673e+00 2.2735088004661304e+00 0.0000000000000000e+00  1.8665840939872924e+00 2.2928271983093169e+00 0.0000000000000000e+00  1.8436375649345251e+00 2.3096493730155778e+00 0.0000000000000000e+00  1.8551160981649553e+00 2.3261636431438180e+00 0.0000000000000000e+00  1.8353348222938475e+00 2.3241521141577772e+00 0.0000000000000000e+00  1.8505905986362092e+00 2.3441985038908877e+00 0.0000000000000000e+00  1.8331052252445230e+00 2.3262367336902328e+00 0.0000000000000000e+00  1.8518825434521384e+00 2.3468359212987506e+00 0.0000000000000000e+00  1.8337670036384845e+00 2.3234456601335491e+00 0.0000000000000000e+00  1.8532834624425063e+00 2.3472024922304993e+00 0.0000000000000000e+00  1.8355210859363300e+00 2.3194698015596265e+00 0.0000000000000000e+00  1.8543769936497707e+00 2.3472466848163527e+00 0.0000000000000000e+00  1.8361340687952654e+00 2.3201121990241167e+00 0.0000000000000000e+00  1.8556465275578202e+00 2.3442739690196759e+00 0.0000000000000000e+00  1.8371114624983096e+00 2.3203823025033241e+00 0.0000000000000000e+00  1.8554839426600935e+00 2.3459262754435546e+00 0.0000000000000000e+00  1.8390057511323501e+00 2.3161510519699728e+00 0.0000000000000000e+00  1.8548798635747004e+00 2.3508402955272607e+00 0.0000000000000000e+00  1.8401557064698146e+00 2.3114441154410850e+00 0.0000000000000000e+00  1.8546689956765832e+00 2.3553201504351171e+00 0.0000000000000000e+00  1.8413380123485126e+00 2.3066890117325642e+00 0.0000000000000000e+00  1.8538276514056065e+00 2.3605139324727409e+00 0.0000000000000000e+00  1.8429572815848374e+00 2.3016570551079862e+00 0.0000000000000000e+00  1.8525597628336345e+00 2.3647557886174364e+00 0.0000000000000000e+00  1.8443682843979197e+00 2.2987959745985935e+00 0.0000000000000000e+00  1.8517248768455148e+00 2.3663067008881447e+00 0.0000000000000000e+00  1.8453128846453872e+00 2.2981059404659092e+00 0.0000000000000000e+00  1.8511637405507591e+00 2.3660736566979512e+00 0.0000000000000000e+00  1.8457630752973317e+00 2.2992054000873017e+00 0.0000000000000000e+00  1.8507581367615564e+00 2.3645442523257438e+00 0.0000000000000000e+00  1.8462365257422266e+00 2.3008943088563236e+00 0.0000000000000000e+00  1.8505417725731619e+00 2.3623029460724423e+00 0.0000000000000000e+00  1.8462426660650018e+00 2.3031689517653544e+00 0.0000000000000000e+00  1.8507781464745146e+00 2.3594681326554010e+00 0.0000000000000000e+00  1.8455456756050295e+00 2.3066387760097999e+00 0.0000000000000000e+00  1.8515251520866545e+00 2.3553793022179654e+00 0.0000000000000000e+00  1.8450365884920716e+00 2.3100445161628866e+00 0.0000000000000000e+00  1.8517514161316333e+00 2.3520819833310771e+00 0.0000000000000000e+00  1.8447146643134085e+00 2.3129685469160828e+00 0.0000000000000000e+00  1.8521367443997077e+00 2.3486677868522263e+00 0.0000000000000000e+00  1.8441154444312744e+00 2.3163583993255599e+00 0.0000000000000000e+00  1.8526907857509527e+00 2.3446570854592772e+00 0.0000000000000000e+00  1.8437735772731096e+00 2.3198310053130693e+00 0.0000000000000000e+00  1.8525814572280654e+00 2.3415109419076487e+00 0.0000000000000000e+00  1.8439952196779155e+00 2.3220487736541382e+00 0.0000000000000000e+00  1.8524027480301186e+00 2.3393186709841527e+00 0.0000000000000000e+00  1.8440706580545025e+00 2.3235620125594592e+00 0.0000000000000000e+00  1.8520564923513529e+00 2.3382088431333230e+00 0.0000000000000000e+00  1.8446445243704210e+00 2.3239412695737585e+00 0.0000000000000000e+00  1.8515020936191389e+00 2.3374281076862342e+00 0.0000000000000000e+00  1.8447963074391440e+00 2.3246579620960457e+00 0.0000000000000000e+00  1.8515536930330163e+00 2.3370001222980679e+00 0.0000000000000000e+00  1.8448092202150366e+00 2.3237789918418259e+00 0.0000000000000000e+00  1.8511731271852849e+00 2.3382565909477839e+00 0.0000000000000000e+00  1.8454202683878340e+00 2.3225298378983514e+00 0.0000000000000000e+00  1.8507367206453973e+00 2.3381847781558083e+00 0.0000000000000000e+00  1.8450495620921834e+00 2.3236184668322943e+00 0.0000000000000000e+00  1.8517739799922184e+00 2.3366879409470553e+00 0.0000000000000000e+00  1.8443173251477685e+00 2.3230573251349553e+00 0.0000000000000000e+00  1.8513771482333239e+00 2.3391452527168313e+00 0.0000000000000000e+00  1.8453094801771457e+00 2.3202939348881046e+00 0.0000000000000000e+00  1.8509653372804284e+00 2.3391157868320782e+00 0.0000000000000000e+00  1.8446183040763338e+00 2.3213650482380710e+00 0.0000000000000000e+00  1.8522433930265014e+00 2.3384734288048326e+00 0.0000000000000000e+00  1.8436105492387109e+00 2.3188635950980285e+00 0.0000000000000000e+00  1.8523734056225454e+00 2.3420130092479687e+00 0.0000000000000000e+00  1.8442087663738140e+00 2.3150993181302586e+00 0.0000000000000000e+00  1.8520717472161234e+00 2.3432118185739554e+00 0.0000000000000000e+00  1.8430151277060522e+00 2.3158089573150740e+00 0.0000000000000000e+00  1.8546120827750077e+00 2.3417804985263255e+00 0.0000000000000000e+00  1.8407111729353782e+00 2.3145828910341057e+00 0.0000000000000000e+00  1.8554078876664657e+00 2.3452531436394413e+00 0.0000000000000000e+00  1.8408352206304217e+00 2.3116941544555836e+00 0.0000000000000000e+00  1.8557762447197870e+00 2.3448725958873244e+00 0.0000000000000000e+00  1.8395789808153207e+00 2.3133361182983663e+00 0.0000000000000000e+00  1.8571229221340084e+00 2.3458142130615935e+00 0.0000000000000000e+00  1.8387160622698284e+00 2.3088208054698653e+00 0.0000000000000000e+00  1.8576561728485352e+00 2.3502105302299157e+00 0.0000000000000000e+00  1.8384457698115519e+00 2.3065446519568860e+00 0.0000000000000000e+00  1.8572193288592218e+00 2.3516159295166914e+00 0.0000000000000000e+00  1.8396414124287641e+00 2.3027637365395828e+00 0.0000000000000000e+00  1.8563380874667459e+00 2.3579324608292218e+00 0.0000000000000000e+00  1.8392415275267451e+00 2.2969501954354654e+00 0.0000000000000000e+00  1.8576155612197067e+00 2.3601067770353414e+00 0.0000000000000000e+00  1.8388342238637636e+00 2.2948032442317019e+00 0.0000000000000000e+00  1.8565525493727684e+00 2.3593167883338682e+00 0.0000000000000000e+00  1.8406929612506424e+00 2.2883920769248305e+00 0.0000000000000000e+00  1.8562298854146475e+00 2.3576246566092820e+00 0.0000000000000000e+00  1.8398600526541740e+00 2.2820800909467422e+00 0.0000000000000000e+00  1.8584947841694011e+00 2.3497014745815461e+00 0.0000000000000000e+00  1.8396740032879972e+00 2.2802758734032218e+00 0.0000000000000000e+00  1.8590835713011193e+00 2.3385949855780206e+00 0.0000000000000000e+00  1.8421003883311882e+00 2.2802751852407357e+00 0.0000000000000000e+00  1.8600233942096647e+00 2.3297604628722048e+00 0.0000000000000000e+00  1.8445015523723314e+00 2.2798543490848973e+00 0.0000000000000000e+00  1.8628573744017674e+00 2.3201152635989257e+00 0.0000000000000000e+00  1.8480530250418943e+00 2.2843256491046877e+00 0.0000000000000000e+00  1.8646567002410923e+00 2.3046486351941704e+00 0.0000000000000000e+00  1.8549728695548262e+00 2.2885542648477681e+00 0.0000000000000000e+00  1.8649347439773412e+00 2.2936047288621033e+00 0.0000000000000000e+00  1.8616196970141554e+00 2.2849800699966414e+00 0.0000000000000000e+00  1.8664667694385313e+00 2.2856383569986156e+00 0.0000000000000000e+00  1.8667682622817743e+00 2.2842908945674387e+00 0.0000000000000000e+00  1.8655256080069558e+00 2.2756948833220974e+00 0.0000000000000000e+00  1.8731346351110585e+00 2.2840674508495376e+00 0.0000000000000000e+00  1.8632922168189054e+00 2.2733957415338359e+00 0.0000000000000000e+00  1.8755841413995094e+00 2.2795069793932110e+00 0.0000000000000000e+00  1.8640247848390226e+00 2.2739387779817410e+00 0.0000000000000000e+00  1.8766253466142555e+00 2.2783377888705347e+00 0.0000000000000000e+00  1.8622274704286232e+00 2.2733221401971555e+00 0.0000000000000000e+00  1.8795792442092112e+00 2.2761327966432816e+00 0.0000000000000000e+00  1.8618955136933260e+00 2.2777186150246318e+00 0.0000000000000000e+00  1.8780751274644241e+00 2.2723207560351351e+00 0.0000000000000000e+00  1.8644902672260115e+00 2.2824815789515238e+00 0.0000000000000000e+00  1.8774802983028367e+00 2.2740885166538640e+00 0.0000000000000000e+00  1.8634669366047887e+00 2.2862005714198212e+00 0.0000000000000000e+00  1.8779298033682741e+00 2.2780457855705833e+00 0.0000000000000000e+00  1.8656946053952406e+00 2.2931363478113065e+00 0.0000000000000000e+00  1.8736054396513664e+00 2.2808250868645015e+00 0.0000000000000000e+00  1.8689423673472494e+00 2.3020411326114973e+00 0.0000000000000000e+00  1.8706220300541645e+00 2.2867210553134929e+00 0.0000000000000000e+00  1.8672035845306842e+00 2.3071978673608453e+00 0.0000000000000000e+00  1.8648038581411426e+00 2.3008983795081948e+00 0.0000000000000000e+00  1.8664910526131193e+00 2.3106425585413382e+00 0.0000000000000000e+00  1.8545926562291830e+00 2.3125569879243701e+00 0.0000000000000000e+00  1.8639930772266597e+00 2.3187165562701995e+00 0.0000000000000000e+00  1.8518242769518944e+00 2.3164666142594386e+00 0.0000000000000000e+00  1.8608615691700168e+00 2.3154384797593623e+00 0.0000000000000000e+00  1.8550142778840910e+00 2.3250240582238364e+00 0.0000000000000000e+00  1.8579167510124994e+00 2.3093678963888919e+00 0.0000000000000000e+00  1.8454723518530181e+00 2.3645349473430430e+00 0.0000000000000000e+00  2.2475254092192785e+00 1.4325218350020690e+00 0.0000000000000000e+00  2.7628338865022761e+00 3.4635915835645681e-01 0.0000000000000000e+00  2.9575500000115973e+00 1.4205917507060411e-02 0.0000000000000000e+00  2.9672131855135642e+00 -3.6686394422031081e-02 0.0000000000000000e+00  2.9706623748880761e+00 -6.6702853749037588e-02 0.0000000000000000e+00  2.9737951815846060e+00 -8.0497401108164321e-02 0.0000000000000000e+00  2.9802088978243431e+00 -6.9249459243201555e-02 0.0000000000000000e+00  2.9720359107817336e+00 -6.6004944578129082e-02 0.0000000000000000e+00  2.9802850972636068e+00 -6.2817489509538693e-02 0.0000000000000000e+00  2.9725847789647237e+00 -4.8258110847210989e-02 0.0000000000000000e+00  2.9791150208508017e+00 0.0000000000000000e+00 0.0000000000000000e+00  2.3826484041048412e+00 0.0000000000000000e+00 -2.4506453404706370e-04  2.3830877632340450e+00 4.9408498840437014e-02 -2.1126882745512864e-03  2.3823276674476679e+00 1.0496929184792013e-01 3.9428381812769524e-03  2.3817110842044258e+00 1.5344558434669095e-01 -3.3703643589866874e-03  2.3806819050581338e+00 2.0732869063066722e-01 2.9623866130713663e-03  2.3796723579825572e+00 2.5664323224517510e-01 -2.7894721864370584e-03  2.3778580479358928e+00 3.1034445283728146e-01 2.8226064035598167e-03  2.3763272631200882e+00 3.5837132605606559e-01 -2.9831926986154667e-03  2.3741834004491258e+00 4.1240480426670845e-01 3.5009543971350901e-03  2.3718718410947455e+00 4.5946842385296877e-01 -4.0865828902563973e-03  2.3690383234522328e+00 5.1351819176010027e-01 4.9000505388529601e-03  2.3665441673136978e+00 5.5843777293622265e-01 -5.9968362106903230e-03  2.3625852539741081e+00 6.1464864001442088e-01 7.4674952668667676e-03  2.3597863061298709e+00 6.5529997909924365e-01 -9.6559968037945431e-03  2.3549092933421485e+00 7.1350152564028746e-01 1.2666934341871484e-02  2.3518762076362467e+00 7.5172419665892998e-01 -1.6732920097873187e-02  2.3453306968125380e+00 8.0980116036368766e-01 2.1501112240671694e-02  2.3429168861428256e+00 8.4452632433089658e-01 -2.6593024186993781e-02  2.3341972422831967e+00 9.0747993410364003e-01 3.1396107092891833e-02  2.3320658010120647e+00 9.3051039180660822e-01 -3.5520821158977325e-02  2.3217926601568681e+00 1.0052408447655741e+00 3.9001996101920809e-02  2.3195574188029449e+00 1.0146256659367150e+00 -4.2145157301364929e-02  2.3073394997728958e+00 1.0957276044876452e+00 4.5244172516865105e-02  2.3056407509556176e+00 1.1018391457470535e+00 -4.8176099774697584e-02  2.2911766181032687e+00 1.1791143684150087e+00 5.0475712729516439e-02  2.2895218470048380e+00 1.1850508578402248e+00 -5.1407913367043832e-02  2.2736191377707851e+00 1.2655965793681831e+00 5.1565270665922813e-02  2.2716437658234185e+00 1.2560130316129328e+00 -5.1582083319856274e-02  2.2540008982138833e+00 1.3554578029667892e+00 5.2562848889879742e-02  2.2522115370885949e+00 1.3243973343597761e+00 -5.3717829712807176e-02  2.2331636373986208e+00 1.4339109656749087e+00 5.3347726817877868e-02  2.2303796196249461e+00 1.4027816242860061e+00 -4.9734616836234917e-02  2.2115933569453987e+00 1.4978533194933814e+00 4.3918191054172051e-02  2.2070279111966982e+00 1.4835191609399971e+00 -3.8731806927212911e-02  2.1883460729498112e+00 1.5620669883723655e+00 3.6843442768827714e-02  2.1830631517075143e+00 1.5528603240646222e+00 -3.8151665752504144e-02  2.1636401886103003e+00 1.6329008267914940e+00 4.0297091540965640e-02  2.1583268889015446e+00 1.6172368608898733e+00 -4.0759646949763494e-02  2.1378144949542053e+00 1.6971552466634350e+00 4.0644728689585741e-02  2.1330639919114658e+00 1.6856383031701705e+00 -4.0894694650496347e-02  2.1110145330747385e+00 1.7611775480065539e+00 4.3415013550846336e-02  2.1073330347401265e+00 1.7438141782758523e+00 -4.5441701228797267e-02  2.0839639510305044e+00 1.8311754604543904e+00 4.6669207260974802e-02  2.0808379145159797e+00 1.8023768271319427e+00 -4.5675830859648790e-02  2.0572703757499817e+00 1.8938004255400573e+00 4.6113836200999132e-02  2.0538291185414557e+00 1.8627484901823179e+00 -4.6587323417251560e-02  2.0303726002439699e+00 1.9577553358489608e+00 4.7725252033451272e-02  2.0272065137149338e+00 1.9215100641620220e+00 -4.5340953347835555e-02  2.0033119167211684e+00 2.0185516382505440e+00 4.2424197801650451e-02  2.0004945767614908e+00 1.9819505211758204e+00 -3.9714455170117118e-02  1.9769781754785227e+00 2.0764326560154078e+00 3.8954103248194677e-02  1.9738371399497618e+00 2.0447436317249288e+00 -3.7855208434302033e-02  1.9507381674841306e+00 2.1306862984567854e+00 3.5017512479781403e-02  1.9479041227499212e+00 2.1053306806744190e+00 -3.2171028295870006e-02  1.9255020750843599e+00 2.1847558943375249e+00 2.9441338090455588e-02  1.9218129140224420e+00 2.1671738323982992e+00 -2.7890768642526452e-02  1.9021196592037777e+00 2.2321371964568666e+00 2.5424750737360211e-02  1.8975076582316381e+00 2.2253164632188907e+00 -2.3942419611171474e-02  1.8794423620310956e+00 2.2797049614968143e+00 2.2053849837556243e-02  1.8773224487441051e+00 2.2725895496050952e+00 -2.1185634980365364e-02  1.8601121166113721e+00 2.3218181537796565e+00 1.9828411394884754e-02  1.8608444048122703e+00 2.3096755494463608e+00 -1.9252445265116401e-02  1.8481817549484796e+00 2.3462599998100293e+00 1.8090099960295113e-02  1.8509944248556671e+00 2.3331421271222355e+00 -1.7209110990643102e-02  1.8430651082459240e+00 2.3557781733456959e+00 1.6226416259832278e-02  1.8491623538872126e+00 2.3359688165711754e+00 -1.5668205102051386e-02  1.8427954822372676e+00 2.3550067710112925e+00 1.4909208319237673e-02  1.8493710404607413e+00 2.3339028685778902e+00 -1.4420263823155912e-02  1.8442645225098182e+00 2.3502833325537811e+00 1.3843497793626574e-02  1.8496224338291114e+00 2.3320826571723545e+00 -1.3305685209575292e-02  1.8445389156519691e+00 2.3480427257362644e+00 1.2504725926144641e-02  1.8503949726415863e+00 2.3284016821691975e+00 -1.1902403887580916e-02  1.8448322065770286e+00 2.3459023640279471e+00 1.1388768394719320e-02  1.8498913583467771e+00 2.3293209666549113e+00 -1.0941152719456379e-02  1.8455909203229823e+00 2.3408477482967185e+00 1.0573762216158321e-02  1.8494251644111277e+00 2.3310907212422483e+00 -1.0349947918547880e-02  1.8453639286732704e+00 2.3382213898218218e+00 1.0173089430360008e-02  1.8498315239506546e+00 2.3303108251540054e+00 -1.0057080968244932e-02  1.8451076404845064e+00 2.3372373764784840e+00 1.0071889124147129e-02  1.8496599477008506e+00 2.3299192132518893e+00 -1.0115236494878745e-02  1.8454098453841861e+00 2.3357901109388330e+00 1.0077944735974939e-02  1.8492844643958215e+00 2.3296420631355770e+00 -9.9107984439969331e-03  1.8456695204238940e+00 2.33539290