<?xml version="1.0"?>
<VTKFile type="UnstructuredGrid"  version="0.1"  >
<UnstructuredGrid>
<Piece  NumberOfPoints="8241" NumberOfCells="16000">
<Points>
<DataArray  type="Float64"  NumberOfComponents="3"  format="ascii">-5 -1 0  -4.95 -1 0  -4.9 -1 0  -4.85 -1 0  -4.8 -1 0  -4.75 -1 0  -4.7 -1 0  -4.65 -1 0  -4.6 -1 0  -4.55 -1 0  -4.5 -1 0  -4.45 -1 0  -4.4 -1 0  -4.35 -1 0  -4.3 -1 0  -4.25 -1 0  -4.2 -1 0  -4.15 -1 0  -4.1 -1 0  -4.05 -1 0  -4 -1 0  -3.95 -1 0  -3.9 -1 0  -3.85 -1 0  -3.8 -1 0  -3.75 -1 0  -3.7 -1 0  -3.65 -1 0  -3.6 -1 0  -3.55 -1 0  -3.5 -1 0  -3.45 -1 0  -3.4 -1 0  -3.35 -1 0  -3.3 -1 0  -3.25 -1 0  -3.2 -1 0  -3.15 -1 0  -3.1 -1 0  -3.05 -1 0  -3 -1 0  -2.95 -1 0  -2.9 -1 0  -2.85 -1 0  -2.8 -1 0  -2.75 -1 0  -2.7 -1 0  -2.65 -1 0  -2.6 -1 0  -2.55 -1 0  -2.5 -1 0  -2.45 -1 0  -2.4 -1 0  -2.35 -1 0  -2.3 -1 0  -2.25 -1 0  -2.2 -1 0  -2.15 -1 0  -2.1 -1 0  -2.05 -1 0  -2 -1 0  -1.95 -1 0  -1.9 -1 0  -1.85 -1 0  -1.8 -1 0  -1.75 -1 0  -1.7 -1 0  -1.65 -1 0  -1.6 -1 0  -1.55 -1 0  -1.5 -1 0  -1.45 -1 0  -1.4 -1 0  -1.35 -1 0  -1.3 -1 0  -1.25 -1 0  -1.2 -1 0  -1.15 -1 0  -1.1 -1 0  -1.05 -1 0  -1 -1 0  -0.9500000000000002 -1 0  -0.9000000000000004 -1 0  -0.8499999999999996 -1 0  -0.7999999999999998 -1 0  -0.75 -1 0  -0.7000000000000002 -1 0  -0.6500000000000004 -1 0  -0.5999999999999996 -1 0  -0.5499999999999998 -1 0  -0.5 -1 0  -0.4500000000000002 -1 0  -0.4000000000000004 -1 0  -0.3499999999999996 -1 0  -0.2999999999999998 -1 0  -0.25 -1 0  -0.2000000000000002 -1 0  -0.1500000000000004 -1 0  -0.09999999999999964 -1 0  -0.04999999999999982 -1 0  0 -1 0  0.04999999999999982 -1 0  0.09999999999999964 -1 0  0.1500000000000004 -1 0  0.2000000000000002 -1 0  0.25 -1 0  0.2999999999999998 -1 0  0.3499999999999996 -1 0  0.4000000000000004 -1 0  0.4500000000000002 -1 0  0.5 -1 0  0.5499999999999998 -1 0  0.5999999999999996 -1 0  0.6500000000000004 -1 0  0.7000000000000002 -1 0  0.75 -1 0  0.7999999999999998 -1 0  0.8499999999999996 -1 0  0.9000000000000004 -1 0  0.9500000000000002 -1 0  1 -1 0  1.05 -1 0  1.1 -1 0  1.15 -1 0  1.2 -1 0  1.25 -1 0  1.3 -1 0  1.35 -1 0  1.4 -1 0  1.45 -1 0  1.5 -1 0  1.55 -1 0  1.6 -1 0  1.65 -1 0  1.7 -1 0  1.75 -1 0  1.8 -1 0  1.85 -1 0  1.9 -1 0  1.95 -1 0  2 -1 0  2.05 -1 0  2.1 -1 0  2.15 -1 0  2.2 -1 0  2.25 -1 0  2.3 -1 0  2.35 -1 0  2.4 -1 0  2.45 -1 0  2.5 -1 0  2.55 -1 0  2.6 -1 0  2.65 -1 0  2.7 -1 0  2.75 -1 0  2.8 -1 0  2.85 -1 0  2.9 -1 0  2.95 -1 0  3 -1 0  3.050000000000001 -1 0  3.1 -1 0  3.15 -1 0  3.199999999999999 -1 0  3.25 -1 0  3.300000000000001 -1 0  3.35 -1 0  3.4 -1 0  3.449999999999999 -1 0  3.5 -1 0  3.550000000000001 -1 0  3.6 -1 0  3.65 -1 0  3.699999999999999 -1 0  3.75 -1 0  3.800000000000001 -1 0  3.85 -1 0  3.9 -1 0  3.949999999999999 -1 0  4 -1 0  4.050000000000001 -1 0  4.1 -1 0  4.15 -1 0  4.199999999999999 -1 0  4.25 -1 0  4.300000000000001 -1 0  4.35 -1 0  4.4 -1 0  4.449999999999999 -1 0  4.5 -1 0  4.550000000000001 -1 0  4.6 -1 0  4.65 -1 0  4.699999999999999 -1 0  4.75 -1 0  4.800000000000001 -1 0  4.85 -1 0  4.9 -1 0  4.949999999999999 -1 0  5 -1 0  -5 -0.95 0  -4.95 -0.95 0  -4.9 -0.95 0  -4.85 -0.95 0  -4.8 -0.95 0  -4.75 -0.95 0  -4.7 -0.95 0  -4.65 -0.95 0  -4.6 -0.95 0  -4.55 -0.95 0  -4.5 -0.95 0  -4.45 -0.95 0  -4.4 -0.95 0  -4.35 -0.95 0  -4.3 -0.95 0  -4.25 -0.95 0  -4.2 -0.95 0  -4.15 -0.95 0  -4.1 -0.95 0  -4.05 -0.95 0  -4 -0.95 0  -3.95 -0.95 0  -3.9 -0.95 0  -3.85 -0.95 0  -3.8 -0.95 0  -3.75 -0.95 0  -3.7 -0.95 0  -3.65 -0.95 0  -3.6 -0.95 0  -3.55 -0.95 0  -3.5 -0.95 0  -3.45 -0.95 0  -3.4 -0.95 0  -3.35 -0.95 0  -3.3 -0.95 0  -3.25 -0.95 0  -3.2 -0.95 0  -3.15 -0.95 0  -3.1 -0.95 0  -3.05 -0.95 0  -3 -0.95 0  -2.95 -0.95 0  -2.9 -0.95 0  -2.85 -0.95 0  -2.8 -0.95 0  -2.75 -0.95 0  -2.7 -0.95 0  -2.65 -0.95 0  -2.6 -0.95 0  -2.55 -0.95 0  -2.5 -0.95 0  -2.45 -0.95 0  -2.4 -0.95 0  -2.35 -0.95 0  -2.3 -0.95 0  -2.25 -0.95 0  -2.2 -0.95 0  -2.15 -0.95 0  -2.1 -0.95 0  -2.05 -0.95 0  -2 -0.95 0  -1.95 -0.95 0  -1.9 -0.95 0  -1.85 -0.95 0  -1.8 -0.95 0  -1.75 -0.95 0  -1.7 -0.95 0  -1.65 -0.95 0  -1.6 -0.95 0  -1.55 -0.95 0  -1.5 -0.95 0  -1.45 -0.95 0  -1.4 -0.95 0  -1.35 -0.95 0  -1.3 -0.95 0  -1.25 -0.95 0  -1.2 -0.95 0  -1.15 -0.95 0  -1.1 -0.95 0  -1.05 -0.95 0  -1 -0.95 0  -0.9500000000000002 -0.95 0  -0.9000000000000004 -0.95 0  -0.8499999999999996 -0.95 0  -0.7999999999999998 -0.95 0  -0.75 -0.95 0  -0.7000000000000002 -0.95 0  -0.6500000000000004 -0.95 0  -0.5999999999999996 -0.95 0  -0.5499999999999998 -0.95 0  -0.5 -0.95 0  -0.4500000000000002 -0.95 0  -0.4000000000000004 -0.95 0  -0.3499999999999996 -0.95 0  -0.2999999999999998 -0.95 0  -0.25 -0.95 0  -0.2000000000000002 -0.95 0  -0.1500000000000004 -0.95 0  -0.09999999999999964 -0.95 0  -0.04999999999999982 -0.95 0  0 -0.95 0  0.04999999999999982 -0.95 0  0.09999999999999964 -0.95 0  0.1500000000000004 -0.95 0  0.2000000000000002 -0.95 0  0.25 -0.95 0  0.2999999999999998 -0.95 0  0.3499999999999996 -0.95 0  0.4000000000000004 -0.95 0  0.4500000000000002 -0.95 0  0.5 -0.95 0  0.5499999999999998 -0.95 0  0.5999999999999996 -0.95 0  0.6500000000000004 -0.95 0  0.7000000000000002 -0.95 0  0.75 -0.95 0  0.7999999999999998 -0.95 0  0.8499999999999996 -0.95 0  0.9000000000000004 -0.95 0  0.9500000000000002 -0.95 0  1 -0.95 0  1.05 -0.95 0  1.1 -0.95 0  1.15 -0.95 0  1.2 -0.95 0  1.25 -0.95 0  1.3 -0.95 0  1.35 -0.95 0  1.4 -0.95 0  1.45 -0.95 0  1.5 -0.95 0  1.55 -0.95 0  1.6 -0.95 0  1.65 -0.95 0  1.7 -0.95 0  1.75 -0.95 0  1.8 -0.95 0  1.85 -0.95 0  1.9 -0.95 0  1.95 -0.95 0  2 -0.95 0  2.05 -0.95 0  2.1 -0.95 0  2.15 -0.95 0  2.2 -0.95 0  2.25 -0.95 0  2.3 -0.95 0  2.35 -0.95 0  2.4 -0.95 0  2.45 -0.95 0  2.5 -0.95 0  2.55 -0.95 0  2.6 -0.95 0  2.65 -0.95 0  2.7 -0.95 0  2.75 -0.95 0  2.8 -0.95 0  2.85 -0.95 0  2.9 -0.95 0  2.95 -0.95 0  3 -0.95 0  3.050000000000001 -0.95 0  3.1 -0.95 0  3.15 -0.95 0  3.199999999999999 -0.95 0  3.25 -0.95 0  3.300000000000001 -0.95 0  3.35 -0.95 0  3.4 -0.95 0  3.449999999999999 -0.95 0  3.5 -0.95 0  3.550000000000001 -0.95 0  3.6 -0.95 0  3.65 -0.95 0  3.699999999999999 -0.95 0  3.75 -0.95 0  3.800000000000001 -0.95 0  3.85 -0.95 0  3.9 -0.95 0  3.949999999999999 -0.95 0  4 -0.95 0  4.050000000000001 -0.95 0  4.1 -0.95 0  4.15 -0.95 0  4.199999999999999 -0.95 0  4.25 -0.95 0  4.300000000000001 -0.95 0  4.35 -0.95 0  4.4 -0.95 0  4.449999999999999 -0.95 0  4.5 -0.95 0  4.550000000000001 -0.95 0  4.6 -0.95 0  4.65 -0.95 0  4.699999999999999 -0.95 0  4.75 -0.95 0  4.800000000000001 -0.95 0  4.85 -0.95 0  4.9 -0.95 0  4.949999999999999 -0.95 0  5 -0.95 0  -5 -0.9 0  -4.95 -0.9 0  -4.9 -0.9 0  -4.85 -0.9 0  -4.8 -0.9 0  -4.75 -0.9 0  -4.7 -0.9 0  -4.65 -0.9 0  -4.6 -0.9 0  -4.55 -0.9 0  -4.5 -0.9 0  -4.45 -0.9 0  -4.4 -0.9 0  -4.35 -0.9 0  -4.3 -0.9 0  -4.25 -0.9 0  -4.2 -0.9 0  -4.15 -0.9 0  -4.1 -0.9 0  -4.05 -0.9 0  -4 -0.9 0  -3.95 -0.9 0  -3.9 -0.9 0  -3.85 -0.9 0  -3.8 -0.9 0  -3.75 -0.9 0  -3.7 -0.9 0  -3.65 -0.9 0  -3.6 -0.9 0  -3.55 -0.9 0  -3.5 -0.9 0  -3.45 -0.9 0  -3.4 -0.9 0  -3.35 -0.9 0  -3.3 -0.9 0  -3.25 -0.9 0  -3.2 -0.9 0  -3.15 -0.9 0  -3.1 -0.9 0  -3.05 -0.9 0  -3 -0.9 0  -2.95 -0.9 0  -2.9 -0.9 0  -2.85 -0.9 0  -2.8 -0.9 0  -2.75 -0.9 0  -2.7 -0.9 0  -2.65 -0.9 0  -2.6 -0.9 0  -2.55 -0.9 0  -2.5 -0.9 0  -2.45 -0.9 0  -2.4 -0.9 0  -2.35 -0.9 0  -2.3 -0.9 0  -2.25 -0.9 0  -2.2 -0.9 0  -2.15 -0.9 0  -2.1 -0.9 0  -2.05 -0.9 0  -2 -0.9 0  -1.95 -0.9 0  -1.9 -0.9 0  -1.85 -0.9 0  -1.8 -0.9 0  -1.75 -0.9 0  -1.7 -0.9 0  -1.65 -0.9 0  -1.6 -0.9 0  -1.55 -0.9 0  -1.5 -0.9 0  -1.45 -0.9 0  -1.4 -0.9 0  -1.35 -0.9 0  -1.3 -0.9 0  -1.25 -0.9 0  -1.2 -0.9 0  -1.15 -0.9 0  -1.1 -0.9 0  -1.05 -0.9 0  -1 -0.9 0  -0.9500000000000002 -0.9 0  -0.9000000000000004 -0.9 0  -0.8499999999999996 -0.9 0  -0.7999999999999998 -0.9 0  -0.75 -0.9 0  -0.7000000000000002 -0.9 0  -0.6500000000000004 -0.9 0  -0.5999999999999996 -0.9 0  -0.5499999999999998 -0.9 0  -0.5 -0.9 0  -0.4500000000000002 -0.9 0  -0.4000000000000004 -0.9 0  -0.3499999999999996 -0.9 0  -0.2999999999999998 -0.9 0  -0.25 -0.9 0  -0.2000000000000002 -0.9 0  -0.1500000000000004 -0.9 0  -0.09999999999999964 -0.9 0  -0.04999999999999982 -0.9 0  0 -0.9 0  0.04999999999999982 -0.9 0  0.09999999999999964 -0.9 0  0.1500000000000004 -0.9 0  0.2000000000000002 -0.9 0  0.25 -0.9 0  0.2999999999999998 -0.9 0  0.3499999999999996 -0.9 0  0.4000000000000004 -0.9 0  0.4500000000000002 -0.9 0  0.5 -0.9 0  0.5499999999999998 -0.9 0  0.5999999999999996 -0.9 0  0.6500000000000004 -0.9 0  0.7000000000000002 -0.9 0  0.75 -0.9 0  0.7999999999999998 -0.9 0  0.8499999999999996 -0.9 0  0.9000000000000004 -0.9 0  0.9500000000000002 -0.9 0  1 -0.9 0  1.05 -0.9 0  1.1 -0.9 0  1.15 -0.9 0  1.2 -0.9 0  1.25 -0.9 0  1.3 -0.9 0  1.35 -0.9 0  1.4 -0.9 0  1.45 -0.9 0  1.5 -0.9 0  1.55 -0.9 0  1.6 -0.9 0  1.65 -0.9 0  1.7 -0.9 0  1.75 -0.9 0  1.8 -0.9 0  1.85 -0.9 0  1.9 -0.9 0  1.95 -0.9 0  2 -0.9 0  2.05 -0.9 0  2.1 -0.9 0  2.15 -0.9 0  2.2 -0.9 0  2.25 -0.9 0  2.3 -0.9 0  2.35 -0.9 0  2.4 -0.9 0  2.45 -0.9 0  2.5 -0.9 0  2.55 -0.9 0  2.6 -0.9 0  2.65 -0.9 0  2.7 -0.9 0  2.75 -0.9 0  2.8 -0.9 0  2.85 -0.9 0  2.9 -0.9 0  2.95 -0.9 0  3 -0.9 0  3.050000000000001 -0.9 0  3.1 -0.9 0  3.15 -0.9 0  3.199999999999999 -0.9 0  3.25 -0.9 0  3.300000000000001 -0.9 0  3.35 -0.9 0  3.4 -0.9 0  3.449999999999999 -0.9 0  3.5 -0.9 0  3.550000000000001 -0.9 0  3.6 -0.9 0  3.65 -0.9 0  3.699999999999999 -0.9 0  3.75 -0.9 0  3.800000000000001 -0.9 0  3.85 -0.9 0  3.9 -0.9 0  3.949999999999999 -0.9 0  4 -0.9 0  4.050000000000001 -0.9 0  4.1 -0.9 0  4.15 -0.9 0  4.199999999999999 -0.9 0  4.25 -0.9 0  4.300000000000001 -0.9 0  4.35 -0.9 0  4.4 -0.9 0  4.449999999999999 -0.9 0  4.5 -0.9 0  4.550000000000001 -0.9 0  4.6 -0.9 0  4.65 -0.9 0  4.699999999999999 -0.9 0  4.75 -0.9 0  4.800000000000001 -0.9 0  4.85 -0.9 0  4.9 -0.9 0  4.949999999999999 -0.9 0  5 -0.9 0  -5 -0.85 0  -4.95 -0.85 0  -4.9 -0.85 0  -4.85 -0.85 0  -4.8 -0.85 0  -4.75 -0.85 0  -4.7 -0.85 0  -4.65 -0.85 0  -4.6 -0.85 0  -4.55 -0.85 0  -4.5 -0.85 0  -
[...]
<PointData  Vectors="f_15"> 
<DataArray  type="Float64"  Name="f_15"  NumberOfComponents="3" format="ascii">3.0038081143831223e+00 0.0000000000000000e+00 0.0000000000000000e+00  2.9969610713476431e+00 -6.1232925786302676e-03 0.0000000000000000e+00  3.0029978436424596e+00 6.6711044141592726e-03 0.0000000000000000e+00  2.9972196276230894e+00 -6.1755394009472943e-03 0.0000000000000000e+00  3.0030436672919927e+00 5.7567771840561647e-03 0.0000000000000000e+00  2.9969221589300266e+00 -5.1966535871086888e-03 0.0000000000000000e+00  3.0032185846705177e+00 5.1776224863345020e-03 0.0000000000000000e+00  2.9967545120812940e+00 -5.2359454710402195e-03 0.0000000000000000e+00  3.0033465928555714e+00 5.4017780214830015e-03 0.0000000000000000e+00  2.9965710424149621e+00 -5.4579750526152389e-03 0.0000000000000000e+00  3.0035272478449118e+00 5.4310456211601127e-03 0.0000000000000000e+00  2.9964225206443338e+00 -5.3614346903322202e-03 0.0000000000000000e+00  3.0036030715344872e+00 5.2914561995796826e-03 0.0000000000000000e+00  2.9963981249208569e+00 -5.2686155731053504e-03 0.0000000000000000e+00  3.0035795853871128e+00 5.2290478744471732e-03 0.0000000000000000e+00  2.9964985173852638e+00 -5.1283904643702090e-03 0.0000000000000000e+00  3.0033217668350649e+00 4.8553612071333269e-03 0.0000000000000000e+00  2.9969629048379960e+00 -4.4348316685432695e-03 0.0000000000000000e+00  3.0026804271199983e+00 3.9231420763694239e-03 0.0000000000000000e+00  2.9976706497928061e+00 -3.4779447480006984e-03 0.0000000000000000e+00  3.0019913762346553e+00 3.1188135306582637e-03 0.0000000000000000e+00  2.9983740010646911e+00 -2.7738262675993971e-03 0.0000000000000000e+00  3.0011365871266014e+00 2.2387688053291817e-03 0.0000000000000000e+00  2.9994779734351469e+00 -1.4787681226822193e-03 0.0000000000000000e+00  2.9998782127248336e+00 6.2027620132463525e-04 0.0000000000000000e+00  3.0006397626592247e+00 1.5188002812676901e-05 0.0000000000000000e+00  2.9990180396847399e+00 -3.3501259785325121e-04 0.0000000000000000e+00  3.0012609484098394e+00 4.5093359014282218e-04 0.0000000000000000e+00  2.9983564335397839e+00 -7.6365569065508067e-04 0.0000000000000000e+00  3.0021799282671502e+00 1.3579408702082297e-03 0.0000000000000000e+00  2.9972857021817627e+00 -2.1137661405729465e-03 0.0000000000000000e+00  3.0030467112966361e+00 2.5493067965342378e-03 0.0000000000000000e+00  2.9968571370001680e+00 -2.6238551157869733e-03 0.0000000000000000e+00  3.0031767012634702e+00 2.4664229716699969e-03 0.0000000000000000e+00  2.9966249745383280e+00 -2.6129019971982584e-03 0.0000000000000000e+00  3.0037251099162710e+00 3.0436932289447318e-03 0.0000000000000000e+00  2.9959175845790420e+00 -3.6872962910019977e-03 0.0000000000000000e+00  3.0042414191127489e+00 4.0601745664829783e-03 0.0000000000000000e+00  2.9956745024470082e+00 -4.3607134786459219e-03 0.0000000000000000e+00  3.0044244612205699e+00 4.6185015250942750e-03 0.0000000000000000e+00  2.9952834704487161e+00 -5.1935919548605717e-03 0.0000000000000000e+00  3.0049256266295656e+00 5.7537630694696838e-03 0.0000000000000000e+00  2.9948663520830570e+00 -6.3223186921696926e-03 0.0000000000000000e+00  3.0051467616533323e+00 6.8646040433022254e-03 0.0000000000000000e+00  2.9944778229805715e+00 -7.6426665163750202e-03 0.0000000000000000e+00  3.0058075303883580e+00 8.8116950870855883e-03 0.0000000000000000e+00  2.9935973107150216e+00 -9.6941632530349545e-03 0.0000000000000000e+00  3.0062864587384963e+00 1.0529892405356412e-02 0.0000000000000000e+00  2.9934395531825899e+00 -1.0576973254843049e-02 0.0000000000000000e+00  3.0062589873549528e+00 1.1634784541550950e-02 0.0000000000000000e+00  2.9927227544072279e+00 -1.1922152156640992e-02 0.0000000000000000e+00  3.0070537894275162e+00 1.4272936336811960e-02 0.0000000000000000e+00  2.9912969431471739e+00 -1.2988982579715988e-02 0.0000000000000000e+00  3.0066933181070690e+00 1.6564276778650452e-02 0.0000000000000000e+00  2.9900179244372311e+00 -1.0924755764105905e-02 0.0000000000000000e+00  3.0047161967282676e+00 2.0858647976615411e-02 0.0000000000000000e+00  2.9861225141474188e+00 -6.0682385187480758e-03 0.0000000000000000e+00  3.0006077180467643e+00 3.0940581342486874e-02 0.0000000000000000e+00  2.9783219451789864e+00 6.6348681277848985e-03 0.0000000000000000e+00  2.9904846067535802e+00 4.9005192030435366e-02 0.0000000000000000e+00  2.9646162742751621e+00 3.2082834198647443e-02 0.0000000000000000e+00  2.9722769967812934e+00 8.2821677049441100e-02 0.0000000000000000e+00  2.9406477205315729e+00 7.3239603110153428e-02 0.0000000000000000e+00  2.9438360516361124e+00 1.3723531592606150e-01 0.0000000000000000e+00  2.9051570364181831e+00 1.3731195850060776e-01 0.0000000000000000e+00  2.9019605000139976e+00 2.1271307010135990e-01 0.0000000000000000e+00  2.8577516578240738e+00 2.2583748789551814e-01 0.0000000000000000e+00  2.8477720436642180e+00 3.1383465370780594e-01 0.0000000000000000e+00  2.7970162124700098e+00 3.3484529450674821e-01 0.0000000000000000e+00  2.7830515806725260e+00 4.3830176152241407e-01 0.0000000000000000e+00  2.7261275257772128e+00 4.6764512945066089e-01 0.0000000000000000e+00  2.7071453270465433e+00 5.7773837616316515e-01 0.0000000000000000e+00  2.6483869739096022e+00 6.2087905666098131e-01 0.0000000000000000e+00  2.6235049781064137e+00 7.3522026982685573e-01 0.0000000000000000e+00  2.5631502631408885e+00 7.8459561062581185e-01 0.0000000000000000e+00  2.5357859261208304e+00 9.0710339207115143e-01 0.0000000000000000e+00  2.4734538795166210e+00 9.6496294805401850e-01 0.0000000000000000e+00  2.4426301625936371e+00 1.0812610729941572e+00 0.0000000000000000e+00  2.3831327058597265e+00 1.1572085394409579e+00 0.0000000000000000e+00  2.3463506015010283e+00 1.2719536914625247e+00 0.0000000000000000e+00  2.2898861046564356e+00 1.3413680004007478e+00 0.0000000000000000e+00  2.2514730140904464e+00 1.4742926325446426e+00 0.0000000000000000e+00  2.1947667836252411e+00 1.5445614171237430e+00 0.0000000000000000e+00  2.1555452648584659e+00 1.6611445995578114e+00 0.0000000000000000e+00  2.1026236143199029e+00 1.7489436659845279e+00 0.0000000000000000e+00  2.0594291247587337e+00 1.8770639974497663e+00 0.0000000000000000e+00  2.0115514911521521e+00 1.9347112828643354e+00 0.0000000000000000e+00  1.9700322640333960e+00 2.0739345054230154e+00 0.0000000000000000e+00  1.9236339049342392e+00 2.1372725587495642e+00 0.0000000000000000e+00  1.8898050262150894e+00 2.2503701586491962e+00 0.0000000000000000e+00  1.8558473317715876e+00 2.2971830577521142e+00 0.0000000000000000e+00  1.8399375566412075e+00 2.3589884741968383e+00 0.0000000000000000e+00  1.8376057320114370e+00 2.3343170379030065e+00 0.0000000000000000e+00  1.8427162528024192e+00 2.3600461645013082e+00 0.0000000000000000e+00  1.8385863251304742e+00 2.3335995144439114e+00 0.0000000000000000e+00  1.8458484221441898e+00 2.3441150279755871e+00 0.0000000000000000e+00  1.8425349786707166e+00 2.3331886129547961e+00 0.0000000000000000e+00  1.8443549171275653e+00 2.3398038143576092e+00 0.0000000000000000e+00  1.8443293761740787e+00 2.3279674777875083e+00 0.0000000000000000e+00  1.8474712427961164e+00 2.3395087913208279e+00 0.0000000000000000e+00  1.8425438796972948e+00 2.3300842440640070e+00 0.0000000000000000e+00  1.8464064006075722e+00 2.3342809353247809e+00 0.0000000000000000e+00  1.8463200867260987e+00 2.3278592903263156e+00 0.0000000000000000e+00  1.8471293075108273e+00 2.3306361887974476e+00 0.0000000000000000e+00  1.8439424513774132e+00 2.3306051396903076e+00 0.0000000000000000e+00  1.8476248488734994e+00 2.3314798949034214e+00 0.0000000000000000e+00  1.8459731760729090e+00 2.3271774127976692e+00 0.0000000000000000e+00  1.8479264564739715e+00 2.3234612268403976e+00 0.0000000000000000e+00  1.8441947312844298e+00 2.3373658810891342e+00 0.0000000000000000e+00  1.8493195755488712e+00 2.3169079976573310e+00 0.0000000000000000e+00  1.8453778406108550e+00 2.3329611259767740e+00 0.0000000000000000e+00  1.8468163377914473e+00 2.3163012534955003e+00 0.0000000000000000e+00  1.8487436412666072e+00 2.3177281721437626e+00 0.0000000000000000e+00  1.8449582976886367e+00 2.3086529057089762e+00 0.0000000000000000e+00  1.8476389000328224e+00 2.3127516076224168e+00 0.0000000000000000e+00  1.8480608195556258e+00 2.2943133183625899e+00 0.0000000000000000e+00  1.8465865891525339e+00 2.3177864737631300e+00 0.0000000000000000e+00  1.8441747774852215e+00 2.3001408280422422e+00 0.0000000000000000e+00  1.8535005648531333e+00 2.3161955201201732e+00 0.0000000000000000e+00  1.8378673935807190e+00 2.3131600307759572e+00 0.0000000000000000e+00  1.8570972355756794e+00 2.3180243500963198e+00 0.0000000000000000e+00  1.8348165841207511e+00 2.3236033689298585e+00 0.0000000000000000e+00  1.8608727419252338e+00 2.3093587946952772e+00 0.0000000000000000e+00  1.8303621288287766e+00 2.3387903446883205e+00 0.0000000000000000e+00  1.8628463580895087e+00 2.3018478447269461e+00 0.0000000000000000e+00  1.8309366065474439e+00 2.3399939987925240e+00 0.0000000000000000e+00  1.8597177729002083e+00 2.3035212086719512e+00 0.0000000000000000e+00  1.8318040463818204e+00 2.3387564579546525e+00 0.0000000000000000e+00  1.8570202579724100e+00 2.2933825562625518e+00 0.0000000000000000e+00  1.8232268158949174e+00 2.3276201584749843e+00 0.0000000000000000e+00  1.8366131513529085e+00 2.2417804389859155e+00 0.0000000000000000e+00  1.7632493218389058e+00 2.1974980591139048e+00 0.0000000000000000e+00  1.7209338329294881e+00 1.9547894336785097e+00 0.0000000000000000e+00  1.4730806486496144e+00 1.4799966888636573e+00 0.0000000000000000e+00  1.2018550482579264e+00 5.0443744971034810e-01 0.0000000000000000e+00  1.0143151586365102e+00 1.9223868722867016e-01 0.0000000000000000e+00  1.0280730472989934e+00 -6.5205001696150719e-02 0.0000000000000000e+00  9.7724535992897021e-01 8.7726629956154309e-02 0.0000000000000000e+00  1.0240511739808353e+00 -8.6670650344431208e-02 0.0000000000000000e+00  9.7496359669858834e-01 9.2230251780721612e-02 0.0000000000000000e+00  1.0265342878616093e+00 -9.6411832234852154e-02 0.0000000000000000e+00  9.7251196139209339e-01 1.0160175385658787e-01 0.0000000000000000e+00  1.0278347867708415e+00 -1.0107488602796129e-01 0.0000000000000000e+00  9.7238952131779322e-01 1.0149756379742175e-01 0.0000000000000000e+00  1.0277206153866048e+00 -9.8171209678217755e-02 0.0000000000000000e+00  9.7210280537874416e-01 9.8833109708475725e-02 0.0000000000000000e+00  1.0283062606773599e+00 -9.6055173805245753e-02 0.0000000000000000e+00  9.7204474009443975e-01 9.5349038113845999e-02 0.0000000000000000e+00  1.0270969824714598e+00 -8.8830656824059148e-02 0.0000000000000000e+00  9.7457205892694976e-01 8.3856481015863155e-02 0.0000000000000000e+00  1.0237379497089392e+00 -7.4986065542492417e-02 0.0000000000000000e+00  9.7817347754296402e-01 6.8974696760350881e-02 0.0000000000000000e+00  1.0200848231833290e+00 -6.1012870197852856e-02 0.0000000000000000e+00  9.8191339491489704e-01 5.5094571219039094e-02 0.0000000000000000e+00  1.0160540118180339e+00 -4.7515353939299704e-02 0.0000000000000000e+00  9.8613820398567975e-01 4.1215163017701478e-02 0.0000000000000000e+00  1.0118262693876856e+00 -3.4357743876035948e-02 0.0000000000000000e+00  9.9005336973061275e-01 2.8926212904768631e-02 0.0000000000000000e+00  1.0083549386018846e+00 -2.3837957976739509e-02 0.0000000000000000e+00  9.9304423973551126e-01 1.9852188546656505e-02 0.0000000000000000e+00  1.0057504575563052e+00 -1.6215610681373869e-02 0.0000000000000000e+00  9.9531847664968753e-01 1.3223733891363200e-02 0.0000000000000000e+00  1.0037681487292742e+00 -1.0561171011849538e-02 0.0000000000000000e+00  9.9699994142711046e-01 8.4083812355262109e-03 0.0000000000000000e+00  1.0023800901842943e+00 -6.6246923918497364e-03 0.0000000000000000e+00  9.9811751910330548e-01 5.2318592351964701e-03 0.0000000000000000e+00  1.0014854234303341e+00 -4.1088094466309837e-03 0.0000000000000000e+00  9.9883584950265825e-01 3.2186736267972560e-03 0.0000000000000000e+00  1.0009047864186551e+00 -2.4955476945231572e-03 0.0000000000000000e+00  9.9930317071769825e-01 1.9210651257571118e-03 0.0000000000000000e+00  1.0005334441962046e+00 -1.4669870438817386e-03 0.0000000000000000e+00  9.9959303501764551e-01 1.1172811149576739e-03 0.0000000000000000e+00  1.0003099945371694e+00 -8.4887723761874082e-04 0.0000000000000000e+00  9.9976449588398175e-01 6.4398028900519981e-04 0.0000000000000000e+00  1.0001780837292233e+00 -4.8628175195184750e-04 0.0000000000000000e+00  9.9986621721828106e-01 3.6504948721828741e-04 0.0000000000000000e+00  1.0000998516733723e+00 -2.7215952971794015e-04 0.0000000000000000e+00  9.9992584785010385e-01 2.0186793137324383e-04 0.0000000000000000e+00  1.0000549014235509e+00 -1.4921560350995475e-04 0.0000000000000000e+00  9.9995943489521466e-01 1.1008371181453746e-04 0.0000000000000000e+00  1.0000298981785221e+00 -8.1025480377912949e-05 0.0000000000000000e+00  9.9997804914888788e-01 5.9428741005252927e-05 0.0000000000000000e+00  1.0000160351577856e+00 -4.3374310239102056e-05 0.0000000000000000e+00  9.9998834716236673e-01 3.1491278598341907e-05 0.0000000000000000e+00  1.0000084312671162e+00 -2.2758527202199402e-05 0.0000000000000000e+00  9.9999391941906302e-01 1.6391119429788039e-05 0.0000000000000000e+00  1.0000043738965676e+00 -1.1773398483961954e-05 0.0000000000000000e+00  9.9999686285177869e-01 8.4326208044794037e-06 0.0000000000000000e+00  1.0000022418725771e+00 -6.0176608547042754e-06 0.0000000000000000e+00  9.9999840548757957e-01 4.2736923401279520e-06 0.0000000000000000e+00  1.0000011290878998e+00 -3.0197092044001888e-06 0.0000000000000000e+00  9.9999920491334382e-01 2.1209155490870524e-06 0.0000000000000000e+00  1.0000005592920718e+00 -1.4835261062577073e-06 0.0000000000000000e+00  9.9999961013396454e-01 1.0282135382879886e-06 0.0000000000000000e+00  1.0000002753834463e+00 -7.1171456319485241e-07 0.0000000000000000e+00  9.9999981178898167e-01 4.7835257411866758e-07 0.0000000000000000e+00  1.0000001397875431e+00 -3.2498134705370406e-07 0.0000000000000000e+00  9.9999991052981008e-01 1.9340119042920764e-07 0.0000000000000000e+00  1.0000000837620875e+00 -1.2635088059545329e-07 0.0000000000000000e+00  9.9999996001632119e-01 3.1632661246279016e-08 0.0000000000000000e+00  1.0000000771235291e+00 0.0000000000000000e+00 0.0000000000000000e+00  3.0006196312183828e+00 0.0000000000000000e+00 4.5229945735166923e-03  2.9986834820153785e+00 1.4684038941806621e-03 -7.7158758313735265e-04  3.0004630025238344e+00 -1.5775210873269665e-03 -1.0956993873877325e-03  2.9994884136103623e+00 -4.5781391588989122e-04 6.4531386415853196e-05  3.0000786988302663e+00 7.3684761728162556e-04 4.6913270128391536e-04  2.9998223111766720e+00 -1.1882797682285890e-03 -9.4839823043247218e-04  3.0000814658679107e+00 9.0301137323728700e-04 1.2566603055336289e-03  2.9998535886600250e+00 -9.2913165800475521e-04 -1.5065768544589935e-03  3.0000803284722730e+00 9.1771219769969743e-04 1.7294436911948505e-03  2.9999237340717726e+00 -1.1148258154547092e-03 -1.9400592306496160e-03  3.0000502738139998e+00 1.2642607498431469e-03 2.1357372958765563e-03  2.9999324472463340e+00 -1.3788732996285469e-03 -2.3013143478063185e-03  3.0000671461606601e+00 1.3951153715257320e-03 2.4289861055144736e-03  2.9999370719621128e+00 -1.3691897226177304e-03 -2.4993298800888436e-03  3.0000612868654875e+00 1.3507241869743336e-03 2.5032052812672284e-03  2.9999053281514545e+00 -1.3796126280437510e-03 -2.4181111150710396e-03  3.0001713765023705e+00 1.4368527303491375e-03 2.2390945555895536e-03  2.9997541563241912e+00 -1.4358543340647046e-03 -1.9589732242182322e-03  3.0002787366704240e+00 1.2872719319804015e-03 1.5901804001200854e-03  2.9997574484898015e+00 -9.7557597720121340e-04 -1.1379069068401767e-03  3.0002095795386405e+00 6.0958673972710494e-04 6.0835256169757088e-04  2.9997605712483906e+00 -3.3898571546902781e-04 2.1744699183455374e-06  3.0003722344047588e+00 2.1551640296383159e-04 -6.8977373661281000e-04  2.9994932746489367e+00 -1.0899978880969832e-04 1.4317778831346014e-03  3.0005443734473873e+00 -1.9177706318393155e-04 -2.1937431581701993e-03  2.9995700130383547e+00 7.5796850061370113e-04 2.9404098765167899e-03  3.0002924964475000e+00 -1.4102332941739585e-03 -3.6633308702520469e-03  2.9997285028806675e+00 1.8386857632019522e-03 4.3727088039587818e-03  3.0004375388271773e+00 -1.9331092423595312e-03 -5.0828030260922207e-03  2.9993728534756880e+00 1.8829054459379925e-03 5.7832854924717118e-03  3.0006774588246130e+00 -2.0676416575116535e-03 -6.4417270554610589e-03  2.9994962870325006e+00 2.5833413706437603e-03 7.0410600290140048e-03  3.0003188476827418e+00 -3.2313871560670517e-03 -7.5857149866911840e-03  2.9997267396366367e+00 3.5765182733666964e-03 8.1190649877404906e-03  3.0004627989197741e+00 -3.5836647346115971e-03 -8.6576379459000104e-03  2.9993798016085425e+00 3.4364519302912460e-03 9.2067677578670220e-03  3.0006609941539977e+00 -3.5658358914301119e-03 -9.7207359850932425e-03  2.9995057569143282e+00 3.9074838841108095e-03 1.0205608570975808e-02  3.0004309647754663e+00 -4.3272396110819256e-03 -1.0661047983689399e-02  2.9995697893184681e+00 4.4894881149177739e-03 1.1130381310248811e-02  3.0005678504299156e+00 -4.6185046274864151e-03 -1.1591974509264231e-02  2.9995008395221503e+00 4.7328358716664989e-03 1.2042390387583445e-02  3.0004772110280640e+00 -5.0481899241515285e-03 -1.2426373694397905e-02  2.9996185524660444e+00 5.0844207758412091e-03 1.2768944927026253e-02  3.0006378479980045e+00 -5.1395216801193569e-03 -1.3065964326572243e-02  2.9993525698257253e+00 4.9674553403797773e-03 1.3333069196964118e-02  3.0007135753843079e+00 -5.4332550718521333e-03 -1.3524804180740826e-02  2.9997161831721977e+00 5.7678111983687410e-03 1.3644429550063912e-02  3.0002621256380180e+00 -6.1913774295670309e-03 -1.3673203538165139e-02  2.9996676657294330e+00 5.9915584332749933e-03 1.3636493648090206e-02  3.0005867878902448e+00 -5.3285252015602812e-03 -1.3544092265909346e-02  2.9989487831305750e+00 6.0209373488422820e-03 1.3365758864030002e-02  2.9999909645422695e+00 -4.6653906851846366e-03 -1.3114491283913466e-02  2.9986532474344658e+00 8.2921324471350519e-03 1.2806825367378344e-02  2.9981837096530728e+00 -2.4760858559054509e-03 -1.2486340505091889e-02  2.9963602472398425e+00 1.1770686275079023e-02 1.2144137201352040e-02  2.9952549273976912e+00 4.4349735336352662e-03 -1.1758915312459551e-02  2.9911197604536390e+00 2.0516123063203263e-02 1.1283691488469911e-02  2.9877278916004859e+00 1.7398272044351824e-02 -1.0756096202061787e-02  2.9813860262878102e+00 3.9092050628651086e-02 1.0216618038038994e-02  2.9736626275314015e+00 4.3312163155573513e-02 -9.6963857438593544e-03  2.9628091242132477e+00 7.0847576657122088e-02 9.1303890549432644e-03  2.9506703075209240e+00 8.7208078059472033e-02 -8.4528935239907045e-03  2.9336344440091651e+00 1.2341009470572882e-01 7.5237481859574918e-03  2.9149805798965271e+00 1.5124265967219189e-01 -6.4798236972184280e-03  2.8927471251905716e+00 1.9936214200911101e-01 5.2873628960726747e-03  2.8668362967684962e+00 2.4083221688801398e-01 -4.0824723724050644e-03  2.8382283032041684e+00 2.9655009315918862e-01 2.7149281626129935e-03  2.8073706185322997e+00 3.5467719039776235e-01 -1.1269357491466587e-03  2.7726695533926491e+00 4.1795156451608689e-01 -7.6365509098138347e-04  2.7359127290570480e+00 4.8651254453914361e-01 2.6460629598099934e-03  2.6988700008723048e+00 5.6011775981618561e-01 -4.2891189531855233e-03  2.6560453800932406e+00 6.3859117225875894e-01 5.5014084483508063e-03  2.6162204555094761e+00 7.1475657829760897e-01 -6.3066585056230588e-03  2.5713543480708507e+00 8.0668428728467723e-01 6.9957562804908516e-03  2.5278890277075226e+00 8.8614919075724230e-01 -7.4222658477564865e-03  2.4808494224339874e+00 9.8017435911208617e-01 7.2165730423747109e-03  2.4374810676625325e+00 1.0712099683670728e+00 -5.8310974205671639e-03  2.3872071499551080e+00 1.1667981227759330e+00 3.2122011846510727e-03  2.3430785672541670e+00 1.2561418092595862e+00 -1.0667382426091834e-04  2.2943932913638343e+00 1.3630789086931978e+00 -1.9826394059831581e-03  2.2465427549685737e+00 