<?xml version="1.0"?>
<VTKFile type="UnstructuredGrid"  version="0.1"  >
<UnstructuredGrid>
<Piece  NumberOfPoints="8241" NumberOfCells="16000">
<Points>
<DataArray  type="Float64"  NumberOfComponents="3"  format="ascii">-5 -1 0  -4.95 -1 0  -4.9 -1 0  -4.85 -1 0  -4.8 -1 0  -4.75 -1 0  -4.7 -1 0  -4.65 -1 0  -4.6 -1 0  -4.55 -1 0  -4.5 -1 0  -4.45 -1 0  -4.4 -1 0  -4.35 -1 0  -4.3 -1 0  -4.25 -1 0  -4.2 -1 0  -4.15 -1 0  -4.1 -1 0  -4.05 -1 0  -4 -1 0  -3.95 -1 0  -3.9 -1 0  -3.85 -1 0  -3.8 -1 0  -3.75 -1 0  -3.7 -1 0  -3.65 -1 0  -3.6 -1 0  -3.55 -1 0  -3.5 -1 0  -3.45 -1 0  -3.4 -1 0  -3.35 -1 0  -3.3 -1 0  -3.25 -1 0  -3.2 -1 0  -3.15 -1 0  -3.1 -1 0  -3.05 -1 0  -3 -1 0  -2.95 -1 0  -2.9 -1 0  -2.85 -1 0  -2.8 -1 0  -2.75 -1 0  -2.7 -1 0  -2.65 -1 0  -2.6 -1 0  -2.55 -1 0  -2.5 -1 0  -2.45 -1 0  -2.4 -1 0  -2.35 -1 0  -2.3 -1 0  -2.25 -1 0  -2.2 -1 0  -2.15 -1 0  -2.1 -1 0  -2.05 -1 0  -2 -1 0  -1.95 -1 0  -1.9 -1 0  -1.85 -1 0  -1.8 -1 0  -1.75 -1 0  -1.7 -1 0  -1.65 -1 0  -1.6 -1 0  -1.55 -1 0  -1.5 -1 0  -1.45 -1 0  -1.4 -1 0  -1.35 -1 0  -1.3 -1 0  -1.25 -1 0  -1.2 -1 0  -1.15 -1 0  -1.1 -1 0  -1.05 -1 0  -1 -1 0  -0.9500000000000002 -1 0  -0.9000000000000004 -1 0  -0.8499999999999996 -1 0  -0.7999999999999998 -1 0  -0.75 -1 0  -0.7000000000000002 -1 0  -0.6500000000000004 -1 0  -0.5999999999999996 -1 0  -0.5499999999999998 -1 0  -0.5 -1 0  -0.4500000000000002 -1 0  -0.4000000000000004 -1 0  -0.3499999999999996 -1 0  -0.2999999999999998 -1 0  -0.25 -1 0  -0.2000000000000002 -1 0  -0.1500000000000004 -1 0  -0.09999999999999964 -1 0  -0.04999999999999982 -1 0  0 -1 0  0.04999999999999982 -1 0  0.09999999999999964 -1 0  0.1500000000000004 -1 0  0.2000000000000002 -1 0  0.25 -1 0  0.2999999999999998 -1 0  0.3499999999999996 -1 0  0.4000000000000004 -1 0  0.4500000000000002 -1 0  0.5 -1 0  0.5499999999999998 -1 0  0.5999999999999996 -1 0  0.6500000000000004 -1 0  0.7000000000000002 -1 0  0.75 -1 0  0.7999999999999998 -1 0  0.8499999999999996 -1 0  0.9000000000000004 -1 0  0.9500000000000002 -1 0  1 -1 0  1.05 -1 0  1.1 -1 0  1.15 -1 0  1.2 -1 0  1.25 -1 0  1.3 -1 0  1.35 -1 0  1.4 -1 0  1.45 -1 0  1.5 -1 0  1.55 -1 0  1.6 -1 0  1.65 -1 0  1.7 -1 0  1.75 -1 0  1.8 -1 0  1.85 -1 0  1.9 -1 0  1.95 -1 0  2 -1 0  2.05 -1 0  2.1 -1 0  2.15 -1 0  2.2 -1 0  2.25 -1 0  2.3 -1 0  2.35 -1 0  2.4 -1 0  2.45 -1 0  2.5 -1 0  2.55 -1 0  2.6 -1 0  2.65 -1 0  2.7 -1 0  2.75 -1 0  2.8 -1 0  2.85 -1 0  2.9 -1 0  2.95 -1 0  3 -1 0  3.050000000000001 -1 0  3.1 -1 0  3.15 -1 0  3.199999999999999 -1 0  3.25 -1 0  3.300000000000001 -1 0  3.35 -1 0  3.4 -1 0  3.449999999999999 -1 0  3.5 -1 0  3.550000000000001 -1 0  3.6 -1 0  3.65 -1 0  3.699999999999999 -1 0  3.75 -1 0  3.800000000000001 -1 0  3.85 -1 0  3.9 -1 0  3.949999999999999 -1 0  4 -1 0  4.050000000000001 -1 0  4.1 -1 0  4.15 -1 0  4.199999999999999 -1 0  4.25 -1 0  4.300000000000001 -1 0  4.35 -1 0  4.4 -1 0  4.449999999999999 -1 0  4.5 -1 0  4.550000000000001 -1 0  4.6 -1 0  4.65 -1 0  4.699999999999999 -1 0  4.75 -1 0  4.800000000000001 -1 0  4.85 -1 0  4.9 -1 0  4.949999999999999 -1 0  5 -1 0  -5 -0.95 0  -4.95 -0.95 0  -4.9 -0.95 0  -4.85 -0.95 0  -4.8 -0.95 0  -4.75 -0.95 0  -4.7 -0.95 0  -4.65 -0.95 0  -4.6 -0.95 0  -4.55 -0.95 0  -4.5 -0.95 0  -4.45 -0.95 0  -4.4 -0.95 0  -4.35 -0.95 0  -4.3 -0.95 0  -4.25 -0.95 0  -4.2 -0.95 0  -4.15 -0.95 0  -4.1 -0.95 0  -4.05 -0.95 0  -4 -0.95 0  -3.95 -0.95 0  -3.9 -0.95 0  -3.85 -0.95 0  -3.8 -0.95 0  -3.75 -0.95 0  -3.7 -0.95 0  -3.65 -0.95 0  -3.6 -0.95 0  -3.55 -0.95 0  -3.5 -0.95 0  -3.45 -0.95 0  -3.4 -0.95 0  -3.35 -0.95 0  -3.3 -0.95 0  -3.25 -0.95 0  -3.2 -0.95 0  -3.15 -0.95 0  -3.1 -0.95 0  -3.05 -0.95 0  -3 -0.95 0  -2.95 -0.95 0  -2.9 -0.95 0  -2.85 -0.95 0  -2.8 -0.95 0  -2.75 -0.95 0  -2.7 -0.95 0  -2.65 -0.95 0  -2.6 -0.95 0  -2.55 -0.95 0  -2.5 -0.95 0  -2.45 -0.95 0  -2.4 -0.95 0  -2.35 -0.95 0  -2.3 -0.95 0  -2.25 -0.95 0  -2.2 -0.95 0  -2.15 -0.95 0  -2.1 -0.95 0  -2.05 -0.95 0  -2 -0.95 0  -1.95 -0.95 0  -1.9 -0.95 0  -1.85 -0.95 0  -1.8 -0.95 0  -1.75 -0.95 0  -1.7 -0.95 0  -1.65 -0.95 0  -1.6 -0.95 0  -1.55 -0.95 0  -1.5 -0.95 0  -1.45 -0.95 0  -1.4 -0.95 0  -1.35 -0.95 0  -1.3 -0.95 0  -1.25 -0.95 0  -1.2 -0.95 0  -1.15 -0.95 0  -1.1 -0.95 0  -1.05 -0.95 0  -1 -0.95 0  -0.9500000000000002 -0.95 0  -0.9000000000000004 -0.95 0  -0.8499999999999996 -0.95 0  -0.7999999999999998 -0.95 0  -0.75 -0.95 0  -0.7000000000000002 -0.95 0  -0.6500000000000004 -0.95 0  -0.5999999999999996 -0.95 0  -0.5499999999999998 -0.95 0  -0.5 -0.95 0  -0.4500000000000002 -0.95 0  -0.4000000000000004 -0.95 0  -0.3499999999999996 -0.95 0  -0.2999999999999998 -0.95 0  -0.25 -0.95 0  -0.2000000000000002 -0.95 0  -0.1500000000000004 -0.95 0  -0.09999999999999964 -0.95 0  -0.04999999999999982 -0.95 0  0 -0.95 0  0.04999999999999982 -0.95 0  0.09999999999999964 -0.95 0  0.1500000000000004 -0.95 0  0.2000000000000002 -0.95 0  0.25 -0.95 0  0.2999999999999998 -0.95 0  0.3499999999999996 -0.95 0  0.4000000000000004 -0.95 0  0.4500000000000002 -0.95 0  0.5 -0.95 0  0.5499999999999998 -0.95 0  0.5999999999999996 -0.95 0  0.6500000000000004 -0.95 0  0.7000000000000002 -0.95 0  0.75 -0.95 0  0.7999999999999998 -0.95 0  0.8499999999999996 -0.95 0  0.9000000000000004 -0.95 0  0.9500000000000002 -0.95 0  1 -0.95 0  1.05 -0.95 0  1.1 -0.95 0  1.15 -0.95 0  1.2 -0.95 0  1.25 -0.95 0  1.3 -0.95 0  1.35 -0.95 0  1.4 -0.95 0  1.45 -0.95 0  1.5 -0.95 0  1.55 -0.95 0  1.6 -0.95 0  1.65 -0.95 0  1.7 -0.95 0  1.75 -0.95 0  1.8 -0.95 0  1.85 -0.95 0  1.9 -0.95 0  1.95 -0.95 0  2 -0.95 0  2.05 -0.95 0  2.1 -0.95 0  2.15 -0.95 0  2.2 -0.95 0  2.25 -0.95 0  2.3 -0.95 0  2.35 -0.95 0  2.4 -0.95 0  2.45 -0.95 0  2.5 -0.95 0  2.55 -0.95 0  2.6 -0.95 0  2.65 -0.95 0  2.7 -0.95 0  2.75 -0.95 0  2.8 -0.95 0  2.85 -0.95 0  2.9 -0.95 0  2.95 -0.95 0  3 -0.95 0  3.050000000000001 -0.95 0  3.1 -0.95 0  3.15 -0.95 0  3.199999999999999 -0.95 0  3.25 -0.95 0  3.300000000000001 -0.95 0  3.35 -0.95 0  3.4 -0.95 0  3.449999999999999 -0.95 0  3.5 -0.95 0  3.550000000000001 -0.95 0  3.6 -0.95 0  3.65 -0.95 0  3.699999999999999 -0.95 0  3.75 -0.95 0  3.800000000000001 -0.95 0  3.85 -0.95 0  3.9 -0.95 0  3.949999999999999 -0.95 0  4 -0.95 0  4.050000000000001 -0.95 0  4.1 -0.95 0  4.15 -0.95 0  4.199999999999999 -0.95 0  4.25 -0.95 0  4.300000000000001 -0.95 0  4.35 -0.95 0  4.4 -0.95 0  4.449999999999999 -0.95 0  4.5 -0.95 0  4.550000000000001 -0.95 0  4.6 -0.95 0  4.65 -0.95 0  4.699999999999999 -0.95 0  4.75 -0.95 0  4.800000000000001 -0.95 0  4.85 -0.95 0  4.9 -0.95 0  4.949999999999999 -0.95 0  5 -0.95 0  -5 -0.9 0  -4.95 -0.9 0  -4.9 -0.9 0  -4.85 -0.9 0  -4.8 -0.9 0  -4.75 -0.9 0  -4.7 -0.9 0  -4.65 -0.9 0  -4.6 -0.9 0  -4.55 -0.9 0  -4.5 -0.9 0  -4.45 -0.9 0  -4.4 -0.9 0  -4.35 -0.9 0  -4.3 -0.9 0  -4.25 -0.9 0  -4.2 -0.9 0  -4.15 -0.9 0  -4.1 -0.9 0  -4.05 -0.9 0  -4 -0.9 0  -3.95 -0.9 0  -3.9 -0.9 0  -3.85 -0.9 0  -3.8 -0.9 0  -3.75 -0.9 0  -3.7 -0.9 0  -3.65 -0.9 0  -3.6 -0.9 0  -3.55 -0.9 0  -3.5 -0.9 0  -3.45 -0.9 0  -3.4 -0.9 0  -3.35 -0.9 0  -3.3 -0.9 0  -3.25 -0.9 0  -3.2 -0.9 0  -3.15 -0.9 0  -3.1 -0.9 0  -3.05 -0.9 0  -3 -0.9 0  -2.95 -0.9 0  -2.9 -0.9 0  -2.85 -0.9 0  -2.8 -0.9 0  -2.75 -0.9 0  -2.7 -0.9 0  -2.65 -0.9 0  -2.6 -0.9 0  -2.55 -0.9 0  -2.5 -0.9 0  -2.45 -0.9 0  -2.4 -0.9 0  -2.35 -0.9 0  -2.3 -0.9 0  -2.25 -0.9 0  -2.2 -0.9 0  -2.15 -0.9 0  -2.1 -0.9 0  -2.05 -0.9 0  -2 -0.9 0  -1.95 -0.9 0  -1.9 -0.9 0  -1.85 -0.9 0  -1.8 -0.9 0  -1.75 -0.9 0  -1.7 -0.9 0  -1.65 -0.9 0  -1.6 -0.9 0  -1.55 -0.9 0  -1.5 -0.9 0  -1.45 -0.9 0  -1.4 -0.9 0  -1.35 -0.9 0  -1.3 -0.9 0  -1.25 -0.9 0  -1.2 -0.9 0  -1.15 -0.9 0  -1.1 -0.9 0  -1.05 -0.9 0  -1 -0.9 0  -0.9500000000000002 -0.9 0  -0.9000000000000004 -0.9 0  -0.8499999999999996 -0.9 0  -0.7999999999999998 -0.9 0  -0.75 -0.9 0  -0.7000000000000002 -0.9 0  -0.6500000000000004 -0.9 0  -0.5999999999999996 -0.9 0  -0.5499999999999998 -0.9 0  -0.5 -0.9 0  -0.4500000000000002 -0.9 0  -0.4000000000000004 -0.9 0  -0.3499999999999996 -0.9 0  -0.2999999999999998 -0.9 0  -0.25 -0.9 0  -0.2000000000000002 -0.9 0  -0.1500000000000004 -0.9 0  -0.09999999999999964 -0.9 0  -0.04999999999999982 -0.9 0  0 -0.9 0  0.04999999999999982 -0.9 0  0.09999999999999964 -0.9 0  0.1500000000000004 -0.9 0  0.2000000000000002 -0.9 0  0.25 -0.9 0  0.2999999999999998 -0.9 0  0.3499999999999996 -0.9 0  0.4000000000000004 -0.9 0  0.4500000000000002 -0.9 0  0.5 -0.9 0  0.5499999999999998 -0.9 0  0.5999999999999996 -0.9 0  0.6500000000000004 -0.9 0  0.7000000000000002 -0.9 0  0.75 -0.9 0  0.7999999999999998 -0.9 0  0.8499999999999996 -0.9 0  0.9000000000000004 -0.9 0  0.9500000000000002 -0.9 0  1 -0.9 0  1.05 -0.9 0  1.1 -0.9 0  1.15 -0.9 0  1.2 -0.9 0  1.25 -0.9 0  1.3 -0.9 0  1.35 -0.9 0  1.4 -0.9 0  1.45 -0.9 0  1.5 -0.9 0  1.55 -0.9 0  1.6 -0.9 0  1.65 -0.9 0  1.7 -0.9 0  1.75 -0.9 0  1.8 -0.9 0  1.85 -0.9 0  1.9 -0.9 0  1.95 -0.9 0  2 -0.9 0  2.05 -0.9 0  2.1 -0.9 0  2.15 -0.9 0  2.2 -0.9 0  2.25 -0.9 0  2.3 -0.9 0  2.35 -0.9 0  2.4 -0.9 0  2.45 -0.9 0  2.5 -0.9 0  2.55 -0.9 0  2.6 -0.9 0  2.65 -0.9 0  2.7 -0.9 0  2.75 -0.9 0  2.8 -0.9 0  2.85 -0.9 0  2.9 -0.9 0  2.95 -0.9 0  3 -0.9 0  3.050000000000001 -0.9 0  3.1 -0.9 0  3.15 -0.9 0  3.199999999999999 -0.9 0  3.25 -0.9 0  3.300000000000001 -0.9 0  3.35 -0.9 0  3.4 -0.9 0  3.449999999999999 -0.9 0  3.5 -0.9 0  3.550000000000001 -0.9 0  3.6 -0.9 0  3.65 -0.9 0  3.699999999999999 -0.9 0  3.75 -0.9 0  3.800000000000001 -0.9 0  3.85 -0.9 0  3.9 -0.9 0  3.949999999999999 -0.9 0  4 -0.9 0  4.050000000000001 -0.9 0  4.1 -0.9 0  4.15 -0.9 0  4.199999999999999 -0.9 0  4.25 -0.9 0  4.300000000000001 -0.9 0  4.35 -0.9 0  4.4 -0.9 0  4.449999999999999 -0.9 0  4.5 -0.9 0  4.550000000000001 -0.9 0  4.6 -0.9 0  4.65 -0.9 0  4.699999999999999 -0.9 0  4.75 -0.9 0  4.800000000000001 -0.9 0  4.85 -0.9 0  4.9 -0.9 0  4.949999999999999 -0.9 0  5 -0.9 0  -5 -0.85 0  -4.95 -0.85 0  -4.9 -0.85 0  -4.85 -0.85 0  -4.8 -0.85 0  -4.75 -0.85 0  -4.7 -0.85 0  -4.65 -0.85 0  -4.6 -0.85 0  -4.55 -0.85 0  -4.5 -0.85 0  -
[...]
<PointData  Vectors="f_15"> 
<DataArray  type="Float64"  Name="f_15"  NumberOfComponents="3" format="ascii">2.9999536093851322e+00 0.0000000000000000e+00 0.0000000000000000e+00  2.9999581141830882e+00 4.4149563572180284e-05 0.0000000000000000e+00  2.9999381666773344e+00 7.4326833150489631e-05 0.0000000000000000e+00  2.9999068161339109e+00 1.5489877756686001e-04 0.0000000000000000e+00  2.9998574688385489e+00 2.4115599077640390e-04 0.0000000000000000e+00  2.9997855066469428e+00 3.8871035981937483e-04 0.0000000000000000e+00  2.9996615391624015e+00 5.9889876817219203e-04 0.0000000000000000e+00  2.9995013894214044e+00 9.0577745108076332e-04 0.0000000000000000e+00  2.9992510990085615e+00 1.3516779862158637e-03 0.0000000000000000e+00  2.9989042437722961e+00 1.9828225255928097e-03 0.0000000000000000e+00  2.9984170954611757e+00 2.8658510979504368e-03 0.0000000000000000e+00  2.9977496319576220e+00 4.0778677164929012e-03 0.0000000000000000e+00  2.9968368959370406e+00 5.7240890944122939e-03 0.0000000000000000e+00  2.9956411097285298e+00 7.8985193854982788e-03 0.0000000000000000e+00  2.9940599526773433e+00 1.0755455674107947e-02 0.0000000000000000e+00  2.9920415107767449e+00 1.4412009051758419e-02 0.0000000000000000e+00  2.9894915764513312e+00 1.9034314457701651e-02 0.0000000000000000e+00  2.9863231741730734e+00 2.4771074918273649e-02 0.0000000000000000e+00  2.9824565636472555e+00 3.1780647649090533e-02 0.0000000000000000e+00  2.9778191950407793e+00 4.0195432627343687e-02 0.0000000000000000e+00  2.9723225833297757e+00 5.0168034887257851e-02 0.0000000000000000e+00  2.9659268851124341e+00 6.1786897717797065e-02 0.0000000000000000e+00  2.9585807331137093e+00 7.5153249946183664e-02 0.0000000000000000e+00  2.9502422445036123e+00 9.0327905701957978e-02 0.0000000000000000e+00  2.9409176341646051e+00 1.0733613985265969e-01 0.0000000000000000e+00  2.9305916408747801e+00 1.2619551235990892e-01 0.0000000000000000e+00  2.9192847973396390e+00 1.4687956258689031e-01 0.0000000000000000e+00  2.9070222310024598e+00 1.6935791348432574e-01 0.0000000000000000e+00  2.8938514377464406e+00 1.9356057382168976e-01 0.0000000000000000e+00  2.8797952091863674e+00 2.1943219651600690e-01 0.0000000000000000e+00  2.8649371358960396e+00 2.4686327466849339e-01 0.0000000000000000e+00  2.8492984440107918e+00 2.7580696379374892e-01 0.0000000000000000e+00  2.8329703413193799e+00 3.0610194341290692e-01 0.0000000000000000e+00  2.8159777806950959e+00 3.3773264684031906e-01 0.0000000000000000e+00  2.7984108745270166e+00 3.7052930718089105e-01 0.0000000000000000e+00  2.7802949982029359e+00 4.0445233856587004e-01 0.0000000000000000e+00  2.7617148245676852e+00 4.3936227455829630e-01 0.0000000000000000e+00  2.7426822999351415e+00 4.7525586319528895e-01 0.0000000000000000e+00  2.7232975214558257e+00 5.1191330259321699e-01 0.0000000000000000e+00  2.7035461604887550e+00 5.4943090145414997e-01 0.0000000000000000e+00  2.6835190375731512e+00 5.8758912656709461e-01 0.0000000000000000e+00  2.6632258257979484e+00 6.2641162410943063e-01 0.0000000000000000e+00  2.6427182256041877e+00 6.6578510982494454e-01 0.0000000000000000e+00  2.6220015811435022e+00 7.0573252271122910e-01 0.0000000000000000e+00  2.6011580010339901e+00 7.4606409253569073e-01 0.0000000000000000e+00  2.5801478456128533e+00 7.8689138642930978e-01 0.0000000000000000e+00  2.5590487788372935e+00 8.2807400577274815e-01 0.0000000000000000e+00  2.5378633338751548e+00 8.6955885258832644e-01 0.0000000000000000e+00  2.5166110182073824e+00 9.1140150389951091e-01 0.0000000000000000e+00  2.4953038607181695e+00 9.5346953353930186e-01 0.0000000000000000e+00  2.4739945467844193e+00 9.9579732371941021e-01 0.0000000000000000e+00  2.4526468559013885e+00 1.0382878257819952e+00 0.0000000000000000e+00  2.4313157384316444e+00 1.0810479407023441e+00 0.0000000000000000e+00  2.4100075921605266e+00 1.1238288451724232e+00 0.0000000000000000e+00  2.3887185534229953e+00 1.1668729807135985e+00 0.0000000000000000e+00  2.3674759518315556e+00 1.2099123872283326e+00 0.0000000000000000e+00  2.3462961504974413e+00 1.2531265145085815e+00 0.0000000000000000e+00  2.3251704815836849e+00 1.2963051130748655e+00 0.0000000000000000e+00  2.3041230326674107e+00 1.3396331985312568e+00 0.0000000000000000e+00  2.2831724056786515e+00 1.3828872232675244e+00 0.0000000000000000e+00  2.2623006932551717e+00 1.4261940043531951e+00 0.0000000000000000e+00  2.2415502303847950e+00 1.4694608660108599e+00 0.0000000000000000e+00  2.2209085773644044e+00 1.5127013851255735e+00 0.0000000000000000e+00  2.2003979013786652e+00 1.5558419935416874e+00 0.0000000000000000e+00  2.1800204544533726e+00 1.5989185722899881e+00 0.0000000000000000e+00  2.1598046079752669e+00 1.6418882328097193e+00 0.0000000000000000e+00  2.1397385505856050e+00 1.6846587625715295e+00 0.0000000000000000e+00  2.1198648184041580e+00 1.7273006659602292e+00 0.0000000000000000e+00  2.1001811378321862e+00 1.7696831120206973e+00 0.0000000000000000e+00  2.0807136748476736e+00 1.8118171783872246e+00 0.0000000000000000e+00  2.0614910810627900e+00 1.8536005916739033e+00 0.0000000000000000e+00  2.0425333474285110e+00 1.8950325510618278e+00 0.0000000000000000e+00  2.0238837606249676e+00 1.9359184339093041e+00 0.0000000000000000e+00  2.0055756681416721e+00 1.9763178429737356e+00 0.0000000000000000e+00  1.9876877811137752e+00 2.0159151623909390e+00 0.0000000000000000e+00  1.9702472380849092e+00 2.0546996576106031e+00 0.0000000000000000e+00  1.9534071246186304e+00 2.0923289532389617e+00 0.0000000000000000e+00  1.9372171794551740e+00 2.1286711867098975e+00 0.0000000000000000e+00  1.9218980038513624e+00 2.1631556344001259e+00 0.0000000000000000e+00  1.9075804358748263e+00 2.1955528107915012e+00 0.0000000000000000e+00  1.8945879967657968e+00 2.2250384230461604e+00 0.0000000000000000e+00  1.8830953487237976e+00 2.2511944145570326e+00 0.0000000000000000e+00  1.8734994627372747e+00 2.2731131429807632e+00 0.0000000000000000e+00  1.8659000875752765e+00 2.2904980126774790e+00 0.0000000000000000e+00  1.8604350774822953e+00 2.3029890498780312e+00 0.0000000000000000e+00  1.8568252931792664e+00 2.3112735035686613e+00 0.0000000000000000e+00  1.8547245429257315e+00 2.3160894235819391e+00 0.0000000000000000e+00  1.8534992850074035e+00 2.3188785756795349e+00 0.0000000000000000e+00  1.8528323685305634e+00 2.3204072478800915e+00 0.0000000000000000e+00  1.8523488270795170e+00 2.3215110331832496e+00 0.0000000000000000e+00  1.8519929636048440e+00 2.3222909579794542e+00 0.0000000000000000e+00  1.8516587379416849e+00 2.3230688879929500e+00 0.0000000000000000e+00  1.8513684237327401e+00 2.3237053391441846e+00 0.0000000000000000e+00  1.8510640431469807e+00 2.3243943597629104e+00 0.0000000000000000e+00  1.8508114338121611e+00 2.3249423225068218e+00 0.0000000000000000e+00  1.8505648678775690e+00 2.3255141871898464e+00 0.0000000000000000e+00  1.8503339882239387e+00 2.3259972921329228e+00 0.0000000000000000e+00  1.8501258135035816e+00 2.3264838986060394e+00 0.0000000000000000e+00  1.8499361187168513e+00 2.3268825248669129e+00 0.0000000000000000e+00  1.8497479564443842e+00 2.3273038592903617e+00 0.0000000000000000e+00  1.8495908190999202e+00 2.3276254930373161e+00 0.0000000000000000e+00  1.8494400466290541e+00 2.3279834418659009e+00 0.0000000000000000e+00  1.8492923959797194e+00 2.3282526756718229e+00 0.0000000000000000e+00  1.8491984269174560e+00 2.3285080690468991e+00 0.0000000000000000e+00  1.8490525996217053e+00 2.3287450170495529e+00 0.0000000000000000e+00  1.8489857221221808e+00 2.3289503588390472e+00 0.0000000000000000e+00  1.8488474851938903e+00 2.3291623730195146e+00 0.0000000000000000e+00  1.8488218656525139e+00 2.3292830596928042e+00 0.0000000000000000e+00  1.8486899454391548e+00 2.3294799150936276e+00 0.0000000000000000e+00  1.8486832025311408e+00 2.3295419834415263e+00 0.0000000000000000e+00  1.8485507346775010e+00 2.3297525082862243e+00 0.0000000000000000e+00  1.8485575005158044e+00 2.3297474965888783e+00 0.0000000000000000e+00  1.8484698535617299e+00 2.3299107299864170e+00 0.0000000000000000e+00  1.8484430018183300e+00 2.3299385374528128e+00 0.0000000000000000e+00  1.8483817942969269e+00 2.3300742708858886e+00 0.0000000000000000e+00  1.8483599296852198e+00 2.3300505705719661e+00 0.0000000000000000e+00  1.8483190676863417e+00 2.3301544668513072e+00 0.0000000000000000e+00  1.8482769760580640e+00 2.3301541513432662e+00 0.0000000000000000e+00  1.8482677241182182e+00 2.3302165437899256e+00 0.0000000000000000e+00  1.8482083716636839e+00 2.3302554737405701e+00 0.0000000000000000e+00  1.8482199163412554e+00 2.3302590420517588e+00 0.0000000000000000e+00  1.8481561614858983e+00 2.3303112722239012e+00 0.0000000000000000e+00  1.8481701850777643e+00 2.3302710515640257e+00 0.0000000000000000e+00  1.8481173924858341e+00 2.3302992788030084e+00 0.0000000000000000e+00  1.8481187014747511e+00 2.3302729072260582e+00 0.0000000000000000e+00  1.8480841849602327e+00 2.3302901390627011e+00 0.0000000000000000e+00  1.8480838016294239e+00 2.3302729574991377e+00 0.0000000000000000e+00  1.8480429533129241e+00 2.3303092172484505e+00 0.0000000000000000e+00  1.8480424851191133e+00 2.3302731468349518e+00 0.0000000000000000e+00  1.8480267609711669e+00 2.3302197196930883e+00 0.0000000000000000e+00  1.8480013801137622e+00 2.3301725668817075e+00 0.0000000000000000e+00  1.8479871744889049e+00 2.3300600102019988e+00 0.0000000000000000e+00  1.8479837690999712e+00 2.3299158986354525e+00 0.0000000000000000e+00  1.8479575602113316e+00 2.3297734080601753e+00 0.0000000000000000e+00  1.8479461905737364e+00 2.3296006568334899e+00 0.0000000000000000e+00  1.8479338238339225e+00 2.3293801379947534e+00 0.0000000000000000e+00  1.8479229069789309e+00 2.3291361660265073e+00 0.0000000000000000e+00  1.8479041657011563e+00 2.3288538871711562e+00 0.0000000000000000e+00  1.8478941925770886e+00 2.3285542374253185e+00 0.0000000000000000e+00  1.8478800685124528e+00 2.3282088741307483e+00 0.0000000000000000e+00  1.8478755717330149e+00 2.3278705685746601e+00 0.0000000000000000e+00  1.8478472004855262e+00 2.3275796525677421e+00 0.0000000000000000e+00  1.8478501276342474e+00 2.3272540672876367e+00 0.0000000000000000e+00  1.8478262277306914e+00 2.3270039450532356e+00 0.0000000000000000e+00  1.8478214930685832e+00 2.3267744007521447e+00 0.0000000000000000e+00  1.8477971688601287e+00 2.3265989012038006e+00 0.0000000000000000e+00  1.8477965034715400e+00 2.3264201321697691e+00 0.0000000000000000e+00  1.8477795514010498e+00 2.3263056077312192e+00 0.0000000000000000e+00  1.8477627367489473e+00 2.3262031550089772e+00 0.0000000000000000e+00  1.8477480599131448e+00 2.3261219073671762e+00 0.0000000000000000e+00  1.8477481083892022e+00 2.3259975085968185e+00 0.0000000000000000e+00  1.8477063330159109e+00 2.3260092049897705e+00 0.0000000000000000e+00  1.8477024883861879e+00 2.3258749951180357e+00 0.0000000000000000e+00  1.8476960319596065e+00 2.3258302048460147e+00 0.0000000000000000e+00  1.8476430834415158e+00 2.3258026380586885e+00 0.0000000000000000e+00  1.8476536678617805e+00 2.3257168052656798e+00 0.0000000000000000e+00  1.8476225280622167e+00 2.3256396134094457e+00 0.0000000000000000e+00  1.8475947002815987e+00 2.3256588104530378e+00 0.0000000000000000e+00  1.8475769360898708e+00 2.3255254059938171e+00 0.0000000000000000e+00  1.8475741176035627e+00 2.3255144448480012e+00 0.0000000000000000e+00  1.8475096984517161e+00 2.3254670802338615e+00 0.0000000000000000e+00  1.8475315948356110e+00 2.3253847899151037e+00 0.0000000000000000e+00  1.8474818896809351e+00 2.3253498959981855e+00 0.0000000000000000e+00  1.8474490482172390e+00 2.3252875148453804e+00 0.0000000000000000e+00  1.8474721931829758e+00 2.3252762353433751e+00 0.0000000000000000e+00  1.8472887382876941e+00 2.3249307050403232e+00 0.0000000000000000e+00  1.8473275679102881e+00 2.3250055219684502e+00 0.0000000000000000e+00  1.8469076346979543e+00 2.3239912987777784e+00 0.0000000000000000e+00  1.8463266627039867e+00 2.3229004994842470e+00 0.0000000000000000e+00  1.8452580472056075e+00 2.3207001159552156e+00 0.0000000000000000e+00  1.8397081682765430e+00 2.3076147197313692e+00 0.0000000000000000e+00  1.8305432588584942e+00 2.2869858194163624e+00 0.0000000000000000e+00  1.7924953997381188e+00 2.2030151933570408e+00 0.0000000000000000e+00  1.7345631214233881e+00 2.0628062068851660e+00 0.0000000000000000e+00  1.5762314637167869e+00 1.6580369198663374e+00 0.0000000000000000e+00  1.2638474894325393e+00 8.0746357061953011e-01 0.0000000000000000e+00  1.0618682979078242e+00 1.9769878822594084e-01 0.0000000000000000e+00  1.0093300691687721e+00 3.0495733048870838e-02 0.0000000000000000e+00  1.0011373634363430e+00 4.0288863795303644e-03 0.0000000000000000e+00  1.0001758761638890e+00 6.6269789736420547e-04 0.0000000000000000e+00  9.9999350285879907e-01 -1.7713958776093388e-05 0.0000000000000000e+00  1.0000073944990631e+00 1.8304159091671925e-04 0.0000000000000000e+00  9.9997709245713495e-01 -1.2632731272040765e-04 0.0000000000000000e+00  9.9999480232709770e-01 1.8927104960932183e-04 0.0000000000000000e+00  9.9997414121508210e-01 -1.2420011568914670e-04 0.0000000000000000e+00  9.9998890353682546e-01 1.9260261317430988e-04 0.0000000000000000e+00  9.9997895024492034e-01 -1.2777471194088351e-04 0.0000000000000000e+00  9.9997610588606256e-01 2.1071797175027229e-04 0.0000000000000000e+00  9.9998647682445219e-01 -1.3292960315836662e-04 0.0000000000000000e+00  9.9997176781911656e-01 2.0177001752912118e-04 0.0000000000000000e+00  9.9998671979682208e-01 -1.0925585792034666e-04 0.0000000000000000e+00  9.9997318511423772e-01 1.7154336280536899e-04 0.0000000000000000e+00  9.9999134443159154e-01 -9.2306773039671359e-05 0.0000000000000000e+00  9.9997261796884407e-01 1.4913088921067612e-04 0.0000000000000000e+00  9.9999824617093969e-01 -8.0519611032979876e-05 0.0000000000000000e+00  9.9997731950419277e-01 1.1235480274494531e-04 0.0000000000000000e+00  1.0000009506754586e+00 -5.4419452565150532e-05 0.0000000000000000e+00  9.9998632959599210e-01 7.0066635236217946e-05 0.0000000000000000e+00  1.0000024769794069e+00 -3.0813648913232459e-05 0.0000000000000000e+00  9.9999402146939464e-01 3.7877102335712817e-05 0.0000000000000000e+00  1.0000040151343559e+00 0.0000000000000000e+00 0.0000000000000000e+00  2.9999571487482490e+00 0.0000000000000000e+00 -1.3100569606075281e-05  2.9999563572288976e+00 4.1330599766895754e-05 5.0750795278050369e-06  2.9999325712829226e+00 9.1551798540229334e-05 4.9833338163083702e-07  2.9999090947439351e+00 1.5635821509341267e-04 1.3723213211355445e-06  2.9998600363723558e+00 2.4570109034855695e-04 -1.6669428091843902e-06  2.9997808631399359e+00 3.9129856307127520e-04 2.0141734504034686e-06  2.9996707271316079e+00 5.9392361242675612e-04 -1.0541136214156915e-06  2.9995028685279932e+00 9.0062036371913508e-04 7.7962932797171429e-07  2.9992542381464942e+00 1.3422402541171821e-03 4.7963328235057588e-07  2.9989114485827417e+00 1.9684591952872066e-03 -9.4989234156470219e-08  2.9984219405834005e+00 2.8493595263264912e-03 1.3234949844558927e-06  2.9977488976159981e+00 4.0611417622640408e-03 -7.0467167753803826e-07  2.9968453770711494e+00 5.6989789132238762e-03 2.1846331068404577e-06  2.9956367172227711e+00 7.8786048716311674e-03 -1.3505802620640351e-06  2.9940587165720234e+00 1.0730609956706666e-02 2.3305755944634134e-06  2.9920405409445849e+00 1.4384476366626649e-02 -1.3029667301804374e-06  2.9894822061221822e+00 1.9009988015027613e-02 1.7655595220976369e-06  2.9863145277245118e+00 2.4744628415123555e-02 -1.2919034023939621e-06  2.9824508265337868e+00 3.1749365358651215e-02 1.0869985267936812e-06  2.9778024290133853e+00 4.0171479040413884e-02 -9.4219585177996778e-07  2.9723109353462771e+00 5.0137684761399980e-02 -2.3886479953954522e-07  2.9659167485649083e+00 6.1756584722071087e-02 -9.9639305811532927e-08  2.9585600889013435e+00 7.5127453869260466e-02 -1.2352587489939755e-06  2.9502306588370364e+00 9.0297274006622033e-02 3.5779126240516688e-07  2.9409027004802999e+00 1.0730811729323170e-01 -1.8208130145148491e-06  2.9305740715781905e+00 1.2616845606685118e-01 1.2358104260269473e-06  2.9192689679180477e+00 1.4685342308040794e-01 -2.6422418322972306e-06  2.9070113153879511e+00 1.6933131074903798e-01 2.0219872566689623e-06  2.8938303029197523e+00 1.9353886542580942e-01 -2.7169011811942434e-06  2.8797866398550593e+00 2.1940531754789286e-01 2.1045434373782924e-06  2.8649190577862025e+00 2.4685158534198814e-01 -2.4978864855609732e-06  2.8492897308148368e+00 2.7577558348733966e-01 1.9466051813434276e-06  2.8329539337019920e+00 3.0609545186304338e-01 -1.8640162943693931e-06  2.8159706633491277e+00 3.3771314537492225e-01 1.1368599389221125e-06  2.7983973860708247e+00 3.7051566566307764e-01 -1.0578378071687691e-06  2.7802907101868333e+00 4.0443351936586525e-01 2.7595331767766537e-07  2.7616983723734232e+00 4.3937339821230048e-01 5.1181458184817175e-07  2.7426861124528648e+00 4.7521446536350281e-01 -2.7444214400442386e-06  2.7232826472299791e+00 5.1193211960784590e-01 4.4283686253508654e-06  2.7035433594047706e+00 5.4941549406876755e-01 -6.3978481842944662e-06  2.6835160441009944e+00 5.8758116978832031e-01 6.9247870506162271e-06  2.6632233838172548e+00 6.2640139379141979e-01 -8.7307780618150408e-06  2.6427050821861875e+00 6.6581019038449940e-01 1.0677114440034648e-05  2.6220138284639418e+00 7.0568994199767976e-01 -1.4347292486094438e-05  2.6011442134314238e+00 7.4609065109387218e-01 1.6345530717859833e-05  2.5801469241392030e+00 7.8689196111716642e-01 -1.7495148196102065e-05  2.5590523607719700e+00 8.2805495739652257e-01 1.6165538052385986e-05  2.5378596777991365e+00 8.6957296487841995e-01 -1.5283337533435361e-05  2.5166019514547564e+00 9.1140910826669297e-01 1.4023932731177165e-05  2.4953168670304309e+00 9.5345725752289223e-01 -1.3080025426930147e-05  2.4739838957550226e+00 9.9579535532640873e-01 9.9005018555368537e-06  2.4526462796376212e+00 1.0383185177268073e+00 -4.3456957962533477e-06  2.4313238046486640e+00 1.0810048574551361e+00 -3.2351176586513904e-06  2.4100023460368805e+00 1.1238626938759637e+00 1.1245450575322881e-05  2.3887186759718575e+00 1.1668504622614015e+00 -1.7721498254636079e-05  2.3674842743267877e+00 1.2099294458495882e+00 2.4247425442073203e-05  2.3462948450661232e+00 1.2530870032365526e+00 -3.0075471051424916e-05  2.3251699353162496e+00 1.2963471463569942e+00 3.8530384876448480e-05  2.3041358934186520e+00 1.3395863658777387e+00 -4.4356833657590497e-05  2.2831660800745808e+00 1.3829042428977818e+00 4.9439422246690370e-05  2.2623102844514196e+00 1.4261705428289930e+00 -4.7275998274693205e-05  2.2415516243950573e+00 1.4694835583334807e+00 4.5736622667405210e-05  2.2209139010827244e+00 1.5126529146991827e+00 -4.0413411039819905e-05  2.2003968836503089e+00 1.5558672330524896e+00 3.9545535379108256e-05  2.1800316150883283e+00 1.5989053868686394e+00 -3.4469859741015581e-05  2.1597996955895278e+00 1.6418728401689104e+00 3.4107335100504749e-05  2.1397488578353596e+00 1.6846472330585234e+00 -3.0468820290345595e-05  2.1198653623258261e+00 1.7273115143329003e+00 3.1751381334484539e-05  2.1001856817588282e+00 1.7696532776401617e+00 -2.5740982784074212e-05  2.0807159193943905e+00 1.8118213390201139e+00 2.2901247479006411e-05  2.0614963774962081e+00 1.8535911268900627e+00 -1.6949793484750910e-05  2.0425319691098052e+00 1.8950155304796008e+00 1.7644201623158411e-05  2.0238862180440247e+00 1.9359330261128642e+00 -1.3299015740692396e-05  2.0055783438650816e+00 1.9763047683522414e+00 1.1899312581314970e-05  1.9876777851229568e+00 2.0159110897256829e+00 -9.0089510153274870e-06  1.9702487476772739e+00 2.0547118993003761e+00 1.0205248537158451e-05  1.9533922143630642e+00 2.0923652681062048e+00 -7.7724703700393468e-06  1.9372071225906788e+00 2.1286624457169059e+00 4.8139232370540383e-06  1.9218755984669134e+00 2.1632063833545043e+00 -5.7823573180003798e-06  1.9075705923007045e+00 2.1955685641998808e+00 6.0895537399106715e-06  1.8945429622123007e+00 2.2251141966011563e+00 -5.3245174641286476e-06  1.8830730807247307e+00 2.2512465055162632e+00 6.0722278717662295e-06  1.8734524146016034e+00 2.273207