<?xml version="1.0"?>
<VTKFile type="UnstructuredGrid"  version="0.1"  >
<UnstructuredGrid>
<Piece  NumberOfPoints="8241" NumberOfCells="16000">
<Points>
<DataArray  type="Float64"  NumberOfComponents="3"  format="ascii">-5 -1 0  -4.95 -1 0  -4.9 -1 0  -4.85 -1 0  -4.8 -1 0  -4.75 -1 0  -4.7 -1 0  -4.65 -1 0  -4.6 -1 0  -4.55 -1 0  -4.5 -1 0  -4.45 -1 0  -4.4 -1 0  -4.35 -1 0  -4.3 -1 0  -4.25 -1 0  -4.2 -1 0  -4.15 -1 0  -4.1 -1 0  -4.05 -1 0  -4 -1 0  -3.95 -1 0  -3.9 -1 0  -3.85 -1 0  -3.8 -1 0  -3.75 -1 0  -3.7 -1 0  -3.65 -1 0  -3.6 -1 0  -3.55 -1 0  -3.5 -1 0  -3.45 -1 0  -3.4 -1 0  -3.35 -1 0  -3.3 -1 0  -3.25 -1 0  -3.2 -1 0  -3.15 -1 0  -3.1 -1 0  -3.05 -1 0  -3 -1 0  -2.95 -1 0  -2.9 -1 0  -2.85 -1 0  -2.8 -1 0  -2.75 -1 0  -2.7 -1 0  -2.65 -1 0  -2.6 -1 0  -2.55 -1 0  -2.5 -1 0  -2.45 -1 0  -2.4 -1 0  -2.35 -1 0  -2.3 -1 0  -2.25 -1 0  -2.2 -1 0  -2.15 -1 0  -2.1 -1 0  -2.05 -1 0  -2 -1 0  -1.95 -1 0  -1.9 -1 0  -1.85 -1 0  -1.8 -1 0  -1.75 -1 0  -1.7 -1 0  -1.65 -1 0  -1.6 -1 0  -1.55 -1 0  -1.5 -1 0  -1.45 -1 0  -1.4 -1 0  -1.35 -1 0  -1.3 -1 0  -1.25 -1 0  -1.2 -1 0  -1.15 -1 0  -1.1 -1 0  -1.05 -1 0  -1 -1 0  -0.9500000000000002 -1 0  -0.9000000000000004 -1 0  -0.8499999999999996 -1 0  -0.7999999999999998 -1 0  -0.75 -1 0  -0.7000000000000002 -1 0  -0.6500000000000004 -1 0  -0.5999999999999996 -1 0  -0.5499999999999998 -1 0  -0.5 -1 0  -0.4500000000000002 -1 0  -0.4000000000000004 -1 0  -0.3499999999999996 -1 0  -0.2999999999999998 -1 0  -0.25 -1 0  -0.2000000000000002 -1 0  -0.1500000000000004 -1 0  -0.09999999999999964 -1 0  -0.04999999999999982 -1 0  0 -1 0  0.04999999999999982 -1 0  0.09999999999999964 -1 0  0.1500000000000004 -1 0  0.2000000000000002 -1 0  0.25 -1 0  0.2999999999999998 -1 0  0.3499999999999996 -1 0  0.4000000000000004 -1 0  0.4500000000000002 -1 0  0.5 -1 0  0.5499999999999998 -1 0  0.5999999999999996 -1 0  0.6500000000000004 -1 0  0.7000000000000002 -1 0  0.75 -1 0  0.7999999999999998 -1 0  0.8499999999999996 -1 0  0.9000000000000004 -1 0  0.9500000000000002 -1 0  1 -1 0  1.05 -1 0  1.1 -1 0  1.15 -1 0  1.2 -1 0  1.25 -1 0  1.3 -1 0  1.35 -1 0  1.4 -1 0  1.45 -1 0  1.5 -1 0  1.55 -1 0  1.6 -1 0  1.65 -1 0  1.7 -1 0  1.75 -1 0  1.8 -1 0  1.85 -1 0  1.9 -1 0  1.95 -1 0  2 -1 0  2.05 -1 0  2.1 -1 0  2.15 -1 0  2.2 -1 0  2.25 -1 0  2.3 -1 0  2.35 -1 0  2.4 -1 0  2.45 -1 0  2.5 -1 0  2.55 -1 0  2.6 -1 0  2.65 -1 0  2.7 -1 0  2.75 -1 0  2.8 -1 0  2.85 -1 0  2.9 -1 0  2.95 -1 0  3 -1 0  3.050000000000001 -1 0  3.1 -1 0  3.15 -1 0  3.199999999999999 -1 0  3.25 -1 0  3.300000000000001 -1 0  3.35 -1 0  3.4 -1 0  3.449999999999999 -1 0  3.5 -1 0  3.550000000000001 -1 0  3.6 -1 0  3.65 -1 0  3.699999999999999 -1 0  3.75 -1 0  3.800000000000001 -1 0  3.85 -1 0  3.9 -1 0  3.949999999999999 -1 0  4 -1 0  4.050000000000001 -1 0  4.1 -1 0  4.15 -1 0  4.199999999999999 -1 0  4.25 -1 0  4.300000000000001 -1 0  4.35 -1 0  4.4 -1 0  4.449999999999999 -1 0  4.5 -1 0  4.550000000000001 -1 0  4.6 -1 0  4.65 -1 0  4.699999999999999 -1 0  4.75 -1 0  4.800000000000001 -1 0  4.85 -1 0  4.9 -1 0  4.949999999999999 -1 0  5 -1 0  -5 -0.95 0  -4.95 -0.95 0  -4.9 -0.95 0  -4.85 -0.95 0  -4.8 -0.95 0  -4.75 -0.95 0  -4.7 -0.95 0  -4.65 -0.95 0  -4.6 -0.95 0  -4.55 -0.95 0  -4.5 -0.95 0  -4.45 -0.95 0  -4.4 -0.95 0  -4.35 -0.95 0  -4.3 -0.95 0  -4.25 -0.95 0  -4.2 -0.95 0  -4.15 -0.95 0  -4.1 -0.95 0  -4.05 -0.95 0  -4 -0.95 0  -3.95 -0.95 0  -3.9 -0.95 0  -3.85 -0.95 0  -3.8 -0.95 0  -3.75 -0.95 0  -3.7 -0.95 0  -3.65 -0.95 0  -3.6 -0.95 0  -3.55 -0.95 0  -3.5 -0.95 0  -3.45 -0.95 0  -3.4 -0.95 0  -3.35 -0.95 0  -3.3 -0.95 0  -3.25 -0.95 0  -3.2 -0.95 0  -3.15 -0.95 0  -3.1 -0.95 0  -3.05 -0.95 0  -3 -0.95 0  -2.95 -0.95 0  -2.9 -0.95 0  -2.85 -0.95 0  -2.8 -0.95 0  -2.75 -0.95 0  -2.7 -0.95 0  -2.65 -0.95 0  -2.6 -0.95 0  -2.55 -0.95 0  -2.5 -0.95 0  -2.45 -0.95 0  -2.4 -0.95 0  -2.35 -0.95 0  -2.3 -0.95 0  -2.25 -0.95 0  -2.2 -0.95 0  -2.15 -0.95 0  -2.1 -0.95 0  -2.05 -0.95 0  -2 -0.95 0  -1.95 -0.95 0  -1.9 -0.95 0  -1.85 -0.95 0  -1.8 -0.95 0  -1.75 -0.95 0  -1.7 -0.95 0  -1.65 -0.95 0  -1.6 -0.95 0  -1.55 -0.95 0  -1.5 -0.95 0  -1.45 -0.95 0  -1.4 -0.95 0  -1.35 -0.95 0  -1.3 -0.95 0  -1.25 -0.95 0  -1.2 -0.95 0  -1.15 -0.95 0  -1.1 -0.95 0  -1.05 -0.95 0  -1 -0.95 0  -0.9500000000000002 -0.95 0  -0.9000000000000004 -0.95 0  -0.8499999999999996 -0.95 0  -0.7999999999999998 -0.95 0  -0.75 -0.95 0  -0.7000000000000002 -0.95 0  -0.6500000000000004 -0.95 0  -0.5999999999999996 -0.95 0  -0.5499999999999998 -0.95 0  -0.5 -0.95 0  -0.4500000000000002 -0.95 0  -0.4000000000000004 -0.95 0  -0.3499999999999996 -0.95 0  -0.2999999999999998 -0.95 0  -0.25 -0.95 0  -0.2000000000000002 -0.95 0  -0.1500000000000004 -0.95 0  -0.09999999999999964 -0.95 0  -0.04999999999999982 -0.95 0  0 -0.95 0  0.04999999999999982 -0.95 0  0.09999999999999964 -0.95 0  0.1500000000000004 -0.95 0  0.2000000000000002 -0.95 0  0.25 -0.95 0  0.2999999999999998 -0.95 0  0.3499999999999996 -0.95 0  0.4000000000000004 -0.95 0  0.4500000000000002 -0.95 0  0.5 -0.95 0  0.5499999999999998 -0.95 0  0.5999999999999996 -0.95 0  0.6500000000000004 -0.95 0  0.7000000000000002 -0.95 0  0.75 -0.95 0  0.7999999999999998 -0.95 0  0.8499999999999996 -0.95 0  0.9000000000000004 -0.95 0  0.9500000000000002 -0.95 0  1 -0.95 0  1.05 -0.95 0  1.1 -0.95 0  1.15 -0.95 0  1.2 -0.95 0  1.25 -0.95 0  1.3 -0.95 0  1.35 -0.95 0  1.4 -0.95 0  1.45 -0.95 0  1.5 -0.95 0  1.55 -0.95 0  1.6 -0.95 0  1.65 -0.95 0  1.7 -0.95 0  1.75 -0.95 0  1.8 -0.95 0  1.85 -0.95 0  1.9 -0.95 0  1.95 -0.95 0  2 -0.95 0  2.05 -0.95 0  2.1 -0.95 0  2.15 -0.95 0  2.2 -0.95 0  2.25 -0.95 0  2.3 -0.95 0  2.35 -0.95 0  2.4 -0.95 0  2.45 -0.95 0  2.5 -0.95 0  2.55 -0.95 0  2.6 -0.95 0  2.65 -0.95 0  2.7 -0.95 0  2.75 -0.95 0  2.8 -0.95 0  2.85 -0.95 0  2.9 -0.95 0  2.95 -0.95 0  3 -0.95 0  3.050000000000001 -0.95 0  3.1 -0.95 0  3.15 -0.95 0  3.199999999999999 -0.95 0  3.25 -0.95 0  3.300000000000001 -0.95 0  3.35 -0.95 0  3.4 -0.95 0  3.449999999999999 -0.95 0  3.5 -0.95 0  3.550000000000001 -0.95 0  3.6 -0.95 0  3.65 -0.95 0  3.699999999999999 -0.95 0  3.75 -0.95 0  3.800000000000001 -0.95 0  3.85 -0.95 0  3.9 -0.95 0  3.949999999999999 -0.95 0  4 -0.95 0  4.050000000000001 -0.95 0  4.1 -0.95 0  4.15 -0.95 0  4.199999999999999 -0.95 0  4.25 -0.95 0  4.300000000000001 -0.95 0  4.35 -0.95 0  4.4 -0.95 0  4.449999999999999 -0.95 0  4.5 -0.95 0  4.550000000000001 -0.95 0  4.6 -0.95 0  4.65 -0.95 0  4.699999999999999 -0.95 0  4.75 -0.95 0  4.800000000000001 -0.95 0  4.85 -0.95 0  4.9 -0.95 0  4.949999999999999 -0.95 0  5 -0.95 0  -5 -0.9 0  -4.95 -0.9 0  -4.9 -0.9 0  -4.85 -0.9 0  -4.8 -0.9 0  -4.75 -0.9 0  -4.7 -0.9 0  -4.65 -0.9 0  -4.6 -0.9 0  -4.55 -0.9 0  -4.5 -0.9 0  -4.45 -0.9 0  -4.4 -0.9 0  -4.35 -0.9 0  -4.3 -0.9 0  -4.25 -0.9 0  -4.2 -0.9 0  -4.15 -0.9 0  -4.1 -0.9 0  -4.05 -0.9 0  -4 -0.9 0  -3.95 -0.9 0  -3.9 -0.9 0  -3.85 -0.9 0  -3.8 -0.9 0  -3.75 -0.9 0  -3.7 -0.9 0  -3.65 -0.9 0  -3.6 -0.9 0  -3.55 -0.9 0  -3.5 -0.9 0  -3.45 -0.9 0  -3.4 -0.9 0  -3.35 -0.9 0  -3.3 -0.9 0  -3.25 -0.9 0  -3.2 -0.9 0  -3.15 -0.9 0  -3.1 -0.9 0  -3.05 -0.9 0  -3 -0.9 0  -2.95 -0.9 0  -2.9 -0.9 0  -2.85 -0.9 0  -2.8 -0.9 0  -2.75 -0.9 0  -2.7 -0.9 0  -2.65 -0.9 0  -2.6 -0.9 0  -2.55 -0.9 0  -2.5 -0.9 0  -2.45 -0.9 0  -2.4 -0.9 0  -2.35 -0.9 0  -2.3 -0.9 0  -2.25 -0.9 0  -2.2 -0.9 0  -2.15 -0.9 0  -2.1 -0.9 0  -2.05 -0.9 0  -2 -0.9 0  -1.95 -0.9 0  -1.9 -0.9 0  -1.85 -0.9 0  -1.8 -0.9 0  -1.75 -0.9 0  -1.7 -0.9 0  -1.65 -0.9 0  -1.6 -0.9 0  -1.55 -0.9 0  -1.5 -0.9 0  -1.45 -0.9 0  -1.4 -0.9 0  -1.35 -0.9 0  -1.3 -0.9 0  -1.25 -0.9 0  -1.2 -0.9 0  -1.15 -0.9 0  -1.1 -0.9 0  -1.05 -0.9 0  -1 -0.9 0  -0.9500000000000002 -0.9 0  -0.9000000000000004 -0.9 0  -0.8499999999999996 -0.9 0  -0.7999999999999998 -0.9 0  -0.75 -0.9 0  -0.7000000000000002 -0.9 0  -0.6500000000000004 -0.9 0  -0.5999999999999996 -0.9 0  -0.5499999999999998 -0.9 0  -0.5 -0.9 0  -0.4500000000000002 -0.9 0  -0.4000000000000004 -0.9 0  -0.3499999999999996 -0.9 0  -0.2999999999999998 -0.9 0  -0.25 -0.9 0  -0.2000000000000002 -0.9 0  -0.1500000000000004 -0.9 0  -0.09999999999999964 -0.9 0  -0.04999999999999982 -0.9 0  0 -0.9 0  0.04999999999999982 -0.9 0  0.09999999999999964 -0.9 0  0.1500000000000004 -0.9 0  0.2000000000000002 -0.9 0  0.25 -0.9 0  0.2999999999999998 -0.9 0  0.3499999999999996 -0.9 0  0.4000000000000004 -0.9 0  0.4500000000000002 -0.9 0  0.5 -0.9 0  0.5499999999999998 -0.9 0  0.5999999999999996 -0.9 0  0.6500000000000004 -0.9 0  0.7000000000000002 -0.9 0  0.75 -0.9 0  0.7999999999999998 -0.9 0  0.8499999999999996 -0.9 0  0.9000000000000004 -0.9 0  0.9500000000000002 -0.9 0  1 -0.9 0  1.05 -0.9 0  1.1 -0.9 0  1.15 -0.9 0  1.2 -0.9 0  1.25 -0.9 0  1.3 -0.9 0  1.35 -0.9 0  1.4 -0.9 0  1.45 -0.9 0  1.5 -0.9 0  1.55 -0.9 0  1.6 -0.9 0  1.65 -0.9 0  1.7 -0.9 0  1.75 -0.9 0  1.8 -0.9 0  1.85 -0.9 0  1.9 -0.9 0  1.95 -0.9 0  2 -0.9 0  2.05 -0.9 0  2.1 -0.9 0  2.15 -0.9 0  2.2 -0.9 0  2.25 -0.9 0  2.3 -0.9 0  2.35 -0.9 0  2.4 -0.9 0  2.45 -0.9 0  2.5 -0.9 0  2.55 -0.9 0  2.6 -0.9 0  2.65 -0.9 0  2.7 -0.9 0  2.75 -0.9 0  2.8 -0.9 0  2.85 -0.9 0  2.9 -0.9 0  2.95 -0.9 0  3 -0.9 0  3.050000000000001 -0.9 0  3.1 -0.9 0  3.15 -0.9 0  3.199999999999999 -0.9 0  3.25 -0.9 0  3.300000000000001 -0.9 0  3.35 -0.9 0  3.4 -0.9 0  3.449999999999999 -0.9 0  3.5 -0.9 0  3.550000000000001 -0.9 0  3.6 -0.9 0  3.65 -0.9 0  3.699999999999999 -0.9 0  3.75 -0.9 0  3.800000000000001 -0.9 0  3.85 -0.9 0  3.9 -0.9 0  3.949999999999999 -0.9 0  4 -0.9 0  4.050000000000001 -0.9 0  4.1 -0.9 0  4.15 -0.9 0  4.199999999999999 -0.9 0  4.25 -0.9 0  4.300000000000001 -0.9 0  4.35 -0.9 0  4.4 -0.9 0  4.449999999999999 -0.9 0  4.5 -0.9 0  4.550000000000001 -0.9 0  4.6 -0.9 0  4.65 -0.9 0  4.699999999999999 -0.9 0  4.75 -0.9 0  4.800000000000001 -0.9 0  4.85 -0.9 0  4.9 -0.9 0  4.949999999999999 -0.9 0  5 -0.9 0  -5 -0.85 0  -4.95 -0.85 0  -4.9 -0.85 0  -4.85 -0.85 0  -4.8 -0.85 0  -4.75 -0.85 0  -4.7 -0.85 0  -4.65 -0.85 0  -4.6 -0.85 0  -4.55 -0.85 0  -4.5 -0.85 0  -
[...]
<PointData  Vectors="f_15"> 
<DataArray  type="Float64"  Name="f_15"  NumberOfComponents="3" format="ascii">1.9272597737849551e+00 0.0000000000000000e+00 0.0000000000000000e+00  1.9272429190771057e+00 4.3855843640203965e-02 0.0000000000000000e+00  1.9271771448885560e+00 8.7615259129402726e-02 0.0000000000000000e+00  1.9270774132876036e+00 1.3148039474197284e-01 0.0000000000000000e+00  1.9269285037159498e+00 1.7524436317549169e-01 0.0000000000000000e+00  1.9267460605658293e+00 2.1905850240081437e-01 0.0000000000000000e+00  1.9265117882687781e+00 2.6280237216356089e-01 0.0000000000000000e+00  1.9262446961768445e+00 3.0655557688135615e-01 0.0000000000000000e+00  1.9259257417085827e+00 3.5025982231496189e-01 0.0000000000000000e+00  1.9255701580203977e+00 3.9393132899779432e-01 0.0000000000000000e+00  1.9251640564766941e+00 4.3757676456402900e-01 0.0000000000000000e+00  1.9247196009411012e+00 4.8115207357269107e-01 0.0000000000000000e+00  1.9242215142897243e+00 5.2471892719850688e-01 0.0000000000000000e+00  1.9236850690142759e+00 5.6816980944283035e-01 0.0000000000000000e+00  1.9230931557093807e+00 6.1164040149500076e-01 0.0000000000000000e+00  1.9224592810046579e+00 6.5496631326712640e-01 0.0000000000000000e+00  1.9217690673986556e+00 6.9826624990510078e-01 0.0000000000000000e+00  1.9210350435560122e+00 7.4149844122573605e-01 0.0000000000000000e+00  1.9202395311316030e+00 7.8458389484529700e-01 0.0000000000000000e+00  1.9194002712918601e+00 8.2765860670098723e-01 0.0000000000000000e+00  1.9184950750161434e+00 8.7056444783627973e-01 0.0000000000000000e+00  1.9175419853129645e+00 9.1342031554400238e-01 0.0000000000000000e+00  1.9165219449104460e+00 9.5608461887601381e-01 0.0000000000000000e+00  1.9154473895388016e+00 9.9874517315586064e-01 0.0000000000000000e+00  1.9143041771407301e+00 1.0411207104809272e+00 0.0000000000000000e+00  1.9131005384664013e+00 1.0834809743624187e+00 0.0000000000000000e+00  1.9118256600054822e+00 1.1256224283042835e+00 0.0000000000000000e+00  1.9104817684290065e+00 1.1676058782405792e+00 0.0000000000000000e+00  1.9090691023618827e+00 1.2094047116068916e+00 0.0000000000000000e+00  1.9075703964405073e+00 1.2510560512955209e+00 0.0000000000000000e+00  1.9060123747202893e+00 1.2924340901526110e+00 0.0000000000000000e+00  1.9043468342305305e+00 1.3336228761820332e+00 0.0000000000000000e+00  1.9026319091089761e+00 1.3746218069436913e+00 0.0000000000000000e+00  1.9007855882117384e+00 1.4152496580594967e+00 0.0000000000000000e+00  1.8989080570740289e+00 1.4557410603486272e+00 0.0000000000000000e+00  1.8968604613382640e+00 1.4958119479307050e+00 0.0000000000000000e+00  1.8948146206778202e+00 1.5357064949313404e+00 0.0000000000000000e+00  1.8925529559407077e+00 1.5750495401369895e+00 0.0000000000000000e+00  1.8903272281394625e+00 1.6143578397594394e+00 0.0000000000000000e+00  1.8878395144599149e+00 1.6528363079824713e+00 0.0000000000000000e+00  1.8854346944369433e+00 1.6913912042718435e+00 0.0000000000000000e+00  1.8827039927551033e+00 1.7289502916777388e+00 0.0000000000000000e+00  1.8801262205270204e+00 1.7666281429918380e+00 0.0000000000000000e+00  1.8771533413896770e+00 1.8030320286001065e+00 0.0000000000000000e+00  1.8744077915254262e+00 1.8397578767690372e+00 0.0000000000000000e+00  1.8712074151541569e+00 1.8748063229195258e+00 0.0000000000000000e+00  1.8683252970582520e+00 1.9103321961988535e+00 0.0000000000000000e+00  1.8649227060241542e+00 1.9438496677915786e+00 0.0000000000000000e+00  1.8619625763541150e+00 1.9779053281730941e+00 0.0000000000000000e+00  1.8584302258592444e+00 2.0095316163908912e+00 0.0000000000000000e+00  1.8554818228973051e+00 2.0418355127131944e+00 0.0000000000000000e+00  1.8519498474834561e+00 2.0711269039717739e+00 0.0000000000000000e+00  1.8491792094609318e+00 2.1011430950694430e+00 0.0000000000000000e+00  1.8458467598266715e+00 2.1275836028581190e+00 0.0000000000000000e+00  1.8435089653489507e+00 2.1546136811581289e+00 0.0000000000000000e+00  1.8406837723747571e+00 2.1774100792987849e+00 0.0000000000000000e+00  1.8391098312376515e+00 2.2006459547909785e+00 0.0000000000000000e+00  1.8371608186816695e+00 2.2189221915039523e+00 0.0000000000000000e+00  1.8366854791165736e+00 2.2375421420592421e+00 0.0000000000000000e+00  1.8358635334924926e+00 2.2507867106568198e+00 0.0000000000000000e+00  1.8365781643475099e+00 2.2645769642003235e+00 0.0000000000000000e+00  1.8367814247856262e+00 2.2731429759589679e+00 0.0000000000000000e+00  1.8383293960935441e+00 2.2829717216457595e+00 0.0000000000000000e+00  1.8390668306301678e+00 2.2881906961629856e+00 0.0000000000000000e+00  1.8408673108002012e+00 2.2954902435019728e+00 0.0000000000000000e+00  1.8416166574613262e+00 2.2987822418131958e+00 0.0000000000000000e+00  1.8432685373508686e+00 2.3046229327059486e+00 0.0000000000000000e+00  1.8438050016858394e+00 2.3067957428593511e+00 0.0000000000000000e+00  1.8451593704088660e+00 2.3116187145162290e+00 0.0000000000000000e+00  1.8454784173400012e+00 2.3130553110412415e+00 0.0000000000000000e+00  1.8465408982958553e+00 2.3169993102208193e+00 0.0000000000000000e+00  1.8466763446654204e+00 2.3178790168259180e+00 0.0000000000000000e+00  1.8474991554921463e+00 2.3210796086079992e+00 0.0000000000000000e+00  1.8475148945285507e+00 2.3215365234440544e+00 0.0000000000000000e+00  1.8481073882632622e+00 2.3240602926103944e+00 0.0000000000000000e+00  1.8480817682505528e+00 2.3243017787197822e+00 0.0000000000000000e+00  1.8484790120226171e+00 2.3261905530371858e+00 0.0000000000000000e+00  1.8484188397574759e+00 2.3263075538895337e+00 0.0000000000000000e+00  1.8486914895817603e+00 2.3277462891532155e+00 0.0000000000000000e+00  1.8486175643427956e+00 2.3277394282118093e+00 0.0000000000000000e+00  1.8487634479801074e+00 2.3287959846029627e+00 0.0000000000000000e+00  1.8487368512385389e+00 2.3288379991495098e+00 0.0000000000000000e+00  1.8487711324208489e+00 2.3294794026379191e+00 0.0000000000000000e+00  1.8487613716978004e+00 2.3295850702412495e+00 0.0000000000000000e+00  1.8487666467478638e+00 2.3300478634317834e+00 0.0000000000000000e+00  1.8487396056347443e+00 2.3300568599031064e+00 0.0000000000000000e+00  1.8487210671315149e+00 2.3304133845304298e+00 0.0000000000000000e+00  1.8487271922299489e+00 2.3304893341865589e+00 0.0000000000000000e+00  1.8486562940125013e+00 2.3306135301888098e+00 0.0000000000000000e+00  1.8486821423032405e+00 2.3307543606816159e+00 0.0000000000000000e+00  1.8486335947265629e+00 2.3308860978338148e+00 0.0000000000000000e+00  1.8486030446564914e+00 2.3308528268259514e+00 0.0000000000000000e+00  1.8486091568407224e+00 2.3310670427677365e+00 0.0000000000000000e+00  1.8485697606245532e+00 2.3310261182852612e+00 0.0000000000000000e+00  1.8485465783752939e+00 2.3311208200402294e+00 0.0000000000000000e+00  1.8485398569878171e+00 2.3311423900425039e+00 0.0000000000000000e+00  1.8485381542959254e+00 2.3312631031735207e+00 0.0000000000000000e+00  1.8484588883066335e+00 2.3311270711043872e+00 0.0000000000000000e+00  1.8485464995542011e+00 2.3313919025903482e+00 0.0000000000000000e+00  1.8484319012154835e+00 2.3311893550264657e+00 0.0000000000000000e+00  1.8484876855204848e+00 2.3313922106398772e+00 0.0000000000000000e+00  1.8484351090554523e+00 2.3312843770285836e+00 0.0000000000000000e+00  1.8484791634196029e+00 2.3314347782660141e+00 0.0000000000000000e+00  1.8483642103697790e+00 2.3312625549308494e+00 0.0000000000000000e+00  1.8485073934237370e+00 2.3315348066411952e+00 0.0000000000000000e+00  1.8483411844106343e+00 2.3312751081942169e+00 0.0000000000000000e+00  1.8484512916508302e+00 2.3315094471642390e+00 0.0000000000000000e+00  1.8483688762263799e+00 2.3313665014495277e+00 0.0000000000000000e+00  1.8484343035223594e+00 2.3315069856162727e+00 0.0000000000000000e+00  1.8483100985191305e+00 2.3313430668116992e+00 0.0000000000000000e+00  1.8484707101462146e+00 2.3315767717265325e+00 0.0000000000000000e+00  1.8482902704304596e+00 2.3313524902032463e+00 0.0000000000000000e+00  1.8484196864628069e+00 2.3315290937634261e+00 0.0000000000000000e+00  1.8483222903497845e+00 2.3314228919653335e+00 0.0000000000000000e+00  1.8484045618816163e+00 2.3315393799000770e+00 0.0000000000000000e+00  1.8482753481180829e+00 2.3313720922022556e+00 0.0000000000000000e+00  1.8484337227614223e+00 2.3315798160347372e+00 0.0000000000000000e+00  1.8482610780499609e+00 2.3314158650934691e+00 0.0000000000000000e+00  1.8483954554454052e+00 2.3315019813541573e+00 0.0000000000000000e+00  1.8482797483729765e+00 2.3314548243130768e+00 0.0000000000000000e+00  1.8483896514767097e+00 2.3315456596931883e+00 0.0000000000000000e+00  1.8482440129703459e+00 2.3313817681089355e+00 0.0000000000000000e+00  1.8484035755121018e+00 2.3315661695691210e+00 0.0000000000000000e+00  1.8482353272258820e+00 2.3314430800586030e+00 0.0000000000000000e+00  1.8483835424442960e+00 2.3314570447392784e+00 0.0000000000000000e+00  1.8482365942788965e+00 2.3315173404645471e+00 0.0000000000000000e+00  1.8483753463312338e+00 2.3314470616720921e+00 0.0000000000000000e+00  1.8482232342190654e+00 2.3314581546871240e+00 0.0000000000000000e+00  1.8483794542864536e+00 2.3315333046254678e+00 0.0000000000000000e+00  1.8482021204130048e+00 2.3313345195380286e+00 0.0000000000000000e+00  1.8483793133946713e+00 2.3316512864519883e+00 0.0000000000000000e+00  1.8482035007687667e+00 2.3312504098070881e+00 0.0000000000000000e+00  1.8483531026479201e+00 2.3316121068996782e+00 0.0000000000000000e+00  1.8482084499871132e+00 2.3314066375636640e+00 0.0000000000000000e+00  1.8483596383856729e+00 2.3313384080506081e+00 0.0000000000000000e+00  1.8481642966266540e+00 2.3317188387145449e+00 0.0000000000000000e+00  1.8483878560835163e+00 2.3309887240942788e+00 0.0000000000000000e+00  1.8481556626150020e+00 2.3320210695744059e+00 0.0000000000000000e+00  1.8483460922822079e+00 2.3307702742688488e+00 0.0000000000000000e+00  1.8481818508123475e+00 2.3320525446890281e+00 0.0000000000000000e+00  1.8483543515463683e+00 2.3309165284636126e+00 0.0000000000000000e+00  1.8480996733299011e+00 2.3317241236118238e+00 0.0000000000000000e+00  1.8484387847003900e+00 2.3312984672760964e+00 0.0000000000000000e+00  1.8480380835128078e+00 2.3313567793838867e+00 0.0000000000000000e+00  1.8484263252539876e+00 2.3315069472765546e+00 0.0000000000000000e+00  1.8480667896335932e+00 2.3312765813163643e+00 0.0000000000000000e+00  1.8484051310059360e+00 2.3314795418286374e+00 0.0000000000000000e+00  1.8480279361142626e+00 2.3312539117904141e+00 0.0000000000000000e+00  1.8484689079709997e+00 2.3315230275163041e+00 0.0000000000000000e+00  1.8479563065528068e+00 2.3311949239932708e+00 0.0000000000000000e+00  1.8484198684600253e+00 2.3315353890411994e+00 0.0000000000000000e+00  1.8479482520239106e+00 2.3314362371681412e+00 0.0000000000000000e+00  1.8481556047782068e+00 2.3316004029274984e+00 0.0000000000000000e+00  1.8477569912706897e+00 2.3318868952537706e+00 0.0000000000000000e+00  1.8478777932335342e+00 2.3320295631675467e+00 0.0000000000000000e+00  1.8474065018243719e+00 2.3320730177258091e+00 0.0000000000000000e+00  1.8478195303599585e+00 2.3322825943512573e+00 0.0000000000000000e+00  1.8474890713396133e+00 2.3314327043618230e+00 0.0000000000000000e+00  1.8482971372562811e+00 2.3317551051580585e+00 0.0000000000000000e+00  1.8479774097564572e+00 2.3299318509790576e+00 0.0000000000000000e+00  1.8490408982618884e+00 2.3310814521792871e+00 0.0000000000000000e+00  1.8483178737396730e+00 2.3290479056968962e+00 0.0000000000000000e+00  1.8489794200996772e+00 2.3301166528734591e+00 0.0000000000000000e+00  1.8491152856903972e+00 2.3303677363205306e+00 0.0000000000000000e+00  1.8474948469183685e+00 2.3268563297009144e+00 0.0000000000000000e+00  1.8526854482383392e+00 2.3323287928056446e+00 0.0000000000000000e+00  1.8402067156961686e+00 2.3289839641538306e+00 0.0000000000000000e+00  1.8407873480855563e+00 2.3797612433681987e+00 0.0000000000000000e+00  2.2143222345995071e+00 1.4867696095331824e+00 0.0000000000000000e+00  2.7662034474964545e+00 3.5373384375179789e-01 0.0000000000000000e+00  2.9616668627190084e+00 3.1439462951799564e-02 0.0000000000000000e+00  2.9693428905996968e+00 5.5762604658339144e-03 0.0000000000000000e+00  2.9639146979150781e+00 2.0056423294053903e-03 0.0000000000000000e+00  2.9722300417073919e+00 -7.5408530152099359e-03 0.0000000000000000e+00  2.9712580150963710e+00 -5.3016831920999988e-03 0.0000000000000000e+00  2.9713500195039368e+00 -7.8605510972266819e-03 0.0000000000000000e+00  2.9728223165006340e+00 -1.0392646585338788e-02 0.0000000000000000e+00  2.9721746477108710e+00 -8.6669627030716550e-03 0.0000000000000000e+00  2.9715026310903974e+00 -8.3070826013757829e-03 0.0000000000000000e+00  2.9718063902899035e+00 -8.4464656602948190e-03 0.0000000000000000e+00  2.9718827236992245e+00 -9.0126855888272451e-03 0.0000000000000000e+00  2.9719575123142921e+00 -8.7637850432322143e-03 0.0000000000000000e+00  2.9718188228743272e+00 -9.0392499517216104e-03 0.0000000000000000e+00  2.9717986386751933e+00 -8.4670940146210783e-03 0.0000000000000000e+00  2.9717195788446564e+00 -8.9322823300912457e-03 0.0000000000000000e+00  2.9718476238299774e+00 -8.6971467891480830e-03 0.0000000000000000e+00  2.9717131126639282e+00 -8.7963353504302514e-03 0.0000000000000000e+00  2.9718191497217368e+00 -8.8447455794086350e-03 0.0000000000000000e+00  2.9716721628376086e+00 -8.9129817797344822e-03 0.0000000000000000e+00  2.9717900852642463e+00 -8.4734974966535516e-03 0.0000000000000000e+00  2.9716578555128641e+00 -9.1982211723861205e-03 0.0000000000000000e+00  2.9717879848110353e+00 -8.5814894242225402e-03 0.0000000000000000e+00  2.9716292540866509e+00 -8.8227341855905903e-03 0.0000000000000000e+00  2.9717795690089939e+00 -9.5702643078651971e-03 0.0000000000000000e+00  2.9716101036885236e+00 -8.5400412875768616e-03 0.0000000000000000e+00  2.9717610526422749e+00 -9.4816908311119042e-03 0.0000000000000000e+00  2.9715931001371927e+00 -9.7781965948546875e-03 0.0000000000000000e+00  2.9717456475611828e+00 -8.4455707632274876e-03 0.0000000000000000e+00  2.9715771041773626e+00 -1.4826547300478533e-02 0.0000000000000000e+00  2.9716989028566272e+00 -1.0008904283875455e-02 0.0000000000000000e+00  2.9716039111556394e+00 0.0000000000000000e+00 0.0000000000000000e+00  1.9272672035751470e+00 0.0000000000000000e+00 -3.0337071269636722e-05  1.9272444728014138e+00 4.3822810732325128e-02 3.8055515464267799e-06  1.9271835483178652e+00 8.7664141186806432e-02 1.2327520720850610e-05  1.9270788934971117e+00 1.3147056811640304e-01 -5.5564912800366831e-06  1.9269347589126493e+00 1.7527116366671611e-01 3.5623218055899605e-06  1.9267455576753867e+00 2.1905869226726898e-01 -1.4119048543392054e-06  1.9265174009090040e+00 2.6281889111255202e-01 1.4488431534045435e-06  1.9262443145791905e+00 3.0656128651659803e-01 -1.3221378016115320e-06  1.9259289311861607e+00 3.5026418445844859e-01 1.6881423229314639e-06  1.9255697041762130e+00 3.9394249376450136e-01 -7.3874438657257022e-07  1.9251671949891744e+00 4.3757427943228977e-01 -3.6970457690130125e-07  1.9247173197361971e+00 4.8116775144583318e-01 2.9640262309014484e-06  1.9242248647722393e+00 5.2470111265116359e-01 -6.0806375446461164e-06  1.9236829918566123e+00 5.6820110782249500e-01 1.0246601642909095e-05  1.9230953629106298e+00 6.1161464079764050e-01 -1.3741796501595424e-05  1.9224575793798973e+00 6.5497914200099339e-01 1.5640107307192347e-05  1.9217721101853229e+00 6.9827639711607481e-01 -1.4389688294140080e-05  1.9210323612055353e+00 7.4147514149260640e-01 9.5200409311443758e-06  1.9202436354243315e+00 7.8460341069127226e-01 -2.1839823468864847e-06  1.9193985300680196e+00 8.2764826365756494e-01 -5.9269175096409454e-06  1.9184983503832242e+00 8.7057148401834750e-01 1.1729197255977817e-05  1.9175423406684509e+00 9.1338970686497511e-01 -1.4694600269232722e-05  1.9165250762809829e+00 9.5613755164851977e-01 1.2984076539538863e-05  1.9154483607295285e+00 9.9867992955097573e-01 -8.1483214509307309e-06  1.9143086796618995e+00 1.0411539192539778e+00 -1.6092400371716649e-07  1.9131016692591409e+00 1.0834812315336062e+00 7.1624710363385040e-06  1.9118302527551105e+00 1.1255951442312981e+00 -1.1581083335904095e-05  1.9104857596931917e+00 1.1676098457552078e+00 9.8906909779333369e-06  1.9090702676807325e+00 1.2094229288629352e+00 -6.1648226545039008e-06  1.9075790869521412e+00 1.2510220160117942e+00 1.3414016101824643e-06  1.9060102075720164e+00 1.2924348555083980e+00 -2.0281652676526733e-07  1.9043583058776006e+00 1.3336522649954472e+00 -1.7825922454515189e-07  1.9026259032316728e+00 1.3745704154284777e+00 -6.8846284638689338e-07  1.9008036288836130e+00 1.4152832304814940e+00 -1.9308091964038536e-06  1.8988915729076001e+00 1.4557230175215436e+00 5.5055699635181511e-06  1.8968890545436170e+00 1.4958300802554296e+00 -1.1187900775948269e-05  1.8947883533255174e+00 1.5356519715070034e+00 1.3565551756625145e-05  1.8925888863029809e+00 1.5751473470178110e+00 -1.5108767377337701e-05  1.8902915546483552e+00 1.6142330476930546e+00 1.4846906112815569e-05  1.8878891911800206e+00 1.6529548581149798e+00 -1.9319620134482976e-05  1.8853806630335086e+00 1.6912745887344560e+00 2.4931833119907113e-05  1.8827736363805101e+00 1.7290817926726931e+00 -3.2080114286992153e-05  1.8800544639673717e+00 1.7664414828005286e+00 3.5207257285953552e-05  1.8772377245892744e+00 1.8032608931012284e+00 -3.9270989872253706e-05  1.8743188987057460e+00 1.8394920741612668e+00 4.2934750903056205e-05  1.8713107485492437e+00 1.8750821391013914e+00 -4.9111994779384204e-05  1.8682084926981024e+00 1.9100472368820092e+00 5.3752163601239499e-05  1.8650502783223311e+00 1.9441649970544592e+00 -6.0170761217165407e-05  1.8618193369665685e+00 1.9775529886543435e+00 6.4509994663418377e-05  1.8585752294788707e+00 2.0099557774427534e+00 -6.9262273376839885e-05  1.8553154352091819e+00 2.0413913132780239e+00 7.1126345946717707e-05  1.8521149360428253e+00 2.0716200697299123e+00 -7.5204231911485262e-05  1.8489810376607592e+00 2.1006709291874226e+00 7.7811834720696064e-05  1.8460352565671123e+00 2.1281288834130381e+00 -8.2094872794571713e-05  1.8432846948451138e+00 2.1540782851538753e+00 8.4246290750466380e-05  1.8408903540396426e+00 2.1780416796874964e+00 -8.7291165581670664e-05  1.8388692585061521e+00 2.2000257805637475e+00 8.9143386196250391e-05  1.8373906811863134e+00 2.2196067569575431e+00 -8.8630225878038032e-05  1.8364269612592332e+00 2.2368771116724218e+00 9.1300265806455781e-05  1.8361182851263007e+00 2.2514995674683935e+00 -8.8210223337698972e-05  1.8363118441804136e+00 2.2638575124681117e+00 9.0535828505871154e-05  1.8370489144186770e+00 2.2738901160895710e+00 -8.7064218475749636e-05  1.8380638826626587e+00 2.2822138989101735e+00 8.6094047017351431e-05  1.8393401575506030e+00 2.2889525297779985e+00 -8.4687519929945611e-05  1.8405898197173607e+00 2.2947326559570276e+00 7.8455989114126806e-05  1.8418878799490446e+00 2.2995658670213355e+00 -7.4817622834166375e-05  1.8429886324062590e+00 2.3038817005209955e+00 6.6954906951003105e-05  1.8440550633293951e+00 2.3075731757029514e+00 -5.8738277072201221e-05  1.8449059731384918e+00 2.3109176771921085e+00 5.0199549753072992e-05  1.8457127590442559e+00 2.3137657876218203e+00 -3.9563243099428039e-05  1.8463089236614085e+00 2.3163337842358480e+00 2.9593502449424602e-05  1.8469041168256481e+00 2.3185429981318344e+00 -1.7316929396967886e-05  1.8472947724246140e+00 2.3204468706064132e+00 5.3229318539173703e-06  1.8476987146022863e+00 2.3221341186073161e+00 6.9891328919348369e-06  1.8479559147438305e+00 2.3235384649406683e+00 -1.9772734314127407e-05  1.8482140690199549e+00 2.3247858151821004e+00 3.0940062153521538e-05  1.8483499074980982e+00 2.3257718769723645e+00 -4.1961426635067539e-05  1.8485334925608314e+00 2.3267558290670545e+00 5.0029237456547262e-05  1.8485792831084151e+00 2.3273553609826716e+00 -5.7264934027822370e-05  1.8486836427784585e+00 2.3281351061511919e+00 6.1819721277613223e-05  1.8487094751081277e+00 2.3285361169347762e+00 -6.5677259735235057e-05  1.8487448468784700e+00 2.3290811211280857e+00 6.8246388267704416e-05  1.8487356873