<?xml version="1.0"?>
<VTKFile type="UnstructuredGrid"  version="0.1"  >
<UnstructuredGrid>
<Piece  NumberOfPoints="8241" NumberOfCells="16000">
<Points>
<DataArray  type="Float64"  NumberOfComponents="3"  format="ascii">-5 -1 0  -4.95 -1 0  -4.9 -1 0  -4.85 -1 0  -4.8 -1 0  -4.75 -1 0  -4.7 -1 0  -4.65 -1 0  -4.6 -1 0  -4.55 -1 0  -4.5 -1 0  -4.45 -1 0  -4.4 -1 0  -4.35 -1 0  -4.3 -1 0  -4.25 -1 0  -4.2 -1 0  -4.15 -1 0  -4.1 -1 0  -4.05 -1 0  -4 -1 0  -3.95 -1 0  -3.9 -1 0  -3.85 -1 0  -3.8 -1 0  -3.75 -1 0  -3.7 -1 0  -3.65 -1 0  -3.6 -1 0  -3.55 -1 0  -3.5 -1 0  -3.45 -1 0  -3.4 -1 0  -3.35 -1 0  -3.3 -1 0  -3.25 -1 0  -3.2 -1 0  -3.15 -1 0  -3.1 -1 0  -3.05 -1 0  -3 -1 0  -2.95 -1 0  -2.9 -1 0  -2.85 -1 0  -2.8 -1 0  -2.75 -1 0  -2.7 -1 0  -2.65 -1 0  -2.6 -1 0  -2.55 -1 0  -2.5 -1 0  -2.45 -1 0  -2.4 -1 0  -2.35 -1 0  -2.3 -1 0  -2.25 -1 0  -2.2 -1 0  -2.15 -1 0  -2.1 -1 0  -2.05 -1 0  -2 -1 0  -1.95 -1 0  -1.9 -1 0  -1.85 -1 0  -1.8 -1 0  -1.75 -1 0  -1.7 -1 0  -1.65 -1 0  -1.6 -1 0  -1.55 -1 0  -1.5 -1 0  -1.45 -1 0  -1.4 -1 0  -1.35 -1 0  -1.3 -1 0  -1.25 -1 0  -1.2 -1 0  -1.15 -1 0  -1.1 -1 0  -1.05 -1 0  -1 -1 0  -0.9500000000000002 -1 0  -0.9000000000000004 -1 0  -0.8499999999999996 -1 0  -0.7999999999999998 -1 0  -0.75 -1 0  -0.7000000000000002 -1 0  -0.6500000000000004 -1 0  -0.5999999999999996 -1 0  -0.5499999999999998 -1 0  -0.5 -1 0  -0.4500000000000002 -1 0  -0.4000000000000004 -1 0  -0.3499999999999996 -1 0  -0.2999999999999998 -1 0  -0.25 -1 0  -0.2000000000000002 -1 0  -0.1500000000000004 -1 0  -0.09999999999999964 -1 0  -0.04999999999999982 -1 0  0 -1 0  0.04999999999999982 -1 0  0.09999999999999964 -1 0  0.1500000000000004 -1 0  0.2000000000000002 -1 0  0.25 -1 0  0.2999999999999998 -1 0  0.3499999999999996 -1 0  0.4000000000000004 -1 0  0.4500000000000002 -1 0  0.5 -1 0  0.5499999999999998 -1 0  0.5999999999999996 -1 0  0.6500000000000004 -1 0  0.7000000000000002 -1 0  0.75 -1 0  0.7999999999999998 -1 0  0.8499999999999996 -1 0  0.9000000000000004 -1 0  0.9500000000000002 -1 0  1 -1 0  1.05 -1 0  1.1 -1 0  1.15 -1 0  1.2 -1 0  1.25 -1 0  1.3 -1 0  1.35 -1 0  1.4 -1 0  1.45 -1 0  1.5 -1 0  1.55 -1 0  1.6 -1 0  1.65 -1 0  1.7 -1 0  1.75 -1 0  1.8 -1 0  1.85 -1 0  1.9 -1 0  1.95 -1 0  2 -1 0  2.05 -1 0  2.1 -1 0  2.15 -1 0  2.2 -1 0  2.25 -1 0  2.3 -1 0  2.35 -1 0  2.4 -1 0  2.45 -1 0  2.5 -1 0  2.55 -1 0  2.6 -1 0  2.65 -1 0  2.7 -1 0  2.75 -1 0  2.8 -1 0  2.85 -1 0  2.9 -1 0  2.95 -1 0  3 -1 0  3.050000000000001 -1 0  3.1 -1 0  3.15 -1 0  3.199999999999999 -1 0  3.25 -1 0  3.300000000000001 -1 0  3.35 -1 0  3.4 -1 0  3.449999999999999 -1 0  3.5 -1 0  3.550000000000001 -1 0  3.6 -1 0  3.65 -1 0  3.699999999999999 -1 0  3.75 -1 0  3.800000000000001 -1 0  3.85 -1 0  3.9 -1 0  3.949999999999999 -1 0  4 -1 0  4.050000000000001 -1 0  4.1 -1 0  4.15 -1 0  4.199999999999999 -1 0  4.25 -1 0  4.300000000000001 -1 0  4.35 -1 0  4.4 -1 0  4.449999999999999 -1 0  4.5 -1 0  4.550000000000001 -1 0  4.6 -1 0  4.65 -1 0  4.699999999999999 -1 0  4.75 -1 0  4.800000000000001 -1 0  4.85 -1 0  4.9 -1 0  4.949999999999999 -1 0  5 -1 0  -5 -0.95 0  -4.95 -0.95 0  -4.9 -0.95 0  -4.85 -0.95 0  -4.8 -0.95 0  -4.75 -0.95 0  -4.7 -0.95 0  -4.65 -0.95 0  -4.6 -0.95 0  -4.55 -0.95 0  -4.5 -0.95 0  -4.45 -0.95 0  -4.4 -0.95 0  -4.35 -0.95 0  -4.3 -0.95 0  -4.25 -0.95 0  -4.2 -0.95 0  -4.15 -0.95 0  -4.1 -0.95 0  -4.05 -0.95 0  -4 -0.95 0  -3.95 -0.95 0  -3.9 -0.95 0  -3.85 -0.95 0  -3.8 -0.95 0  -3.75 -0.95 0  -3.7 -0.95 0  -3.65 -0.95 0  -3.6 -0.95 0  -3.55 -0.95 0  -3.5 -0.95 0  -3.45 -0.95 0  -3.4 -0.95 0  -3.35 -0.95 0  -3.3 -0.95 0  -3.25 -0.95 0  -3.2 -0.95 0  -3.15 -0.95 0  -3.1 -0.95 0  -3.05 -0.95 0  -3 -0.95 0  -2.95 -0.95 0  -2.9 -0.95 0  -2.85 -0.95 0  -2.8 -0.95 0  -2.75 -0.95 0  -2.7 -0.95 0  -2.65 -0.95 0  -2.6 -0.95 0  -2.55 -0.95 0  -2.5 -0.95 0  -2.45 -0.95 0  -2.4 -0.95 0  -2.35 -0.95 0  -2.3 -0.95 0  -2.25 -0.95 0  -2.2 -0.95 0  -2.15 -0.95 0  -2.1 -0.95 0  -2.05 -0.95 0  -2 -0.95 0  -1.95 -0.95 0  -1.9 -0.95 0  -1.85 -0.95 0  -1.8 -0.95 0  -1.75 -0.95 0  -1.7 -0.95 0  -1.65 -0.95 0  -1.6 -0.95 0  -1.55 -0.95 0  -1.5 -0.95 0  -1.45 -0.95 0  -1.4 -0.95 0  -1.35 -0.95 0  -1.3 -0.95 0  -1.25 -0.95 0  -1.2 -0.95 0  -1.15 -0.95 0  -1.1 -0.95 0  -1.05 -0.95 0  -1 -0.95 0  -0.9500000000000002 -0.95 0  -0.9000000000000004 -0.95 0  -0.8499999999999996 -0.95 0  -0.7999999999999998 -0.95 0  -0.75 -0.95 0  -0.7000000000000002 -0.95 0  -0.6500000000000004 -0.95 0  -0.5999999999999996 -0.95 0  -0.5499999999999998 -0.95 0  -0.5 -0.95 0  -0.4500000000000002 -0.95 0  -0.4000000000000004 -0.95 0  -0.3499999999999996 -0.95 0  -0.2999999999999998 -0.95 0  -0.25 -0.95 0  -0.2000000000000002 -0.95 0  -0.1500000000000004 -0.95 0  -0.09999999999999964 -0.95 0  -0.04999999999999982 -0.95 0  0 -0.95 0  0.04999999999999982 -0.95 0  0.09999999999999964 -0.95 0  0.1500000000000004 -0.95 0  0.2000000000000002 -0.95 0  0.25 -0.95 0  0.2999999999999998 -0.95 0  0.3499999999999996 -0.95 0  0.4000000000000004 -0.95 0  0.4500000000000002 -0.95 0  0.5 -0.95 0  0.5499999999999998 -0.95 0  0.5999999999999996 -0.95 0  0.6500000000000004 -0.95 0  0.7000000000000002 -0.95 0  0.75 -0.95 0  0.7999999999999998 -0.95 0  0.8499999999999996 -0.95 0  0.9000000000000004 -0.95 0  0.9500000000000002 -0.95 0  1 -0.95 0  1.05 -0.95 0  1.1 -0.95 0  1.15 -0.95 0  1.2 -0.95 0  1.25 -0.95 0  1.3 -0.95 0  1.35 -0.95 0  1.4 -0.95 0  1.45 -0.95 0  1.5 -0.95 0  1.55 -0.95 0  1.6 -0.95 0  1.65 -0.95 0  1.7 -0.95 0  1.75 -0.95 0  1.8 -0.95 0  1.85 -0.95 0  1.9 -0.95 0  1.95 -0.95 0  2 -0.95 0  2.05 -0.95 0  2.1 -0.95 0  2.15 -0.95 0  2.2 -0.95 0  2.25 -0.95 0  2.3 -0.95 0  2.35 -0.95 0  2.4 -0.95 0  2.45 -0.95 0  2.5 -0.95 0  2.55 -0.95 0  2.6 -0.95 0  2.65 -0.95 0  2.7 -0.95 0  2.75 -0.95 0  2.8 -0.95 0  2.85 -0.95 0  2.9 -0.95 0  2.95 -0.95 0  3 -0.95 0  3.050000000000001 -0.95 0  3.1 -0.95 0  3.15 -0.95 0  3.199999999999999 -0.95 0  3.25 -0.95 0  3.300000000000001 -0.95 0  3.35 -0.95 0  3.4 -0.95 0  3.449999999999999 -0.95 0  3.5 -0.95 0  3.550000000000001 -0.95 0  3.6 -0.95 0  3.65 -0.95 0  3.699999999999999 -0.95 0  3.75 -0.95 0  3.800000000000001 -0.95 0  3.85 -0.95 0  3.9 -0.95 0  3.949999999999999 -0.95 0  4 -0.95 0  4.050000000000001 -0.95 0  4.1 -0.95 0  4.15 -0.95 0  4.199999999999999 -0.95 0  4.25 -0.95 0  4.300000000000001 -0.95 0  4.35 -0.95 0  4.4 -0.95 0  4.449999999999999 -0.95 0  4.5 -0.95 0  4.550000000000001 -0.95 0  4.6 -0.95 0  4.65 -0.95 0  4.699999999999999 -0.95 0  4.75 -0.95 0  4.800000000000001 -0.95 0  4.85 -0.95 0  4.9 -0.95 0  4.949999999999999 -0.95 0  5 -0.95 0  -5 -0.9 0  -4.95 -0.9 0  -4.9 -0.9 0  -4.85 -0.9 0  -4.8 -0.9 0  -4.75 -0.9 0  -4.7 -0.9 0  -4.65 -0.9 0  -4.6 -0.9 0  -4.55 -0.9 0  -4.5 -0.9 0  -4.45 -0.9 0  -4.4 -0.9 0  -4.35 -0.9 0  -4.3 -0.9 0  -4.25 -0.9 0  -4.2 -0.9 0  -4.15 -0.9 0  -4.1 -0.9 0  -4.05 -0.9 0  -4 -0.9 0  -3.95 -0.9 0  -3.9 -0.9 0  -3.85 -0.9 0  -3.8 -0.9 0  -3.75 -0.9 0  -3.7 -0.9 0  -3.65 -0.9 0  -3.6 -0.9 0  -3.55 -0.9 0  -3.5 -0.9 0  -3.45 -0.9 0  -3.4 -0.9 0  -3.35 -0.9 0  -3.3 -0.9 0  -3.25 -0.9 0  -3.2 -0.9 0  -3.15 -0.9 0  -3.1 -0.9 0  -3.05 -0.9 0  -3 -0.9 0  -2.95 -0.9 0  -2.9 -0.9 0  -2.85 -0.9 0  -2.8 -0.9 0  -2.75 -0.9 0  -2.7 -0.9 0  -2.65 -0.9 0  -2.6 -0.9 0  -2.55 -0.9 0  -2.5 -0.9 0  -2.45 -0.9 0  -2.4 -0.9 0  -2.35 -0.9 0  -2.3 -0.9 0  -2.25 -0.9 0  -2.2 -0.9 0  -2.15 -0.9 0  -2.1 -0.9 0  -2.05 -0.9 0  -2 -0.9 0  -1.95 -0.9 0  -1.9 -0.9 0  -1.85 -0.9 0  -1.8 -0.9 0  -1.75 -0.9 0  -1.7 -0.9 0  -1.65 -0.9 0  -1.6 -0.9 0  -1.55 -0.9 0  -1.5 -0.9 0  -1.45 -0.9 0  -1.4 -0.9 0  -1.35 -0.9 0  -1.3 -0.9 0  -1.25 -0.9 0  -1.2 -0.9 0  -1.15 -0.9 0  -1.1 -0.9 0  -1.05 -0.9 0  -1 -0.9 0  -0.9500000000000002 -0.9 0  -0.9000000000000004 -0.9 0  -0.8499999999999996 -0.9 0  -0.7999999999999998 -0.9 0  -0.75 -0.9 0  -0.7000000000000002 -0.9 0  -0.6500000000000004 -0.9 0  -0.5999999999999996 -0.9 0  -0.5499999999999998 -0.9 0  -0.5 -0.9 0  -0.4500000000000002 -0.9 0  -0.4000000000000004 -0.9 0  -0.3499999999999996 -0.9 0  -0.2999999999999998 -0.9 0  -0.25 -0.9 0  -0.2000000000000002 -0.9 0  -0.1500000000000004 -0.9 0  -0.09999999999999964 -0.9 0  -0.04999999999999982 -0.9 0  0 -0.9 0  0.04999999999999982 -0.9 0  0.09999999999999964 -0.9 0  0.1500000000000004 -0.9 0  0.2000000000000002 -0.9 0  0.25 -0.9 0  0.2999999999999998 -0.9 0  0.3499999999999996 -0.9 0  0.4000000000000004 -0.9 0  0.4500000000000002 -0.9 0  0.5 -0.9 0  0.5499999999999998 -0.9 0  0.5999999999999996 -0.9 0  0.6500000000000004 -0.9 0  0.7000000000000002 -0.9 0  0.75 -0.9 0  0.7999999999999998 -0.9 0  0.8499999999999996 -0.9 0  0.9000000000000004 -0.9 0  0.9500000000000002 -0.9 0  1 -0.9 0  1.05 -0.9 0  1.1 -0.9 0  1.15 -0.9 0  1.2 -0.9 0  1.25 -0.9 0  1.3 -0.9 0  1.35 -0.9 0  1.4 -0.9 0  1.45 -0.9 0  1.5 -0.9 0  1.55 -0.9 0  1.6 -0.9 0  1.65 -0.9 0  1.7 -0.9 0  1.75 -0.9 0  1.8 -0.9 0  1.85 -0.9 0  1.9 -0.9 0  1.95 -0.9 0  2 -0.9 0  2.05 -0.9 0  2.1 -0.9 0  2.15 -0.9 0  2.2 -0.9 0  2.25 -0.9 0  2.3 -0.9 0  2.35 -0.9 0  2.4 -0.9 0  2.45 -0.9 0  2.5 -0.9 0  2.55 -0.9 0  2.6 -0.9 0  2.65 -0.9 0  2.7 -0.9 0  2.75 -0.9 0  2.8 -0.9 0  2.85 -0.9 0  2.9 -0.9 0  2.95 -0.9 0  3 -0.9 0  3.050000000000001 -0.9 0  3.1 -0.9 0  3.15 -0.9 0  3.199999999999999 -0.9 0  3.25 -0.9 0  3.300000000000001 -0.9 0  3.35 -0.9 0  3.4 -0.9 0  3.449999999999999 -0.9 0  3.5 -0.9 0  3.550000000000001 -0.9 0  3.6 -0.9 0  3.65 -0.9 0  3.699999999999999 -0.9 0  3.75 -0.9 0  3.800000000000001 -0.9 0  3.85 -0.9 0  3.9 -0.9 0  3.949999999999999 -0.9 0  4 -0.9 0  4.050000000000001 -0.9 0  4.1 -0.9 0  4.15 -0.9 0  4.199999999999999 -0.9 0  4.25 -0.9 0  4.300000000000001 -0.9 0  4.35 -0.9 0  4.4 -0.9 0  4.449999999999999 -0.9 0  4.5 -0.9 0  4.550000000000001 -0.9 0  4.6 -0.9 0  4.65 -0.9 0  4.699999999999999 -0.9 0  4.75 -0.9 0  4.800000000000001 -0.9 0  4.85 -0.9 0  4.9 -0.9 0  4.949999999999999 -0.9 0  5 -0.9 0  -5 -0.85 0  -4.95 -0.85 0  -4.9 -0.85 0  -4.85 -0.85 0  -4.8 -0.85 0  -4.75 -0.85 0  -4.7 -0.85 0  -4.65 -0.85 0  -4.6 -0.85 0  -4.55 -0.85 0  -4.5 -0.85 0  -
[...]
<PointData  Vectors="f_15"> 
<DataArray  type="Float64"  Name="f_15"  NumberOfComponents="3" format="ascii">3.0000000000021272e+00 0.0000000000000000e+00 0.0000000000000000e+00  2.9999999999978977e+00 -2.9353173956236178e-12 0.0000000000000000e+00  3.0000000000020730e+00 3.5213816964899752e-12 0.0000000000000000e+00  2.9999999999974158e+00 -4.1478784433256984e-12 0.0000000000000000e+00  3.0000000000035092e+00 4.9526930679147563e-12 0.0000000000000000e+00  2.9999999999949027e+00 -6.4314361204399351e-12 0.0000000000000000e+00  3.0000000000078195e+00 8.9517218279326348e-12 0.0000000000000000e+00  2.9999999999873914e+00 -1.3202459837388913e-11 0.0000000000000000e+00  3.0000000000212759e+00 2.0696732353320732e-11 0.0000000000000000e+00  2.9999999999628315e+00 -3.4612939638209768e-11 0.0000000000000000e+00  3.0000000000662181e+00 6.0967063656047686e-11 0.0000000000000000e+00  2.9999999998813762e+00 -1.1040106862693768e-10 0.0000000000000000e+00  3.0000000002118252e+00 2.0127676742845860e-10 0.0000000000000000e+00  2.9999999996244484e+00 -3.6528743581124874e-10 0.0000000000000000e+00  3.0000000006600942e+00 6.5721277219036473e-10 0.0000000000000000e+00  2.9999999988508335e+00 -1.1710638250106382e-09 0.0000000000000000e+00  3.0000000019798678e+00 2.0662104827475715e-09 0.0000000000000000e+00  2.9999999966263484e+00 -3.6092464290604065e-09 0.0000000000000000e+00  3.0000000056836997e+00 6.2393151851874469e-09 0.0000000000000000e+00  2.9999999905360579e+00 -1.0665129922871602e-08 0.0000000000000000e+00  3.0000000155644693e+00 1.8002189852122833e-08 0.0000000000000000e+00  2.9999999747403581e+00 -2.9964195518433446e-08 0.0000000000000000e+00  3.0000000404225760e+00 4.9137939667923625e-08 0.0000000000000000e+00  2.9999999362315783e+00 -7.9388643154032093e-08 0.0000000000000000e+00  3.0000000991856757e+00 1.2643683593969564e-07 0.0000000000000000e+00  2.9999998478551846e+00 -1.9859360074198153e-07 0.0000000000000000e+00  3.0000002301277595e+00 3.0755587881411032e-07 0.0000000000000000e+00  2.9999996569943912e+00 -4.6913941902277226e-07 0.0000000000000000e+00  3.0000005033612283e+00 7.0395755373765476e-07 0.0000000000000000e+00  2.9999992731216687e+00 -1.0383096980615563e-06 0.0000000000000000e+00  3.0000010329575115e+00 1.5056001161942014e-06 0.0000000000000000e+00  2.9999985545355359e+00 -2.1481491098651065e-06 0.0000000000000000e+00  3.0000019930441413e+00 3.0182171911457299e-06 0.0000000000000000e+00  2.9999972918507076e+00 -4.1765731607067626e-06 0.0000000000000000e+00  3.0000036245929889e+00 5.6878891601221818e-06 0.0000000000000000e+00  2.9999952251121420e+00 -7.6156058014352358e-06 0.0000000000000000e+00  3.0000061898241799e+00 1.0020856839728608e-05 0.0000000000000000e+00  2.9999920986551918e+00 -1.2968575344790372e-05 0.0000000000000000e+00  3.0000099454175340e+00 1.6534243405613446e-05 0.0000000000000000e+00  2.9999876416468121e+00 -2.0797591392251126e-05 0.0000000000000000e+00  3.0000151608316665e+00 2.5812581403969673e-05 0.0000000000000000e+00  2.9999816597890807e+00 -3.1564046237747272e-05 0.0000000000000000e+00  3.0000218420508360e+00 3.7956912947045883e-05 0.0000000000000000e+00  2.9999743951353435e+00 -4.4854986691724305e-05 0.0000000000000000e+00  3.0000295858312520e+00 5.2197985344229937e-05 0.0000000000000000e+00  2.9999661875130728e+00 -5.9998878867890143e-05 0.0000000000000000e+00  3.0000382495017281e+00 6.8334383191436657e-05 0.0000000000000000e+00  2.9999571766240547e+00 -7.6908079532917039e-05 0.0000000000000000e+00  3.0000470950928806e+00 8.5242152500521998e-05 0.0000000000000000e+00  2.9999491447195044e+00 -9.2200370444978273e-05 0.0000000000000000e+00  3.0000535325859436e+00 9.7719770247025968e-05 0.0000000000000000e+00  2.9999441092502481e+00 -1.0131292862590523e-04 0.0000000000000000e+00  3.0000573351166793e+00 1.0517739158970119e-04 0.0000000000000000e+00  2.9999404966435965e+00 -1.0773493238441773e-04 0.0000000000000000e+00  3.0000592147135583e+00 1.1067740724428412e-04 0.0000000000000000e+00  2.9999412301011024e+00 -1.0690583525095691e-04 0.0000000000000000e+00  3.0000522005855284e+00 1.0005678086775272e-04 0.0000000000000000e+00  2.9999526590718415e+00 -8.3861694403720047e-05 0.0000000000000000e+00  3.0000374309697913e+00 7.1860940660258677e-05 0.0000000000000000e+00  2.9999648936743450e+00 -5.9541915038423787e-05 0.0000000000000000e+00  3.0000276717947618e+00 5.4433542449550358e-05 0.0000000000000000e+00  2.9999767586434776e+00 -4.4908737209344600e-05 0.0000000000000000e+00  3.0000099166739385e+00 2.0604598153710808e-05 0.0000000000000000e+00  3.0000075062069338e+00 5.3938428124417410e-06 0.0000000000000000e+00  2.9999818497479667e+00 -4.6272871070794413e-05 0.0000000000000000e+00  3.0000314044943908e+00 4.8236839666946138e-05 0.0000000000000000e+00  2.9999793206422760e+00 -5.6670613787548576e-05 0.0000000000000000e+00  3.0000283882988668e+00 3.3933904226550944e-05 0.0000000000000000e+00  2.9999765691144424e+00 -4.4280791298358160e-05 0.0000000000000000e+00  3.0000405423766980e+00 6.8143960262731122e-05 0.0000000000000000e+00  2.9999507703924118e+00 -8.0430606858616406e-05 0.0000000000000000e+00  3.0000411706529237e+00 1.0131440538306461e-04 0.0000000000000000e+00  2.9999581123655505e+00 -4.1242424275026227e-05 0.0000000000000000e+00  3.0000029075085366e+00 5.1302622055010791e-05 0.0000000000000000e+00  2.9999596225612919e+00 4.6492742790901224e-05 0.0000000000000000e+00  2.9999471594117324e+00 1.1314622869060320e-04 0.0000000000000000e+00  2.9998435607716396e+00 2.5380646022705631e-04 0.0000000000000000e+00  2.9996761530596614e+00 5.8535242582345454e-04 0.0000000000000000e+00  2.9992444938972040e+00 1.3433144846478832e-03 0.0000000000000000e+00  2.9984231052721046e+00 2.8357290486930695e-03 0.0000000000000000e+00  2.9967330516436368e+00 5.8600409717482101e-03 0.0000000000000000e+00  2.9936574642340044e+00 1.1375883732785910e-02 0.0000000000000000e+00  2.9882767874491023e+00 2.1217424754402577e-02 0.0000000000000000e+00  2.9793665226046415e+00 3.7197625706117420e-02 0.0000000000000000e+00  2.9655840552148276e+00 6.2272746702824691e-02 0.0000000000000000e+00  2.9455026770503796e+00 9.8828189548602327e-02 0.0000000000000000e+00  2.9177921504773354e+00 1.4942612039821443e-01 0.0000000000000000e+00  2.8816241085041501e+00 2.1568977585972243e-01 0.0000000000000000e+00  2.8368264639807208e+00 2.9858894046666917e-01 0.0000000000000000e+00  2.7835358206463412e+00 3.9767718083425585e-01 0.0000000000000000e+00  2.7228189463177284e+00 5.1194827291334155e-01 0.0000000000000000e+00  2.6557325982307258e+00 6.3935901617970536e-01 0.0000000000000000e+00  2.5839823972519373e+00 7.7777294193452062e-01 0.0000000000000000e+00  2.5088903102448108e+00 9.2434697329776361e-01 0.0000000000000000e+00  2.4321246289509171e+00 1.0767101524776654e+00 0.0000000000000000e+00  2.3549619557065324e+00 1.2322486467256926e+00 0.0000000000000000e+00  2.2786670088952232e+00 1.3886167589708893e+00 0.0000000000000000e+00  2.2044088459437168e+00 1.5432823413755876e+00 0.0000000000000000e+00  2.1333486054930009e+00 1.6940956634434545e+00 0.0000000000000000e+00  2.0668531059593720e+00 1.8372530977449908e+00 0.0000000000000000e+00  2.0066338976769065e+00 1.9690999702950653e+00 0.0000000000000000e+00  1.9546993012839997e+00 2.0841986966295263e+00 0.0000000000000000e+00  1.9132342650726823e+00 2.1772959173230131e+00 0.0000000000000000e+00  1.8838184467749559e+00 2.2439079561653390e+00 0.0000000000000000e+00  1.8662150893787448e+00 2.2840278452424561e+00 0.0000000000000000e+00  1.8576356416621538e+00 2.3034377677010274e+00 0.0000000000000000e+00  1.8542348457043725e+00 2.3110020537944136e+00 0.0000000000000000e+00  1.8526589087319727e+00 2.3141987974655569e+00 0.0000000000000000e+00  1.8519754859192894e+00 2.3149036813481483e+00 0.0000000000000000e+00  1.8513752836124260e+00 2.3158674729251105e+00 0.0000000000000000e+00  1.8507990620285115e+00 2.3159962081794032e+00 0.0000000000000000e+00  1.8494200147789024e+00 2.3142585918090135e+00 0.0000000000000000e+00  1.8474170485809169e+00 2.3115682411424099e+00 0.0000000000000000e+00  1.8400992618993757e+00 2.2955242415009134e+00 0.0000000000000000e+00  1.8267636252281318e+00 2.2656458415695773e+00 0.0000000000000000e+00  1.7902183716139441e+00 2.1836417382167772e+00 0.0000000000000000e+00  1.7234585056689535e+00 2.0262000386452015e+00 0.0000000000000000e+00  1.5990955958687081e+00 1.7094475418881567e+00 0.0000000000000000e+00  1.3381033645367910e+00 1.0130666431962427e+00 0.0000000000000000e+00  1.1090130079378577e+00 3.4207195775880755e-01 0.0000000000000000e+00  1.0240669160836842e+00 7.7245752175389745e-02 0.0000000000000000e+00  1.0051560238163773e+00 1.6796469361835820e-02 0.0000000000000000e+00  1.0013047404799633e+00 4.2655531219311310e-03 0.0000000000000000e+00  1.0003926243676617e+00 1.2208569217817731e-03 0.0000000000000000e+00  1.0001083272569076e+00 4.0648096784012702e-04 0.0000000000000000e+00  1.0000409300863689e+00 1.0057500910067725e-04 0.0000000000000000e+00  1.0000108650848591e+00 3.6191513832159689e-05 0.0000000000000000e+00  1.0000001372393823e+00 1.6810881703681491e-05 0.0000000000000000e+00  1.0000032408969903e+00 -4.5927267877273531e-06 0.0000000000000000e+00  9.9999957668787987e-01 3.4162929426982836e-06 0.0000000000000000e+00  9.9999933152629905e-01 1.5938286526560569e-06 0.0000000000000000e+00  1.0000009924332411e+00 -2.6114570970703588e-06 0.0000000000000000e+00  9.9999949803088994e-01 1.6432799524782235e-06 0.0000000000000000e+00  9.9999996461658636e-01 -1.1979860356265841e-07 0.0000000000000000e+00  1.0000002755183079e+00 -6.7733648516751766e-07 0.0000000000000000e+00  9.9999977651811256e-01 6.4835808325023937e-07 0.0000000000000000e+00  1.0000000687091442e+00 -2.5192523117691508e-07 0.0000000000000000e+00  1.0000000391215853e+00 -6.9054633175989820e-08 0.0000000000000000e+00  9.9999993847156998e-01 1.6399733306023585e-07 0.0000000000000000e+00  1.0000000340830641e+00 -1.0566642323302689e-07 0.0000000000000000e+00  9.9999999757207736e-01 1.8928936409874852e-08 0.0000000000000000e+00  9.9999998827104386e-01 2.6734825853887609e-08 0.0000000000000000e+00  1.0000000101166060e+00 -2.7916737931754648e-08 0.0000000000000000e+00  9.9999999693831154e-01 1.0449546777560144e-08 0.0000000000000000e+00  9.9999999805129103e-01 3.8911904204796728e-09 0.0000000000000000e+00  1.0000000031420087e+00 -8.3026238966813737e-09 0.0000000000000000e+00  9.9999999790919336e-01 6.0563382301495588e-09 0.0000000000000000e+00  1.0000000007322993e+00 -2.3869596431924021e-09 0.0000000000000000e+00  1.0000000000115206e+00 1.4778879050159423e-10 0.0000000000000000e+00  9.9999999985126098e-01 4.0763952861069580e-10 0.0000000000000000e+00  1.0000000000271911e+00 -1.4248555109553896e-10 0.0000000000000000e+00  1.0000000000865945e+00 -1.8072797244577761e-10 0.0000000000000000e+00  9.9999999988858734e-01 2.8199195855848731e-10 0.0000000000000000e+00  1.0000000000777798e+00 -2.1212097984915765e-10 0.0000000000000000e+00  9.9999999996468492e-01 1.0209917100626488e-10 0.0000000000000000e+00  1.0000000000093316e+00 -2.8752784808435736e-11 0.0000000000000000e+00  9.9999999999927980e-01 1.8470547616946938e-12 0.0000000000000000e+00  1.0000000000008320e+00 -6.6208680675032788e-13 0.0000000000000000e+00  9.9999999999754596e-01 5.2622772524424439e-12 0.0000000000000000e+00  1.0000000000028191e+00 -6.9719459602603783e-12 0.0000000000000000e+00  9.9999999999793021e-01 5.4651224983204892e-12 0.0000000000000000e+00  1.0000000000010976e+00 -3.0234486620990044e-12 0.0000000000000000e+00  9.9999999999956202e-01 1.2319142574942343e-12 0.0000000000000000e+00  1.0000000000001499e+00 -4.0233203323018479e-13 0.0000000000000000e+00  9.9999999999992284e-01 1.8066115799660541e-13 0.0000000000000000e+00  1.0000000000000737e+00 -1.7014153361495228e-13 0.0000000000000000e+00  9.9999999999993272e-01 1.6591707751528001e-13 0.0000000000000000e+00  1.0000000000000491e+00 -1.2789757265674553e-13 0.0000000000000000e+00  9.9999999999997147e-01 7.7080258698587364e-14 0.0000000000000000e+00  1.0000000000000147e+00 -3.9060468444475325e-14 0.0000000000000000e+00  9.9999999999999378e-01 1.7986783408709185e-14 0.0000000000000000e+00  1.0000000000000042e+00 -9.7653198103967173e-15 0.0000000000000000e+00  9.9999999999999800e-01 6.1050925040320112e-15 0.0000000000000000e+00  1.0000000000000022e+00 -4.6135043630349551e-15 0.0000000000000000e+00  9.9999999999999900e-01 3.4397641507024504e-15 0.0000000000000000e+00  1.0000000000000011e+00 -1.6226990058064847e-15 0.0000000000000000e+00  1.0000000000000000e+00 1.4356767176902560e-15 0.0000000000000000e+00  1.0000000000000007e+00 -2.2271394200334207e-15 0.0000000000000000e+00  1.0000000000000002e+00 1.2072342901421536e-15 0.0000000000000000e+00  1.0000000000000007e+00 -1.2340187730131480e-15 0.0000000000000000e+00  1.0000000000000000e+00 7.6560926223750965e-16 0.0000000000000000e+00  1.0000000000000007e+00 -8.6288010062524614e-16 0.0000000000000000e+00  1.0000000000000002e+00 6.6266171718364438e-16 0.0000000000000000e+00  1.0000000000000004e+00 5.8058196853441260e-16 0.0000000000000000e+00  1.0000000000000002e+00 5.7909848089444162e-16 0.0000000000000000e+00  1.0000000000000004e+00 3.0675217750802879e-16 0.0000000000000000e+00  1.0000000000000002e+00 8.3389696016151637e-16 0.0000000000000000e+00  1.0000000000000004e+00 -7.7340232756856639e-16 0.0000000000000000e+00  1.0000000000000002e+00 1.3229462628197119e-15 0.0000000000000000e+00  1.0000000000000004e+00 -6.1931235738896688e-18 0.0000000000000000e+00  1.0000000000000000e+00 1.1096178697243133e-15 0.0000000000000000e+00  1.0000000000000004e+00 -9.6075343120316972e-16 0.0000000000000000e+00  1.0000000000000002e+00 1.6608323387915373e-15 0.0000000000000000e+00  1.0000000000000002e+00 -1.2083185625127748e-15 0.0000000000000000e+00  9.9999999999999989e-01 7.1644008886904547e-16 0.0000000000000000e+00  1.0000000000000004e+00 -1.2109608935716724e-15 0.0000000000000000e+00  9.9999999999999978e-01 1.1150534208189212e-16 0.0000000000000000e+00  1.0000000000000002e+00 -8.9445907417280254e-16 0.0000000000000000e+00  9.9999999999999978e-01 -3.0311048582826699e-16 0.0000000000000000e+00  1.0000000000000004e+00 -8.6787689569078339e-16 0.0000000000000000e+00  9.9999999999999978e-01 0.0000000000000000e+00 0.0000000000000000e+00  3.0000000000011409e+00 0.0000000000000000e+00 6.2685182550742385e-13  2.9999999999989067e+00 -1.1526668258886215e-13 -1.6697483224617992e-13  3.0000000000008344e+00 8.3251103821318685e-13 1.8946604650425011e-13  2.9999999999994218e+00 -1.4699561392595264e-12 -8.4791250577523690e-13  3.0000000000002922e+00 1.9211466003245906e-12 1.9123671941982120e-12  3.0000000000001332e+00 -2.4476099241798814e-12 -3.9048296145999133e-12  2.9999999999991274e+00 3.4323615088075681e-12 7.6013623769628758e-12  3.0000000000022933e+00 -5.2686495869100679e-12 -1.4425222255891862e-11  2.9999999999949440e+00 8.3871187394973124e-12 2.6993844265911184e-11  3.0000000000102771e+00 -1.3504990776392272e-11 -5.0055161068642256e-11  2.9999999999803189e+00 2.2145068494003030e-11 9.1983649591650544e-11  3.0000000000360081e+00 -3.7380401900048546e-11 -1.6717631194563402e-10  2.9999999999362208e+00 6.4692181821827730e-11 3.0002905091816790e-10  3.0000000001105991e+00 -1.1314768958790864e-10 -5.3156745654143731e-10  2.9999999998111089e+00 1.9737951015159929e-10 9.3033499209281082e-10  3.0000000003182596e+00 -3.4108000704038253e-10 -1.6095971860194981e-09  2.9999999994710946e+00 5.8255110355057989e-10 2.7535470389630769e-09  3.0000000008668630e+00 -9.8300820616452189e-10 -4.6560432363437007e-09  2.9999999985990526e+00 1.6397289416905069e-09 7.7768087904438878e-09  3.0000000022301618e+00 -2.7081777164560888e-09 -1.2821851823495271e-08  2.9999999965099375e+00 4.4371553086616565e-09 2.0856760125585187e-08  3.0000000053597207e+00 -7.2159365636789571e-09 -3.3462460710059216e-08  2.9999999919251330e+00 1.1625746179348479e-08 5.2941670990593305e-08  3.0000000119507226e+00 -1.8492060436265528e-08 -8.2579370933321047e-08  2.9999999825975978e+00 2.8959904321661180e-08 1.2695217422903388e-07  3.0000000249296823e+00 -4.4648106704616207e-08 -1.9227200054983102e-07  2.9999999649660358e+00 6.7931309022068792e-08 2.8674355189735735e-07  3.0000000480866325e+00 -1.0230270113509940e-07 -4.2091577219586213e-07  2.9999999357507114e+00 1.5262360962702248e-07 6.0800881567679578e-07  3.0000000835616447e+00 -2.2503483731401054e-07 -8.6418254563350782e-07  2.9999998938393979e+00 3.2658094830194829e-07 1.2086649101179993e-06  3.0000001323134740e+00 -4.6509779648706798e-07 -1.6635915702488949e-06  2.9999998381497384e+00 6.5011997497675558e-07 2.2533936808801505e-06  3.0000001930131521e+00 -8.9477329589857056e-07 -3.0036859758394281e-06  2.9999997783203445e+00 1.2169479552036974e-06 3.9398748286214180e-06  3.0000002424359158e+00 -1.6370020029409198e-06 -5.0858973954297539e-06  2.9999997480989427e+00 2.1711226625906696e-06 6.4633815118430733e-06  3.0000002519545292e+00 -2.8246601226298154e-06 -8.0907887875547166e-06  2.9999997517727577e+00 3.5935716084670503e-06 9.9815368741107722e-06  3.0000002420496323e+00 -4.4792338000051000e-06 -1.2140053778749448e-05  2.9999997796947881e+00 5.5055024627795929e-06 1.4557108395019467e-05  3.0000001583235600e+00 -6.7186224992745089e-06 -1.7207073601760754e-05  2.9999999614141619e+00 8.1437688320562196e-06 2.0052395821765501e-05  2.9999998866661710e+00 -9.7362511657361530e-06 -2.3051272915754347e-05  3.0000002355638964e+00 1.1346915655546925e-05 2.6167095876820570e-05  2.9999997490622792e+00 -1.2842028937119565e-05 -2.9355011918437512e-05  3.0000001969014778e+00 1.4179798840747421e-05 3.2550850938331854e-05  2.9999998395795733e+00 -1.5630138982617696e-05 -3.5626809812722299e-05  3.0000003740442613e+00 1.7349632005150291e-05 3.8446836673102000e-05  2.9999993211552929e+00 -1.9511782950288008e-05 -4.0838739047004670e-05  3.0000010357682472e+00 2.1179453374631130e-05 4.2809856352140935e-05  2.9999994196493107e+00 -2.2081451344434948e-05 -4.4280060733658164e-05  2.9999999370326265e+00 2.0857649863519060e-05 4.5441009508074816e-05  3.0000016082988181e+00 -1.9916643024344709e-05 -4.5827443915975438e-05  2.9999987544005462e+00 1.8557371442204938e-05 4.5549882816613033e-05  3.0000014354572415e+00 -2.1317411144536252e-05 -4.3508952983845602e-05  3.0000012948331314e+00 2.1895761334845427e-05 4.0739618876350406e-05  3.0000007169073246e+00 -2.3393275687432797e-05 -3.6219699956672796e-05  2.9999992357859782e+00 1.5084364514035800e-05 3.2542057138775009e-05  3.0000075978767202e+00 -7.7083211831805000e-06 -2.7477691483356927e-05  2.9999932345096769e+00 -1.5622878631325816e-06 2.3073445838259097e-05  3.0000075353607447e+00 1.6318680363495728e-07 -1.5667877219623812e-05  2.9999996676042127e+00 8.9977559558062916e-06 7.2088936220522023e-06  2.9999967054783232e+00 -1.0025383356992060e-05 1.8080705266466871e-06  2.9999988631505405e+00 1.0766747056735880e-05 -1.0411184610319447e-05  3.0000036477540699e+00 1.9803699071660765e-05 1.3688667886925534e-05  2.9999822713411675e+00 -2.4673359248180722e-05 -1.9349964060958740e-05  3.0000058325493355e+00 3.8504663708413325e-05 2.0787226790352095e-05  2.9999948705313226e+00 -9.3644541075067793e-06 -2.8441106426473362e-05  2.9999861977614901e+00 -8.1053412107770057e-06 3.2107447097445041e-05  3.0000109432284296e+00 6.7962770440885029e-06 -3.3430139812629597e-05  2.9999969150111596e+00 2.6473120728635702e-06 3.2798149230240449e-05  2.9999960847225475e+00 -3.8258353856851215e-05 -2.5724856241461376e-05  3.0000030315093897e+00 4.0052440066556074e-05 2.7273183131094756e-05  2.9999841434021661e+00 1.3730504877775420e-05 -2.2295777892236183e-05  2.9999376003601568e+00 9.7614985958673718e-05 2.4348611445893579e-05  2.9998725896519844e+00 2.6058172903584804e-04 -1.6264723151263564e-05  2.9996579727768986e+00 6.0485621548929803e-04 2.0200264715968956e-05  2.9992657863420802e+00 1.3500204634294595e-03 -1.1678952580621197e-05  2.9983963181289464e+00 2.9047664641191624e-03 3.2277776980831937e-05  2.9967328674078302e+00 5.9008582427205331e-03 -1.1075188651192431e-05  2.993