<?xml version="1.0"?>
<VTKFile type="UnstructuredGrid"  version="0.1"  >
<UnstructuredGrid>
<Piece  NumberOfPoints="8241" NumberOfCells="16000">
<Points>
<DataArray  type="Float64"  NumberOfComponents="3"  format="ascii">-5 -1 0  -4.95 -1 0  -4.9 -1 0  -4.85 -1 0  -4.8 -1 0  -4.75 -1 0  -4.7 -1 0  -4.65 -1 0  -4.6 -1 0  -4.55 -1 0  -4.5 -1 0  -4.45 -1 0  -4.4 -1 0  -4.35 -1 0  -4.3 -1 0  -4.25 -1 0  -4.2 -1 0  -4.15 -1 0  -4.1 -1 0  -4.05 -1 0  -4 -1 0  -3.95 -1 0  -3.9 -1 0  -3.85 -1 0  -3.8 -1 0  -3.75 -1 0  -3.7 -1 0  -3.65 -1 0  -3.6 -1 0  -3.55 -1 0  -3.5 -1 0  -3.45 -1 0  -3.4 -1 0  -3.35 -1 0  -3.3 -1 0  -3.25 -1 0  -3.2 -1 0  -3.15 -1 0  -3.1 -1 0  -3.05 -1 0  -3 -1 0  -2.95 -1 0  -2.9 -1 0  -2.85 -1 0  -2.8 -1 0  -2.75 -1 0  -2.7 -1 0  -2.65 -1 0  -2.6 -1 0  -2.55 -1 0  -2.5 -1 0  -2.45 -1 0  -2.4 -1 0  -2.35 -1 0  -2.3 -1 0  -2.25 -1 0  -2.2 -1 0  -2.15 -1 0  -2.1 -1 0  -2.05 -1 0  -2 -1 0  -1.95 -1 0  -1.9 -1 0  -1.85 -1 0  -1.8 -1 0  -1.75 -1 0  -1.7 -1 0  -1.65 -1 0  -1.6 -1 0  -1.55 -1 0  -1.5 -1 0  -1.45 -1 0  -1.4 -1 0  -1.35 -1 0  -1.3 -1 0  -1.25 -1 0  -1.2 -1 0  -1.15 -1 0  -1.1 -1 0  -1.05 -1 0  -1 -1 0  -0.9500000000000002 -1 0  -0.9000000000000004 -1 0  -0.8499999999999996 -1 0  -0.7999999999999998 -1 0  -0.75 -1 0  -0.7000000000000002 -1 0  -0.6500000000000004 -1 0  -0.5999999999999996 -1 0  -0.5499999999999998 -1 0  -0.5 -1 0  -0.4500000000000002 -1 0  -0.4000000000000004 -1 0  -0.3499999999999996 -1 0  -0.2999999999999998 -1 0  -0.25 -1 0  -0.2000000000000002 -1 0  -0.1500000000000004 -1 0  -0.09999999999999964 -1 0  -0.04999999999999982 -1 0  0 -1 0  0.04999999999999982 -1 0  0.09999999999999964 -1 0  0.1500000000000004 -1 0  0.2000000000000002 -1 0  0.25 -1 0  0.2999999999999998 -1 0  0.3499999999999996 -1 0  0.4000000000000004 -1 0  0.4500000000000002 -1 0  0.5 -1 0  0.5499999999999998 -1 0  0.5999999999999996 -1 0  0.6500000000000004 -1 0  0.7000000000000002 -1 0  0.75 -1 0  0.7999999999999998 -1 0  0.8499999999999996 -1 0  0.9000000000000004 -1 0  0.9500000000000002 -1 0  1 -1 0  1.05 -1 0  1.1 -1 0  1.15 -1 0  1.2 -1 0  1.25 -1 0  1.3 -1 0  1.35 -1 0  1.4 -1 0  1.45 -1 0  1.5 -1 0  1.55 -1 0  1.6 -1 0  1.65 -1 0  1.7 -1 0  1.75 -1 0  1.8 -1 0  1.85 -1 0  1.9 -1 0  1.95 -1 0  2 -1 0  2.05 -1 0  2.1 -1 0  2.15 -1 0  2.2 -1 0  2.25 -1 0  2.3 -1 0  2.35 -1 0  2.4 -1 0  2.45 -1 0  2.5 -1 0  2.55 -1 0  2.6 -1 0  2.65 -1 0  2.7 -1 0  2.75 -1 0  2.8 -1 0  2.85 -1 0  2.9 -1 0  2.95 -1 0  3 -1 0  3.050000000000001 -1 0  3.1 -1 0  3.15 -1 0  3.199999999999999 -1 0  3.25 -1 0  3.300000000000001 -1 0  3.35 -1 0  3.4 -1 0  3.449999999999999 -1 0  3.5 -1 0  3.550000000000001 -1 0  3.6 -1 0  3.65 -1 0  3.699999999999999 -1 0  3.75 -1 0  3.800000000000001 -1 0  3.85 -1 0  3.9 -1 0  3.949999999999999 -1 0  4 -1 0  4.050000000000001 -1 0  4.1 -1 0  4.15 -1 0  4.199999999999999 -1 0  4.25 -1 0  4.300000000000001 -1 0  4.35 -1 0  4.4 -1 0  4.449999999999999 -1 0  4.5 -1 0  4.550000000000001 -1 0  4.6 -1 0  4.65 -1 0  4.699999999999999 -1 0  4.75 -1 0  4.800000000000001 -1 0  4.85 -1 0  4.9 -1 0  4.949999999999999 -1 0  5 -1 0  -5 -0.95 0  -4.95 -0.95 0  -4.9 -0.95 0  -4.85 -0.95 0  -4.8 -0.95 0  -4.75 -0.95 0  -4.7 -0.95 0  -4.65 -0.95 0  -4.6 -0.95 0  -4.55 -0.95 0  -4.5 -0.95 0  -4.45 -0.95 0  -4.4 -0.95 0  -4.35 -0.95 0  -4.3 -0.95 0  -4.25 -0.95 0  -4.2 -0.95 0  -4.15 -0.95 0  -4.1 -0.95 0  -4.05 -0.95 0  -4 -0.95 0  -3.95 -0.95 0  -3.9 -0.95 0  -3.85 -0.95 0  -3.8 -0.95 0  -3.75 -0.95 0  -3.7 -0.95 0  -3.65 -0.95 0  -3.6 -0.95 0  -3.55 -0.95 0  -3.5 -0.95 0  -3.45 -0.95 0  -3.4 -0.95 0  -3.35 -0.95 0  -3.3 -0.95 0  -3.25 -0.95 0  -3.2 -0.95 0  -3.15 -0.95 0  -3.1 -0.95 0  -3.05 -0.95 0  -3 -0.95 0  -2.95 -0.95 0  -2.9 -0.95 0  -2.85 -0.95 0  -2.8 -0.95 0  -2.75 -0.95 0  -2.7 -0.95 0  -2.65 -0.95 0  -2.6 -0.95 0  -2.55 -0.95 0  -2.5 -0.95 0  -2.45 -0.95 0  -2.4 -0.95 0  -2.35 -0.95 0  -2.3 -0.95 0  -2.25 -0.95 0  -2.2 -0.95 0  -2.15 -0.95 0  -2.1 -0.95 0  -2.05 -0.95 0  -2 -0.95 0  -1.95 -0.95 0  -1.9 -0.95 0  -1.85 -0.95 0  -1.8 -0.95 0  -1.75 -0.95 0  -1.7 -0.95 0  -1.65 -0.95 0  -1.6 -0.95 0  -1.55 -0.95 0  -1.5 -0.95 0  -1.45 -0.95 0  -1.4 -0.95 0  -1.35 -0.95 0  -1.3 -0.95 0  -1.25 -0.95 0  -1.2 -0.95 0  -1.15 -0.95 0  -1.1 -0.95 0  -1.05 -0.95 0  -1 -0.95 0  -0.9500000000000002 -0.95 0  -0.9000000000000004 -0.95 0  -0.8499999999999996 -0.95 0  -0.7999999999999998 -0.95 0  -0.75 -0.95 0  -0.7000000000000002 -0.95 0  -0.6500000000000004 -0.95 0  -0.5999999999999996 -0.95 0  -0.5499999999999998 -0.95 0  -0.5 -0.95 0  -0.4500000000000002 -0.95 0  -0.4000000000000004 -0.95 0  -0.3499999999999996 -0.95 0  -0.2999999999999998 -0.95 0  -0.25 -0.95 0  -0.2000000000000002 -0.95 0  -0.1500000000000004 -0.95 0  -0.09999999999999964 -0.95 0  -0.04999999999999982 -0.95 0  0 -0.95 0  0.04999999999999982 -0.95 0  0.09999999999999964 -0.95 0  0.1500000000000004 -0.95 0  0.2000000000000002 -0.95 0  0.25 -0.95 0  0.2999999999999998 -0.95 0  0.3499999999999996 -0.95 0  0.4000000000000004 -0.95 0  0.4500000000000002 -0.95 0  0.5 -0.95 0  0.5499999999999998 -0.95 0  0.5999999999999996 -0.95 0  0.6500000000000004 -0.95 0  0.7000000000000002 -0.95 0  0.75 -0.95 0  0.7999999999999998 -0.95 0  0.8499999999999996 -0.95 0  0.9000000000000004 -0.95 0  0.9500000000000002 -0.95 0  1 -0.95 0  1.05 -0.95 0  1.1 -0.95 0  1.15 -0.95 0  1.2 -0.95 0  1.25 -0.95 0  1.3 -0.95 0  1.35 -0.95 0  1.4 -0.95 0  1.45 -0.95 0  1.5 -0.95 0  1.55 -0.95 0  1.6 -0.95 0  1.65 -0.95 0  1.7 -0.95 0  1.75 -0.95 0  1.8 -0.95 0  1.85 -0.95 0  1.9 -0.95 0  1.95 -0.95 0  2 -0.95 0  2.05 -0.95 0  2.1 -0.95 0  2.15 -0.95 0  2.2 -0.95 0  2.25 -0.95 0  2.3 -0.95 0  2.35 -0.95 0  2.4 -0.95 0  2.45 -0.95 0  2.5 -0.95 0  2.55 -0.95 0  2.6 -0.95 0  2.65 -0.95 0  2.7 -0.95 0  2.75 -0.95 0  2.8 -0.95 0  2.85 -0.95 0  2.9 -0.95 0  2.95 -0.95 0  3 -0.95 0  3.050000000000001 -0.95 0  3.1 -0.95 0  3.15 -0.95 0  3.199999999999999 -0.95 0  3.25 -0.95 0  3.300000000000001 -0.95 0  3.35 -0.95 0  3.4 -0.95 0  3.449999999999999 -0.95 0  3.5 -0.95 0  3.550000000000001 -0.95 0  3.6 -0.95 0  3.65 -0.95 0  3.699999999999999 -0.95 0  3.75 -0.95 0  3.800000000000001 -0.95 0  3.85 -0.95 0  3.9 -0.95 0  3.949999999999999 -0.95 0  4 -0.95 0  4.050000000000001 -0.95 0  4.1 -0.95 0  4.15 -0.95 0  4.199999999999999 -0.95 0  4.25 -0.95 0  4.300000000000001 -0.95 0  4.35 -0.95 0  4.4 -0.95 0  4.449999999999999 -0.95 0  4.5 -0.95 0  4.550000000000001 -0.95 0  4.6 -0.95 0  4.65 -0.95 0  4.699999999999999 -0.95 0  4.75 -0.95 0  4.800000000000001 -0.95 0  4.85 -0.95 0  4.9 -0.95 0  4.949999999999999 -0.95 0  5 -0.95 0  -5 -0.9 0  -4.95 -0.9 0  -4.9 -0.9 0  -4.85 -0.9 0  -4.8 -0.9 0  -4.75 -0.9 0  -4.7 -0.9 0  -4.65 -0.9 0  -4.6 -0.9 0  -4.55 -0.9 0  -4.5 -0.9 0  -4.45 -0.9 0  -4.4 -0.9 0  -4.35 -0.9 0  -4.3 -0.9 0  -4.25 -0.9 0  -4.2 -0.9 0  -4.15 -0.9 0  -4.1 -0.9 0  -4.05 -0.9 0  -4 -0.9 0  -3.95 -0.9 0  -3.9 -0.9 0  -3.85 -0.9 0  -3.8 -0.9 0  -3.75 -0.9 0  -3.7 -0.9 0  -3.65 -0.9 0  -3.6 -0.9 0  -3.55 -0.9 0  -3.5 -0.9 0  -3.45 -0.9 0  -3.4 -0.9 0  -3.35 -0.9 0  -3.3 -0.9 0  -3.25 -0.9 0  -3.2 -0.9 0  -3.15 -0.9 0  -3.1 -0.9 0  -3.05 -0.9 0  -3 -0.9 0  -2.95 -0.9 0  -2.9 -0.9 0  -2.85 -0.9 0  -2.8 -0.9 0  -2.75 -0.9 0  -2.7 -0.9 0  -2.65 -0.9 0  -2.6 -0.9 0  -2.55 -0.9 0  -2.5 -0.9 0  -2.45 -0.9 0  -2.4 -0.9 0  -2.35 -0.9 0  -2.3 -0.9 0  -2.25 -0.9 0  -2.2 -0.9 0  -2.15 -0.9 0  -2.1 -0.9 0  -2.05 -0.9 0  -2 -0.9 0  -1.95 -0.9 0  -1.9 -0.9 0  -1.85 -0.9 0  -1.8 -0.9 0  -1.75 -0.9 0  -1.7 -0.9 0  -1.65 -0.9 0  -1.6 -0.9 0  -1.55 -0.9 0  -1.5 -0.9 0  -1.45 -0.9 0  -1.4 -0.9 0  -1.35 -0.9 0  -1.3 -0.9 0  -1.25 -0.9 0  -1.2 -0.9 0  -1.15 -0.9 0  -1.1 -0.9 0  -1.05 -0.9 0  -1 -0.9 0  -0.9500000000000002 -0.9 0  -0.9000000000000004 -0.9 0  -0.8499999999999996 -0.9 0  -0.7999999999999998 -0.9 0  -0.75 -0.9 0  -0.7000000000000002 -0.9 0  -0.6500000000000004 -0.9 0  -0.5999999999999996 -0.9 0  -0.5499999999999998 -0.9 0  -0.5 -0.9 0  -0.4500000000000002 -0.9 0  -0.4000000000000004 -0.9 0  -0.3499999999999996 -0.9 0  -0.2999999999999998 -0.9 0  -0.25 -0.9 0  -0.2000000000000002 -0.9 0  -0.1500000000000004 -0.9 0  -0.09999999999999964 -0.9 0  -0.04999999999999982 -0.9 0  0 -0.9 0  0.04999999999999982 -0.9 0  0.09999999999999964 -0.9 0  0.1500000000000004 -0.9 0  0.2000000000000002 -0.9 0  0.25 -0.9 0  0.2999999999999998 -0.9 0  0.3499999999999996 -0.9 0  0.4000000000000004 -0.9 0  0.4500000000000002 -0.9 0  0.5 -0.9 0  0.5499999999999998 -0.9 0  0.5999999999999996 -0.9 0  0.6500000000000004 -0.9 0  0.7000000000000002 -0.9 0  0.75 -0.9 0  0.7999999999999998 -0.9 0  0.8499999999999996 -0.9 0  0.9000000000000004 -0.9 0  0.9500000000000002 -0.9 0  1 -0.9 0  1.05 -0.9 0  1.1 -0.9 0  1.15 -0.9 0  1.2 -0.9 0  1.25 -0.9 0  1.3 -0.9 0  1.35 -0.9 0  1.4 -0.9 0  1.45 -0.9 0  1.5 -0.9 0  1.55 -0.9 0  1.6 -0.9 0  1.65 -0.9 0  1.7 -0.9 0  1.75 -0.9 0  1.8 -0.9 0  1.85 -0.9 0  1.9 -0.9 0  1.95 -0.9 0  2 -0.9 0  2.05 -0.9 0  2.1 -0.9 0  2.15 -0.9 0  2.2 -0.9 0  2.25 -0.9 0  2.3 -0.9 0  2.35 -0.9 0  2.4 -0.9 0  2.45 -0.9 0  2.5 -0.9 0  2.55 -0.9 0  2.6 -0.9 0  2.65 -0.9 0  2.7 -0.9 0  2.75 -0.9 0  2.8 -0.9 0  2.85 -0.9 0  2.9 -0.9 0  2.95 -0.9 0  3 -0.9 0  3.050000000000001 -0.9 0  3.1 -0.9 0  3.15 -0.9 0  3.199999999999999 -0.9 0  3.25 -0.9 0  3.300000000000001 -0.9 0  3.35 -0.9 0  3.4 -0.9 0  3.449999999999999 -0.9 0  3.5 -0.9 0  3.550000000000001 -0.9 0  3.6 -0.9 0  3.65 -0.9 0  3.699999999999999 -0.9 0  3.75 -0.9 0  3.800000000000001 -0.9 0  3.85 -0.9 0  3.9 -0.9 0  3.949999999999999 -0.9 0  4 -0.9 0  4.050000000000001 -0.9 0  4.1 -0.9 0  4.15 -0.9 0  4.199999999999999 -0.9 0  4.25 -0.9 0  4.300000000000001 -0.9 0  4.35 -0.9 0  4.4 -0.9 0  4.449999999999999 -0.9 0  4.5 -0.9 0  4.550000000000001 -0.9 0  4.6 -0.9 0  4.65 -0.9 0  4.699999999999999 -0.9 0  4.75 -0.9 0  4.800000000000001 -0.9 0  4.85 -0.9 0  4.9 -0.9 0  4.949999999999999 -0.9 0  5 -0.9 0  -5 -0.85 0  -4.95 -0.85 0  -4.9 -0.85 0  -4.85 -0.85 0  -4.8 -0.85 0  -4.75 -0.85 0  -4.7 -0.85 0  -4.65 -0.85 0  -4.6 -0.85 0  -4.55 -0.85 0  -4.5 -0.85 0  -
[...]
<PointData  Vectors="f_15"> 
<DataArray  type="Float64"  Name="f_15"  NumberOfComponents="3" format="ascii">1.7360096988169449e+00 0.0000000000000000e+00 0.0000000000000000e+00  1.7359857881626073e+00 4.0138947394325122e-02 0.0000000000000000e+00  1.7359729423394996e+00 8.0300413504804671e-02 0.0000000000000000e+00  1.7359072276094909e+00 1.2039811165467476e-01 0.0000000000000000e+00  1.7358623237024389e+00 1.6058871365633290e-01 0.0000000000000000e+00  1.7357503731900761e+00 2.0064177475366377e-01 0.0000000000000000e+00  1.7356777293505157e+00 2.4084172793837907e-01 0.0000000000000000e+00  1.7355122075862555e+00 2.8083034941551727e-01 0.0000000000000000e+00  1.7354212286745481e+00 3.2105905849905386e-01 0.0000000000000000e+00  1.7351950367724258e+00 3.6094449646917515e-01 0.0000000000000000e+00  1.7350875184716670e+00 4.0120566352836451e-01 0.0000000000000000e+00  1.7348011190636112e+00 4.4097732130782552e-01 0.0000000000000000e+00  1.7346795063241089e+00 4.8126842867597608e-01 0.0000000000000000e+00  1.7343241859203211e+00 5.2089228832203227e-01 0.0000000000000000e+00  1.7341995018821958e+00 5.6122014343145765e-01 0.0000000000000000e+00  1.7337680021962245e+00 6.0070474563681697e-01 0.0000000000000000e+00  1.7336399585262909e+00 6.4099510205050414e-01 0.0000000000000000e+00  1.7331361064913349e+00 6.8038597890128583e-01 0.0000000000000000e+00  1.7330040669508229e+00 7.2063322548970943e-01 0.0000000000000000e+00  1.7324221525605257e+00 7.5982413118270797e-01 0.0000000000000000e+00  1.7322941639957461e+00 8.0013040597474783e-01 0.0000000000000000e+00  1.7316319490102643e+00 8.3905392388689770e-01 0.0000000000000000e+00  1.7315023635575169e+00 8.7934687464913952e-01 0.0000000000000000e+00  1.7307706869827464e+00 9.1808967774440831e-01 0.0000000000000000e+00  1.7306330331962687e+00 9.5829544838955305e-01 0.0000000000000000e+00  1.7298347352607457e+00 9.9679321048407410e-01 0.0000000000000000e+00  1.7296896971297804e+00 1.0369672208882932e+00 0.0000000000000000e+00  1.7288324368712551e+00 1.0751800521974577e+00 0.0000000000000000e+00  1.7286699435605641e+00 1.1152169345475427e+00 0.0000000000000000e+00  1.7277706720157868e+00 1.1532105107135215e+00 0.0000000000000000e+00  1.7275836440847645e+00 1.1930458754243474e+00 0.0000000000000000e+00  1.7266538962304170e+00 1.2307516033119694e+00 0.0000000000000000e+00  1.7264398724083807e+00 1.2703636858982579e+00 0.0000000000000000e+00  1.7254985474282769e+00 1.3077789000727065e+00 0.0000000000000000e+00  1.7252528825490618e+00 1.3470377014245354e+00 0.0000000000000000e+00  1.7243193401418611e+00 1.3841507895296570e+00 0.0000000000000000e+00  1.7240525249900447e+00 1.4229980863267200e+00 0.0000000000000000e+00  1.7231465845275871e+00 1.4597100354244570e+00 0.0000000000000000e+00  1.7228675394555357e+00 1.4980334602458769e+00 0.0000000000000000e+00  1.7220330430045419e+00 1.5343175224430812e+00 0.0000000000000000e+00  1.7217597734850281e+00 1.5719280390249952e+00 0.0000000000000000e+00  1.7210326739883568e+00 1.6076471430201464e+00 0.0000000000000000e+00  1.7208295355749101e+00 1.6444410908640614e+00 0.0000000000000000e+00  1.7202603837381232e+00 1.6793393314900844e+00 0.0000000000000000e+00  1.7201906882190294e+00 1.7150584920475032e+00 0.0000000000000000e+00  1.7199038535960971e+00 1.7489599177620940e+00 0.0000000000000000e+00  1.7200635962256865e+00 1.7831562145890283e+00 0.0000000000000000e+00  1.7201930266925400e+00 1.8156462218610470e+00 0.0000000000000000e+00  1.7207939176554701e+00 1.8479553601015020e+00 0.0000000000000000e+00  1.7215195290999226e+00 1.8783400932976877e+00 0.0000000000000000e+00  1.7227923715717073e+00 1.9081128099164886e+00 0.0000000000000000e+00  1.7244260710165227e+00 1.9358165515389303e+00 0.0000000000000000e+00  1.7266080811173308e+00 1.9621590066125101e+00 0.0000000000000000e+00  1.7293945451121644e+00 1.9865258412474154e+00 0.0000000000000000e+00  1.7327250495445210e+00 2.0090633592163463e+00 0.0000000000000000e+00  1.7366802373648556e+00 2.0296519175219312e+00 0.0000000000000000e+00  1.7410688360301259e+00 2.0485852149542518e+00 0.0000000000000000e+00  1.7459765435736885e+00 2.0660792662881762e+00 0.0000000000000000e+00  1.7509527301124896e+00 2.0820938155620174e+00 0.0000000000000000e+00  1.7563218385467447e+00 2.0976348786394001e+00 0.0000000000000000e+00  1.7614586289655267e+00 2.1119174452704135e+00 0.0000000000000000e+00  1.7667983263290676e+00 2.1261062586778574e+00 0.0000000000000000e+00  1.7718171841845520e+00 2.1393952218755969e+00 0.0000000000000000e+00  1.7769659340208135e+00 2.1526621629157439e+00 0.0000000000000000e+00  1.7816717865972465e+00 2.1649045806031206e+00 0.0000000000000000e+00  1.7865790424151244e+00 2.1774180878201275e+00 0.0000000000000000e+00  1.7909721878299785e+00 2.1887043090178606e+00 0.0000000000000000e+00  1.7955134883274892e+00 2.2001640860511196e+00 0.0000000000000000e+00  1.7996165456007700e+00 2.2106377894241804e+00 0.0000000000000000e+00  1.8037891711676297e+00 2.2210333061085792e+00 0.0000000000000000e+00  1.8074973462613872e+00 2.2304451102676435e+00 0.0000000000000000e+00  1.8113327104282320e+00 2.2399203065393740e+00 0.0000000000000000e+00  1.8146474606118534e+00 2.2482764874616663e+00 0.0000000000000000e+00  1.8180476966418120e+00 2.2566017266627791e+00 0.0000000000000000e+00  1.8210223213206918e+00 2.2640892299528526e+00 0.0000000000000000e+00  1.8239898908965815e+00 2.2712699141248351e+00 0.0000000000000000e+00  1.8265434829837801e+00 2.2777065431452379e+00 0.0000000000000000e+00  1.8291519540840482e+00 2.2839655179855320e+00 0.0000000000000000e+00  1.8312906234279089e+00 2.2893657770893547e+00 0.0000000000000000e+00  1.8334867154770367e+00 2.2945799416467705e+00 0.0000000000000000e+00  1.8352909673313988e+00 2.2991822397485424e+00 0.0000000000000000e+00  1.8370990553236570e+00 2.3034040617121936e+00 0.0000000000000000e+00  1.8385335421306757e+00 2.3071104788435419e+00 0.0000000000000000e+00  1.8400477483460089e+00 2.3106178001677535e+00 0.0000000000000000e+00  1.8411396057723568e+00 2.3134799936123382e+00 0.0000000000000000e+00  1.8423551656485004e+00 2.3162343536870256e+00 0.0000000000000000e+00  1.8431847118611286e+00 2.3185188724429100e+00 0.0000000000000000e+00  1.8441447697898665e+00 2.3205990309141371e+00 0.0000000000000000e+00  1.8447199932164122e+00 2.3222775005514875e+00 0.0000000000000000e+00  1.8455003845929221e+00 2.3239431059250522e+00 0.0000000000000000e+00  1.8458559173450353e+00 2.3250930242683432e+00 0.0000000000000000e+00  1.8464842747186747e+00 2.3263346480158438e+00 0.0000000000000000e+00  1.8466747119231466e+00 2.3271867583736978e+00 0.0000000000000000e+00  1.8471848129708119e+00 2.3280516105528388e+00 0.0000000000000000e+00  1.8472420958377207e+00 2.3286300769845010e+00 0.0000000000000000e+00  1.8476749508658894e+00 2.3292788724668543e+00 0.0000000000000000e+00  1.8476173170852634e+00 2.3296352300666139e+00 0.0000000000000000e+00  1.8480069041987370e+00 2.3300857170260900e+00 0.0000000000000000e+00  1.8478669691658873e+00 2.3303487633556306e+00 0.0000000000000000e+00  1.8482145816544417e+00 2.3305932876774627e+00 0.0000000000000000e+00  1.8480291151004848e+00 2.3308345712001590e+00 0.0000000000000000e+00  1.8483472842093300e+00 2.3309306329193116e+00 0.0000000000000000e+00  1.8481201395745888e+00 2.3311298627108550e+00 0.0000000000000000e+00  1.8484312331339994e+00 2.3311569409850779e+00 0.0000000000000000e+00  1.8481757472069018e+00 2.3313345256899272e+00 0.0000000000000000e+00  1.8484710291863578e+00 2.3312537240321713e+00 0.0000000000000000e+00  1.8482149567501573e+00 2.3315088477029011e+00 0.0000000000000000e+00  1.8484794132837319e+00 2.3313048883851990e+00 0.0000000000000000e+00  1.8482465269766031e+00 2.3315783508433436e+00 0.0000000000000000e+00  1.8484779176821935e+00 2.3313936920795988e+00 0.0000000000000000e+00  1.8482509379427676e+00 2.3315879180735699e+00 0.0000000000000000e+00  1.8484849103034944e+00 2.3314302812784780e+00 0.0000000000000000e+00  1.8482587699744799e+00 2.3316626535746994e+00 0.0000000000000000e+00  1.8484504386372120e+00 2.3313678950002905e+00 0.0000000000000000e+00  1.8483009148640883e+00 2.3317469645079112e+00 0.0000000000000000e+00  1.8484153338165845e+00 2.3313915923456952e+00 0.0000000000000000e+00  1.8482920704586114e+00 2.3316447689350297e+00 0.0000000000000000e+00  1.8484355074964254e+00 2.3315646987664285e+00 0.0000000000000000e+00  1.8482776904911886e+00 2.3315300105623398e+00 0.0000000000000000e+00  1.8483947302667352e+00 2.3315620984221632e+00 0.0000000000000000e+00  1.8483344315652424e+00 2.3316709693499909e+00 0.0000000000000000e+00  1.8483442272921577e+00 2.3313855382036750e+00 0.0000000000000000e+00  1.8483225973491040e+00 2.3317612815233630e+00 0.0000000000000000e+00  1.8483805009495047e+00 2.3314638823468821e+00 0.0000000000000000e+00  1.8482865130395485e+00 2.3315318821290969e+00 0.0000000000000000e+00  1.8483528863475225e+00 2.3317506828693979e+00 0.0000000000000000e+00  1.8483470255743308e+00 2.3312929034508985e+00 0.0000000000000000e+00  1.8482856151087756e+00 2.3318373986295673e+00 0.0000000000000000e+00  1.8483500279065699e+00 2.3314078769408977e+00 0.0000000000000000e+00  1.8483225149337177e+00 2.3315088002331907e+00 0.0000000000000000e+00  1.8482988648789200e+00 2.3318410062749981e+00 0.0000000000000000e+00  1.8483139947167537e+00 2.3311370169959824e+00 0.0000000000000000e+00  1.8483473889312625e+00 2.3319316704674518e+00 0.0000000000000000e+00  1.8482451033312495e+00 2.3314142202662764e+00 0.0000000000000000e+00  1.8483646483830991e+00 2.3313405660683979e+00 0.0000000000000000e+00  1.8482669428824987e+00 2.3320427607788856e+00 0.0000000000000000e+00  1.8483186406957184e+00 2.3309255864077372e+00 0.0000000000000000e+00  1.8482709049419703e+00 2.3320736138043614e+00 0.0000000000000000e+00  1.8483540014299762e+00 2.3311659689265687e+00 0.0000000000000000e+00  1.8482013571774571e+00 2.3317509363507458e+00 0.0000000000000000e+00  1.8483372581835120e+00 2.3314619763958788e+00 0.0000000000000000e+00  1.8481630674765468e+00 2.3317580303350409e+00 0.0000000000000000e+00  1.8481067020669171e+00 2.3317478083776577e+00 0.0000000000000000e+00  1.8479597470627451e+00 2.3321553775728416e+00 0.0000000000000000e+00  1.8477512816104669e+00 2.3322985621821193e+00 0.0000000000000000e+00  1.8475398524566180e+00 2.3326894108739200e+00 0.0000000000000000e+00  1.8474950125049228e+00 2.3327051457187729e+00 0.0000000000000000e+00  1.8474560407033978e+00 2.3325987427799526e+00 0.0000000000000000e+00  1.8477860760185791e+00 2.3322113975393228e+00 0.0000000000000000e+00  1.8480393734094227e+00 2.3314757419923007e+00 0.0000000000000000e+00  1.8485987342311918e+00 2.3310481085168520e+00 0.0000000000000000e+00  1.8486257689882828e+00 2.3301653893898515e+00 0.0000000000000000e+00  1.8493443936996297e+00 2.3308615371297949e+00 0.0000000000000000e+00  1.8483844163674839e+00 2.3282106563360614e+00 0.0000000000000000e+00  1.8505657853054287e+00 2.3332788725396272e+00 0.0000000000000000e+00  1.8473536749650667e+00 2.3230900441596387e+00 0.0000000000000000e+00  1.8539703394880795e+00 2.3344307874197865e+00 0.0000000000000000e+00  1.8214070032572434e+00 2.3779036052037403e+00 0.0000000000000000e+00  1.9936642014538319e+00 2.0258000351601999e+00 0.0000000000000000e+00  2.5721007619079725e+00 7.2045144903507008e-01 0.0000000000000000e+00  2.9166025675563478e+00 1.0464673608183947e-01 0.0000000000000000e+00  2.9765421426271854e+00 6.7165510984225057e-03 0.0000000000000000e+00  2.9617038014012116e+00 1.2747301065256060e-02 0.0000000000000000e+00  2.9699417898016014e+00 -1.1018539899695923e-03 0.0000000000000000e+00  2.9720924072985175e+00 -4.2628503020395337e-04 0.0000000000000000e+00  2.9706927191689316e+00 -1.0274920139143160e-03 0.0000000000000000e+00  2.9725846092079609e+00 -4.5996364887714060e-03 0.0000000000000000e+00  2.9724198206310062e+00 -4.8344886635993617e-03 0.0000000000000000e+00  2.9718245362135609e+00 -3.7673664774471017e-03 0.0000000000000000e+00  2.9714592073750081e+00 -4.7370718709924603e-03 0.0000000000000000e+00  2.9721138142652306e+00 -5.7548393944908093e-03 0.0000000000000000e+00  2.9717690171399274e+00 -6.5135779459487703e-03 0.0000000000000000e+00  2.9721158806078707e+00 -6.9993447356907395e-03 0.0000000000000000e+00  2.9716585947590977e+00 -7.4311602738844186e-03 0.0000000000000000e+00  2.9719796514332306e+00 -7.6105877044285323e-03 0.0000000000000000e+00  2.9716812826227321e+00 -8.0281744483987130e-03 0.0000000000000000e+00  2.9720037002764341e+00 -8.2619379802217879e-03 0.0000000000000000e+00  2.9716871292281497e+00 -8.2830670403818175e-03 0.0000000000000000e+00  2.9719505014475902e+00 -8.4272935216414650e-03 0.0000000000000000e+00  2.9716849784297135e+00 -8.4628788994860985e-03 0.0000000000000000e+00  2.9719242423995200e+00 -8.4962767032748902e-03 0.0000000000000000e+00  2.9716927748296089e+00 -8.4947136849038325e-03 0.0000000000000000e+00  2.9719020553905353e+00 -8.6270621876509135e-03 0.0000000000000000e+00  2.9716965269823676e+00 -8.4611407389989408e-03 0.0000000000000000e+00  2.9718810699304803e+00 -8.6115612162907650e-03 0.0000000000000000e+00  2.9716866818399348e+00 -8.6396100243044758e-03 0.0000000000000000e+00  2.9718760662397710e+00 -8.4407902748048838e-03 0.0000000000000000e+00  2.9716906413094364e+00 -8.8000613368885063e-03 0.0000000000000000e+00  2.9718484005096086e+00 -8.6225328658913487e-03 0.0000000000000000e+00  2.9717105139699265e+00 -8.4639487191581122e-03 0.0000000000000000e+00  2.9718367832102488e+00 -8.8953111191493652e-03 0.0000000000000000e+00  2.9717074841885296e+00 -8.5892267348566878e-03 0.0000000000000000e+00  2.9718498057444944e+00 -8.5589103116096715e-03 0.0000000000000000e+00  2.9717175613117965e+00 -9.5873866655330365e-03 0.0000000000000000e+00  2.9718343867424104e+00 -8.3252724248166609e-03 0.0000000000000000e+00  2.9717577039065044e+00 -9.5482232834685366e-03 0.0000000000000000e+00  2.9718311012179823e+00 -9.6067230936136925e-03 0.0000000000000000e+00  2.9717650433043579e+00 -8.5706815414834207e-03 0.0000000000000000e+00  2.9718551108840447e+00 -1.4731478367094051e-02 0.0000000000000000e+00  2.9717794538828097e+00 -1.0081044457692902e-02 0.0000000000000000e+00  2.9718457832193570e+00 0.0000000000000000e+00 0.0000000000000000e+00  1.7360102731595297e+00 0.0000000000000000e+00 -6.5347249023986300e-06  1.7359936362966795e+00 4.0150046150454935e-02 -2.0544629254817822e-06  1.7359706580756946e+00 8.0295809839857638e-02 9.0985063116332562e-06  1.7359184278551190e+00 1.2043132529164792e-01 -6.5203387742275269e-06  1.7358566197681056e+00 1.6057288652872168e-01 6.2617277396776827e-06  1.7357656175759129e+00 2.0068391617564191e-01 -7.5139875319676574e-06  1.7356650873406061e+00 2.4080955399894069e-01 1.0367665286775246e-05  1.7355382253105947e+00 2.8089981785572826e-01 -1.5220039149451000e-05  1.7353972964162112e+00 3.2099179619878654e-01 2.0045069009257735e-05  1.7352314680984060e+00 3.6104405155486125e-01 -2.5961457476021760e-05  1.7350551779781120e+00 4.0111321828666979e-01 3.1780950275137947e-05  1.7348480094492189e+00 4.4110304897902564e-01 -3.9112323532618259e-05  1.7346325528610691e+00 4.8113417623421562e-01 4.6374059377096596e-05  1.7343902681943071e+00 5.2106324512327484e-01 -5.4890154436716045e-05  1.7341325714991775e+00 5.6105349652443570e-01 6.3284420475200108e-05  1.7338514387125104e+00 6.0087062227887955e-01 -7.3113318487868161e-05  1.7335580415572944e+00 6.4085061179617153e-01 8.2764054308267365e-05  1.7332351993261239e+00 6.8054434154903287e-01 -9.2330360273252575e-05  1.7329018890497943e+00 7.2043740729551220e-01 9.9202593641242476e-05  1.7325446953644894e+00 7.6007787677722749e-01 -1.0392656451502298e-04  1.7321685617140394e+00 7.9983540432414213e-01 1.0598161622410035e-04  1.7317729905127706e+00 8.3935419202153394e-01 -1.0725379206337668e-04  1.7313617932512992e+00 8.7905043054522791e-01 1.0785687843681391e-04  1.7309253578134363e+00 9.1838986561635672e-01 -1.0916468752714947e-04  1.7304759396204970e+00 9.5794802661032163e-01 1.0985537934956009e-04  1.7300061609093444e+00 9.9718317035989890e-01 -1.0878275989385112e-04  1.7295177263732735e+00 1.0365432734024702e+00 1.0464563639734076e-04  1.7290124544035061e+00 1.0755928968144093e+00 -9.9340757869501836e-05  1.7284927672212391e+00 1.1148035833906877e+00 9.4463619647261704e-05  1.7279534917645911e+00 1.1536300638605652e+00 -9.0518537082870937e-05  1.7274029957323589e+00 1.1925920712011289e+00 8.6156468864580454e-05  1.7268374563341040e+00 1.2312164275688782e+00 -8.1550553121584129e-05  1.7262624665752342e+00 1.2699001832782375e+00 7.6927982264706114e-05  1.7256746208031528e+00 1.3082165780565851e+00 -7.2661786515102180e-05  1.7250841707432782e+00 1.3466046619440155e+00 6.7440853768623661e-05  1.7244887001481264e+00 1.3845822930046672e+00 -6.2002945637512204e-05  1.7238922125395368e+00 1.4225536678956869e+00 5.6915715604391736e-05  1.7233021491314933e+00 1.4601303056860706e+00 -5.3597082616200883e-05  1.7227292931059495e+00 1.4976455165612128e+00 5.0829065330858755e-05  1.7221632786576406e+00 1.5346621745589242e+00 -4.7946529162977303e-05  1.7216387402863551e+00 1.5716008748353820e+00 4.4539219229894561e-05  1.7211521738074327e+00 1.6079817291089846e+00 -4.1598511624812175e-05  1.7207142732284255e+00 1.6441161999797731e+00 3.8419838831763449e-05  1.7203584138753549e+00 1.6796525073667226e+00 -3.5443428111890820e-05  1.7201081932084592e+00 1.7148296945834449e+00 3.2347924726001522e-05  1.7199602371803417e+00 1.7491531856248494e+00 -3.0912656252958095e-05  1.7200038432483198e+00 1.7830248783489446e+00 2.8576680939481405e-05  1.7202413630536348e+00 1.8158346800786596e+00 -2.6033825734266312e-05  1.7207292965672891e+00 1.8478016188962629e+00 2.1916349077488681e-05  1.7215504049831636e+00 1.8785243528031785e+00 -1.8745544713666562e-05  1.7227681261806167e+00 1.9080593768068519e+00 1.4769610749998036e-05  1.7244054995158353e+00 1.9358431649269341e+00 -1.0514959810183234e-05  1.7266204240780387e+00 1.9622228505896271e+00 7.7078064537081201e-06  1.7293752985223121e+00 1.9865277764036973e+00 -1.6104301372266631e-06  1.7327272341603126e+00 2.0090558881524991e+00 -1.0667661806359096e-06  1.7366633909320841e+00 2.0296841257338349e+00 8.7811360197282730e-06  1.7411134794207896e+00 2.0486381243966485e+00 -1.1179775373428203e-05  1.7459056122165306e+00 2.0659424493932699e+00 1.5551851448664081e-05  1.7510415898777980e+00 2.0822821943530641e+00 -1.9159430102671740e-05  1.7562491864895204e+00 2.0974723450232808e+00 1.9335134682316596e-05  1.7615146760636129e+00 2.1120217267897416e+00 -2.2217558029525834e-05  1.7667422583713481e+00 2.1260501201101221e+00 2.0876910729047323e-05  1.7718852535680478e+00 2.1395177056252916e+00 -2.0354282503725096e-05  1.7768600460958948e+00 2.1524825784950377e+00 1.7041381793978582e-05  1.7817835429880944e+00 2.1651606682484372e+00 -1.2790468421497099e-05  1.7864747266836674e+00 2.1772027728239167e+00 6.7710422140618809e-06  1.7910448579010034e+00 2.1888519762784111e+00 1.3904496250616850e-07  1.7954565029489968e+00 2.2000849859257814e+00 -9.0565657197415609e-06  1.7996733681081523e+00 2.2107426600176789e+00 1.7704278545242432e-05  1.8036979145051035e+00 2.2208788369523065e+00 -2.8900883996817863e-05  1.8075885967630758e+00 2.2306900419521911e+00 3.9644598493904950e-05  1.8112301359109018e+00 2.2397254448288275e+00 -5.1944666168407210e-05  1.8146936793919068e+00 2.2484491122171355e+00 6.3687223040664377e-05  1.8179994495039375e+00 2.2565516144928917e+00 -7.5434621729994443e-05  1.8210367681498765e+00 2.2641976591523094e+00 8.7845216135572584e-05  1.8239221271610311e+00 2.2711631023058398e+00 -9.9705534337464217e-05  1.8265971130362864e+00 2.2779443683219034e+00 1.1446849983156670e-04  1.8290694945949815e+00 2.2837851308231798e+00 -1.2705697604442653e-04  1.8313172522673429e+00 2.2895550220055232e+00 1.4234117452434995e-04  1.8334561840315990e+00 2.2945102982759273e+00 -1.5319330106868884e-04  1.8352947904582269e+00 2.2993039700690163e+00 1.6728312451446951e-04  1.8370581396173886e+00 2.3032719423310350e+00 -1.7812758072186007e-04  1.8