<?xml version="1.0"?>
<VTKFile type="UnstructuredGrid"  version="0.1"  >
<UnstructuredGrid>
<Piece  NumberOfPoints="8241" NumberOfCells="16000">
<Points>
<DataArray  type="Float64"  NumberOfComponents="3"  format="ascii">-5 -1 0  -4.95 -1 0  -4.9 -1 0  -4.85 -1 0  -4.8 -1 0  -4.75 -1 0  -4.7 -1 0  -4.65 -1 0  -4.6 -1 0  -4.55 -1 0  -4.5 -1 0  -4.45 -1 0  -4.4 -1 0  -4.35 -1 0  -4.3 -1 0  -4.25 -1 0  -4.2 -1 0  -4.15 -1 0  -4.1 -1 0  -4.05 -1 0  -4 -1 0  -3.95 -1 0  -3.9 -1 0  -3.85 -1 0  -3.8 -1 0  -3.75 -1 0  -3.7 -1 0  -3.65 -1 0  -3.6 -1 0  -3.55 -1 0  -3.5 -1 0  -3.45 -1 0  -3.4 -1 0  -3.35 -1 0  -3.3 -1 0  -3.25 -1 0  -3.2 -1 0  -3.15 -1 0  -3.1 -1 0  -3.05 -1 0  -3 -1 0  -2.95 -1 0  -2.9 -1 0  -2.85 -1 0  -2.8 -1 0  -2.75 -1 0  -2.7 -1 0  -2.65 -1 0  -2.6 -1 0  -2.55 -1 0  -2.5 -1 0  -2.45 -1 0  -2.4 -1 0  -2.35 -1 0  -2.3 -1 0  -2.25 -1 0  -2.2 -1 0  -2.15 -1 0  -2.1 -1 0  -2.05 -1 0  -2 -1 0  -1.95 -1 0  -1.9 -1 0  -1.85 -1 0  -1.8 -1 0  -1.75 -1 0  -1.7 -1 0  -1.65 -1 0  -1.6 -1 0  -1.55 -1 0  -1.5 -1 0  -1.45 -1 0  -1.4 -1 0  -1.35 -1 0  -1.3 -1 0  -1.25 -1 0  -1.2 -1 0  -1.15 -1 0  -1.1 -1 0  -1.05 -1 0  -1 -1 0  -0.9500000000000002 -1 0  -0.9000000000000004 -1 0  -0.8499999999999996 -1 0  -0.7999999999999998 -1 0  -0.75 -1 0  -0.7000000000000002 -1 0  -0.6500000000000004 -1 0  -0.5999999999999996 -1 0  -0.5499999999999998 -1 0  -0.5 -1 0  -0.4500000000000002 -1 0  -0.4000000000000004 -1 0  -0.3499999999999996 -1 0  -0.2999999999999998 -1 0  -0.25 -1 0  -0.2000000000000002 -1 0  -0.1500000000000004 -1 0  -0.09999999999999964 -1 0  -0.04999999999999982 -1 0  0 -1 0  0.04999999999999982 -1 0  0.09999999999999964 -1 0  0.1500000000000004 -1 0  0.2000000000000002 -1 0  0.25 -1 0  0.2999999999999998 -1 0  0.3499999999999996 -1 0  0.4000000000000004 -1 0  0.4500000000000002 -1 0  0.5 -1 0  0.5499999999999998 -1 0  0.5999999999999996 -1 0  0.6500000000000004 -1 0  0.7000000000000002 -1 0  0.75 -1 0  0.7999999999999998 -1 0  0.8499999999999996 -1 0  0.9000000000000004 -1 0  0.9500000000000002 -1 0  1 -1 0  1.05 -1 0  1.1 -1 0  1.15 -1 0  1.2 -1 0  1.25 -1 0  1.3 -1 0  1.35 -1 0  1.4 -1 0  1.45 -1 0  1.5 -1 0  1.55 -1 0  1.6 -1 0  1.65 -1 0  1.7 -1 0  1.75 -1 0  1.8 -1 0  1.85 -1 0  1.9 -1 0  1.95 -1 0  2 -1 0  2.05 -1 0  2.1 -1 0  2.15 -1 0  2.2 -1 0  2.25 -1 0  2.3 -1 0  2.35 -1 0  2.4 -1 0  2.45 -1 0  2.5 -1 0  2.55 -1 0  2.6 -1 0  2.65 -1 0  2.7 -1 0  2.75 -1 0  2.8 -1 0  2.85 -1 0  2.9 -1 0  2.95 -1 0  3 -1 0  3.050000000000001 -1 0  3.1 -1 0  3.15 -1 0  3.199999999999999 -1 0  3.25 -1 0  3.300000000000001 -1 0  3.35 -1 0  3.4 -1 0  3.449999999999999 -1 0  3.5 -1 0  3.550000000000001 -1 0  3.6 -1 0  3.65 -1 0  3.699999999999999 -1 0  3.75 -1 0  3.800000000000001 -1 0  3.85 -1 0  3.9 -1 0  3.949999999999999 -1 0  4 -1 0  4.050000000000001 -1 0  4.1 -1 0  4.15 -1 0  4.199999999999999 -1 0  4.25 -1 0  4.300000000000001 -1 0  4.35 -1 0  4.4 -1 0  4.449999999999999 -1 0  4.5 -1 0  4.550000000000001 -1 0  4.6 -1 0  4.65 -1 0  4.699999999999999 -1 0  4.75 -1 0  4.800000000000001 -1 0  4.85 -1 0  4.9 -1 0  4.949999999999999 -1 0  5 -1 0  -5 -0.95 0  -4.95 -0.95 0  -4.9 -0.95 0  -4.85 -0.95 0  -4.8 -0.95 0  -4.75 -0.95 0  -4.7 -0.95 0  -4.65 -0.95 0  -4.6 -0.95 0  -4.55 -0.95 0  -4.5 -0.95 0  -4.45 -0.95 0  -4.4 -0.95 0  -4.35 -0.95 0  -4.3 -0.95 0  -4.25 -0.95 0  -4.2 -0.95 0  -4.15 -0.95 0  -4.1 -0.95 0  -4.05 -0.95 0  -4 -0.95 0  -3.95 -0.95 0  -3.9 -0.95 0  -3.85 -0.95 0  -3.8 -0.95 0  -3.75 -0.95 0  -3.7 -0.95 0  -3.65 -0.95 0  -3.6 -0.95 0  -3.55 -0.95 0  -3.5 -0.95 0  -3.45 -0.95 0  -3.4 -0.95 0  -3.35 -0.95 0  -3.3 -0.95 0  -3.25 -0.95 0  -3.2 -0.95 0  -3.15 -0.95 0  -3.1 -0.95 0  -3.05 -0.95 0  -3 -0.95 0  -2.95 -0.95 0  -2.9 -0.95 0  -2.85 -0.95 0  -2.8 -0.95 0  -2.75 -0.95 0  -2.7 -0.95 0  -2.65 -0.95 0  -2.6 -0.95 0  -2.55 -0.95 0  -2.5 -0.95 0  -2.45 -0.95 0  -2.4 -0.95 0  -2.35 -0.95 0  -2.3 -0.95 0  -2.25 -0.95 0  -2.2 -0.95 0  -2.15 -0.95 0  -2.1 -0.95 0  -2.05 -0.95 0  -2 -0.95 0  -1.95 -0.95 0  -1.9 -0.95 0  -1.85 -0.95 0  -1.8 -0.95 0  -1.75 -0.95 0  -1.7 -0.95 0  -1.65 -0.95 0  -1.6 -0.95 0  -1.55 -0.95 0  -1.5 -0.95 0  -1.45 -0.95 0  -1.4 -0.95 0  -1.35 -0.95 0  -1.3 -0.95 0  -1.25 -0.95 0  -1.2 -0.95 0  -1.15 -0.95 0  -1.1 -0.95 0  -1.05 -0.95 0  -1 -0.95 0  -0.9500000000000002 -0.95 0  -0.9000000000000004 -0.95 0  -0.8499999999999996 -0.95 0  -0.7999999999999998 -0.95 0  -0.75 -0.95 0  -0.7000000000000002 -0.95 0  -0.6500000000000004 -0.95 0  -0.5999999999999996 -0.95 0  -0.5499999999999998 -0.95 0  -0.5 -0.95 0  -0.4500000000000002 -0.95 0  -0.4000000000000004 -0.95 0  -0.3499999999999996 -0.95 0  -0.2999999999999998 -0.95 0  -0.25 -0.95 0  -0.2000000000000002 -0.95 0  -0.1500000000000004 -0.95 0  -0.09999999999999964 -0.95 0  -0.04999999999999982 -0.95 0  0 -0.95 0  0.04999999999999982 -0.95 0  0.09999999999999964 -0.95 0  0.1500000000000004 -0.95 0  0.2000000000000002 -0.95 0  0.25 -0.95 0  0.2999999999999998 -0.95 0  0.3499999999999996 -0.95 0  0.4000000000000004 -0.95 0  0.4500000000000002 -0.95 0  0.5 -0.95 0  0.5499999999999998 -0.95 0  0.5999999999999996 -0.95 0  0.6500000000000004 -0.95 0  0.7000000000000002 -0.95 0  0.75 -0.95 0  0.7999999999999998 -0.95 0  0.8499999999999996 -0.95 0  0.9000000000000004 -0.95 0  0.9500000000000002 -0.95 0  1 -0.95 0  1.05 -0.95 0  1.1 -0.95 0  1.15 -0.95 0  1.2 -0.95 0  1.25 -0.95 0  1.3 -0.95 0  1.35 -0.95 0  1.4 -0.95 0  1.45 -0.95 0  1.5 -0.95 0  1.55 -0.95 0  1.6 -0.95 0  1.65 -0.95 0  1.7 -0.95 0  1.75 -0.95 0  1.8 -0.95 0  1.85 -0.95 0  1.9 -0.95 0  1.95 -0.95 0  2 -0.95 0  2.05 -0.95 0  2.1 -0.95 0  2.15 -0.95 0  2.2 -0.95 0  2.25 -0.95 0  2.3 -0.95 0  2.35 -0.95 0  2.4 -0.95 0  2.45 -0.95 0  2.5 -0.95 0  2.55 -0.95 0  2.6 -0.95 0  2.65 -0.95 0  2.7 -0.95 0  2.75 -0.95 0  2.8 -0.95 0  2.85 -0.95 0  2.9 -0.95 0  2.95 -0.95 0  3 -0.95 0  3.050000000000001 -0.95 0  3.1 -0.95 0  3.15 -0.95 0  3.199999999999999 -0.95 0  3.25 -0.95 0  3.300000000000001 -0.95 0  3.35 -0.95 0  3.4 -0.95 0  3.449999999999999 -0.95 0  3.5 -0.95 0  3.550000000000001 -0.95 0  3.6 -0.95 0  3.65 -0.95 0  3.699999999999999 -0.95 0  3.75 -0.95 0  3.800000000000001 -0.95 0  3.85 -0.95 0  3.9 -0.95 0  3.949999999999999 -0.95 0  4 -0.95 0  4.050000000000001 -0.95 0  4.1 -0.95 0  4.15 -0.95 0  4.199999999999999 -0.95 0  4.25 -0.95 0  4.300000000000001 -0.95 0  4.35 -0.95 0  4.4 -0.95 0  4.449999999999999 -0.95 0  4.5 -0.95 0  4.550000000000001 -0.95 0  4.6 -0.95 0  4.65 -0.95 0  4.699999999999999 -0.95 0  4.75 -0.95 0  4.800000000000001 -0.95 0  4.85 -0.95 0  4.9 -0.95 0  4.949999999999999 -0.95 0  5 -0.95 0  -5 -0.9 0  -4.95 -0.9 0  -4.9 -0.9 0  -4.85 -0.9 0  -4.8 -0.9 0  -4.75 -0.9 0  -4.7 -0.9 0  -4.65 -0.9 0  -4.6 -0.9 0  -4.55 -0.9 0  -4.5 -0.9 0  -4.45 -0.9 0  -4.4 -0.9 0  -4.35 -0.9 0  -4.3 -0.9 0  -4.25 -0.9 0  -4.2 -0.9 0  -4.15 -0.9 0  -4.1 -0.9 0  -4.05 -0.9 0  -4 -0.9 0  -3.95 -0.9 0  -3.9 -0.9 0  -3.85 -0.9 0  -3.8 -0.9 0  -3.75 -0.9 0  -3.7 -0.9 0  -3.65 -0.9 0  -3.6 -0.9 0  -3.55 -0.9 0  -3.5 -0.9 0  -3.45 -0.9 0  -3.4 -0.9 0  -3.35 -0.9 0  -3.3 -0.9 0  -3.25 -0.9 0  -3.2 -0.9 0  -3.15 -0.9 0  -3.1 -0.9 0  -3.05 -0.9 0  -3 -0.9 0  -2.95 -0.9 0  -2.9 -0.9 0  -2.85 -0.9 0  -2.8 -0.9 0  -2.75 -0.9 0  -2.7 -0.9 0  -2.65 -0.9 0  -2.6 -0.9 0  -2.55 -0.9 0  -2.5 -0.9 0  -2.45 -0.9 0  -2.4 -0.9 0  -2.35 -0.9 0  -2.3 -0.9 0  -2.25 -0.9 0  -2.2 -0.9 0  -2.15 -0.9 0  -2.1 -0.9 0  -2.05 -0.9 0  -2 -0.9 0  -1.95 -0.9 0  -1.9 -0.9 0  -1.85 -0.9 0  -1.8 -0.9 0  -1.75 -0.9 0  -1.7 -0.9 0  -1.65 -0.9 0  -1.6 -0.9 0  -1.55 -0.9 0  -1.5 -0.9 0  -1.45 -0.9 0  -1.4 -0.9 0  -1.35 -0.9 0  -1.3 -0.9 0  -1.25 -0.9 0  -1.2 -0.9 0  -1.15 -0.9 0  -1.1 -0.9 0  -1.05 -0.9 0  -1 -0.9 0  -0.9500000000000002 -0.9 0  -0.9000000000000004 -0.9 0  -0.8499999999999996 -0.9 0  -0.7999999999999998 -0.9 0  -0.75 -0.9 0  -0.7000000000000002 -0.9 0  -0.6500000000000004 -0.9 0  -0.5999999999999996 -0.9 0  -0.5499999999999998 -0.9 0  -0.5 -0.9 0  -0.4500000000000002 -0.9 0  -0.4000000000000004 -0.9 0  -0.3499999999999996 -0.9 0  -0.2999999999999998 -0.9 0  -0.25 -0.9 0  -0.2000000000000002 -0.9 0  -0.1500000000000004 -0.9 0  -0.09999999999999964 -0.9 0  -0.04999999999999982 -0.9 0  0 -0.9 0  0.04999999999999982 -0.9 0  0.09999999999999964 -0.9 0  0.1500000000000004 -0.9 0  0.2000000000000002 -0.9 0  0.25 -0.9 0  0.2999999999999998 -0.9 0  0.3499999999999996 -0.9 0  0.4000000000000004 -0.9 0  0.4500000000000002 -0.9 0  0.5 -0.9 0  0.5499999999999998 -0.9 0  0.5999999999999996 -0.9 0  0.6500000000000004 -0.9 0  0.7000000000000002 -0.9 0  0.75 -0.9 0  0.7999999999999998 -0.9 0  0.8499999999999996 -0.9 0  0.9000000000000004 -0.9 0  0.9500000000000002 -0.9 0  1 -0.9 0  1.05 -0.9 0  1.1 -0.9 0  1.15 -0.9 0  1.2 -0.9 0  1.25 -0.9 0  1.3 -0.9 0  1.35 -0.9 0  1.4 -0.9 0  1.45 -0.9 0  1.5 -0.9 0  1.55 -0.9 0  1.6 -0.9 0  1.65 -0.9 0  1.7 -0.9 0  1.75 -0.9 0  1.8 -0.9 0  1.85 -0.9 0  1.9 -0.9 0  1.95 -0.9 0  2 -0.9 0  2.05 -0.9 0  2.1 -0.9 0  2.15 -0.9 0  2.2 -0.9 0  2.25 -0.9 0  2.3 -0.9 0  2.35 -0.9 0  2.4 -0.9 0  2.45 -0.9 0  2.5 -0.9 0  2.55 -0.9 0  2.6 -0.9 0  2.65 -0.9 0  2.7 -0.9 0  2.75 -0.9 0  2.8 -0.9 0  2.85 -0.9 0  2.9 -0.9 0  2.95 -0.9 0  3 -0.9 0  3.050000000000001 -0.9 0  3.1 -0.9 0  3.15 -0.9 0  3.199999999999999 -0.9 0  3.25 -0.9 0  3.300000000000001 -0.9 0  3.35 -0.9 0  3.4 -0.9 0  3.449999999999999 -0.9 0  3.5 -0.9 0  3.550000000000001 -0.9 0  3.6 -0.9 0  3.65 -0.9 0  3.699999999999999 -0.9 0  3.75 -0.9 0  3.800000000000001 -0.9 0  3.85 -0.9 0  3.9 -0.9 0  3.949999999999999 -0.9 0  4 -0.9 0  4.050000000000001 -0.9 0  4.1 -0.9 0  4.15 -0.9 0  4.199999999999999 -0.9 0  4.25 -0.9 0  4.300000000000001 -0.9 0  4.35 -0.9 0  4.4 -0.9 0  4.449999999999999 -0.9 0  4.5 -0.9 0  4.550000000000001 -0.9 0  4.6 -0.9 0  4.65 -0.9 0  4.699999999999999 -0.9 0  4.75 -0.9 0  4.800000000000001 -0.9 0  4.85 -0.9 0  4.9 -0.9 0  4.949999999999999 -0.9 0  5 -0.9 0  -5 -0.85 0  -4.95 -0.85 0  -4.9 -0.85 0  -4.85 -0.85 0  -4.8 -0.85 0  -4.75 -0.85 0  -4.7 -0.85 0  -4.65 -0.85 0  -4.6 -0.85 0  -4.55 -0.85 0  -4.5 -0.85 0  -
[...]
<PointData  Vectors="f_15"> 
<DataArray  type="Float64"  Name="f_15"  NumberOfComponents="3" format="ascii">2.9979578593891878e+00 0.0000000000000000e+00 0.0000000000000000e+00  3.0035287635790966e+00 -2.6180868898035476e-03 0.0000000000000000e+00  2.9993987406841764e+00 5.4550206981119351e-03 0.0000000000000000e+00  3.0024710730118538e+00 4.5566540834278104e-04 0.0000000000000000e+00  2.9991164893472835e+00 1.5017709989522188e-03 0.0000000000000000e+00  3.0028763161364198e+00 3.5992902577519420e-03 0.0000000000000000e+00  2.9981647194333072e+00 -2.1793908791233160e-03 0.0000000000000000e+00  3.0030663255236898e+00 5.2787922533779541e-03 0.0000000000000000e+00  2.9977659550937013e+00 -4.0108566657019963e-03 0.0000000000000000e+00  3.0030227332731836e+00 5.5883154133242316e-03 0.0000000000000000e+00  2.9971842095843946e+00 -5.0446298714542067e-03 0.0000000000000000e+00  3.0036115929888481e+00 6.3270464373981154e-03 0.0000000000000000e+00  2.9962808469708220e+00 -6.4134858866034782e-03 0.0000000000000000e+00  3.0040990429823236e+00 6.9491742302213895e-03 0.0000000000000000e+00  2.9959991494516585e+00 -6.5967446201518967e-03 0.0000000000000000e+00  3.0041277390608960e+00 6.4851145633354149e-03 0.0000000000000000e+00  2.9957849333757900e+00 -6.3426978757447202e-03 0.0000000000000000e+00  3.0044719026589264e+00 6.4557708046978184e-03 0.0000000000000000e+00  2.9954276029419624e+00 -6.4003464912049486e-03 0.0000000000000000e+00  3.0045708067411607e+00 6.0884747689350033e-03 0.0000000000000000e+00  2.9955193239668083e+00 -5.6568329047856957e-03 0.0000000000000000e+00  3.0044801533811896e+00 5.3142730284361098e-03 0.0000000000000000e+00  2.9954687934954438e+00 -5.1389353754941461e-03 0.0000000000000000e+00  3.0045132829456080e+00 4.8263813476300387e-03 0.0000000000000000e+00  2.9956431576827205e+00 -4.2935217557761394e-03 0.0000000000000000e+00  3.0041657878440180e+00 3.6300720916158163e-03 0.0000000000000000e+00  2.9958563652191037e+00 -3.2517427500680959e-03 0.0000000000000000e+00  3.0042579878751394e+00 3.1308106566329285e-03 0.0000000000000000e+00  2.9956562527386756e+00 -3.0146961287630804e-03 0.0000000000000000e+00  3.0041453103833264e+00 2.4598766760232970e-03 0.0000000000000000e+00  2.9961647375935700e+00 -1.6312923833967281e-03 0.0000000000000000e+00  3.0035926265029529e+00 9.6514513616223463e-04 0.0000000000000000e+00  2.9962473848192159e+00 -8.1318573569788826e-04 0.0000000000000000e+00  3.0039439258063787e+00 1.0100251942643419e-03 0.0000000000000000e+00  2.9958679029340716e+00 -8.9053950848014469e-04 0.0000000000000000e+00  3.0037936995441163e+00 4.8835617930199828e-04 0.0000000000000000e+00  2.9963345595276771e+00 3.0303473487484716e-04 0.0000000000000000e+00  3.0033436157219011e+00 -2.4361235169058658e-04 0.0000000000000000e+00  2.9960962452661977e+00 3.2475089039243974e-04 0.0000000000000000e+00  3.0037422099421600e+00 8.7692349146151639e-04 0.0000000000000000e+00  2.9953966162178989e+00 -1.1066758080852060e-04 0.0000000000000000e+00  3.0034034698853800e+00 1.8712105311940537e-03 0.0000000000000000e+00  2.9950418055401449e+00 7.8940787604137247e-04 0.0000000000000000e+00  3.0023067870680480e+00 4.3507762072528501e-03 0.0000000000000000e+00  2.9932431275931184e+00 1.7490880791944364e-03 0.0000000000000000e+00  3.0006945670441221e+00 1.0709225101599816e-02 0.0000000000000000e+00  2.9893615396707474e+00 5.5461565553914681e-03 0.0000000000000000e+00  2.9960989610175761e+00 2.0797740787383393e-02 0.0000000000000000e+00  2.9830824580163542e+00 1.6141853686663921e-02 0.0000000000000000e+00  2.9869489936954032e+00 3.8490463261910683e-02 0.0000000000000000e+00  2.9713062621909621e+00 3.4749657695100578e-02 0.0000000000000000e+00  2.9725986921854486e+00 6.8437614932005203e-02 0.0000000000000000e+00  2.9522038530441947e+00 6.6115714311174342e-02 0.0000000000000000e+00  2.9498917073787014e+00 1.1102072041578319e-01 0.0000000000000000e+00  2.9258597525992842e+00 1.1467291265264570e-01 0.0000000000000000e+00  2.9176751109058228e+00 1.6949068837966408e-01 0.0000000000000000e+00  2.8901083546135724e+00 1.7894937351403589e-01 0.0000000000000000e+00  2.8774738076646060e+00 2.4615787829134855e-01 0.0000000000000000e+00  2.8448451156848606e+00 2.6013425550190877e-01 0.0000000000000000e+00  2.8285061656758526e+00 3.3737335900787468e-01 0.0000000000000000e+00  2.7926938244694881e+00 3.5831488164018066e-01 0.0000000000000000e+00  2.7714114730929182e+00 4.4329314818290877e-01 0.0000000000000000e+00  2.7336499006231949e+00 4.6827141143622664e-01 0.0000000000000000e+00  2.7093302068379512e+00 5.6317319330819349e-01 0.0000000000000000e+00  2.6683371194058703e+00 5.9031730032268970e-01 0.0000000000000000e+00  2.6425920947621648e+00 6.9103166585358333e-01 0.0000000000000000e+00  2.5997787436870023e+00 7.2329163227768134e-01 0.0000000000000000e+00  2.5714992039722393e+00 8.2852320627665654e-01 0.0000000000000000e+00  2.5283637874590532e+00 8.6068538117484061e-01 0.0000000000000000e+00  2.4986814925167811e+00 9.7395417985416033e-01 0.0000000000000000e+00  2.4539957449386218e+00 1.0077180545810738e+00 0.0000000000000000e+00  2.4246031593833961e+00 1.1185902203802718e+00 0.0000000000000000e+00  2.3786631458048215e+00 1.1619419812778637e+00 0.0000000000000000e+00  2.3491845306160317e+00 1.2735331939777306e+00 0.0000000000000000e+00  2.3023076830491935e+00 1.3089904738054081e+00 0.0000000000000000e+00  2.2745516010395121e+00 1.4361669739848644e+00 0.0000000000000000e+00  2.2243120140158634e+00 1.4694658596158594e+00 0.0000000000000000e+00  2.2008261753940785e+00 1.5845865895045994e+00 0.0000000000000000e+00  2.1468396776485239e+00 1.6349460675832155e+00 0.0000000000000000e+00  2.1269624238597360e+00 1.7515270980827331e+00 0.0000000000000000e+00  2.0707658772000093e+00 1.7858780220750614e+00 0.0000000000000000e+00  2.0539800186334123e+00 1.9092773426982601e+00 0.0000000000000000e+00  1.9966564944896119e+00 1.9603362085564817e+00 0.0000000000000000e+00  1.9826515427244653e+00 2.0561504035056961e+00 0.0000000000000000e+00  1.9278185334619760e+00 2.1186724681298417e+00 0.0000000000000000e+00  1.9149741867277750e+00 2.2024457757138065e+00 0.0000000000000000e+00  1.8693912007584750e+00 2.2556892828256223e+00 0.0000000000000000e+00  1.8616398882903125e+00 2.3225708016594746e+00 0.0000000000000000e+00  1.8361513463294392e+00 2.3377876891029201e+00 0.0000000000000000e+00  1.8438262618091741e+00 2.3509143005931614e+00 0.0000000000000000e+00  1.8386345133483917e+00 2.3404664575010687e+00 0.0000000000000000e+00  1.8441415370343084e+00 2.3478934726583667e+00 0.0000000000000000e+00  1.8411113173409630e+00 2.3361398136302651e+00 0.0000000000000000e+00  1.8455804710489923e+00 2.3428415932638162e+00 0.0000000000000000e+00  1.8444795322924710e+00 2.3298911624974350e+00 0.0000000000000000e+00  1.8449452625341256e+00 2.3390828454557528e+00 0.0000000000000000e+00  1.8458377678534841e+00 2.3316413302981478e+00 0.0000000000000000e+00  1.8450856005141076e+00 2.3386938232483443e+00 0.0000000000000000e+00  1.8468599770399785e+00 2.3266124315395520e+00 0.0000000000000000e+00  1.8460346417559563e+00 2.3368460297961171e+00 0.0000000000000000e+00  1.8454060192793558e+00 2.3306592786214253e+00 0.0000000000000000e+00  1.8483271773120971e+00 2.3279867317934251e+00 0.0000000000000000e+00  1.8468108890228665e+00 2.3315998612684292e+00 0.0000000000000000e+00  1.8447530633057909e+00 2.3341812695038335e+00 0.0000000000000000e+00  1.8481513773937643e+00 2.3266786298170685e+00 0.0000000000000000e+00  1.8484267991055352e+00 2.3267450585501592e+00 0.0000000000000000e+00  1.8451150280063198e+00 2.3344219394630823e+00 0.0000000000000000e+00  1.8471537125422455e+00 2.3261412884949073e+00 0.0000000000000000e+00  1.8488026801037138e+00 2.3284539180785067e+00 0.0000000000000000e+00  1.8454108203954371e+00 2.3290699370429055e+00 0.0000000000000000e+00  1.8482588703153324e+00 2.3271271813133958e+00 0.0000000000000000e+00  1.8465286450417098e+00 2.3268627682029472e+00 0.0000000000000000e+00  1.8476187119924552e+00 2.3298932921426045e+00 0.0000000000000000e+00  1.8464721401541779e+00 2.3214127723021538e+00 0.0000000000000000e+00  1.8479849701983400e+00 2.3283235055169071e+00 0.0000000000000000e+00  1.8458864508331327e+00 2.3140909641551635e+00 0.0000000000000000e+00  1.8487524394078960e+00 2.3182124235123953e+00 0.0000000000000000e+00  1.8439009739251842e+00 2.3085885030925644e+00 0.0000000000000000e+00  1.8518930770490702e+00 2.3055047187870992e+00 0.0000000000000000e+00  1.8414174398435696e+00 2.3078481347084190e+00 0.0000000000000000e+00  1.8521208827213962e+00 2.3070214821097781e+00 0.0000000000000000e+00  1.8424278774823253e+00 2.3066887891797094e+00 0.0000000000000000e+00  1.8537182371600751e+00 2.3125209022205095e+00 0.0000000000000000e+00  1.8367962505423259e+00 2.3205652672227259e+00 0.0000000000000000e+00  1.8614587345940512e+00 2.3066232828314628e+00 0.0000000000000000e+00  1.8308879683263835e+00 2.3337439059203007e+00 0.0000000000000000e+00  1.8646698651302038e+00 2.3049049392516965e+00 0.0000000000000000e+00  1.8279748660521384e+00 2.3431675866875250e+00 0.0000000000000000e+00  1.8695968293332914e+00 2.2929862939214138e+00 0.0000000000000000e+00  1.8213428793987951e+00 2.3615256156383659e+00 0.0000000000000000e+00  1.8743883639716408e+00 2.2798291207112902e+00 0.0000000000000000e+00  1.8200717945133287e+00 2.3679388782230095e+00 0.0000000000000000e+00  1.8723109331685295e+00 2.2791139424819060e+00 0.0000000000000000e+00  1.8219881629196575e+00 2.3690698443641116e+00 0.0000000000000000e+00  1.8714198532920483e+00 2.2732574257018090e+00 0.0000000000000000e+00  1.8204172498473599e+00 2.3739487105379165e+00 0.0000000000000000e+00  1.8702121658978870e+00 2.2664623128343142e+00 0.0000000000000000e+00  1.8179675630292635e+00 2.3632450702602195e+00 0.0000000000000000e+00  1.8555005294172013e+00 2.2421492289365887e+00 0.0000000000000000e+00  1.7896674321685415e+00 2.2938658920576325e+00 0.0000000000000000e+00  1.7744269809554409e+00 2.0511902006071794e+00 0.0000000000000000e+00  1.6313887948367385e+00 1.9240811918867504e+00 0.0000000000000000e+00  1.3912129976213872e+00 1.0138209272870671e+00 0.0000000000000000e+00  1.0823246585168325e+00 4.4036190890521587e-01 0.0000000000000000e+00  1.0440205289058773e+00 -5.3584109290806974e-02 0.0000000000000000e+00  9.7480233074261902e-01 1.2322657609767028e-01 0.0000000000000000e+00  1.0293994677603822e+00 -1.2204251662800009e-01 0.0000000000000000e+00  9.6915170971122910e-01 1.2836887211444103e-01 0.0000000000000000e+00  1.0324121321981228e+00 -1.3504780098191504e-01 0.0000000000000000e+00  9.6618701740854762e-01 1.3941016380781829e-01 0.0000000000000000e+00  1.0358386965659860e+00 -1.4550468848331546e-01 0.0000000000000000e+00  9.6164170936810944e-01 1.5324888255112265e-01 0.0000000000000000e+00  1.0418861729773752e+00 -1.6165092002867626e-01 0.0000000000000000e+00  9.5521506250590338e-01 1.7117677616139126e-01 0.0000000000000000e+00  1.0478365353174055e+00 -1.7403179905692967e-01 0.0000000000000000e+00  9.5056371327898470e-01 1.7988278853707473e-01 0.0000000000000000e+00  1.0515899702998697e+00 -1.7620125763115868e-01 0.0000000000000000e+00  9.4773482889024208e-01 1.8004374456749853e-01 0.0000000000000000e+00  1.0534934887605745e+00 -1.7266440102187289e-01 0.0000000000000000e+00  9.4736120297110682e-01 1.7354568069020046e-01 0.0000000000000000e+00  1.0518659385189120e+00 -1.6088260908631657e-01 0.0000000000000000e+00  9.5087156805503326e-01 1.5672805659795438e-01 0.0000000000000000e+00  1.0468404203463422e+00 -1.4106970036650723e-01 0.0000000000000000e+00  9.5664622723319659e-01 1.3431502945727153e-01 0.0000000000000000e+00  1.0405011926865169e+00 -1.1933554689325425e-01 0.0000000000000000e+00  9.6318970987992603e-01 1.1152594232390513e-01 0.0000000000000000e+00  1.0335542677031391e+00 -9.7619923430356637e-02 0.0000000000000000e+00  9.7019701092507948e-01 8.8908144643850523e-02 0.0000000000000000e+00  1.0265305741989641e+00 -7.6553232159571660e-02 0.0000000000000000e+00  9.7681081225801691e-01 6.8232223354031105e-02 0.0000000000000000e+00  1.0203475405027875e+00 -5.8287089509558895e-02 0.0000000000000000e+00  9.8240296587646925e-01 5.1174567066117400e-02 0.0000000000000000e+00  1.0152143287264324e+00 -4.3370094276156790e-02 0.0000000000000000e+00  9.8703613908553611e-01 3.7387610144960969e-02 0.0000000000000000e+00  1.0110154721858180e+00 -3.1294249977781158e-02 0.0000000000000000e+00  9.9074266855264959e-01 2.6502305192839290e-02 0.0000000000000000e+00  1.0077693026491448e+00 -2.1980605480400001e-02 0.0000000000000000e+00  9.9352979774322470e-01 1.8389919867274961e-02 0.0000000000000000e+00  1.0053744207715876e+00 -1.5142615753768268e-02 0.0000000000000000e+00  9.9557286008570078e-01 1.2510539839258273e-02 0.0000000000000000e+00  1.0036287604162504e+00 -1.0189830597494780e-02 0.0000000000000000e+00  9.9704880475089064e-01 8.2983234643325774e-03 0.0000000000000000e+00  1.0023898936603244e+00 -6.6852289038206968e-03 0.0000000000000000e+00  9.9807549428423536e-01 5.3823952565339953e-03 0.0000000000000000e+00  1.0015439924241756e+00 -4.2992323987260158e-03 0.0000000000000000e+00  9.9876830540039785e-01 3.4262190467443695e-03 0.0000000000000000e+00  1.0009775704679780e+00 -2.7090471153888174e-03 0.0000000000000000e+00  9.9922931637691381e-01 2.1318468902377223e-03 0.0000000000000000e+00  1.0006045740450535e+00 -1.6650955799666250e-03 0.0000000000000000e+00  9.9952890257243787e-01 1.2929698417122933e-03 0.0000000000000000e+00  1.0003663872111617e+00 -9.9835967200505825e-04 0.0000000000000000e+00  9.9971777009000606e-01 7.6407886696525529e-04 0.0000000000000000e+00  1.0002188593521808e+00 -5.8298106641729809e-04 0.0000000000000000e+00  9.9983434709952768e-01 4.3554049396279004e-04 0.0000000000000000e+00  1.0001305133200176e+00 -3.2752020331015488e-04 0.0000000000000000e+00  9.9990478572038477e-01 2.3122800357120075e-04 0.0000000000000000e+00  1.0000815359633062e+00 -1.7102241281666481e-04 0.0000000000000000e+00  9.9994625537887316e-01 9.9972818394904523e-05 0.0000000000000000e+00  1.0000595357490605e+00 -7.4286588489816339e-05 0.0000000000000000e+00  9.9997192969481441e-01 1.0292026107976210e-05 0.0000000000000000e+00  1.0000572718979546e+00 0.0000000000000000e+00 0.0000000000000000e+00  2.9974731180462575e+00 0.0000000000000000e+00 6.1920508166597018e-03  3.0008873871457649e+00 -2.2279310729554823e-04 -1.1824402274170228e-03  2.9976324899596065e+00 -3.9949034206281262e-03 -2.0963032670860949e-03  2.9998662334308728e+00 -1.8339381445248394e-03 1.3270990507680107e-03  2.9987839683489188e+00 -1.8679029803917451e-03 -1.0645592462101225e-03  2.9993214203583669e+00 -1.8622984342694850e-03 1.0901171963392743e-03  2.9991799238033834e+00 -1.6402884962889277e-03 -1.2091246066356671e-03  2.9997597526047950e+00 -3.6601375311691686e-04 1.5127764703989357e-03  2.9991492008464209e+00 -2.1704919878598387e-03 -1.7048343051268319e-03  2.9999718222889191e+00 7.9586125524631131e-04 1.9447531980779694e-03  2.9996133825596898e+00 -1.9172832486367298e-03 -2.1446942219564471e-03  2.9997713524092262e+00 9.0851609826382595e-04 2.3972583115275761e-03  2.9998591774176981e+00 -1.6777957266579106e-03 -2.6189320090969468e-03  3.0000511805336658e+00 1.6058230473813902e-03 2.8292526360607917e-03  2.9996345735476564e+00 -2.3089620594713765e-03 -3.0018711772641536e-03  3.0002257783083430e+00 2.2107421607363482e-03 3.1824485464978887e-03  2.9998149139273886e+00 -2.2390055338416541e-03 -3.3656903295879864e-03  3.0000455840740852e+00 2.0576760366352882e-03 3.5542333093498591e-03  2.9998693790377930e+00 -2.2639704362795226e-03 -3.7172559892355273e-03  3.0002214876432838e+00 2.4867738905076184e-03 3.8733007750228351e-03  2.9997337633007892e+00 -2.6678462833240320e-03 -4.0343886246845305e-03  3.0002013994413024e+00 2.6071895270159142e-03 4.2301474996950909e-03  2.9998535914787077e+00 -2.6120291275550061e-03 -4.4392331716821398e-03  3.0002225454497431e+00 2.7705756583747305e-03 4.6579301545364915e-03  2.9996864247168418e+00 -3.0890036289917336e-03 -4.8763031995232055e-03  3.0003237258824438e+00 3.1789792201102349e-03 5.1353198844436721e-03  2.9998637805320225e+00 -3.0815895760547603e-03 -5.4397936575002791e-03  3.0000233416429558e+00 2.9331128525839287e-03 5.7961634131703530e-03  2.9999389255401869e+00 -3.2224382160379772e-03 -6.1623346379235475e-03  3.0003328623198913e+00 3.7205266622684675e-03 6.5547906657444149e-03  2.9995733936409876e+00 -4.2133759711419734e-03 -6.9855740654746314e-03  3.0003249030823964e+00 4.1382989041657131e-03 7.5032625840351103e-03  3.0000420059150734e+00 -3.9736978320785909e-03 -8.0769504635949292e-03  2.9998736623905136e+00 3.8855717052811998e-03 8.6947806232917837e-03  3.0000416995752199e+00 -4.5203055640864898e-03 -9.3106518884593474e-03  3.0003249465830333e+00 5.1221363540885469e-03 9.9883959086495885e-03  2.9996679857778230e+00 -5.6526432778632417e-03 -1.0729997247903692e-02  3.0001698044199050e+00 5.5552867705223928e-03 1.1572445658132362e-02  3.0001370604445436e+00 -5.3999269829086869e-03 -1.2422490781391906e-02  2.9996347327937212e+00 5.9080903180505099e-03 1.3271495990063433e-02  2.9998573528808423e+00 -5.8752534989828659e-03 -1.4058078509575314e-02  2.9996565442812808e+00 7.8952109575643886e-03 1.4879845196342171e-02  2.9989347101060062e+00 -5.6814121780739500e-03 -1.5679729311115890e-02  2.9985283406337615e+00 9.9470761901177401e-03 1.6479714977382025e-02  2.9978417576933523e+00 -2.7634384887469691e-03 -1.7130613778003071e-02  2.9958742175845035e+00 1.4309427433775654e-02 1.7644564284838508e-02  2.9943995452568761e+00 2.5460332046845177e-03 -1.7941444642623632e-02  2.9915538101336225e+00 2.3992514888591356e-02 1.8136043256695857e-02  2.9873834794609198e+00 1.3978897270235338e-02 -1.8171657380730063e-02  2.9826365329087925e+00 3.9785831365788199e-02 1.8072105654998321e-02  2.9761794430015960e+00 3.6016535398144582e-02 -1.7746911669568866e-02  2.9672700428278249e+00 6.6267623380762364e-02 1.7181283054663928e-02  2.9575348097500678e+00 6.9761390236122156e-02 -1.6424384207702585e-02  2.9451575894408988e+00 1.0792956125076084e-01 1.5532435557651309e-02  2.9299708294852307e+00 1.1918840211997912e-01 -1.4618953094554204e-02  2.9137300542420990e+00 1.6425172123463194e-01 1.3611299499358803e-02  2.8944837834802946e+00 1.8704658883018391e-01 -1.2528896530786897e-02  2.8725883999574737e+00 2.3725198351545046e-01 1.1235016522578816e-02  2.8498291415721524e+00 2.7040220166098078e-01 -9.9086239826573948e-03  2.8240859369318407e+00 3.2759419932210870e-01 8.5363181167171179e-03  2.7964814133642051e+00 3.6945003602243859e-01 -7.3038117714491367e-03  2.7680404035290098e+00 4.3082940859022939e-01 6.0534488627753697e-03  2.7374657219646839e+00 4.8332551135262436e-01 -4.7263889014591293e-03  2.7051801713378434e+00 5.4683695312364400e-01 3.1516774918596679e-03  2.6730113286238937e+00 6.0681816877634598e-01 -1.5646601357554846e-03  2.6385923450479014e+00 6.7440029055060258e-01 4.6428814165337060e-05  2.6035878275396591e+00 7.4065382788639789e-01 1.1566196966241902e-03  2.5685724015000670e+00 8.0797614864872058e-01 -2.1277707978963416e-03  2.5319851198391250e+00 8.8326076179469493e-01 3.0449078185208769e-03  2.4951427134042365e+00 9.5064942451522938e-01 -3.8669135498751762e-03  2.4585704043506333e+00 1.0275073643439918e+00 4.3722319347907854e-03  2.4205437827880587e+00 1.1011790844637599e+00 -4.2622286106539170e-03  2.3831955874135358e+00 1.1798787220033478e+00 3.4910454611265119e-03  2.3450256503052707e+00 1.2493779272757981e+00 -2.5817986327339977e-03  2.3077439973192098e+00 1.3386850736621927e+00 2.6532763586282811e-03  2.2684778262821665e+00 1.4079843877738016e+00 -4.0908849294637728e-03  2.2320404448116307e+00 1.4883229575584662e+00 6.4087917672366011e-03  2.1930855237857672e+00 1.5713282632805436e+00 -8.6450844072190301e-03  2.1552871318734663e+00 1.6556118135790225e+00 1.0773506954258978e-02  2.1190417985447652e+00 1.7168682281135994e+00 -1.3084247639700937e-02  2.0794898121370773e+00 1.8227297638081652e+00 1.4886496922913738e-02  2.0455694802355233e+00 1.885995764216073