<?xml version="1.0"?>
<VTKFile type="UnstructuredGrid"  version="0.1"  >
<UnstructuredGrid>
<Piece  NumberOfPoints="8241" NumberOfCells="16000">
<Points>
<DataArray  type="Float64"  NumberOfComponents="3"  format="ascii">-5 -1 0  -4.95 -1 0  -4.9 -1 0  -4.85 -1 0  -4.8 -1 0  -4.75 -1 0  -4.7 -1 0  -4.65 -1 0  -4.6 -1 0  -4.55 -1 0  -4.5 -1 0  -4.45 -1 0  -4.4 -1 0  -4.35 -1 0  -4.3 -1 0  -4.25 -1 0  -4.2 -1 0  -4.15 -1 0  -4.1 -1 0  -4.05 -1 0  -4 -1 0  -3.95 -1 0  -3.9 -1 0  -3.85 -1 0  -3.8 -1 0  -3.75 -1 0  -3.7 -1 0  -3.65 -1 0  -3.6 -1 0  -3.55 -1 0  -3.5 -1 0  -3.45 -1 0  -3.4 -1 0  -3.35 -1 0  -3.3 -1 0  -3.25 -1 0  -3.2 -1 0  -3.15 -1 0  -3.1 -1 0  -3.05 -1 0  -3 -1 0  -2.95 -1 0  -2.9 -1 0  -2.85 -1 0  -2.8 -1 0  -2.75 -1 0  -2.7 -1 0  -2.65 -1 0  -2.6 -1 0  -2.55 -1 0  -2.5 -1 0  -2.45 -1 0  -2.4 -1 0  -2.35 -1 0  -2.3 -1 0  -2.25 -1 0  -2.2 -1 0  -2.15 -1 0  -2.1 -1 0  -2.05 -1 0  -2 -1 0  -1.95 -1 0  -1.9 -1 0  -1.85 -1 0  -1.8 -1 0  -1.75 -1 0  -1.7 -1 0  -1.65 -1 0  -1.6 -1 0  -1.55 -1 0  -1.5 -1 0  -1.45 -1 0  -1.4 -1 0  -1.35 -1 0  -1.3 -1 0  -1.25 -1 0  -1.2 -1 0  -1.15 -1 0  -1.1 -1 0  -1.05 -1 0  -1 -1 0  -0.9500000000000002 -1 0  -0.9000000000000004 -1 0  -0.8499999999999996 -1 0  -0.7999999999999998 -1 0  -0.75 -1 0  -0.7000000000000002 -1 0  -0.6500000000000004 -1 0  -0.5999999999999996 -1 0  -0.5499999999999998 -1 0  -0.5 -1 0  -0.4500000000000002 -1 0  -0.4000000000000004 -1 0  -0.3499999999999996 -1 0  -0.2999999999999998 -1 0  -0.25 -1 0  -0.2000000000000002 -1 0  -0.1500000000000004 -1 0  -0.09999999999999964 -1 0  -0.04999999999999982 -1 0  0 -1 0  0.04999999999999982 -1 0  0.09999999999999964 -1 0  0.1500000000000004 -1 0  0.2000000000000002 -1 0  0.25 -1 0  0.2999999999999998 -1 0  0.3499999999999996 -1 0  0.4000000000000004 -1 0  0.4500000000000002 -1 0  0.5 -1 0  0.5499999999999998 -1 0  0.5999999999999996 -1 0  0.6500000000000004 -1 0  0.7000000000000002 -1 0  0.75 -1 0  0.7999999999999998 -1 0  0.8499999999999996 -1 0  0.9000000000000004 -1 0  0.9500000000000002 -1 0  1 -1 0  1.05 -1 0  1.1 -1 0  1.15 -1 0  1.2 -1 0  1.25 -1 0  1.3 -1 0  1.35 -1 0  1.4 -1 0  1.45 -1 0  1.5 -1 0  1.55 -1 0  1.6 -1 0  1.65 -1 0  1.7 -1 0  1.75 -1 0  1.8 -1 0  1.85 -1 0  1.9 -1 0  1.95 -1 0  2 -1 0  2.05 -1 0  2.1 -1 0  2.15 -1 0  2.2 -1 0  2.25 -1 0  2.3 -1 0  2.35 -1 0  2.4 -1 0  2.45 -1 0  2.5 -1 0  2.55 -1 0  2.6 -1 0  2.65 -1 0  2.7 -1 0  2.75 -1 0  2.8 -1 0  2.85 -1 0  2.9 -1 0  2.95 -1 0  3 -1 0  3.050000000000001 -1 0  3.1 -1 0  3.15 -1 0  3.199999999999999 -1 0  3.25 -1 0  3.300000000000001 -1 0  3.35 -1 0  3.4 -1 0  3.449999999999999 -1 0  3.5 -1 0  3.550000000000001 -1 0  3.6 -1 0  3.65 -1 0  3.699999999999999 -1 0  3.75 -1 0  3.800000000000001 -1 0  3.85 -1 0  3.9 -1 0  3.949999999999999 -1 0  4 -1 0  4.050000000000001 -1 0  4.1 -1 0  4.15 -1 0  4.199999999999999 -1 0  4.25 -1 0  4.300000000000001 -1 0  4.35 -1 0  4.4 -1 0  4.449999999999999 -1 0  4.5 -1 0  4.550000000000001 -1 0  4.6 -1 0  4.65 -1 0  4.699999999999999 -1 0  4.75 -1 0  4.800000000000001 -1 0  4.85 -1 0  4.9 -1 0  4.949999999999999 -1 0  5 -1 0  -5 -0.95 0  -4.95 -0.95 0  -4.9 -0.95 0  -4.85 -0.95 0  -4.8 -0.95 0  -4.75 -0.95 0  -4.7 -0.95 0  -4.65 -0.95 0  -4.6 -0.95 0  -4.55 -0.95 0  -4.5 -0.95 0  -4.45 -0.95 0  -4.4 -0.95 0  -4.35 -0.95 0  -4.3 -0.95 0  -4.25 -0.95 0  -4.2 -0.95 0  -4.15 -0.95 0  -4.1 -0.95 0  -4.05 -0.95 0  -4 -0.95 0  -3.95 -0.95 0  -3.9 -0.95 0  -3.85 -0.95 0  -3.8 -0.95 0  -3.75 -0.95 0  -3.7 -0.95 0  -3.65 -0.95 0  -3.6 -0.95 0  -3.55 -0.95 0  -3.5 -0.95 0  -3.45 -0.95 0  -3.4 -0.95 0  -3.35 -0.95 0  -3.3 -0.95 0  -3.25 -0.95 0  -3.2 -0.95 0  -3.15 -0.95 0  -3.1 -0.95 0  -3.05 -0.95 0  -3 -0.95 0  -2.95 -0.95 0  -2.9 -0.95 0  -2.85 -0.95 0  -2.8 -0.95 0  -2.75 -0.95 0  -2.7 -0.95 0  -2.65 -0.95 0  -2.6 -0.95 0  -2.55 -0.95 0  -2.5 -0.95 0  -2.45 -0.95 0  -2.4 -0.95 0  -2.35 -0.95 0  -2.3 -0.95 0  -2.25 -0.95 0  -2.2 -0.95 0  -2.15 -0.95 0  -2.1 -0.95 0  -2.05 -0.95 0  -2 -0.95 0  -1.95 -0.95 0  -1.9 -0.95 0  -1.85 -0.95 0  -1.8 -0.95 0  -1.75 -0.95 0  -1.7 -0.95 0  -1.65 -0.95 0  -1.6 -0.95 0  -1.55 -0.95 0  -1.5 -0.95 0  -1.45 -0.95 0  -1.4 -0.95 0  -1.35 -0.95 0  -1.3 -0.95 0  -1.25 -0.95 0  -1.2 -0.95 0  -1.15 -0.95 0  -1.1 -0.95 0  -1.05 -0.95 0  -1 -0.95 0  -0.9500000000000002 -0.95 0  -0.9000000000000004 -0.95 0  -0.8499999999999996 -0.95 0  -0.7999999999999998 -0.95 0  -0.75 -0.95 0  -0.7000000000000002 -0.95 0  -0.6500000000000004 -0.95 0  -0.5999999999999996 -0.95 0  -0.5499999999999998 -0.95 0  -0.5 -0.95 0  -0.4500000000000002 -0.95 0  -0.4000000000000004 -0.95 0  -0.3499999999999996 -0.95 0  -0.2999999999999998 -0.95 0  -0.25 -0.95 0  -0.2000000000000002 -0.95 0  -0.1500000000000004 -0.95 0  -0.09999999999999964 -0.95 0  -0.04999999999999982 -0.95 0  0 -0.95 0  0.04999999999999982 -0.95 0  0.09999999999999964 -0.95 0  0.1500000000000004 -0.95 0  0.2000000000000002 -0.95 0  0.25 -0.95 0  0.2999999999999998 -0.95 0  0.3499999999999996 -0.95 0  0.4000000000000004 -0.95 0  0.4500000000000002 -0.95 0  0.5 -0.95 0  0.5499999999999998 -0.95 0  0.5999999999999996 -0.95 0  0.6500000000000004 -0.95 0  0.7000000000000002 -0.95 0  0.75 -0.95 0  0.7999999999999998 -0.95 0  0.8499999999999996 -0.95 0  0.9000000000000004 -0.95 0  0.9500000000000002 -0.95 0  1 -0.95 0  1.05 -0.95 0  1.1 -0.95 0  1.15 -0.95 0  1.2 -0.95 0  1.25 -0.95 0  1.3 -0.95 0  1.35 -0.95 0  1.4 -0.95 0  1.45 -0.95 0  1.5 -0.95 0  1.55 -0.95 0  1.6 -0.95 0  1.65 -0.95 0  1.7 -0.95 0  1.75 -0.95 0  1.8 -0.95 0  1.85 -0.95 0  1.9 -0.95 0  1.95 -0.95 0  2 -0.95 0  2.05 -0.95 0  2.1 -0.95 0  2.15 -0.95 0  2.2 -0.95 0  2.25 -0.95 0  2.3 -0.95 0  2.35 -0.95 0  2.4 -0.95 0  2.45 -0.95 0  2.5 -0.95 0  2.55 -0.95 0  2.6 -0.95 0  2.65 -0.95 0  2.7 -0.95 0  2.75 -0.95 0  2.8 -0.95 0  2.85 -0.95 0  2.9 -0.95 0  2.95 -0.95 0  3 -0.95 0  3.050000000000001 -0.95 0  3.1 -0.95 0  3.15 -0.95 0  3.199999999999999 -0.95 0  3.25 -0.95 0  3.300000000000001 -0.95 0  3.35 -0.95 0  3.4 -0.95 0  3.449999999999999 -0.95 0  3.5 -0.95 0  3.550000000000001 -0.95 0  3.6 -0.95 0  3.65 -0.95 0  3.699999999999999 -0.95 0  3.75 -0.95 0  3.800000000000001 -0.95 0  3.85 -0.95 0  3.9 -0.95 0  3.949999999999999 -0.95 0  4 -0.95 0  4.050000000000001 -0.95 0  4.1 -0.95 0  4.15 -0.95 0  4.199999999999999 -0.95 0  4.25 -0.95 0  4.300000000000001 -0.95 0  4.35 -0.95 0  4.4 -0.95 0  4.449999999999999 -0.95 0  4.5 -0.95 0  4.550000000000001 -0.95 0  4.6 -0.95 0  4.65 -0.95 0  4.699999999999999 -0.95 0  4.75 -0.95 0  4.800000000000001 -0.95 0  4.85 -0.95 0  4.9 -0.95 0  4.949999999999999 -0.95 0  5 -0.95 0  -5 -0.9 0  -4.95 -0.9 0  -4.9 -0.9 0  -4.85 -0.9 0  -4.8 -0.9 0  -4.75 -0.9 0  -4.7 -0.9 0  -4.65 -0.9 0  -4.6 -0.9 0  -4.55 -0.9 0  -4.5 -0.9 0  -4.45 -0.9 0  -4.4 -0.9 0  -4.35 -0.9 0  -4.3 -0.9 0  -4.25 -0.9 0  -4.2 -0.9 0  -4.15 -0.9 0  -4.1 -0.9 0  -4.05 -0.9 0  -4 -0.9 0  -3.95 -0.9 0  -3.9 -0.9 0  -3.85 -0.9 0  -3.8 -0.9 0  -3.75 -0.9 0  -3.7 -0.9 0  -3.65 -0.9 0  -3.6 -0.9 0  -3.55 -0.9 0  -3.5 -0.9 0  -3.45 -0.9 0  -3.4 -0.9 0  -3.35 -0.9 0  -3.3 -0.9 0  -3.25 -0.9 0  -3.2 -0.9 0  -3.15 -0.9 0  -3.1 -0.9 0  -3.05 -0.9 0  -3 -0.9 0  -2.95 -0.9 0  -2.9 -0.9 0  -2.85 -0.9 0  -2.8 -0.9 0  -2.75 -0.9 0  -2.7 -0.9 0  -2.65 -0.9 0  -2.6 -0.9 0  -2.55 -0.9 0  -2.5 -0.9 0  -2.45 -0.9 0  -2.4 -0.9 0  -2.35 -0.9 0  -2.3 -0.9 0  -2.25 -0.9 0  -2.2 -0.9 0  -2.15 -0.9 0  -2.1 -0.9 0  -2.05 -0.9 0  -2 -0.9 0  -1.95 -0.9 0  -1.9 -0.9 0  -1.85 -0.9 0  -1.8 -0.9 0  -1.75 -0.9 0  -1.7 -0.9 0  -1.65 -0.9 0  -1.6 -0.9 0  -1.55 -0.9 0  -1.5 -0.9 0  -1.45 -0.9 0  -1.4 -0.9 0  -1.35 -0.9 0  -1.3 -0.9 0  -1.25 -0.9 0  -1.2 -0.9 0  -1.15 -0.9 0  -1.1 -0.9 0  -1.05 -0.9 0  -1 -0.9 0  -0.9500000000000002 -0.9 0  -0.9000000000000004 -0.9 0  -0.8499999999999996 -0.9 0  -0.7999999999999998 -0.9 0  -0.75 -0.9 0  -0.7000000000000002 -0.9 0  -0.6500000000000004 -0.9 0  -0.5999999999999996 -0.9 0  -0.5499999999999998 -0.9 0  -0.5 -0.9 0  -0.4500000000000002 -0.9 0  -0.4000000000000004 -0.9 0  -0.3499999999999996 -0.9 0  -0.2999999999999998 -0.9 0  -0.25 -0.9 0  -0.2000000000000002 -0.9 0  -0.1500000000000004 -0.9 0  -0.09999999999999964 -0.9 0  -0.04999999999999982 -0.9 0  0 -0.9 0  0.04999999999999982 -0.9 0  0.09999999999999964 -0.9 0  0.1500000000000004 -0.9 0  0.2000000000000002 -0.9 0  0.25 -0.9 0  0.2999999999999998 -0.9 0  0.3499999999999996 -0.9 0  0.4000000000000004 -0.9 0  0.4500000000000002 -0.9 0  0.5 -0.9 0  0.5499999999999998 -0.9 0  0.5999999999999996 -0.9 0  0.6500000000000004 -0.9 0  0.7000000000000002 -0.9 0  0.75 -0.9 0  0.7999999999999998 -0.9 0  0.8499999999999996 -0.9 0  0.9000000000000004 -0.9 0  0.9500000000000002 -0.9 0  1 -0.9 0  1.05 -0.9 0  1.1 -0.9 0  1.15 -0.9 0  1.2 -0.9 0  1.25 -0.9 0  1.3 -0.9 0  1.35 -0.9 0  1.4 -0.9 0  1.45 -0.9 0  1.5 -0.9 0  1.55 -0.9 0  1.6 -0.9 0  1.65 -0.9 0  1.7 -0.9 0  1.75 -0.9 0  1.8 -0.9 0  1.85 -0.9 0  1.9 -0.9 0  1.95 -0.9 0  2 -0.9 0  2.05 -0.9 0  2.1 -0.9 0  2.15 -0.9 0  2.2 -0.9 0  2.25 -0.9 0  2.3 -0.9 0  2.35 -0.9 0  2.4 -0.9 0  2.45 -0.9 0  2.5 -0.9 0  2.55 -0.9 0  2.6 -0.9 0  2.65 -0.9 0  2.7 -0.9 0  2.75 -0.9 0  2.8 -0.9 0  2.85 -0.9 0  2.9 -0.9 0  2.95 -0.9 0  3 -0.9 0  3.050000000000001 -0.9 0  3.1 -0.9 0  3.15 -0.9 0  3.199999999999999 -0.9 0  3.25 -0.9 0  3.300000000000001 -0.9 0  3.35 -0.9 0  3.4 -0.9 0  3.449999999999999 -0.9 0  3.5 -0.9 0  3.550000000000001 -0.9 0  3.6 -0.9 0  3.65 -0.9 0  3.699999999999999 -0.9 0  3.75 -0.9 0  3.800000000000001 -0.9 0  3.85 -0.9 0  3.9 -0.9 0  3.949999999999999 -0.9 0  4 -0.9 0  4.050000000000001 -0.9 0  4.1 -0.9 0  4.15 -0.9 0  4.199999999999999 -0.9 0  4.25 -0.9 0  4.300000000000001 -0.9 0  4.35 -0.9 0  4.4 -0.9 0  4.449999999999999 -0.9 0  4.5 -0.9 0  4.550000000000001 -0.9 0  4.6 -0.9 0  4.65 -0.9 0  4.699999999999999 -0.9 0  4.75 -0.9 0  4.800000000000001 -0.9 0  4.85 -0.9 0  4.9 -0.9 0  4.949999999999999 -0.9 0  5 -0.9 0  -5 -0.85 0  -4.95 -0.85 0  -4.9 -0.85 0  -4.85 -0.85 0  -4.8 -0.85 0  -4.75 -0.85 0  -4.7 -0.85 0  -4.65 -0.85 0  -4.6 -0.85 0  -4.55 -0.85 0  -4.5 -0.85 0  -
[...]
<PointData  Vectors="f_15"> 
<DataArray  type="Float64"  Name="f_15"  NumberOfComponents="3" format="ascii">2.9870212165225047e+00 0.0000000000000000e+00 0.0000000000000000e+00  3.0018797938721438e+00 1.6390312555128746e-02 0.0000000000000000e+00  2.9856357036085845e+00 -3.0462805674368040e-02 0.0000000000000000e+00  3.0025099848753429e+00 1.0386545121716054e-02 0.0000000000000000e+00  2.9846939954362921e+00 -2.0497584489538336e-02 0.0000000000000000e+00  3.0015340674458262e+00 2.1748291275469427e-03 0.0000000000000000e+00  2.9841520928463390e+00 -1.1658976539272925e-02 0.0000000000000000e+00  2.9999569862799880e+00 1.3957628939921818e-03 0.0000000000000000e+00  2.9821345713275504e+00 -5.0818563791995893e-03 0.0000000000000000e+00  2.9981097710981679e+00 4.5604129341329149e-03 0.0000000000000000e+00  2.9788864182551613e+00 4.6476527077581823e-03 0.0000000000000000e+00  2.9938859035107717e+00 1.0632346773384559e-02 0.0000000000000000e+00  2.9746321584566076e+00 1.8096582264793559e-02 0.0000000000000000e+00  2.9872835249775229e+00 2.1921726393473537e-02 0.0000000000000000e+00  2.9670689042074985e+00 3.6172586294057847e-02 0.0000000000000000e+00  2.9785414047032432e+00 3.8766288350924973e-02 0.0000000000000000e+00  2.9562227124332789e+00 6.0708508143342790e-02 0.0000000000000000e+00  2.9654324389335960e+00 6.2009589889686911e-02 0.0000000000000000e+00  2.9425495561718114e+00 9.1813960343761228e-02 0.0000000000000000e+00  2.9483011187292254e+00 9.2514133505432319e-02 0.0000000000000000e+00  2.9241028088054732e+00 1.3027092510184302e-01 0.0000000000000000e+00  2.9279761364459964e+00 1.2960950612748837e-01 0.0000000000000000e+00  2.9016375996568597e+00 1.7638209559105628e-01 0.0000000000000000e+00  2.9028470337071215e+00 1.7371771620384729e-01 0.0000000000000000e+00  2.8763239339603621e+00 2.2879810342236576e-01 0.0000000000000000e+00  2.8739846491225118e+00 2.2466121055625263e-01 0.0000000000000000e+00  2.8467691420372856e+00 2.8776928302953164e-01 0.0000000000000000e+00  2.8427612623635370e+00 2.8055192344245100e-01 0.0000000000000000e+00  2.8141762868605600e+00 3.5305288855151123e-01 0.0000000000000000e+00  2.8078822341456497e+00 3.4162034438504180e-01 0.0000000000000000e+00  2.7799585506733826e+00 4.2237681673943989e-01 0.0000000000000000e+00  2.7705690136345562e+00 4.0784974249037753e-01 0.0000000000000000e+00  2.7428021367600031e+00 4.9602666914155108e-01 0.0000000000000000e+00  2.7322255660962931e+00 4.7659058817038791e-01 0.0000000000000000e+00  2.7038083823602452e+00 5.7463942427826731e-01 0.0000000000000000e+00  2.6915903029223296e+00 5.4805254941265102e-01 0.0000000000000000e+00  2.6642301256840990e+00 6.5496932391320650e-01 0.0000000000000000e+00  2.6497346077415767e+00 6.2487642177751501e-01 0.0000000000000000e+00  2.6227192762008174e+00 7.3470556647690977e-01 0.0000000000000000e+00  2.6079539255066377e+00 7.0687300324353863e-01 0.0000000000000000e+00  2.5800080217764130e+00 8.1323967507577677e-01 0.0000000000000000e+00  2.5651598324754166e+00 7.9574785322020525e-01 0.0000000000000000e+00  2.5371682098726236e+00 8.8589689853937392e-01 0.0000000000000000e+00  2.5219181000787922e+00 8.9558933543276842e-01 0.0000000000000000e+00  2.4933546067802639e+00 9.5195769236031424e-01 0.0000000000000000e+00  2.4789995062661832e+00 1.0007765554227783e+00 0.0000000000000000e+00  2.4490723878831915e+00 1.0208031224759844e+00 0.0000000000000000e+00  2.4355627353497238e+00 1.1027798886570357e+00 0.0000000000000000e+00  2.4051065210321245e+00 1.0961046975239432e+00 0.0000000000000000e+00  2.3917914048735818e+00 1.2016710647791682e+00 0.0000000000000000e+00  2.3609754500306859e+00 1.1782285531459586e+00 0.0000000000000000e+00  2.3482783430271690e+00 1.2914318710399963e+00 0.0000000000000000e+00  2.3167298375794680e+00 1.2752670815756673e+00 0.0000000000000000e+00  2.3047593423893700e+00 1.3694199978588901e+00 0.0000000000000000e+00  2.2726969669167323e+00 1.3759464986063303e+00 0.0000000000000000e+00  2.2613819962789190e+00 1.4567521961629293e+00 0.0000000000000000e+00  2.2285145163484539e+00 1.4640931682607006e+00 0.0000000000000000e+00  2.2186107688840848e+00 1.5488447430700603e+00 0.0000000000000000e+00  2.1842990425899997e+00 1.5614291060378447e+00 0.0000000000000000e+00  2.1760297034340570e+00 1.6302890052026451e+00 0.0000000000000000e+00  2.1406958604635866e+00 1.6576063347391645e+00 0.0000000000000000e+00  2.1334808156133929e+00 1.7260465581445292e+00 0.0000000000000000e+00  2.0977238256716251e+00 1.7445893594063189e+00 0.0000000000000000e+00  2.0909796559641101e+00 1.8148987579963372e+00 0.0000000000000000e+00  2.0556425813039558e+00 1.8448730471258632e+00 0.0000000000000000e+00  2.0486564707770554e+00 1.9009136768345445e+00 0.0000000000000000e+00  2.0142192648417701e+00 1.9365269573680663e+00 0.0000000000000000e+00  2.0071581302027592e+00 1.9925530171290564e+00 0.0000000000000000e+00  1.9737879532960765e+00 2.0269766785903820e+00 0.0000000000000000e+00  1.9662149030388987e+00 2.0823741348717317e+00 0.0000000000000000e+00  1.9352554099229367e+00 2.1165556962264551e+00 0.0000000000000000e+00  1.9264253539537857e+00 2.1654758378511207e+00 0.0000000000000000e+00  1.8991454390990026e+00 2.2023485731602910e+00 0.0000000000000000e+00  1.8903615158100586e+00 2.2478492013366749e+00 0.0000000000000000e+00  1.8681480692708237e+00 2.2723370954705504e+00 0.0000000000000000e+00  1.8611813781547817e+00 2.3116376749693455e+00 0.0000000000000000e+00  1.8480298085230122e+00 2.3223662636228974e+00 0.0000000000000000e+00  1.8447970420036046e+00 2.3463188277498901e+00 0.0000000000000000e+00  1.8420324178724006e+00 2.3386598814669846e+00 0.0000000000000000e+00  1.8426232866774288e+00 2.3502274433241617e+00 0.0000000000000000e+00  1.8443428519196843e+00 2.3328371235437326e+00 0.0000000000000000e+00  1.8428741423797244e+00 2.3484070062607052e+00 0.0000000000000000e+00  1.8469417396911900e+00 2.3305049656254568e+00 0.0000000000000000e+00  1.8428250989062644e+00 2.3455468480745991e+00 0.0000000000000000e+00  1.8484230731739628e+00 2.3280914316735823e+00 0.0000000000000000e+00  1.8434973364677198e+00 2.3427036307620819e+00 0.0000000000000000e+00  1.8495865704505863e+00 2.3273248984075492e+00 0.0000000000000000e+00  1.8421349752642500e+00 2.3429546752022081e+00 0.0000000000000000e+00  1.8518102898208970e+00 2.3259466800717035e+00 0.0000000000000000e+00  1.8409853476534646e+00 2.3423394275481813e+00 0.0000000000000000e+00  1.8532986642166092e+00 2.3230998248004906e+00 0.0000000000000000e+00  1.8415863280499545e+00 2.3420879823640690e+00 0.0000000000000000e+00  1.8528719297219103e+00 2.3230679088975590e+00 0.0000000000000000e+00  1.8419615807568608e+00 2.3412408758701577e+00 0.0000000000000000e+00  1.8531408727783285e+00 2.3231554089197854e+00 0.0000000000000000e+00  1.8419785057094118e+00 2.3391859270496216e+00 0.0000000000000000e+00  1.8538113503995104e+00 2.3239001339529888e+00 0.0000000000000000e+00  1.8407811546397421e+00 2.3390155569608280e+00 0.0000000000000000e+00  1.8560388181609278e+00 2.3219464286877054e+00 0.0000000000000000e+00  1.8382676418529884e+00 2.3412858277452102e+00 0.0000000000000000e+00  1.8588943274874494e+00 2.3170812905708065e+00 0.0000000000000000e+00  1.8354683997134076e+00 2.3478547443353444e+00 0.0000000000000000e+00  1.8606099432276981e+00 2.3095822402663644e+00 0.0000000000000000e+00  1.8362057066027915e+00 2.3523120960200123e+00 0.0000000000000000e+00  1.8577838209843318e+00 2.3066404784589873e+00 0.0000000000000000e+00  1.8406524450011452e+00 2.3526020365246447e+00 0.0000000000000000e+00  1.8517203173415846e+00 2.3087271958608913e+00 0.0000000000000000e+00  1.8477251071763436e+00 2.3464488986492462e+00 0.0000000000000000e+00  1.8454085589855542e+00 2.3148979384202018e+00 0.0000000000000000e+00  1.8528624796628668e+00 2.3400243687729194e+00 0.0000000000000000e+00  1.8402071776245565e+00 2.3233766231163822e+00 0.0000000000000000e+00  1.8580259632707732e+00 2.3291128919850683e+00 0.0000000000000000e+00  1.8369638028806712e+00 2.3323660589011594e+00 0.0000000000000000e+00  1.8581834818481129e+00 2.3244207138507034e+00 0.0000000000000000e+00  1.8386696963838207e+00 2.3345994999586432e+00 0.0000000000000000e+00  1.8561690527664596e+00 2.3221289718733416e+00 0.0000000000000000e+00  1.8405349528041659e+00 2.3365174660110792e+00 0.0000000000000000e+00  1.8541653520974146e+00 2.3212198559484780e+00 0.0000000000000000e+00  1.8428047004016799e+00 2.3361826021190955e+00 0.0000000000000000e+00  1.8515696966959558e+00 2.3220477420827677e+00 0.0000000000000000e+00  1.8454420335240564e+00 2.3340294895950664e+00 0.0000000000000000e+00  1.8492360152093279e+00 2.3238594937120824e+00 0.0000000000000000e+00  1.8472178543036193e+00 2.3315748139943975e+00 0.0000000000000000e+00  1.8476032864725398e+00 2.3262868069493057e+00 0.0000000000000000e+00  1.8487111712508622e+00 2.3286435552175133e+00 0.0000000000000000e+00  1.8465259023698484e+00 2.3284298154605012e+00 0.0000000000000000e+00  1.8491395170320588e+00 2.3261083667758125e+00 0.0000000000000000e+00  1.8459930490946079e+00 2.3276592108848799e+00 0.0000000000000000e+00  1.8500633386884364e+00 2.3199801238769706e+00 0.0000000000000000e+00  1.8451764746875832e+00 2.3243201234316597e+00 0.0000000000000000e+00  1.8498277213988725e+00 2.3133961317662868e+00 0.0000000000000000e+00  1.8459840722583278e+00 2.3171788765134771e+00 0.0000000000000000e+00  1.8493544123128407e+00 2.3083678237435858e+00 0.0000000000000000e+00  1.8456903649433662e+00 2.3137724031405917e+00 0.0000000000000000e+00  1.8495111168952998e+00 2.3074495439250873e+00 0.0000000000000000e+00  1.8460076031397672e+00 2.3130846606868984e+00 0.0000000000000000e+00  1.8490697067582302e+00 2.3111674611450583e+00 0.0000000000000000e+00  1.8458337203455071e+00 2.3170355996085608e+00 0.0000000000000000e+00  1.8495031903890264e+00 2.3154619879276725e+00 0.0000000000000000e+00  1.8456475588386716e+00 2.3193928419715610e+00 0.0000000000000000e+00  1.8493525228729870e+00 2.3220749434504828e+00 0.0000000000000000e+00  1.8454546445463702e+00 2.3206227506201271e+00 0.0000000000000000e+00  1.8501651304604061e+00 2.3242761168753119e+00 0.0000000000000000e+00  1.8443807826808212e+00 2.3230350468342529e+00 0.0000000000000000e+00  1.8512590792177557e+00 2.3260461536142989e+00 0.0000000000000000e+00  1.8431084936494946e+00 2.3230837707862122e+00 0.0000000000000000e+00  1.8531721154256382e+00 2.3265765828617484e+00 0.0000000000000000e+00  1.8412665417058989e+00 2.3244809034076992e+00 0.0000000000000000e+00  1.8541386611298467e+00 2.3274327618902357e+00 0.0000000000000000e+00  1.8414655090751761e+00 2.3208413137251740e+00 0.0000000000000000e+00  1.8542601526949083e+00 2.3309395113714495e+00 0.0000000000000000e+00  1.8394882467958833e+00 2.3199764335002406e+00 0.0000000000000000e+00  1.8578632417756393e+00 2.3253481693418392e+00 0.0000000000000000e+00  1.8362655694398933e+00 2.3236417348501259e+00 0.0000000000000000e+00  1.8582051048765151e+00 2.3242997993629984e+00 0.0000000000000000e+00  1.8384074844384579e+00 2.3153224594164161e+00 0.0000000000000000e+00  1.8554874883826031e+00 2.3316508797198763e+00 0.0000000000000000e+00  1.8387117895974552e+00 2.3091557848636204e+00 0.0000000000000000e+00  1.8573502038692224e+00 2.3292950199041855e+00 0.0000000000000000e+00  1.8363436275030838e+00 2.3108376019988488e+00 0.0000000000000000e+00  1.8573196929402158e+00 2.3292645641006269e+00 0.0000000000000000e+00  1.8391277776232826e+00 2.3012855457445354e+00 0.0000000000000000e+00  1.8532175010456324e+00 2.3409469167772285e+00 0.0000000000000000e+00  1.8421269926938351e+00 2.2883576699595811e+00 0.0000000000000000e+00  1.8526676220593072e+00 2.3464896015788104e+00 0.0000000000000000e+00  1.8408873722074386e+00 2.2843236484838809e+00 0.0000000000000000e+00  1.8540720449196295e+00 2.3471551781902606e+00 0.0000000000000000e+00  1.8400597715571454e+00 2.2757521007871775e+00 0.0000000000000000e+00  1.8524067810726492e+00 2.3527827510632164e+00 0.0000000000000000e+00  1.8367081186868830e+00 2.2534961937036142e+00 0.0000000000000000e+00  1.8431875318362292e+00 2.3344593889820460e+00 0.0000000000000000e+00  1.7999710740948547e+00 2.1726229141079929e+00 0.0000000000000000e+00  1.7708335905234354e+00 2.1483914355029539e+00 0.0000000000000000e+00  1.6292403816218646e+00 1.7719060866521876e+00 0.0000000000000000e+00  1.3913431767115469e+00 1.1369332227711999e+00 0.0000000000000000e+00  1.0819598294088977e+00 2.1494340726765285e-01 0.0000000000000000e+00  1.0460935544982957e+00 1.6102963949964091e-01 0.0000000000000000e+00  9.8511201285444294e-01 -1.5274631713453851e-01 0.0000000000000000e+00  1.0294940700590471e+00 1.2996679628003993e-01 0.0000000000000000e+00  9.8639916263849192e-01 -1.8618979155681853e-01 0.0000000000000000e+00  1.0310432242835901e+00 1.4302358901808312e-01 0.0000000000000000e+00  9.8949366484466383e-01 -2.0715297232151217e-01 0.0000000000000000e+00  1.0358304505037061e+00 1.4612336584266614e-01 0.0000000000000000e+00  9.8939118094857381e-01 -2.1433542127259458e-01 0.0000000000000000e+00  1.0434122159088333e+00 1.3641774280173649e-01 0.0000000000000000e+00  9.8929859139093179e-01 -2.1569882016383429e-01 0.0000000000000000e+00  1.0496196546041501e+00 1.2547400901365405e-01 0.0000000000000000e+00  9.8976596439704612e-01 -2.1326449487528223e-01 0.0000000000000000e+00  1.0560058983660670e+00 1.0808113066669851e-01 0.0000000000000000e+00  9.8849583404223462e-01 -1.9920354759632306e-01 0.0000000000000000e+00  1.0612364092636124e+00 8.5295402668563655e-02 0.0000000000000000e+00  9.8821290670773743e-01 -1.8192699674556120e-01 0.0000000000000000e+00  1.0622941986515653e+00 6.7687807643586367e-02 0.0000000000000000e+00  9.8862884400703255e-01 -1.6336262991555095e-01 0.0000000000000000e+00  1.0613960146210040e+00 5.0006784350871109e-02 0.0000000000000000e+00  9.8718944166846723e-01 -1.3839730832629310e-01 0.0000000000000000e+00  1.0601192019935242e+00 3.1377449814338973e-02 0.0000000000000000e+00  9.8486441052249651e-01 -1.1456468398064758e-01 0.0000000000000000e+00  1.0578905382719683e+00 1.2764796083082787e-02 0.0000000000000000e+00  9.8307174452374346e-01 -8.9884210790293240e-02 0.0000000000000000e+00  1.0562623192214460e+00 0.0000000000000000e+00 0.0000000000000000e+00  3.0057545190980033e+00 0.0000000000000000e+00 -2.6830612982333399e-02  3.0036663512173605e+00 2.3760197208990397e-03 8.3492383540332872e-03  3.0057926688291250e+00 1.3908473852337200e-02 3.5457275069495065e-03  3.0039221610960234e+00 1.3238298783629520e-02 2.6990357626904582e-04  3.0046775378932935e+00 6.6579258833279137e-03 -1.6740175622133660e-03  3.0039390642025130e+00 1.7402159933517691e-02 2.5732981544195530e-03  3.0032117687921516e+00 9.8448099568407711e-03 -2.4976305441360229e-03  3.0021618793287463e+00 1.7209121959139463e-02 2.1772154112027408e-03  3.0014556064920805e+00 1.4722398825081421e-02 -1.6866106248173344e-03  2.9990122585123666e+00 2.0805178247272810e-02 1.2073159401387089e-03  2.9973473806895132e+00 2.0405551892453331e-02 -7.3531075226403273e-04  2.9947423341491435e+00 2.7558764559929862e-02 3.0234814076051183e-04  2.9909586490663957e+00 3.0195068455522989e-02 2.2886947177664876e-04  2.9871703702486010e+00 3.7938541838399495e-02 -6.8354989644431471e-04  2.9825713417438098e+00 4.4568134813006019e-02 1.2742595891014326e-03  2.9763876753452356e+00 5.4115835786862437e-02 -1.7105716098178726e-03  2.9700288828372603e+00 6.4621788170468403e-02 2.2310223604308315e-03  2.9628819590295556e+00 7.6551426474912310e-02 -2.5582401282485071e-03  2.9536692306965402e+00 9.1719794127932672e-02 2.9770520389626439e-03  2.9447229886642741e+00 1.0627990046822816e-01 -3.2107399995008759e-03  2.9342980585824323e+00 1.2566420571349940e-01 3.5333914576573494e-03  2.9226109161682809e+00 1.4387390335064404e-01 -3.6299314771899346e-03  2.9102742273052025e+00 1.6705709560610968e-01 3.7220670817778032e-03  2.8976613623893193e+00 1.8842818452184235e-01 -3.5675343426962674e-03  2.8826119777977284e+00 2.1575700405326995e-01 3.3739727727656798e-03  2.8684436294413636e+00 2.4033261008009985e-01 -2.9613396668561926e-03  2.8526454476933267e+00 2.7009368642338522e-01 2.4836574948252877e-03  2.8361286694861687e+00 2.9926019305116314e-01 -1.7414379494660596e-03  2.8190583177426038e+00 3.3022310701597835e-01 8.4425818986614090e-04  2.8021188371950561e+00 3.6323642662250888e-01 3.3991412536443175e-04  2.7830694368392965e+00 3.9578288687432206e-01 -1.6828079825390067e-03  2.7650887323183264e+00 4.3255837017824655e-01 3.2583894436210336e-03  2.7460906083812491e+00 4.6441410480464951e-01 -5.0213802085111552e-03  2.7261520646294843e+00 5.0734345695070238e-01 7.1637942214298287e-03  2.7068233973587499e+00 5.3627487069306734e-01 -9.7157786602075479e-03  2.6865784868847835e+00 5.8509005208481046e-01 1.2912049493190579e-02  2.6663271519247975e+00 6.1218092895185106e-01 -1.6682545278797190e-02  2.6449928437337298e+00 6.6551180796877374e-01 2.1183595245848737e-02  2.6258471453611376e+00 6.8982583514821116e-01 -2.6285173243126399e-02  2.6022216301876928e+00 7.5004188273468675e-01 3.2200649975375535e-02  2.5841293423256921e+00 7.6839682740607651e-01 -3.8430159474051491e-02  2.5594213405324235e+00 8.3654358917383076e-01 4.5119149701943022e-02  2.5417260855530546e+00 8.4982893909094237e-01 -5.1046372972643250e-02  2.5156974870737909e+00 9.2387865035316430e-01 5.6367284598037401e-02  2.4994030956835833e+00 9.3165437191735101e-01 -5.9612036649193081e-02  2.4716865723400741e+00 1.0151257912663110e+00 6.1351047482282338e-02  2.4561711502841854e+00 1.0125251372439672e+00 -6.0578552835682413e-02  2.4282242242084817e+00 1.1064400881802550e+00 5.8166013715324656e-02  2.4122852149107823e+00 1.0990777067730606e+00 -5.4375982440450520e-02  2.3845916237375406e+00 1.1934254727678630e+00 4.9957423705505169e-02  2.3685176665444545e+00 1.1888890815749262e+00 -4.6079883394012984e-02  2.3406723086471066e+00 1.2840486047555479e+00 4.3127690054268961e-02  2.3247488354362114e+00 1.2752262681219275e+00 -4.1986099362766538e-02  2.2967434707028387e+00 1.3763191084175321e+00 4.2416915030659738e-02  2.2811829220764297e+00 1.3674812606473594e+00 -4.3598398037807268e-02  2.2526632165589171e+00 1.4621478216922865e+00 4.4410472591004099e-02  2.2379619027824296e+00 1.4613696824446039e+00 -4.2932070754808975e-02  2.2088917996504498e+00 1.5559278198871787e+00 3.9922559491104917e-02  2.1944985462403608e+00 1.5473917104695381e+00 -3.5436458112781108e-02  2.1659675021704103e+00 1.6470736536388402e+00 3.1358160974438068e-02  2.1509597784552361e+00 1.6489542857632897e+00 -2.7545438773805102e-02  2.1235188973140913e+00 1.7256204341376176e+00 2.4366492838190309e-02  2.1079097248741490e+00 1.7456807176172233e+00 -2.2465920474333986e-02  2.0813771492623707e+00 1.8217355665526458e+00 2.1792311203297835e-02  2.0654941884040832e+00 1.8321123380874647e+00 -2.1613904345253416e-02  2.0395107922515043e+00 1.9114936515292980e+00 1.9993467715786847e-02  2.0238674160970329e+00 1.9287311821800861e+00 -1.7746331837404067e-02  1.9982521862051965e+00 1.9989879045738936e+00 1.5606652133700506e-02  1.9827765632227570e+00 2.0206473289100648e+00 -1.4454341685555388e-02  1.9582570953263361e+00 2.0877374930426607e+00 1.2795555702159223e-02  1.9428545576357750e+00 2.1086482139856058e+00 -1.1251990697194682e-02  1.9198956279054653e+00 2.1750727940309393e+00 9.9628810863989104e-03  1.9057658966565008e+00 2.1952358060508139e+00 -8.8117321206329976e-03  1.8848117499337280e+00 2.2494921170556470e+00 7.0754946722063807e-03  1.8732043952746196e+00 2.2710248756909617e+00 -5.7847066633508965e-03  1.8573481123937623e+00 2.3141958853245810e+00 5.2155092193428452e-03  1.8507517683172421e+00 2.3218391508394824e+00 -4.6710224936116866e-03  1.8427507163530137e+00 2.3465931703317517e+00 4.0719404427890906e-03  1.8441784047790708e+00 2.3383765246592616e+00 -3.8094787443314734e-03  1.8412392940936435e+00 2.3481819789590759e+00 3.8143880012082841e-03  1.8449727745735127e+00 2.3377779499480726e+00 -3.5690284034374424e-03  1.8432981342768704e+00 2.3446540434702574e+00 3.4082544440740018e-03  1.8456257829443596e+00 2.33