<?xml version="1.0"?>
<VTKFile type="UnstructuredGrid"  version="0.1"  >
<UnstructuredGrid>
<Piece  NumberOfPoints="8241" NumberOfCells="16000">
<Points>
<DataArray  type="Float64"  NumberOfComponents="3"  format="ascii">-5 -1 0  -4.95 -1 0  -4.9 -1 0  -4.85 -1 0  -4.8 -1 0  -4.75 -1 0  -4.7 -1 0  -4.65 -1 0  -4.6 -1 0  -4.55 -1 0  -4.5 -1 0  -4.45 -1 0  -4.4 -1 0  -4.35 -1 0  -4.3 -1 0  -4.25 -1 0  -4.2 -1 0  -4.15 -1 0  -4.1 -1 0  -4.05 -1 0  -4 -1 0  -3.95 -1 0  -3.9 -1 0  -3.85 -1 0  -3.8 -1 0  -3.75 -1 0  -3.7 -1 0  -3.65 -1 0  -3.6 -1 0  -3.55 -1 0  -3.5 -1 0  -3.45 -1 0  -3.4 -1 0  -3.35 -1 0  -3.3 -1 0  -3.25 -1 0  -3.2 -1 0  -3.15 -1 0  -3.1 -1 0  -3.05 -1 0  -3 -1 0  -2.95 -1 0  -2.9 -1 0  -2.85 -1 0  -2.8 -1 0  -2.75 -1 0  -2.7 -1 0  -2.65 -1 0  -2.6 -1 0  -2.55 -1 0  -2.5 -1 0  -2.45 -1 0  -2.4 -1 0  -2.35 -1 0  -2.3 -1 0  -2.25 -1 0  -2.2 -1 0  -2.15 -1 0  -2.1 -1 0  -2.05 -1 0  -2 -1 0  -1.95 -1 0  -1.9 -1 0  -1.85 -1 0  -1.8 -1 0  -1.75 -1 0  -1.7 -1 0  -1.65 -1 0  -1.6 -1 0  -1.55 -1 0  -1.5 -1 0  -1.45 -1 0  -1.4 -1 0  -1.35 -1 0  -1.3 -1 0  -1.25 -1 0  -1.2 -1 0  -1.15 -1 0  -1.1 -1 0  -1.05 -1 0  -1 -1 0  -0.9500000000000002 -1 0  -0.9000000000000004 -1 0  -0.8499999999999996 -1 0  -0.7999999999999998 -1 0  -0.75 -1 0  -0.7000000000000002 -1 0  -0.6500000000000004 -1 0  -0.5999999999999996 -1 0  -0.5499999999999998 -1 0  -0.5 -1 0  -0.4500000000000002 -1 0  -0.4000000000000004 -1 0  -0.3499999999999996 -1 0  -0.2999999999999998 -1 0  -0.25 -1 0  -0.2000000000000002 -1 0  -0.1500000000000004 -1 0  -0.09999999999999964 -1 0  -0.04999999999999982 -1 0  0 -1 0  0.04999999999999982 -1 0  0.09999999999999964 -1 0  0.1500000000000004 -1 0  0.2000000000000002 -1 0  0.25 -1 0  0.2999999999999998 -1 0  0.3499999999999996 -1 0  0.4000000000000004 -1 0  0.4500000000000002 -1 0  0.5 -1 0  0.5499999999999998 -1 0  0.5999999999999996 -1 0  0.6500000000000004 -1 0  0.7000000000000002 -1 0  0.75 -1 0  0.7999999999999998 -1 0  0.8499999999999996 -1 0  0.9000000000000004 -1 0  0.9500000000000002 -1 0  1 -1 0  1.05 -1 0  1.1 -1 0  1.15 -1 0  1.2 -1 0  1.25 -1 0  1.3 -1 0  1.35 -1 0  1.4 -1 0  1.45 -1 0  1.5 -1 0  1.55 -1 0  1.6 -1 0  1.65 -1 0  1.7 -1 0  1.75 -1 0  1.8 -1 0  1.85 -1 0  1.9 -1 0  1.95 -1 0  2 -1 0  2.05 -1 0  2.1 -1 0  2.15 -1 0  2.2 -1 0  2.25 -1 0  2.3 -1 0  2.35 -1 0  2.4 -1 0  2.45 -1 0  2.5 -1 0  2.55 -1 0  2.6 -1 0  2.65 -1 0  2.7 -1 0  2.75 -1 0  2.8 -1 0  2.85 -1 0  2.9 -1 0  2.95 -1 0  3 -1 0  3.050000000000001 -1 0  3.1 -1 0  3.15 -1 0  3.199999999999999 -1 0  3.25 -1 0  3.300000000000001 -1 0  3.35 -1 0  3.4 -1 0  3.449999999999999 -1 0  3.5 -1 0  3.550000000000001 -1 0  3.6 -1 0  3.65 -1 0  3.699999999999999 -1 0  3.75 -1 0  3.800000000000001 -1 0  3.85 -1 0  3.9 -1 0  3.949999999999999 -1 0  4 -1 0  4.050000000000001 -1 0  4.1 -1 0  4.15 -1 0  4.199999999999999 -1 0  4.25 -1 0  4.300000000000001 -1 0  4.35 -1 0  4.4 -1 0  4.449999999999999 -1 0  4.5 -1 0  4.550000000000001 -1 0  4.6 -1 0  4.65 -1 0  4.699999999999999 -1 0  4.75 -1 0  4.800000000000001 -1 0  4.85 -1 0  4.9 -1 0  4.949999999999999 -1 0  5 -1 0  -5 -0.95 0  -4.95 -0.95 0  -4.9 -0.95 0  -4.85 -0.95 0  -4.8 -0.95 0  -4.75 -0.95 0  -4.7 -0.95 0  -4.65 -0.95 0  -4.6 -0.95 0  -4.55 -0.95 0  -4.5 -0.95 0  -4.45 -0.95 0  -4.4 -0.95 0  -4.35 -0.95 0  -4.3 -0.95 0  -4.25 -0.95 0  -4.2 -0.95 0  -4.15 -0.95 0  -4.1 -0.95 0  -4.05 -0.95 0  -4 -0.95 0  -3.95 -0.95 0  -3.9 -0.95 0  -3.85 -0.95 0  -3.8 -0.95 0  -3.75 -0.95 0  -3.7 -0.95 0  -3.65 -0.95 0  -3.6 -0.95 0  -3.55 -0.95 0  -3.5 -0.95 0  -3.45 -0.95 0  -3.4 -0.95 0  -3.35 -0.95 0  -3.3 -0.95 0  -3.25 -0.95 0  -3.2 -0.95 0  -3.15 -0.95 0  -3.1 -0.95 0  -3.05 -0.95 0  -3 -0.95 0  -2.95 -0.95 0  -2.9 -0.95 0  -2.85 -0.95 0  -2.8 -0.95 0  -2.75 -0.95 0  -2.7 -0.95 0  -2.65 -0.95 0  -2.6 -0.95 0  -2.55 -0.95 0  -2.5 -0.95 0  -2.45 -0.95 0  -2.4 -0.95 0  -2.35 -0.95 0  -2.3 -0.95 0  -2.25 -0.95 0  -2.2 -0.95 0  -2.15 -0.95 0  -2.1 -0.95 0  -2.05 -0.95 0  -2 -0.95 0  -1.95 -0.95 0  -1.9 -0.95 0  -1.85 -0.95 0  -1.8 -0.95 0  -1.75 -0.95 0  -1.7 -0.95 0  -1.65 -0.95 0  -1.6 -0.95 0  -1.55 -0.95 0  -1.5 -0.95 0  -1.45 -0.95 0  -1.4 -0.95 0  -1.35 -0.95 0  -1.3 -0.95 0  -1.25 -0.95 0  -1.2 -0.95 0  -1.15 -0.95 0  -1.1 -0.95 0  -1.05 -0.95 0  -1 -0.95 0  -0.9500000000000002 -0.95 0  -0.9000000000000004 -0.95 0  -0.8499999999999996 -0.95 0  -0.7999999999999998 -0.95 0  -0.75 -0.95 0  -0.7000000000000002 -0.95 0  -0.6500000000000004 -0.95 0  -0.5999999999999996 -0.95 0  -0.5499999999999998 -0.95 0  -0.5 -0.95 0  -0.4500000000000002 -0.95 0  -0.4000000000000004 -0.95 0  -0.3499999999999996 -0.95 0  -0.2999999999999998 -0.95 0  -0.25 -0.95 0  -0.2000000000000002 -0.95 0  -0.1500000000000004 -0.95 0  -0.09999999999999964 -0.95 0  -0.04999999999999982 -0.95 0  0 -0.95 0  0.04999999999999982 -0.95 0  0.09999999999999964 -0.95 0  0.1500000000000004 -0.95 0  0.2000000000000002 -0.95 0  0.25 -0.95 0  0.2999999999999998 -0.95 0  0.3499999999999996 -0.95 0  0.4000000000000004 -0.95 0  0.4500000000000002 -0.95 0  0.5 -0.95 0  0.5499999999999998 -0.95 0  0.5999999999999996 -0.95 0  0.6500000000000004 -0.95 0  0.7000000000000002 -0.95 0  0.75 -0.95 0  0.7999999999999998 -0.95 0  0.8499999999999996 -0.95 0  0.9000000000000004 -0.95 0  0.9500000000000002 -0.95 0  1 -0.95 0  1.05 -0.95 0  1.1 -0.95 0  1.15 -0.95 0  1.2 -0.95 0  1.25 -0.95 0  1.3 -0.95 0  1.35 -0.95 0  1.4 -0.95 0  1.45 -0.95 0  1.5 -0.95 0  1.55 -0.95 0  1.6 -0.95 0  1.65 -0.95 0  1.7 -0.95 0  1.75 -0.95 0  1.8 -0.95 0  1.85 -0.95 0  1.9 -0.95 0  1.95 -0.95 0  2 -0.95 0  2.05 -0.95 0  2.1 -0.95 0  2.15 -0.95 0  2.2 -0.95 0  2.25 -0.95 0  2.3 -0.95 0  2.35 -0.95 0  2.4 -0.95 0  2.45 -0.95 0  2.5 -0.95 0  2.55 -0.95 0  2.6 -0.95 0  2.65 -0.95 0  2.7 -0.95 0  2.75 -0.95 0  2.8 -0.95 0  2.85 -0.95 0  2.9 -0.95 0  2.95 -0.95 0  3 -0.95 0  3.050000000000001 -0.95 0  3.1 -0.95 0  3.15 -0.95 0  3.199999999999999 -0.95 0  3.25 -0.95 0  3.300000000000001 -0.95 0  3.35 -0.95 0  3.4 -0.95 0  3.449999999999999 -0.95 0  3.5 -0.95 0  3.550000000000001 -0.95 0  3.6 -0.95 0  3.65 -0.95 0  3.699999999999999 -0.95 0  3.75 -0.95 0  3.800000000000001 -0.95 0  3.85 -0.95 0  3.9 -0.95 0  3.949999999999999 -0.95 0  4 -0.95 0  4.050000000000001 -0.95 0  4.1 -0.95 0  4.15 -0.95 0  4.199999999999999 -0.95 0  4.25 -0.95 0  4.300000000000001 -0.95 0  4.35 -0.95 0  4.4 -0.95 0  4.449999999999999 -0.95 0  4.5 -0.95 0  4.550000000000001 -0.95 0  4.6 -0.95 0  4.65 -0.95 0  4.699999999999999 -0.95 0  4.75 -0.95 0  4.800000000000001 -0.95 0  4.85 -0.95 0  4.9 -0.95 0  4.949999999999999 -0.95 0  5 -0.95 0  -5 -0.9 0  -4.95 -0.9 0  -4.9 -0.9 0  -4.85 -0.9 0  -4.8 -0.9 0  -4.75 -0.9 0  -4.7 -0.9 0  -4.65 -0.9 0  -4.6 -0.9 0  -4.55 -0.9 0  -4.5 -0.9 0  -4.45 -0.9 0  -4.4 -0.9 0  -4.35 -0.9 0  -4.3 -0.9 0  -4.25 -0.9 0  -4.2 -0.9 0  -4.15 -0.9 0  -4.1 -0.9 0  -4.05 -0.9 0  -4 -0.9 0  -3.95 -0.9 0  -3.9 -0.9 0  -3.85 -0.9 0  -3.8 -0.9 0  -3.75 -0.9 0  -3.7 -0.9 0  -3.65 -0.9 0  -3.6 -0.9 0  -3.55 -0.9 0  -3.5 -0.9 0  -3.45 -0.9 0  -3.4 -0.9 0  -3.35 -0.9 0  -3.3 -0.9 0  -3.25 -0.9 0  -3.2 -0.9 0  -3.15 -0.9 0  -3.1 -0.9 0  -3.05 -0.9 0  -3 -0.9 0  -2.95 -0.9 0  -2.9 -0.9 0  -2.85 -0.9 0  -2.8 -0.9 0  -2.75 -0.9 0  -2.7 -0.9 0  -2.65 -0.9 0  -2.6 -0.9 0  -2.55 -0.9 0  -2.5 -0.9 0  -2.45 -0.9 0  -2.4 -0.9 0  -2.35 -0.9 0  -2.3 -0.9 0  -2.25 -0.9 0  -2.2 -0.9 0  -2.15 -0.9 0  -2.1 -0.9 0  -2.05 -0.9 0  -2 -0.9 0  -1.95 -0.9 0  -1.9 -0.9 0  -1.85 -0.9 0  -1.8 -0.9 0  -1.75 -0.9 0  -1.7 -0.9 0  -1.65 -0.9 0  -1.6 -0.9 0  -1.55 -0.9 0  -1.5 -0.9 0  -1.45 -0.9 0  -1.4 -0.9 0  -1.35 -0.9 0  -1.3 -0.9 0  -1.25 -0.9 0  -1.2 -0.9 0  -1.15 -0.9 0  -1.1 -0.9 0  -1.05 -0.9 0  -1 -0.9 0  -0.9500000000000002 -0.9 0  -0.9000000000000004 -0.9 0  -0.8499999999999996 -0.9 0  -0.7999999999999998 -0.9 0  -0.75 -0.9 0  -0.7000000000000002 -0.9 0  -0.6500000000000004 -0.9 0  -0.5999999999999996 -0.9 0  -0.5499999999999998 -0.9 0  -0.5 -0.9 0  -0.4500000000000002 -0.9 0  -0.4000000000000004 -0.9 0  -0.3499999999999996 -0.9 0  -0.2999999999999998 -0.9 0  -0.25 -0.9 0  -0.2000000000000002 -0.9 0  -0.1500000000000004 -0.9 0  -0.09999999999999964 -0.9 0  -0.04999999999999982 -0.9 0  0 -0.9 0  0.04999999999999982 -0.9 0  0.09999999999999964 -0.9 0  0.1500000000000004 -0.9 0  0.2000000000000002 -0.9 0  0.25 -0.9 0  0.2999999999999998 -0.9 0  0.3499999999999996 -0.9 0  0.4000000000000004 -0.9 0  0.4500000000000002 -0.9 0  0.5 -0.9 0  0.5499999999999998 -0.9 0  0.5999999999999996 -0.9 0  0.6500000000000004 -0.9 0  0.7000000000000002 -0.9 0  0.75 -0.9 0  0.7999999999999998 -0.9 0  0.8499999999999996 -0.9 0  0.9000000000000004 -0.9 0  0.9500000000000002 -0.9 0  1 -0.9 0  1.05 -0.9 0  1.1 -0.9 0  1.15 -0.9 0  1.2 -0.9 0  1.25 -0.9 0  1.3 -0.9 0  1.35 -0.9 0  1.4 -0.9 0  1.45 -0.9 0  1.5 -0.9 0  1.55 -0.9 0  1.6 -0.9 0  1.65 -0.9 0  1.7 -0.9 0  1.75 -0.9 0  1.8 -0.9 0  1.85 -0.9 0  1.9 -0.9 0  1.95 -0.9 0  2 -0.9 0  2.05 -0.9 0  2.1 -0.9 0  2.15 -0.9 0  2.2 -0.9 0  2.25 -0.9 0  2.3 -0.9 0  2.35 -0.9 0  2.4 -0.9 0  2.45 -0.9 0  2.5 -0.9 0  2.55 -0.9 0  2.6 -0.9 0  2.65 -0.9 0  2.7 -0.9 0  2.75 -0.9 0  2.8 -0.9 0  2.85 -0.9 0  2.9 -0.9 0  2.95 -0.9 0  3 -0.9 0  3.050000000000001 -0.9 0  3.1 -0.9 0  3.15 -0.9 0  3.199999999999999 -0.9 0  3.25 -0.9 0  3.300000000000001 -0.9 0  3.35 -0.9 0  3.4 -0.9 0  3.449999999999999 -0.9 0  3.5 -0.9 0  3.550000000000001 -0.9 0  3.6 -0.9 0  3.65 -0.9 0  3.699999999999999 -0.9 0  3.75 -0.9 0  3.800000000000001 -0.9 0  3.85 -0.9 0  3.9 -0.9 0  3.949999999999999 -0.9 0  4 -0.9 0  4.050000000000001 -0.9 0  4.1 -0.9 0  4.15 -0.9 0  4.199999999999999 -0.9 0  4.25 -0.9 0  4.300000000000001 -0.9 0  4.35 -0.9 0  4.4 -0.9 0  4.449999999999999 -0.9 0  4.5 -0.9 0  4.550000000000001 -0.9 0  4.6 -0.9 0  4.65 -0.9 0  4.699999999999999 -0.9 0  4.75 -0.9 0  4.800000000000001 -0.9 0  4.85 -0.9 0  4.9 -0.9 0  4.949999999999999 -0.9 0  5 -0.9 0  -5 -0.85 0  -4.95 -0.85 0  -4.9 -0.85 0  -4.85 -0.85 0  -4.8 -0.85 0  -4.75 -0.85 0  -4.7 -0.85 0  -4.65 -0.85 0  -4.6 -0.85 0  -4.55 -0.85 0  -4.5 -0.85 0  -
[...]
<PointData  Vectors="f_15"> 
<DataArray  type="Float64"  Name="f_15"  NumberOfComponents="3" format="ascii">2.9917779237912487e+00 0.0000000000000000e+00 0.0000000000000000e+00  3.0073007672659702e+00 1.0265500170473009e-02 0.0000000000000000e+00  2.9943587315277922e+00 -8.2226648487946190e-03 0.0000000000000000e+00  3.0062138700520737e+00 1.1184731126067424e-02 0.0000000000000000e+00  2.9948508434952532e+00 -7.0320714829210686e-03 0.0000000000000000e+00  3.0069763119247566e+00 1.0296167834049200e-02 0.0000000000000000e+00  2.9945017742689690e+00 -6.6768846579808036e-03 0.0000000000000000e+00  3.0068295981491855e+00 1.0385303574856980e-02 0.0000000000000000e+00  2.9950261115022330e+00 -7.4362830057715292e-03 0.0000000000000000e+00  3.0061629010293860e+00 1.0342837717324072e-02 0.0000000000000000e+00  2.9949255049488714e+00 -7.9973271634690042e-03 0.0000000000000000e+00  3.0061932512101390e+00 9.9597360942753083e-03 0.0000000000000000e+00  2.9946966816893110e+00 -8.2764304485082214e-03 0.0000000000000000e+00  3.0056933060692930e+00 9.3698174700428735e-03 0.0000000000000000e+00  2.9949982153636854e+00 -8.3286576612205954e-03 0.0000000000000000e+00  3.0053967003659676e+00 9.0473557075602014e-03 0.0000000000000000e+00  2.9947643395171419e+00 -8.5049122247579899e-03 0.0000000000000000e+00  3.0053851601840762e+00 8.5495884926648572e-03 0.0000000000000000e+00  2.9950176844970260e+00 -7.7025496136027887e-03 0.0000000000000000e+00  3.0047957036229800e+00 7.2883921208697399e-03 0.0000000000000000e+00  2.9952974785770947e+00 -6.9555730951298784e-03 0.0000000000000000e+00  3.0049131104837423e+00 7.0745586484535234e-03 0.0000000000000000e+00  2.9949969235405063e+00 -6.9438091047189301e-03 0.0000000000000000e+00  3.0048124569652392e+00 6.3682579259018530e-03 0.0000000000000000e+00  2.9955599783723446e+00 -5.4293068699502491e-03 0.0000000000000000e+00  3.0041798149451977e+00 4.7114484148368871e-03 0.0000000000000000e+00  2.9957029862709441e+00 -4.4851337419471718e-03 0.0000000000000000e+00  3.0045047765341675e+00 4.5770724743552154e-03 0.0000000000000000e+00  2.9953481204454016e+00 -4.3284857200776451e-03 0.0000000000000000e+00  3.0043440088388929e+00 3.7020861584145925e-03 0.0000000000000000e+00  2.9958804994100889e+00 -2.6594926072527874e-03 0.0000000000000000e+00  3.0038106574732315e+00 2.2496911349208352e-03 0.0000000000000000e+00  2.9958016003665437e+00 -1.8387078036936552e-03 0.0000000000000000e+00  3.0041615855761092e+00 2.3967830416541740e-03 0.0000000000000000e+00  2.9952366395465213e+00 -1.5405645849925341e-03 0.0000000000000000e+00  3.0039055594559883e+00 2.1457334688225809e-03 0.0000000000000000e+00  2.9952679687511536e+00 2.1954370934831058e-04 0.0000000000000000e+00  3.0029663781795772e+00 2.3550541657442227e-03 0.0000000000000000e+00  2.9942547447721437e+00 1.7475883989905249e-03 0.0000000000000000e+00  3.0021531335000224e+00 5.7190785688295536e-03 0.0000000000000000e+00  2.9916505505731732e+00 4.2962592087336165e-03 0.0000000000000000e+00  2.9993218541309141e+00 1.1659489541757514e-02 0.0000000000000000e+00  2.9878821978476910e+00 1.1434582825253090e-02 0.0000000000000000e+00  2.9931822031421547e+00 2.2680575334558941e-02 0.0000000000000000e+00  2.9801981000272537e+00 2.3460122408094457e-02 0.0000000000000000e+00  2.9837267902027915e+00 4.3495930768225187e-02 0.0000000000000000e+00  2.9668683308718511e+00 4.3674040165098627e-02 0.0000000000000000e+00  2.9679026009663061e+00 7.4570316667798259e-02 0.0000000000000000e+00  2.9480755945336692e+00 7.7085357490131304e-02 0.0000000000000000e+00  2.9441610694536298e+00 1.1837665503031586e-01 0.0000000000000000e+00  2.9214611823638146e+00 1.2370862142585026e-01 0.0000000000000000e+00  2.9134543945033973e+00 1.7780377925081250e-01 0.0000000000000000e+00  2.8863520191527234e+00 1.8503742385201591e-01 0.0000000000000000e+00  2.8746396852589724e+00 2.5067182343526817e-01 0.0000000000000000e+00  2.8446096720318623e+00 2.6233388347519110e-01 0.0000000000000000e+00  2.8279092561418482e+00 3.3670651536023227e-01 0.0000000000000000e+00  2.7960760700096170e+00 3.5238103281582833e-01 0.0000000000000000e+00  2.7756560467334324e+00 4.3552248828521489e-01 0.0000000000000000e+00  2.7412589316901750e+00 4.5459083462578892e-01 0.0000000000000000e+00  2.7183148934077357e+00 5.4333444782023799e-01 0.0000000000000000e+00  2.6824115272228992e+00 5.6751515888569681e-01 0.0000000000000000e+00  2.6564953543379941e+00 6.6065813244837801e-01 0.0000000000000000e+00  2.6200036013343491e+00 6.8653962589046480e-01 0.0000000000000000e+00  2.5921894591275225e+00 7.8619055497311974e-01 0.0000000000000000e+00  2.5544292595536127e+00 8.1359749660185876e-01 0.0000000000000000e+00  2.5258840798536584e+00 9.1467077236112426e-01 0.0000000000000000e+00  2.4872271416434284e+00 9.4710172362200296e-01 0.0000000000000000e+00  2.4578625346230436e+00 1.0502084423538767e+00 0.0000000000000000e+00  2.4187329870336276e+00 1.0806650512250808e+00 0.0000000000000000e+00  2.3893144536033231e+00 1.1901367355749963e+00 0.0000000000000000e+00  2.3491853401021228e+00 1.2236743948163880e+00 0.0000000000000000e+00  2.3202334657399168e+00 1.3242978448983047e+00 0.0000000000000000e+00  2.2798405257759842e+00 1.3713803638741471e+00 0.0000000000000000e+00  2.2504320158675215e+00 1.4716446783781754e+00 0.0000000000000000e+00  2.2107081053066233e+00 1.5052291670039522e+00 0.0000000000000000e+00  2.1812731647492103e+00 1.6240243537880534e+00 0.0000000000000000e+00  2.1412626347698622e+00 1.6566394876149877e+00 0.0000000000000000e+00  2.1133598165247696e+00 1.7598481601821836e+00 0.0000000000000000e+00  2.0722933164758714e+00 1.8044891955223545e+00 0.0000000000000000e+00  2.0468583781625491e+00 1.9166091609103808e+00 0.0000000000000000e+00  2.0039310358209939e+00 1.9422079681832356e+00 0.0000000000000000e+00  1.9836393217436785e+00 2.0599223100206103e+00 0.0000000000000000e+00  1.9366813436977062e+00 2.0897930123332533e+00 0.0000000000000000e+00  1.9261725726852765e+00 2.1902028676442837e+00 0.0000000000000000e+00  1.8764160568733184e+00 2.2290717256453023e+00 0.0000000000000000e+00  1.8768474496732404e+00 2.2984761767229132e+00 0.0000000000000000e+00  1.8361351144017457e+00 2.3209536089958287e+00 0.0000000000000000e+00  1.8521057635757807e+00 2.3527328223709478e+00 0.0000000000000000e+00  1.8294364886934402e+00 2.3459773634391974e+00 0.0000000000000000e+00  1.8522476344768561e+00 2.3411129228441525e+00 0.0000000000000000e+00  1.8343697538392714e+00 2.3440553644718172e+00 0.0000000000000000e+00  1.8490950726461501e+00 2.3388191974353676e+00 0.0000000000000000e+00  1.8405816649314652e+00 2.3360031975227589e+00 0.0000000000000000e+00  1.8489987262645435e+00 2.3372793566940522e+00 0.0000000000000000e+00  1.8421019260721365e+00 2.3343098628871171e+00 0.0000000000000000e+00  1.8478088972016733e+00 2.3352246378125763e+00 0.0000000000000000e+00  1.8449369898064227e+00 2.3314162114455024e+00 0.0000000000000000e+00  1.8469742216151210e+00 2.3349211504729674e+00 0.0000000000000000e+00  1.8458753987936827e+00 2.3301455041534549e+00 0.0000000000000000e+00  1.8473985219741316e+00 2.3347325792526021e+00 0.0000000000000000e+00  1.8458269289586895e+00 2.3288173516692412e+00 0.0000000000000000e+00  1.8484560597626742e+00 2.3301188796565446e+00 0.0000000000000000e+00  1.8460274401864316e+00 2.3319711656720106e+00 0.0000000000000000e+00  1.8459033723727403e+00 2.3319553771110950e+00 0.0000000000000000e+00  1.8496459054505621e+00 2.3252820625613455e+00 0.0000000000000000e+00  1.8463426230857365e+00 2.3313032511893597e+00 0.0000000000000000e+00  1.8462268020508601e+00 2.3315850024670337e+00 0.0000000000000000e+00  1.8476515305214984e+00 2.3268980693247094e+00 0.0000000000000000e+00  1.8495249722201077e+00 2.3272137983155781e+00 0.0000000000000000e+00  1.8439511642656261e+00 2.3318028809686888e+00 0.0000000000000000e+00  1.8501782002596117e+00 2.3267099056210987e+00 0.0000000000000000e+00  1.8458291663352415e+00 2.3267560258850843e+00 0.0000000000000000e+00  1.8486734534527263e+00 2.3302123305667148e+00 0.0000000000000000e+00  1.8455763295989347e+00 2.3254031318478456e+00 0.0000000000000000e+00  1.8505408020168810e+00 2.3277483328674768e+00 0.0000000000000000e+00  1.8431108196581776e+00 2.3266200910669421e+00 0.0000000000000000e+00  1.8524972273672788e+00 2.3203075630097030e+00 0.0000000000000000e+00  1.8415143295796830e+00 2.3211921571978906e+00 0.0000000000000000e+00  1.8541319141115777e+00 2.3098041973380252e+00 0.0000000000000000e+00  1.8393956689243487e+00 2.3157267798645105e+00 0.0000000000000000e+00  1.8552589746644104e+00 2.3007486242379671e+00 0.0000000000000000e+00  1.8389618361057276e+00 2.3132847660565496e+00 0.0000000000000000e+00  1.8562595827522725e+00 2.2986795314054786e+00 0.0000000000000000e+00  1.8351920282647534e+00 2.3227335057681229e+00 0.0000000000000000e+00  1.8615918176582456e+00 2.2951614649021361e+00 0.0000000000000000e+00  1.8309445289461914e+00 2.3340638624537311e+00 0.0000000000000000e+00  1.8633959861276852e+00 2.2990770301925640e+00 0.0000000000000000e+00  1.8295811324982543e+00 2.3404256314984933e+00 0.0000000000000000e+00  1.8674561036896020e+00 2.2934663456313715e+00 0.0000000000000000e+00  1.8229035476335289e+00 2.3581439949748879e+00 0.0000000000000000e+00  1.8737923145284106e+00 2.2808753725888571e+00 0.0000000000000000e+00  1.8200120245386100e+00 2.3667059001249751e+00 0.0000000000000000e+00  1.8734093769431943e+00 2.2803444471046364e+00 0.0000000000000000e+00  1.8209418585750710e+00 2.3693147889902360e+00 0.0000000000000000e+00  1.8739310663701778e+00 2.2736749914815650e+00 0.0000000000000000e+00  1.8192720704219589e+00 2.3787717066378007e+00 0.0000000000000000e+00  1.8739694470661368e+00 2.2676684843360548e+00 0.0000000000000000e+00  1.8216782835937666e+00 2.3767347615181862e+00 0.0000000000000000e+00  1.8691747848553490e+00 2.2727037466195954e+00 0.0000000000000000e+00  1.8250988077888872e+00 2.3686365952502260e+00 0.0000000000000000e+00  1.8655211539505696e+00 2.2712858309755868e+00 0.0000000000000000e+00  1.8221741630740567e+00 2.3607374205567222e+00 0.0000000000000000e+00  1.8535648733242329e+00 2.2431702190541021e+00 0.0000000000000000e+00  1.7951748450129741e+00 2.2957220679779424e+00 0.0000000000000000e+00  1.7736494566603642e+00 2.0676861734892888e+00 0.0000000000000000e+00  1.6485519551931833e+00 1.9360380774187247e+00 0.0000000000000000e+00  1.4042554136848180e+00 1.0867044383301971e+00 0.0000000000000000e+00  1.0995915237338538e+00 4.5330617828645298e-01 0.0000000000000000e+00  1.0403102180469690e+00 -3.0907724088277022e-02 0.0000000000000000e+00  9.8099322243223830e-01 1.0544332407498930e-01 0.0000000000000000e+00  1.0225057522406746e+00 -1.0199897363041990e-01 0.0000000000000000e+00  9.7666476740910801e-01 1.0340632320979021e-01 0.0000000000000000e+00  1.0250016551999510e+00 -1.1546994211105417e-01 0.0000000000000000e+00  9.7257275886404937e-01 1.2019288548808975e-01 0.0000000000000000e+00  1.0298832534721385e+00 -1.3334041954273382e-01 0.0000000000000000e+00  9.6733407856590670e-01 1.3867535115765689e-01 0.0000000000000000e+00  1.0361566360821475e+00 -1.5093051359889853e-01 0.0000000000000000e+00  9.5986521698794636e-01 1.5960308034766352e-01 0.0000000000000000e+00  1.0450646954235365e+00 -1.7226420257554945e-01 0.0000000000000000e+00  9.5091898065054414e-01 1.8253518700963375e-01 0.0000000000000000e+00  1.0532255530724124e+00 -1.8805457836984582e-01 0.0000000000000000e+00  9.4463071104525720e-01 1.9480486625229546e-01 0.0000000000000000e+00  1.0580257494996279e+00 -1.9201147732156093e-01 0.0000000000000000e+00  9.4140876192226586e-01 1.9640363196923219e-01 0.0000000000000000e+00  1.0599229673689330e+00 -1.8866961039692223e-01 0.0000000000000000e+00  9.4120783806048036e-01 1.9036435534109064e-01 0.0000000000000000e+00  1.0581684808185978e+00 -1.7737531958677741e-01 0.0000000000000000e+00  9.4473068452482656e-01 1.7463256160514729e-01 0.0000000000000000e+00  1.0531526875530430e+00 -1.5856436962748563e-01 0.0000000000000000e+00  9.5050537150419356e-01 1.5308698851796487e-01 0.0000000000000000e+00  1.0467254579166865e+00 -1.3724963803458196e-01 0.0000000000000000e+00  9.5715900698299528e-01 1.3030514772828122e-01 0.0000000000000000e+00  1.0396095429771377e+00 -1.1531230673353297e-01 0.0000000000000000e+00  9.6435058842899757e-01 1.0707466462059288e-01 0.0000000000000000e+00  1.0322958820193706e+00 -9.3453526638780968e-02 0.0000000000000000e+00  9.7133945747204942e-01 8.5061055340064903e-02 0.0000000000000000e+00  1.0255944609469523e+00 -7.3643983699360330e-02 0.0000000000000000e+00  9.7752947644033461e-01 6.5964888148107415e-02 0.0000000000000000e+00  1.0197725299367530e+00 -5.6644500464618504e-02 0.0000000000000000e+00  9.8287712273102812e-01 4.9820668692978139e-02 0.0000000000000000e+00  1.0148223776379659e+00 -4.2304235675704703e-02 0.0000000000000000e+00  9.8733069241245508e-01 3.6551170123482045e-02 0.0000000000000000e+00  1.0108246862330497e+00 -3.0748392994373947e-02 0.0000000000000000e+00  9.9084282334247087e-01 2.6189865204801467e-02 0.0000000000000000e+00  1.0077311329614056e+00 -2.1841546249298009e-02 0.0000000000000000e+00  9.9353712836379893e-01 1.8329484209007416e-02 0.0000000000000000e+00  1.0053826013509854e+00 -1.5110144714357369e-02 0.0000000000000000e+00  9.9555977851252697e-01 1.2474347754742784e-02 0.0000000000000000e+00  1.0036544739901776e+00 -1.0159147031204852e-02 0.0000000000000000e+00  9.9702182257105743e-01 8.2541069464056819e-03 0.0000000000000000e+00  1.0024334367208194e+00 -6.6459338170459540e-03 0.0000000000000000e+00  9.9804530831461835e-01 5.2945782857749040e-03 0.0000000000000000e+00  1.0015986901586282e+00 -4.2083202463184940e-03 0.0000000000000000e+00  9.9874646628870334e-01 3.2412642079838977e-03 0.0000000000000000e+00  1.0010544066982827e+00 -2.5427014811666556e-03 0.0000000000000000e+00  9.9921326252033893e-01 1.8165103653021912e-03 0.0000000000000000e+00  1.0007342047277448e+00 -1.4143921831129744e-03 0.0000000000000000e+00  9.9951670788752678e-01 7.9523289729197531e-04 0.0000000000000000e+00  1.0005862352490933e+00 -6.4876006420106565e-04 0.0000000000000000e+00  9.9972816155794408e-01 3.7198369441229377e-05 0.0000000000000000e+00  1.0005715817644554e+00 0.0000000000000000e+00 0.0000000000000000e+00  2.9982123770251627e+00 0.0000000000000000e+00 -5.3582922952329758e-03  3.0027456491587352e+00 -3.8216807426442990e-03 7.2453808210297928e-05  2.9980024739176541e+00 1.3545208194092283e-03 2.2613249936069319e-03  3.0007393543284748e+00 -1.7707372924176113e-03 -6.7102677888087844e-04  2.9990656005442782e+00 -2.2703082745440476e-03 -1.5758786373871623e-04  2.9993797008508802e+00 -7.8481021545189790e-04 1.0749451929572347e-03  2.9990688369193035e+00 -2.6916697519133444e-03 -1.5295207429366661e-03  2.9996916264622193e+00 -7.6913068344666680e-04 2.0370484982741095e-03  2.9987586130246249e+00 -2.6636471405304079e-03 -2.2964994695741071e-03  2.9996481573547764e+00 -6.9091651057947212e-05 2.6499159966244896e-03  2.9993761833183847e+00 -2.7163535429482666e-03 -2.8448969424331384e-03  2.9994880441871223e+00 6.5302830441901294e-04 3.0836848946810460e-03  2.9994550566212159e+00 -2.5954888901307044e-03 -3.1899710670456002e-03  2.9999492464692334e+00 1.1562982744872524e-03 3.3081242633348873e-03  2.9995355995051636e+00 -2.2519098851081997e-03 -3.3602187982155075e-03  2.9998253695707096e+00 1.2748524318915947e-03 3.4316700298089300e-03  2.9999092587136191e+00 -2.0500158443125644e-03 -3.4640435262972467e-03  2.9999990266211842e+00 1.8205853574366309e-03 3.4975854074980888e-03  2.9996331385065371e+00 -2.4255374331641770e-03 -3.5211262342405808e-03  3.0002425227546383e+00 2.0698552668844228e-03 3.5833855470108729e-03  2.9999166250254170e+00 -1.9330616024634843e-03 -3.6789920481985713e-03  2.9998540834031426e+00 1.5804309347857554e-03 3.8052515917277934e-03  3.0000455052912085e+00 -1.9317147164115581e-03 -3.9320212858388968e-03  3.0002468419522499e+00 2.3805238238908547e-03 4.0807058669833579e-03  2.9995947501880149e+00 -2.8125649115324555e-03 -4.2819419922411200e-03  3.0002925038098427e+00 2.6135133159705909e-03 4.5680184438971917e-03  3.0000636287474798e+00 -2.3211443779512070e-03 -4.9120021387173800e-03  2.9998268152290062e+00 2.1610178155598509e-03 5.2901996641226039e-03  3.0000675401682417e+00 -2.6999371875173163e-03 -5.6755659278246023e-03  3.0002975812146349e+00 3.2797872836003448e-03 6.1163116655670070e-03  2.9996500086928064e+00 -3.7779919929345437e-03 -6.6376962294572859e-03  3.0002180881276090e+00 3.6492135340913121e-03 7.2683405679786458e-03  3.0001191855002474e+00 -3.4973145762948162e-03 -7.9480488666257478e-03  2.9997194941277741e+00 3.7299431654998438e-03 8.6685704477169872e-03  2.9999659783466890e+00 -4.0080052367064394e-03 -9.3891163578273540e-03  2.9999417655502048e+00 5.4408886471598384e-03 1.0186166221717001e-02  2.9992080152593625e+00 -4.5231265193208603e-03 -1.1035644990746976e-02  2.9993012697217494e+00 7.0123260539189033e-03 1.1985713170763159e-02  2.9987555638921530e+00 -2.8340197037656956e-03 -1.2931675089640333e-02  2.9974545680222211e+00 9.6925595658304536e-03 1.3896284898707171e-02  2.9966727204390566e+00 7.8637629860918440e-05 -1.4765690509031622e-02  2.9949647156242341e+00 1.6486368114296063e-02 1.5645600033336871e-02  2.9919593272657670e+00 6.4565994914741647e-03 -1.6430115478986353e-02  2.9892777323975830e+00 2.7339362284117864e-02 1.7203015816549583e-02  2.9847346031062574e+00 2.0606236111001066e-02 -1.7805119407161354e-02  2.9787517663145500e+00 4.5375891566716821e-02 1.8265720304525421e-02  2.9719786377825734e+00 4.3266498466145054e-02 -1.8454431840613898e-02  2.9633977016835513e+00 7.5285524123072614e-02 1.8466582114082954e-02  2.9520096941915837e+00 7.7715455646905449e-02 -1.8273190042656984e-02  2.9405040398464974e+00 1.1718277294440807e-01 1.7904740179299120e-02  2.9254761467145656e+00 1.2769705553710439e-01 -1.7329700705403898e-02  2.9090804849541563e+00 1.7292135707075887e-01 1.6480828495243599e-02  2.8907949235937460e+00 1.9191297469109250e-01 -1.5432089081559196e-02  2.8707321727216999e+00 2.4408942760466201e-01 1.4185615835161017e-02  2.8479125925609416e+00 2.7063765270260537e-01 -1.2920969170518676e-02  2.8250309144452714e+00 3.2790555956701395e-01 1.1564477830968346e-02  2.7990998033017456e+00 3.6363473475482005e-01 -1.0193823042624549e-02  2.7724775619154456e+00 4.2386165634197809e-01 8.6572379571836239e-03  2.7446039765420864e+00 4.6728314218300054e-01 -7.1582233293122103e-03  2.7154584359879252e+00 5.3089214640838100e-01 5.6545184886660537e-03  2.6850232055224152e+00 5.8123425405832230e-01 -4.3729042943482285e-03  2.6544507724636115e+00 6.4525759601455701e-01 3.1706638060088835e-03  2.6224490505463751e+00 7.0383223424404673e-01 -2.0236580855733160e-03  2.5899405665332331e+00 7.6798923947909270e-01 8.2656871529321818e-04  2.5573157817242085e+00 8.3068132649597970e-01 2.3147697893731195e-04  2.5236228296139940e+00 8.9769715906633274e-01 -1.0773462375543042e-03  2.4899229084866108e+00 9.6444762005954499e-01 1.5473941337605837e-03  2.4558295160243713e+00 1.0292551742129317e+00 -1.7136373273861330e-03  2.4215869814486508e+00 1.1031388067749206e+00 1.8411921167101593e-03  2.3867625198714904e+00 1.1688584798777659e+00 -1.9153330049786984e-03  2.3524793605846424e+00 1.2385899373839249e+00 1.8667295377984413e-03  2.3175664808430074e+00 1.3139813584230500e+00 -1.4218609249754825e-03  2.2827123428984826e+00 1.3832560703388952e+00 5.8310964160856777e-04  2.2482573475545835e+00 1.4502442657690289e+00 -7.8481690856649323e-05  2.2135216912670970e+00 1.5334656941045781e+00 6.7573984583502709e-04  2.1786276773848425e+00 1.5995682267492055e+00 -1.8488822755299897e-03  2.1450123026778463e+00 1.6692906199590574e+00 2.5089710118621454e-03  2.1098594536591415e+00 1.7496215107446855e+00 -2.6287916298348931e-03  2.0767052504502113e+00 1.8257568365811092e+00 3.5438529088201989e-03  2.0425983099218863e+00 1.8838244162744662e+00 -5.5033410893116589e-03  2.0098226449436738e+00 1.9735503111748482e+00 7.0220408838664802e-03  1.9770754359996312e+00 2.0346026975926454e+00 