<?xml version="1.0"?>
<VTKFile type="UnstructuredGrid"  version="0.1"  >
<UnstructuredGrid>
<Piece  NumberOfPoints="8241" NumberOfCells="16000">
<Points>
<DataArray  type="Float64"  NumberOfComponents="3"  format="ascii">-5 -1 0  -4.95 -1 0  -4.9 -1 0  -4.85 -1 0  -4.8 -1 0  -4.75 -1 0  -4.7 -1 0  -4.65 -1 0  -4.6 -1 0  -4.55 -1 0  -4.5 -1 0  -4.45 -1 0  -4.4 -1 0  -4.35 -1 0  -4.3 -1 0  -4.25 -1 0  -4.2 -1 0  -4.15 -1 0  -4.1 -1 0  -4.05 -1 0  -4 -1 0  -3.95 -1 0  -3.9 -1 0  -3.85 -1 0  -3.8 -1 0  -3.75 -1 0  -3.7 -1 0  -3.65 -1 0  -3.6 -1 0  -3.55 -1 0  -3.5 -1 0  -3.45 -1 0  -3.4 -1 0  -3.35 -1 0  -3.3 -1 0  -3.25 -1 0  -3.2 -1 0  -3.15 -1 0  -3.1 -1 0  -3.05 -1 0  -3 -1 0  -2.95 -1 0  -2.9 -1 0  -2.85 -1 0  -2.8 -1 0  -2.75 -1 0  -2.7 -1 0  -2.65 -1 0  -2.6 -1 0  -2.55 -1 0  -2.5 -1 0  -2.45 -1 0  -2.4 -1 0  -2.35 -1 0  -2.3 -1 0  -2.25 -1 0  -2.2 -1 0  -2.15 -1 0  -2.1 -1 0  -2.05 -1 0  -2 -1 0  -1.95 -1 0  -1.9 -1 0  -1.85 -1 0  -1.8 -1 0  -1.75 -1 0  -1.7 -1 0  -1.65 -1 0  -1.6 -1 0  -1.55 -1 0  -1.5 -1 0  -1.45 -1 0  -1.4 -1 0  -1.35 -1 0  -1.3 -1 0  -1.25 -1 0  -1.2 -1 0  -1.15 -1 0  -1.1 -1 0  -1.05 -1 0  -1 -1 0  -0.9500000000000002 -1 0  -0.9000000000000004 -1 0  -0.8499999999999996 -1 0  -0.7999999999999998 -1 0  -0.75 -1 0  -0.7000000000000002 -1 0  -0.6500000000000004 -1 0  -0.5999999999999996 -1 0  -0.5499999999999998 -1 0  -0.5 -1 0  -0.4500000000000002 -1 0  -0.4000000000000004 -1 0  -0.3499999999999996 -1 0  -0.2999999999999998 -1 0  -0.25 -1 0  -0.2000000000000002 -1 0  -0.1500000000000004 -1 0  -0.09999999999999964 -1 0  -0.04999999999999982 -1 0  0 -1 0  0.04999999999999982 -1 0  0.09999999999999964 -1 0  0.1500000000000004 -1 0  0.2000000000000002 -1 0  0.25 -1 0  0.2999999999999998 -1 0  0.3499999999999996 -1 0  0.4000000000000004 -1 0  0.4500000000000002 -1 0  0.5 -1 0  0.5499999999999998 -1 0  0.5999999999999996 -1 0  0.6500000000000004 -1 0  0.7000000000000002 -1 0  0.75 -1 0  0.7999999999999998 -1 0  0.8499999999999996 -1 0  0.9000000000000004 -1 0  0.9500000000000002 -1 0  1 -1 0  1.05 -1 0  1.1 -1 0  1.15 -1 0  1.2 -1 0  1.25 -1 0  1.3 -1 0  1.35 -1 0  1.4 -1 0  1.45 -1 0  1.5 -1 0  1.55 -1 0  1.6 -1 0  1.65 -1 0  1.7 -1 0  1.75 -1 0  1.8 -1 0  1.85 -1 0  1.9 -1 0  1.95 -1 0  2 -1 0  2.05 -1 0  2.1 -1 0  2.15 -1 0  2.2 -1 0  2.25 -1 0  2.3 -1 0  2.35 -1 0  2.4 -1 0  2.45 -1 0  2.5 -1 0  2.55 -1 0  2.6 -1 0  2.65 -1 0  2.7 -1 0  2.75 -1 0  2.8 -1 0  2.85 -1 0  2.9 -1 0  2.95 -1 0  3 -1 0  3.050000000000001 -1 0  3.1 -1 0  3.15 -1 0  3.199999999999999 -1 0  3.25 -1 0  3.300000000000001 -1 0  3.35 -1 0  3.4 -1 0  3.449999999999999 -1 0  3.5 -1 0  3.550000000000001 -1 0  3.6 -1 0  3.65 -1 0  3.699999999999999 -1 0  3.75 -1 0  3.800000000000001 -1 0  3.85 -1 0  3.9 -1 0  3.949999999999999 -1 0  4 -1 0  4.050000000000001 -1 0  4.1 -1 0  4.15 -1 0  4.199999999999999 -1 0  4.25 -1 0  4.300000000000001 -1 0  4.35 -1 0  4.4 -1 0  4.449999999999999 -1 0  4.5 -1 0  4.550000000000001 -1 0  4.6 -1 0  4.65 -1 0  4.699999999999999 -1 0  4.75 -1 0  4.800000000000001 -1 0  4.85 -1 0  4.9 -1 0  4.949999999999999 -1 0  5 -1 0  -5 -0.95 0  -4.95 -0.95 0  -4.9 -0.95 0  -4.85 -0.95 0  -4.8 -0.95 0  -4.75 -0.95 0  -4.7 -0.95 0  -4.65 -0.95 0  -4.6 -0.95 0  -4.55 -0.95 0  -4.5 -0.95 0  -4.45 -0.95 0  -4.4 -0.95 0  -4.35 -0.95 0  -4.3 -0.95 0  -4.25 -0.95 0  -4.2 -0.95 0  -4.15 -0.95 0  -4.1 -0.95 0  -4.05 -0.95 0  -4 -0.95 0  -3.95 -0.95 0  -3.9 -0.95 0  -3.85 -0.95 0  -3.8 -0.95 0  -3.75 -0.95 0  -3.7 -0.95 0  -3.65 -0.95 0  -3.6 -0.95 0  -3.55 -0.95 0  -3.5 -0.95 0  -3.45 -0.95 0  -3.4 -0.95 0  -3.35 -0.95 0  -3.3 -0.95 0  -3.25 -0.95 0  -3.2 -0.95 0  -3.15 -0.95 0  -3.1 -0.95 0  -3.05 -0.95 0  -3 -0.95 0  -2.95 -0.95 0  -2.9 -0.95 0  -2.85 -0.95 0  -2.8 -0.95 0  -2.75 -0.95 0  -2.7 -0.95 0  -2.65 -0.95 0  -2.6 -0.95 0  -2.55 -0.95 0  -2.5 -0.95 0  -2.45 -0.95 0  -2.4 -0.95 0  -2.35 -0.95 0  -2.3 -0.95 0  -2.25 -0.95 0  -2.2 -0.95 0  -2.15 -0.95 0  -2.1 -0.95 0  -2.05 -0.95 0  -2 -0.95 0  -1.95 -0.95 0  -1.9 -0.95 0  -1.85 -0.95 0  -1.8 -0.95 0  -1.75 -0.95 0  -1.7 -0.95 0  -1.65 -0.95 0  -1.6 -0.95 0  -1.55 -0.95 0  -1.5 -0.95 0  -1.45 -0.95 0  -1.4 -0.95 0  -1.35 -0.95 0  -1.3 -0.95 0  -1.25 -0.95 0  -1.2 -0.95 0  -1.15 -0.95 0  -1.1 -0.95 0  -1.05 -0.95 0  -1 -0.95 0  -0.9500000000000002 -0.95 0  -0.9000000000000004 -0.95 0  -0.8499999999999996 -0.95 0  -0.7999999999999998 -0.95 0  -0.75 -0.95 0  -0.7000000000000002 -0.95 0  -0.6500000000000004 -0.95 0  -0.5999999999999996 -0.95 0  -0.5499999999999998 -0.95 0  -0.5 -0.95 0  -0.4500000000000002 -0.95 0  -0.4000000000000004 -0.95 0  -0.3499999999999996 -0.95 0  -0.2999999999999998 -0.95 0  -0.25 -0.95 0  -0.2000000000000002 -0.95 0  -0.1500000000000004 -0.95 0  -0.09999999999999964 -0.95 0  -0.04999999999999982 -0.95 0  0 -0.95 0  0.04999999999999982 -0.95 0  0.09999999999999964 -0.95 0  0.1500000000000004 -0.95 0  0.2000000000000002 -0.95 0  0.25 -0.95 0  0.2999999999999998 -0.95 0  0.3499999999999996 -0.95 0  0.4000000000000004 -0.95 0  0.4500000000000002 -0.95 0  0.5 -0.95 0  0.5499999999999998 -0.95 0  0.5999999999999996 -0.95 0  0.6500000000000004 -0.95 0  0.7000000000000002 -0.95 0  0.75 -0.95 0  0.7999999999999998 -0.95 0  0.8499999999999996 -0.95 0  0.9000000000000004 -0.95 0  0.9500000000000002 -0.95 0  1 -0.95 0  1.05 -0.95 0  1.1 -0.95 0  1.15 -0.95 0  1.2 -0.95 0  1.25 -0.95 0  1.3 -0.95 0  1.35 -0.95 0  1.4 -0.95 0  1.45 -0.95 0  1.5 -0.95 0  1.55 -0.95 0  1.6 -0.95 0  1.65 -0.95 0  1.7 -0.95 0  1.75 -0.95 0  1.8 -0.95 0  1.85 -0.95 0  1.9 -0.95 0  1.95 -0.95 0  2 -0.95 0  2.05 -0.95 0  2.1 -0.95 0  2.15 -0.95 0  2.2 -0.95 0  2.25 -0.95 0  2.3 -0.95 0  2.35 -0.95 0  2.4 -0.95 0  2.45 -0.95 0  2.5 -0.95 0  2.55 -0.95 0  2.6 -0.95 0  2.65 -0.95 0  2.7 -0.95 0  2.75 -0.95 0  2.8 -0.95 0  2.85 -0.95 0  2.9 -0.95 0  2.95 -0.95 0  3 -0.95 0  3.050000000000001 -0.95 0  3.1 -0.95 0  3.15 -0.95 0  3.199999999999999 -0.95 0  3.25 -0.95 0  3.300000000000001 -0.95 0  3.35 -0.95 0  3.4 -0.95 0  3.449999999999999 -0.95 0  3.5 -0.95 0  3.550000000000001 -0.95 0  3.6 -0.95 0  3.65 -0.95 0  3.699999999999999 -0.95 0  3.75 -0.95 0  3.800000000000001 -0.95 0  3.85 -0.95 0  3.9 -0.95 0  3.949999999999999 -0.95 0  4 -0.95 0  4.050000000000001 -0.95 0  4.1 -0.95 0  4.15 -0.95 0  4.199999999999999 -0.95 0  4.25 -0.95 0  4.300000000000001 -0.95 0  4.35 -0.95 0  4.4 -0.95 0  4.449999999999999 -0.95 0  4.5 -0.95 0  4.550000000000001 -0.95 0  4.6 -0.95 0  4.65 -0.95 0  4.699999999999999 -0.95 0  4.75 -0.95 0  4.800000000000001 -0.95 0  4.85 -0.95 0  4.9 -0.95 0  4.949999999999999 -0.95 0  5 -0.95 0  -5 -0.9 0  -4.95 -0.9 0  -4.9 -0.9 0  -4.85 -0.9 0  -4.8 -0.9 0  -4.75 -0.9 0  -4.7 -0.9 0  -4.65 -0.9 0  -4.6 -0.9 0  -4.55 -0.9 0  -4.5 -0.9 0  -4.45 -0.9 0  -4.4 -0.9 0  -4.35 -0.9 0  -4.3 -0.9 0  -4.25 -0.9 0  -4.2 -0.9 0  -4.15 -0.9 0  -4.1 -0.9 0  -4.05 -0.9 0  -4 -0.9 0  -3.95 -0.9 0  -3.9 -0.9 0  -3.85 -0.9 0  -3.8 -0.9 0  -3.75 -0.9 0  -3.7 -0.9 0  -3.65 -0.9 0  -3.6 -0.9 0  -3.55 -0.9 0  -3.5 -0.9 0  -3.45 -0.9 0  -3.4 -0.9 0  -3.35 -0.9 0  -3.3 -0.9 0  -3.25 -0.9 0  -3.2 -0.9 0  -3.15 -0.9 0  -3.1 -0.9 0  -3.05 -0.9 0  -3 -0.9 0  -2.95 -0.9 0  -2.9 -0.9 0  -2.85 -0.9 0  -2.8 -0.9 0  -2.75 -0.9 0  -2.7 -0.9 0  -2.65 -0.9 0  -2.6 -0.9 0  -2.55 -0.9 0  -2.5 -0.9 0  -2.45 -0.9 0  -2.4 -0.9 0  -2.35 -0.9 0  -2.3 -0.9 0  -2.25 -0.9 0  -2.2 -0.9 0  -2.15 -0.9 0  -2.1 -0.9 0  -2.05 -0.9 0  -2 -0.9 0  -1.95 -0.9 0  -1.9 -0.9 0  -1.85 -0.9 0  -1.8 -0.9 0  -1.75 -0.9 0  -1.7 -0.9 0  -1.65 -0.9 0  -1.6 -0.9 0  -1.55 -0.9 0  -1.5 -0.9 0  -1.45 -0.9 0  -1.4 -0.9 0  -1.35 -0.9 0  -1.3 -0.9 0  -1.25 -0.9 0  -1.2 -0.9 0  -1.15 -0.9 0  -1.1 -0.9 0  -1.05 -0.9 0  -1 -0.9 0  -0.9500000000000002 -0.9 0  -0.9000000000000004 -0.9 0  -0.8499999999999996 -0.9 0  -0.7999999999999998 -0.9 0  -0.75 -0.9 0  -0.7000000000000002 -0.9 0  -0.6500000000000004 -0.9 0  -0.5999999999999996 -0.9 0  -0.5499999999999998 -0.9 0  -0.5 -0.9 0  -0.4500000000000002 -0.9 0  -0.4000000000000004 -0.9 0  -0.3499999999999996 -0.9 0  -0.2999999999999998 -0.9 0  -0.25 -0.9 0  -0.2000000000000002 -0.9 0  -0.1500000000000004 -0.9 0  -0.09999999999999964 -0.9 0  -0.04999999999999982 -0.9 0  0 -0.9 0  0.04999999999999982 -0.9 0  0.09999999999999964 -0.9 0  0.1500000000000004 -0.9 0  0.2000000000000002 -0.9 0  0.25 -0.9 0  0.2999999999999998 -0.9 0  0.3499999999999996 -0.9 0  0.4000000000000004 -0.9 0  0.4500000000000002 -0.9 0  0.5 -0.9 0  0.5499999999999998 -0.9 0  0.5999999999999996 -0.9 0  0.6500000000000004 -0.9 0  0.7000000000000002 -0.9 0  0.75 -0.9 0  0.7999999999999998 -0.9 0  0.8499999999999996 -0.9 0  0.9000000000000004 -0.9 0  0.9500000000000002 -0.9 0  1 -0.9 0  1.05 -0.9 0  1.1 -0.9 0  1.15 -0.9 0  1.2 -0.9 0  1.25 -0.9 0  1.3 -0.9 0  1.35 -0.9 0  1.4 -0.9 0  1.45 -0.9 0  1.5 -0.9 0  1.55 -0.9 0  1.6 -0.9 0  1.65 -0.9 0  1.7 -0.9 0  1.75 -0.9 0  1.8 -0.9 0  1.85 -0.9 0  1.9 -0.9 0  1.95 -0.9 0  2 -0.9 0  2.05 -0.9 0  2.1 -0.9 0  2.15 -0.9 0  2.2 -0.9 0  2.25 -0.9 0  2.3 -0.9 0  2.35 -0.9 0  2.4 -0.9 0  2.45 -0.9 0  2.5 -0.9 0  2.55 -0.9 0  2.6 -0.9 0  2.65 -0.9 0  2.7 -0.9 0  2.75 -0.9 0  2.8 -0.9 0  2.85 -0.9 0  2.9 -0.9 0  2.95 -0.9 0  3 -0.9 0  3.050000000000001 -0.9 0  3.1 -0.9 0  3.15 -0.9 0  3.199999999999999 -0.9 0  3.25 -0.9 0  3.300000000000001 -0.9 0  3.35 -0.9 0  3.4 -0.9 0  3.449999999999999 -0.9 0  3.5 -0.9 0  3.550000000000001 -0.9 0  3.6 -0.9 0  3.65 -0.9 0  3.699999999999999 -0.9 0  3.75 -0.9 0  3.800000000000001 -0.9 0  3.85 -0.9 0  3.9 -0.9 0  3.949999999999999 -0.9 0  4 -0.9 0  4.050000000000001 -0.9 0  4.1 -0.9 0  4.15 -0.9 0  4.199999999999999 -0.9 0  4.25 -0.9 0  4.300000000000001 -0.9 0  4.35 -0.9 0  4.4 -0.9 0  4.449999999999999 -0.9 0  4.5 -0.9 0  4.550000000000001 -0.9 0  4.6 -0.9 0  4.65 -0.9 0  4.699999999999999 -0.9 0  4.75 -0.9 0  4.800000000000001 -0.9 0  4.85 -0.9 0  4.9 -0.9 0  4.949999999999999 -0.9 0  5 -0.9 0  -5 -0.85 0  -4.95 -0.85 0  -4.9 -0.85 0  -4.85 -0.85 0  -4.8 -0.85 0  -4.75 -0.85 0  -4.7 -0.85 0  -4.65 -0.85 0  -4.6 -0.85 0  -4.55 -0.85 0  -4.5 -0.85 0  -
[...]
<PointData  Vectors="f_15"> 
<DataArray  type="Float64"  Name="f_15"  NumberOfComponents="3" format="ascii">1.2027061337236793e+00 0.0000000000000000e+00 0.0000000000000000e+00  1.1952953707417109e+00 3.5405084999847992e-03 0.0000000000000000e+00  1.2044109170177353e+00 7.5657299061493558e-02 0.0000000000000000e+00  1.1920711989722679e+00 1.0819923779761663e-01 0.0000000000000000e+00  1.2064168011704757e+00 1.3097065529002894e-01 0.0000000000000000e+00  1.1932294510152095e+00 1.5319466100300735e-01 0.0000000000000000e+00  1.2032217001551742e+00 2.0700945024380563e-01 0.0000000000000000e+00  1.1954344983884426e+00 2.1449293543208744e-01 0.0000000000000000e+00  1.2039219811469564e+00 2.5183315995184569e-01 0.0000000000000000e+00  1.1927070216067219e+00 2.8240972849287982e-01 0.0000000000000000e+00  1.2058388680507688e+00 3.1711256954128214e-01 0.0000000000000000e+00  1.1936924403930387e+00 3.3497097651612051e-01 0.0000000000000000e+00  1.2033330499959998e+00 3.7015159808806125e-01 0.0000000000000000e+00  1.1957580443645415e+00 4.0451403018433935e-01 0.0000000000000000e+00  1.2047505551395559e+00 4.2992674399511316e-01 0.0000000000000000e+00  1.1935552997030787e+00 4.4696862506751561e-01 0.0000000000000000e+00  1.2075228181148541e+00 5.0194482873081470e-01 0.0000000000000000e+00  1.1953499176411959e+00 5.0179932948552308e-01 0.0000000000000000e+00  1.2066171948721405e+00 5.5519546075629500e-01 0.0000000000000000e+00  1.1985866838583130e+00 5.5210297224216554e-01 0.0000000000000000e+00  1.2099765392113118e+00 6.1988600745442546e-01 0.0000000000000000e+00  1.1988069845765370e+00 5.9879871540053053e-01 0.0000000000000000e+00  1.2150705448583183e+00 6.6814062630925874e-01 0.0000000000000000e+00  1.2038465406731544e+00 6.4727099183087511e-01 0.0000000000000000e+00  1.2180266166775990e+00 7.1680197219950892e-01 0.0000000000000000e+00  1.2111619412899570e+00 6.8905721094385053e-01 0.0000000000000000e+00  1.2259320812632526e+00 7.5686121583086285e-01 0.0000000000000000e+00  1.2172574895166042e+00 7.2524131786901891e-01 0.0000000000000000e+00  1.2359816952147202e+00 7.9120570222756392e-01 0.0000000000000000e+00  1.2280214341983837e+00 7.6301537305624678e-01 0.0000000000000000e+00  1.2443482421275451e+00 8.1911552188423298e-01 0.0000000000000000e+00  1.2402654016773405e+00 7.9340408162708809e-01 0.0000000000000000e+00  1.2558858483792503e+00 8.4894954110879228e-01 0.0000000000000000e+00  1.2503718151705918e+00 8.2528568398631807e-01 0.0000000000000000e+00  1.2678071307035563e+00 8.7433373857126973e-01 0.0000000000000000e+00  1.2627930971961845e+00 8.5999762904962551e-01 0.0000000000000000e+00  1.2774744092859869e+00 8.9936295288621271e-01 0.0000000000000000e+00  1.2753678418371375e+00 8.9286700685962916e-01 0.0000000000000000e+00  1.2889307758208557e+00 9.2849543591577066e-01 0.0000000000000000e+00  1.2859891288222205e+00 9.2481579535319902e-01 0.0000000000000000e+00  1.3005744711229048e+00 9.5500132299784568e-01 0.0000000000000000e+00  1.2979121426092517e+00 9.5998658891730160e-01 0.0000000000000000e+00  1.3108239020378218e+00 9.8101753221223431e-01 0.0000000000000000e+00  1.3098474094888684e+00 9.9303000674380348e-01 0.0000000000000000e+00  1.3221930768840737e+00 1.0101602810684911e+00 0.0000000000000000e+00  1.3206258282383245e+00 1.0239274168720089e+00 0.0000000000000000e+00  1.3336834663100301e+00 1.0385506788206640e+00 0.0000000000000000e+00  1.3320901665902518e+00 1.0570665005380366e+00 0.0000000000000000e+00  1.3444557324562423e+00 1.0654008612007835e+00 0.0000000000000000e+00  1.3435636218123719e+00 1.0893740972084127e+00 0.0000000000000000e+00  1.3556543227138622e+00 1.0946536769544510e+00 0.0000000000000000e+00  1.3546921031645280e+00 1.1187300381347927e+00 0.0000000000000000e+00  1.3666926202098562e+00 1.1250186339210571e+00 0.0000000000000000e+00  1.3661955662586722e+00 1.1489543874971204e+00 0.0000000000000000e+00  1.3775006477496337e+00 1.1535561049939838e+00 0.0000000000000000e+00  1.3776948752059597e+00 1.1798276741086979e+00 0.0000000000000000e+00  1.3883050812060127e+00 1.1833681806994572e+00 0.0000000000000000e+00  1.3894909817029650e+00 1.2077804814556710e+00 0.0000000000000000e+00  1.3987860869009414e+00 1.2154844689429476e+00 0.0000000000000000e+00  1.4013635707608647e+00 1.2356046035000730e+00 0.0000000000000000e+00  1.4096004915660594e+00 1.2457216658504149e+00 0.0000000000000000e+00  1.4129357505747460e+00 1.2653653382795702e+00 0.0000000000000000e+00  1.4203459545418284e+00 1.2757107013365998e+00 0.0000000000000000e+00  1.4250548106972785e+00 1.2933363117146635e+00 0.0000000000000000e+00  1.4307590177803340e+00 1.3077118720292804e+00 0.0000000000000000e+00  1.4369716472691869e+00 1.3209168125628032e+00 0.0000000000000000e+00  1.4419836334027056e+00 1.3378022026832850e+00 0.0000000000000000e+00  1.4482615808113268e+00 1.3513191965273439e+00 0.0000000000000000e+00  1.4532723618253995e+00 1.3659761769035754e+00 0.0000000000000000e+00  1.4600986875276576e+00 1.3815809556199428e+00 0.0000000000000000e+00  1.4642892230244966e+00 1.3955802567666382e+00 0.0000000000000000e+00  1.4716199736679083e+00 1.4103991394333169e+00 0.0000000000000000e+00  1.4762117783887942e+00 1.4250749870801143e+00 0.0000000000000000e+00  1.4825965150230604e+00 1.4407730623958321e+00 0.0000000000000000e+00  1.4879938823391117e+00 1.4520824158875243e+00 0.0000000000000000e+00  1.4943228996529756e+00 1.4728112511706362e+00 0.0000000000000000e+00  1.4994376169097072e+00 1.4787573654565607e+00 0.0000000000000000e+00  1.5056741691507665e+00 1.5034947265794101e+00 0.0000000000000000e+00  1.5118023158936151e+00 1.5069311249331259e+00 0.0000000000000000e+00  1.5165922457079026e+00 1.5342141228040687e+00 0.0000000000000000e+00  1.5237871241696557e+00 1.5324055890836898e+00 0.0000000000000000e+00  1.5284298478044358e+00 1.5694983582448652e+00 0.0000000000000000e+00  1.5353280466027777e+00 1.5545793142117570e+00 0.0000000000000000e+00  1.5398477169208971e+00 1.6045432920358984e+00 0.0000000000000000e+00  1.5477631868034596e+00 1.5814820968866661e+00 0.0000000000000000e+00  1.5508738336316334e+00 1.6344226300074227e+00 0.0000000000000000e+00  1.5596749454942227e+00 1.6102711268568388e+00 0.0000000000000000e+00  1.5628560264782514e+00 1.6681013284331294e+00 0.0000000000000000e+00  1.5711245825428211e+00 1.6329789084110782e+00 0.0000000000000000e+00  1.5743496662770664e+00 1.7044824842315534e+00 0.0000000000000000e+00  1.5834038389495830e+00 1.6601892026728062e+00 0.0000000000000000e+00  1.5856149212976709e+00 1.7314099665369673e+00 0.0000000000000000e+00  1.5949394077116885e+00 1.6948611635306552e+00 0.0000000000000000e+00  1.5978536960317242e+00 1.7580621321681036e+00 0.0000000000000000e+00  1.6061738174271909e+00 1.7227233836430758e+00 0.0000000000000000e+00  1.6093431823655127e+00 1.7906204815023401e+00 0.0000000000000000e+00  1.6182738687292693e+00 1.7511596459341980e+00 0.0000000000000000e+00  1.6207906262888572e+00 1.8144478527998111e+00 0.0000000000000000e+00  1.6293008122659804e+00 1.7889570585402637e+00 0.0000000000000000e+00  1.6332371753760808e+00 1.8347704772065765e+00 0.0000000000000000e+00  1.6403361809281614e+00 1.8215724166695804e+00 0.0000000000000000e+00  1.6444157653388887e+00 1.8621888684862202e+00 0.0000000000000000e+00  1.6524477893933558e+00 1.8508822389238635e+00 0.0000000000000000e+00  1.6557124744173486e+00 1.8854681979675776e+00 0.0000000000000000e+00  1.6632619962882182e+00 1.8852611103587200e+00 0.0000000000000000e+00  1.6683822591287958e+00 1.9061467235520315e+00 0.0000000000000000e+00  1.6747875017136900e+00 1.9139142811589520e+00 0.0000000000000000e+00  1.6807721534790345e+00 1.9298712139170804e+00 0.0000000000000000e+00  1.6893991424302053e+00 1.9358576955680038e+00 0.0000000000000000e+00  1.6970935778237179e+00 1.9441511029436691e+00 0.0000000000000000e+00  1.7079584696535484e+00 1.9506710874435718e+00 0.0000000000000000e+00  1.7223417263090421e+00 1.9435719693292459e+00 0.0000000000000000e+00  1.7361399439023002e+00 1.9462454867966386e+00 0.0000000000000000e+00  1.7562716104444358e+00 1.9292181058311160e+00 0.0000000000000000e+00  1.7730426516529074e+00 1.9276727291943383e+00 0.0000000000000000e+00  1.7940101030871376e+00 1.9094145576094630e+00 0.0000000000000000e+00  1.8051967937243560e+00 1.9162242180138473e+00 0.0000000000000000e+00  1.8229035235918014e+00 1.9061471842848441e+00 0.0000000000000000e+00  1.8233814985039116e+00 1.9286031134177917e+00 0.0000000000000000e+00  1.8306770167226649e+00 1.9365873916976291e+00 0.0000000000000000e+00  1.8161389173320419e+00 1.9900359693457164e+00 0.0000000000000000e+00  1.7943226449815635e+00 2.0446434501752049e+00 0.0000000000000000e+00  1.7393941220167199e+00 2.1670166564671249e+00 0.0000000000000000e+00  1.6647120199434846e+00 2.2983472604333826e+00 0.0000000000000000e+00  1.6883407041980787e+00 2.2332098251140340e+00 0.0000000000000000e+00  2.2835759736434187e+00 8.6432043984849327e-01 0.0000000000000000e+00  2.8187023581806594e+00 -1.1088600695488968e-01 0.0000000000000000e+00  2.8937445592888484e+00 -2.2188714337786553e-01 0.0000000000000000e+00  2.8501185507538613e+00 -1.5917864474675500e-01 0.0000000000000000e+00  2.8951258728294595e+00 -1.9975030130345386e-01 0.0000000000000000e+00  2.9011142584757241e+00 -1.9761006890182176e-01 0.0000000000000000e+00  2.9076266755179043e+00 -1.8986257245359120e-01 0.0000000000000000e+00  2.9105062966080562e+00 -1.8050279121293883e-01 0.0000000000000000e+00  2.9190279760738913e+00 -1.7305330869278618e-01 0.0000000000000000e+00  2.9141690122473025e+00 -1.5599751125173036e-01 0.0000000000000000e+00  2.9308751747718849e+00 -1.6370070333559955e-01 0.0000000000000000e+00  2.9260334400536951e+00 -1.4609123685164929e-01 0.0000000000000000e+00  2.9367243527770661e+00 -1.4849433081713326e-01 0.0000000000000000e+00  2.9343262809240480e+00 -1.3356632380903743e-01 0.0000000000000000e+00  2.9437017592198345e+00 -1.3533548956168684e-01 0.0000000000000000e+00  2.9404409202905160e+00 -1.2217538139582321e-01 0.0000000000000000e+00  2.9510760714257747e+00 -1.2502076513804783e-01 0.0000000000000000e+00  2.9457431796718230e+00 -1.0976914714563105e-01 0.0000000000000000e+00  2.9554473015563869e+00 -1.1285904776514488e-01 0.0000000000000000e+00  2.9509997794454201e+00 -9.8534476636561980e-02 0.0000000000000000e+00  2.9593145223542194e+00 -1.0111553015042628e-01 0.0000000000000000e+00  2.9541936798913473e+00 -8.7609135410477948e-02 0.0000000000000000e+00  2.9629126294919179e+00 -8.9590854373848089e-02 0.0000000000000000e+00  2.9565296783175845e+00 -7.8001540173678552e-02 0.0000000000000000e+00  2.9648997385728699e+00 -7.8298219815194608e-02 0.0000000000000000e+00  2.9586458322163822e+00 -6.9242897572482642e-02 0.0000000000000000e+00  2.9664613338718242e+00 -6.8558117384946937e-02 0.0000000000000000e+00  2.9593865524051188e+00 -6.0315080955360874e-02 0.0000000000000000e+00  2.9678098811202025e+00 -5.9776036793753054e-02 0.0000000000000000e+00  2.9601283181637421e+00 -5.3022434577259359e-02 0.0000000000000000e+00  2.9680130180730329e+00 -5.1207696818220134e-02 0.0000000000000000e+00  2.9608723453511807e+00 -4.7123017064207379e-02 0.0000000000000000e+00  2.9685071759704011e+00 -4.4160442612063318e-02 0.0000000000000000e+00  2.9605892331627075e+00 -4.0676367734656341e-02 0.0000000000000000e+00  2.9692685684011222e+00 -4.0362352037110499e-02 0.0000000000000000e+00  2.9607359893702516e+00 -3.6798525543875082e-02 0.0000000000000000e+00  2.9690640058423843e+00 -4.0728839516657872e-02 0.0000000000000000e+00  2.9613986419892830e+00 -3.8479363802751201e-02 0.0000000000000000e+00  2.9692030119802983e+00 -4.7113473503474598e-02 0.0000000000000000e+00  2.9612406593013243e+00 -4.1415289237767730e-02 0.0000000000000000e+00  2.9698804971376740e+00 -5.1548230279813374e-02 0.0000000000000000e+00  2.9614833382208556e+00 -3.9471634732963883e-02 0.0000000000000000e+00  2.9697392448976063e+00 -4.7000857141446799e-02 0.0000000000000000e+00  2.9623179243390090e+00 -3.1359695947463975e-02 0.0000000000000000e+00  2.9699175011436427e+00 -3.8104394736074625e-02 0.0000000000000000e+00  2.9624220017412326e+00 -2.1152908183287522e-02 0.0000000000000000e+00  2.9704919808872172e+00 -2.9004861485844514e-02 0.0000000000000000e+00  2.9628835649154270e+00 -1.5463622864499980e-02 0.0000000000000000e+00  2.9703838018804016e+00 -2.2318611769085249e-02 0.0000000000000000e+00  2.9635149599457460e+00 -1.0666040055640391e-02 0.0000000000000000e+00  2.9707481768200128e+00 -2.2468035687016084e-02 0.0000000000000000e+00  2.9633871191525705e+00 -7.1025763154431683e-03 0.0000000000000000e+00  2.9712541807406874e+00 -2.4126918256479557e-02 0.0000000000000000e+00  2.9636019564964950e+00 -8.4258804655483535e-03 0.0000000000000000e+00  2.9711878500961215e+00 -2.5207375964668058e-02 0.0000000000000000e+00  2.9637008358924644e+00 -1.3361497688381655e-02 0.0000000000000000e+00  2.9716460627294601e+00 -2.4058975637429335e-02 0.0000000000000000e+00  2.9630651177715253e+00 -2.0791036563177864e-02 0.0000000000000000e+00  2.9721832170583848e+00 -2.1860963321816883e-02 0.0000000000000000e+00  2.9627586409121771e+00 -2.5893698493715454e-02 0.0000000000000000e+00  2.9722326889360131e+00 -1.7638662271414300e-02 0.0000000000000000e+00  2.9624126646887863e+00 -2.7310615682504074e-02 0.0000000000000000e+00  2.9727697738466929e+00 -1.1366918248601454e-02 0.0000000000000000e+00  2.9615493874917762e+00 -2.2440943288447025e-02 0.0000000000000000e+00  2.9734077865896995e+00 -9.8836972787751005e-03 0.0000000000000000e+00  2.9611153628960341e+00 -2.0996888319304099e-02 0.0000000000000000e+00  2.9736589429919595e+00 -2.7776114462028715e-02 0.0000000000000000e+00  2.9607244195256270e+00 -4.8325811747203497e-02 0.0000000000000000e+00  2.9742692721415978e+00 -6.2283011018899576e-02 0.0000000000000000e+00  2.9599321779170809e+00 -7.4685722386417616e-02 0.0000000000000000e+00  2.9749574848709095e+00 -7.3578021654259237e-02 0.0000000000000000e+00  2.9596855028501836e+00 -6.9529176009139729e-02 0.0000000000000000e+00  2.9754125272490284e+00 -5.2883553306000218e-02 0.0000000000000000e+00  2.9595920413941683e+00 -5.8569579794322167e-02 0.0000000000000000e+00  2.9762826947245014e+00 -2.8721594209985848e-02 0.0000000000000000e+00  2.9592477514518407e+00 0.0000000000000000e+00 0.0000000000000000e+00  1.1905656809678116e+00 0.0000000000000000e+00 2.1055646444966165e-02  1.1906988931854243e+00 2.8398645413313262e-02 5.6222814463726990e-03  1.1876035394067270e+00 4.8474720720417183e-02 -1.4392873245685908e-02  1.1922291081989562e+00 7.6495564279612127e-02 -1.5966120113249726e-02  1.1887291375330022e+00 1.1426818358276208e-01 3.1015247993616362e-02  1.1892987753203828e+00 1.3228528997236547e-01 -3.6687974138208589e-02  1.1908933715498793e+00 1.8706241090801157e-01 3.3753666934168487e-02  1.1906094055021788e+00 1.7933466674886192e-01 -3.2640171029011941e-02  1.1881569443564208e+00 2.5514305926665648e-01 3.5482878624535467e-02  1.1932085857868493e+00 2.4507791843867688e-01 -4.0549781316092617e-02  1.1893175107451033e+00 3.1052891469336169e-01 4.0514114369360213e-02  1.1911241474211927e+00 3.0341671787144520e-01 -3.8438989228200465e-02  1.1917626378516180e+00 3.7883234616926231e-01 3.7645273931035186e-02  1.1928144820341833e+00 3.6069977505939838e-01 -3.9341576984086850e-02  1.1899902424707578e+00 4.3252002165752346e-01 3.5328039177515827e-02  1.1954964458274018e+00 4.2989534284320780e-01 -2.4215628634189110e-02  1.1923790594850499e+00 4.8097664342176294e-01 1.1818202765895834e-02  1.1940475693494612e+00 4.9388145360935182e-01 -6.8472492098902282e-03  1.1960533376534954e+00 5.3385333845598404e-01 4.5021136807352809e-03  1.1966893020251679e+00 5.5558201531268891e-01 8.1910796187233375e-04  1.1963805274941961e+00 5.7928110885599171e-01 -9.7032853529891612e-03  1.2008852309465576e+00 6.1606751047033370e-01 1.3713779010493837e-02  1.2011693587827832e+00 6.2906436130127052e-01 -1.3613466652842183e-02  1.2026760084942842e+00 6.6462586167089610e-01 1.5215903071896781e-02  1.2079288059774582e+00 6.7248658056354582e-01 -1.8876319636037996e-02  1.2094695236246378e+00 7.1310780355576897e-01 1.9915273795973940e-02  1.2130438079128405e+00 7.1177897795034406e-01 -1.8807616703943198e-02  1.2186243583981713e+00 7.5026867485962501e-01 1.9465956929288635e-02  1.2229137932814418e+00 7.4886992766416327e-01 -2.0001524112542888e-02  1.2263654416710335e+00 7.8204377879911335e-01 1.8827755595455794e-02  1.2344482811384694e+00 7.8054068392318510e-01 -1.7773354750657066e-02  1.2378441046735058e+00 8.1390502229682238e-01 1.7837168547336323e-02  1.2438344616288890e+00 8.0907613425196900e-01 -1.7172979249467684e-02  1.2500024267892009e+00 8.4072167089099303e-01 1.5763851711857940e-02  1.2556997867373263e+00 8.4156028613727929e-01 -1.4715940032545864e-02  1.2597968596578162e+00 8.6746086494031538e-01 1.3876645631136468e-02  1.2677108438244145e+00 8.7076838768423837e-01 -1.2822028093759597e-02  1.2715062015858138e+00 8.9752488790862794e-01 1.1805531404261868e-02  1.2776513146390789e+00 8.9931742575201634e-01 -1.1274872663444060e-02  1.2833648201303991e+00 9.2578932775513623e-01 1.0531189987878303e-02  1.2891776957773866e+00 9.3155255040629148e-01 -9.8308572421256808e-03  1.2936151606573179e+00 9.5338197666314761e-01 9.2878792423554679e-03  1.3008993549567542e+00 9.6143261571723582e-01 -9.0387326509120645e-03  1.3050832876869733e+00 9.8466557301000313e-01 8.8897620815773428e-03  1.3114780505289156e+00 9.8980287867017158e-01 -8.8187472862172253e-03  1.3166836640257220e+00 1.0152676828981160e+00 8.7995361511956516e-03  1.3230217220298779e+00 1.0211816562598830e+00 -8.7910604713965675e-03  1.3274795554057950e+00 1.0442441824757487e+00 8.9478139596665708e-03  1.3347372489246536e+00 1.0517107638383192e+00 -9.1858468365556556e-03  1.3389197363863958e+00 1.0760040166427334e+00 9.6163839763779204e-03  1.3460708182540755e+00 1.0800792157550643e+00 -1.0031386711287798e-02  1.3504019122086797e+00 1.1084442014347200e+00 1.0604916311005026e-02  1.3578882156617680e+00 1.1101359545406690e+00 -1.1080144405704572e-02  1.3617343809083937e+00 1.1387197897129757e+00 1.1737024664358353e-02  1.3696989674352158e+00 1.1410046644978376e+00 -1.2310553801825655e-02  1.3733061165750706e+00 1.1704466376595521e+00 1.2892578612938391e-02  1.3816035319441731e+00 1.1697925374418487e+00 -1.3338648656657119e-02  1.3847479567630823e+00 1.2036195632132174e+00 1.3727349787895951e-02  1.3935320621445149e+00 1.1994916647662974e+00 -1.4034305525108232e-02  1.3965659596345990e+00 1.2343142975067922e+00 1.4244650466223242e-02  1.4051431947374386e+00 1.2314397628911939e+00 -1.4353223439215320e-02  1.4084117818767177e+00 1.2647818660416219e+00 1.4247145286626253e-02  1.4171937284272909e+00 1.2619361006244576e+00 -1.3936250796323419e-02  1.4199410270443436e+00 1.2967110471585892e+00 1.3510809089491300e-02  1.4290536190560492e+00 1.2925970222749823e+00 -1.2960460607413304e-02  1.4321515412752703e+00 1.3265145891076520e+00 1.2464317164297460e-02  1.4403826427774533e+00 1.3256870600036703e+00 -1.1789407162253254e-02  1.4442881034771042e+00 1.3551004835506357e+00 1.1150006209719792e-02  1.4523309157919404e+00 1.3578472532002965e+00 -1.0093531626004149e-02  1.4559804275076960e+00 1.3852627450259947e+00 9.1411064353179323e-03  1.4640558545005364e+00 1.3888013875841947e+00 -7.7823268671953485e-03  1.4683858796463631e+00 1.4148854193219587e+00 6.8315031030633184e-03  1.4753117381606335e+00 1.4212164783319892e+00 -5.5436071837768356e-03  1.4805151714535172e+00 1.4427610356956648e+00 4.8233377572592584e-03  1.4873444614152076e+00 1.4540266468766545e+00 -3.5115397249162201e-03  1.4921775970355486e+00 1.4713190091515782e+00 2.7349112859145828e-03  1.4990230234790451e+00 1.4850207441713215e+00 -1.1849760858396606e-03  1.5046595639141518e+00 1.5011608046844833e+00 3.5330194442797174e-04  1.5102570480829696e+00 1.5157924154988829e+00 1.0710596228977343e-03  1.5166951713635641e+00 1.5291684861158383e+00 -1.5892772779231388e-03  1.5223940668508127e+00 1.5488483217610283e+00 2.6338909630047548e-03  1.5282330534640916e+00 1.55577125801853