<?xml version="1.0"?>
<VTKFile type="UnstructuredGrid"  version="0.1"  >
<UnstructuredGrid>
<Piece  NumberOfPoints="8241" NumberOfCells="16000">
<Points>
<DataArray  type="Float64"  NumberOfComponents="3"  format="ascii">-5 -1 0  -4.95 -1 0  -4.9 -1 0  -4.85 -1 0  -4.8 -1 0  -4.75 -1 0  -4.7 -1 0  -4.65 -1 0  -4.6 -1 0  -4.55 -1 0  -4.5 -1 0  -4.45 -1 0  -4.4 -1 0  -4.35 -1 0  -4.3 -1 0  -4.25 -1 0  -4.2 -1 0  -4.15 -1 0  -4.1 -1 0  -4.05 -1 0  -4 -1 0  -3.95 -1 0  -3.9 -1 0  -3.85 -1 0  -3.8 -1 0  -3.75 -1 0  -3.7 -1 0  -3.65 -1 0  -3.6 -1 0  -3.55 -1 0  -3.5 -1 0  -3.45 -1 0  -3.4 -1 0  -3.35 -1 0  -3.3 -1 0  -3.25 -1 0  -3.2 -1 0  -3.15 -1 0  -3.1 -1 0  -3.05 -1 0  -3 -1 0  -2.95 -1 0  -2.9 -1 0  -2.85 -1 0  -2.8 -1 0  -2.75 -1 0  -2.7 -1 0  -2.65 -1 0  -2.6 -1 0  -2.55 -1 0  -2.5 -1 0  -2.45 -1 0  -2.4 -1 0  -2.35 -1 0  -2.3 -1 0  -2.25 -1 0  -2.2 -1 0  -2.15 -1 0  -2.1 -1 0  -2.05 -1 0  -2 -1 0  -1.95 -1 0  -1.9 -1 0  -1.85 -1 0  -1.8 -1 0  -1.75 -1 0  -1.7 -1 0  -1.65 -1 0  -1.6 -1 0  -1.55 -1 0  -1.5 -1 0  -1.45 -1 0  -1.4 -1 0  -1.35 -1 0  -1.3 -1 0  -1.25 -1 0  -1.2 -1 0  -1.15 -1 0  -1.1 -1 0  -1.05 -1 0  -1 -1 0  -0.9500000000000002 -1 0  -0.9000000000000004 -1 0  -0.8499999999999996 -1 0  -0.7999999999999998 -1 0  -0.75 -1 0  -0.7000000000000002 -1 0  -0.6500000000000004 -1 0  -0.5999999999999996 -1 0  -0.5499999999999998 -1 0  -0.5 -1 0  -0.4500000000000002 -1 0  -0.4000000000000004 -1 0  -0.3499999999999996 -1 0  -0.2999999999999998 -1 0  -0.25 -1 0  -0.2000000000000002 -1 0  -0.1500000000000004 -1 0  -0.09999999999999964 -1 0  -0.04999999999999982 -1 0  0 -1 0  0.04999999999999982 -1 0  0.09999999999999964 -1 0  0.1500000000000004 -1 0  0.2000000000000002 -1 0  0.25 -1 0  0.2999999999999998 -1 0  0.3499999999999996 -1 0  0.4000000000000004 -1 0  0.4500000000000002 -1 0  0.5 -1 0  0.5499999999999998 -1 0  0.5999999999999996 -1 0  0.6500000000000004 -1 0  0.7000000000000002 -1 0  0.75 -1 0  0.7999999999999998 -1 0  0.8499999999999996 -1 0  0.9000000000000004 -1 0  0.9500000000000002 -1 0  1 -1 0  1.05 -1 0  1.1 -1 0  1.15 -1 0  1.2 -1 0  1.25 -1 0  1.3 -1 0  1.35 -1 0  1.4 -1 0  1.45 -1 0  1.5 -1 0  1.55 -1 0  1.6 -1 0  1.65 -1 0  1.7 -1 0  1.75 -1 0  1.8 -1 0  1.85 -1 0  1.9 -1 0  1.95 -1 0  2 -1 0  2.05 -1 0  2.1 -1 0  2.15 -1 0  2.2 -1 0  2.25 -1 0  2.3 -1 0  2.35 -1 0  2.4 -1 0  2.45 -1 0  2.5 -1 0  2.55 -1 0  2.6 -1 0  2.65 -1 0  2.7 -1 0  2.75 -1 0  2.8 -1 0  2.85 -1 0  2.9 -1 0  2.95 -1 0  3 -1 0  3.050000000000001 -1 0  3.1 -1 0  3.15 -1 0  3.199999999999999 -1 0  3.25 -1 0  3.300000000000001 -1 0  3.35 -1 0  3.4 -1 0  3.449999999999999 -1 0  3.5 -1 0  3.550000000000001 -1 0  3.6 -1 0  3.65 -1 0  3.699999999999999 -1 0  3.75 -1 0  3.800000000000001 -1 0  3.85 -1 0  3.9 -1 0  3.949999999999999 -1 0  4 -1 0  4.050000000000001 -1 0  4.1 -1 0  4.15 -1 0  4.199999999999999 -1 0  4.25 -1 0  4.300000000000001 -1 0  4.35 -1 0  4.4 -1 0  4.449999999999999 -1 0  4.5 -1 0  4.550000000000001 -1 0  4.6 -1 0  4.65 -1 0  4.699999999999999 -1 0  4.75 -1 0  4.800000000000001 -1 0  4.85 -1 0  4.9 -1 0  4.949999999999999 -1 0  5 -1 0  -5 -0.95 0  -4.95 -0.95 0  -4.9 -0.95 0  -4.85 -0.95 0  -4.8 -0.95 0  -4.75 -0.95 0  -4.7 -0.95 0  -4.65 -0.95 0  -4.6 -0.95 0  -4.55 -0.95 0  -4.5 -0.95 0  -4.45 -0.95 0  -4.4 -0.95 0  -4.35 -0.95 0  -4.3 -0.95 0  -4.25 -0.95 0  -4.2 -0.95 0  -4.15 -0.95 0  -4.1 -0.95 0  -4.05 -0.95 0  -4 -0.95 0  -3.95 -0.95 0  -3.9 -0.95 0  -3.85 -0.95 0  -3.8 -0.95 0  -3.75 -0.95 0  -3.7 -0.95 0  -3.65 -0.95 0  -3.6 -0.95 0  -3.55 -0.95 0  -3.5 -0.95 0  -3.45 -0.95 0  -3.4 -0.95 0  -3.35 -0.95 0  -3.3 -0.95 0  -3.25 -0.95 0  -3.2 -0.95 0  -3.15 -0.95 0  -3.1 -0.95 0  -3.05 -0.95 0  -3 -0.95 0  -2.95 -0.95 0  -2.9 -0.95 0  -2.85 -0.95 0  -2.8 -0.95 0  -2.75 -0.95 0  -2.7 -0.95 0  -2.65 -0.95 0  -2.6 -0.95 0  -2.55 -0.95 0  -2.5 -0.95 0  -2.45 -0.95 0  -2.4 -0.95 0  -2.35 -0.95 0  -2.3 -0.95 0  -2.25 -0.95 0  -2.2 -0.95 0  -2.15 -0.95 0  -2.1 -0.95 0  -2.05 -0.95 0  -2 -0.95 0  -1.95 -0.95 0  -1.9 -0.95 0  -1.85 -0.95 0  -1.8 -0.95 0  -1.75 -0.95 0  -1.7 -0.95 0  -1.65 -0.95 0  -1.6 -0.95 0  -1.55 -0.95 0  -1.5 -0.95 0  -1.45 -0.95 0  -1.4 -0.95 0  -1.35 -0.95 0  -1.3 -0.95 0  -1.25 -0.95 0  -1.2 -0.95 0  -1.15 -0.95 0  -1.1 -0.95 0  -1.05 -0.95 0  -1 -0.95 0  -0.9500000000000002 -0.95 0  -0.9000000000000004 -0.95 0  -0.8499999999999996 -0.95 0  -0.7999999999999998 -0.95 0  -0.75 -0.95 0  -0.7000000000000002 -0.95 0  -0.6500000000000004 -0.95 0  -0.5999999999999996 -0.95 0  -0.5499999999999998 -0.95 0  -0.5 -0.95 0  -0.4500000000000002 -0.95 0  -0.4000000000000004 -0.95 0  -0.3499999999999996 -0.95 0  -0.2999999999999998 -0.95 0  -0.25 -0.95 0  -0.2000000000000002 -0.95 0  -0.1500000000000004 -0.95 0  -0.09999999999999964 -0.95 0  -0.04999999999999982 -0.95 0  0 -0.95 0  0.04999999999999982 -0.95 0  0.09999999999999964 -0.95 0  0.1500000000000004 -0.95 0  0.2000000000000002 -0.95 0  0.25 -0.95 0  0.2999999999999998 -0.95 0  0.3499999999999996 -0.95 0  0.4000000000000004 -0.95 0  0.4500000000000002 -0.95 0  0.5 -0.95 0  0.5499999999999998 -0.95 0  0.5999999999999996 -0.95 0  0.6500000000000004 -0.95 0  0.7000000000000002 -0.95 0  0.75 -0.95 0  0.7999999999999998 -0.95 0  0.8499999999999996 -0.95 0  0.9000000000000004 -0.95 0  0.9500000000000002 -0.95 0  1 -0.95 0  1.05 -0.95 0  1.1 -0.95 0  1.15 -0.95 0  1.2 -0.95 0  1.25 -0.95 0  1.3 -0.95 0  1.35 -0.95 0  1.4 -0.95 0  1.45 -0.95 0  1.5 -0.95 0  1.55 -0.95 0  1.6 -0.95 0  1.65 -0.95 0  1.7 -0.95 0  1.75 -0.95 0  1.8 -0.95 0  1.85 -0.95 0  1.9 -0.95 0  1.95 -0.95 0  2 -0.95 0  2.05 -0.95 0  2.1 -0.95 0  2.15 -0.95 0  2.2 -0.95 0  2.25 -0.95 0  2.3 -0.95 0  2.35 -0.95 0  2.4 -0.95 0  2.45 -0.95 0  2.5 -0.95 0  2.55 -0.95 0  2.6 -0.95 0  2.65 -0.95 0  2.7 -0.95 0  2.75 -0.95 0  2.8 -0.95 0  2.85 -0.95 0  2.9 -0.95 0  2.95 -0.95 0  3 -0.95 0  3.050000000000001 -0.95 0  3.1 -0.95 0  3.15 -0.95 0  3.199999999999999 -0.95 0  3.25 -0.95 0  3.300000000000001 -0.95 0  3.35 -0.95 0  3.4 -0.95 0  3.449999999999999 -0.95 0  3.5 -0.95 0  3.550000000000001 -0.95 0  3.6 -0.95 0  3.65 -0.95 0  3.699999999999999 -0.95 0  3.75 -0.95 0  3.800000000000001 -0.95 0  3.85 -0.95 0  3.9 -0.95 0  3.949999999999999 -0.95 0  4 -0.95 0  4.050000000000001 -0.95 0  4.1 -0.95 0  4.15 -0.95 0  4.199999999999999 -0.95 0  4.25 -0.95 0  4.300000000000001 -0.95 0  4.35 -0.95 0  4.4 -0.95 0  4.449999999999999 -0.95 0  4.5 -0.95 0  4.550000000000001 -0.95 0  4.6 -0.95 0  4.65 -0.95 0  4.699999999999999 -0.95 0  4.75 -0.95 0  4.800000000000001 -0.95 0  4.85 -0.95 0  4.9 -0.95 0  4.949999999999999 -0.95 0  5 -0.95 0  -5 -0.9 0  -4.95 -0.9 0  -4.9 -0.9 0  -4.85 -0.9 0  -4.8 -0.9 0  -4.75 -0.9 0  -4.7 -0.9 0  -4.65 -0.9 0  -4.6 -0.9 0  -4.55 -0.9 0  -4.5 -0.9 0  -4.45 -0.9 0  -4.4 -0.9 0  -4.35 -0.9 0  -4.3 -0.9 0  -4.25 -0.9 0  -4.2 -0.9 0  -4.15 -0.9 0  -4.1 -0.9 0  -4.05 -0.9 0  -4 -0.9 0  -3.95 -0.9 0  -3.9 -0.9 0  -3.85 -0.9 0  -3.8 -0.9 0  -3.75 -0.9 0  -3.7 -0.9 0  -3.65 -0.9 0  -3.6 -0.9 0  -3.55 -0.9 0  -3.5 -0.9 0  -3.45 -0.9 0  -3.4 -0.9 0  -3.35 -0.9 0  -3.3 -0.9 0  -3.25 -0.9 0  -3.2 -0.9 0  -3.15 -0.9 0  -3.1 -0.9 0  -3.05 -0.9 0  -3 -0.9 0  -2.95 -0.9 0  -2.9 -0.9 0  -2.85 -0.9 0  -2.8 -0.9 0  -2.75 -0.9 0  -2.7 -0.9 0  -2.65 -0.9 0  -2.6 -0.9 0  -2.55 -0.9 0  -2.5 -0.9 0  -2.45 -0.9 0  -2.4 -0.9 0  -2.35 -0.9 0  -2.3 -0.9 0  -2.25 -0.9 0  -2.2 -0.9 0  -2.15 -0.9 0  -2.1 -0.9 0  -2.05 -0.9 0  -2 -0.9 0  -1.95 -0.9 0  -1.9 -0.9 0  -1.85 -0.9 0  -1.8 -0.9 0  -1.75 -0.9 0  -1.7 -0.9 0  -1.65 -0.9 0  -1.6 -0.9 0  -1.55 -0.9 0  -1.5 -0.9 0  -1.45 -0.9 0  -1.4 -0.9 0  -1.35 -0.9 0  -1.3 -0.9 0  -1.25 -0.9 0  -1.2 -0.9 0  -1.15 -0.9 0  -1.1 -0.9 0  -1.05 -0.9 0  -1 -0.9 0  -0.9500000000000002 -0.9 0  -0.9000000000000004 -0.9 0  -0.8499999999999996 -0.9 0  -0.7999999999999998 -0.9 0  -0.75 -0.9 0  -0.7000000000000002 -0.9 0  -0.6500000000000004 -0.9 0  -0.5999999999999996 -0.9 0  -0.5499999999999998 -0.9 0  -0.5 -0.9 0  -0.4500000000000002 -0.9 0  -0.4000000000000004 -0.9 0  -0.3499999999999996 -0.9 0  -0.2999999999999998 -0.9 0  -0.25 -0.9 0  -0.2000000000000002 -0.9 0  -0.1500000000000004 -0.9 0  -0.09999999999999964 -0.9 0  -0.04999999999999982 -0.9 0  0 -0.9 0  0.04999999999999982 -0.9 0  0.09999999999999964 -0.9 0  0.1500000000000004 -0.9 0  0.2000000000000002 -0.9 0  0.25 -0.9 0  0.2999999999999998 -0.9 0  0.3499999999999996 -0.9 0  0.4000000000000004 -0.9 0  0.4500000000000002 -0.9 0  0.5 -0.9 0  0.5499999999999998 -0.9 0  0.5999999999999996 -0.9 0  0.6500000000000004 -0.9 0  0.7000000000000002 -0.9 0  0.75 -0.9 0  0.7999999999999998 -0.9 0  0.8499999999999996 -0.9 0  0.9000000000000004 -0.9 0  0.9500000000000002 -0.9 0  1 -0.9 0  1.05 -0.9 0  1.1 -0.9 0  1.15 -0.9 0  1.2 -0.9 0  1.25 -0.9 0  1.3 -0.9 0  1.35 -0.9 0  1.4 -0.9 0  1.45 -0.9 0  1.5 -0.9 0  1.55 -0.9 0  1.6 -0.9 0  1.65 -0.9 0  1.7 -0.9 0  1.75 -0.9 0  1.8 -0.9 0  1.85 -0.9 0  1.9 -0.9 0  1.95 -0.9 0  2 -0.9 0  2.05 -0.9 0  2.1 -0.9 0  2.15 -0.9 0  2.2 -0.9 0  2.25 -0.9 0  2.3 -0.9 0  2.35 -0.9 0  2.4 -0.9 0  2.45 -0.9 0  2.5 -0.9 0  2.55 -0.9 0  2.6 -0.9 0  2.65 -0.9 0  2.7 -0.9 0  2.75 -0.9 0  2.8 -0.9 0  2.85 -0.9 0  2.9 -0.9 0  2.95 -0.9 0  3 -0.9 0  3.050000000000001 -0.9 0  3.1 -0.9 0  3.15 -0.9 0  3.199999999999999 -0.9 0  3.25 -0.9 0  3.300000000000001 -0.9 0  3.35 -0.9 0  3.4 -0.9 0  3.449999999999999 -0.9 0  3.5 -0.9 0  3.550000000000001 -0.9 0  3.6 -0.9 0  3.65 -0.9 0  3.699999999999999 -0.9 0  3.75 -0.9 0  3.800000000000001 -0.9 0  3.85 -0.9 0  3.9 -0.9 0  3.949999999999999 -0.9 0  4 -0.9 0  4.050000000000001 -0.9 0  4.1 -0.9 0  4.15 -0.9 0  4.199999999999999 -0.9 0  4.25 -0.9 0  4.300000000000001 -0.9 0  4.35 -0.9 0  4.4 -0.9 0  4.449999999999999 -0.9 0  4.5 -0.9 0  4.550000000000001 -0.9 0  4.6 -0.9 0  4.65 -0.9 0  4.699999999999999 -0.9 0  4.75 -0.9 0  4.800000000000001 -0.9 0  4.85 -0.9 0  4.9 -0.9 0  4.949999999999999 -0.9 0  5 -0.9 0  -5 -0.85 0  -4.95 -0.85 0  -4.9 -0.85 0  -4.85 -0.85 0  -4.8 -0.85 0  -4.75 -0.85 0  -4.7 -0.85 0  -4.65 -0.85 0  -4.6 -0.85 0  -4.55 -0.85 0  -4.5 -0.85 0  -
[...]
<PointData  Vectors="f_15"> 
<DataArray  type="Float64"  Name="f_15"  NumberOfComponents="3" format="ascii">9.9879621993298855e+00 0.0000000000000000e+00 0.0000000000000000e+00  1.0006479208564436e+01 1.6575627785683701e-02 0.0000000000000000e+00  9.9893069231148814e+00 -2.0018863527760958e-02 0.0000000000000000e+00  1.0006791815803560e+01 1.3571666921679141e-02 0.0000000000000000e+00  9.9897390131036765e+00 -1.4087439236483099e-02 0.0000000000000000e+00  1.0007315071254473e+01 8.2354088652573671e-03 0.0000000000000000e+00  9.9906394558927740e+00 -9.3987694938035271e-03 0.0000000000000000e+00  1.0007198976761266e+01 6.5340726721047982e-03 0.0000000000000000e+00  9.9913829537379417e+00 -7.8924309617946931e-03 0.0000000000000000e+00  1.0007379888987968e+01 6.1507807453774228e-03 0.0000000000000000e+00  9.9918278460863359e+00 -6.5911168750538906e-03 0.0000000000000000e+00  1.0007039185013072e+01 5.0370707702259293e-03 0.0000000000000000e+00  9.9929054313008994e+00 -4.9495017415940312e-03 0.0000000000000000e+00  1.0006286718265141e+01 4.0454427695733649e-03 0.0000000000000000e+00  9.9935261913044666e+00 -4.1980769520921068e-03 0.0000000000000000e+00  1.0006168082049282e+01 3.8037254659189839e-03 0.0000000000000000e+00  9.9939090728658169e+00 -3.6411514575614410e-03 0.0000000000000000e+00  1.0005415545446795e+01 2.9082482057779880e-03 0.0000000000000000e+00  9.9950843500732365e+00 -2.3725607283276409e-03 0.0000000000000000e+00  1.0004483306440950e+01 1.9294278519662910e-03 0.0000000000000000e+00  9.9955000174160471e+00 -1.9069746918292355e-03 0.0000000000000000e+00  1.0004459568862648e+01 1.8727879407779836e-03 0.0000000000000000e+00  9.9957422364760102e+00 -1.6363728463364632e-03 0.0000000000000000e+00  1.0003669535583334e+01 1.1163668714258852e-03 0.0000000000000000e+00  9.9967886409867273e+00 -5.5004935472532501e-04 0.0000000000000000e+00  1.0002908231354512e+01 3.7281192384417338e-04 0.0000000000000000e+00  9.9968566885059005e+00 -3.1679007026290249e-04 0.0000000000000000e+00  1.0002994396604272e+01 5.9228167368724591e-04 0.0000000000000000e+00  9.9968866860357259e+00 -1.0007959861449127e-04 0.0000000000000000e+00  1.0002132176878979e+01 1.9861591404523582e-04 0.0000000000000000e+00  9.9974423756731614e+00 9.1669575267078998e-04 0.0000000000000000e+00  1.0001286482434157e+01 1.8210206704122949e-04 0.0000000000000000e+00  9.9968121103129075e+00 1.4180446239783605e-03 0.0000000000000000e+00  1.0000591293814610e+01 1.2379934612748956e-03 0.0000000000000000e+00  9.9958626324728499e+00 2.5976134099308947e-03 0.0000000000000000e+00  9.9983491418336961e+00 2.5457295329044333e-03 0.0000000000000000e+00  9.9941762721303622e+00 5.1384797846488160e-03 0.0000000000000000e+00  9.9950137006656909e+00 5.6401690936786573e-03 0.0000000000000000e+00  9.9899605846026418e+00 8.9836700879873319e-03 0.0000000000000000e+00  9.9893598868312381e+00 1.1468400180923627e-02 0.0000000000000000e+00  9.9829430596220821e+00 1.6192709834221782e-02 0.0000000000000000e+00  9.9792223132609781e+00 2.1045771475448491e-02 0.0000000000000000e+00  9.9708987682940666e+00 2.8281922640099082e-02 0.0000000000000000e+00  9.9633193163753067e+00 3.7141134847120220e-02 0.0000000000000000e+00  9.9510981228511035e+00 4.7501691285764668e-02 0.0000000000000000e+00  9.9384260218030125e+00 6.1932683919664944e-02 0.0000000000000000e+00  9.9213060622470284e+00 7.7335855877433662e-02 0.0000000000000000e+00  9.9013914666418064e+00 9.8563088090582784e-02 0.0000000000000000e+00  9.8777317291489215e+00 1.2043459835323259e-01 0.0000000000000000e+00  9.8496093619054097e+00 1.5063449855682406e-01 0.0000000000000000e+00  9.8174050415358280e+00 1.8023196970494515e-01 0.0000000000000000e+00  9.7795817122051609e+00 2.2040892715000487e-01 0.0000000000000000e+00  9.7382630460911166e+00 2.5978011991675787e-01 0.0000000000000000e+00  9.6893540584051419e+00 3.1060837904386496e-01 0.0000000000000000e+00  9.6379307772932439e+00 3.6025408643907980e-01 0.0000000000000000e+00  9.5782034754389045e+00 4.2303048526861831e-01 0.0000000000000000e+00  9.5159721320730970e+00 4.8313921950307032e-01 0.0000000000000000e+00  9.4452811031825288e+00 5.5734023263010579e-01 0.0000000000000000e+00  9.3732048386619553e+00 6.2883514088696324e-01 0.0000000000000000e+00  9.2916333358453276e+00 7.1377959330450125e-01 0.0000000000000000e+00  9.2101087594299447e+00 7.9560315160826667e-01 0.0000000000000000e+00  9.1192974533090396e+00 8.9169724761776170e-01 0.0000000000000000e+00  9.0287416826694553e+00 9.8283827401877089e-01 0.0000000000000000e+00  8.9295558411140625e+00 1.0883793917510032e+00 0.0000000000000000e+00  8.8318343991357668e+00 1.1893219227468839e+00 0.0000000000000000e+00  8.7248759552762536e+00 1.3029690729834671e+00 0.0000000000000000e+00  8.6209737978921996e+00 1.4116602880421212e+00 0.0000000000000000e+00  8.5081728169432083e+00 1.5342321221825190e+00 0.0000000000000000e+00  8.3986256479514960e+00 1.6491914897194517e+00 0.0000000000000000e+00  8.2809300451867340e+00 1.7782679622176902e+00 0.0000000000000000e+00  8.1676366587379423e+00 1.9009506015209932e+00 0.0000000000000000e+00  8.0453050192458200e+00 2.0352452782343584e+00 0.0000000000000000e+00  7.9292438604457969e+00 2.1620429273358597e+00 0.0000000000000000e+00  7.8039005796149326e+00 2.3047749069958554e+00 0.0000000000000000e+00  7.6852082988945494e+00 2.4345268021446911e+00 0.0000000000000000e+00  7.5576235190125534e+00 2.5795399172266680e+00 0.0000000000000000e+00  7.4378568527069593e+00 2.7189263317750516e+00 0.0000000000000000e+00  7.3078511641695743e+00 2.8649624954973660e+00 0.0000000000000000e+00  7.1877048085882889e+00 3.0048279657077002e+00 0.0000000000000000e+00  7.0567470411270872e+00 3.1602385392854613e+00 0.0000000000000000e+00  6.9357855568351141e+00 3.3024563730212639e+00 0.0000000000000000e+00  6.8047453660638553e+00 3.4554527373512158e+00 0.0000000000000000e+00  6.6838890431597919e+00 3.6051864801294387e+00 0.0000000000000000e+00  6.5529261875771887e+00 3.7613695000876586e+00 0.0000000000000000e+00  6.4324855977083359e+00 3.9107877721154645e+00 0.0000000000000000e+00  6.3025520371893888e+00 4.0698175602552240e+00 0.0000000000000000e+00  6.1822599998867132e+00 4.2216513080104603e+00 0.0000000000000000e+00  6.0540509801181965e+00 4.3818487917824553e+00 0.0000000000000000e+00  5.9343177083731300e+00 4.5382013777132357e+00 0.0000000000000000e+00  5.8078547150833666e+00 4.6973314650794462e+00 0.0000000000000000e+00  5.6889483862228136e+00 4.8547144577221886e+00 0.0000000000000000e+00  5.5647838383495953e+00 5.0166976242362473e+00 0.0000000000000000e+00  5.4463177932616107e+00 5.1771423251268933e+00 0.0000000000000000e+00  5.3246639683108778e+00 5.3379983274820608e+00 0.0000000000000000e+00  5.2075103555309372e+00 5.5000969086857747e+00 0.0000000000000000e+00  5.0888165532536913e+00 5.6618074895295987e+00 0.0000000000000000e+00  4.9721254903468397e+00 5.8264221888142282e+00 0.0000000000000000e+00  4.8564702092634731e+00 5.9868274601761033e+00 0.0000000000000000e+00  4.7421953956643073e+00 6.1528000789599702e+00 0.0000000000000000e+00  4.6299023742766066e+00 6.3134457685330263e+00 0.0000000000000000e+00  4.5155839969657752e+00 6.4810149133839667e+00 0.0000000000000000e+00  4.4177371225899495e+00 6.6252236265769033e+00 0.0000000000000000e+00  4.2896605349639207e+00 6.8188134167354795e+00 0.0000000000000000e+00  4.1955817670690694e+00 6.9598547569099436e+00 0.0000000000000000e+00  4.0865593414431443e+00 7.1272372445315337e+00 0.0000000000000000e+00  3.9969255012374991e+00 7.2686312128636414e+00 0.0000000000000000e+00  3.9006539892002796e+00 7.4184208836142966e+00 0.0000000000000000e+00  3.8155431052283380e+00 7.5525734965721725e+00 0.0000000000000000e+00  3.7504512522111200e+00 7.6594307641635799e+00 0.0000000000000000e+00  3.7931565547248853e+00 7.5911557958747480e+00 0.0000000000000000e+00  3.8635192857337288e+00 7.4765880958066200e+00 0.0000000000000000e+00  3.9054549730266888e+00 7.4101099931895424e+00 0.0000000000000000e+00  3.9184530772107613e+00 7.3887859587119422e+00 0.0000000000000000e+00  3.9294090657001441e+00 7.3718862978633295e+00 0.0000000000000000e+00  3.9329982417704157e+00 7.3652053800824975e+00 0.0000000000000000e+00  3.9393915354184226e+00 7.3554176287872455e+00 0.0000000000000000e+00  3.9407952135877196e+00 7.3521022002784129e+00 0.0000000000000000e+00  3.9450326979496442e+00 7.3456353611566980e+00 0.0000000000000000e+00  3.9456526369834197e+00 7.3437256214672244e+00 0.0000000000000000e+00  3.9484597309470519e+00 7.3392142442741592e+00 0.0000000000000000e+00  3.9487371810134353e+00 7.3378472252624700e+00 0.0000000000000000e+00  3.9504674419247574e+00 7.3347222677989841e+00 0.0000000000000000e+00  3.9507151888194878e+00 7.3332669422372962e+00 0.0000000000000000e+00  3.9517821178031411e+00 7.3307562176115573e+00 0.0000000000000000e+00  3.9519675773145968e+00 7.3290952038931598e+00 0.0000000000000000e+00  3.9526020181488919e+00 7.3265302048101297e+00 0.0000000000000000e+00  3.9527062159072663e+00 7.3243060962641620e+00 0.0000000000000000e+00  3.9530286021674192e+00 7.3213332255897940e+00 0.0000000000000000e+00  3.9530664413460430e+00 7.3182524285537847e+00 0.0000000000000000e+00  3.9531891245567672e+00 7.3146817435221614e+00 0.0000000000000000e+00  3.9531084770092697e+00 7.3109917711960835e+00 0.0000000000000000e+00  3.9530593031643257e+00 7.3069798815390117e+00 0.0000000000000000e+00  3.9527773411760045e+00 7.3030110786252687e+00 0.0000000000000000e+00  3.9523988387542741e+00 7.2988933486963967e+00 0.0000000000000000e+00  3.9515534803889589e+00 7.2945168692430116e+00 0.0000000000000000e+00  3.9502097551998783e+00 7.2896562346668654e+00 0.0000000000000000e+00  3.9473950219590717e+00 7.2830509082917851e+00 0.0000000000000000e+00  3.9426447851070030e+00 7.2736878438558410e+00 0.0000000000000000e+00  3.9329098045859912e+00 7.2571190901679747e+00 0.0000000000000000e+00  3.9159647359142982e+00 7.2294875987940861e+00 0.0000000000000000e+00  3.8820585283998477e+00 7.1754924692605808e+00 0.0000000000000000e+00  3.8229289576273677e+00 7.0810974616387661e+00 0.0000000000000000e+00  3.7082080197532790e+00 6.8944382757101321e+00 0.0000000000000000e+00  3.5136004143961603e+00 6.5646245630944033e+00 0.0000000000000000e+00  3.1640539273585460e+00 5.9248005889436266e+00 0.0000000000000000e+00  2.6398184801919617e+00 4.8358083838007824e+00 0.0000000000000000e+00  1.8603705582125489e+00 2.7812431859384130e+00 0.0000000000000000e+00  1.1829707446378570e+00 5.8220162480026627e-01 0.0000000000000000e+00  1.0134423175415237e+00 4.3550386635344135e-02 0.0000000000000000e+00  1.0006976794222400e+00 2.0810794751154023e-03 0.0000000000000000e+00  1.0000025114701485e+00 3.8453033568052890e-04 0.0000000000000000e+00  1.0000481105547929e+00 -1.2229363440865404e-04 0.0000000000000000e+00  9.9996715102098266e-01 1.0133910447383362e-04 0.0000000000000000e+00  1.0000259159263243e+00 -7.4428304236340886e-05 0.0000000000000000e+00  9.9997946448605501e-01 5.7850326439097809e-05 0.0000000000000000e+00  1.0000164391085420e+00 -4.5448577807896936e-05 0.0000000000000000e+00  9.9998706797163284e-01 3.5439792320864792e-05 0.0000000000000000e+00  1.0000098239719653e+00 -2.6845411923179524e-05 0.0000000000000000e+00  9.9999283109658443e-01 1.9571046981679749e-05 0.0000000000000000e+00  1.0000050747838554e+00 -1.3814737306072145e-05 0.0000000000000000e+00  9.9999644286618783e-01 9.6240115809908928e-06 0.0000000000000000e+00  1.0000025184559278e+00 -6.7612466632867377e-06 0.0000000000000000e+00  9.9999818863985446e-01 4.8351106749443173e-06 0.0000000000000000e+00  1.0000013085531330e+00 -3.4874648150227801e-06 0.0000000000000000e+00  9.9999906686772100e-01 2.4912080028428829e-06 0.0000000000000000e+00  1.0000006501509080e+00 -1.7398419808287022e-06 0.0000000000000000e+00  9.9999955618698588e-01 1.1882709787940026e-06 0.0000000000000000e+00  1.0000003007914189e+00 -8.0342496647181317e-07 0.0000000000000000e+00  9.9999979457518862e-01 5.4641506309773339e-07 0.0000000000000000e+00  1.0000001421934086e+00 -3.7690340090885539e-07 0.0000000000000000e+00  9.9999990092349988e-01 2.6233306710581475e-07 0.0000000000000000e+00  1.0000000686012991e+00 -1.8184552465214612e-07 0.0000000000000000e+00  9.9999995322739099e-01 1.2419599709275776e-07 0.0000000000000000e+00  1.0000000313967015e+00 -8.3418699408227880e-08 0.0000000000000000e+00  9.9999997908730420e-01 5.5491397160407640e-08 0.0000000000000000e+00  1.0000000139618523e+00 -3.6949156397995899e-08 0.0000000000000000e+00  9.9999999060721079e-01 2.4793937210079358e-08 0.0000000000000000e+00  1.0000000063506318e+00 -1.6743010253463353e-08 0.0000000000000000e+00  9.9999999571754206e-01 1.1292934262508497e-08 0.0000000000000000e+00  1.0000000028611151e+00 -7.5511204558283432e-09 0.0000000000000000e+00  9.9999999810904150e-01 4.9925291157740448e-09 0.0000000000000000e+00  1.0000000012410351e+00 -3.2743124006559960e-09 0.0000000000000000e+00  9.9999999918630045e-01 2.1434147406973052e-09 0.0000000000000000e+00  1.0000000005351743e+00 -1.4072847467996006e-09 0.0000000000000000e+00  9.9999999964703179e-01 9.2711802044277776e-10 0.0000000000000000e+00  1.0000000002325531e+00 -6.1066014083494819e-10 0.0000000000000000e+00  9.9999999984758314e-01 4.0031182540527972e-10 0.0000000000000000e+00  1.0000000000991975e+00 -2.6055295545353416e-10 0.0000000000000000e+00  9.9999999993580335e-01 1.6853890281501901e-10 0.0000000000000000e+00  1.0000000000414409e+00 -1.0867855930803352e-10 0.0000000000000000e+00  9.9999999997324307e-01 7.0072022843058061e-11 0.0000000000000000e+00  1.0000000000172822e+00 -4.5200052711382345e-11 0.0000000000000000e+00  9.9999999998883882e-01 2.9139380355963793e-11 0.0000000000000000e+00  1.0000000000071687e+00 -1.8688165976734053e-11 0.0000000000000000e+00  9.9999999999538236e-01 1.1937943356985167e-11 0.0000000000000000e+00  1.0000000000029166e+00 -7.4936500850113307e-12 0.0000000000000000e+00  9.9999999999806188e-01 4.7145108419165265e-12 0.0000000000000000e+00  1.0000000000011682e+00 -2.7385379741920447e-12 0.0000000000000000e+00  9.9999999999904110e-01 1.6477809933457848e-12 0.0000000000000000e+00  1.0000000000004488e+00 -5.3846141152962729e-13 0.0000000000000000e+00  9.9999999999916145e-01 0.0000000000000000e+00 0.0000000000000000e+00  1.0001571963290333e+01 0.0000000000000000e+00 -1.5596749116931288e-02  1.0003940446306675e+01 -3.5418418452829981e-03 2.3624916806114856e-03  1.0001720043841068e+01 7.3763363487615499e-03 5.0778815595069063e-03  1.0002271016939455e+01 2.3028293746528172e-03 -2.1103824239999576e-03  1.0001677557373942e+01 3.2096274851617433e-04 7.6404236909047958e-04  1.0001638401450748e+01 3.8795947435804131e-03 2.0605148808555926e-04  1.0000964167198758e+01 -5.1434869962074942e-05 -6.4485266611527666e-04  1.0001161224069754e+01 1.9837530573367781e-03 7.7409621472573594e-04  1.0000835608085465e+01 3.8171089481050602e-04 -9.1174900646125894e-04  1.0000506065358593e+01 1.3499684964789721e-03 9.9206694046199647e-04  1.0000541839080004e+01 -3.3458656345357394e-04 -1.1005056593012502e-03  1.0000568801217907e+01 1.5147813003921590e-03 1.1359447431830128e-03  1.0000060876517384e+01 -6.8907258782635052e-04 -1.1576777459486292e-03  1.0000324078021004e+01 1.0089833603335820e-03 1.1426792424833025e-03  1.0000341033982041e+01 -3.1248567459512340e-04 -1.1263492184291220e-03  9.9999029119116702e+00 6.0445128520728920e-04 1.0799779733539725e-03  1.0000138786965119e+01 -5.5382335686130510e-04 -1.0087010925337405e-03  1.0000310422913785e+01 9.3966779945549468e-04 9.1159745524803262e-04  9.9997691195605238e+00 -7.7225642554116071e-04 -8.1882125302912832e-04  1.0000082184708475e+01 5.7345769497302356e-04 7.4139466167785924e-04  1.0000277092535443e+01 -1.7501156268013090e-04 -6.7359016875343663e-04  9.9997250639006339e+00 1.7930217004470995e-04 5.9453499895419418e-04  1.0000017856964883e+01 -3.3272829536097783e-04 -4.9757505256536037e-04  1.0000257140986070e+01 6.3452517065005641e-04 3.9983476165460203e-04  9.9996917661910274e+00 -5.0451627223434389e-04 -3.2786329189270636e-04  9.9999201329762144e+00 3.2430876505099086e-04 2.9025867710971357e-04  1.0000197207895605e+01 1.4445497015122980e-04 -2.6707038384707739e-04  9.9995872027818429e+00 1.1368039149107442e-04 2.3586729094965411e-04  9.9997393987460281e+00 3.2089227076276386e-05 -1.9121461282466383e-04  9.9999376037964804e+00 7.4246535505514586e-04 1.5564333992566426e-04  9.9992863010431829e+00 1.5478140101852605e-04 -1.4801085298850984e-04  9.9992159288357758e+00 8.1822058936743597e-04 1.6997494640445265e-04  9.9991688679266417e+00 1.1393136754410452e-03 -1.9550880730337671e-04  9.9983416947976398e+00 1.4989263646993109e-03 2.1061664320013227e-04  9.9976803433544355e+00 2.0002839505706689e-03 -2.1403402590951571e-04  9.9971322597306127e+00 3.3732755925603443e-03 2.2983898050023328e-04  9.9954519552741470e+00 4.1706180570294689e-03 -2.6304351842003284e-04  9.9938199357531783e+00 6.1224422356071255e-03 3.0960097795415135e-04  9.9915729735653560e+00 8.4334096353915946e-03 -3.4642916919616390e-04  9.9884127447807227e+00 1.1626018847079757e-02 3.6890618676999612e-04  9.9839883481641856e+00 1.5456822492790611e-02 -3.8175938979857966e-04  9.9790368868465329e+00 2.1160412851318939e-02 3.9594608819444821e-04  9.9717672136185556e+00 2.7790275135319339e-02 -4.1114997815639277e-04  9.9631108125200321e+00 3.6583929666493223e-02 4.1038078463724267e-04  9.9519904909329249e+00 4.7430039568126164e-02 -3.9288963861327766e-04  9.9386811879782986e+00 6.1150599633754951e-02 3.5071773754286896e-04  9.9215714498321166e+00 7.7325797112047678e-02 -3.0815941145183589e-04  9.9020660959719287e+00 9.7420746593138249e-02 2.5463590926467128e-04  9.8779457849567969e+00 1.2110430901494638e-01 -2.0040132834247306e-04  9.8501340551882244e+00 1.4883712366666788e-01 1.1974668615963953e-04  9.8174201660635489e+00 1.8128342256500360e-01 -3.2113468124779252e-05  9.7805539627590914e+00 2.1867328144969250e-01 -6.3385716517532430e-05  9.7376191091107032e+00 2.6091305753901278e-01 1.4176360627457773e-04  9.6905183045724623e+00 3.0858564345705009e-01 -2.0794280295708854e-04  9.6373261750935697e+00 3.6217312771605720e-01 2.7654582232058061e-04  9.5790687734460409e+00 4.2051677104525481e-01 -3.5099537911875050e-04  9.5151847108487431e+00 4.8528980081616746e-01 4.4014704650892491e-04  9.4465293811158002e+00 5.5524596456485598e-01 -5.0149945110367143e-04  9.3717874895898099e+00 6.3087792860822278e-01 5.4892414719342802e-04  9.2929890453344637e+00 7.1155758493263210e-01 -5.5343573522175307e-04  9.2088207232003771e+00 7.9848583977737886e-01 5.8502357791710062e-04  9.1202370611704744e+00 8.8904862940826812e-01 -6.1108252471230929e-04  9.0273653207352584e+00 9.8579144192024937e-01 6.6950852424004447e-04  8.9308253429491664e+00 1.0865364253840295e+00 -6.7040796402083075e-04  8.8298224830648024e+00 1.1918851962492780e+00 6.4525195212207737e-04  8.7262837443327381e+00 1.3010141661615691e+00 -5.6400655483197163e-04  8.6190849703107784e+00 1.4153732475187022e+00 5.2318704082551174e-04  8.5091210008698130e+00 1.5315772824679068e+00 -5.1212362352641080e-04  8.3967014942549003e+00 1.6527805743905721e+00 5.4556377795242882e-04  8.2822084229005242e+00 1.7770365368305121e+00 -5.3131602115969129e-04  8.1649768405048615e+00 1.9036834510645488e+00 4.2856883483871633e-04  8.0468587248360919e+00 2.0332702517272416e+00 -2.5935386148940790e-04  7.9266028988479951e+00 2.1674445401340963e+00 1.1484067156247485e-04  7.8050047136175094e+00 2.3009798748624304e+00 -1.0841394556374473e-04  7.6826099856212888e+00 2.4383733522377922e+00 1.0650188822920289e-04  7.5590729123688822e+00 2.5805220480413982e+00 6.6529575744401318e-05  7.4345939111503423e+00 2.7192970594065051e+00 -5.6695445755282770e-04  7.3097634349769853e+00 2.8634265296571764e+00 1.0376180934192876e-03  7.1847913464594306e+00 3.0107611232911289e+00 -1.3034226533125840e-03  7.0583121178150616e+00 3.1568457047804288e+00 1.4704532232483892e-03  6.9336441237601232e+00 3.3019578032064816e+00 -1.9362538875411311e-03  6.8066540679527971e+00 3.4579135750426127e+00 2.355261374856209