<?xml version="1.0"?>
<VTKFile type="UnstructuredGrid"  version="0.1"  >
<UnstructuredGrid>
<Piece  NumberOfPoints="8241" NumberOfCells="16000">
<Points>
<DataArray  type="Float64"  NumberOfComponents="3"  format="ascii">-5 -1 0  -4.95 -1 0  -4.9 -1 0  -4.85 -1 0  -4.8 -1 0  -4.75 -1 0  -4.7 -1 0  -4.65 -1 0  -4.6 -1 0  -4.55 -1 0  -4.5 -1 0  -4.45 -1 0  -4.4 -1 0  -4.35 -1 0  -4.3 -1 0  -4.25 -1 0  -4.2 -1 0  -4.15 -1 0  -4.1 -1 0  -4.05 -1 0  -4 -1 0  -3.95 -1 0  -3.9 -1 0  -3.85 -1 0  -3.8 -1 0  -3.75 -1 0  -3.7 -1 0  -3.65 -1 0  -3.6 -1 0  -3.55 -1 0  -3.5 -1 0  -3.45 -1 0  -3.4 -1 0  -3.35 -1 0  -3.3 -1 0  -3.25 -1 0  -3.2 -1 0  -3.15 -1 0  -3.1 -1 0  -3.05 -1 0  -3 -1 0  -2.95 -1 0  -2.9 -1 0  -2.85 -1 0  -2.8 -1 0  -2.75 -1 0  -2.7 -1 0  -2.65 -1 0  -2.6 -1 0  -2.55 -1 0  -2.5 -1 0  -2.45 -1 0  -2.4 -1 0  -2.35 -1 0  -2.3 -1 0  -2.25 -1 0  -2.2 -1 0  -2.15 -1 0  -2.1 -1 0  -2.05 -1 0  -2 -1 0  -1.95 -1 0  -1.9 -1 0  -1.85 -1 0  -1.8 -1 0  -1.75 -1 0  -1.7 -1 0  -1.65 -1 0  -1.6 -1 0  -1.55 -1 0  -1.5 -1 0  -1.45 -1 0  -1.4 -1 0  -1.35 -1 0  -1.3 -1 0  -1.25 -1 0  -1.2 -1 0  -1.15 -1 0  -1.1 -1 0  -1.05 -1 0  -1 -1 0  -0.9500000000000002 -1 0  -0.9000000000000004 -1 0  -0.8499999999999996 -1 0  -0.7999999999999998 -1 0  -0.75 -1 0  -0.7000000000000002 -1 0  -0.6500000000000004 -1 0  -0.5999999999999996 -1 0  -0.5499999999999998 -1 0  -0.5 -1 0  -0.4500000000000002 -1 0  -0.4000000000000004 -1 0  -0.3499999999999996 -1 0  -0.2999999999999998 -1 0  -0.25 -1 0  -0.2000000000000002 -1 0  -0.1500000000000004 -1 0  -0.09999999999999964 -1 0  -0.04999999999999982 -1 0  0 -1 0  0.04999999999999982 -1 0  0.09999999999999964 -1 0  0.1500000000000004 -1 0  0.2000000000000002 -1 0  0.25 -1 0  0.2999999999999998 -1 0  0.3499999999999996 -1 0  0.4000000000000004 -1 0  0.4500000000000002 -1 0  0.5 -1 0  0.5499999999999998 -1 0  0.5999999999999996 -1 0  0.6500000000000004 -1 0  0.7000000000000002 -1 0  0.75 -1 0  0.7999999999999998 -1 0  0.8499999999999996 -1 0  0.9000000000000004 -1 0  0.9500000000000002 -1 0  1 -1 0  1.05 -1 0  1.1 -1 0  1.15 -1 0  1.2 -1 0  1.25 -1 0  1.3 -1 0  1.35 -1 0  1.4 -1 0  1.45 -1 0  1.5 -1 0  1.55 -1 0  1.6 -1 0  1.65 -1 0  1.7 -1 0  1.75 -1 0  1.8 -1 0  1.85 -1 0  1.9 -1 0  1.95 -1 0  2 -1 0  2.05 -1 0  2.1 -1 0  2.15 -1 0  2.2 -1 0  2.25 -1 0  2.3 -1 0  2.35 -1 0  2.4 -1 0  2.45 -1 0  2.5 -1 0  2.55 -1 0  2.6 -1 0  2.65 -1 0  2.7 -1 0  2.75 -1 0  2.8 -1 0  2.85 -1 0  2.9 -1 0  2.95 -1 0  3 -1 0  3.050000000000001 -1 0  3.1 -1 0  3.15 -1 0  3.199999999999999 -1 0  3.25 -1 0  3.300000000000001 -1 0  3.35 -1 0  3.4 -1 0  3.449999999999999 -1 0  3.5 -1 0  3.550000000000001 -1 0  3.6 -1 0  3.65 -1 0  3.699999999999999 -1 0  3.75 -1 0  3.800000000000001 -1 0  3.85 -1 0  3.9 -1 0  3.949999999999999 -1 0  4 -1 0  4.050000000000001 -1 0  4.1 -1 0  4.15 -1 0  4.199999999999999 -1 0  4.25 -1 0  4.300000000000001 -1 0  4.35 -1 0  4.4 -1 0  4.449999999999999 -1 0  4.5 -1 0  4.550000000000001 -1 0  4.6 -1 0  4.65 -1 0  4.699999999999999 -1 0  4.75 -1 0  4.800000000000001 -1 0  4.85 -1 0  4.9 -1 0  4.949999999999999 -1 0  5 -1 0  -5 -0.95 0  -4.95 -0.95 0  -4.9 -0.95 0  -4.85 -0.95 0  -4.8 -0.95 0  -4.75 -0.95 0  -4.7 -0.95 0  -4.65 -0.95 0  -4.6 -0.95 0  -4.55 -0.95 0  -4.5 -0.95 0  -4.45 -0.95 0  -4.4 -0.95 0  -4.35 -0.95 0  -4.3 -0.95 0  -4.25 -0.95 0  -4.2 -0.95 0  -4.15 -0.95 0  -4.1 -0.95 0  -4.05 -0.95 0  -4 -0.95 0  -3.95 -0.95 0  -3.9 -0.95 0  -3.85 -0.95 0  -3.8 -0.95 0  -3.75 -0.95 0  -3.7 -0.95 0  -3.65 -0.95 0  -3.6 -0.95 0  -3.55 -0.95 0  -3.5 -0.95 0  -3.45 -0.95 0  -3.4 -0.95 0  -3.35 -0.95 0  -3.3 -0.95 0  -3.25 -0.95 0  -3.2 -0.95 0  -3.15 -0.95 0  -3.1 -0.95 0  -3.05 -0.95 0  -3 -0.95 0  -2.95 -0.95 0  -2.9 -0.95 0  -2.85 -0.95 0  -2.8 -0.95 0  -2.75 -0.95 0  -2.7 -0.95 0  -2.65 -0.95 0  -2.6 -0.95 0  -2.55 -0.95 0  -2.5 -0.95 0  -2.45 -0.95 0  -2.4 -0.95 0  -2.35 -0.95 0  -2.3 -0.95 0  -2.25 -0.95 0  -2.2 -0.95 0  -2.15 -0.95 0  -2.1 -0.95 0  -2.05 -0.95 0  -2 -0.95 0  -1.95 -0.95 0  -1.9 -0.95 0  -1.85 -0.95 0  -1.8 -0.95 0  -1.75 -0.95 0  -1.7 -0.95 0  -1.65 -0.95 0  -1.6 -0.95 0  -1.55 -0.95 0  -1.5 -0.95 0  -1.45 -0.95 0  -1.4 -0.95 0  -1.35 -0.95 0  -1.3 -0.95 0  -1.25 -0.95 0  -1.2 -0.95 0  -1.15 -0.95 0  -1.1 -0.95 0  -1.05 -0.95 0  -1 -0.95 0  -0.9500000000000002 -0.95 0  -0.9000000000000004 -0.95 0  -0.8499999999999996 -0.95 0  -0.7999999999999998 -0.95 0  -0.75 -0.95 0  -0.7000000000000002 -0.95 0  -0.6500000000000004 -0.95 0  -0.5999999999999996 -0.95 0  -0.5499999999999998 -0.95 0  -0.5 -0.95 0  -0.4500000000000002 -0.95 0  -0.4000000000000004 -0.95 0  -0.3499999999999996 -0.95 0  -0.2999999999999998 -0.95 0  -0.25 -0.95 0  -0.2000000000000002 -0.95 0  -0.1500000000000004 -0.95 0  -0.09999999999999964 -0.95 0  -0.04999999999999982 -0.95 0  0 -0.95 0  0.04999999999999982 -0.95 0  0.09999999999999964 -0.95 0  0.1500000000000004 -0.95 0  0.2000000000000002 -0.95 0  0.25 -0.95 0  0.2999999999999998 -0.95 0  0.3499999999999996 -0.95 0  0.4000000000000004 -0.95 0  0.4500000000000002 -0.95 0  0.5 -0.95 0  0.5499999999999998 -0.95 0  0.5999999999999996 -0.95 0  0.6500000000000004 -0.95 0  0.7000000000000002 -0.95 0  0.75 -0.95 0  0.7999999999999998 -0.95 0  0.8499999999999996 -0.95 0  0.9000000000000004 -0.95 0  0.9500000000000002 -0.95 0  1 -0.95 0  1.05 -0.95 0  1.1 -0.95 0  1.15 -0.95 0  1.2 -0.95 0  1.25 -0.95 0  1.3 -0.95 0  1.35 -0.95 0  1.4 -0.95 0  1.45 -0.95 0  1.5 -0.95 0  1.55 -0.95 0  1.6 -0.95 0  1.65 -0.95 0  1.7 -0.95 0  1.75 -0.95 0  1.8 -0.95 0  1.85 -0.95 0  1.9 -0.95 0  1.95 -0.95 0  2 -0.95 0  2.05 -0.95 0  2.1 -0.95 0  2.15 -0.95 0  2.2 -0.95 0  2.25 -0.95 0  2.3 -0.95 0  2.35 -0.95 0  2.4 -0.95 0  2.45 -0.95 0  2.5 -0.95 0  2.55 -0.95 0  2.6 -0.95 0  2.65 -0.95 0  2.7 -0.95 0  2.75 -0.95 0  2.8 -0.95 0  2.85 -0.95 0  2.9 -0.95 0  2.95 -0.95 0  3 -0.95 0  3.050000000000001 -0.95 0  3.1 -0.95 0  3.15 -0.95 0  3.199999999999999 -0.95 0  3.25 -0.95 0  3.300000000000001 -0.95 0  3.35 -0.95 0  3.4 -0.95 0  3.449999999999999 -0.95 0  3.5 -0.95 0  3.550000000000001 -0.95 0  3.6 -0.95 0  3.65 -0.95 0  3.699999999999999 -0.95 0  3.75 -0.95 0  3.800000000000001 -0.95 0  3.85 -0.95 0  3.9 -0.95 0  3.949999999999999 -0.95 0  4 -0.95 0  4.050000000000001 -0.95 0  4.1 -0.95 0  4.15 -0.95 0  4.199999999999999 -0.95 0  4.25 -0.95 0  4.300000000000001 -0.95 0  4.35 -0.95 0  4.4 -0.95 0  4.449999999999999 -0.95 0  4.5 -0.95 0  4.550000000000001 -0.95 0  4.6 -0.95 0  4.65 -0.95 0  4.699999999999999 -0.95 0  4.75 -0.95 0  4.800000000000001 -0.95 0  4.85 -0.95 0  4.9 -0.95 0  4.949999999999999 -0.95 0  5 -0.95 0  -5 -0.9 0  -4.95 -0.9 0  -4.9 -0.9 0  -4.85 -0.9 0  -4.8 -0.9 0  -4.75 -0.9 0  -4.7 -0.9 0  -4.65 -0.9 0  -4.6 -0.9 0  -4.55 -0.9 0  -4.5 -0.9 0  -4.45 -0.9 0  -4.4 -0.9 0  -4.35 -0.9 0  -4.3 -0.9 0  -4.25 -0.9 0  -4.2 -0.9 0  -4.15 -0.9 0  -4.1 -0.9 0  -4.05 -0.9 0  -4 -0.9 0  -3.95 -0.9 0  -3.9 -0.9 0  -3.85 -0.9 0  -3.8 -0.9 0  -3.75 -0.9 0  -3.7 -0.9 0  -3.65 -0.9 0  -3.6 -0.9 0  -3.55 -0.9 0  -3.5 -0.9 0  -3.45 -0.9 0  -3.4 -0.9 0  -3.35 -0.9 0  -3.3 -0.9 0  -3.25 -0.9 0  -3.2 -0.9 0  -3.15 -0.9 0  -3.1 -0.9 0  -3.05 -0.9 0  -3 -0.9 0  -2.95 -0.9 0  -2.9 -0.9 0  -2.85 -0.9 0  -2.8 -0.9 0  -2.75 -0.9 0  -2.7 -0.9 0  -2.65 -0.9 0  -2.6 -0.9 0  -2.55 -0.9 0  -2.5 -0.9 0  -2.45 -0.9 0  -2.4 -0.9 0  -2.35 -0.9 0  -2.3 -0.9 0  -2.25 -0.9 0  -2.2 -0.9 0  -2.15 -0.9 0  -2.1 -0.9 0  -2.05 -0.9 0  -2 -0.9 0  -1.95 -0.9 0  -1.9 -0.9 0  -1.85 -0.9 0  -1.8 -0.9 0  -1.75 -0.9 0  -1.7 -0.9 0  -1.65 -0.9 0  -1.6 -0.9 0  -1.55 -0.9 0  -1.5 -0.9 0  -1.45 -0.9 0  -1.4 -0.9 0  -1.35 -0.9 0  -1.3 -0.9 0  -1.25 -0.9 0  -1.2 -0.9 0  -1.15 -0.9 0  -1.1 -0.9 0  -1.05 -0.9 0  -1 -0.9 0  -0.9500000000000002 -0.9 0  -0.9000000000000004 -0.9 0  -0.8499999999999996 -0.9 0  -0.7999999999999998 -0.9 0  -0.75 -0.9 0  -0.7000000000000002 -0.9 0  -0.6500000000000004 -0.9 0  -0.5999999999999996 -0.9 0  -0.5499999999999998 -0.9 0  -0.5 -0.9 0  -0.4500000000000002 -0.9 0  -0.4000000000000004 -0.9 0  -0.3499999999999996 -0.9 0  -0.2999999999999998 -0.9 0  -0.25 -0.9 0  -0.2000000000000002 -0.9 0  -0.1500000000000004 -0.9 0  -0.09999999999999964 -0.9 0  -0.04999999999999982 -0.9 0  0 -0.9 0  0.04999999999999982 -0.9 0  0.09999999999999964 -0.9 0  0.1500000000000004 -0.9 0  0.2000000000000002 -0.9 0  0.25 -0.9 0  0.2999999999999998 -0.9 0  0.3499999999999996 -0.9 0  0.4000000000000004 -0.9 0  0.4500000000000002 -0.9 0  0.5 -0.9 0  0.5499999999999998 -0.9 0  0.5999999999999996 -0.9 0  0.6500000000000004 -0.9 0  0.7000000000000002 -0.9 0  0.75 -0.9 0  0.7999999999999998 -0.9 0  0.8499999999999996 -0.9 0  0.9000000000000004 -0.9 0  0.9500000000000002 -0.9 0  1 -0.9 0  1.05 -0.9 0  1.1 -0.9 0  1.15 -0.9 0  1.2 -0.9 0  1.25 -0.9 0  1.3 -0.9 0  1.35 -0.9 0  1.4 -0.9 0  1.45 -0.9 0  1.5 -0.9 0  1.55 -0.9 0  1.6 -0.9 0  1.65 -0.9 0  1.7 -0.9 0  1.75 -0.9 0  1.8 -0.9 0  1.85 -0.9 0  1.9 -0.9 0  1.95 -0.9 0  2 -0.9 0  2.05 -0.9 0  2.1 -0.9 0  2.15 -0.9 0  2.2 -0.9 0  2.25 -0.9 0  2.3 -0.9 0  2.35 -0.9 0  2.4 -0.9 0  2.45 -0.9 0  2.5 -0.9 0  2.55 -0.9 0  2.6 -0.9 0  2.65 -0.9 0  2.7 -0.9 0  2.75 -0.9 0  2.8 -0.9 0  2.85 -0.9 0  2.9 -0.9 0  2.95 -0.9 0  3 -0.9 0  3.050000000000001 -0.9 0  3.1 -0.9 0  3.15 -0.9 0  3.199999999999999 -0.9 0  3.25 -0.9 0  3.300000000000001 -0.9 0  3.35 -0.9 0  3.4 -0.9 0  3.449999999999999 -0.9 0  3.5 -0.9 0  3.550000000000001 -0.9 0  3.6 -0.9 0  3.65 -0.9 0  3.699999999999999 -0.9 0  3.75 -0.9 0  3.800000000000001 -0.9 0  3.85 -0.9 0  3.9 -0.9 0  3.949999999999999 -0.9 0  4 -0.9 0  4.050000000000001 -0.9 0  4.1 -0.9 0  4.15 -0.9 0  4.199999999999999 -0.9 0  4.25 -0.9 0  4.300000000000001 -0.9 0  4.35 -0.9 0  4.4 -0.9 0  4.449999999999999 -0.9 0  4.5 -0.9 0  4.550000000000001 -0.9 0  4.6 -0.9 0  4.65 -0.9 0  4.699999999999999 -0.9 0  4.75 -0.9 0  4.800000000000001 -0.9 0  4.85 -0.9 0  4.9 -0.9 0  4.949999999999999 -0.9 0  5 -0.9 0  -5 -0.85 0  -4.95 -0.85 0  -4.9 -0.85 0  -4.85 -0.85 0  -4.8 -0.85 0  -4.75 -0.85 0  -4.7 -0.85 0  -4.65 -0.85 0  -4.6 -0.85 0  -4.55 -0.85 0  -4.5 -0.85 0  -
[...]
<PointData  Vectors="f_15"> 
<DataArray  type="Float64"  Name="f_15"  NumberOfComponents="3" format="ascii">1.9789419157512824e+00 0.0000000000000000e+00 0.0000000000000000e+00  1.9789272410731706e+00 4.4764046224327600e-02 0.0000000000000000e+00  1.9788419716738987e+00 8.9419115803324095e-02 0.0000000000000000e+00  1.9787261696387572e+00 1.3419603901890517e-01 0.0000000000000000e+00  1.9785404653388592e+00 1.7884727589429872e-01 0.0000000000000000e+00  1.9783226432380698e+00 2.2356744144502488e-01 0.0000000000000000e+00  1.9780342899728900e+00 2.6818920777108179e-01 0.0000000000000000e+00  1.9777127940372863e+00 3.1283816318738539e-01 0.0000000000000000e+00  1.9773201038461845e+00 3.5740600929710931e-01 0.0000000000000000e+00  1.9768910639626158e+00 4.0196006264319251e-01 0.0000000000000000e+00  1.9763918093784811e+00 4.4644956339859981e-01 0.0000000000000000e+00  1.9758514916482492e+00 4.9089004004033077e-01 0.0000000000000000e+00  1.9752407595233705e+00 5.3527705105331869e-01 0.0000000000000000e+00  1.9745857082588425e+00 5.7956904413064025e-01 0.0000000000000000e+00  1.9738577654094436e+00 6.2383523056635515e-01 0.0000000000000000e+00  1.9730819394958816e+00 6.6796534353581760e-01 0.0000000000000000e+00  1.9722316124572525e+00 7.1203898839120705e-01 0.0000000000000000e+00  1.9713276501534545e+00 7.5602738919505030e-01 0.0000000000000000e+00  1.9703467138849848e+00 7.9985621189542244e-01 0.0000000000000000e+00  1.9693085931546117e+00 8.4364263300320130e-01 0.0000000000000000e+00  1.9681867398768151e+00 8.8724015905040621e-01 0.0000000000000000e+00  1.9670046251203364e+00 9.3076836833716559e-01 0.0000000000000000e+00  1.9657343964778011e+00 9.7405730279056624e-01 0.0000000000000000e+00  1.9643947633618537e+00 1.0173452823941080e+00 0.0000000000000000e+00  1.9629646391191053e+00 1.0602713750767361e+00 0.0000000000000000e+00  1.9614583365485438e+00 1.1031965896494720e+00 0.0000000000000000e+00  1.9598512284344345e+00 1.1458196195323729e+00 0.0000000000000000e+00  1.9581650420741046e+00 1.1882818122302181e+00 0.0000000000000000e+00  1.9563700397876302e+00 1.2304826582286388e+00 0.0000000000000000e+00  1.9544828642459349e+00 1.2725334040652490e+00 0.0000000000000000e+00  1.9524857615453766e+00 1.3141964569938913e+00 0.0000000000000000e+00  1.9503839991428491e+00 1.3557100736314147e+00 0.0000000000000000e+00  1.9481615809310096e+00 1.3968654171982147e+00 0.0000000000000000e+00  1.9458278778646616e+00 1.4377218718965357e+00 0.0000000000000000e+00  1.9433679389368463e+00 1.4782310353859200e+00 0.0000000000000000e+00  1.9407737267287160e+00 1.5184354278629340e+00 0.0000000000000000e+00  1.9380616295999851e+00 1.5581731694667509e+00 0.0000000000000000e+00  1.9351921811309534e+00 1.5975635142591449e+00 0.0000000000000000e+00  1.9322025699681267e+00 1.6365290075481651e+00 0.0000000000000000e+00  1.9290414872482460e+00 1.6749447630003735e+00 0.0000000000000000e+00  1.9257681490696565e+00 1.7129746313479499e+00 0.0000000000000000e+00  1.9222891497424957e+00 1.7503721614629422e+00 0.0000000000000000e+00  1.9187297840405491e+00 1.7873130900494323e+00 0.0000000000000000e+00  1.9149293600343475e+00 1.8234754443539738e+00 0.0000000000000000e+00  1.9110787742297648e+00 1.8592691069553324e+00 0.0000000000000000e+00  1.9069637429882254e+00 1.8939997365064820e+00 0.0000000000000000e+00  1.9028485905164412e+00 1.9284243692562864e+00 0.0000000000000000e+00  1.8984318996420928e+00 1.9615810179462476e+00 0.0000000000000000e+00  1.8941037801054872e+00 1.9944121061103495e+00 0.0000000000000000e+00  1.8894446486497105e+00 2.0256962174179143e+00 0.0000000000000000e+00  1.8849824370306971e+00 2.0567316188137297e+00 0.0000000000000000e+00  1.8801895501783363e+00 2.0857748940092726e+00 0.0000000000000000e+00  1.8757465910084516e+00 2.1146171906157982e+00 0.0000000000000000e+00  1.8709903204395826e+00 2.1410117338519257e+00 0.0000000000000000e+00  1.8668056660964327e+00 2.1671259029886989e+00 0.0000000000000000e+00  1.8623656997613469e+00 2.1902037245928336e+00 0.0000000000000000e+00  1.8587735322663423e+00 2.2129271118643179e+00 0.0000000000000000e+00  1.8550303292050598e+00 2.2318550392831855e+00 0.0000000000000000e+00  1.8524455213281270e+00 2.2503483613024065e+00 0.0000000000000000e+00  1.8497818530633465e+00 2.2643765248632279e+00 0.0000000000000000e+00  1.8485215067597192e+00 2.2780741117641323e+00 0.0000000000000000e+00  1.8470929933504281e+00 2.2869998368953075e+00 0.0000000000000000e+00  1.8470903792783835e+00 2.2962832647508686e+00 0.0000000000000000e+00  1.8465961079004141e+00 2.3010255052468525e+00 0.0000000000000000e+00  1.8473579528802953e+00 2.3072515303488195e+00 0.0000000000000000e+00  1.8472146805724707e+00 2.3094236315912187e+00 0.0000000000000000e+00  1.8481977975721156e+00 2.3140819566430131e+00 0.0000000000000000e+00  1.8479996553423530e+00 2.3148908767317198e+00 0.0000000000000000e+00  1.8489317594120238e+00 2.3188277984131744e+00 0.0000000000000000e+00  1.8485620849254496e+00 2.3188408721246008e+00 0.0000000000000000e+00  1.8493993658231367e+00 2.3223307743196955e+00 0.0000000000000000e+00  1.8488710096186081e+00 2.3218019458504857e+00 0.0000000000000000e+00  1.8496336144661492e+00 2.3249494785707960e+00 0.0000000000000000e+00  1.8490071898361025e+00 2.3240087097112814e+00 0.0000000000000000e+00  1.8497002616954692e+00 2.3268737209898256e+00 0.0000000000000000e+00  1.8490287141076782e+00 2.3256645945795671e+00 0.0000000000000000e+00  1.8496735119535077e+00 2.3282552049599992e+00 0.0000000000000000e+00  1.8489771359441736e+00 2.3268993834659533e+00 0.0000000000000000e+00  1.8495842107730833e+00 2.3292560471567225e+00 0.0000000000000000e+00  1.8489062826634515e+00 2.3278303075072704e+00 0.0000000000000000e+00  1.8494522612089301e+00 2.3299371781276261e+00 0.0000000000000000e+00  1.8488273274328908e+00 2.3285820487546669e+00 0.0000000000000000e+00  1.8493213548628034e+00 2.3303945152057235e+00 0.0000000000000000e+00  1.8487396873524502e+00 2.3291359058381995e+00 0.0000000000000000e+00  1.8491958942745108e+00 2.3307565151504224e+00 0.0000000000000000e+00  1.8486649309271985e+00 2.3295703129179985e+00 0.0000000000000000e+00  1.8490680395469601e+00 2.3309558361182541e+00 0.0000000000000000e+00  1.8486096146181397e+00 2.3299866952119830e+00 0.0000000000000000e+00  1.8489545481512411e+00 2.3310805182322571e+00 0.0000000000000000e+00  1.8485503350129877e+00 2.3302493465068599e+00 0.0000000000000000e+00  1.8488737277193956e+00 2.3312617063429024e+00 0.0000000000000000e+00  1.8484875832327909e+00 2.3304388454469986e+00 0.0000000000000000e+00  1.8487957737474692e+00 2.3313285379648283e+00 0.0000000000000000e+00  1.8484627404946319e+00 2.3306844243718299e+00 0.0000000000000000e+00  1.8487123333957487e+00 2.3313487771769128e+00 0.0000000000000000e+00  1.8484274756072809e+00 2.3308106102373403e+00 0.0000000000000000e+00  1.8486830092566158e+00 2.3314739816817815e+00 0.0000000000000000e+00  1.8483654902014153e+00 2.3308594270930469e+00 0.0000000000000000e+00  1.8486504589575743e+00 2.3315219744842839e+00 0.0000000000000000e+00  1.8483623129202049e+00 2.3309971140755876e+00 0.0000000000000000e+00  1.8485786613734523e+00 2.3314998801315858e+00 0.0000000000000000e+00  1.8483540378410188e+00 2.3310803571434970e+00 0.0000000000000000e+00  1.8485729561884139e+00 2.3315688325055994e+00 0.0000000000000000e+00  1.8482916949626678e+00 2.3310733369419734e+00 0.0000000000000000e+00  1.8485722843065351e+00 2.3316199863477345e+00 0.0000000000000000e+00  1.8482924723564986e+00 2.3311452236046102e+00 0.0000000000000000e+00  1.8485034955032191e+00 2.3315714943833572e+00 0.0000000000000000e+00  1.8483141374911962e+00 2.3312324905368862e+00 0.0000000000000000e+00  1.8484914007749127e+00 2.3315814220026718e+00 0.0000000000000000e+00  1.8482562321945575e+00 2.3312151299479034e+00 0.0000000000000000e+00  1.8485160728167580e+00 2.3316384728531019e+00 0.0000000000000000e+00  1.8482457971499797e+00 2.3312371166858434e+00 0.0000000000000000e+00  1.8484552635066220e+00 2.3315800528025790e+00 0.0000000000000000e+00  1.8482861241611912e+00 2.3313337465330695e+00 0.0000000000000000e+00  1.8484303403989200e+00 2.3315570922135169e+00 0.0000000000000000e+00  1.8482385410098749e+00 2.3312999009203308e+00 0.0000000000000000e+00  1.8484673283644453e+00 2.3316185203364919e+00 0.0000000000000000e+00  1.8482187185664480e+00 2.3313076559699062e+00 0.0000000000000000e+00  1.8484170439646290e+00 2.3315460311620764e+00 0.0000000000000000e+00  1.8482572239762836e+00 2.3313931480634364e+00 0.0000000000000000e+00  1.8484015183439841e+00 2.3315353217157049e+00 0.0000000000000000e+00  1.8482085598997622e+00 2.3313291306042183e+00 0.0000000000000000e+00  1.8484341443761478e+00 2.3315880874614079e+00 0.0000000000000000e+00  1.8481984806677696e+00 2.3313706566350749e+00 0.0000000000000000e+00  1.8483915981420798e+00 2.3314643917905431e+00 0.0000000000000000e+00  1.8482190443456625e+00 2.3314552650763449e+00 0.0000000000000000e+00  1.8483937106975694e+00 2.3314913434692617e+00 0.0000000000000000e+00  1.8481722018100235e+00 2.3313371987334546e+00 0.0000000000000000e+00  1.8484143456937672e+00 2.3315769095481071e+00 0.0000000000000000e+00  1.8481727336784817e+00 2.3313146364698385e+00 0.0000000000000000e+00  1.8483804518708193e+00 2.3315527401818437e+00 0.0000000000000000e+00  1.8481724353617102e+00 2.3312990044456270e+00 0.0000000000000000e+00  1.8484007840946415e+00 2.3315820344962401e+00 0.0000000000000000e+00  1.8481247786053983e+00 2.3312957264482157e+00 0.0000000000000000e+00  1.8484203149889267e+00 2.3314490140439670e+00 0.0000000000000000e+00  1.8481108986931418e+00 2.3315398058812242e+00 0.0000000000000000e+00  1.8484116793694729e+00 2.3311257629077184e+00 0.0000000000000000e+00  1.8481046318068457e+00 2.3318010891306407e+00 0.0000000000000000e+00  1.8484109836361651e+00 2.3309655710407506e+00 0.0000000000000000e+00  1.8480751864802933e+00 2.3318013016157417e+00 0.0000000000000000e+00  1.8484449836736296e+00 2.3310635915635802e+00 0.0000000000000000e+00  1.8480226284634669e+00 2.3315946326598747e+00 0.0000000000000000e+00  1.8484594341279805e+00 2.3312725284997384e+00 0.0000000000000000e+00  1.8480266675196748e+00 2.3313932331052416e+00 0.0000000000000000e+00  1.8484212491675058e+00 2.3313905055941997e+00 0.0000000000000000e+00  1.8480374678405180e+00 2.3312896142079733e+00 0.0000000000000000e+00  1.8484218007612838e+00 2.3314804742107849e+00 0.0000000000000000e+00  1.8480010212021236e+00 2.3311535176136715e+00 0.0000000000000000e+00  1.8484393036703837e+00 2.3315422351877828e+00 0.0000000000000000e+00  1.8480091912512107e+00 2.3311261759202209e+00 0.0000000000000000e+00  1.8483717807166158e+00 2.3314188675456888e+00 0.0000000000000000e+00  1.8480912665308600e+00 2.3312401615653915e+00 0.0000000000000000e+00  1.8482716961191301e+00 2.3313191758567542e+00 0.0000000000000000e+00  1.8480468911294137e+00 2.3313599319935561e+00 0.0000000000000000e+00  1.8481636579032699e+00 2.3314980193882011e+00 0.0000000000000000e+00  1.8478439502823676e+00 2.3316089682690655e+00 0.0000000000000000e+00  1.8478381354996232e+00 2.3318088701863111e+00 0.0000000000000000e+00  1.8476750446017041e+00 2.3319490076325140e+00 0.0000000000000000e+00  1.8476198724387949e+00 2.3318048780269955e+00 0.0000000000000000e+00  1.8477000171447147e+00 2.3314771074534346e+00 0.0000000000000000e+00  1.8480891688573211e+00 2.3312433641525159e+00 0.0000000000000000e+00  1.8480623005031167e+00 2.3300178785608443e+00 0.0000000000000000e+00  1.8487618488074318e+00 2.3303469703612407e+00 0.0000000000000000e+00  1.8484005260061067e+00 2.3289203323397190e+00 0.0000000000000000e+00  1.8489736985307461e+00 2.3301164289078624e+00 0.0000000000000000e+00  1.8481750341436554e+00 2.3276947503721992e+00 0.0000000000000000e+00  1.8494337374543415e+00 2.3313724095753772e+00 0.0000000000000000e+00  1.8480245799164376e+00 2.3239291253461989e+00 0.0000000000000000e+00  1.8507893612934470e+00 2.3305706424483668e+00 0.0000000000000000e+00  1.8222585132811413e+00 2.3860318069401463e+00 0.0000000000000000e+00  2.0471481866480681e+00 1.8891229692898781e+00 0.0000000000000000e+00  2.6337560590901705e+00 5.9732889195118566e-01 0.0000000000000000e+00  2.9323287359591328e+00 7.5057933555572678e-02 0.0000000000000000e+00  2.9750105980747010e+00 1.5917494497542876e-03 0.0000000000000000e+00  2.9618016228938222e+00 5.7300857809524245e-03 0.0000000000000000e+00  2.9710088108137596e+00 -7.9500311623603697e-03 0.0000000000000000e+00  2.9717566384306693e+00 -6.3400568153702090e-03 0.0000000000000000e+00  2.9710163895233883e+00 -7.0969265504777024e-03 0.0000000000000000e+00  2.9725215733186632e+00 -1.0570399025069776e-02 0.0000000000000000e+00  2.9725356405398671e+00 -9.5405878470606470e-03 0.0000000000000000e+00  2.9715304867626138e+00 -8.4073501314243654e-03 0.0000000000000000e+00  2.9717221331910801e+00 -8.5133173141569481e-03 0.0000000000000000e+00  2.9718053867748173e+00 -9.0883511115790461e-03 0.0000000000000000e+00  2.9720080840300258e+00 -8.8206061979465601e-03 0.0000000000000000e+00  2.9717421688552914e+00 -9.1478490368482150e-03 0.0000000000000000e+00  2.9718894488375307e+00 -8.7353125383008001e-03 0.0000000000000000e+00  2.9715999629538246e+00 -8.7420257875197201e-03 0.0000000000000000e+00  2.9718917595765912e+00 -8.9741619122833283e-03 0.0000000000000000e+00  2.9716468976539256e+00 -8.9647822646223563e-03 0.0000000000000000e+00  2.9718487855668307e+00 -8.5980836609947740e-03 0.0000000000000000e+00  2.9716036512846791e+00 -9.1999591660033679e-03 0.0000000000000000e+00  2.9718307759800529e+00 -8.6570411947917460e-03 0.0000000000000000e+00  2.9715800924943312e+00 -8.8346267504769531e-03 0.0000000000000000e+00  2.9718069432688958e+00 -9.6388510740475046e-03 0.0000000000000000e+00  2.9716007174519672e+00 -8.5702704885065647e-03 0.0000000000000000e+00  2.9717518943859944e+00 -9.5615649524323741e-03 0.0000000000000000e+00  2.9716161102624628e+00 -9.7763835983508563e-03 0.0000000000000000e+00  2.9717168198442305e+00 -8.5452837099321121e-03 0.0000000000000000e+00  2.9716165189213259e+00 -1.4848621930074741e-02 0.0000000000000000e+00  2.9716795402610989e+00 -1.0081444629379941e-02 0.0000000000000000e+00  2.9716250916596971e+00 0.0000000000000000e+00 0.0000000000000000e+00  1.9789513512573573e+00 0.0000000000000000e+00 -3.3601825417344411e-05  1.9789260399031916e+00 4.4725509150146885e-02 5.4717352815907352e-06  1.9788503651489353e+00 8.9471432185399394e-02 1.1287259564853881e-05  1.9787242247237367e+00 1.3417817169809479e-01 -4.2622229413979519e-06  1.9785478234096587e+00 1.7887638048486576e-01 2.4865052771656172e-06  1.9783192101111668e+00 2.2355976662799185e-01 -8.3427858285532648e-08  1.9780409339755414e+00 2.6820819654077654e-01 3.4027594630288176e-07  1.9777086656427076e+00 3.1283548510764886e-01 -2.9628912190603402e-08  1.9773252527648990e+00 3.5741473147490432e-01 7.3322164600853268e-07  1.9768872993765239e+00 4.0196191385947300e-01 1.5656124682800937e-07  1.9763957991408814e+00 4.4645375257115094e-01 -8.1116082633263868e-07  1.9758475513990996e+00 4.9089570423656559e-01 3.3532134065013576e-06  1.9752449789622846e+00 5.3526769481519099e-01 -6.3602118669465663e-06  1.9745813534830083e+00 5.7959203116966374e-01 1.1117377532609176e-05  1.9738620557244393e+00 6.2381465871218167e-01 -1.5451645919878498e-05  1.9730785276786083e+00 6.6797805219369000e-01 1.8879213914070698e-05  1.9722354502378354e+00 7.1204611265154394e-01 -1.9242924643387095e-05  1.9713250115455652e+00 7.5601178799407431e-01 1.6138469777144852e-05  1.9703516973966346e+00 7.9987068044778609e-01 -9.7479261277222090e-06  1.9693057997193570e+00 8.4363768877508272e-01 1.5182516022874452e-06  1.9681923675268702e+00 8.8724899306651905e-01 5.9997484020438826e-06  1.9670041696577918e+00 9.3073514431980509e-01 -1.1802504441472314e-05  1.9657385193797767e+00 9.7412153693054837e-01 1.3804757029927242e-05  1.9643962590119517e+00 1.0172674538367255e+00 -1.2403771191521307e-05  1.9629708173352611e+00 1.0603232858075355e+00 5.9058373779678654e-06  1.9614575020106322e+00 1.1031835513685249e+00 2.4121808355196903e-06  1.9598604428799866e+00 1.1458031930019521e+00 -1.1084367800505622e-05  1.9581652781517318e+00 1.1882811276410761e+00 1.4723671858659508e-05  1.9563766876395245e+00 1.2305095064887095e+00 -1.4977045989590514e-05  1.9544861770712387e+00 1.2724849487429120e+00 1.1613849810693859e-05  1.9524928685024072e+00 1.3142190535927560e+00 -1.0151195229177756e-05  1.9503843816400550e+00 1.3557135224694983e+00 9.1595312517140828e-06  1.9481704961480857e+00 1.3968409387331793e+00 -1.0679489970660692e-05  1.9458303812579811e+00 1.4377224604408017e+00 1.0326945236983162e-05  1.9433698101888561e+00 1.4782518962576674e+00 -1.0120200569167297e-05  1.9407816939239402e+00 1.5183996051717734e+00 7.1715450965431827e-06  1.9380611286588001e+00 1.5581826884435810e+00 -5.9684867408055320e-06  1.9351972464554532e+00 1.5975851453477892e+00 4.7600884364220794e-06  1.9322020858495963e+00 1.6364819517689664e+00 -6.7626097632793906e-06  1.9290515120576730e+00 1.6749783051576124e+00 5.8465782170156050e-06  1.9257564546063219e+00 1.7129556073975574e+00 -3.7612220922977200e-06  1.9223103259517551e+00 1.7503845858825151e+00 -1.9123489085270348e-06  1.9187111420744196e+00 1.7872596020927287e+00 4.2173722925167489e-06  1.9149539382869969e+00 1.8235575995135940e+00 -6.5680667644928791e-06  1.9110546333323477e+00 1.8591560959926823e+00 7.5071533565766605e-06  1.9069986815759539e+00 1.8941029674678203e+00 -1.1568564104067074e-05  1.9028055715260228e+00 1.9283164645432287e+00 1.4445297732040632e-05  1.8984829955034119e+00 1.9616981755916820e+00 -1.8873493607858174e-05  1.8940433561563568e+00 1.9942649704047077e+00 2.1879720356294975e-05  1.8895050349165923e+00 2.0258938940409807e+00 -2.6201827180965256e-05  1.8849060397340465e+00 2.0565114427861091e+00 2.7630146001886272e-05  1.8802658513431429e+00 2.0860307369928566e+00 -3.0533823977282761e-05  1.8756424796840034e+00 2.1143750501177609e+00 3.2369315255163271e-05  1.8710877673302806e+00 2.1413172007421259e+00 -3.6661091870051057e-05  1.8666738806841432e+00 2.1668221192666430e+00 3.9357169837552384e-05  1.8624820586459803e+00 2.1906061625518785e+00 -4.4588839153617694e-05  1.8586174861207156e+00 2.2125360472407296e+00 4.8345457844657822e-05  1.8551754210518923e+00 2.2323302210453053e+00 -5.1622063965770602e-05  1.8522619480906031e+00 2.2498881287634251e+00 5.5390283864681621e-05  1.8499627189146632e+00 2.2649133686160070e+00 -5.6296446275848020e-05  1.8483130322680936e+00 2.2775183565616253e+00 6.2241224455047880e-05  1.8473083580017675e+00 2.2876285316285729e+00 -6.2048889255196795e-05  1.8468598973661172e+00 2.2956239828072960e+00 6.7325914555427276e-05  1.8468471063928698e+00 2.3017218020932289e+00 -6.9390594396625966e-05  1.8470956931224829e+00 2.3065221341185396e+00 6.8642193120351970e-05  1.8474926739328514e+00 2.3102026459444809e+00 -7.0384258496602889e-05  1.8479000659457454e+00 2.3132874916278596e+00 6.6053502804699026e-05  1.8482917829871068e+00 2.3157753209623464e+00 -6.4697875595912365e-05  1.8486085602783355e+00 2.3179718091961741e+00 6.0142063686462077e-05  1.8488780568201149e+00 2.3197771976577486e+00 -5.4384624508495962e-05  1.8490592703961211e+00 2.3214235215445185e+00 4.7630871790790900e-05  1.8492133191190332e+00 2.3227653924487761e+00 -3.7119838736523988e-05  1.8492933393777407e+00 2.3239815782223827e+00 2.5979626837469178e-05  1.8493507603024351e+00 2.3250024853146125e+00 -1.2673405614505513e-05  1.8493675779417562e+00 2.3258845914653663e+00 -1.8259418490104429e-06  1.8493695740694067e+00 2.3266583148152806e+00 1.7101398078696703e-05  1.8493345945938302e+00 2.3272814596837099e+00 -3.4167852762394451e-05  1.8493113415670732e+00 2.3278981131755434e+00 5.0664534617858997e-05  1.8492588426749856e+00 2.3282912401763518e+00 -6.9130310487761312e-05  1.8492040947907817e+00 2.3288036579762070e+00 8.6520208011184766e-05  1.8491590697526634e+00 2.3290475848618990e+00 -1.0494732365077671e-04  1.8490939432553137e+00 2.3294696584305852e+00 1.2142913703370623e-04  1.849039936394963