<?xml version="1.0"?>
<VTKFile type="UnstructuredGrid"  version="0.1"  >
<UnstructuredGrid>
<Piece  NumberOfPoints="8241" NumberOfCells="16000">
<Points>
<DataArray  type="Float64"  NumberOfComponents="3"  format="ascii">-5 -1 0  -4.95 -1 0  -4.9 -1 0  -4.85 -1 0  -4.8 -1 0  -4.75 -1 0  -4.7 -1 0  -4.65 -1 0  -4.6 -1 0  -4.55 -1 0  -4.5 -1 0  -4.45 -1 0  -4.4 -1 0  -4.35 -1 0  -4.3 -1 0  -4.25 -1 0  -4.2 -1 0  -4.15 -1 0  -4.1 -1 0  -4.05 -1 0  -4 -1 0  -3.95 -1 0  -3.9 -1 0  -3.85 -1 0  -3.8 -1 0  -3.75 -1 0  -3.7 -1 0  -3.65 -1 0  -3.6 -1 0  -3.55 -1 0  -3.5 -1 0  -3.45 -1 0  -3.4 -1 0  -3.35 -1 0  -3.3 -1 0  -3.25 -1 0  -3.2 -1 0  -3.15 -1 0  -3.1 -1 0  -3.05 -1 0  -3 -1 0  -2.95 -1 0  -2.9 -1 0  -2.85 -1 0  -2.8 -1 0  -2.75 -1 0  -2.7 -1 0  -2.65 -1 0  -2.6 -1 0  -2.55 -1 0  -2.5 -1 0  -2.45 -1 0  -2.4 -1 0  -2.35 -1 0  -2.3 -1 0  -2.25 -1 0  -2.2 -1 0  -2.15 -1 0  -2.1 -1 0  -2.05 -1 0  -2 -1 0  -1.95 -1 0  -1.9 -1 0  -1.85 -1 0  -1.8 -1 0  -1.75 -1 0  -1.7 -1 0  -1.65 -1 0  -1.6 -1 0  -1.55 -1 0  -1.5 -1 0  -1.45 -1 0  -1.4 -1 0  -1.35 -1 0  -1.3 -1 0  -1.25 -1 0  -1.2 -1 0  -1.15 -1 0  -1.1 -1 0  -1.05 -1 0  -1 -1 0  -0.9500000000000002 -1 0  -0.9000000000000004 -1 0  -0.8499999999999996 -1 0  -0.7999999999999998 -1 0  -0.75 -1 0  -0.7000000000000002 -1 0  -0.6500000000000004 -1 0  -0.5999999999999996 -1 0  -0.5499999999999998 -1 0  -0.5 -1 0  -0.4500000000000002 -1 0  -0.4000000000000004 -1 0  -0.3499999999999996 -1 0  -0.2999999999999998 -1 0  -0.25 -1 0  -0.2000000000000002 -1 0  -0.1500000000000004 -1 0  -0.09999999999999964 -1 0  -0.04999999999999982 -1 0  0 -1 0  0.04999999999999982 -1 0  0.09999999999999964 -1 0  0.1500000000000004 -1 0  0.2000000000000002 -1 0  0.25 -1 0  0.2999999999999998 -1 0  0.3499999999999996 -1 0  0.4000000000000004 -1 0  0.4500000000000002 -1 0  0.5 -1 0  0.5499999999999998 -1 0  0.5999999999999996 -1 0  0.6500000000000004 -1 0  0.7000000000000002 -1 0  0.75 -1 0  0.7999999999999998 -1 0  0.8499999999999996 -1 0  0.9000000000000004 -1 0  0.9500000000000002 -1 0  1 -1 0  1.05 -1 0  1.1 -1 0  1.15 -1 0  1.2 -1 0  1.25 -1 0  1.3 -1 0  1.35 -1 0  1.4 -1 0  1.45 -1 0  1.5 -1 0  1.55 -1 0  1.6 -1 0  1.65 -1 0  1.7 -1 0  1.75 -1 0  1.8 -1 0  1.85 -1 0  1.9 -1 0  1.95 -1 0  2 -1 0  2.05 -1 0  2.1 -1 0  2.15 -1 0  2.2 -1 0  2.25 -1 0  2.3 -1 0  2.35 -1 0  2.4 -1 0  2.45 -1 0  2.5 -1 0  2.55 -1 0  2.6 -1 0  2.65 -1 0  2.7 -1 0  2.75 -1 0  2.8 -1 0  2.85 -1 0  2.9 -1 0  2.95 -1 0  3 -1 0  3.050000000000001 -1 0  3.1 -1 0  3.15 -1 0  3.199999999999999 -1 0  3.25 -1 0  3.300000000000001 -1 0  3.35 -1 0  3.4 -1 0  3.449999999999999 -1 0  3.5 -1 0  3.550000000000001 -1 0  3.6 -1 0  3.65 -1 0  3.699999999999999 -1 0  3.75 -1 0  3.800000000000001 -1 0  3.85 -1 0  3.9 -1 0  3.949999999999999 -1 0  4 -1 0  4.050000000000001 -1 0  4.1 -1 0  4.15 -1 0  4.199999999999999 -1 0  4.25 -1 0  4.300000000000001 -1 0  4.35 -1 0  4.4 -1 0  4.449999999999999 -1 0  4.5 -1 0  4.550000000000001 -1 0  4.6 -1 0  4.65 -1 0  4.699999999999999 -1 0  4.75 -1 0  4.800000000000001 -1 0  4.85 -1 0  4.9 -1 0  4.949999999999999 -1 0  5 -1 0  -5 -0.95 0  -4.95 -0.95 0  -4.9 -0.95 0  -4.85 -0.95 0  -4.8 -0.95 0  -4.75 -0.95 0  -4.7 -0.95 0  -4.65 -0.95 0  -4.6 -0.95 0  -4.55 -0.95 0  -4.5 -0.95 0  -4.45 -0.95 0  -4.4 -0.95 0  -4.35 -0.95 0  -4.3 -0.95 0  -4.25 -0.95 0  -4.2 -0.95 0  -4.15 -0.95 0  -4.1 -0.95 0  -4.05 -0.95 0  -4 -0.95 0  -3.95 -0.95 0  -3.9 -0.95 0  -3.85 -0.95 0  -3.8 -0.95 0  -3.75 -0.95 0  -3.7 -0.95 0  -3.65 -0.95 0  -3.6 -0.95 0  -3.55 -0.95 0  -3.5 -0.95 0  -3.45 -0.95 0  -3.4 -0.95 0  -3.35 -0.95 0  -3.3 -0.95 0  -3.25 -0.95 0  -3.2 -0.95 0  -3.15 -0.95 0  -3.1 -0.95 0  -3.05 -0.95 0  -3 -0.95 0  -2.95 -0.95 0  -2.9 -0.95 0  -2.85 -0.95 0  -2.8 -0.95 0  -2.75 -0.95 0  -2.7 -0.95 0  -2.65 -0.95 0  -2.6 -0.95 0  -2.55 -0.95 0  -2.5 -0.95 0  -2.45 -0.95 0  -2.4 -0.95 0  -2.35 -0.95 0  -2.3 -0.95 0  -2.25 -0.95 0  -2.2 -0.95 0  -2.15 -0.95 0  -2.1 -0.95 0  -2.05 -0.95 0  -2 -0.95 0  -1.95 -0.95 0  -1.9 -0.95 0  -1.85 -0.95 0  -1.8 -0.95 0  -1.75 -0.95 0  -1.7 -0.95 0  -1.65 -0.95 0  -1.6 -0.95 0  -1.55 -0.95 0  -1.5 -0.95 0  -1.45 -0.95 0  -1.4 -0.95 0  -1.35 -0.95 0  -1.3 -0.95 0  -1.25 -0.95 0  -1.2 -0.95 0  -1.15 -0.95 0  -1.1 -0.95 0  -1.05 -0.95 0  -1 -0.95 0  -0.9500000000000002 -0.95 0  -0.9000000000000004 -0.95 0  -0.8499999999999996 -0.95 0  -0.7999999999999998 -0.95 0  -0.75 -0.95 0  -0.7000000000000002 -0.95 0  -0.6500000000000004 -0.95 0  -0.5999999999999996 -0.95 0  -0.5499999999999998 -0.95 0  -0.5 -0.95 0  -0.4500000000000002 -0.95 0  -0.4000000000000004 -0.95 0  -0.3499999999999996 -0.95 0  -0.2999999999999998 -0.95 0  -0.25 -0.95 0  -0.2000000000000002 -0.95 0  -0.1500000000000004 -0.95 0  -0.09999999999999964 -0.95 0  -0.04999999999999982 -0.95 0  0 -0.95 0  0.04999999999999982 -0.95 0  0.09999999999999964 -0.95 0  0.1500000000000004 -0.95 0  0.2000000000000002 -0.95 0  0.25 -0.95 0  0.2999999999999998 -0.95 0  0.3499999999999996 -0.95 0  0.4000000000000004 -0.95 0  0.4500000000000002 -0.95 0  0.5 -0.95 0  0.5499999999999998 -0.95 0  0.5999999999999996 -0.95 0  0.6500000000000004 -0.95 0  0.7000000000000002 -0.95 0  0.75 -0.95 0  0.7999999999999998 -0.95 0  0.8499999999999996 -0.95 0  0.9000000000000004 -0.95 0  0.9500000000000002 -0.95 0  1 -0.95 0  1.05 -0.95 0  1.1 -0.95 0  1.15 -0.95 0  1.2 -0.95 0  1.25 -0.95 0  1.3 -0.95 0  1.35 -0.95 0  1.4 -0.95 0  1.45 -0.95 0  1.5 -0.95 0  1.55 -0.95 0  1.6 -0.95 0  1.65 -0.95 0  1.7 -0.95 0  1.75 -0.95 0  1.8 -0.95 0  1.85 -0.95 0  1.9 -0.95 0  1.95 -0.95 0  2 -0.95 0  2.05 -0.95 0  2.1 -0.95 0  2.15 -0.95 0  2.2 -0.95 0  2.25 -0.95 0  2.3 -0.95 0  2.35 -0.95 0  2.4 -0.95 0  2.45 -0.95 0  2.5 -0.95 0  2.55 -0.95 0  2.6 -0.95 0  2.65 -0.95 0  2.7 -0.95 0  2.75 -0.95 0  2.8 -0.95 0  2.85 -0.95 0  2.9 -0.95 0  2.95 -0.95 0  3 -0.95 0  3.050000000000001 -0.95 0  3.1 -0.95 0  3.15 -0.95 0  3.199999999999999 -0.95 0  3.25 -0.95 0  3.300000000000001 -0.95 0  3.35 -0.95 0  3.4 -0.95 0  3.449999999999999 -0.95 0  3.5 -0.95 0  3.550000000000001 -0.95 0  3.6 -0.95 0  3.65 -0.95 0  3.699999999999999 -0.95 0  3.75 -0.95 0  3.800000000000001 -0.95 0  3.85 -0.95 0  3.9 -0.95 0  3.949999999999999 -0.95 0  4 -0.95 0  4.050000000000001 -0.95 0  4.1 -0.95 0  4.15 -0.95 0  4.199999999999999 -0.95 0  4.25 -0.95 0  4.300000000000001 -0.95 0  4.35 -0.95 0  4.4 -0.95 0  4.449999999999999 -0.95 0  4.5 -0.95 0  4.550000000000001 -0.95 0  4.6 -0.95 0  4.65 -0.95 0  4.699999999999999 -0.95 0  4.75 -0.95 0  4.800000000000001 -0.95 0  4.85 -0.95 0  4.9 -0.95 0  4.949999999999999 -0.95 0  5 -0.95 0  -5 -0.9 0  -4.95 -0.9 0  -4.9 -0.9 0  -4.85 -0.9 0  -4.8 -0.9 0  -4.75 -0.9 0  -4.7 -0.9 0  -4.65 -0.9 0  -4.6 -0.9 0  -4.55 -0.9 0  -4.5 -0.9 0  -4.45 -0.9 0  -4.4 -0.9 0  -4.35 -0.9 0  -4.3 -0.9 0  -4.25 -0.9 0  -4.2 -0.9 0  -4.15 -0.9 0  -4.1 -0.9 0  -4.05 -0.9 0  -4 -0.9 0  -3.95 -0.9 0  -3.9 -0.9 0  -3.85 -0.9 0  -3.8 -0.9 0  -3.75 -0.9 0  -3.7 -0.9 0  -3.65 -0.9 0  -3.6 -0.9 0  -3.55 -0.9 0  -3.5 -0.9 0  -3.45 -0.9 0  -3.4 -0.9 0  -3.35 -0.9 0  -3.3 -0.9 0  -3.25 -0.9 0  -3.2 -0.9 0  -3.15 -0.9 0  -3.1 -0.9 0  -3.05 -0.9 0  -3 -0.9 0  -2.95 -0.9 0  -2.9 -0.9 0  -2.85 -0.9 0  -2.8 -0.9 0  -2.75 -0.9 0  -2.7 -0.9 0  -2.65 -0.9 0  -2.6 -0.9 0  -2.55 -0.9 0  -2.5 -0.9 0  -2.45 -0.9 0  -2.4 -0.9 0  -2.35 -0.9 0  -2.3 -0.9 0  -2.25 -0.9 0  -2.2 -0.9 0  -2.15 -0.9 0  -2.1 -0.9 0  -2.05 -0.9 0  -2 -0.9 0  -1.95 -0.9 0  -1.9 -0.9 0  -1.85 -0.9 0  -1.8 -0.9 0  -1.75 -0.9 0  -1.7 -0.9 0  -1.65 -0.9 0  -1.6 -0.9 0  -1.55 -0.9 0  -1.5 -0.9 0  -1.45 -0.9 0  -1.4 -0.9 0  -1.35 -0.9 0  -1.3 -0.9 0  -1.25 -0.9 0  -1.2 -0.9 0  -1.15 -0.9 0  -1.1 -0.9 0  -1.05 -0.9 0  -1 -0.9 0  -0.9500000000000002 -0.9 0  -0.9000000000000004 -0.9 0  -0.8499999999999996 -0.9 0  -0.7999999999999998 -0.9 0  -0.75 -0.9 0  -0.7000000000000002 -0.9 0  -0.6500000000000004 -0.9 0  -0.5999999999999996 -0.9 0  -0.5499999999999998 -0.9 0  -0.5 -0.9 0  -0.4500000000000002 -0.9 0  -0.4000000000000004 -0.9 0  -0.3499999999999996 -0.9 0  -0.2999999999999998 -0.9 0  -0.25 -0.9 0  -0.2000000000000002 -0.9 0  -0.1500000000000004 -0.9 0  -0.09999999999999964 -0.9 0  -0.04999999999999982 -0.9 0  0 -0.9 0  0.04999999999999982 -0.9 0  0.09999999999999964 -0.9 0  0.1500000000000004 -0.9 0  0.2000000000000002 -0.9 0  0.25 -0.9 0  0.2999999999999998 -0.9 0  0.3499999999999996 -0.9 0  0.4000000000000004 -0.9 0  0.4500000000000002 -0.9 0  0.5 -0.9 0  0.5499999999999998 -0.9 0  0.5999999999999996 -0.9 0  0.6500000000000004 -0.9 0  0.7000000000000002 -0.9 0  0.75 -0.9 0  0.7999999999999998 -0.9 0  0.8499999999999996 -0.9 0  0.9000000000000004 -0.9 0  0.9500000000000002 -0.9 0  1 -0.9 0  1.05 -0.9 0  1.1 -0.9 0  1.15 -0.9 0  1.2 -0.9 0  1.25 -0.9 0  1.3 -0.9 0  1.35 -0.9 0  1.4 -0.9 0  1.45 -0.9 0  1.5 -0.9 0  1.55 -0.9 0  1.6 -0.9 0  1.65 -0.9 0  1.7 -0.9 0  1.75 -0.9 0  1.8 -0.9 0  1.85 -0.9 0  1.9 -0.9 0  1.95 -0.9 0  2 -0.9 0  2.05 -0.9 0  2.1 -0.9 0  2.15 -0.9 0  2.2 -0.9 0  2.25 -0.9 0  2.3 -0.9 0  2.35 -0.9 0  2.4 -0.9 0  2.45 -0.9 0  2.5 -0.9 0  2.55 -0.9 0  2.6 -0.9 0  2.65 -0.9 0  2.7 -0.9 0  2.75 -0.9 0  2.8 -0.9 0  2.85 -0.9 0  2.9 -0.9 0  2.95 -0.9 0  3 -0.9 0  3.050000000000001 -0.9 0  3.1 -0.9 0  3.15 -0.9 0  3.199999999999999 -0.9 0  3.25 -0.9 0  3.300000000000001 -0.9 0  3.35 -0.9 0  3.4 -0.9 0  3.449999999999999 -0.9 0  3.5 -0.9 0  3.550000000000001 -0.9 0  3.6 -0.9 0  3.65 -0.9 0  3.699999999999999 -0.9 0  3.75 -0.9 0  3.800000000000001 -0.9 0  3.85 -0.9 0  3.9 -0.9 0  3.949999999999999 -0.9 0  4 -0.9 0  4.050000000000001 -0.9 0  4.1 -0.9 0  4.15 -0.9 0  4.199999999999999 -0.9 0  4.25 -0.9 0  4.300000000000001 -0.9 0  4.35 -0.9 0  4.4 -0.9 0  4.449999999999999 -0.9 0  4.5 -0.9 0  4.550000000000001 -0.9 0  4.6 -0.9 0  4.65 -0.9 0  4.699999999999999 -0.9 0  4.75 -0.9 0  4.800000000000001 -0.9 0  4.85 -0.9 0  4.9 -0.9 0  4.949999999999999 -0.9 0  5 -0.9 0  -5 -0.85 0  -4.95 -0.85 0  -4.9 -0.85 0  -4.85 -0.85 0  -4.8 -0.85 0  -4.75 -0.85 0  -4.7 -0.85 0  -4.65 -0.85 0  -4.6 -0.85 0  -4.55 -0.85 0  -4.5 -0.85 0  -
[...]
<PointData  Vectors="f_15"> 
<DataArray  type="Float64"  Name="f_15"  NumberOfComponents="3" format="ascii">2.6115901468825400e+00 0.0000000000000000e+00 0.0000000000000000e+00  2.6117201752200003e+00 4.9567184483376520e-02 0.0000000000000000e+00  2.6102670288908518e+00 9.8764134514688545e-02 0.0000000000000000e+00  2.6092728311320483e+00 1.4625089816225886e-01 0.0000000000000000e+00  2.6063320427485750e+00 1.9683370895710853e-01 0.0000000000000000e+00  2.6042122700849566e+00 2.4258013415474458e-01 0.0000000000000000e+00  2.6000588221602050e+00 2.9314785656376374e-01 0.0000000000000000e+00  2.5966094071568273e+00 3.3754114794957490e-01 0.0000000000000000e+00  2.5910299618694501e+00 3.8758365147537044e-01 0.0000000000000000e+00  2.5866672315251389e+00 4.3045129099942209e-01 0.0000000000000000e+00  2.5793860828399771e+00 4.8002964562256895e-01 0.0000000000000000e+00  2.5739056133549414e+00 5.2080245655097279e-01 0.0000000000000000e+00  2.5653482255208164e+00 5.6948989515921411e-01 0.0000000000000000e+00  2.5585307394831713e+00 6.0849876030443395e-01 0.0000000000000000e+00  2.5484451317576919e+00 6.5608572340660765e-01 0.0000000000000000e+00  2.5407976545737014e+00 6.9186846503014099e-01 0.0000000000000000e+00  2.5290307193618511e+00 7.4110485533137160e-01 0.0000000000000000e+00  2.5202535947217677e+00 7.7021344033614392e-01 0.0000000000000000e+00  2.5074657151895501e+00 8.2379439648897812e-01 0.0000000000000000e+00  2.4974262783143053e+00 8.4486127530211508e-01 0.0000000000000000e+00  2.4833227981000494e+00 9.0363946564343778e-01 0.0000000000000000e+00  2.4728527605560666e+00 9.1526988806623344e-01 0.0000000000000000e+00  2.4572301561294725e+00 9.8273797582593647e-01 0.0000000000000000e+00  2.4461780195555924e+00 9.7978441894294921e-01 0.0000000000000000e+00  2.4298410126825036e+00 1.0630033760211093e+00 0.0000000000000000e+00  2.4180731952334953e+00 1.0387636146425041e+00 0.0000000000000000e+00  2.4008068259291080e+00 1.1426198639060439e+00 0.0000000000000000e+00  2.3892616233466919e+00 1.0997116530075435e+00 0.0000000000000000e+00  2.3707746193222943e+00 1.2099299651873527e+00 0.0000000000000000e+00  2.3593296574181788e+00 1.1767871576328381e+00 0.0000000000000000e+00  2.3405887806803500e+00 1.2588348646114238e+00 0.0000000000000000e+00  2.3287490300218909e+00 1.2598756582228630e+00 0.0000000000000000e+00  2.3098395482548146e+00 1.3175201247351480e+00 0.0000000000000000e+00  2.2982464810363270e+00 1.3170155411243745e+00 0.0000000000000000e+00  2.2790859917530026e+00 1.4004398062152197e+00 0.0000000000000000e+00  2.2670654872443583e+00 1.3668536780100984e+00 0.0000000000000000e+00  2.2489734901671365e+00 1.4657440018814949e+00 0.0000000000000000e+00  2.2357615298388498e+00 1.4451362270923402e+00 0.0000000000000000e+00  2.2179843820476282e+00 1.5157388704142993e+00 0.0000000000000000e+00  2.2054693224865729e+00 1.5128064518000466e+00 0.0000000000000000e+00  2.1865258404274113e+00 1.5914421715796725e+00 0.0000000000000000e+00  2.1752242008670848e+00 1.5671729221081654e+00 0.0000000000000000e+00  2.1556144302362106e+00 1.6506867682286270e+00 0.0000000000000000e+00  2.1456681698648574e+00 1.6530655520738893e+00 0.0000000000000000e+00  2.1240662050033436e+00 1.6925694715303239e+00 0.0000000000000000e+00  2.1164952953323772e+00 1.7283173202273214e+00 0.0000000000000000e+00  2.0938775849898006e+00 1.7562472406930196e+00 0.0000000000000000e+00  2.0853457043969903e+00 1.7992724964287437e+00 0.0000000000000000e+00  2.0656157251561114e+00 1.8070294842746584e+00 0.0000000000000000e+00  2.0546619202023426e+00 1.8828315234862656e+00 0.0000000000000000e+00  2.0358120247861060e+00 1.8623698581906658e+00 0.0000000000000000e+00  2.0264324249491614e+00 1.9524773258135164e+00 0.0000000000000000e+00  2.0054614141940519e+00 1.9289296085913692e+00 0.0000000000000000e+00  1.9976405421575987e+00 2.0178654722522240e+00 0.0000000000000000e+00  1.9774877813573539e+00 1.9948200061118690e+00 0.0000000000000000e+00  1.9678387015870453e+00 2.0847242923634797e+00 0.0000000000000000e+00  1.9503433501939571e+00 2.0602027341635614e+00 0.0000000000000000e+00  1.9394456489847858e+00 2.1444083747562410e+00 0.0000000000000000e+00  1.9235482908196246e+00 2.1303581601472734e+00 0.0000000000000000e+00  1.9120311570759834e+00 2.2020768230696572e+00 0.0000000000000000e+00  1.8985884433656024e+00 2.1930365286378510e+00 0.0000000000000000e+00  1.8863467343172697e+00 2.2565685342386423e+00 0.0000000000000000e+00  1.8759515400234057e+00 2.2532590904468770e+00 0.0000000000000000e+00  1.8645213373358516e+00 2.2996154210892645e+00 0.0000000000000000e+00  1.8586180749972105e+00 2.3037616928392697e+00 0.0000000000000000e+00  1.8482801783536500e+00 2.3287136667104300e+00 0.0000000000000000e+00  1.8496571036064897e+00 2.3323700363114601e+00 0.0000000000000000e+00  1.8405378839409516e+00 2.3420994541564615e+00 0.0000000000000000e+00  1.8480408044894063e+00 2.3426800713628486e+00 0.0000000000000000e+00  1.8395555709610740e+00 2.3383920153301885e+00 0.0000000000000000e+00  1.8499725645303171e+00 2.3451894680190746e+00 0.0000000000000000e+00  1.8397216040976132e+00 2.3315618595925733e+00 0.0000000000000000e+00  1.8524590240288843e+00 2.3474468597538340e+00 0.0000000000000000e+00  1.8391307216671511e+00 2.3246420187386709e+00 0.0000000000000000e+00  1.8547151561902595e+00 2.3523705060724152e+00 0.0000000000000000e+00  1.8383502533937739e+00 2.3144637548606117e+00 0.0000000000000000e+00  1.8564212581168931e+00 2.3609709631782900e+00 0.0000000000000000e+00  1.8377894843412768e+00 2.3036108634366292e+00 0.0000000000000000e+00  1.8579627234898453e+00 2.3687834764631925e+00 0.0000000000000000e+00  1.8364313827501291e+00 2.2953233424993913e+00 0.0000000000000000e+00  1.8599021778728135e+00 2.3742625366041588e+00 0.0000000000000000e+00  1.8350268812432908e+00 2.2897014595795593e+00 0.0000000000000000e+00  1.8612583797231130e+00 2.3775772431600912e+00 0.0000000000000000e+00  1.8342872594489561e+00 2.2865902971966676e+00 0.0000000000000000e+00  1.8621151107537908e+00 2.3784762454516790e+00 0.0000000000000000e+00  1.8331957755276276e+00 2.2863046062051517e+00 0.0000000000000000e+00  1.8633528556093979e+00 2.3776119142600098e+00 0.0000000000000000e+00  1.8325983332364286e+00 2.2864884058510691e+00 0.0000000000000000e+00  1.8635699194632107e+00 2.3767363960928147e+00 0.0000000000000000e+00  1.8326584179496925e+00 2.2870567272420210e+00 0.0000000000000000e+00  1.8635139610838367e+00 2.3761111880083794e+00 0.0000000000000000e+00  1.8323374095950327e+00 2.2875393958393864e+00 0.0000000000000000e+00  1.8640029733446202e+00 2.3753744664613397e+00 0.0000000000000000e+00  1.8324953655223788e+00 2.2871911738739237e+00 0.0000000000000000e+00  1.8632716805351885e+00 2.3758479148097993e+00 0.0000000000000000e+00  1.8331550283571381e+00 2.2867899047911640e+00 0.0000000000000000e+00  1.8631849514871694e+00 2.3756012377340348e+00 0.0000000000000000e+00  1.8327075384644713e+00 2.2869819328008845e+00 0.0000000000000000e+00  1.8637156956732936e+00 2.3751865576103102e+00 0.0000000000000000e+00  1.8327729770311110e+00 2.2867767883439631e+00 0.0000000000000000e+00  1.8629842775318008e+00 2.3755807618455358e+00 0.0000000000000000e+00  1.8334540613258672e+00 2.2863669170696266e+00 0.0000000000000000e+00  1.8632095695080453e+00 2.3747856922983450e+00 0.0000000000000000e+00  1.8322787496933144e+00 2.2881714713048216e+00 0.0000000000000000e+00  1.8643731213157961e+00 2.3725615872295469e+00 0.0000000000000000e+00  1.8321775392502420e+00 2.2892062168317486e+00 0.0000000000000000e+00  1.8634506073219490e+00 2.3722766521103975e+00 0.0000000000000000e+00  1.8330847322870294e+00 2.2893610417042840e+00 0.0000000000000000e+00  1.8633582231609218e+00 2.3711249866546922e+00 0.0000000000000000e+00  1.8323950489601855e+00 2.2911408850975987e+00 0.0000000000000000e+00  1.8641313018539507e+00 2.3685662200808366e+00 0.0000000000000000e+00  1.8323917608185591e+00 2.2930367368067044e+00 0.0000000000000000e+00  1.8630115000595340e+00 2.3679126495488214e+00 0.0000000000000000e+00  1.8337497616123997e+00 2.2927504797718639e+00 0.0000000000000000e+00  1.8626051051580197e+00 2.3665513308959616e+00 0.0000000000000000e+00  1.8331593445128687e+00 2.2955969507773326e+00 0.0000000000000000e+00  1.8629674437586903e+00 2.3630245932944205e+00 0.0000000000000000e+00  1.8336645595071788e+00 2.2978004470556734e+00 0.0000000000000000e+00  1.8620218573017422e+00 2.3605189614695958e+00 0.0000000000000000e+00  1.8343332201588562e+00 2.2999897596872656e+00 0.0000000000000000e+00  1.8617486066431392e+00 2.3572690040006066e+00 0.0000000000000000e+00  1.8342746826407026e+00 2.3037728541485811e+00 0.0000000000000000e+00  1.8618626549815449e+00 2.3518806157485677e+00 0.0000000000000000e+00  1.8344246899807759e+00 2.3090026353358293e+00 0.0000000000000000e+00  1.8613281861833990e+00 2.3472633788329715e+00 0.0000000000000000e+00  1.8350006024749659e+00 2.3129325675967656e+00 0.0000000000000000e+00  1.8606156595138101e+00 2.3429441821490249e+00 0.0000000000000000e+00  1.8366393945587622e+00 2.3164147401252850e+00 0.0000000000000000e+00  1.8576558289485843e+00 2.3412291622645194e+00 0.0000000000000000e+00  1.8398450018277650e+00 2.3171845794087060e+00 0.0000000000000000e+00  1.8554223174611846e+00 2.3392792939926470e+00 0.0000000000000000e+00  1.8416684104877501e+00 2.3193741974642683e+00 0.0000000000000000e+00  1.8520726337426932e+00 2.3394062460431728e+00 0.0000000000000000e+00  1.8471007393119647e+00 2.3150186553662087e+00 0.0000000000000000e+00  1.8464177961288384e+00 2.3447939356964271e+00 0.0000000000000000e+00  1.8506871138695735e+00 2.3116333703540035e+00 0.0000000000000000e+00  1.8449108815978998e+00 2.3460374528906076e+00 0.0000000000000000e+00  1.8519897382778059e+00 2.3099673062109334e+00 0.0000000000000000e+00  1.8423677326752541e+00 2.3495027798813077e+00 0.0000000000000000e+00  1.8550725561707861e+00 2.3035652152982928e+00 0.0000000000000000e+00  1.8404022174979222e+00 2.3520484858528126e+00 0.0000000000000000e+00  1.8549917773825164e+00 2.2971167660229663e+00 0.0000000000000000e+00  1.8418951463010755e+00 2.3496404235822816e+00 0.0000000000000000e+00  1.8533031361542927e+00 2.2913990753914955e+00 0.0000000000000000e+00  1.8430800495383517e+00 2.3441941707380889e+00 0.0000000000000000e+00  1.8525201493906454e+00 2.2871543887343417e+00 0.0000000000000000e+00  1.8440985936973893e+00 2.3413193163562678e+00 0.0000000000000000e+00  1.8509346795586088e+00 2.2828544740152048e+00 0.0000000000000000e+00  1.8464526571172362e+00 2.3420203326858036e+00 0.0000000000000000e+00  1.8486805222008555e+00 2.2848334701805708e+00 0.0000000000000000e+00  1.8486067146305636e+00 2.3402428354151326e+00 0.0000000000000000e+00  1.8477991369374587e+00 2.2899373104713674e+00 0.0000000000000000e+00  1.8500499719642591e+00 2.3428236408423806e+00 0.0000000000000000e+00  1.8473084800672390e+00 2.2891522131148716e+00 0.0000000000000000e+00  1.8527003105663493e+00 2.3454437256086234e+00 0.0000000000000000e+00  1.8473283863463410e+00 2.2897606455316608e+00 0.0000000000000000e+00  1.8551066915803174e+00 2.3413291064322075e+00 0.0000000000000000e+00  1.8498249059974581e+00 2.2873025885088571e+00 0.0000000000000000e+00  1.8581294777827597e+00 2.3377007644904628e+00 0.0000000000000000e+00  1.8521794897342920e+00 2.2796777852629955e+00 0.0000000000000000e+00  1.8633763713485865e+00 2.3293103276110445e+00 0.0000000000000000e+00  1.8557759201607080e+00 2.2740746697068661e+00 0.0000000000000000e+00  1.8667551880104076e+00 2.3180581700150689e+00 0.0000000000000000e+00  1.8613001187964575e+00 2.2654661576837034e+00 0.0000000000000000e+00  1.8701559104189986e+00 2.3102539729407474e+00 0.0000000000000000e+00  1.8638608030588371e+00 2.2582062295061314e+00 0.0000000000000000e+00  1.8736178661449856e+00 2.3019102402844189e+00 0.0000000000000000e+00  1.8662032119694223e+00 2.2559810530784770e+00 0.0000000000000000e+00  1.8735910276484855e+00 2.2962531593822666e+00 0.0000000000000000e+00  1.8672477578360549e+00 2.2563778955103744e+00 0.0000000000000000e+00  1.8745803895287738e+00 2.2933566144657314e+00 0.0000000000000000e+00  1.8647538087495008e+00 2.2595127738157403e+00 0.0000000000000000e+00  1.8744414091288877e+00 2.2941410531542874e+00 0.0000000000000000e+00  1.8637762723930691e+00 2.2627111882266218e+00 0.0000000000000000e+00  1.8723386395297459e+00 2.2957508440861911e+00 0.0000000000000000e+00  1.8604334268421581e+00 2.2718707116582459e+00 0.0000000000000000e+00  1.8734416296660936e+00 2.2941919723524293e+00 0.0000000000000000e+00  1.8547764636930772e+00 2.2816224896147839e+00 0.0000000000000000e+00  1.8721714332133192e+00 2.3009600880351160e+00 0.0000000000000000e+00  1.8531943781596438e+00 2.2835835474348740e+00 0.0000000000000000e+00  1.8684781395594985e+00 2.3103255368354549e+00 0.0000000000000000e+00  1.8501250182938644e+00 2.2903228782624128e+00 0.0000000000000000e+00  1.8703748976259702e+00 2.3122129738674784e+00 0.0000000000000000e+00  1.8441683871578998e+00 2.2966981001784288e+00 0.0000000000000000e+00  1.8727101032445959e+00 2.3204838002677866e+00 0.0000000000000000e+00  1.8439987249767098e+00 2.2921219320741599e+00 0.0000000000000000e+00  1.8704008585000469e+00 2.3257486235624709e+00 0.0000000000000000e+00  1.8462105782409577e+00 2.2846746178790229e+00 0.0000000000000000e+00  1.8713256449888607e+00 2.3121477869873521e+00 0.0000000000000000e+00  1.8427644322830630e+00 2.2657002478191073e+00 0.0000000000000000e+00  1.8742369362449043e+00 2.2930897568831812e+00 0.0000000000000000e+00  1.8404062951482323e+00 2.2446110966310084e+00 0.0000000000000000e+00  1.8701512523279171e+00 2.2752680313084039e+00 0.0000000000000000e+00  1.8410068553622243e+00 2.2520515842733957e+00 0.0000000000000000e+00  1.8633252720094668e+00 2.2624420232424640e+00 0.0000000000000000e+00  1.8286588119031402e+00 2.3115270061451070e+00 0.0000000000000000e+00  1.9018994789489942e+00 2.1553262951982068e+00 0.0000000000000000e+00  2.3502246289111985e+00 1.1914611606206928e+00 0.0000000000000000e+00  2.7596574399972327e+00 2.7052499968542304e-01 0.0000000000000000e+00  2.9271995154813979e+00 6.8644879222442251e-02 0.0000000000000000e+00  2.9093851574825851e+00 0.0000000000000000e+00 0.0000000000000000e+00  2.6118347256040737e+00 0.0000000000000000e+00 2.9081519201152334e-03  2.6117964725863581e+00 4.8350029122207705e-02 -2.4081485562569920e-03  2.6108071464205387e+00 9.9024974608300065e-02 2.7384392026669389e-03  2.6094055448859472e+00 1.4668279655036284e-01 -2.8536823779265474e-03  2.6072760681288978e+00 1.9802827712428367e-01 2.6834970439397277e-03  2.6048435423289109e+00 2.4448352716141389e-01 -2.6633294153263687e-03  2.6012751669532719e+00 2.9537535786787983e-01 2.6119572039273948e-03  2.5976692324246184e+00 3.4085474270830979e-01 -2.5611396188973696e-03  2.5930057716581056e+00 3.9064853753593010e-01 2.6730235754121819e-03  2.5879767283021557e+00 4.3520404016538894e-01 -2.9041366028545262e-03  2.5819843038266357e+00 4.8371943246019128e-01 3.1326617920095622e-03  2.5759696246513522e+00 5.2671876544221230e-01 -3.6285340601015128e-03  2.5683624590825715e+00 5.7451619221082484e-01 4.1429120053893802e-03  2.5611726223565499e+00 6.1504553443600773e-01 -5.0421206993095918e-03  2.5523634518902529e+00 6.6201463285450679e-01 6.0137540552589385e-03  2.5438757837919748e+00 7.0055011759859520e-01 -7.3996221446021651e-03  2.5335214599152303e+00 7.4613267033440511e-01 8.7882904792502010e-03  2.5243867834423592e+00 7.8198981162341175e-01 -1.0408344541485448e-02  2.5122962304711778e+00 8.2801858914342696e-01 1.1763721321142149e-02  2.5022535875222403e+00 8.5930369169033949e-01 -1.3155069236492569e-02  2.4891428026790656e+00 9.0642921382260355e-01 1.4288112916936565e-02  2.4780663221068333e+00 9.3460495848357306e-01 -1.5617307520587740e-02  2.4636435543591877e+00 9.8057858984664470e-01 1.6970060759194844e-02  2.4524226170776826e+00 1.0078256760157103e+00 -1.8475154093914935e-02  2.4364683240108906e+00 1.0522281704433518e+00 1.9686303846554992e-02  2.4248862056894098e+00 1.0777600969679590e+00 -2.0254625051215291e-02  2.4083970086107631e+00 1.1236827442899926e+00 1.9707571523747344e-02  2.3960161632141013e+00 1.1424469906389330e+00 -1.8307334687618665e-02  2.3790159193912714e+00 1.1980241370443465e+00 1.6611460326364857e-02  2.3667110331655836e+00 1.2025308424266574e+00 -1.6163969398852635e-02  2.3486049645610780e+00 1.2701078914737294e+00 1.7672230476066485e-02  2.3367572281295632e+00 1.2697621151715377e+00 -2.1220546089451078e-02  2.3177661078690042e+00 1.3293747370566282e+00 2.5781091379537716e-02  2.3065628372784563e+00 1.3453494793442484e+00 -2.9568966710111694e-02  2.2859934588984672e+00 1.3906997481063044e+00 3.3155706974760259e-02  2.2768085821613919e+00 1.4044859647326573e+00 -3.6580674723503480e-02  2.2537936036846276e+00 1.4731770270033495e+00 4.2716994255931749e-02  2.2465261930861016e+00 1.4507561732058336e+00 -4.9302427795690065e-02  2.2224006391625317e+00 1.5492649190680927e+00 5.5172872687524431e-02  2.2156239380774649e+00 1.5177150875044489e+00 -5.5314929800848373e-02  2.1913393749439254e+00 1.6064782273461355e+00 5.1794767746228369e-02  2.1849287879741590e+00 1.5860089561217245e+00 -4.6684300225992223e-02  2.1604665960270211e+00 1.6785940488274775e+00 4.7146828985581077e-02  2.1540062674329379e+00 1.6398639677050082e+00 -5.1133479956503081e-02  2.1295864174540182e+00 1.7504305800375590e+00 5.6676898264685777e-02  2.1238506086943358e+00 1.7063895070120292e+00 -5.5553979921520100e-02  2.0979384805152734e+00 1.8126352869113900e+00 5.0027396796871682e-02  2.0941757649577397e+00 1.7717222681000766e+00 -4.2329941446627065e-02  2.0676031211132102e+00 1.8771159042214915e+00 3.7628437187359538e-02  2.0626070935561049e+00 1.8418983639745554e+00 -3.5321683582907187e-02  2.0394601447328222e+00 1.9315585017455359e+00 3.2855627791112021e-02  2.0308258905615930e+00 1.9158891825434761e+00 -2.9636813942735148e-02  2.0104186541910098e+00 1.9885497991360512e+00 2.5203723312968780e-02  2.0013786046927247e+00 1.9850101081037148e+00 -2.1810098755337542e-02  1.9804478614430048e+00 2.0485534571053514e+00 1.8534129757946344e-02  1.9722821772239107e+00 2.0508072540299822e+00 -1.6968346925503443e-02  1.9521080717647987e+00 2.1075267050899242e+00 1.5113639191724529e-02  1.9429504544990430e+00 2.1189530053700354e+00 -1.3751953550333566e-02  1.9246380561888206e+00 2.1647448388992276e+00 1.1776662504754469e-02  1.9152707915037048e+00 2.1797280925349223e+00 -1.0950858915547304e-02  1.8982843292753098e+00 2.2236817911659634e+00 1.0086841674584176e-02  1.8894884232485911e+00 2.2379574856219602e+00 -9.4716610974393614e-03  1.8748832348795708e+00 2.2736462168623932e+00 8.6757394029996771e-03  1.8675983037765014e+00 2.2885050398411608e+00 -8.5348297254728752e-03  1.8556102156755439e+00 2.3153671934871198e+00 8.2819968932702649e-03  1.8525955966455236e+00 2.3216278094884224e+00 -8.1822557504204665e-03  1.8442391201008947e+00 2.3426193395265922e+00 8.2704143505287330e-03  1.8456519726575751e+00 2.3350694116092963e+00 -8.6057325986506061e-03  1.8417933316967687e+00 2.3473876187183049e+00 8.7769870719651057e-03  1.8451688868222409e+00 2.3360031666073890e+00 -8.9308479830924152e-03  1.8425973377619775e+00 2.3450348191538088e+00 9.2055916686028354e-03  1.8465261415670802e+00 2.3325579606327969e+00 -9.5611816133327962e-03  1.8431351847306952e+00 2.3428378325239656e+00 9.7910305092840186e-03  1.8477491767715462e+00 2.3303861361468661e+00 -1.0262610707598617e-02  1.8437645846557689e+00 2.3397624179370080e+00 1.0747288183628776e-02  1.8483832558618860e+00 2.3305181405861206e+00 -1.1246436581800160e-02  1.8443560114033777e+00 2.3379348745397404e+00 1.1788069722845714e-02  1.8487907800009942e+00 2.3288695830168518e+00 -1.2474170535561114e-02  1.8442684270386298e+00 2.3391887297265952e+00 1.3073580965193406e-02  1.8495945424399012e+00 2.3262565743868571e+00 -1.3397669658844884e-02  1.8442492057804825e+00 2.3407411745428854e+00 1.3517565335164735e-02  1.8496250129747254e+00 2.3245531315138548e+00 -1.3341726857083411e-02  1.8449200258222824e+00 2.3414557991505500