<?xml version="1.0"?>
<VTKFile type="UnstructuredGrid"  version="0.1"  >
<UnstructuredGrid>
<Piece  NumberOfPoints="8241" NumberOfCells="16000">
<Points>
<DataArray  type="Float64"  NumberOfComponents="3"  format="ascii">-5 -1 0  -4.95 -1 0  -4.9 -1 0  -4.85 -1 0  -4.8 -1 0  -4.75 -1 0  -4.7 -1 0  -4.65 -1 0  -4.6 -1 0  -4.55 -1 0  -4.5 -1 0  -4.45 -1 0  -4.4 -1 0  -4.35 -1 0  -4.3 -1 0  -4.25 -1 0  -4.2 -1 0  -4.15 -1 0  -4.1 -1 0  -4.05 -1 0  -4 -1 0  -3.95 -1 0  -3.9 -1 0  -3.85 -1 0  -3.8 -1 0  -3.75 -1 0  -3.7 -1 0  -3.65 -1 0  -3.6 -1 0  -3.55 -1 0  -3.5 -1 0  -3.45 -1 0  -3.4 -1 0  -3.35 -1 0  -3.3 -1 0  -3.25 -1 0  -3.2 -1 0  -3.15 -1 0  -3.1 -1 0  -3.05 -1 0  -3 -1 0  -2.95 -1 0  -2.9 -1 0  -2.85 -1 0  -2.8 -1 0  -2.75 -1 0  -2.7 -1 0  -2.65 -1 0  -2.6 -1 0  -2.55 -1 0  -2.5 -1 0  -2.45 -1 0  -2.4 -1 0  -2.35 -1 0  -2.3 -1 0  -2.25 -1 0  -2.2 -1 0  -2.15 -1 0  -2.1 -1 0  -2.05 -1 0  -2 -1 0  -1.95 -1 0  -1.9 -1 0  -1.85 -1 0  -1.8 -1 0  -1.75 -1 0  -1.7 -1 0  -1.65 -1 0  -1.6 -1 0  -1.55 -1 0  -1.5 -1 0  -1.45 -1 0  -1.4 -1 0  -1.35 -1 0  -1.3 -1 0  -1.25 -1 0  -1.2 -1 0  -1.15 -1 0  -1.1 -1 0  -1.05 -1 0  -1 -1 0  -0.9500000000000002 -1 0  -0.9000000000000004 -1 0  -0.8499999999999996 -1 0  -0.7999999999999998 -1 0  -0.75 -1 0  -0.7000000000000002 -1 0  -0.6500000000000004 -1 0  -0.5999999999999996 -1 0  -0.5499999999999998 -1 0  -0.5 -1 0  -0.4500000000000002 -1 0  -0.4000000000000004 -1 0  -0.3499999999999996 -1 0  -0.2999999999999998 -1 0  -0.25 -1 0  -0.2000000000000002 -1 0  -0.1500000000000004 -1 0  -0.09999999999999964 -1 0  -0.04999999999999982 -1 0  0 -1 0  0.04999999999999982 -1 0  0.09999999999999964 -1 0  0.1500000000000004 -1 0  0.2000000000000002 -1 0  0.25 -1 0  0.2999999999999998 -1 0  0.3499999999999996 -1 0  0.4000000000000004 -1 0  0.4500000000000002 -1 0  0.5 -1 0  0.5499999999999998 -1 0  0.5999999999999996 -1 0  0.6500000000000004 -1 0  0.7000000000000002 -1 0  0.75 -1 0  0.7999999999999998 -1 0  0.8499999999999996 -1 0  0.9000000000000004 -1 0  0.9500000000000002 -1 0  1 -1 0  1.05 -1 0  1.1 -1 0  1.15 -1 0  1.2 -1 0  1.25 -1 0  1.3 -1 0  1.35 -1 0  1.4 -1 0  1.45 -1 0  1.5 -1 0  1.55 -1 0  1.6 -1 0  1.65 -1 0  1.7 -1 0  1.75 -1 0  1.8 -1 0  1.85 -1 0  1.9 -1 0  1.95 -1 0  2 -1 0  2.05 -1 0  2.1 -1 0  2.15 -1 0  2.2 -1 0  2.25 -1 0  2.3 -1 0  2.35 -1 0  2.4 -1 0  2.45 -1 0  2.5 -1 0  2.55 -1 0  2.6 -1 0  2.65 -1 0  2.7 -1 0  2.75 -1 0  2.8 -1 0  2.85 -1 0  2.9 -1 0  2.95 -1 0  3 -1 0  3.050000000000001 -1 0  3.1 -1 0  3.15 -1 0  3.199999999999999 -1 0  3.25 -1 0  3.300000000000001 -1 0  3.35 -1 0  3.4 -1 0  3.449999999999999 -1 0  3.5 -1 0  3.550000000000001 -1 0  3.6 -1 0  3.65 -1 0  3.699999999999999 -1 0  3.75 -1 0  3.800000000000001 -1 0  3.85 -1 0  3.9 -1 0  3.949999999999999 -1 0  4 -1 0  4.050000000000001 -1 0  4.1 -1 0  4.15 -1 0  4.199999999999999 -1 0  4.25 -1 0  4.300000000000001 -1 0  4.35 -1 0  4.4 -1 0  4.449999999999999 -1 0  4.5 -1 0  4.550000000000001 -1 0  4.6 -1 0  4.65 -1 0  4.699999999999999 -1 0  4.75 -1 0  4.800000000000001 -1 0  4.85 -1 0  4.9 -1 0  4.949999999999999 -1 0  5 -1 0  -5 -0.95 0  -4.95 -0.95 0  -4.9 -0.95 0  -4.85 -0.95 0  -4.8 -0.95 0  -4.75 -0.95 0  -4.7 -0.95 0  -4.65 -0.95 0  -4.6 -0.95 0  -4.55 -0.95 0  -4.5 -0.95 0  -4.45 -0.95 0  -4.4 -0.95 0  -4.35 -0.95 0  -4.3 -0.95 0  -4.25 -0.95 0  -4.2 -0.95 0  -4.15 -0.95 0  -4.1 -0.95 0  -4.05 -0.95 0  -4 -0.95 0  -3.95 -0.95 0  -3.9 -0.95 0  -3.85 -0.95 0  -3.8 -0.95 0  -3.75 -0.95 0  -3.7 -0.95 0  -3.65 -0.95 0  -3.6 -0.95 0  -3.55 -0.95 0  -3.5 -0.95 0  -3.45 -0.95 0  -3.4 -0.95 0  -3.35 -0.95 0  -3.3 -0.95 0  -3.25 -0.95 0  -3.2 -0.95 0  -3.15 -0.95 0  -3.1 -0.95 0  -3.05 -0.95 0  -3 -0.95 0  -2.95 -0.95 0  -2.9 -0.95 0  -2.85 -0.95 0  -2.8 -0.95 0  -2.75 -0.95 0  -2.7 -0.95 0  -2.65 -0.95 0  -2.6 -0.95 0  -2.55 -0.95 0  -2.5 -0.95 0  -2.45 -0.95 0  -2.4 -0.95 0  -2.35 -0.95 0  -2.3 -0.95 0  -2.25 -0.95 0  -2.2 -0.95 0  -2.15 -0.95 0  -2.1 -0.95 0  -2.05 -0.95 0  -2 -0.95 0  -1.95 -0.95 0  -1.9 -0.95 0  -1.85 -0.95 0  -1.8 -0.95 0  -1.75 -0.95 0  -1.7 -0.95 0  -1.65 -0.95 0  -1.6 -0.95 0  -1.55 -0.95 0  -1.5 -0.95 0  -1.45 -0.95 0  -1.4 -0.95 0  -1.35 -0.95 0  -1.3 -0.95 0  -1.25 -0.95 0  -1.2 -0.95 0  -1.15 -0.95 0  -1.1 -0.95 0  -1.05 -0.95 0  -1 -0.95 0  -0.9500000000000002 -0.95 0  -0.9000000000000004 -0.95 0  -0.8499999999999996 -0.95 0  -0.7999999999999998 -0.95 0  -0.75 -0.95 0  -0.7000000000000002 -0.95 0  -0.6500000000000004 -0.95 0  -0.5999999999999996 -0.95 0  -0.5499999999999998 -0.95 0  -0.5 -0.95 0  -0.4500000000000002 -0.95 0  -0.4000000000000004 -0.95 0  -0.3499999999999996 -0.95 0  -0.2999999999999998 -0.95 0  -0.25 -0.95 0  -0.2000000000000002 -0.95 0  -0.1500000000000004 -0.95 0  -0.09999999999999964 -0.95 0  -0.04999999999999982 -0.95 0  0 -0.95 0  0.04999999999999982 -0.95 0  0.09999999999999964 -0.95 0  0.1500000000000004 -0.95 0  0.2000000000000002 -0.95 0  0.25 -0.95 0  0.2999999999999998 -0.95 0  0.3499999999999996 -0.95 0  0.4000000000000004 -0.95 0  0.4500000000000002 -0.95 0  0.5 -0.95 0  0.5499999999999998 -0.95 0  0.5999999999999996 -0.95 0  0.6500000000000004 -0.95 0  0.7000000000000002 -0.95 0  0.75 -0.95 0  0.7999999999999998 -0.95 0  0.8499999999999996 -0.95 0  0.9000000000000004 -0.95 0  0.9500000000000002 -0.95 0  1 -0.95 0  1.05 -0.95 0  1.1 -0.95 0  1.15 -0.95 0  1.2 -0.95 0  1.25 -0.95 0  1.3 -0.95 0  1.35 -0.95 0  1.4 -0.95 0  1.45 -0.95 0  1.5 -0.95 0  1.55 -0.95 0  1.6 -0.95 0  1.65 -0.95 0  1.7 -0.95 0  1.75 -0.95 0  1.8 -0.95 0  1.85 -0.95 0  1.9 -0.95 0  1.95 -0.95 0  2 -0.95 0  2.05 -0.95 0  2.1 -0.95 0  2.15 -0.95 0  2.2 -0.95 0  2.25 -0.95 0  2.3 -0.95 0  2.35 -0.95 0  2.4 -0.95 0  2.45 -0.95 0  2.5 -0.95 0  2.55 -0.95 0  2.6 -0.95 0  2.65 -0.95 0  2.7 -0.95 0  2.75 -0.95 0  2.8 -0.95 0  2.85 -0.95 0  2.9 -0.95 0  2.95 -0.95 0  3 -0.95 0  3.050000000000001 -0.95 0  3.1 -0.95 0  3.15 -0.95 0  3.199999999999999 -0.95 0  3.25 -0.95 0  3.300000000000001 -0.95 0  3.35 -0.95 0  3.4 -0.95 0  3.449999999999999 -0.95 0  3.5 -0.95 0  3.550000000000001 -0.95 0  3.6 -0.95 0  3.65 -0.95 0  3.699999999999999 -0.95 0  3.75 -0.95 0  3.800000000000001 -0.95 0  3.85 -0.95 0  3.9 -0.95 0  3.949999999999999 -0.95 0  4 -0.95 0  4.050000000000001 -0.95 0  4.1 -0.95 0  4.15 -0.95 0  4.199999999999999 -0.95 0  4.25 -0.95 0  4.300000000000001 -0.95 0  4.35 -0.95 0  4.4 -0.95 0  4.449999999999999 -0.95 0  4.5 -0.95 0  4.550000000000001 -0.95 0  4.6 -0.95 0  4.65 -0.95 0  4.699999999999999 -0.95 0  4.75 -0.95 0  4.800000000000001 -0.95 0  4.85 -0.95 0  4.9 -0.95 0  4.949999999999999 -0.95 0  5 -0.95 0  -5 -0.9 0  -4.95 -0.9 0  -4.9 -0.9 0  -4.85 -0.9 0  -4.8 -0.9 0  -4.75 -0.9 0  -4.7 -0.9 0  -4.65 -0.9 0  -4.6 -0.9 0  -4.55 -0.9 0  -4.5 -0.9 0  -4.45 -0.9 0  -4.4 -0.9 0  -4.35 -0.9 0  -4.3 -0.9 0  -4.25 -0.9 0  -4.2 -0.9 0  -4.15 -0.9 0  -4.1 -0.9 0  -4.05 -0.9 0  -4 -0.9 0  -3.95 -0.9 0  -3.9 -0.9 0  -3.85 -0.9 0  -3.8 -0.9 0  -3.75 -0.9 0  -3.7 -0.9 0  -3.65 -0.9 0  -3.6 -0.9 0  -3.55 -0.9 0  -3.5 -0.9 0  -3.45 -0.9 0  -3.4 -0.9 0  -3.35 -0.9 0  -3.3 -0.9 0  -3.25 -0.9 0  -3.2 -0.9 0  -3.15 -0.9 0  -3.1 -0.9 0  -3.05 -0.9 0  -3 -0.9 0  -2.95 -0.9 0  -2.9 -0.9 0  -2.85 -0.9 0  -2.8 -0.9 0  -2.75 -0.9 0  -2.7 -0.9 0  -2.65 -0.9 0  -2.6 -0.9 0  -2.55 -0.9 0  -2.5 -0.9 0  -2.45 -0.9 0  -2.4 -0.9 0  -2.35 -0.9 0  -2.3 -0.9 0  -2.25 -0.9 0  -2.2 -0.9 0  -2.15 -0.9 0  -2.1 -0.9 0  -2.05 -0.9 0  -2 -0.9 0  -1.95 -0.9 0  -1.9 -0.9 0  -1.85 -0.9 0  -1.8 -0.9 0  -1.75 -0.9 0  -1.7 -0.9 0  -1.65 -0.9 0  -1.6 -0.9 0  -1.55 -0.9 0  -1.5 -0.9 0  -1.45 -0.9 0  -1.4 -0.9 0  -1.35 -0.9 0  -1.3 -0.9 0  -1.25 -0.9 0  -1.2 -0.9 0  -1.15 -0.9 0  -1.1 -0.9 0  -1.05 -0.9 0  -1 -0.9 0  -0.9500000000000002 -0.9 0  -0.9000000000000004 -0.9 0  -0.8499999999999996 -0.9 0  -0.7999999999999998 -0.9 0  -0.75 -0.9 0  -0.7000000000000002 -0.9 0  -0.6500000000000004 -0.9 0  -0.5999999999999996 -0.9 0  -0.5499999999999998 -0.9 0  -0.5 -0.9 0  -0.4500000000000002 -0.9 0  -0.4000000000000004 -0.9 0  -0.3499999999999996 -0.9 0  -0.2999999999999998 -0.9 0  -0.25 -0.9 0  -0.2000000000000002 -0.9 0  -0.1500000000000004 -0.9 0  -0.09999999999999964 -0.9 0  -0.04999999999999982 -0.9 0  0 -0.9 0  0.04999999999999982 -0.9 0  0.09999999999999964 -0.9 0  0.1500000000000004 -0.9 0  0.2000000000000002 -0.9 0  0.25 -0.9 0  0.2999999999999998 -0.9 0  0.3499999999999996 -0.9 0  0.4000000000000004 -0.9 0  0.4500000000000002 -0.9 0  0.5 -0.9 0  0.5499999999999998 -0.9 0  0.5999999999999996 -0.9 0  0.6500000000000004 -0.9 0  0.7000000000000002 -0.9 0  0.75 -0.9 0  0.7999999999999998 -0.9 0  0.8499999999999996 -0.9 0  0.9000000000000004 -0.9 0  0.9500000000000002 -0.9 0  1 -0.9 0  1.05 -0.9 0  1.1 -0.9 0  1.15 -0.9 0  1.2 -0.9 0  1.25 -0.9 0  1.3 -0.9 0  1.35 -0.9 0  1.4 -0.9 0  1.45 -0.9 0  1.5 -0.9 0  1.55 -0.9 0  1.6 -0.9 0  1.65 -0.9 0  1.7 -0.9 0  1.75 -0.9 0  1.8 -0.9 0  1.85 -0.9 0  1.9 -0.9 0  1.95 -0.9 0  2 -0.9 0  2.05 -0.9 0  2.1 -0.9 0  2.15 -0.9 0  2.2 -0.9 0  2.25 -0.9 0  2.3 -0.9 0  2.35 -0.9 0  2.4 -0.9 0  2.45 -0.9 0  2.5 -0.9 0  2.55 -0.9 0  2.6 -0.9 0  2.65 -0.9 0  2.7 -0.9 0  2.75 -0.9 0  2.8 -0.9 0  2.85 -0.9 0  2.9 -0.9 0  2.95 -0.9 0  3 -0.9 0  3.050000000000001 -0.9 0  3.1 -0.9 0  3.15 -0.9 0  3.199999999999999 -0.9 0  3.25 -0.9 0  3.300000000000001 -0.9 0  3.35 -0.9 0  3.4 -0.9 0  3.449999999999999 -0.9 0  3.5 -0.9 0  3.550000000000001 -0.9 0  3.6 -0.9 0  3.65 -0.9 0  3.699999999999999 -0.9 0  3.75 -0.9 0  3.800000000000001 -0.9 0  3.85 -0.9 0  3.9 -0.9 0  3.949999999999999 -0.9 0  4 -0.9 0  4.050000000000001 -0.9 0  4.1 -0.9 0  4.15 -0.9 0  4.199999999999999 -0.9 0  4.25 -0.9 0  4.300000000000001 -0.9 0  4.35 -0.9 0  4.4 -0.9 0  4.449999999999999 -0.9 0  4.5 -0.9 0  4.550000000000001 -0.9 0  4.6 -0.9 0  4.65 -0.9 0  4.699999999999999 -0.9 0  4.75 -0.9 0  4.800000000000001 -0.9 0  4.85 -0.9 0  4.9 -0.9 0  4.949999999999999 -0.9 0  5 -0.9 0  -5 -0.85 0  -4.95 -0.85 0  -4.9 -0.85 0  -4.85 -0.85 0  -4.8 -0.85 0  -4.75 -0.85 0  -4.7 -0.85 0  -4.65 -0.85 0  -4.6 -0.85 0  -4.55 -0.85 0  -4.5 -0.85 0  -
[...]
<PointData  Vectors="f_15"> 
<DataArray  type="Float64"  Name="f_15"  NumberOfComponents="3" format="ascii">1.6896272521962192e+00 0.0000000000000000e+00 0.0000000000000000e+00  1.6928536350410257e+00 2.0149338547728553e-02 0.0000000000000000e+00  1.6921859607534626e+00 1.1427224750379306e-01 0.0000000000000000e+00  1.6914752996970235e+00 1.2175873037873607e-01 0.0000000000000000e+00  1.6923899842195458e+00 1.8475218751752406e-01 0.0000000000000000e+00  1.6910266736860258e+00 2.1721901903192894e-01 0.0000000000000000e+00  1.6923132303657868e+00 2.5893980220919094e-01 0.0000000000000000e+00  1.6897548936098530e+00 3.0697105831225596e-01 0.0000000000000000e+00  1.6921360859161625e+00 3.3464410277771989e-01 0.0000000000000000e+00  1.6884533301141571e+00 3.9544415846284919e-01 0.0000000000000000e+00  1.6913672459382847e+00 4.1033696347791537e-01 0.0000000000000000e+00  1.6871111325506225e+00 4.8837130412077362e-01 0.0000000000000000e+00  1.6905111926003689e+00 4.7599971097945193e-01 0.0000000000000000e+00  1.6855641102968895e+00 5.8635760034808848e-01 0.0000000000000000e+00  1.6895285843443835e+00 5.5869148771304977e-01 0.0000000000000000e+00  1.6841109246138979e+00 6.4084750591089645e-01 0.0000000000000000e+00  1.6884315333241180e+00 6.8591601793886536e-01 0.0000000000000000e+00  1.6825613290231125e+00 6.9001148562814696e-01 0.0000000000000000e+00  1.6870267684720237e+00 7.6675286086367656e-01 0.0000000000000000e+00  1.6813825423655746e+00 7.9714865728346895e-01 0.0000000000000000e+00  1.6855223384541864e+00 8.3219630668451983e-01 0.0000000000000000e+00  1.6797472090067087e+00 8.7020499993576150e-01 0.0000000000000000e+00  1.6845213973659956e+00 9.3485784288800278e-01 0.0000000000000000e+00  1.6780213138103028e+00 9.4646825178485094e-01 0.0000000000000000e+00  1.6827222011621819e+00 1.0062438762808610e+00 0.0000000000000000e+00  1.6770097756713493e+00 1.0404126290714137e+00 0.0000000000000000e+00  1.6809146758665510e+00 1.0878879518146567e+00 0.0000000000000000e+00  1.6750077873986380e+00 1.1191034364302135e+00 0.0000000000000000e+00  1.6797530002014449e+00 1.1718161665595326e+00 0.0000000000000000e+00  1.6731387121842576e+00 1.2030184451724868e+00 0.0000000000000000e+00  1.6775102352107896e+00 1.2509226364553740e+00 0.0000000000000000e+00  1.6720307702848038e+00 1.2892965769651850e+00 0.0000000000000000e+00  1.6752175799953328e+00 1.3298719693720127e+00 0.0000000000000000e+00  1.6700933329512297e+00 1.3684766974918867e+00 0.0000000000000000e+00  1.6735591963413909e+00 1.4144095302740307e+00 0.0000000000000000e+00  1.6682887720485917e+00 1.4503752396647998e+00 0.0000000000000000e+00  1.6711511627308817e+00 1.4897934270142266e+00 0.0000000000000000e+00  1.6670332896409683e+00 1.5329700669462289e+00 0.0000000000000000e+00  1.6692179073146767e+00 1.5691048971057737e+00 0.0000000000000000e+00  1.6652611733558371e+00 1.6098410305865578e+00 0.0000000000000000e+00  1.6678018578808123e+00 1.6477558047938299e+00 0.0000000000000000e+00  1.6645352407579161e+00 1.6861475110008173e+00 0.0000000000000000e+00  1.6661724800101898e+00 1.7194828012957843e+00 0.0000000000000000e+00  1.6648153003826986e+00 1.7629337571952930e+00 0.0000000000000000e+00  1.6665205211116543e+00 1.7900896676500140e+00 0.0000000000000000e+00  1.6656499230928807e+00 1.8282067202425603e+00 0.0000000000000000e+00  1.6692787657561998e+00 1.8558592829836518e+00 0.0000000000000000e+00  1.6699961246864001e+00 1.8896304424150792e+00 0.0000000000000000e+00  1.6743620432475632e+00 1.9072466904121503e+00 0.0000000000000000e+00  1.6783922636690121e+00 1.9416366541383865e+00 0.0000000000000000e+00  1.6843882606040554e+00 1.9500307546041311e+00 0.0000000000000000e+00  1.6893787832869225e+00 1.9773073895902695e+00 0.0000000000000000e+00  1.6979184096010624e+00 1.9866105275702357e+00 0.0000000000000000e+00  1.7030712639711669e+00 2.0096531512666767e+00 0.0000000000000000e+00  1.7114979903633369e+00 2.0129749898922942e+00 0.0000000000000000e+00  1.7172325759815028e+00 2.0412211999763232e+00 0.0000000000000000e+00  1.7255570159675715e+00 2.0418719455523577e+00 0.0000000000000000e+00  1.7298426724500231e+00 2.0657041929905708e+00 0.0000000000000000e+00  1.7392534599215668e+00 2.0733878928878604e+00 0.0000000000000000e+00  1.7424595151494833e+00 2.0914050224949956e+00 0.0000000000000000e+00  1.7512874930960698e+00 2.0984908561503799e+00 0.0000000000000000e+00  1.7545893729557380e+00 2.1192175542485132e+00 0.0000000000000000e+00  1.7634873369150930e+00 2.1249009339248115e+00 0.0000000000000000e+00  1.7649498928514644e+00 2.1408050764383106e+00 0.0000000000000000e+00  1.7752430363152687e+00 2.1527661429775193e+00 0.0000000000000000e+00  1.7753456625015669e+00 2.1639771586061736e+00 0.0000000000000000e+00  1.7852082331636754e+00 2.1740597110330837e+00 0.0000000000000000e+00  1.7852213080557715e+00 2.1891008604727755e+00 0.0000000000000000e+00  1.7952790077307421e+00 2.1959577992134585e+00 0.0000000000000000e+00  1.7933285306015323e+00 2.2074827886409585e+00 0.0000000000000000e+00  1.8045961181686678e+00 2.2189810332810378e+00 0.0000000000000000e+00  1.8015688793994438e+00 2.2272098334107229e+00 0.0000000000000000e+00  1.8118043417998151e+00 2.2339230550976472e+00 0.0000000000000000e+00  1.8091015773401691e+00 2.2491636263454411e+00 0.0000000000000000e+00  1.8191852326965317e+00 2.2481986206458040e+00 0.0000000000000000e+00  1.8145594034086223e+00 2.2636431414082425e+00 0.0000000000000000e+00  1.8257369453202716e+00 2.2644210137203493e+00 0.0000000000000000e+00  1.8203474345434332e+00 2.2766945191413352e+00 0.0000000000000000e+00  1.8299464834711201e+00 2.2751646811003048e+00 0.0000000000000000e+00  1.8256549130028614e+00 2.2881813809604745e+00 0.0000000000000000e+00  1.8342455542750966e+00 2.2890081313487434e+00 0.0000000000000000e+00  1.8291033257543838e+00 2.2892122727280406e+00 0.0000000000000000e+00  1.8377113327634176e+00 2.3065181126957865e+00 0.0000000000000000e+00  1.8329167591147435e+00 2.2896966143609934e+00 0.0000000000000000e+00  1.8394001987044348e+00 2.3168897147921212e+00 0.0000000000000000e+00  1.8361465107018720e+00 2.2914702047596549e+00 0.0000000000000000e+00  1.8413743406009744e+00 2.3291647327552529e+00 0.0000000000000000e+00  1.8379572546809337e+00 2.2856135373019639e+00 0.0000000000000000e+00  1.8426240681483257e+00 2.3423576299481073e+00 0.0000000000000000e+00  1.8403972067700434e+00 2.2842436241782034e+00 0.0000000000000000e+00  1.8425610601273068e+00 2.3449714478225436e+00 0.0000000000000000e+00  1.8422937394595778e+00 2.2879993315961884e+00 0.0000000000000000e+00  1.8432634845848734e+00 2.3481390133282143e+00 0.0000000000000000e+00  1.8427938946770854e+00 2.2867496754685264e+00 0.0000000000000000e+00  1.8437823785299252e+00 2.3506960484734649e+00 0.0000000000000000e+00  1.8442411986237508e+00 2.2918444388875421e+00 0.0000000000000000e+00  1.8428616812911167e+00 2.3438972445935335e+00 0.0000000000000000e+00  1.8456423338882850e+00 2.3006269270703243e+00 0.0000000000000000e+00  1.8430343064758123e+00 2.3404674014694629e+00 0.0000000000000000e+00  1.8455881844369046e+00 2.3026351961896205e+00 0.0000000000000000e+00  1.8434177301171359e+00 2.3391676682224385e+00 0.0000000000000000e+00  1.8466273542585936e+00 2.3086306921463962e+00 0.0000000000000000e+00  1.8422812262923909e+00 2.3326857077660077e+00 0.0000000000000000e+00  1.8479305536575352e+00 2.3144451031158457e+00 0.0000000000000000e+00  1.8425289347933738e+00 2.3329085543996269e+00 0.0000000000000000e+00  1.8475198034293225e+00 2.3122563982964737e+00 0.0000000000000000e+00  1.8431588797304574e+00 2.3358881471751225e+00 0.0000000000000000e+00  1.8483401049491082e+00 2.3142421557509234e+00 0.0000000000000000e+00  1.8423330014202259e+00 2.3331863459483166e+00 0.0000000000000000e+00  1.8493471103085601e+00 2.3166476185861691e+00 0.0000000000000000e+00  1.8430174362201395e+00 2.3364513533014413e+00 0.0000000000000000e+00  1.8484203016141287e+00 2.3127466521737392e+00 0.0000000000000000e+00  1.8443482766518895e+00 2.3399259903315599e+00 0.0000000000000000e+00  1.8487246064915011e+00 2.3151218165276011e+00 0.0000000000000000e+00  1.8439931354170800e+00 2.3364447014339365e+00 0.0000000000000000e+00  1.8492659534606237e+00 2.3187513334825551e+00 0.0000000000000000e+00  1.8452769532195790e+00 2.3383026163281002e+00 0.0000000000000000e+00  1.8476992218363173e+00 2.3154428779389336e+00 0.0000000000000000e+00  1.8474037156016290e+00 2.3421050807709083e+00 0.0000000000000000e+00  1.8470331620976128e+00 2.3160448746744136e+00 0.0000000000000000e+00  1.8478461363446637e+00 2.3404484512390229e+00 0.0000000000000000e+00  1.8470546956691598e+00 2.3187907708206823e+00 0.0000000000000000e+00  1.8493888869290023e+00 2.3391783296258444e+00 0.0000000000000000e+00  1.8450271501111914e+00 2.3219799521033493e+00 0.0000000000000000e+00  1.8518656062444883e+00 2.3349812740206612e+00 0.0000000000000000e+00  1.8440467202298418e+00 2.3267096242413352e+00 0.0000000000000000e+00  1.8522951241397001e+00 2.3347222892421677e+00 0.0000000000000000e+00  1.8440978552241223e+00 2.3214341629753679e+00 0.0000000000000000e+00  1.8534912669363059e+00 2.3434135781493626e+00 0.0000000000000000e+00  1.8425431453208780e+00 2.3162863085064962e+00 0.0000000000000000e+00  1.8555815385243768e+00 2.3385500704751929e+00 0.0000000000000000e+00  1.8418507856702684e+00 2.3303814211171590e+00 0.0000000000000000e+00  1.8560537262815997e+00 2.3202020726442525e+00 0.0000000000000000e+00  1.8424234650352986e+00 2.3415756635471858e+00 0.0000000000000000e+00  1.8575313301525149e+00 2.3165061419774178e+00 0.0000000000000000e+00  1.8417092858555681e+00 2.3328901210036843e+00 0.0000000000000000e+00  1.8600236466981224e+00 2.3248761538939058e+00 0.0000000000000000e+00  1.8430347789045995e+00 2.3178823267061235e+00 0.0000000000000000e+00  1.8609311368717436e+00 2.3303001541509571e+00 0.0000000000000000e+00  1.8457667539648763e+00 2.3060425049348465e+00 0.0000000000000000e+00  1.8635558028889618e+00 2.3273410461649169e+00 0.0000000000000000e+00  1.8481203879892563e+00 2.3004118819354660e+00 0.0000000000000000e+00  1.8670302264199097e+00 2.3137233066189271e+00 0.0000000000000000e+00  1.8526361780416774e+00 2.2990637000570109e+00 0.0000000000000000e+00  1.8720522990308288e+00 2.2951965968525312e+00 0.0000000000000000e+00  1.8594692955178169e+00 2.2870708155494448e+00 0.0000000000000000e+00  1.8835466458139687e+00 2.2763416547360102e+00 0.0000000000000000e+00  1.8723672543858370e+00 2.2585756198891604e+00 0.0000000000000000e+00  1.9039606810843139e+00 2.2426911940258285e+00 0.0000000000000000e+00  1.8946519302211702e+00 2.2216301605947661e+00 0.0000000000000000e+00  1.9281792884197753e+00 2.2032856021506588e+00 0.0000000000000000e+00  1.9123872061784872e+00 2.1931369928824580e+00 0.0000000000000000e+00  1.9379256219681305e+00 2.1971253259247234e+00 0.0000000000000000e+00  1.9028110241069214e+00 2.2087785055013560e+00 0.0000000000000000e+00  1.9172162578670833e+00 2.2385433356056761e+00 0.0000000000000000e+00  1.8708924043609045e+00 2.2659486091682344e+00 0.0000000000000000e+00  1.8830873721795456e+00 2.2961805142974168e+00 0.0000000000000000e+00  1.8369999159630688e+00 2.3287837354824998e+00 0.0000000000000000e+00  1.8466690645445580e+00 2.3584339680326525e+00 0.0000000000000000e+00  1.7970874847294087e+00 2.3954631122674246e+00 0.0000000000000000e+00  1.8023687147560756e+00 2.4101477411323371e+00 0.0000000000000000e+00  1.7862543883302013e+00 2.4143335078752575e+00 0.0000000000000000e+00  2.2386198933074000e+00 1.4357295830462855e+00 0.0000000000000000e+00  2.7840615852067643e+00 2.8366922413994483e-01 0.0000000000000000e+00  2.9560477895797717e+00 2.1873202995177438e-02 0.0000000000000000e+00  2.9504437777667021e+00 -2.3774590442874572e-02 0.0000000000000000e+00  2.9777003395302932e+00 -2.8090057998551278e-02 0.0000000000000000e+00  2.9642760685867602e+00 -5.0602615532815892e-02 0.0000000000000000e+00  2.9751731033081001e+00 -1.8872416430130323e-02 0.0000000000000000e+00  2.9639168636433024e+00 -4.0096720096805247e-02 0.0000000000000000e+00  2.9785526551812467e+00 -1.6852578255198227e-02 0.0000000000000000e+00  2.9630289482455403e+00 -2.9436682942085929e-02 0.0000000000000000e+00  2.9779182356886307e+00 -1.1865097533207717e-02 0.0000000000000000e+00  2.9640138185940770e+00 -2.1614019113741258e-02 0.0000000000000000e+00  2.9752753984630553e+00 -6.6018869918381979e-03 0.0000000000000000e+00  2.9663885777315078e+00 -2.2952861715886709e-02 0.0000000000000000e+00  2.9740597172753596e+00 -3.5346746719087854e-03 0.0000000000000000e+00  2.9672130992463042e+00 -2.4353441313453850e-02 0.0000000000000000e+00  2.9724569649019910e+00 -4.3677933142754286e-03 0.0000000000000000e+00  2.9692829947116586e+00 -2.7343125656646622e-02 0.0000000000000000e+00  2.9706432431416210e+00 -8.2224316450801617e-03 0.0000000000000000e+00  2.9710856152606633e+00 -2.7994787376239817e-02 0.0000000000000000e+00  2.9693364552228054e+00 -1.5741487294438247e-02 0.0000000000000000e+00  2.9729651694484120e+00 -2.7556707344711863e-02 0.0000000000000000e+00  2.9677549704230342e+00 -2.0635811150902253e-02 0.0000000000000000e+00  2.9750332039354874e+00 -2.6712953007405133e-02 0.0000000000000000e+00  2.9671056799915485e+00 -2.1598799903879959e-02 0.0000000000000000e+00  2.9756608962361475e+00 -2.2706702758462774e-02 0.0000000000000000e+00  2.9673990944097035e+00 -1.8299904310482489e-02 0.0000000000000000e+00  2.9768151761040671e+00 -2.1950911263328182e-02 0.0000000000000000e+00  2.9664044906247544e+00 -1.6608303767340463e-02 0.0000000000000000e+00  2.9782769808927450e+00 -4.1282841316778167e-02 0.0000000000000000e+00  2.9665971215215179e+00 -4.2949637554040847e-02 0.0000000000000000e+00  2.9773072457853877e+00 -7.9850972934026848e-02 0.0000000000000000e+00  2.9676559075032571e+00 -7.5201682924931290e-02 0.0000000000000000e+00  2.9766423235669111e+00 -9.6244264160163823e-02 0.0000000000000000e+00  2.9672108462816889e+00 -7.1541941133959078e-02 0.0000000000000000e+00  2.9761987600778554e+00 -7.7788763604729555e-02 0.0000000000000000e+00  2.9677429049913715e+00 -6.0793675682211508e-02 0.0000000000000000e+00  2.9735952466210307e+00 -5.6440235235445696e-02 0.0000000000000000e+00  2.9687325251961605e+00 0.0000000000000000e+00 0.0000000000000000e+00  1.6827448687956399e+00 0.0000000000000000e+00 2.4555511034409387e-02  1.6883981428918164e+00 4.2381987374299664e-02 -1.4485995419080866e-03  1.6831073265249479e+00 6.8495084848147120e-02 -1.3013423924239292e-02  1.6861916890593691e+00 1.1539741485600778e-01 5.2790545421648669e-03  1.6840203063468826e+00 1.5997877542417174e-01 -1.0136463076611515e-03  1.6853678311379552e+00 1.9658094579302504e-01 -2.9433743217247964e-03  1.6838704218042060e+00 2.4754241007989730e-01 5.3669909222501056e-03  1.6852693488319037e+00 2.7930475185414888e-01 -5.8248096768727751e-03  1.6839269056299466e+00 3.3406273282044718e-01 5.9657198140215762e-03  1.6848849817511813e+00 3.6470788022802142e-01 -5.3517833864223348e-03  1.6840839534984264e+00 4.1973122749226460e-01 5.1364923782140880e-03  1.6846355102267618e+00 4.4610570714694409e-01 -4.6156529604798107e-03  1.6839815817419503e+00 5.1080648567374531e-01 4.4147610631983941e-03  1.6842318263860465e+00 5.3051636134572466e-01 -2.1641250486099731e-03  1.6840684178838741e+00 5.8146154614487577e-01 -3.5962267444784525e-03  1.6833943398007571e+00 6.4347503132797401e-01 1.4642400522724416e-02  1.6840924813637963e+00 6.3912126712354567e-01 -2.6420942835528542e-02  1.6823587150155943e+00 7.3475746644001161e-01 3.1808647015269823e-02  1.6835529854740092e+00 7.4116537316513786e-01 -2.5048657903004319e-02  1.6818207675908130e+00 7.9562631958284569e-01 1.1710581011613142e-02  1.6820694306688357e+00 8.3438858786411196e-01 -1.4900948244074225e-03  1.6815193171961123e+00 8.8609680533814184e-01 6.6803634538226532e-04  1.6806039517961335e+00 9.1256970675180171e-01 -3.9790547328372242e-03  1.6802901797375558e+00 9.6277595098507529e-01 3.3350661995837274e-03  1.6794856870159227e+00 1.0083732282627966e+00 2.9054015975110438e-03  1.6791945826683805e+00 1.0393739350600333e+00 -9.4930030816448435e-03  1.6772238885987629e+00 1.0908388196325471e+00 1.2604586311824956e-02  1.6786417387892798e+00 1.1214081597742325e+00 -1.4161559373748248e-02  1.6750830849014706e+00 1.1772132055927693e+00 1.5633239706117914e-02  1.6769582749740348e+00 1.1989501921096928e+00 -1.7637245174703633e-02  1.6735917836297676e+00 1.2628030324515727e+00 1.9214886282983783e-02  1.6752883883109058e+00 1.2777792405404342e+00 -2.1153454504584231e-02  1.6711371788050264e+00 1.3447654615687765e+00 2.2811757781850014e-02  1.6742570486488542e+00 1.3609154941553454e+00 -2.3627899022388515e-02  1.6687161787133364e+00 1.4256984468470806e+00 2.4192922503014934e-02  1.6724143824569797e+00 1.4363798800956076e+00 -2.5513217392115175e-02  1.6668324923328293e+00 1.5108737562250694e+00 2.6891539255217832e-02  1.6708246524920412e+00 1.5151399635264051e+00 -2.7110965851469750e-02  1.6643758383692020e+00 1.5872455332790303e+00 2.7054021315759895e-02  1.6696244524128978e+00 1.5946908619329780e+00 -2.7217198191478401e-02  1.6627699742300308e+00 1.6650796601239972e+00 2.7364489319937891e-02  1.6679743737513026e+00 1.6685105449495288e+00 -2.6783013192423658e-02  1.6620329361485155e+00 1.7423772654348737e+00 2.6303822058334009e-02  1.6678110928720937e+00 1.7413554831773588e+00 -2.5841380190232837e-02  1.6616747911235046e+00 1.8096192836039409e+00 2.4869832233194850e-02  1.6693867671713629e+00 1.8128192129304836e+00 -2.3576218890092322e-02  1.6643871845455405e+00 1.8734646922143801e+00 2.2581780533610787e-02  1.6725741971501946e+00 1.8711166938795911e+00 -2.1620977954481677e-02  1.6707516449632418e+00 1.9292361679597239e+00 2.0518783869611309e-02  1.6803852325707127e+00 1.9223284338941904e+00 -1.9255961124753241e-02  1.6801334411100617e+00 1.9688154359459273e+00 1.8403016055345882e-02  1.6923734348299544e+00 1.9651453365803977e+00 -1.7113485117580034e-02  1.6935196625465458e+00 2.0020382341099827e+00 1.6239579536388712e-02  1.7054889467521424e+00 1.9953056670833513e+00 -1.5180623687461503e-02  1.7082987789290782e+00 2.0336250726175638e+00 1.4820240935309223e-02  1.7195157942025587e+00 2.0268189472989526e+00 -1.3703825041340342e-02  1.7217056424264265e+00 2.0587295788291180e+00 1.3360976556704856e-02  1.7332169291760995e+00 2.0601977193415340e+00 -1.2252743803087831e-02  1.7351651590201056e+00 2.0863645368074621e+00 1.2125602094821065e-02  1.7453646408146628e+00 2.0870894924758820e+00 -1.1030396354708398e-02  1.7482121215856676e+00 2.1165776541093018e+00 1.1240879881706285e-02  1.7577795665163358e+00 2.1149870681116734e+00 -1.0430244132160022e-02  1.7595740738740715e+00 2.1405828689716957e+00 1.0686566187384158e-02  1.7698576911580690e+00 2.1440191979494236e+00 -1.0037112852630176e-02  1.7710734669626231e+00 2.1660164899144343e+00 1.0169731744710274e-02  1.7802746589709011e+00 2.1661321512993692e+00 -9.8276494855924698e-03  1.7821358649239443e+00 2.1927418592647241e+00 9.6849124189475541e-03  1.7907818287323738e+00 2.1889373827411220e+00 -9.6031682730630449e-03  1.7914234148487220e+00 2.2124266010505038e+00 9.1110375390129460e-03  1.8005573785152305e+00 2.2133128467371783e+00 -9.1264627613819958e-03  1.8008711224561778e+00 2.2328003372713439e+00 8.3097879713615146e-03  1.8083864045213622e+00 2.2302559490033778e+00 -8.3116882973949275e-03  1.8097051407492979e+00 2.2544208011296538e+00 7.2524391418713266e-03  1.8163633832291284e+00 2.2477006768654291e+00 -7.0871850701493622e-03  1.8165085865320107e+00 2.2682628390663773e+00 5.8280085908115880e-03  1.8235062453601336e+00 2.2674819304241502e+00 -5.4447175434921375e-03  1.8235974905381254e+00 2.2812421297574130e+00 4.0996678570506904e-03  1.8284413441390359e+00 2.2808482201636826e+00 -3.5988979418396963e-03  1.8300507641808248e+00 2.2946451261870182e+00 2.4087552341392864e-03  1.8336173175144119e+00 2.2951244287653334e+00 -1.9879899336616149e-03  1.8343172199428777e+00 2.3005028261799589e+00 1.2150713355930369e-03  1.8382406099771760e+00 2.3102446711578293e+00 -1.1657012740207164e-03  1.838