<?xml version="1.0"?>
<VTKFile type="UnstructuredGrid"  version="0.1"  >
<UnstructuredGrid>
<Piece  NumberOfPoints="8241" NumberOfCells="16000">
<Points>
<DataArray  type="Float64"  NumberOfComponents="3"  format="ascii">-5 -1 0  -4.95 -1 0  -4.9 -1 0  -4.85 -1 0  -4.8 -1 0  -4.75 -1 0  -4.7 -1 0  -4.65 -1 0  -4.6 -1 0  -4.55 -1 0  -4.5 -1 0  -4.45 -1 0  -4.4 -1 0  -4.35 -1 0  -4.3 -1 0  -4.25 -1 0  -4.2 -1 0  -4.15 -1 0  -4.1 -1 0  -4.05 -1 0  -4 -1 0  -3.95 -1 0  -3.9 -1 0  -3.85 -1 0  -3.8 -1 0  -3.75 -1 0  -3.7 -1 0  -3.65 -1 0  -3.6 -1 0  -3.55 -1 0  -3.5 -1 0  -3.45 -1 0  -3.4 -1 0  -3.35 -1 0  -3.3 -1 0  -3.25 -1 0  -3.2 -1 0  -3.15 -1 0  -3.1 -1 0  -3.05 -1 0  -3 -1 0  -2.95 -1 0  -2.9 -1 0  -2.85 -1 0  -2.8 -1 0  -2.75 -1 0  -2.7 -1 0  -2.65 -1 0  -2.6 -1 0  -2.55 -1 0  -2.5 -1 0  -2.45 -1 0  -2.4 -1 0  -2.35 -1 0  -2.3 -1 0  -2.25 -1 0  -2.2 -1 0  -2.15 -1 0  -2.1 -1 0  -2.05 -1 0  -2 -1 0  -1.95 -1 0  -1.9 -1 0  -1.85 -1 0  -1.8 -1 0  -1.75 -1 0  -1.7 -1 0  -1.65 -1 0  -1.6 -1 0  -1.55 -1 0  -1.5 -1 0  -1.45 -1 0  -1.4 -1 0  -1.35 -1 0  -1.3 -1 0  -1.25 -1 0  -1.2 -1 0  -1.15 -1 0  -1.1 -1 0  -1.05 -1 0  -1 -1 0  -0.9500000000000002 -1 0  -0.9000000000000004 -1 0  -0.8499999999999996 -1 0  -0.7999999999999998 -1 0  -0.75 -1 0  -0.7000000000000002 -1 0  -0.6500000000000004 -1 0  -0.5999999999999996 -1 0  -0.5499999999999998 -1 0  -0.5 -1 0  -0.4500000000000002 -1 0  -0.4000000000000004 -1 0  -0.3499999999999996 -1 0  -0.2999999999999998 -1 0  -0.25 -1 0  -0.2000000000000002 -1 0  -0.1500000000000004 -1 0  -0.09999999999999964 -1 0  -0.04999999999999982 -1 0  0 -1 0  0.04999999999999982 -1 0  0.09999999999999964 -1 0  0.1500000000000004 -1 0  0.2000000000000002 -1 0  0.25 -1 0  0.2999999999999998 -1 0  0.3499999999999996 -1 0  0.4000000000000004 -1 0  0.4500000000000002 -1 0  0.5 -1 0  0.5499999999999998 -1 0  0.5999999999999996 -1 0  0.6500000000000004 -1 0  0.7000000000000002 -1 0  0.75 -1 0  0.7999999999999998 -1 0  0.8499999999999996 -1 0  0.9000000000000004 -1 0  0.9500000000000002 -1 0  1 -1 0  1.05 -1 0  1.1 -1 0  1.15 -1 0  1.2 -1 0  1.25 -1 0  1.3 -1 0  1.35 -1 0  1.4 -1 0  1.45 -1 0  1.5 -1 0  1.55 -1 0  1.6 -1 0  1.65 -1 0  1.7 -1 0  1.75 -1 0  1.8 -1 0  1.85 -1 0  1.9 -1 0  1.95 -1 0  2 -1 0  2.05 -1 0  2.1 -1 0  2.15 -1 0  2.2 -1 0  2.25 -1 0  2.3 -1 0  2.35 -1 0  2.4 -1 0  2.45 -1 0  2.5 -1 0  2.55 -1 0  2.6 -1 0  2.65 -1 0  2.7 -1 0  2.75 -1 0  2.8 -1 0  2.85 -1 0  2.9 -1 0  2.95 -1 0  3 -1 0  3.050000000000001 -1 0  3.1 -1 0  3.15 -1 0  3.199999999999999 -1 0  3.25 -1 0  3.300000000000001 -1 0  3.35 -1 0  3.4 -1 0  3.449999999999999 -1 0  3.5 -1 0  3.550000000000001 -1 0  3.6 -1 0  3.65 -1 0  3.699999999999999 -1 0  3.75 -1 0  3.800000000000001 -1 0  3.85 -1 0  3.9 -1 0  3.949999999999999 -1 0  4 -1 0  4.050000000000001 -1 0  4.1 -1 0  4.15 -1 0  4.199999999999999 -1 0  4.25 -1 0  4.300000000000001 -1 0  4.35 -1 0  4.4 -1 0  4.449999999999999 -1 0  4.5 -1 0  4.550000000000001 -1 0  4.6 -1 0  4.65 -1 0  4.699999999999999 -1 0  4.75 -1 0  4.800000000000001 -1 0  4.85 -1 0  4.9 -1 0  4.949999999999999 -1 0  5 -1 0  -5 -0.95 0  -4.95 -0.95 0  -4.9 -0.95 0  -4.85 -0.95 0  -4.8 -0.95 0  -4.75 -0.95 0  -4.7 -0.95 0  -4.65 -0.95 0  -4.6 -0.95 0  -4.55 -0.95 0  -4.5 -0.95 0  -4.45 -0.95 0  -4.4 -0.95 0  -4.35 -0.95 0  -4.3 -0.95 0  -4.25 -0.95 0  -4.2 -0.95 0  -4.15 -0.95 0  -4.1 -0.95 0  -4.05 -0.95 0  -4 -0.95 0  -3.95 -0.95 0  -3.9 -0.95 0  -3.85 -0.95 0  -3.8 -0.95 0  -3.75 -0.95 0  -3.7 -0.95 0  -3.65 -0.95 0  -3.6 -0.95 0  -3.55 -0.95 0  -3.5 -0.95 0  -3.45 -0.95 0  -3.4 -0.95 0  -3.35 -0.95 0  -3.3 -0.95 0  -3.25 -0.95 0  -3.2 -0.95 0  -3.15 -0.95 0  -3.1 -0.95 0  -3.05 -0.95 0  -3 -0.95 0  -2.95 -0.95 0  -2.9 -0.95 0  -2.85 -0.95 0  -2.8 -0.95 0  -2.75 -0.95 0  -2.7 -0.95 0  -2.65 -0.95 0  -2.6 -0.95 0  -2.55 -0.95 0  -2.5 -0.95 0  -2.45 -0.95 0  -2.4 -0.95 0  -2.35 -0.95 0  -2.3 -0.95 0  -2.25 -0.95 0  -2.2 -0.95 0  -2.15 -0.95 0  -2.1 -0.95 0  -2.05 -0.95 0  -2 -0.95 0  -1.95 -0.95 0  -1.9 -0.95 0  -1.85 -0.95 0  -1.8 -0.95 0  -1.75 -0.95 0  -1.7 -0.95 0  -1.65 -0.95 0  -1.6 -0.95 0  -1.55 -0.95 0  -1.5 -0.95 0  -1.45 -0.95 0  -1.4 -0.95 0  -1.35 -0.95 0  -1.3 -0.95 0  -1.25 -0.95 0  -1.2 -0.95 0  -1.15 -0.95 0  -1.1 -0.95 0  -1.05 -0.95 0  -1 -0.95 0  -0.9500000000000002 -0.95 0  -0.9000000000000004 -0.95 0  -0.8499999999999996 -0.95 0  -0.7999999999999998 -0.95 0  -0.75 -0.95 0  -0.7000000000000002 -0.95 0  -0.6500000000000004 -0.95 0  -0.5999999999999996 -0.95 0  -0.5499999999999998 -0.95 0  -0.5 -0.95 0  -0.4500000000000002 -0.95 0  -0.4000000000000004 -0.95 0  -0.3499999999999996 -0.95 0  -0.2999999999999998 -0.95 0  -0.25 -0.95 0  -0.2000000000000002 -0.95 0  -0.1500000000000004 -0.95 0  -0.09999999999999964 -0.95 0  -0.04999999999999982 -0.95 0  0 -0.95 0  0.04999999999999982 -0.95 0  0.09999999999999964 -0.95 0  0.1500000000000004 -0.95 0  0.2000000000000002 -0.95 0  0.25 -0.95 0  0.2999999999999998 -0.95 0  0.3499999999999996 -0.95 0  0.4000000000000004 -0.95 0  0.4500000000000002 -0.95 0  0.5 -0.95 0  0.5499999999999998 -0.95 0  0.5999999999999996 -0.95 0  0.6500000000000004 -0.95 0  0.7000000000000002 -0.95 0  0.75 -0.95 0  0.7999999999999998 -0.95 0  0.8499999999999996 -0.95 0  0.9000000000000004 -0.95 0  0.9500000000000002 -0.95 0  1 -0.95 0  1.05 -0.95 0  1.1 -0.95 0  1.15 -0.95 0  1.2 -0.95 0  1.25 -0.95 0  1.3 -0.95 0  1.35 -0.95 0  1.4 -0.95 0  1.45 -0.95 0  1.5 -0.95 0  1.55 -0.95 0  1.6 -0.95 0  1.65 -0.95 0  1.7 -0.95 0  1.75 -0.95 0  1.8 -0.95 0  1.85 -0.95 0  1.9 -0.95 0  1.95 -0.95 0  2 -0.95 0  2.05 -0.95 0  2.1 -0.95 0  2.15 -0.95 0  2.2 -0.95 0  2.25 -0.95 0  2.3 -0.95 0  2.35 -0.95 0  2.4 -0.95 0  2.45 -0.95 0  2.5 -0.95 0  2.55 -0.95 0  2.6 -0.95 0  2.65 -0.95 0  2.7 -0.95 0  2.75 -0.95 0  2.8 -0.95 0  2.85 -0.95 0  2.9 -0.95 0  2.95 -0.95 0  3 -0.95 0  3.050000000000001 -0.95 0  3.1 -0.95 0  3.15 -0.95 0  3.199999999999999 -0.95 0  3.25 -0.95 0  3.300000000000001 -0.95 0  3.35 -0.95 0  3.4 -0.95 0  3.449999999999999 -0.95 0  3.5 -0.95 0  3.550000000000001 -0.95 0  3.6 -0.95 0  3.65 -0.95 0  3.699999999999999 -0.95 0  3.75 -0.95 0  3.800000000000001 -0.95 0  3.85 -0.95 0  3.9 -0.95 0  3.949999999999999 -0.95 0  4 -0.95 0  4.050000000000001 -0.95 0  4.1 -0.95 0  4.15 -0.95 0  4.199999999999999 -0.95 0  4.25 -0.95 0  4.300000000000001 -0.95 0  4.35 -0.95 0  4.4 -0.95 0  4.449999999999999 -0.95 0  4.5 -0.95 0  4.550000000000001 -0.95 0  4.6 -0.95 0  4.65 -0.95 0  4.699999999999999 -0.95 0  4.75 -0.95 0  4.800000000000001 -0.95 0  4.85 -0.95 0  4.9 -0.95 0  4.949999999999999 -0.95 0  5 -0.95 0  -5 -0.9 0  -4.95 -0.9 0  -4.9 -0.9 0  -4.85 -0.9 0  -4.8 -0.9 0  -4.75 -0.9 0  -4.7 -0.9 0  -4.65 -0.9 0  -4.6 -0.9 0  -4.55 -0.9 0  -4.5 -0.9 0  -4.45 -0.9 0  -4.4 -0.9 0  -4.35 -0.9 0  -4.3 -0.9 0  -4.25 -0.9 0  -4.2 -0.9 0  -4.15 -0.9 0  -4.1 -0.9 0  -4.05 -0.9 0  -4 -0.9 0  -3.95 -0.9 0  -3.9 -0.9 0  -3.85 -0.9 0  -3.8 -0.9 0  -3.75 -0.9 0  -3.7 -0.9 0  -3.65 -0.9 0  -3.6 -0.9 0  -3.55 -0.9 0  -3.5 -0.9 0  -3.45 -0.9 0  -3.4 -0.9 0  -3.35 -0.9 0  -3.3 -0.9 0  -3.25 -0.9 0  -3.2 -0.9 0  -3.15 -0.9 0  -3.1 -0.9 0  -3.05 -0.9 0  -3 -0.9 0  -2.95 -0.9 0  -2.9 -0.9 0  -2.85 -0.9 0  -2.8 -0.9 0  -2.75 -0.9 0  -2.7 -0.9 0  -2.65 -0.9 0  -2.6 -0.9 0  -2.55 -0.9 0  -2.5 -0.9 0  -2.45 -0.9 0  -2.4 -0.9 0  -2.35 -0.9 0  -2.3 -0.9 0  -2.25 -0.9 0  -2.2 -0.9 0  -2.15 -0.9 0  -2.1 -0.9 0  -2.05 -0.9 0  -2 -0.9 0  -1.95 -0.9 0  -1.9 -0.9 0  -1.85 -0.9 0  -1.8 -0.9 0  -1.75 -0.9 0  -1.7 -0.9 0  -1.65 -0.9 0  -1.6 -0.9 0  -1.55 -0.9 0  -1.5 -0.9 0  -1.45 -0.9 0  -1.4 -0.9 0  -1.35 -0.9 0  -1.3 -0.9 0  -1.25 -0.9 0  -1.2 -0.9 0  -1.15 -0.9 0  -1.1 -0.9 0  -1.05 -0.9 0  -1 -0.9 0  -0.9500000000000002 -0.9 0  -0.9000000000000004 -0.9 0  -0.8499999999999996 -0.9 0  -0.7999999999999998 -0.9 0  -0.75 -0.9 0  -0.7000000000000002 -0.9 0  -0.6500000000000004 -0.9 0  -0.5999999999999996 -0.9 0  -0.5499999999999998 -0.9 0  -0.5 -0.9 0  -0.4500000000000002 -0.9 0  -0.4000000000000004 -0.9 0  -0.3499999999999996 -0.9 0  -0.2999999999999998 -0.9 0  -0.25 -0.9 0  -0.2000000000000002 -0.9 0  -0.1500000000000004 -0.9 0  -0.09999999999999964 -0.9 0  -0.04999999999999982 -0.9 0  0 -0.9 0  0.04999999999999982 -0.9 0  0.09999999999999964 -0.9 0  0.1500000000000004 -0.9 0  0.2000000000000002 -0.9 0  0.25 -0.9 0  0.2999999999999998 -0.9 0  0.3499999999999996 -0.9 0  0.4000000000000004 -0.9 0  0.4500000000000002 -0.9 0  0.5 -0.9 0  0.5499999999999998 -0.9 0  0.5999999999999996 -0.9 0  0.6500000000000004 -0.9 0  0.7000000000000002 -0.9 0  0.75 -0.9 0  0.7999999999999998 -0.9 0  0.8499999999999996 -0.9 0  0.9000000000000004 -0.9 0  0.9500000000000002 -0.9 0  1 -0.9 0  1.05 -0.9 0  1.1 -0.9 0  1.15 -0.9 0  1.2 -0.9 0  1.25 -0.9 0  1.3 -0.9 0  1.35 -0.9 0  1.4 -0.9 0  1.45 -0.9 0  1.5 -0.9 0  1.55 -0.9 0  1.6 -0.9 0  1.65 -0.9 0  1.7 -0.9 0  1.75 -0.9 0  1.8 -0.9 0  1.85 -0.9 0  1.9 -0.9 0  1.95 -0.9 0  2 -0.9 0  2.05 -0.9 0  2.1 -0.9 0  2.15 -0.9 0  2.2 -0.9 0  2.25 -0.9 0  2.3 -0.9 0  2.35 -0.9 0  2.4 -0.9 0  2.45 -0.9 0  2.5 -0.9 0  2.55 -0.9 0  2.6 -0.9 0  2.65 -0.9 0  2.7 -0.9 0  2.75 -0.9 0  2.8 -0.9 0  2.85 -0.9 0  2.9 -0.9 0  2.95 -0.9 0  3 -0.9 0  3.050000000000001 -0.9 0  3.1 -0.9 0  3.15 -0.9 0  3.199999999999999 -0.9 0  3.25 -0.9 0  3.300000000000001 -0.9 0  3.35 -0.9 0  3.4 -0.9 0  3.449999999999999 -0.9 0  3.5 -0.9 0  3.550000000000001 -0.9 0  3.6 -0.9 0  3.65 -0.9 0  3.699999999999999 -0.9 0  3.75 -0.9 0  3.800000000000001 -0.9 0  3.85 -0.9 0  3.9 -0.9 0  3.949999999999999 -0.9 0  4 -0.9 0  4.050000000000001 -0.9 0  4.1 -0.9 0  4.15 -0.9 0  4.199999999999999 -0.9 0  4.25 -0.9 0  4.300000000000001 -0.9 0  4.35 -0.9 0  4.4 -0.9 0  4.449999999999999 -0.9 0  4.5 -0.9 0  4.550000000000001 -0.9 0  4.6 -0.9 0  4.65 -0.9 0  4.699999999999999 -0.9 0  4.75 -0.9 0  4.800000000000001 -0.9 0  4.85 -0.9 0  4.9 -0.9 0  4.949999999999999 -0.9 0  5 -0.9 0  -5 -0.85 0  -4.95 -0.85 0  -4.9 -0.85 0  -4.85 -0.85 0  -4.8 -0.85 0  -4.75 -0.85 0  -4.7 -0.85 0  -4.65 -0.85 0  -4.6 -0.85 0  -4.55 -0.85 0  -4.5 -0.85 0  -
[...]
<PointData  Vectors="f_15"> 
<DataArray  type="Float64"  Name="f_15"  NumberOfComponents="3" format="ascii">5.1763800303721439e+00 0.0000000000000000e+00 0.0000000000000000e+00  5.2049463604808768e+00 9.8003900127217769e-02 0.0000000000000000e+00  5.1787705774169117e+00 1.1401729719710677e-01 0.0000000000000000e+00  5.2042181144076034e+00 2.4046258788382718e-01 0.0000000000000000e+00  5.1786436719063706e+00 2.6098490270963226e-01 0.0000000000000000e+00  5.2036521244394072e+00 3.7848893731325300e-01 0.0000000000000000e+00  5.1783651949283795e+00 4.0703289255944058e-01 0.0000000000000000e+00  5.2026129700131731e+00 5.1923711882691359e-01 0.0000000000000000e+00  5.1766144131539047e+00 5.5169525864976565e-01 0.0000000000000000e+00  5.2015864096532125e+00 6.5966425233690784e-01 0.0000000000000000e+00  5.1751005008087656e+00 6.9408028178082748e-01 0.0000000000000000e+00  5.1986285319404137e+00 8.0548555892869256e-01 0.0000000000000000e+00  5.1737978887121550e+00 8.3159927625928365e-01 0.0000000000000000e+00  5.1961832095904663e+00 9.4860264184921939e-01 0.0000000000000000e+00  5.1704404041297689e+00 9.7879803950489563e-01 0.0000000000000000e+00  5.1938223038699451e+00 1.0837808539762324e+00 0.0000000000000000e+00  5.1680202093464551e+00 1.1237732193287542e+00 0.0000000000000000e+00  5.1890443575106371e+00 1.2271493972361476e+00 0.0000000000000000e+00  5.1658092712839769e+00 1.2644046325748364e+00 0.0000000000000000e+00  5.1852407883584570e+00 1.3676196408627375e+00 0.0000000000000000e+00  5.1612075971144771e+00 1.4075022132507540e+00 0.0000000000000000e+00  5.1814100880581488e+00 1.5098876352590958e+00 0.0000000000000000e+00  5.1579425237720402e+00 1.5490642292186902e+00 0.0000000000000000e+00  5.1748610067152851e+00 1.6482724870253371e+00 0.0000000000000000e+00  5.1546770944837217e+00 1.6942604894977589e+00 0.0000000000000000e+00  5.1698375786568604e+00 1.7888015288515702e+00 0.0000000000000000e+00  5.1485323199211361e+00 1.8336747171315795e+00 0.0000000000000000e+00  5.1646222026930264e+00 1.9300368587661114e+00 0.0000000000000000e+00  5.1442363077205409e+00 1.9777178550947867e+00 0.0000000000000000e+00  5.1563986256361920e+00 2.0664710551606476e+00 0.0000000000000000e+00  5.1394842535782193e+00 2.1210159026182240e+00 0.0000000000000000e+00  5.1503428801748639e+00 2.2072587547312561e+00 0.0000000000000000e+00  5.1315780349295910e+00 2.2593670789773861e+00 0.0000000000000000e+00  5.1436654906860353e+00 2.3484724035206996e+00 0.0000000000000000e+00  5.1259826983702208e+00 2.4013135136558570e+00 0.0000000000000000e+00  5.1338810096680589e+00 2.4848621019588384e+00 0.0000000000000000e+00  5.1194269828765506e+00 2.5427827449069365e+00 0.0000000000000000e+00  5.1267057206944990e+00 2.6258132343722997e+00 0.0000000000000000e+00  5.1096177367325950e+00 2.6795856484368414e+00 0.0000000000000000e+00  5.1184350271071386e+00 2.7650358853611139e+00 0.0000000000000000e+00  5.1024934840223075e+00 2.8219825883017262e+00 0.0000000000000000e+00  5.1069540086065404e+00 2.8987480013457847e+00 0.0000000000000000e+00  5.0940444524351483e+00 2.9632556516311208e+00 0.0000000000000000e+00  5.0982610345701538e+00 3.0376882016735323e+00 0.0000000000000000e+00  5.0823186721610929e+00 3.0989067459975503e+00 0.0000000000000000e+00  5.0881937241433892e+00 3.1755619608125514e+00 0.0000000000000000e+00  5.0732669044752958e+00 3.2392866722511107e+00 0.0000000000000000e+00  5.0749865379368932e+00 3.3087385104988734e+00 0.0000000000000000e+00  5.0626201454319206e+00 3.3772950067474707e+00 0.0000000000000000e+00  5.0645030250769576e+00 3.4477221598304326e+00 0.0000000000000000e+00  5.0486933272484373e+00 3.5092675675073370e+00 0.0000000000000000e+00  5.0525736854556493e+00 3.5857090966976024e+00 0.0000000000000000e+00  5.0371140556724301e+00 3.6455648746850575e+00 0.0000000000000000e+00  5.0376343347346779e+00 3.7185264971837029e+00 0.0000000000000000e+00  5.0238714134707907e+00 3.7805814332141470e+00 0.0000000000000000e+00  5.0249886832736603e+00 3.8549602812217136e+00 0.0000000000000000e+00  5.0075341538559472e+00 3.9113790995973776e+00 0.0000000000000000e+00  5.0107912015296385e+00 3.9887116392382982e+00 0.0000000000000000e+00  4.9931694340006310e+00 4.0475684044574685e+00 0.0000000000000000e+00  4.9935752812969900e+00 4.1154619977125675e+00 0.0000000000000000e+00  4.9773111735237006e+00 4.1838598579544586e+00 0.0000000000000000e+00  4.9779958909536477e+00 4.2456962777309322e+00 0.0000000000000000e+00  4.9584675757082604e+00 4.3125569636575021e+00 0.0000000000000000e+00  4.9610386045858466e+00 4.3785487897043280e+00 0.0000000000000000e+00  4.9408735004436242e+00 4.4411847345528921e+00 0.0000000000000000e+00  4.9411759796406098e+00 4.5063831948307307e+00 0.0000000000000000e+00  4.9219686899965120e+00 4.5708861300791659e+00 0.0000000000000000e+00  4.9222398066777240e+00 4.6348063884221231e+00 0.0000000000000000e+00  4.9001274528479843e+00 4.6941852866088913e+00 0.0000000000000000e+00  4.9021237067050576e+00 4.7661550493467093e+00 0.0000000000000000e+00  4.8789022430150215e+00 4.8160867337220221e+00 0.0000000000000000e+00  4.8789679738086384e+00 4.8912792941221213e+00 0.0000000000000000e+00  4.8568314912333861e+00 4.9424025477449804e+00 0.0000000000000000e+00  4.8557444882404006e+00 5.0125402451151375e+00 0.0000000000000000e+00  4.8321510705269963e+00 5.0634378419211163e+00 0.0000000000000000e+00  4.8313980347115981e+00 5.1388034701044987e+00 0.0000000000000000e+00  4.8073562285515736e+00 5.1793958395073654e+00 0.0000000000000000e+00  4.8041989725103722e+00 5.2584375005205768e+00 0.0000000000000000e+00  4.7819172424122511e+00 5.3049684140013920e+00 0.0000000000000000e+00  4.7759838237020018e+00 5.3664194242655840e+00 0.0000000000000000e+00  4.7543228769656825e+00 5.4280697890295384e+00 0.0000000000000000e+00  4.7464335173853911e+00 5.4854785865203413e+00 0.0000000000000000e+00  4.7261946028880786e+00 5.5318012602508277e+00 0.0000000000000000e+00  4.7140096941831979e+00 5.6116717484929071e+00 0.0000000000000000e+00  4.6974533632579982e+00 5.6408397788539402e+00 0.0000000000000000e+00  4.6803868952287306e+00 5.7154199584411813e+00 0.0000000000000000e+00  4.6661620082062631e+00 5.7683071761111311e+00 0.0000000000000000e+00  4.6460844282830607e+00 5.8101668091396972e+00 0.0000000000000000e+00  4.6337452930632725e+00 5.8818174677019304e+00 0.0000000000000000e+00  4.6086967780978068e+00 5.9269468317718577e+00 0.0000000000000000e+00  4.6013018069545355e+00 5.9707342807587969e+00 0.0000000000000000e+00  4.5705540476645306e+00 6.0491985442597302e+00 0.0000000000000000e+00  4.5653088719802062e+00 6.0667908915617037e+00 0.0000000000000000e+00  4.5333017721850855e+00 6.1489316050662000e+00 0.0000000000000000e+00  4.5249529462412577e+00 6.1843103805524207e+00 0.0000000000000000e+00  4.4959922243983028e+00 6.2316222475320249e+00 0.0000000000000000e+00  4.4869838056787072e+00 6.2954041602854156e+00 0.0000000000000000e+00  4.4540859707713043e+00 6.3280976797759481e+00 0.0000000000000000e+00  4.4450971425327879e+00 6.3885184395724739e+00 0.0000000000000000e+00  4.4124922215741602e+00 6.4411496837960449e+00 0.0000000000000000e+00  4.4061560256903567e+00 6.4605801791316644e+00 0.0000000000000000e+00  4.3749250464732325e+00 6.5429970729898486e+00 0.0000000000000000e+00  4.3588903428842727e+00 6.5585983319886036e+00 0.0000000000000000e+00  4.3279351014631899e+00 6.6293243398843575e+00 0.0000000000000000e+00  4.3158337380124934e+00 6.6686502480657399e+00 0.0000000000000000e+00  4.2818858583408614e+00 6.7053850672402247e+00 0.0000000000000000e+00  4.2717818708036450e+00 6.7644131982170492e+00 0.0000000000000000e+00  4.2359903897649227e+00 6.8010463422892702e+00 0.0000000000000000e+00  4.2267571767389773e+00 6.8389577934108825e+00 0.0000000000000000e+00  4.1858816476733196e+00 6.9083011470990217e+00 0.0000000000000000e+00  4.1826000845008675e+00 6.9123331479295738e+00 0.0000000000000000e+00  4.1392881824894632e+00 7.0014294224696094e+00 0.0000000000000000e+00  4.1357554080142966e+00 6.9939169700237613e+00 0.0000000000000000e+00  4.0920278512995560e+00 7.0872361366790102e+00 0.0000000000000000e+00  4.0892073261551358e+00 7.0806293796253241e+00 0.0000000000000000e+00  4.0417168400227395e+00 7.1686951629815008e+00 0.0000000000000000e+00  4.0434886360999611e+00 7.1676531229969642e+00 0.0000000000000000e+00  3.9954499402319348e+00 7.2459383584446009e+00 0.0000000000000000e+00  3.9951299295821259e+00 7.2503418006829943e+00 0.0000000000000000e+00  3.9532853993820045e+00 7.3219244185446604e+00 0.0000000000000000e+00  3.9466603337052786e+00 7.3319461703107613e+00 0.0000000000000000e+00  3.9058635548051277e+00 7.3997688746534642e+00 0.0000000000000000e+00  3.8994955990072087e+00 7.4141324469310552e+00 0.0000000000000000e+00  3.8614455409985040e+00 7.4728401545799636e+00 0.0000000000000000e+00  3.8587558744505777e+00 7.4822562388782643e+00 0.0000000000000000e+00  3.8178033561182767e+00 7.5469155085583601e+00 0.0000000000000000e+00  3.8190615408816360e+00 7.5477771499006314e+00 0.0000000000000000e+00  3.8491313091436372e+00 7.4996101560838806e+00 0.0000000000000000e+00  3.9080190247519200e+00 7.4091822145805173e+00 0.0000000000000000e+00  3.9267697097503338e+00 7.3763455204927393e+00 0.0000000000000000e+00  3.9422192624239494e+00 7.3567643111305330e+00 0.0000000000000000e+00  3.9422304964328019e+00 7.3544802360977561e+00 0.0000000000000000e+00  3.9494943651695502e+00 7.3467506537621849e+00 0.0000000000000000e+00  3.9480832409800302e+00 7.3451365174558516e+00 0.0000000000000000e+00  3.9514546463651214e+00 7.3450495882033984e+00 0.0000000000000000e+00  3.9533683869335312e+00 7.3377447880001281e+00 0.0000000000000000e+00  3.9515327042164454e+00 7.3441576968729292e+00 0.0000000000000000e+00  3.9570485016285168e+00 7.3333373478090857e+00 0.0000000000000000e+00  3.9530004355335531e+00 7.3426718153735901e+00 0.0000000000000000e+00  3.9589704201241736e+00 7.3298433919281081e+00 0.0000000000000000e+00  3.9534007796643693e+00 7.3424831341067014e+00 0.0000000000000000e+00  3.9607194390728027e+00 7.3277649142802108e+00 0.0000000000000000e+00  3.9550035698313430e+00 7.3407420781345465e+00 0.0000000000000000e+00  3.9587233888672437e+00 7.3280324347456789e+00 0.0000000000000000e+00  3.9596974097872684e+00 7.3393089922821648e+00 0.0000000000000000e+00  3.9562227281481688e+00 7.3254004517454741e+00 0.0000000000000000e+00  3.9618214328269095e+00 7.3430027622411593e+00 0.0000000000000000e+00  3.9555188163479467e+00 7.3196102654209989e+00 0.0000000000000000e+00  3.9638026836360556e+00 7.3475419274804157e+00 0.0000000000000000e+00  3.9539401178783584e+00 7.3161931373542908e+00 0.0000000000000000e+00  3.9650838758554294e+00 7.3479472163358155e+00 0.0000000000000000e+00  3.9547609476535315e+00 7.3167094245503552e+00 0.0000000000000000e+00  3.9629843508558213e+00 7.3493438174366830e+00 0.0000000000000000e+00  3.9532771731668128e+00 7.3151470603642563e+00 0.0000000000000000e+00  3.9610953546780228e+00 7.3519462595913820e+00 0.0000000000000000e+00  3.9526857367040944e+00 7.3310976232377838e+00 0.0000000000000000e+00  3.9362346893246629e+00 7.3167436241697823e+00 0.0000000000000000e+00  3.9886926558327978e+00 7.4182591835151035e+00 0.0000000000000000e+00  3.8637175896369538e+00 7.1752697435654742e+00 0.0000000000000000e+00  4.0609898157773223e+00 7.6585285264639262e+00 0.0000000000000000e+00  3.8737742123592795e+00 6.7121283069392303e+00 0.0000000000000000e+00  3.8026687860243991e+00 8.4678433685575367e+00 0.0000000000000000e+00  5.1176439650249472e+00 4.8016201794769051e+00 0.0000000000000000e+00  9.1221744124637265e+00 3.7521283745933415e-01 0.0000000000000000e+00  9.5649077203104191e+00 2.3533597053192586e-02 0.0000000000000000e+00  9.4099277807598387e+00 1.6181654483631704e-02 0.0000000000000000e+00  9.4894412260290366e+00 -2.2281532470686042e-02 0.0000000000000000e+00  9.4820529106763285e+00 -5.2355453173074974e-03 0.0000000000000000e+00  9.4949729968847336e+00 -3.9628123668142411e-02 0.0000000000000000e+00  9.5048698811078278e+00 -4.0168650843486524e-02 0.0000000000000000e+00  9.4877586600940944e+00 -2.6463121964440964e-02 0.0000000000000000e+00  9.4922990216482184e+00 -3.2322591954559318e-02 0.0000000000000000e+00  9.4984759866577750e+00 -3.8903337075582280e-02 0.0000000000000000e+00  9.4962715380361811e+00 -3.7119358098042912e-02 0.0000000000000000e+00  9.4948435687625352e+00 -3.8092223811037149e-02 0.0000000000000000e+00  9.4960100046523266e+00 -3.9309812403478632e-02 0.0000000000000000e+00  9.4960918861057220e+00 -3.9823682585623951e-02 0.0000000000000000e+00  9.4969809768862614e+00 -4.6035330835139644e-02 0.0000000000000000e+00  9.4967556807093487e+00 -4.3695762771016236e-02 0.0000000000000000e+00  9.4958676168165503e+00 -5.1551320107493873e-02 0.0000000000000000e+00  9.4974235194823162e+00 -5.0808147220017162e-02 0.0000000000000000e+00  9.4971506006050621e+00 -6.0406706182689257e-02 0.0000000000000000e+00  9.4964049568762920e+00 -5.6027772130043535e-02 0.0000000000000000e+00  9.4980109766890504e+00 -6.7529124643123425e-02 0.0000000000000000e+00  9.4965656309518778e+00 -5.9588714267275224e-02 0.0000000000000000e+00  9.4977136907121515e+00 -7.8537162777767788e-02 0.0000000000000000e+00  9.4973669209656997e+00 -7.7204131538511730e-02 0.0000000000000000e+00  9.4974406036330681e+00 -9.6386654256035487e-02 0.0000000000000000e+00  9.4969723299764777e+00 -9.7451282854183849e-02 0.0000000000000000e+00  9.4983854762943754e+00 -1.1599550718269974e-01 0.0000000000000000e+00  9.4960907138484405e+00 -1.0849166641042012e-01 0.0000000000000000e+00  9.4985350535767701e+00 -1.2607075746683533e-01 0.0000000000000000e+00  9.4964708369151918e+00 -1.0644134226077864e-01 0.0000000000000000e+00  9.4977933928391458e+00 -1.1115161678354062e-01 0.0000000000000000e+00  9.4968781313502468e+00 -1.0139600070204631e-01 0.0000000000000000e+00  9.4977977648197225e+00 -9.2724805725553860e-02 0.0000000000000000e+00  9.4960612867790122e+00 -9.3631908724551904e-02 0.0000000000000000e+00  9.4984520592854302e+00 -7.2714751308751963e-02 0.0000000000000000e+00  9.4956432478596255e+00 -1.0757415979883864e-01 0.0000000000000000e+00  9.4976190120847725e+00 -2.6289099649099538e-02 0.0000000000000000e+00  9.4970938824526332e+00 0.0000000000000000e+00 0.0000000000000000e+00  5.1898989477548483e+00 0.0000000000000000e+00 -1.9073783811202154e-02  5.1972598595679189e+00 6.3635620501426862e-02 1.6174686553708446e-03  5.1906682581553589e+00 1.5068193741912453e-01 8.1582110061953015e-03  5.1935813108202957e+00 2.1298621288392763e-01 -5.0864973940084992e-03  5.1906163574025488e+00 2.8470123031408073e-01 3.9968304820687780e-03  5.1919426564863365e+00 3.5747308539653150e-01 -3.3054538569487670e-03  5.1894231737850953e+00 4.2715621644953566e-01 3.5529829148538477e-03  5.1898627923777942e+00 4.9815821741263827e-01 -3.9538618832329533e-03  5.1885070413774672e+00 5.7021439434691945e-01 3.9705016218048650e-03  5.1880829236601365e+00 6.3962760327144164e-01 -3.2555170793806356e-03  5.1860604544017423e+00 7.1446299827855786e-01 2.1616578771262375e-03  5.1865932356324249e+00 7.7942826713587188e-01 -1.0995075401355528e-03  5.1841650776499426e+00 8.5704314606963283e-01 2.0703645850464095e-04  5.1831382986747290e+00 9.2600812301196811e-01 1.0084538536553993e-03  5.1824932245617710e+00 9.9242308202567286e-01 -2.4463536864710684e-03  5.1805262167983335e+00 1.0724336870106388e+00 2.9296994974060777e-03  5.1784237466325065e+00 1.1361849191379407e+00 -1.4042339368485143e-03  5.1782581690263374e+00 1.2095592825868069e+00 -1.2138998648014482e-03  5.1752124995731954e+00 1.2819115858154433e+00 2.7863099968052723e-03  5.1735460603292287e+00 1.3505053403503227e+00 -2.3924946478894619e-03  5.1721713435352408e+00 1.4238388949772980e+00 1.5547658374841613e-03  5.1699786837696307e+00 1.4923260659683897e+00 -1.8844975840806018e-03  5.1664782154369329e+00 1.5645138435259467e+00 3.0489361512434235e-03  5.1664816972077467e+00 1.6353261371035706e+00 -3.7967511932059644e-03  5.1621741916558168e+00 1.7066517512821737e+00 4.0254854639214287e-03  5.1601906002650528e+00 1.7735889354992083e+00 -4.4334643560262482e-03  5.1577232111758908e+00 1.8504278260121103e+00 5.2019603944495072e-03  5.1556434701315723e+00 1.9153740985267831e+00 -5.8009620542837413e-03  5.1502869874250718e+00 1.9890481091288010e+00 6.1578939479068791e-03  5.1507532214921019e+00 2.0570512450332608e+00 -6.4958948736654172e-03  5.1448811797004597e+00 2.1319066532759607e+00 6.8283259475077013e-03  5.1427561031094235e+00 2.1942652696924676e+00 -6.9800537455792424e-03  5.1389324679255948e+00 2.2742677958318613e+00 7.0451790400983495e-03  5.1369788669178797e+00 2.3355021732255778e+00 -7.0881962951143927e-03  5.1298824927299425e+00 2.4116330738427578e+00 7.0265964507613523e-03  5.1303434976909035e+00 2.4769207794676191e+00 -6.8252028945378143e-03  5.1233402254077385e+00 2.5528433397160835e+00 6.6293454126073277e-03  5.1204904952379513e+00 2.6135824031656427e+00 -6.5112977805471548e-03  5.1157585935154675e+00 2.6930205992259433e+00 6.4069047591773943e-03  5.1132813974764018e+00 2.7551938175415644e+00 -6.2825432522885223e-03  5.1049529351331611e+00 2.8281321668126154e+00 6.1614937727950273e-03  5.1048208391771315e+00 2.8954161239727791e+00 -6.0498617169677995e-03  5.0968996456351920e+00 2.9684731235689616e+00 5.9293330715437650e-03  5.0931006679751860e+00 3.0301547841154046e+00 -5.8502359021654167e-03  5.0874832147298594e+00 3.1076766284916082e+00 5.7893020357207246e-03  5.0841019071547429e+00 3.1698505651947371e+00 -5.7133162826753939e-03  5.0748586603619739e+00 3.2416398698955842e+00 5.5997286347822910e-03  5.0736093151908239e+00 3.3078917893020918e+00 -5.5257654202808424e-03  5.0648922768062539e+00 3.3807683988168415e+00 5.5133770077273967e-03  5.0599652713247369e+00 3.4405229861198054e+00 -5.6039833653565036e-03  5.0533020326237930e+00 3.5183657578637426e+00 5.7965366332846588e-03  5.0489571208093791e+00 3.5778822650605315e+00 -6.1410645545699419e-03  5.0384278955086712e+00 3.6507751120638385e+00 6.6452651370004397e-03  5.0365360777184156e+00 3.7134797049986079e+00 -7.3335525841206825e-03  5.0257078380401490e+00 3.7878601440885773e+00 8.1221883608737968e-03  5.0211818963527577e+00 3.8436617103286053e+00 -8.9174060949023977e-03  5.0112844924890894e+00 3.9234819794011515e+00 9.6464612656652036e-03  5.0079909247929235e+00 3.9780092122372306e+00 -1.0313460490200507e-02  4.9937786204856982e+00 4.0535555074620557e+00 1.0910715220152715e-02  4.9932505829815961e+00 4.1112129764681384e+00 -1.1374081157907067e-02  4.9781474160805574e+00 4.1875368215423050e+00 1.1571036252620280e-02  4.9753097041545535e+00 4.2379815501424458e+00 -1.1410504424340346e-02  4.9613266662334974e+00 4.3217568690161450e+00 1.0948129868686318e-02  4.9585460343776608e+00 4.3674333865304398e+00 -1.0341578571918092e-02  4.9416972686011933e+00 4.4490448241427192e+00 9.7590380458668219e-03  4.9404031065320151e+00 4.4988461490617642e+00 -9.2665662876565118e-03  4.9230872952592364e+00 4.5767000647844158e+00 8.8176285407544838e-03  4.9193420492519273e+00 4.6244041465367030e+00 -8.3528716790490908e-03  4.9032624303252055e+00 4.7063964871168347e+00 7.8713410637308075e-03  4.8989342181073807e+00 4.7494168198754920e+00 -7.4273634730637750e-03  4.8805118348471170e+00 4.8301022328529113e+00 7.0596462792048816e-03  4.8774455318372345e+00 4.8776770702975147e+00 -6.7064171086132487e-03  4.8580215744589026e+00 4.9513174850875252e+00 6.2500082318142566e-03  4.8531005401188532e+00 5.0004999059601882e+00 -5.6475573982135334e-03  4.8344660625766265e+00 5.0767717825811998e+00 5.0140930869001024e-03  4.8287175940890981e+00 5.1189283271049231e+00 -4.5504059482265350e-03  4.8080322082051090e+00 5.1970304603461255e+00 4.3779256692341954e-03  4.8034137824006047e+00 5.2435520555697552e+00 -4.3435812855139588e-03  4.7812112733355914e+00 5.3094403980564149e+00 4.1498442260206750e-03  4.7751854977119397e+00 5.3645605798142713e+00 -3.5339880742964007e-03  4.7539149986827489e+00 5.4297637402660497e+00 2.4785340610165140e-03  4.7457549753166814e+00 5.4726376694443504e+00 -1.2304517895696228e-03  4.72436