<?xml version="1.0"?>
<VTKFile type="UnstructuredGrid"  version="0.1"  >
<UnstructuredGrid>
<Piece  NumberOfPoints="8241" NumberOfCells="16000">
<Points>
<DataArray  type="Float64"  NumberOfComponents="3"  format="ascii">-5 -1 0  -4.95 -1 0  -4.9 -1 0  -4.85 -1 0  -4.8 -1 0  -4.75 -1 0  -4.7 -1 0  -4.65 -1 0  -4.6 -1 0  -4.55 -1 0  -4.5 -1 0  -4.45 -1 0  -4.4 -1 0  -4.35 -1 0  -4.3 -1 0  -4.25 -1 0  -4.2 -1 0  -4.15 -1 0  -4.1 -1 0  -4.05 -1 0  -4 -1 0  -3.95 -1 0  -3.9 -1 0  -3.85 -1 0  -3.8 -1 0  -3.75 -1 0  -3.7 -1 0  -3.65 -1 0  -3.6 -1 0  -3.55 -1 0  -3.5 -1 0  -3.45 -1 0  -3.4 -1 0  -3.35 -1 0  -3.3 -1 0  -3.25 -1 0  -3.2 -1 0  -3.15 -1 0  -3.1 -1 0  -3.05 -1 0  -3 -1 0  -2.95 -1 0  -2.9 -1 0  -2.85 -1 0  -2.8 -1 0  -2.75 -1 0  -2.7 -1 0  -2.65 -1 0  -2.6 -1 0  -2.55 -1 0  -2.5 -1 0  -2.45 -1 0  -2.4 -1 0  -2.35 -1 0  -2.3 -1 0  -2.25 -1 0  -2.2 -1 0  -2.15 -1 0  -2.1 -1 0  -2.05 -1 0  -2 -1 0  -1.95 -1 0  -1.9 -1 0  -1.85 -1 0  -1.8 -1 0  -1.75 -1 0  -1.7 -1 0  -1.65 -1 0  -1.6 -1 0  -1.55 -1 0  -1.5 -1 0  -1.45 -1 0  -1.4 -1 0  -1.35 -1 0  -1.3 -1 0  -1.25 -1 0  -1.2 -1 0  -1.15 -1 0  -1.1 -1 0  -1.05 -1 0  -1 -1 0  -0.9500000000000002 -1 0  -0.9000000000000004 -1 0  -0.8499999999999996 -1 0  -0.7999999999999998 -1 0  -0.75 -1 0  -0.7000000000000002 -1 0  -0.6500000000000004 -1 0  -0.5999999999999996 -1 0  -0.5499999999999998 -1 0  -0.5 -1 0  -0.4500000000000002 -1 0  -0.4000000000000004 -1 0  -0.3499999999999996 -1 0  -0.2999999999999998 -1 0  -0.25 -1 0  -0.2000000000000002 -1 0  -0.1500000000000004 -1 0  -0.09999999999999964 -1 0  -0.04999999999999982 -1 0  0 -1 0  0.04999999999999982 -1 0  0.09999999999999964 -1 0  0.1500000000000004 -1 0  0.2000000000000002 -1 0  0.25 -1 0  0.2999999999999998 -1 0  0.3499999999999996 -1 0  0.4000000000000004 -1 0  0.4500000000000002 -1 0  0.5 -1 0  0.5499999999999998 -1 0  0.5999999999999996 -1 0  0.6500000000000004 -1 0  0.7000000000000002 -1 0  0.75 -1 0  0.7999999999999998 -1 0  0.8499999999999996 -1 0  0.9000000000000004 -1 0  0.9500000000000002 -1 0  1 -1 0  1.05 -1 0  1.1 -1 0  1.15 -1 0  1.2 -1 0  1.25 -1 0  1.3 -1 0  1.35 -1 0  1.4 -1 0  1.45 -1 0  1.5 -1 0  1.55 -1 0  1.6 -1 0  1.65 -1 0  1.7 -1 0  1.75 -1 0  1.8 -1 0  1.85 -1 0  1.9 -1 0  1.95 -1 0  2 -1 0  2.05 -1 0  2.1 -1 0  2.15 -1 0  2.2 -1 0  2.25 -1 0  2.3 -1 0  2.35 -1 0  2.4 -1 0  2.45 -1 0  2.5 -1 0  2.55 -1 0  2.6 -1 0  2.65 -1 0  2.7 -1 0  2.75 -1 0  2.8 -1 0  2.85 -1 0  2.9 -1 0  2.95 -1 0  3 -1 0  3.050000000000001 -1 0  3.1 -1 0  3.15 -1 0  3.199999999999999 -1 0  3.25 -1 0  3.300000000000001 -1 0  3.35 -1 0  3.4 -1 0  3.449999999999999 -1 0  3.5 -1 0  3.550000000000001 -1 0  3.6 -1 0  3.65 -1 0  3.699999999999999 -1 0  3.75 -1 0  3.800000000000001 -1 0  3.85 -1 0  3.9 -1 0  3.949999999999999 -1 0  4 -1 0  4.050000000000001 -1 0  4.1 -1 0  4.15 -1 0  4.199999999999999 -1 0  4.25 -1 0  4.300000000000001 -1 0  4.35 -1 0  4.4 -1 0  4.449999999999999 -1 0  4.5 -1 0  4.550000000000001 -1 0  4.6 -1 0  4.65 -1 0  4.699999999999999 -1 0  4.75 -1 0  4.800000000000001 -1 0  4.85 -1 0  4.9 -1 0  4.949999999999999 -1 0  5 -1 0  -5 -0.95 0  -4.95 -0.95 0  -4.9 -0.95 0  -4.85 -0.95 0  -4.8 -0.95 0  -4.75 -0.95 0  -4.7 -0.95 0  -4.65 -0.95 0  -4.6 -0.95 0  -4.55 -0.95 0  -4.5 -0.95 0  -4.45 -0.95 0  -4.4 -0.95 0  -4.35 -0.95 0  -4.3 -0.95 0  -4.25 -0.95 0  -4.2 -0.95 0  -4.15 -0.95 0  -4.1 -0.95 0  -4.05 -0.95 0  -4 -0.95 0  -3.95 -0.95 0  -3.9 -0.95 0  -3.85 -0.95 0  -3.8 -0.95 0  -3.75 -0.95 0  -3.7 -0.95 0  -3.65 -0.95 0  -3.6 -0.95 0  -3.55 -0.95 0  -3.5 -0.95 0  -3.45 -0.95 0  -3.4 -0.95 0  -3.35 -0.95 0  -3.3 -0.95 0  -3.25 -0.95 0  -3.2 -0.95 0  -3.15 -0.95 0  -3.1 -0.95 0  -3.05 -0.95 0  -3 -0.95 0  -2.95 -0.95 0  -2.9 -0.95 0  -2.85 -0.95 0  -2.8 -0.95 0  -2.75 -0.95 0  -2.7 -0.95 0  -2.65 -0.95 0  -2.6 -0.95 0  -2.55 -0.95 0  -2.5 -0.95 0  -2.45 -0.95 0  -2.4 -0.95 0  -2.35 -0.95 0  -2.3 -0.95 0  -2.25 -0.95 0  -2.2 -0.95 0  -2.15 -0.95 0  -2.1 -0.95 0  -2.05 -0.95 0  -2 -0.95 0  -1.95 -0.95 0  -1.9 -0.95 0  -1.85 -0.95 0  -1.8 -0.95 0  -1.75 -0.95 0  -1.7 -0.95 0  -1.65 -0.95 0  -1.6 -0.95 0  -1.55 -0.95 0  -1.5 -0.95 0  -1.45 -0.95 0  -1.4 -0.95 0  -1.35 -0.95 0  -1.3 -0.95 0  -1.25 -0.95 0  -1.2 -0.95 0  -1.15 -0.95 0  -1.1 -0.95 0  -1.05 -0.95 0  -1 -0.95 0  -0.9500000000000002 -0.95 0  -0.9000000000000004 -0.95 0  -0.8499999999999996 -0.95 0  -0.7999999999999998 -0.95 0  -0.75 -0.95 0  -0.7000000000000002 -0.95 0  -0.6500000000000004 -0.95 0  -0.5999999999999996 -0.95 0  -0.5499999999999998 -0.95 0  -0.5 -0.95 0  -0.4500000000000002 -0.95 0  -0.4000000000000004 -0.95 0  -0.3499999999999996 -0.95 0  -0.2999999999999998 -0.95 0  -0.25 -0.95 0  -0.2000000000000002 -0.95 0  -0.1500000000000004 -0.95 0  -0.09999999999999964 -0.95 0  -0.04999999999999982 -0.95 0  0 -0.95 0  0.04999999999999982 -0.95 0  0.09999999999999964 -0.95 0  0.1500000000000004 -0.95 0  0.2000000000000002 -0.95 0  0.25 -0.95 0  0.2999999999999998 -0.95 0  0.3499999999999996 -0.95 0  0.4000000000000004 -0.95 0  0.4500000000000002 -0.95 0  0.5 -0.95 0  0.5499999999999998 -0.95 0  0.5999999999999996 -0.95 0  0.6500000000000004 -0.95 0  0.7000000000000002 -0.95 0  0.75 -0.95 0  0.7999999999999998 -0.95 0  0.8499999999999996 -0.95 0  0.9000000000000004 -0.95 0  0.9500000000000002 -0.95 0  1 -0.95 0  1.05 -0.95 0  1.1 -0.95 0  1.15 -0.95 0  1.2 -0.95 0  1.25 -0.95 0  1.3 -0.95 0  1.35 -0.95 0  1.4 -0.95 0  1.45 -0.95 0  1.5 -0.95 0  1.55 -0.95 0  1.6 -0.95 0  1.65 -0.95 0  1.7 -0.95 0  1.75 -0.95 0  1.8 -0.95 0  1.85 -0.95 0  1.9 -0.95 0  1.95 -0.95 0  2 -0.95 0  2.05 -0.95 0  2.1 -0.95 0  2.15 -0.95 0  2.2 -0.95 0  2.25 -0.95 0  2.3 -0.95 0  2.35 -0.95 0  2.4 -0.95 0  2.45 -0.95 0  2.5 -0.95 0  2.55 -0.95 0  2.6 -0.95 0  2.65 -0.95 0  2.7 -0.95 0  2.75 -0.95 0  2.8 -0.95 0  2.85 -0.95 0  2.9 -0.95 0  2.95 -0.95 0  3 -0.95 0  3.050000000000001 -0.95 0  3.1 -0.95 0  3.15 -0.95 0  3.199999999999999 -0.95 0  3.25 -0.95 0  3.300000000000001 -0.95 0  3.35 -0.95 0  3.4 -0.95 0  3.449999999999999 -0.95 0  3.5 -0.95 0  3.550000000000001 -0.95 0  3.6 -0.95 0  3.65 -0.95 0  3.699999999999999 -0.95 0  3.75 -0.95 0  3.800000000000001 -0.95 0  3.85 -0.95 0  3.9 -0.95 0  3.949999999999999 -0.95 0  4 -0.95 0  4.050000000000001 -0.95 0  4.1 -0.95 0  4.15 -0.95 0  4.199999999999999 -0.95 0  4.25 -0.95 0  4.300000000000001 -0.95 0  4.35 -0.95 0  4.4 -0.95 0  4.449999999999999 -0.95 0  4.5 -0.95 0  4.550000000000001 -0.95 0  4.6 -0.95 0  4.65 -0.95 0  4.699999999999999 -0.95 0  4.75 -0.95 0  4.800000000000001 -0.95 0  4.85 -0.95 0  4.9 -0.95 0  4.949999999999999 -0.95 0  5 -0.95 0  -5 -0.9 0  -4.95 -0.9 0  -4.9 -0.9 0  -4.85 -0.9 0  -4.8 -0.9 0  -4.75 -0.9 0  -4.7 -0.9 0  -4.65 -0.9 0  -4.6 -0.9 0  -4.55 -0.9 0  -4.5 -0.9 0  -4.45 -0.9 0  -4.4 -0.9 0  -4.35 -0.9 0  -4.3 -0.9 0  -4.25 -0.9 0  -4.2 -0.9 0  -4.15 -0.9 0  -4.1 -0.9 0  -4.05 -0.9 0  -4 -0.9 0  -3.95 -0.9 0  -3.9 -0.9 0  -3.85 -0.9 0  -3.8 -0.9 0  -3.75 -0.9 0  -3.7 -0.9 0  -3.65 -0.9 0  -3.6 -0.9 0  -3.55 -0.9 0  -3.5 -0.9 0  -3.45 -0.9 0  -3.4 -0.9 0  -3.35 -0.9 0  -3.3 -0.9 0  -3.25 -0.9 0  -3.2 -0.9 0  -3.15 -0.9 0  -3.1 -0.9 0  -3.05 -0.9 0  -3 -0.9 0  -2.95 -0.9 0  -2.9 -0.9 0  -2.85 -0.9 0  -2.8 -0.9 0  -2.75 -0.9 0  -2.7 -0.9 0  -2.65 -0.9 0  -2.6 -0.9 0  -2.55 -0.9 0  -2.5 -0.9 0  -2.45 -0.9 0  -2.4 -0.9 0  -2.35 -0.9 0  -2.3 -0.9 0  -2.25 -0.9 0  -2.2 -0.9 0  -2.15 -0.9 0  -2.1 -0.9 0  -2.05 -0.9 0  -2 -0.9 0  -1.95 -0.9 0  -1.9 -0.9 0  -1.85 -0.9 0  -1.8 -0.9 0  -1.75 -0.9 0  -1.7 -0.9 0  -1.65 -0.9 0  -1.6 -0.9 0  -1.55 -0.9 0  -1.5 -0.9 0  -1.45 -0.9 0  -1.4 -0.9 0  -1.35 -0.9 0  -1.3 -0.9 0  -1.25 -0.9 0  -1.2 -0.9 0  -1.15 -0.9 0  -1.1 -0.9 0  -1.05 -0.9 0  -1 -0.9 0  -0.9500000000000002 -0.9 0  -0.9000000000000004 -0.9 0  -0.8499999999999996 -0.9 0  -0.7999999999999998 -0.9 0  -0.75 -0.9 0  -0.7000000000000002 -0.9 0  -0.6500000000000004 -0.9 0  -0.5999999999999996 -0.9 0  -0.5499999999999998 -0.9 0  -0.5 -0.9 0  -0.4500000000000002 -0.9 0  -0.4000000000000004 -0.9 0  -0.3499999999999996 -0.9 0  -0.2999999999999998 -0.9 0  -0.25 -0.9 0  -0.2000000000000002 -0.9 0  -0.1500000000000004 -0.9 0  -0.09999999999999964 -0.9 0  -0.04999999999999982 -0.9 0  0 -0.9 0  0.04999999999999982 -0.9 0  0.09999999999999964 -0.9 0  0.1500000000000004 -0.9 0  0.2000000000000002 -0.9 0  0.25 -0.9 0  0.2999999999999998 -0.9 0  0.3499999999999996 -0.9 0  0.4000000000000004 -0.9 0  0.4500000000000002 -0.9 0  0.5 -0.9 0  0.5499999999999998 -0.9 0  0.5999999999999996 -0.9 0  0.6500000000000004 -0.9 0  0.7000000000000002 -0.9 0  0.75 -0.9 0  0.7999999999999998 -0.9 0  0.8499999999999996 -0.9 0  0.9000000000000004 -0.9 0  0.9500000000000002 -0.9 0  1 -0.9 0  1.05 -0.9 0  1.1 -0.9 0  1.15 -0.9 0  1.2 -0.9 0  1.25 -0.9 0  1.3 -0.9 0  1.35 -0.9 0  1.4 -0.9 0  1.45 -0.9 0  1.5 -0.9 0  1.55 -0.9 0  1.6 -0.9 0  1.65 -0.9 0  1.7 -0.9 0  1.75 -0.9 0  1.8 -0.9 0  1.85 -0.9 0  1.9 -0.9 0  1.95 -0.9 0  2 -0.9 0  2.05 -0.9 0  2.1 -0.9 0  2.15 -0.9 0  2.2 -0.9 0  2.25 -0.9 0  2.3 -0.9 0  2.35 -0.9 0  2.4 -0.9 0  2.45 -0.9 0  2.5 -0.9 0  2.55 -0.9 0  2.6 -0.9 0  2.65 -0.9 0  2.7 -0.9 0  2.75 -0.9 0  2.8 -0.9 0  2.85 -0.9 0  2.9 -0.9 0  2.95 -0.9 0  3 -0.9 0  3.050000000000001 -0.9 0  3.1 -0.9 0  3.15 -0.9 0  3.199999999999999 -0.9 0  3.25 -0.9 0  3.300000000000001 -0.9 0  3.35 -0.9 0  3.4 -0.9 0  3.449999999999999 -0.9 0  3.5 -0.9 0  3.550000000000001 -0.9 0  3.6 -0.9 0  3.65 -0.9 0  3.699999999999999 -0.9 0  3.75 -0.9 0  3.800000000000001 -0.9 0  3.85 -0.9 0  3.9 -0.9 0  3.949999999999999 -0.9 0  4 -0.9 0  4.050000000000001 -0.9 0  4.1 -0.9 0  4.15 -0.9 0  4.199999999999999 -0.9 0  4.25 -0.9 0  4.300000000000001 -0.9 0  4.35 -0.9 0  4.4 -0.9 0  4.449999999999999 -0.9 0  4.5 -0.9 0  4.550000000000001 -0.9 0  4.6 -0.9 0  4.65 -0.9 0  4.699999999999999 -0.9 0  4.75 -0.9 0  4.800000000000001 -0.9 0  4.85 -0.9 0  4.9 -0.9 0  4.949999999999999 -0.9 0  5 -0.9 0  -5 -0.85 0  -4.95 -0.85 0  -4.9 -0.85 0  -4.85 -0.85 0  -4.8 -0.85 0  -4.75 -0.85 0  -4.7 -0.85 0  -4.65 -0.85 0  -4.6 -0.85 0  -4.55 -0.85 0  -4.5 -0.85 0  -
[...]
<PointData  Vectors="f_15"> 
<DataArray  type="Float64"  Name="f_15"  NumberOfComponents="3" format="ascii">3.0000000000000431e+00 0.0000000000000000e+00 0.0000000000000000e+00  2.9999999999999587e+00 -6.2508172549015312e-14 0.0000000000000000e+00  3.0000000000000409e+00 7.5985858027204317e-14 0.0000000000000000e+00  2.9999999999999560e+00 -8.1482879340991629e-14 0.0000000000000000e+00  3.0000000000000555e+00 8.7046678404871977e-14 0.0000000000000000e+00  2.9999999999999187e+00 -1.1494906842769920e-13 0.0000000000000000e+00  3.0000000000001386e+00 1.8838234618776022e-13 0.0000000000000000e+00  2.9999999999997624e+00 -3.1861446668675220e-13 0.0000000000000000e+00  3.0000000000004041e+00 5.0127349413689964e-13 0.0000000000000000e+00  2.9999999999993148e+00 -7.2950733335837914e-13 0.0000000000000000e+00  3.0000000000012412e+00 1.0886763786633894e-12 0.0000000000000000e+00  2.9999999999975566e+00 -1.9250266912273970e-12 0.0000000000000000e+00  3.0000000000051066e+00 4.0908861939890045e-12 0.0000000000000000e+00  2.9999999999891989e+00 -9.2862438353297733e-12 0.0000000000000000e+00  3.0000000000225278e+00 2.0631234041262592e-11 0.0000000000000000e+00  2.9999999999539684e+00 -4.3916265594136322e-11 0.0000000000000000e+00  3.0000000000925438e+00 9.0442548648802911e-11 0.0000000000000000e+00  2.9999999998159139e+00 -1.8311640363959247e-10 0.0000000000000000e+00  3.0000000003634333e+00 3.6846343933529013e-10 0.0000000000000000e+00  2.9999999992878141e+00 -7.3923002914581274e-10 0.0000000000000000e+00  3.0000000013832673e+00 1.4758921649656356e-09 0.0000000000000000e+00  2.9999999973412752e+00 -2.9222589927975993e-09 0.0000000000000000e+00  3.0000000050512470e+00 5.7217524658122220e-09 0.0000000000000000e+00  2.9999999905211450e+00 -1.1059050531208204e-08 0.0000000000000000e+00  3.0000000175587789e+00 2.1079523854495371e-08 0.0000000000000000e+00  2.9999999679092060e+00 -3.9602103558182850e-08 0.0000000000000000e+00  3.0000000578362274e+00 7.3307540952969025e-08 0.0000000000000000e+00  2.9999998972514059e+00 -1.3368142542362243e-07 0.0000000000000000e+00  3.0000001798752085e+00 2.4011956011851357e-07 0.0000000000000000e+00  2.9999996897821486e+00 -4.2475092798702194e-07 0.0000000000000000e+00  3.0000005269052412e+00 7.3966931572709007e-07 0.0000000000000000e+00  2.9999991189260027e+00 -1.2673708904518529e-06 0.0000000000000000e+00  3.0000014498907781e+00 2.1352305662504694e-06 0.0000000000000000e+00  2.9999976528463796e+00 -3.5349242999109505e-06 0.0000000000000000e+00  3.0000037369864145e+00 5.7476326140274013e-06 0.0000000000000000e+00  2.9999941489352260e+00 -9.1762050408185489e-06 0.0000000000000000e+00  3.0000090100276040e+00 1.4384668132235184e-05 0.0000000000000000e+00  2.9999863510362235e+00 -2.2146751831066788e-05 0.0000000000000000e+00  3.0000203477492762e+00 3.3500195630583525e-05 0.0000000000000000e+00  2.9999701361909308e+00 -4.9811632106996121e-05 0.0000000000000000e+00  3.0000431708012090e+00 7.2836824563083183e-05 0.0000000000000000e+00  2.9999385046708831e+00 -1.0480555293150458e-04 0.0000000000000000e+00  3.0000863702104454e+00 1.4847536378668691e-04 0.0000000000000000e+00  2.9998803255736552e+00 -2.0728057469579316e-04 0.0000000000000000e+00  3.0001637227369753e+00 2.8534245582457801e-04 0.0000000000000000e+00  2.9997787184496811e+00 -3.8778014975365647e-04 0.0000000000000000e+00  3.0002957163301178e+00 5.2045457740016463e-04 0.0000000000000000e+00  2.9996091296951506e+00 -6.9066716466664594e-04 0.0000000000000000e+00  3.0005113797821750e+00 9.0607946787064724e-04 0.0000000000000000e+00  2.9993377503489671e+00 -1.1767573602836678e-03 0.0000000000000000e+00  3.0008497906127083e+00 1.5121192862752892e-03 0.0000000000000000e+00  2.9989195939190689e+00 -1.9267226462470017e-03 0.0000000000000000e+00  3.0013628496888876e+00 2.4314557013258489e-03 0.0000000000000000e+00  2.9982955698572789e+00 -3.0474373219688197e-03 0.0000000000000000e+00  3.0021160663688113e+00 3.7822237606603285e-03 0.0000000000000000e+00  2.9973969260825828e+00 -4.6639334547742611e-03 0.0000000000000000e+00  3.0031783167137811e+00 5.6872577756396639e-03 0.0000000000000000e+00  2.9961567209516269e+00 -6.8964128043405197e-03 0.0000000000000000e+00  3.0046174001828203e+00 8.2664386949848623e-03 0.0000000000000000e+00  2.9945043708280310e+00 -9.8769572816045648e-03 0.0000000000000000e+00  3.0065021422011169e+00 1.1651467256215594e-02 0.0000000000000000e+00  2.9923947946462395e+00 -1.3702385297937750e-02 0.0000000000000000e+00  3.0088223854231697e+00 1.5829765077758517e-02 0.0000000000000000e+00  2.9899143500593484e+00 -1.8211729383173898e-02 0.0000000000000000e+00  3.0114327170223940e+00 2.0518581520814313e-02 0.0000000000000000e+00  2.9872154404781650e+00 -2.3122099105765556e-02 0.0000000000000000e+00  3.0142046677571037e+00 2.5519988584068197e-02 0.0000000000000000e+00  2.9844556757359055e+00 -2.8222798732917366e-02 0.0000000000000000e+00  3.0167881806031192e+00 3.0285920764686183e-02 0.0000000000000000e+00  2.9823018810664155e+00 -3.2277652225342804e-02 0.0000000000000000e+00  3.0182571740408415e+00 3.3018191247373985e-02 0.0000000000000000e+00  2.9815864244181713e+00 -3.3578479054964500e-02 0.0000000000000000e+00  3.0182293122423141e+00 3.3011206974736571e-02 0.0000000000000000e+00  2.9822322419839913e+00 -3.2527468134245882e-02 0.0000000000000000e+00  3.0166794722908268e+00 3.0633899338406809e-02 0.0000000000000000e+00  2.9850547963213625e+00 -2.7820140483449871e-02 0.0000000000000000e+00  3.0120674010501776e+00 2.2618304918512296e-02 0.0000000000000000e+00  2.9912936523448361e+00 -1.6403669354795401e-02 0.0000000000000000e+00  3.0048944664203550e+00 9.3294614316165054e-03 0.0000000000000000e+00  2.9985273984255061e+00 -3.2025105789546221e-03 0.0000000000000000e+00  2.9979136318208783e+00 -2.6839553290008860e-03 0.0000000000000000e+00  3.0054308082984789e+00 8.6463558715406189e-03 0.0000000000000000e+00  2.9902787804293625e+00 -1.4326344953867297e-02 0.0000000000000000e+00  3.0118526193201438e+00 2.2537424795534829e-02 0.0000000000000000e+00  2.9818607276353752e+00 -2.1474159480542120e-02 0.0000000000000000e+00  3.0120560275157664e+00 3.8754962449177137e-02 0.0000000000000000e+00  2.9682160916229217e+00 -8.0409056698539996e-03 0.0000000000000000e+00  2.9949454694268405e+00 7.4564123935748627e-02 0.0000000000000000e+00  2.9333191487276622e+00 5.9033604186184342e-02 0.0000000000000000e+00  2.9356983346064891e+00 1.7006780308091868e-01 0.0000000000000000e+00  2.8471723960461195e+00 2.2732171867493770e-01 0.0000000000000000e+00  2.8135822345811059e+00 3.9990672537347155e-01 0.0000000000000000e+00  2.6781836147288618e+00 5.2232525070950608e-01 0.0000000000000000e+00  2.6135344095701112e+00 7.9579718232438257e-01 0.0000000000000000e+00  2.4392082401387278e+00 9.9736119293145331e-01 0.0000000000000000e+00  2.3363341747964248e+00 1.3066088261424438e+00 0.0000000000000000e+00  2.1563334973415542e+00 1.6035915163383905e+00 0.0000000000000000e+00  2.0273383900191746e+00 1.9842276324795181e+00 0.0000000000000000e+00  1.8710515580342522e+00 2.1741336737368999e+00 0.0000000000000000e+00  1.8190945590910752e+00 2.4714640574008451e+00 0.0000000000000000e+00  1.8141991168867055e+00 2.3353234603483748e+00 0.0000000000000000e+00  1.8616345885111114e+00 2.2917773117682083e+00 0.0000000000000000e+00  1.8339225403050918e+00 2.3732105374667332e+00 0.0000000000000000e+00  1.8232698731235275e+00 2.2968697719001003e+00 0.0000000000000000e+00  1.8721766114808156e+00 2.2883470382223909e+00 0.0000000000000000e+00  1.8029138383874497e+00 2.3472029685067435e+00 0.0000000000000000e+00  1.8707016224785744e+00 2.2513664964519853e+00 0.0000000000000000e+00  1.7941591376141532e+00 2.2974852189520010e+00 0.0000000000000000e+00  1.7920246241540980e+00 2.1492001681683672e+00 0.0000000000000000e+00  1.6477448246744528e+00 1.8909870023133708e+00 0.0000000000000000e+00  1.3569328255119510e+00 1.0245206063030439e+00 0.0000000000000000e+00  1.0776568528379415e+00 2.9836759881368524e-01 0.0000000000000000e+00  1.0191820872286030e+00 2.8014168314720960e-02 0.0000000000000000e+00  9.9957357798259394e-01 9.4819619467532285e-03 0.0000000000000000e+00  9.9940549305875837e-01 3.6781821730903332e-03 0.0000000000000000e+00  1.0011342426489687e+00 -4.3449548775002155e-03 0.0000000000000000e+00  9.9985633662779871e-01 1.6693573488141518e-03 0.0000000000000000e+00  9.9928918217190632e-01 1.3180771721143249e-03 0.0000000000000000e+00  1.0008319686679290e+00 -2.2194058743608379e-03 0.0000000000000000e+00  9.9957777480269372e-01 1.3595042389673833e-03 0.0000000000000000e+00  9.9997836623176273e-01 -1.1962157167511726e-04 0.0000000000000000e+00  1.0002139850196021e+00 -5.3193772772748712e-04 0.0000000000000000e+00  9.9982792659892372e-01 5.0609189951198775e-04 0.0000000000000000e+00  1.0000506155592197e+00 -1.9115127563917522e-04 0.0000000000000000e+00  1.0000315443787258e+00 -5.6998924070132966e-05 0.0000000000000000e+00  9.9995281608704834e-01 1.2604300961521764e-04 0.0000000000000000e+00  1.0000258438519238e+00 -7.9542059879992503e-05 0.0000000000000000e+00  9.9999766542409663e-01 1.4564739730446693e-05 0.0000000000000000e+00  9.9999195316217326e-01 1.8840440801466518e-05 0.0000000000000000e+00  1.0000072441049632e+00 -2.0306477049918115e-05 0.0000000000000000e+00  9.9999727294824303e-01 8.9721887804237119e-06 0.0000000000000000e+00  9.9999951384645158e-01 3.3606389064946594e-07 0.0000000000000000e+00  1.0000013376377157e+00 -3.4196802514599826e-06 0.0000000000000000e+00  9.9999914488196806e-01 2.4941519900709889e-06 0.0000000000000000e+00  1.0000001938939820e+00 -7.2736075355019645e-07 0.0000000000000000e+00  1.0000001400363210e+00 -2.8619264166748049e-07 0.0000000000000000e+00  9.9999983166231599e-01 4.5199112781043713e-07 0.0000000000000000e+00  1.0000000791255736e+00 -2.4099267396266337e-07 0.0000000000000000e+00  9.9999999603492462e-01 3.1494322290631345e-08 0.0000000000000000e+00  9.9999997738795421e-01 5.4457631180498905e-08 0.0000000000000000e+00  1.0000000181677933e+00 -5.0708934875627059e-08 0.0000000000000000e+00  9.9999999345561852e-01 2.0903519200282792e-08 0.0000000000000000e+00  9.9999999943026641e-01 -3.0368853844431229e-10 0.0000000000000000e+00  1.0000000022094493e+00 -5.6058641454338451e-09 0.0000000000000000e+00  9.9999999870985901e-01 3.7713498738856444e-09 0.0000000000000000e+00  1.0000000001852771e+00 -8.1258015554370578e-10 0.0000000000000000e+00  1.0000000002984757e+00 -6.6546912396269288e-10 0.0000000000000000e+00  9.9999999970261100e-01 7.9123598026760175e-10 0.0000000000000000e+00  1.0000000001435492e+00 -4.1749728581512338e-10 0.0000000000000000e+00  9.9999999997207445e-01 9.8368987104704660e-11 0.0000000000000000e+00  9.9999999998604538e-01 3.0869003273664956e-11 0.0000000000000000e+00  1.0000000000133995e+00 -3.8342529227103503e-11 0.0000000000000000e+00  9.9999999999697808e-01 1.1846491691811323e-11 0.0000000000000000e+00  9.9999999999701872e-01 5.9111415035855746e-12 0.0000000000000000e+00  1.0000000000036675e+00 -9.3228724314502086e-12 0.0000000000000000e+00  9.9999999999784350e-01 5.9383584416578101e-12 0.0000000000000000e+00  1.0000000000007430e+00 -2.2010215309231123e-12 0.0000000000000000e+00  9.9999999999992673e-01 2.8141723062716056e-13 0.0000000000000000e+00  9.9999999999993539e-01 1.8445726155863248e-13 0.0000000000000000e+00  1.0000000000000167e+00 -7.8385027196336902e-14 0.0000000000000000e+00  1.0000000000000324e+00 -6.2499882625757130e-14 0.0000000000000000e+00  9.9999999999995948e-01 1.0026949028272796e-13 0.0000000000000000e+00  1.0000000000000278e+00 -7.2824742290255505e-14 0.0000000000000000e+00  9.9999999999998768e-01 3.2989732083515888e-14 0.0000000000000000e+00  1.0000000000000044e+00 -1.2112463664723874e-14 0.0000000000000000e+00  9.9999999999999911e-01 2.9018419731027342e-15 0.0000000000000000e+00  1.0000000000000007e+00 -4.6542599059703270e-16 0.0000000000000000e+00  9.9999999999999956e-01 1.9872429516768341e-15 0.0000000000000000e+00  1.0000000000000007e+00 -1.7206445604750097e-15 0.0000000000000000e+00  9.9999999999999956e-01 9.8097186240862338e-16 0.0000000000000000e+00  1.0000000000000000e+00 4.4268670045938393e-16 0.0000000000000000e+00  1.0000000000000002e+00 -3.9560309779737294e-16 0.0000000000000000e+00  1.0000000000000004e+00 1.7562484564173164e-15 0.0000000000000000e+00  1.0000000000000002e+00 -1.0577724633552688e-15 0.0000000000000000e+00  1.0000000000000002e+00 1.2292072981126363e-15 0.0000000000000000e+00  1.0000000000000000e+00 -4.7917418936327949e-16 0.0000000000000000e+00  1.0000000000000002e+00 -4.8659794047719235e-16 0.0000000000000000e+00  9.9999999999999967e-01 -8.6944239622127565e-16 0.0000000000000000e+00  1.0000000000000002e+00 4.6016466968022213e-16 0.0000000000000000e+00  1.0000000000000007e+00 -6.4385838964169087e-17 0.0000000000000000e+00  1.0000000000000000e+00 -3.9414834750646068e-16 0.0000000000000000e+00  1.0000000000000009e+00 -5.8244990491716689e-16 0.0000000000000000e+00  1.0000000000000002e+00 9.1019895989769427e-16 0.0000000000000000e+00  1.0000000000000004e+00 -1.2036347597018194e-15 0.0000000000000000e+00  1.0000000000000002e+00 5.8656166679767063e-16 0.0000000000000000e+00  1.0000000000000004e+00 -1.2471044168377506e-15 0.0000000000000000e+00  1.0000000000000004e+00 1.5157078724995526e-15 0.0000000000000000e+00  1.0000000000000007e+00 -1.0910082507668088e-15 0.0000000000000000e+00  1.0000000000000002e+00 -2.4521116204431862e-16 0.0000000000000000e+00  1.0000000000000002e+00 -6.0805922039172279e-16 0.0000000000000000e+00  1.0000000000000004e+00 -4.3367040350843194e-17 0.0000000000000000e+00  1.0000000000000004e+00 -4.0488957558819681e-16 0.0000000000000000e+00  1.0000000000000004e+00 1.8251835818326883e-15 0.0000000000000000e+00  1.0000000000000004e+00 2.3481912613587090e-16 0.0000000000000000e+00  1.0000000000000000e+00 5.6065230573133424e-16 0.0000000000000000e+00  1.0000000000000004e+00 -1.7177183974763250e-15 0.0000000000000000e+00  1.0000000000000000e+00 2.3996841772535220e-15 0.0000000000000000e+00  1.0000000000000002e+00 -1.9606473449102141e-16 0.0000000000000000e+00  9.9999999999999967e-01 7.4688519347494044e-16 0.0000000000000000e+00  1.0000000000000004e+00 -8.4510342972955269e-16 0.0000000000000000e+00  1.0000000000000000e+00 0.0000000000000000e+00 0.0000000000000000e+00  3.0000000000000226e+00 0.0000000000000000e+00 1.2233812169454695e-14  2.9999999999999774e+00 -4.2714536672805335e-15 -2.8822708179420454e-15  3.0000000000000244e+00 2.6192086092891316e-14 -5.6524691442027325e-16  2.9999999999999769e+00 -4.3326005593580701e-14 -3.1911891073144917e-15  3.0000000000000195e+00 4.9462313675145392e-14 1.3049066259917516e-14  2.9999999999999933e+00 -4.2496949221708104e-14 -3.8405880308322575e-14  2.9999999999999889e+00 3.6704739799493857e-14 9.4569491724821547e-14  3.0000000000000329e+00 -6.0063153239079436e-14 -1.9931536168209538e-13  2.9999999999999423e+00 1.5287573222818435e-13 3.9855059248493751e-13  3.0000000000001248e+00 -3.4379729952676360e-13 -7.9535722191798105e-13  2.9999999999996736e+00 6.2215919571156430e-13 1.6471887450868891e-12  3.0000000000008589e+00 -9.6488828283382364e-13 -3.5093325875483325e-12  2.9999999999979710e+00 1.4374128878978748e-12 7.5028102068407256e-12  3.0000000000043454e+00 -2.3891798445151577e-12 -1.5787361316447856e-11  2.9999999999913061e+00 4.7151055719758410e-12 3.2487159969676507e-11  3.0000000000168443e+00 -1.0102405654914070e-11 -6.5562569720532973e-11  2.9999999999676259e+00 2.1338847173240463e-11 1.3051094620480334e-10  3.0000000000623213e+00 -4.2962023476810587e-11 -2.5744848479853034e-10  2.9999999998801967e+00 8.2870453527435462e-11 5.0411649343848299e-10  3.0000000002283702e+00 -1.5581621608009765e-10 -9.7912492943129437e-10  2.9999999995707154e+00 2.8985766807607078e-10 1.8826959026881079e-09  3.0000000007938641e+00 -5.3742994477682971e-10 -3.5772073482630227e-09  2.9999999985564494e+00 9.9405322908011665e-10 6.7077531449711235e-09  3.0000000025809856e+00 -1.8307268735303732e-09 -1.2404817609122590e-08  2.9999999954643788e+00 3.3505367272721507e-09 2.2618033714030254e-08  3.0000000078282243e+00 -6.0854432032319578e-09 -4.0652644800171702e-08  2.9999999867410247e+00 1.0955868601725687e-08 7.2008876248974793e-08  3.0000000220218905e+00 -1.9527024874335854e-08 -1.2565706429904246e-07  2.9999999641612791e+00 3.4419636213515231e-08 2.1591293839438926e-07  3.0000000570837786e+00 -5.9977563296981027e-08 -3.6509927002235511e-07  2.9999999111630098e+00 1.0336281480955757e-07 6.0718238830187857e-07  3.0000001347632099e+00 -1.7632136895221532e-07 -9.9254916622373451e-07  2.9999998013077440e+00 2.9791481105261592e-07 1.5940457603656644e-06  3.0000002837680029e+00 -4.9849330615975395e-07 -2.5143453516442838e-06  2.9999996089270105e+00 8.2514649474355457e-07 3.8946624373749080e-06  3.0000005176036422e+00 -1.3487698328058027e-06 -5.9247785895146561e-06  2.9999993464795800e+00 2.1730866187736815e-06 8.8542943550243675e-06  3.0000007782743729e+00 -3.4458963617407173e-06 -1.3004943638132887e-05  2.9999991443146374e+00 5.3735943512008078e-06 1.8783853108985893e-05  3.0000008271831997e+00 -8.2382596056916374e-06 -2.6697799934116090e-05  2.9999993944388228e+00 1.2418213675787751e-05 3.7369131073395546e-05  3.0000000673196250e+00 -1.8405323009718403e-05 -5.1554778887556226e-05  3.0000009474502018e+00 2.6823975636376240e-05 7.0169881917848793e-05  2.9999973579788453e+00 -3.8435871731883239e-05 -9.4318548874186241e-05  3.0000052513316424e+00 5.4168031027743275e-05 1.2532836943323459e-04  2.9999909276341290e+00 -7.5116482760744619e-05 -1.6479526624163835e-04  3.0000144331814100e+00 1.0263994654964299e-04 2.1461937239420050e-04  2.9999782146950236e+00 -1.3832188971621439e-04 -2.7707508337468915e-04  3.0000315416633625e+00 1.8412401300011756e-04 3.5484109534094185e-04  2.9999557220559607e+00 -2.4204203094920369e-04 -4.5115405781345953e-04  3.0000602059444952e+00 3.1444367866648800e-04 5.6977330055649753e-04  2.9999200920444613e+00 -4.0326232805518782e-04 -7.1526689658604412e-04  3.0001031820774431e+00 5.1152951968111491e-04 8.9261235943915041e-04  2.9998686768827230e+00 -6.4167932883060265e-04 -1.1077442964116636e-03  3.0001639173897443e+00 7.9921000549620946e-04 1.3663908982135913e-03  2.9997963028704500e+00 -9.8662945309355653e-04 -1.6756803235093826e-03  3.0002477277811934e+00 1.2102704756144981e-03 2.0417033099504314e-03  2.9997012681711386e+00 -1.4659097538531722e-03 -2.4732498342270879e-03  3.0003477196407582e+00 1.7585842801572272e-03 2.9759335402832088e-03  2.9995981979548185e+00 -2.0780570714234773e-03 -3.5584303369501601e-03  3.0004502363298351e+00 2.4443785510968011e-03 4.2208111995108268e-03  2.9994857918559950e+00 -2.8487273251110389e-03 -4.9661710020855081e-03  3.0005736679319925e+00 3.3248653378841705e-03 5.7858185621489661e-03  2.9993513737604518e+00 -3.8199699716011826e-03 -6.6787531934415587e-03  3.0006830793344448e+00 4.3442970287098865e-03 7.6335562136605759e-03  2.9993005341889631e+00 -4.7841166397887894e-03 -8.6414055983405520e-03  3.0006473068317145e+00 5.2195956392007466e-03 9.6774746690374037e-03  2.9993858684284449e+00 -5.5838690588866438e-03 -1.0690468203020522e-02  3.0005801018289566e+00 6.0878512739062311e-03 1.1634404537113750e-02  2.9993998776043491e+00 -6.5406939918799265e-03 -1.2421642642909660e-02  3.0005559414613887e+00 6.9891340453583899e-03 1.3053502800454286e-02  2.9996420552361642e+00 -6.9489831625334864e-03 -1.3437025034723129e-02  2.9999967414777937e+00 6.5784431868800546e-03 1.3635855856834404e-02  3.0004969009356830e+00 -5.7699865069292247e-03 -1.3427364759759468e-02  2.9992644395668866e+00 5.2609170245771627e-03 1.2873639035851665e-02  3.0008649086453163e+00 -4.9170976077424090e-03 -1.1662611547356606e-02  2.9993193687259616e+00 4.8566720569188310e-03 1.0018900097535382e-02  3.0009312108179129e+00 -3.8841660736517098e-03 -7.8306597279358472e-03  2.9986627404244532e+00 2.1713629777053269e-03 5.4464180493633881e-03  3.0021064316103390e+00 6.0966637867067275e-04 -2.7707091868320139e-03  2.9975690873115730e+00 -2.4548760555546962e-03 -1.084