<?xml version="1.0"?>
<VTKFile type="UnstructuredGrid"  version="0.1"  >
<UnstructuredGrid>
<Piece  NumberOfPoints="8241" NumberOfCells="16000">
<Points>
<DataArray  type="Float64"  NumberOfComponents="3"  format="ascii">-5 -1 0  -4.95 -1 0  -4.9 -1 0  -4.85 -1 0  -4.8 -1 0  -4.75 -1 0  -4.7 -1 0  -4.65 -1 0  -4.6 -1 0  -4.55 -1 0  -4.5 -1 0  -4.45 -1 0  -4.4 -1 0  -4.35 -1 0  -4.3 -1 0  -4.25 -1 0  -4.2 -1 0  -4.15 -1 0  -4.1 -1 0  -4.05 -1 0  -4 -1 0  -3.95 -1 0  -3.9 -1 0  -3.85 -1 0  -3.8 -1 0  -3.75 -1 0  -3.7 -1 0  -3.65 -1 0  -3.6 -1 0  -3.55 -1 0  -3.5 -1 0  -3.45 -1 0  -3.4 -1 0  -3.35 -1 0  -3.3 -1 0  -3.25 -1 0  -3.2 -1 0  -3.15 -1 0  -3.1 -1 0  -3.05 -1 0  -3 -1 0  -2.95 -1 0  -2.9 -1 0  -2.85 -1 0  -2.8 -1 0  -2.75 -1 0  -2.7 -1 0  -2.65 -1 0  -2.6 -1 0  -2.55 -1 0  -2.5 -1 0  -2.45 -1 0  -2.4 -1 0  -2.35 -1 0  -2.3 -1 0  -2.25 -1 0  -2.2 -1 0  -2.15 -1 0  -2.1 -1 0  -2.05 -1 0  -2 -1 0  -1.95 -1 0  -1.9 -1 0  -1.85 -1 0  -1.8 -1 0  -1.75 -1 0  -1.7 -1 0  -1.65 -1 0  -1.6 -1 0  -1.55 -1 0  -1.5 -1 0  -1.45 -1 0  -1.4 -1 0  -1.35 -1 0  -1.3 -1 0  -1.25 -1 0  -1.2 -1 0  -1.15 -1 0  -1.1 -1 0  -1.05 -1 0  -1 -1 0  -0.9500000000000002 -1 0  -0.9000000000000004 -1 0  -0.8499999999999996 -1 0  -0.7999999999999998 -1 0  -0.75 -1 0  -0.7000000000000002 -1 0  -0.6500000000000004 -1 0  -0.5999999999999996 -1 0  -0.5499999999999998 -1 0  -0.5 -1 0  -0.4500000000000002 -1 0  -0.4000000000000004 -1 0  -0.3499999999999996 -1 0  -0.2999999999999998 -1 0  -0.25 -1 0  -0.2000000000000002 -1 0  -0.1500000000000004 -1 0  -0.09999999999999964 -1 0  -0.04999999999999982 -1 0  0 -1 0  0.04999999999999982 -1 0  0.09999999999999964 -1 0  0.1500000000000004 -1 0  0.2000000000000002 -1 0  0.25 -1 0  0.2999999999999998 -1 0  0.3499999999999996 -1 0  0.4000000000000004 -1 0  0.4500000000000002 -1 0  0.5 -1 0  0.5499999999999998 -1 0  0.5999999999999996 -1 0  0.6500000000000004 -1 0  0.7000000000000002 -1 0  0.75 -1 0  0.7999999999999998 -1 0  0.8499999999999996 -1 0  0.9000000000000004 -1 0  0.9500000000000002 -1 0  1 -1 0  1.05 -1 0  1.1 -1 0  1.15 -1 0  1.2 -1 0  1.25 -1 0  1.3 -1 0  1.35 -1 0  1.4 -1 0  1.45 -1 0  1.5 -1 0  1.55 -1 0  1.6 -1 0  1.65 -1 0  1.7 -1 0  1.75 -1 0  1.8 -1 0  1.85 -1 0  1.9 -1 0  1.95 -1 0  2 -1 0  2.05 -1 0  2.1 -1 0  2.15 -1 0  2.2 -1 0  2.25 -1 0  2.3 -1 0  2.35 -1 0  2.4 -1 0  2.45 -1 0  2.5 -1 0  2.55 -1 0  2.6 -1 0  2.65 -1 0  2.7 -1 0  2.75 -1 0  2.8 -1 0  2.85 -1 0  2.9 -1 0  2.95 -1 0  3 -1 0  3.050000000000001 -1 0  3.1 -1 0  3.15 -1 0  3.199999999999999 -1 0  3.25 -1 0  3.300000000000001 -1 0  3.35 -1 0  3.4 -1 0  3.449999999999999 -1 0  3.5 -1 0  3.550000000000001 -1 0  3.6 -1 0  3.65 -1 0  3.699999999999999 -1 0  3.75 -1 0  3.800000000000001 -1 0  3.85 -1 0  3.9 -1 0  3.949999999999999 -1 0  4 -1 0  4.050000000000001 -1 0  4.1 -1 0  4.15 -1 0  4.199999999999999 -1 0  4.25 -1 0  4.300000000000001 -1 0  4.35 -1 0  4.4 -1 0  4.449999999999999 -1 0  4.5 -1 0  4.550000000000001 -1 0  4.6 -1 0  4.65 -1 0  4.699999999999999 -1 0  4.75 -1 0  4.800000000000001 -1 0  4.85 -1 0  4.9 -1 0  4.949999999999999 -1 0  5 -1 0  -5 -0.95 0  -4.95 -0.95 0  -4.9 -0.95 0  -4.85 -0.95 0  -4.8 -0.95 0  -4.75 -0.95 0  -4.7 -0.95 0  -4.65 -0.95 0  -4.6 -0.95 0  -4.55 -0.95 0  -4.5 -0.95 0  -4.45 -0.95 0  -4.4 -0.95 0  -4.35 -0.95 0  -4.3 -0.95 0  -4.25 -0.95 0  -4.2 -0.95 0  -4.15 -0.95 0  -4.1 -0.95 0  -4.05 -0.95 0  -4 -0.95 0  -3.95 -0.95 0  -3.9 -0.95 0  -3.85 -0.95 0  -3.8 -0.95 0  -3.75 -0.95 0  -3.7 -0.95 0  -3.65 -0.95 0  -3.6 -0.95 0  -3.55 -0.95 0  -3.5 -0.95 0  -3.45 -0.95 0  -3.4 -0.95 0  -3.35 -0.95 0  -3.3 -0.95 0  -3.25 -0.95 0  -3.2 -0.95 0  -3.15 -0.95 0  -3.1 -0.95 0  -3.05 -0.95 0  -3 -0.95 0  -2.95 -0.95 0  -2.9 -0.95 0  -2.85 -0.95 0  -2.8 -0.95 0  -2.75 -0.95 0  -2.7 -0.95 0  -2.65 -0.95 0  -2.6 -0.95 0  -2.55 -0.95 0  -2.5 -0.95 0  -2.45 -0.95 0  -2.4 -0.95 0  -2.35 -0.95 0  -2.3 -0.95 0  -2.25 -0.95 0  -2.2 -0.95 0  -2.15 -0.95 0  -2.1 -0.95 0  -2.05 -0.95 0  -2 -0.95 0  -1.95 -0.95 0  -1.9 -0.95 0  -1.85 -0.95 0  -1.8 -0.95 0  -1.75 -0.95 0  -1.7 -0.95 0  -1.65 -0.95 0  -1.6 -0.95 0  -1.55 -0.95 0  -1.5 -0.95 0  -1.45 -0.95 0  -1.4 -0.95 0  -1.35 -0.95 0  -1.3 -0.95 0  -1.25 -0.95 0  -1.2 -0.95 0  -1.15 -0.95 0  -1.1 -0.95 0  -1.05 -0.95 0  -1 -0.95 0  -0.9500000000000002 -0.95 0  -0.9000000000000004 -0.95 0  -0.8499999999999996 -0.95 0  -0.7999999999999998 -0.95 0  -0.75 -0.95 0  -0.7000000000000002 -0.95 0  -0.6500000000000004 -0.95 0  -0.5999999999999996 -0.95 0  -0.5499999999999998 -0.95 0  -0.5 -0.95 0  -0.4500000000000002 -0.95 0  -0.4000000000000004 -0.95 0  -0.3499999999999996 -0.95 0  -0.2999999999999998 -0.95 0  -0.25 -0.95 0  -0.2000000000000002 -0.95 0  -0.1500000000000004 -0.95 0  -0.09999999999999964 -0.95 0  -0.04999999999999982 -0.95 0  0 -0.95 0  0.04999999999999982 -0.95 0  0.09999999999999964 -0.95 0  0.1500000000000004 -0.95 0  0.2000000000000002 -0.95 0  0.25 -0.95 0  0.2999999999999998 -0.95 0  0.3499999999999996 -0.95 0  0.4000000000000004 -0.95 0  0.4500000000000002 -0.95 0  0.5 -0.95 0  0.5499999999999998 -0.95 0  0.5999999999999996 -0.95 0  0.6500000000000004 -0.95 0  0.7000000000000002 -0.95 0  0.75 -0.95 0  0.7999999999999998 -0.95 0  0.8499999999999996 -0.95 0  0.9000000000000004 -0.95 0  0.9500000000000002 -0.95 0  1 -0.95 0  1.05 -0.95 0  1.1 -0.95 0  1.15 -0.95 0  1.2 -0.95 0  1.25 -0.95 0  1.3 -0.95 0  1.35 -0.95 0  1.4 -0.95 0  1.45 -0.95 0  1.5 -0.95 0  1.55 -0.95 0  1.6 -0.95 0  1.65 -0.95 0  1.7 -0.95 0  1.75 -0.95 0  1.8 -0.95 0  1.85 -0.95 0  1.9 -0.95 0  1.95 -0.95 0  2 -0.95 0  2.05 -0.95 0  2.1 -0.95 0  2.15 -0.95 0  2.2 -0.95 0  2.25 -0.95 0  2.3 -0.95 0  2.35 -0.95 0  2.4 -0.95 0  2.45 -0.95 0  2.5 -0.95 0  2.55 -0.95 0  2.6 -0.95 0  2.65 -0.95 0  2.7 -0.95 0  2.75 -0.95 0  2.8 -0.95 0  2.85 -0.95 0  2.9 -0.95 0  2.95 -0.95 0  3 -0.95 0  3.050000000000001 -0.95 0  3.1 -0.95 0  3.15 -0.95 0  3.199999999999999 -0.95 0  3.25 -0.95 0  3.300000000000001 -0.95 0  3.35 -0.95 0  3.4 -0.95 0  3.449999999999999 -0.95 0  3.5 -0.95 0  3.550000000000001 -0.95 0  3.6 -0.95 0  3.65 -0.95 0  3.699999999999999 -0.95 0  3.75 -0.95 0  3.800000000000001 -0.95 0  3.85 -0.95 0  3.9 -0.95 0  3.949999999999999 -0.95 0  4 -0.95 0  4.050000000000001 -0.95 0  4.1 -0.95 0  4.15 -0.95 0  4.199999999999999 -0.95 0  4.25 -0.95 0  4.300000000000001 -0.95 0  4.35 -0.95 0  4.4 -0.95 0  4.449999999999999 -0.95 0  4.5 -0.95 0  4.550000000000001 -0.95 0  4.6 -0.95 0  4.65 -0.95 0  4.699999999999999 -0.95 0  4.75 -0.95 0  4.800000000000001 -0.95 0  4.85 -0.95 0  4.9 -0.95 0  4.949999999999999 -0.95 0  5 -0.95 0  -5 -0.9 0  -4.95 -0.9 0  -4.9 -0.9 0  -4.85 -0.9 0  -4.8 -0.9 0  -4.75 -0.9 0  -4.7 -0.9 0  -4.65 -0.9 0  -4.6 -0.9 0  -4.55 -0.9 0  -4.5 -0.9 0  -4.45 -0.9 0  -4.4 -0.9 0  -4.35 -0.9 0  -4.3 -0.9 0  -4.25 -0.9 0  -4.2 -0.9 0  -4.15 -0.9 0  -4.1 -0.9 0  -4.05 -0.9 0  -4 -0.9 0  -3.95 -0.9 0  -3.9 -0.9 0  -3.85 -0.9 0  -3.8 -0.9 0  -3.75 -0.9 0  -3.7 -0.9 0  -3.65 -0.9 0  -3.6 -0.9 0  -3.55 -0.9 0  -3.5 -0.9 0  -3.45 -0.9 0  -3.4 -0.9 0  -3.35 -0.9 0  -3.3 -0.9 0  -3.25 -0.9 0  -3.2 -0.9 0  -3.15 -0.9 0  -3.1 -0.9 0  -3.05 -0.9 0  -3 -0.9 0  -2.95 -0.9 0  -2.9 -0.9 0  -2.85 -0.9 0  -2.8 -0.9 0  -2.75 -0.9 0  -2.7 -0.9 0  -2.65 -0.9 0  -2.6 -0.9 0  -2.55 -0.9 0  -2.5 -0.9 0  -2.45 -0.9 0  -2.4 -0.9 0  -2.35 -0.9 0  -2.3 -0.9 0  -2.25 -0.9 0  -2.2 -0.9 0  -2.15 -0.9 0  -2.1 -0.9 0  -2.05 -0.9 0  -2 -0.9 0  -1.95 -0.9 0  -1.9 -0.9 0  -1.85 -0.9 0  -1.8 -0.9 0  -1.75 -0.9 0  -1.7 -0.9 0  -1.65 -0.9 0  -1.6 -0.9 0  -1.55 -0.9 0  -1.5 -0.9 0  -1.45 -0.9 0  -1.4 -0.9 0  -1.35 -0.9 0  -1.3 -0.9 0  -1.25 -0.9 0  -1.2 -0.9 0  -1.15 -0.9 0  -1.1 -0.9 0  -1.05 -0.9 0  -1 -0.9 0  -0.9500000000000002 -0.9 0  -0.9000000000000004 -0.9 0  -0.8499999999999996 -0.9 0  -0.7999999999999998 -0.9 0  -0.75 -0.9 0  -0.7000000000000002 -0.9 0  -0.6500000000000004 -0.9 0  -0.5999999999999996 -0.9 0  -0.5499999999999998 -0.9 0  -0.5 -0.9 0  -0.4500000000000002 -0.9 0  -0.4000000000000004 -0.9 0  -0.3499999999999996 -0.9 0  -0.2999999999999998 -0.9 0  -0.25 -0.9 0  -0.2000000000000002 -0.9 0  -0.1500000000000004 -0.9 0  -0.09999999999999964 -0.9 0  -0.04999999999999982 -0.9 0  0 -0.9 0  0.04999999999999982 -0.9 0  0.09999999999999964 -0.9 0  0.1500000000000004 -0.9 0  0.2000000000000002 -0.9 0  0.25 -0.9 0  0.2999999999999998 -0.9 0  0.3499999999999996 -0.9 0  0.4000000000000004 -0.9 0  0.4500000000000002 -0.9 0  0.5 -0.9 0  0.5499999999999998 -0.9 0  0.5999999999999996 -0.9 0  0.6500000000000004 -0.9 0  0.7000000000000002 -0.9 0  0.75 -0.9 0  0.7999999999999998 -0.9 0  0.8499999999999996 -0.9 0  0.9000000000000004 -0.9 0  0.9500000000000002 -0.9 0  1 -0.9 0  1.05 -0.9 0  1.1 -0.9 0  1.15 -0.9 0  1.2 -0.9 0  1.25 -0.9 0  1.3 -0.9 0  1.35 -0.9 0  1.4 -0.9 0  1.45 -0.9 0  1.5 -0.9 0  1.55 -0.9 0  1.6 -0.9 0  1.65 -0.9 0  1.7 -0.9 0  1.75 -0.9 0  1.8 -0.9 0  1.85 -0.9 0  1.9 -0.9 0  1.95 -0.9 0  2 -0.9 0  2.05 -0.9 0  2.1 -0.9 0  2.15 -0.9 0  2.2 -0.9 0  2.25 -0.9 0  2.3 -0.9 0  2.35 -0.9 0  2.4 -0.9 0  2.45 -0.9 0  2.5 -0.9 0  2.55 -0.9 0  2.6 -0.9 0  2.65 -0.9 0  2.7 -0.9 0  2.75 -0.9 0  2.8 -0.9 0  2.85 -0.9 0  2.9 -0.9 0  2.95 -0.9 0  3 -0.9 0  3.050000000000001 -0.9 0  3.1 -0.9 0  3.15 -0.9 0  3.199999999999999 -0.9 0  3.25 -0.9 0  3.300000000000001 -0.9 0  3.35 -0.9 0  3.4 -0.9 0  3.449999999999999 -0.9 0  3.5 -0.9 0  3.550000000000001 -0.9 0  3.6 -0.9 0  3.65 -0.9 0  3.699999999999999 -0.9 0  3.75 -0.9 0  3.800000000000001 -0.9 0  3.85 -0.9 0  3.9 -0.9 0  3.949999999999999 -0.9 0  4 -0.9 0  4.050000000000001 -0.9 0  4.1 -0.9 0  4.15 -0.9 0  4.199999999999999 -0.9 0  4.25 -0.9 0  4.300000000000001 -0.9 0  4.35 -0.9 0  4.4 -0.9 0  4.449999999999999 -0.9 0  4.5 -0.9 0  4.550000000000001 -0.9 0  4.6 -0.9 0  4.65 -0.9 0  4.699999999999999 -0.9 0  4.75 -0.9 0  4.800000000000001 -0.9 0  4.85 -0.9 0  4.9 -0.9 0  4.949999999999999 -0.9 0  5 -0.9 0  -5 -0.85 0  -4.95 -0.85 0  -4.9 -0.85 0  -4.85 -0.85 0  -4.8 -0.85 0  -4.75 -0.85 0  -4.7 -0.85 0  -4.65 -0.85 0  -4.6 -0.85 0  -4.55 -0.85 0  -4.5 -0.85 0  -
[...]
<PointData  Vectors="f_15"> 
<DataArray  type="Float64"  Name="f_15"  NumberOfComponents="3" format="ascii">2.7430718687588578e+00 0.0000000000000000e+00 0.0000000000000000e+00  2.7426409934019307e+00 4.2332933179604411e-02 0.0000000000000000e+00  2.7413204062908174e+00 8.4580045919361871e-02 0.0000000000000000e+00  2.7391322125887023e+00 1.2663630614044921e-01 0.0000000000000000e+00  2.7360668655210412e+00 1.6842023221780666e-01 0.0000000000000000e+00  2.7321421479800732e+00 2.0984320464984732e-01 0.0000000000000000e+00  2.7273432006345284e+00 2.5083450248619904e-01 0.0000000000000000e+00  2.7217125110523375e+00 2.9131414190293786e-01 0.0000000000000000e+00  2.7152266370584868e+00 3.3123503558967371e-01 0.0000000000000000e+00  2.7079345412734686e+00 3.7053673071357646e-01 0.0000000000000000e+00  2.6998326826007375e+00 4.0918892411197527e-01 0.0000000000000000e+00  2.6909710069227462e+00 4.4716447242503521e-01 0.0000000000000000e+00  2.6813493431779993e+00 4.8445413360693973e-01 0.0000000000000000e+00  2.6710448949960353e+00 5.2105512060578585e-01 0.0000000000000000e+00  2.6600523412010322e+00 5.5698964318775968e-01 0.0000000000000000e+00  2.6484580843771659e+00 5.9227871899893492e-01 0.0000000000000000e+00  2.6362767556525122e+00 6.2695646883487666e-01 0.0000000000000000e+00  2.6235883722762221e+00 6.6108297228505819e-01 0.0000000000000000e+00  2.6104116065054792e+00 6.9468703801450360e-01 0.0000000000000000e+00  2.5968409318196590e+00 7.2785071168176485e-01 0.0000000000000000e+00  2.5828805096215581e+00 7.6060890168657080e-01 0.0000000000000000e+00  2.5686252043397699e+00 7.9304581059175239e-01 0.0000000000000000e+00  2.5540856708967046e+00 8.2517919963631980e-01 0.0000000000000000e+00  2.5393351641168795e+00 8.5712404353219696e-01 0.0000000000000000e+00  2.5243845907297455e+00 8.8884391416981900e-01 0.0000000000000000e+00  2.5093050979734302e+00 9.2047773699571167e-01 0.0000000000000000e+00  2.4940867712883188e+00 9.5196845804459318e-01 0.0000000000000000e+00  2.4787988784185275e+00 9.8343787771409463e-01 0.0000000000000000e+00  2.4634311269643905e+00 1.0148096603222321e+00 0.0000000000000000e+00  2.4480273990488706e+00 1.0462347850736649e+00 0.0000000000000000e+00  2.4325864857401376e+00 1.0775641860272354e+00 0.0000000000000000e+00  2.4171435231865273e+00 1.1089885121903365e+00 0.0000000000000000e+00  2.4016825485275923e+00 1.1403464168968469e+00 0.0000000000000000e+00  2.3862442092167906e+00 1.1717907102542680e+00 0.0000000000000000e+00  2.3708123325096682e+00 1.2031769369649961e+00 0.0000000000000000e+00  2.3554062962784106e+00 1.2346796410508674e+00 0.0000000000000000e+00  2.3400280870831018e+00 1.2660893868971190e+00 0.0000000000000000e+00  2.3246887369803728e+00 1.2976090257891899e+00 0.0000000000000000e+00  2.3093775073003484e+00 1.3290889085883999e+00 0.0000000000000000e+00  2.2941205314606616e+00 1.3605844056878269e+00 0.0000000000000000e+00  2.2789021927954884e+00 1.3920864100816432e+00 0.0000000000000000e+00  2.2637365389152166e+00 1.4236068193728104e+00 0.0000000000000000e+00  2.2486205758249542e+00 1.4550672174240882e+00 0.0000000000000000e+00  2.2335707799995301e+00 1.4865688625636018e+00 0.0000000000000000e+00  2.2185639109509858e+00 1.5180256090838880e+00 0.0000000000000000e+00  2.2036381955182445e+00 1.5494498913763770e+00 0.0000000000000000e+00  2.1887649720901465e+00 1.5808424427950820e+00 0.0000000000000000e+00  2.1739702940476198e+00 1.6122209524848137e+00 0.0000000000000000e+00  2.1592416738041194e+00 1.6435116564056360e+00 0.0000000000000000e+00  2.1446016882974637e+00 1.6747385149031322e+00 0.0000000000000000e+00  2.1300299205531488e+00 1.7059735149355544e+00 0.0000000000000000e+00  2.1155586729969884e+00 1.7370027334468916e+00 0.0000000000000000e+00  2.1011700295519251e+00 1.7680610145043372e+00 0.0000000000000000e+00  2.0868885529228978e+00 1.7989162962367788e+00 0.0000000000000000e+00  2.0727023841343062e+00 1.8297340096803545e+00 0.0000000000000000e+00  2.0586460601780745e+00 1.8602966636359963e+00 0.0000000000000000e+00  2.0446977739867775e+00 1.8908381339108606e+00 0.0000000000000000e+00  2.0308959032915430e+00 1.9210254047506772e+00 0.0000000000000000e+00  2.0172414530802429e+00 1.9511213377615741e+00 0.0000000000000000e+00  2.0037525289413662e+00 1.9808644344622863e+00 0.0000000000000000e+00  1.9904451868756079e+00 2.0103509850408923e+00 0.0000000000000000e+00  1.9773625332226277e+00 2.0393989481524719e+00 0.0000000000000000e+00  1.9645080367311205e+00 2.0680922277206633e+00 0.0000000000000000e+00  1.9519428898984537e+00 2.0961582492691297e+00 0.0000000000000000e+00  1.9397105814062972e+00 2.1236277057034143e+00 0.0000000000000000e+00  1.9278697702112220e+00 2.1502717678321428e+00 0.0000000000000000e+00  1.9164985011959428e+00 2.1759315679518418e+00 0.0000000000000000e+00  1.9057050211722211e+00 2.2003863049111643e+00 0.0000000000000000e+00  1.8955994586657816e+00 2.2233133988434441e+00 0.0000000000000000e+00  1.8863332435644600e+00 2.2444153313959898e+00 0.0000000000000000e+00  1.8780604030095549e+00 2.2632652976490983e+00 0.0000000000000000e+00  1.8709556538109107e+00 2.2795362395088175e+00 0.0000000000000000e+00  1.8651232458023095e+00 2.2928483820516199e+00 0.0000000000000000e+00  1.8606222306188414e+00 2.3032012846531709e+00 0.0000000000000000e+00  1.8573966186449853e+00 2.3105556863096539e+00 0.0000000000000000e+00  1.8552465470436219e+00 2.3155291893876719e+00 0.0000000000000000e+00  1.8538798968279668e+00 2.3186150860048067e+00 0.0000000000000000e+00  1.8530654001889704e+00 2.3205382532863292e+00 0.0000000000000000e+00  1.8525054979137596e+00 2.3217560320025088e+00 0.0000000000000000e+00  1.8521027100862264e+00 2.3227428365346729e+00 0.0000000000000000e+00  1.8517695947887993e+00 2.3234252713853754e+00 0.0000000000000000e+00  1.8514792211100872e+00 2.3241722446450557e+00 0.0000000000000000e+00  1.8511799550947885e+00 2.3247546793123437e+00 0.0000000000000000e+00  1.8509488306443389e+00 2.3253786530047349e+00 0.0000000000000000e+00  1.8506852353979280e+00 2.3258733833109955e+00 0.0000000000000000e+00  1.8504740846562679e+00 2.3264510528740945e+00 0.0000000000000000e+00  1.8502590396165923e+00 2.3268309944829979e+00 0.0000000000000000e+00  1.8500851165582257e+00 2.3273309187696283e+00 0.0000000000000000e+00  1.8498863767226374e+00 2.3276615608759941e+00 0.0000000000000000e+00  1.8497481492733905e+00 2.3280792202916909e+00 0.0000000000000000e+00  1.8495795747484802e+00 2.3283496821348710e+00 0.0000000000000000e+00  1.8494602829632967e+00 2.3287136460202005e+00 0.0000000000000000e+00  1.8493273416739759e+00 2.3289039117576964e+00 0.0000000000000000e+00  1.8492379198151276e+00 2.3292059677977290e+00 0.0000000000000000e+00  1.8491194212235107e+00 2.3293573469582411e+00 0.0000000000000000e+00  1.8490473875225164e+00 2.3296146358445289e+00 0.0000000000000000e+00  1.8489558776945743e+00 2.3297193789107098e+00 0.0000000000000000e+00  1.8488950182440618e+00 2.3299393296836284e+00 0.0000000000000000e+00  1.8488157954743174e+00 2.3300134986721788e+00 0.0000000000000000e+00  1.8487789669557486e+00 2.3301875213131851e+00 0.0000000000000000e+00  1.8487054553561495e+00 2.3302447456871986e+00 0.0000000000000000e+00  1.8486727178787281e+00 2.3303998304576687e+00 0.0000000000000000e+00  1.8486216515248197e+00 2.3304220550572547e+00 0.0000000000000000e+00  1.8485904136449143e+00 2.3305636250967878e+00 0.0000000000000000e+00  1.8485384545441097e+00 2.3305790034195466e+00 0.0000000000000000e+00  1.8485341274164848e+00 2.3306743331775621e+00 0.0000000000000000e+00  1.8484783415560060e+00 2.3306939580694968e+00 0.0000000000000000e+00  1.8484684131505116e+00 2.3307904035023070e+00 0.0000000000000000e+00  1.8484327166548304e+00 2.3307796184787422e+00 0.0000000000000000e+00  1.8484249608669299e+00 2.3308622435977493e+00 0.0000000000000000e+00  1.8483833830143335e+00 2.3308573367338385e+00 0.0000000000000000e+00  1.8483943567349399e+00 2.3309093302698032e+00 0.0000000000000000e+00  1.8483445216059569e+00 2.3309229186213973e+00 0.0000000000000000e+00  1.8483511647128537e+00 2.3309702484889248e+00 0.0000000000000000e+00  1.8483262510525551e+00 2.3309386453439971e+00 0.0000000000000000e+00  1.8483237053919723e+00 2.3310040417901119e+00 0.0000000000000000e+00  1.8482888968850961e+00 2.3309856994147227e+00 0.0000000000000000e+00  1.8483017891806084e+00 2.3310251972847555e+00 0.0000000000000000e+00  1.8482707869707804e+00 2.3310005631053312e+00 0.0000000000000000e+00  1.8482758407196489e+00 2.3310465570934924e+00 0.0000000000000000e+00  1.8482495079273347e+00 2.3310137972042302e+00 0.0000000000000000e+00  1.8482545573811497e+00 2.3310602548822943e+00 0.0000000000000000e+00  1.8482310830943962e+00 2.3310176829483411e+00 0.0000000000000000e+00  1.8482389287260796e+00 2.3310574532237354e+00 0.0000000000000000e+00  1.8482109585390241e+00 2.3310329925638142e+00 0.0000000000000000e+00  1.8482222976398193e+00 2.3310588751593957e+00 0.0000000000000000e+00  1.8481913077618786e+00 2.3310282571126888e+00 0.0000000000000000e+00  1.8482128511844098e+00 2.3310413922684647e+00 0.0000000000000000e+00  1.8481765195661497e+00 2.3310158979918056e+00 0.0000000000000000e+00  1.8481883171891105e+00 2.3310492186161285e+00 0.0000000000000000e+00  1.8481651169781013e+00 2.3309981261876045e+00 0.0000000000000000e+00  1.8481898464214843e+00 2.3310166643540557e+00 0.0000000000000000e+00  1.8481291182584141e+00 2.3310241206564868e+00 0.0000000000000000e+00  1.8481806352896000e+00 2.3309861519358281e+00 0.0000000000000000e+00  1.8481320608765530e+00 2.3309647608696866e+00 0.0000000000000000e+00  1.8481517163652670e+00 2.3309794181146875e+00 0.0000000000000000e+00  1.8481149760729918e+00 2.3309342419346137e+00 0.0000000000000000e+00  1.8481558590666456e+00 2.3309149481489597e+00 0.0000000000000000e+00  1.8480925066777778e+00 2.3309242607320750e+00 0.0000000000000000e+00  1.8481348119129488e+00 2.3308974340641586e+00 0.0000000000000000e+00  1.8480967755134863e+00 2.3308608731307143e+00 0.0000000000000000e+00  1.8481101792006192e+00 2.3308596531098722e+00 0.0000000000000000e+00  1.8480861215921256e+00 2.3307690049242473e+00 0.0000000000000000e+00  1.8480997379982902e+00 2.3307365844764738e+00 0.0000000000000000e+00  1.8480724135900797e+00 2.3306028331584292e+00 0.0000000000000000e+00  1.8480846381038143e+00 2.3305207364251355e+00 0.0000000000000000e+00  1.8480645109637335e+00 2.3303387609863493e+00 0.0000000000000000e+00  1.8480643501523915e+00 2.3302188798179633e+00 0.0000000000000000e+00  1.8480584678461656e+00 2.3299345391179811e+00 0.0000000000000000e+00  1.8480488123093790e+00 2.3298009325022480e+00 0.0000000000000000e+00  1.8480401741021304e+00 2.3294369943172004e+00 0.0000000000000000e+00  1.8480431104717792e+00 2.3292205242162858e+00 0.0000000000000000e+00  1.8480214226923684e+00 2.3288519579797131e+00 0.0000000000000000e+00  1.8480293394345737e+00 2.3286099343270235e+00 0.0000000000000000e+00  1.8480056272188738e+00 2.3282079357059211e+00 0.0000000000000000e+00  1.8480197906040445e+00 2.3280297877962530e+00 0.0000000000000000e+00  1.8479829651161015e+00 2.3276512712070616e+00 0.0000000000000000e+00  1.8480074722823012e+00 2.3275399375309691e+00 0.0000000000000000e+00  1.8479632209279426e+00 2.3271902314549902e+00 0.0000000000000000e+00  1.8480002846890153e+00 2.3272028023514504e+00 0.0000000000000000e+00  1.8479241390567847e+00 2.3268494799400412e+00 0.0000000000000000e+00  1.8480060744215892e+00 2.3269662121278105e+00 0.0000000000000000e+00  1.8478889988658249e+00 2.3266035332181851e+00 0.0000000000000000e+00  1.8479970025063772e+00 2.3268533268400837e+00 0.0000000000000000e+00  1.8478552793424017e+00 2.3263807809603776e+00 0.0000000000000000e+00  1.8480125735615309e+00 2.3268188631230604e+00 0.0000000000000000e+00  1.8477939263647551e+00 2.3262029562169526e+00 0.0000000000000000e+00  1.8480350187587735e+00 2.3268142540348324e+00 0.0000000000000000e+00  1.8477600457751122e+00 2.3260478849783301e+00 0.0000000000000000e+00  1.8480325154525188e+00 2.3268248387000559e+00 0.0000000000000000e+00  1.8477276037612793e+00 2.3259277147335529e+00 0.0000000000000000e+00  1.8480565577674226e+00 2.3268254675538240e+00 0.0000000000000000e+00  1.8476826425857580e+00 2.3258104371751229e+00 0.0000000000000000e+00  1.8480393054249740e+00 2.3267961762286018e+00 0.0000000000000000e+00  1.8477460328149413e+00 2.3258592480919060e+00 0.0000000000000000e+00  1.8478817502831384e+00 2.3264245443484191e+00 0.0000000000000000e+00  1.8479476139501121e+00 2.3263654769964526e+00 0.0000000000000000e+00  1.8476217556721242e+00 2.3257085427141919e+00 0.0000000000000000e+00  1.8482234681522325e+00 2.3270186137358473e+00 0.0000000000000000e+00  1.8472642288049475e+00 2.3249485570837836e+00 0.0000000000000000e+00  1.8486603834533335e+00 2.3279504565427200e+00 0.0000000000000000e+00  1.8466039281974740e+00 2.3233377144711556e+00 0.0000000000000000e+00  1.8495252911537416e+00 2.3302725563852404e+00 0.0000000000000000e+00  1.8454279464566345e+00 2.3201542350824909e+00 0.0000000000000000e+00  1.8507865555703515e+00 2.3335847310889331e+00 0.0000000000000000e+00  1.8442111770463883e+00 2.3172075603558491e+00 0.0000000000000000e+00  1.8514856476915940e+00 2.3351413923584676e+00 0.0000000000000000e+00  1.8440942889907403e+00 2.3169867476661561e+00 0.0000000000000000e+00  1.8509749282864010e+00 2.3344425511044911e+00 0.0000000000000000e+00  1.8446396151206006e+00 2.3171134908228166e+00 0.0000000000000000e+00  1.8506232630771873e+00 2.3355004228323000e+00 0.0000000000000000e+00  1.8446946929516668e+00 2.3155226149498902e+00 0.0000000000000000e+00  1.8499648950445431e+00 2.3348592836031865e+00 0.0000000000000000e+00  1.8467519295834027e+00 2.3209767395746224e+00 0.0000000000000000e+00  1.8462751225413299e+00 2.3215636266682269e+00 0.0000000000000000e+00  1.8378776278960267e+00 2.3722687940482516e+00 0.0000000000000000e+00  1.9228986621887936e+00 2.1184044871384491e+00 0.0000000000000000e+00  2.4369320161476096e+00 1.0676220097871953e+00 0.0000000000000000e+00  2.7927040537845551e+00 2.4911191413651165e-01 0.0000000000000000e+00  2.9408807930584002e+00 9.0695834499328817e-02 0.0000000000000000e+00  2.9147378761954541e+00 0.0000000000000000e+00 0.0000000000000000e+00  2.7430757294429666e+00 0.0000000000000000e+00 -7.2368902334166120e-06  2.7426378508563269e+00 4.2339788669647660e-02 2.9104725773049118e-06  2.7413185087879883e+00 8.4581218042658501e-02 -4.4133810712506553e-06  2.7391304143303232e+00 1.2664054006566672e-01 3.3061776961400910e-06  2.7360669217653233e+00 1.6842028519884253e-01 -3.4425230032019265e-06  2.7321338598039295e+00 2.0984865692640489e-01 2.8637252020846689e-06  2.7273468809930863e+00 2.5083270969154670e-01 -2.4974835138269519e-06  2.7217049996636824e+00 2.9131889537445743e-01 2.2324390478398513e-06  2.7152257969614615e+00 3.3123475619572484e-01 -1.5331179087870500e-06  2.7079302955992532e+00 3.7053829090336443e-01 1.4116674109769497e-06  2.6998336250677308e+00 4.0918961180515617e-01 -3.6301272823531286e-07  2.6909619052958833e+00 4.4716589150408304e-01 5.1041487141919000e-07  2.6813548897716482e+00 4.8445267196183506e-01 3.5229248806366783e-07  2.6710366382219619e+00 5.2105669251020836e-01 2.7522577372662115e-07  2.6600540793434861e+00 5.5698968329470833e-01 4.0629384740971402e-07  2.6484544858636152e+00 5.9227565432741736e-01 1.1425672513745343e-07  2.6362791485030987e+00 6.2696069594460369e-01 6.0222706958163134e-07  2.6235813997621040e+00 6.6107822510174108e-01 -8.3715357650785859e-08  2.6104191020687844e+00 6.9468968438330936e-01 1.7551747769092560e-07  2.5968339316484581e+00 7.2784895169703701e-01 7.1671623652065874e-07  2.5828852292789755e+00 7.6061273595700574e-01 -9.8622453960692341e-07  2.5686235704191485e+00 7.9303848025828982e-01 1.4679026067681969e-06  2.5540891083541668e+00 8.2519305520281239e-01 -1.3446791690841082e-06  2.5393317452975901e+00 8.5711124754898249e-01 1.5326151064085603e-06  2.5243926332603164e+00 8.8885766591581805e-01 -1.5815950235556255e-06  2.5092996710771618e+00 9.2047165943668641e-01 2.0622333846564259e-06  2.4940928762306744e+00 9.5198004112856782e-01 -1.9645786607027535e-06  2.4787983167397938e+00 9.8342553125345700e-01 2.1185799430238068e-06  2.4634328626821294e+00 1.0148362340474855e+00 -1.5794231365094089e-06  2.4480264683178712e+00 1.0462108333265017e+00 1.9770616429733599e-06  2.4325915066492150e+00 1.0775896013243773e+00 -1.8308173811286979e-06  2.4171380390528689e+00 1.1089768079317299e+00 2.8823841166887332e-06  2.4016867826542154e+00 1.1403602663331898e+00 -3.2644212542734106e-06  2.3862427911222381e+00 1.1717736084495374e+00 5.2157314299810025e-06  2.3708103492787544e+00 1.2032074761984244e+00 -6.7852738979090109e-06  2.3554052792996827e+00 1.2346475057738531e+00 1.0294793853229157e-05  2.3400302255957901e+00 1.2661062108937868e+00 -1.4300082413749226e-05  2.3246807347955065e+00 1.2976119666927743e+00 2.1709101000115015e-05  2.3093816085311585e+00 1.3290622831587950e+00 -3.0971757363731956e-05  2.2941151532918593e+00 1.3606006258121301e+00 4.2375621432141450e-05  2.2789019427347053e+00 1.3920698686129360e+00 -5.1303444011813759e-05  2.2637301946264281e+00 1.4236010823241396e+00 5.5729494030234881e-05  2.2486260117262153e+00 1.4550408267044861e+00 -5.2670049433073393e-05  2.2335581398798725e+00 1.4865930972727603e+00 4.4149137390739865e-05  2.2185690079919187e+00 1.5179696238908869e+00 -3.2404183634769280e-05  2.2036310324721877e+00 1.5494557736119270e+00 2.1951810619216293e-05  2.1887627571990342e+00 1.5808343218508267e+00 -1.4632771696295806e-05  2.1739639514888687e+00 1.6121905965885939e+00 1.2431553025223196e-05  2.1592416904138836e+00 1.6434783520806473e+00 -1.4202335901689631e-05  2.1445906437673647e+00 1.6747717455077065e+00 1.7687928798487521e-05  2.1300282835961082e+00 1.7058935301019884e+00 -1.8020112949856764e-05  2.1155502505751480e+00 1.7370252447224741e+00 1.3448950213218734e-05  2.1011646968543971e+00 1.7680200115296185e+00 -6.5417386435910842e-06  2.0868778916981090e+00 1.7989143238203036e+00 2.0967504467050491e-06  2.0727007345570896e+00 1.8296767584054865e+00 -1.9679362866344679e-06  2.0586338047808628e+00 1.8603219932516879e+00 3.8342833068914946e-06  2.0446911612833421e+00 1.8907634905784829e+00 -5.2020785088756492e-06  2.0308906336819019e+00 1.9210334108413123e+00 4.8438009019644341e-06  2.0172309511063911e+00 1.9510879485144108e+00 -2.3281234531119753e-06  2.0037404552831437e+00 1.9808445841486351e+00 -4.3949160279611760e-07  1.9904416471471880e+00 2.0103106386344769e+00 6.9357999391565963e-07  1.9773467266274447e+00 2.0394143016927635e+00 2.1079157289859532e-06  1.9644961623827963e+00 2.0680478474382311e+00 -4.6800961706264094e-06  1.9519336581280644e+00 2.0961522820212415e+00 4.5577715463425305e-06  1.9396944953221891e+00 2.1236208746935561e+00 -4.0112767920577004e-06  1.9278492935690890e+00 2.1502686700607807e+00 4.1984659270044947e-06  1.9164821169738182e+00 2.1759421114366901e+00 -5.6351251316285368e-06  1.9056811509325429e+00 2.2003955716327885e+00 5.8129984965848226e-06  1.8955765701123943e+00 2.2233275844736937e+00 -7.9649371043410422e-06  1.8863078092418275e+00 2.2444339041019425e+00 8.9245404580005064e-06  1.8780451572847010e+00 2.2632844246094503e+00 -7.0472435687709327e-06  1.8709331013972259e+00 2.2795403238540826e+00 9.3487435372364541e-06  1.8651066800174179e+00 2.2928805425046819e+00 -5.1550237416679450e-06  1.8606234163809920e+00 2.3031670494766621e+00 1.3268051784904228e-05  1.8574059095024242e+00 2.3105427429538898e+00 -6.3529323970649279e-06  1.8552499609741187e+00 2.3154977922327409e+00 1.0658353320488101e-05  1.8539167501828013e+00 2.3185520458466997e+00 -1.1274158319771917e-05  1.8530707005355891e+00 2.3204891483681651e+00 5.5043093886576225e-06  1.8525075843159589e+00 2.3217740624049341e+00 -1.2003644261472000e-05  1.8521027043091982e+00 2.3226977271473217e+00 8.0243589373393521e-06  1.8517591964972957e+00 2.3234791038667009e+00 -1.2896567460966752e-05  1.8514413751507142e+00 2.3241964987713519e+00 1.1420347900953997e-05  1.8511793519227682e+00 2.3247912504664252e+0