<?xml version="1.0"?>
<VTKFile type="UnstructuredGrid"  version="0.1"  >
<UnstructuredGrid>
<Piece  NumberOfPoints="8241" NumberOfCells="16000">
<Points>
<DataArray  type="Float64"  NumberOfComponents="3"  format="ascii">-5 -1 0  -4.95 -1 0  -4.9 -1 0  -4.85 -1 0  -4.8 -1 0  -4.75 -1 0  -4.7 -1 0  -4.65 -1 0  -4.6 -1 0  -4.55 -1 0  -4.5 -1 0  -4.45 -1 0  -4.4 -1 0  -4.35 -1 0  -4.3 -1 0  -4.25 -1 0  -4.2 -1 0  -4.15 -1 0  -4.1 -1 0  -4.05 -1 0  -4 -1 0  -3.95 -1 0  -3.9 -1 0  -3.85 -1 0  -3.8 -1 0  -3.75 -1 0  -3.7 -1 0  -3.65 -1 0  -3.6 -1 0  -3.55 -1 0  -3.5 -1 0  -3.45 -1 0  -3.4 -1 0  -3.35 -1 0  -3.3 -1 0  -3.25 -1 0  -3.2 -1 0  -3.15 -1 0  -3.1 -1 0  -3.05 -1 0  -3 -1 0  -2.95 -1 0  -2.9 -1 0  -2.85 -1 0  -2.8 -1 0  -2.75 -1 0  -2.7 -1 0  -2.65 -1 0  -2.6 -1 0  -2.55 -1 0  -2.5 -1 0  -2.45 -1 0  -2.4 -1 0  -2.35 -1 0  -2.3 -1 0  -2.25 -1 0  -2.2 -1 0  -2.15 -1 0  -2.1 -1 0  -2.05 -1 0  -2 -1 0  -1.95 -1 0  -1.9 -1 0  -1.85 -1 0  -1.8 -1 0  -1.75 -1 0  -1.7 -1 0  -1.65 -1 0  -1.6 -1 0  -1.55 -1 0  -1.5 -1 0  -1.45 -1 0  -1.4 -1 0  -1.35 -1 0  -1.3 -1 0  -1.25 -1 0  -1.2 -1 0  -1.15 -1 0  -1.1 -1 0  -1.05 -1 0  -1 -1 0  -0.9500000000000002 -1 0  -0.9000000000000004 -1 0  -0.8499999999999996 -1 0  -0.7999999999999998 -1 0  -0.75 -1 0  -0.7000000000000002 -1 0  -0.6500000000000004 -1 0  -0.5999999999999996 -1 0  -0.5499999999999998 -1 0  -0.5 -1 0  -0.4500000000000002 -1 0  -0.4000000000000004 -1 0  -0.3499999999999996 -1 0  -0.2999999999999998 -1 0  -0.25 -1 0  -0.2000000000000002 -1 0  -0.1500000000000004 -1 0  -0.09999999999999964 -1 0  -0.04999999999999982 -1 0  0 -1 0  0.04999999999999982 -1 0  0.09999999999999964 -1 0  0.1500000000000004 -1 0  0.2000000000000002 -1 0  0.25 -1 0  0.2999999999999998 -1 0  0.3499999999999996 -1 0  0.4000000000000004 -1 0  0.4500000000000002 -1 0  0.5 -1 0  0.5499999999999998 -1 0  0.5999999999999996 -1 0  0.6500000000000004 -1 0  0.7000000000000002 -1 0  0.75 -1 0  0.7999999999999998 -1 0  0.8499999999999996 -1 0  0.9000000000000004 -1 0  0.9500000000000002 -1 0  1 -1 0  1.05 -1 0  1.1 -1 0  1.15 -1 0  1.2 -1 0  1.25 -1 0  1.3 -1 0  1.35 -1 0  1.4 -1 0  1.45 -1 0  1.5 -1 0  1.55 -1 0  1.6 -1 0  1.65 -1 0  1.7 -1 0  1.75 -1 0  1.8 -1 0  1.85 -1 0  1.9 -1 0  1.95 -1 0  2 -1 0  2.05 -1 0  2.1 -1 0  2.15 -1 0  2.2 -1 0  2.25 -1 0  2.3 -1 0  2.35 -1 0  2.4 -1 0  2.45 -1 0  2.5 -1 0  2.55 -1 0  2.6 -1 0  2.65 -1 0  2.7 -1 0  2.75 -1 0  2.8 -1 0  2.85 -1 0  2.9 -1 0  2.95 -1 0  3 -1 0  3.050000000000001 -1 0  3.1 -1 0  3.15 -1 0  3.199999999999999 -1 0  3.25 -1 0  3.300000000000001 -1 0  3.35 -1 0  3.4 -1 0  3.449999999999999 -1 0  3.5 -1 0  3.550000000000001 -1 0  3.6 -1 0  3.65 -1 0  3.699999999999999 -1 0  3.75 -1 0  3.800000000000001 -1 0  3.85 -1 0  3.9 -1 0  3.949999999999999 -1 0  4 -1 0  4.050000000000001 -1 0  4.1 -1 0  4.15 -1 0  4.199999999999999 -1 0  4.25 -1 0  4.300000000000001 -1 0  4.35 -1 0  4.4 -1 0  4.449999999999999 -1 0  4.5 -1 0  4.550000000000001 -1 0  4.6 -1 0  4.65 -1 0  4.699999999999999 -1 0  4.75 -1 0  4.800000000000001 -1 0  4.85 -1 0  4.9 -1 0  4.949999999999999 -1 0  5 -1 0  -5 -0.95 0  -4.95 -0.95 0  -4.9 -0.95 0  -4.85 -0.95 0  -4.8 -0.95 0  -4.75 -0.95 0  -4.7 -0.95 0  -4.65 -0.95 0  -4.6 -0.95 0  -4.55 -0.95 0  -4.5 -0.95 0  -4.45 -0.95 0  -4.4 -0.95 0  -4.35 -0.95 0  -4.3 -0.95 0  -4.25 -0.95 0  -4.2 -0.95 0  -4.15 -0.95 0  -4.1 -0.95 0  -4.05 -0.95 0  -4 -0.95 0  -3.95 -0.95 0  -3.9 -0.95 0  -3.85 -0.95 0  -3.8 -0.95 0  -3.75 -0.95 0  -3.7 -0.95 0  -3.65 -0.95 0  -3.6 -0.95 0  -3.55 -0.95 0  -3.5 -0.95 0  -3.45 -0.95 0  -3.4 -0.95 0  -3.35 -0.95 0  -3.3 -0.95 0  -3.25 -0.95 0  -3.2 -0.95 0  -3.15 -0.95 0  -3.1 -0.95 0  -3.05 -0.95 0  -3 -0.95 0  -2.95 -0.95 0  -2.9 -0.95 0  -2.85 -0.95 0  -2.8 -0.95 0  -2.75 -0.95 0  -2.7 -0.95 0  -2.65 -0.95 0  -2.6 -0.95 0  -2.55 -0.95 0  -2.5 -0.95 0  -2.45 -0.95 0  -2.4 -0.95 0  -2.35 -0.95 0  -2.3 -0.95 0  -2.25 -0.95 0  -2.2 -0.95 0  -2.15 -0.95 0  -2.1 -0.95 0  -2.05 -0.95 0  -2 -0.95 0  -1.95 -0.95 0  -1.9 -0.95 0  -1.85 -0.95 0  -1.8 -0.95 0  -1.75 -0.95 0  -1.7 -0.95 0  -1.65 -0.95 0  -1.6 -0.95 0  -1.55 -0.95 0  -1.5 -0.95 0  -1.45 -0.95 0  -1.4 -0.95 0  -1.35 -0.95 0  -1.3 -0.95 0  -1.25 -0.95 0  -1.2 -0.95 0  -1.15 -0.95 0  -1.1 -0.95 0  -1.05 -0.95 0  -1 -0.95 0  -0.9500000000000002 -0.95 0  -0.9000000000000004 -0.95 0  -0.8499999999999996 -0.95 0  -0.7999999999999998 -0.95 0  -0.75 -0.95 0  -0.7000000000000002 -0.95 0  -0.6500000000000004 -0.95 0  -0.5999999999999996 -0.95 0  -0.5499999999999998 -0.95 0  -0.5 -0.95 0  -0.4500000000000002 -0.95 0  -0.4000000000000004 -0.95 0  -0.3499999999999996 -0.95 0  -0.2999999999999998 -0.95 0  -0.25 -0.95 0  -0.2000000000000002 -0.95 0  -0.1500000000000004 -0.95 0  -0.09999999999999964 -0.95 0  -0.04999999999999982 -0.95 0  0 -0.95 0  0.04999999999999982 -0.95 0  0.09999999999999964 -0.95 0  0.1500000000000004 -0.95 0  0.2000000000000002 -0.95 0  0.25 -0.95 0  0.2999999999999998 -0.95 0  0.3499999999999996 -0.95 0  0.4000000000000004 -0.95 0  0.4500000000000002 -0.95 0  0.5 -0.95 0  0.5499999999999998 -0.95 0  0.5999999999999996 -0.95 0  0.6500000000000004 -0.95 0  0.7000000000000002 -0.95 0  0.75 -0.95 0  0.7999999999999998 -0.95 0  0.8499999999999996 -0.95 0  0.9000000000000004 -0.95 0  0.9500000000000002 -0.95 0  1 -0.95 0  1.05 -0.95 0  1.1 -0.95 0  1.15 -0.95 0  1.2 -0.95 0  1.25 -0.95 0  1.3 -0.95 0  1.35 -0.95 0  1.4 -0.95 0  1.45 -0.95 0  1.5 -0.95 0  1.55 -0.95 0  1.6 -0.95 0  1.65 -0.95 0  1.7 -0.95 0  1.75 -0.95 0  1.8 -0.95 0  1.85 -0.95 0  1.9 -0.95 0  1.95 -0.95 0  2 -0.95 0  2.05 -0.95 0  2.1 -0.95 0  2.15 -0.95 0  2.2 -0.95 0  2.25 -0.95 0  2.3 -0.95 0  2.35 -0.95 0  2.4 -0.95 0  2.45 -0.95 0  2.5 -0.95 0  2.55 -0.95 0  2.6 -0.95 0  2.65 -0.95 0  2.7 -0.95 0  2.75 -0.95 0  2.8 -0.95 0  2.85 -0.95 0  2.9 -0.95 0  2.95 -0.95 0  3 -0.95 0  3.050000000000001 -0.95 0  3.1 -0.95 0  3.15 -0.95 0  3.199999999999999 -0.95 0  3.25 -0.95 0  3.300000000000001 -0.95 0  3.35 -0.95 0  3.4 -0.95 0  3.449999999999999 -0.95 0  3.5 -0.95 0  3.550000000000001 -0.95 0  3.6 -0.95 0  3.65 -0.95 0  3.699999999999999 -0.95 0  3.75 -0.95 0  3.800000000000001 -0.95 0  3.85 -0.95 0  3.9 -0.95 0  3.949999999999999 -0.95 0  4 -0.95 0  4.050000000000001 -0.95 0  4.1 -0.95 0  4.15 -0.95 0  4.199999999999999 -0.95 0  4.25 -0.95 0  4.300000000000001 -0.95 0  4.35 -0.95 0  4.4 -0.95 0  4.449999999999999 -0.95 0  4.5 -0.95 0  4.550000000000001 -0.95 0  4.6 -0.95 0  4.65 -0.95 0  4.699999999999999 -0.95 0  4.75 -0.95 0  4.800000000000001 -0.95 0  4.85 -0.95 0  4.9 -0.95 0  4.949999999999999 -0.95 0  5 -0.95 0  -5 -0.9 0  -4.95 -0.9 0  -4.9 -0.9 0  -4.85 -0.9 0  -4.8 -0.9 0  -4.75 -0.9 0  -4.7 -0.9 0  -4.65 -0.9 0  -4.6 -0.9 0  -4.55 -0.9 0  -4.5 -0.9 0  -4.45 -0.9 0  -4.4 -0.9 0  -4.35 -0.9 0  -4.3 -0.9 0  -4.25 -0.9 0  -4.2 -0.9 0  -4.15 -0.9 0  -4.1 -0.9 0  -4.05 -0.9 0  -4 -0.9 0  -3.95 -0.9 0  -3.9 -0.9 0  -3.85 -0.9 0  -3.8 -0.9 0  -3.75 -0.9 0  -3.7 -0.9 0  -3.65 -0.9 0  -3.6 -0.9 0  -3.55 -0.9 0  -3.5 -0.9 0  -3.45 -0.9 0  -3.4 -0.9 0  -3.35 -0.9 0  -3.3 -0.9 0  -3.25 -0.9 0  -3.2 -0.9 0  -3.15 -0.9 0  -3.1 -0.9 0  -3.05 -0.9 0  -3 -0.9 0  -2.95 -0.9 0  -2.9 -0.9 0  -2.85 -0.9 0  -2.8 -0.9 0  -2.75 -0.9 0  -2.7 -0.9 0  -2.65 -0.9 0  -2.6 -0.9 0  -2.55 -0.9 0  -2.5 -0.9 0  -2.45 -0.9 0  -2.4 -0.9 0  -2.35 -0.9 0  -2.3 -0.9 0  -2.25 -0.9 0  -2.2 -0.9 0  -2.15 -0.9 0  -2.1 -0.9 0  -2.05 -0.9 0  -2 -0.9 0  -1.95 -0.9 0  -1.9 -0.9 0  -1.85 -0.9 0  -1.8 -0.9 0  -1.75 -0.9 0  -1.7 -0.9 0  -1.65 -0.9 0  -1.6 -0.9 0  -1.55 -0.9 0  -1.5 -0.9 0  -1.45 -0.9 0  -1.4 -0.9 0  -1.35 -0.9 0  -1.3 -0.9 0  -1.25 -0.9 0  -1.2 -0.9 0  -1.15 -0.9 0  -1.1 -0.9 0  -1.05 -0.9 0  -1 -0.9 0  -0.9500000000000002 -0.9 0  -0.9000000000000004 -0.9 0  -0.8499999999999996 -0.9 0  -0.7999999999999998 -0.9 0  -0.75 -0.9 0  -0.7000000000000002 -0.9 0  -0.6500000000000004 -0.9 0  -0.5999999999999996 -0.9 0  -0.5499999999999998 -0.9 0  -0.5 -0.9 0  -0.4500000000000002 -0.9 0  -0.4000000000000004 -0.9 0  -0.3499999999999996 -0.9 0  -0.2999999999999998 -0.9 0  -0.25 -0.9 0  -0.2000000000000002 -0.9 0  -0.1500000000000004 -0.9 0  -0.09999999999999964 -0.9 0  -0.04999999999999982 -0.9 0  0 -0.9 0  0.04999999999999982 -0.9 0  0.09999999999999964 -0.9 0  0.1500000000000004 -0.9 0  0.2000000000000002 -0.9 0  0.25 -0.9 0  0.2999999999999998 -0.9 0  0.3499999999999996 -0.9 0  0.4000000000000004 -0.9 0  0.4500000000000002 -0.9 0  0.5 -0.9 0  0.5499999999999998 -0.9 0  0.5999999999999996 -0.9 0  0.6500000000000004 -0.9 0  0.7000000000000002 -0.9 0  0.75 -0.9 0  0.7999999999999998 -0.9 0  0.8499999999999996 -0.9 0  0.9000000000000004 -0.9 0  0.9500000000000002 -0.9 0  1 -0.9 0  1.05 -0.9 0  1.1 -0.9 0  1.15 -0.9 0  1.2 -0.9 0  1.25 -0.9 0  1.3 -0.9 0  1.35 -0.9 0  1.4 -0.9 0  1.45 -0.9 0  1.5 -0.9 0  1.55 -0.9 0  1.6 -0.9 0  1.65 -0.9 0  1.7 -0.9 0  1.75 -0.9 0  1.8 -0.9 0  1.85 -0.9 0  1.9 -0.9 0  1.95 -0.9 0  2 -0.9 0  2.05 -0.9 0  2.1 -0.9 0  2.15 -0.9 0  2.2 -0.9 0  2.25 -0.9 0  2.3 -0.9 0  2.35 -0.9 0  2.4 -0.9 0  2.45 -0.9 0  2.5 -0.9 0  2.55 -0.9 0  2.6 -0.9 0  2.65 -0.9 0  2.7 -0.9 0  2.75 -0.9 0  2.8 -0.9 0  2.85 -0.9 0  2.9 -0.9 0  2.95 -0.9 0  3 -0.9 0  3.050000000000001 -0.9 0  3.1 -0.9 0  3.15 -0.9 0  3.199999999999999 -0.9 0  3.25 -0.9 0  3.300000000000001 -0.9 0  3.35 -0.9 0  3.4 -0.9 0  3.449999999999999 -0.9 0  3.5 -0.9 0  3.550000000000001 -0.9 0  3.6 -0.9 0  3.65 -0.9 0  3.699999999999999 -0.9 0  3.75 -0.9 0  3.800000000000001 -0.9 0  3.85 -0.9 0  3.9 -0.9 0  3.949999999999999 -0.9 0  4 -0.9 0  4.050000000000001 -0.9 0  4.1 -0.9 0  4.15 -0.9 0  4.199999999999999 -0.9 0  4.25 -0.9 0  4.300000000000001 -0.9 0  4.35 -0.9 0  4.4 -0.9 0  4.449999999999999 -0.9 0  4.5 -0.9 0  4.550000000000001 -0.9 0  4.6 -0.9 0  4.65 -0.9 0  4.699999999999999 -0.9 0  4.75 -0.9 0  4.800000000000001 -0.9 0  4.85 -0.9 0  4.9 -0.9 0  4.949999999999999 -0.9 0  5 -0.9 0  -5 -0.85 0  -4.95 -0.85 0  -4.9 -0.85 0  -4.85 -0.85 0  -4.8 -0.85 0  -4.75 -0.85 0  -4.7 -0.85 0  -4.65 -0.85 0  -4.6 -0.85 0  -4.55 -0.85 0  -4.5 -0.85 0  -
[...]
<PointData  Vectors="f_15"> 
<DataArray  type="Float64"  Name="f_15"  NumberOfComponents="3" format="ascii">8.5626390353196076e+00 0.0000000000000000e+00 0.0000000000000000e+00  8.5612515249947059e+00 8.4241447899807309e-02 0.0000000000000000e+00  8.5591950641154124e+00 1.6674499301550347e-01 0.0000000000000000e+00  8.5539498978825712e+00 2.5075992060529484e-01 0.0000000000000000e+00  8.5482609259053444e+00 3.3250088146230272e-01 0.0000000000000000e+00  8.5395793182657211e+00 4.1608397538232395e-01 0.0000000000000000e+00  8.5300511933339767e+00 4.9707363419567185e-01 0.0000000000000000e+00  8.5177960192902038e+00 5.7979436772778004e-01 0.0000000000000000e+00  8.5047448162359949e+00 6.5990256351512955e-01 0.0000000000000000e+00  8.4887386554183557e+00 7.4133533667649709e-01 0.0000000000000000e+00  8.4721094621109767e+00 8.2047255711949219e-01 0.0000000000000000e+00  8.4526150095333623e+00 9.0028362146855900e-01 0.0000000000000000e+00  8.4322966501600245e+00 9.7821049490151712e-01 0.0000000000000000e+00  8.4092672590296278e+00 1.0561695799749788e+00 0.0000000000000000e+00  8.3855997708826369e+00 1.1329903614819719e+00 0.0000000000000000e+00  8.3588784691010698e+00 1.2083048455841581e+00 0.0000000000000000e+00  8.3319763430308029e+00 1.2846639692687714e+00 0.0000000000000000e+00  8.3018547226398702e+00 1.3567007218366649e+00 0.0000000000000000e+00  8.2716717395718078e+00 1.4325636745900368e+00 0.0000000000000000e+00  8.2383036005893047e+00 1.5015242514028813e+00 0.0000000000000000e+00  8.2052122760541373e+00 1.5769214562986245e+00 0.0000000000000000e+00  8.1685682319617978e+00 1.6418663611661841e+00 0.0000000000000000e+00  8.1328519922025748e+00 1.7187802387682867e+00 0.0000000000000000e+00  8.0933083774197438e+00 1.7775461482052513e+00 0.0000000000000000e+00  8.0550102973969633e+00 1.8572077598647787e+00 0.0000000000000000e+00  8.0129457610178871e+00 1.9114319791414860e+00 0.0000000000000000e+00  7.9723996130393520e+00 1.9889156289217946e+00 0.0000000000000000e+00  7.9280207636854003e+00 2.0467212805556323e+00 0.0000000000000000e+00  7.8855036082664958e+00 2.1140952838067606e+00 0.0000000000000000e+00  7.8392923317638283e+00 2.1796244740189956e+00 0.0000000000000000e+00  7.7949408558516247e+00 2.2409983788723187e+00 0.0000000000000000e+00  7.7471906018438865e+00 2.3026263976339716e+00 0.0000000000000000e+00  7.7015713215549910e+00 2.3726688802991456e+00 0.0000000000000000e+00  7.6522285561030827e+00 2.4223865495590093e+00 0.0000000000000000e+00  7.6058268728931147e+00 2.4963838150101685e+00 0.0000000000000000e+00  7.5552469141476184e+00 2.5516094664020552e+00 0.0000000000000000e+00  7.5080767130160160e+00 2.6099732453825517e+00 0.0000000000000000e+00  7.4566571632267307e+00 2.6805948671802895e+00 0.0000000000000000e+00  7.4090697450998251e+00 2.7300200223536266e+00 0.0000000000000000e+00  7.3567533184986749e+00 2.7990039712322758e+00 0.0000000000000000e+00  7.3090648732003336e+00 2.8546059820795104e+00 0.0000000000000000e+00  7.2563508983574385e+00 2.9187365039690101e+00 0.0000000000000000e+00  7.2080360996992940e+00 2.9741076685357464e+00 0.0000000000000000e+00  7.1557125642680912e+00 3.0403116381895718e+00 0.0000000000000000e+00  7.1067499337710700e+00 3.0954492394019857e+00 0.0000000000000000e+00  7.0545456758716165e+00 3.1591619692973256e+00 0.0000000000000000e+00  7.0056302760643439e+00 3.2168907873972681e+00 0.0000000000000000e+00  6.9533164002569228e+00 3.2800016797120066e+00 0.0000000000000000e+00  6.9044195770813630e+00 3.3373382165006147e+00 0.0000000000000000e+00  6.8524737492018595e+00 3.4004089932627197e+00 0.0000000000000000e+00  6.8032160873060104e+00 3.4589393747188923e+00 0.0000000000000000e+00  6.7520327657494930e+00 3.5208733125778751e+00 0.0000000000000000e+00  6.7023263239911852e+00 3.5806072083050431e+00 0.0000000000000000e+00  6.6518274235281796e+00 3.6418762794887169e+00 0.0000000000000000e+00  6.6020556303728073e+00 3.7020150617172813e+00 0.0000000000000000e+00  6.5519338035433883e+00 3.7637992230576138e+00 0.0000000000000000e+00  6.5021979044199760e+00 3.8239284444859916e+00 0.0000000000000000e+00  6.4527408695726445e+00 3.8852176570833303e+00 0.0000000000000000e+00  6.4027073358880244e+00 3.9465744029473067e+00 0.0000000000000000e+00  6.3540498395836620e+00 4.0073237761840730e+00 0.0000000000000000e+00  6.3039695748761915e+00 4.0691142421675170e+00 0.0000000000000000e+00  6.2558007929532904e+00 4.1297789576364963e+00 0.0000000000000000e+00  6.2057493251748603e+00 4.1921732612211002e+00 0.0000000000000000e+00  6.1582967922973930e+00 4.2522866897761622e+00 0.0000000000000000e+00  6.1081869906775363e+00 4.3155658708057016e+00 0.0000000000000000e+00  6.0611068533149099e+00 4.3755084138888689e+00 0.0000000000000000e+00  6.0115042532176375e+00 4.4386889692149092e+00 0.0000000000000000e+00  5.9646665911927581e+00 4.4988612092983153e+00 0.0000000000000000e+00  5.9150318196846250e+00 4.5628768323272100e+00 0.0000000000000000e+00  5.8691050339407003e+00 4.6219059370620563e+00 0.0000000000000000e+00  5.8195280964471081e+00 4.6867981234016387e+00 0.0000000000000000e+00  5.7735045366357047e+00 4.7463690497939268e+00 0.0000000000000000e+00  5.7250735818209186e+00 4.8101414479322306e+00 0.0000000000000000e+00  5.6788541656748182e+00 4.8705710200777386e+00 0.0000000000000000e+00  5.6306158404285229e+00 4.9347801816219379e+00 0.0000000000000000e+00  5.5851867395033334e+00 4.9944022597826230e+00 0.0000000000000000e+00  5.5372441544951840e+00 5.0589708840878913e+00 0.0000000000000000e+00  5.4914577757762144e+00 5.1193535069561094e+00 0.0000000000000000e+00  5.4449451388196799e+00 5.1826851437440427e+00 0.0000000000000000e+00  5.3987122230067728e+00 5.2442660162465833e+00 0.0000000000000000e+00  5.3527667933084082e+00 5.3070463265207968e+00 0.0000000000000000e+00  5.3069224307082408e+00 5.3688370345343595e+00 0.0000000000000000e+00  5.2614658958019227e+00 5.4315815309929540e+00 0.0000000000000000e+00  5.2154844566393592e+00 5.4938398140645797e+00 0.0000000000000000e+00  5.1709356793544021e+00 5.5558311681593278e+00 0.0000000000000000e+00  5.1250027188048559e+00 5.6190018204316541e+00 0.0000000000000000e+00  5.0808006823431029e+00 5.6805318027209823e+00 0.0000000000000000e+00  5.0355820563948956e+00 5.7434320832856542e+00 0.0000000000000000e+00  4.9913081844627545e+00 5.8055448087735488e+00 0.0000000000000000e+00  4.9469730497922138e+00 5.8680122063891433e+00 0.0000000000000000e+00  4.9022973672128183e+00 5.9307598476069554e+00 0.0000000000000000e+00  4.8589978768122677e+00 5.9926169552513118e+00 0.0000000000000000e+00  4.8140091355450370e+00 6.0563049912126541e+00 0.0000000000000000e+00  4.7727214578712411e+00 6.1160181333216377e+00 0.0000000000000000e+00  4.7252740043735972e+00 6.1830067294542346e+00 0.0000000000000000e+00  4.6877499915504037e+00 6.2390144541744892e+00 0.0000000000000000e+00  4.6359274806948756e+00 6.3123029530850649e+00 0.0000000000000000e+00  4.6018030856706185e+00 6.3634442824248652e+00 0.0000000000000000e+00  4.5543367492957438e+00 6.4317383002730066e+00 0.0000000000000000e+00  4.5158937162060484e+00 6.4899074492876476e+00 0.0000000000000000e+00  4.4698414222465264e+00 6.5559819323613775e+00 0.0000000000000000e+00  4.4362655591073361e+00 6.6076075937589618e+00 0.0000000000000000e+00  4.3825139187811999e+00 6.6860761808386391e+00 0.0000000000000000e+00  4.3482015445942483e+00 6.7389746876947401e+00 0.0000000000000000e+00  4.3016805107525258e+00 6.8072330642519701e+00 0.0000000000000000e+00  4.2648301119245335e+00 6.8653666194159815e+00 0.0000000000000000e+00  4.2187063171102155e+00 6.9328601020007854e+00 0.0000000000000000e+00  4.1819222316897502e+00 6.9907451833365419e+00 0.0000000000000000e+00  4.1402701451194899e+00 7.0536736013961621e+00 0.0000000000000000e+00  4.1047117368676274e+00 7.1103526822021301e+00 0.0000000000000000e+00  4.0629632338289126e+00 7.1725298346433570e+00 0.0000000000000000e+00  4.0255328548527300e+00 7.2331695469493820e+00 0.0000000000000000e+00  3.9843366657795904e+00 7.2957217338730649e+00 0.0000000000000000e+00  3.9485383736343138e+00 7.3526508029131863e+00 0.0000000000000000e+00  3.9107140357162966e+00 7.4120255332018026e+00 0.0000000000000000e+00  3.8794960804665983e+00 7.4638729161113941e+00 0.0000000000000000e+00  3.8447579235833467e+00 7.5160418757453762e+00 0.0000000000000000e+00  3.8043192569134865e+00 7.5813944754556575e+00 0.0000000000000000e+00  3.8031336135454268e+00 7.5840289437674144e+00 0.0000000000000000e+00  3.8591728379725811e+00 7.4946753341695347e+00 0.0000000000000000e+00  3.9089501838244103e+00 7.4148354055166132e+00 0.0000000000000000e+00  3.9295046879445863e+00 7.3818837710153362e+00 0.0000000000000000e+00  3.9378029735114910e+00 7.3688798676751670e+00 0.0000000000000000e+00  3.9420044334782793e+00 7.3616615858033025e+00 0.0000000000000000e+00  3.9458139100544338e+00 7.3565007821280624e+00 0.0000000000000000e+00  3.9472688399517084e+00 7.3527928457929805e+00 0.0000000000000000e+00  3.9498518844685337e+00 7.3504631074777453e+00 0.0000000000000000e+00  3.9513417471994767e+00 7.3458666556964474e+00 0.0000000000000000e+00  3.9544869427698748e+00 7.3444811153803888e+00 0.0000000000000000e+00  3.9551898342179768e+00 7.3391011498528238e+00 0.0000000000000000e+00  3.9572072025313618e+00 7.3417767039870290e+00 0.0000000000000000e+00  3.9562425218389676e+00 7.3353515686201813e+00 0.0000000000000000e+00  3.9581299926390443e+00 7.3421170547146319e+00 0.0000000000000000e+00  3.9567397915548490e+00 7.3315969014163924e+00 0.0000000000000000e+00  3.9593968430138409e+00 7.3432222476648796e+00 0.0000000000000000e+00  3.9572508554234931e+00 7.3267528301870106e+00 0.0000000000000000e+00  3.9606175687502141e+00 7.3458250993717744e+00 0.0000000000000000e+00  3.9572410065868580e+00 7.3214900014493569e+00 0.0000000000000000e+00  3.9615688184729105e+00 7.3495561424419860e+00 0.0000000000000000e+00  3.9571017416883181e+00 7.3160009401717687e+00 0.0000000000000000e+00  3.9625126535704904e+00 7.3536871615908908e+00 0.0000000000000000e+00  3.9567353078100389e+00 7.3104502930557320e+00 0.0000000000000000e+00  3.9635551017864037e+00 7.3579117108089296e+00 0.0000000000000000e+00  3.9561231546021642e+00 7.3058533868185673e+00 0.0000000000000000e+00  3.9642863046978798e+00 7.3605589858661933e+00 0.0000000000000000e+00  3.9558966250973171e+00 7.3038921683038929e+00 0.0000000000000000e+00  3.9644806276470921e+00 7.3605518881159862e+00 0.0000000000000000e+00  3.9559036180376927e+00 7.3042768039822770e+00 0.0000000000000000e+00  3.9645591905489801e+00 7.3586763985109540e+00 0.0000000000000000e+00  3.9562008243603093e+00 7.3071128705400010e+00 0.0000000000000000e+00  3.9634724109596648e+00 7.3530373233078477e+00 0.0000000000000000e+00  3.9585213619035722e+00 7.3151898434381373e+00 0.0000000000000000e+00  3.9599342654404683e+00 7.3422533428817793e+00 0.0000000000000000e+00  3.9627592872208046e+00 7.3266100178227074e+00 0.0000000000000000e+00  3.9553158313821073e+00 7.3304807382583492e+00 0.0000000000000000e+00  3.9677813975790417e+00 7.3384648791646123e+00 0.0000000000000000e+00  3.9488983440585632e+00 7.3160894447907276e+00 0.0000000000000000e+00  3.9762229757198333e+00 7.3562123199596288e+00 0.0000000000000000e+00  3.9382210310987551e+00 7.2947104765501436e+00 0.0000000000000000e+00  3.9877539038994887e+00 7.3775274339235795e+00 0.0000000000000000e+00  3.9271249047461323e+00 7.2754880097563071e+00 0.0000000000000000e+00  3.9974499018226144e+00 7.3930537866646056e+00 0.0000000000000000e+00  3.9176791933874822e+00 7.2595137446859637e+00 0.0000000000000000e+00  4.0080261046104937e+00 7.4119937364690838e+00 0.0000000000000000e+00  3.9048049456844516e+00 7.2347978457469182e+00 0.0000000000000000e+00  4.0217008920545974e+00 7.4361958356584354e+00 0.0000000000000000e+00  3.8926954038016639e+00 7.2149302410561074e+00 0.0000000000000000e+00  4.0294410939487593e+00 7.4449880371364605e+00 0.0000000000000000e+00  3.8889898608400126e+00 7.2111229613328529e+00 0.0000000000000000e+00  4.0311442837867322e+00 7.4473848335003794e+00 0.0000000000000000e+00  3.8860730662233340e+00 7.1997221793232331e+00 0.0000000000000000e+00  4.0358064663105742e+00 7.4593331237279843e+00 0.0000000000000000e+00  3.8815386742767419e+00 7.1897332930401667e+00 0.0000000000000000e+00  4.0353829984737777e+00 7.4499895032303112e+00 0.0000000000000000e+00  3.8890808773436265e+00 7.2104074092602399e+00 0.0000000000000000e+00  4.0210531936548426e+00 7.4191489723488235e+00 0.0000000000000000e+00  3.9055928527767501e+00 7.2277835695290369e+00 0.0000000000000000e+00  4.0068915472299658e+00 7.4067008198588233e+00 0.0000000000000000e+00  3.9149803950310136e+00 7.2317699996181171e+00 0.0000000000000000e+00  3.9990661185418523e+00 7.3820710241743122e+00 0.0000000000000000e+00  3.9247667109867876e+00 7.2678605848142723e+00 0.0000000000000000e+00  3.9831043763895564e+00 7.3326179520413586e+00 0.0000000000000000e+00  3.9457192648059514e+00 7.2955208349563607e+00 0.0000000000000000e+00  3.9622971362360073e+00 7.3199205635986759e+00 0.0000000000000000e+00  3.9586567640044801e+00 7.2875759619292380e+00 0.0000000000000000e+00  3.9619891269351011e+00 7.3152214937350326e+00 0.0000000000000000e+00  3.9436670990435245e+00 7.2968477008719201e+00 0.0000000000000000e+00  3.9860671167367805e+00 7.3066112886658265e+00 0.0000000000000000e+00  3.9164572708546186e+00 7.2628398381763040e+00 0.0000000000000000e+00  4.0183365795115078e+00 7.3904494134550971e+00 0.0000000000000000e+00  3.8679993468335292e+00 7.1034256730100180e+00 0.0000000000000000e+00  4.0847915897452927e+00 7.6338769195594764e+00 0.0000000000000000e+00  3.8779848097171108e+00 6.6157584197662782e+00 0.0000000000000000e+00  3.7941413563614614e+00 8.5260613050290317e+00 0.0000000000000000e+00  5.2291000139730501e+00 4.5180226860588766e+00 0.0000000000000000e+00  9.1019270471077025e+00 3.8807725639842783e-01 0.0000000000000000e+00  9.4937228641074682e+00 -1.2395207433765942e-02 0.0000000000000000e+00  9.3738557969924656e+00 8.4639773303390634e-02 0.0000000000000000e+00  9.4641215296072065e+00 -1.2107990357712844e-01 0.0000000000000000e+00  9.5003041245191877e+00 3.0929506824150930e-02 0.0000000000000000e+00  9.4809381663634031e+00 0.0000000000000000e+00 0.0000000000000000e+00  8.5616111985586993e+00 0.0000000000000000e+00 1.6472083344608566e-03  8.5609819849447284e+00 8.1993970392510107e-02 -1.3424868924806861e-03  8.5579103515234340e+00 1.6631215812260144e-01 1.2507711476953849e-03  8.5535476632794580e+00 2.4802360233550602e-01 -1.4555742630763208e-03  8.5470753683274499e+00 3.3223317053382956e-01 1.5586375587490584e-03  8.5388890284423837e+00 4.1324679496765776e-01 -1.6421287840688373e-03  8.5287830542503684e+00 4.9691968328502678e-01 1.7366514610853904e-03  8.5171342489772659e+00 5.7696680614633300e-01 -1.7797072523246735e-03  8.5032097131321116e+00 6.5975108019607875e-01 1.8751689090804244e-03  8.4880154282263742e+00 7.3865034723881617e-01 -1.9262194731354291e-03  8.4705503249155196e+00 8.2026856285981475e-01 2.0237224118839019e-03  8.4516810813766785e+00 8.9769952896304339e-01 -2.0879602800120368e-03  8.4306226459162890e+00 9.7802482907439758e-01 2.2123782029505679e-03  8.4083923634710001e+00 1.0538075066120216e+00 -2.3291873311647457e-03  8.3836062593768599e+00 1.1324536153599252e+00 2.5105259849476074e-03  8.3580659152519559e+00 1.2066448508708576e+00 -2.6626303373097262e-03  8.3298750373214236e+00 1.2834992096012403e+00 2.8181957155314664e-03  8.3009306877451188e+00 1.3556388243445319e+00 -2.9050474729590626e-03  8.2694889328097840e+00 1.4310713778424271e+00 2.9777050194309661e-03  8.2374840598075902e+00 1.5010062933101054e+00 -3.0499790858787728e-03  8.2027594998996314e+00 1.5744880262586567e+00 3.1646469118385215e-03  8.1679396846915946e+00 1.6431797103792478e+00 -3.3022135583920110e-03  8.1303247391940392e+00 1.7139714934831705e+00 3.3472464027976549e-03  8.0926678286294127e+00 1.7814312090038007e+00 -3.1779703092895016e-03  8.0526068489859846e+00 1.8508494720165647e+00 2.6327132784544510e-03  8.0123410954570939e+00 1.9151212176249568e+00 -1.8035308053405163e-03  7.9701023532605415e+00 1.9853910741589358e+00 8.6416704571405894e-04  7.9275221251367647e+00 2.0457696809313677e+00 -3.1940327649558782e-04  7.8834182709097993e+00 2.1156886941794917e+00 4.2763603283677086e-04  7.8389660852631273e+00 2.1763141976212963e+00 -1.3403512275587549e-03  7.7929383479037435e+00 2.2407353071000258e+00 2.6140419251958892e-03  7.7474623190339003e+00 2.3058627080888527e+00 -3.8522728830735573e-03  7.6993470093922998e+00 2.3655896872552229e+00 4.6930552006297609e-03  7.6533444525485290e+00 2.4284364105691059e+00 -5.4709105911245554e-03  7.6035006878881024e+00 2.4952996707700628e+00 6.5786718646045029e-03  7.5571027399470818e+00 2.5453314478549109e+00 -8.3054113661213177e-03  7.5058300327861058e+00 2.6230108756487636e+00 1.0016826141386917e-02  7.4592888835950255e+00 2.6670773587253147e+00 -1.0776512600439662e-02  7.4070493367766064e+00 2.7422803247448408e+00 9.7896303923369291e-03  7.3598644554383110e+00 2.7930333008242711e+00 -7.4435588633386864e-03  7.3079631464835613e+00 2.8608825796815567e+00 4.8532118658377510e-03  7.2592645516509675e+00 2.9156736671650600e+00 -3.2569345161486936e-03  7.2082648505833067e+00 2.9814836589036755e+00 2.8113730866209281e-03  7.1586389584123467e+00 3.0381229878042695e+00 -2.9567725203393249e-03  7.1076867053048360e+00 3.1011692589537443e+00 2.8678081724520113e-03  7.0581469547186542e+00 3.1598672101550420e+00 -2.4878865517611818e-03  7.0069791795436558e+00 3.2228211748868580e+00 2.0370507961193565e-03  6.9574150855712640e+00 3.2806185689157465e+00 -1.8364893185212319e-03  6.9065370884829456e+00 3.3437563605980314e+00 1.7194062022268133e-03  6.8566825728856768e+00 3.4027803054789985e+00 -1.6386486408299097e-03  6.8062478963805120e+00 3.4647579000450208e+00 1.5236266945842837e-03  6.7562764173256316e+00 3.5243693693362244e+00 -1.4776904648664533e-03  6.7060314296482861e+00 3.5864684084161640e+00 1.3987249604068019e-03  6.6563615948905452e+00 3.6459780267465272e+00 -1.3240216791487840e-03  6.6060497756310452e+00 3.7086464670168597e+00 1.2603227932024889e-03  6.5567183623100824e+00 3.7678343121409701e+00 -1.2571639880221111e-03  6.5066573514369255e+00 3.8303530649483308e+00 1.2140959909702246e-03  6.4573254811199261e+00 3.8904776070658653e+00 -1.1576334630572990e-03  6.4076565921934243e+00 3.9525788266398560e+00 1.1143928109095939e-03  6.3585653357174694e+00 4.0126232193095985e+00 -1.1015088727141689e-03  6.3089800675411389e+00 4.0751615841853264e+00 1.0490694056751219e-03  6.2602248141863504e+00 4.1353155099589580e+00 -9.8694374922268010e-04  6.2109748253774493e+00 4.1976245920836233e+00 9.5429972914966852e-04  6.1623554059965526e+00 4.2582029575915019e+00 -9.3091393207511057e-04  6.1133072494239480e+00 4.3205485290969268e+00 8.8352772977463910e-04  6.0652207108177283e+00 4.3808722379221985e+00 -8.2374948536085766e-04  6.0163023645926232e+00 4.4436084619120271e+00 7.8717191320085058e-04  5.9682675526598077e+00 4.5043804271500552e+00 -7.4447864458172103e-04  5.9201407900416427e+00 4.5662445441881951e+00 7.1745882523425466e-04  5.8721387989996634e+00 4.6277212657271365e+00 -6.8024646405230940e-04  5.8240212212378903e+00 4.6900717097947364e+00 6.6235720319961753e-04  5.7769446538433407e+00 4.7505597175285761e+00 -6.1676817416133364e-04  5.7288725448622602e+00 4.8135654195919448e+00 5.8796915304619554e-04  5.6816727520822567e+00 4.8747996145526615e+00 -5.1351039366731295e-04  5.6347524692929225e+00 4.9365059915406118e+00 4.7534444034996975e-04  5.5874118362402250e+00 4.9986623056783062e+00 -4.3637574508448648e-04  5.5405601450403443e+00 5.0607385785980243e+00 4.5893596284857430e-04  5.4941855603044942e+00 5.1221498729926900e+00 -4.2439934492815787e-04  5.4473662613113527e+00 5.1848089448923735e+00 4.2918663450982843e-04  5.4009859816131858e+00 5.2465451169287602e+00 -3.9354495677573482e-04  5.3551620389258803e+00 5.3085919453067421e+00 4.1766589523588473e-04  5.3087524491316778e+00 5.3710170005872042e+00 -3.9871873401551341e-04  5.2631836068685232e+00 5.43296603782659