<?xml version="1.0"?>
<VTKFile type="UnstructuredGrid"  version="0.1"  >
<UnstructuredGrid>
<Piece  NumberOfPoints="8241" NumberOfCells="16000">
<Points>
<DataArray  type="Float64"  NumberOfComponents="3"  format="ascii">-5 -1 0  -4.95 -1 0  -4.9 -1 0  -4.85 -1 0  -4.8 -1 0  -4.75 -1 0  -4.7 -1 0  -4.65 -1 0  -4.6 -1 0  -4.55 -1 0  -4.5 -1 0  -4.45 -1 0  -4.4 -1 0  -4.35 -1 0  -4.3 -1 0  -4.25 -1 0  -4.2 -1 0  -4.15 -1 0  -4.1 -1 0  -4.05 -1 0  -4 -1 0  -3.95 -1 0  -3.9 -1 0  -3.85 -1 0  -3.8 -1 0  -3.75 -1 0  -3.7 -1 0  -3.65 -1 0  -3.6 -1 0  -3.55 -1 0  -3.5 -1 0  -3.45 -1 0  -3.4 -1 0  -3.35 -1 0  -3.3 -1 0  -3.25 -1 0  -3.2 -1 0  -3.15 -1 0  -3.1 -1 0  -3.05 -1 0  -3 -1 0  -2.95 -1 0  -2.9 -1 0  -2.85 -1 0  -2.8 -1 0  -2.75 -1 0  -2.7 -1 0  -2.65 -1 0  -2.6 -1 0  -2.55 -1 0  -2.5 -1 0  -2.45 -1 0  -2.4 -1 0  -2.35 -1 0  -2.3 -1 0  -2.25 -1 0  -2.2 -1 0  -2.15 -1 0  -2.1 -1 0  -2.05 -1 0  -2 -1 0  -1.95 -1 0  -1.9 -1 0  -1.85 -1 0  -1.8 -1 0  -1.75 -1 0  -1.7 -1 0  -1.65 -1 0  -1.6 -1 0  -1.55 -1 0  -1.5 -1 0  -1.45 -1 0  -1.4 -1 0  -1.35 -1 0  -1.3 -1 0  -1.25 -1 0  -1.2 -1 0  -1.15 -1 0  -1.1 -1 0  -1.05 -1 0  -1 -1 0  -0.9500000000000002 -1 0  -0.9000000000000004 -1 0  -0.8499999999999996 -1 0  -0.7999999999999998 -1 0  -0.75 -1 0  -0.7000000000000002 -1 0  -0.6500000000000004 -1 0  -0.5999999999999996 -1 0  -0.5499999999999998 -1 0  -0.5 -1 0  -0.4500000000000002 -1 0  -0.4000000000000004 -1 0  -0.3499999999999996 -1 0  -0.2999999999999998 -1 0  -0.25 -1 0  -0.2000000000000002 -1 0  -0.1500000000000004 -1 0  -0.09999999999999964 -1 0  -0.04999999999999982 -1 0  0 -1 0  0.04999999999999982 -1 0  0.09999999999999964 -1 0  0.1500000000000004 -1 0  0.2000000000000002 -1 0  0.25 -1 0  0.2999999999999998 -1 0  0.3499999999999996 -1 0  0.4000000000000004 -1 0  0.4500000000000002 -1 0  0.5 -1 0  0.5499999999999998 -1 0  0.5999999999999996 -1 0  0.6500000000000004 -1 0  0.7000000000000002 -1 0  0.75 -1 0  0.7999999999999998 -1 0  0.8499999999999996 -1 0  0.9000000000000004 -1 0  0.9500000000000002 -1 0  1 -1 0  1.05 -1 0  1.1 -1 0  1.15 -1 0  1.2 -1 0  1.25 -1 0  1.3 -1 0  1.35 -1 0  1.4 -1 0  1.45 -1 0  1.5 -1 0  1.55 -1 0  1.6 -1 0  1.65 -1 0  1.7 -1 0  1.75 -1 0  1.8 -1 0  1.85 -1 0  1.9 -1 0  1.95 -1 0  2 -1 0  2.05 -1 0  2.1 -1 0  2.15 -1 0  2.2 -1 0  2.25 -1 0  2.3 -1 0  2.35 -1 0  2.4 -1 0  2.45 -1 0  2.5 -1 0  2.55 -1 0  2.6 -1 0  2.65 -1 0  2.7 -1 0  2.75 -1 0  2.8 -1 0  2.85 -1 0  2.9 -1 0  2.95 -1 0  3 -1 0  3.050000000000001 -1 0  3.1 -1 0  3.15 -1 0  3.199999999999999 -1 0  3.25 -1 0  3.300000000000001 -1 0  3.35 -1 0  3.4 -1 0  3.449999999999999 -1 0  3.5 -1 0  3.550000000000001 -1 0  3.6 -1 0  3.65 -1 0  3.699999999999999 -1 0  3.75 -1 0  3.800000000000001 -1 0  3.85 -1 0  3.9 -1 0  3.949999999999999 -1 0  4 -1 0  4.050000000000001 -1 0  4.1 -1 0  4.15 -1 0  4.199999999999999 -1 0  4.25 -1 0  4.300000000000001 -1 0  4.35 -1 0  4.4 -1 0  4.449999999999999 -1 0  4.5 -1 0  4.550000000000001 -1 0  4.6 -1 0  4.65 -1 0  4.699999999999999 -1 0  4.75 -1 0  4.800000000000001 -1 0  4.85 -1 0  4.9 -1 0  4.949999999999999 -1 0  5 -1 0  -5 -0.95 0  -4.95 -0.95 0  -4.9 -0.95 0  -4.85 -0.95 0  -4.8 -0.95 0  -4.75 -0.95 0  -4.7 -0.95 0  -4.65 -0.95 0  -4.6 -0.95 0  -4.55 -0.95 0  -4.5 -0.95 0  -4.45 -0.95 0  -4.4 -0.95 0  -4.35 -0.95 0  -4.3 -0.95 0  -4.25 -0.95 0  -4.2 -0.95 0  -4.15 -0.95 0  -4.1 -0.95 0  -4.05 -0.95 0  -4 -0.95 0  -3.95 -0.95 0  -3.9 -0.95 0  -3.85 -0.95 0  -3.8 -0.95 0  -3.75 -0.95 0  -3.7 -0.95 0  -3.65 -0.95 0  -3.6 -0.95 0  -3.55 -0.95 0  -3.5 -0.95 0  -3.45 -0.95 0  -3.4 -0.95 0  -3.35 -0.95 0  -3.3 -0.95 0  -3.25 -0.95 0  -3.2 -0.95 0  -3.15 -0.95 0  -3.1 -0.95 0  -3.05 -0.95 0  -3 -0.95 0  -2.95 -0.95 0  -2.9 -0.95 0  -2.85 -0.95 0  -2.8 -0.95 0  -2.75 -0.95 0  -2.7 -0.95 0  -2.65 -0.95 0  -2.6 -0.95 0  -2.55 -0.95 0  -2.5 -0.95 0  -2.45 -0.95 0  -2.4 -0.95 0  -2.35 -0.95 0  -2.3 -0.95 0  -2.25 -0.95 0  -2.2 -0.95 0  -2.15 -0.95 0  -2.1 -0.95 0  -2.05 -0.95 0  -2 -0.95 0  -1.95 -0.95 0  -1.9 -0.95 0  -1.85 -0.95 0  -1.8 -0.95 0  -1.75 -0.95 0  -1.7 -0.95 0  -1.65 -0.95 0  -1.6 -0.95 0  -1.55 -0.95 0  -1.5 -0.95 0  -1.45 -0.95 0  -1.4 -0.95 0  -1.35 -0.95 0  -1.3 -0.95 0  -1.25 -0.95 0  -1.2 -0.95 0  -1.15 -0.95 0  -1.1 -0.95 0  -1.05 -0.95 0  -1 -0.95 0  -0.9500000000000002 -0.95 0  -0.9000000000000004 -0.95 0  -0.8499999999999996 -0.95 0  -0.7999999999999998 -0.95 0  -0.75 -0.95 0  -0.7000000000000002 -0.95 0  -0.6500000000000004 -0.95 0  -0.5999999999999996 -0.95 0  -0.5499999999999998 -0.95 0  -0.5 -0.95 0  -0.4500000000000002 -0.95 0  -0.4000000000000004 -0.95 0  -0.3499999999999996 -0.95 0  -0.2999999999999998 -0.95 0  -0.25 -0.95 0  -0.2000000000000002 -0.95 0  -0.1500000000000004 -0.95 0  -0.09999999999999964 -0.95 0  -0.04999999999999982 -0.95 0  0 -0.95 0  0.04999999999999982 -0.95 0  0.09999999999999964 -0.95 0  0.1500000000000004 -0.95 0  0.2000000000000002 -0.95 0  0.25 -0.95 0  0.2999999999999998 -0.95 0  0.3499999999999996 -0.95 0  0.4000000000000004 -0.95 0  0.4500000000000002 -0.95 0  0.5 -0.95 0  0.5499999999999998 -0.95 0  0.5999999999999996 -0.95 0  0.6500000000000004 -0.95 0  0.7000000000000002 -0.95 0  0.75 -0.95 0  0.7999999999999998 -0.95 0  0.8499999999999996 -0.95 0  0.9000000000000004 -0.95 0  0.9500000000000002 -0.95 0  1 -0.95 0  1.05 -0.95 0  1.1 -0.95 0  1.15 -0.95 0  1.2 -0.95 0  1.25 -0.95 0  1.3 -0.95 0  1.35 -0.95 0  1.4 -0.95 0  1.45 -0.95 0  1.5 -0.95 0  1.55 -0.95 0  1.6 -0.95 0  1.65 -0.95 0  1.7 -0.95 0  1.75 -0.95 0  1.8 -0.95 0  1.85 -0.95 0  1.9 -0.95 0  1.95 -0.95 0  2 -0.95 0  2.05 -0.95 0  2.1 -0.95 0  2.15 -0.95 0  2.2 -0.95 0  2.25 -0.95 0  2.3 -0.95 0  2.35 -0.95 0  2.4 -0.95 0  2.45 -0.95 0  2.5 -0.95 0  2.55 -0.95 0  2.6 -0.95 0  2.65 -0.95 0  2.7 -0.95 0  2.75 -0.95 0  2.8 -0.95 0  2.85 -0.95 0  2.9 -0.95 0  2.95 -0.95 0  3 -0.95 0  3.050000000000001 -0.95 0  3.1 -0.95 0  3.15 -0.95 0  3.199999999999999 -0.95 0  3.25 -0.95 0  3.300000000000001 -0.95 0  3.35 -0.95 0  3.4 -0.95 0  3.449999999999999 -0.95 0  3.5 -0.95 0  3.550000000000001 -0.95 0  3.6 -0.95 0  3.65 -0.95 0  3.699999999999999 -0.95 0  3.75 -0.95 0  3.800000000000001 -0.95 0  3.85 -0.95 0  3.9 -0.95 0  3.949999999999999 -0.95 0  4 -0.95 0  4.050000000000001 -0.95 0  4.1 -0.95 0  4.15 -0.95 0  4.199999999999999 -0.95 0  4.25 -0.95 0  4.300000000000001 -0.95 0  4.35 -0.95 0  4.4 -0.95 0  4.449999999999999 -0.95 0  4.5 -0.95 0  4.550000000000001 -0.95 0  4.6 -0.95 0  4.65 -0.95 0  4.699999999999999 -0.95 0  4.75 -0.95 0  4.800000000000001 -0.95 0  4.85 -0.95 0  4.9 -0.95 0  4.949999999999999 -0.95 0  5 -0.95 0  -5 -0.9 0  -4.95 -0.9 0  -4.9 -0.9 0  -4.85 -0.9 0  -4.8 -0.9 0  -4.75 -0.9 0  -4.7 -0.9 0  -4.65 -0.9 0  -4.6 -0.9 0  -4.55 -0.9 0  -4.5 -0.9 0  -4.45 -0.9 0  -4.4 -0.9 0  -4.35 -0.9 0  -4.3 -0.9 0  -4.25 -0.9 0  -4.2 -0.9 0  -4.15 -0.9 0  -4.1 -0.9 0  -4.05 -0.9 0  -4 -0.9 0  -3.95 -0.9 0  -3.9 -0.9 0  -3.85 -0.9 0  -3.8 -0.9 0  -3.75 -0.9 0  -3.7 -0.9 0  -3.65 -0.9 0  -3.6 -0.9 0  -3.55 -0.9 0  -3.5 -0.9 0  -3.45 -0.9 0  -3.4 -0.9 0  -3.35 -0.9 0  -3.3 -0.9 0  -3.25 -0.9 0  -3.2 -0.9 0  -3.15 -0.9 0  -3.1 -0.9 0  -3.05 -0.9 0  -3 -0.9 0  -2.95 -0.9 0  -2.9 -0.9 0  -2.85 -0.9 0  -2.8 -0.9 0  -2.75 -0.9 0  -2.7 -0.9 0  -2.65 -0.9 0  -2.6 -0.9 0  -2.55 -0.9 0  -2.5 -0.9 0  -2.45 -0.9 0  -2.4 -0.9 0  -2.35 -0.9 0  -2.3 -0.9 0  -2.25 -0.9 0  -2.2 -0.9 0  -2.15 -0.9 0  -2.1 -0.9 0  -2.05 -0.9 0  -2 -0.9 0  -1.95 -0.9 0  -1.9 -0.9 0  -1.85 -0.9 0  -1.8 -0.9 0  -1.75 -0.9 0  -1.7 -0.9 0  -1.65 -0.9 0  -1.6 -0.9 0  -1.55 -0.9 0  -1.5 -0.9 0  -1.45 -0.9 0  -1.4 -0.9 0  -1.35 -0.9 0  -1.3 -0.9 0  -1.25 -0.9 0  -1.2 -0.9 0  -1.15 -0.9 0  -1.1 -0.9 0  -1.05 -0.9 0  -1 -0.9 0  -0.9500000000000002 -0.9 0  -0.9000000000000004 -0.9 0  -0.8499999999999996 -0.9 0  -0.7999999999999998 -0.9 0  -0.75 -0.9 0  -0.7000000000000002 -0.9 0  -0.6500000000000004 -0.9 0  -0.5999999999999996 -0.9 0  -0.5499999999999998 -0.9 0  -0.5 -0.9 0  -0.4500000000000002 -0.9 0  -0.4000000000000004 -0.9 0  -0.3499999999999996 -0.9 0  -0.2999999999999998 -0.9 0  -0.25 -0.9 0  -0.2000000000000002 -0.9 0  -0.1500000000000004 -0.9 0  -0.09999999999999964 -0.9 0  -0.04999999999999982 -0.9 0  0 -0.9 0  0.04999999999999982 -0.9 0  0.09999999999999964 -0.9 0  0.1500000000000004 -0.9 0  0.2000000000000002 -0.9 0  0.25 -0.9 0  0.2999999999999998 -0.9 0  0.3499999999999996 -0.9 0  0.4000000000000004 -0.9 0  0.4500000000000002 -0.9 0  0.5 -0.9 0  0.5499999999999998 -0.9 0  0.5999999999999996 -0.9 0  0.6500000000000004 -0.9 0  0.7000000000000002 -0.9 0  0.75 -0.9 0  0.7999999999999998 -0.9 0  0.8499999999999996 -0.9 0  0.9000000000000004 -0.9 0  0.9500000000000002 -0.9 0  1 -0.9 0  1.05 -0.9 0  1.1 -0.9 0  1.15 -0.9 0  1.2 -0.9 0  1.25 -0.9 0  1.3 -0.9 0  1.35 -0.9 0  1.4 -0.9 0  1.45 -0.9 0  1.5 -0.9 0  1.55 -0.9 0  1.6 -0.9 0  1.65 -0.9 0  1.7 -0.9 0  1.75 -0.9 0  1.8 -0.9 0  1.85 -0.9 0  1.9 -0.9 0  1.95 -0.9 0  2 -0.9 0  2.05 -0.9 0  2.1 -0.9 0  2.15 -0.9 0  2.2 -0.9 0  2.25 -0.9 0  2.3 -0.9 0  2.35 -0.9 0  2.4 -0.9 0  2.45 -0.9 0  2.5 -0.9 0  2.55 -0.9 0  2.6 -0.9 0  2.65 -0.9 0  2.7 -0.9 0  2.75 -0.9 0  2.8 -0.9 0  2.85 -0.9 0  2.9 -0.9 0  2.95 -0.9 0  3 -0.9 0  3.050000000000001 -0.9 0  3.1 -0.9 0  3.15 -0.9 0  3.199999999999999 -0.9 0  3.25 -0.9 0  3.300000000000001 -0.9 0  3.35 -0.9 0  3.4 -0.9 0  3.449999999999999 -0.9 0  3.5 -0.9 0  3.550000000000001 -0.9 0  3.6 -0.9 0  3.65 -0.9 0  3.699999999999999 -0.9 0  3.75 -0.9 0  3.800000000000001 -0.9 0  3.85 -0.9 0  3.9 -0.9 0  3.949999999999999 -0.9 0  4 -0.9 0  4.050000000000001 -0.9 0  4.1 -0.9 0  4.15 -0.9 0  4.199999999999999 -0.9 0  4.25 -0.9 0  4.300000000000001 -0.9 0  4.35 -0.9 0  4.4 -0.9 0  4.449999999999999 -0.9 0  4.5 -0.9 0  4.550000000000001 -0.9 0  4.6 -0.9 0  4.65 -0.9 0  4.699999999999999 -0.9 0  4.75 -0.9 0  4.800000000000001 -0.9 0  4.85 -0.9 0  4.9 -0.9 0  4.949999999999999 -0.9 0  5 -0.9 0  -5 -0.85 0  -4.95 -0.85 0  -4.9 -0.85 0  -4.85 -0.85 0  -4.8 -0.85 0  -4.75 -0.85 0  -4.7 -0.85 0  -4.65 -0.85 0  -4.6 -0.85 0  -4.55 -0.85 0  -4.5 -0.85 0  -
[...]
<PointData  Vectors="f_15"> 
<DataArray  type="Float64"  Name="f_15"  NumberOfComponents="3" format="ascii">2.9612745779922784e+00 0.0000000000000000e+00 0.0000000000000000e+00  2.9659492278495083e+00 1.7769064993684490e-02 0.0000000000000000e+00  2.9582087851961436e+00 1.3465510101026108e-02 0.0000000000000000e+00  2.9609591063805074e+00 4.1155238554980149e-02 0.0000000000000000e+00  2.9503557396792153e+00 4.6043948134751385e-02 0.0000000000000000e+00  2.9502326507829166e+00 6.6028042219791735e-02 0.0000000000000000e+00  2.9388913114992579e+00 8.0298748112622456e-02 0.0000000000000000e+00  2.9348493828609561e+00 9.7404553903357546e-02 0.0000000000000000e+00  2.9224576792355874e+00 1.1694084192773482e-01 0.0000000000000000e+00  2.9165643171549624e+00 1.3375179561456405e-01 0.0000000000000000e+00  2.9018875338024270e+00 1.5866242960415250e-01 0.0000000000000000e+00  2.8941375123271005e+00 1.7468125370573809e-01 0.0000000000000000e+00  2.8790263904403335e+00 2.0485342049821345e-01 0.0000000000000000e+00  2.8683838629170557e+00 2.2085813086289047e-01 0.0000000000000000e+00  2.8526236895680648e+00 2.5570173975021965e-01 0.0000000000000000e+00  2.8411387154976029e+00 2.7094161528270155e-01 0.0000000000000000e+00  2.8234617176690433e+00 3.1166550023104167e-01 0.0000000000000000e+00  2.8111199451792439e+00 3.2478421334421098e-01 0.0000000000000000e+00  2.7933203145082106e+00 3.7139580974259595e-01 0.0000000000000000e+00  2.7790395883164503e+00 3.8242647108243100e-01 0.0000000000000000e+00  2.7609055316254971e+00 4.3500300463115149e-01 0.0000000000000000e+00  2.7465780717573289e+00 4.4217614611510836e-01 0.0000000000000000e+00  2.7268380773118448e+00 5.0285364818440315e-01 0.0000000000000000e+00  2.7124192906556637e+00 5.0407776223882972e-01 0.0000000000000000e+00  2.6927029069864354e+00 5.7322757083289133e-01 0.0000000000000000e+00  2.6770566320611873e+00 5.6865261368330866e-01 0.0000000000000000e+00  2.6571672898418361e+00 6.4611696975676247e-01 0.0000000000000000e+00  2.6419878680343496e+00 6.3423201210595892e-01 0.0000000000000000e+00  2.6206016300647450e+00 7.2191375700744931e-01 0.0000000000000000e+00  2.6058573919226116e+00 7.0142237724679002e-01 0.0000000000000000e+00  2.5844625653391531e+00 7.9851671276871394e-01 0.0000000000000000e+00  2.5689115429063838e+00 7.7033105902565246e-01 0.0000000000000000e+00  2.5474357823403153e+00 8.7846956074782456e-01 0.0000000000000000e+00  2.5324757819353612e+00 8.3515103959048409e-01 0.0000000000000000e+00  2.5098281811063012e+00 9.6651390456159225e-01 0.0000000000000000e+00  2.4951166362766055e+00 8.9489108811534956e-01 0.0000000000000000e+00  2.4729405035413969e+00 1.0575063026130886e+00 0.0000000000000000e+00  2.4572681139058070e+00 9.5914857935419162e-01 0.0000000000000000e+00  2.4350631313723685e+00 1.1387333734239986e+00 0.0000000000000000e+00  2.4205425264939762e+00 1.0411553981899508e+00 0.0000000000000000e+00  2.3964028380439348e+00 1.1958809960879608e+00 0.0000000000000000e+00  2.3834469725697107e+00 1.1521346025140642e+00 0.0000000000000000e+00  2.3583532449779185e+00 1.2249591931888975e+00 0.0000000000000000e+00  2.3461889857103744e+00 1.2824540649769498e+00 0.0000000000000000e+00  2.3193520345267937e+00 1.2531462120966257e+00 0.0000000000000000e+00  2.3097946126143962e+00 1.3946222749548280e+00 0.0000000000000000e+00  2.2803712514078920e+00 1.3163700912212566e+00 0.0000000000000000e+00  2.2722345749335715e+00 1.4722001617829901e+00 0.0000000000000000e+00  2.2432656288752608e+00 1.4025866430950698e+00 0.0000000000000000e+00  2.2339564743370164e+00 1.5460586133512562e+00 0.0000000000000000e+00  2.2058820505709780e+00 1.4835261790700669e+00 0.0000000000000000e+00  2.1968572645973108e+00 1.6212701204463764e+00 0.0000000000000000e+00  2.1681335460473083e+00 1.5739342604739985e+00 0.0000000000000000e+00  2.1592607914286024e+00 1.6869411219558419e+00 0.0000000000000000e+00  2.1317754857968132e+00 1.6621187662608194e+00 0.0000000000000000e+00  2.1211454400049901e+00 1.7645891432966125e+00 0.0000000000000000e+00  2.0952841636325599e+00 1.7430873436891519e+00 0.0000000000000000e+00  2.0845812358393632e+00 1.8365997992135403e+00 0.0000000000000000e+00  2.0579787487593411e+00 1.8330029167191921e+00 0.0000000000000000e+00  2.0487354085962730e+00 1.9079093499818398e+00 0.0000000000000000e+00  2.0217321971311275e+00 1.9167977774537832e+00 0.0000000000000000e+00  2.0124043140814680e+00 1.9824563256413021e+00 0.0000000000000000e+00  1.9865713385729336e+00 1.9988251259351992e+00 0.0000000000000000e+00  1.9773464694338567e+00 2.0577649673147542e+00 0.0000000000000000e+00  1.9513005381240205e+00 2.0798179804580950e+00 0.0000000000000000e+00  1.9437390554062486e+00 2.1288876227376381e+00 0.0000000000000000e+00  1.9179415076378696e+00 2.1571537792469928e+00 0.0000000000000000e+00  1.9109030715327766e+00 2.2039540958727959e+00 0.0000000000000000e+00  1.8871272552059943e+00 2.2262296842087523e+00 0.0000000000000000e+00  1.8824301696913330e+00 2.2669954841448630e+00 0.0000000000000000e+00  1.8601301680895053e+00 2.2903479079391609e+00 0.0000000000000000e+00  1.8610903868230824e+00 2.3129190681724894e+00 0.0000000000000000e+00  1.8430712061192538e+00 2.3340662615464534e+00 0.0000000000000000e+00  1.8493911031877079e+00 2.3354949273651959e+00 0.0000000000000000e+00  1.8378503380459195e+00 2.3493134103467432e+00 0.0000000000000000e+00  1.8485161618884425e+00 2.3331057713339090e+00 0.0000000000000000e+00  1.8383669695207545e+00 2.3544147922598371e+00 0.0000000000000000e+00  1.8499630445884423e+00 2.3239799943879302e+00 0.0000000000000000e+00  1.8402928187858982e+00 2.3543864648721486e+00 0.0000000000000000e+00  1.8497497369285514e+00 2.3208270990409980e+00 0.0000000000000000e+00  1.8419942807200975e+00 2.3528915774415595e+00 0.0000000000000000e+00  1.8500873341929875e+00 2.3185537874045830e+00 0.0000000000000000e+00  1.8429325378308181e+00 2.3525860026711864e+00 0.0000000000000000e+00  1.8498538701776088e+00 2.3168913346045672e+00 0.0000000000000000e+00  1.8445317296211092e+00 2.3498620514457893e+00 0.0000000000000000e+00  1.8487250121762129e+00 2.3197008776401318e+00 0.0000000000000000e+00  1.8462888360592438e+00 2.3455208842226343e+00 0.0000000000000000e+00  1.8481005886396815e+00 2.3210754620967649e+00 0.0000000000000000e+00  1.8478404774285877e+00 2.3422707912676040e+00 0.0000000000000000e+00  1.8463543924868588e+00 2.3244646104343394e+00 0.0000000000000000e+00  1.8495847014869398e+00 2.3378200362347488e+00 0.0000000000000000e+00  1.8451693425839495e+00 2.3289837220109866e+00 0.0000000000000000e+00  1.8508378490625754e+00 2.3325469898869522e+00 0.0000000000000000e+00  1.8444141003371830e+00 2.3321754934992196e+00 0.0000000000000000e+00  1.8520890699031787e+00 2.3290899764317712e+00 0.0000000000000000e+00  1.8427989911396230e+00 2.3359643664620582e+00 0.0000000000000000e+00  1.8536534914496547e+00 2.3246179418049877e+00 0.0000000000000000e+00  1.8420604231151358e+00 2.3395230555187774e+00 0.0000000000000000e+00  1.8539663480600759e+00 2.3212254288184404e+00 0.0000000000000000e+00  1.8416251878680314e+00 2.3423928222862527e+00 0.0000000000000000e+00  1.8548912002579740e+00 2.3176286201615932e+00 0.0000000000000000e+00  1.8411589626539551e+00 2.3448644746754170e+00 0.0000000000000000e+00  1.8540200178194577e+00 2.3169806538614477e+00 0.0000000000000000e+00  1.8431508769610234e+00 2.3432743676048435e+00 0.0000000000000000e+00  1.8519029144427752e+00 2.3192080896056555e+00 0.0000000000000000e+00  1.8445351915280668e+00 2.3403346936369518e+00 0.0000000000000000e+00  1.8520884260647963e+00 2.3203951840422978e+00 0.0000000000000000e+00  1.8430350450722595e+00 2.3407210544317083e+00 0.0000000000000000e+00  1.8531919029768804e+00 2.3198996919750394e+00 0.0000000000000000e+00  1.8432868582631450e+00 2.3383052887258211e+00 0.0000000000000000e+00  1.8529643513236616e+00 2.3210660309907736e+00 0.0000000000000000e+00  1.8420378017773769e+00 2.3399978135312574e+00 0.0000000000000000e+00  1.8546575196757242e+00 2.3165927430903723e+00 0.0000000000000000e+00  1.8418507131860007e+00 2.3423231209749593e+00 0.0000000000000000e+00  1.8527381832832461e+00 2.3164856127288123e+00 0.0000000000000000e+00  1.8452727547395305e+00 2.3400279167200280e+00 0.0000000000000000e+00  1.8483917081046510e+00 2.3203310198518716e+00 0.0000000000000000e+00  1.8497582247950113e+00 2.3352176130853337e+00 0.0000000000000000e+00  1.8446387123495676e+00 2.3241362373635819e+00 0.0000000000000000e+00  1.8527288286465637e+00 2.3319730095494724e+00 0.0000000000000000e+00  1.8415928573370401e+00 2.3290674118896515e+00 0.0000000000000000e+00  1.8557950163302677e+00 2.3247977722262116e+00 0.0000000000000000e+00  1.8394478620028085e+00 2.3361109978689361e+00 0.0000000000000000e+00  1.8562618933949517e+00 2.3201153896272753e+00 0.0000000000000000e+00  1.8401161482585837e+00 2.3387327341817890e+00 0.0000000000000000e+00  1.8548436753310786e+00 2.3177090066774979e+00 0.0000000000000000e+00  1.8423335541645265e+00 2.3400028469272081e+00 0.0000000000000000e+00  1.8517690555185853e+00 2.3172807677581955e+00 0.0000000000000000e+00  1.8454502357112024e+00 2.3397014373620157e+00 0.0000000000000000e+00  1.8491472051246729e+00 2.3174146125342574e+00 0.0000000000000000e+00  1.8477455189918626e+00 2.3391164199704475e+00 0.0000000000000000e+00  1.8464899215779713e+00 2.3173219140609147e+00 0.0000000000000000e+00  1.8506472926769872e+00 2.3356681800971630e+00 0.0000000000000000e+00  1.8438103760196398e+00 2.3144212074413080e+00 0.0000000000000000e+00  1.8525332619265586e+00 2.3314662099294639e+00 0.0000000000000000e+00  1.8425850249309559e+00 2.3071449993311850e+00 0.0000000000000000e+00  1.8532767889614643e+00 2.3280888754441325e+00 0.0000000000000000e+00  1.8418146574274046e+00 2.2991280109933263e+00 0.0000000000000000e+00  1.8541903425441193e+00 2.3276141156567975e+00 0.0000000000000000e+00  1.8407691689353374e+00 2.2934938585874907e+00 0.0000000000000000e+00  1.8547966196081487e+00 2.3324292000129341e+00 0.0000000000000000e+00  1.8406938105675461e+00 2.2896665310711759e+00 0.0000000000000000e+00  1.8545871394978972e+00 2.3412829516420648e+00 0.0000000000000000e+00  1.8406176770542699e+00 2.2878536213204792e+00 0.0000000000000000e+00  1.8547764154733919e+00 2.3512645335242564e+00 0.0000000000000000e+00  1.8405862714307670e+00 2.2839026435311074e+00 0.0000000000000000e+00  1.8545204014178069e+00 2.3625264988013441e+00 0.0000000000000000e+00  1.8404847307160441e+00 2.2796456878783049e+00 0.0000000000000000e+00  1.8550476700413356e+00 2.3690550083463733e+00 0.0000000000000000e+00  1.8398658204396321e+00 2.2767045275521189e+00 0.0000000000000000e+00  1.8550237430367373e+00 2.3761497575624961e+00 0.0000000000000000e+00  1.8401591130076675e+00 2.2695940907191208e+00 0.0000000000000000e+00  1.8550090704073319e+00 2.3834179552582433e+00 0.0000000000000000e+00  1.8394370852926654e+00 2.2647293521281298e+00 0.0000000000000000e+00  1.8557458647256106e+00 2.3870921775913261e+00 0.0000000000000000e+00  1.8390762184519835e+00 2.2598237081222878e+00 0.0000000000000000e+00  1.8561051199326113e+00 2.3902465906794648e+00 0.0000000000000000e+00  1.8378857730153011e+00 2.2574946453495608e+00 0.0000000000000000e+00  1.8584828762855654e+00 2.3863419001916277e+00 0.0000000000000000e+00  1.8361015788048725e+00 2.2597801846366732e+00 0.0000000000000000e+00  1.8591261022838912e+00 2.3834241767789437e+00 0.0000000000000000e+00  1.8377740855458105e+00 2.2556454358525926e+00 0.0000000000000000e+00  1.8589392996695775e+00 2.3821742641163390e+00 0.0000000000000000e+00  1.8375823820391939e+00 2.2576802996866463e+00 0.0000000000000000e+00  1.8630998842159576e+00 2.3667529990961627e+00 0.0000000000000000e+00  1.8372112159439689e+00 2.2674164096964180e+00 0.0000000000000000e+00  1.8643456000269256e+00 2.3520671995424736e+00 0.0000000000000000e+00  1.8438425147767683e+00 2.2645618882065142e+00 0.0000000000000000e+00  1.8629665419176642e+00 2.3448706807432829e+00 0.0000000000000000e+00  1.8499850481997817e+00 2.2607019892590747e+00 0.0000000000000000e+00  1.8673283169470316e+00 2.3275577696581458e+00 0.0000000000000000e+00  1.8529448803083801e+00 2.2666057513224254e+00 0.0000000000000000e+00  1.8716385362471195e+00 2.3069047189033873e+00 0.0000000000000000e+00  1.8604395201544419e+00 2.2699773162208996e+00 0.0000000000000000e+00  1.8706010525313077e+00 2.2935906047112473e+00 0.0000000000000000e+00  1.8695148070540104e+00 2.2739605379394430e+00 0.0000000000000000e+00  1.8708098193251268e+00 2.2803845647287684e+00 0.0000000000000000e+00  1.8720943027109667e+00 2.2825631968498881e+00 0.0000000000000000e+00  1.8745746730134643e+00 2.2697492820093972e+00 0.0000000000000000e+00  1.8695029586361331e+00 2.2773575247076683e+00 0.0000000000000000e+00  1.8743431018715082e+00 2.2563730223439116e+00 0.0000000000000000e+00  1.8629209072752180e+00 2.2464406254016671e+00 0.0000000000000000e+00  1.8568879998979515e+00 2.1929045317438995e+00 0.0000000000000000e+00  1.8097059389844958e+00 2.1292554252997729e+00 0.0000000000000000e+00  1.7593559044777536e+00 1.9259115808771086e+00 0.0000000000000000e+00  1.5771126736127103e+00 1.5951069910011639e+00 0.0000000000000000e+00  1.2919144688883277e+00 6.9266815253237346e-01 0.0000000000000000e+00  1.0681806448455542e+00 1.8694943523430549e-01 0.0000000000000000e+00  1.0347990744159550e+00 -3.4478025525829258e-02 0.0000000000000000e+00  1.0149868597690306e+00 -3.4064119565061692e-03 0.0000000000000000e+00  1.0133966672677492e+00 -3.6339487265242533e-02 0.0000000000000000e+00  1.0205877719086240e+00 -2.3021528676372617e-02 0.0000000000000000e+00  9.9976114908183478e-01 -1.4106474396674151e-02 0.0000000000000000e+00  1.0259000269771152e+00 -3.3287872258170460e-02 0.0000000000000000e+00  9.9302515468840369e-01 -2.5579143420376847e-03 0.0000000000000000e+00  1.0223914882574718e+00 -3.7111912080431859e-02 0.0000000000000000e+00  9.9311513317693867e-01 7.0358566110273653e-04 0.0000000000000000e+00  1.0166957894227389e+00 -3.4548966889517176e-02 0.0000000000000000e+00  9.9174344712462470e-01 -1.9277130289114337e-03 0.0000000000000000e+00  1.0093901583508105e+00 -2.4490811809764777e-02 0.0000000000000000e+00  9.9419269642207608e-01 0.0000000000000000e+00 0.0000000000000000e+00  2.9690363518229823e+00 0.0000000000000000e+00 -1.1578801877251991e-02  2.9681847480074435e+00 1.6268919039476776e-02 4.0967182672367215e-03  2.9672539354292593e+00 3.4311487348976953e-02 1.6134228126088528e-03  2.9635462582337935e+00 4.9136110574218517e-02 -2.6934392385929333e-04  2.9598099635695490e+00 6.1098616285032596e-02 -3.6902991254406357e-05  2.9547522883737289e+00 8.0906225358746059e-02 2.0560838426768912e-04  2.9475449608828979e+00 9.4693714117821015e-02 1.2714488138840292e-04  2.9405977953189484e+00 1.1372000261984233e-01 -4.5390206699806764e-04  2.9319689868147636e+00 1.3178010778530777e-01 8.7953158014921721e-04  2.9219978756788709e+00 1.5175078242647391e-01 -1.3952661991627061e-03  2.9118305097904202e+00 1.7263670622492175e-01 1.7395854938169367e-03  2.9008027009723389e+00 1.9415275042347555e-01 -2.2459232687397535e-03  2.8879762114696770e+00 2.1853653931527547e-01 2.5322304994161676e-03  2.8758012586648327e+00 2.4100213654457894e-01 -3.0778105131251984e-03  2.8622679787673255e+00 2.6841285874868143e-01 3.3687669560848979e-03  2.8477983619526546e+00 2.9269738510575327e-01 -3.9335645544531402e-03  2.8334362146535232e+00 3.2228532767099760e-01 4.1089991285141077e-03  2.8185793694331167e+00 3.4794208986789976e-01 -4.5411329863697088e-03  2.8022012251221708e+00 3.8018980644021044e-01 4.5508917346006126e-03  2.7868138882793310e+00 4.0679642765630225e-01 -4.8373726923429845e-03  2.7702461869184005e+00 4.4057825357402114e-01 4.7329110318220574e-03  2.7531150759957685e+00 4.6936767492650799e-01 -4.8204655063727817e-03  2.7362288289210972e+00 5.0345945408557935e-01 4.4845313975728530e-03  2.7190617124478424e+00 5.3408200976212838e-01 -4.2351946583668995e-03  2.7006823988994140e+00 5.6908636998988782e-01 3.5913173847325832e-03  2.6833075899890573e+00 6.0109765314190666e-01 -2.9791090114695698e-03  2.6651434952601285e+00 6.3576099422862065e-01 2.0676723796644158e-03  2.6462870700061392e+00 6.7096098365854384e-01 -1.1047931702509043e-03  2.6282954058534296e+00 7.0375728919867642e-01 -2.8594986115250177e-05  2.6095064402670842e+00 7.4184300729086605e-01 1.1824439243469475e-03  2.5904895091397688e+00 7.7372588857779767e-01 -2.2962429770524745e-03  2.5716731331532525e+00 8.1469897435471761e-01 3.3817820996112401e-03  2.5531979046239774e+00 8.4279135637059721e-01 -4.4486214661291681e-03  2.5330539434856814e+00 8.9135791604756021e-01 6.1145431293703565e-03  2.5152098428230283e+00 9.1161155047312237e-01 -8.7325161367286536e-03  2.4948430139669457e+00 9.6827217009734234e-01 1.3548567736966657e-02  2.4771229395597616e+00 9.8361874283410267e-01 -2.0893006635625190e-02  2.4553303564873001e+00 1.0446577695922477e+00 3.1196360483284398e-02  2.4404198019334880e+00 1.0567101905170455e+00 -4.3082284581573628e-02  2.4150728490819531e+00 1.1231203880179825e+00 5.4953809050934138e-02  2.4030305063146851e+00 1.1310530316033416e+00 -6.2830872091410597e-02  2.3764221242214725e+00 1.1997186848559900e+00 6.5447037638933059e-02  2.3644704051419616e+00 1.2105232558428249e+00 -5.8930376314915579e-02  2.3385860632973032e+00 1.2724420278970010e+00 4.6158028568960174e-02  2.3257400293174202e+00 1.2921211112136073e+00 -2.7422752966406526e-02  2.3017673418983682e+00 1.3458257515739755e+00 9.0241186309597092e-03  2.2859025242057558e+00 1.3738265599853425e+00 5.3416699771303283e-03  2.2661960864223754e+00 1.4173761430437448e+00 -1.3081956842500566e-02  2.2466666248235141e+00 1.4602865334955677e+00 1.3364146062761545e-02  2.2290234090170671e+00 1.4883439744691502e+00 -1.0551752648381860e-02  2.2096583612860341e+00 1.5398807582522160e+00 6.0761619150850104e-03  2.1908603872337733e+00 1.5745492047080014e+00 -3.5902643065716462e-03  2.1724235220500367e+00 1.6082353739338897e+00 1.1791840872009589e-03  2.1540587245016067e+00 1.6589101687649199e+00 3.0882935642926468e-04  2.1347847961927977e+00 1.6907716116106888e+00 -2.0730975622800288e-03  2.1171170767793077e+00 1.7334651071166196e+00 3.1575731070541424e-03  2.0985735796476179e+00 1.7684444491200777e+00 -3.6761068212481278e-03  2.0797254985172553e+00 1.8200561030556188e+00 3.3961328943727144e-03  2.0625111435334604e+00 1.8435310133189100e+00 -1.9838008953564899e-03  2.0438783417759159e+00 1.8960043738124142e+00 -4.6639005180732586e-04  2.0256348772786459e+00 1.9288840647120038e+00 2.5469324688271126e-03  2.0089798551369320e+00 1.9702084109885927e+00 -3.1878803015418008e-03  1.9899773691273448e+00 2.0098281887684806e+00 3.0731450320151447e-03  1.9735738814288470e+00 2.0472423219346503e+00 -3.4465398731106573e-03  1.9555912480508650e+00 2.0864909918752881e+00 3.9608086080071695e-03  1.9396669614094348e+00 2.1239238505387705e+00 -4.2511872520329874e-03  1.9216295241671464e+00 2.1649814684073063e+00 4.1870291920195011e-03  1.9077616827742709e+00 2.1927262203606648e+00 -4.4474170808337992e-03  1.8910003251320449e+00 2.2349333476289464e+00 4.2238684415893445e-03  1.8781492307052134e+00 2.2622066695053404e+00 -3.7765590124933359e-03  1.8653394117852833e+00 2.2921605611965803e+00 3.5404695056189981e-03  1.8560485524095687e+00 2.3138369843280460e+00 -3.7919683326748631e-03  1.8473797504725313e+00 2.3323794284844039e+00 3.6924194473656399e-03  1.8453895733684662e+00 2.3382358449003511e+00 -3.8056263184119581e-03  1.8421760304708910e+00 2.3452531044380054e+00 4.2896919048720315e-03  1.8438924504379000e+00 2.3422642076979718e+00 -4.7841597688126234e-03  1.8432843875186502e+00 2.3415237574133312e+00 4.7946130576989304e-03  1.8455395282588536e+00 2.3379915288680708e+00 -4.9163342093998504e-03  1.8437454704931702e+00 2.3418831644013505e+00 4.8837771352497244e-03  1.8467825110650757e+00 2.3339662669987624e+00 -4.6507222078976534e-03  1.8451604708272789e+00 2.3396945022383848e+00 4.3835122400009783e-03  1.8468532635748003e+00 2.3331667648594658e+00 -4.4212432232758102e-03  1.8458955778781707e+00 2.33761