<?xml version="1.0"?>
<VTKFile type="UnstructuredGrid"  version="0.1"  >
<UnstructuredGrid>
<Piece  NumberOfPoints="8241" NumberOfCells="16000">
<Points>
<DataArray  type="Float64"  NumberOfComponents="3"  format="ascii">-5 -1 0  -4.95 -1 0  -4.9 -1 0  -4.85 -1 0  -4.8 -1 0  -4.75 -1 0  -4.7 -1 0  -4.65 -1 0  -4.6 -1 0  -4.55 -1 0  -4.5 -1 0  -4.45 -1 0  -4.4 -1 0  -4.35 -1 0  -4.3 -1 0  -4.25 -1 0  -4.2 -1 0  -4.15 -1 0  -4.1 -1 0  -4.05 -1 0  -4 -1 0  -3.95 -1 0  -3.9 -1 0  -3.85 -1 0  -3.8 -1 0  -3.75 -1 0  -3.7 -1 0  -3.65 -1 0  -3.6 -1 0  -3.55 -1 0  -3.5 -1 0  -3.45 -1 0  -3.4 -1 0  -3.35 -1 0  -3.3 -1 0  -3.25 -1 0  -3.2 -1 0  -3.15 -1 0  -3.1 -1 0  -3.05 -1 0  -3 -1 0  -2.95 -1 0  -2.9 -1 0  -2.85 -1 0  -2.8 -1 0  -2.75 -1 0  -2.7 -1 0  -2.65 -1 0  -2.6 -1 0  -2.55 -1 0  -2.5 -1 0  -2.45 -1 0  -2.4 -1 0  -2.35 -1 0  -2.3 -1 0  -2.25 -1 0  -2.2 -1 0  -2.15 -1 0  -2.1 -1 0  -2.05 -1 0  -2 -1 0  -1.95 -1 0  -1.9 -1 0  -1.85 -1 0  -1.8 -1 0  -1.75 -1 0  -1.7 -1 0  -1.65 -1 0  -1.6 -1 0  -1.55 -1 0  -1.5 -1 0  -1.45 -1 0  -1.4 -1 0  -1.35 -1 0  -1.3 -1 0  -1.25 -1 0  -1.2 -1 0  -1.15 -1 0  -1.1 -1 0  -1.05 -1 0  -1 -1 0  -0.9500000000000002 -1 0  -0.9000000000000004 -1 0  -0.8499999999999996 -1 0  -0.7999999999999998 -1 0  -0.75 -1 0  -0.7000000000000002 -1 0  -0.6500000000000004 -1 0  -0.5999999999999996 -1 0  -0.5499999999999998 -1 0  -0.5 -1 0  -0.4500000000000002 -1 0  -0.4000000000000004 -1 0  -0.3499999999999996 -1 0  -0.2999999999999998 -1 0  -0.25 -1 0  -0.2000000000000002 -1 0  -0.1500000000000004 -1 0  -0.09999999999999964 -1 0  -0.04999999999999982 -1 0  0 -1 0  0.04999999999999982 -1 0  0.09999999999999964 -1 0  0.1500000000000004 -1 0  0.2000000000000002 -1 0  0.25 -1 0  0.2999999999999998 -1 0  0.3499999999999996 -1 0  0.4000000000000004 -1 0  0.4500000000000002 -1 0  0.5 -1 0  0.5499999999999998 -1 0  0.5999999999999996 -1 0  0.6500000000000004 -1 0  0.7000000000000002 -1 0  0.75 -1 0  0.7999999999999998 -1 0  0.8499999999999996 -1 0  0.9000000000000004 -1 0  0.9500000000000002 -1 0  1 -1 0  1.05 -1 0  1.1 -1 0  1.15 -1 0  1.2 -1 0  1.25 -1 0  1.3 -1 0  1.35 -1 0  1.4 -1 0  1.45 -1 0  1.5 -1 0  1.55 -1 0  1.6 -1 0  1.65 -1 0  1.7 -1 0  1.75 -1 0  1.8 -1 0  1.85 -1 0  1.9 -1 0  1.95 -1 0  2 -1 0  2.05 -1 0  2.1 -1 0  2.15 -1 0  2.2 -1 0  2.25 -1 0  2.3 -1 0  2.35 -1 0  2.4 -1 0  2.45 -1 0  2.5 -1 0  2.55 -1 0  2.6 -1 0  2.65 -1 0  2.7 -1 0  2.75 -1 0  2.8 -1 0  2.85 -1 0  2.9 -1 0  2.95 -1 0  3 -1 0  3.050000000000001 -1 0  3.1 -1 0  3.15 -1 0  3.199999999999999 -1 0  3.25 -1 0  3.300000000000001 -1 0  3.35 -1 0  3.4 -1 0  3.449999999999999 -1 0  3.5 -1 0  3.550000000000001 -1 0  3.6 -1 0  3.65 -1 0  3.699999999999999 -1 0  3.75 -1 0  3.800000000000001 -1 0  3.85 -1 0  3.9 -1 0  3.949999999999999 -1 0  4 -1 0  4.050000000000001 -1 0  4.1 -1 0  4.15 -1 0  4.199999999999999 -1 0  4.25 -1 0  4.300000000000001 -1 0  4.35 -1 0  4.4 -1 0  4.449999999999999 -1 0  4.5 -1 0  4.550000000000001 -1 0  4.6 -1 0  4.65 -1 0  4.699999999999999 -1 0  4.75 -1 0  4.800000000000001 -1 0  4.85 -1 0  4.9 -1 0  4.949999999999999 -1 0  5 -1 0  -5 -0.95 0  -4.95 -0.95 0  -4.9 -0.95 0  -4.85 -0.95 0  -4.8 -0.95 0  -4.75 -0.95 0  -4.7 -0.95 0  -4.65 -0.95 0  -4.6 -0.95 0  -4.55 -0.95 0  -4.5 -0.95 0  -4.45 -0.95 0  -4.4 -0.95 0  -4.35 -0.95 0  -4.3 -0.95 0  -4.25 -0.95 0  -4.2 -0.95 0  -4.15 -0.95 0  -4.1 -0.95 0  -4.05 -0.95 0  -4 -0.95 0  -3.95 -0.95 0  -3.9 -0.95 0  -3.85 -0.95 0  -3.8 -0.95 0  -3.75 -0.95 0  -3.7 -0.95 0  -3.65 -0.95 0  -3.6 -0.95 0  -3.55 -0.95 0  -3.5 -0.95 0  -3.45 -0.95 0  -3.4 -0.95 0  -3.35 -0.95 0  -3.3 -0.95 0  -3.25 -0.95 0  -3.2 -0.95 0  -3.15 -0.95 0  -3.1 -0.95 0  -3.05 -0.95 0  -3 -0.95 0  -2.95 -0.95 0  -2.9 -0.95 0  -2.85 -0.95 0  -2.8 -0.95 0  -2.75 -0.95 0  -2.7 -0.95 0  -2.65 -0.95 0  -2.6 -0.95 0  -2.55 -0.95 0  -2.5 -0.95 0  -2.45 -0.95 0  -2.4 -0.95 0  -2.35 -0.95 0  -2.3 -0.95 0  -2.25 -0.95 0  -2.2 -0.95 0  -2.15 -0.95 0  -2.1 -0.95 0  -2.05 -0.95 0  -2 -0.95 0  -1.95 -0.95 0  -1.9 -0.95 0  -1.85 -0.95 0  -1.8 -0.95 0  -1.75 -0.95 0  -1.7 -0.95 0  -1.65 -0.95 0  -1.6 -0.95 0  -1.55 -0.95 0  -1.5 -0.95 0  -1.45 -0.95 0  -1.4 -0.95 0  -1.35 -0.95 0  -1.3 -0.95 0  -1.25 -0.95 0  -1.2 -0.95 0  -1.15 -0.95 0  -1.1 -0.95 0  -1.05 -0.95 0  -1 -0.95 0  -0.9500000000000002 -0.95 0  -0.9000000000000004 -0.95 0  -0.8499999999999996 -0.95 0  -0.7999999999999998 -0.95 0  -0.75 -0.95 0  -0.7000000000000002 -0.95 0  -0.6500000000000004 -0.95 0  -0.5999999999999996 -0.95 0  -0.5499999999999998 -0.95 0  -0.5 -0.95 0  -0.4500000000000002 -0.95 0  -0.4000000000000004 -0.95 0  -0.3499999999999996 -0.95 0  -0.2999999999999998 -0.95 0  -0.25 -0.95 0  -0.2000000000000002 -0.95 0  -0.1500000000000004 -0.95 0  -0.09999999999999964 -0.95 0  -0.04999999999999982 -0.95 0  0 -0.95 0  0.04999999999999982 -0.95 0  0.09999999999999964 -0.95 0  0.1500000000000004 -0.95 0  0.2000000000000002 -0.95 0  0.25 -0.95 0  0.2999999999999998 -0.95 0  0.3499999999999996 -0.95 0  0.4000000000000004 -0.95 0  0.4500000000000002 -0.95 0  0.5 -0.95 0  0.5499999999999998 -0.95 0  0.5999999999999996 -0.95 0  0.6500000000000004 -0.95 0  0.7000000000000002 -0.95 0  0.75 -0.95 0  0.7999999999999998 -0.95 0  0.8499999999999996 -0.95 0  0.9000000000000004 -0.95 0  0.9500000000000002 -0.95 0  1 -0.95 0  1.05 -0.95 0  1.1 -0.95 0  1.15 -0.95 0  1.2 -0.95 0  1.25 -0.95 0  1.3 -0.95 0  1.35 -0.95 0  1.4 -0.95 0  1.45 -0.95 0  1.5 -0.95 0  1.55 -0.95 0  1.6 -0.95 0  1.65 -0.95 0  1.7 -0.95 0  1.75 -0.95 0  1.8 -0.95 0  1.85 -0.95 0  1.9 -0.95 0  1.95 -0.95 0  2 -0.95 0  2.05 -0.95 0  2.1 -0.95 0  2.15 -0.95 0  2.2 -0.95 0  2.25 -0.95 0  2.3 -0.95 0  2.35 -0.95 0  2.4 -0.95 0  2.45 -0.95 0  2.5 -0.95 0  2.55 -0.95 0  2.6 -0.95 0  2.65 -0.95 0  2.7 -0.95 0  2.75 -0.95 0  2.8 -0.95 0  2.85 -0.95 0  2.9 -0.95 0  2.95 -0.95 0  3 -0.95 0  3.050000000000001 -0.95 0  3.1 -0.95 0  3.15 -0.95 0  3.199999999999999 -0.95 0  3.25 -0.95 0  3.300000000000001 -0.95 0  3.35 -0.95 0  3.4 -0.95 0  3.449999999999999 -0.95 0  3.5 -0.95 0  3.550000000000001 -0.95 0  3.6 -0.95 0  3.65 -0.95 0  3.699999999999999 -0.95 0  3.75 -0.95 0  3.800000000000001 -0.95 0  3.85 -0.95 0  3.9 -0.95 0  3.949999999999999 -0.95 0  4 -0.95 0  4.050000000000001 -0.95 0  4.1 -0.95 0  4.15 -0.95 0  4.199999999999999 -0.95 0  4.25 -0.95 0  4.300000000000001 -0.95 0  4.35 -0.95 0  4.4 -0.95 0  4.449999999999999 -0.95 0  4.5 -0.95 0  4.550000000000001 -0.95 0  4.6 -0.95 0  4.65 -0.95 0  4.699999999999999 -0.95 0  4.75 -0.95 0  4.800000000000001 -0.95 0  4.85 -0.95 0  4.9 -0.95 0  4.949999999999999 -0.95 0  5 -0.95 0  -5 -0.9 0  -4.95 -0.9 0  -4.9 -0.9 0  -4.85 -0.9 0  -4.8 -0.9 0  -4.75 -0.9 0  -4.7 -0.9 0  -4.65 -0.9 0  -4.6 -0.9 0  -4.55 -0.9 0  -4.5 -0.9 0  -4.45 -0.9 0  -4.4 -0.9 0  -4.35 -0.9 0  -4.3 -0.9 0  -4.25 -0.9 0  -4.2 -0.9 0  -4.15 -0.9 0  -4.1 -0.9 0  -4.05 -0.9 0  -4 -0.9 0  -3.95 -0.9 0  -3.9 -0.9 0  -3.85 -0.9 0  -3.8 -0.9 0  -3.75 -0.9 0  -3.7 -0.9 0  -3.65 -0.9 0  -3.6 -0.9 0  -3.55 -0.9 0  -3.5 -0.9 0  -3.45 -0.9 0  -3.4 -0.9 0  -3.35 -0.9 0  -3.3 -0.9 0  -3.25 -0.9 0  -3.2 -0.9 0  -3.15 -0.9 0  -3.1 -0.9 0  -3.05 -0.9 0  -3 -0.9 0  -2.95 -0.9 0  -2.9 -0.9 0  -2.85 -0.9 0  -2.8 -0.9 0  -2.75 -0.9 0  -2.7 -0.9 0  -2.65 -0.9 0  -2.6 -0.9 0  -2.55 -0.9 0  -2.5 -0.9 0  -2.45 -0.9 0  -2.4 -0.9 0  -2.35 -0.9 0  -2.3 -0.9 0  -2.25 -0.9 0  -2.2 -0.9 0  -2.15 -0.9 0  -2.1 -0.9 0  -2.05 -0.9 0  -2 -0.9 0  -1.95 -0.9 0  -1.9 -0.9 0  -1.85 -0.9 0  -1.8 -0.9 0  -1.75 -0.9 0  -1.7 -0.9 0  -1.65 -0.9 0  -1.6 -0.9 0  -1.55 -0.9 0  -1.5 -0.9 0  -1.45 -0.9 0  -1.4 -0.9 0  -1.35 -0.9 0  -1.3 -0.9 0  -1.25 -0.9 0  -1.2 -0.9 0  -1.15 -0.9 0  -1.1 -0.9 0  -1.05 -0.9 0  -1 -0.9 0  -0.9500000000000002 -0.9 0  -0.9000000000000004 -0.9 0  -0.8499999999999996 -0.9 0  -0.7999999999999998 -0.9 0  -0.75 -0.9 0  -0.7000000000000002 -0.9 0  -0.6500000000000004 -0.9 0  -0.5999999999999996 -0.9 0  -0.5499999999999998 -0.9 0  -0.5 -0.9 0  -0.4500000000000002 -0.9 0  -0.4000000000000004 -0.9 0  -0.3499999999999996 -0.9 0  -0.2999999999999998 -0.9 0  -0.25 -0.9 0  -0.2000000000000002 -0.9 0  -0.1500000000000004 -0.9 0  -0.09999999999999964 -0.9 0  -0.04999999999999982 -0.9 0  0 -0.9 0  0.04999999999999982 -0.9 0  0.09999999999999964 -0.9 0  0.1500000000000004 -0.9 0  0.2000000000000002 -0.9 0  0.25 -0.9 0  0.2999999999999998 -0.9 0  0.3499999999999996 -0.9 0  0.4000000000000004 -0.9 0  0.4500000000000002 -0.9 0  0.5 -0.9 0  0.5499999999999998 -0.9 0  0.5999999999999996 -0.9 0  0.6500000000000004 -0.9 0  0.7000000000000002 -0.9 0  0.75 -0.9 0  0.7999999999999998 -0.9 0  0.8499999999999996 -0.9 0  0.9000000000000004 -0.9 0  0.9500000000000002 -0.9 0  1 -0.9 0  1.05 -0.9 0  1.1 -0.9 0  1.15 -0.9 0  1.2 -0.9 0  1.25 -0.9 0  1.3 -0.9 0  1.35 -0.9 0  1.4 -0.9 0  1.45 -0.9 0  1.5 -0.9 0  1.55 -0.9 0  1.6 -0.9 0  1.65 -0.9 0  1.7 -0.9 0  1.75 -0.9 0  1.8 -0.9 0  1.85 -0.9 0  1.9 -0.9 0  1.95 -0.9 0  2 -0.9 0  2.05 -0.9 0  2.1 -0.9 0  2.15 -0.9 0  2.2 -0.9 0  2.25 -0.9 0  2.3 -0.9 0  2.35 -0.9 0  2.4 -0.9 0  2.45 -0.9 0  2.5 -0.9 0  2.55 -0.9 0  2.6 -0.9 0  2.65 -0.9 0  2.7 -0.9 0  2.75 -0.9 0  2.8 -0.9 0  2.85 -0.9 0  2.9 -0.9 0  2.95 -0.9 0  3 -0.9 0  3.050000000000001 -0.9 0  3.1 -0.9 0  3.15 -0.9 0  3.199999999999999 -0.9 0  3.25 -0.9 0  3.300000000000001 -0.9 0  3.35 -0.9 0  3.4 -0.9 0  3.449999999999999 -0.9 0  3.5 -0.9 0  3.550000000000001 -0.9 0  3.6 -0.9 0  3.65 -0.9 0  3.699999999999999 -0.9 0  3.75 -0.9 0  3.800000000000001 -0.9 0  3.85 -0.9 0  3.9 -0.9 0  3.949999999999999 -0.9 0  4 -0.9 0  4.050000000000001 -0.9 0  4.1 -0.9 0  4.15 -0.9 0  4.199999999999999 -0.9 0  4.25 -0.9 0  4.300000000000001 -0.9 0  4.35 -0.9 0  4.4 -0.9 0  4.449999999999999 -0.9 0  4.5 -0.9 0  4.550000000000001 -0.9 0  4.6 -0.9 0  4.65 -0.9 0  4.699999999999999 -0.9 0  4.75 -0.9 0  4.800000000000001 -0.9 0  4.85 -0.9 0  4.9 -0.9 0  4.949999999999999 -0.9 0  5 -0.9 0  -5 -0.85 0  -4.95 -0.85 0  -4.9 -0.85 0  -4.85 -0.85 0  -4.8 -0.85 0  -4.75 -0.85 0  -4.7 -0.85 0  -4.65 -0.85 0  -4.6 -0.85 0  -4.55 -0.85 0  -4.5 -0.85 0  -
[...]
<PointData  Vectors="f_15"> 
<DataArray  type="Float64"  Name="f_15"  NumberOfComponents="3" format="ascii">1.6611794829709527e+00 0.0000000000000000e+00 0.0000000000000000e+00  1.6650676149119898e+00 2.6567117431742410e-02 0.0000000000000000e+00  1.6637452585833119e+00 1.0480204867878089e-01 0.0000000000000000e+00  1.6637806681493925e+00 1.2596233166516069e-01 0.0000000000000000e+00  1.6643467203471085e+00 1.7762121084142149e-01 0.0000000000000000e+00  1.6632916266234210e+00 2.1719284665476504e-01 0.0000000000000000e+00  1.6646730852840894e+00 2.5398379162838097e-01 0.0000000000000000e+00  1.6620066426855162e+00 3.0453226428052860e-01 0.0000000000000000e+00  1.6649241986778509e+00 3.2983016485666283e-01 0.0000000000000000e+00  1.6605126288748575e+00 3.9148941134341647e-01 0.0000000000000000e+00  1.6646876190676434e+00 4.0547796937919062e-01 0.0000000000000000e+00  1.6589242678212546e+00 4.8233239376506387e-01 0.0000000000000000e+00  1.6642427575000269e+00 4.7152689192613634e-01 0.0000000000000000e+00  1.6572160713724791e+00 5.7688227559936189e-01 0.0000000000000000e+00  1.6636281846162637e+00 5.5602475170111743e-01 0.0000000000000000e+00  1.6555097990034480e+00 6.2875663439755058e-01 0.0000000000000000e+00  1.6629071325126332e+00 6.7903236949496004e-01 0.0000000000000000e+00  1.6538145362485477e+00 6.8421826388937934e-01 0.0000000000000000e+00  1.6616592571723821e+00 7.5201643217150516e-01 0.0000000000000000e+00  1.6526422873348825e+00 7.8984627942715202e-01 0.0000000000000000e+00  1.6603210893799092e+00 8.2261124383128681e-01 0.0000000000000000e+00  1.6508861844801253e+00 8.5673273237909353e-01 0.0000000000000000e+00  1.6594541369996931e+00 9.2211738689362155e-01 0.0000000000000000e+00  1.6493498586024673e+00 9.3701484272104285e-01 0.0000000000000000e+00  1.6575074836571475e+00 9.9046295268677997e-01 0.0000000000000000e+00  1.6485698186184077e+00 1.0273285416672813e+00 0.0000000000000000e+00  1.6557978444705994e+00 1.0728919078546233e+00 0.0000000000000000e+00  1.6466322528049866e+00 1.1052061718009965e+00 0.0000000000000000e+00  1.6546961995547980e+00 1.1549060335730006e+00 0.0000000000000000e+00  1.6451800622280257e+00 1.1879659320625302e+00 0.0000000000000000e+00  1.6522331895482281e+00 1.2326352962678460e+00 0.0000000000000000e+00  1.6445976833307634e+00 1.2735877038836154e+00 0.0000000000000000e+00  1.6500239577330382e+00 1.3108315143786977e+00 0.0000000000000000e+00  1.6428608761431249e+00 1.3512756294219568e+00 0.0000000000000000e+00  1.6486832840248031e+00 1.3933006127732241e+00 0.0000000000000000e+00  1.6414992220901552e+00 1.4329220484573280e+00 0.0000000000000000e+00  1.6463075403083598e+00 1.4678719116243972e+00 0.0000000000000000e+00  1.6410071232530341e+00 1.5137343864135833e+00 0.0000000000000000e+00  1.6445325930444865e+00 1.5456626791729611e+00 0.0000000000000000e+00  1.6398949999679142e+00 1.5890632376303617e+00 0.0000000000000000e+00  1.6436530656630126e+00 1.6235972369627019e+00 0.0000000000000000e+00  1.6399311758257213e+00 1.6635505301772189e+00 0.0000000000000000e+00  1.6426804585863359e+00 1.6929827346902633e+00 0.0000000000000000e+00  1.6413995273887545e+00 1.7377816038272482e+00 0.0000000000000000e+00  1.6440336594490386e+00 1.7616066946022872e+00 0.0000000000000000e+00  1.6437510328914342e+00 1.7999268188959954e+00 0.0000000000000000e+00  1.6483659999413198e+00 1.8238223263298154e+00 0.0000000000000000e+00  1.6501038674165207e+00 1.8569023875573096e+00 0.0000000000000000e+00  1.6552631351725327e+00 1.8710502181809749e+00 0.0000000000000000e+00  1.6607071170331991e+00 1.9051722932286455e+00 0.0000000000000000e+00  1.6668894163427110e+00 1.9104394422463320e+00 0.0000000000000000e+00  1.6731629893306519e+00 1.9384475580179887e+00 0.0000000000000000e+00  1.6813169975950955e+00 1.9454989191916030e+00 0.0000000000000000e+00  1.6876017293589514e+00 1.9709874375434830e+00 0.0000000000000000e+00  1.6949690164587963e+00 1.9724211941604020e+00 0.0000000000000000e+00  1.7023737719443446e+00 2.0036463808132998e+00 0.0000000000000000e+00  1.7090157942244280e+00 2.0023051755680279e+00 0.0000000000000000e+00  1.7153618949739047e+00 2.0294718044191682e+00 0.0000000000000000e+00  1.7230363596565104e+00 2.0351004637889814e+00 0.0000000000000000e+00  1.7283659832524376e+00 2.0570854311851057e+00 0.0000000000000000e+00  1.7354031395478933e+00 2.0610661731906550e+00 0.0000000000000000e+00  1.7411528079368086e+00 2.0867826594737560e+00 0.0000000000000000e+00  1.7480689769403721e+00 2.0887319860024265e+00 0.0000000000000000e+00  1.7520266851562385e+00 2.1100659174366814e+00 0.0000000000000000e+00  1.7606447417831621e+00 2.1181778402305680e+00 0.0000000000000000e+00  1.7629961286021605e+00 2.1350308815391523e+00 0.0000000000000000e+00  1.7713799926318974e+00 2.1408958065683525e+00 0.0000000000000000e+00  1.7737681552387143e+00 2.1620156006056988e+00 0.0000000000000000e+00  1.7822903505773824e+00 2.1649603660587591e+00 0.0000000000000000e+00  1.7826292361205958e+00 2.1820126711764178e+00 0.0000000000000000e+00  1.7927122506971116e+00 2.1906708198289810e+00 0.0000000000000000e+00  1.7916516537336837e+00 2.2037649390307936e+00 0.0000000000000000e+00  1.8009966503568071e+00 2.2081241794144293e+00 0.0000000000000000e+00  1.8001733719388386e+00 2.2280007628790610e+00 0.0000000000000000e+00  1.8095189016772368e+00 2.2252684106749112e+00 0.0000000000000000e+00  1.8065414275871554e+00 2.2447593570188387e+00 0.0000000000000000e+00  1.8172744002569745e+00 2.2441957522678115e+00 0.0000000000000000e+00  1.8133735843905516e+00 2.2607378551546971e+00 0.0000000000000000e+00  1.8225689044580060e+00 2.2570780937299908e+00 0.0000000000000000e+00  1.8197093095154808e+00 2.2753660840340095e+00 0.0000000000000000e+00  1.8281231745274700e+00 2.2728963025174047e+00 0.0000000000000000e+00  1.8239211204090038e+00 2.2797003698549081e+00 0.0000000000000000e+00  1.8327877657471252e+00 2.2918073526301108e+00 0.0000000000000000e+00  1.8286983105645698e+00 2.2834778802116120e+00 0.0000000000000000e+00  1.8353787152561607e+00 2.3036100420761119e+00 0.0000000000000000e+00  1.8327463710724348e+00 2.2876992596840893e+00 0.0000000000000000e+00  1.8383553527244945e+00 2.3177275389453365e+00 0.0000000000000000e+00  1.8351881799576604e+00 2.2837361870153838e+00 0.0000000000000000e+00  1.8403002391211150e+00 2.3324074086760578e+00 0.0000000000000000e+00  1.8384603952039491e+00 2.2840001879641352e+00 0.0000000000000000e+00  1.8407129793337775e+00 2.3365100979352920e+00 0.0000000000000000e+00  1.8407763310382359e+00 2.2885768882261450e+00 0.0000000000000000e+00  1.8421075759892345e+00 2.3414439950334462e+00 0.0000000000000000e+00  1.8416129304045865e+00 2.2875853250336649e+00 0.0000000000000000e+00  1.8428320329602088e+00 2.3452690819765971e+00 0.0000000000000000e+00  1.8435996372134829e+00 2.2932713847605957e+00 0.0000000000000000e+00  1.8421089016022798e+00 2.3391453658839856e+00 0.0000000000000000e+00  1.8449293266831974e+00 2.3023000853462183e+00 0.0000000000000000e+00  1.8429647337342050e+00 2.3364678977834563e+00 0.0000000000000000e+00  1.8446006994007889e+00 2.3041862514652744e+00 0.0000000000000000e+00  1.8435970538768141e+00 2.3357096902734469e+00 0.0000000000000000e+00  1.8456517786194273e+00 2.3101594499367457e+00 0.0000000000000000e+00  1.8427820195659803e+00 2.3295166527483016e+00 0.0000000000000000e+00  1.8464181740730587e+00 2.3155262184433734e+00 0.0000000000000000e+00  1.8437612696511827e+00 2.3304573382148921e+00 0.0000000000000000e+00  1.8454208321537156e+00 2.3126653676257845e+00 0.0000000000000000e+00  1.8446725408339211e+00 2.3339260957838137e+00 0.0000000000000000e+00  1.8461192580658126e+00 2.3141582527561479e+00 0.0000000000000000e+00  1.8440489904552337e+00 2.3315274998323949e+00 0.0000000000000000e+00  1.8466705274418100e+00 2.3162519500507734e+00 0.0000000000000000e+00  1.8451236327888525e+00 2.3349568903168922e+00 0.0000000000000000e+00  1.8455908363679483e+00 2.3121000945297863e+00 0.0000000000000000e+00  1.8462938646396845e+00 2.3384595881823476e+00 0.0000000000000000e+00  1.8460913082939934e+00 2.3146421432672630e+00 0.0000000000000000e+00  1.8458180991556907e+00 2.3343560958988783e+00 0.0000000000000000e+00  1.8466381188335175e+00 2.3194603621449210e+00 0.0000000000000000e+00  1.8470281209417287e+00 2.3345954353366976e+00 0.0000000000000000e+00  1.8453891902379942e+00 2.3176256105935482e+00 0.0000000000000000e+00  1.8486343827996958e+00 2.3378911830830025e+00 0.0000000000000000e+00  1.8452630909011118e+00 2.3179590554811913e+00 0.0000000000000000e+00  1.8487473532684462e+00 2.3367593577906476e+00 0.0000000000000000e+00  1.8456112648522234e+00 2.3209398349701185e+00 0.0000000000000000e+00  1.8498565225107100e+00 2.3344993792355018e+00 0.0000000000000000e+00  1.8442763713247663e+00 2.3258883067897176e+00 0.0000000000000000e+00  1.8517264438879699e+00 2.3288846268812304e+00 0.0000000000000000e+00  1.8438284571948051e+00 2.3312114761983662e+00 0.0000000000000000e+00  1.8518793040628876e+00 2.3296254657234625e+00 0.0000000000000000e+00  1.8442566146159871e+00 2.3240994180291374e+00 0.0000000000000000e+00  1.8527468192131773e+00 2.3404242918269986e+00 0.0000000000000000e+00  1.8433197215708037e+00 2.3173492967528624e+00 0.0000000000000000e+00  1.8544299173751853e+00 2.3366954503824497e+00 0.0000000000000000e+00  1.8430359733638202e+00 2.3302422837271859e+00 0.0000000000000000e+00  1.8550274033266305e+00 2.3198323355119763e+00 0.0000000000000000e+00  1.8437903061299228e+00 2.3388979419542930e+00 0.0000000000000000e+00  1.8564860597318611e+00 2.3184882295262015e+00 0.0000000000000000e+00  1.8436909712288372e+00 2.3281917947674815e+00 0.0000000000000000e+00  1.8590263275491432e+00 2.3263190569065850e+00 0.0000000000000000e+00  1.8452279915676317e+00 2.3146177196410980e+00 0.0000000000000000e+00  1.8604442233484737e+00 2.3285755111611541e+00 0.0000000000000000e+00  1.8482161457288397e+00 2.3046158659439975e+00 0.0000000000000000e+00  1.8636009629231252e+00 2.3228299226110201e+00 0.0000000000000000e+00  1.8511340593020991e+00 2.2986202285603943e+00 0.0000000000000000e+00  1.8685872084740172e+00 2.3076103193473827e+00 0.0000000000000000e+00  1.8572550448572631e+00 2.2915607047466633e+00 0.0000000000000000e+00  1.8774380749362161e+00 2.2859725539917903e+00 0.0000000000000000e+00  1.8688964450083825e+00 2.2687338375370389e+00 0.0000000000000000e+00  1.8957058047178554e+00 2.2575578620225802e+00 0.0000000000000000e+00  1.8893062769470435e+00 2.2282559137606595e+00 0.0000000000000000e+00  1.9213616813490346e+00 2.2175011143734906e+00 0.0000000000000000e+00  1.9119066965470579e+00 2.1929580469594430e+00 0.0000000000000000e+00  1.9372617293408483e+00 2.1942898361852752e+00 0.0000000000000000e+00  1.9137819844941257e+00 2.1935105732521154e+00 0.0000000000000000e+00  1.9250154714225369e+00 2.2224334399505596e+00 0.0000000000000000e+00  1.8863146031317484e+00 2.2389112104000861e+00 0.0000000000000000e+00  1.8935258686631864e+00 2.2814651429840476e+00 0.0000000000000000e+00  1.8507239895234566e+00 2.2986347028790157e+00 0.0000000000000000e+00  1.8585435229410692e+00 2.3504826284529128e+00 0.0000000000000000e+00  1.8049322419333520e+00 2.3680893617286531e+00 0.0000000000000000e+00  1.8148679855387506e+00 2.4235610223502739e+00 0.0000000000000000e+00  1.7532821782301795e+00 2.4445482588362086e+00 0.0000000000000000e+00  1.9643367473624376e+00 2.0742699733202548e+00 0.0000000000000000e+00  2.5687360184774271e+00 6.9454080527825324e-01 0.0000000000000000e+00  2.9218419120582966e+00 8.5764476520214614e-02 0.0000000000000000e+00  2.9492335276660890e+00 -9.5972569833143243e-03 0.0000000000000000e+00  2.9689926114196883e+00 -1.1388853685933700e-02 0.0000000000000000e+00  2.9675278066789961e+00 -5.9736810117881164e-02 0.0000000000000000e+00  2.9751522319887926e+00 -2.3262121807349618e-02 0.0000000000000000e+00  2.9623923851343519e+00 -4.8008064154580608e-02 0.0000000000000000e+00  2.9792172733529987e+00 -2.4371679298834409e-02 0.0000000000000000e+00  2.9627353704037822e+00 -3.9321322359128677e-02 0.0000000000000000e+00  2.9779680163771811e+00 -1.6234471737373142e-02 0.0000000000000000e+00  2.9649152069863165e+00 -3.0224340716196906e-02 0.0000000000000000e+00  2.9746792614027271e+00 -8.8728165233792639e-03 0.0000000000000000e+00  2.9671792313979544e+00 -2.4570441289107278e-02 0.0000000000000000e+00  2.9738573582460499e+00 -4.9953096290627410e-03 0.0000000000000000e+00  2.9684129414904410e+00 -2.4702665830194689e-02 0.0000000000000000e+00  2.9722031985734336e+00 -1.4699614551416669e-03 0.0000000000000000e+00  2.9706416999631582e+00 -2.7029979068887031e-02 0.0000000000000000e+00  2.9702703155854264e+00 -2.5312575683671028e-03 0.0000000000000000e+00  2.9731595657077787e+00 -3.0246154824244077e-02 0.0000000000000000e+00  2.9688090586849158e+00 -6.2748383845330803e-03 0.0000000000000000e+00  2.9748437118925706e+00 -3.1201710354369819e-02 0.0000000000000000e+00  2.9680332459120655e+00 -1.4217612177596393e-02 0.0000000000000000e+00  2.9767876693898430e+00 -3.0197007503385161e-02 0.0000000000000000e+00  2.9668574652576312e+00 -2.0386752298783780e-02 0.0000000000000000e+00  2.9786937132449518e+00 -2.8240938764357848e-02 0.0000000000000000e+00  2.9666249817707890e+00 -2.2019174505875944e-02 0.0000000000000000e+00  2.9793787402154344e+00 -2.4153984505770019e-02 0.0000000000000000e+00  2.9668379334243355e+00 -1.8564931098423717e-02 0.0000000000000000e+00  2.9806388083865709e+00 -2.2916545352993502e-02 0.0000000000000000e+00  2.9658655115885399e+00 -1.7431682581207853e-02 0.0000000000000000e+00  2.9817524107277564e+00 -4.1059476715519093e-02 0.0000000000000000e+00  2.9661676899028504e+00 -4.4021868738783589e-02 0.0000000000000000e+00  2.9802635866726872e+00 -7.8540981653602515e-02 0.0000000000000000e+00  2.9671599061510250e+00 -7.5769151735891438e-02 0.0000000000000000e+00  2.9790901309370921e+00 -9.3782405044043615e-02 0.0000000000000000e+00  2.9663406282065861e+00 -7.1712098049386733e-02 0.0000000000000000e+00  2.9781826365132047e+00 -7.4187173147719221e-02 0.0000000000000000e+00  2.9666884604814419e+00 -6.0736095006966327e-02 0.0000000000000000e+00  2.9744085269926095e+00 -5.1848585458295376e-02 0.0000000000000000e+00  2.9682814704751541e+00 0.0000000000000000e+00 0.0000000000000000e+00  1.6554659538959569e+00 0.0000000000000000e+00 1.6939889835194032e-02  1.6607178128727056e+00 3.9590901006621111e-02 -3.9854915592510724e-04  1.6557059645682002e+00 7.1022688153490332e-02 -1.0436538367467219e-02  1.6585736421892328e+00 1.1357656479669904e-01 3.0400008672834961e-03  1.6563553453473190e+00 1.5814645622263651e-01 1.3018231663114730e-03  1.6576240262010822e+00 1.9354009291085258e-01 -5.6090957337520458e-03  1.6560873869845250e+00 2.4497487768085288e-01 8.2108410999547042e-03  1.6573837481369751e+00 2.7318865741657866e-01 -8.8530973818389414e-03  1.6559693345343276e+00 3.3085647294243981e-01 8.9391300610360182e-03  1.6570012035841417e+00 3.5699351722461908e-01 -8.3798128025931382e-03  1.6560052200741446e+00 4.1474949755724877e-01 8.3081611829939322e-03  1.6567099962636820e+00 4.3731642660441972e-01 -8.1325618394235931e-03  1.6559430248764628e+00 5.0455864632348424e-01 8.1798364821510233e-03  1.6563158351472576e+00 5.2069953741001751e-01 -5.6688672506545546e-03  1.6560365187968196e+00 5.7358205835235243e-01 -8.8682013627029135e-04  1.6556175601557157e+00 6.3218492749898292e-01 1.2375898941061825e-02  1.6560907334509487e+00 6.3275775351059815e-01 -2.3238291065573805e-02  1.6546812436088914e+00 7.1849043957383207e-01 2.6183477905374328e-02  1.6557102766404790e+00 7.3589114077861395e-01 -1.7612030518187778e-02  1.6542696783647528e+00 7.8059069751759957e-01 5.3654059979058770e-03  1.6543668082027057e+00 8.2332563618809707e-01 1.2831882481892385e-03  1.6540967416865013e+00 8.7307501853281366e-01 6.8021772456007773e-04  1.6531963911701837e+00 9.0119460039898758e-01 -3.4441189310811548e-03  1.6529398057125222e+00 9.4698587544620505e-01 2.4404601146728677e-04  1.6522869071244828e+00 9.9643006989294092e-01 7.2921441306277495e-03  1.6521653599610984e+00 1.0232556875332559e+00 -1.2805116039437008e-02  1.6501043976470708e+00 1.0777891335450207e+00 1.4388159735352644e-02  1.6518664648796848e+00 1.1045391173098460e+00 -1.5363736088770617e-02  1.6483256197683254e+00 1.1621536216687243e+00 1.7047540520687226e-02  1.6502222252331942e+00 1.1817609159203715e+00 -1.9269848448621906e-02  1.6472055152812410e+00 1.2473599732895151e+00 2.0919700366074167e-02  1.6488793988002712e+00 1.2590234000639751e+00 -2.2702205891421794e-02  1.6448121066441357e+00 1.3276750418224343e+00 2.3936859157160470e-02  1.6483179050438952e+00 1.3416678384876741e+00 -2.4508439296090274e-02  1.6427078139633844e+00 1.4081979122133470e+00 2.5238843153502381e-02  1.6465976457062661e+00 1.4157552748345792e+00 -2.6512134084089756e-02  1.6414393305402826e+00 1.4913978285025171e+00 2.7321579714067849e-02  1.6452614412256998e+00 1.4942727490211314e+00 -2.7099240827297436e-02  1.6394245877488844e+00 1.5664007552653565e+00 2.7048072739510931e-02  1.6446595239243902e+00 1.5727448905492674e+00 -2.7105315413259341e-02  1.6383651950592244e+00 1.6423294503654680e+00 2.6884798588755057e-02  1.6436380922056428e+00 1.6447587488006223e+00 -2.6110322933137701e-02  1.6385876631914928e+00 1.7178727136044907e+00 2.5689249553724015e-02  1.6443556905159680e+00 1.7158160031030134e+00 -2.5023604718755792e-02  1.6394361336437824e+00 1.7819160468732762e+00 2.3853881950406972e-02  1.6473402108874491e+00 1.7840449761747892e+00 -2.2614340326203276e-02  1.6438019771285839e+00 1.8421481248907812e+00 2.1668434828450656e-02  1.6522826734612250e+00 1.8383878571719146e+00 -2.0559924679986366e-02  1.6522463959109079e+00 1.8937051963009748e+00 1.9375400512838786e-02  1.6620121768547229e+00 1.8851769817949382e+00 -1.8188138225190907e-02  1.6633599966801238e+00 1.9295236471911512e+00 1.7216927719930830e-02  1.6754539515085582e+00 1.9254953628479072e+00 -1.5802032729426655e-02  1.6777035814241854e+00 1.9614405731425582e+00 1.4852028826694482e-02  1.6889567429686532e+00 1.9555206382529444e+00 -1.3745572539620927e-02  1.6929273556668756e+00 1.9932264208565715e+00 1.3145006060940882e-02  1.7030378448151495e+00 1.9881890361255863e+00 -1.1883416623945039e-02  1.7064380890915307e+00 2.0191742756061331e+00 1.1408172805571189e-02  1.7170843353788934e+00 2.0229849512113653e+00 -1.0210556428526760e-02  1.7200751110569688e+00 2.0478314992944537e+00 9.9357707275489725e-03  1.7295516303352978e+00 2.0509346306379848e+00 -8.8726936599451654e-03  1.7336047816256341e+00 2.0792766255108184e+00 9.1227196609570353e-03  1.7423700523787697e+00 2.0803079222346565e+00 -8.3543323885234329e-03  1.7453533761925948e+00 2.1045198678936345e+00 8.7356072954684182e-03  1.7551773328488600e+00 2.1109730960258473e+00 -8.1639701426638612e-03  1.7573224350753407e+00 2.1315320868279648e+00 8.5442734421149955e-03  1.7662328256983411e+00 2.1345680117932111e+00 -8.2867659559044318e-03  1.7691448252827406e+00 2.1603173881079294e+00 8.5154134871156580e-03  1.7774378145753189e+00 2.1592654046293527e+00 -8.6164755300415698e-03  1.7790650328182562e+00 2.1820201277450400e+00 8.5369550727572106e-03  1.7882541262444018e+00 2.1855708451287388e+00 -8.7791628973979581e-03  1.7892267752439630e+00 2.2049104890280224e+00 8.3415479730902641e-03  1.7970841695451618e+00 2.2041289902728751e+00 -8.5946830181133117e-03  1.7990074296356009e+00 2.2293807130192733e+00 7.8435780367436432e-03  1.8060849962501886e+00 2.2236067671263657e+00 -7.8897708583425888e-03  1.8067253285292999e+00 2.2458225067039792e+00 6.7553090790913707e-03  1.8143560196391759e+00 2.2456640032835931e+00 -6.4334951707344370e-03  1.8149025669349852e+00 2.2615933865058646e+00 5.0220776139996252e-03  1.8202991500514891e+00 2.2612365543798303e+00 -4.4982518959626877e-03  1.8224862211500577e+00 2.2776514511065633e+00 3.1469398711593817e-03  1.8266278054355682e+00 2.2780918241641754e+00 -2.6579743962156488e-03  1.8277048563322544e+00 2.2859276876734875e+00 1.6526887477976346e-03  1.8323757273310148e+00 2.2956821684183191e+00 -1.4557317098976936e-03  1.833