<?xml version="1.0"?>
<VTKFile type="UnstructuredGrid"  version="0.1"  >
<UnstructuredGrid>
<Piece  NumberOfPoints="8241" NumberOfCells="16000">
<Points>
<DataArray  type="Float64"  NumberOfComponents="3"  format="ascii">-5 -1 0  -4.95 -1 0  -4.9 -1 0  -4.85 -1 0  -4.8 -1 0  -4.75 -1 0  -4.7 -1 0  -4.65 -1 0  -4.6 -1 0  -4.55 -1 0  -4.5 -1 0  -4.45 -1 0  -4.4 -1 0  -4.35 -1 0  -4.3 -1 0  -4.25 -1 0  -4.2 -1 0  -4.15 -1 0  -4.1 -1 0  -4.05 -1 0  -4 -1 0  -3.95 -1 0  -3.9 -1 0  -3.85 -1 0  -3.8 -1 0  -3.75 -1 0  -3.7 -1 0  -3.65 -1 0  -3.6 -1 0  -3.55 -1 0  -3.5 -1 0  -3.45 -1 0  -3.4 -1 0  -3.35 -1 0  -3.3 -1 0  -3.25 -1 0  -3.2 -1 0  -3.15 -1 0  -3.1 -1 0  -3.05 -1 0  -3 -1 0  -2.95 -1 0  -2.9 -1 0  -2.85 -1 0  -2.8 -1 0  -2.75 -1 0  -2.7 -1 0  -2.65 -1 0  -2.6 -1 0  -2.55 -1 0  -2.5 -1 0  -2.45 -1 0  -2.4 -1 0  -2.35 -1 0  -2.3 -1 0  -2.25 -1 0  -2.2 -1 0  -2.15 -1 0  -2.1 -1 0  -2.05 -1 0  -2 -1 0  -1.95 -1 0  -1.9 -1 0  -1.85 -1 0  -1.8 -1 0  -1.75 -1 0  -1.7 -1 0  -1.65 -1 0  -1.6 -1 0  -1.55 -1 0  -1.5 -1 0  -1.45 -1 0  -1.4 -1 0  -1.35 -1 0  -1.3 -1 0  -1.25 -1 0  -1.2 -1 0  -1.15 -1 0  -1.1 -1 0  -1.05 -1 0  -1 -1 0  -0.9500000000000002 -1 0  -0.9000000000000004 -1 0  -0.8499999999999996 -1 0  -0.7999999999999998 -1 0  -0.75 -1 0  -0.7000000000000002 -1 0  -0.6500000000000004 -1 0  -0.5999999999999996 -1 0  -0.5499999999999998 -1 0  -0.5 -1 0  -0.4500000000000002 -1 0  -0.4000000000000004 -1 0  -0.3499999999999996 -1 0  -0.2999999999999998 -1 0  -0.25 -1 0  -0.2000000000000002 -1 0  -0.1500000000000004 -1 0  -0.09999999999999964 -1 0  -0.04999999999999982 -1 0  0 -1 0  0.04999999999999982 -1 0  0.09999999999999964 -1 0  0.1500000000000004 -1 0  0.2000000000000002 -1 0  0.25 -1 0  0.2999999999999998 -1 0  0.3499999999999996 -1 0  0.4000000000000004 -1 0  0.4500000000000002 -1 0  0.5 -1 0  0.5499999999999998 -1 0  0.5999999999999996 -1 0  0.6500000000000004 -1 0  0.7000000000000002 -1 0  0.75 -1 0  0.7999999999999998 -1 0  0.8499999999999996 -1 0  0.9000000000000004 -1 0  0.9500000000000002 -1 0  1 -1 0  1.05 -1 0  1.1 -1 0  1.15 -1 0  1.2 -1 0  1.25 -1 0  1.3 -1 0  1.35 -1 0  1.4 -1 0  1.45 -1 0  1.5 -1 0  1.55 -1 0  1.6 -1 0  1.65 -1 0  1.7 -1 0  1.75 -1 0  1.8 -1 0  1.85 -1 0  1.9 -1 0  1.95 -1 0  2 -1 0  2.05 -1 0  2.1 -1 0  2.15 -1 0  2.2 -1 0  2.25 -1 0  2.3 -1 0  2.35 -1 0  2.4 -1 0  2.45 -1 0  2.5 -1 0  2.55 -1 0  2.6 -1 0  2.65 -1 0  2.7 -1 0  2.75 -1 0  2.8 -1 0  2.85 -1 0  2.9 -1 0  2.95 -1 0  3 -1 0  3.050000000000001 -1 0  3.1 -1 0  3.15 -1 0  3.199999999999999 -1 0  3.25 -1 0  3.300000000000001 -1 0  3.35 -1 0  3.4 -1 0  3.449999999999999 -1 0  3.5 -1 0  3.550000000000001 -1 0  3.6 -1 0  3.65 -1 0  3.699999999999999 -1 0  3.75 -1 0  3.800000000000001 -1 0  3.85 -1 0  3.9 -1 0  3.949999999999999 -1 0  4 -1 0  4.050000000000001 -1 0  4.1 -1 0  4.15 -1 0  4.199999999999999 -1 0  4.25 -1 0  4.300000000000001 -1 0  4.35 -1 0  4.4 -1 0  4.449999999999999 -1 0  4.5 -1 0  4.550000000000001 -1 0  4.6 -1 0  4.65 -1 0  4.699999999999999 -1 0  4.75 -1 0  4.800000000000001 -1 0  4.85 -1 0  4.9 -1 0  4.949999999999999 -1 0  5 -1 0  -5 -0.95 0  -4.95 -0.95 0  -4.9 -0.95 0  -4.85 -0.95 0  -4.8 -0.95 0  -4.75 -0.95 0  -4.7 -0.95 0  -4.65 -0.95 0  -4.6 -0.95 0  -4.55 -0.95 0  -4.5 -0.95 0  -4.45 -0.95 0  -4.4 -0.95 0  -4.35 -0.95 0  -4.3 -0.95 0  -4.25 -0.95 0  -4.2 -0.95 0  -4.15 -0.95 0  -4.1 -0.95 0  -4.05 -0.95 0  -4 -0.95 0  -3.95 -0.95 0  -3.9 -0.95 0  -3.85 -0.95 0  -3.8 -0.95 0  -3.75 -0.95 0  -3.7 -0.95 0  -3.65 -0.95 0  -3.6 -0.95 0  -3.55 -0.95 0  -3.5 -0.95 0  -3.45 -0.95 0  -3.4 -0.95 0  -3.35 -0.95 0  -3.3 -0.95 0  -3.25 -0.95 0  -3.2 -0.95 0  -3.15 -0.95 0  -3.1 -0.95 0  -3.05 -0.95 0  -3 -0.95 0  -2.95 -0.95 0  -2.9 -0.95 0  -2.85 -0.95 0  -2.8 -0.95 0  -2.75 -0.95 0  -2.7 -0.95 0  -2.65 -0.95 0  -2.6 -0.95 0  -2.55 -0.95 0  -2.5 -0.95 0  -2.45 -0.95 0  -2.4 -0.95 0  -2.35 -0.95 0  -2.3 -0.95 0  -2.25 -0.95 0  -2.2 -0.95 0  -2.15 -0.95 0  -2.1 -0.95 0  -2.05 -0.95 0  -2 -0.95 0  -1.95 -0.95 0  -1.9 -0.95 0  -1.85 -0.95 0  -1.8 -0.95 0  -1.75 -0.95 0  -1.7 -0.95 0  -1.65 -0.95 0  -1.6 -0.95 0  -1.55 -0.95 0  -1.5 -0.95 0  -1.45 -0.95 0  -1.4 -0.95 0  -1.35 -0.95 0  -1.3 -0.95 0  -1.25 -0.95 0  -1.2 -0.95 0  -1.15 -0.95 0  -1.1 -0.95 0  -1.05 -0.95 0  -1 -0.95 0  -0.9500000000000002 -0.95 0  -0.9000000000000004 -0.95 0  -0.8499999999999996 -0.95 0  -0.7999999999999998 -0.95 0  -0.75 -0.95 0  -0.7000000000000002 -0.95 0  -0.6500000000000004 -0.95 0  -0.5999999999999996 -0.95 0  -0.5499999999999998 -0.95 0  -0.5 -0.95 0  -0.4500000000000002 -0.95 0  -0.4000000000000004 -0.95 0  -0.3499999999999996 -0.95 0  -0.2999999999999998 -0.95 0  -0.25 -0.95 0  -0.2000000000000002 -0.95 0  -0.1500000000000004 -0.95 0  -0.09999999999999964 -0.95 0  -0.04999999999999982 -0.95 0  0 -0.95 0  0.04999999999999982 -0.95 0  0.09999999999999964 -0.95 0  0.1500000000000004 -0.95 0  0.2000000000000002 -0.95 0  0.25 -0.95 0  0.2999999999999998 -0.95 0  0.3499999999999996 -0.95 0  0.4000000000000004 -0.95 0  0.4500000000000002 -0.95 0  0.5 -0.95 0  0.5499999999999998 -0.95 0  0.5999999999999996 -0.95 0  0.6500000000000004 -0.95 0  0.7000000000000002 -0.95 0  0.75 -0.95 0  0.7999999999999998 -0.95 0  0.8499999999999996 -0.95 0  0.9000000000000004 -0.95 0  0.9500000000000002 -0.95 0  1 -0.95 0  1.05 -0.95 0  1.1 -0.95 0  1.15 -0.95 0  1.2 -0.95 0  1.25 -0.95 0  1.3 -0.95 0  1.35 -0.95 0  1.4 -0.95 0  1.45 -0.95 0  1.5 -0.95 0  1.55 -0.95 0  1.6 -0.95 0  1.65 -0.95 0  1.7 -0.95 0  1.75 -0.95 0  1.8 -0.95 0  1.85 -0.95 0  1.9 -0.95 0  1.95 -0.95 0  2 -0.95 0  2.05 -0.95 0  2.1 -0.95 0  2.15 -0.95 0  2.2 -0.95 0  2.25 -0.95 0  2.3 -0.95 0  2.35 -0.95 0  2.4 -0.95 0  2.45 -0.95 0  2.5 -0.95 0  2.55 -0.95 0  2.6 -0.95 0  2.65 -0.95 0  2.7 -0.95 0  2.75 -0.95 0  2.8 -0.95 0  2.85 -0.95 0  2.9 -0.95 0  2.95 -0.95 0  3 -0.95 0  3.050000000000001 -0.95 0  3.1 -0.95 0  3.15 -0.95 0  3.199999999999999 -0.95 0  3.25 -0.95 0  3.300000000000001 -0.95 0  3.35 -0.95 0  3.4 -0.95 0  3.449999999999999 -0.95 0  3.5 -0.95 0  3.550000000000001 -0.95 0  3.6 -0.95 0  3.65 -0.95 0  3.699999999999999 -0.95 0  3.75 -0.95 0  3.800000000000001 -0.95 0  3.85 -0.95 0  3.9 -0.95 0  3.949999999999999 -0.95 0  4 -0.95 0  4.050000000000001 -0.95 0  4.1 -0.95 0  4.15 -0.95 0  4.199999999999999 -0.95 0  4.25 -0.95 0  4.300000000000001 -0.95 0  4.35 -0.95 0  4.4 -0.95 0  4.449999999999999 -0.95 0  4.5 -0.95 0  4.550000000000001 -0.95 0  4.6 -0.95 0  4.65 -0.95 0  4.699999999999999 -0.95 0  4.75 -0.95 0  4.800000000000001 -0.95 0  4.85 -0.95 0  4.9 -0.95 0  4.949999999999999 -0.95 0  5 -0.95 0  -5 -0.9 0  -4.95 -0.9 0  -4.9 -0.9 0  -4.85 -0.9 0  -4.8 -0.9 0  -4.75 -0.9 0  -4.7 -0.9 0  -4.65 -0.9 0  -4.6 -0.9 0  -4.55 -0.9 0  -4.5 -0.9 0  -4.45 -0.9 0  -4.4 -0.9 0  -4.35 -0.9 0  -4.3 -0.9 0  -4.25 -0.9 0  -4.2 -0.9 0  -4.15 -0.9 0  -4.1 -0.9 0  -4.05 -0.9 0  -4 -0.9 0  -3.95 -0.9 0  -3.9 -0.9 0  -3.85 -0.9 0  -3.8 -0.9 0  -3.75 -0.9 0  -3.7 -0.9 0  -3.65 -0.9 0  -3.6 -0.9 0  -3.55 -0.9 0  -3.5 -0.9 0  -3.45 -0.9 0  -3.4 -0.9 0  -3.35 -0.9 0  -3.3 -0.9 0  -3.25 -0.9 0  -3.2 -0.9 0  -3.15 -0.9 0  -3.1 -0.9 0  -3.05 -0.9 0  -3 -0.9 0  -2.95 -0.9 0  -2.9 -0.9 0  -2.85 -0.9 0  -2.8 -0.9 0  -2.75 -0.9 0  -2.7 -0.9 0  -2.65 -0.9 0  -2.6 -0.9 0  -2.55 -0.9 0  -2.5 -0.9 0  -2.45 -0.9 0  -2.4 -0.9 0  -2.35 -0.9 0  -2.3 -0.9 0  -2.25 -0.9 0  -2.2 -0.9 0  -2.15 -0.9 0  -2.1 -0.9 0  -2.05 -0.9 0  -2 -0.9 0  -1.95 -0.9 0  -1.9 -0.9 0  -1.85 -0.9 0  -1.8 -0.9 0  -1.75 -0.9 0  -1.7 -0.9 0  -1.65 -0.9 0  -1.6 -0.9 0  -1.55 -0.9 0  -1.5 -0.9 0  -1.45 -0.9 0  -1.4 -0.9 0  -1.35 -0.9 0  -1.3 -0.9 0  -1.25 -0.9 0  -1.2 -0.9 0  -1.15 -0.9 0  -1.1 -0.9 0  -1.05 -0.9 0  -1 -0.9 0  -0.9500000000000002 -0.9 0  -0.9000000000000004 -0.9 0  -0.8499999999999996 -0.9 0  -0.7999999999999998 -0.9 0  -0.75 -0.9 0  -0.7000000000000002 -0.9 0  -0.6500000000000004 -0.9 0  -0.5999999999999996 -0.9 0  -0.5499999999999998 -0.9 0  -0.5 -0.9 0  -0.4500000000000002 -0.9 0  -0.4000000000000004 -0.9 0  -0.3499999999999996 -0.9 0  -0.2999999999999998 -0.9 0  -0.25 -0.9 0  -0.2000000000000002 -0.9 0  -0.1500000000000004 -0.9 0  -0.09999999999999964 -0.9 0  -0.04999999999999982 -0.9 0  0 -0.9 0  0.04999999999999982 -0.9 0  0.09999999999999964 -0.9 0  0.1500000000000004 -0.9 0  0.2000000000000002 -0.9 0  0.25 -0.9 0  0.2999999999999998 -0.9 0  0.3499999999999996 -0.9 0  0.4000000000000004 -0.9 0  0.4500000000000002 -0.9 0  0.5 -0.9 0  0.5499999999999998 -0.9 0  0.5999999999999996 -0.9 0  0.6500000000000004 -0.9 0  0.7000000000000002 -0.9 0  0.75 -0.9 0  0.7999999999999998 -0.9 0  0.8499999999999996 -0.9 0  0.9000000000000004 -0.9 0  0.9500000000000002 -0.9 0  1 -0.9 0  1.05 -0.9 0  1.1 -0.9 0  1.15 -0.9 0  1.2 -0.9 0  1.25 -0.9 0  1.3 -0.9 0  1.35 -0.9 0  1.4 -0.9 0  1.45 -0.9 0  1.5 -0.9 0  1.55 -0.9 0  1.6 -0.9 0  1.65 -0.9 0  1.7 -0.9 0  1.75 -0.9 0  1.8 -0.9 0  1.85 -0.9 0  1.9 -0.9 0  1.95 -0.9 0  2 -0.9 0  2.05 -0.9 0  2.1 -0.9 0  2.15 -0.9 0  2.2 -0.9 0  2.25 -0.9 0  2.3 -0.9 0  2.35 -0.9 0  2.4 -0.9 0  2.45 -0.9 0  2.5 -0.9 0  2.55 -0.9 0  2.6 -0.9 0  2.65 -0.9 0  2.7 -0.9 0  2.75 -0.9 0  2.8 -0.9 0  2.85 -0.9 0  2.9 -0.9 0  2.95 -0.9 0  3 -0.9 0  3.050000000000001 -0.9 0  3.1 -0.9 0  3.15 -0.9 0  3.199999999999999 -0.9 0  3.25 -0.9 0  3.300000000000001 -0.9 0  3.35 -0.9 0  3.4 -0.9 0  3.449999999999999 -0.9 0  3.5 -0.9 0  3.550000000000001 -0.9 0  3.6 -0.9 0  3.65 -0.9 0  3.699999999999999 -0.9 0  3.75 -0.9 0  3.800000000000001 -0.9 0  3.85 -0.9 0  3.9 -0.9 0  3.949999999999999 -0.9 0  4 -0.9 0  4.050000000000001 -0.9 0  4.1 -0.9 0  4.15 -0.9 0  4.199999999999999 -0.9 0  4.25 -0.9 0  4.300000000000001 -0.9 0  4.35 -0.9 0  4.4 -0.9 0  4.449999999999999 -0.9 0  4.5 -0.9 0  4.550000000000001 -0.9 0  4.6 -0.9 0  4.65 -0.9 0  4.699999999999999 -0.9 0  4.75 -0.9 0  4.800000000000001 -0.9 0  4.85 -0.9 0  4.9 -0.9 0  4.949999999999999 -0.9 0  5 -0.9 0  -5 -0.85 0  -4.95 -0.85 0  -4.9 -0.85 0  -4.85 -0.85 0  -4.8 -0.85 0  -4.75 -0.85 0  -4.7 -0.85 0  -4.65 -0.85 0  -4.6 -0.85 0  -4.55 -0.85 0  -4.5 -0.85 0  -
[...]
<PointData  Vectors="f_15"> 
<DataArray  type="Float64"  Name="f_15"  NumberOfComponents="3" format="ascii">3.0000152741583190e+00 0.0000000000000000e+00 0.0000000000000000e+00  3.0000025432563118e+00 3.6726604505430077e-06 0.0000000000000000e+00  3.0000071843838669e+00 1.7672693437716790e-05 0.0000000000000000e+00  3.0000050580626860e+00 8.6703928147088730e-06 0.0000000000000000e+00  3.0000154499871523e+00 1.9941226737255135e-05 0.0000000000000000e+00  2.9999985093596493e+00 1.0337063728366084e-05 0.0000000000000000e+00  3.0000169726474448e+00 1.2413135997079515e-05 0.0000000000000000e+00  3.0000053664879762e+00 2.0217500393538847e-05 0.0000000000000000e+00  3.0000115298839591e+00 4.8548408674529566e-06 0.0000000000000000e+00  3.0000075054462902e+00 1.3434845252255938e-05 0.0000000000000000e+00  3.0000123389740021e+00 1.7391828534130393e-05 0.0000000000000000e+00  3.0000049996216451e+00 6.2414061948507390e-06 0.0000000000000000e+00  3.0000093924009357e+00 1.6020195939913585e-05 0.0000000000000000e+00  2.9999971858163792e+00 3.2804963094763634e-05 0.0000000000000000e+00  2.9999991667319779e+00 2.3672637300073174e-05 0.0000000000000000e+00  2.9999791640741327e+00 6.0454388960941967e-05 0.0000000000000000e+00  2.9999605006322527e+00 1.0027854551542743e-04 0.0000000000000000e+00  2.9999324810728254e+00 1.3813453758788861e-04 0.0000000000000000e+00  2.9998774979058562e+00 2.4319350064914101e-04 0.0000000000000000e+00  2.9997927914020681e+00 3.9407773592554164e-04 0.0000000000000000e+00  2.9996835831260862e+00 5.8939227982841630e-04 0.0000000000000000e+00  2.9994846576000107e+00 9.4200608491947088e-04 0.0000000000000000e+00  2.9992112829690694e+00 1.4432579952816077e-03 0.0000000000000000e+00  2.9988153173183596e+00 2.1514154549093761e-03 0.0000000000000000e+00  2.9982273936255726e+00 3.2108987256481815e-03 0.0000000000000000e+00  2.9974063548579535e+00 4.6971664083699585e-03 0.0000000000000000e+00  2.9962945484912038e+00 6.7098021665803606e-03 0.0000000000000000e+00  2.9947474097961839e+00 9.4948800843157651e-03 0.0000000000000000e+00  2.9927246338166102e+00 1.3165384385315206e-02 0.0000000000000000e+00  2.9900894956141792e+00 1.7933655299780849e-02 0.0000000000000000e+00  2.9867125570418542e+00 2.4038067676534162e-02 0.0000000000000000e+00  2.9824940240218787e+00 3.1692941535757309e-02 0.0000000000000000e+00  2.9773350401001770e+00 4.1046448816007539e-02 0.0000000000000000e+00  2.9710812433046674e+00 5.2389796005122037e-02 0.0000000000000000e+00  2.9637038631306987e+00 6.5799722153141837e-02 0.0000000000000000e+00  2.9551053202315178e+00 8.1449486642597754e-02 0.0000000000000000e+00  2.9452366679141515e+00 9.9411917690222631e-02 0.0000000000000000e+00  2.9340902150592778e+00 1.1977521304360385e-01 0.0000000000000000e+00  2.9216749587817707e+00 1.4246539227636171e-01 0.0000000000000000e+00  2.9079787261456573e+00 1.6756756960109059e-01 0.0000000000000000e+00  2.8930877232928212e+00 1.9491895132876599e-01 0.0000000000000000e+00  2.8770279552420184e+00 2.2450477002159130e-01 0.0000000000000000e+00  2.8598765366575201e+00 2.5616512046628470e-01 0.0000000000000000e+00  2.8417064724879459e+00 2.8984189608641747e-01 0.0000000000000000e+00  2.8226145674836158e+00 3.2531549594527503e-01 0.0000000000000000e+00  2.8026446332950679e+00 3.6255434520039737e-01 0.0000000000000000e+00  2.7819306758720121e+00 4.0132896273625374e-01 0.0000000000000000e+00  2.7605023733835155e+00 4.4157894817349908e-01 0.0000000000000000e+00  2.7384789287035267e+00 4.8311745867226658e-01 0.0000000000000000e+00  2.7158920844608168e+00 5.2588266959542262e-01 0.0000000000000000e+00  2.6928631356288673e+00 5.6969008616417027e-01 0.0000000000000000e+00  2.6693833288802113e+00 6.1450599510769688e-01 0.0000000000000000e+00  2.6455984675364950e+00 6.6016043117032597e-01 0.0000000000000000e+00  2.6214713576380380e+00 7.0662858391050543e-01 0.0000000000000000e+00  2.5971390316773739e+00 7.5375259155652730e-01 0.0000000000000000e+00  2.5725595850633187e+00 8.0154072013254563e-01 0.0000000000000000e+00  2.5478702703852867e+00 8.4982200165485577e-01 0.0000000000000000e+00  2.5229964092450103e+00 8.9863894375805375e-01 0.0000000000000000e+00  2.4980978731347943e+00 9.4781192252565694e-01 0.0000000000000000e+00  2.4730776794709226e+00 9.9742401738914421e-01 0.0000000000000000e+00  2.4480865890673114e+00 1.0472568142047920e+00 0.0000000000000000e+00  2.4230346029612582e+00 1.0974493708896826e+00 0.0000000000000000e+00  2.3980662762090015e+00 1.1477689995619451e+00 0.0000000000000000e+00  2.3730719899861161e+00 1.1983443159048293e+00 0.0000000000000000e+00  2.3482161343778332e+00 1.2489719638781558e+00 0.0000000000000000e+00  2.3233760430744068e+00 1.2997968733669618e+00 0.0000000000000000e+00  2.2987023054350693e+00 1.3505536638526798e+00 0.0000000000000000e+00  2.2740950195901188e+00 1.4014568693166229e+00 0.0000000000000000e+00  2.2496884581759042e+00 1.4522387639128518e+00 0.0000000000000000e+00  2.2253777320317818e+00 1.5030393460316662e+00 0.0000000000000000e+00  2.2013149744350802e+00 1.5536507842959673e+00 0.0000000000000000e+00  2.1773900088061970e+00 1.6042439744433241e+00 0.0000000000000000e+00  2.1537412097441400e+00 1.6544877140987202e+00 0.0000000000000000e+00  2.1302960452611606e+00 1.7046100262923867e+00 0.0000000000000000e+00  2.1071722259522621e+00 1.7543196095099813e+00 0.0000000000000000e+00  2.0843101309138521e+00 1.8037040717690900e+00 0.0000000000000000e+00  2.0618524481136058e+00 1.8525172246817063e+00 0.0000000000000000e+00  2.0397472662297016e+00 1.9008036107413211e+00 0.0000000000000000e+00  2.0181429113622862e+00 1.9482417104537739e+00 0.0000000000000000e+00  1.9970550708310273e+00 1.9948352420162883e+00 0.0000000000000000e+00  1.9766307999980990e+00 2.0401576935860373e+00 0.0000000000000000e+00  1.9569593623505328e+00 2.0840340340363892e+00 0.0000000000000000e+00  1.9382686250734242e+00 2.1259530174614141e+00 0.0000000000000000e+00  1.9207324293595194e+00 2.1654686703580044e+00 0.0000000000000000e+00  1.9046842731635052e+00 2.2017510618275788e+00 0.0000000000000000e+00  1.8904579454255401e+00 2.2340910035534574e+00 0.0000000000000000e+00  1.8784239298414116e+00 2.2615009134377861e+00 0.0000000000000000e+00  1.8689048008172067e+00 2.2832506138116733e+00 0.0000000000000000e+00  1.8620450194437959e+00 2.2989596395246852e+00 0.0000000000000000e+00  1.8575900349460484e+00 2.3091564278456280e+00 0.0000000000000000e+00  1.8550415565602205e+00 2.3149624883970787e+00 0.0000000000000000e+00  1.8536806441447773e+00 2.3181094439484555e+00 0.0000000000000000e+00  1.8529137831848506e+00 2.3198105057230385e+00 0.0000000000000000e+00  1.8524338707630759e+00 2.3209306373096972e+00 0.0000000000000000e+00  1.8520384332170199e+00 2.3217627373293643e+00 0.0000000000000000e+00  1.8517149732029348e+00 2.3225419631092659e+00 0.0000000000000000e+00  1.8513618595323846e+00 2.3232408843028369e+00 0.0000000000000000e+00  1.8511165993527519e+00 2.3238678747315307e+00 0.0000000000000000e+00  1.8507914021744651e+00 2.3245215040847365e+00 0.0000000000000000e+00  1.8505794637801309e+00 2.3250249013626938e+00 0.0000000000000000e+00  1.8503074065120519e+00 2.3255948587307853e+00 0.0000000000000000e+00  1.8501127103244017e+00 2.3260209363566360e+00 0.0000000000000000e+00  1.8498943722695360e+00 2.3264946279730903e+00 0.0000000000000000e+00  1.8497084551201810e+00 2.3268824123655154e+00 0.0000000000000000e+00  1.8495389934528152e+00 2.3272795891965581e+00 0.0000000000000000e+00  1.8493761904087485e+00 2.3275662214467583e+00 0.0000000000000000e+00  1.8492565028810142e+00 2.3278544739366551e+00 0.0000000000000000e+00  1.8491026243828439e+00 2.3281316909968304e+00 0.0000000000000000e+00  1.8489991482847106e+00 2.3283781873047937e+00 0.0000000000000000e+00  1.8488730373031885e+00 2.3285991530317771e+00 0.0000000000000000e+00  1.8488078401373311e+00 2.3287534854669070e+00 0.0000000000000000e+00  1.8486995469026091e+00 2.3289207126751159e+00 0.0000000000000000e+00  1.8486088794071054e+00 2.3290963778255822e+00 0.0000000000000000e+00  1.8485548658928215e+00 2.3291750568316512e+00 0.0000000000000000e+00  1.8484887986933738e+00 2.3293011091315323e+00 0.0000000000000000e+00  1.8484100693793870e+00 2.3294393670164952e+00 0.0000000000000000e+00  1.8483617766991176e+00 2.3295103053914930e+00 0.0000000000000000e+00  1.8483301709723750e+00 2.3295304091888758e+00 0.0000000000000000e+00  1.8482460489394046e+00 2.3296332983441550e+00 0.0000000000000000e+00  1.8482329479050517e+00 2.3296078367581128e+00 0.0000000000000000e+00  1.8481792056587070e+00 2.3296765113846578e+00 0.0000000000000000e+00  1.8481541956035774e+00 2.3296892358754473e+00 0.0000000000000000e+00  1.8480889938701535e+00 2.3298025569995890e+00 0.0000000000000000e+00  1.8480989812831350e+00 2.3297204885330420e+00 0.0000000000000000e+00  1.8480418825304141e+00 2.3297732907457287e+00 0.0000000000000000e+00  1.8480128872486545e+00 2.3296919064364641e+00 0.0000000000000000e+00  1.8479947542224691e+00 2.3295948168312739e+00 0.0000000000000000e+00  1.8479767009064902e+00 2.3294405235895739e+00 0.0000000000000000e+00  1.8479358638030823e+00 2.3293368711079099e+00 0.0000000000000000e+00  1.8479181796779161e+00 2.3291501157755672e+00 0.0000000000000000e+00  1.8479105136669305e+00 2.3289250632570329e+00 0.0000000000000000e+00  1.8478693308087439e+00 2.3287030522081311e+00 0.0000000000000000e+00  1.8478573930051969e+00 2.3284159258097157e+00 0.0000000000000000e+00  1.8478324038645824e+00 2.3280844430674397e+00 0.0000000000000000e+00  1.8478245323339042e+00 2.3277299625981267e+00 0.0000000000000000e+00  1.8477845585603645e+00 2.3274254418605533e+00 0.0000000000000000e+00  1.8477845240853155e+00 2.3270765744268935e+00 0.0000000000000000e+00  1.8477485255855806e+00 2.3268039046848346e+00 0.0000000000000000e+00  1.8477485399884539e+00 2.3265176232342379e+00 0.0000000000000000e+00  1.8476958891070305e+00 2.3263587140107358e+00 0.0000000000000000e+00  1.8477024236762452e+00 2.3261059660600614e+00 0.0000000000000000e+00  1.8476694736075339e+00 2.3259723683347029e+00 0.0000000000000000e+00  1.8476319665304548e+00 2.3258604216856722e+00 0.0000000000000000e+00  1.8476254933701466e+00 2.3257129936228478e+00 0.0000000000000000e+00  1.8475996034327127e+00 2.3255958218917336e+00 0.0000000000000000e+00  1.8475555454628008e+00 2.3255750446532053e+00 0.0000000000000000e+00  1.8475496128458475e+00 2.3254185494635475e+00 0.0000000000000000e+00  1.8475253247936061e+00 2.3253702953366622e+00 0.0000000000000000e+00  1.8474732361791630e+00 2.3253362346032085e+00 0.0000000000000000e+00  1.8474729964892369e+00 2.3251955826279906e+00 0.0000000000000000e+00  1.8474397184520350e+00 2.3251905922188532e+00 0.0000000000000000e+00  1.8473798284275096e+00 2.3250797565836461e+00 0.0000000000000000e+00  1.8474095564586808e+00 2.3250730959002088e+00 0.0000000000000000e+00  1.8472773061179104e+00 2.3248260427786365e+00 0.0000000000000000e+00  1.8471906160301399e+00 2.3246694023391994e+00 0.0000000000000000e+00  1.8470905974990610e+00 2.3243236769543509e+00 0.0000000000000000e+00  1.8462383022479802e+00 2.3225653330452998e+00 0.0000000000000000e+00  1.8459698997541405e+00 2.3222235281784918e+00 0.0000000000000000e+00  1.8414739281866981e+00 2.3117913918409401e+00 0.0000000000000000e+00  1.8349711256012391e+00 2.2966420003402455e+00 0.0000000000000000e+00  1.8082190926469170e+00 2.2379962658663128e+00 0.0000000000000000e+00  1.7553174993796461e+00 2.1153252132180844e+00 0.0000000000000000e+00  1.6492950054689799e+00 1.8449331242121962e+00 0.0000000000000000e+00  1.3654963143254768e+00 1.0957661482192040e+00 0.0000000000000000e+00  1.1052508760060822e+00 3.3255907598903395e-01 0.0000000000000000e+00  1.0175971186644701e+00 5.7294872785255961e-02 0.0000000000000000e+00  1.0023188028782042e+00 7.7621709680064819e-03 0.0000000000000000e+00  1.0002855054807487e+00 1.0784864913222889e-03 0.0000000000000000e+00  1.0000550132452077e+00 1.1045538477873794e-04 0.0000000000000000e+00  9.9999237712633338e-01 7.8054555831338172e-05 0.0000000000000000e+00  1.0000201665630208e+00 -5.0824241872510383e-05 0.0000000000000000e+00  9.9998045497794108e-01 5.8562673040049683e-05 0.0000000000000000e+00  1.0000209748368893e+00 -5.5229195507776224e-05 0.0000000000000000e+00  9.9997721824296926e-01 5.8763164290143284e-05 0.0000000000000000e+00  1.0000255504444815e+00 -6.5308543515727642e-05 0.0000000000000000e+00  9.9997268352252833e-01 6.9637248200037221e-05 0.0000000000000000e+00  1.0000260178279428e+00 -6.5120420900753947e-05 0.0000000000000000e+00  9.9997759621986737e-01 5.3803341982689711e-05 0.0000000000000000e+00  1.0000171366582411e+00 -3.9504149221158711e-05 0.0000000000000000e+00  9.9998708699954675e-01 2.9570434859748433e-05 0.0000000000000000e+00  1.0000077330326276e+00 -1.9997435075222223e-05 0.0000000000000000e+00  9.9999630919503646e-01 1.2979517848997162e-05 0.0000000000000000e+00  9.9999621349436607e-01 1.5799148281188801e-06 0.0000000000000000e+00  1.0000084839562875e+00 -1.1829509522804451e-05 0.0000000000000000e+00  9.9998257329749096e-01 2.9190349104830903e-05 0.0000000000000000e+00  1.0000193738888665e+00 -3.2057618992445843e-05 0.0000000000000000e+00  9.9997120582192600e-01 4.6237932773469228e-05 0.0000000000000000e+00  1.0000273553856620e+00 -4.0523820598598890e-05 0.0000000000000000e+00  9.9996046654376913e-01 5.7755507131007562e-05 0.0000000000000000e+00  1.0000341774689545e+00 -4.5208772980007311e-05 0.0000000000000000e+00  9.9995029068573460e-01 6.5864240953986315e-05 0.0000000000000000e+00  1.0000380006512677e+00 -4.1235028843639609e-05 0.0000000000000000e+00  9.9994238711562455e-01 6.4703256122987816e-05 0.0000000000000000e+00  1.0000385767465714e+00 -2.8021386582458094e-05 0.0000000000000000e+00  9.9993579770246288e-01 5.8170689149064380e-05 0.0000000000000000e+00  1.0000372453060722e+00 -1.0640023214303921e-05 0.0000000000000000e+00  9.9993054249513347e-01 4.6829224450453335e-05 0.0000000000000000e+00  1.0000335211669549e+00 1.1434927549476472e-05 0.0000000000000000e+00  9.9992825926349327e-01 2.9853749568772222e-05 0.0000000000000000e+00  1.0000273342808830e+00 3.1561170160020038e-05 0.0000000000000000e+00  9.9992884489076916e-01 0.0000000000000000e+00 0.0000000000000000e+00  2.9999950106286337e+00 0.0000000000000000e+00 2.1189649654752672e-05  2.9999896596570559e+00 -1.0632431787277049e-05 -1.1233929233392240e-05  2.9999967932671301e+00 -1.1819807384043328e-05 3.5140537466605604e-06  2.9999949889591306e+00 -1.4106093559075863e-05 -5.5241066470427678e-06  2.9999873188040147e+00 -1.2635437226960141e-05 5.6588324475952096e-06  2.9999945530934098e+00 -1.8479808932213963e-05 -5.4001200402151735e-06  2.9999927990917881e+00 -6.9375585656617909e-06 3.4640987963187443e-06  2.9999863871611967e+00 -1.8264548127015076e-05 -2.0094208920277765e-06  2.9999927726582918e+00 -1.2621771938922214e-05 4.3496991196255504e-07  2.9999880688926250e+00 -2.0801892618044822e-06 -3.9057461768097431e-07  2.9999875908602718e+00 -1.5157650030788244e-05 -6.0529336112090199e-07  2.9999864171661046e+00 -1.4870411855307275e-06 1.4987148907151967e-06  2.9999833070756763e+00 6.9710967779893664e-06 -3.8241110693891114e-06  2.9999806205523298e+00 3.8640688428396454e-06 5.1351028720707768e-06  2.9999742313508642e+00 1.9085703565269424e-05 -5.8482497210345645e-06  2.9999594499128590e+00 5.5219341660952332e-05 5.3744605107303720e-06  2.9999497841639773e+00 6.0374857664548141e-05 -5.2464446877867880e-06  2.9999132175800658e+00 1.3646927675817737e-04 6.3497835068516525e-06  2.9998647432879255e+00 2.2322940802806175e-04 -7.6427148811523768e-06  2.9997964778594084e+00 3.5037285863624153e-04 8.9072772703652044e-06  2.9996694732942570e+00 5.7293583876059516e-04 -7.7261110398274762e-06  2.9994847002125784e+00 9.2192542347102548e-04 6.9985783273636355e-06  2.9992231021484881e+00 1.3872625267796052e-03 -5.4146973488854325e-06  2.9988086134901342e+00 2.1398742396485995e-03 6.9593093058562357e-06  2.9982303373751567e+00 3.1884948806785280e-03 -6.8289015516034713e-06  2.9974246536921689e+00 4.6533331245363118e-03 7.9691761731337962e-06  2.9962833597413310e+00 6.7041136499250802e-03 -5.2830263550963738e-06  2.9947537444353585e+00 9.4875444831989172e-03 4.6139950046212524e-06  2.9927358019689745e+00 1.3137331983162710e-02 -2.8341313433568761e-06  2.9900790747514550e+00 1.7939284932280988e-02 3.8339096895709821e-06  2.9867119168430136e+00 2.4046639893984072e-02 -4.0136205719079543e-06  2.9825050445336454e+00 3.1673824205689718e-02 3.0892869488883452e-06  2.9773188349941675e+00 4.1065441533345723e-02 -2.2016699310291887e-06  2.9710830544476523e+00 5.2395602130944435e-02 -7.6073119176590756e-07  2.9637080893788750e+00 6.5796749888547917e-02 -2.0124568822824781e-07  2.9550931901161577e+00 8.1456788360472418e-02 -1.8351241067457276e-06  2.9452352990427917e+00 9.9430500856536083e-02 8.4351934416927721e-08  2.9340950597856574e+00 1.1975838145849647e-01 -3.5636088278593641e-06  2.9216620183934574e+00 1.4248677487227823e-01 3.7873455511670327e-06  2.9079804861713625e+00 1.6756428503542450e-01 -7.3877326120075714e-06  2.8930882161519849e+00 1.9492291370026862e-01 7.2959509653137876e-06  2.8770206958110109e+00 2.2450035154272996e-01 -9.1548138807202875e-06  2.8598752200030271e+00 2.5618215924618098e-01 9.8608776967357153e-06  2.8417110225956970e+00 2.8982115116699586e-01 -1.2336088691713601e-05  2.8226042854410149e+00 3.2533378911705418e-01 1.4589619255485378e-05  2.8026508855501118e+00 3.6254143624419927e-01 -1.6223003990249063e-05  2.7819270853842935e+00 4.0133715391545122e-01 1.7169540698812324e-05  2.7605036134490741e+00 4.4156614192317251e-01 -1.7054720498597402e-05  2.7384742764779584e+00 4.8313248676970211e-01 1.7560252744937922e-05  2.7159011697354325e+00 5.2586391745925598e-01 -1.7602144795373718e-05  2.6928501542168894e+00 5.6970595379059985e-01 1.7753780021995953e-05  2.6693949799401397e+00 6.1449265283271359e-01 -1.6599243191432248e-05  2.6455880163834014e+00 6.6017532861169148e-01 1.4657840916225815e-05  2.6214782760328825e+00 7.0661454850212879e-01 -1.2452066777279141e-05  2.5971278628468895e+00 7.5377318153424078e-01 1.0079196302787735e-05  2.5725718094423535e+00 8.0152656743609174e-01 -8.7035093507238498e-06  2.5478515462383959e+00 8.4984214664472391e-01 6.2252404774694023e-06  2.5230117881209848e+00 8.9862468919891492e-01 -4.6522435555122438e-06  2.4980824068648815e+00 9.4783740666222949e-01 1.1009980581106512e-06  2.4730884729507268e+00 9.9740057158716955e-01 4.3224463925957177e-07  2.4480739444356718e+00 1.0472827473749899e+00 -3.6465544743606876e-06  2.4230510176488682e+00 1.0974315313594547e+00 4.4018087353738524e-06  2.3980483495934495e+00 1.1477799402919808e+00 -8.0865298438607976e-06  2.3730931071428056e+00 1.1983271029961062e+00 1.0472016251959353e-05  2.3482035826691385e+00 1.2489927893466495e+00 -1.5622278545474542e-05  2.3233911884765130e+00 1.2997604463937793e+00 1.7238912902186974e-05  2.2986952755787255e+00 1.3505727727030603e+00 -1.8318707255961126e-05  2.2741140620903360e+00 1.4014439947594473e+00 1.5284829701821324e-05  2.2496754704124799e+00 1.4522312262863006e+00 -1.3351929726382851e-05  2.2254019425269345e+00 1.5030166356110557e+00 1.0070011149030052e-05  2.2013065672008327e+00 1.5536854275321998e+00 -7.9246448183684365e-06  2.1774069219571239e+00 1.6041866393078554e+00 6.0117314325539190e-06  2.1537407322280879e+00 1.6545049415435396e+00 -7.0804499380873279e-06  2.1303153009768900e+00 1.7045935242947159e+00 9.2918941221716466e-06  2.1071666867937484e+00 1.7543155550252896e+00 -8.4520410959857924e-06  2.0843357045265192e+00 1.8036703676819394e+00 4.9105153276397852e-06  2.0618500297871787e+00 1.8525270690425188e+00 -1.9744493905156820e-06  2.0397630754610856e+00 1.9007671982801588e+00 3.3568945138623904e-06  2.0181478249587719e+00 1.9482627888216413e+00 -2.4078435258379645e-06  1.9970642078156902e+00 1.9948070735236794e+00 -4.4901924491262362e-07  1.9766253895341104e+00 2.0401605416986213e+00 2.2902275616482022e-06  1.9569720146307492e+00 2.0840280968952745e+00 -3.2118357784205915e-06  1.9382583503244