<?xml version="1.0"?>
<VTKFile type="UnstructuredGrid"  version="0.1"  >
<UnstructuredGrid>
<Piece  NumberOfPoints="8241" NumberOfCells="16000">
<Points>
<DataArray  type="Float64"  NumberOfComponents="3"  format="ascii">-5 -1 0  -4.95 -1 0  -4.9 -1 0  -4.85 -1 0  -4.8 -1 0  -4.75 -1 0  -4.7 -1 0  -4.65 -1 0  -4.6 -1 0  -4.55 -1 0  -4.5 -1 0  -4.45 -1 0  -4.4 -1 0  -4.35 -1 0  -4.3 -1 0  -4.25 -1 0  -4.2 -1 0  -4.15 -1 0  -4.1 -1 0  -4.05 -1 0  -4 -1 0  -3.95 -1 0  -3.9 -1 0  -3.85 -1 0  -3.8 -1 0  -3.75 -1 0  -3.7 -1 0  -3.65 -1 0  -3.6 -1 0  -3.55 -1 0  -3.5 -1 0  -3.45 -1 0  -3.4 -1 0  -3.35 -1 0  -3.3 -1 0  -3.25 -1 0  -3.2 -1 0  -3.15 -1 0  -3.1 -1 0  -3.05 -1 0  -3 -1 0  -2.95 -1 0  -2.9 -1 0  -2.85 -1 0  -2.8 -1 0  -2.75 -1 0  -2.7 -1 0  -2.65 -1 0  -2.6 -1 0  -2.55 -1 0  -2.5 -1 0  -2.45 -1 0  -2.4 -1 0  -2.35 -1 0  -2.3 -1 0  -2.25 -1 0  -2.2 -1 0  -2.15 -1 0  -2.1 -1 0  -2.05 -1 0  -2 -1 0  -1.95 -1 0  -1.9 -1 0  -1.85 -1 0  -1.8 -1 0  -1.75 -1 0  -1.7 -1 0  -1.65 -1 0  -1.6 -1 0  -1.55 -1 0  -1.5 -1 0  -1.45 -1 0  -1.4 -1 0  -1.35 -1 0  -1.3 -1 0  -1.25 -1 0  -1.2 -1 0  -1.15 -1 0  -1.1 -1 0  -1.05 -1 0  -1 -1 0  -0.9500000000000002 -1 0  -0.9000000000000004 -1 0  -0.8499999999999996 -1 0  -0.7999999999999998 -1 0  -0.75 -1 0  -0.7000000000000002 -1 0  -0.6500000000000004 -1 0  -0.5999999999999996 -1 0  -0.5499999999999998 -1 0  -0.5 -1 0  -0.4500000000000002 -1 0  -0.4000000000000004 -1 0  -0.3499999999999996 -1 0  -0.2999999999999998 -1 0  -0.25 -1 0  -0.2000000000000002 -1 0  -0.1500000000000004 -1 0  -0.09999999999999964 -1 0  -0.04999999999999982 -1 0  0 -1 0  0.04999999999999982 -1 0  0.09999999999999964 -1 0  0.1500000000000004 -1 0  0.2000000000000002 -1 0  0.25 -1 0  0.2999999999999998 -1 0  0.3499999999999996 -1 0  0.4000000000000004 -1 0  0.4500000000000002 -1 0  0.5 -1 0  0.5499999999999998 -1 0  0.5999999999999996 -1 0  0.6500000000000004 -1 0  0.7000000000000002 -1 0  0.75 -1 0  0.7999999999999998 -1 0  0.8499999999999996 -1 0  0.9000000000000004 -1 0  0.9500000000000002 -1 0  1 -1 0  1.05 -1 0  1.1 -1 0  1.15 -1 0  1.2 -1 0  1.25 -1 0  1.3 -1 0  1.35 -1 0  1.4 -1 0  1.45 -1 0  1.5 -1 0  1.55 -1 0  1.6 -1 0  1.65 -1 0  1.7 -1 0  1.75 -1 0  1.8 -1 0  1.85 -1 0  1.9 -1 0  1.95 -1 0  2 -1 0  2.05 -1 0  2.1 -1 0  2.15 -1 0  2.2 -1 0  2.25 -1 0  2.3 -1 0  2.35 -1 0  2.4 -1 0  2.45 -1 0  2.5 -1 0  2.55 -1 0  2.6 -1 0  2.65 -1 0  2.7 -1 0  2.75 -1 0  2.8 -1 0  2.85 -1 0  2.9 -1 0  2.95 -1 0  3 -1 0  3.050000000000001 -1 0  3.1 -1 0  3.15 -1 0  3.199999999999999 -1 0  3.25 -1 0  3.300000000000001 -1 0  3.35 -1 0  3.4 -1 0  3.449999999999999 -1 0  3.5 -1 0  3.550000000000001 -1 0  3.6 -1 0  3.65 -1 0  3.699999999999999 -1 0  3.75 -1 0  3.800000000000001 -1 0  3.85 -1 0  3.9 -1 0  3.949999999999999 -1 0  4 -1 0  4.050000000000001 -1 0  4.1 -1 0  4.15 -1 0  4.199999999999999 -1 0  4.25 -1 0  4.300000000000001 -1 0  4.35 -1 0  4.4 -1 0  4.449999999999999 -1 0  4.5 -1 0  4.550000000000001 -1 0  4.6 -1 0  4.65 -1 0  4.699999999999999 -1 0  4.75 -1 0  4.800000000000001 -1 0  4.85 -1 0  4.9 -1 0  4.949999999999999 -1 0  5 -1 0  -5 -0.95 0  -4.95 -0.95 0  -4.9 -0.95 0  -4.85 -0.95 0  -4.8 -0.95 0  -4.75 -0.95 0  -4.7 -0.95 0  -4.65 -0.95 0  -4.6 -0.95 0  -4.55 -0.95 0  -4.5 -0.95 0  -4.45 -0.95 0  -4.4 -0.95 0  -4.35 -0.95 0  -4.3 -0.95 0  -4.25 -0.95 0  -4.2 -0.95 0  -4.15 -0.95 0  -4.1 -0.95 0  -4.05 -0.95 0  -4 -0.95 0  -3.95 -0.95 0  -3.9 -0.95 0  -3.85 -0.95 0  -3.8 -0.95 0  -3.75 -0.95 0  -3.7 -0.95 0  -3.65 -0.95 0  -3.6 -0.95 0  -3.55 -0.95 0  -3.5 -0.95 0  -3.45 -0.95 0  -3.4 -0.95 0  -3.35 -0.95 0  -3.3 -0.95 0  -3.25 -0.95 0  -3.2 -0.95 0  -3.15 -0.95 0  -3.1 -0.95 0  -3.05 -0.95 0  -3 -0.95 0  -2.95 -0.95 0  -2.9 -0.95 0  -2.85 -0.95 0  -2.8 -0.95 0  -2.75 -0.95 0  -2.7 -0.95 0  -2.65 -0.95 0  -2.6 -0.95 0  -2.55 -0.95 0  -2.5 -0.95 0  -2.45 -0.95 0  -2.4 -0.95 0  -2.35 -0.95 0  -2.3 -0.95 0  -2.25 -0.95 0  -2.2 -0.95 0  -2.15 -0.95 0  -2.1 -0.95 0  -2.05 -0.95 0  -2 -0.95 0  -1.95 -0.95 0  -1.9 -0.95 0  -1.85 -0.95 0  -1.8 -0.95 0  -1.75 -0.95 0  -1.7 -0.95 0  -1.65 -0.95 0  -1.6 -0.95 0  -1.55 -0.95 0  -1.5 -0.95 0  -1.45 -0.95 0  -1.4 -0.95 0  -1.35 -0.95 0  -1.3 -0.95 0  -1.25 -0.95 0  -1.2 -0.95 0  -1.15 -0.95 0  -1.1 -0.95 0  -1.05 -0.95 0  -1 -0.95 0  -0.9500000000000002 -0.95 0  -0.9000000000000004 -0.95 0  -0.8499999999999996 -0.95 0  -0.7999999999999998 -0.95 0  -0.75 -0.95 0  -0.7000000000000002 -0.95 0  -0.6500000000000004 -0.95 0  -0.5999999999999996 -0.95 0  -0.5499999999999998 -0.95 0  -0.5 -0.95 0  -0.4500000000000002 -0.95 0  -0.4000000000000004 -0.95 0  -0.3499999999999996 -0.95 0  -0.2999999999999998 -0.95 0  -0.25 -0.95 0  -0.2000000000000002 -0.95 0  -0.1500000000000004 -0.95 0  -0.09999999999999964 -0.95 0  -0.04999999999999982 -0.95 0  0 -0.95 0  0.04999999999999982 -0.95 0  0.09999999999999964 -0.95 0  0.1500000000000004 -0.95 0  0.2000000000000002 -0.95 0  0.25 -0.95 0  0.2999999999999998 -0.95 0  0.3499999999999996 -0.95 0  0.4000000000000004 -0.95 0  0.4500000000000002 -0.95 0  0.5 -0.95 0  0.5499999999999998 -0.95 0  0.5999999999999996 -0.95 0  0.6500000000000004 -0.95 0  0.7000000000000002 -0.95 0  0.75 -0.95 0  0.7999999999999998 -0.95 0  0.8499999999999996 -0.95 0  0.9000000000000004 -0.95 0  0.9500000000000002 -0.95 0  1 -0.95 0  1.05 -0.95 0  1.1 -0.95 0  1.15 -0.95 0  1.2 -0.95 0  1.25 -0.95 0  1.3 -0.95 0  1.35 -0.95 0  1.4 -0.95 0  1.45 -0.95 0  1.5 -0.95 0  1.55 -0.95 0  1.6 -0.95 0  1.65 -0.95 0  1.7 -0.95 0  1.75 -0.95 0  1.8 -0.95 0  1.85 -0.95 0  1.9 -0.95 0  1.95 -0.95 0  2 -0.95 0  2.05 -0.95 0  2.1 -0.95 0  2.15 -0.95 0  2.2 -0.95 0  2.25 -0.95 0  2.3 -0.95 0  2.35 -0.95 0  2.4 -0.95 0  2.45 -0.95 0  2.5 -0.95 0  2.55 -0.95 0  2.6 -0.95 0  2.65 -0.95 0  2.7 -0.95 0  2.75 -0.95 0  2.8 -0.95 0  2.85 -0.95 0  2.9 -0.95 0  2.95 -0.95 0  3 -0.95 0  3.050000000000001 -0.95 0  3.1 -0.95 0  3.15 -0.95 0  3.199999999999999 -0.95 0  3.25 -0.95 0  3.300000000000001 -0.95 0  3.35 -0.95 0  3.4 -0.95 0  3.449999999999999 -0.95 0  3.5 -0.95 0  3.550000000000001 -0.95 0  3.6 -0.95 0  3.65 -0.95 0  3.699999999999999 -0.95 0  3.75 -0.95 0  3.800000000000001 -0.95 0  3.85 -0.95 0  3.9 -0.95 0  3.949999999999999 -0.95 0  4 -0.95 0  4.050000000000001 -0.95 0  4.1 -0.95 0  4.15 -0.95 0  4.199999999999999 -0.95 0  4.25 -0.95 0  4.300000000000001 -0.95 0  4.35 -0.95 0  4.4 -0.95 0  4.449999999999999 -0.95 0  4.5 -0.95 0  4.550000000000001 -0.95 0  4.6 -0.95 0  4.65 -0.95 0  4.699999999999999 -0.95 0  4.75 -0.95 0  4.800000000000001 -0.95 0  4.85 -0.95 0  4.9 -0.95 0  4.949999999999999 -0.95 0  5 -0.95 0  -5 -0.9 0  -4.95 -0.9 0  -4.9 -0.9 0  -4.85 -0.9 0  -4.8 -0.9 0  -4.75 -0.9 0  -4.7 -0.9 0  -4.65 -0.9 0  -4.6 -0.9 0  -4.55 -0.9 0  -4.5 -0.9 0  -4.45 -0.9 0  -4.4 -0.9 0  -4.35 -0.9 0  -4.3 -0.9 0  -4.25 -0.9 0  -4.2 -0.9 0  -4.15 -0.9 0  -4.1 -0.9 0  -4.05 -0.9 0  -4 -0.9 0  -3.95 -0.9 0  -3.9 -0.9 0  -3.85 -0.9 0  -3.8 -0.9 0  -3.75 -0.9 0  -3.7 -0.9 0  -3.65 -0.9 0  -3.6 -0.9 0  -3.55 -0.9 0  -3.5 -0.9 0  -3.45 -0.9 0  -3.4 -0.9 0  -3.35 -0.9 0  -3.3 -0.9 0  -3.25 -0.9 0  -3.2 -0.9 0  -3.15 -0.9 0  -3.1 -0.9 0  -3.05 -0.9 0  -3 -0.9 0  -2.95 -0.9 0  -2.9 -0.9 0  -2.85 -0.9 0  -2.8 -0.9 0  -2.75 -0.9 0  -2.7 -0.9 0  -2.65 -0.9 0  -2.6 -0.9 0  -2.55 -0.9 0  -2.5 -0.9 0  -2.45 -0.9 0  -2.4 -0.9 0  -2.35 -0.9 0  -2.3 -0.9 0  -2.25 -0.9 0  -2.2 -0.9 0  -2.15 -0.9 0  -2.1 -0.9 0  -2.05 -0.9 0  -2 -0.9 0  -1.95 -0.9 0  -1.9 -0.9 0  -1.85 -0.9 0  -1.8 -0.9 0  -1.75 -0.9 0  -1.7 -0.9 0  -1.65 -0.9 0  -1.6 -0.9 0  -1.55 -0.9 0  -1.5 -0.9 0  -1.45 -0.9 0  -1.4 -0.9 0  -1.35 -0.9 0  -1.3 -0.9 0  -1.25 -0.9 0  -1.2 -0.9 0  -1.15 -0.9 0  -1.1 -0.9 0  -1.05 -0.9 0  -1 -0.9 0  -0.9500000000000002 -0.9 0  -0.9000000000000004 -0.9 0  -0.8499999999999996 -0.9 0  -0.7999999999999998 -0.9 0  -0.75 -0.9 0  -0.7000000000000002 -0.9 0  -0.6500000000000004 -0.9 0  -0.5999999999999996 -0.9 0  -0.5499999999999998 -0.9 0  -0.5 -0.9 0  -0.4500000000000002 -0.9 0  -0.4000000000000004 -0.9 0  -0.3499999999999996 -0.9 0  -0.2999999999999998 -0.9 0  -0.25 -0.9 0  -0.2000000000000002 -0.9 0  -0.1500000000000004 -0.9 0  -0.09999999999999964 -0.9 0  -0.04999999999999982 -0.9 0  0 -0.9 0  0.04999999999999982 -0.9 0  0.09999999999999964 -0.9 0  0.1500000000000004 -0.9 0  0.2000000000000002 -0.9 0  0.25 -0.9 0  0.2999999999999998 -0.9 0  0.3499999999999996 -0.9 0  0.4000000000000004 -0.9 0  0.4500000000000002 -0.9 0  0.5 -0.9 0  0.5499999999999998 -0.9 0  0.5999999999999996 -0.9 0  0.6500000000000004 -0.9 0  0.7000000000000002 -0.9 0  0.75 -0.9 0  0.7999999999999998 -0.9 0  0.8499999999999996 -0.9 0  0.9000000000000004 -0.9 0  0.9500000000000002 -0.9 0  1 -0.9 0  1.05 -0.9 0  1.1 -0.9 0  1.15 -0.9 0  1.2 -0.9 0  1.25 -0.9 0  1.3 -0.9 0  1.35 -0.9 0  1.4 -0.9 0  1.45 -0.9 0  1.5 -0.9 0  1.55 -0.9 0  1.6 -0.9 0  1.65 -0.9 0  1.7 -0.9 0  1.75 -0.9 0  1.8 -0.9 0  1.85 -0.9 0  1.9 -0.9 0  1.95 -0.9 0  2 -0.9 0  2.05 -0.9 0  2.1 -0.9 0  2.15 -0.9 0  2.2 -0.9 0  2.25 -0.9 0  2.3 -0.9 0  2.35 -0.9 0  2.4 -0.9 0  2.45 -0.9 0  2.5 -0.9 0  2.55 -0.9 0  2.6 -0.9 0  2.65 -0.9 0  2.7 -0.9 0  2.75 -0.9 0  2.8 -0.9 0  2.85 -0.9 0  2.9 -0.9 0  2.95 -0.9 0  3 -0.9 0  3.050000000000001 -0.9 0  3.1 -0.9 0  3.15 -0.9 0  3.199999999999999 -0.9 0  3.25 -0.9 0  3.300000000000001 -0.9 0  3.35 -0.9 0  3.4 -0.9 0  3.449999999999999 -0.9 0  3.5 -0.9 0  3.550000000000001 -0.9 0  3.6 -0.9 0  3.65 -0.9 0  3.699999999999999 -0.9 0  3.75 -0.9 0  3.800000000000001 -0.9 0  3.85 -0.9 0  3.9 -0.9 0  3.949999999999999 -0.9 0  4 -0.9 0  4.050000000000001 -0.9 0  4.1 -0.9 0  4.15 -0.9 0  4.199999999999999 -0.9 0  4.25 -0.9 0  4.300000000000001 -0.9 0  4.35 -0.9 0  4.4 -0.9 0  4.449999999999999 -0.9 0  4.5 -0.9 0  4.550000000000001 -0.9 0  4.6 -0.9 0  4.65 -0.9 0  4.699999999999999 -0.9 0  4.75 -0.9 0  4.800000000000001 -0.9 0  4.85 -0.9 0  4.9 -0.9 0  4.949999999999999 -0.9 0  5 -0.9 0  -5 -0.85 0  -4.95 -0.85 0  -4.9 -0.85 0  -4.85 -0.85 0  -4.8 -0.85 0  -4.75 -0.85 0  -4.7 -0.85 0  -4.65 -0.85 0  -4.6 -0.85 0  -4.55 -0.85 0  -4.5 -0.85 0  -
[...]
<PointData  Vectors="f_15"> 
<DataArray  type="Float64"  Name="f_15"  NumberOfComponents="3" format="ascii">2.3588000172915238e+00 0.0000000000000000e+00 0.0000000000000000e+00  2.3591265274621112e+00 5.6614023950929404e-02 0.0000000000000000e+00  2.3583562279234123e+00 9.9086819386470071e-02 0.0000000000000000e+00  2.3583505474763444e+00 1.5818146346258483e-01 0.0000000000000000e+00  2.3567560003271160e+00 2.0352960739725745e-01 0.0000000000000000e+00  2.3564145665416865e+00 2.5971603565072238e-01 0.0000000000000000e+00  2.3543598180706495e+00 3.0624381962588543e-01 0.0000000000000000e+00  2.3534309787793219e+00 3.6219893398244707e-01 0.0000000000000000e+00  2.3505962933988327e+00 4.0703965449702123e-01 0.0000000000000000e+00  2.3496316907726418e+00 4.6405395831238572e-01 0.0000000000000000e+00  2.3456810976601061e+00 5.0700956449303292e-01 0.0000000000000000e+00  2.3444049925483039e+00 5.6546240834083228e-01 0.0000000000000000e+00  2.3398212468074719e+00 6.0390188320646709e-01 0.0000000000000000e+00  2.3379292533199854e+00 6.6761388884014972e-01 0.0000000000000000e+00  2.3324494076958815e+00 6.9848273919670512e-01 0.0000000000000000e+00  2.3302778100394943e+00 7.6577733879774090e-01 0.0000000000000000e+00  2.3239055669531368e+00 7.9661571783097596e-01 0.0000000000000000e+00  2.3206922717565051e+00 8.5504747055125441e-01 0.0000000000000000e+00  2.3143753460438554e+00 8.9784417400391658e-01 0.0000000000000000e+00  2.3094974551865088e+00 9.4049511586475099e-01 0.0000000000000000e+00  2.3030039724410272e+00 9.9421991073926619e-01 0.0000000000000000e+00  2.2969764784815578e+00 1.0268972558672074e+00 0.0000000000000000e+00  2.2900385481874626e+00 1.0874965616700933e+00 0.0000000000000000e+00  2.2823968759651496e+00 1.1047206010421424e+00 0.0000000000000000e+00  2.2756665667242593e+00 1.1883669454615278e+00 0.0000000000000000e+00  2.2661621085684112e+00 1.1699546522393776e+00 0.0000000000000000e+00  2.2591482090084951e+00 1.2865174233242813e+00 0.0000000000000000e+00  2.2484551900186660e+00 1.2444051642752709e+00 0.0000000000000000e+00  2.2409855497287019e+00 1.3609727516154086e+00 0.0000000000000000e+00  2.2287249082862499e+00 1.3330324916839151e+00 0.0000000000000000e+00  2.2212682704434825e+00 1.4273841779586192e+00 0.0000000000000000e+00  2.2076389622238515e+00 1.4103022786065016e+00 0.0000000000000000e+00  2.1996002835186563e+00 1.5025858802380065e+00 0.0000000000000000e+00  2.1853465405872332e+00 1.4784665466505369e+00 0.0000000000000000e+00  2.1766669528653844e+00 1.5728401234654315e+00 0.0000000000000000e+00  2.1615382831437731e+00 1.5492292781853583e+00 0.0000000000000000e+00  2.1527650153516218e+00 1.6372447562831713e+00 0.0000000000000000e+00  2.1365038335661142e+00 1.6162707751301484e+00 0.0000000000000000e+00  2.1282098893730566e+00 1.7031494119011019e+00 0.0000000000000000e+00  2.1104074327585209e+00 1.6767575584358891e+00 0.0000000000000000e+00  2.1032177458083443e+00 1.7697561830675392e+00 0.0000000000000000e+00  2.0836083178567368e+00 1.7364764702870057e+00 0.0000000000000000e+00  2.0777326282418902e+00 1.8316993760613700e+00 0.0000000000000000e+00  2.0565680245557858e+00 1.7990997577089953e+00 0.0000000000000000e+00  2.0516097942010063e+00 1.8882085550350811e+00 0.0000000000000000e+00  2.0300355810076121e+00 1.8642797117814358e+00 0.0000000000000000e+00  2.0250020276803284e+00 1.9425000674842965e+00 0.0000000000000000e+00  2.0032497015128410e+00 1.9277601148697054e+00 0.0000000000000000e+00  1.9991932255087463e+00 1.9950201916940506e+00 0.0000000000000000e+00  1.9761699850762293e+00 1.9977624910073475e+00 0.0000000000000000e+00  1.9734951701711529e+00 2.0416877259494521e+00 0.0000000000000000e+00  1.9499647581227937e+00 2.0643598614032395e+00 0.0000000000000000e+00  1.9482446307503345e+00 2.0961226519185723e+00 0.0000000000000000e+00  1.9238912368645087e+00 2.1274081269178384e+00 0.0000000000000000e+00  1.9242080271030575e+00 2.1472495897899737e+00 0.0000000000000000e+00  1.8992239175712540e+00 2.1871458384758586e+00 0.0000000000000000e+00  1.9004287173463434e+00 2.2034135382237214e+00 0.0000000000000000e+00  1.8770725254282579e+00 2.2368039217520397e+00 0.0000000000000000e+00  1.8791485223993012e+00 2.2571982314773567e+00 0.0000000000000000e+00  1.8566936109867060e+00 2.2807843927911069e+00 0.0000000000000000e+00  1.8633925174940833e+00 2.2988717476230054e+00 0.0000000000000000e+00  1.8414292072721627e+00 2.3144410590221529e+00 0.0000000000000000e+00  1.8530866951198435e+00 2.3284049084543077e+00 0.0000000000000000e+00  1.8348898975559642e+00 2.3262411598726889e+00 0.0000000000000000e+00  1.8494825134406396e+00 2.3428439261390706e+00 0.0000000000000000e+00  1.8337451611392948e+00 2.3269444729770985e+00 0.0000000000000000e+00  1.8509917450887463e+00 2.3439736874752235e+00 0.0000000000000000e+00  1.8346969574806959e+00 2.3245906723625120e+00 0.0000000000000000e+00  1.8521856292691252e+00 2.3437899163125864e+00 0.0000000000000000e+00  1.8366167282156567e+00 2.3212720206662123e+00 0.0000000000000000e+00  1.8529918560865772e+00 2.3433362680452117e+00 0.0000000000000000e+00  1.8373982084660601e+00 2.3228622468071678e+00 0.0000000000000000e+00  1.8540576076672162e+00 2.3398030067956310e+00 0.0000000000000000e+00  1.8385904667261392e+00 2.3238295351279015e+00 0.0000000000000000e+00  1.8536391902207863e+00 2.3409275700261403e+00 0.0000000000000000e+00  1.8407173684727438e+00 2.3203250652140373e+00 0.0000000000000000e+00  1.8528420615766552e+00 2.3454148313136245e+00 0.0000000000000000e+00  1.8420128336152291e+00 2.3163324214995282e+00 0.0000000000000000e+00  1.8525470399056592e+00 2.3494387730848287e+00 0.0000000000000000e+00  1.8434038243871991e+00 2.3118968904829615e+00 0.0000000000000000e+00  1.8514438729239031e+00 2.3548029907288233e+00 0.0000000000000000e+00  1.8453307734179718e+00 2.3067989557584143e+00 0.0000000000000000e+00  1.8499892494252932e+00 2.3593830193162302e+00 0.0000000000000000e+00  1.8468917869359112e+00 2.3037093837193181e+00 0.0000000000000000e+00  1.8491514917345935e+00 2.3611776586875441e+00 0.0000000000000000e+00  1.8478823115336529e+00 2.3029251903030805e+00 0.0000000000000000e+00  1.8485083618470179e+00 2.3613739042551809e+00 0.0000000000000000e+00  1.8484623302369432e+00 2.3036430844320126e+00 0.0000000000000000e+00  1.8481062262574017e+00 2.3602449931126919e+00 0.0000000000000000e+00  1.8489139670291270e+00 2.3050110037975058e+00 0.0000000000000000e+00  1.8479885831446836e+00 2.3582834960886476e+00 0.0000000000000000e+00  1.8487917298937997e+00 2.3073057567325730e+00 0.0000000000000000e+00  1.8483409433472966e+00 2.3555352593051015e+00 0.0000000000000000e+00  1.8480165934515702e+00 2.3105769247376977e+00 0.0000000000000000e+00  1.8492419334231152e+00 2.3516445389774860e+00 0.0000000000000000e+00  1.8473449757758009e+00 2.3138656339315262e+00 0.0000000000000000e+00  1.8495549571697858e+00 2.3484914513702058e+00 0.0000000000000000e+00  1.8469844762591276e+00 2.3167342081978082e+00 0.0000000000000000e+00  1.8499977428073937e+00 2.3450825617158997e+00 0.0000000000000000e+00  1.8462729774591784e+00 2.3200583376884292e+00 0.0000000000000000e+00  1.8507011345965410e+00 2.3411286669004707e+00 0.0000000000000000e+00  1.8457855835791828e+00 2.3235890331923601e+00 0.0000000000000000e+00  1.8506219222848810e+00 2.3378125378091332e+00 0.0000000000000000e+00  1.8460662536410437e+00 2.3259406491264452e+00 0.0000000000000000e+00  1.8504057995065628e+00 2.3355051209536883e+00 0.0000000000000000e+00  1.8460095936753964e+00 2.3276018422859970e+00 0.0000000000000000e+00  1.8503029738494954e+00 2.3340726446270597e+00 0.0000000000000000e+00  1.8463883968152992e+00 2.3283693766596687e+00 0.0000000000000000e+00  1.8497456723856780e+00 2.3329795134328650e+00 0.0000000000000000e+00  1.8466467713080053e+00 2.3292026372355017e+00 0.0000000000000000e+00  1.8497569322969312e+00 2.3326039481831335e+00 0.0000000000000000e+00  1.8465233936861083e+00 2.3281721640644348e+00 0.0000000000000000e+00  1.8496203239212188e+00 2.3338948017293650e+00 0.0000000000000000e+00  1.8469212924371528e+00 2.3270770861076144e+00 0.0000000000000000e+00  1.8492266468367777e+00 2.3337216709134405e+00 0.0000000000000000e+00  1.8466577856726827e+00 2.3278395579561892e+00 0.0000000000000000e+00  1.8501916670271323e+00 2.3329294635662028e+00 0.0000000000000000e+00  1.8458186699684904e+00 2.3265444586827684e+00 0.0000000000000000e+00  1.8499667534857378e+00 2.3359895760736484e+00 0.0000000000000000e+00  1.8467657112049616e+00 2.3232544627880114e+00 0.0000000000000000e+00  1.8494937847171182e+00 2.3365436075399977e+00 0.0000000000000000e+00  1.8460686607642396e+00 2.3237309720717394e+00 0.0000000000000000e+00  1.8508988412612268e+00 2.3366707826368480e+00 0.0000000000000000e+00  1.8448928206866306e+00 2.3203336419443321e+00 0.0000000000000000e+00  1.8511826093644761e+00 2.3408948185022496e+00 0.0000000000000000e+00  1.8453467313770398e+00 2.3162431997261308e+00 0.0000000000000000e+00  1.8510095322864522e+00 2.3423013082985626e+00 0.0000000000000000e+00  1.8440058809705362e+00 2.3164609103909575e+00 0.0000000000000000e+00  1.8538048656340675e+00 2.3414395309679374e+00 0.0000000000000000e+00  1.8413699426138290e+00 2.3148145128753885e+00 0.0000000000000000e+00  1.8548044562225121e+00 2.3452053324159148e+00 0.0000000000000000e+00  1.8414998905508297e+00 2.3114286450433550e+00 0.0000000000000000e+00  1.8552274277265504e+00 2.3452559722419197e+00 0.0000000000000000e+00  1.8398259975998974e+00 2.3131339138151978e+00 0.0000000000000000e+00  1.8572195711916784e+00 2.3457290459964879e+00 0.0000000000000000e+00  1.8385410110969302e+00 2.3089495919960790e+00 0.0000000000000000e+00  1.8577847439198363e+00 2.3502734082035701e+00 0.0000000000000000e+00  1.8382892813268172e+00 2.3065644293171927e+00 0.0000000000000000e+00  1.8576646588040118e+00 2.3510934374278469e+00 0.0000000000000000e+00  1.8389212950061655e+00 2.3038369329354720e+00 0.0000000000000000e+00  1.8572008653679992e+00 2.3564431257022562e+00 0.0000000000000000e+00  1.8384757043598843e+00 2.2986276978153120e+00 0.0000000000000000e+00  1.8583263570586506e+00 2.3585041285513628e+00 0.0000000000000000e+00  1.8382456177902200e+00 2.2972357981324509e+00 0.0000000000000000e+00  1.8571198465323662e+00 2.3574718049356957e+00 0.0000000000000000e+00  1.8404114144361599e+00 2.2918852785371699e+00 0.0000000000000000e+00  1.8564675927709708e+00 2.3555267043799741e+00 0.0000000000000000e+00  1.8400051209366326e+00 2.2860909584727462e+00 0.0000000000000000e+00  1.8584989730132127e+00 2.3473124388725783e+00 0.0000000000000000e+00  1.8403001021984327e+00 2.2836546459251759e+00 0.0000000000000000e+00  1.8587505572924798e+00 2.3356595817268295e+00 0.0000000000000000e+00  1.8433209208686994e+00 2.2827106941373030e+00 0.0000000000000000e+00  1.8596975738964450e+00 2.3253742039556364e+00 0.0000000000000000e+00  1.8457468691727126e+00 2.2815690154459891e+00 0.0000000000000000e+00  1.8630381334026760e+00 2.3147044915983876e+00 0.0000000000000000e+00  1.8491499397436031e+00 2.2852661370530054e+00 0.0000000000000000e+00  1.8650964628332403e+00 2.2987134514073215e+00 0.0000000000000000e+00  1.8559477626688234e+00 2.2896697607917820e+00 0.0000000000000000e+00  1.8655315248575857e+00 2.2877370924641647e+00 0.0000000000000000e+00  1.8621425295354834e+00 2.2862321181738299e+00 0.0000000000000000e+00  1.8671439133530483e+00 2.2809074769261097e+00 0.0000000000000000e+00  1.8668374787930822e+00 2.2858476201684299e+00 0.0000000000000000e+00  1.8660852627018960e+00 2.2719512877776604e+00 0.0000000000000000e+00  1.8728188743946348e+00 2.2856145531905363e+00 0.0000000000000000e+00  1.8638683724825373e+00 2.2713999204040949e+00 0.0000000000000000e+00  1.8750461622255328e+00 2.2799468264822140e+00 0.0000000000000000e+00  1.8645774082747351e+00 2.2730723063957132e+00 0.0000000000000000e+00  1.8762850737363272e+00 2.2785812308711759e+00 0.0000000000000000e+00  1.8627287356605264e+00 2.2724593497372618e+00 0.0000000000000000e+00  1.8795357727564401e+00 2.2756131234868699e+00 0.0000000000000000e+00  1.8624948644058601e+00 2.2777803487813939e+00 0.0000000000000000e+00  1.8783864408447786e+00 2.2704998869665531e+00 0.0000000000000000e+00  1.8653156345585502e+00 2.2826194840261746e+00 0.0000000000000000e+00  1.8782358804362564e+00 2.2721044710449405e+00 0.0000000000000000e+00  1.8646832953500923e+00 2.2855126807103225e+00 0.0000000000000000e+00  1.8794565683523730e+00 2.2762604658663683e+00 0.0000000000000000e+00  1.8665352854083082e+00 2.2920086544074079e+00 0.0000000000000000e+00  1.8754915677848585e+00 2.2807364038580555e+00 0.0000000000000000e+00  1.8684175889757255e+00 2.3016217189854888e+00 0.0000000000000000e+00  1.8713038921136596e+00 2.2891147549646278e+00 0.0000000000000000e+00  1.8646445153458098e+00 2.3089859354574021e+00 0.0000000000000000e+00  1.8643001461483371e+00 2.3048454898129918e+00 0.0000000000000000e+00  1.8626827819232303e+00 2.3133293024159101e+00 0.0000000000000000e+00  1.8542458721508530e+00 2.3159908819185935e+00 0.0000000000000000e+00  1.8618878105908623e+00 2.3191872532515476e+00 0.0000000000000000e+00  1.8525438697168473e+00 2.3168854990697150e+00 0.0000000000000000e+00  1.8625819235796768e+00 2.3143383215497186e+00 0.0000000000000000e+00  1.8513754472627597e+00 2.3227336246279768e+00 0.0000000000000000e+00  1.8433531574381730e+00 2.3685458588534982e+00 0.0000000000000000e+00  2.0935029782096155e+00 1.7717009939479631e+00 0.0000000000000000e+00  2.6804763583779012e+00 5.2233805641294229e-01 0.0000000000000000e+00  2.9320762492783956e+00 6.3858021251015085e-02 0.0000000000000000e+00  2.9760637395806007e+00 -1.9595570790725318e-02 0.0000000000000000e+00  2.9635625579998432e+00 -4.7644872173941616e-02 0.0000000000000000e+00  2.9813040487399913e+00 -7.4111817541500979e-02 0.0000000000000000e+00  2.9716147085335742e+00 -8.0017609077160115e-02 0.0000000000000000e+00  2.9821079928661223e+00 -6.8843910262785649e-02 0.0000000000000000e+00  2.9724450642976161e+00 -6.8183425700231212e-02 0.0000000000000000e+00  2.9820372888697229e+00 -6.0059082523803604e-02 0.0000000000000000e+00  2.9704879475059514e+00 -4.7228709983146211e-02 0.0000000000000000e+00  2.9820816190604829e+00 0.0000000000000000e+00 0.0000000000000000e+00  2.3582745123714917e+00 0.0000000000000000e+00 -5.8257402351881936e-04  2.3586749706023373e+00 4.9275238988730187e-02 -2.0871831909975991e-03  2.3579860724752537e+00 1.0506176797498752e-01 4.1104462490498149e-03  2.3573982446488269e+00 1.5336484774513123e-01 -3.4433707183534547e-03  2.3564595756916251e+00 2.0720513567686275e-01 3.0158772193468212e-03  2.3555222502586806e+00 2.5652223568979032e-01 -2.8279350674075537e-03  2.3538532146094373e+00 3.1023666443409909e-01 2.8872111202933341e-03  2.3524316154585985e+00 3.5817052884517919e-01 -3.0792946743167455e-03  2.3504721169633114e+00 4.1240710002953640e-01 3.6574031960618617e-03  2.3483335634053075e+00 4.5927670862999009e-01 -4.2844953188732335e-03  2.3457106343415552e+00 5.1375462774430858e-01 5.1796402483114366e-03  2.3434654120017759e+00 5.5827611830838153e-01 -6.3499618524884803e-03  2.3397374926288497e+00 6.1535541312041342e-01 7.9754695757294995e-03  2.3372787696276167e+00 6.5524787333636636e-01 -1.0384361115515953e-02  2.3326349839002622e+00 7.1477364818981493e-01 1.3796958504369319e-02  2.3300785877488437e+00 7.5210704131600115e-01 -1.8399256517813774e-02  2.3236999428919374e+00 8.1167626249595670e-01 2.3882120488914131e-02  2.3219764837695007e+00 8.4542637684573263e-01 -2.9681166835527437e-02  2.3133212184687482e+00 9.1061265769264743e-01 3.5172858580064234e-02  2.3120622897361285e+00 9.3140026004767495e-01 -3.9690426061672147e-02  2.3018326922824643e+00 1.0103564282642337e+00 4.3363960609385861e-02  2.3005514242150205e+00 1.0157615215779690e+00 -4.6299911905736131e-02  2.2884434018967896e+00 1.1021719878658707e+00 4.8927101581784996e-02  2.2876636044289591e+00 1.1046594299455681e+00 -5.0967854914452083e-02  2.2735070027192492e+00 1.1859989205296015e+00 5.2114854567615845e-02  2.2725848762016532e+00 1.1901176959602358e+00 -5.1701306819528635e-02  2.2572570663259417e+00 1.2730685546481615e+00 5.0758406020079035e-02  2.2558150701906623e+00 1.2635331542858999e+00 -5.0037014656571698e-02  2.2389572403092264e+00 1.3628307852719128e+00 5.0690911740807733e-02  2.2375352415693266e+00 1.3351974507734070e+00 -5.1509582056818992e-02  2.2194108082208821e+00 1.4412029766503731e+00 5.0661007894690926e-02  2.2169111431641095e+00 1.4150757309108715e+00 -4.6692057531551763e-02  2.1989952721408890e+00 1.5075315346416391e+00 4.1084605600948232e-02  2.1947918361006420e+00 1.4954043973358360e+00 -3.6986840329926725e-02  2.1767766830639546e+00 1.5739137739049047e+00 3.6217457733282159e-02  2.1719914897248565e+00 1.5656023588436276e+00 -3.8077697928259185e-02  2.1529759286030790e+00 1.6454531899216889e+00 3.9742064894827081e-02  2.1482613538624205e+00 1.6309215585040118e+00 -3.9601438273902702e-02  2.1280401326925982e+00 1.7107235562026004e+00 3.9268539287824498e-02  2.1237267629708607e+00 1.6997609561147957e+00 -3.9799392855667519e-02  2.1021743921164937e+00 1.7748590721440323e+00 4.2308495612168019e-02  2.0985942734120497e+00 1.7593941233617332e+00 -4.3980465183830045e-02  2.0758872204586449e+00 1.8439202833842234e+00 4.4954226441490115e-02  2.0727323902586128e+00 1.8181798922209511e+00 -4.4525933580115008e-02  2.0497297489977462e+00 1.9075681217598797e+00 4.5750215379448275e-02  2.0463675091342468e+00 1.8775458714462536e+00 -4.6477607014008430e-02  2.0232066814922223e+00 1.9712988912255989e+00 4.7085418279993629e-02  2.0204064353293747e+00 1.9364395408733697e+00 -4.4428261828870046e-02  1.9964944643548954e+00 2.0323598904881659e+00 4.2316060637683749e-02  1.9942206717567628e+00 1.9952009092086440e+00 -4.0803544187682658e-02  1.9705886616190356e+00 2.0907579228764366e+00 4.0619924718770913e-02  1.9679788192651726e+00 2.0572709388691597e+00 -3.9069928469007358e-02  1.9448419340171654e+00 2.1446306570552358e+00 3.5932039738026000e-02  1.9424669380109536e+00 2.1171111513070979e+00 -3.3273116072641190e-02  1.9200808014417410e+00 2.1978487270426017e+00 3.0913302826393711e-02  1.9169847828978899e+00 2.1779672627096449e+00 -2.9385996824590692e-02  1.8971607841385831e+00 2.2447036768369388e+00 2.6830423549661551e-02  1.8935012747521327e+00 2.2344074248685661e+00 -2.5346387237891874e-02  1.8752076446276458e+00 2.2905968399830292e+00 2.3504379517702855e-02  1.8742788165872744e+00 2.2797395738585715e+00 -2.2619598489854884e-02  1.8570912136101769e+00 2.3302205587154545e+00 2.1208691761358187e-02  1.8590544359275420e+00 2.3142244664423903e+00 -2.0518247292361784e-02  1.8467540212908122e+00 2.3509162277793765e+00 1.9198142647919688e-02  1.8506673461001613e+00 2.3343591970306043e+00 -1.8240469052646088e-02  1.8429363221231052e+00 2.3574756134345534e+00 1.7183123014923633e-02  1.8497449823277416e+00 2.3354803789263290e+00 -1.6522777454339329e-02  1.8430341134209978e+00 2.3556526470230468e+00 1.5652144269147565e-02  1.8500434451665946e+00 2.3332762501297704e+00 -1.5099850443521462e-02  1.8445049679032186e+00 2.3508701758553525e+00 1.4419766749894015e-02  1.8501638606402335e+00 2.3318157580325312e+00 -1.3742786452717192e-02  1.8447835546607692e+00 2.3486829375348410e+00 1.2832365053487595e-02  1.8508277416945331e+00 2.3283423559892591e+00 -1.2145775721868642e-02  1.8450579105984031e+00 2.3464009638820786e+00 1.1507098618071792e-02  1.8501611664623772e+00 2.3295886564061803e+00 -1.0937828554943329e-02  1.8458514215613708e+00 2.3412605798344281e+00 1.0475285471479686e-02  1.8496142815321233e+00 2.3314752459737749e+00 -1.0159286436292322e-02  1.8455933758514600e+00 2.3384741452770412e+00 9.8895219229179904e-03  1.8500141612003973e+00 2.3306670196526333e+00 -9.7271583902017525e-03  1.8453321185233280e+00 2.3372940721529796e+00 9.7124282758980617e-03  1.8496892089752448e+00 2.3305515640118930e+00 -9.7547013338442189e-03  1.8457167915404040e+00 2.3355136586985097e+00 9.7454728282730003e-03  1.8492667838986063e+00 2.3302365166010586e+00 -9.6626950714607165e-03  1.8458590714204868e+00 2.3351270