<?xml version="1.0"?>
<VTKFile type="UnstructuredGrid"  version="0.1"  >
<UnstructuredGrid>
<Piece  NumberOfPoints="8241" NumberOfCells="16000">
<Points>
<DataArray  type="Float64"  NumberOfComponents="3"  format="ascii">-5 -1 0  -4.95 -1 0  -4.9 -1 0  -4.85 -1 0  -4.8 -1 0  -4.75 -1 0  -4.7 -1 0  -4.65 -1 0  -4.6 -1 0  -4.55 -1 0  -4.5 -1 0  -4.45 -1 0  -4.4 -1 0  -4.35 -1 0  -4.3 -1 0  -4.25 -1 0  -4.2 -1 0  -4.15 -1 0  -4.1 -1 0  -4.05 -1 0  -4 -1 0  -3.95 -1 0  -3.9 -1 0  -3.85 -1 0  -3.8 -1 0  -3.75 -1 0  -3.7 -1 0  -3.65 -1 0  -3.6 -1 0  -3.55 -1 0  -3.5 -1 0  -3.45 -1 0  -3.4 -1 0  -3.35 -1 0  -3.3 -1 0  -3.25 -1 0  -3.2 -1 0  -3.15 -1 0  -3.1 -1 0  -3.05 -1 0  -3 -1 0  -2.95 -1 0  -2.9 -1 0  -2.85 -1 0  -2.8 -1 0  -2.75 -1 0  -2.7 -1 0  -2.65 -1 0  -2.6 -1 0  -2.55 -1 0  -2.5 -1 0  -2.45 -1 0  -2.4 -1 0  -2.35 -1 0  -2.3 -1 0  -2.25 -1 0  -2.2 -1 0  -2.15 -1 0  -2.1 -1 0  -2.05 -1 0  -2 -1 0  -1.95 -1 0  -1.9 -1 0  -1.85 -1 0  -1.8 -1 0  -1.75 -1 0  -1.7 -1 0  -1.65 -1 0  -1.6 -1 0  -1.55 -1 0  -1.5 -1 0  -1.45 -1 0  -1.4 -1 0  -1.35 -1 0  -1.3 -1 0  -1.25 -1 0  -1.2 -1 0  -1.15 -1 0  -1.1 -1 0  -1.05 -1 0  -1 -1 0  -0.9500000000000002 -1 0  -0.9000000000000004 -1 0  -0.8499999999999996 -1 0  -0.7999999999999998 -1 0  -0.75 -1 0  -0.7000000000000002 -1 0  -0.6500000000000004 -1 0  -0.5999999999999996 -1 0  -0.5499999999999998 -1 0  -0.5 -1 0  -0.4500000000000002 -1 0  -0.4000000000000004 -1 0  -0.3499999999999996 -1 0  -0.2999999999999998 -1 0  -0.25 -1 0  -0.2000000000000002 -1 0  -0.1500000000000004 -1 0  -0.09999999999999964 -1 0  -0.04999999999999982 -1 0  0 -1 0  0.04999999999999982 -1 0  0.09999999999999964 -1 0  0.1500000000000004 -1 0  0.2000000000000002 -1 0  0.25 -1 0  0.2999999999999998 -1 0  0.3499999999999996 -1 0  0.4000000000000004 -1 0  0.4500000000000002 -1 0  0.5 -1 0  0.5499999999999998 -1 0  0.5999999999999996 -1 0  0.6500000000000004 -1 0  0.7000000000000002 -1 0  0.75 -1 0  0.7999999999999998 -1 0  0.8499999999999996 -1 0  0.9000000000000004 -1 0  0.9500000000000002 -1 0  1 -1 0  1.05 -1 0  1.1 -1 0  1.15 -1 0  1.2 -1 0  1.25 -1 0  1.3 -1 0  1.35 -1 0  1.4 -1 0  1.45 -1 0  1.5 -1 0  1.55 -1 0  1.6 -1 0  1.65 -1 0  1.7 -1 0  1.75 -1 0  1.8 -1 0  1.85 -1 0  1.9 -1 0  1.95 -1 0  2 -1 0  2.05 -1 0  2.1 -1 0  2.15 -1 0  2.2 -1 0  2.25 -1 0  2.3 -1 0  2.35 -1 0  2.4 -1 0  2.45 -1 0  2.5 -1 0  2.55 -1 0  2.6 -1 0  2.65 -1 0  2.7 -1 0  2.75 -1 0  2.8 -1 0  2.85 -1 0  2.9 -1 0  2.95 -1 0  3 -1 0  3.050000000000001 -1 0  3.1 -1 0  3.15 -1 0  3.199999999999999 -1 0  3.25 -1 0  3.300000000000001 -1 0  3.35 -1 0  3.4 -1 0  3.449999999999999 -1 0  3.5 -1 0  3.550000000000001 -1 0  3.6 -1 0  3.65 -1 0  3.699999999999999 -1 0  3.75 -1 0  3.800000000000001 -1 0  3.85 -1 0  3.9 -1 0  3.949999999999999 -1 0  4 -1 0  4.050000000000001 -1 0  4.1 -1 0  4.15 -1 0  4.199999999999999 -1 0  4.25 -1 0  4.300000000000001 -1 0  4.35 -1 0  4.4 -1 0  4.449999999999999 -1 0  4.5 -1 0  4.550000000000001 -1 0  4.6 -1 0  4.65 -1 0  4.699999999999999 -1 0  4.75 -1 0  4.800000000000001 -1 0  4.85 -1 0  4.9 -1 0  4.949999999999999 -1 0  5 -1 0  -5 -0.95 0  -4.95 -0.95 0  -4.9 -0.95 0  -4.85 -0.95 0  -4.8 -0.95 0  -4.75 -0.95 0  -4.7 -0.95 0  -4.65 -0.95 0  -4.6 -0.95 0  -4.55 -0.95 0  -4.5 -0.95 0  -4.45 -0.95 0  -4.4 -0.95 0  -4.35 -0.95 0  -4.3 -0.95 0  -4.25 -0.95 0  -4.2 -0.95 0  -4.15 -0.95 0  -4.1 -0.95 0  -4.05 -0.95 0  -4 -0.95 0  -3.95 -0.95 0  -3.9 -0.95 0  -3.85 -0.95 0  -3.8 -0.95 0  -3.75 -0.95 0  -3.7 -0.95 0  -3.65 -0.95 0  -3.6 -0.95 0  -3.55 -0.95 0  -3.5 -0.95 0  -3.45 -0.95 0  -3.4 -0.95 0  -3.35 -0.95 0  -3.3 -0.95 0  -3.25 -0.95 0  -3.2 -0.95 0  -3.15 -0.95 0  -3.1 -0.95 0  -3.05 -0.95 0  -3 -0.95 0  -2.95 -0.95 0  -2.9 -0.95 0  -2.85 -0.95 0  -2.8 -0.95 0  -2.75 -0.95 0  -2.7 -0.95 0  -2.65 -0.95 0  -2.6 -0.95 0  -2.55 -0.95 0  -2.5 -0.95 0  -2.45 -0.95 0  -2.4 -0.95 0  -2.35 -0.95 0  -2.3 -0.95 0  -2.25 -0.95 0  -2.2 -0.95 0  -2.15 -0.95 0  -2.1 -0.95 0  -2.05 -0.95 0  -2 -0.95 0  -1.95 -0.95 0  -1.9 -0.95 0  -1.85 -0.95 0  -1.8 -0.95 0  -1.75 -0.95 0  -1.7 -0.95 0  -1.65 -0.95 0  -1.6 -0.95 0  -1.55 -0.95 0  -1.5 -0.95 0  -1.45 -0.95 0  -1.4 -0.95 0  -1.35 -0.95 0  -1.3 -0.95 0  -1.25 -0.95 0  -1.2 -0.95 0  -1.15 -0.95 0  -1.1 -0.95 0  -1.05 -0.95 0  -1 -0.95 0  -0.9500000000000002 -0.95 0  -0.9000000000000004 -0.95 0  -0.8499999999999996 -0.95 0  -0.7999999999999998 -0.95 0  -0.75 -0.95 0  -0.7000000000000002 -0.95 0  -0.6500000000000004 -0.95 0  -0.5999999999999996 -0.95 0  -0.5499999999999998 -0.95 0  -0.5 -0.95 0  -0.4500000000000002 -0.95 0  -0.4000000000000004 -0.95 0  -0.3499999999999996 -0.95 0  -0.2999999999999998 -0.95 0  -0.25 -0.95 0  -0.2000000000000002 -0.95 0  -0.1500000000000004 -0.95 0  -0.09999999999999964 -0.95 0  -0.04999999999999982 -0.95 0  0 -0.95 0  0.04999999999999982 -0.95 0  0.09999999999999964 -0.95 0  0.1500000000000004 -0.95 0  0.2000000000000002 -0.95 0  0.25 -0.95 0  0.2999999999999998 -0.95 0  0.3499999999999996 -0.95 0  0.4000000000000004 -0.95 0  0.4500000000000002 -0.95 0  0.5 -0.95 0  0.5499999999999998 -0.95 0  0.5999999999999996 -0.95 0  0.6500000000000004 -0.95 0  0.7000000000000002 -0.95 0  0.75 -0.95 0  0.7999999999999998 -0.95 0  0.8499999999999996 -0.95 0  0.9000000000000004 -0.95 0  0.9500000000000002 -0.95 0  1 -0.95 0  1.05 -0.95 0  1.1 -0.95 0  1.15 -0.95 0  1.2 -0.95 0  1.25 -0.95 0  1.3 -0.95 0  1.35 -0.95 0  1.4 -0.95 0  1.45 -0.95 0  1.5 -0.95 0  1.55 -0.95 0  1.6 -0.95 0  1.65 -0.95 0  1.7 -0.95 0  1.75 -0.95 0  1.8 -0.95 0  1.85 -0.95 0  1.9 -0.95 0  1.95 -0.95 0  2 -0.95 0  2.05 -0.95 0  2.1 -0.95 0  2.15 -0.95 0  2.2 -0.95 0  2.25 -0.95 0  2.3 -0.95 0  2.35 -0.95 0  2.4 -0.95 0  2.45 -0.95 0  2.5 -0.95 0  2.55 -0.95 0  2.6 -0.95 0  2.65 -0.95 0  2.7 -0.95 0  2.75 -0.95 0  2.8 -0.95 0  2.85 -0.95 0  2.9 -0.95 0  2.95 -0.95 0  3 -0.95 0  3.050000000000001 -0.95 0  3.1 -0.95 0  3.15 -0.95 0  3.199999999999999 -0.95 0  3.25 -0.95 0  3.300000000000001 -0.95 0  3.35 -0.95 0  3.4 -0.95 0  3.449999999999999 -0.95 0  3.5 -0.95 0  3.550000000000001 -0.95 0  3.6 -0.95 0  3.65 -0.95 0  3.699999999999999 -0.95 0  3.75 -0.95 0  3.800000000000001 -0.95 0  3.85 -0.95 0  3.9 -0.95 0  3.949999999999999 -0.95 0  4 -0.95 0  4.050000000000001 -0.95 0  4.1 -0.95 0  4.15 -0.95 0  4.199999999999999 -0.95 0  4.25 -0.95 0  4.300000000000001 -0.95 0  4.35 -0.95 0  4.4 -0.95 0  4.449999999999999 -0.95 0  4.5 -0.95 0  4.550000000000001 -0.95 0  4.6 -0.95 0  4.65 -0.95 0  4.699999999999999 -0.95 0  4.75 -0.95 0  4.800000000000001 -0.95 0  4.85 -0.95 0  4.9 -0.95 0  4.949999999999999 -0.95 0  5 -0.95 0  -5 -0.9 0  -4.95 -0.9 0  -4.9 -0.9 0  -4.85 -0.9 0  -4.8 -0.9 0  -4.75 -0.9 0  -4.7 -0.9 0  -4.65 -0.9 0  -4.6 -0.9 0  -4.55 -0.9 0  -4.5 -0.9 0  -4.45 -0.9 0  -4.4 -0.9 0  -4.35 -0.9 0  -4.3 -0.9 0  -4.25 -0.9 0  -4.2 -0.9 0  -4.15 -0.9 0  -4.1 -0.9 0  -4.05 -0.9 0  -4 -0.9 0  -3.95 -0.9 0  -3.9 -0.9 0  -3.85 -0.9 0  -3.8 -0.9 0  -3.75 -0.9 0  -3.7 -0.9 0  -3.65 -0.9 0  -3.6 -0.9 0  -3.55 -0.9 0  -3.5 -0.9 0  -3.45 -0.9 0  -3.4 -0.9 0  -3.35 -0.9 0  -3.3 -0.9 0  -3.25 -0.9 0  -3.2 -0.9 0  -3.15 -0.9 0  -3.1 -0.9 0  -3.05 -0.9 0  -3 -0.9 0  -2.95 -0.9 0  -2.9 -0.9 0  -2.85 -0.9 0  -2.8 -0.9 0  -2.75 -0.9 0  -2.7 -0.9 0  -2.65 -0.9 0  -2.6 -0.9 0  -2.55 -0.9 0  -2.5 -0.9 0  -2.45 -0.9 0  -2.4 -0.9 0  -2.35 -0.9 0  -2.3 -0.9 0  -2.25 -0.9 0  -2.2 -0.9 0  -2.15 -0.9 0  -2.1 -0.9 0  -2.05 -0.9 0  -2 -0.9 0  -1.95 -0.9 0  -1.9 -0.9 0  -1.85 -0.9 0  -1.8 -0.9 0  -1.75 -0.9 0  -1.7 -0.9 0  -1.65 -0.9 0  -1.6 -0.9 0  -1.55 -0.9 0  -1.5 -0.9 0  -1.45 -0.9 0  -1.4 -0.9 0  -1.35 -0.9 0  -1.3 -0.9 0  -1.25 -0.9 0  -1.2 -0.9 0  -1.15 -0.9 0  -1.1 -0.9 0  -1.05 -0.9 0  -1 -0.9 0  -0.9500000000000002 -0.9 0  -0.9000000000000004 -0.9 0  -0.8499999999999996 -0.9 0  -0.7999999999999998 -0.9 0  -0.75 -0.9 0  -0.7000000000000002 -0.9 0  -0.6500000000000004 -0.9 0  -0.5999999999999996 -0.9 0  -0.5499999999999998 -0.9 0  -0.5 -0.9 0  -0.4500000000000002 -0.9 0  -0.4000000000000004 -0.9 0  -0.3499999999999996 -0.9 0  -0.2999999999999998 -0.9 0  -0.25 -0.9 0  -0.2000000000000002 -0.9 0  -0.1500000000000004 -0.9 0  -0.09999999999999964 -0.9 0  -0.04999999999999982 -0.9 0  0 -0.9 0  0.04999999999999982 -0.9 0  0.09999999999999964 -0.9 0  0.1500000000000004 -0.9 0  0.2000000000000002 -0.9 0  0.25 -0.9 0  0.2999999999999998 -0.9 0  0.3499999999999996 -0.9 0  0.4000000000000004 -0.9 0  0.4500000000000002 -0.9 0  0.5 -0.9 0  0.5499999999999998 -0.9 0  0.5999999999999996 -0.9 0  0.6500000000000004 -0.9 0  0.7000000000000002 -0.9 0  0.75 -0.9 0  0.7999999999999998 -0.9 0  0.8499999999999996 -0.9 0  0.9000000000000004 -0.9 0  0.9500000000000002 -0.9 0  1 -0.9 0  1.05 -0.9 0  1.1 -0.9 0  1.15 -0.9 0  1.2 -0.9 0  1.25 -0.9 0  1.3 -0.9 0  1.35 -0.9 0  1.4 -0.9 0  1.45 -0.9 0  1.5 -0.9 0  1.55 -0.9 0  1.6 -0.9 0  1.65 -0.9 0  1.7 -0.9 0  1.75 -0.9 0  1.8 -0.9 0  1.85 -0.9 0  1.9 -0.9 0  1.95 -0.9 0  2 -0.9 0  2.05 -0.9 0  2.1 -0.9 0  2.15 -0.9 0  2.2 -0.9 0  2.25 -0.9 0  2.3 -0.9 0  2.35 -0.9 0  2.4 -0.9 0  2.45 -0.9 0  2.5 -0.9 0  2.55 -0.9 0  2.6 -0.9 0  2.65 -0.9 0  2.7 -0.9 0  2.75 -0.9 0  2.8 -0.9 0  2.85 -0.9 0  2.9 -0.9 0  2.95 -0.9 0  3 -0.9 0  3.050000000000001 -0.9 0  3.1 -0.9 0  3.15 -0.9 0  3.199999999999999 -0.9 0  3.25 -0.9 0  3.300000000000001 -0.9 0  3.35 -0.9 0  3.4 -0.9 0  3.449999999999999 -0.9 0  3.5 -0.9 0  3.550000000000001 -0.9 0  3.6 -0.9 0  3.65 -0.9 0  3.699999999999999 -0.9 0  3.75 -0.9 0  3.800000000000001 -0.9 0  3.85 -0.9 0  3.9 -0.9 0  3.949999999999999 -0.9 0  4 -0.9 0  4.050000000000001 -0.9 0  4.1 -0.9 0  4.15 -0.9 0  4.199999999999999 -0.9 0  4.25 -0.9 0  4.300000000000001 -0.9 0  4.35 -0.9 0  4.4 -0.9 0  4.449999999999999 -0.9 0  4.5 -0.9 0  4.550000000000001 -0.9 0  4.6 -0.9 0  4.65 -0.9 0  4.699999999999999 -0.9 0  4.75 -0.9 0  4.800000000000001 -0.9 0  4.85 -0.9 0  4.9 -0.9 0  4.949999999999999 -0.9 0  5 -0.9 0  -5 -0.85 0  -4.95 -0.85 0  -4.9 -0.85 0  -4.85 -0.85 0  -4.8 -0.85 0  -4.75 -0.85 0  -4.7 -0.85 0  -4.65 -0.85 0  -4.6 -0.85 0  -4.55 -0.85 0  -4.5 -0.85 0  -
[...]
<PointData  Vectors="f_15"> 
<DataArray  type="Float64"  Name="f_15"  NumberOfComponents="3" format="ascii">1.0000000000000005e+01 0.0000000000000000e+00 0.0000000000000000e+00  1.0000000000000002e+01 -1.0969947058593169e-15 0.0000000000000000e+00  1.0000000000000002e+01 8.0010866093812497e-16 0.0000000000000000e+00  1.0000000000000004e+01 -6.3241589812716599e-16 0.0000000000000000e+00  1.0000000000000004e+01 2.4753394866398831e-16 0.0000000000000000e+00  1.0000000000000000e+01 -1.5320777619252900e-16 0.0000000000000000e+00  1.0000000000000005e+01 -1.2572001623907471e-15 0.0000000000000000e+00  1.0000000000000004e+01 -1.9939131025826449e-15 0.0000000000000000e+00  1.0000000000000004e+01 1.9207072252029847e-15 0.0000000000000000e+00  1.0000000000000004e+01 5.7848678802542775e-16 0.0000000000000000e+00  1.0000000000000004e+01 2.5131348276028546e-15 0.0000000000000000e+00  1.0000000000000002e+01 -1.8037899109855339e-15 0.0000000000000000e+00  1.0000000000000004e+01 3.0179086321755392e-15 0.0000000000000000e+00  1.0000000000000000e+01 -3.6241088725573362e-15 0.0000000000000000e+00  1.0000000000000005e+01 6.0838782336321019e-15 0.0000000000000000e+00  9.9999999999999929e+00 -8.5782498061909734e-15 0.0000000000000000e+00  1.0000000000000021e+01 1.1423792012535570e-14 0.0000000000000000e+00  9.9999999999999680e+00 -2.3581401064692084e-14 0.0000000000000000e+00  1.0000000000000068e+01 3.9194023092378467e-14 0.0000000000000000e+00  9.9999999999998899e+00 -6.9475853360236683e-14 0.0000000000000000e+00  1.0000000000000210e+01 1.2647337024825491e-13 0.0000000000000000e+00  9.9999999999996394e+00 -2.3158121923297130e-13 0.0000000000000000e+00  1.0000000000000654e+01 4.2085235419957003e-13 0.0000000000000000e+00  9.9999999999988614e+00 -7.5770264234536301e-13 0.0000000000000000e+00  1.0000000000002000e+01 1.3562243844037224e-12 0.0000000000000000e+00  9.9999999999965450e+00 -2.4064773814086086e-12 0.0000000000000000e+00  1.0000000000005956e+01 4.2456064691306044e-12 0.0000000000000000e+00  9.9999999999898304e+00 -7.4367267748610713e-12 0.0000000000000000e+00  1.0000000000017252e+01 1.2934822235945522e-11 0.0000000000000000e+00  9.9999999999710045e+00 -2.2306624657546614e-11 0.0000000000000000e+00  1.0000000000048283e+01 3.8107759029500140e-11 0.0000000000000000e+00  9.9999999999204796e+00 -6.4380449373732126e-11 0.0000000000000000e+00  1.0000000000129431e+01 1.0736458506152403e-10 0.0000000000000000e+00  9.9999999997920881e+00 -1.7647849335328155e-10 0.0000000000000000e+00  1.0000000000329395e+01 2.8554425326540433e-10 0.0000000000000000e+00  9.9999999994856452e+00 -4.5446155179233017e-10 0.0000000000000000e+00  1.0000000000791578e+01 7.1131897274593238e-10 0.0000000000000000e+00  9.9999999987992254e+00 -1.0951557949985387e-09 0.0000000000000000e+00  1.0000000001796252e+01 1.6594321600923372e-09 0.0000000000000000e+00  9.9999999973488158e+00 -2.4763495073154562e-09 0.0000000000000000e+00  1.0000000003863351e+01 3.6422608772383016e-09 0.0000000000000000e+00  9.9999999944376263e+00 -5.2846800589237026e-09 0.0000000000000000e+00  1.0000000007919889e+01 7.5720278517492435e-09 0.0000000000000000e+00  9.9999999888364535e+00 -1.0727224784235105e-08 0.0000000000000000e+00  1.0000000015595930e+01 1.5046403991996790e-08 0.0000000000000000e+00  9.9999999783808775e+00 -2.0922470168133623e-08 0.0000000000000000e+00  1.0000000029764651e+01 2.8875022628686795e-08 0.0000000000000000e+00  9.9999999592655922e+00 -3.9587165332186627e-08 0.0000000000000000e+00  1.0000000055454212e+01 5.3961711720893298e-08 0.0000000000000000e+00  9.9999999248376756e+00 -7.3198430669550153e-08 0.0000000000000000e+00  1.0000000101515138e+01 9.8919289336540209e-08 0.0000000000000000e+00  9.9999998632437777e+00 -1.3329851374572314e-07 0.0000000000000000e+00  1.0000000183838589e+01 1.7925654646859607e-07 0.0000000000000000e+00  9.9999997532997629e+00 -2.4057594402528722e-07 0.0000000000000000e+00  1.0000000330367879e+01 3.2226484748281363e-07 0.0000000000000000e+00  9.9999995582859267e+00 -4.3077698005554408e-07 0.0000000000000000e+00  1.0000000589587273e+01 5.7511713337572794e-07 0.0000000000000000e+00  9.9999992132108151e+00 -7.6709265804461130e-07 0.0000000000000000e+00  1.0000001049056406e+01 1.0234189554051738e-06 0.0000000000000000e+00  9.9999986008510291e+00 -1.3642728582394937e-06 0.0000000000000000e+00  1.0000001861798218e+01 1.8173256914599542e-06 0.0000000000000000e+00  9.9999975243727590e+00 -2.4140454107586538e-06 0.0000000000000000e+00  1.0000003281089544e+01 3.2027089579897043e-06 0.0000000000000000e+00  9.9999956467628195e+00 -4.2424751465299105e-06 0.0000000000000000e+00  1.0000005766612263e+01 5.6280041913611187e-06 0.0000000000000000e+00  9.9999923424417005e+00 -7.4652817722706142e-06 0.0000000000000000e+00  1.0000010133315637e+01 9.8975565165961631e-06 0.0000000000000000e+00  9.9999866057452493e+00 -1.3070469193965007e-05 0.0000000000000000e+00  1.0000017605458167e+01 1.7189255384500833e-05 0.0000000000000000e+00  9.9999768714635859e+00 -2.2557486015488388e-05 0.0000000000000000e+00  1.0000030386064306e+01 2.9625332396889959e-05 0.0000000000000000e+00  9.9999599881181709e+00 -3.9048956641189824e-05 0.0000000000000000e+00  1.0000052692425383e+01 5.1442926001615942e-05 0.0000000000000000e+00  9.9999310332799780e+00 -6.7460128279525384e-05 0.0000000000000000e+00  1.0000089653382409e+01 8.7584132098734329e-05 0.0000000000000000e+00  9.9998843336736005e+00 -1.1291819081710935e-04 0.0000000000000000e+00  1.0000149479592039e+01 1.4565840769455846e-04 0.0000000000000000e+00  9.9998058363777886e+00 -1.8930862604408288e-04 0.0000000000000000e+00  1.0000253221829080e+01 2.4756495382141847e-04 0.0000000000000000e+00  9.9996719501902280e+00 -3.2157884052674113e-04 0.0000000000000000e+00  1.0000417421638330e+01 4.0957184814250665e-04 0.0000000000000000e+00  9.9994784409160573e+00 -5.0990832972257801e-04 0.0000000000000000e+00  1.0000647032856742e+01 6.3038180560292872e-04 0.0000000000000000e+00  9.9991859508209391e+00 -7.9045413885965848e-04 0.0000000000000000e+00  1.0001037437852981e+01 1.0186822021773154e-03 0.0000000000000000e+00  9.9986729581569342e+00 -1.3019976568967064e-03 0.0000000000000000e+00  1.0001605826834476e+01 1.6209779392972550e-03 0.0000000000000000e+00  9.9981041010264118e+00 -1.8119113260140810e-03 0.0000000000000000e+00  1.0001953150731710e+01 2.0684052255260390e-03 0.0000000000000000e+00  9.9975530081933908e+00 -1.9403757199746414e-03 0.0000000000000000e+00  1.0002020027352586e+01 3.0754069684977613e-03 0.0000000000000000e+00  9.9955878299655296e+00 -1.7897106435534969e-03 0.0000000000000000e+00  9.9995999661667856e+00 6.8571087218798309e-03 0.0000000000000000e+00  9.9894413898720167e+00 5.9521183954850303e-03 0.0000000000000000e+00  9.9780061416910293e+00 1.9766775411283778e-02 0.0000000000000000e+00  9.9555762017045417e+00 5.4813250339608842e-02 0.0000000000000000e+00  9.8703523785900131e+00 1.0343662065984661e-01 0.0000000000000000e+00  9.7490412337169410e+00 2.8475792320544563e-01 0.0000000000000000e+00  9.3531846451950891e+00 5.7593657260072895e-01 0.0000000000000000e+00  8.6653050881164742e+00 1.4239859941545707e+00 0.0000000000000000e+00  6.8620897527075915e+00 3.1575361784924105e+00 0.0000000000000000e+00  3.5516617137143811e+00 7.3172403449767778e+00 0.0000000000000000e+00  2.7770857606204018e+00 6.1245571735506585e+00 0.0000000000000000e+00  2.0139465671841026e+00 3.4980812281966980e+00 0.0000000000000000e+00  1.2467864453500204e+00 7.5547246865220397e-01 0.0000000000000000e+00  1.0155225338068266e+00 6.3229494647713894e-02 0.0000000000000000e+00  1.0007526554023953e+00 1.4159757576163469e-03 0.0000000000000000e+00  1.0004948929096305e+00 -8.3673232518022213e-04 0.0000000000000000e+00  9.9971533066880147e-01 8.3302733045755560e-04 0.0000000000000000e+00  1.0000865127717766e+00 -2.7660987533518263e-04 0.0000000000000000e+00  1.0000042268039122e+00 4.4915118664452189e-06 0.0000000000000000e+00  9.9998180531600411e-01 4.8432099782762537e-05 0.0000000000000000e+00  1.0000093827808703e+00 -2.7755550388023495e-05 0.0000000000000000e+00  9.9999810848728210e-01 6.6313410942838684e-06 0.0000000000000000e+00  9.9999933418725873e-01 1.3521877846789925e-06 0.0000000000000000e+00  1.0000007200746370e+00 -1.9578188793904937e-06 0.0000000000000000e+00  9.9999971724820780e-01 8.4894901417890846e-07 0.0000000000000000e+00  1.0000000280266605e+00 -1.2143009293688571e-07 0.0000000000000000e+00  1.0000000353143859e+00 -8.4610546390299981e-08 0.0000000000000000e+00  9.9999997520459116e-01 6.8942594600064299e-08 0.0000000000000000e+00  1.0000000075350080e+00 -2.3349069936748730e-08 0.0000000000000000e+00  1.0000000002201181e+00 7.4120798845584209e-10 0.0000000000000000e+00  9.9999999853449917e-01 3.7351419756266243e-09 0.0000000000000000e+00  1.0000000007785341e+00 -2.2119254647889769e-09 0.0000000000000000e+00  9.9999999982583798e-01 5.7056114878657732e-10 0.0000000000000000e+00  9.9999999995923106e-01 7.3212151485609400e-11 0.0000000000000000e+00  1.0000000000534872e+00 -1.4136384374007295e-10 0.0000000000000000e+00  9.9999999997741584e-01 6.5719022715307858e-11 0.0000000000000000e+00  1.0000000000031453e+00 -1.1670119382128549e-11 0.0000000000000000e+00  1.0000000000022247e+00 -5.0591872313235559e-12 0.0000000000000000e+00  9.9999999999821132e-01 4.8583656862951100e-12 0.0000000000000000e+00  1.0000000000006044e+00 -1.8119721673258561e-12 0.0000000000000000e+00  9.9999999999997891e-01 1.5617738662282694e-13 0.0000000000000000e+00  9.9999999999990663e-01 2.3028397173479372e-13 0.0000000000000000e+00  1.0000000000000557e+00 -1.5534404559948034e-13 0.0000000000000000e+00  9.9999999999998657e-01 4.5825640631667478e-14 0.0000000000000000e+00  9.9999999999999833e-01 1.5768612408642225e-15 0.0000000000000000e+00  1.0000000000000042e+00 -8.9389171087998383e-15 0.0000000000000000e+00  9.9999999999999900e-01 4.2040052842547784e-15 0.0000000000000000e+00  1.0000000000000009e+00 -2.1848312472443386e-16 0.0000000000000000e+00  1.0000000000000007e+00 -1.9183612670719090e-16 0.0000000000000000e+00  9.9999999999999989e-01 1.1621360693223991e-16 0.0000000000000000e+00  1.0000000000000009e+00 -6.2793416214993762e-16 0.0000000000000000e+00  1.0000000000000007e+00 -4.3520578692297139e-17 0.0000000000000000e+00  1.0000000000000004e+00 6.9019102262387719e-16 0.0000000000000000e+00  1.0000000000000007e+00 3.7891952978555989e-17 0.0000000000000000e+00  1.0000000000000002e+00 -4.4609248261415376e-16 0.0000000000000000e+00  1.0000000000000007e+00 -1.8913565707276629e-16 0.0000000000000000e+00  1.0000000000000007e+00 6.1527057390523336e-16 0.0000000000000000e+00  1.0000000000000000e+00 1.0999099612414923e-16 0.0000000000000000e+00  1.0000000000000004e+00 -2.7351124126724874e-16 0.0000000000000000e+00  1.0000000000000007e+00 -6.1142673345402970e-16 0.0000000000000000e+00  1.0000000000000004e+00 2.6623269324717700e-16 0.0000000000000000e+00  1.0000000000000009e+00 4.2747142052886558e-16 0.0000000000000000e+00  1.0000000000000002e+00 -1.0226063009911449e-15 0.0000000000000000e+00  1.0000000000000011e+00 1.3837896940264528e-15 0.0000000000000000e+00  1.0000000000000002e+00 -1.0040610808532473e-15 0.0000000000000000e+00  1.0000000000000004e+00 6.7213413603801373e-16 0.0000000000000000e+00  1.0000000000000009e+00 -6.2569565094489107e-16 0.0000000000000000e+00  1.0000000000000007e+00 -3.5999532181699145e-16 0.0000000000000000e+00  1.0000000000000009e+00 1.5716704097340315e-15 0.0000000000000000e+00  9.9999999999999967e-01 4.1455983876884801e-16 0.0000000000000000e+00  1.0000000000000002e+00 -5.5035789280460278e-16 0.0000000000000000e+00  1.0000000000000002e+00 1.5020447401385781e-16 0.0000000000000000e+00  1.0000000000000000e+00 -7.6235589202209384e-16 0.0000000000000000e+00  1.0000000000000009e+00 8.1039132979991307e-17 0.0000000000000000e+00  1.0000000000000004e+00 -5.2480810382151003e-16 0.0000000000000000e+00  1.0000000000000004e+00 9.7337192926769956e-16 0.0000000000000000e+00  1.0000000000000002e+00 -1.2586414839442329e-16 0.0000000000000000e+00  1.0000000000000000e+00 1.1823850653330975e-16 0.0000000000000000e+00  1.0000000000000004e+00 -1.6504417242928429e-16 0.0000000000000000e+00  1.0000000000000002e+00 -4.9023072976162245e-16 0.0000000000000000e+00  1.0000000000000004e+00 1.3219179739007517e-15 0.0000000000000000e+00  1.0000000000000000e+00 -6.8021660849274620e-16 0.0000000000000000e+00  1.0000000000000000e+00 3.0687434934601735e-16 0.0000000000000000e+00  1.0000000000000007e+00 -9.6481746226159798e-16 0.0000000000000000e+00  1.0000000000000000e+00 -6.9946607814787206e-16 0.0000000000000000e+00  1.0000000000000018e+00 1.9991247971309087e-16 0.0000000000000000e+00  1.0000000000000002e+00 9.9147859777141385e-16 0.0000000000000000e+00  1.0000000000000002e+00 -2.3671355061533197e-16 0.0000000000000000e+00  1.0000000000000007e+00 4.4762060505380451e-16 0.0000000000000000e+00  1.0000000000000000e+00 1.8326166901750743e-16 0.0000000000000000e+00  9.9999999999999989e-01 4.1344808572299628e-17 0.0000000000000000e+00  1.0000000000000004e+00 -4.8946406638440378e-16 0.0000000000000000e+00  1.0000000000000000e+00 1.5276827354084631e-16 0.0000000000000000e+00  1.0000000000000007e+00 -3.3251906122533335e-16 0.0000000000000000e+00  1.0000000000000002e+00 2.1226131586831742e-16 0.0000000000000000e+00  1.0000000000000004e+00 5.2457174049737359e-16 0.0000000000000000e+00  1.0000000000000000e+00 3.5891039528615513e-16 0.0000000000000000e+00  9.9999999999999933e-01 2.7073373156879899e-16 0.0000000000000000e+00  1.0000000000000004e+00 -1.6069839435665441e-15 0.0000000000000000e+00  1.0000000000000002e+00 9.9194940461517431e-16 0.0000000000000000e+00  1.0000000000000000e+00 -3.0573551180103712e-16 0.0000000000000000e+00  1.0000000000000004e+00 1.4184474834521751e-16 0.0000000000000000e+00  1.0000000000000000e+00 -1.6300181650113742e-16 0.0000000000000000e+00  1.0000000000000002e+00 1.4750255092338818e-16 0.0000000000000000e+00  1.0000000000000004e+00 -3.8327748455430428e-16 0.0000000000000000e+00  9.9999999999999989e-01 6.0172985793784131e-16 0.0000000000000000e+00  1.0000000000000004e+00 -4.3266641951104581e-16 0.0000000000000000e+00  9.9999999999999989e-01 -2.4663698670950842e-16 0.0000000000000000e+00  1.0000000000000009e+00 0.0000000000000000e+00 0.0000000000000000e+00  1.0000000000000002e+01 0.0000000000000000e+00 7.1769234334244547e-16  1.0000000000000000e+01 -3.7561140867130037e-17 6.1376157084214279e-16  1.0000000000000004e+01 4.8493899982842426e-16 1.1583958834270407e-15  1.0000000000000002e+01 8.6511966960994221e-16 1.6598965798661654e-15  1.0000000000000000e+01 5.9267966242151925e-16 3.3121510004518938e-16  1.0000000000000004e+01 -1.6901644464892261e-16 1.8086264290651657e-15  1.0000000000000002e+01 5.5645943724588786e-16 4.3616152692416812e-16  1.0000000000000000e+01 6.1265627083224358e-16 1.6892443714318938e-15  1.0000000000000002e+01 -2.0787420151999380e-16 4.3961924638138628e-16  1.0000000000000002e+01 -9.4957685812440502e-16 1.9396362816392876e-15  1.0000000000000002e+01 -1.9648560447256709e-15 9.0251783400170334e-16  1.0000000000000004e+01 -1.1628392748383846e-15 9.3831958022408098e-16  1.0000000000000002e+01 1.0657937237457518e-15 1.9053528628231919e-15  1.0000000000000004e+01 1.1152595094991252e-15 -1.4573521249301942e-15  1.0000000000000002e+01 9.0876517498634112e-16 5.8261295810784304e-15  1.0000000000000005e+01 -2.3515776425892820e-15 -7.8269252296711866e-15  9.9999999999999964e+00 3.1111010589250191e-15 1.5934957509376715e-14  1.0000000000000012e+01 -5.5438267440656942e-15 -2.6241253799698767e-14  9.9999999999999840e+00 9.4896237063231957e-15 4.8621307984565119e-14  1.0000000000000034e+01 -1.6425251614453934e-14 -8.4629725330754137e-14  9.9999999999999485e+00 2.6529273886834571e-14 1.5267437839295161e-13  1.0000000000000096e+01 -4.7120057583178016e-14 -2.6802232527003992e-13  9.9999999999998419e+00 8.1794261050397579e-14 4.6771674608634578e-13  1.0000000000000274e+01 -1.4162436479188811e-13 -8.0965120401773092e-13  9.9999999999995524e+00 2.4086878233420994e-13 1.3891180829865602e-12  1.0000000000000744e+01 -4.1181646463699818e-13 -2.3673772399986569e-12  9.9999999999987939e+00 6.9254895230497322e-13 4.0025915687585304e-12  1.0000000000001950e+01 -1.1613103788316123e-12 -6.7126487311081740e-12  9.9999999999969162e+00 1.9368398068749161e-12 1.1149850360696054e-11  1.0000000000004803e+01 -3.2153051744746393e-12 -1.8319191425588502e-11  9.9999999999927152e+00 5.3371965893304792e-12 2.9731051575991861e-11  1.0000000000010758e+01 -8.8679226301393745e-12 -4.7592412809314168e-11  9.9999999999846736e+00 1.4747294813166427e-11 7.5065278983995594e-11  1.0000000000020947e+01 -2.4522546802443184e-11 -1.1655672915602870e-10  9.9999999999728644e+00 4.0652993136758584e-11 1.7808638234523220e-10  1.0000000000032829e+01 -6.6903690390772252e-11 -2.6773336703462314e-10  9.9999999999640696e+00 1.0886171079574358e-10 3.9616559729048939e-10  1.0000000000032990e+01 -1.7461392699358615e-10 -5.7732093076567574e-10  9.9999999999815277e+00 2.7563869263380087e-10 8.2925403903497895e-10  9.9999999999840643e+00 -4.2801445669082867e-10 -1.1752629855259081e-09  1.0000000000082382e+01 6.5392400825425778e-10 1.6454309694876315e-09  9.9999999998023448e+00 -9.8329913039183727e-10 -2.2788123982889776e-09  1.0000000000384105e+01 1.4556096351410157e-09 3.1265695812358323e-09  9.9999999993295567e+00 -2.1221821094479904e-09 -4.2562820057576642e-09  1.0000000001093817e+01 3.0498477088890428e-09 5.7577962067568940e-09  9.9999999982968397e+00 -4.3274130633524808e-09 -7.7508155773890016e-09  1.0000000002565065e+01 6.0742868782376341e-09 1.0395166757411521e-08  9.9999999962321979e+00 -8.4511924309324546e-09 -1.3904637536680560e-08  1.0000000005425671e+01 1.1667350509575627e-08 1.8566832749856103e-08  9.9999999923243283e+00 -1.5991985937949275e-08 -2.4769096602780640e-08  1.0000000010692359e+01 2.1765657135408094e-08 3.3033759249407345e-08  9.9999999853019617e+00 -2.9452119812754016e-08 -4.4057092835450293e-08  1.0000000020041545e+01 3.9684013573730607e-08 5.8766227628931957e-08  9.9999999728135425e+00 -5.3384031238893126e-08 -7.8378651722971666e-08  1.0000000036835619e+01 7.1724267900309841e-08 1.0452784279448913e-07  9.9999999503436428e+00 -9.6272649542586703e-08 -1.3937050285013195e-07  1.0000000066662507e+01 1.2871322369443521e-07 1.8586631046641852e-07  9.9999999114337133e+00 -1.7156896049813826e-07 -2.4783632257026697e-07  1.0000000117631636e+01 2.2781504792538767e-07 3.3050845992774776e-07  9.9999998443434173e+00 -3.0318618422411325e-07 -4.4024846117918232e-07  1.0000000208588702e+01 4.0381491732827748e-07 5.8611223949055936e-07  9.9999997220197159e+00 -5.4006346714453035e-07 -7.7885067252123810e-07  1.0000000372646802e+01 7.1833505161661400e-07 1.0353597847188253e-06  9.9999995124735417e+00 -9.5219170947475960e-07 -1.3744604142307213e-06  1.0000000640879184e+01 1.2504982150328722e-06 1.8267941375086967e-06  9.9999991706380307e+00 -1.6473363858556990e-06 -2.4212144273062275e-06  1.0000001107326444e+01 2.1776942322886694e-06 3.2082505780386797e-06  9.9999985277491010e+00 -2.9059536507391658e-06 -4.2331325770972801e-06  1.0000001986401127e+01 3.8691615511169838e-06 5.5877699886133578e-06  9.9999974118244364e+00 -5.0929990802084796e-06 -7.3635280795083695e-06  1.0000003313474249e+01 6.6094929806156222e-06 9.7189119921846563e-06  9.9999958182687454e+00 -8.5039978998368850e-06 -1.2807082898618040e-05  1.0000005395973178e+01 1.1095552268989698e-05 1.6819331261374616e-05  9.9999927064784018e+00 -1.4719151392713294e-05 -2.1996407935341832e-05  1.0000009901696373e+01 1.9747905403708881e-05 2.8629370664490817e-05  9.9999868473860509e+00 -2.5985385331473899e-05 -3.7299897445041082e-05  1.0000016171086953e+01 3.3013081352265674e-05 4.8629535927280152e-05  9.9999809467479732e+00 -4.0798202632472635e-05 -6.3493429937477706e-05  1.0000022816865258e+01 5.0847186049208283e-05 8.2439937792899015e-05  9.9999695300731020e+00 -6.6636529294436978e-05 -1.0594356504377484e-04  1.0000044055290031e+01 9.1050357547349073e-05 1.34781442516