<?xml version="1.0"?>
<VTKFile type="UnstructuredGrid"  version="0.1"  >
<UnstructuredGrid>
<Piece  NumberOfPoints="8241" NumberOfCells="16000">
<Points>
<DataArray  type="Float64"  NumberOfComponents="3"  format="ascii">-5 -1 0  -4.95 -1 0  -4.9 -1 0  -4.85 -1 0  -4.8 -1 0  -4.75 -1 0  -4.7 -1 0  -4.65 -1 0  -4.6 -1 0  -4.55 -1 0  -4.5 -1 0  -4.45 -1 0  -4.4 -1 0  -4.35 -1 0  -4.3 -1 0  -4.25 -1 0  -4.2 -1 0  -4.15 -1 0  -4.1 -1 0  -4.05 -1 0  -4 -1 0  -3.95 -1 0  -3.9 -1 0  -3.85 -1 0  -3.8 -1 0  -3.75 -1 0  -3.7 -1 0  -3.65 -1 0  -3.6 -1 0  -3.55 -1 0  -3.5 -1 0  -3.45 -1 0  -3.4 -1 0  -3.35 -1 0  -3.3 -1 0  -3.25 -1 0  -3.2 -1 0  -3.15 -1 0  -3.1 -1 0  -3.05 -1 0  -3 -1 0  -2.95 -1 0  -2.9 -1 0  -2.85 -1 0  -2.8 -1 0  -2.75 -1 0  -2.7 -1 0  -2.65 -1 0  -2.6 -1 0  -2.55 -1 0  -2.5 -1 0  -2.45 -1 0  -2.4 -1 0  -2.35 -1 0  -2.3 -1 0  -2.25 -1 0  -2.2 -1 0  -2.15 -1 0  -2.1 -1 0  -2.05 -1 0  -2 -1 0  -1.95 -1 0  -1.9 -1 0  -1.85 -1 0  -1.8 -1 0  -1.75 -1 0  -1.7 -1 0  -1.65 -1 0  -1.6 -1 0  -1.55 -1 0  -1.5 -1 0  -1.45 -1 0  -1.4 -1 0  -1.35 -1 0  -1.3 -1 0  -1.25 -1 0  -1.2 -1 0  -1.15 -1 0  -1.1 -1 0  -1.05 -1 0  -1 -1 0  -0.9500000000000002 -1 0  -0.9000000000000004 -1 0  -0.8499999999999996 -1 0  -0.7999999999999998 -1 0  -0.75 -1 0  -0.7000000000000002 -1 0  -0.6500000000000004 -1 0  -0.5999999999999996 -1 0  -0.5499999999999998 -1 0  -0.5 -1 0  -0.4500000000000002 -1 0  -0.4000000000000004 -1 0  -0.3499999999999996 -1 0  -0.2999999999999998 -1 0  -0.25 -1 0  -0.2000000000000002 -1 0  -0.1500000000000004 -1 0  -0.09999999999999964 -1 0  -0.04999999999999982 -1 0  0 -1 0  0.04999999999999982 -1 0  0.09999999999999964 -1 0  0.1500000000000004 -1 0  0.2000000000000002 -1 0  0.25 -1 0  0.2999999999999998 -1 0  0.3499999999999996 -1 0  0.4000000000000004 -1 0  0.4500000000000002 -1 0  0.5 -1 0  0.5499999999999998 -1 0  0.5999999999999996 -1 0  0.6500000000000004 -1 0  0.7000000000000002 -1 0  0.75 -1 0  0.7999999999999998 -1 0  0.8499999999999996 -1 0  0.9000000000000004 -1 0  0.9500000000000002 -1 0  1 -1 0  1.05 -1 0  1.1 -1 0  1.15 -1 0  1.2 -1 0  1.25 -1 0  1.3 -1 0  1.35 -1 0  1.4 -1 0  1.45 -1 0  1.5 -1 0  1.55 -1 0  1.6 -1 0  1.65 -1 0  1.7 -1 0  1.75 -1 0  1.8 -1 0  1.85 -1 0  1.9 -1 0  1.95 -1 0  2 -1 0  2.05 -1 0  2.1 -1 0  2.15 -1 0  2.2 -1 0  2.25 -1 0  2.3 -1 0  2.35 -1 0  2.4 -1 0  2.45 -1 0  2.5 -1 0  2.55 -1 0  2.6 -1 0  2.65 -1 0  2.7 -1 0  2.75 -1 0  2.8 -1 0  2.85 -1 0  2.9 -1 0  2.95 -1 0  3 -1 0  3.050000000000001 -1 0  3.1 -1 0  3.15 -1 0  3.199999999999999 -1 0  3.25 -1 0  3.300000000000001 -1 0  3.35 -1 0  3.4 -1 0  3.449999999999999 -1 0  3.5 -1 0  3.550000000000001 -1 0  3.6 -1 0  3.65 -1 0  3.699999999999999 -1 0  3.75 -1 0  3.800000000000001 -1 0  3.85 -1 0  3.9 -1 0  3.949999999999999 -1 0  4 -1 0  4.050000000000001 -1 0  4.1 -1 0  4.15 -1 0  4.199999999999999 -1 0  4.25 -1 0  4.300000000000001 -1 0  4.35 -1 0  4.4 -1 0  4.449999999999999 -1 0  4.5 -1 0  4.550000000000001 -1 0  4.6 -1 0  4.65 -1 0  4.699999999999999 -1 0  4.75 -1 0  4.800000000000001 -1 0  4.85 -1 0  4.9 -1 0  4.949999999999999 -1 0  5 -1 0  -5 -0.95 0  -4.95 -0.95 0  -4.9 -0.95 0  -4.85 -0.95 0  -4.8 -0.95 0  -4.75 -0.95 0  -4.7 -0.95 0  -4.65 -0.95 0  -4.6 -0.95 0  -4.55 -0.95 0  -4.5 -0.95 0  -4.45 -0.95 0  -4.4 -0.95 0  -4.35 -0.95 0  -4.3 -0.95 0  -4.25 -0.95 0  -4.2 -0.95 0  -4.15 -0.95 0  -4.1 -0.95 0  -4.05 -0.95 0  -4 -0.95 0  -3.95 -0.95 0  -3.9 -0.95 0  -3.85 -0.95 0  -3.8 -0.95 0  -3.75 -0.95 0  -3.7 -0.95 0  -3.65 -0.95 0  -3.6 -0.95 0  -3.55 -0.95 0  -3.5 -0.95 0  -3.45 -0.95 0  -3.4 -0.95 0  -3.35 -0.95 0  -3.3 -0.95 0  -3.25 -0.95 0  -3.2 -0.95 0  -3.15 -0.95 0  -3.1 -0.95 0  -3.05 -0.95 0  -3 -0.95 0  -2.95 -0.95 0  -2.9 -0.95 0  -2.85 -0.95 0  -2.8 -0.95 0  -2.75 -0.95 0  -2.7 -0.95 0  -2.65 -0.95 0  -2.6 -0.95 0  -2.55 -0.95 0  -2.5 -0.95 0  -2.45 -0.95 0  -2.4 -0.95 0  -2.35 -0.95 0  -2.3 -0.95 0  -2.25 -0.95 0  -2.2 -0.95 0  -2.15 -0.95 0  -2.1 -0.95 0  -2.05 -0.95 0  -2 -0.95 0  -1.95 -0.95 0  -1.9 -0.95 0  -1.85 -0.95 0  -1.8 -0.95 0  -1.75 -0.95 0  -1.7 -0.95 0  -1.65 -0.95 0  -1.6 -0.95 0  -1.55 -0.95 0  -1.5 -0.95 0  -1.45 -0.95 0  -1.4 -0.95 0  -1.35 -0.95 0  -1.3 -0.95 0  -1.25 -0.95 0  -1.2 -0.95 0  -1.15 -0.95 0  -1.1 -0.95 0  -1.05 -0.95 0  -1 -0.95 0  -0.9500000000000002 -0.95 0  -0.9000000000000004 -0.95 0  -0.8499999999999996 -0.95 0  -0.7999999999999998 -0.95 0  -0.75 -0.95 0  -0.7000000000000002 -0.95 0  -0.6500000000000004 -0.95 0  -0.5999999999999996 -0.95 0  -0.5499999999999998 -0.95 0  -0.5 -0.95 0  -0.4500000000000002 -0.95 0  -0.4000000000000004 -0.95 0  -0.3499999999999996 -0.95 0  -0.2999999999999998 -0.95 0  -0.25 -0.95 0  -0.2000000000000002 -0.95 0  -0.1500000000000004 -0.95 0  -0.09999999999999964 -0.95 0  -0.04999999999999982 -0.95 0  0 -0.95 0  0.04999999999999982 -0.95 0  0.09999999999999964 -0.95 0  0.1500000000000004 -0.95 0  0.2000000000000002 -0.95 0  0.25 -0.95 0  0.2999999999999998 -0.95 0  0.3499999999999996 -0.95 0  0.4000000000000004 -0.95 0  0.4500000000000002 -0.95 0  0.5 -0.95 0  0.5499999999999998 -0.95 0  0.5999999999999996 -0.95 0  0.6500000000000004 -0.95 0  0.7000000000000002 -0.95 0  0.75 -0.95 0  0.7999999999999998 -0.95 0  0.8499999999999996 -0.95 0  0.9000000000000004 -0.95 0  0.9500000000000002 -0.95 0  1 -0.95 0  1.05 -0.95 0  1.1 -0.95 0  1.15 -0.95 0  1.2 -0.95 0  1.25 -0.95 0  1.3 -0.95 0  1.35 -0.95 0  1.4 -0.95 0  1.45 -0.95 0  1.5 -0.95 0  1.55 -0.95 0  1.6 -0.95 0  1.65 -0.95 0  1.7 -0.95 0  1.75 -0.95 0  1.8 -0.95 0  1.85 -0.95 0  1.9 -0.95 0  1.95 -0.95 0  2 -0.95 0  2.05 -0.95 0  2.1 -0.95 0  2.15 -0.95 0  2.2 -0.95 0  2.25 -0.95 0  2.3 -0.95 0  2.35 -0.95 0  2.4 -0.95 0  2.45 -0.95 0  2.5 -0.95 0  2.55 -0.95 0  2.6 -0.95 0  2.65 -0.95 0  2.7 -0.95 0  2.75 -0.95 0  2.8 -0.95 0  2.85 -0.95 0  2.9 -0.95 0  2.95 -0.95 0  3 -0.95 0  3.050000000000001 -0.95 0  3.1 -0.95 0  3.15 -0.95 0  3.199999999999999 -0.95 0  3.25 -0.95 0  3.300000000000001 -0.95 0  3.35 -0.95 0  3.4 -0.95 0  3.449999999999999 -0.95 0  3.5 -0.95 0  3.550000000000001 -0.95 0  3.6 -0.95 0  3.65 -0.95 0  3.699999999999999 -0.95 0  3.75 -0.95 0  3.800000000000001 -0.95 0  3.85 -0.95 0  3.9 -0.95 0  3.949999999999999 -0.95 0  4 -0.95 0  4.050000000000001 -0.95 0  4.1 -0.95 0  4.15 -0.95 0  4.199999999999999 -0.95 0  4.25 -0.95 0  4.300000000000001 -0.95 0  4.35 -0.95 0  4.4 -0.95 0  4.449999999999999 -0.95 0  4.5 -0.95 0  4.550000000000001 -0.95 0  4.6 -0.95 0  4.65 -0.95 0  4.699999999999999 -0.95 0  4.75 -0.95 0  4.800000000000001 -0.95 0  4.85 -0.95 0  4.9 -0.95 0  4.949999999999999 -0.95 0  5 -0.95 0  -5 -0.9 0  -4.95 -0.9 0  -4.9 -0.9 0  -4.85 -0.9 0  -4.8 -0.9 0  -4.75 -0.9 0  -4.7 -0.9 0  -4.65 -0.9 0  -4.6 -0.9 0  -4.55 -0.9 0  -4.5 -0.9 0  -4.45 -0.9 0  -4.4 -0.9 0  -4.35 -0.9 0  -4.3 -0.9 0  -4.25 -0.9 0  -4.2 -0.9 0  -4.15 -0.9 0  -4.1 -0.9 0  -4.05 -0.9 0  -4 -0.9 0  -3.95 -0.9 0  -3.9 -0.9 0  -3.85 -0.9 0  -3.8 -0.9 0  -3.75 -0.9 0  -3.7 -0.9 0  -3.65 -0.9 0  -3.6 -0.9 0  -3.55 -0.9 0  -3.5 -0.9 0  -3.45 -0.9 0  -3.4 -0.9 0  -3.35 -0.9 0  -3.3 -0.9 0  -3.25 -0.9 0  -3.2 -0.9 0  -3.15 -0.9 0  -3.1 -0.9 0  -3.05 -0.9 0  -3 -0.9 0  -2.95 -0.9 0  -2.9 -0.9 0  -2.85 -0.9 0  -2.8 -0.9 0  -2.75 -0.9 0  -2.7 -0.9 0  -2.65 -0.9 0  -2.6 -0.9 0  -2.55 -0.9 0  -2.5 -0.9 0  -2.45 -0.9 0  -2.4 -0.9 0  -2.35 -0.9 0  -2.3 -0.9 0  -2.25 -0.9 0  -2.2 -0.9 0  -2.15 -0.9 0  -2.1 -0.9 0  -2.05 -0.9 0  -2 -0.9 0  -1.95 -0.9 0  -1.9 -0.9 0  -1.85 -0.9 0  -1.8 -0.9 0  -1.75 -0.9 0  -1.7 -0.9 0  -1.65 -0.9 0  -1.6 -0.9 0  -1.55 -0.9 0  -1.5 -0.9 0  -1.45 -0.9 0  -1.4 -0.9 0  -1.35 -0.9 0  -1.3 -0.9 0  -1.25 -0.9 0  -1.2 -0.9 0  -1.15 -0.9 0  -1.1 -0.9 0  -1.05 -0.9 0  -1 -0.9 0  -0.9500000000000002 -0.9 0  -0.9000000000000004 -0.9 0  -0.8499999999999996 -0.9 0  -0.7999999999999998 -0.9 0  -0.75 -0.9 0  -0.7000000000000002 -0.9 0  -0.6500000000000004 -0.9 0  -0.5999999999999996 -0.9 0  -0.5499999999999998 -0.9 0  -0.5 -0.9 0  -0.4500000000000002 -0.9 0  -0.4000000000000004 -0.9 0  -0.3499999999999996 -0.9 0  -0.2999999999999998 -0.9 0  -0.25 -0.9 0  -0.2000000000000002 -0.9 0  -0.1500000000000004 -0.9 0  -0.09999999999999964 -0.9 0  -0.04999999999999982 -0.9 0  0 -0.9 0  0.04999999999999982 -0.9 0  0.09999999999999964 -0.9 0  0.1500000000000004 -0.9 0  0.2000000000000002 -0.9 0  0.25 -0.9 0  0.2999999999999998 -0.9 0  0.3499999999999996 -0.9 0  0.4000000000000004 -0.9 0  0.4500000000000002 -0.9 0  0.5 -0.9 0  0.5499999999999998 -0.9 0  0.5999999999999996 -0.9 0  0.6500000000000004 -0.9 0  0.7000000000000002 -0.9 0  0.75 -0.9 0  0.7999999999999998 -0.9 0  0.8499999999999996 -0.9 0  0.9000000000000004 -0.9 0  0.9500000000000002 -0.9 0  1 -0.9 0  1.05 -0.9 0  1.1 -0.9 0  1.15 -0.9 0  1.2 -0.9 0  1.25 -0.9 0  1.3 -0.9 0  1.35 -0.9 0  1.4 -0.9 0  1.45 -0.9 0  1.5 -0.9 0  1.55 -0.9 0  1.6 -0.9 0  1.65 -0.9 0  1.7 -0.9 0  1.75 -0.9 0  1.8 -0.9 0  1.85 -0.9 0  1.9 -0.9 0  1.95 -0.9 0  2 -0.9 0  2.05 -0.9 0  2.1 -0.9 0  2.15 -0.9 0  2.2 -0.9 0  2.25 -0.9 0  2.3 -0.9 0  2.35 -0.9 0  2.4 -0.9 0  2.45 -0.9 0  2.5 -0.9 0  2.55 -0.9 0  2.6 -0.9 0  2.65 -0.9 0  2.7 -0.9 0  2.75 -0.9 0  2.8 -0.9 0  2.85 -0.9 0  2.9 -0.9 0  2.95 -0.9 0  3 -0.9 0  3.050000000000001 -0.9 0  3.1 -0.9 0  3.15 -0.9 0  3.199999999999999 -0.9 0  3.25 -0.9 0  3.300000000000001 -0.9 0  3.35 -0.9 0  3.4 -0.9 0  3.449999999999999 -0.9 0  3.5 -0.9 0  3.550000000000001 -0.9 0  3.6 -0.9 0  3.65 -0.9 0  3.699999999999999 -0.9 0  3.75 -0.9 0  3.800000000000001 -0.9 0  3.85 -0.9 0  3.9 -0.9 0  3.949999999999999 -0.9 0  4 -0.9 0  4.050000000000001 -0.9 0  4.1 -0.9 0  4.15 -0.9 0  4.199999999999999 -0.9 0  4.25 -0.9 0  4.300000000000001 -0.9 0  4.35 -0.9 0  4.4 -0.9 0  4.449999999999999 -0.9 0  4.5 -0.9 0  4.550000000000001 -0.9 0  4.6 -0.9 0  4.65 -0.9 0  4.699999999999999 -0.9 0  4.75 -0.9 0  4.800000000000001 -0.9 0  4.85 -0.9 0  4.9 -0.9 0  4.949999999999999 -0.9 0  5 -0.9 0  -5 -0.85 0  -4.95 -0.85 0  -4.9 -0.85 0  -4.85 -0.85 0  -4.8 -0.85 0  -4.75 -0.85 0  -4.7 -0.85 0  -4.65 -0.85 0  -4.6 -0.85 0  -4.55 -0.85 0  -4.5 -0.85 0  -
[...]
<PointData  Vectors="f_15"> 
<DataArray  type="Float64"  Name="f_15"  NumberOfComponents="3" format="ascii">3.0000000893972718e+00 0.0000000000000000e+00 0.0000000000000000e+00  2.9999999162071180e+00 -1.2128071805893816e-07 0.0000000000000000e+00  3.0000000781354927e+00 1.3909403455917608e-07 0.0000000000000000e+00  2.9999999114128859e+00 -1.5615974686594391e-07 0.0000000000000000e+00  3.0000001050379015e+00 1.6786442793289246e-07 0.0000000000000000e+00  2.9999998736284246e+00 -1.8530781977521023e-07 0.0000000000000000e+00  3.0000001532472740e+00 2.0878512824641765e-07 0.0000000000000000e+00  2.9999998090228122e+00 -2.4252900679896524e-07 0.0000000000000000e+00  3.0000002477133485e+00 2.9548802370717704e-07 0.0000000000000000e+00  2.9999996675657901e+00 -3.7967126344811207e-07 0.0000000000000000e+00  3.0000004522762893e+00 5.0349563190445475e-07 0.0000000000000000e+00  2.9999993874422923e+00 -6.6906544765946809e-07 0.0000000000000000e+00  3.0000008214182978e+00 8.7961972289972431e-07 0.0000000000000000e+00  2.9999989030629255e+00 -1.1551802324152772e-06 0.0000000000000000e+00  3.0000014698225281e+00 1.5421866639488912e-06 0.0000000000000000e+00  2.9999980247299742e+00 -2.1014104054471634e-06 0.0000000000000000e+00  3.0000026368347341e+00 2.8748394746981032e-06 0.0000000000000000e+00  2.9999965440039023e+00 -3.8585288503372282e-06 0.0000000000000000e+00  3.0000044222809192e+00 5.0161872002101477e-06 0.0000000000000000e+00  2.9999944588751122e+00 -6.3392508848038450e-06 0.0000000000000000e+00  3.0000068537013411e+00 7.9037355355688623e-06 0.0000000000000000e+00  2.9999915832853219e+00 -9.8510392176834671e-06 0.0000000000000000e+00  3.0000102418686003e+00 1.2266570567312341e-05 0.0000000000000000e+00  2.9999877593306099e+00 -1.5040951168127188e-05 0.0000000000000000e+00  3.0000142388224291e+00 1.7856507541921258e-05 0.0000000000000000e+00  2.9999839259092900e+00 -2.0375643097641594e-05 0.0000000000000000e+00  3.0000177033071429e+00 2.2506185493426342e-05 0.0000000000000000e+00  2.9999807923592736e+00 -2.4482182677885629e-05 0.0000000000000000e+00  3.0000206422763416e+00 2.6597934757563122e-05 0.0000000000000000e+00  2.9999781391609965e+00 -2.8725731216700545e-05 0.0000000000000000e+00  3.0000224556315773e+00 3.0121362891757048e-05 0.0000000000000000e+00  2.9999779827814854e+00 -2.9725125993195438e-05 0.0000000000000000e+00  3.0000203875749256e+00 2.7099147448604602e-05 0.0000000000000000e+00  2.9999820206076873e+00 -2.2771855923329526e-05 0.0000000000000000e+00  3.0000152866386456e+00 1.8365471756639153e-05 0.0000000000000000e+00  2.9999871223107997e+00 -1.4657124814774231e-05 0.0000000000000000e+00  3.0000101892197275e+00 1.1750509698736567e-05 0.0000000000000000e+00  2.9999929621316022e+00 -6.9010524408365282e-06 0.0000000000000000e+00  3.0000019641058078e+00 -3.0495241540537918e-07 0.0000000000000000e+00  3.0000033238917032e+00 1.1696966373777330e-05 0.0000000000000000e+00  2.9999904322450677e+00 -2.0792117382191464e-05 0.0000000000000000e+00  3.0000118084757426e+00 2.8387028959563762e-05 0.0000000000000000e+00  2.9999859368575632e+00 -2.5768981587995860e-05 0.0000000000000000e+00  3.0000110923112029e+00 2.5929174019784167e-05 0.0000000000000000e+00  2.9999854018004597e+00 -2.1774664293746721e-05 0.0000000000000000e+00  3.0000145790582509e+00 3.3822241219981682e-05 0.0000000000000000e+00  2.9999760297111258e+00 -3.8100437897525848e-05 0.0000000000000000e+00  3.0000211843729545e+00 4.8494571656034413e-05 0.0000000000000000e+00  2.9999786462404150e+00 -3.4029937197109871e-05 0.0000000000000000e+00  3.0000080307822845e+00 1.9996119186683529e-05 0.0000000000000000e+00  2.9999965677809786e+00 -5.1051682096491779e-06 0.0000000000000000e+00  3.0000053385165266e+00 2.7361150675001044e-06 0.0000000000000000e+00  2.9999906427538159e+00 -2.6328306464280174e-05 0.0000000000000000e+00  3.0000234437206692e+00 1.9307294833729611e-05 0.0000000000000000e+00  2.9999950915219769e+00 -3.2715652578270584e-05 0.0000000000000000e+00  3.0000075676505826e+00 -1.7425766573483696e-05 0.0000000000000000e+00  3.0000201697832756e+00 9.7837788781498775e-06 0.0000000000000000e+00  2.9999988768353201e+00 -2.8673083555269130e-05 0.0000000000000000e+00  2.9999977602132248e+00 2.1456270137352834e-06 0.0000000000000000e+00  3.0000109744032120e+00 1.8985123165574265e-05 0.0000000000000000e+00  2.9999781620344144e+00 1.8621937704361608e-05 0.0000000000000000e+00  2.9999758398569134e+00 2.8277518324613831e-05 0.0000000000000000e+00  2.9999696932683437e+00 9.2734332438904513e-05 0.0000000000000000e+00  2.9999267378440182e+00 9.6877214968943689e-05 0.0000000000000000e+00  2.9998678258040901e+00 2.3815361158973787e-04 0.0000000000000000e+00  2.9997696270029333e+00 4.1878302304530199e-04 0.0000000000000000e+00  2.9995246491966854e+00 8.4735955965797350e-04 0.0000000000000000e+00  2.9991116404786853e+00 1.5810096097272608e-03 0.0000000000000000e+00  2.9983514961803848e+00 2.9951154523305728e-03 0.0000000000000000e+00  2.9970307003279482e+00 5.3245020806542923e-03 0.0000000000000000e+00  2.9948455144298967e+00 9.3140242207753535e-03 0.0000000000000000e+00  2.9913918923206588e+00 1.5541519165351601e-02 0.0000000000000000e+00  2.9861068555191292e+00 2.5120449266538343e-02 0.0000000000000000e+00  2.9784028072016904e+00 3.9031096225091072e-02 0.0000000000000000e+00  2.9676612469286621e+00 5.8619792569468726e-02 0.0000000000000000e+00  2.9531844507938114e+00 8.4845271963635074e-02 0.0000000000000000e+00  2.9345348121513388e+00 1.1889392055215105e-01 0.0000000000000000e+00  2.9113125652631608e+00 1.6136312635277644e-01 0.0000000000000000e+00  2.8833702223566910e+00 2.1269064063389778e-01 0.0000000000000000e+00  2.8507098416791790e+00 2.7290034803668756e-01 0.0000000000000000e+00  2.8136645137268226e+00 3.4177270673639909e-01 0.0000000000000000e+00  2.7724711439917709e+00 4.1865969635920591e-01 0.0000000000000000e+00  2.7277371745607288e+00 5.0295087414220474e-01 0.0000000000000000e+00  2.6799352341855731e+00 5.9371268519450160e-01 0.0000000000000000e+00  2.6296436883306105e+00 6.9006131039615115e-01 0.0000000000000000e+00  2.5774299627481168e+00 7.9109053015794317e-01 0.0000000000000000e+00  2.5238282744630682e+00 8.9592534657436818e-01 0.0000000000000000e+00  2.4692973771054620e+00 1.0035996253369459e+00 0.0000000000000000e+00  2.4143258457262027e+00 1.1134943230504903e+00 0.0000000000000000e+00  2.3593206129779105e+00 1.2246860333049292e+00 0.0000000000000000e+00  2.3046040290848184e+00 1.3365479932443944e+00 0.0000000000000000e+00  2.2506103239205224e+00 1.4482702337045485e+00 0.0000000000000000e+00  2.1976427466132251e+00 1.5592998639405722e+00 0.0000000000000000e+00  2.1460585734668087e+00 1.6685649107362939e+00 0.0000000000000000e+00  2.0963482898519561e+00 1.7752276716546160e+00 0.0000000000000000e+00  2.0489906032904441e+00 1.8780285428787036e+00 0.0000000000000000e+00  2.0046721625301065e+00 1.9753658925762037e+00 0.0000000000000000e+00  1.9643139306239978e+00 2.0648668317466199e+00 0.0000000000000000e+00  1.9290782241813351e+00 2.1438971267138442e+00 0.0000000000000000e+00  1.9001062023612636e+00 2.2092153373570658e+00 0.0000000000000000e+00  1.8787436576899612e+00 2.2577986939723322e+00 0.0000000000000000e+00  1.8650894235032685e+00 2.2889499203925925e+00 0.0000000000000000e+00  1.8577965277168951e+00 2.3055535803288794e+00 0.0000000000000000e+00  1.8545446773300240e+00 2.3129145866449461e+00 0.0000000000000000e+00  1.8531988543833384e+00 2.3158708693112944e+00 0.0000000000000000e+00  1.8524626838860363e+00 2.3173076501889440e+00 0.0000000000000000e+00  1.8519802920384723e+00 2.3183019998220078e+00 0.0000000000000000e+00  1.8515777320979268e+00 2.3191883708932242e+00 0.0000000000000000e+00  1.8511610312616347e+00 2.3200443924971750e+00 0.0000000000000000e+00  1.8508540405586171e+00 2.3205084992351113e+00 0.0000000000000000e+00  1.8505161121688727e+00 2.3209745619411617e+00 0.0000000000000000e+00  1.8501204611689417e+00 2.3213649732657267e+00 0.0000000000000000e+00  1.8498899536829636e+00 2.3215316327003355e+00 0.0000000000000000e+00  1.8495340556369846e+00 2.3219949137620022e+00 0.0000000000000000e+00  1.8493023637141999e+00 2.3221339907458045e+00 0.0000000000000000e+00  1.8489951854423237e+00 2.3224749931929360e+00 0.0000000000000000e+00  1.8488103038918333e+00 2.3224778701990956e+00 0.0000000000000000e+00  1.8484326513114009e+00 2.3220175126581775e+00 0.0000000000000000e+00  1.8482341473994168e+00 2.3221024459915021e+00 0.0000000000000000e+00  1.8473388095036196e+00 2.3202040851697099e+00 0.0000000000000000e+00  1.8464446374143189e+00 2.3187459743269412e+00 0.0000000000000000e+00  1.8436002916329599e+00 2.3127842266719729e+00 0.0000000000000000e+00  1.8361944718905305e+00 2.2956805529871218e+00 0.0000000000000000e+00  1.8212840884923496e+00 2.2623153496170891e+00 0.0000000000000000e+00  1.7748505722179786e+00 2.1585742597209410e+00 0.0000000000000000e+00  1.7070405215919553e+00 1.9906871075852242e+00 0.0000000000000000e+00  1.5154067001937914e+00 1.4977336435516211e+00 0.0000000000000000e+00  1.2118708887514971e+00 6.5418334454804494e-01 0.0000000000000000e+00  1.0466916383923635e+00 1.4978216604732061e-01 0.0000000000000000e+00  1.0072762554053725e+00 2.3658899728622031e-02 0.0000000000000000e+00  1.0010360060864700e+00 3.6936441349954678e-03 0.0000000000000000e+00  1.0001887576394148e+00 5.9689463055965868e-04 0.0000000000000000e+00  1.0000440263734056e+00 1.2033038816554179e-04 0.0000000000000000e+00  1.0000032600815618e+00 5.6152917177723689e-05 0.0000000000000000e+00  1.0000053381966998e+00 -3.2830322582163666e-06 0.0000000000000000e+00  1.0000030390041283e+00 2.8402389029524784e-07 0.0000000000000000e+00  9.9999667937108683e-01 1.0093448939227368e-05 0.0000000000000000e+00  1.0000014854708266e+00 -5.4219400255213898e-06 0.0000000000000000e+00  1.0000014660158558e+00 -2.1192215854327345e-06 0.0000000000000000e+00  9.9999742628406285e-01 6.3989518933283590e-06 0.0000000000000000e+00  1.0000015518040977e+00 -4.4286880632805213e-06 0.0000000000000000e+00  1.0000003603008238e+00 -7.9126292093443225e-07 0.0000000000000000e+00  9.9999831673860906e-01 5.0102005522805799e-06 0.0000000000000000e+00  1.0000018755594740e+00 -6.1021123452628222e-06 0.0000000000000000e+00  9.9999866114786762e-01 4.7853084669132622e-06 0.0000000000000000e+00  1.0000007653293079e+00 -2.9779572783719050e-06 0.0000000000000000e+00  9.9999945554428071e-01 2.0030494640901103e-06 0.0000000000000000e+00  1.0000006338282772e+00 -1.9695094960509847e-06 0.0000000000000000e+00  9.9999921539481418e-01 2.2642890257266801e-06 0.0000000000000000e+00  1.0000008084352483e+00 -2.3159195754385815e-06 0.0000000000000000e+00  9.9999931819011856e-01 1.9768340360319879e-06 0.0000000000000000e+00  1.0000004903704025e+00 -1.4369407168529800e-06 0.0000000000000000e+00  9.9999967466764739e-01 9.4761716919736404e-07 0.0000000000000000e+00  1.0000002243050805e+00 -6.3325369696472605e-07 0.0000000000000000e+00  9.9999982543835297e-01 4.7457158673678730e-07 0.0000000000000000e+00  1.0000001461910817e+00 -3.9098359225961658e-07 0.0000000000000000e+00  9.9999988111458071e-01 3.1936934568683995e-07 0.0000000000000000e+00  1.0000000885593980e+00 -2.4071830318811933e-07 0.0000000000000000e+00  9.9999993981001400e-01 1.6499189401613956e-07 0.0000000000000000e+00  1.0000000388158701e+00 -1.0614758243014032e-07 0.0000000000000000e+00  9.9999997453331202e-01 6.8600389982506338e-08 0.0000000000000000e+00  1.0000000179681197e+00 -4.7551881742621194e-08 0.0000000000000000e+00  9.9999998654350852e-01 3.5368762090532384e-08 0.0000000000000000e+00  1.0000000100655881e+00 -2.6591737679476456e-08 0.0000000000000000e+00  9.9999999283269692e-01 1.9120107230249409e-08 0.0000000000000000e+00  1.0000000048036741e+00 -1.2907469046263485e-08 0.0000000000000000e+00  9.9999999690082031e-01 8.3273202039299601e-09 0.0000000000000000e+00  1.0000000020105342e+00 -5.3596019521057655e-09 0.0000000000000000e+00  9.9999999863971467e-01 3.5890795537815997e-09 0.0000000000000000e+00  1.0000000009587813e+00 -2.5169315398352034e-09 0.0000000000000000e+00  9.9999999931931249e-01 1.7907119541624484e-09 0.0000000000000000e+00  1.0000000004707303e+00 -1.2455116307352606e-09 0.0000000000000000e+00  9.9999999968677522e-01 8.3270631012608685e-10 0.0000000000000000e+00  1.0000000002027272e+00 -5.3924781437442146e-10 0.0000000000000000e+00  9.9999999986911248e-01 3.4672511840989104e-10 0.0000000000000000e+00  1.0000000000862532e+00 -2.2711377381146318e-10 0.0000000000000000e+00  9.9999999994176292e-01 1.5276022138461400e-10 0.0000000000000000e+00  1.0000000000396538e+00 -1.0403034507674746e-10 0.0000000000000000e+00  9.9999999997331868e-01 7.0193063705641759e-11 0.0000000000000000e+00  1.0000000000175571e+00 -4.6314736585767479e-11 0.0000000000000000e+00  9.9999999998866296e-01 2.9927540250363133e-11 0.0000000000000000e+00  1.0000000000072804e+00 -1.9178328303449789e-11 0.0000000000000000e+00  9.9999999999528877e-01 1.2371464866589754e-11 0.0000000000000000e+00  1.0000000000030882e+00 -8.0862281561564195e-12 0.0000000000000000e+00  9.9999999999796363e-01 5.3297666812639249e-12 0.0000000000000000e+00  1.0000000000013374e+00 -3.5027782400140333e-12 0.0000000000000000e+00  9.9999999999913303e-01 2.2761291448306913e-12 0.0000000000000000e+00  1.0000000000005567e+00 -1.4595716653014753e-12 0.0000000000000000e+00  9.9999999999964506e-01 9.3068279210359415e-13 0.0000000000000000e+00  1.0000000000002269e+00 -5.9269082100102566e-13 0.0000000000000000e+00  9.9999999999985445e-01 3.8044823647578561e-13 0.0000000000000000e+00  1.0000000000000944e+00 -2.4437926173885630e-13 0.0000000000000000e+00  9.9999999999993971e-01 1.5885271779322979e-13 0.0000000000000000e+00  1.0000000000000391e+00 -1.0080920777607757e-13 0.0000000000000000e+00  9.9999999999997558e-01 6.5312104886643535e-14 0.0000000000000000e+00  1.0000000000000162e+00 -4.0004712453322337e-14 0.0000000000000000e+00  9.9999999999998945e-01 2.5596941221017679e-14 0.0000000000000000e+00  1.0000000000000069e+00 -1.5602798515794780e-14 0.0000000000000000e+00  9.9999999999999500e-01 9.1212454965758322e-15 0.0000000000000000e+00  1.0000000000000027e+00 -3.5597153832982127e-15 0.0000000000000000e+00  9.9999999999999567e-01 0.0000000000000000e+00 0.0000000000000000e+00  3.0000000356321794e+00 0.0000000000000000e+00 4.9467706275340172e-08  2.9999999621719944e+00 1.3162142306992655e-08 -1.1593751422035823e-08  3.0000000244003990e+00 4.5215693898777221e-09 3.5386871825806317e-10  2.9999999835189937e+00 -3.1328345071014344e-08 -2.2366586424399229e-08  3.0000000105818874e+00 4.7067309921673163e-08 4.3117278517567760e-08  2.9999999913984876e+00 -6.1036373784007192e-08 -7.0585350530804518e-08  3.0000000057887810e+00 7.5646386454201882e-08 1.0838332930986146e-07  3.0000000011211427e+00 -9.3383051010255646e-08 -1.6374062005952636e-07  2.9999999851640196e+00 1.1422199747580943e-07 2.4515667195585296e-07  3.0000000345240845e+00 -1.4324781017974294e-07 -3.6283406274716447e-07  2.9999999430959705e+00 1.9171727284269069e-07 5.2851271578885900e-07  3.0000000795121449e+00 -2.7250059313360401e-07 -7.5644199073369870e-07  2.9999998943433721e+00 3.9035674987934256e-07 1.0653122669547950e-06  3.0000001454538481e+00 -5.3796913785497413e-07 -1.4799566290265286e-06  2.9999997906728399e+00 7.0645267145989874e-07 2.0306725008518065e-06  3.0000002966488548e+00 -9.0690348487373904e-07 -2.7492863898538763e-06  2.9999996096232002e+00 1.1831993141648864e-06 3.6639452832192026e-06  3.0000004675719283e+00 -1.5944272006749283e-06 -4.7969316892110974e-06  2.9999994774506429e+00 2.1693452824229501e-06 6.1678958242132269e-06  3.0000005816017068e+00 -2.8703597886218644e-06 -7.7990240171150614e-06  2.9999993130873994e+00 3.6148952102651125e-06 9.7132948488894072e-06  3.0000008513734961e+00 -4.3592774455566287e-06 -1.1919597587286803e-05  2.9999989774436244e+00 5.1785512321652375e-06 1.4390414913885096e-05  3.0000011026938687e+00 -6.2439211023402330e-06 -1.7049887945068709e-05  2.9999989698476344e+00 7.6691071920350729e-06 1.9788468007913467e-05  3.0000008593217933e+00 -9.3355804309451520e-06 -2.2498201284904862e-05  2.9999992527702894e+00 1.0882349933163343e-05 2.5098791253184101e-05  3.0000008249354675e+00 -1.1952407088358213e-05 -2.7521247037839037e-05  2.9999989592921219e+00 1.2524240178339408e-05 2.9655375833523289e-05  3.0000011512969675e+00 -1.3026869587956839e-05 -3.1309278926126433e-05  2.9999991059279982e+00 1.3976317282429030e-05 3.2247279568356900e-05  3.0000002864394104e+00 -1.5442572222670109e-05 -3.2298836030119558e-05  3.0000003371100434e+00 1.6657666810898679e-05 3.1472726778770879e-05  2.9999995533604094e+00 -1.6598331424372788e-05 -2.9937111312953976e-05  2.9999999389937528e+00 1.4618194498422779e-05 2.7893040355888250e-05  3.0000009403561436e+00 -1.1714064682232887e-05 -2.5368441076809142e-05  2.9999988121692143e+00 9.2515079171658085e-06 2.2265529555838163e-05  3.0000006618929325e+00 -9.2351652074986794e-06 -1.8451377930959290e-05  3.0000010402570592e+00 1.0184779294773277e-05 1.4187814200615205e-05  2.9999982225405573e+00 -1.1403584822889899e-05 -9.8893098668062690e-06  3.0000020217865475e+00 7.7752725527651514e-06 6.3079555195979634e-06  3.0000009198866882e+00 -3.0080669488697555e-06 -3.4368659264805077e-06  2.9999981016572455e+00 -5.3129644676307344e-06 1.4230818782586245e-06  3.0000040180067891e+00 4.3028539674766834e-06 6.8616917463353425e-07  3.0000013175139371e+00 -3.0077969872448840e-06 -2.3130916357482272e-06  2.9999974704532009e+00 -9.3806514388039199e-06 4.0115735716521787e-06  3.0000085284956231e+00 7.0400431359791021e-06 -4.0714883734800533e-06  2.9999989492319261e+00 -6.7214324503147222e-06 3.5110090034060431e-06  2.9999994615750585e+00 -1.1150980697219535e-05 -1.4182476940799868e-06  3.0000088801347036e+00 1.2155362314182115e-05 -3.7892381295188934e-07  2.9999982073986584e+00 -7.2448314156024384e-06 1.9629129026626456e-06  2.9999938128062107e+00 -9.3589264675182502e-06 -3.6343880896037653e-06  3.0000109097783207e+00 2.7103697411119409e-05 4.2569607741052670e-06  2.9999869664024446e+00 -8.7695664959332643e-06 -7.1830161116754251e-06  2.9999909103820577e+00 8.6424996747315359e-06 7.6025599920337030e-06  3.0000033075530652e+00 2.8850588689936411e-05 -1.1174899535373869e-05  2.9999830616700569e+00 4.7297895606509586e-06 1.0741189428959463e-05  2.9999862292381421e+00 7.5779649164264628e-07 -1.2203866828033391e-05  3.0000073404190353e+00 3.2876626433784906e-05 1.1163734283926128e-05  2.9999862861757518e+00 -1.5082651694315124e-05 -9.0244266389848780e-06  2.9999948678005262e+00 -6.8817455948640472e-07 9.4612693012601974e-06  3.0000092520680433e+00 1.6496079455877651e-05 -5.4823770560660948e-06  2.9999795207013524e+00 1.3355304517558015e-05 7.4435166410247982e-06  2.9999576594928437e+00 7.2981159828111993e-05 -1.5526801688716738e-06  2.9999089614311005e+00 1.9097032923516541e-04 2.9167992897434537e-07  2.9997728448135677e+00 4.0425078278668035e-04 7.0838112744488418e-06  2.9995411762863275e+00 8.2517095435408964e-04 -7.1790296586516369e-06  2.9991197775065639e+00 1.6196849890578982e-03 1.1970389589251426e-05  2.9983395921433003e+00 2.9894867026882752e-03 -6.3240740480715438e-06  2.9970215261498296e+00 5.3975511716040587e-03 1.7023849513285668e-05  2.9948456709381062e+00 9.3338448663378946e-03 -1.0156537344864639e-05  2.9913739520580993e+00 1.5612212711925078e-02 2.3296675134256086e-05  2.9860955417317703e+00 2.5151923479947245e-02 -1.1370271774310628e-05  2.9784186440154272e+00 3.9116032226031480e-02 1.0996912510303021e-05  2.9676414519984697e+00 5.8622683899174105e-02 -8.8360630002121619e-06  2.9531921374312482e+00 8.4895703070790599e-02 -2.2221370118981056e-06  2.9345501024193292e+00 1.1891434224757774e-01 -1.5279705431747600e-05  2.9113189153485566e+00 1.6135438371974939e-01 -9.5139775408861542e-06  2.8833587708690263e+00 2.1267557128573736e-01 -9.6229769314406260e-06  2.8507462290665999e+00 2.7290447913630456e-01 -1.7140870288345995e-05  2.8136444001036001e+00 3.4172977532938209e-01 2.9779071558668093e-07  2.77247826018424