<?xml version="1.0"?>
<VTKFile type="UnstructuredGrid"  version="0.1"  >
<UnstructuredGrid>
<Piece  NumberOfPoints="8241" NumberOfCells="16000">
<Points>
<DataArray  type="Float64"  NumberOfComponents="3"  format="ascii">-5 -1 0  -4.95 -1 0  -4.9 -1 0  -4.85 -1 0  -4.8 -1 0  -4.75 -1 0  -4.7 -1 0  -4.65 -1 0  -4.6 -1 0  -4.55 -1 0  -4.5 -1 0  -4.45 -1 0  -4.4 -1 0  -4.35 -1 0  -4.3 -1 0  -4.25 -1 0  -4.2 -1 0  -4.15 -1 0  -4.1 -1 0  -4.05 -1 0  -4 -1 0  -3.95 -1 0  -3.9 -1 0  -3.85 -1 0  -3.8 -1 0  -3.75 -1 0  -3.7 -1 0  -3.65 -1 0  -3.6 -1 0  -3.55 -1 0  -3.5 -1 0  -3.45 -1 0  -3.4 -1 0  -3.35 -1 0  -3.3 -1 0  -3.25 -1 0  -3.2 -1 0  -3.15 -1 0  -3.1 -1 0  -3.05 -1 0  -3 -1 0  -2.95 -1 0  -2.9 -1 0  -2.85 -1 0  -2.8 -1 0  -2.75 -1 0  -2.7 -1 0  -2.65 -1 0  -2.6 -1 0  -2.55 -1 0  -2.5 -1 0  -2.45 -1 0  -2.4 -1 0  -2.35 -1 0  -2.3 -1 0  -2.25 -1 0  -2.2 -1 0  -2.15 -1 0  -2.1 -1 0  -2.05 -1 0  -2 -1 0  -1.95 -1 0  -1.9 -1 0  -1.85 -1 0  -1.8 -1 0  -1.75 -1 0  -1.7 -1 0  -1.65 -1 0  -1.6 -1 0  -1.55 -1 0  -1.5 -1 0  -1.45 -1 0  -1.4 -1 0  -1.35 -1 0  -1.3 -1 0  -1.25 -1 0  -1.2 -1 0  -1.15 -1 0  -1.1 -1 0  -1.05 -1 0  -1 -1 0  -0.9500000000000002 -1 0  -0.9000000000000004 -1 0  -0.8499999999999996 -1 0  -0.7999999999999998 -1 0  -0.75 -1 0  -0.7000000000000002 -1 0  -0.6500000000000004 -1 0  -0.5999999999999996 -1 0  -0.5499999999999998 -1 0  -0.5 -1 0  -0.4500000000000002 -1 0  -0.4000000000000004 -1 0  -0.3499999999999996 -1 0  -0.2999999999999998 -1 0  -0.25 -1 0  -0.2000000000000002 -1 0  -0.1500000000000004 -1 0  -0.09999999999999964 -1 0  -0.04999999999999982 -1 0  0 -1 0  0.04999999999999982 -1 0  0.09999999999999964 -1 0  0.1500000000000004 -1 0  0.2000000000000002 -1 0  0.25 -1 0  0.2999999999999998 -1 0  0.3499999999999996 -1 0  0.4000000000000004 -1 0  0.4500000000000002 -1 0  0.5 -1 0  0.5499999999999998 -1 0  0.5999999999999996 -1 0  0.6500000000000004 -1 0  0.7000000000000002 -1 0  0.75 -1 0  0.7999999999999998 -1 0  0.8499999999999996 -1 0  0.9000000000000004 -1 0  0.9500000000000002 -1 0  1 -1 0  1.05 -1 0  1.1 -1 0  1.15 -1 0  1.2 -1 0  1.25 -1 0  1.3 -1 0  1.35 -1 0  1.4 -1 0  1.45 -1 0  1.5 -1 0  1.55 -1 0  1.6 -1 0  1.65 -1 0  1.7 -1 0  1.75 -1 0  1.8 -1 0  1.85 -1 0  1.9 -1 0  1.95 -1 0  2 -1 0  2.05 -1 0  2.1 -1 0  2.15 -1 0  2.2 -1 0  2.25 -1 0  2.3 -1 0  2.35 -1 0  2.4 -1 0  2.45 -1 0  2.5 -1 0  2.55 -1 0  2.6 -1 0  2.65 -1 0  2.7 -1 0  2.75 -1 0  2.8 -1 0  2.85 -1 0  2.9 -1 0  2.95 -1 0  3 -1 0  3.050000000000001 -1 0  3.1 -1 0  3.15 -1 0  3.199999999999999 -1 0  3.25 -1 0  3.300000000000001 -1 0  3.35 -1 0  3.4 -1 0  3.449999999999999 -1 0  3.5 -1 0  3.550000000000001 -1 0  3.6 -1 0  3.65 -1 0  3.699999999999999 -1 0  3.75 -1 0  3.800000000000001 -1 0  3.85 -1 0  3.9 -1 0  3.949999999999999 -1 0  4 -1 0  4.050000000000001 -1 0  4.1 -1 0  4.15 -1 0  4.199999999999999 -1 0  4.25 -1 0  4.300000000000001 -1 0  4.35 -1 0  4.4 -1 0  4.449999999999999 -1 0  4.5 -1 0  4.550000000000001 -1 0  4.6 -1 0  4.65 -1 0  4.699999999999999 -1 0  4.75 -1 0  4.800000000000001 -1 0  4.85 -1 0  4.9 -1 0  4.949999999999999 -1 0  5 -1 0  -5 -0.95 0  -4.95 -0.95 0  -4.9 -0.95 0  -4.85 -0.95 0  -4.8 -0.95 0  -4.75 -0.95 0  -4.7 -0.95 0  -4.65 -0.95 0  -4.6 -0.95 0  -4.55 -0.95 0  -4.5 -0.95 0  -4.45 -0.95 0  -4.4 -0.95 0  -4.35 -0.95 0  -4.3 -0.95 0  -4.25 -0.95 0  -4.2 -0.95 0  -4.15 -0.95 0  -4.1 -0.95 0  -4.05 -0.95 0  -4 -0.95 0  -3.95 -0.95 0  -3.9 -0.95 0  -3.85 -0.95 0  -3.8 -0.95 0  -3.75 -0.95 0  -3.7 -0.95 0  -3.65 -0.95 0  -3.6 -0.95 0  -3.55 -0.95 0  -3.5 -0.95 0  -3.45 -0.95 0  -3.4 -0.95 0  -3.35 -0.95 0  -3.3 -0.95 0  -3.25 -0.95 0  -3.2 -0.95 0  -3.15 -0.95 0  -3.1 -0.95 0  -3.05 -0.95 0  -3 -0.95 0  -2.95 -0.95 0  -2.9 -0.95 0  -2.85 -0.95 0  -2.8 -0.95 0  -2.75 -0.95 0  -2.7 -0.95 0  -2.65 -0.95 0  -2.6 -0.95 0  -2.55 -0.95 0  -2.5 -0.95 0  -2.45 -0.95 0  -2.4 -0.95 0  -2.35 -0.95 0  -2.3 -0.95 0  -2.25 -0.95 0  -2.2 -0.95 0  -2.15 -0.95 0  -2.1 -0.95 0  -2.05 -0.95 0  -2 -0.95 0  -1.95 -0.95 0  -1.9 -0.95 0  -1.85 -0.95 0  -1.8 -0.95 0  -1.75 -0.95 0  -1.7 -0.95 0  -1.65 -0.95 0  -1.6 -0.95 0  -1.55 -0.95 0  -1.5 -0.95 0  -1.45 -0.95 0  -1.4 -0.95 0  -1.35 -0.95 0  -1.3 -0.95 0  -1.25 -0.95 0  -1.2 -0.95 0  -1.15 -0.95 0  -1.1 -0.95 0  -1.05 -0.95 0  -1 -0.95 0  -0.9500000000000002 -0.95 0  -0.9000000000000004 -0.95 0  -0.8499999999999996 -0.95 0  -0.7999999999999998 -0.95 0  -0.75 -0.95 0  -0.7000000000000002 -0.95 0  -0.6500000000000004 -0.95 0  -0.5999999999999996 -0.95 0  -0.5499999999999998 -0.95 0  -0.5 -0.95 0  -0.4500000000000002 -0.95 0  -0.4000000000000004 -0.95 0  -0.3499999999999996 -0.95 0  -0.2999999999999998 -0.95 0  -0.25 -0.95 0  -0.2000000000000002 -0.95 0  -0.1500000000000004 -0.95 0  -0.09999999999999964 -0.95 0  -0.04999999999999982 -0.95 0  0 -0.95 0  0.04999999999999982 -0.95 0  0.09999999999999964 -0.95 0  0.1500000000000004 -0.95 0  0.2000000000000002 -0.95 0  0.25 -0.95 0  0.2999999999999998 -0.95 0  0.3499999999999996 -0.95 0  0.4000000000000004 -0.95 0  0.4500000000000002 -0.95 0  0.5 -0.95 0  0.5499999999999998 -0.95 0  0.5999999999999996 -0.95 0  0.6500000000000004 -0.95 0  0.7000000000000002 -0.95 0  0.75 -0.95 0  0.7999999999999998 -0.95 0  0.8499999999999996 -0.95 0  0.9000000000000004 -0.95 0  0.9500000000000002 -0.95 0  1 -0.95 0  1.05 -0.95 0  1.1 -0.95 0  1.15 -0.95 0  1.2 -0.95 0  1.25 -0.95 0  1.3 -0.95 0  1.35 -0.95 0  1.4 -0.95 0  1.45 -0.95 0  1.5 -0.95 0  1.55 -0.95 0  1.6 -0.95 0  1.65 -0.95 0  1.7 -0.95 0  1.75 -0.95 0  1.8 -0.95 0  1.85 -0.95 0  1.9 -0.95 0  1.95 -0.95 0  2 -0.95 0  2.05 -0.95 0  2.1 -0.95 0  2.15 -0.95 0  2.2 -0.95 0  2.25 -0.95 0  2.3 -0.95 0  2.35 -0.95 0  2.4 -0.95 0  2.45 -0.95 0  2.5 -0.95 0  2.55 -0.95 0  2.6 -0.95 0  2.65 -0.95 0  2.7 -0.95 0  2.75 -0.95 0  2.8 -0.95 0  2.85 -0.95 0  2.9 -0.95 0  2.95 -0.95 0  3 -0.95 0  3.050000000000001 -0.95 0  3.1 -0.95 0  3.15 -0.95 0  3.199999999999999 -0.95 0  3.25 -0.95 0  3.300000000000001 -0.95 0  3.35 -0.95 0  3.4 -0.95 0  3.449999999999999 -0.95 0  3.5 -0.95 0  3.550000000000001 -0.95 0  3.6 -0.95 0  3.65 -0.95 0  3.699999999999999 -0.95 0  3.75 -0.95 0  3.800000000000001 -0.95 0  3.85 -0.95 0  3.9 -0.95 0  3.949999999999999 -0.95 0  4 -0.95 0  4.050000000000001 -0.95 0  4.1 -0.95 0  4.15 -0.95 0  4.199999999999999 -0.95 0  4.25 -0.95 0  4.300000000000001 -0.95 0  4.35 -0.95 0  4.4 -0.95 0  4.449999999999999 -0.95 0  4.5 -0.95 0  4.550000000000001 -0.95 0  4.6 -0.95 0  4.65 -0.95 0  4.699999999999999 -0.95 0  4.75 -0.95 0  4.800000000000001 -0.95 0  4.85 -0.95 0  4.9 -0.95 0  4.949999999999999 -0.95 0  5 -0.95 0  -5 -0.9 0  -4.95 -0.9 0  -4.9 -0.9 0  -4.85 -0.9 0  -4.8 -0.9 0  -4.75 -0.9 0  -4.7 -0.9 0  -4.65 -0.9 0  -4.6 -0.9 0  -4.55 -0.9 0  -4.5 -0.9 0  -4.45 -0.9 0  -4.4 -0.9 0  -4.35 -0.9 0  -4.3 -0.9 0  -4.25 -0.9 0  -4.2 -0.9 0  -4.15 -0.9 0  -4.1 -0.9 0  -4.05 -0.9 0  -4 -0.9 0  -3.95 -0.9 0  -3.9 -0.9 0  -3.85 -0.9 0  -3.8 -0.9 0  -3.75 -0.9 0  -3.7 -0.9 0  -3.65 -0.9 0  -3.6 -0.9 0  -3.55 -0.9 0  -3.5 -0.9 0  -3.45 -0.9 0  -3.4 -0.9 0  -3.35 -0.9 0  -3.3 -0.9 0  -3.25 -0.9 0  -3.2 -0.9 0  -3.15 -0.9 0  -3.1 -0.9 0  -3.05 -0.9 0  -3 -0.9 0  -2.95 -0.9 0  -2.9 -0.9 0  -2.85 -0.9 0  -2.8 -0.9 0  -2.75 -0.9 0  -2.7 -0.9 0  -2.65 -0.9 0  -2.6 -0.9 0  -2.55 -0.9 0  -2.5 -0.9 0  -2.45 -0.9 0  -2.4 -0.9 0  -2.35 -0.9 0  -2.3 -0.9 0  -2.25 -0.9 0  -2.2 -0.9 0  -2.15 -0.9 0  -2.1 -0.9 0  -2.05 -0.9 0  -2 -0.9 0  -1.95 -0.9 0  -1.9 -0.9 0  -1.85 -0.9 0  -1.8 -0.9 0  -1.75 -0.9 0  -1.7 -0.9 0  -1.65 -0.9 0  -1.6 -0.9 0  -1.55 -0.9 0  -1.5 -0.9 0  -1.45 -0.9 0  -1.4 -0.9 0  -1.35 -0.9 0  -1.3 -0.9 0  -1.25 -0.9 0  -1.2 -0.9 0  -1.15 -0.9 0  -1.1 -0.9 0  -1.05 -0.9 0  -1 -0.9 0  -0.9500000000000002 -0.9 0  -0.9000000000000004 -0.9 0  -0.8499999999999996 -0.9 0  -0.7999999999999998 -0.9 0  -0.75 -0.9 0  -0.7000000000000002 -0.9 0  -0.6500000000000004 -0.9 0  -0.5999999999999996 -0.9 0  -0.5499999999999998 -0.9 0  -0.5 -0.9 0  -0.4500000000000002 -0.9 0  -0.4000000000000004 -0.9 0  -0.3499999999999996 -0.9 0  -0.2999999999999998 -0.9 0  -0.25 -0.9 0  -0.2000000000000002 -0.9 0  -0.1500000000000004 -0.9 0  -0.09999999999999964 -0.9 0  -0.04999999999999982 -0.9 0  0 -0.9 0  0.04999999999999982 -0.9 0  0.09999999999999964 -0.9 0  0.1500000000000004 -0.9 0  0.2000000000000002 -0.9 0  0.25 -0.9 0  0.2999999999999998 -0.9 0  0.3499999999999996 -0.9 0  0.4000000000000004 -0.9 0  0.4500000000000002 -0.9 0  0.5 -0.9 0  0.5499999999999998 -0.9 0  0.5999999999999996 -0.9 0  0.6500000000000004 -0.9 0  0.7000000000000002 -0.9 0  0.75 -0.9 0  0.7999999999999998 -0.9 0  0.8499999999999996 -0.9 0  0.9000000000000004 -0.9 0  0.9500000000000002 -0.9 0  1 -0.9 0  1.05 -0.9 0  1.1 -0.9 0  1.15 -0.9 0  1.2 -0.9 0  1.25 -0.9 0  1.3 -0.9 0  1.35 -0.9 0  1.4 -0.9 0  1.45 -0.9 0  1.5 -0.9 0  1.55 -0.9 0  1.6 -0.9 0  1.65 -0.9 0  1.7 -0.9 0  1.75 -0.9 0  1.8 -0.9 0  1.85 -0.9 0  1.9 -0.9 0  1.95 -0.9 0  2 -0.9 0  2.05 -0.9 0  2.1 -0.9 0  2.15 -0.9 0  2.2 -0.9 0  2.25 -0.9 0  2.3 -0.9 0  2.35 -0.9 0  2.4 -0.9 0  2.45 -0.9 0  2.5 -0.9 0  2.55 -0.9 0  2.6 -0.9 0  2.65 -0.9 0  2.7 -0.9 0  2.75 -0.9 0  2.8 -0.9 0  2.85 -0.9 0  2.9 -0.9 0  2.95 -0.9 0  3 -0.9 0  3.050000000000001 -0.9 0  3.1 -0.9 0  3.15 -0.9 0  3.199999999999999 -0.9 0  3.25 -0.9 0  3.300000000000001 -0.9 0  3.35 -0.9 0  3.4 -0.9 0  3.449999999999999 -0.9 0  3.5 -0.9 0  3.550000000000001 -0.9 0  3.6 -0.9 0  3.65 -0.9 0  3.699999999999999 -0.9 0  3.75 -0.9 0  3.800000000000001 -0.9 0  3.85 -0.9 0  3.9 -0.9 0  3.949999999999999 -0.9 0  4 -0.9 0  4.050000000000001 -0.9 0  4.1 -0.9 0  4.15 -0.9 0  4.199999999999999 -0.9 0  4.25 -0.9 0  4.300000000000001 -0.9 0  4.35 -0.9 0  4.4 -0.9 0  4.449999999999999 -0.9 0  4.5 -0.9 0  4.550000000000001 -0.9 0  4.6 -0.9 0  4.65 -0.9 0  4.699999999999999 -0.9 0  4.75 -0.9 0  4.800000000000001 -0.9 0  4.85 -0.9 0  4.9 -0.9 0  4.949999999999999 -0.9 0  5 -0.9 0  -5 -0.85 0  -4.95 -0.85 0  -4.9 -0.85 0  -4.85 -0.85 0  -4.8 -0.85 0  -4.75 -0.85 0  -4.7 -0.85 0  -4.65 -0.85 0  -4.6 -0.85 0  -4.55 -0.85 0  -4.5 -0.85 0  -
[...]
<PointData  Vectors="f_15"> 
<DataArray  type="Float64"  Name="f_15"  NumberOfComponents="3" format="ascii">9.9955698171033269e+00 0.0000000000000000e+00 0.0000000000000000e+00  9.9986526878871889e+00 -4.9477844943027205e-03 0.0000000000000000e+00  9.9937083458894609e+00 2.6729125034229639e-04 0.0000000000000000e+00  9.9989782569156329e+00 -6.0319331911328714e-03 0.0000000000000000e+00  9.9935256197891995e+00 4.5226853112357044e-04 0.0000000000000000e+00  9.9979211528282459e+00 -6.3275984400503939e-03 0.0000000000000000e+00  9.9931844754482970e+00 5.0164370223766360e-04 0.0000000000000000e+00  9.9976192003839870e+00 -6.1045241726118840e-03 0.0000000000000000e+00  9.9919091126696848e+00 1.3681606398556442e-03 0.0000000000000000e+00  9.9969889788880835e+00 -5.8200140148864671e-03 0.0000000000000000e+00  9.9908695993286276e+00 2.9893285924817172e-03 0.0000000000000000e+00  9.9951313203556698e+00 -4.1774828804120832e-03 0.0000000000000000e+00  9.9891087690496967e+00 4.9484101212297175e-03 0.0000000000000000e+00  9.9927578646924786e+00 -1.1592509362717673e-03 0.0000000000000000e+00  9.9854112354273710e+00 9.0141764979085534e-03 0.0000000000000000e+00  9.9888704055287114e+00 3.0030875888144839e-03 0.0000000000000000e+00  9.9800392790969266e+00 1.5418281597999409e-02 0.0000000000000000e+00  9.9817844949438843e+00 1.0522050677693722e-02 0.0000000000000000e+00  9.9718601687784503e+00 2.4263953725534727e-02 0.0000000000000000e+00  9.9712669451504787e+00 2.1903194578078142e-02 0.0000000000000000e+00  9.9587034646365975e+00 3.8197886024491715e-02 0.0000000000000000e+00  9.9560160964851825e+00 3.7610577962217347e-02 0.0000000000000000e+00  9.9399138734109727e+00 5.8036299223478846e-02 0.0000000000000000e+00  9.9335090162876174e+00 6.0553360833249664e-02 0.0000000000000000e+00  9.9141395321242189e+00 8.4507124192948785e-02 0.0000000000000000e+00  9.9028899951470244e+00 9.1689913057535918e-02 0.0000000000000000e+00  9.8787934005071101e+00 1.2050542394087647e-01 0.0000000000000000e+00  9.8630312287936661e+00 1.3176382843188433e-01 0.0000000000000000e+00  9.8331116797613625e+00 1.6687465454327849e-01 0.0000000000000000e+00  9.8116867476936029e+00 1.8331696364279590e-01 0.0000000000000000e+00  9.7764448983075951e+00 2.2406169359235778e-01 0.0000000000000000e+00  9.7485061614956692e+00 2.4681644162646399e-01 0.0000000000000000e+00  9.7071545435505513e+00 2.9395947302883052e-01 0.0000000000000000e+00  9.6735297885663858e+00 3.2224263144714788e-01 0.0000000000000000e+00  9.6254025550492042e+00 3.7647303778778324e-01 0.0000000000000000e+00  9.5858874100142746e+00 4.1082548092463839e-01 0.0000000000000000e+00  9.5318688905848656e+00 4.7094995837435655e-01 0.0000000000000000e+00  9.4862505681256177e+00 5.1208349074909709e-01 0.0000000000000000e+00  9.4263418100369982e+00 5.7785771240966399e-01 0.0000000000000000e+00  9.3758163540984683e+00 6.2502202495886894e-01 0.0000000000000000e+00  9.3098058458898176e+00 6.9629794368817932e-01 0.0000000000000000e+00  9.2548697771529298e+00 7.4969238695541363e-01 0.0000000000000000e+00  9.1837558274215958e+00 8.2499364062403435e-01 0.0000000000000000e+00  9.1244926074900548e+00 8.8495849730196896e-01 0.0000000000000000e+00  9.0488067873594566e+00 9.6392245156912781e-01 0.0000000000000000e+00  8.9862331585576332e+00 1.0291399479646819e+00 0.0000000000000000e+00  8.9060260974585432e+00 1.1122473002522490e+00 0.0000000000000000e+00  8.8408236476074364e+00 1.1818767850716894e+00 0.0000000000000000e+00  8.7569237577170309e+00 1.2684390571558650e+00 0.0000000000000000e+00  8.6891750212009260e+00 1.3422867789015649e+00 0.0000000000000000e+00  8.6022755321171580e+00 1.4323245728176011e+00 0.0000000000000000e+00  8.5326540436144942e+00 1.5087368146763656e+00 0.0000000000000000e+00  8.4428112078000677e+00 1.6031769887338401e+00 0.0000000000000000e+00  8.3720070786102543e+00 1.6813632102439879e+00 0.0000000000000000e+00  8.2797354662978648e+00 1.7790527632546196e+00 0.0000000000000000e+00  8.2077607172947076e+00 1.8598856948627289e+00 0.0000000000000000e+00  8.1137658519191369e+00 1.9601985166369398e+00 0.0000000000000000e+00  8.0409105892762227e+00 2.0422659388303783e+00 0.0000000000000000e+00  7.9453005206121441e+00 2.1463980718224889e+00 0.0000000000000000e+00  7.8720737900353122e+00 2.2295567269438226e+00 0.0000000000000000e+00  7.7752053417993041e+00 2.3346959390008943e+00 0.0000000000000000e+00  7.7014856541942027e+00 2.4219582249181433e+00 0.0000000000000000e+00  7.6040705594263924e+00 2.5273235342150095e+00 0.0000000000000000e+00  7.5298069726111123e+00 2.6149259644902094e+00 0.0000000000000000e+00  7.4320999787706059e+00 2.7249672537267307e+00 0.0000000000000000e+00  7.3575127765503163e+00 2.8123230610906953e+00 0.0000000000000000e+00  7.2598444516626417e+00 2.9217504297455905e+00 0.0000000000000000e+00  7.1847314765126029e+00 3.0138397286717478e+00 0.0000000000000000e+00  7.0877346467151918e+00 3.1238346378625699e+00 0.0000000000000000e+00  7.0119266785584031e+00 3.2140637331530084e+00 0.0000000000000000e+00  6.9157566490529954e+00 3.3278868043510599e+00 0.0000000000000000e+00  6.8395915356329349e+00 3.4200034170591338e+00 0.0000000000000000e+00  6.7443000933542034e+00 3.5318660499927330e+00 0.0000000000000000e+00  6.6676170800405909e+00 3.6266209418764896e+00 0.0000000000000000e+00  6.5737962236491727e+00 3.7390982913818616e+00 0.0000000000000000e+00  6.4964967400239475e+00 3.8349560358390402e+00 0.0000000000000000e+00  6.4040734156549330e+00 3.9477847007105513e+00 0.0000000000000000e+00  6.3265719096225634e+00 4.0443723724735019e+00 0.0000000000000000e+00  6.2355596276214671e+00 4.1572497974005600e+00 0.0000000000000000e+00  6.1578039456422697e+00 4.2558973938967979e+00 0.0000000000000000e+00  6.0684670624979775e+00 4.3682018648717964e+00 0.0000000000000000e+00  5.9904740548270592e+00 4.4677999787513452e+00 0.0000000000000000e+00  5.9027806522219874e+00 4.5802085581850909e+00 0.0000000000000000e+00  5.8246955498029545e+00 4.6804899160292361e+00 0.0000000000000000e+00  5.7388192609917494e+00 4.7933915767929589e+00 0.0000000000000000e+00  5.6603807561829305e+00 4.8948788647642463e+00 0.0000000000000000e+00  5.5765867847619726e+00 5.0069088567596953e+00 0.0000000000000000e+00  5.4975553645985347e+00 5.1095052521935260e+00 0.0000000000000000e+00  5.4163520542296402e+00 5.2216697855206311e+00 0.0000000000000000e+00  5.3359308551435367e+00 5.3264480287813258e+00 0.0000000000000000e+00  5.2582251061372869e+00 5.4357088436592056e+00 0.0000000000000000e+00  5.1763398742163815e+00 5.5440897248620811e+00 0.0000000000000000e+00  5.1016872831469611e+00 5.6511653947973501e+00 0.0000000000000000e+00  5.0195962762082678e+00 5.7611497552562794e+00 0.0000000000000000e+00  4.9467165083442266e+00 5.8667626082973925e+00 0.0000000000000000e+00  4.8654797184650898e+00 5.9789939015191083e+00 0.0000000000000000e+00  4.7927159741549961e+00 6.0847097803079455e+00 0.0000000000000000e+00  4.7148799056097879e+00 6.1942564668731777e+00 0.0000000000000000e+00  4.6405216391044561e+00 6.3036937484849096e+00 0.0000000000000000e+00  4.5669628337648751e+00 6.4100413891220942e+00 0.0000000000000000e+00  4.4909024393562538e+00 6.5217206635415241e+00 0.0000000000000000e+00  4.4286317394354278e+00 6.6141957024048894e+00 0.0000000000000000e+00  4.3402600848981168e+00 6.7466235506233767e+00 0.0000000000000000e+00  4.2767421862313819e+00 6.8417553176768404e+00 0.0000000000000000e+00  4.1997334738173704e+00 6.9584729554253659e+00 0.0000000000000000e+00  4.1373536747918962e+00 7.0556881562055684e+00 0.0000000000000000e+00  4.0649242725083949e+00 7.1657822476256703e+00 0.0000000000000000e+00  4.0038707404129745e+00 7.2610837062867351e+00 0.0000000000000000e+00  3.9360736069826823e+00 7.3684223519955250e+00 0.0000000000000000e+00  3.8809946540772557e+00 7.4555069338833775e+00 0.0000000000000000e+00  3.8161904353932754e+00 7.5563412770104907e+00 0.0000000000000000e+00  3.7728384948250175e+00 7.6287379741968095e+00 0.0000000000000000e+00  3.8016821366113693e+00 7.5818732196469769e+00 0.0000000000000000e+00  3.8720190674845836e+00 7.4689013856100077e+00 0.0000000000000000e+00  3.9091592382800089e+00 7.4089712623794242e+00 0.0000000000000000e+00  3.9268639172831539e+00 7.3815047715901860e+00 0.0000000000000000e+00  3.9325781483331768e+00 7.3719386762631176e+00 0.0000000000000000e+00  3.9396524088091276e+00 7.3612193638988801e+00 0.0000000000000000e+00  3.9420043482861522e+00 7.3569346483001086e+00 0.0000000000000000e+00  3.9464782647959344e+00 7.3502232321688528e+00 0.0000000000000000e+00  3.9473366637555976e+00 7.3482178884961842e+00 0.0000000000000000e+00  3.9503117918722941e+00 7.3437424307330303e+00 0.0000000000000000e+00  3.9505683107367626e+00 7.3426599940825827e+00 0.0000000000000000e+00  3.9527901760160069e+00 7.3393540745371100e+00 0.0000000000000000e+00  3.9529264985818515e+00 7.3386073172595925e+00 0.0000000000000000e+00  3.9545985694872394e+00 7.3361329633532941e+00 0.0000000000000000e+00  3.9546372353338630e+00 7.3356330500541977e+00 0.0000000000000000e+00  3.9557495147739568e+00 7.3339294909045920e+00 0.0000000000000000e+00  3.9557081079687464e+00 7.3335647060315283e+00 0.0000000000000000e+00  3.9563873880175793e+00 7.3324015680163752e+00 0.0000000000000000e+00  3.9563108569846195e+00 7.3320915709184797e+00 0.0000000000000000e+00  3.9567017989866535e+00 7.3312382498742368e+00 0.0000000000000000e+00  3.9566429823075397e+00 7.3308868104280780e+00 0.0000000000000000e+00  3.9568695983454130e+00 7.3301838087053381e+00 0.0000000000000000e+00  3.9568585828407437e+00 7.3296990310020531e+00 0.0000000000000000e+00  3.9570030907147880e+00 7.3289841404135485e+00 0.0000000000000000e+00  3.9570124927369279e+00 7.3283168214849228e+00 0.0000000000000000e+00  3.9571006016236332e+00 7.3274177964430560e+00 0.0000000000000000e+00  3.9571049416069943e+00 7.3264374788341726e+00 0.0000000000000000e+00  3.9571363105007169e+00 7.3251960250972568e+00 0.0000000000000000e+00  3.9571248138587376e+00 7.3237346976918385e+00 0.0000000000000000e+00  3.9571085713143601e+00 7.3219976470087103e+00 0.0000000000000000e+00  3.9570696961262990e+00 7.3199919846945978e+00 0.0000000000000000e+00  3.9570155021310063e+00 7.3177153586859784e+00 0.0000000000000000e+00  3.9569495994275332e+00 7.3152291218069090e+00 0.0000000000000000e+00  3.9568570938144911e+00 7.3125682951291209e+00 0.0000000000000000e+00  3.9567668487305672e+00 7.3098060895455177e+00 0.0000000000000000e+00  3.9566390617970972e+00 7.3070213099998913e+00 0.0000000000000000e+00  3.9565161232546271e+00 7.3042890521141688e+00 0.0000000000000000e+00  3.9563500147813131e+00 7.3016332534019543e+00 0.0000000000000000e+00  3.9561734662958461e+00 7.2991663418156634e+00 0.0000000000000000e+00  3.9559341363871305e+00 7.2967852173003092e+00 0.0000000000000000e+00  3.9556267825336846e+00 7.2946101096077562e+00 0.0000000000000000e+00  3.9551776468299988e+00 7.2923352185178558e+00 0.0000000000000000e+00  3.9544686740858936e+00 7.2900820844527709e+00 0.0000000000000000e+00  3.9532954949147641e+00 7.2870259134391464e+00 0.0000000000000000e+00  3.9512501422491351e+00 7.2831889451673861e+00 0.0000000000000000e+00  3.9475287539203010e+00 7.2763963984834463e+00 0.0000000000000000e+00  3.9408650252758171e+00 7.2657792163314383e+00 0.0000000000000000e+00  3.9282240390920711e+00 7.2452016734921036e+00 0.0000000000000000e+00  3.9054528200145642e+00 7.2097821401955366e+00 0.0000000000000000e+00  3.8618803542730773e+00 7.1403675002416902e+00 0.0000000000000000e+00  3.7843582428548479e+00 7.0170607852300204e+00 0.0000000000000000e+00  3.6386442506065722e+00 6.7762881983445968e+00 0.0000000000000000e+00  3.3917062565179847e+00 6.3475285966217028e+00 0.0000000000000000e+00  2.9647921323598432e+00 5.5304852052138953e+00 0.0000000000000000e+00  2.3492424298344785e+00 4.1367331894010757e+00 0.0000000000000000e+00  1.5155474271972897e+00 1.6957799266521050e+00 0.0000000000000000e+00  1.0682807654314275e+00 2.1088842302932229e-01 0.0000000000000000e+00  1.0041809272384847e+00 1.1595259286427287e-02 0.0000000000000000e+00  9.9989568860455047e-01 1.7894066604352218e-03 0.0000000000000000e+00  1.0001897831933300e+00 -4.4955572783447170e-04 0.0000000000000000e+00  9.9990469445237884e-01 2.8732883334752250e-04 0.0000000000000000e+00  1.0000702311463336e+00 -1.9574022131459455e-04 0.0000000000000000e+00  9.9994314246546179e-01 1.5763189981014635e-04 0.0000000000000000e+00  1.0000463725484712e+00 -1.2793853570641864e-04 0.0000000000000000e+00  9.9996318032505283e-01 1.0151212349892624e-04 0.0000000000000000e+00  1.0000286351289422e+00 -7.8871356456660478e-05 0.0000000000000000e+00  9.9997796471509148e-01 6.0606294058918873e-05 0.0000000000000000e+00  1.0000168882904787e+00 -4.6365545882815778e-05 0.0000000000000000e+00  9.9998708417833915e-01 3.5400000211989761e-05 0.0000000000000000e+00  1.0000098463142617e+00 -2.6950696185322039e-05 0.0000000000000000e+00  9.9999253143160949e-01 2.0421667924159096e-05 0.0000000000000000e+00  1.0000056310878500e+00 -1.5382046540023049e-05 0.0000000000000000e+00  9.9999577787658211e-01 1.1519329618730208e-05 0.0000000000000000e+00  1.0000031522630430e+00 -8.5871927813134442e-06 0.0000000000000000e+00  9.9999765373057836e-01 6.3803221320204126e-06 0.0000000000000000e+00  1.0000017411243738e+00 -4.7263101133531828e-06 0.0000000000000000e+00  9.9999871259246897e-01 3.4883431759233275e-06 0.0000000000000000e+00  1.0000009469152349e+00 -2.5611703121785978e-06 0.0000000000000000e+00  9.9999930674188586e-01 1.8699183589158897e-06 0.0000000000000000e+00  1.0000005038818522e+00 -1.3550300755196595e-06 0.0000000000000000e+00  9.9999963356478416e-01 9.7788907899977667e-07 0.0000000000000000e+00  1.0000002630388987e+00 -6.9738777448992163e-07 0.0000000000000000e+00  9.9999980699364432e-01 4.9815397205589661e-07 0.0000000000000000e+00  1.0000001351708587e+00 -3.4280691954682274e-07 0.0000000000000000e+00  9.9999989429960212e-01 2.4083274187957565e-07 0.0000000000000000e+00  1.0000000683144292e+00 -1.4445795081143934e-07 0.0000000000000000e+00  9.9999993162207546e-01 9.8445919926838477e-08 0.0000000000000000e+00  1.0000000323061391e+00 -2.3002717001955958e-08 0.0000000000000000e+00  9.9999993556117228e-01 0.0000000000000000e+00 0.0000000000000000e+00  1.0004164278718877e+01 0.0000000000000000e+00 -1.6136808746551429e-03  1.0001007025935598e+01 4.1018909440156993e-03 2.7039571655370696e-03  1.0004119033365692e+01 9.0758918695064169e-04 -2.5116810829310721e-03  1.0002534761834140e+01 4.7850514424601859e-03 2.4969120204103071e-03  1.0003185472603766e+01 2.1198629176690399e-03 -2.2032851724711278e-03  1.0003079924288437e+01 5.0647763556844125e-03 2.1593053053094277e-03  1.0003261041455669e+01 3.2082666095608297e-03 -1.8918539133253929e-03  1.0002326182338736e+01 5.7480839805596354e-03 1.8137890235012876e-03  1.0002856539979344e+01 3.9876131204084871e-03 -1.5369731848632461e-03  1.0001752834872358e+01 6.7280049992175343e-03 1.4059783964217927e-03  1.0001141494683880e+01 5.6335867387106303e-03 -1.1570893120412830e-03  1.0000369679854446e+01 7.6850572192910084e-03 1.0255999458704270e-03  9.9990084487364115e+00 8.0871635511820892e-03 -7.8885501253339878e-04  9.9971191112415614e+00 1.0203797537007021e-02 6.0908889514263984e-04  9.9954864046099310e+00 1.1176381645663676e-02 -3.5643274382350101e-04  9.9924588026545074e+00 1.4400077113222349e-02 1.7075011167165844e-04  9.9891013660950154e+00 1.6948945444219383e-02 2.1104974232136770e-05  9.9853293746759597e+00 2.0436409189824010e-02 -1.7022870911529800e-04  9.9798367798657139e+00 2.5785229145373678e-02 3.3967305467379275e-04  9.9737766909005661e+00 3.0846106424906199e-02 -5.1166643041978459e-04  9.9664781647026626e+00 3.8215474297250716e-02 6.7753082736896845e-04  9.9573328444900877e+00 4.6345891935416147e-02 -8.1042681385395270e-04  9.9466547105955012e+00 5.7101184060746456e-02 8.8887659667994290e-04  9.9346828170238481e+00 6.7797074262253509e-02 -9.5006328255847847e-04  9.9195990952068822e+00 8.3353114587695190e-02 9.9006419051773107e-04  9.9032706720923471e+00 9.8159707120894238e-02 -1.0420755230184796e-03  9.8841011399610803e+00 1.1789734400350781e-01 1.0569016792197315e-03  9.8623064300459831e+00 1.3831349889985772e-01 -1.0381390702293844e-03  9.8377789135529934e+00 1.6341322860498328e-01 9.5160157913448987e-04  9.8109652142675863e+00 1.8896798159094308e-01 -8.4210427838708258e-04  9.7801325490307836e+00 2.2044901345300491e-01 7.0568736044665167e-04  9.7473804724455508e+00 2.5222811717495713e-01 -5.6648759437977138e-04  9.7109521942180841e+00 2.8923767131734263e-01 3.9063629657041469e-04  9.6715421377496824e+00 3.2812879293324793e-01 -1.6850329440895275e-04  9.6290856470281643e+00 3.7115948016300371e-01 -1.0919752345283840e-04  9.5839136075015592e+00 4.1632640759201900e-01 4.1808664270818287e-04  9.5350386335536399e+00 4.6574672691593527e-01 -7.3173005764181449e-04  9.4840537898378034e+00 5.1748922103366557e-01 1.0380663655938779e-03  9.4298382471902045e+00 5.7217465242933552e-01 -1.3289205736789274e-03  9.3728593645766161e+00 6.3073726659023466e-01 1.6150332486004769e-03  9.3135988899904323e+00 6.9061188382145111e-01 -1.8664667733199597e-03  9.2517334289696542e+00 7.5485674637211564e-01 2.0654026346117716e-03  9.1873915941622997e+00 8.2003475556282801e-01 -2.1615394287994370e-03  9.1211735932480291e+00 8.8963619342803513e-01 2.1595159428365387e-03  9.0527611615298493e+00 9.5910485044251204e-01 -2.0538561902326133e-03  8.9822646264011308e+00 1.0339520144301353e+00 1.8896201412524998e-03  8.9103994363672836e+00 1.1075709646743932e+00 -1.6697060824448062e-03  8.8365360033294618e+00 1.1862891313514510e+00 1.4201909387965828e-03  8.7612822202750866e+00 1.2644820267598418e+00 -1.1311754434987070e-03  8.6847426095547391e+00 1.3464056653499139e+00 8.3464067308912815e-04  8.6068327258161812e+00 1.4282267244204248e+00 -5.4716629310233068e-04  8.5276759385379250e+00 1.5136201235429949e+00 3.1084659052718318e-04  8.4478095470121950e+00 1.5986074516814479e+00 -1.3390795946970763e-04  8.3665888739650285e+00 1.6863264987315050e+00 1.6209598784572354e-05  8.2848186115475819e+00 1.7750771932117146e+00 7.2374966294366769e-05  8.2022001518242931e+00 1.8646813266702538e+00 -1.6520534485543674e-04  8.1189294759532711e+00 1.9557341057367568e+00 2.7732541322864258e-04  8.0349545007711445e+00 2.0484347096437916e+00 -4.0452493386484805e-04  7.9507913287921799e+00 2.1411929756002954e+00 5.2248843940730990e-04  7.8657688755411694e+00 2.2351056395001683e+00 -6.8341789808397163e-04  7.7806834770389388e+00 2.3316579875956673e+00 9.5163289256608907e-04  7.6952612923079666e+00 2.4259265587616934e+00 -1.3970847887103031e-03  7.6093404877880531e+00 2.5237654517025039e+00 1.8838824344305203e-03  7.5236144944791992e+00 2.6214081362569921e+00 -2.2317983692061016e-03  7.4373460222871586e+00 2.7200324747255689e+00 2.2936786024061748e-03  7.3513708342770299e+00 2.8168597696979587e+00 -2.2183252407138210e-03  7.2648869369991278e+00 2.9205067315423823e+00 2.0971143327435768e-03  7.1789838755703030e+00 3.0173527873414181e+00 -1.9504952937327048e-03  7.0924599397691201e+00 3.1191539110377842e+00 1.6160312506078051e-03  7.0065390506366354e+00 3.2212417412913021e+00 -1.3199746913829791e-03  6.9204566435582526e+00 3.3233016980991406e+00 1.2479413209046562e-03  6.8345424773864893e+00 3.4237315311153940e+00 -1.4267990885331594e-03  6.7487808147761310e+00 3.5287643656392240e+00 1.3604751381510033e-03  6.6633752507950375e+00 3.6308379164184421e+00 -1.1077805782173419e-03  6.5779113591713090e+00 3.7349558408764421e+00 8.8994511996308510e-04  6.4928675336917285e+00 3.8386254679444405e+00 -9.8000696831235224e-04  6.4080953494561399e+00 3.9432314822096233e+00 9.7586404295247741e-04  6.3234565778684839e+00 4.0477996795884970e+00 -9.3457528051906294e-04  6.2392102192244341e+00 4.1536326490857913e+00 8.8070214150118699e-04  6.1552856882724223e+00 4.2581882060005176e+00 -8.7113261326023626e-04  6.0716031955284135e+00 4.3644083712441697e+00 6.7520806762019097e-04  5.9883022274069120e+00 4.4703982277278405e+00 -5.4423813433822832e-04  5.9054439605811524e