<?xml version="1.0"?>
<VTKFile type="UnstructuredGrid"  version="0.1"  >
<UnstructuredGrid>
<Piece  NumberOfPoints="8241" NumberOfCells="16000">
<Points>
<DataArray  type="Float64"  NumberOfComponents="3"  format="ascii">-5 -1 0  -4.95 -1 0  -4.9 -1 0  -4.85 -1 0  -4.8 -1 0  -4.75 -1 0  -4.7 -1 0  -4.65 -1 0  -4.6 -1 0  -4.55 -1 0  -4.5 -1 0  -4.45 -1 0  -4.4 -1 0  -4.35 -1 0  -4.3 -1 0  -4.25 -1 0  -4.2 -1 0  -4.15 -1 0  -4.1 -1 0  -4.05 -1 0  -4 -1 0  -3.95 -1 0  -3.9 -1 0  -3.85 -1 0  -3.8 -1 0  -3.75 -1 0  -3.7 -1 0  -3.65 -1 0  -3.6 -1 0  -3.55 -1 0  -3.5 -1 0  -3.45 -1 0  -3.4 -1 0  -3.35 -1 0  -3.3 -1 0  -3.25 -1 0  -3.2 -1 0  -3.15 -1 0  -3.1 -1 0  -3.05 -1 0  -3 -1 0  -2.95 -1 0  -2.9 -1 0  -2.85 -1 0  -2.8 -1 0  -2.75 -1 0  -2.7 -1 0  -2.65 -1 0  -2.6 -1 0  -2.55 -1 0  -2.5 -1 0  -2.45 -1 0  -2.4 -1 0  -2.35 -1 0  -2.3 -1 0  -2.25 -1 0  -2.2 -1 0  -2.15 -1 0  -2.1 -1 0  -2.05 -1 0  -2 -1 0  -1.95 -1 0  -1.9 -1 0  -1.85 -1 0  -1.8 -1 0  -1.75 -1 0  -1.7 -1 0  -1.65 -1 0  -1.6 -1 0  -1.55 -1 0  -1.5 -1 0  -1.45 -1 0  -1.4 -1 0  -1.35 -1 0  -1.3 -1 0  -1.25 -1 0  -1.2 -1 0  -1.15 -1 0  -1.1 -1 0  -1.05 -1 0  -1 -1 0  -0.9500000000000002 -1 0  -0.9000000000000004 -1 0  -0.8499999999999996 -1 0  -0.7999999999999998 -1 0  -0.75 -1 0  -0.7000000000000002 -1 0  -0.6500000000000004 -1 0  -0.5999999999999996 -1 0  -0.5499999999999998 -1 0  -0.5 -1 0  -0.4500000000000002 -1 0  -0.4000000000000004 -1 0  -0.3499999999999996 -1 0  -0.2999999999999998 -1 0  -0.25 -1 0  -0.2000000000000002 -1 0  -0.1500000000000004 -1 0  -0.09999999999999964 -1 0  -0.04999999999999982 -1 0  0 -1 0  0.04999999999999982 -1 0  0.09999999999999964 -1 0  0.1500000000000004 -1 0  0.2000000000000002 -1 0  0.25 -1 0  0.2999999999999998 -1 0  0.3499999999999996 -1 0  0.4000000000000004 -1 0  0.4500000000000002 -1 0  0.5 -1 0  0.5499999999999998 -1 0  0.5999999999999996 -1 0  0.6500000000000004 -1 0  0.7000000000000002 -1 0  0.75 -1 0  0.7999999999999998 -1 0  0.8499999999999996 -1 0  0.9000000000000004 -1 0  0.9500000000000002 -1 0  1 -1 0  1.05 -1 0  1.1 -1 0  1.15 -1 0  1.2 -1 0  1.25 -1 0  1.3 -1 0  1.35 -1 0  1.4 -1 0  1.45 -1 0  1.5 -1 0  1.55 -1 0  1.6 -1 0  1.65 -1 0  1.7 -1 0  1.75 -1 0  1.8 -1 0  1.85 -1 0  1.9 -1 0  1.95 -1 0  2 -1 0  2.05 -1 0  2.1 -1 0  2.15 -1 0  2.2 -1 0  2.25 -1 0  2.3 -1 0  2.35 -1 0  2.4 -1 0  2.45 -1 0  2.5 -1 0  2.55 -1 0  2.6 -1 0  2.65 -1 0  2.7 -1 0  2.75 -1 0  2.8 -1 0  2.85 -1 0  2.9 -1 0  2.95 -1 0  3 -1 0  3.050000000000001 -1 0  3.1 -1 0  3.15 -1 0  3.199999999999999 -1 0  3.25 -1 0  3.300000000000001 -1 0  3.35 -1 0  3.4 -1 0  3.449999999999999 -1 0  3.5 -1 0  3.550000000000001 -1 0  3.6 -1 0  3.65 -1 0  3.699999999999999 -1 0  3.75 -1 0  3.800000000000001 -1 0  3.85 -1 0  3.9 -1 0  3.949999999999999 -1 0  4 -1 0  4.050000000000001 -1 0  4.1 -1 0  4.15 -1 0  4.199999999999999 -1 0  4.25 -1 0  4.300000000000001 -1 0  4.35 -1 0  4.4 -1 0  4.449999999999999 -1 0  4.5 -1 0  4.550000000000001 -1 0  4.6 -1 0  4.65 -1 0  4.699999999999999 -1 0  4.75 -1 0  4.800000000000001 -1 0  4.85 -1 0  4.9 -1 0  4.949999999999999 -1 0  5 -1 0  -5 -0.95 0  -4.95 -0.95 0  -4.9 -0.95 0  -4.85 -0.95 0  -4.8 -0.95 0  -4.75 -0.95 0  -4.7 -0.95 0  -4.65 -0.95 0  -4.6 -0.95 0  -4.55 -0.95 0  -4.5 -0.95 0  -4.45 -0.95 0  -4.4 -0.95 0  -4.35 -0.95 0  -4.3 -0.95 0  -4.25 -0.95 0  -4.2 -0.95 0  -4.15 -0.95 0  -4.1 -0.95 0  -4.05 -0.95 0  -4 -0.95 0  -3.95 -0.95 0  -3.9 -0.95 0  -3.85 -0.95 0  -3.8 -0.95 0  -3.75 -0.95 0  -3.7 -0.95 0  -3.65 -0.95 0  -3.6 -0.95 0  -3.55 -0.95 0  -3.5 -0.95 0  -3.45 -0.95 0  -3.4 -0.95 0  -3.35 -0.95 0  -3.3 -0.95 0  -3.25 -0.95 0  -3.2 -0.95 0  -3.15 -0.95 0  -3.1 -0.95 0  -3.05 -0.95 0  -3 -0.95 0  -2.95 -0.95 0  -2.9 -0.95 0  -2.85 -0.95 0  -2.8 -0.95 0  -2.75 -0.95 0  -2.7 -0.95 0  -2.65 -0.95 0  -2.6 -0.95 0  -2.55 -0.95 0  -2.5 -0.95 0  -2.45 -0.95 0  -2.4 -0.95 0  -2.35 -0.95 0  -2.3 -0.95 0  -2.25 -0.95 0  -2.2 -0.95 0  -2.15 -0.95 0  -2.1 -0.95 0  -2.05 -0.95 0  -2 -0.95 0  -1.95 -0.95 0  -1.9 -0.95 0  -1.85 -0.95 0  -1.8 -0.95 0  -1.75 -0.95 0  -1.7 -0.95 0  -1.65 -0.95 0  -1.6 -0.95 0  -1.55 -0.95 0  -1.5 -0.95 0  -1.45 -0.95 0  -1.4 -0.95 0  -1.35 -0.95 0  -1.3 -0.95 0  -1.25 -0.95 0  -1.2 -0.95 0  -1.15 -0.95 0  -1.1 -0.95 0  -1.05 -0.95 0  -1 -0.95 0  -0.9500000000000002 -0.95 0  -0.9000000000000004 -0.95 0  -0.8499999999999996 -0.95 0  -0.7999999999999998 -0.95 0  -0.75 -0.95 0  -0.7000000000000002 -0.95 0  -0.6500000000000004 -0.95 0  -0.5999999999999996 -0.95 0  -0.5499999999999998 -0.95 0  -0.5 -0.95 0  -0.4500000000000002 -0.95 0  -0.4000000000000004 -0.95 0  -0.3499999999999996 -0.95 0  -0.2999999999999998 -0.95 0  -0.25 -0.95 0  -0.2000000000000002 -0.95 0  -0.1500000000000004 -0.95 0  -0.09999999999999964 -0.95 0  -0.04999999999999982 -0.95 0  0 -0.95 0  0.04999999999999982 -0.95 0  0.09999999999999964 -0.95 0  0.1500000000000004 -0.95 0  0.2000000000000002 -0.95 0  0.25 -0.95 0  0.2999999999999998 -0.95 0  0.3499999999999996 -0.95 0  0.4000000000000004 -0.95 0  0.4500000000000002 -0.95 0  0.5 -0.95 0  0.5499999999999998 -0.95 0  0.5999999999999996 -0.95 0  0.6500000000000004 -0.95 0  0.7000000000000002 -0.95 0  0.75 -0.95 0  0.7999999999999998 -0.95 0  0.8499999999999996 -0.95 0  0.9000000000000004 -0.95 0  0.9500000000000002 -0.95 0  1 -0.95 0  1.05 -0.95 0  1.1 -0.95 0  1.15 -0.95 0  1.2 -0.95 0  1.25 -0.95 0  1.3 -0.95 0  1.35 -0.95 0  1.4 -0.95 0  1.45 -0.95 0  1.5 -0.95 0  1.55 -0.95 0  1.6 -0.95 0  1.65 -0.95 0  1.7 -0.95 0  1.75 -0.95 0  1.8 -0.95 0  1.85 -0.95 0  1.9 -0.95 0  1.95 -0.95 0  2 -0.95 0  2.05 -0.95 0  2.1 -0.95 0  2.15 -0.95 0  2.2 -0.95 0  2.25 -0.95 0  2.3 -0.95 0  2.35 -0.95 0  2.4 -0.95 0  2.45 -0.95 0  2.5 -0.95 0  2.55 -0.95 0  2.6 -0.95 0  2.65 -0.95 0  2.7 -0.95 0  2.75 -0.95 0  2.8 -0.95 0  2.85 -0.95 0  2.9 -0.95 0  2.95 -0.95 0  3 -0.95 0  3.050000000000001 -0.95 0  3.1 -0.95 0  3.15 -0.95 0  3.199999999999999 -0.95 0  3.25 -0.95 0  3.300000000000001 -0.95 0  3.35 -0.95 0  3.4 -0.95 0  3.449999999999999 -0.95 0  3.5 -0.95 0  3.550000000000001 -0.95 0  3.6 -0.95 0  3.65 -0.95 0  3.699999999999999 -0.95 0  3.75 -0.95 0  3.800000000000001 -0.95 0  3.85 -0.95 0  3.9 -0.95 0  3.949999999999999 -0.95 0  4 -0.95 0  4.050000000000001 -0.95 0  4.1 -0.95 0  4.15 -0.95 0  4.199999999999999 -0.95 0  4.25 -0.95 0  4.300000000000001 -0.95 0  4.35 -0.95 0  4.4 -0.95 0  4.449999999999999 -0.95 0  4.5 -0.95 0  4.550000000000001 -0.95 0  4.6 -0.95 0  4.65 -0.95 0  4.699999999999999 -0.95 0  4.75 -0.95 0  4.800000000000001 -0.95 0  4.85 -0.95 0  4.9 -0.95 0  4.949999999999999 -0.95 0  5 -0.95 0  -5 -0.9 0  -4.95 -0.9 0  -4.9 -0.9 0  -4.85 -0.9 0  -4.8 -0.9 0  -4.75 -0.9 0  -4.7 -0.9 0  -4.65 -0.9 0  -4.6 -0.9 0  -4.55 -0.9 0  -4.5 -0.9 0  -4.45 -0.9 0  -4.4 -0.9 0  -4.35 -0.9 0  -4.3 -0.9 0  -4.25 -0.9 0  -4.2 -0.9 0  -4.15 -0.9 0  -4.1 -0.9 0  -4.05 -0.9 0  -4 -0.9 0  -3.95 -0.9 0  -3.9 -0.9 0  -3.85 -0.9 0  -3.8 -0.9 0  -3.75 -0.9 0  -3.7 -0.9 0  -3.65 -0.9 0  -3.6 -0.9 0  -3.55 -0.9 0  -3.5 -0.9 0  -3.45 -0.9 0  -3.4 -0.9 0  -3.35 -0.9 0  -3.3 -0.9 0  -3.25 -0.9 0  -3.2 -0.9 0  -3.15 -0.9 0  -3.1 -0.9 0  -3.05 -0.9 0  -3 -0.9 0  -2.95 -0.9 0  -2.9 -0.9 0  -2.85 -0.9 0  -2.8 -0.9 0  -2.75 -0.9 0  -2.7 -0.9 0  -2.65 -0.9 0  -2.6 -0.9 0  -2.55 -0.9 0  -2.5 -0.9 0  -2.45 -0.9 0  -2.4 -0.9 0  -2.35 -0.9 0  -2.3 -0.9 0  -2.25 -0.9 0  -2.2 -0.9 0  -2.15 -0.9 0  -2.1 -0.9 0  -2.05 -0.9 0  -2 -0.9 0  -1.95 -0.9 0  -1.9 -0.9 0  -1.85 -0.9 0  -1.8 -0.9 0  -1.75 -0.9 0  -1.7 -0.9 0  -1.65 -0.9 0  -1.6 -0.9 0  -1.55 -0.9 0  -1.5 -0.9 0  -1.45 -0.9 0  -1.4 -0.9 0  -1.35 -0.9 0  -1.3 -0.9 0  -1.25 -0.9 0  -1.2 -0.9 0  -1.15 -0.9 0  -1.1 -0.9 0  -1.05 -0.9 0  -1 -0.9 0  -0.9500000000000002 -0.9 0  -0.9000000000000004 -0.9 0  -0.8499999999999996 -0.9 0  -0.7999999999999998 -0.9 0  -0.75 -0.9 0  -0.7000000000000002 -0.9 0  -0.6500000000000004 -0.9 0  -0.5999999999999996 -0.9 0  -0.5499999999999998 -0.9 0  -0.5 -0.9 0  -0.4500000000000002 -0.9 0  -0.4000000000000004 -0.9 0  -0.3499999999999996 -0.9 0  -0.2999999999999998 -0.9 0  -0.25 -0.9 0  -0.2000000000000002 -0.9 0  -0.1500000000000004 -0.9 0  -0.09999999999999964 -0.9 0  -0.04999999999999982 -0.9 0  0 -0.9 0  0.04999999999999982 -0.9 0  0.09999999999999964 -0.9 0  0.1500000000000004 -0.9 0  0.2000000000000002 -0.9 0  0.25 -0.9 0  0.2999999999999998 -0.9 0  0.3499999999999996 -0.9 0  0.4000000000000004 -0.9 0  0.4500000000000002 -0.9 0  0.5 -0.9 0  0.5499999999999998 -0.9 0  0.5999999999999996 -0.9 0  0.6500000000000004 -0.9 0  0.7000000000000002 -0.9 0  0.75 -0.9 0  0.7999999999999998 -0.9 0  0.8499999999999996 -0.9 0  0.9000000000000004 -0.9 0  0.9500000000000002 -0.9 0  1 -0.9 0  1.05 -0.9 0  1.1 -0.9 0  1.15 -0.9 0  1.2 -0.9 0  1.25 -0.9 0  1.3 -0.9 0  1.35 -0.9 0  1.4 -0.9 0  1.45 -0.9 0  1.5 -0.9 0  1.55 -0.9 0  1.6 -0.9 0  1.65 -0.9 0  1.7 -0.9 0  1.75 -0.9 0  1.8 -0.9 0  1.85 -0.9 0  1.9 -0.9 0  1.95 -0.9 0  2 -0.9 0  2.05 -0.9 0  2.1 -0.9 0  2.15 -0.9 0  2.2 -0.9 0  2.25 -0.9 0  2.3 -0.9 0  2.35 -0.9 0  2.4 -0.9 0  2.45 -0.9 0  2.5 -0.9 0  2.55 -0.9 0  2.6 -0.9 0  2.65 -0.9 0  2.7 -0.9 0  2.75 -0.9 0  2.8 -0.9 0  2.85 -0.9 0  2.9 -0.9 0  2.95 -0.9 0  3 -0.9 0  3.050000000000001 -0.9 0  3.1 -0.9 0  3.15 -0.9 0  3.199999999999999 -0.9 0  3.25 -0.9 0  3.300000000000001 -0.9 0  3.35 -0.9 0  3.4 -0.9 0  3.449999999999999 -0.9 0  3.5 -0.9 0  3.550000000000001 -0.9 0  3.6 -0.9 0  3.65 -0.9 0  3.699999999999999 -0.9 0  3.75 -0.9 0  3.800000000000001 -0.9 0  3.85 -0.9 0  3.9 -0.9 0  3.949999999999999 -0.9 0  4 -0.9 0  4.050000000000001 -0.9 0  4.1 -0.9 0  4.15 -0.9 0  4.199999999999999 -0.9 0  4.25 -0.9 0  4.300000000000001 -0.9 0  4.35 -0.9 0  4.4 -0.9 0  4.449999999999999 -0.9 0  4.5 -0.9 0  4.550000000000001 -0.9 0  4.6 -0.9 0  4.65 -0.9 0  4.699999999999999 -0.9 0  4.75 -0.9 0  4.800000000000001 -0.9 0  4.85 -0.9 0  4.9 -0.9 0  4.949999999999999 -0.9 0  5 -0.9 0  -5 -0.85 0  -4.95 -0.85 0  -4.9 -0.85 0  -4.85 -0.85 0  -4.8 -0.85 0  -4.75 -0.85 0  -4.7 -0.85 0  -4.65 -0.85 0  -4.6 -0.85 0  -4.55 -0.85 0  -4.5 -0.85 0  -
[...]
<PointData  Vectors="f_15"> 
<DataArray  type="Float64"  Name="f_15"  NumberOfComponents="3" format="ascii">2.3440215567356764e+00 0.0000000000000000e+00 0.0000000000000000e+00  2.3439254612586460e+00 4.9138434096641724e-02 0.0000000000000000e+00  2.3436300859245933e+00 9.8245574616290868e-02 0.0000000000000000e+00  2.3431453067728372e+00 1.4731612277970091e-01 0.0000000000000000e+00  2.3424585864215093e+00 1.9630060807985408e-01 0.0000000000000000e+00  2.3415708038431862e+00 2.4519795384250037e-01 0.0000000000000000e+00  2.3404818692263789e+00 2.9395778295015412e-01 0.0000000000000000e+00  2.3391834970332424e+00 3.4257744973138238e-01 0.0000000000000000e+00  2.3376688703948454e+00 3.9101181773031995e-01 0.0000000000000000e+00  2.3359394709973049e+00 4.3924406632143809e-01 0.0000000000000000e+00  2.3339821372017271e+00 4.8723848850056123e-01 0.0000000000000000e+00  2.3317892410561671e+00 5.3497660611254827e-01 0.0000000000000000e+00  2.3293591602575323e+00 5.8241128423115485e-01 0.0000000000000000e+00  2.3266769790049446e+00 6.2952784763330027e-01 0.0000000000000000e+00  2.3237329339214674e+00 6.7628871593417639e-01 0.0000000000000000e+00  2.3205232348042419e+00 7.2265240280273402e-01 0.0000000000000000e+00  2.3170312078827884e+00 7.6859825977783547e-01 0.0000000000000000e+00  2.3132467517009934e+00 8.1408964350548396e-01 0.0000000000000000e+00  2.3091616415472442e+00 8.5907858169906492e-01 0.0000000000000000e+00  2.3047642203057563e+00 9.0354727361135778e-01 0.0000000000000000e+00  2.3000355968263198e+00 9.4745779323740953e-01 0.0000000000000000e+00  2.2949790585878964e+00 9.9076351869764190e-01 0.0000000000000000e+00  2.2895689070343930e+00 1.0334354092796603e+00 0.0000000000000000e+00  2.2838077338609843e+00 1.0754813594395221e+00 0.0000000000000000e+00  2.2776752890310958e+00 1.1167720694843903e+00 0.0000000000000000e+00  2.2711815261346486e+00 1.1574195405294183e+00 0.0000000000000000e+00  2.2642950911088158e+00 1.1972673214065335e+00 0.0000000000000000e+00  2.2570445023644550e+00 1.2363917485768805e+00 0.0000000000000000e+00  2.2493968045554591e+00 1.2747066511316256e+00 0.0000000000000000e+00  2.2413831111242613e+00 1.3122958248092187e+00 0.0000000000000000e+00  2.2329775551960864e+00 1.3490022311461616e+00 0.0000000000000000e+00  2.2242244247058833e+00 1.3850306180816780e+00 0.0000000000000000e+00  2.2150899896810876e+00 1.4201861510767075e+00 0.0000000000000000e+00  2.2056353423028092e+00 1.4546482684910038e+00 0.0000000000000000e+00  2.1958326572114673e+00 1.4882990076073725e+00 0.0000000000000000e+00  2.1857426214796685e+00 1.5213247818681428e+00 0.0000000000000000e+00  2.1753440137983788e+00 1.5535514538722879e+00 0.0000000000000000e+00  2.1647118272090640e+00 1.5852302922320312e+00 0.0000000000000000e+00  2.1538133937926021e+00 1.6162371204460131e+00 0.0000000000000000e+00  2.1427354966603338e+00 1.6467034653233110e+00 0.0000000000000000e+00  2.1314493631471789e+00 1.6766095482463923e+00 0.0000000000000000e+00  2.1200369761879618e+00 1.7060923311681957e+00 0.0000000000000000e+00  2.1084665617839038e+00 1.7350509781603030e+00 0.0000000000000000e+00  2.0968342524545132e+00 1.7636803434460211e+00 0.0000000000000000e+00  2.0850885984719598e+00 1.7918777204365191e+00 0.0000000000000000e+00  2.0733317466859784e+00 1.8198000418939175e+00 0.0000000000000000e+00  2.0615161912349995e+00 1.8473324144234466e+00 0.0000000000000000e+00  2.0497294991651200e+00 1.8746775293221689e+00 0.0000000000000000e+00  2.0379270575227619e+00 1.9016338450732180e+00 0.0000000000000000e+00  2.0262023352312681e+00 1.9284284831827283e+00 0.0000000000000000e+00  2.0144956327337256e+00 1.9548900516354120e+00 0.0000000000000000e+00  2.0029071709715578e+00 1.9811280665697819e+00 0.0000000000000000e+00  1.9913841350501837e+00 2.0070395909887204e+00 0.0000000000000000e+00  1.9800140895983414e+00 2.0327090261438281e+00 0.0000000000000000e+00  1.9687570666831633e+00 2.0579884267978814e+00 0.0000000000000000e+00  1.9577100187629064e+00 2.0829054889788243e+00 0.0000000000000000e+00  1.9468288561883640e+00 2.1074094215299479e+00 0.0000000000000000e+00  1.9362279608454371e+00 2.1313411777799649e+00 0.0000000000000000e+00  1.9258876796049376e+00 2.1547096825360970e+00 0.0000000000000000e+00  1.9159204473896490e+00 2.1772893302964462e+00 0.0000000000000000e+00  1.9063455643606624e+00 2.1990025373929787e+00 0.0000000000000000e+00  1.8973052408705098e+00 2.2195548708150108e+00 0.0000000000000000e+00  1.8888371340048977e+00 2.2388560648556401e+00 0.0000000000000000e+00  1.8811243805721656e+00 2.2564364957516818e+00 0.0000000000000000e+00  1.8742363357588092e+00 2.2722026811771956e+00 0.0000000000000000e+00  1.8683354292244512e+00 2.2856927865543653e+00 0.0000000000000000e+00  1.8634679256264521e+00 2.2968695392213689e+00 0.0000000000000000e+00  1.8597008966297957e+00 2.3054859422184335e+00 0.0000000000000000e+00  1.8569279099380980e+00 2.3118875815801001e+00 0.0000000000000000e+00  1.8550355550958844e+00 2.3161919190967502e+00 0.0000000000000000e+00  1.8537980469244415e+00 2.3190727764724115e+00 0.0000000000000000e+00  1.8530005323377872e+00 2.3208709799181642e+00 0.0000000000000000e+00  1.8524561706319174e+00 2.3221573488680147e+00 0.0000000000000000e+00  1.8520601063159530e+00 2.3230174001450186e+00 0.0000000000000000e+00  1.8517291568948036e+00 2.3238356950533654e+00 0.0000000000000000e+00  1.8514227030307377e+00 2.3244624546416084e+00 0.0000000000000000e+00  1.8511657027828601e+00 2.3251229875945549e+00 0.0000000000000000e+00  1.8509015332546221e+00 2.3256525015670246e+00 0.0000000000000000e+00  1.8506714385011092e+00 2.3262438913678265e+00 0.0000000000000000e+00  1.8504461389351052e+00 2.3266827904936296e+00 0.0000000000000000e+00  1.8502593232971274e+00 2.3271819110116367e+00 0.0000000000000000e+00  1.8500547507266005e+00 2.3275656145935808e+00 0.0000000000000000e+00  1.8499066805751376e+00 2.3279746048049090e+00 0.0000000000000000e+00  1.8497363863236356e+00 2.3282905999004346e+00 0.0000000000000000e+00  1.8496129462535023e+00 2.3286259034059924e+00 0.0000000000000000e+00  1.8494636969917040e+00 2.3289071845357561e+00 0.0000000000000000e+00  1.8493761336139938e+00 2.3291539605158382e+00 0.0000000000000000e+00  1.8492498412607705e+00 2.3293840582096732e+00 0.0000000000000000e+00  1.8491740965673675e+00 2.3295998148891197e+00 0.0000000000000000e+00  1.8490772083970970e+00 2.3297685215103878e+00 0.0000000000000000e+00  1.8490164975510857e+00 2.3299402027627973e+00 0.0000000000000000e+00  1.8489227709434424e+00 2.3301091724258742e+00 0.0000000000000000e+00  1.8488897577860457e+00 2.3302114744099045e+00 0.0000000000000000e+00  1.8488125685955756e+00 2.3303490064358767e+00 0.0000000000000000e+00  1.8487742983422759e+00 2.3304507974553164e+00 0.0000000000000000e+00  1.8487236852572400e+00 2.3305433485348819e+00 0.0000000000000000e+00  1.8486887296442511e+00 2.3306221197231412e+00 0.0000000000000000e+00  1.8486391439227583e+00 2.3307245299030539e+00 0.0000000000000000e+00  1.8486216420783161e+00 2.3307477313295948e+00 0.0000000000000000e+00  1.8485803174065538e+00 2.3308571531565887e+00 0.0000000000000000e+00  1.8485525853479929e+00 2.3308624723243607e+00 0.0000000000000000e+00  1.8485358443256370e+00 2.3309629457121086e+00 0.0000000000000000e+00  1.8485014831558542e+00 2.3309428938926895e+00 0.0000000000000000e+00  1.8484887467681654e+00 2.3310623769216106e+00 0.0000000000000000e+00  1.8484615362159360e+00 2.3309963987849147e+00 0.0000000000000000e+00  1.8484555772460991e+00 2.3311455266208680e+00 0.0000000000000000e+00  1.8484182974485277e+00 2.3310381960155877e+00 0.0000000000000000e+00  1.8484318163324911e+00 2.3312080578083298e+00 0.0000000000000000e+00  1.8483851973525223e+00 2.3310801847747968e+00 0.0000000000000000e+00  1.8484006894587917e+00 2.3312537244164431e+00 0.0000000000000000e+00  1.8483639674164265e+00 2.3311094609227165e+00 0.0000000000000000e+00  1.8483786176401671e+00 2.3312875683860326e+00 0.0000000000000000e+00  1.8483368039117953e+00 2.3311391976834139e+00 0.0000000000000000e+00  1.8483580163313269e+00 2.3313083180759158e+00 0.0000000000000000e+00  1.8483240563559684e+00 2.3311756710537050e+00 0.0000000000000000e+00  1.8483286895154267e+00 2.3312949985912077e+00 0.0000000000000000e+00  1.8483209879896116e+00 2.3312247954590992e+00 0.0000000000000000e+00  1.8482983057839317e+00 2.3312756975044713e+00 0.0000000000000000e+00  1.8483174887283900e+00 2.3312740281124529e+00 0.0000000000000000e+00  1.8482694597611269e+00 2.3312394962484566e+00 0.0000000000000000e+00  1.8483269876068220e+00 2.3313248842375107e+00 0.0000000000000000e+00  1.8482272736988261e+00 2.3311863023287187e+00 0.0000000000000000e+00  1.8483401208240458e+00 2.3314127052696669e+00 0.0000000000000000e+00  1.8481906836075670e+00 2.3310788614299067e+00 0.0000000000000000e+00  1.8483595550068921e+00 2.3315182447087994e+00 0.0000000000000000e+00  1.8481429098597637e+00 2.3309931564970010e+00 0.0000000000000000e+00  1.8483776294074417e+00 2.3315808547134869e+00 0.0000000000000000e+00  1.8481169386412308e+00 2.3309299293206913e+00 0.0000000000000000e+00  1.8483740861977735e+00 2.3316319929189202e+00 0.0000000000000000e+00  1.8480986344376860e+00 2.3308515590893903e+00 0.0000000000000000e+00  1.8483783168974319e+00 2.3317076838863549e+00 0.0000000000000000e+00  1.8480713914234841e+00 2.3307921655014621e+00 0.0000000000000000e+00  1.8483743682637612e+00 2.3316698206649451e+00 0.0000000000000000e+00  1.8480878850740734e+00 2.3308867920932186e+00 0.0000000000000000e+00  1.8483046598310886e+00 2.3315089089233765e+00 0.0000000000000000e+00  1.8481443989617334e+00 2.3310019987960482e+00 0.0000000000000000e+00  1.8482604484222447e+00 2.3314000995589805e+00 0.0000000000000000e+00  1.8481360968214418e+00 2.3310490547905314e+00 0.0000000000000000e+00  1.8482477798724080e+00 2.3313283736419153e+00 0.0000000000000000e+00  1.8481714394519690e+00 2.3311422179687420e+00 0.0000000000000000e+00  1.8481534605666206e+00 2.3310925036873509e+00 0.0000000000000000e+00  1.8482518850820591e+00 2.3313889441018665e+00 0.0000000000000000e+00  1.8480897982518774e+00 2.3308496066901512e+00 0.0000000000000000e+00  1.8482483575307012e+00 2.3313782868555628e+00 0.0000000000000000e+00  1.8481076503306864e+00 2.3309677809318874e+00 0.0000000000000000e+00  1.8482138675555022e+00 2.3311862886117947e+00 0.0000000000000000e+00  1.8480885172994936e+00 2.3309539464182309e+00 0.0000000000000000e+00  1.8482540436279649e+00 2.3312997313383392e+00 0.0000000000000000e+00  1.8480195732891598e+00 2.3307229000874909e+00 0.0000000000000000e+00  1.8482661908945339e+00 2.3312908840912958e+00 0.0000000000000000e+00  1.8480352581616464e+00 2.3307192332888995e+00 0.0000000000000000e+00  1.8482190878666116e+00 2.3309849776536282e+00 0.0000000000000000e+00  1.8480087729000738e+00 2.3306564519291637e+00 0.0000000000000000e+00  1.8482970140464550e+00 2.3307760910302187e+00 0.0000000000000000e+00  1.8478634830887084e+00 2.3302551681446828e+00 0.0000000000000000e+00  1.8484049913075824e+00 2.3306070160084409e+00 0.0000000000000000e+00  1.8477752939577465e+00 2.3297514853150139e+00 0.0000000000000000e+00  1.8484341704005403e+00 2.3301730831181446e+00 0.0000000000000000e+00  1.8477254305023751e+00 2.3293015108489472e+00 0.0000000000000000e+00  1.8484849395994578e+00 2.3295313130589905e+00 0.0000000000000000e+00  1.8476306757523069e+00 2.3287713820464004e+00 0.0000000000000000e+00  1.8485593229228661e+00 2.3288935054121849e+00 0.0000000000000000e+00  1.8475934528933007e+00 2.3281912485060632e+00 0.0000000000000000e+00  1.8485115482103347e+00 2.3282881461376386e+00 0.0000000000000000e+00  1.8477137192619693e+00 2.3276550035743830e+00 0.0000000000000000e+00  1.8483850904078354e+00 2.3277896986927704e+00 0.0000000000000000e+00  1.8478065360904461e+00 2.3272567408284881e+00 0.0000000000000000e+00  1.8483453347144676e+00 2.3273456814478779e+00 0.0000000000000000e+00  1.8477629789914796e+00 2.3270704845971131e+00 0.0000000000000000e+00  1.8483046725993308e+00 2.3271647951823469e+00 0.0000000000000000e+00  1.8477483794526359e+00 2.3267455169681233e+00 0.0000000000000000e+00  1.8481783709641604e+00 2.3270239297958830e+00 0.0000000000000000e+00  1.8480038364474254e+00 2.3266436246097388e+00 0.0000000000000000e+00  1.8480200960458506e+00 2.3262076711787580e+00 0.0000000000000000e+00  1.8483562945253511e+00 2.3269678336552002e+00 0.0000000000000000e+00  1.8478655113087912e+00 2.3257777244466435e+00 0.0000000000000000e+00  1.8483385924249673e+00 2.3271769688294546e+00 0.0000000000000000e+00  1.8478026095595275e+00 2.3260019212744489e+00 0.0000000000000000e+00  1.8481278797200749e+00 2.3269796935852329e+00 0.0000000000000000e+00  1.8482094291355400e+00 2.3263641860376461e+00 0.0000000000000000e+00  1.8475182395607963e+00 2.3255756054942593e+00 0.0000000000000000e+00  1.8504411529414038e+00 2.3268292617928963e+00 0.0000000000000000e+00  1.8435688254339730e+00 2.3252741335779890e+00 0.0000000000000000e+00  1.8319217512969270e+00 2.3861749494112874e+00 0.0000000000000000e+00  2.1561982643499027e+00 1.6201159202457078e+00 0.0000000000000000e+00  2.7254668837780995e+00 4.2451837050674895e-01 0.0000000000000000e+00  2.9510158344200046e+00 4.5064318282173665e-02 0.0000000000000000e+00  2.9698765334414667e+00 4.2646733072257024e-03 0.0000000000000000e+00  2.9626945468798351e+00 2.2442044358476181e-03 0.0000000000000000e+00  2.9721078452293495e+00 -9.3578754506821477e-03 0.0000000000000000e+00  2.9716340070074989e+00 -7.3519275649409918e-03 0.0000000000000000e+00  2.9716587141798327e+00 -9.0066497727303799e-03 0.0000000000000000e+00  2.9729244526064655e+00 -1.1604363830557036e-02 0.0000000000000000e+00  2.9726518744664086e+00 -1.0814429731725457e-02 0.0000000000000000e+00  2.9716065366399249e+00 -8.5855353091924026e-03 0.0000000000000000e+00  2.9720347019008404e+00 -1.0201769633041157e-02 0.0000000000000000e+00  2.9720687822378657e+00 -1.0264729444575372e-02 0.0000000000000000e+00  2.9721203946064678e+00 -9.3359134112981391e-03 0.0000000000000000e+00  2.9719812971252018e+00 -1.4916709165677607e-02 0.0000000000000000e+00  2.9717733419068399e+00 -1.0536796329643820e-02 0.0000000000000000e+00  2.9720075522071361e+00 0.0000000000000000e+00 0.0000000000000000e+00  2.3440231684537833e+00 0.0000000000000000e+00 -1.1770882247225976e-05  2.3439239620712713e+00 4.9142323204741351e-02 6.5082935904356907e-06  2.3436342284500542e+00 9.8253927044562483e-02 -4.2393536015992726e-06  2.3431466167294084e+00 1.4732241068394059e-01 5.3490669626215040e-06  2.3424586503794820e+00 1.9630799918143205e-01 -5.6638350624377147e-06  2.3415747487078264e+00 2.4520417244958592e-01 6.2623236338160170e-06  2.3404841415258413e+00 2.9396433077194101e-01 -5.8853054818695556e-06  2.3391834726230760e+00 3.4258659931084789e-01 5.9339088432047923e-06  2.3376729873684474e+00 3.9101535165886153e-01 -5.6354962550542026e-06  2.3359416348851654e+00 4.3925275374536016e-01 6.3766180227726842e-06  2.3339817704889736e+00 4.8724502266963932e-01 -6.8004287042886833e-06  2.3317928657729832e+00 5.3498222977437060e-01 7.6563011156863650e-06  2.3293606866155230e+00 5.8241471473061579e-01 -7.6744869708653618e-06  2.3266758196594295e+00 6.2953965709147852e-01 8.3528625084543951e-06  2.3237357065816617e+00 6.7628533421617898e-01 -9.2256577214782525e-06  2.3205233931845619e+00 7.2266230038686974e-01 1.1514232305475920e-05  2.3170298537665239e+00 7.6860031542690777e-01 -1.3719238832978305e-05  2.3132469354897207e+00 8.1409359091843969e-01 1.6255095592882957e-05  2.3091627578981893e+00 8.5907455003631272e-01 -1.8067500890973753e-05  2.3047592343698780e+00 9.0356231044677782e-01 2.0868159118479756e-05  2.3000380813978079e+00 9.4744292635197846e-01 -2.4115092396896553e-05  2.2949749877159671e+00 9.9077229946608736e-01 2.8709777525430463e-05  2.2895687889125917e+00 1.0334373197723827e+00 -3.1957527381427678e-05  2.2838027190096488e+00 1.0754706888725498e+00 3.3836925551995850e-05  2.2776786526270039e+00 1.1167740722483475e+00 -3.2103423736143878e-05  2.2711725866385297e+00 1.1574247310664214e+00 2.9567703556660020e-05  2.2642991427891053e+00 1.1972474748389372e+00 -2.5719220975126352e-05  2.2570379827440323e+00 1.2363970586142918e+00 2.3956515608605930e-05  2.2493990078539734e+00 1.2747096630485384e+00 -2.1280305600977439e-05  2.2413758755630040e+00 1.3122668613951671e+00 1.9414876728208892e-05  2.2329837110316548e+00 1.3490186749020709e+00 -1.4847922440308931e-05  2.2242151344384031e+00 1.3850136484994333e+00 1.1844974406972238e-05  2.2150958646875614e+00 1.4201795579438807e+00 -8.8017493861540094e-06  2.2056297256215922e+00 1.4546318031831516e+00 9.8089772983709547e-06  2.1958378649314194e+00 1.4883167916227618e+00 -1.0526066924167092e-05  2.1857352052607770e+00 1.5212835012668489e+00 1.2633455532363178e-05  2.1753544364547497e+00 1.5535603864866170e+00 -1.2420960454894801e-05  2.1647026763477673e+00 1.5852286381719405e+00 1.3057083070583893e-05  2.1538228321650359e+00 1.6162145801502992e+00 -1.2164973721106560e-05  2.1427299314466519e+00 1.6466960179142105e+00 1.1872780030782646e-05  2.1314588161747863e+00 1.6766222444440451e+00 -1.0844093369281956e-05  2.1200277946885961e+00 1.7060655769491671e+00 1.1490635979747561e-05  2.1084812013640257e+00 1.7350563827745220e+00 -1.2511331308904406e-05  2.0968231707237370e+00 1.7636763519961878e+00 1.2944417801884932e-05  2.0851006489735586e+00 1.7918813031242729e+00 -1.1997589241124656e-05  2.0733250433637971e+00 1.8197819776492696e+00 1.0914649258289486e-05  2.0615268348209126e+00 1.8473581699253017e+00 -1.1726577234556301e-05  2.0497206220280493e+00 1.8746492812922870e+00 1.2557452090631472e-05  2.0379429872875297e+00 1.9016489963945684e+00 -1.3640095469006376e-05  2.0261915543991020e+00 1.9284288539966437e+00 1.3882578865063310e-05  2.0145101916808814e+00 1.9548790980848780e+00 -1.5240622138797129e-05  2.0029006989316165e+00 1.9811258118414150e+00 1.4700844114035448e-05  1.9913949737139529e+00 2.0070533137698146e+00 -1.3015960158550449e-05  1.9800047730130925e+00 2.0327038422133916e+00 1.0476075720982618e-05  1.9687700111034228e+00 2.0579788280700027e+00 -1.0288431587265111e-05  1.9576958912741262e+00 2.0829395316346551e+00 9.2521940734690065e-06  1.9468366743573076e+00 2.1073879983073796e+00 -8.3978176013082007e-06  1.9362170965470378e+00 2.1313711259538755e+00 5.7674490211586729e-06  1.9258865686036246e+00 2.1547142225442610e+00 -5.0030089531258919e-06  1.9159034084524671e+00 2.1773168905895375e+00 2.2191686735800558e-06  1.9063431375534574e+00 2.1990055541289393e+00 -1.9343974080826704e-06  1.8972790044448931e+00 2.2196172905577707e+00 2.0533865478022253e-08  1.8888289222086210e+00 2.2388500716347650e+00 -1.1401014921284953e-06  1.8811034415146501e+00 2.2564833948234382e+00 -4.8322643770948863e-07  1.8742246244562388e+00 2.2722079741430368e+00 7.9484393277183306e-07  1.8683161126390606e+00 2.2857287694174433e+00 8.2580661478291780e-07  1.8634650056722322e+00 2.2968501272558957e+00 9.4373466226733622e-07  1.8596873242777416e+00 2.3055207481385946e+00 3.5502037556532874e-06  1.8569288111509195e+00 2.3118450250469520e+00 -2.0426403768052167e-06  1.8550394769312781e+00 2.3161867447037734e+00 4.4600903216147484e-06  1.8538004052183472e+00 2.3190313492496393e+00 -7.4053928006988924e-06  1.8529912998997673e+00 2.3208815970096168e+00 3.2236971564241928e-06  1.8524506832801975e+00 2.3221122118853974e+00 -1.0756424908052531e-05  1.8520354047875627e+00 2.3230732158440093e+00 6.8603221921276278e-06  1.8516934040250670e+00 2.3238330505493869e+00 -1.1335235326626953e-05  1.8514010448972040e+00 2.3245149021894989e+00 9.3995585739683113e-06  1.8511304764037508e+00 2.3251204439191322e+00 -1.0811884259426912e-05  1.8508727976962902e+00 2.3257099816055606e+00 1.0012786918683468e-05  1.8506505920465748e+00 2.3262092315018754e+00 -1.1038982638131561e-05  1.8504334257125603e+00 2.3267129724369187e+00 1.1765336176596384e-05  1.8502334981069850e+00 2.3271525471144416e+00 -1.2354223182524181e-05  1.8500530791813821e+00 2.3275731852787303e+00 1.1377395432545164e-05  1.8498894123534237e+00 2.327936