<?xml version="1.0"?>
<VTKFile type="UnstructuredGrid"  version="0.1"  >
<UnstructuredGrid>
<Piece  NumberOfPoints="8241" NumberOfCells="16000">
<Points>
<DataArray  type="Float64"  NumberOfComponents="3"  format="ascii">-5 -1 0  -4.95 -1 0  -4.9 -1 0  -4.85 -1 0  -4.8 -1 0  -4.75 -1 0  -4.7 -1 0  -4.65 -1 0  -4.6 -1 0  -4.55 -1 0  -4.5 -1 0  -4.45 -1 0  -4.4 -1 0  -4.35 -1 0  -4.3 -1 0  -4.25 -1 0  -4.2 -1 0  -4.15 -1 0  -4.1 -1 0  -4.05 -1 0  -4 -1 0  -3.95 -1 0  -3.9 -1 0  -3.85 -1 0  -3.8 -1 0  -3.75 -1 0  -3.7 -1 0  -3.65 -1 0  -3.6 -1 0  -3.55 -1 0  -3.5 -1 0  -3.45 -1 0  -3.4 -1 0  -3.35 -1 0  -3.3 -1 0  -3.25 -1 0  -3.2 -1 0  -3.15 -1 0  -3.1 -1 0  -3.05 -1 0  -3 -1 0  -2.95 -1 0  -2.9 -1 0  -2.85 -1 0  -2.8 -1 0  -2.75 -1 0  -2.7 -1 0  -2.65 -1 0  -2.6 -1 0  -2.55 -1 0  -2.5 -1 0  -2.45 -1 0  -2.4 -1 0  -2.35 -1 0  -2.3 -1 0  -2.25 -1 0  -2.2 -1 0  -2.15 -1 0  -2.1 -1 0  -2.05 -1 0  -2 -1 0  -1.95 -1 0  -1.9 -1 0  -1.85 -1 0  -1.8 -1 0  -1.75 -1 0  -1.7 -1 0  -1.65 -1 0  -1.6 -1 0  -1.55 -1 0  -1.5 -1 0  -1.45 -1 0  -1.4 -1 0  -1.35 -1 0  -1.3 -1 0  -1.25 -1 0  -1.2 -1 0  -1.15 -1 0  -1.1 -1 0  -1.05 -1 0  -1 -1 0  -0.9500000000000002 -1 0  -0.9000000000000004 -1 0  -0.8499999999999996 -1 0  -0.7999999999999998 -1 0  -0.75 -1 0  -0.7000000000000002 -1 0  -0.6500000000000004 -1 0  -0.5999999999999996 -1 0  -0.5499999999999998 -1 0  -0.5 -1 0  -0.4500000000000002 -1 0  -0.4000000000000004 -1 0  -0.3499999999999996 -1 0  -0.2999999999999998 -1 0  -0.25 -1 0  -0.2000000000000002 -1 0  -0.1500000000000004 -1 0  -0.09999999999999964 -1 0  -0.04999999999999982 -1 0  0 -1 0  0.04999999999999982 -1 0  0.09999999999999964 -1 0  0.1500000000000004 -1 0  0.2000000000000002 -1 0  0.25 -1 0  0.2999999999999998 -1 0  0.3499999999999996 -1 0  0.4000000000000004 -1 0  0.4500000000000002 -1 0  0.5 -1 0  0.5499999999999998 -1 0  0.5999999999999996 -1 0  0.6500000000000004 -1 0  0.7000000000000002 -1 0  0.75 -1 0  0.7999999999999998 -1 0  0.8499999999999996 -1 0  0.9000000000000004 -1 0  0.9500000000000002 -1 0  1 -1 0  1.05 -1 0  1.1 -1 0  1.15 -1 0  1.2 -1 0  1.25 -1 0  1.3 -1 0  1.35 -1 0  1.4 -1 0  1.45 -1 0  1.5 -1 0  1.55 -1 0  1.6 -1 0  1.65 -1 0  1.7 -1 0  1.75 -1 0  1.8 -1 0  1.85 -1 0  1.9 -1 0  1.95 -1 0  2 -1 0  2.05 -1 0  2.1 -1 0  2.15 -1 0  2.2 -1 0  2.25 -1 0  2.3 -1 0  2.35 -1 0  2.4 -1 0  2.45 -1 0  2.5 -1 0  2.55 -1 0  2.6 -1 0  2.65 -1 0  2.7 -1 0  2.75 -1 0  2.8 -1 0  2.85 -1 0  2.9 -1 0  2.95 -1 0  3 -1 0  3.050000000000001 -1 0  3.1 -1 0  3.15 -1 0  3.199999999999999 -1 0  3.25 -1 0  3.300000000000001 -1 0  3.35 -1 0  3.4 -1 0  3.449999999999999 -1 0  3.5 -1 0  3.550000000000001 -1 0  3.6 -1 0  3.65 -1 0  3.699999999999999 -1 0  3.75 -1 0  3.800000000000001 -1 0  3.85 -1 0  3.9 -1 0  3.949999999999999 -1 0  4 -1 0  4.050000000000001 -1 0  4.1 -1 0  4.15 -1 0  4.199999999999999 -1 0  4.25 -1 0  4.300000000000001 -1 0  4.35 -1 0  4.4 -1 0  4.449999999999999 -1 0  4.5 -1 0  4.550000000000001 -1 0  4.6 -1 0  4.65 -1 0  4.699999999999999 -1 0  4.75 -1 0  4.800000000000001 -1 0  4.85 -1 0  4.9 -1 0  4.949999999999999 -1 0  5 -1 0  -5 -0.95 0  -4.95 -0.95 0  -4.9 -0.95 0  -4.85 -0.95 0  -4.8 -0.95 0  -4.75 -0.95 0  -4.7 -0.95 0  -4.65 -0.95 0  -4.6 -0.95 0  -4.55 -0.95 0  -4.5 -0.95 0  -4.45 -0.95 0  -4.4 -0.95 0  -4.35 -0.95 0  -4.3 -0.95 0  -4.25 -0.95 0  -4.2 -0.95 0  -4.15 -0.95 0  -4.1 -0.95 0  -4.05 -0.95 0  -4 -0.95 0  -3.95 -0.95 0  -3.9 -0.95 0  -3.85 -0.95 0  -3.8 -0.95 0  -3.75 -0.95 0  -3.7 -0.95 0  -3.65 -0.95 0  -3.6 -0.95 0  -3.55 -0.95 0  -3.5 -0.95 0  -3.45 -0.95 0  -3.4 -0.95 0  -3.35 -0.95 0  -3.3 -0.95 0  -3.25 -0.95 0  -3.2 -0.95 0  -3.15 -0.95 0  -3.1 -0.95 0  -3.05 -0.95 0  -3 -0.95 0  -2.95 -0.95 0  -2.9 -0.95 0  -2.85 -0.95 0  -2.8 -0.95 0  -2.75 -0.95 0  -2.7 -0.95 0  -2.65 -0.95 0  -2.6 -0.95 0  -2.55 -0.95 0  -2.5 -0.95 0  -2.45 -0.95 0  -2.4 -0.95 0  -2.35 -0.95 0  -2.3 -0.95 0  -2.25 -0.95 0  -2.2 -0.95 0  -2.15 -0.95 0  -2.1 -0.95 0  -2.05 -0.95 0  -2 -0.95 0  -1.95 -0.95 0  -1.9 -0.95 0  -1.85 -0.95 0  -1.8 -0.95 0  -1.75 -0.95 0  -1.7 -0.95 0  -1.65 -0.95 0  -1.6 -0.95 0  -1.55 -0.95 0  -1.5 -0.95 0  -1.45 -0.95 0  -1.4 -0.95 0  -1.35 -0.95 0  -1.3 -0.95 0  -1.25 -0.95 0  -1.2 -0.95 0  -1.15 -0.95 0  -1.1 -0.95 0  -1.05 -0.95 0  -1 -0.95 0  -0.9500000000000002 -0.95 0  -0.9000000000000004 -0.95 0  -0.8499999999999996 -0.95 0  -0.7999999999999998 -0.95 0  -0.75 -0.95 0  -0.7000000000000002 -0.95 0  -0.6500000000000004 -0.95 0  -0.5999999999999996 -0.95 0  -0.5499999999999998 -0.95 0  -0.5 -0.95 0  -0.4500000000000002 -0.95 0  -0.4000000000000004 -0.95 0  -0.3499999999999996 -0.95 0  -0.2999999999999998 -0.95 0  -0.25 -0.95 0  -0.2000000000000002 -0.95 0  -0.1500000000000004 -0.95 0  -0.09999999999999964 -0.95 0  -0.04999999999999982 -0.95 0  0 -0.95 0  0.04999999999999982 -0.95 0  0.09999999999999964 -0.95 0  0.1500000000000004 -0.95 0  0.2000000000000002 -0.95 0  0.25 -0.95 0  0.2999999999999998 -0.95 0  0.3499999999999996 -0.95 0  0.4000000000000004 -0.95 0  0.4500000000000002 -0.95 0  0.5 -0.95 0  0.5499999999999998 -0.95 0  0.5999999999999996 -0.95 0  0.6500000000000004 -0.95 0  0.7000000000000002 -0.95 0  0.75 -0.95 0  0.7999999999999998 -0.95 0  0.8499999999999996 -0.95 0  0.9000000000000004 -0.95 0  0.9500000000000002 -0.95 0  1 -0.95 0  1.05 -0.95 0  1.1 -0.95 0  1.15 -0.95 0  1.2 -0.95 0  1.25 -0.95 0  1.3 -0.95 0  1.35 -0.95 0  1.4 -0.95 0  1.45 -0.95 0  1.5 -0.95 0  1.55 -0.95 0  1.6 -0.95 0  1.65 -0.95 0  1.7 -0.95 0  1.75 -0.95 0  1.8 -0.95 0  1.85 -0.95 0  1.9 -0.95 0  1.95 -0.95 0  2 -0.95 0  2.05 -0.95 0  2.1 -0.95 0  2.15 -0.95 0  2.2 -0.95 0  2.25 -0.95 0  2.3 -0.95 0  2.35 -0.95 0  2.4 -0.95 0  2.45 -0.95 0  2.5 -0.95 0  2.55 -0.95 0  2.6 -0.95 0  2.65 -0.95 0  2.7 -0.95 0  2.75 -0.95 0  2.8 -0.95 0  2.85 -0.95 0  2.9 -0.95 0  2.95 -0.95 0  3 -0.95 0  3.050000000000001 -0.95 0  3.1 -0.95 0  3.15 -0.95 0  3.199999999999999 -0.95 0  3.25 -0.95 0  3.300000000000001 -0.95 0  3.35 -0.95 0  3.4 -0.95 0  3.449999999999999 -0.95 0  3.5 -0.95 0  3.550000000000001 -0.95 0  3.6 -0.95 0  3.65 -0.95 0  3.699999999999999 -0.95 0  3.75 -0.95 0  3.800000000000001 -0.95 0  3.85 -0.95 0  3.9 -0.95 0  3.949999999999999 -0.95 0  4 -0.95 0  4.050000000000001 -0.95 0  4.1 -0.95 0  4.15 -0.95 0  4.199999999999999 -0.95 0  4.25 -0.95 0  4.300000000000001 -0.95 0  4.35 -0.95 0  4.4 -0.95 0  4.449999999999999 -0.95 0  4.5 -0.95 0  4.550000000000001 -0.95 0  4.6 -0.95 0  4.65 -0.95 0  4.699999999999999 -0.95 0  4.75 -0.95 0  4.800000000000001 -0.95 0  4.85 -0.95 0  4.9 -0.95 0  4.949999999999999 -0.95 0  5 -0.95 0  -5 -0.9 0  -4.95 -0.9 0  -4.9 -0.9 0  -4.85 -0.9 0  -4.8 -0.9 0  -4.75 -0.9 0  -4.7 -0.9 0  -4.65 -0.9 0  -4.6 -0.9 0  -4.55 -0.9 0  -4.5 -0.9 0  -4.45 -0.9 0  -4.4 -0.9 0  -4.35 -0.9 0  -4.3 -0.9 0  -4.25 -0.9 0  -4.2 -0.9 0  -4.15 -0.9 0  -4.1 -0.9 0  -4.05 -0.9 0  -4 -0.9 0  -3.95 -0.9 0  -3.9 -0.9 0  -3.85 -0.9 0  -3.8 -0.9 0  -3.75 -0.9 0  -3.7 -0.9 0  -3.65 -0.9 0  -3.6 -0.9 0  -3.55 -0.9 0  -3.5 -0.9 0  -3.45 -0.9 0  -3.4 -0.9 0  -3.35 -0.9 0  -3.3 -0.9 0  -3.25 -0.9 0  -3.2 -0.9 0  -3.15 -0.9 0  -3.1 -0.9 0  -3.05 -0.9 0  -3 -0.9 0  -2.95 -0.9 0  -2.9 -0.9 0  -2.85 -0.9 0  -2.8 -0.9 0  -2.75 -0.9 0  -2.7 -0.9 0  -2.65 -0.9 0  -2.6 -0.9 0  -2.55 -0.9 0  -2.5 -0.9 0  -2.45 -0.9 0  -2.4 -0.9 0  -2.35 -0.9 0  -2.3 -0.9 0  -2.25 -0.9 0  -2.2 -0.9 0  -2.15 -0.9 0  -2.1 -0.9 0  -2.05 -0.9 0  -2 -0.9 0  -1.95 -0.9 0  -1.9 -0.9 0  -1.85 -0.9 0  -1.8 -0.9 0  -1.75 -0.9 0  -1.7 -0.9 0  -1.65 -0.9 0  -1.6 -0.9 0  -1.55 -0.9 0  -1.5 -0.9 0  -1.45 -0.9 0  -1.4 -0.9 0  -1.35 -0.9 0  -1.3 -0.9 0  -1.25 -0.9 0  -1.2 -0.9 0  -1.15 -0.9 0  -1.1 -0.9 0  -1.05 -0.9 0  -1 -0.9 0  -0.9500000000000002 -0.9 0  -0.9000000000000004 -0.9 0  -0.8499999999999996 -0.9 0  -0.7999999999999998 -0.9 0  -0.75 -0.9 0  -0.7000000000000002 -0.9 0  -0.6500000000000004 -0.9 0  -0.5999999999999996 -0.9 0  -0.5499999999999998 -0.9 0  -0.5 -0.9 0  -0.4500000000000002 -0.9 0  -0.4000000000000004 -0.9 0  -0.3499999999999996 -0.9 0  -0.2999999999999998 -0.9 0  -0.25 -0.9 0  -0.2000000000000002 -0.9 0  -0.1500000000000004 -0.9 0  -0.09999999999999964 -0.9 0  -0.04999999999999982 -0.9 0  0 -0.9 0  0.04999999999999982 -0.9 0  0.09999999999999964 -0.9 0  0.1500000000000004 -0.9 0  0.2000000000000002 -0.9 0  0.25 -0.9 0  0.2999999999999998 -0.9 0  0.3499999999999996 -0.9 0  0.4000000000000004 -0.9 0  0.4500000000000002 -0.9 0  0.5 -0.9 0  0.5499999999999998 -0.9 0  0.5999999999999996 -0.9 0  0.6500000000000004 -0.9 0  0.7000000000000002 -0.9 0  0.75 -0.9 0  0.7999999999999998 -0.9 0  0.8499999999999996 -0.9 0  0.9000000000000004 -0.9 0  0.9500000000000002 -0.9 0  1 -0.9 0  1.05 -0.9 0  1.1 -0.9 0  1.15 -0.9 0  1.2 -0.9 0  1.25 -0.9 0  1.3 -0.9 0  1.35 -0.9 0  1.4 -0.9 0  1.45 -0.9 0  1.5 -0.9 0  1.55 -0.9 0  1.6 -0.9 0  1.65 -0.9 0  1.7 -0.9 0  1.75 -0.9 0  1.8 -0.9 0  1.85 -0.9 0  1.9 -0.9 0  1.95 -0.9 0  2 -0.9 0  2.05 -0.9 0  2.1 -0.9 0  2.15 -0.9 0  2.2 -0.9 0  2.25 -0.9 0  2.3 -0.9 0  2.35 -0.9 0  2.4 -0.9 0  2.45 -0.9 0  2.5 -0.9 0  2.55 -0.9 0  2.6 -0.9 0  2.65 -0.9 0  2.7 -0.9 0  2.75 -0.9 0  2.8 -0.9 0  2.85 -0.9 0  2.9 -0.9 0  2.95 -0.9 0  3 -0.9 0  3.050000000000001 -0.9 0  3.1 -0.9 0  3.15 -0.9 0  3.199999999999999 -0.9 0  3.25 -0.9 0  3.300000000000001 -0.9 0  3.35 -0.9 0  3.4 -0.9 0  3.449999999999999 -0.9 0  3.5 -0.9 0  3.550000000000001 -0.9 0  3.6 -0.9 0  3.65 -0.9 0  3.699999999999999 -0.9 0  3.75 -0.9 0  3.800000000000001 -0.9 0  3.85 -0.9 0  3.9 -0.9 0  3.949999999999999 -0.9 0  4 -0.9 0  4.050000000000001 -0.9 0  4.1 -0.9 0  4.15 -0.9 0  4.199999999999999 -0.9 0  4.25 -0.9 0  4.300000000000001 -0.9 0  4.35 -0.9 0  4.4 -0.9 0  4.449999999999999 -0.9 0  4.5 -0.9 0  4.550000000000001 -0.9 0  4.6 -0.9 0  4.65 -0.9 0  4.699999999999999 -0.9 0  4.75 -0.9 0  4.800000000000001 -0.9 0  4.85 -0.9 0  4.9 -0.9 0  4.949999999999999 -0.9 0  5 -0.9 0  -5 -0.85 0  -4.95 -0.85 0  -4.9 -0.85 0  -4.85 -0.85 0  -4.8 -0.85 0  -4.75 -0.85 0  -4.7 -0.85 0  -4.65 -0.85 0  -4.6 -0.85 0  -4.55 -0.85 0  -4.5 -0.85 0  -
[...]
<PointData  Vectors="f_15"> 
<DataArray  type="Float64"  Name="f_15"  NumberOfComponents="3" format="ascii">3.0000000025660385e+00 0.0000000000000000e+00 0.0000000000000000e+00  2.9999999975152640e+00 -3.5066583363027765e-09 0.0000000000000000e+00  3.0000000023708866e+00 4.1445971972279886e-09 0.0000000000000000e+00  2.9999999972134654e+00 -4.7922391903016458e-09 0.0000000000000000e+00  3.0000000034245171e+00 5.3291725805061427e-09 0.0000000000000000e+00  2.9999999956647523e+00 -6.1147668631066807e-09 0.0000000000000000e+00  3.0000000056615534e+00 7.2829947648879463e-09 0.0000000000000000e+00  2.9999999922367082e+00 -9.1813009451788692e-09 0.0000000000000000e+00  3.0000000111915197e+00 1.2394469542288690e-08 0.0000000000000000e+00  2.9999999833232560e+00 -1.7711524742120317e-08 0.0000000000000000e+00  3.0000000251380716e+00 2.6028874009743004e-08 0.0000000000000000e+00  2.9999999621377267e+00 -3.8527691983912621e-08 0.0000000000000000e+00  3.0000000569318837e+00 5.7342290438553318e-08 0.0000000000000000e+00  2.9999999142223599e+00 -8.6536542932255442e-08 0.0000000000000000e+00  3.0000001295035950e+00 1.3269296527791544e-07 0.0000000000000000e+00  2.9999998052933212e+00 -2.0446286724188054e-07 0.0000000000000000e+00  3.0000002890508872e+00 3.1143410329372597e-07 0.0000000000000000e+00  2.9999995785086262e+00 -4.6409103871475962e-07 0.0000000000000000e+00  3.0000006039700629e+00 6.7680300021285949e-07 0.0000000000000000e+00  2.9999991459335211e+00 -9.7337722429786659e-07 0.0000000000000000e+00  3.0000011962908641e+00 1.3907850864089227e-06 0.0000000000000000e+00  2.9999983405574211e+00 -1.9754053496852577e-06 0.0000000000000000e+00  3.0000022704182512e+00 2.7711505167857398e-06 0.0000000000000000e+00  2.9999969506255160e+00 -3.8087629816954976e-06 0.0000000000000000e+00  3.0000040126597773e+00 5.1100954650840345e-06 0.0000000000000000e+00  2.9999948163788446e+00 -6.7114781809565366e-06 0.0000000000000000e+00  3.0000066006908681e+00 8.6861591434590746e-06 0.0000000000000000e+00  2.9999916931508155e+00 -1.1132538355814551e-05 0.0000000000000000e+00  3.0000103173586985e+00 1.4111370568826149e-05 0.0000000000000000e+00  2.9999874128568074e+00 -1.7571019632114234e-05 0.0000000000000000e+00  3.0000150144603706e+00 2.1335558844425642e-05 0.0000000000000000e+00  2.9999825041902621e+00 -2.5207224379634008e-05 0.0000000000000000e+00  3.0000199913836734e+00 2.9119498005804248e-05 0.0000000000000000e+00  2.9999774691015832e+00 -3.3180247101307024e-05 0.0000000000000000e+00  3.0000251054935649e+00 3.7493790676903198e-05 0.0000000000000000e+00  2.9999724570396897e+00 -4.1820554740135870e-05 0.0000000000000000e+00  3.0000294511429564e+00 4.5469211857748021e-05 0.0000000000000000e+00  2.9999695407644706e+00 -4.7522234002645281e-05 0.0000000000000000e+00  3.0000304011257182e+00 4.7652650164453156e-05 0.0000000000000000e+00  2.9999703525357657e+00 -4.6251651560664419e-05 0.0000000000000000e+00  3.0000284831157775e+00 4.4617274337678385e-05 0.0000000000000000e+00  2.9999727380007308e+00 -4.2844817240878261e-05 0.0000000000000000e+00  3.0000249818480520e+00 4.0640167249572045e-05 0.0000000000000000e+00  2.9999784528933184e+00 -3.4826792796549189e-05 0.0000000000000000e+00  3.0000154262115077e+00 2.5929948492989454e-05 0.0000000000000000e+00  2.9999906225970752e+00 -1.2412260568225150e-05 0.0000000000000000e+00  3.0000021013872202e+00 2.2182338763689382e-06 0.0000000000000000e+00  3.0000008268158065e+00 7.5077301010899261e-06 0.0000000000000000e+00  2.9999939529741542e+00 -8.2122743606029488e-06 0.0000000000000000e+00  3.0000067688152803e+00 1.5954370893851662e-05 0.0000000000000000e+00  2.9999839525060099e+00 -2.0515473730049887e-05 0.0000000000000000e+00  3.0000192121964750e+00 4.0209155538988442e-05 0.0000000000000000e+00  2.9999697702772137e+00 -4.8479602522422283e-05 0.0000000000000000e+00  3.0000274659377015e+00 5.6851216346037481e-05 0.0000000000000000e+00  2.9999722470437411e+00 -4.5880949907232531e-05 0.0000000000000000e+00  3.0000199671994996e+00 3.0639544209092865e-05 0.0000000000000000e+00  2.9999842999915023e+00 -2.8848735947752960e-05 0.0000000000000000e+00  3.0000226027058376e+00 2.1520752442389029e-05 0.0000000000000000e+00  2.9999823559922079e+00 -4.9678020742620560e-05 0.0000000000000000e+00  3.0000313867538440e+00 2.8360838052091176e-05 0.0000000000000000e+00  2.9999923822220702e+00 -3.6102616590990492e-05 0.0000000000000000e+00  3.0000099679967231e+00 -1.0961705120812952e-05 0.0000000000000000e+00  3.0000123870881596e+00 1.7601562258109273e-05 0.0000000000000000e+00  2.9999913426338387e+00 -1.6700182218308875e-05 0.0000000000000000e+00  2.9999948164625421e+00 2.5146162252744707e-05 0.0000000000000000e+00  2.9999915612977848e+00 2.3389288458915461e-05 0.0000000000000000e+00  2.9999710502340493e+00 4.9680581434234613e-05 0.0000000000000000e+00  2.9999553520680262e+00 4.8857248925311777e-05 0.0000000000000000e+00  2.9999374137015384e+00 1.5738342895146786e-04 0.0000000000000000e+00  2.9998403573212777e+00 2.2242198825813547e-04 0.0000000000000000e+00  2.9997087387295425e+00 5.5696790132958856e-04 0.0000000000000000e+00  2.9994015042221949e+00 1.0541965748714702e-03 0.0000000000000000e+00  2.9987942786467618e+00 2.1559784293460685e-03 0.0000000000000000e+00  2.9977284732607306e+00 4.0955904289997035e-03 0.0000000000000000e+00  2.9958032531305068e+00 7.5755254783276653e-03 0.0000000000000000e+00  2.9925808822522568e+00 1.3345663781594715e-02 0.0000000000000000e+00  2.9874432910361119e+00 2.2717060886275609e-02 0.0000000000000000e+00  2.9795915921571421e+00 3.6893663830049064e-02 0.0000000000000000e+00  2.9681618765267892e+00 5.7640107383997087e-02 0.0000000000000000e+00  2.9523360410466197e+00 8.6392378401786485e-02 0.0000000000000000e+00  2.9313873471801015e+00 1.2468328921947491e-01 0.0000000000000000e+00  2.9047131197662059e+00 1.7338119985181930e-01 0.0000000000000000e+00  2.8722047625747202e+00 2.3323146873739475e-01 0.0000000000000000e+00  2.8338367290167303e+00 3.0417878499803441e-01 0.0000000000000000e+00  2.7899957070902022e+00 3.8583592194270744e-01 0.0000000000000000e+00  2.7411925195544922e+00 4.7737043826813291e-01 0.0000000000000000e+00  2.6882521515594759e+00 5.7778476613254615e-01 0.0000000000000000e+00  2.6317914749956599e+00 6.8569011620138776e-01 0.0000000000000000e+00  2.5727813014878640e+00 7.9991328116335547e-01 0.0000000000000000e+00  2.5119207506022754e+00 9.1902328132140687e-01 0.0000000000000000e+00  2.4499309467409804e+00 1.0418094083534721e+00 0.0000000000000000e+00  2.3875566099150856e+00 1.1669807612736387e+00 0.0000000000000000e+00  2.3253611925333857e+00 1.2935648488905622e+00 0.0000000000000000e+00  2.2638897011370029e+00 1.4201384680409905e+00 0.0000000000000000e+00  2.2037447762084477e+00 1.5458424132571589e+00 0.0000000000000000e+00  2.1454811858495462e+00 1.6692842943027166e+00 0.0000000000000000e+00  2.0896978259587402e+00 1.7890702042214408e+00 0.0000000000000000e+00  2.0372916487986261e+00 1.9029508761978879e+00 0.0000000000000000e+00  1.9892948565496320e+00 2.0087481946711647e+00 0.0000000000000000e+00  1.9469438487522621e+00 2.1029912824155890e+00 0.0000000000000000e+00  1.9119014436853357e+00 2.1819489982893643e+00 0.0000000000000000e+00  1.8855222127184981e+00 2.2416634009892924e+00 0.0000000000000000e+00  1.8683884849976378e+00 2.2806356159140981e+00 0.0000000000000000e+00  1.8590850372023298e+00 2.3016898283210940e+00 0.0000000000000000e+00  1.8550105318299885e+00 2.3108585175648062e+00 0.0000000000000000e+00  1.8532667157733458e+00 2.3148031710297823e+00 0.0000000000000000e+00  1.8524512719348025e+00 2.3166172525927986e+00 0.0000000000000000e+00  1.8519321896069012e+00 2.3176620987498371e+00 0.0000000000000000e+00  1.8514711840983213e+00 2.3184592582971266e+00 0.0000000000000000e+00  1.8510749733395766e+00 2.3187744808167756e+00 0.0000000000000000e+00  1.8507672900823446e+00 2.3190988505771224e+00 0.0000000000000000e+00  1.8502977606223612e+00 2.3195729862248684e+00 0.0000000000000000e+00  1.8500639451635914e+00 2.3200817655789496e+00 0.0000000000000000e+00  1.8496288980520104e+00 2.3203569994103619e+00 0.0000000000000000e+00  1.8492925858459888e+00 2.3203476354082895e+00 0.0000000000000000e+00  1.8487918004906294e+00 2.3200714426500371e+00 0.0000000000000000e+00  1.8474635425591148e+00 2.3177209563006178e+00 0.0000000000000000e+00  1.8461775117496229e+00 2.3154346208431784e+00 0.0000000000000000e+00  1.8397666483399915e+00 2.3014983558165185e+00 0.0000000000000000e+00  1.8297336459092908e+00 2.2784008242780525e+00 0.0000000000000000e+00  1.7975770141079705e+00 2.2071826113744297e+00 0.0000000000000000e+00  1.7382760068145777e+00 2.0684472102151883e+00 0.0000000000000000e+00  1.6233315455970818e+00 1.7754187222592424e+00 0.0000000000000000e+00  1.3485670120480795e+00 1.0455575524363854e+00 0.0000000000000000e+00  1.1040049520219861e+00 3.2803700540789787e-01 0.0000000000000000e+00  1.0193438053742905e+00 6.2590623358296002e-02 0.0000000000000000e+00  1.0031553801838988e+00 1.0413502344606446e-02 0.0000000000000000e+00  1.0005722199191112e+00 1.9989261886078744e-03 0.0000000000000000e+00  1.0001402753089792e+00 4.2903032443125172e-04 0.0000000000000000e+00  1.0000400599405339e+00 1.1729190080922279e-04 0.0000000000000000e+00  1.0000051318484846e+00 4.9895143725240255e-05 0.0000000000000000e+00  1.0000054287965094e+00 1.0704974987787191e-06 0.0000000000000000e+00  1.0000028232043581e+00 -2.1262648186988543e-07 0.0000000000000000e+00  9.9999654196121046e-01 1.0762477172688681e-05 0.0000000000000000e+00  1.0000025458739408e+00 -7.9006860880536324e-06 0.0000000000000000e+00  9.9999985774284117e-01 1.9771185115832682e-06 0.0000000000000000e+00  9.9999874010802448e-01 2.8135565203841429e-06 0.0000000000000000e+00  1.0000012057106686e+00 -3.4713814610206595e-06 0.0000000000000000e+00  9.9999967336417694e-01 1.4227385953602280e-06 0.0000000000000000e+00  9.9999958251978072e-01 7.4278935193430563e-07 0.0000000000000000e+00  1.0000005762967523e+00 -1.4560423631686482e-06 0.0000000000000000e+00  9.9999971499968299e-01 8.3361853565479252e-07 0.0000000000000000e+00  9.9999991598043070e-01 1.6630700431092919e-07 0.0000000000000000e+00  1.0000002762363887e+00 -7.6662523937286577e-07 0.0000000000000000e+00  9.9999973509759355e-01 7.9818717314950152e-07 0.0000000000000000e+00  1.0000001587367329e+00 -5.1801402753887454e-07 0.0000000000000000e+00  9.9999993337018123e-01 2.3783980407359096e-07 0.0000000000000000e+00  1.0000000301861269e+00 -1.0318739635076205e-07 0.0000000000000000e+00  9.9999996618563869e-01 9.1822843116316603e-08 0.0000000000000000e+00  1.0000000457192177e+00 -1.1909994653612720e-07 0.0000000000000000e+00  9.9999995292740185e-01 1.2589451973903893e-07 0.0000000000000000e+00  1.0000000369759041e+00 -1.0206822106966569e-07 0.0000000000000000e+00  9.9999997679186103e-01 6.5645245583931324e-08 0.0000000000000000e+00  1.0000000125049269e+00 -3.5508357970277459e-08 0.0000000000000000e+00  9.9999999315592714e-01 1.8699097573849954e-08 0.0000000000000000e+00  1.0000000047586506e+00 -1.2254132103274332e-08 0.0000000000000000e+00  9.9999999596117994e-01 1.0249376475793156e-08 0.0000000000000000e+00  1.0000000033592906e+00 -8.6985261959512356e-09 0.0000000000000000e+00  9.9999999755210689e-01 6.5052057279611271e-09 0.0000000000000000e+00  1.0000000015402368e+00 -4.1725333507750762e-09 0.0000000000000000e+00  9.9999999912827753e-01 2.3706489636452214e-09 0.0000000000000000e+00  1.0000000004912568e+00 -1.3104584943012973e-09 0.0000000000000000e+00  9.9999999968655773e-01 8.1049142646888221e-10 0.0000000000000000e+00  1.0000000002299070e+00 -5.8698204542341802e-10 0.0000000000000000e+00  9.9999999982669618e-01 4.4688083707455182e-10 0.0000000000000000e+00  1.0000000001220717e+00 -3.2031368072647417e-10 0.0000000000000000e+00  9.9999999992194633e-01 2.0770755947442225e-10 0.0000000000000000e+00  1.0000000000462894e+00 -1.2368619070435429e-10 0.0000000000000000e+00  9.9999999997294808e-01 7.1623722325931531e-11 0.0000000000000000e+00  1.0000000000167624e+00 -4.3639685657692853e-11 0.0000000000000000e+00  9.9999999998872557e-01 2.9048684248965411e-11 0.0000000000000000e+00  1.0000000000078531e+00 -2.0276836107149421e-11 0.0000000000000000e+00  9.9999999999467282e-01 1.3885508149771207e-11 0.0000000000000000e+00  1.0000000000034182e+00 -8.9862272214804242e-12 0.0000000000000000e+00  9.9999999999791511e-01 5.5023352329412718e-12 0.0000000000000000e+00  1.0000000000012503e+00 -3.2861298813908101e-12 0.0000000000000000e+00  9.9999999999923417e-01 1.9967860562640665e-12 0.0000000000000000e+00  1.0000000000004907e+00 -1.2685183213072585e-12 0.0000000000000000e+00  9.9999999999967848e-01 8.3282184629361727e-13 0.0000000000000000e+00  1.0000000000002105e+00 -5.4620690813477958e-13 0.0000000000000000e+00  9.9999999999986700e-01 3.4920523194124411e-13 0.0000000000000000e+00  1.0000000000000822e+00 -2.1553285065159860e-13 0.0000000000000000e+00  9.9999999999995048e-01 1.3123722091594630e-13 0.0000000000000000e+00  1.0000000000000311e+00 -7.9717971520551091e-14 0.0000000000000000e+00  9.9999999999998090e-01 5.0624310558067553e-14 0.0000000000000000e+00  1.0000000000000127e+00 -3.1543389477578209e-14 0.0000000000000000e+00  9.9999999999999234e-01 2.0506682766062292e-14 0.0000000000000000e+00  1.0000000000000053e+00 -1.2546449617588393e-14 0.0000000000000000e+00  9.9999999999999722e-01 8.2805638920984235e-15 0.0000000000000000e+00  1.0000000000000024e+00 -4.5564634460584739e-15 0.0000000000000000e+00  9.9999999999999911e-01 3.7613270566363054e-15 0.0000000000000000e+00  1.0000000000000011e+00 -2.0105766189893787e-15 0.0000000000000000e+00  9.9999999999999978e-01 3.3254278010792758e-15 0.0000000000000000e+00  1.0000000000000004e+00 -9.6025524445049903e-16 0.0000000000000000e+00  9.9999999999999967e-01 6.0922625873439823e-16 0.0000000000000000e+00  1.0000000000000004e+00 -3.1790782284552780e-16 0.0000000000000000e+00  9.9999999999999978e-01 -4.0089336476266013e-17 0.0000000000000000e+00  1.0000000000000002e+00 -2.3930858875706198e-16 0.0000000000000000e+00  9.9999999999999989e-01 -4.7695414816668078e-16 0.0000000000000000e+00  1.0000000000000002e+00 -6.3774295277582339e-16 0.0000000000000000e+00  9.9999999999999989e-01 0.0000000000000000e+00 0.0000000000000000e+00  3.0000000011723302e+00 0.0000000000000000e+00 1.1036682718889210e-09  2.9999999988355612e+00 1.9250996006180509e-10 -2.6926301252741865e-10  3.0000000008187424e+00 4.4852879761423092e-10 1.0671778650574598e-10  2.9999999994132898e+00 -1.2130393386582075e-09 -7.5309641682776586e-10  3.0000000004211129e+00 1.7549784354606863e-09 1.4931048387239298e-09  2.9999999997118727e+00 -2.2658038911957478e-09 -2.6298520153611805e-09  3.0000000000337939e+00 2.8635395730933843e-09 4.4465111644662190e-09  3.0000000004958358e+00 -3.6493582688246486e-09 -7.4164726753258369e-09  2.9999999985712695e+00 4.7821507867607521e-09 1.2222297594730668e-08  3.0000000028231084e+00 -6.6656980231259041e-09 -1.9858113259707466e-08  2.9999999952687166e+00 9.9720904528853182e-09 3.1769466797834952e-08  3.0000000073797000e+00 -1.5438801306306476e-08 -5.0081895814835333e-08  2.9999999886286317e+00 2.3599831175733785e-08 7.7919791549095430e-08  3.0000000176724875e+00 -3.4900549053942957e-08 -1.1977191364957104e-07  2.9999999727679620e+00 5.0525244691718031e-08 1.8183549987255352e-07  3.0000000404546561e+00 -7.3594810609824987e-08 -2.7233245565778399e-07  2.9999999428506969e+00 1.0960104768443236e-07 4.0191454314848873e-07  3.0000000774498550e+00 -1.6504005715223598e-07 -5.8433151964159077e-07  2.9999998967268358e+00 2.4483668298366391e-07 8.3735610344056727e-07  3.0000001387298232e+00 -3.5135288869881142e-07 -1.1835615454087829e-06  2.9999998120323212e+00 4.8799310001277218e-07 1.6502516240397675e-06  3.0000002510939643e+00 -6.6664411320221941e-07 -2.2681264916799718e-06  2.9999996780942202e+00 9.1233218938654678e-07 3.0691989436642965e-06  3.0000003916274496e+00 -1.2567037490843415e-06 -4.0853198171524624e-06  2.9999995418310506e+00 1.7200149330673306e-06 5.3482314187309921e-06  3.0000005327179813e+00 -2.2957876519931244e-06 -6.8899096677943182e-06  2.9999993669432441e+00 2.9591739623109828e-06 8.7397789288159303e-06  3.0000007625181291e+00 -3.7040259477957436e-06 -1.0915971036145556e-05  2.9999991084469477e+00 4.5800492238582592e-06 1.3412974929753782e-05  3.0000009672857035e+00 -5.6806539398651726e-06 -1.6193822976351772e-05  2.9999990419969960e+00 7.0607945925656843e-06 1.9195691324770649e-05  3.0000009009424433e+00 -8.6394424522396918e-06 -2.2346847319674936e-05  2.9999991046539907e+00 1.0192687917747377e-05 2.5580107651614134e-05  3.0000010209910557e+00 -1.1507000783317689e-05 -2.8822075399280660e-05  2.9999987717451924e+00 1.2587349746443534e-05 3.1960775029291103e-05  3.0000013368287215e+00 -1.3733553616840929e-05 -3.4817719517799185e-05  2.9999988378527380e+00 1.5255298780701998e-05 3.7175554022740705e-05  3.0000007710347409e+00 -1.7100408807689624e-05 -3.8853624402608450e-05  2.9999995297374049e+00 1.8537052301071909e-05 3.9803544257114723e-05  3.0000007161404314e+00 -1.8773628436340772e-05 -4.0084958848792579e-05  2.9999985556373732e+00 1.7378896478904073e-05 3.9782665429081411e-05  3.0000023441497436e+00 -1.5538061469531003e-05 -3.8790965246002531e-05  2.9999976452731669e+00 1.4281361631390121e-05 3.6923507660459350e-05  3.0000017726114194e+00 -1.5229728888102836e-05 -3.3916396675243161e-05  2.9999996646508666e+00 1.5875188616001666e-05 3.0044526461253216e-05  3.0000007198596488e+00 -1.5865231982490714e-05 -2.5626240605910634e-05  2.9999986767308240e+00 1.0111332629519489e-05 2.1582619983749606e-05  3.0000048832417359e+00 -4.8605874908641894e-06 -1.7610483658358087e-05  2.9999955124609348e+00 -3.0036142465509400e-06 1.4029141728804742e-05  3.0000057684186476e+00 -1.0798097144389293e-07 -9.3321769100089943e-06  3.0000005003271060e+00 6.8946459859696281e-07 4.8429458388192972e-06  3.0000006036845059e+00 -9.6868296993216442e-06 1.8866518091009221e-07  3.0000034980851313e+00 1.9638780224758030e-06 -2.8367985925123512e-06  3.0000049312202459e+00 3.1017294830222293e-06 4.7300083275844102e-06  2.9999951093398791e+00 -1.7686694548796494e-05 -4.9937760212066706e-06  3.0000085821925992e+00 1.8780923322312385e-05 5.8129700978095326e-06  2.9999970695213412e+00 -5.8885569601726816e-06 -7.6748264055415494e-06  2.9999931394202299e+00 -3.6770795286053120e-07 7.6458571909243008e-06  3.0000038732328278e+00 2.0749101801535271e-05 -8.9303481410998761e-06  2.9999888924478642e+00 8.1869263874179816e-06 5.1077363466021334e-06  2.9999882057064817e+00 -1.5670497251201172e-06 -5.8177138949827412e-06  3.0000012405461223e+00 3.3303964264283908e-05 3.0749079566870937e-06  2.9999871089251786e+00 -5.7562853270949897e-06 -4.3568904546219696e-06  2.9999920502948871e+00 -2.8872869586310969e-06 3.9778740971869859e-06  3.0000115396288010e+00 1.3652530823341931e-05 -1.5088387790619366e-06  2.9999903415388864e+00 -1.6665107219197415e-05 4.7370769125730339e-06  3.0000008509311211e+00 -1.1295586985259641e-06 -2.7269724287605994e-06  2.9999926088940176e+00 4.3403343512115560e-05 1.0330017672442614e-05  2.9999423860571000e+00 7.9343443923472650e-05 -8.2617326069530543e-06  2.9998754521536641e+00 2.4416903156999545e-04 1.2414296466267986e-05  2.9997224962477032e+00 5.2018793787309339e-04 -9.8382675276211885e-06  2.9993901781904646e+00 1.0892319897154458e-03 1.7623584930472430e-05  2.9988122031904303e+00 2.1702781632501906e-03 -1.4738502165113938e-05  2.9977149149365778e+00 4.1513400306510380e-03 2.6797668715285461e-05  2.9957852786243646e+00 7.5989361450549331e-03 -1.0785151563240830e-05  2.9925852957499801e+00 1.3455387824047194e-02 2.3882410962885293e-05  2.9874342540306165e+00 2.2743577968960472e-02 -7.6663583382039658e-06  2.9795728971193252e+00 3.6977105101262134e-02 1.7255132606962019e-05  2.9681698552803444e+00 5.7679994067316186e-02 -1.4309261331595135e-05  2.9523599179747078e+00 8.6447571514680466e-02 -4.6540459833014119e-06  2.9313645379383786e+00 1.2465536035811220e-01 -1.2497396138001827e-05  2.90474106