<?xml version="1.0"?>
<VTKFile type="UnstructuredGrid"  version="0.1"  >
<UnstructuredGrid>
<Piece  NumberOfPoints="8241" NumberOfCells="16000">
<Points>
<DataArray  type="Float64"  NumberOfComponents="3"  format="ascii">-5 -1 0  -4.95 -1 0  -4.9 -1 0  -4.85 -1 0  -4.8 -1 0  -4.75 -1 0  -4.7 -1 0  -4.65 -1 0  -4.6 -1 0  -4.55 -1 0  -4.5 -1 0  -4.45 -1 0  -4.4 -1 0  -4.35 -1 0  -4.3 -1 0  -4.25 -1 0  -4.2 -1 0  -4.15 -1 0  -4.1 -1 0  -4.05 -1 0  -4 -1 0  -3.95 -1 0  -3.9 -1 0  -3.85 -1 0  -3.8 -1 0  -3.75 -1 0  -3.7 -1 0  -3.65 -1 0  -3.6 -1 0  -3.55 -1 0  -3.5 -1 0  -3.45 -1 0  -3.4 -1 0  -3.35 -1 0  -3.3 -1 0  -3.25 -1 0  -3.2 -1 0  -3.15 -1 0  -3.1 -1 0  -3.05 -1 0  -3 -1 0  -2.95 -1 0  -2.9 -1 0  -2.85 -1 0  -2.8 -1 0  -2.75 -1 0  -2.7 -1 0  -2.65 -1 0  -2.6 -1 0  -2.55 -1 0  -2.5 -1 0  -2.45 -1 0  -2.4 -1 0  -2.35 -1 0  -2.3 -1 0  -2.25 -1 0  -2.2 -1 0  -2.15 -1 0  -2.1 -1 0  -2.05 -1 0  -2 -1 0  -1.95 -1 0  -1.9 -1 0  -1.85 -1 0  -1.8 -1 0  -1.75 -1 0  -1.7 -1 0  -1.65 -1 0  -1.6 -1 0  -1.55 -1 0  -1.5 -1 0  -1.45 -1 0  -1.4 -1 0  -1.35 -1 0  -1.3 -1 0  -1.25 -1 0  -1.2 -1 0  -1.15 -1 0  -1.1 -1 0  -1.05 -1 0  -1 -1 0  -0.9500000000000002 -1 0  -0.9000000000000004 -1 0  -0.8499999999999996 -1 0  -0.7999999999999998 -1 0  -0.75 -1 0  -0.7000000000000002 -1 0  -0.6500000000000004 -1 0  -0.5999999999999996 -1 0  -0.5499999999999998 -1 0  -0.5 -1 0  -0.4500000000000002 -1 0  -0.4000000000000004 -1 0  -0.3499999999999996 -1 0  -0.2999999999999998 -1 0  -0.25 -1 0  -0.2000000000000002 -1 0  -0.1500000000000004 -1 0  -0.09999999999999964 -1 0  -0.04999999999999982 -1 0  0 -1 0  0.04999999999999982 -1 0  0.09999999999999964 -1 0  0.1500000000000004 -1 0  0.2000000000000002 -1 0  0.25 -1 0  0.2999999999999998 -1 0  0.3499999999999996 -1 0  0.4000000000000004 -1 0  0.4500000000000002 -1 0  0.5 -1 0  0.5499999999999998 -1 0  0.5999999999999996 -1 0  0.6500000000000004 -1 0  0.7000000000000002 -1 0  0.75 -1 0  0.7999999999999998 -1 0  0.8499999999999996 -1 0  0.9000000000000004 -1 0  0.9500000000000002 -1 0  1 -1 0  1.05 -1 0  1.1 -1 0  1.15 -1 0  1.2 -1 0  1.25 -1 0  1.3 -1 0  1.35 -1 0  1.4 -1 0  1.45 -1 0  1.5 -1 0  1.55 -1 0  1.6 -1 0  1.65 -1 0  1.7 -1 0  1.75 -1 0  1.8 -1 0  1.85 -1 0  1.9 -1 0  1.95 -1 0  2 -1 0  2.05 -1 0  2.1 -1 0  2.15 -1 0  2.2 -1 0  2.25 -1 0  2.3 -1 0  2.35 -1 0  2.4 -1 0  2.45 -1 0  2.5 -1 0  2.55 -1 0  2.6 -1 0  2.65 -1 0  2.7 -1 0  2.75 -1 0  2.8 -1 0  2.85 -1 0  2.9 -1 0  2.95 -1 0  3 -1 0  3.050000000000001 -1 0  3.1 -1 0  3.15 -1 0  3.199999999999999 -1 0  3.25 -1 0  3.300000000000001 -1 0  3.35 -1 0  3.4 -1 0  3.449999999999999 -1 0  3.5 -1 0  3.550000000000001 -1 0  3.6 -1 0  3.65 -1 0  3.699999999999999 -1 0  3.75 -1 0  3.800000000000001 -1 0  3.85 -1 0  3.9 -1 0  3.949999999999999 -1 0  4 -1 0  4.050000000000001 -1 0  4.1 -1 0  4.15 -1 0  4.199999999999999 -1 0  4.25 -1 0  4.300000000000001 -1 0  4.35 -1 0  4.4 -1 0  4.449999999999999 -1 0  4.5 -1 0  4.550000000000001 -1 0  4.6 -1 0  4.65 -1 0  4.699999999999999 -1 0  4.75 -1 0  4.800000000000001 -1 0  4.85 -1 0  4.9 -1 0  4.949999999999999 -1 0  5 -1 0  -5 -0.95 0  -4.95 -0.95 0  -4.9 -0.95 0  -4.85 -0.95 0  -4.8 -0.95 0  -4.75 -0.95 0  -4.7 -0.95 0  -4.65 -0.95 0  -4.6 -0.95 0  -4.55 -0.95 0  -4.5 -0.95 0  -4.45 -0.95 0  -4.4 -0.95 0  -4.35 -0.95 0  -4.3 -0.95 0  -4.25 -0.95 0  -4.2 -0.95 0  -4.15 -0.95 0  -4.1 -0.95 0  -4.05 -0.95 0  -4 -0.95 0  -3.95 -0.95 0  -3.9 -0.95 0  -3.85 -0.95 0  -3.8 -0.95 0  -3.75 -0.95 0  -3.7 -0.95 0  -3.65 -0.95 0  -3.6 -0.95 0  -3.55 -0.95 0  -3.5 -0.95 0  -3.45 -0.95 0  -3.4 -0.95 0  -3.35 -0.95 0  -3.3 -0.95 0  -3.25 -0.95 0  -3.2 -0.95 0  -3.15 -0.95 0  -3.1 -0.95 0  -3.05 -0.95 0  -3 -0.95 0  -2.95 -0.95 0  -2.9 -0.95 0  -2.85 -0.95 0  -2.8 -0.95 0  -2.75 -0.95 0  -2.7 -0.95 0  -2.65 -0.95 0  -2.6 -0.95 0  -2.55 -0.95 0  -2.5 -0.95 0  -2.45 -0.95 0  -2.4 -0.95 0  -2.35 -0.95 0  -2.3 -0.95 0  -2.25 -0.95 0  -2.2 -0.95 0  -2.15 -0.95 0  -2.1 -0.95 0  -2.05 -0.95 0  -2 -0.95 0  -1.95 -0.95 0  -1.9 -0.95 0  -1.85 -0.95 0  -1.8 -0.95 0  -1.75 -0.95 0  -1.7 -0.95 0  -1.65 -0.95 0  -1.6 -0.95 0  -1.55 -0.95 0  -1.5 -0.95 0  -1.45 -0.95 0  -1.4 -0.95 0  -1.35 -0.95 0  -1.3 -0.95 0  -1.25 -0.95 0  -1.2 -0.95 0  -1.15 -0.95 0  -1.1 -0.95 0  -1.05 -0.95 0  -1 -0.95 0  -0.9500000000000002 -0.95 0  -0.9000000000000004 -0.95 0  -0.8499999999999996 -0.95 0  -0.7999999999999998 -0.95 0  -0.75 -0.95 0  -0.7000000000000002 -0.95 0  -0.6500000000000004 -0.95 0  -0.5999999999999996 -0.95 0  -0.5499999999999998 -0.95 0  -0.5 -0.95 0  -0.4500000000000002 -0.95 0  -0.4000000000000004 -0.95 0  -0.3499999999999996 -0.95 0  -0.2999999999999998 -0.95 0  -0.25 -0.95 0  -0.2000000000000002 -0.95 0  -0.1500000000000004 -0.95 0  -0.09999999999999964 -0.95 0  -0.04999999999999982 -0.95 0  0 -0.95 0  0.04999999999999982 -0.95 0  0.09999999999999964 -0.95 0  0.1500000000000004 -0.95 0  0.2000000000000002 -0.95 0  0.25 -0.95 0  0.2999999999999998 -0.95 0  0.3499999999999996 -0.95 0  0.4000000000000004 -0.95 0  0.4500000000000002 -0.95 0  0.5 -0.95 0  0.5499999999999998 -0.95 0  0.5999999999999996 -0.95 0  0.6500000000000004 -0.95 0  0.7000000000000002 -0.95 0  0.75 -0.95 0  0.7999999999999998 -0.95 0  0.8499999999999996 -0.95 0  0.9000000000000004 -0.95 0  0.9500000000000002 -0.95 0  1 -0.95 0  1.05 -0.95 0  1.1 -0.95 0  1.15 -0.95 0  1.2 -0.95 0  1.25 -0.95 0  1.3 -0.95 0  1.35 -0.95 0  1.4 -0.95 0  1.45 -0.95 0  1.5 -0.95 0  1.55 -0.95 0  1.6 -0.95 0  1.65 -0.95 0  1.7 -0.95 0  1.75 -0.95 0  1.8 -0.95 0  1.85 -0.95 0  1.9 -0.95 0  1.95 -0.95 0  2 -0.95 0  2.05 -0.95 0  2.1 -0.95 0  2.15 -0.95 0  2.2 -0.95 0  2.25 -0.95 0  2.3 -0.95 0  2.35 -0.95 0  2.4 -0.95 0  2.45 -0.95 0  2.5 -0.95 0  2.55 -0.95 0  2.6 -0.95 0  2.65 -0.95 0  2.7 -0.95 0  2.75 -0.95 0  2.8 -0.95 0  2.85 -0.95 0  2.9 -0.95 0  2.95 -0.95 0  3 -0.95 0  3.050000000000001 -0.95 0  3.1 -0.95 0  3.15 -0.95 0  3.199999999999999 -0.95 0  3.25 -0.95 0  3.300000000000001 -0.95 0  3.35 -0.95 0  3.4 -0.95 0  3.449999999999999 -0.95 0  3.5 -0.95 0  3.550000000000001 -0.95 0  3.6 -0.95 0  3.65 -0.95 0  3.699999999999999 -0.95 0  3.75 -0.95 0  3.800000000000001 -0.95 0  3.85 -0.95 0  3.9 -0.95 0  3.949999999999999 -0.95 0  4 -0.95 0  4.050000000000001 -0.95 0  4.1 -0.95 0  4.15 -0.95 0  4.199999999999999 -0.95 0  4.25 -0.95 0  4.300000000000001 -0.95 0  4.35 -0.95 0  4.4 -0.95 0  4.449999999999999 -0.95 0  4.5 -0.95 0  4.550000000000001 -0.95 0  4.6 -0.95 0  4.65 -0.95 0  4.699999999999999 -0.95 0  4.75 -0.95 0  4.800000000000001 -0.95 0  4.85 -0.95 0  4.9 -0.95 0  4.949999999999999 -0.95 0  5 -0.95 0  -5 -0.9 0  -4.95 -0.9 0  -4.9 -0.9 0  -4.85 -0.9 0  -4.8 -0.9 0  -4.75 -0.9 0  -4.7 -0.9 0  -4.65 -0.9 0  -4.6 -0.9 0  -4.55 -0.9 0  -4.5 -0.9 0  -4.45 -0.9 0  -4.4 -0.9 0  -4.35 -0.9 0  -4.3 -0.9 0  -4.25 -0.9 0  -4.2 -0.9 0  -4.15 -0.9 0  -4.1 -0.9 0  -4.05 -0.9 0  -4 -0.9 0  -3.95 -0.9 0  -3.9 -0.9 0  -3.85 -0.9 0  -3.8 -0.9 0  -3.75 -0.9 0  -3.7 -0.9 0  -3.65 -0.9 0  -3.6 -0.9 0  -3.55 -0.9 0  -3.5 -0.9 0  -3.45 -0.9 0  -3.4 -0.9 0  -3.35 -0.9 0  -3.3 -0.9 0  -3.25 -0.9 0  -3.2 -0.9 0  -3.15 -0.9 0  -3.1 -0.9 0  -3.05 -0.9 0  -3 -0.9 0  -2.95 -0.9 0  -2.9 -0.9 0  -2.85 -0.9 0  -2.8 -0.9 0  -2.75 -0.9 0  -2.7 -0.9 0  -2.65 -0.9 0  -2.6 -0.9 0  -2.55 -0.9 0  -2.5 -0.9 0  -2.45 -0.9 0  -2.4 -0.9 0  -2.35 -0.9 0  -2.3 -0.9 0  -2.25 -0.9 0  -2.2 -0.9 0  -2.15 -0.9 0  -2.1 -0.9 0  -2.05 -0.9 0  -2 -0.9 0  -1.95 -0.9 0  -1.9 -0.9 0  -1.85 -0.9 0  -1.8 -0.9 0  -1.75 -0.9 0  -1.7 -0.9 0  -1.65 -0.9 0  -1.6 -0.9 0  -1.55 -0.9 0  -1.5 -0.9 0  -1.45 -0.9 0  -1.4 -0.9 0  -1.35 -0.9 0  -1.3 -0.9 0  -1.25 -0.9 0  -1.2 -0.9 0  -1.15 -0.9 0  -1.1 -0.9 0  -1.05 -0.9 0  -1 -0.9 0  -0.9500000000000002 -0.9 0  -0.9000000000000004 -0.9 0  -0.8499999999999996 -0.9 0  -0.7999999999999998 -0.9 0  -0.75 -0.9 0  -0.7000000000000002 -0.9 0  -0.6500000000000004 -0.9 0  -0.5999999999999996 -0.9 0  -0.5499999999999998 -0.9 0  -0.5 -0.9 0  -0.4500000000000002 -0.9 0  -0.4000000000000004 -0.9 0  -0.3499999999999996 -0.9 0  -0.2999999999999998 -0.9 0  -0.25 -0.9 0  -0.2000000000000002 -0.9 0  -0.1500000000000004 -0.9 0  -0.09999999999999964 -0.9 0  -0.04999999999999982 -0.9 0  0 -0.9 0  0.04999999999999982 -0.9 0  0.09999999999999964 -0.9 0  0.1500000000000004 -0.9 0  0.2000000000000002 -0.9 0  0.25 -0.9 0  0.2999999999999998 -0.9 0  0.3499999999999996 -0.9 0  0.4000000000000004 -0.9 0  0.4500000000000002 -0.9 0  0.5 -0.9 0  0.5499999999999998 -0.9 0  0.5999999999999996 -0.9 0  0.6500000000000004 -0.9 0  0.7000000000000002 -0.9 0  0.75 -0.9 0  0.7999999999999998 -0.9 0  0.8499999999999996 -0.9 0  0.9000000000000004 -0.9 0  0.9500000000000002 -0.9 0  1 -0.9 0  1.05 -0.9 0  1.1 -0.9 0  1.15 -0.9 0  1.2 -0.9 0  1.25 -0.9 0  1.3 -0.9 0  1.35 -0.9 0  1.4 -0.9 0  1.45 -0.9 0  1.5 -0.9 0  1.55 -0.9 0  1.6 -0.9 0  1.65 -0.9 0  1.7 -0.9 0  1.75 -0.9 0  1.8 -0.9 0  1.85 -0.9 0  1.9 -0.9 0  1.95 -0.9 0  2 -0.9 0  2.05 -0.9 0  2.1 -0.9 0  2.15 -0.9 0  2.2 -0.9 0  2.25 -0.9 0  2.3 -0.9 0  2.35 -0.9 0  2.4 -0.9 0  2.45 -0.9 0  2.5 -0.9 0  2.55 -0.9 0  2.6 -0.9 0  2.65 -0.9 0  2.7 -0.9 0  2.75 -0.9 0  2.8 -0.9 0  2.85 -0.9 0  2.9 -0.9 0  2.95 -0.9 0  3 -0.9 0  3.050000000000001 -0.9 0  3.1 -0.9 0  3.15 -0.9 0  3.199999999999999 -0.9 0  3.25 -0.9 0  3.300000000000001 -0.9 0  3.35 -0.9 0  3.4 -0.9 0  3.449999999999999 -0.9 0  3.5 -0.9 0  3.550000000000001 -0.9 0  3.6 -0.9 0  3.65 -0.9 0  3.699999999999999 -0.9 0  3.75 -0.9 0  3.800000000000001 -0.9 0  3.85 -0.9 0  3.9 -0.9 0  3.949999999999999 -0.9 0  4 -0.9 0  4.050000000000001 -0.9 0  4.1 -0.9 0  4.15 -0.9 0  4.199999999999999 -0.9 0  4.25 -0.9 0  4.300000000000001 -0.9 0  4.35 -0.9 0  4.4 -0.9 0  4.449999999999999 -0.9 0  4.5 -0.9 0  4.550000000000001 -0.9 0  4.6 -0.9 0  4.65 -0.9 0  4.699999999999999 -0.9 0  4.75 -0.9 0  4.800000000000001 -0.9 0  4.85 -0.9 0  4.9 -0.9 0  4.949999999999999 -0.9 0  5 -0.9 0  -5 -0.85 0  -4.95 -0.85 0  -4.9 -0.85 0  -4.85 -0.85 0  -4.8 -0.85 0  -4.75 -0.85 0  -4.7 -0.85 0  -4.65 -0.85 0  -4.6 -0.85 0  -4.55 -0.85 0  -4.5 -0.85 0  -
[...]
<PointData  Vectors="f_15"> 
<DataArray  type="Float64"  Name="f_15"  NumberOfComponents="3" format="ascii">5.1018979179688939e+00 0.0000000000000000e+00 0.0000000000000000e+00  5.1330386936399828e+00 1.0309947955893310e-01 0.0000000000000000e+00  5.1042470654312311e+00 1.0576587160195206e-01 0.0000000000000000e+00  5.1325054368675014e+00 2.4231814276527400e-01 0.0000000000000000e+00  5.1046195683075339e+00 2.5360186808268276e-01 0.0000000000000000e+00  5.1316571505261921e+00 3.7658600586604907e-01 0.0000000000000000e+00  5.1050081736001882e+00 3.9996322297041631e-01 0.0000000000000000e+00  5.1305746513693746e+00 5.1489682742011289e-01 0.0000000000000000e+00  5.1035459380488426e+00 5.4386835357420649e-01 0.0000000000000000e+00  5.1295393547103449e+00 6.5320641417075886e-01 0.0000000000000000e+00  5.1026251902852948e+00 6.8541729320191758e-01 0.0000000000000000e+00  5.1262050071446614e+00 7.9685429827897536e-01 0.0000000000000000e+00  5.1019183093803004e+00 8.2198809420379049e-01 0.0000000000000000e+00  5.1237486726582757e+00 9.3804996656806039e-01 0.0000000000000000e+00  5.0987794617198086e+00 9.6744023099707332e-01 0.0000000000000000e+00  5.1214332376045251e+00 1.0723928825265416e+00 0.0000000000000000e+00  5.0968676681992777e+00 1.1104513540729408e+00 0.0000000000000000e+00  5.1164872884164065e+00 1.2134449487926660e+00 0.0000000000000000e+00  5.0950611612428256e+00 1.2509440089829424e+00 0.0000000000000000e+00  5.1129633081020964e+00 1.3517960169100232e+00 0.0000000000000000e+00  5.0905391306233323e+00 1.3917128182563341e+00 0.0000000000000000e+00  5.1094137341211168e+00 1.4933648047234811e+00 0.0000000000000000e+00  5.0876890286500274e+00 1.5320047134911339e+00 0.0000000000000000e+00  5.1029804752195602e+00 1.6295021499349012e+00 0.0000000000000000e+00  5.0846688444237547e+00 1.6757012265053568e+00 0.0000000000000000e+00  5.0985504867666744e+00 1.7692019160055292e+00 0.0000000000000000e+00  5.0785263666883456e+00 1.8131858309426689e+00 0.0000000000000000e+00  5.0938228194039414e+00 1.9088691014305501e+00 0.0000000000000000e+00  5.0746078997875701e+00 1.9560154133691028e+00 0.0000000000000000e+00  5.0859778014647938e+00 2.0437138742419139e+00 0.0000000000000000e+00  5.0700499597036819e+00 2.0978354322657005e+00 0.0000000000000000e+00  5.0806783891766987e+00 2.1833802122981991e+00 0.0000000000000000e+00  5.0622468971735621e+00 2.2343964425686220e+00 0.0000000000000000e+00  5.0746100010713757e+00 2.3232843201370890e+00 0.0000000000000000e+00  5.0570605241129369e+00 2.3751939151824333e+00 0.0000000000000000e+00  5.0654018458062859e+00 2.4582327006531144e+00 0.0000000000000000e+00  5.0507889760647551e+00 2.5150559649185120e+00 0.0000000000000000e+00  5.0590295241612608e+00 2.5982818440770359e+00 0.0000000000000000e+00  5.0413006638181308e+00 2.6502937735370100e+00 0.0000000000000000e+00  5.0514553881320010e+00 2.7362782631991482e+00 0.0000000000000000e+00  5.0346610401672232e+00 2.7915630646363061e+00 0.0000000000000000e+00  5.0407411971487708e+00 2.8686452717200672e+00 0.0000000000000000e+00  5.0266548669425939e+00 2.9316416102354639e+00 0.0000000000000000e+00  5.0328796967881848e+00 3.0064509081230044e+00 0.0000000000000000e+00  5.0155002113452225e+00 3.0662201951164390e+00 0.0000000000000000e+00  5.0236385681472289e+00 3.1430691069042194e+00 0.0000000000000000e+00  5.0070243523335032e+00 3.2055808682394655e+00 0.0000000000000000e+00  5.0114034969093399e+00 3.2752619327907917e+00 0.0000000000000000e+00  4.9970314515568468e+00 3.3424446759573074e+00 0.0000000000000000e+00  5.0017879042056750e+00 3.4134284356199234e+00 0.0000000000000000e+00  4.9839696599660170e+00 3.4732075589554063e+00 0.0000000000000000e+00  4.9908284545139745e+00 3.5509329945564403e+00 0.0000000000000000e+00  4.9731215343109731e+00 3.6081558813995582e+00 0.0000000000000000e+00  4.9770484980972975e+00 3.6831802173629615e+00 0.0000000000000000e+00  4.9608440347723546e+00 3.7425913423529620e+00 0.0000000000000000e+00  4.9652516168482439e+00 3.8183521824215734e+00 0.0000000000000000e+00  4.9458303259195890e+00 3.8731559062177419e+00 0.0000000000000000e+00  4.9520368849335963e+00 3.9513114194201107e+00 0.0000000000000000e+00  4.9325571233719945e+00 4.0087925278355101e+00 0.0000000000000000e+00  4.9360901509633672e+00 4.0771541360544088e+00 0.0000000000000000e+00  4.9180453618148130e+00 4.1455000113083837e+00 0.0000000000000000e+00  4.9214080515556358e+00 4.2059041436888958e+00 0.0000000000000000e+00  4.9009861476435317e+00 4.2743860465381074e+00 0.0000000000000000e+00  4.9055025009635580e+00 4.3387533407873846e+00 0.0000000000000000e+00  4.8848676036652625e+00 4.4018619602205513e+00 0.0000000000000000e+00  4.8871058838795314e+00 4.4672422312710456e+00 0.0000000000000000e+00  4.8676433284882181e+00 4.5311533045578845e+00 0.0000000000000000e+00  4.8692498096790819e+00 4.5954482298724919e+00 0.0000000000000000e+00  4.8480049476161566e+00 4.6546447279104193e+00 0.0000000000000000e+00  4.8503513388103441e+00 4.7269876677769078e+00 0.0000000000000000e+00  4.8286210746543912e+00 4.7765171958258223e+00 0.0000000000000000e+00  4.8289357157080355e+00 4.8521851697287506e+00 0.0000000000000000e+00  4.8085686312609761e+00 4.9037030572793663e+00 0.0000000000000000e+00  4.8070048508813823e+00 4.9733687053818878e+00 0.0000000000000000e+00  4.7865342418345538e+00 5.0248601199655019e+00 0.0000000000000000e+00  4.7840957279509286e+00 5.1013137815053851e+00 0.0000000000000000e+00  4.7638265844154590e+00 5.1403168901315635e+00 0.0000000000000000e+00  4.7591784287514605e+00 5.2215556856496788e+00 0.0000000000000000e+00  4.7403889290742001e+00 5.2682473010305682e+00 0.0000000000000000e+00  4.7328307121581323e+00 5.3280839565621489e+00 0.0000000000000000e+00  4.7155773739848881e+00 5.3937382788376489e+00 0.0000000000000000e+00  4.7050847442539174e+00 5.4483891122724604e+00 0.0000000000000000e+00  4.6897548234271023e+00 5.4966564685664636e+00 0.0000000000000000e+00  4.6752923619309898e+00 5.5780694762935390e+00 0.0000000000000000e+00  4.6632280214096999e+00 5.6051707809080185e+00 0.0000000000000000e+00  4.6437822154362145e+00 5.6834116411641560e+00 0.0000000000000000e+00  4.6350149654437223e+00 5.7348385894463609e+00 0.0000000000000000e+00  4.6114602378896539e+00 5.7779569481087965e+00 0.0000000000000000e+00  4.6050788123496114e+00 5.8510706777008634e+00 0.0000000000000000e+00  4.5769616180552708e+00 5.8959374788922227e+00 0.0000000000000000e+00  4.5750433914455177e+00 5.9401223990374730e+00 0.0000000000000000e+00  4.5409805416173619e+00 6.0222827908607011e+00 0.0000000000000000e+00  4.5423548586723728e+00 6.0348150403904350e+00 0.0000000000000000e+00  4.5056715227142332e+00 6.1259397240001503e+00 0.0000000000000000e+00  4.5046279163470411e+00 6.1528540366302673e+00 0.0000000000000000e+00  4.4715825271923952e+00 6.2096507330274084e+00 0.0000000000000000e+00  4.4684413360098887e+00 6.2669156403770900e+00 0.0000000000000000e+00  4.4323231602860629e+00 6.3069604464267446e+00 0.0000000000000000e+00  4.4291128120227370e+00 6.3618287598350136e+00 0.0000000000000000e+00  4.3937309927691306e+00 6.4212726803737583e+00 0.0000000000000000e+00  4.3921249982350812e+00 6.4353930721914825e+00 0.0000000000000000e+00  4.3588354455051848e+00 6.5243658194402121e+00 0.0000000000000000e+00  4.3470402576489642e+00 6.5360923340815074e+00 0.0000000000000000e+00  4.3139778524381294e+00 6.6112887243671290e+00 0.0000000000000000e+00  4.3068179212006736e+00 6.6466261988049791e+00 0.0000000000000000e+00  4.2699659902038336e+00 6.6911310257903649e+00 0.0000000000000000e+00  4.2645553079678722e+00 6.7408695918266286e+00 0.0000000000000000e+00  4.2267824420155069e+00 6.7895738551258571e+00 0.0000000000000000e+00  4.2208254140773267e+00 6.8174469303314087e+00 0.0000000000000000e+00  4.1791925801989960e+00 6.8951965882374440e+00 0.0000000000000000e+00  4.1784314551147235e+00 6.8945948774378145e+00 0.0000000000000000e+00  4.1345751165518516e+00 6.9873171303047670e+00 0.0000000000000000e+00  4.1329721565021558e+00 6.9780804349403471e+00 0.0000000000000000e+00  4.0893782679435988e+00 7.0734733562784813e+00 0.0000000000000000e+00  4.0882129190888099e+00 7.0650353338687406e+00 0.0000000000000000e+00  4.0403370727214778e+00 7.1562092272676292e+00 0.0000000000000000e+00  4.0438480002246466e+00 7.1523516587288887e+00 0.0000000000000000e+00  3.9963494964917325e+00 7.2331819985728876e+00 0.0000000000000000e+00  3.9958931819884618e+00 7.2367244393623134e+00 0.0000000000000000e+00  3.9560568947258767e+00 7.3081051980099838e+00 0.0000000000000000e+00  3.9482475360113036e+00 7.3197120673341418e+00 0.0000000000000000e+00  3.9096107939522984e+00 7.3859958764404041e+00 0.0000000000000000e+00  3.9024017047095887e+00 7.4017387271554851e+00 0.0000000000000000e+00  3.8649074931817804e+00 7.4608558681406620e+00 0.0000000000000000e+00  3.8622087469845008e+00 7.4711913857140200e+00 0.0000000000000000e+00  3.8250672626024977e+00 7.5299527398617307e+00 0.0000000000000000e+00  3.8158554108097777e+00 7.5485417823288339e+00 0.0000000000000000e+00  3.8338160573454818e+00 7.5197308213935070e+00 0.0000000000000000e+00  3.8962629407134757e+00 7.4245865681401959e+00 0.0000000000000000e+00  3.9212685881865479e+00 7.3823368456267495e+00 0.0000000000000000e+00  3.9402342587474606e+00 7.3569975882020655e+00 0.0000000000000000e+00  3.9403877654367321e+00 7.3550783942620050e+00 0.0000000000000000e+00  3.9490610392712688e+00 7.3460622212707847e+00 0.0000000000000000e+00  3.9458914637268947e+00 7.3463245418592358e+00 0.0000000000000000e+00  3.9520647737156334e+00 7.3430783131238195e+00 0.0000000000000000e+00  3.9511825225556976e+00 7.3399422484007273e+00 0.0000000000000000e+00  3.9525289611612133e+00 7.3415469209394555e+00 0.0000000000000000e+00  3.9552924865716577e+00 7.3357213692304848e+00 0.0000000000000000e+00  3.9535822096506728e+00 7.3397434802339658e+00 0.0000000000000000e+00  3.9581005019954314e+00 7.3332657623455511e+00 0.0000000000000000e+00  3.9531754983568774e+00 7.3383529154539602e+00 0.0000000000000000e+00  3.9608306876380897e+00 7.3321724677397047e+00 0.0000000000000000e+00  3.9538130889716414e+00 7.3355435511406375e+00 0.0000000000000000e+00  3.9607801515835916e+00 7.3348326058423368e+00 0.0000000000000000e+00  3.9552250309381942e+00 7.3289879202429411e+00 0.0000000000000000e+00  3.9630490994105849e+00 7.3401318392129591e+00 0.0000000000000000e+00  3.9519801003371753e+00 7.3236440242645013e+00 0.0000000000000000e+00  3.9672378493538605e+00 7.3420239156268323e+00 0.0000000000000000e+00  3.9506379936029790e+00 7.3233994218511258e+00 0.0000000000000000e+00  3.9668259432328403e+00 7.3404605174388378e+00 0.0000000000000000e+00  3.9525361730096749e+00 7.3242550205220036e+00 0.0000000000000000e+00  3.9646308509105666e+00 7.3404245781374362e+00 0.0000000000000000e+00  3.9520489333847868e+00 7.3281214840734119e+00 0.0000000000000000e+00  3.9579075529851560e+00 7.3356563752368205e+00 0.0000000000000000e+00  3.9576656865738649e+00 7.3488779585723245e+00 0.0000000000000000e+00  3.9289998427018831e+00 7.3013309383739493e+00 0.0000000000000000e+00  3.9957899524362848e+00 7.4334133320697138e+00 0.0000000000000000e+00  3.8569271814943056e+00 7.1461073912564670e+00 0.0000000000000000e+00  4.0636966959874323e+00 7.7130645871467305e+00 0.0000000000000000e+00  3.8979329921240464e+00 6.6040547688859661e+00 0.0000000000000000e+00  3.7182890988791533e+00 8.6567593669908103e+00 0.0000000000000000e+00  5.3923837100586196e+00 4.4048006005406961e+00 0.0000000000000000e+00  9.1727090876318833e+00 3.2760312180592643e-01 0.0000000000000000e+00  9.5723960553857115e+00 1.4170982522803596e-02 0.0000000000000000e+00  9.4029501329686074e+00 1.5766205149183032e-02 0.0000000000000000e+00  9.4947710256898183e+00 -2.1123943939594918e-02 0.0000000000000000e+00  9.4779786298004254e+00 -7.1927773662857457e-03 0.0000000000000000e+00  9.5008900505380751e+00 -4.1856540610761987e-02 0.0000000000000000e+00  9.4990122893100875e+00 -3.6258375257335940e-02 0.0000000000000000e+00  9.4908330892023081e+00 -2.7897252429858747e-02 0.0000000000000000e+00  9.4920883016175566e+00 -3.2584475609086207e-02 0.0000000000000000e+00  9.4971895628714531e+00 -3.5935272523309837e-02 0.0000000000000000e+00  9.4976386581473147e+00 -3.9445540178724967e-02 0.0000000000000000e+00  9.4946815554472099e+00 -3.4999215483904729e-02 0.0000000000000000e+00  9.4949468200606812e+00 -3.8707744547664978e-02 0.0000000000000000e+00  9.4977437035644261e+00 -4.1048923542650807e-02 0.0000000000000000e+00  9.4962806047613473e+00 -4.0240998795629770e-02 0.0000000000000000e+00  9.4964158315835885e+00 -4.5177682789349430e-02 0.0000000000000000e+00  9.4971828813030328e+00 -4.4686484723946839e-02 0.0000000000000000e+00  9.4965753092270422e+00 -5.1862065564437565e-02 0.0000000000000000e+00  9.4972843486164784e+00 -5.0921340213055402e-02 0.0000000000000000e+00  9.4976821024994020e+00 -6.0888321667162910e-02 0.0000000000000000e+00  9.4963875034022553e+00 -5.5967941676660894e-02 0.0000000000000000e+00  9.4982248240663658e+00 -6.7796970150692429e-02 0.0000000000000000e+00  9.4971579081741311e+00 -6.0139771280791246e-02 0.0000000000000000e+00  9.4974663525571952e+00 -7.8312067331233956e-02 0.0000000000000000e+00  9.4976916303951739e+00 -7.7629806197812151e-02 0.0000000000000000e+00  9.4977605639372591e+00 -9.6695244076145465e-02 0.0000000000000000e+00  9.4968547112146844e+00 -9.7341639843301214e-02 0.0000000000000000e+00  9.4985693490139766e+00 -1.1627549849902670e-01 0.0000000000000000e+00  9.4964154324289822e+00 -1.0860443148530476e-01 0.0000000000000000e+00  9.4981283940438406e+00 -1.2559666839165759e-01 0.0000000000000000e+00  9.4970563819174458e+00 -1.0672213215478077e-01 0.0000000000000000e+00  9.4975279000345907e+00 -1.1070275178346781e-01 0.0000000000000000e+00  9.4969049523488387e+00 -1.0113988139380738e-01 0.0000000000000000e+00  9.4981338967239743e+00 -9.2604861332736946e-02 0.0000000000000000e+00  9.4958452547493408e+00 -9.3439317374931080e-02 0.0000000000000000e+00  9.4984759105230641e+00 -7.2335642484600421e-02 0.0000000000000000e+00  9.4961481144116178e+00 -1.0748321562349612e-01 0.0000000000000000e+00  9.4972433146844750e+00 -2.5938588129574211e-02 0.0000000000000000e+00  9.4973092791233977e+00 0.0000000000000000e+00 0.0000000000000000e+00  5.1178864369727517e+00 0.0000000000000000e+00 -2.4457487888485840e-02  5.1251804805666010e+00 6.1280215970748772e-02 1.9520586851305545e-03  5.1187902654623851e+00 1.5191917166060251e-01 1.0788216399615908e-02  5.1214347440146515e+00 2.1082903647171017e-01 -6.8173971346883622e-03  5.1183908457689391e+00 2.8214753303328416e-01 5.4382695578495920e-03  5.1198398664672435e+00 3.5395419175784182e-01 -4.5672268266703439e-03  5.1171757553596260e+00 4.2308863415369041e-01 4.7887258957125239e-03  5.1174552137859317e+00 4.9218026112518126e-01 -5.1938899766999554e-03  5.1163827004222560e+00 5.6467667796381993e-01 5.1608320268565801e-03  5.1157466723160754e+00 6.3190894595525926e-01 -4.3890266532041998e-03  5.1137422804661608e+00 7.0704821294470566e-01 3.2900296640849739e-03  5.1144448982115716e+00 7.7007315912042040e-01 -2.2943928393720442e-03  5.1120298324382984e+00 8.4807700027244703e-01 1.4702786653662584e-03  5.1108831959106782e+00 9.1470219244141282e-01 -2.6871909922276721e-04  5.1105968725337476e+00 9.8235624755673268e-01 -1.1450948714003132e-03  5.1085382226286704e+00 1.0590664205297673e+00 1.5379639590515054e-03  5.1065005741814637e+00 1.1243990224458547e+00 -5.0171636135728882e-05  5.1065111730172035e+00 1.1954674392834443e+00 -2.1545625445900437e-03  5.1036694408293570e+00 1.2676808772072683e+00 3.0773886996262843e-03  5.1017802696170085e+00 1.3349907230048179e+00 -2.3082660085008027e-03  5.1009351767198643e+00 1.4084550141910492e+00 1.6280011861953673e-03  5.0986264410630664e+00 1.4752439111475761e+00 -2.2546739600548568e-03  5.0952928952381757e+00 1.5470889544532107e+00 3.4020071762626471e-03  5.0954471500673915e+00 1.6170406506348669e+00 -3.9208687214850983e-03  5.0914650116293556e+00 1.6880287160901464e+00 4.0618726729309135e-03  5.0892680058246169e+00 1.7534356801882587e+00 -4.5585261378149281e-03  5.0873446515234360e+00 1.8301883148882929e+00 5.3824268365837849e-03  5.0852614640445859e+00 1.8941828099457139e+00 -5.9719723935760059e-03  5.0800717528724899e+00 1.9671178089019268e+00 6.3721981023526506e-03  5.0807615637830628e+00 2.0343241896925304e+00 -6.7978633034099780e-03  5.0752051998785763e+00 2.1088264236625158e+00 7.1965544268610604e-03  5.0730587011046309e+00 2.1698118209056343e+00 -7.4270222347676716e-03  5.0696322272324847e+00 2.2499207281272740e+00 7.6169545279682208e-03  5.0679137603466256e+00 2.3098167126085962e+00 -7.7710394215744763e-03  5.0609015863764153e+00 2.3857703320374961e+00 7.7904884988199870e-03  5.0617768195406336e+00 2.4496969158613093e+00 -7.6999901860475362e-03  5.0549365295988418e+00 2.5261062997769468e+00 7.6539820951872020e-03  5.0524377686212398e+00 2.5847193513254991e+00 -7.6836536368985690e-03  5.0478076359001527e+00 2.6650577625910445e+00 7.7301553712019171e-03  5.0459452054660794e+00 2.7251280453321551e+00 -7.7903709608869573e-03  5.0374986244720654e+00 2.7989656159851735e+00 7.8741705339311074e-03  5.0381460751431302e+00 2.8639049215848491e+00 -7.9697173643626350e-03  5.0300350799785170e+00 2.9384843917750740e+00 8.0650699751658485e-03  5.0272026620903363e+00 2.9971486759249646e+00 -8.1990054523288416e-03  5.0211798207844716e+00 3.0767797332170166e+00 8.3252168717170734e-03  5.0190152035617226e+00 3.1355164878071542e+00 -8.4135530944505522e-03  5.0092541062121754e+00 3.2099895364934343e+00 8.4571652387190142e-03  5.0093741968283236e+00 3.2721531351475139e+00 -8.5190262820394515e-03  4.9999371934423396e+00 3.3484229124067770e+00 8.5942798275082527e-03  4.9967494467917621e+00 3.4035514964572853e+00 -8.7197932430126864e-03  4.9891062690997039e+00 3.4853483805034866e+00 8.9225867857617523e-03  4.9866272218147367e+00 3.5397498415377773e+00 -9.2865833375187171e-03  4.9751978128355256e+00 3.6170465749392298e+00 9.8354648268560788e-03  4.9752562230544575e+00 3.6746253271430822e+00 -1.0554470232427442e-02  4.9632453505308893e+00 3.7530873398172426e+00 1.1297333810617481e-02  4.9611695716451312e+00 3.8042708592031609e+00 -1.1929478889813184e-02  4.9498560461254968e+00 3.8880875948929847e+00 1.2409119155502798e-02  4.9488963821697984e+00 3.9378466317740819e+00 -1.2776599034526473e-02  4.9337673473766692e+00 4.0174088735610018e+00 1.3069446415799156e-02  4.9352313483297214e+00 4.0711842553839821e+00 -1.3215369032832394e-02  4.9192829277937342e+00 4.1500404649523688e+00 1.3074854530405525e-02  4.9186881192707776e+00 4.1980708478282134e+00 -1.2545418762796702e-02  4.9038696871803760e+00 4.2839684288122148e+00 1.1706505339982255e-02  4.9029241794711913e+00 4.3268368794077174e+00 -1.0729016408607980e-02  4.8861245259640285e+00 4.4110860128727563e+00 9.7999101839481035e-03  4.8859337863824823e+00 4.4586923657446986e+00 -8.9889276800513458e-03  4.8690462582721858e+00 4.5375335013231135e+00 8.2574943044041674e-03  4.8665355027119750e+00 4.5851713250391484e+00 -7.5733343804114846e-03  4.8508582785480803e+00 4.6668358905826599e+00 6.9507079345731563e-03  4.8474843309762470e+00 4.7102677708332434e+00 -6.4457754772585720e-03  4.8302341417344818e+00 4.7906354875328718e+00 6.0402239312386651e-03  4.8274769562000932e+00 4.8392324768835913e+00 -5.5995380561311755e-03  4.8095598784659286e+00 4.9115083318838124e+00 4.9533120857153425e-03  4.8050842897559525e+00 4.9627601156670309e+00 -4.0973968004646066e-03  4.7880161663423451e+00 5.0376213406166910e+00 3.2327321175610198e-03  4.7822376470161290e+00 5.0814534007480274e+00 -2.6651611997817676e-03  4.7641411252717560e+00 5.1580964863756043e+00 2.5265519129162523e-03  4.7586893261076160e+00 5.2080321309834323e+00 -2.6161210744845022e-03  4.7393184824912558e+00 5.2697412426288457e+00 2.5464891200766642e-03  4.7329601732569628e+00 5.3305913421869136e+00 -2.0224049244925040e-03  4.7140979210648215e+00 5.3915674086314871e+00 1.0236955277860209e-03  4.7054379073455070e+00 5.4381594027382851e+00 1.7600081162007632e-04  4.6874