<?xml version="1.0"?>
<VTKFile type="UnstructuredGrid"  version="0.1"  >
<UnstructuredGrid>
<Piece  NumberOfPoints="8241" NumberOfCells="16000">
<Points>
<DataArray  type="Float64"  NumberOfComponents="3"  format="ascii">-5 -1 0  -4.95 -1 0  -4.9 -1 0  -4.85 -1 0  -4.8 -1 0  -4.75 -1 0  -4.7 -1 0  -4.65 -1 0  -4.6 -1 0  -4.55 -1 0  -4.5 -1 0  -4.45 -1 0  -4.4 -1 0  -4.35 -1 0  -4.3 -1 0  -4.25 -1 0  -4.2 -1 0  -4.15 -1 0  -4.1 -1 0  -4.05 -1 0  -4 -1 0  -3.95 -1 0  -3.9 -1 0  -3.85 -1 0  -3.8 -1 0  -3.75 -1 0  -3.7 -1 0  -3.65 -1 0  -3.6 -1 0  -3.55 -1 0  -3.5 -1 0  -3.45 -1 0  -3.4 -1 0  -3.35 -1 0  -3.3 -1 0  -3.25 -1 0  -3.2 -1 0  -3.15 -1 0  -3.1 -1 0  -3.05 -1 0  -3 -1 0  -2.95 -1 0  -2.9 -1 0  -2.85 -1 0  -2.8 -1 0  -2.75 -1 0  -2.7 -1 0  -2.65 -1 0  -2.6 -1 0  -2.55 -1 0  -2.5 -1 0  -2.45 -1 0  -2.4 -1 0  -2.35 -1 0  -2.3 -1 0  -2.25 -1 0  -2.2 -1 0  -2.15 -1 0  -2.1 -1 0  -2.05 -1 0  -2 -1 0  -1.95 -1 0  -1.9 -1 0  -1.85 -1 0  -1.8 -1 0  -1.75 -1 0  -1.7 -1 0  -1.65 -1 0  -1.6 -1 0  -1.55 -1 0  -1.5 -1 0  -1.45 -1 0  -1.4 -1 0  -1.35 -1 0  -1.3 -1 0  -1.25 -1 0  -1.2 -1 0  -1.15 -1 0  -1.1 -1 0  -1.05 -1 0  -1 -1 0  -0.9500000000000002 -1 0  -0.9000000000000004 -1 0  -0.8499999999999996 -1 0  -0.7999999999999998 -1 0  -0.75 -1 0  -0.7000000000000002 -1 0  -0.6500000000000004 -1 0  -0.5999999999999996 -1 0  -0.5499999999999998 -1 0  -0.5 -1 0  -0.4500000000000002 -1 0  -0.4000000000000004 -1 0  -0.3499999999999996 -1 0  -0.2999999999999998 -1 0  -0.25 -1 0  -0.2000000000000002 -1 0  -0.1500000000000004 -1 0  -0.09999999999999964 -1 0  -0.04999999999999982 -1 0  0 -1 0  0.04999999999999982 -1 0  0.09999999999999964 -1 0  0.1500000000000004 -1 0  0.2000000000000002 -1 0  0.25 -1 0  0.2999999999999998 -1 0  0.3499999999999996 -1 0  0.4000000000000004 -1 0  0.4500000000000002 -1 0  0.5 -1 0  0.5499999999999998 -1 0  0.5999999999999996 -1 0  0.6500000000000004 -1 0  0.7000000000000002 -1 0  0.75 -1 0  0.7999999999999998 -1 0  0.8499999999999996 -1 0  0.9000000000000004 -1 0  0.9500000000000002 -1 0  1 -1 0  1.05 -1 0  1.1 -1 0  1.15 -1 0  1.2 -1 0  1.25 -1 0  1.3 -1 0  1.35 -1 0  1.4 -1 0  1.45 -1 0  1.5 -1 0  1.55 -1 0  1.6 -1 0  1.65 -1 0  1.7 -1 0  1.75 -1 0  1.8 -1 0  1.85 -1 0  1.9 -1 0  1.95 -1 0  2 -1 0  2.05 -1 0  2.1 -1 0  2.15 -1 0  2.2 -1 0  2.25 -1 0  2.3 -1 0  2.35 -1 0  2.4 -1 0  2.45 -1 0  2.5 -1 0  2.55 -1 0  2.6 -1 0  2.65 -1 0  2.7 -1 0  2.75 -1 0  2.8 -1 0  2.85 -1 0  2.9 -1 0  2.95 -1 0  3 -1 0  3.050000000000001 -1 0  3.1 -1 0  3.15 -1 0  3.199999999999999 -1 0  3.25 -1 0  3.300000000000001 -1 0  3.35 -1 0  3.4 -1 0  3.449999999999999 -1 0  3.5 -1 0  3.550000000000001 -1 0  3.6 -1 0  3.65 -1 0  3.699999999999999 -1 0  3.75 -1 0  3.800000000000001 -1 0  3.85 -1 0  3.9 -1 0  3.949999999999999 -1 0  4 -1 0  4.050000000000001 -1 0  4.1 -1 0  4.15 -1 0  4.199999999999999 -1 0  4.25 -1 0  4.300000000000001 -1 0  4.35 -1 0  4.4 -1 0  4.449999999999999 -1 0  4.5 -1 0  4.550000000000001 -1 0  4.6 -1 0  4.65 -1 0  4.699999999999999 -1 0  4.75 -1 0  4.800000000000001 -1 0  4.85 -1 0  4.9 -1 0  4.949999999999999 -1 0  5 -1 0  -5 -0.95 0  -4.95 -0.95 0  -4.9 -0.95 0  -4.85 -0.95 0  -4.8 -0.95 0  -4.75 -0.95 0  -4.7 -0.95 0  -4.65 -0.95 0  -4.6 -0.95 0  -4.55 -0.95 0  -4.5 -0.95 0  -4.45 -0.95 0  -4.4 -0.95 0  -4.35 -0.95 0  -4.3 -0.95 0  -4.25 -0.95 0  -4.2 -0.95 0  -4.15 -0.95 0  -4.1 -0.95 0  -4.05 -0.95 0  -4 -0.95 0  -3.95 -0.95 0  -3.9 -0.95 0  -3.85 -0.95 0  -3.8 -0.95 0  -3.75 -0.95 0  -3.7 -0.95 0  -3.65 -0.95 0  -3.6 -0.95 0  -3.55 -0.95 0  -3.5 -0.95 0  -3.45 -0.95 0  -3.4 -0.95 0  -3.35 -0.95 0  -3.3 -0.95 0  -3.25 -0.95 0  -3.2 -0.95 0  -3.15 -0.95 0  -3.1 -0.95 0  -3.05 -0.95 0  -3 -0.95 0  -2.95 -0.95 0  -2.9 -0.95 0  -2.85 -0.95 0  -2.8 -0.95 0  -2.75 -0.95 0  -2.7 -0.95 0  -2.65 -0.95 0  -2.6 -0.95 0  -2.55 -0.95 0  -2.5 -0.95 0  -2.45 -0.95 0  -2.4 -0.95 0  -2.35 -0.95 0  -2.3 -0.95 0  -2.25 -0.95 0  -2.2 -0.95 0  -2.15 -0.95 0  -2.1 -0.95 0  -2.05 -0.95 0  -2 -0.95 0  -1.95 -0.95 0  -1.9 -0.95 0  -1.85 -0.95 0  -1.8 -0.95 0  -1.75 -0.95 0  -1.7 -0.95 0  -1.65 -0.95 0  -1.6 -0.95 0  -1.55 -0.95 0  -1.5 -0.95 0  -1.45 -0.95 0  -1.4 -0.95 0  -1.35 -0.95 0  -1.3 -0.95 0  -1.25 -0.95 0  -1.2 -0.95 0  -1.15 -0.95 0  -1.1 -0.95 0  -1.05 -0.95 0  -1 -0.95 0  -0.9500000000000002 -0.95 0  -0.9000000000000004 -0.95 0  -0.8499999999999996 -0.95 0  -0.7999999999999998 -0.95 0  -0.75 -0.95 0  -0.7000000000000002 -0.95 0  -0.6500000000000004 -0.95 0  -0.5999999999999996 -0.95 0  -0.5499999999999998 -0.95 0  -0.5 -0.95 0  -0.4500000000000002 -0.95 0  -0.4000000000000004 -0.95 0  -0.3499999999999996 -0.95 0  -0.2999999999999998 -0.95 0  -0.25 -0.95 0  -0.2000000000000002 -0.95 0  -0.1500000000000004 -0.95 0  -0.09999999999999964 -0.95 0  -0.04999999999999982 -0.95 0  0 -0.95 0  0.04999999999999982 -0.95 0  0.09999999999999964 -0.95 0  0.1500000000000004 -0.95 0  0.2000000000000002 -0.95 0  0.25 -0.95 0  0.2999999999999998 -0.95 0  0.3499999999999996 -0.95 0  0.4000000000000004 -0.95 0  0.4500000000000002 -0.95 0  0.5 -0.95 0  0.5499999999999998 -0.95 0  0.5999999999999996 -0.95 0  0.6500000000000004 -0.95 0  0.7000000000000002 -0.95 0  0.75 -0.95 0  0.7999999999999998 -0.95 0  0.8499999999999996 -0.95 0  0.9000000000000004 -0.95 0  0.9500000000000002 -0.95 0  1 -0.95 0  1.05 -0.95 0  1.1 -0.95 0  1.15 -0.95 0  1.2 -0.95 0  1.25 -0.95 0  1.3 -0.95 0  1.35 -0.95 0  1.4 -0.95 0  1.45 -0.95 0  1.5 -0.95 0  1.55 -0.95 0  1.6 -0.95 0  1.65 -0.95 0  1.7 -0.95 0  1.75 -0.95 0  1.8 -0.95 0  1.85 -0.95 0  1.9 -0.95 0  1.95 -0.95 0  2 -0.95 0  2.05 -0.95 0  2.1 -0.95 0  2.15 -0.95 0  2.2 -0.95 0  2.25 -0.95 0  2.3 -0.95 0  2.35 -0.95 0  2.4 -0.95 0  2.45 -0.95 0  2.5 -0.95 0  2.55 -0.95 0  2.6 -0.95 0  2.65 -0.95 0  2.7 -0.95 0  2.75 -0.95 0  2.8 -0.95 0  2.85 -0.95 0  2.9 -0.95 0  2.95 -0.95 0  3 -0.95 0  3.050000000000001 -0.95 0  3.1 -0.95 0  3.15 -0.95 0  3.199999999999999 -0.95 0  3.25 -0.95 0  3.300000000000001 -0.95 0  3.35 -0.95 0  3.4 -0.95 0  3.449999999999999 -0.95 0  3.5 -0.95 0  3.550000000000001 -0.95 0  3.6 -0.95 0  3.65 -0.95 0  3.699999999999999 -0.95 0  3.75 -0.95 0  3.800000000000001 -0.95 0  3.85 -0.95 0  3.9 -0.95 0  3.949999999999999 -0.95 0  4 -0.95 0  4.050000000000001 -0.95 0  4.1 -0.95 0  4.15 -0.95 0  4.199999999999999 -0.95 0  4.25 -0.95 0  4.300000000000001 -0.95 0  4.35 -0.95 0  4.4 -0.95 0  4.449999999999999 -0.95 0  4.5 -0.95 0  4.550000000000001 -0.95 0  4.6 -0.95 0  4.65 -0.95 0  4.699999999999999 -0.95 0  4.75 -0.95 0  4.800000000000001 -0.95 0  4.85 -0.95 0  4.9 -0.95 0  4.949999999999999 -0.95 0  5 -0.95 0  -5 -0.9 0  -4.95 -0.9 0  -4.9 -0.9 0  -4.85 -0.9 0  -4.8 -0.9 0  -4.75 -0.9 0  -4.7 -0.9 0  -4.65 -0.9 0  -4.6 -0.9 0  -4.55 -0.9 0  -4.5 -0.9 0  -4.45 -0.9 0  -4.4 -0.9 0  -4.35 -0.9 0  -4.3 -0.9 0  -4.25 -0.9 0  -4.2 -0.9 0  -4.15 -0.9 0  -4.1 -0.9 0  -4.05 -0.9 0  -4 -0.9 0  -3.95 -0.9 0  -3.9 -0.9 0  -3.85 -0.9 0  -3.8 -0.9 0  -3.75 -0.9 0  -3.7 -0.9 0  -3.65 -0.9 0  -3.6 -0.9 0  -3.55 -0.9 0  -3.5 -0.9 0  -3.45 -0.9 0  -3.4 -0.9 0  -3.35 -0.9 0  -3.3 -0.9 0  -3.25 -0.9 0  -3.2 -0.9 0  -3.15 -0.9 0  -3.1 -0.9 0  -3.05 -0.9 0  -3 -0.9 0  -2.95 -0.9 0  -2.9 -0.9 0  -2.85 -0.9 0  -2.8 -0.9 0  -2.75 -0.9 0  -2.7 -0.9 0  -2.65 -0.9 0  -2.6 -0.9 0  -2.55 -0.9 0  -2.5 -0.9 0  -2.45 -0.9 0  -2.4 -0.9 0  -2.35 -0.9 0  -2.3 -0.9 0  -2.25 -0.9 0  -2.2 -0.9 0  -2.15 -0.9 0  -2.1 -0.9 0  -2.05 -0.9 0  -2 -0.9 0  -1.95 -0.9 0  -1.9 -0.9 0  -1.85 -0.9 0  -1.8 -0.9 0  -1.75 -0.9 0  -1.7 -0.9 0  -1.65 -0.9 0  -1.6 -0.9 0  -1.55 -0.9 0  -1.5 -0.9 0  -1.45 -0.9 0  -1.4 -0.9 0  -1.35 -0.9 0  -1.3 -0.9 0  -1.25 -0.9 0  -1.2 -0.9 0  -1.15 -0.9 0  -1.1 -0.9 0  -1.05 -0.9 0  -1 -0.9 0  -0.9500000000000002 -0.9 0  -0.9000000000000004 -0.9 0  -0.8499999999999996 -0.9 0  -0.7999999999999998 -0.9 0  -0.75 -0.9 0  -0.7000000000000002 -0.9 0  -0.6500000000000004 -0.9 0  -0.5999999999999996 -0.9 0  -0.5499999999999998 -0.9 0  -0.5 -0.9 0  -0.4500000000000002 -0.9 0  -0.4000000000000004 -0.9 0  -0.3499999999999996 -0.9 0  -0.2999999999999998 -0.9 0  -0.25 -0.9 0  -0.2000000000000002 -0.9 0  -0.1500000000000004 -0.9 0  -0.09999999999999964 -0.9 0  -0.04999999999999982 -0.9 0  0 -0.9 0  0.04999999999999982 -0.9 0  0.09999999999999964 -0.9 0  0.1500000000000004 -0.9 0  0.2000000000000002 -0.9 0  0.25 -0.9 0  0.2999999999999998 -0.9 0  0.3499999999999996 -0.9 0  0.4000000000000004 -0.9 0  0.4500000000000002 -0.9 0  0.5 -0.9 0  0.5499999999999998 -0.9 0  0.5999999999999996 -0.9 0  0.6500000000000004 -0.9 0  0.7000000000000002 -0.9 0  0.75 -0.9 0  0.7999999999999998 -0.9 0  0.8499999999999996 -0.9 0  0.9000000000000004 -0.9 0  0.9500000000000002 -0.9 0  1 -0.9 0  1.05 -0.9 0  1.1 -0.9 0  1.15 -0.9 0  1.2 -0.9 0  1.25 -0.9 0  1.3 -0.9 0  1.35 -0.9 0  1.4 -0.9 0  1.45 -0.9 0  1.5 -0.9 0  1.55 -0.9 0  1.6 -0.9 0  1.65 -0.9 0  1.7 -0.9 0  1.75 -0.9 0  1.8 -0.9 0  1.85 -0.9 0  1.9 -0.9 0  1.95 -0.9 0  2 -0.9 0  2.05 -0.9 0  2.1 -0.9 0  2.15 -0.9 0  2.2 -0.9 0  2.25 -0.9 0  2.3 -0.9 0  2.35 -0.9 0  2.4 -0.9 0  2.45 -0.9 0  2.5 -0.9 0  2.55 -0.9 0  2.6 -0.9 0  2.65 -0.9 0  2.7 -0.9 0  2.75 -0.9 0  2.8 -0.9 0  2.85 -0.9 0  2.9 -0.9 0  2.95 -0.9 0  3 -0.9 0  3.050000000000001 -0.9 0  3.1 -0.9 0  3.15 -0.9 0  3.199999999999999 -0.9 0  3.25 -0.9 0  3.300000000000001 -0.9 0  3.35 -0.9 0  3.4 -0.9 0  3.449999999999999 -0.9 0  3.5 -0.9 0  3.550000000000001 -0.9 0  3.6 -0.9 0  3.65 -0.9 0  3.699999999999999 -0.9 0  3.75 -0.9 0  3.800000000000001 -0.9 0  3.85 -0.9 0  3.9 -0.9 0  3.949999999999999 -0.9 0  4 -0.9 0  4.050000000000001 -0.9 0  4.1 -0.9 0  4.15 -0.9 0  4.199999999999999 -0.9 0  4.25 -0.9 0  4.300000000000001 -0.9 0  4.35 -0.9 0  4.4 -0.9 0  4.449999999999999 -0.9 0  4.5 -0.9 0  4.550000000000001 -0.9 0  4.6 -0.9 0  4.65 -0.9 0  4.699999999999999 -0.9 0  4.75 -0.9 0  4.800000000000001 -0.9 0  4.85 -0.9 0  4.9 -0.9 0  4.949999999999999 -0.9 0  5 -0.9 0  -5 -0.85 0  -4.95 -0.85 0  -4.9 -0.85 0  -4.85 -0.85 0  -4.8 -0.85 0  -4.75 -0.85 0  -4.7 -0.85 0  -4.65 -0.85 0  -4.6 -0.85 0  -4.55 -0.85 0  -4.5 -0.85 0  -
[...]
<PointData  Vectors="f_15"> 
<DataArray  type="Float64"  Name="f_15"  NumberOfComponents="3" format="ascii">2.9264138354621276e+00 0.0000000000000000e+00 0.0000000000000000e+00  2.9257222858172165e+00 2.2617691450389873e-02 0.0000000000000000e+00  2.9236326166423456e+00 4.5316394682207627e-02 0.0000000000000000e+00  2.9202027230098873e+00 6.8101021770763978e-02 0.0000000000000000e+00  2.9154467926224141e+00 9.1079015784610959e-02 0.0000000000000000e+00  2.9094344949336985e+00 1.1427992028492887e-01 0.0000000000000000e+00  2.9022374842238312e+00 1.3776092556904115e-01 0.0000000000000000e+00  2.8939335134703970e+00 1.6159187788181739e-01 0.0000000000000000e+00  2.8845908375416962e+00 1.8579401000701384e-01 0.0000000000000000e+00  2.8743287108818061e+00 2.1044175577034466e-01 0.0000000000000000e+00  2.8632030152042423e+00 2.3553428116846339e-01 0.0000000000000000e+00  2.8513160712336538e+00 2.6115293106714232e-01 0.0000000000000000e+00  2.8387482868932756e+00 2.8724853887637819e-01 0.0000000000000000e+00  2.8255776792316771e+00 3.1391834808263319e-01 0.0000000000000000e+00  2.8118581173196908e+00 3.4108130421940658e-01 0.0000000000000000e+00  2.7976860396001224e+00 3.6881679236151765e-01 0.0000000000000000e+00  2.7830854287496125e+00 3.9703400737834255e-01 0.0000000000000000e+00  2.7681266631425423e+00 4.2581246544520407e-01 0.0000000000000000e+00  2.7528509990809673e+00 4.5502057418610009e-01 0.0000000000000000e+00  2.7373010466296490e+00 4.8476001829165066e-01 0.0000000000000000e+00  2.7214957084047180e+00 5.1488493306694705e-01 0.0000000000000000e+00  2.7054962519048922e+00 5.4547929812620621e-01 0.0000000000000000e+00  2.6892990669159684e+00 5.7640982585349176e-01 0.0000000000000000e+00  2.6729457825090006e+00 6.0776703248445918e-01 0.0000000000000000e+00  2.6564538325829172e+00 6.3938916403586166e-01 0.0000000000000000e+00  2.6398463272690451e+00 6.7139537714783581e-01 0.0000000000000000e+00  2.6231236132279143e+00 7.0362266286264918e-01 0.0000000000000000e+00  2.6063305714562897e+00 7.3617356663933309e-01 0.0000000000000000e+00  2.5894515559016300e+00 7.6890400402651049e-01 0.0000000000000000e+00  2.5725184170007172e+00 8.0192736372560125e-01 0.0000000000000000e+00  2.5555325137033025e+00 8.3507252564826329e-01 0.0000000000000000e+00  2.5385176189438527e+00 8.6848250540100114e-01 0.0000000000000000e+00  2.5214581982879833e+00 9.0198380112010879e-01 0.0000000000000000e+00  2.5043984746813255e+00 9.3571029399130368e-01 0.0000000000000000e+00  2.4873118307724860e+00 9.6949202494842190e-01 0.0000000000000000e+00  2.4702332765164190e+00 1.0034947563542822e+00 0.0000000000000000e+00  2.4531475396451645e+00 1.0374935674737158e+00 0.0000000000000000e+00  2.4360872611797055e+00 1.0717132002015755e+00 0.0000000000000000e+00  2.4190241746446266e+00 1.1058967499012582e+00 0.0000000000000000e+00  2.4020031696743582e+00 1.1402760702199619e+00 0.0000000000000000e+00  2.3849943925448418e+00 1.1746043447150543e+00 0.0000000000000000e+00  2.3680302094106227e+00 1.2090953950692926e+00 0.0000000000000000e+00  2.3510930585055849e+00 1.2435563364085713e+00 0.0000000000000000e+00  2.3342125017693296e+00 1.2780690160933168e+00 0.0000000000000000e+00  2.3173632999438327e+00 1.3126805727422710e+00 0.0000000000000000e+00  2.3005794033415632e+00 1.3471599113092037e+00 0.0000000000000000e+00  2.2838438814254824e+00 1.3818463329961790e+00 0.0000000000000000e+00  2.2671721319956650e+00 1.4163368896699104e+00 0.0000000000000000e+00  2.2505599037140152e+00 1.4509989554918383e+00 0.0000000000000000e+00  2.2340277392602048e+00 1.4854699168459218e+00 0.0000000000000000e+00  2.2175541936828775e+00 1.5201103665549327e+00 0.0000000000000000e+00  2.2011695208319906e+00 1.5545006668967500e+00 0.0000000000000000e+00  2.1848659239288262e+00 1.5890456732212390e+00 0.0000000000000000e+00  2.1686444117195278e+00 1.6233741014716110e+00 0.0000000000000000e+00  2.1525227444372126e+00 1.6577582789545107e+00 0.0000000000000000e+00  2.1364973353587158e+00 1.6919311330141169e+00 0.0000000000000000e+00  2.1205792061574988e+00 1.7261564708867829e+00 0.0000000000000000e+00  2.1047710383287050e+00 1.7601019354580807e+00 0.0000000000000000e+00  2.0890922889095505e+00 1.7940643440377064e+00 0.0000000000000000e+00  2.0735356209769678e+00 1.8277394308325727e+00 0.0000000000000000e+00  2.0581353779124876e+00 1.8613237443219042e+00 0.0000000000000000e+00  2.0428752048342154e+00 1.8946284457570493e+00 0.0000000000000000e+00  2.0278088759571484e+00 1.9277228610503647e+00 0.0000000000000000e+00  2.0129193837249875e+00 1.9604493016386924e+00 0.0000000000000000e+00  1.9982538632135285e+00 1.9929121111065273e+00 0.0000000000000000e+00  1.9838349193425220e+00 2.0248494057266817e+00 0.0000000000000000e+00  1.9697100171556299e+00 2.0563204033762781e+00 0.0000000000000000e+00  1.9558910842184387e+00 2.0871616808999760e+00 0.0000000000000000e+00  1.9425021985376090e+00 2.1171995764057381e+00 0.0000000000000000e+00  1.9295561489475725e+00 2.1462996620562467e+00 0.0000000000000000e+00  1.9171799089280668e+00 2.1742458881999203e+00 0.0000000000000000e+00  1.9055059039874198e+00 2.2006582930621152e+00 0.0000000000000000e+00  1.8946699020280786e+00 2.2252710109818175e+00 0.0000000000000000e+00  1.8848369627785699e+00 2.2476517591413838e+00 0.0000000000000000e+00  1.8762474690340796e+00 2.2672557435600034e+00 0.0000000000000000e+00  1.8690281161287094e+00 2.2837661725403566e+00 0.0000000000000000e+00  1.8633146918717982e+00 2.2968318538409642e+00 0.0000000000000000e+00  1.8591220371231205e+00 2.3064646271577258e+00 0.0000000000000000e+00  1.8562729268352818e+00 2.3129667254655901e+00 0.0000000000000000e+00  1.8544823136774429e+00 2.3171102453415759e+00 0.0000000000000000e+00  1.8534138376779381e+00 2.3195101183888926e+00 0.0000000000000000e+00  1.8527563799196713e+00 2.3210710447672924e+00 0.0000000000000000e+00  1.8522894994902697e+00 2.3220749608421136e+00 0.0000000000000000e+00  1.8519360490173298e+00 2.3229430053659432e+00 0.0000000000000000e+00  1.8516176585705211e+00 2.3236019467270030e+00 0.0000000000000000e+00  1.8513308926049028e+00 2.3243139076499393e+00 0.0000000000000000e+00  1.8510488428542708e+00 2.3248872168221992e+00 0.0000000000000000e+00  1.8508113186672543e+00 2.3254899392363941e+00 0.0000000000000000e+00  1.8505599983365029e+00 2.3259958473509759e+00 0.0000000000000000e+00  1.8503575858484365e+00 2.3265063564294186e+00 0.0000000000000000e+00  1.8501534062156599e+00 2.3269160360142167e+00 0.0000000000000000e+00  1.8499789888795921e+00 2.3273518240665529e+00 0.0000000000000000e+00  1.8497904522516861e+00 2.3277284471011730e+00 0.0000000000000000e+00  1.8496557641294629e+00 2.3280700822434670e+00 0.0000000000000000e+00  1.8494948665594111e+00 2.3283880925619886e+00 0.0000000000000000e+00  1.8493784233431869e+00 2.3286737667966722e+00 0.0000000000000000e+00  1.8492577774269874e+00 2.3289081695164655e+00 0.0000000000000000e+00  1.8491579539391414e+00 2.3291534920107062e+00 0.0000000000000000e+00  1.8490495175800254e+00 2.3293565064760564e+00 0.0000000000000000e+00  1.8489788488645928e+00 2.3295357810892399e+00 0.0000000000000000e+00  1.8488874558421950e+00 2.3297013679131018e+00 0.0000000000000000e+00  1.8488223576345264e+00 2.3298603060855503e+00 0.0000000000000000e+00  1.8487596159927262e+00 2.3299642160471605e+00 0.0000000000000000e+00  1.8487050213994514e+00 2.3301034474724016e+00 0.0000000000000000e+00  1.8486489508866444e+00 2.3301868859202872e+00 0.0000000000000000e+00  1.8486040181823105e+00 2.3303021698934097e+00 0.0000000000000000e+00  1.8485600084123373e+00 2.3303578059524570e+00 0.0000000000000000e+00  1.8485249989486572e+00 2.3304531227075134e+00 0.0000000000000000e+00  1.8484896780660840e+00 2.3304814575900079e+00 0.0000000000000000e+00  1.8484583813660158e+00 2.3305790930474584e+00 0.0000000000000000e+00  1.8484253197463467e+00 2.3305954892171972e+00 0.0000000000000000e+00  1.8483994630273044e+00 2.3306709021568959e+00 0.0000000000000000e+00  1.8483813339565172e+00 2.3306617803273348e+00 0.0000000000000000e+00  1.8483582942639676e+00 2.3307324281875981e+00 0.0000000000000000e+00  1.8483246197170657e+00 2.3307512324927058e+00 0.0000000000000000e+00  1.8483189623266825e+00 2.3307870222268106e+00 0.0000000000000000e+00  1.8483004965779530e+00 2.3307724885102168e+00 0.0000000000000000e+00  1.8482771900654542e+00 2.3308335223688821e+00 0.0000000000000000e+00  1.8482623579737993e+00 2.3308146419263327e+00 0.0000000000000000e+00  1.8482592511494933e+00 2.3308443180482148e+00 0.0000000000000000e+00  1.8482223714948269e+00 2.3308539343157570e+00 0.0000000000000000e+00  1.8482397610627610e+00 2.3308553986906237e+00 0.0000000000000000e+00  1.8482016646115458e+00 2.3308564168081305e+00 0.0000000000000000e+00  1.8482046437770177e+00 2.3308821726883040e+00 0.0000000000000000e+00  1.8481784874490566e+00 2.3308512659474911e+00 0.0000000000000000e+00  1.8482033443486612e+00 2.3308418398872397e+00 0.0000000000000000e+00  1.8481358104946171e+00 2.3308999418664551e+00 0.0000000000000000e+00  1.8481846212459361e+00 2.3308327715401305e+00 0.0000000000000000e+00  1.8481326804282199e+00 2.3308708699662026e+00 0.0000000000000000e+00  1.8481523140017535e+00 2.3308377509096663e+00 0.0000000000000000e+00  1.8481148718802423e+00 2.3308516979514264e+00 0.0000000000000000e+00  1.8481388605817888e+00 2.3307829017048101e+00 0.0000000000000000e+00  1.8480983321352757e+00 2.3308221767650896e+00 0.0000000000000000e+00  1.8481146369563428e+00 2.3307593966070383e+00 0.0000000000000000e+00  1.8480900318110762e+00 2.3307829417307513e+00 0.0000000000000000e+00  1.8480899994902218e+00 2.3307457054145271e+00 0.0000000000000000e+00  1.8480811222632636e+00 2.3307383148256244e+00 0.0000000000000000e+00  1.8480674698604596e+00 2.3306952720044514e+00 0.0000000000000000e+00  1.8480668143579171e+00 2.3306404981032536e+00 0.0000000000000000e+00  1.8480542440858256e+00 2.3305524198652354e+00 0.0000000000000000e+00  1.8480463163093057e+00 2.3304624273280483e+00 0.0000000000000000e+00  1.8480380604120035e+00 2.3303178077767535e+00 0.0000000000000000e+00  1.8480362850532381e+00 2.3301638773682698e+00 0.0000000000000000e+00  1.8480147385649883e+00 2.3299929490326936e+00 0.0000000000000000e+00  1.8480208142117696e+00 2.3297604906700236e+00 0.0000000000000000e+00  1.8480048875913948e+00 2.3295129920577984e+00 0.0000000000000000e+00  1.8479970169789537e+00 2.3292462625013242e+00 0.0000000000000000e+00  1.8479900387682007e+00 2.3289213234570054e+00 0.0000000000000000e+00  1.8479833838244435e+00 2.3286188947947100e+00 0.0000000000000000e+00  1.8479703533819709e+00 2.3282825899451467e+00 0.0000000000000000e+00  1.8479680871088882e+00 2.3279902115372821e+00 0.0000000000000000e+00  1.8479496527624697e+00 2.3276941986900885e+00 0.0000000000000000e+00  1.8479574098304716e+00 2.3274296891042687e+00 0.0000000000000000e+00  1.8479290207040224e+00 2.3272204030327623e+00 0.0000000000000000e+00  1.8479365407897514e+00 2.3270250020905885e+00 0.0000000000000000e+00  1.8479185791014543e+00 2.3268480489067729e+00 0.0000000000000000e+00  1.8479194204771754e+00 2.3267375106683854e+00 0.0000000000000000e+00  1.8478924555978657e+00 2.3266259392753148e+00 0.0000000000000000e+00  1.8479115646866762e+00 2.3265222342895586e+00 0.0000000000000000e+00  1.8478760628360495e+00 2.3264682518812667e+00 0.0000000000000000e+00  1.8478869358364236e+00 2.3264091599291552e+00 0.0000000000000000e+00  1.8478611043503221e+00 2.3263583876019696e+00 0.0000000000000000e+00  1.8478738548026044e+00 2.3263014642568565e+00 0.0000000000000000e+00  1.8478329403299663e+00 2.3263014550242396e+00 0.0000000000000000e+00  1.8478490408885488e+00 2.3262434414810786e+00 0.0000000000000000e+00  1.8478279972951193e+00 2.3262126387258326e+00 0.0000000000000000e+00  1.8478145045604657e+00 2.3262227830212305e+00 0.0000000000000000e+00  1.8478062942626949e+00 2.3261851085725191e+00 0.0000000000000000e+00  1.8478075928399755e+00 2.3261465999224065e+00 0.0000000000000000e+00  1.8477742497029768e+00 2.3261679669554405e+00 0.0000000000000000e+00  1.8477742014261218e+00 2.3261274257473072e+00 0.0000000000000000e+00  1.8477728786911576e+00 2.3260582348126033e+00 0.0000000000000000e+00  1.8477266740789176e+00 2.3261055453737440e+00 0.0000000000000000e+00  1.8477431097523465e+00 2.3259975626621960e+00 0.0000000000000000e+00  1.8477175651679989e+00 2.3259784506078880e+00 0.0000000000000000e+00  1.8476925951129000e+00 2.3259535679955845e+00 0.0000000000000000e+00  1.8476902090232066e+00 2.3258879958123044e+00 0.0000000000000000e+00  1.8476805325414702e+00 2.3258280766879822e+00 0.0000000000000000e+00  1.8476378923056900e+00 2.3258296016232145e+00 0.0000000000000000e+00  1.8476608684950933e+00 2.3257299618674252e+00 0.0000000000000000e+00  1.8476137399222685e+00 2.3257041512928396e+00 0.0000000000000000e+00  1.8476108605692458e+00 2.3256714824380729e+00 0.0000000000000000e+00  1.8475941623335306e+00 2.3255937033114833e+00 0.0000000000000000e+00  1.8475696954663146e+00 2.3255693632990644e+00 0.0000000000000000e+00  1.8475693895887657e+00 2.3255755019426001e+00 0.0000000000000000e+00  1.8474015438487124e+00 2.3251826224438537e+00 0.0000000000000000e+00  1.8474826873889665e+00 2.3253897859954140e+00 0.0000000000000000e+00  1.8468503701443548e+00 2.3239443143312668e+00 0.0000000000000000e+00  1.8465331747219982e+00 2.3234424492902122e+00 0.0000000000000000e+00  1.8445875050527758e+00 2.3191863181507180e+00 0.0000000000000000e+00  1.8388066164661738e+00 2.3054871055799233e+00 0.0000000000000000e+00  1.8262807215395860e+00 2.2776778411094218e+00 0.0000000000000000e+00  1.7823146462887094e+00 2.1798308616834703e+00 0.0000000000000000e+00  1.7178925214047027e+00 2.0200333404540207e+00 0.0000000000000000e+00  1.5213954843694497e+00 1.5155363549329426e+00 0.0000000000000000e+00  1.2089598214858972e+00 6.4654786889738269e-01 0.0000000000000000e+00  1.0438006932909276e+00 1.4081181125922770e-01 0.0000000000000000e+00  1.0062925105333871e+00 2.0522167647274946e-02 0.0000000000000000e+00  1.0007661395969252e+00 2.7894732135543376e-03 0.0000000000000000e+00  1.0001140665518919e+00 3.5851564370596760e-04 0.0000000000000000e+00  1.0000475438343392e+00 0.0000000000000000e+00 0.0000000000000000e+00  2.9264188436763057e+00 0.0000000000000000e+00 1.0920529127363383e-05  2.9257161382315946e+00 2.2624336594549752e-02 -1.5435961163412181e-06  2.9236398362067391e+00 4.5301528613963811e-02 -2.7765568130824872e-06  2.9202015222752635e+00 6.8100989791240713e-02 9.7817147041020436e-07  2.9154425395465458e+00 9.1077002290041287e-02 1.0383960513216837e-07  2.9094363288085145e+00 1.1427358558987749e-01 -7.3303882461866114e-07  2.9022382963113214e+00 1.3776551454113767e-01 6.6880365208079145e-07  2.8939239782296844e+00 1.6158897038242909e-01 -6.8441429440495908e-07  2.8845959004280126e+00 1.8580014238605308e-01 3.0726314229649242e-07  2.8743239725188721e+00 2.1043907835441444e-01 -9.0997955684960065e-07  2.8631976223026521e+00 2.3554936876684238e-01 6.5044074765667696e-07  2.8513161698016329e+00 2.6114533392625278e-01 -1.4611233565742135e-06  2.8387478927915928e+00 2.8726716116731260e-01 8.5423288956349533e-07  2.8255676075107701e+00 3.1391506416973225e-01 -1.5114695153160844e-06  2.8118631951304032e+00 3.4109624808102812e-01 8.2300148269099569e-07  2.7976805632088371e+00 3.6881177451292646e-01 -1.5058186364514253e-06  2.7830807023364841e+00 3.9705555717512492e-01 1.0151568813951959e-06  2.7681265847663448e+00 4.2579834952223244e-01 -1.6690904570090904e-06  2.7528505295559769e+00 4.5504129498352663e-01 1.3847668284753339e-06  2.7372914482016308e+00 4.8474964713315233e-01 -1.8279962420454910e-06  2.7215001233522500e+00 5.1489711118327353e-01 1.5463492840342574e-06  2.7054908948423471e+00 5.4546525555746750e-01 -1.6190678878399769e-06  2.6892941459984718e+00 5.7642773226718091e-01 1.5397674186722014e-06  2.6729448073516160e+00 6.0774271487935705e-01 -1.7908225312850259e-06  2.6564530658112155e+00 6.3940488744958934e-01 2.3333001831833247e-06  2.6398365124070002e+00 6.7137598445261404e-01 -2.5851316401754858e-06  2.6231264944488806e+00 7.0363074245945179e-01 3.0254460603499280e-06  2.6063245823820060e+00 7.3615051142594379e-01 -2.8060812813121336e-06  2.5894465898573022e+00 7.6891981521246644e-01 3.4977395394660019e-06  2.5725145319885825e+00 8.0189539500590268e-01 -3.7125722978164360e-06  2.5555315607532467e+00 8.3508767890491287e-01 5.0873916385689005e-06  2.5385060617306983e+00 8.6845528649151538e-01 -5.2400371551939485e-06  2.5214587276311629e+00 9.0199471959843991e-01 6.4823531620199249e-06  2.5043898322181111e+00 9.3567650556540172e-01 -6.4671529940244929e-06  2.4873060927780481e+00 9.6951521459863277e-01 8.2217585482530085e-06  2.4702246242099357e+00 1.0034468040114082e+00 -8.8070868967854103e-06  2.4531445449257991e+00 1.0375204127136313e+00 1.1483986721663881e-05  2.4360733013851514e+00 1.0716656572372716e+00 -1.2929971229947387e-05  2.4190203010469906e+00 1.1059190993982582e+00 1.6022170786319094e-05  2.4019923086770101e+00 1.1402240545222011e+00 -1.6000571492960698e-05  2.3849857670613632e+00 1.1746255902481044e+00 1.5070601025639002e-05  2.3680186204270726e+00 1.2090537417576979e+00 -9.1561294505799992e-06  2.3510879178051076e+00 1.2435350747998200e+00 1.7583858977211962e-06  2.3341969323014045e+00 1.2780859645375744e+00 1.0238530416521212e-05  2.3173577282989495e+00 1.3125935464844940e+00 -2.2879266432572387e-05  2.3005678468868513e+00 1.3472116237811311e+00 3.6738583045497725e-05  2.2838357072705802e+00 1.3817515714564845e+00 -4.4646155751926600e-05  2.2671588205618112e+00 1.4163752083069294e+00 4.5243144253573761e-05  2.2505578967865278e+00 1.4509025720638697e+00 -3.5317114700390442e-05  2.2340119848187303e+00 1.4855232566058727e+00 2.0607632115389767e-05  2.2175480712667728e+00 1.5200053270008624e+00 -4.6594804636219661e-06  2.2011642425203819e+00 1.5545266304357022e+00 -6.5722086004202073e-06  2.1848525449147544e+00 1.5889988635331069e+00 1.3172644608678296e-05  2.1686398669985145e+00 1.6233585348555497e+00 -1.4751581638236601e-05  2.1525146078980932e+00 1.6577112295218623e+00 1.3706358655465646e-05  2.1364906820689655e+00 1.6919500579015490e+00 -1.2665836567440173e-05  2.1205698709236764e+00 1.7260930378779398e+00 1.3667174355809133e-05  2.1047698428017334e+00 1.7601094811522104e+00 -1.7232993981498130e-05  2.0890819930300308e+00 1.7940296294588245e+00 1.8648865420086218e-05  2.0735370651289133e+00 1.8277239833113936e+00 -1.7974599402494051e-05  2.0581238488410412e+00 1.8613123418654360e+00 1.5249519021575986e-05  2.0428796412642884e+00 1.8946085319251507e+00 -1.5037194242755144e-05  2.0278004448184181e+00 1.9276957986148751e+00 1.4044915805866466e-05  2.0129148658839866e+00 1.9604687852140097e+00 -1.3654308764890176e-05  1.9982509274089151e+00 1.9928859815761977e+00 1.1670853404130717e-05  1.9838361780654306e+00 2.0248360451539491e+00 -1.1931013347560622e-05  1.9696900499052870e+00 2.0563467700263085e+00 8.8375400905165843e-06  1.9558998115922945e+00 2.0871413084576256e+00 -6.3769342991152074e-06  1.9424877542857222e+00 2.1172164020213384e+00 3.1021576404996768e-06  1.9295359706604382e+00 2.1463412611285513e+00 -4.0616347627173140e-06  1.9171740409000191e+00 2.1742457176351535e+00 9.6764432309485415e-07  1.9054891273730608e+00 2.2006935921783355e+00 -4.3463791150981222e-07  1.8946388568371419e+00 2.2253364481637843e+00 -2.4463203459060705e-06  1.8848308192190670e+00 2.2476614890062110e+00 3.8896529545066930e-06  1.8762254826308284e+00 2.2673041387170847e+00 -5.3521071536059089e-06  1.8690022683975591e+00 2.2838186770631426e+00 1.2066650530090207e-05  1.8633179985008934e+00 2.2968476243284073e+00 -6.4725210635420241e-06  1.8591247307030978e+00 2.3064614179403171e+00 1.8414988286778223e-05  1.8562897386399340e+00 2.3129654349172366e+00 -1.4039482745095447e-05  1.8545127208660057e+00 2.3170428485451651e+00 1.8125472535793914e-05  1.8534490605178431e+00 2.3194774315902564e+00 -2.3291151962364602e-05  1.8527679324253905e+00 2.3210374703822381e+00 1.7629804965562312e-05  1.8523128099610098e+00 2.3220638819299446