<?xml version="1.0"?>
<VTKFile type="UnstructuredGrid"  version="0.1"  >
<UnstructuredGrid>
<Piece  NumberOfPoints="8241" NumberOfCells="16000">
<Points>
<DataArray  type="Float64"  NumberOfComponents="3"  format="ascii">-5 -1 0  -4.95 -1 0  -4.9 -1 0  -4.85 -1 0  -4.8 -1 0  -4.75 -1 0  -4.7 -1 0  -4.65 -1 0  -4.6 -1 0  -4.55 -1 0  -4.5 -1 0  -4.45 -1 0  -4.4 -1 0  -4.35 -1 0  -4.3 -1 0  -4.25 -1 0  -4.2 -1 0  -4.15 -1 0  -4.1 -1 0  -4.05 -1 0  -4 -1 0  -3.95 -1 0  -3.9 -1 0  -3.85 -1 0  -3.8 -1 0  -3.75 -1 0  -3.7 -1 0  -3.65 -1 0  -3.6 -1 0  -3.55 -1 0  -3.5 -1 0  -3.45 -1 0  -3.4 -1 0  -3.35 -1 0  -3.3 -1 0  -3.25 -1 0  -3.2 -1 0  -3.15 -1 0  -3.1 -1 0  -3.05 -1 0  -3 -1 0  -2.95 -1 0  -2.9 -1 0  -2.85 -1 0  -2.8 -1 0  -2.75 -1 0  -2.7 -1 0  -2.65 -1 0  -2.6 -1 0  -2.55 -1 0  -2.5 -1 0  -2.45 -1 0  -2.4 -1 0  -2.35 -1 0  -2.3 -1 0  -2.25 -1 0  -2.2 -1 0  -2.15 -1 0  -2.1 -1 0  -2.05 -1 0  -2 -1 0  -1.95 -1 0  -1.9 -1 0  -1.85 -1 0  -1.8 -1 0  -1.75 -1 0  -1.7 -1 0  -1.65 -1 0  -1.6 -1 0  -1.55 -1 0  -1.5 -1 0  -1.45 -1 0  -1.4 -1 0  -1.35 -1 0  -1.3 -1 0  -1.25 -1 0  -1.2 -1 0  -1.15 -1 0  -1.1 -1 0  -1.05 -1 0  -1 -1 0  -0.9500000000000002 -1 0  -0.9000000000000004 -1 0  -0.8499999999999996 -1 0  -0.7999999999999998 -1 0  -0.75 -1 0  -0.7000000000000002 -1 0  -0.6500000000000004 -1 0  -0.5999999999999996 -1 0  -0.5499999999999998 -1 0  -0.5 -1 0  -0.4500000000000002 -1 0  -0.4000000000000004 -1 0  -0.3499999999999996 -1 0  -0.2999999999999998 -1 0  -0.25 -1 0  -0.2000000000000002 -1 0  -0.1500000000000004 -1 0  -0.09999999999999964 -1 0  -0.04999999999999982 -1 0  0 -1 0  0.04999999999999982 -1 0  0.09999999999999964 -1 0  0.1500000000000004 -1 0  0.2000000000000002 -1 0  0.25 -1 0  0.2999999999999998 -1 0  0.3499999999999996 -1 0  0.4000000000000004 -1 0  0.4500000000000002 -1 0  0.5 -1 0  0.5499999999999998 -1 0  0.5999999999999996 -1 0  0.6500000000000004 -1 0  0.7000000000000002 -1 0  0.75 -1 0  0.7999999999999998 -1 0  0.8499999999999996 -1 0  0.9000000000000004 -1 0  0.9500000000000002 -1 0  1 -1 0  1.05 -1 0  1.1 -1 0  1.15 -1 0  1.2 -1 0  1.25 -1 0  1.3 -1 0  1.35 -1 0  1.4 -1 0  1.45 -1 0  1.5 -1 0  1.55 -1 0  1.6 -1 0  1.65 -1 0  1.7 -1 0  1.75 -1 0  1.8 -1 0  1.85 -1 0  1.9 -1 0  1.95 -1 0  2 -1 0  2.05 -1 0  2.1 -1 0  2.15 -1 0  2.2 -1 0  2.25 -1 0  2.3 -1 0  2.35 -1 0  2.4 -1 0  2.45 -1 0  2.5 -1 0  2.55 -1 0  2.6 -1 0  2.65 -1 0  2.7 -1 0  2.75 -1 0  2.8 -1 0  2.85 -1 0  2.9 -1 0  2.95 -1 0  3 -1 0  3.050000000000001 -1 0  3.1 -1 0  3.15 -1 0  3.199999999999999 -1 0  3.25 -1 0  3.300000000000001 -1 0  3.35 -1 0  3.4 -1 0  3.449999999999999 -1 0  3.5 -1 0  3.550000000000001 -1 0  3.6 -1 0  3.65 -1 0  3.699999999999999 -1 0  3.75 -1 0  3.800000000000001 -1 0  3.85 -1 0  3.9 -1 0  3.949999999999999 -1 0  4 -1 0  4.050000000000001 -1 0  4.1 -1 0  4.15 -1 0  4.199999999999999 -1 0  4.25 -1 0  4.300000000000001 -1 0  4.35 -1 0  4.4 -1 0  4.449999999999999 -1 0  4.5 -1 0  4.550000000000001 -1 0  4.6 -1 0  4.65 -1 0  4.699999999999999 -1 0  4.75 -1 0  4.800000000000001 -1 0  4.85 -1 0  4.9 -1 0  4.949999999999999 -1 0  5 -1 0  -5 -0.95 0  -4.95 -0.95 0  -4.9 -0.95 0  -4.85 -0.95 0  -4.8 -0.95 0  -4.75 -0.95 0  -4.7 -0.95 0  -4.65 -0.95 0  -4.6 -0.95 0  -4.55 -0.95 0  -4.5 -0.95 0  -4.45 -0.95 0  -4.4 -0.95 0  -4.35 -0.95 0  -4.3 -0.95 0  -4.25 -0.95 0  -4.2 -0.95 0  -4.15 -0.95 0  -4.1 -0.95 0  -4.05 -0.95 0  -4 -0.95 0  -3.95 -0.95 0  -3.9 -0.95 0  -3.85 -0.95 0  -3.8 -0.95 0  -3.75 -0.95 0  -3.7 -0.95 0  -3.65 -0.95 0  -3.6 -0.95 0  -3.55 -0.95 0  -3.5 -0.95 0  -3.45 -0.95 0  -3.4 -0.95 0  -3.35 -0.95 0  -3.3 -0.95 0  -3.25 -0.95 0  -3.2 -0.95 0  -3.15 -0.95 0  -3.1 -0.95 0  -3.05 -0.95 0  -3 -0.95 0  -2.95 -0.95 0  -2.9 -0.95 0  -2.85 -0.95 0  -2.8 -0.95 0  -2.75 -0.95 0  -2.7 -0.95 0  -2.65 -0.95 0  -2.6 -0.95 0  -2.55 -0.95 0  -2.5 -0.95 0  -2.45 -0.95 0  -2.4 -0.95 0  -2.35 -0.95 0  -2.3 -0.95 0  -2.25 -0.95 0  -2.2 -0.95 0  -2.15 -0.95 0  -2.1 -0.95 0  -2.05 -0.95 0  -2 -0.95 0  -1.95 -0.95 0  -1.9 -0.95 0  -1.85 -0.95 0  -1.8 -0.95 0  -1.75 -0.95 0  -1.7 -0.95 0  -1.65 -0.95 0  -1.6 -0.95 0  -1.55 -0.95 0  -1.5 -0.95 0  -1.45 -0.95 0  -1.4 -0.95 0  -1.35 -0.95 0  -1.3 -0.95 0  -1.25 -0.95 0  -1.2 -0.95 0  -1.15 -0.95 0  -1.1 -0.95 0  -1.05 -0.95 0  -1 -0.95 0  -0.9500000000000002 -0.95 0  -0.9000000000000004 -0.95 0  -0.8499999999999996 -0.95 0  -0.7999999999999998 -0.95 0  -0.75 -0.95 0  -0.7000000000000002 -0.95 0  -0.6500000000000004 -0.95 0  -0.5999999999999996 -0.95 0  -0.5499999999999998 -0.95 0  -0.5 -0.95 0  -0.4500000000000002 -0.95 0  -0.4000000000000004 -0.95 0  -0.3499999999999996 -0.95 0  -0.2999999999999998 -0.95 0  -0.25 -0.95 0  -0.2000000000000002 -0.95 0  -0.1500000000000004 -0.95 0  -0.09999999999999964 -0.95 0  -0.04999999999999982 -0.95 0  0 -0.95 0  0.04999999999999982 -0.95 0  0.09999999999999964 -0.95 0  0.1500000000000004 -0.95 0  0.2000000000000002 -0.95 0  0.25 -0.95 0  0.2999999999999998 -0.95 0  0.3499999999999996 -0.95 0  0.4000000000000004 -0.95 0  0.4500000000000002 -0.95 0  0.5 -0.95 0  0.5499999999999998 -0.95 0  0.5999999999999996 -0.95 0  0.6500000000000004 -0.95 0  0.7000000000000002 -0.95 0  0.75 -0.95 0  0.7999999999999998 -0.95 0  0.8499999999999996 -0.95 0  0.9000000000000004 -0.95 0  0.9500000000000002 -0.95 0  1 -0.95 0  1.05 -0.95 0  1.1 -0.95 0  1.15 -0.95 0  1.2 -0.95 0  1.25 -0.95 0  1.3 -0.95 0  1.35 -0.95 0  1.4 -0.95 0  1.45 -0.95 0  1.5 -0.95 0  1.55 -0.95 0  1.6 -0.95 0  1.65 -0.95 0  1.7 -0.95 0  1.75 -0.95 0  1.8 -0.95 0  1.85 -0.95 0  1.9 -0.95 0  1.95 -0.95 0  2 -0.95 0  2.05 -0.95 0  2.1 -0.95 0  2.15 -0.95 0  2.2 -0.95 0  2.25 -0.95 0  2.3 -0.95 0  2.35 -0.95 0  2.4 -0.95 0  2.45 -0.95 0  2.5 -0.95 0  2.55 -0.95 0  2.6 -0.95 0  2.65 -0.95 0  2.7 -0.95 0  2.75 -0.95 0  2.8 -0.95 0  2.85 -0.95 0  2.9 -0.95 0  2.95 -0.95 0  3 -0.95 0  3.050000000000001 -0.95 0  3.1 -0.95 0  3.15 -0.95 0  3.199999999999999 -0.95 0  3.25 -0.95 0  3.300000000000001 -0.95 0  3.35 -0.95 0  3.4 -0.95 0  3.449999999999999 -0.95 0  3.5 -0.95 0  3.550000000000001 -0.95 0  3.6 -0.95 0  3.65 -0.95 0  3.699999999999999 -0.95 0  3.75 -0.95 0  3.800000000000001 -0.95 0  3.85 -0.95 0  3.9 -0.95 0  3.949999999999999 -0.95 0  4 -0.95 0  4.050000000000001 -0.95 0  4.1 -0.95 0  4.15 -0.95 0  4.199999999999999 -0.95 0  4.25 -0.95 0  4.300000000000001 -0.95 0  4.35 -0.95 0  4.4 -0.95 0  4.449999999999999 -0.95 0  4.5 -0.95 0  4.550000000000001 -0.95 0  4.6 -0.95 0  4.65 -0.95 0  4.699999999999999 -0.95 0  4.75 -0.95 0  4.800000000000001 -0.95 0  4.85 -0.95 0  4.9 -0.95 0  4.949999999999999 -0.95 0  5 -0.95 0  -5 -0.9 0  -4.95 -0.9 0  -4.9 -0.9 0  -4.85 -0.9 0  -4.8 -0.9 0  -4.75 -0.9 0  -4.7 -0.9 0  -4.65 -0.9 0  -4.6 -0.9 0  -4.55 -0.9 0  -4.5 -0.9 0  -4.45 -0.9 0  -4.4 -0.9 0  -4.35 -0.9 0  -4.3 -0.9 0  -4.25 -0.9 0  -4.2 -0.9 0  -4.15 -0.9 0  -4.1 -0.9 0  -4.05 -0.9 0  -4 -0.9 0  -3.95 -0.9 0  -3.9 -0.9 0  -3.85 -0.9 0  -3.8 -0.9 0  -3.75 -0.9 0  -3.7 -0.9 0  -3.65 -0.9 0  -3.6 -0.9 0  -3.55 -0.9 0  -3.5 -0.9 0  -3.45 -0.9 0  -3.4 -0.9 0  -3.35 -0.9 0  -3.3 -0.9 0  -3.25 -0.9 0  -3.2 -0.9 0  -3.15 -0.9 0  -3.1 -0.9 0  -3.05 -0.9 0  -3 -0.9 0  -2.95 -0.9 0  -2.9 -0.9 0  -2.85 -0.9 0  -2.8 -0.9 0  -2.75 -0.9 0  -2.7 -0.9 0  -2.65 -0.9 0  -2.6 -0.9 0  -2.55 -0.9 0  -2.5 -0.9 0  -2.45 -0.9 0  -2.4 -0.9 0  -2.35 -0.9 0  -2.3 -0.9 0  -2.25 -0.9 0  -2.2 -0.9 0  -2.15 -0.9 0  -2.1 -0.9 0  -2.05 -0.9 0  -2 -0.9 0  -1.95 -0.9 0  -1.9 -0.9 0  -1.85 -0.9 0  -1.8 -0.9 0  -1.75 -0.9 0  -1.7 -0.9 0  -1.65 -0.9 0  -1.6 -0.9 0  -1.55 -0.9 0  -1.5 -0.9 0  -1.45 -0.9 0  -1.4 -0.9 0  -1.35 -0.9 0  -1.3 -0.9 0  -1.25 -0.9 0  -1.2 -0.9 0  -1.15 -0.9 0  -1.1 -0.9 0  -1.05 -0.9 0  -1 -0.9 0  -0.9500000000000002 -0.9 0  -0.9000000000000004 -0.9 0  -0.8499999999999996 -0.9 0  -0.7999999999999998 -0.9 0  -0.75 -0.9 0  -0.7000000000000002 -0.9 0  -0.6500000000000004 -0.9 0  -0.5999999999999996 -0.9 0  -0.5499999999999998 -0.9 0  -0.5 -0.9 0  -0.4500000000000002 -0.9 0  -0.4000000000000004 -0.9 0  -0.3499999999999996 -0.9 0  -0.2999999999999998 -0.9 0  -0.25 -0.9 0  -0.2000000000000002 -0.9 0  -0.1500000000000004 -0.9 0  -0.09999999999999964 -0.9 0  -0.04999999999999982 -0.9 0  0 -0.9 0  0.04999999999999982 -0.9 0  0.09999999999999964 -0.9 0  0.1500000000000004 -0.9 0  0.2000000000000002 -0.9 0  0.25 -0.9 0  0.2999999999999998 -0.9 0  0.3499999999999996 -0.9 0  0.4000000000000004 -0.9 0  0.4500000000000002 -0.9 0  0.5 -0.9 0  0.5499999999999998 -0.9 0  0.5999999999999996 -0.9 0  0.6500000000000004 -0.9 0  0.7000000000000002 -0.9 0  0.75 -0.9 0  0.7999999999999998 -0.9 0  0.8499999999999996 -0.9 0  0.9000000000000004 -0.9 0  0.9500000000000002 -0.9 0  1 -0.9 0  1.05 -0.9 0  1.1 -0.9 0  1.15 -0.9 0  1.2 -0.9 0  1.25 -0.9 0  1.3 -0.9 0  1.35 -0.9 0  1.4 -0.9 0  1.45 -0.9 0  1.5 -0.9 0  1.55 -0.9 0  1.6 -0.9 0  1.65 -0.9 0  1.7 -0.9 0  1.75 -0.9 0  1.8 -0.9 0  1.85 -0.9 0  1.9 -0.9 0  1.95 -0.9 0  2 -0.9 0  2.05 -0.9 0  2.1 -0.9 0  2.15 -0.9 0  2.2 -0.9 0  2.25 -0.9 0  2.3 -0.9 0  2.35 -0.9 0  2.4 -0.9 0  2.45 -0.9 0  2.5 -0.9 0  2.55 -0.9 0  2.6 -0.9 0  2.65 -0.9 0  2.7 -0.9 0  2.75 -0.9 0  2.8 -0.9 0  2.85 -0.9 0  2.9 -0.9 0  2.95 -0.9 0  3 -0.9 0  3.050000000000001 -0.9 0  3.1 -0.9 0  3.15 -0.9 0  3.199999999999999 -0.9 0  3.25 -0.9 0  3.300000000000001 -0.9 0  3.35 -0.9 0  3.4 -0.9 0  3.449999999999999 -0.9 0  3.5 -0.9 0  3.550000000000001 -0.9 0  3.6 -0.9 0  3.65 -0.9 0  3.699999999999999 -0.9 0  3.75 -0.9 0  3.800000000000001 -0.9 0  3.85 -0.9 0  3.9 -0.9 0  3.949999999999999 -0.9 0  4 -0.9 0  4.050000000000001 -0.9 0  4.1 -0.9 0  4.15 -0.9 0  4.199999999999999 -0.9 0  4.25 -0.9 0  4.300000000000001 -0.9 0  4.35 -0.9 0  4.4 -0.9 0  4.449999999999999 -0.9 0  4.5 -0.9 0  4.550000000000001 -0.9 0  4.6 -0.9 0  4.65 -0.9 0  4.699999999999999 -0.9 0  4.75 -0.9 0  4.800000000000001 -0.9 0  4.85 -0.9 0  4.9 -0.9 0  4.949999999999999 -0.9 0  5 -0.9 0  -5 -0.85 0  -4.95 -0.85 0  -4.9 -0.85 0  -4.85 -0.85 0  -4.8 -0.85 0  -4.75 -0.85 0  -4.7 -0.85 0  -4.65 -0.85 0  -4.6 -0.85 0  -4.55 -0.85 0  -4.5 -0.85 0  -
[...]
<PointData  Vectors="f_15"> 
<DataArray  type="Float64"  Name="f_15"  NumberOfComponents="3" format="ascii">9.9878976956558940e+00 0.0000000000000000e+00 0.0000000000000000e+00  1.0007780015313868e+01 1.4207827220898932e-02 0.0000000000000000e+00  9.9898402090161937e+00 -1.6462568680068308e-02 0.0000000000000000e+00  1.0007590201451197e+01 1.2366628147380473e-02 0.0000000000000000e+00  9.9901758356710353e+00 -1.2143350781354312e-02 0.0000000000000000e+00  1.0008259310692710e+01 8.4403127243267290e-03 0.0000000000000000e+00  9.9905808165861050e+00 -8.8630354414852945e-03 0.0000000000000000e+00  1.0008264621388033e+01 7.3627877297078479e-03 0.0000000000000000e+00  9.9910742140461632e+00 -8.0198008859314190e-03 0.0000000000000000e+00  1.0008374586543777e+01 7.1517067646413527e-03 0.0000000000000000e+00  9.9912301183296357e+00 -7.2121595762614631e-03 0.0000000000000000e+00  1.0008285940983397e+01 6.3764033853288618e-03 0.0000000000000000e+00  9.9917852876449320e+00 -6.1592855178656813e-03 0.0000000000000000e+00  1.0007781875032153e+01 5.6612817513759274e-03 0.0000000000000000e+00  9.9922320129677473e+00 -5.6149691546406658e-03 0.0000000000000000e+00  1.0007609636239117e+01 5.3704572390578928e-03 0.0000000000000000e+00  9.9925251888263613e+00 -5.1363138220346469e-03 0.0000000000000000e+00  1.0007001438538552e+01 4.5922739808792841e-03 0.0000000000000000e+00  9.9934948951942566e+00 -4.0606323131800156e-03 0.0000000000000000e+00  1.0006075393416058e+01 3.6245622421043600e-03 0.0000000000000000e+00  9.9940711726526406e+00 -3.4613094806769901e-03 0.0000000000000000e+00  1.0005809028132671e+01 3.3462475434165293e-03 0.0000000000000000e+00  9.9944733258160472e+00 -3.0722836136428521e-03 0.0000000000000000e+00  1.0004930347130786e+01 2.5156733686506256e-03 0.0000000000000000e+00  9.9956873017765435e+00 -1.8985965248372386e-03 0.0000000000000000e+00  1.0003912504252874e+01 1.5087663820902535e-03 0.0000000000000000e+00  9.9961220051692656e+00 -1.4310990138915653e-03 0.0000000000000000e+00  1.0003833287941333e+01 1.4682432857082304e-03 0.0000000000000000e+00  9.9963849962207902e+00 -1.2256899999494328e-03 0.0000000000000000e+00  1.0002951284193086e+01 8.0430994571198465e-04 0.0000000000000000e+00  9.9974617814151028e+00 -1.6065492792299054e-04 0.0000000000000000e+00  1.0002068620178077e+01 1.4300311737633445e-04 0.0000000000000000e+00  9.9974785539656832e+00 1.1987548716898503e-04 0.0000000000000000e+00  1.0001994253400833e+01 5.6172436824628220e-04 0.0000000000000000e+00  9.9973507872450398e+00 4.2294562483219421e-04 0.0000000000000000e+00  1.0000786660693315e+01 5.6575314932636454e-04 0.0000000000000000e+00  9.9975771543763656e+00 1.7275654773005555e-03 0.0000000000000000e+00  9.9992878338322839e+00 1.2230392034495690e-03 0.0000000000000000e+00  9.9962006664657324e+00 2.9269456950838037e-03 0.0000000000000000e+00  9.9974279076202546e+00 3.5024104541404783e-03 0.0000000000000000e+00  9.9937637571579963e+00 5.4755552783624841e-03 0.0000000000000000e+00  9.9930733818270792e+00 7.0261108779120411e-03 0.0000000000000000e+00  9.9893864867459108e+00 1.0575957022850399e-02 0.0000000000000000e+00  9.9860371093285618e+00 1.3851273525189585e-02 0.0000000000000000e+00  9.9805376307617450e+00 1.8997497786075485e-02 0.0000000000000000e+00  9.9743053039270091e+00 2.5722435751905831e-02 0.0000000000000000e+00  9.9659408620468550e+00 3.3685620427916736e-02 0.0000000000000000e+00  9.9546958968727832e+00 4.4757077196432814e-02 0.0000000000000000e+00  9.9423648916246350e+00 5.7223742735606646e-02 0.0000000000000000e+00  9.9247824940143570e+00 7.4703152853129839e-02 0.0000000000000000e+00  9.9060753025884249e+00 9.3002311291516093e-02 0.0000000000000000e+00  9.8805417405805223e+00 1.1863339223960787e-01 0.0000000000000000e+00  9.8540413143607211e+00 1.4515216059769026e-01 0.0000000000000000e+00  9.8183714697061770e+00 1.8034920522443734e-01 0.0000000000000000e+00  9.7823923743700369e+00 2.1650789087379566e-01 0.0000000000000000e+00  9.7357288329383120e+00 2.6338032255940441e-01 0.0000000000000000e+00  9.6886155759829098e+00 3.1026396419040364e-01 0.0000000000000000e+00  9.6299776782097304e+00 3.6932081231795916e-01 0.0000000000000000e+00  9.5716155926976931e+00 4.2855567975036563e-01 0.0000000000000000e+00  9.5003964225230177e+00 4.9998301446371640e-01 0.0000000000000000e+00  9.4305131819928931e+00 5.7121622289163776e-01 0.0000000000000000e+00  9.3476740862786816e+00 6.5587255852035564e-01 0.0000000000000000e+00  9.2663796261574181e+00 7.3861201413993349e-01 0.0000000000000000e+00  9.1724918553257044e+00 8.3516305032880389e-01 0.0000000000000000e+00  9.0813622853744516e+00 9.2996508423069668e-01 0.0000000000000000e+00  8.9771372399205731e+00 1.0372672090650441e+00 0.0000000000000000e+00  8.8771263417840967e+00 1.1422057181915413e+00 0.0000000000000000e+00  8.7645375632563240e+00 1.2608006459787473e+00 0.0000000000000000e+00  8.6565221705892821e+00 1.3743906478756891e+00 0.0000000000000000e+00  8.5366619515175088e+00 1.5019466420302359e+00 0.0000000000000000e+00  8.4227391134808354e+00 1.6250140150944208e+00 0.0000000000000000e+00  8.2963349622178129e+00 1.7601950408048954e+00 0.0000000000000000e+00  8.1776411649073442e+00 1.8893635363971251e+00 0.0000000000000000e+00  8.0466410973406415e+00 2.0345122916353211e+00 0.0000000000000000e+00  7.9237150162636389e+00 2.1681477745706301e+00 0.0000000000000000e+00  7.7891150044961259e+00 2.3183692079284968e+00 0.0000000000000000e+00  7.6637677194443432e+00 2.4616065180400000e+00 0.0000000000000000e+00  7.5257977524137250e+00 2.6146420111320650e+00 0.0000000000000000e+00  7.3988510218707315e+00 2.7603624226548411e+00 0.0000000000000000e+00  7.2592817263510243e+00 2.9238127324077756e+00 0.0000000000000000e+00  7.1304877926696202e+00 3.0721039456471293e+00 0.0000000000000000e+00  6.9903261824801124e+00 3.2338793945558173e+00 0.0000000000000000e+00  6.8609321732126753e+00 3.3932876376165457e+00 0.0000000000000000e+00  6.7203846080609368e+00 3.5575105686526305e+00 0.0000000000000000e+00  6.5907917646161431e+00 3.7158585215331552e+00 0.0000000000000000e+00  6.4512159202389574e+00 3.8851388247399194e+00 0.0000000000000000e+00  6.3213351042465460e+00 4.0479456269349567e+00 0.0000000000000000e+00  6.1833219288162269e+00 4.2178971225504585e+00 0.0000000000000000e+00  6.0537817209600826e+00 4.3850207514345074e+00 0.0000000000000000e+00  5.9174752469813257e+00 4.5541463533449118e+00 0.0000000000000000e+00  5.7888225661408450e+00 4.7242412915236454e+00 0.0000000000000000e+00  5.6549092841374211e+00 4.8973572979651854e+00 0.0000000000000000e+00  5.5266966097259438e+00 5.0690024999543599e+00 0.0000000000000000e+00  5.3953286733182484e+00 5.2411029772431172e+00 0.0000000000000000e+00  5.2685254196651918e+00 5.4166271164857367e+00 0.0000000000000000e+00  5.1404712714114025e+00 5.5891777021125275e+00 0.0000000000000000e+00  5.0142932232037296e+00 5.7664060157609969e+00 0.0000000000000000e+00  4.8892372836407656e+00 5.9397840313994461e+00 0.0000000000000000e+00  4.7659716697109040e+00 6.1182485107262874e+00 0.0000000000000000e+00  4.6445939529313325e+00 6.2908082805451055e+00 0.0000000000000000e+00  4.5213375886196010e+00 6.4714167305888353e+00 0.0000000000000000e+00  4.4154118041688664e+00 6.6286077929598006e+00 0.0000000000000000e+00  4.2781870944969933e+00 6.8347230623379858e+00 0.0000000000000000e+00  4.1777923491576781e+00 6.9856505322959146e+00 0.0000000000000000e+00  4.0614330316959437e+00 7.1659066597282575e+00 0.0000000000000000e+00  3.9674376571981473e+00 7.3142948020461258e+00 0.0000000000000000e+00  3.8653919384046800e+00 7.4716433212995801e+00 0.0000000000000000e+00  3.7772042538750239e+00 7.6144313865324618e+00 0.0000000000000000e+00  3.7527559261444456e+00 7.6550702282441945e+00 0.0000000000000000e+00  3.8260288930706943e+00 7.5367951905206620e+00 0.0000000000000000e+00  3.8840682201004459e+00 7.4425409141192196e+00 0.0000000000000000e+00  3.9127762541347288e+00 7.3973557489118740e+00 0.0000000000000000e+00  3.9213372476228758e+00 7.3828459498339587e+00 0.0000000000000000e+00  3.9313181294440041e+00 7.3674491022142767e+00 0.0000000000000000e+00  3.9342410243706292e+00 7.3617181389470545e+00 0.0000000000000000e+00  3.9402330256843747e+00 7.3525318162043742e+00 0.0000000000000000e+00  3.9413274669788199e+00 7.3495700620105175e+00 0.0000000000000000e+00  3.9451885986437949e+00 7.3435115088178113e+00 0.0000000000000000e+00  3.9457283804200922e+00 7.3415905281091947e+00 0.0000000000000000e+00  3.9482684010280278e+00 7.3372149538366971e+00 0.0000000000000000e+00  3.9485732097536386e+00 7.3355985546815532e+00 0.0000000000000000e+00  3.9500684989918402e+00 7.3324044441375680e+00 0.0000000000000000e+00  3.9503230597712893e+00 7.3304685113825876e+00 0.0000000000000000e+00  3.9511953009348129e+00 7.3275363707387280e+00 0.0000000000000000e+00  3.9513699692724011e+00 7.3250653220041846e+00 0.0000000000000000e+00  3.9518653802212920e+00 7.3216544965452535e+00 0.0000000000000000e+00  3.9519356854522960e+00 7.3183903142992914e+00 0.0000000000000000e+00  3.9521272582371156e+00 7.3144254035975260e+00 0.0000000000000000e+00  3.9520711897035619e+00 7.3104058905309683e+00 0.0000000000000000e+00  3.9519807958520263e+00 7.3060310317922568e+00 0.0000000000000000e+00  3.9516209763950312e+00 7.3016934818825989e+00 0.0000000000000000e+00  3.9509593236299927e+00 7.2968452470895357e+00 0.0000000000000000e+00  3.9496885348216368e+00 7.2917660051196362e+00 0.0000000000000000e+00  3.9471326332981982e+00 7.2848963014534291e+00 0.0000000000000000e+00  3.9426041202393005e+00 7.2755961889424157e+00 0.0000000000000000e+00  3.9334196106530896e+00 7.2593672127936166e+00 0.0000000000000000e+00  3.9171238153164705e+00 7.2326172015574732e+00 0.0000000000000000e+00  3.8847150305984322e+00 7.1805812681087273e+00 0.0000000000000000e+00  3.8275819471649726e+00 7.0894518227079031e+00 0.0000000000000000e+00  3.7172942195417011e+00 6.9099386592131689e+00 0.0000000000000000e+00  3.5284931014493566e+00 6.5912068772241268e+00 0.0000000000000000e+00  3.1904258751122150e+00 5.9753737044990229e+00 0.0000000000000000e+00  2.6764941094095636e+00 4.9192067275367970e+00 0.0000000000000000e+00  1.9124300724431571e+00 2.9356926393083373e+00 0.0000000000000000e+00  1.2069829310124303e+00 6.6326128453479682e-01 0.0000000000000000e+00  1.0160910732866137e+00 5.1198374083014274e-02 0.0000000000000000e+00  1.0007771850506375e+00 2.6147820961548740e-03 0.0000000000000000e+00  1.0000692649455372e+00 2.4770808324735575e-04 0.0000000000000000e+00  9.9998334146676549e-01 7.0515917325088026e-05 0.0000000000000000e+00  1.0000270398485367e+00 -7.1531791398379287e-05 0.0000000000000000e+00  9.9997645542317704e-01 6.7258093218290331e-05 0.0000000000000000e+00  1.0000184544685298e+00 -5.2542294199782435e-05 0.0000000000000000e+00  9.9998650453255300e-01 3.8371480449449047e-05 0.0000000000000000e+00  1.0000096669811298e+00 -2.7175353719894117e-05 0.0000000000000000e+00  9.9999297182812918e-01 1.9410915263423420e-05 0.0000000000000000e+00  1.0000052644338222e+00 -1.4296831437054071e-05 0.0000000000000000e+00  9.9999600361511010e-01 1.0754973127149882e-05 0.0000000000000000e+00  1.0000029798084236e+00 -8.0108503873859831e-06 0.0000000000000000e+00  9.9999786564668658e-01 5.7533227339968695e-06 0.0000000000000000e+00  1.0000014662117402e+00 -3.9578185242393083e-06 0.0000000000000000e+00  9.9999901583833262e-01 2.6482214517574362e-06 0.0000000000000000e+00  1.0000006644227732e+00 -1.7744585213607184e-06 0.0000000000000000e+00  9.9999953977026534e-01 1.2196124361539999e-06 0.0000000000000000e+00  1.0000003256086680e+00 -8.5986269846865403e-07 0.0000000000000000e+00  9.9999977000068507e-01 6.0834130361473519e-07 0.0000000000000000e+00  1.0000001587950311e+00 -4.2167690367499176e-07 0.0000000000000000e+00  9.9999989352088425e-01 2.8356519307504243e-07 0.0000000000000000e+00  1.0000000700630427e+00 -1.8647826137793110e-07 0.0000000000000000e+00  9.9999995385628837e-01 1.2232057615038670e-07 0.0000000000000000e+00  1.0000000309014387e+00 -8.1508097957554268e-08 0.0000000000000000e+00  9.9999997895364556e-01 5.5357181509765099e-08 0.0000000000000000e+00  1.0000000143773848e+00 -3.7832483768514696e-08 0.0000000000000000e+00  9.9999999030311437e-01 2.5576391372176175e-08 0.0000000000000000e+00  1.0000000064115089e+00 -1.6945231702534594e-08 0.0000000000000000e+00  9.9999999582546661e-01 1.1033243999961598e-08 0.0000000000000000e+00  1.0000000027087061e+00 -7.1430636678822919e-09 0.0000000000000000e+00  9.9999999822891972e-01 4.6555548338446043e-09 0.0000000000000000e+00  1.0000000011700532e+00 -3.0686198454091357e-09 0.0000000000000000e+00  9.9999999922408922e-01 2.0340843836793421e-09 0.0000000000000000e+00  1.0000000005114602e+00 -1.3421491726967614e-09 0.0000000000000000e+00  9.9999999966687270e-01 8.7517581618541004e-10 0.0000000000000000e+00  1.0000000002145832e+00 -5.6383680187751605e-10 0.0000000000000000e+00  9.9999999986245280e-01 3.6100232050956682e-10 0.0000000000000000e+00  1.0000000000883420e+00 -2.3141812728778983e-10 0.0000000000000000e+00  9.9999999994297784e-01 1.4912737468869318e-10 0.0000000000000000e+00  1.0000000000369043e+00 -9.6443282573336240e-11 0.0000000000000000e+00  9.9999999997617706e-01 6.2268960244254107e-11 0.0000000000000000e+00  1.0000000000152767e+00 -3.9945502381358428e-11 0.0000000000000000e+00  9.9999999999027644e-01 2.5427795225412478e-11 0.0000000000000000e+00  1.0000000000061611e+00 -1.6097486682283482e-11 0.0000000000000000e+00  9.9999999999610090e-01 1.0175957954417906e-11 0.0000000000000000e+00  1.0000000000024709e+00 -6.4378263152901539e-12 0.0000000000000000e+00  9.9999999999843225e-01 4.0788783211275644e-12 0.0000000000000000e+00  1.0000000000009923e+00 -2.5761997844775282e-12 0.0000000000000000e+00  9.9999999999937073e-01 1.6231428500889319e-12 0.0000000000000000e+00  1.0000000000003926e+00 -1.0046916029204245e-12 0.0000000000000000e+00  9.9999999999974443e-01 6.2372117803671994e-13 0.0000000000000000e+00  1.0000000000001523e+00 -3.5817270206541614e-13 0.0000000000000000e+00  9.9999999999987854e-01 2.1330932649975861e-13 0.0000000000000000e+00  1.0000000000000566e+00 -7.1623876718118937e-14 0.0000000000000000e+00  9.9999999999989508e-01 0.0000000000000000e+00 0.0000000000000000e+00  1.0000196154300442e+01 0.0000000000000000e+00 -1.2459883544864594e-02  1.0004032215202670e+01 -3.2541986942968468e-03 1.8579281319048161e-03  1.0000396388317277e+01 5.5369582041163139e-03 3.9396116516509797e-03  1.0001980821512941e+01 1.5166139311768513e-03 -1.4447080908580694e-03  1.0000846695980645e+01 -3.1246212467633176e-04 2.7609856724812945e-04  1.0001095658496311e+01 2.9221424882552569e-03 6.3417759954026117e-04  1.0000386559713016e+01 -6.5886188059738175e-04 -1.0869258705898549e-03  1.0000821820411105e+01 1.6169589578979991e-03 1.3157653881506002e-03  1.0000247337197230e+01 -4.1057368194240984e-04 -1.5165418279148046e-03  1.0000343718013609e+01 1.3570544823312057e-03 1.6853274099674768e-03  1.0000199042082654e+01 -9.9437277707206933e-04 -1.8563469219963883e-03  1.0000317699063588e+01 1.5969115668003923e-03 1.9779022706582039e-03  9.9999099660543607e+00 -1.2628738671582739e-03 -2.0679014449179606e-03  1.0000246938461641e+01 1.3630384667370256e-03 2.1210205458171505e-03  1.0000074701943557e+01 -1.0522738950677348e-03 -2.1516339272071006e-03  9.9999770388082787e+00 1.1638898358481227e-03 2.1499537601599693e-03  9.9999958788222010e+00 -1.2162080869973862e-03 -2.1122684652397296e-03  1.0000277707033170e+01 1.4318824083710308e-03 2.0413634028176803e-03  9.9996948551162603e+00 -1.3835734165564644e-03 -1.9537991646525386e-03  1.0000195527084239e+01 1.1925204998619824e-03 1.8642316544011568e-03  1.0000065636684905e+01 -8.9782727561952961e-04 -1.7703606305765015e-03  9.9999031238320999e+00 8.0924045862580793e-04 1.6609405884311372e-03  9.9999039582216831e+00 -9.3630452185142524e-04 -1.5274874676146611e-03  1.0000386564127821e+01 1.1403318643756128e-03 1.3843680927232212e-03  9.9995644111185502e+00 -1.1083570649394877e-03 -1.2557705553525216e-03  1.0000183785225724e+01 8.4004227834430154e-04 1.1579341058700263e-03  1.0000091250166896e+01 -4.6786002194187920e-04 -1.0793648702216452e-03  9.9998399130777944e+00 4.2950456727011617e-04 9.9995134529468825e-04  9.9998023493121373e+00 -5.5042800524155615e-04 -9.0906303152844023e-04  1.0000386481511491e+01 9.1995429233837276e-04 8.2486309317338297e-04  9.9994249727889883e+00 -7.1418613044194773e-04 -7.7127224538428942e-04  9.9999931651584539e+00 7.1096546379256960e-04 7.5739501753042395e-04  9.9998668702063398e+00 8.4434804409682356e-06 -7.6125295348005047e-04  9.9995307526106991e+00 6.1516694841304081e-04 7.5985820721073975e-04  9.9992169311508974e+00 8.5766054401314025e-05 -7.4458381247659831e-04  9.9996450385957019e+00 1.5174108265849952e-03 7.3778107264666989e-04  9.9983657286555676e+00 5.5461143807451361e-04 -7.5445638259530258e-04  9.9983796240233396e+00 2.1666152015248344e-03 7.9637810105088775e-04  9.9974961230729669e+00 2.2811806099069716e-03 -8.3560391170915281e-04  9.9964103308762198e+00 3.9088972458440436e-03 8.5791395654554977e-04  9.9945321849154976e+00 4.6362466925700179e-03 -8.5975613288952711e-04  9.9931821481037293e+00 7.7627768871996738e-03 8.6245901531828569e-04  9.9895718237213718e+00 9.5029774072696617e-03 -8.6971718166781468e-04  9.9862819701752823e+00 1.4088902775407280e-02 8.7396813070199939e-04  9.9810106740618920e+00 1.8404184683073206e-02 -8.5900882877156665e-04  9.9748173228497450e+00 2.5537904970817548e-02 8.1661210809172631e-04  9.9658423231054734e+00 3.3046020034849057e-02 -7.6233563200150175e-04  9.9559428732164879e+00 4.4404597907646871e-02 6.9890488650268265e-04  9.9419954131260706e+00 5.6963098986244347e-02 -6.3808006638042022e-04  9.9260220878520649e+00 7.3724847293174814e-02 5.5541438520030563e-04  9.9056282471008448e+00 9.3151909517850531e-02 -4.6657857138112323e-04  9.8821409402645717e+00 1.1757561135633718e-01 3.6064358394197394e-04  9.8529716479864895e+00 1.4539408832269657e-01 -2.7253712285036589e-04  9.8202673527775346e+00 1.7901495580242480e-01 1.8825908433728469e-04  9.7812141597890765e+00 2.1747114163642467e-01 -1.1398188477366328e-04  9.7374234014071899e+00 2.6155828010627757e-01 2.7842557007271069e-05  9.6872277408530021e+00 3.1151011158458514e-01 6.0551482572324972e-05  9.6319759064706094e+00 3.6780849872639432e-01 -1.3284842549604400e-04  9.5696591865161835e+00 4.2981330203780349e-01 1.8254076547146467e-04  9.5024589254595728e+00 4.9827713084671288e-01 -1.9691157290528986e-04  9.4286223231865414e+00 5.7332679748386495e-01 2.2581098938384201e-04  9.3493864008945309e+00 6.5376609189855905e-01 -2.5050297622414660e-04  9.2643421907260546e+00 7.4083037126250550e-01 3.0309790156535937e-04  9.1744839799370226e+00 8.3376550794840176e-01 -3.0525210169445364e-04  9.0787840413345720e+00 9.3193708165212152e-01 2.8718896668107429e-04  8.9791633748600326e+00 1.0357167086203716e+00 -2.1593169053481411e-04  8.8746888491306350e+00 1.1452677456186384e+00 1.8719927151800180e-04  8.7661585393555637e+00 1.2586419087998408e+00 -1.8120642581350270e-04  8.6539883219846452e+00 1.3774248181445528e+00 2.1959711691665543e-04  8.5386079960132211e+00 1.5009019181941639e+00 -2.1410747601754193e-04  8.4195712484676903e+00 1.6275008567150941e+00 1.4823295770013763e-04  8.2984376240455582e+00 1.7584320308037060e+00 -5.4177704441382213e-05  8.1745628653402225e+00 1.8941886882087824e+00 9.5565550874960821e-06  8.0482924331538381e+00 2.0309800330820753e+00 -1.1521154119739116e-04  7.9206110925801179e+00 2.1723520302646824e+00 2.5459139867861695e-04  7.7910710036027702e+00 2.3181735589679500e+00 -2.8983942879804759e-04  7.6599867035796301e+00 2.4630953207128470e+00 -3.3673993792353024e-05  7.5280051158946257e+00 2.6127563158426206e+00 4.7992019476691055e-04  7.3953953115220576e+00 2.7669734890140467e+00 -8.7616989890175457e-04  7.2609028612663158e+00 2.9192455429261233e+00 1.0359521458654017e-03  7.1277259054064475e+00 3.0730944948308347e+00 -1.4045819040012636e-03  6.9922049040656207e+00 3.2372692450323552e+00 1.87276006