<?xml version="1.0"?>
<VTKFile type="UnstructuredGrid"  version="0.1"  >
<UnstructuredGrid>
<Piece  NumberOfPoints="8241" NumberOfCells="16000">
<Points>
<DataArray  type="Float64"  NumberOfComponents="3"  format="ascii">-5 -1 0  -4.95 -1 0  -4.9 -1 0  -4.85 -1 0  -4.8 -1 0  -4.75 -1 0  -4.7 -1 0  -4.65 -1 0  -4.6 -1 0  -4.55 -1 0  -4.5 -1 0  -4.45 -1 0  -4.4 -1 0  -4.35 -1 0  -4.3 -1 0  -4.25 -1 0  -4.2 -1 0  -4.15 -1 0  -4.1 -1 0  -4.05 -1 0  -4 -1 0  -3.95 -1 0  -3.9 -1 0  -3.85 -1 0  -3.8 -1 0  -3.75 -1 0  -3.7 -1 0  -3.65 -1 0  -3.6 -1 0  -3.55 -1 0  -3.5 -1 0  -3.45 -1 0  -3.4 -1 0  -3.35 -1 0  -3.3 -1 0  -3.25 -1 0  -3.2 -1 0  -3.15 -1 0  -3.1 -1 0  -3.05 -1 0  -3 -1 0  -2.95 -1 0  -2.9 -1 0  -2.85 -1 0  -2.8 -1 0  -2.75 -1 0  -2.7 -1 0  -2.65 -1 0  -2.6 -1 0  -2.55 -1 0  -2.5 -1 0  -2.45 -1 0  -2.4 -1 0  -2.35 -1 0  -2.3 -1 0  -2.25 -1 0  -2.2 -1 0  -2.15 -1 0  -2.1 -1 0  -2.05 -1 0  -2 -1 0  -1.95 -1 0  -1.9 -1 0  -1.85 -1 0  -1.8 -1 0  -1.75 -1 0  -1.7 -1 0  -1.65 -1 0  -1.6 -1 0  -1.55 -1 0  -1.5 -1 0  -1.45 -1 0  -1.4 -1 0  -1.35 -1 0  -1.3 -1 0  -1.25 -1 0  -1.2 -1 0  -1.15 -1 0  -1.1 -1 0  -1.05 -1 0  -1 -1 0  -0.9500000000000002 -1 0  -0.9000000000000004 -1 0  -0.8499999999999996 -1 0  -0.7999999999999998 -1 0  -0.75 -1 0  -0.7000000000000002 -1 0  -0.6500000000000004 -1 0  -0.5999999999999996 -1 0  -0.5499999999999998 -1 0  -0.5 -1 0  -0.4500000000000002 -1 0  -0.4000000000000004 -1 0  -0.3499999999999996 -1 0  -0.2999999999999998 -1 0  -0.25 -1 0  -0.2000000000000002 -1 0  -0.1500000000000004 -1 0  -0.09999999999999964 -1 0  -0.04999999999999982 -1 0  0 -1 0  0.04999999999999982 -1 0  0.09999999999999964 -1 0  0.1500000000000004 -1 0  0.2000000000000002 -1 0  0.25 -1 0  0.2999999999999998 -1 0  0.3499999999999996 -1 0  0.4000000000000004 -1 0  0.4500000000000002 -1 0  0.5 -1 0  0.5499999999999998 -1 0  0.5999999999999996 -1 0  0.6500000000000004 -1 0  0.7000000000000002 -1 0  0.75 -1 0  0.7999999999999998 -1 0  0.8499999999999996 -1 0  0.9000000000000004 -1 0  0.9500000000000002 -1 0  1 -1 0  1.05 -1 0  1.1 -1 0  1.15 -1 0  1.2 -1 0  1.25 -1 0  1.3 -1 0  1.35 -1 0  1.4 -1 0  1.45 -1 0  1.5 -1 0  1.55 -1 0  1.6 -1 0  1.65 -1 0  1.7 -1 0  1.75 -1 0  1.8 -1 0  1.85 -1 0  1.9 -1 0  1.95 -1 0  2 -1 0  2.05 -1 0  2.1 -1 0  2.15 -1 0  2.2 -1 0  2.25 -1 0  2.3 -1 0  2.35 -1 0  2.4 -1 0  2.45 -1 0  2.5 -1 0  2.55 -1 0  2.6 -1 0  2.65 -1 0  2.7 -1 0  2.75 -1 0  2.8 -1 0  2.85 -1 0  2.9 -1 0  2.95 -1 0  3 -1 0  3.050000000000001 -1 0  3.1 -1 0  3.15 -1 0  3.199999999999999 -1 0  3.25 -1 0  3.300000000000001 -1 0  3.35 -1 0  3.4 -1 0  3.449999999999999 -1 0  3.5 -1 0  3.550000000000001 -1 0  3.6 -1 0  3.65 -1 0  3.699999999999999 -1 0  3.75 -1 0  3.800000000000001 -1 0  3.85 -1 0  3.9 -1 0  3.949999999999999 -1 0  4 -1 0  4.050000000000001 -1 0  4.1 -1 0  4.15 -1 0  4.199999999999999 -1 0  4.25 -1 0  4.300000000000001 -1 0  4.35 -1 0  4.4 -1 0  4.449999999999999 -1 0  4.5 -1 0  4.550000000000001 -1 0  4.6 -1 0  4.65 -1 0  4.699999999999999 -1 0  4.75 -1 0  4.800000000000001 -1 0  4.85 -1 0  4.9 -1 0  4.949999999999999 -1 0  5 -1 0  -5 -0.95 0  -4.95 -0.95 0  -4.9 -0.95 0  -4.85 -0.95 0  -4.8 -0.95 0  -4.75 -0.95 0  -4.7 -0.95 0  -4.65 -0.95 0  -4.6 -0.95 0  -4.55 -0.95 0  -4.5 -0.95 0  -4.45 -0.95 0  -4.4 -0.95 0  -4.35 -0.95 0  -4.3 -0.95 0  -4.25 -0.95 0  -4.2 -0.95 0  -4.15 -0.95 0  -4.1 -0.95 0  -4.05 -0.95 0  -4 -0.95 0  -3.95 -0.95 0  -3.9 -0.95 0  -3.85 -0.95 0  -3.8 -0.95 0  -3.75 -0.95 0  -3.7 -0.95 0  -3.65 -0.95 0  -3.6 -0.95 0  -3.55 -0.95 0  -3.5 -0.95 0  -3.45 -0.95 0  -3.4 -0.95 0  -3.35 -0.95 0  -3.3 -0.95 0  -3.25 -0.95 0  -3.2 -0.95 0  -3.15 -0.95 0  -3.1 -0.95 0  -3.05 -0.95 0  -3 -0.95 0  -2.95 -0.95 0  -2.9 -0.95 0  -2.85 -0.95 0  -2.8 -0.95 0  -2.75 -0.95 0  -2.7 -0.95 0  -2.65 -0.95 0  -2.6 -0.95 0  -2.55 -0.95 0  -2.5 -0.95 0  -2.45 -0.95 0  -2.4 -0.95 0  -2.35 -0.95 0  -2.3 -0.95 0  -2.25 -0.95 0  -2.2 -0.95 0  -2.15 -0.95 0  -2.1 -0.95 0  -2.05 -0.95 0  -2 -0.95 0  -1.95 -0.95 0  -1.9 -0.95 0  -1.85 -0.95 0  -1.8 -0.95 0  -1.75 -0.95 0  -1.7 -0.95 0  -1.65 -0.95 0  -1.6 -0.95 0  -1.55 -0.95 0  -1.5 -0.95 0  -1.45 -0.95 0  -1.4 -0.95 0  -1.35 -0.95 0  -1.3 -0.95 0  -1.25 -0.95 0  -1.2 -0.95 0  -1.15 -0.95 0  -1.1 -0.95 0  -1.05 -0.95 0  -1 -0.95 0  -0.9500000000000002 -0.95 0  -0.9000000000000004 -0.95 0  -0.8499999999999996 -0.95 0  -0.7999999999999998 -0.95 0  -0.75 -0.95 0  -0.7000000000000002 -0.95 0  -0.6500000000000004 -0.95 0  -0.5999999999999996 -0.95 0  -0.5499999999999998 -0.95 0  -0.5 -0.95 0  -0.4500000000000002 -0.95 0  -0.4000000000000004 -0.95 0  -0.3499999999999996 -0.95 0  -0.2999999999999998 -0.95 0  -0.25 -0.95 0  -0.2000000000000002 -0.95 0  -0.1500000000000004 -0.95 0  -0.09999999999999964 -0.95 0  -0.04999999999999982 -0.95 0  0 -0.95 0  0.04999999999999982 -0.95 0  0.09999999999999964 -0.95 0  0.1500000000000004 -0.95 0  0.2000000000000002 -0.95 0  0.25 -0.95 0  0.2999999999999998 -0.95 0  0.3499999999999996 -0.95 0  0.4000000000000004 -0.95 0  0.4500000000000002 -0.95 0  0.5 -0.95 0  0.5499999999999998 -0.95 0  0.5999999999999996 -0.95 0  0.6500000000000004 -0.95 0  0.7000000000000002 -0.95 0  0.75 -0.95 0  0.7999999999999998 -0.95 0  0.8499999999999996 -0.95 0  0.9000000000000004 -0.95 0  0.9500000000000002 -0.95 0  1 -0.95 0  1.05 -0.95 0  1.1 -0.95 0  1.15 -0.95 0  1.2 -0.95 0  1.25 -0.95 0  1.3 -0.95 0  1.35 -0.95 0  1.4 -0.95 0  1.45 -0.95 0  1.5 -0.95 0  1.55 -0.95 0  1.6 -0.95 0  1.65 -0.95 0  1.7 -0.95 0  1.75 -0.95 0  1.8 -0.95 0  1.85 -0.95 0  1.9 -0.95 0  1.95 -0.95 0  2 -0.95 0  2.05 -0.95 0  2.1 -0.95 0  2.15 -0.95 0  2.2 -0.95 0  2.25 -0.95 0  2.3 -0.95 0  2.35 -0.95 0  2.4 -0.95 0  2.45 -0.95 0  2.5 -0.95 0  2.55 -0.95 0  2.6 -0.95 0  2.65 -0.95 0  2.7 -0.95 0  2.75 -0.95 0  2.8 -0.95 0  2.85 -0.95 0  2.9 -0.95 0  2.95 -0.95 0  3 -0.95 0  3.050000000000001 -0.95 0  3.1 -0.95 0  3.15 -0.95 0  3.199999999999999 -0.95 0  3.25 -0.95 0  3.300000000000001 -0.95 0  3.35 -0.95 0  3.4 -0.95 0  3.449999999999999 -0.95 0  3.5 -0.95 0  3.550000000000001 -0.95 0  3.6 -0.95 0  3.65 -0.95 0  3.699999999999999 -0.95 0  3.75 -0.95 0  3.800000000000001 -0.95 0  3.85 -0.95 0  3.9 -0.95 0  3.949999999999999 -0.95 0  4 -0.95 0  4.050000000000001 -0.95 0  4.1 -0.95 0  4.15 -0.95 0  4.199999999999999 -0.95 0  4.25 -0.95 0  4.300000000000001 -0.95 0  4.35 -0.95 0  4.4 -0.95 0  4.449999999999999 -0.95 0  4.5 -0.95 0  4.550000000000001 -0.95 0  4.6 -0.95 0  4.65 -0.95 0  4.699999999999999 -0.95 0  4.75 -0.95 0  4.800000000000001 -0.95 0  4.85 -0.95 0  4.9 -0.95 0  4.949999999999999 -0.95 0  5 -0.95 0  -5 -0.9 0  -4.95 -0.9 0  -4.9 -0.9 0  -4.85 -0.9 0  -4.8 -0.9 0  -4.75 -0.9 0  -4.7 -0.9 0  -4.65 -0.9 0  -4.6 -0.9 0  -4.55 -0.9 0  -4.5 -0.9 0  -4.45 -0.9 0  -4.4 -0.9 0  -4.35 -0.9 0  -4.3 -0.9 0  -4.25 -0.9 0  -4.2 -0.9 0  -4.15 -0.9 0  -4.1 -0.9 0  -4.05 -0.9 0  -4 -0.9 0  -3.95 -0.9 0  -3.9 -0.9 0  -3.85 -0.9 0  -3.8 -0.9 0  -3.75 -0.9 0  -3.7 -0.9 0  -3.65 -0.9 0  -3.6 -0.9 0  -3.55 -0.9 0  -3.5 -0.9 0  -3.45 -0.9 0  -3.4 -0.9 0  -3.35 -0.9 0  -3.3 -0.9 0  -3.25 -0.9 0  -3.2 -0.9 0  -3.15 -0.9 0  -3.1 -0.9 0  -3.05 -0.9 0  -3 -0.9 0  -2.95 -0.9 0  -2.9 -0.9 0  -2.85 -0.9 0  -2.8 -0.9 0  -2.75 -0.9 0  -2.7 -0.9 0  -2.65 -0.9 0  -2.6 -0.9 0  -2.55 -0.9 0  -2.5 -0.9 0  -2.45 -0.9 0  -2.4 -0.9 0  -2.35 -0.9 0  -2.3 -0.9 0  -2.25 -0.9 0  -2.2 -0.9 0  -2.15 -0.9 0  -2.1 -0.9 0  -2.05 -0.9 0  -2 -0.9 0  -1.95 -0.9 0  -1.9 -0.9 0  -1.85 -0.9 0  -1.8 -0.9 0  -1.75 -0.9 0  -1.7 -0.9 0  -1.65 -0.9 0  -1.6 -0.9 0  -1.55 -0.9 0  -1.5 -0.9 0  -1.45 -0.9 0  -1.4 -0.9 0  -1.35 -0.9 0  -1.3 -0.9 0  -1.25 -0.9 0  -1.2 -0.9 0  -1.15 -0.9 0  -1.1 -0.9 0  -1.05 -0.9 0  -1 -0.9 0  -0.9500000000000002 -0.9 0  -0.9000000000000004 -0.9 0  -0.8499999999999996 -0.9 0  -0.7999999999999998 -0.9 0  -0.75 -0.9 0  -0.7000000000000002 -0.9 0  -0.6500000000000004 -0.9 0  -0.5999999999999996 -0.9 0  -0.5499999999999998 -0.9 0  -0.5 -0.9 0  -0.4500000000000002 -0.9 0  -0.4000000000000004 -0.9 0  -0.3499999999999996 -0.9 0  -0.2999999999999998 -0.9 0  -0.25 -0.9 0  -0.2000000000000002 -0.9 0  -0.1500000000000004 -0.9 0  -0.09999999999999964 -0.9 0  -0.04999999999999982 -0.9 0  0 -0.9 0  0.04999999999999982 -0.9 0  0.09999999999999964 -0.9 0  0.1500000000000004 -0.9 0  0.2000000000000002 -0.9 0  0.25 -0.9 0  0.2999999999999998 -0.9 0  0.3499999999999996 -0.9 0  0.4000000000000004 -0.9 0  0.4500000000000002 -0.9 0  0.5 -0.9 0  0.5499999999999998 -0.9 0  0.5999999999999996 -0.9 0  0.6500000000000004 -0.9 0  0.7000000000000002 -0.9 0  0.75 -0.9 0  0.7999999999999998 -0.9 0  0.8499999999999996 -0.9 0  0.9000000000000004 -0.9 0  0.9500000000000002 -0.9 0  1 -0.9 0  1.05 -0.9 0  1.1 -0.9 0  1.15 -0.9 0  1.2 -0.9 0  1.25 -0.9 0  1.3 -0.9 0  1.35 -0.9 0  1.4 -0.9 0  1.45 -0.9 0  1.5 -0.9 0  1.55 -0.9 0  1.6 -0.9 0  1.65 -0.9 0  1.7 -0.9 0  1.75 -0.9 0  1.8 -0.9 0  1.85 -0.9 0  1.9 -0.9 0  1.95 -0.9 0  2 -0.9 0  2.05 -0.9 0  2.1 -0.9 0  2.15 -0.9 0  2.2 -0.9 0  2.25 -0.9 0  2.3 -0.9 0  2.35 -0.9 0  2.4 -0.9 0  2.45 -0.9 0  2.5 -0.9 0  2.55 -0.9 0  2.6 -0.9 0  2.65 -0.9 0  2.7 -0.9 0  2.75 -0.9 0  2.8 -0.9 0  2.85 -0.9 0  2.9 -0.9 0  2.95 -0.9 0  3 -0.9 0  3.050000000000001 -0.9 0  3.1 -0.9 0  3.15 -0.9 0  3.199999999999999 -0.9 0  3.25 -0.9 0  3.300000000000001 -0.9 0  3.35 -0.9 0  3.4 -0.9 0  3.449999999999999 -0.9 0  3.5 -0.9 0  3.550000000000001 -0.9 0  3.6 -0.9 0  3.65 -0.9 0  3.699999999999999 -0.9 0  3.75 -0.9 0  3.800000000000001 -0.9 0  3.85 -0.9 0  3.9 -0.9 0  3.949999999999999 -0.9 0  4 -0.9 0  4.050000000000001 -0.9 0  4.1 -0.9 0  4.15 -0.9 0  4.199999999999999 -0.9 0  4.25 -0.9 0  4.300000000000001 -0.9 0  4.35 -0.9 0  4.4 -0.9 0  4.449999999999999 -0.9 0  4.5 -0.9 0  4.550000000000001 -0.9 0  4.6 -0.9 0  4.65 -0.9 0  4.699999999999999 -0.9 0  4.75 -0.9 0  4.800000000000001 -0.9 0  4.85 -0.9 0  4.9 -0.9 0  4.949999999999999 -0.9 0  5 -0.9 0  -5 -0.85 0  -4.95 -0.85 0  -4.9 -0.85 0  -4.85 -0.85 0  -4.8 -0.85 0  -4.75 -0.85 0  -4.7 -0.85 0  -4.65 -0.85 0  -4.6 -0.85 0  -4.55 -0.85 0  -4.5 -0.85 0  -
[...]
<PointData  Vectors="f_15"> 
<DataArray  type="Float64"  Name="f_15"  NumberOfComponents="3" format="ascii">2.7371912142750161e+00 0.0000000000000000e+00 0.0000000000000000e+00  2.7371275182411825e+00 4.3960057558974780e-02 0.0000000000000000e+00  2.7348452952610649e+00 8.7497862647913482e-02 0.0000000000000000e+00  2.7333062304637168e+00 1.2936733741169987e-01 0.0000000000000000e+00  2.7288090153813931e+00 1.7556117142667507e-01 0.0000000000000000e+00  2.7254010733775762e+00 2.1434850109533521e-01 0.0000000000000000e+00  2.7192050151639453e+00 2.6137296673886368e-01 0.0000000000000000e+00  2.7138092776195983e+00 2.9794715975599112e-01 0.0000000000000000e+00  2.7056827070269960e+00 3.4503019063560342e-01 0.0000000000000000e+00  2.6988956642812973e+00 3.7913646547050117e-01 0.0000000000000000e+00  2.6885788109525781e+00 4.2648890853539911e-01 0.0000000000000000e+00  2.6803362863257929e+00 4.5772894614742149e-01 0.0000000000000000e+00  2.6684866593544965e+00 5.0486445557795601e-01 0.0000000000000000e+00  2.6585336120095318e+00 5.3377404600883549e-01 0.0000000000000000e+00  2.6451820180055918e+00 5.8088030271476032e-01 0.0000000000000000e+00  2.6342540111943582e+00 6.0612330636059630e-01 0.0000000000000000e+00  2.6192238333556119e+00 6.5564793340047889e-01 0.0000000000000000e+00  2.6072815818220478e+00 6.7531402392216644e-01 0.0000000000000000e+00  2.5915601280002374e+00 7.2859997257525688e-01 0.0000000000000000e+00  2.5782548900801863e+00 7.4245547352721530e-01 0.0000000000000000e+00  2.5618959054413306e+00 8.0072716964275326e-01 0.0000000000000000e+00  2.5482597246338439e+00 8.0651335812340430e-01 0.0000000000000000e+00  2.5307971832775671e+00 8.7393911853033512e-01 0.0000000000000000e+00  2.5169059898571171e+00 8.6769192055340472e-01 0.0000000000000000e+00  2.4993119687049132e+00 9.4796208719887887e-01 0.0000000000000000e+00  2.4847363964100548e+00 9.2736629268710935e-01 0.0000000000000000e+00  2.4667422312265010e+00 1.0224199109890728e+00 0.0000000000000000e+00  2.4528980683956076e+00 9.8764393872979772e-01 0.0000000000000000e+00  2.4333952102426508e+00 1.0927846859529187e+00 0.0000000000000000e+00  2.4206014808047485e+00 1.0563828564604378e+00 0.0000000000000000e+00  2.4003271788751577e+00 1.1531070744048437e+00 0.0000000000000000e+00  2.3881075340063713e+00 1.1311035983925501e+00 0.0000000000000000e+00  2.3666522482799679e+00 1.2188298400247197e+00 0.0000000000000000e+00  2.3562775620676550e+00 1.1886928106920256e+00 0.0000000000000000e+00  2.3329028012405031e+00 1.3061976889692206e+00 0.0000000000000000e+00  2.3238315333270649e+00 1.2358771567609717e+00 0.0000000000000000e+00  2.3003341886957265e+00 1.3817818092434866e+00 0.0000000000000000e+00  2.2910899586821660e+00 1.3168077594012770e+00 0.0000000000000000e+00  2.2677693020079737e+00 1.4199803865449074e+00 0.0000000000000000e+00  2.2587907493039276e+00 1.4159157613386788e+00 0.0000000000000000e+00  2.2353478763983183e+00 1.4698212761665443e+00 0.0000000000000000e+00  2.2254647129323955e+00 1.4844945704989885e+00 0.0000000000000000e+00  2.2039324986495155e+00 1.5428391813031448e+00 0.0000000000000000e+00  2.1925734686747038e+00 1.5550743416635544e+00 0.0000000000000000e+00  2.1713089212638779e+00 1.5961616960886231e+00 0.0000000000000000e+00  2.1624314370888764e+00 1.6428365164220666e+00 0.0000000000000000e+00  2.1374148737421610e+00 1.6501133052757795e+00 0.0000000000000000e+00  2.1322179086666662e+00 1.7223120948394774e+00 0.0000000000000000e+00  2.1054334183731189e+00 1.7095029396099419e+00 0.0000000000000000e+00  2.1001514177632248e+00 1.8030074176438087e+00 0.0000000000000000e+00  2.0747695678327456e+00 1.7719810941054983e+00 0.0000000000000000e+00  2.0685039964885088e+00 1.8748635841450689e+00 0.0000000000000000e+00  2.0435736126615636e+00 1.8420512804269322e+00 0.0000000000000000e+00  2.0377360864284797e+00 1.9454683962276675e+00 0.0000000000000000e+00  2.0125162403457990e+00 1.9115049708400556e+00 0.0000000000000000e+00  2.0072208981733461e+00 2.0136835466215683e+00 0.0000000000000000e+00  1.9818697292813592e+00 1.9829811135801541e+00 0.0000000000000000e+00  1.9771759771438271e+00 2.0785366910924390e+00 0.0000000000000000e+00  1.9522501910297991e+00 2.0569033032591184e+00 0.0000000000000000e+00  1.9469769378652140e+00 2.1401989825735606e+00 0.0000000000000000e+00  1.9242681651589095e+00 2.1248394057911897e+00 0.0000000000000000e+00  1.9179033677651507e+00 2.2045597045648222e+00 0.0000000000000000e+00  1.8970542053524440e+00 2.1914119733074484e+00 0.0000000000000000e+00  1.8914940506065980e+00 2.2585363808237360e+00 0.0000000000000000e+00  1.8726290444275000e+00 2.2546203904549302e+00 0.0000000000000000e+00  1.8684576907439352e+00 2.3044156530505173e+00 0.0000000000000000e+00  1.8545285278186365e+00 2.3030033948002209e+00 0.0000000000000000e+00  1.8519423622691782e+00 2.3375558356015405e+00 0.0000000000000000e+00  1.8449651080858716e+00 2.3290445972526230e+00 0.0000000000000000e+00  1.8449861303510091e+00 2.3482058647194402e+00 0.0000000000000000e+00  1.8433459664308329e+00 2.3390282597582526e+00 0.0000000000000000e+00  1.8443474978583130e+00 2.3433220364576726e+00 0.0000000000000000e+00  1.8455808307403523e+00 2.3409571142008305e+00 0.0000000000000000e+00  1.8439334741457263e+00 2.3349011190948641e+00 0.0000000000000000e+00  1.8482841458580446e+00 2.3448478089424163e+00 0.0000000000000000e+00  1.8433151929118765e+00 2.3250940566183140e+00 0.0000000000000000e+00  1.8498478139344332e+00 2.3524791970247572e+00 0.0000000000000000e+00  1.8430847331514053e+00 2.3144900261520438e+00 0.0000000000000000e+00  1.8515527014583046e+00 2.3579696635225567e+00 0.0000000000000000e+00  1.8418439502320969e+00 2.3082506059675469e+00 0.0000000000000000e+00  1.8536079919362771e+00 2.3612031818270212e+00 0.0000000000000000e+00  1.8407152618352871e+00 2.3043895019895571e+00 0.0000000000000000e+00  1.8545657999401983e+00 2.3629254391403864e+00 0.0000000000000000e+00  1.8404354986122189e+00 2.3022730665330555e+00 0.0000000000000000e+00  1.8556874119791418e+00 2.3620065616215733e+00 0.0000000000000000e+00  1.8390885018516319e+00 2.3039153170082800e+00 0.0000000000000000e+00  1.8569766606236686e+00 2.3601131214461484e+00 0.0000000000000000e+00  1.8386052962292014e+00 2.3044736692405250e+00 0.0000000000000000e+00  1.8570552282364068e+00 2.3592316233865969e+00 0.0000000000000000e+00  1.8390371871263689e+00 2.3044330585297286e+00 0.0000000000000000e+00  1.8573050529691959e+00 2.3582449687031439e+00 0.0000000000000000e+00  1.8381854891269747e+00 2.3058134711536939e+00 0.0000000000000000e+00  1.8578422328988389e+00 2.3576475288568997e+00 0.0000000000000000e+00  1.8387219927912721e+00 2.3042525715397293e+00 0.0000000000000000e+00  1.8566962299353489e+00 2.3598331383619167e+00 0.0000000000000000e+00  1.8398984677519168e+00 2.3017300887537298e+00 0.0000000000000000e+00  1.8563437286198612e+00 2.3615086504907432e+00 0.0000000000000000e+00  1.8393346055133459e+00 2.3007641161222039e+00 0.0000000000000000e+00  1.8571040608988600e+00 2.3620437207317253e+00 0.0000000000000000e+00  1.8393619464934374e+00 2.2991655989567863e+00 0.0000000000000000e+00  1.8563262674200602e+00 2.3642247187234484e+00 0.0000000000000000e+00  1.8400511099833061e+00 2.2971502149388732e+00 0.0000000000000000e+00  1.8566894836523022e+00 2.3644458615338784e+00 0.0000000000000000e+00  1.8387406379617255e+00 2.2980904912288294e+00 0.0000000000000000e+00  1.8579882519685098e+00 2.3631080093411310e+00 0.0000000000000000e+00  1.8381110775001679e+00 2.2986943017693662e+00 0.0000000000000000e+00  1.8581842706982814e+00 2.3623246563175035e+00 0.0000000000000000e+00  1.8377940583096297e+00 2.2995140914141099e+00 0.0000000000000000e+00  1.8590702286218528e+00 2.3604840377550338e+00 0.0000000000000000e+00  1.8361644534538204e+00 2.3025492910265131e+00 0.0000000000000000e+00  1.8607475522814632e+00 2.3562908166713905e+00 0.0000000000000000e+00  1.8354247250535816e+00 2.3055808087054337e+00 0.0000000000000000e+00  1.8605289854598372e+00 2.3542787890806194e+00 0.0000000000000000e+00  1.8355288647606662e+00 2.3071907023936098e+00 0.0000000000000000e+00  1.8608653029799855e+00 2.3518180697224071e+00 0.0000000000000000e+00  1.8353962343935739e+00 2.3083184619021768e+00 0.0000000000000000e+00  1.8604563549677868e+00 2.3508412265780994e+00 0.0000000000000000e+00  1.8356170799273219e+00 2.3093749180066538e+00 0.0000000000000000e+00  1.8608591141274666e+00 2.3480018276899055e+00 0.0000000000000000e+00  1.8348823953777054e+00 2.3118224301494705e+00 0.0000000000000000e+00  1.8613272383100190e+00 2.3457364259942168e+00 0.0000000000000000e+00  1.8349095847147305e+00 2.3136150904915409e+00 0.0000000000000000e+00  1.8606912929188228e+00 2.3433788081473410e+00 0.0000000000000000e+00  1.8357544863516495e+00 2.3164266017496860e+00 0.0000000000000000e+00  1.8601739862832662e+00 2.3391129217919300e+00 0.0000000000000000e+00  1.8361954696921297e+00 2.3210933088861458e+00 0.0000000000000000e+00  1.8582181481434485e+00 2.3368102359796565e+00 0.0000000000000000e+00  1.8406982849962430e+00 2.3187501930999801e+00 0.0000000000000000e+00  1.8523730004449059e+00 2.3414613632439671e+00 0.0000000000000000e+00  1.8454932350043147e+00 2.3157551077409644e+00 0.0000000000000000e+00  1.8493618311302797e+00 2.3411807264225724e+00 0.0000000000000000e+00  1.8482455349792946e+00 2.3152617002177824e+00 0.0000000000000000e+00  1.8452773906587676e+00 2.3449571691680906e+00 0.0000000000000000e+00  1.8531688288758934e+00 2.3090282503026431e+00 0.0000000000000000e+00  1.8412270485341686e+00 2.3499074332383323e+00 0.0000000000000000e+00  1.8552773112171101e+00 2.3073458067835908e+00 0.0000000000000000e+00  1.8405640863873149e+00 2.3489240493875978e+00 0.0000000000000000e+00  1.8554780374858242e+00 2.3066103826888251e+00 0.0000000000000000e+00  1.8402050553129912e+00 2.3462751988708366e+00 0.0000000000000000e+00  1.8560424386604444e+00 2.3035123080279436e+00 0.0000000000000000e+00  1.8395372860974157e+00 2.3406999144563239e+00 0.0000000000000000e+00  1.8565522715163869e+00 2.2994661843501012e+00 0.0000000000000000e+00  1.8394024788408989e+00 2.3341803494409468e+00 0.0000000000000000e+00  1.8562517043080866e+00 2.2967577017813365e+00 0.0000000000000000e+00  1.8396936814723881e+00 2.3284061209449671e+00 0.0000000000000000e+00  1.8565489145556524e+00 2.2973099060702968e+00 0.0000000000000000e+00  1.8386422832707401e+00 2.3275173601110777e+00 0.0000000000000000e+00  1.8578181450026343e+00 2.2982699510753779e+00 0.0000000000000000e+00  1.8379309359493403e+00 2.3308569880335801e+00 0.0000000000000000e+00  1.8578576918910366e+00 2.3019508384553649e+00 0.0000000000000000e+00  1.8382087010013664e+00 2.3327826280165920e+00 0.0000000000000000e+00  1.8580992913375729e+00 2.3063087624608789e+00 0.0000000000000000e+00  1.8381468055920616e+00 2.3354014751852623e+00 0.0000000000000000e+00  1.8580570540773116e+00 2.3077581968060343e+00 0.0000000000000000e+00  1.8397914829657480e+00 2.3360986877486103e+00 0.0000000000000000e+00  1.8573666151733441e+00 2.3092390180948819e+00 0.0000000000000000e+00  1.8413001275356411e+00 2.3344582028177228e+00 0.0000000000000000e+00  1.8587078763767408e+00 2.3064222841177058e+00 0.0000000000000000e+00  1.8435616970741406e+00 2.3335493902964934e+00 0.0000000000000000e+00  1.8588722657852066e+00 2.3000610429034452e+00 0.0000000000000000e+00  1.8492790283444456e+00 2.3285795973504526e+00 0.0000000000000000e+00  1.8597427784773515e+00 2.2929224980853435e+00 0.0000000000000000e+00  1.8543557661020884e+00 2.3199832821685797e+00 0.0000000000000000e+00  1.8625760741430515e+00 2.2841085718503398e+00 0.0000000000000000e+00  1.8613766600234321e+00 2.3097116962009783e+00 0.0000000000000000e+00  1.8629987161366228e+00 2.2740432664525949e+00 0.0000000000000000e+00  1.8690707891987106e+00 2.3017938982959807e+00 0.0000000000000000e+00  1.8645086359620604e+00 2.2639137239575833e+00 0.0000000000000000e+00  1.8735376541805191e+00 2.2945852278334895e+00 0.0000000000000000e+00  1.8642821439686701e+00 2.2614176023888559e+00 0.0000000000000000e+00  1.8790822335679103e+00 2.2862601392526769e+00 0.0000000000000000e+00  1.8608535754018123e+00 2.2616633985298171e+00 0.0000000000000000e+00  1.8808639897085175e+00 2.2864629013521975e+00 0.0000000000000000e+00  1.8605626974800116e+00 2.2596583063898033e+00 0.0000000000000000e+00  1.8785182282105888e+00 2.2892339053921646e+00 0.0000000000000000e+00  1.8575099134573276e+00 2.2665310455129370e+00 0.0000000000000000e+00  1.8795245509868135e+00 2.2875818236859327e+00 0.0000000000000000e+00  1.8517973308961486e+00 2.2763253985495440e+00 0.0000000000000000e+00  1.8767294547310969e+00 2.2938587849786085e+00 0.0000000000000000e+00  1.8522250031295697e+00 2.2785840342932109e+00 0.0000000000000000e+00  1.8692834005052525e+00 2.3064122626303312e+00 0.0000000000000000e+00  1.8515158688863627e+00 2.2838457311400022e+00 0.0000000000000000e+00  1.8672074429431447e+00 2.3126135742462974e+00 0.0000000000000000e+00  1.8466201201005377e+00 2.2928441542399560e+00 0.0000000000000000e+00  1.8657548935750448e+00 2.3140173908576953e+00 0.0000000000000000e+00  1.8463317499225558e+00 2.2854221621805824e+00 0.0000000000000000e+00  1.8608341385236304e+00 2.3089629189101211e+00 0.0000000000000000e+00  1.8471362393505553e+00 2.2611430113841786e+00 0.0000000000000000e+00  1.8603968382112306e+00 2.2895625379706441e+00 0.0000000000000000e+00  1.8431436529415695e+00 2.2439311923102410e+00 0.0000000000000000e+00  1.8634797627642330e+00 2.2700251956588540e+00 0.0000000000000000e+00  1.8401961196477605e+00 2.2458498907403235e+00 0.0000000000000000e+00  1.8638411483645241e+00 2.2683840420079147e+00 0.0000000000000000e+00  1.8415230258206576e+00 2.2569350431218460e+00 0.0000000000000000e+00  1.8594338199353930e+00 2.2664603276291859e+00 0.0000000000000000e+00  1.8291448716689893e+00 2.2459450844993878e+00 0.0000000000000000e+00  1.8207146538211376e+00 2.1884700232220564e+00 0.0000000000000000e+00  1.7420835016365392e+00 2.0675829922330085e+00 0.0000000000000000e+00  1.6419121444137876e+00 1.7535768464866055e+00 0.0000000000000000e+00  1.3263902185513381e+00 9.5283734366263562e-01 0.0000000000000000e+00  1.2093467761277958e+00 0.0000000000000000e+00 0.0000000000000000e+00  2.7389114994047694e+00 0.0000000000000000e+00 2.1655571747743988e-03  2.7380560112717527e+00 4.4015220720438251e-02 -2.0283586634701149e-03  2.7372339474203744e+00 8.9701767244786373e-02 2.9900798082271142e-03  2.7346826408397034e+00 1.3272623736391900e-01 -3.0062653796580525e-03  2.7316484618052246e+00 1.7854504180207487e-01 3.0227888022528330e-03  2.7276552778235250e+00 2.2008420440662491e-01 -3.0000511917325280e-03  2.7224368902318949e+00 2.6565194237609574e-01 3.1196128130277709e-03  2.7166842689753583e+00 3.0562532003441817e-01 -3.0018300868966644e-03  2.7098321142065953e+00 3.5004855141600577e-01 3.1205975616146677e-03  2.7020964929608651e+00 3.8901614868201168e-01 -3.1598929802119590e-03  2.6934967890664714e+00 4.3195274191219529e-01 3.2709090071737770e-03  2.6843920914283244e+00 4.6937967119959562e-01 -3.4139715659576133e-03  2.6737944724202225e+00 5.1136167564230639e-01 3.6418400134756216e-03  2.6633089401356567e+00 5.4698452202678793e-01 -3.9806968533247916e-03  2.6514110166094760e+00 5.8750371108072674e-01 4.4325959434622321e-03  2.6393328029790655e+00 6.2226004859052231e-01 -5.0086445620620198e-03  2.6261138008045237e+00 6.6111422671903586e-01 5.6789654641896323e-03  2.6133250837618069e+00 6.9438129043878449e-01 -6.4435297738794821e-03  2.5984880729365107e+00 7.3327946285937096e-01 7.2132494405325390e-03  2.5850119115706942e+00 7.6421824034630426e-01 -7.9838911455067611e-03  2.5695389771698900e+00 8.0308475682882341e-01 8.7268266448772367e-03  2.5549812514111241e+00 8.3343705584306926e-01 -9.4330614224326544e-03  2.5388996103830443e+00 8.7111423967898105e-01 1.0142101004089521e-02  2.5242798241063653e+00 9.0126438421462629e-01 -1.0620139886874654e-02  2.5071431581060502e+00 9.3896956579533541e-01 1.0754407661237158e-02  2.4922897915267850e+00 9.6819491986702766e-01 -1.0114603896395730e-02  2.4754329605750804e+00 1.0060848390615749e+00 8.6000623777495316e-03  2.4593828499132271e+00 1.0348759516446115e+00 -6.1047943556026994e-03  2.4429962138132169e+00 1.0740975833312887e+00 3.2107667089259682e-03  2.4267820834564056e+00 1.1000281396636002e+00 -7.5783459549587763e-04  2.4098901646626723e+00 1.1419287168282009e+00 8.8643686040780511e-05  2.3939330578828839e+00 1.1694607758295219e+00 -1.9351978740312947e-03  2.3767721259326269e+00 1.2025864425224366e+00 6.6684191711060391e-03  2.3613688851594228e+00 1.2446862362436368e+00 -1.2996610651360546e-02  2.3424483437885519e+00 1.2661407322167333e+00 2.0621024514091993e-02  2.3300574472846871e+00 1.3049802489459053e+00 -2.8671646669043430e-02  2.3072937708030370e+00 1.3535099775946196e+00 3.9235352579083067e-02  2.2988476966952236e+00 1.3429574507326019e+00 -5.2685416860248378e-02  2.2723806692320037e+00 1.4506557792352075e+00 6.8960876083094064e-02  2.2675188471054470e+00 1.3896498801822375e+00 -8.2378836079746276e-02  2.2375374050702792e+00 1.5286701438753383e+00 8.9081856502268478e-02  2.2355090437391993e+00 1.4570270076493159e+00 -8.2556436845067555e-02  2.2049739554990779e+00 1.5940108481463722e+00 6.8900504270928947e-02  2.2010137889259438e+00 1.5313029070751449e+00 -5.2171843533468952e-02  2.1749668355874472e+00 1.6510875563809777e+00 4.2416042249386179e-02  2.1661533286562324e+00 1.6141190599737385e+00 -3.9857156736465518e-02  2.1434335535189382e+00 1.7075956136758288e+00 4.1665164322350727e-02  2.1340121236649807e+00 1.6841684540983517e+00 -4.2470007040960552e-02  2.1101245290577704e+00 1.7802633840586646e+00 3.9371080025329713e-02  2.1023118585528295e+00 1.7508933730377079e+00 -3.3719839814373362e-02  2.0783041168694223e+00 1.8394130086787035e+00 2.7101095865993297e-02  2.0693205848091649e+00 1.8321506641360512e+00 -2.2493072842304972e-02  2.0476154844682664e+00 1.8973177124863705e+00 1.9424055768781485e-02  2.0368018773928469e+00 1.9037926343583431e+00 -1.8325585646100370e-02  2.0167122658536107e+00 1.9623777146321897e+00 1.6384323655873494e-02  2.0050969988205862e+00 1.9743457058936495e+00 -1.4662595611362007e-02  1.9861609188973532e+00 2.0259837025375638e+00 1.2593806374151317e-02  1.9741759908739309e+00 2.0448401272873773e+00 -1.1489340476204297e-02  1.9556745162150357e+00 2.0891232154905710e+00 9.8503397059853184e-03  1.9444828997021149e+00 2.1117783672457846e+00 -8.5515555269172691e-03  1.9262432326503682e+00 2.1557151774975347e+00 7.6744126164365037e-03  1.9153234251237601e+00 2.1758593275791585e+00 -7.6551971059901644e-03  1.8990513419196595e+00 2.2145959988952399e+00 7.3523956927348750e-03  1.8884703979138695e+00 2.2386650747871424e+00 -7.2481118288912618e-03  1.8740744449788080e+00 2.2702515146230016e+00 7.3674847263144024e-03  1.8665011780402421e+00 2.2884091328016298e+00 -7.7039250791636881e-03  1.8539809671308385e+00 2.3168830618530025e+00 7.9358232291633600e-03  1.8513681886985998e+00 2.3212880013129236e+00 -8.3814012258470495e-03  1.8430793080119336e+00 2.3429339938772982e+00 9.0000428336652893e-03  1.8451939715555905e+00 2.3361180487198858e+00 -9.3765852730014840e-03  1.8410697292547640e+00 2.3469765276007171e+00 9.7303534218315391e-03  1.8457869103593616e+00 2.3347523651506954e+00 -1.0411891103702890e-02  1.8416119886850872e+00 2.3453828564902302e+00 1.1051856324101873e-02  1.8475986231649200e+00 2.3319929885770034e+00 -1.1545544342112888e-02  1.8423832035396632e+00 2.3429821638670321e+00 1.2021901489687598e-02  1.8483923011344217e+00 2.3306560155809266e+00 -1.2573061722322055e-02  1.8436229631445178e+00 2.3405393642982966e+00 1.2994474228292975e-02  1.8490692085433338e+00 2.3282675543570632e+00 -1.3465018004545805e-02  1.8436644620724565e+00 2.3424115426740122e+00 1.3910669983862756e-02  1.8499926396701294e+00 2.3248781584702578e+00 -1.4163299978995689e-02  1.8439299447814279e+00 2.3434390360554689e+00 1.4041382692989149e-02  1.8498012943768147e+00 2.3233128203266800e+00 -1.3730161687435707e-02  1.8448665769451800e+00 2.3437723709981269