<?xml version="1.0"?>
<VTKFile type="UnstructuredGrid"  version="0.1"  >
<UnstructuredGrid>
<Piece  NumberOfPoints="8241" NumberOfCells="16000">
<Points>
<DataArray  type="Float64"  NumberOfComponents="3"  format="ascii">-5 -1 0  -4.95 -1 0  -4.9 -1 0  -4.85 -1 0  -4.8 -1 0  -4.75 -1 0  -4.7 -1 0  -4.65 -1 0  -4.6 -1 0  -4.55 -1 0  -4.5 -1 0  -4.45 -1 0  -4.4 -1 0  -4.35 -1 0  -4.3 -1 0  -4.25 -1 0  -4.2 -1 0  -4.15 -1 0  -4.1 -1 0  -4.05 -1 0  -4 -1 0  -3.95 -1 0  -3.9 -1 0  -3.85 -1 0  -3.8 -1 0  -3.75 -1 0  -3.7 -1 0  -3.65 -1 0  -3.6 -1 0  -3.55 -1 0  -3.5 -1 0  -3.45 -1 0  -3.4 -1 0  -3.35 -1 0  -3.3 -1 0  -3.25 -1 0  -3.2 -1 0  -3.15 -1 0  -3.1 -1 0  -3.05 -1 0  -3 -1 0  -2.95 -1 0  -2.9 -1 0  -2.85 -1 0  -2.8 -1 0  -2.75 -1 0  -2.7 -1 0  -2.65 -1 0  -2.6 -1 0  -2.55 -1 0  -2.5 -1 0  -2.45 -1 0  -2.4 -1 0  -2.35 -1 0  -2.3 -1 0  -2.25 -1 0  -2.2 -1 0  -2.15 -1 0  -2.1 -1 0  -2.05 -1 0  -2 -1 0  -1.95 -1 0  -1.9 -1 0  -1.85 -1 0  -1.8 -1 0  -1.75 -1 0  -1.7 -1 0  -1.65 -1 0  -1.6 -1 0  -1.55 -1 0  -1.5 -1 0  -1.45 -1 0  -1.4 -1 0  -1.35 -1 0  -1.3 -1 0  -1.25 -1 0  -1.2 -1 0  -1.15 -1 0  -1.1 -1 0  -1.05 -1 0  -1 -1 0  -0.9500000000000002 -1 0  -0.9000000000000004 -1 0  -0.8499999999999996 -1 0  -0.7999999999999998 -1 0  -0.75 -1 0  -0.7000000000000002 -1 0  -0.6500000000000004 -1 0  -0.5999999999999996 -1 0  -0.5499999999999998 -1 0  -0.5 -1 0  -0.4500000000000002 -1 0  -0.4000000000000004 -1 0  -0.3499999999999996 -1 0  -0.2999999999999998 -1 0  -0.25 -1 0  -0.2000000000000002 -1 0  -0.1500000000000004 -1 0  -0.09999999999999964 -1 0  -0.04999999999999982 -1 0  0 -1 0  0.04999999999999982 -1 0  0.09999999999999964 -1 0  0.1500000000000004 -1 0  0.2000000000000002 -1 0  0.25 -1 0  0.2999999999999998 -1 0  0.3499999999999996 -1 0  0.4000000000000004 -1 0  0.4500000000000002 -1 0  0.5 -1 0  0.5499999999999998 -1 0  0.5999999999999996 -1 0  0.6500000000000004 -1 0  0.7000000000000002 -1 0  0.75 -1 0  0.7999999999999998 -1 0  0.8499999999999996 -1 0  0.9000000000000004 -1 0  0.9500000000000002 -1 0  1 -1 0  1.05 -1 0  1.1 -1 0  1.15 -1 0  1.2 -1 0  1.25 -1 0  1.3 -1 0  1.35 -1 0  1.4 -1 0  1.45 -1 0  1.5 -1 0  1.55 -1 0  1.6 -1 0  1.65 -1 0  1.7 -1 0  1.75 -1 0  1.8 -1 0  1.85 -1 0  1.9 -1 0  1.95 -1 0  2 -1 0  2.05 -1 0  2.1 -1 0  2.15 -1 0  2.2 -1 0  2.25 -1 0  2.3 -1 0  2.35 -1 0  2.4 -1 0  2.45 -1 0  2.5 -1 0  2.55 -1 0  2.6 -1 0  2.65 -1 0  2.7 -1 0  2.75 -1 0  2.8 -1 0  2.85 -1 0  2.9 -1 0  2.95 -1 0  3 -1 0  3.050000000000001 -1 0  3.1 -1 0  3.15 -1 0  3.199999999999999 -1 0  3.25 -1 0  3.300000000000001 -1 0  3.35 -1 0  3.4 -1 0  3.449999999999999 -1 0  3.5 -1 0  3.550000000000001 -1 0  3.6 -1 0  3.65 -1 0  3.699999999999999 -1 0  3.75 -1 0  3.800000000000001 -1 0  3.85 -1 0  3.9 -1 0  3.949999999999999 -1 0  4 -1 0  4.050000000000001 -1 0  4.1 -1 0  4.15 -1 0  4.199999999999999 -1 0  4.25 -1 0  4.300000000000001 -1 0  4.35 -1 0  4.4 -1 0  4.449999999999999 -1 0  4.5 -1 0  4.550000000000001 -1 0  4.6 -1 0  4.65 -1 0  4.699999999999999 -1 0  4.75 -1 0  4.800000000000001 -1 0  4.85 -1 0  4.9 -1 0  4.949999999999999 -1 0  5 -1 0  -5 -0.95 0  -4.95 -0.95 0  -4.9 -0.95 0  -4.85 -0.95 0  -4.8 -0.95 0  -4.75 -0.95 0  -4.7 -0.95 0  -4.65 -0.95 0  -4.6 -0.95 0  -4.55 -0.95 0  -4.5 -0.95 0  -4.45 -0.95 0  -4.4 -0.95 0  -4.35 -0.95 0  -4.3 -0.95 0  -4.25 -0.95 0  -4.2 -0.95 0  -4.15 -0.95 0  -4.1 -0.95 0  -4.05 -0.95 0  -4 -0.95 0  -3.95 -0.95 0  -3.9 -0.95 0  -3.85 -0.95 0  -3.8 -0.95 0  -3.75 -0.95 0  -3.7 -0.95 0  -3.65 -0.95 0  -3.6 -0.95 0  -3.55 -0.95 0  -3.5 -0.95 0  -3.45 -0.95 0  -3.4 -0.95 0  -3.35 -0.95 0  -3.3 -0.95 0  -3.25 -0.95 0  -3.2 -0.95 0  -3.15 -0.95 0  -3.1 -0.95 0  -3.05 -0.95 0  -3 -0.95 0  -2.95 -0.95 0  -2.9 -0.95 0  -2.85 -0.95 0  -2.8 -0.95 0  -2.75 -0.95 0  -2.7 -0.95 0  -2.65 -0.95 0  -2.6 -0.95 0  -2.55 -0.95 0  -2.5 -0.95 0  -2.45 -0.95 0  -2.4 -0.95 0  -2.35 -0.95 0  -2.3 -0.95 0  -2.25 -0.95 0  -2.2 -0.95 0  -2.15 -0.95 0  -2.1 -0.95 0  -2.05 -0.95 0  -2 -0.95 0  -1.95 -0.95 0  -1.9 -0.95 0  -1.85 -0.95 0  -1.8 -0.95 0  -1.75 -0.95 0  -1.7 -0.95 0  -1.65 -0.95 0  -1.6 -0.95 0  -1.55 -0.95 0  -1.5 -0.95 0  -1.45 -0.95 0  -1.4 -0.95 0  -1.35 -0.95 0  -1.3 -0.95 0  -1.25 -0.95 0  -1.2 -0.95 0  -1.15 -0.95 0  -1.1 -0.95 0  -1.05 -0.95 0  -1 -0.95 0  -0.9500000000000002 -0.95 0  -0.9000000000000004 -0.95 0  -0.8499999999999996 -0.95 0  -0.7999999999999998 -0.95 0  -0.75 -0.95 0  -0.7000000000000002 -0.95 0  -0.6500000000000004 -0.95 0  -0.5999999999999996 -0.95 0  -0.5499999999999998 -0.95 0  -0.5 -0.95 0  -0.4500000000000002 -0.95 0  -0.4000000000000004 -0.95 0  -0.3499999999999996 -0.95 0  -0.2999999999999998 -0.95 0  -0.25 -0.95 0  -0.2000000000000002 -0.95 0  -0.1500000000000004 -0.95 0  -0.09999999999999964 -0.95 0  -0.04999999999999982 -0.95 0  0 -0.95 0  0.04999999999999982 -0.95 0  0.09999999999999964 -0.95 0  0.1500000000000004 -0.95 0  0.2000000000000002 -0.95 0  0.25 -0.95 0  0.2999999999999998 -0.95 0  0.3499999999999996 -0.95 0  0.4000000000000004 -0.95 0  0.4500000000000002 -0.95 0  0.5 -0.95 0  0.5499999999999998 -0.95 0  0.5999999999999996 -0.95 0  0.6500000000000004 -0.95 0  0.7000000000000002 -0.95 0  0.75 -0.95 0  0.7999999999999998 -0.95 0  0.8499999999999996 -0.95 0  0.9000000000000004 -0.95 0  0.9500000000000002 -0.95 0  1 -0.95 0  1.05 -0.95 0  1.1 -0.95 0  1.15 -0.95 0  1.2 -0.95 0  1.25 -0.95 0  1.3 -0.95 0  1.35 -0.95 0  1.4 -0.95 0  1.45 -0.95 0  1.5 -0.95 0  1.55 -0.95 0  1.6 -0.95 0  1.65 -0.95 0  1.7 -0.95 0  1.75 -0.95 0  1.8 -0.95 0  1.85 -0.95 0  1.9 -0.95 0  1.95 -0.95 0  2 -0.95 0  2.05 -0.95 0  2.1 -0.95 0  2.15 -0.95 0  2.2 -0.95 0  2.25 -0.95 0  2.3 -0.95 0  2.35 -0.95 0  2.4 -0.95 0  2.45 -0.95 0  2.5 -0.95 0  2.55 -0.95 0  2.6 -0.95 0  2.65 -0.95 0  2.7 -0.95 0  2.75 -0.95 0  2.8 -0.95 0  2.85 -0.95 0  2.9 -0.95 0  2.95 -0.95 0  3 -0.95 0  3.050000000000001 -0.95 0  3.1 -0.95 0  3.15 -0.95 0  3.199999999999999 -0.95 0  3.25 -0.95 0  3.300000000000001 -0.95 0  3.35 -0.95 0  3.4 -0.95 0  3.449999999999999 -0.95 0  3.5 -0.95 0  3.550000000000001 -0.95 0  3.6 -0.95 0  3.65 -0.95 0  3.699999999999999 -0.95 0  3.75 -0.95 0  3.800000000000001 -0.95 0  3.85 -0.95 0  3.9 -0.95 0  3.949999999999999 -0.95 0  4 -0.95 0  4.050000000000001 -0.95 0  4.1 -0.95 0  4.15 -0.95 0  4.199999999999999 -0.95 0  4.25 -0.95 0  4.300000000000001 -0.95 0  4.35 -0.95 0  4.4 -0.95 0  4.449999999999999 -0.95 0  4.5 -0.95 0  4.550000000000001 -0.95 0  4.6 -0.95 0  4.65 -0.95 0  4.699999999999999 -0.95 0  4.75 -0.95 0  4.800000000000001 -0.95 0  4.85 -0.95 0  4.9 -0.95 0  4.949999999999999 -0.95 0  5 -0.95 0  -5 -0.9 0  -4.95 -0.9 0  -4.9 -0.9 0  -4.85 -0.9 0  -4.8 -0.9 0  -4.75 -0.9 0  -4.7 -0.9 0  -4.65 -0.9 0  -4.6 -0.9 0  -4.55 -0.9 0  -4.5 -0.9 0  -4.45 -0.9 0  -4.4 -0.9 0  -4.35 -0.9 0  -4.3 -0.9 0  -4.25 -0.9 0  -4.2 -0.9 0  -4.15 -0.9 0  -4.1 -0.9 0  -4.05 -0.9 0  -4 -0.9 0  -3.95 -0.9 0  -3.9 -0.9 0  -3.85 -0.9 0  -3.8 -0.9 0  -3.75 -0.9 0  -3.7 -0.9 0  -3.65 -0.9 0  -3.6 -0.9 0  -3.55 -0.9 0  -3.5 -0.9 0  -3.45 -0.9 0  -3.4 -0.9 0  -3.35 -0.9 0  -3.3 -0.9 0  -3.25 -0.9 0  -3.2 -0.9 0  -3.15 -0.9 0  -3.1 -0.9 0  -3.05 -0.9 0  -3 -0.9 0  -2.95 -0.9 0  -2.9 -0.9 0  -2.85 -0.9 0  -2.8 -0.9 0  -2.75 -0.9 0  -2.7 -0.9 0  -2.65 -0.9 0  -2.6 -0.9 0  -2.55 -0.9 0  -2.5 -0.9 0  -2.45 -0.9 0  -2.4 -0.9 0  -2.35 -0.9 0  -2.3 -0.9 0  -2.25 -0.9 0  -2.2 -0.9 0  -2.15 -0.9 0  -2.1 -0.9 0  -2.05 -0.9 0  -2 -0.9 0  -1.95 -0.9 0  -1.9 -0.9 0  -1.85 -0.9 0  -1.8 -0.9 0  -1.75 -0.9 0  -1.7 -0.9 0  -1.65 -0.9 0  -1.6 -0.9 0  -1.55 -0.9 0  -1.5 -0.9 0  -1.45 -0.9 0  -1.4 -0.9 0  -1.35 -0.9 0  -1.3 -0.9 0  -1.25 -0.9 0  -1.2 -0.9 0  -1.15 -0.9 0  -1.1 -0.9 0  -1.05 -0.9 0  -1 -0.9 0  -0.9500000000000002 -0.9 0  -0.9000000000000004 -0.9 0  -0.8499999999999996 -0.9 0  -0.7999999999999998 -0.9 0  -0.75 -0.9 0  -0.7000000000000002 -0.9 0  -0.6500000000000004 -0.9 0  -0.5999999999999996 -0.9 0  -0.5499999999999998 -0.9 0  -0.5 -0.9 0  -0.4500000000000002 -0.9 0  -0.4000000000000004 -0.9 0  -0.3499999999999996 -0.9 0  -0.2999999999999998 -0.9 0  -0.25 -0.9 0  -0.2000000000000002 -0.9 0  -0.1500000000000004 -0.9 0  -0.09999999999999964 -0.9 0  -0.04999999999999982 -0.9 0  0 -0.9 0  0.04999999999999982 -0.9 0  0.09999999999999964 -0.9 0  0.1500000000000004 -0.9 0  0.2000000000000002 -0.9 0  0.25 -0.9 0  0.2999999999999998 -0.9 0  0.3499999999999996 -0.9 0  0.4000000000000004 -0.9 0  0.4500000000000002 -0.9 0  0.5 -0.9 0  0.5499999999999998 -0.9 0  0.5999999999999996 -0.9 0  0.6500000000000004 -0.9 0  0.7000000000000002 -0.9 0  0.75 -0.9 0  0.7999999999999998 -0.9 0  0.8499999999999996 -0.9 0  0.9000000000000004 -0.9 0  0.9500000000000002 -0.9 0  1 -0.9 0  1.05 -0.9 0  1.1 -0.9 0  1.15 -0.9 0  1.2 -0.9 0  1.25 -0.9 0  1.3 -0.9 0  1.35 -0.9 0  1.4 -0.9 0  1.45 -0.9 0  1.5 -0.9 0  1.55 -0.9 0  1.6 -0.9 0  1.65 -0.9 0  1.7 -0.9 0  1.75 -0.9 0  1.8 -0.9 0  1.85 -0.9 0  1.9 -0.9 0  1.95 -0.9 0  2 -0.9 0  2.05 -0.9 0  2.1 -0.9 0  2.15 -0.9 0  2.2 -0.9 0  2.25 -0.9 0  2.3 -0.9 0  2.35 -0.9 0  2.4 -0.9 0  2.45 -0.9 0  2.5 -0.9 0  2.55 -0.9 0  2.6 -0.9 0  2.65 -0.9 0  2.7 -0.9 0  2.75 -0.9 0  2.8 -0.9 0  2.85 -0.9 0  2.9 -0.9 0  2.95 -0.9 0  3 -0.9 0  3.050000000000001 -0.9 0  3.1 -0.9 0  3.15 -0.9 0  3.199999999999999 -0.9 0  3.25 -0.9 0  3.300000000000001 -0.9 0  3.35 -0.9 0  3.4 -0.9 0  3.449999999999999 -0.9 0  3.5 -0.9 0  3.550000000000001 -0.9 0  3.6 -0.9 0  3.65 -0.9 0  3.699999999999999 -0.9 0  3.75 -0.9 0  3.800000000000001 -0.9 0  3.85 -0.9 0  3.9 -0.9 0  3.949999999999999 -0.9 0  4 -0.9 0  4.050000000000001 -0.9 0  4.1 -0.9 0  4.15 -0.9 0  4.199999999999999 -0.9 0  4.25 -0.9 0  4.300000000000001 -0.9 0  4.35 -0.9 0  4.4 -0.9 0  4.449999999999999 -0.9 0  4.5 -0.9 0  4.550000000000001 -0.9 0  4.6 -0.9 0  4.65 -0.9 0  4.699999999999999 -0.9 0  4.75 -0.9 0  4.800000000000001 -0.9 0  4.85 -0.9 0  4.9 -0.9 0  4.949999999999999 -0.9 0  5 -0.9 0  -5 -0.85 0  -4.95 -0.85 0  -4.9 -0.85 0  -4.85 -0.85 0  -4.8 -0.85 0  -4.75 -0.85 0  -4.7 -0.85 0  -4.65 -0.85 0  -4.6 -0.85 0  -4.55 -0.85 0  -4.5 -0.85 0  -
[...]
<PointData  Vectors="f_15"> 
<DataArray  type="Float64"  Name="f_15"  NumberOfComponents="3" format="ascii">1.6013288751623358e+00 0.0000000000000000e+00 0.0000000000000000e+00  1.6006889537284015e+00 3.6501222194646063e-02 0.0000000000000000e+00  1.6012424925734721e+00 7.5503872080474474e-02 0.0000000000000000e+00  1.6006704493425532e+00 1.1104442521606626e-01 0.0000000000000000e+00  1.6011840063768479e+00 1.4998382793484341e-01 0.0000000000000000e+00  1.6005756088065333e+00 1.8572124912858137e-01 0.0000000000000000e+00  1.6010973341274060e+00 2.2447277948846703e-01 0.0000000000000000e+00  1.6004641044144206e+00 2.6023571894552733e-01 0.0000000000000000e+00  1.6009637422906937e+00 2.9902629510686168e-01 0.0000000000000000e+00  1.6003258890333760e+00 3.3468320246508287e-01 0.0000000000000000e+00  1.6007982681505075e+00 3.7349147883586681e-01 0.0000000000000000e+00  1.6001522191411652e+00 4.0909962760054563e-01 0.0000000000000000e+00  1.6006011591562639e+00 4.4787714386311001e-01 0.0000000000000000e+00  1.5999525868911166e+00 4.8342713690144029e-01 0.0000000000000000e+00  1.6003635238088423e+00 5.2214872214499353e-01 0.0000000000000000e+00  1.5997353871666931e+00 5.5770731536869755e-01 0.0000000000000000e+00  1.6000941672618976e+00 5.9624673730435684e-01 0.0000000000000000e+00  1.5994879537837139e+00 6.3187422654036085e-01 0.0000000000000000e+00  1.5998104785154068e+00 6.7025349523325939e-01 0.0000000000000000e+00  1.5992184762552277e+00 7.0582499058766035e-01 0.0000000000000000e+00  1.5994973371551804e+00 7.4410727104183205e-01 0.0000000000000000e+00  1.5989512739174292e+00 7.7965820961361321e-01 0.0000000000000000e+00  1.5991670659713035e+00 8.1767581283410673e-01 0.0000000000000000e+00  1.5986647379901342e+00 8.5328947447076786e-01 0.0000000000000000e+00  1.5988573669597759e+00 8.9108709388806639e-01 0.0000000000000000e+00  1.5983716354317357e+00 9.2656560107321295e-01 0.0000000000000000e+00  1.5985456859711913e+00 9.6420722326449193e-01 0.0000000000000000e+00  1.5981230566066662e+00 9.9963053252773004e-01 0.0000000000000000e+00  1.5982485249380223e+00 1.0368854991193783e+00 0.0000000000000000e+00  1.5978975831375291e+00 1.0722875363810651e+00 0.0000000000000000e+00  1.5980366055386992e+00 1.1092553760375525e+00 0.0000000000000000e+00  1.5977165529641086e+00 1.1443649541710139e+00 0.0000000000000000e+00  1.5978983529881192e+00 1.1810792655870979e+00 0.0000000000000000e+00  1.5976770267155109e+00 1.2159601336896393e+00 0.0000000000000000e+00  1.5978660466958570e+00 1.2521164207026421e+00 0.0000000000000000e+00  1.5977913423710257e+00 1.2867835414806925e+00 0.0000000000000000e+00  1.5980737867371544e+00 1.3224021209651147e+00 0.0000000000000000e+00  1.5981175070644178e+00 1.3564835750078272e+00 0.0000000000000000e+00  1.5985804610627961e+00 1.3915450762369073e+00 0.0000000000000000e+00  1.5988494407506544e+00 1.4249671763004568e+00 0.0000000000000000e+00  1.5994994309070367e+00 1.4590074151428338e+00 0.0000000000000000e+00  1.6001337190784433e+00 1.4916563484056478e+00 0.0000000000000000e+00  1.6011263136214620e+00 1.5244501341760570e+00 0.0000000000000000e+00  1.6021889636510842e+00 1.5557064357346129e+00 0.0000000000000000e+00  1.6037514257533347e+00 1.5869859553184584e+00 0.0000000000000000e+00  1.6054566988798764e+00 1.6164009483892194e+00 0.0000000000000000e+00  1.6077368742683318e+00 1.6453934316363503e+00 0.0000000000000000e+00  1.6103730487135886e+00 1.6725404699466333e+00 0.0000000000000000e+00  1.6136141209935229e+00 1.6987262527259863e+00 0.0000000000000000e+00  1.6172978142891576e+00 1.7228911896500683e+00 0.0000000000000000e+00  1.6216948619226212e+00 1.7461520715521053e+00 0.0000000000000000e+00  1.6264396910259451e+00 1.7672900733859331e+00 0.0000000000000000e+00  1.6318217219697180e+00 1.7877206184899379e+00 0.0000000000000000e+00  1.6374454898284176e+00 1.8065762351668198e+00 0.0000000000000000e+00  1.6434670034136007e+00 1.8250258417672105e+00 0.0000000000000000e+00  1.6495232908673458e+00 1.8423425905334834e+00 0.0000000000000000e+00  1.6558753632131074e+00 1.8598606255255787e+00 0.0000000000000000e+00  1.6620424486519594e+00 1.8763478523894763e+00 0.0000000000000000e+00  1.6684537914902033e+00 1.8932852604046830e+00 0.0000000000000000e+00  1.6746341791524944e+00 1.9093959786724368e+00 0.0000000000000000e+00  1.6810012441892104e+00 1.9259181596943393e+00 0.0000000000000000e+00  1.6871076409977914e+00 1.9415786765351064e+00 0.0000000000000000e+00  1.6934362180527633e+00 1.9578195868964261e+00 0.0000000000000000e+00  1.6994374857131582e+00 1.9730243762925466e+00 0.0000000000000000e+00  1.7056793804783663e+00 1.9888251083843784e+00 0.0000000000000000e+00  1.7115844733732677e+00 2.0036558357407084e+00 0.0000000000000000e+00  1.7177091527180819e+00 2.0189885482587187e+00 0.0000000000000000e+00  1.7234813765427814e+00 2.0333073096152994e+00 0.0000000000000000e+00  1.7294766043815302e+00 2.0482108007020705e+00 0.0000000000000000e+00  1.7350939871248345e+00 2.0620013980580700e+00 0.0000000000000000e+00  1.7409216502124465e+00 2.0763367235118433e+00 0.0000000000000000e+00  1.7463640620455387e+00 2.0896183846039178e+00 0.0000000000000000e+00  1.7519990236929777e+00 2.1033620732428071e+00 0.0000000000000000e+00  1.7572362704208913e+00 2.1160188907899848e+00 0.0000000000000000e+00  1.7626407068949810e+00 2.1291442201128654e+00 0.0000000000000000e+00  1.7676609214681513e+00 2.1411748606838525e+00 0.0000000000000000e+00  1.7727975944162877e+00 2.1535616338039212e+00 0.0000000000000000e+00  1.7775610375818893e+00 2.1649182716868260e+00 0.0000000000000000e+00  1.7824208722657735e+00 2.1765827341884139e+00 0.0000000000000000e+00  1.7868934920195465e+00 2.1871468998675927e+00 0.0000000000000000e+00  1.7914257029772205e+00 2.1980218742304265e+00 0.0000000000000000e+00  1.7956186241029484e+00 2.2078403224335554e+00 0.0000000000000000e+00  1.7997786518963839e+00 2.2178065237751059e+00 0.0000000000000000e+00  1.8036448228922299e+00 2.2268001338378287e+00 0.0000000000000000e+00  1.8074611213653251e+00 2.2359495770872471e+00 0.0000000000000000e+00  1.8109531359998319e+00 2.2439854168338615e+00 0.0000000000000000e+00  1.8143825158284852e+00 2.2522532491014164e+00 0.0000000000000000e+00  1.8175528296804928e+00 2.2594613500267764e+00 0.0000000000000000e+00  1.8205441846575312e+00 2.2667223037728128e+00 0.0000000000000000e+00  1.8233569760856447e+00 2.2730464653445499e+00 0.0000000000000000e+00  1.8259927647235110e+00 2.2794963246587772e+00 0.0000000000000000e+00  1.8283920926995201e+00 2.2847801453944503e+00 0.0000000000000000e+00  1.8306536196946575e+00 2.2904374314049232e+00 0.0000000000000000e+00  1.8327395181903146e+00 2.2948862734026987e+00 0.0000000000000000e+00  1.8345769949384620e+00 2.2996232074503946e+00 0.0000000000000000e+00  1.8363455415575274e+00 2.3032799366338326e+00 0.0000000000000000e+00  1.8378788197551279e+00 2.3073492885724516e+00 0.0000000000000000e+00  1.8392784410132210e+00 2.3100663857687467e+00 0.0000000000000000e+00  1.8405272548258003e+00 2.3135968563230871e+00 0.0000000000000000e+00  1.8416798544226070e+00 2.3155925307171445e+00 0.0000000000000000e+00  1.8425958808176690e+00 2.3184783752655855e+00 0.0000000000000000e+00  1.8435454834790550e+00 2.3199127884224575e+00 0.0000000000000000e+00  1.8442404277279190e+00 2.3223157980794205e+00 0.0000000000000000e+00  1.8449367746244598e+00 2.3231843874677032e+00 0.0000000000000000e+00  1.8454769552081465e+00 2.3252014749172392e+00 0.0000000000000000e+00  1.8460148324526013e+00 2.3256491479175847e+00 0.0000000000000000e+00  1.8463449224239992e+00 2.3273589882783177e+00 0.0000000000000000e+00  1.8468099002333336e+00 2.3273780798843036e+00 0.0000000000000000e+00  1.8469936531880040e+00 2.3289358062967667e+00 0.0000000000000000e+00  1.8473350242545761e+00 2.3287013470442477e+00 0.0000000000000000e+00  1.8474629149725779e+00 2.3298650388572173e+00 0.0000000000000000e+00  1.8477206338137462e+00 2.3297420720042612e+00 0.0000000000000000e+00  1.8477389446333350e+00 2.3305638363762622e+00 0.0000000000000000e+00  1.8480080860597987e+00 2.3302040202405681e+00 0.0000000000000000e+00  1.8479279104200375e+00 2.3312994254260069e+00 0.0000000000000000e+00  1.8481686312029160e+00 2.3304120349316615e+00 0.0000000000000000e+00  1.8480692327943022e+00 2.3316077445234948e+00 0.0000000000000000e+00  1.8482762495091893e+00 2.3308999516625692e+00 0.0000000000000000e+00  1.8481327569691768e+00 2.3314926148921455e+00 0.0000000000000000e+00  1.8483636939811179e+00 2.3312631557374179e+00 0.0000000000000000e+00  1.8481704593362631e+00 2.3316654805436312e+00 0.0000000000000000e+00  1.8483966805918484e+00 2.3310996276675549e+00 0.0000000000000000e+00  1.8482122711952464e+00 2.3320312562235341e+00 0.0000000000000000e+00  1.8484081167417767e+00 2.3310646844719827e+00 0.0000000000000000e+00  1.8482282806940737e+00 2.3318659225296683e+00 0.0000000000000000e+00  1.8484231760055521e+00 2.3315186855547725e+00 0.0000000000000000e+00  1.8482348481608020e+00 2.3314941732043963e+00 0.0000000000000000e+00  1.8484198229443964e+00 2.3316859531024594e+00 0.0000000000000000e+00  1.8482588066236452e+00 2.3316521461878268e+00 0.0000000000000000e+00  1.8483994988837913e+00 2.3313834016995783e+00 0.0000000000000000e+00  1.8482753831621741e+00 2.3318974486464192e+00 0.0000000000000000e+00  1.8483881706617473e+00 2.3313982179248720e+00 0.0000000000000000e+00  1.8482349559728264e+00 2.3317290539629894e+00 0.0000000000000000e+00  1.8483132995563292e+00 2.3318637630651518e+00 0.0000000000000000e+00  1.8480725398755506e+00 2.3317768102624252e+00 0.0000000000000000e+00  1.8480308487896979e+00 2.3323610357303437e+00 0.0000000000000000e+00  1.8477084701621644e+00 2.3324725849904611e+00 0.0000000000000000e+00  1.8475971612477979e+00 2.3328541975385773e+00 0.0000000000000000e+00  1.8473897477523524e+00 2.3330343961152811e+00 0.0000000000000000e+00  1.8474556320003954e+00 2.3328515679934863e+00 0.0000000000000000e+00  1.8477216809839863e+00 2.3325791895706423e+00 0.0000000000000000e+00  1.8479425588366123e+00 2.3317324976674620e+00 0.0000000000000000e+00  1.8486319675880205e+00 2.3314723571138440e+00 0.0000000000000000e+00  1.8485482523889689e+00 2.3302580716449728e+00 0.0000000000000000e+00  1.8494214692659843e+00 2.3311487232473032e+00 0.0000000000000000e+00  1.8484765812871580e+00 2.3283912541513194e+00 0.0000000000000000e+00  1.8505906717815153e+00 2.3327972163709707e+00 0.0000000000000000e+00  1.8480105331144838e+00 2.3237671774953390e+00 0.0000000000000000e+00  1.8532445092370458e+00 2.3331885309139215e+00 0.0000000000000000e+00  1.8214289811899831e+00 2.3834997677180536e+00 0.0000000000000000e+00  2.0159557406336570e+00 1.9702323792264735e+00 0.0000000000000000e+00  2.5994917247353033e+00 6.6680755722151142e-01 0.0000000000000000e+00  2.9245643346713250e+00 9.2713993613695020e-02 0.0000000000000000e+00  2.9760385650321308e+00 6.9206077738537021e-03 0.0000000000000000e+00  2.9616525140919152e+00 1.2729863361759195e-02 0.0000000000000000e+00  2.9702223371268359e+00 -6.5544991490170692e-04 0.0000000000000000e+00  2.9719848431364198e+00 3.4373990818219592e-04 0.0000000000000000e+00  2.9707216449894696e+00 -4.8988419940876268e-05 0.0000000000000000e+00  2.9726259558291912e+00 -3.5178186732872886e-03 0.0000000000000000e+00  2.9724444533597096e+00 -2.8179703376836375e-03 0.0000000000000000e+00  2.9717228052203333e+00 -1.4174351559717259e-03 0.0000000000000000e+00  2.9716082627205958e+00 -1.8226640256059370e-03 0.0000000000000000e+00  2.9720246728003605e+00 -2.0718304174618687e-03 0.0000000000000000e+00  2.9719609992489220e+00 -2.5938945285478893e-03 0.0000000000000000e+00  2.9720166513520119e+00 -2.3879883974477654e-03 0.0000000000000000e+00  2.9718435003089594e+00 -2.9337821372597346e-03 0.0000000000000000e+00  2.9719260581312978e+00 -2.8289467311786638e-03 0.0000000000000000e+00  2.9718505414345442e+00 -3.9248698215007651e-03 0.0000000000000000e+00  2.9719891404982661e+00 -4.0089456114309682e-03 0.0000000000000000e+00  2.9718315130165278e+00 -5.1558079673013459e-03 0.0000000000000000e+00  2.9719754301647496e+00 -5.4114481032244369e-03 0.0000000000000000e+00  2.9717989414942778e+00 -6.4027836385610768e-03 0.0000000000000000e+00  2.9719883230868733e+00 -6.6301666480182821e-03 0.0000000000000000e+00  2.9717882655895620e+00 -7.4989052099424473e-03 0.0000000000000000e+00  2.9719849423914084e+00 -7.4480070225469135e-03 0.0000000000000000e+00  2.9717863615192632e+00 -8.0401159326484346e-03 0.0000000000000000e+00  2.9719736201470277e+00 -8.0418173097940252e-03 0.0000000000000000e+00  2.9717814107493781e+00 -8.2569125404798101e-03 0.0000000000000000e+00  2.9719746308224417e+00 -8.2856115495299181e-03 0.0000000000000000e+00  2.9717856085216723e+00 -8.4650747276917866e-03 0.0000000000000000e+00  2.9719648951408870e+00 -8.3502919222252208e-03 0.0000000000000000e+00  2.9717948774356810e+00 -8.5337763666170786e-03 0.0000000000000000e+00  2.9719712861109389e+00 -8.4896356702028504e-03 0.0000000000000000e+00  2.9717923138914437e+00 -8.5326265771003950e-03 0.0000000000000000e+00  2.9719842643928760e+00 -8.5205065165907257e-03 0.0000000000000000e+00  2.9718032713155735e+00 -8.7616723375192433e-03 0.0000000000000000e+00  2.9719824924329634e+00 -8.3543270115769529e-03 0.0000000000000000e+00  2.9718208414146061e+00 -9.0035102782181006e-03 0.0000000000000000e+00  2.9719887528086342e+00 -8.5427303276625829e-03 0.0000000000000000e+00  2.9718249953179305e+00 -8.7159185982695186e-03 0.0000000000000000e+00  2.9719955343380300e+00 -8.8500893363810153e-03 0.0000000000000000e+00  2.9718406222955611e+00 -8.8570788321809518e-03 0.0000000000000000e+00  2.9719802721016890e+00 -8.5319796559676434e-03 0.0000000000000000e+00  2.9718640939859577e+00 -9.8680514825185157e-03 0.0000000000000000e+00  2.9719718996021740e+00 -8.3036028193428767e-03 0.0000000000000000e+00  2.9718712879501470e+00 -9.8187219327295263e-03 0.0000000000000000e+00  2.9719706381741418e+00 -9.5991421224750767e-03 0.0000000000000000e+00  2.9718947674703591e+00 -8.8341895963963777e-03 0.0000000000000000e+00  2.9719462250985522e+00 -1.4715109957954334e-02 0.0000000000000000e+00  2.9719319588549928e+00 -1.0256327812946244e-02 0.0000000000000000e+00  2.9719427981578943e+00 0.0000000000000000e+00 0.0000000000000000e+00  1.6010148259585535e+00 0.0000000000000000e+00 7.2373890464151136e-04  1.6008567401125955e+00 3.7468968863507104e-02 -1.8072235775569301e-04  1.6009898240866505e+00 7.4378344547187378e-02 -8.5312979615332076e-05  1.6008926951541886e+00 1.1182933386528907e-01 -3.4446831898748613e-05  1.6009060714308385e+00 1.4926478277047961e-01 8.3617934580877920e-05  1.6008520100498114e+00 1.8632429177357784e-01 -1.2282061166561648e-04  1.6008173793346343e+00 2.2382405224445923e-01 1.3445492053380109e-04  1.6007459362960434e+00 2.6092501609170465e-01 -1.3539203116466177e-04  1.6006943289947442e+00 2.9830712166554174e-01 1.2768282601297905e-04  1.6006079311417658e+00 3.3542033066771731e-01 -1.1731755470110443e-04  1.6005286646994741e+00 3.7276666427936272e-01 1.0314078013922928e-04  1.6004374488248079e+00 4.0984986866713008e-01 -8.7097651489853489e-05  1.6003333941099709e+00 4.4711812844529747e-01 6.7839588287980964e-05  1.6002279064445593e+00 4.8421089923322297e-01 -4.8909503902446708e-05  1.6001143802007296e+00 5.2139364708568270e-01 3.0570583037195285e-05  1.5999886984220444e+00 5.5843462196800397e-01 -1.4823886937103928e-05  1.5998614536488009e+00 5.9556219200092331e-01 -1.5798946387433599e-06  1.5997330742765183e+00 6.3256967593920577e-01 1.8660910917778725e-05  1.5995835910772276e+00 6.6953755247328606e-01 -3.7683494045022311e-05  1.5994468321356068e+00 7.0657082336573085e-01 5.5651938596609641e-05  1.5993020900702044e+00 7.4339472921543737e-01 -7.2277651001609932e-05  1.5991409792901954e+00 7.8031600895274433e-01 8.4370899440435482e-05  1.5989977367392962e+00 8.1707642127981184e-01 -9.1953122519399891e-05  1.5988478397018637e+00 8.5390277383089852e-01 9.5419055618537827e-05  1.5986835134054644e+00 8.9044158447353527e-01 -9.9729086643595802e-05  1.5985450605422107e+00 9.2722670229571802e-01 1.0500573179057435e-04  1.5984052032527405e+00 9.6361448520648008e-01 -1.0933474513178485e-04  1.5982483937001231e+00 1.0001409058888633e+00 1.0927003811514997e-04  1.5981405419045625e+00 1.0364271495003425e+00 -1.0800925037739258e-04  1.5980209837690280e+00 1.0727742824771054e+00 1.0755911274627929e-04  1.5979093533065105e+00 1.1087198006294396e+00 -1.0950791907460012e-04  1.5978469313256907e+00 1.1449126202531992e+00 1.1131473281280558e-04  1.5977979171129930e+00 1.1805924775869991e+00 -1.1357844387393923e-04  1.5977541097371541e+00 1.2163508590627059e+00 1.1496547680122359e-04  1.5978080371978960e+00 1.2517800021696313e+00 -1.1628904212190084e-04  1.5978614625536132e+00 1.2871437279998541e+00 1.1720439441768178e-04  1.5979871137076498e+00 1.3219829567352532e+00 -1.1964966792584487e-04  1.5982086234108719e+00 1.3569386396778322e+00 1.2290653049972403e-04  1.5985054937610179e+00 1.3911531862950919e+00 -1.2698799157223175e-04  1.5988869799133150e+00 1.4252801689889718e+00 1.3000028737899464e-04  1.5994750255300481e+00 1.4587837477734895e+00 -1.3328670210950228e-04  1.6001521684557929e+00 1.4919211475122507e+00 1.3547687836279728e-04  1.6010737240157134e+00 1.5241542751809181e+00 -1.3792663061298728e-04  1.6022402176830897e+00 1.5560832001484646e+00 1.3855099732355266e-04  1.6036917173853116e+00 1.5866867435741325e+00 -1.3921192911708707e-04  1.6054685237426720e+00 1.6166654449259805e+00 1.3866230423158142e-04  1.6077278134451338e+00 1.6452480440570902e+00 -1.3728189816852700e-04  1.6103637294732396e+00 1.6727385872559459e+00 1.3535540663487042e-04  1.6135841822944390e+00 1.6985094928932378e+00 -1.3065522531232498e-04  1.6173367897279076e+00 1.7232003748218758e+00 1.2801693120184887e-04  1.6216453422751795e+00 1.7458841595044181e+00 -1.1963446422225420e-04  1.6264664998830975e+00 1.7675156032020491e+00 1.1429600969806977e-04  1.6318144755410049e+00 1.7875668219985070e+00 -1.0423728345082833e-04  1.6374577713058667e+00 1.8067373996833800e+00 9.4942767849512245e-05  1.6434407447748014e+00 1.8248096406959706e+00 -8.4852281822902614e-05  1.6495804873850581e+00 1.8426124920598497e+00 7.1691926724267246e-05  1.6558153668408817e+00 1.8595970050908155e+00 -6.0358576941510212e-05  1.6620949876864399e+00 1.8765705561282164e+00 4.4955866752061765e-05  1.6684117049993332e+00 1.8931330229024070e+00 -3.0787337440246130e-05  1.6746733812827141e+00 1.9095739227396764e+00 1.5464095035712355e-05  1.6809422678780983e+00 1.9257279056120402e+00 -5.5432128340266660e-07  1.6871785295612900e+00 1.9418348493656228e+00 -1.5516882135018476e-05  1.6933533117026476e+00 1.9576019764830157e+00 3.1967753623358441e-05  1.6995100295925558e+00 1.9732258925379385e+00 -4.9747828743802380e-05  1.7056010817880300e+00 1.9887058976663390e+00 6.6911482500779806e-05  1.7116504127112611e+00 2.0038168035203601e+00 -8.3909074088877881e-05  1.7176171792243375e+00 2.0188583254797221e+00 1.0038269720197090e-04  1.7235580668707489e+00 2.0335122981569898e+00 -1.1692865349988594e-04  1.7293744146787517e+00 2.0480900158612139e+00 1.3528009022602218e-04  1.7351711873972366e+00 2.0621444231939203e+00 -1.5223557822975043e-04  1.7408186205010634e+00 2.0762901460840153e+00 1.7093090713289275e-04  1.7464475358780129e+00 2.0897218740918966e+00 -1.8625618108757621e-04  1.7518922120908502e+00 2.1033076363494381e+00 2.0422782664684963e-04  1.7573227793422672e+00 2.1161131143982446e+00 -2.1934636222156661e-04  1.7625449187925470e+00 2.1291276182989018e+00 2.3847964237241903e-04  1.7677443642477504e+00 2.1411859098267021e+00 -2.5474184315829227e-04  1.7727016836261669e+00 2.1535970605231309e+00 2.7368942340973401e-04  1.7776600640986426e+00 2.1649130732765216e+00 -2.8983091094173294e-04  1.7823165975614070e+00 2.1766023599769135e+00 3.0744385120081845e-04  1.7869871946664169e+00 2.1871204885635014e+00 -3.2396046078200390e-04  1.7913446353604190e+00 2.1981177089891699e+00 3.4210186523593995e-04  1.7956893824198552e+00 2.2077181030225019e+00 -3.6087043365210897e