<?xml version="1.0"?>
<VTKFile type="UnstructuredGrid"  version="0.1"  >
<UnstructuredGrid>
<Piece  NumberOfPoints="8241" NumberOfCells="16000">
<Points>
<DataArray  type="Float64"  NumberOfComponents="3"  format="ascii">-5 -1 0  -4.95 -1 0  -4.9 -1 0  -4.85 -1 0  -4.8 -1 0  -4.75 -1 0  -4.7 -1 0  -4.65 -1 0  -4.6 -1 0  -4.55 -1 0  -4.5 -1 0  -4.45 -1 0  -4.4 -1 0  -4.35 -1 0  -4.3 -1 0  -4.25 -1 0  -4.2 -1 0  -4.15 -1 0  -4.1 -1 0  -4.05 -1 0  -4 -1 0  -3.95 -1 0  -3.9 -1 0  -3.85 -1 0  -3.8 -1 0  -3.75 -1 0  -3.7 -1 0  -3.65 -1 0  -3.6 -1 0  -3.55 -1 0  -3.5 -1 0  -3.45 -1 0  -3.4 -1 0  -3.35 -1 0  -3.3 -1 0  -3.25 -1 0  -3.2 -1 0  -3.15 -1 0  -3.1 -1 0  -3.05 -1 0  -3 -1 0  -2.95 -1 0  -2.9 -1 0  -2.85 -1 0  -2.8 -1 0  -2.75 -1 0  -2.7 -1 0  -2.65 -1 0  -2.6 -1 0  -2.55 -1 0  -2.5 -1 0  -2.45 -1 0  -2.4 -1 0  -2.35 -1 0  -2.3 -1 0  -2.25 -1 0  -2.2 -1 0  -2.15 -1 0  -2.1 -1 0  -2.05 -1 0  -2 -1 0  -1.95 -1 0  -1.9 -1 0  -1.85 -1 0  -1.8 -1 0  -1.75 -1 0  -1.7 -1 0  -1.65 -1 0  -1.6 -1 0  -1.55 -1 0  -1.5 -1 0  -1.45 -1 0  -1.4 -1 0  -1.35 -1 0  -1.3 -1 0  -1.25 -1 0  -1.2 -1 0  -1.15 -1 0  -1.1 -1 0  -1.05 -1 0  -1 -1 0  -0.9500000000000002 -1 0  -0.9000000000000004 -1 0  -0.8499999999999996 -1 0  -0.7999999999999998 -1 0  -0.75 -1 0  -0.7000000000000002 -1 0  -0.6500000000000004 -1 0  -0.5999999999999996 -1 0  -0.5499999999999998 -1 0  -0.5 -1 0  -0.4500000000000002 -1 0  -0.4000000000000004 -1 0  -0.3499999999999996 -1 0  -0.2999999999999998 -1 0  -0.25 -1 0  -0.2000000000000002 -1 0  -0.1500000000000004 -1 0  -0.09999999999999964 -1 0  -0.04999999999999982 -1 0  0 -1 0  0.04999999999999982 -1 0  0.09999999999999964 -1 0  0.1500000000000004 -1 0  0.2000000000000002 -1 0  0.25 -1 0  0.2999999999999998 -1 0  0.3499999999999996 -1 0  0.4000000000000004 -1 0  0.4500000000000002 -1 0  0.5 -1 0  0.5499999999999998 -1 0  0.5999999999999996 -1 0  0.6500000000000004 -1 0  0.7000000000000002 -1 0  0.75 -1 0  0.7999999999999998 -1 0  0.8499999999999996 -1 0  0.9000000000000004 -1 0  0.9500000000000002 -1 0  1 -1 0  1.05 -1 0  1.1 -1 0  1.15 -1 0  1.2 -1 0  1.25 -1 0  1.3 -1 0  1.35 -1 0  1.4 -1 0  1.45 -1 0  1.5 -1 0  1.55 -1 0  1.6 -1 0  1.65 -1 0  1.7 -1 0  1.75 -1 0  1.8 -1 0  1.85 -1 0  1.9 -1 0  1.95 -1 0  2 -1 0  2.05 -1 0  2.1 -1 0  2.15 -1 0  2.2 -1 0  2.25 -1 0  2.3 -1 0  2.35 -1 0  2.4 -1 0  2.45 -1 0  2.5 -1 0  2.55 -1 0  2.6 -1 0  2.65 -1 0  2.7 -1 0  2.75 -1 0  2.8 -1 0  2.85 -1 0  2.9 -1 0  2.95 -1 0  3 -1 0  3.050000000000001 -1 0  3.1 -1 0  3.15 -1 0  3.199999999999999 -1 0  3.25 -1 0  3.300000000000001 -1 0  3.35 -1 0  3.4 -1 0  3.449999999999999 -1 0  3.5 -1 0  3.550000000000001 -1 0  3.6 -1 0  3.65 -1 0  3.699999999999999 -1 0  3.75 -1 0  3.800000000000001 -1 0  3.85 -1 0  3.9 -1 0  3.949999999999999 -1 0  4 -1 0  4.050000000000001 -1 0  4.1 -1 0  4.15 -1 0  4.199999999999999 -1 0  4.25 -1 0  4.300000000000001 -1 0  4.35 -1 0  4.4 -1 0  4.449999999999999 -1 0  4.5 -1 0  4.550000000000001 -1 0  4.6 -1 0  4.65 -1 0  4.699999999999999 -1 0  4.75 -1 0  4.800000000000001 -1 0  4.85 -1 0  4.9 -1 0  4.949999999999999 -1 0  5 -1 0  -5 -0.95 0  -4.95 -0.95 0  -4.9 -0.95 0  -4.85 -0.95 0  -4.8 -0.95 0  -4.75 -0.95 0  -4.7 -0.95 0  -4.65 -0.95 0  -4.6 -0.95 0  -4.55 -0.95 0  -4.5 -0.95 0  -4.45 -0.95 0  -4.4 -0.95 0  -4.35 -0.95 0  -4.3 -0.95 0  -4.25 -0.95 0  -4.2 -0.95 0  -4.15 -0.95 0  -4.1 -0.95 0  -4.05 -0.95 0  -4 -0.95 0  -3.95 -0.95 0  -3.9 -0.95 0  -3.85 -0.95 0  -3.8 -0.95 0  -3.75 -0.95 0  -3.7 -0.95 0  -3.65 -0.95 0  -3.6 -0.95 0  -3.55 -0.95 0  -3.5 -0.95 0  -3.45 -0.95 0  -3.4 -0.95 0  -3.35 -0.95 0  -3.3 -0.95 0  -3.25 -0.95 0  -3.2 -0.95 0  -3.15 -0.95 0  -3.1 -0.95 0  -3.05 -0.95 0  -3 -0.95 0  -2.95 -0.95 0  -2.9 -0.95 0  -2.85 -0.95 0  -2.8 -0.95 0  -2.75 -0.95 0  -2.7 -0.95 0  -2.65 -0.95 0  -2.6 -0.95 0  -2.55 -0.95 0  -2.5 -0.95 0  -2.45 -0.95 0  -2.4 -0.95 0  -2.35 -0.95 0  -2.3 -0.95 0  -2.25 -0.95 0  -2.2 -0.95 0  -2.15 -0.95 0  -2.1 -0.95 0  -2.05 -0.95 0  -2 -0.95 0  -1.95 -0.95 0  -1.9 -0.95 0  -1.85 -0.95 0  -1.8 -0.95 0  -1.75 -0.95 0  -1.7 -0.95 0  -1.65 -0.95 0  -1.6 -0.95 0  -1.55 -0.95 0  -1.5 -0.95 0  -1.45 -0.95 0  -1.4 -0.95 0  -1.35 -0.95 0  -1.3 -0.95 0  -1.25 -0.95 0  -1.2 -0.95 0  -1.15 -0.95 0  -1.1 -0.95 0  -1.05 -0.95 0  -1 -0.95 0  -0.9500000000000002 -0.95 0  -0.9000000000000004 -0.95 0  -0.8499999999999996 -0.95 0  -0.7999999999999998 -0.95 0  -0.75 -0.95 0  -0.7000000000000002 -0.95 0  -0.6500000000000004 -0.95 0  -0.5999999999999996 -0.95 0  -0.5499999999999998 -0.95 0  -0.5 -0.95 0  -0.4500000000000002 -0.95 0  -0.4000000000000004 -0.95 0  -0.3499999999999996 -0.95 0  -0.2999999999999998 -0.95 0  -0.25 -0.95 0  -0.2000000000000002 -0.95 0  -0.1500000000000004 -0.95 0  -0.09999999999999964 -0.95 0  -0.04999999999999982 -0.95 0  0 -0.95 0  0.04999999999999982 -0.95 0  0.09999999999999964 -0.95 0  0.1500000000000004 -0.95 0  0.2000000000000002 -0.95 0  0.25 -0.95 0  0.2999999999999998 -0.95 0  0.3499999999999996 -0.95 0  0.4000000000000004 -0.95 0  0.4500000000000002 -0.95 0  0.5 -0.95 0  0.5499999999999998 -0.95 0  0.5999999999999996 -0.95 0  0.6500000000000004 -0.95 0  0.7000000000000002 -0.95 0  0.75 -0.95 0  0.7999999999999998 -0.95 0  0.8499999999999996 -0.95 0  0.9000000000000004 -0.95 0  0.9500000000000002 -0.95 0  1 -0.95 0  1.05 -0.95 0  1.1 -0.95 0  1.15 -0.95 0  1.2 -0.95 0  1.25 -0.95 0  1.3 -0.95 0  1.35 -0.95 0  1.4 -0.95 0  1.45 -0.95 0  1.5 -0.95 0  1.55 -0.95 0  1.6 -0.95 0  1.65 -0.95 0  1.7 -0.95 0  1.75 -0.95 0  1.8 -0.95 0  1.85 -0.95 0  1.9 -0.95 0  1.95 -0.95 0  2 -0.95 0  2.05 -0.95 0  2.1 -0.95 0  2.15 -0.95 0  2.2 -0.95 0  2.25 -0.95 0  2.3 -0.95 0  2.35 -0.95 0  2.4 -0.95 0  2.45 -0.95 0  2.5 -0.95 0  2.55 -0.95 0  2.6 -0.95 0  2.65 -0.95 0  2.7 -0.95 0  2.75 -0.95 0  2.8 -0.95 0  2.85 -0.95 0  2.9 -0.95 0  2.95 -0.95 0  3 -0.95 0  3.050000000000001 -0.95 0  3.1 -0.95 0  3.15 -0.95 0  3.199999999999999 -0.95 0  3.25 -0.95 0  3.300000000000001 -0.95 0  3.35 -0.95 0  3.4 -0.95 0  3.449999999999999 -0.95 0  3.5 -0.95 0  3.550000000000001 -0.95 0  3.6 -0.95 0  3.65 -0.95 0  3.699999999999999 -0.95 0  3.75 -0.95 0  3.800000000000001 -0.95 0  3.85 -0.95 0  3.9 -0.95 0  3.949999999999999 -0.95 0  4 -0.95 0  4.050000000000001 -0.95 0  4.1 -0.95 0  4.15 -0.95 0  4.199999999999999 -0.95 0  4.25 -0.95 0  4.300000000000001 -0.95 0  4.35 -0.95 0  4.4 -0.95 0  4.449999999999999 -0.95 0  4.5 -0.95 0  4.550000000000001 -0.95 0  4.6 -0.95 0  4.65 -0.95 0  4.699999999999999 -0.95 0  4.75 -0.95 0  4.800000000000001 -0.95 0  4.85 -0.95 0  4.9 -0.95 0  4.949999999999999 -0.95 0  5 -0.95 0  -5 -0.9 0  -4.95 -0.9 0  -4.9 -0.9 0  -4.85 -0.9 0  -4.8 -0.9 0  -4.75 -0.9 0  -4.7 -0.9 0  -4.65 -0.9 0  -4.6 -0.9 0  -4.55 -0.9 0  -4.5 -0.9 0  -4.45 -0.9 0  -4.4 -0.9 0  -4.35 -0.9 0  -4.3 -0.9 0  -4.25 -0.9 0  -4.2 -0.9 0  -4.15 -0.9 0  -4.1 -0.9 0  -4.05 -0.9 0  -4 -0.9 0  -3.95 -0.9 0  -3.9 -0.9 0  -3.85 -0.9 0  -3.8 -0.9 0  -3.75 -0.9 0  -3.7 -0.9 0  -3.65 -0.9 0  -3.6 -0.9 0  -3.55 -0.9 0  -3.5 -0.9 0  -3.45 -0.9 0  -3.4 -0.9 0  -3.35 -0.9 0  -3.3 -0.9 0  -3.25 -0.9 0  -3.2 -0.9 0  -3.15 -0.9 0  -3.1 -0.9 0  -3.05 -0.9 0  -3 -0.9 0  -2.95 -0.9 0  -2.9 -0.9 0  -2.85 -0.9 0  -2.8 -0.9 0  -2.75 -0.9 0  -2.7 -0.9 0  -2.65 -0.9 0  -2.6 -0.9 0  -2.55 -0.9 0  -2.5 -0.9 0  -2.45 -0.9 0  -2.4 -0.9 0  -2.35 -0.9 0  -2.3 -0.9 0  -2.25 -0.9 0  -2.2 -0.9 0  -2.15 -0.9 0  -2.1 -0.9 0  -2.05 -0.9 0  -2 -0.9 0  -1.95 -0.9 0  -1.9 -0.9 0  -1.85 -0.9 0  -1.8 -0.9 0  -1.75 -0.9 0  -1.7 -0.9 0  -1.65 -0.9 0  -1.6 -0.9 0  -1.55 -0.9 0  -1.5 -0.9 0  -1.45 -0.9 0  -1.4 -0.9 0  -1.35 -0.9 0  -1.3 -0.9 0  -1.25 -0.9 0  -1.2 -0.9 0  -1.15 -0.9 0  -1.1 -0.9 0  -1.05 -0.9 0  -1 -0.9 0  -0.9500000000000002 -0.9 0  -0.9000000000000004 -0.9 0  -0.8499999999999996 -0.9 0  -0.7999999999999998 -0.9 0  -0.75 -0.9 0  -0.7000000000000002 -0.9 0  -0.6500000000000004 -0.9 0  -0.5999999999999996 -0.9 0  -0.5499999999999998 -0.9 0  -0.5 -0.9 0  -0.4500000000000002 -0.9 0  -0.4000000000000004 -0.9 0  -0.3499999999999996 -0.9 0  -0.2999999999999998 -0.9 0  -0.25 -0.9 0  -0.2000000000000002 -0.9 0  -0.1500000000000004 -0.9 0  -0.09999999999999964 -0.9 0  -0.04999999999999982 -0.9 0  0 -0.9 0  0.04999999999999982 -0.9 0  0.09999999999999964 -0.9 0  0.1500000000000004 -0.9 0  0.2000000000000002 -0.9 0  0.25 -0.9 0  0.2999999999999998 -0.9 0  0.3499999999999996 -0.9 0  0.4000000000000004 -0.9 0  0.4500000000000002 -0.9 0  0.5 -0.9 0  0.5499999999999998 -0.9 0  0.5999999999999996 -0.9 0  0.6500000000000004 -0.9 0  0.7000000000000002 -0.9 0  0.75 -0.9 0  0.7999999999999998 -0.9 0  0.8499999999999996 -0.9 0  0.9000000000000004 -0.9 0  0.9500000000000002 -0.9 0  1 -0.9 0  1.05 -0.9 0  1.1 -0.9 0  1.15 -0.9 0  1.2 -0.9 0  1.25 -0.9 0  1.3 -0.9 0  1.35 -0.9 0  1.4 -0.9 0  1.45 -0.9 0  1.5 -0.9 0  1.55 -0.9 0  1.6 -0.9 0  1.65 -0.9 0  1.7 -0.9 0  1.75 -0.9 0  1.8 -0.9 0  1.85 -0.9 0  1.9 -0.9 0  1.95 -0.9 0  2 -0.9 0  2.05 -0.9 0  2.1 -0.9 0  2.15 -0.9 0  2.2 -0.9 0  2.25 -0.9 0  2.3 -0.9 0  2.35 -0.9 0  2.4 -0.9 0  2.45 -0.9 0  2.5 -0.9 0  2.55 -0.9 0  2.6 -0.9 0  2.65 -0.9 0  2.7 -0.9 0  2.75 -0.9 0  2.8 -0.9 0  2.85 -0.9 0  2.9 -0.9 0  2.95 -0.9 0  3 -0.9 0  3.050000000000001 -0.9 0  3.1 -0.9 0  3.15 -0.9 0  3.199999999999999 -0.9 0  3.25 -0.9 0  3.300000000000001 -0.9 0  3.35 -0.9 0  3.4 -0.9 0  3.449999999999999 -0.9 0  3.5 -0.9 0  3.550000000000001 -0.9 0  3.6 -0.9 0  3.65 -0.9 0  3.699999999999999 -0.9 0  3.75 -0.9 0  3.800000000000001 -0.9 0  3.85 -0.9 0  3.9 -0.9 0  3.949999999999999 -0.9 0  4 -0.9 0  4.050000000000001 -0.9 0  4.1 -0.9 0  4.15 -0.9 0  4.199999999999999 -0.9 0  4.25 -0.9 0  4.300000000000001 -0.9 0  4.35 -0.9 0  4.4 -0.9 0  4.449999999999999 -0.9 0  4.5 -0.9 0  4.550000000000001 -0.9 0  4.6 -0.9 0  4.65 -0.9 0  4.699999999999999 -0.9 0  4.75 -0.9 0  4.800000000000001 -0.9 0  4.85 -0.9 0  4.9 -0.9 0  4.949999999999999 -0.9 0  5 -0.9 0  -5 -0.85 0  -4.95 -0.85 0  -4.9 -0.85 0  -4.85 -0.85 0  -4.8 -0.85 0  -4.75 -0.85 0  -4.7 -0.85 0  -4.65 -0.85 0  -4.6 -0.85 0  -4.55 -0.85 0  -4.5 -0.85 0  -
[...]
<PointData  Vectors="f_15"> 
<DataArray  type="Float64"  Name="f_15"  NumberOfComponents="3" format="ascii">3.0000000000000004e+00 0.0000000000000000e+00 0.0000000000000000e+00  3.0000000000000004e+00 3.6078912425657162e-16 0.0000000000000000e+00  3.0000000000000013e+00 -7.0301456531454608e-16 0.0000000000000000e+00  3.0000000000000009e+00 1.1702154208694330e-16 0.0000000000000000e+00  3.0000000000000013e+00 -5.3893511680036856e-16 0.0000000000000000e+00  3.0000000000000009e+00 -2.3012372385130853e-16 0.0000000000000000e+00  3.0000000000000009e+00 1.2673312815720266e-15 0.0000000000000000e+00  3.0000000000000000e+00 -1.4243103182594942e-15 0.0000000000000000e+00  3.0000000000000013e+00 1.6334459890661316e-15 0.0000000000000000e+00  2.9999999999999991e+00 -6.2538398018980555e-16 0.0000000000000000e+00  3.0000000000000022e+00 -1.1865483498268845e-15 0.0000000000000000e+00  2.9999999999999956e+00 -3.1079938012405065e-16 0.0000000000000000e+00  3.0000000000000160e+00 8.9492901232576002e-15 0.0000000000000000e+00  2.9999999999999596e+00 -3.7679605631132167e-14 0.0000000000000000e+00  3.0000000000000946e+00 9.7612643131846776e-14 0.0000000000000000e+00  2.9999999999998002e+00 -2.1029959489241439e-13 0.0000000000000000e+00  3.0000000000004143e+00 4.1618827173269104e-13 0.0000000000000000e+00  2.9999999999991380e+00 -8.3164776481668411e-13 0.0000000000000000e+00  3.0000000000018390e+00 1.7602860669879435e-12 0.0000000000000000e+00  2.9999999999960307e+00 -3.9293473996128489e-12 0.0000000000000000e+00  3.0000000000085651e+00 8.9168241221599347e-12 0.0000000000000000e+00  2.9999999999817599e+00 -1.9964301219743715e-11 0.0000000000000000e+00  3.0000000000381433e+00 4.3511902891757775e-11 0.0000000000000000e+00  2.9999999999217155e+00 -9.2253835429322999e-11 0.0000000000000000e+00  3.0000000001580256e+00 1.9121797475760668e-10 0.0000000000000000e+00  2.9999999996855444e+00 -3.8980423789618223e-10 0.0000000000000000e+00  3.0000000006178276e+00 7.8497561438070510e-10 0.0000000000000000e+00  2.9999999988011079e+00 -1.5643437569940108e-09 0.0000000000000000e+00  3.0000000022959568e+00 3.0830174651360883e-09 0.0000000000000000e+00  2.9999999956672658e+00 -5.9948232701970548e-09 0.0000000000000000e+00  3.0000000080427016e+00 1.1466929386417610e-08 0.0000000000000000e+00  2.9999999853393637e+00 -2.1516612438649020e-08 0.0000000000000000e+00  3.0000000262083701e+00 3.9520343936772501e-08 0.0000000000000000e+00  2.9999999540909559e+00 -7.0958599324899003e-08 0.0000000000000000e+00  3.0000000787734553e+00 1.2447566443409783e-07 0.0000000000000000e+00  2.9999998675873525e+00 -2.1335227571036472e-07 0.0000000000000000e+00  3.0000002181435690e+00 3.5750917885127035e-07 0.0000000000000000e+00  2.9999996475316246e+00 -5.8618349907120017e-07 0.0000000000000000e+00  3.0000005590283054e+00 9.4144829550040881e-07 0.0000000000000000e+00  2.9999991288376058e+00 -1.4828042086824737e-06 0.0000000000000000e+00  3.0000013352587960e+00 2.2931512572275152e-06 0.0000000000000000e+00  2.9999979848462739e+00 -3.4866285797802434e-06 0.0000000000000000e+00  3.0000029979491933e+00 5.2189036220719994e-06 0.0000000000000000e+00  2.9999955983495927e+00 -7.7008287345188596e-06 0.0000000000000000e+00  3.0000063851966190e+00 1.1216065535336480e-05 0.0000000000000000e+00  2.9999908387134746e+00 -1.6144251609421327e-05 0.0000000000000000e+00  3.0000130131106619e+00 2.2989769205345631e-05 0.0000000000000000e+00  2.9999816845143910e+00 -3.2420851454081826e-05 0.0000000000000000e+00  3.0000255636489328e+00 4.5317286665325910e-05 0.0000000000000000e+00  2.9999645909227546e+00 -6.2841247326950848e-05 0.0000000000000000e+00  3.0000487095732953e+00 8.6514524002494667e-05 0.0000000000000000e+00  2.9999334169580405e+00 -1.1834022403428308e-04 0.0000000000000000e+00  3.0000904839153382e+00 1.6089294013569221e-04 0.0000000000000000e+00  2.9998777354000401e+00 -2.1751179831331211e-04 0.0000000000000000e+00  3.0001642983316539e+00 2.9235983438996983e-04 0.0000000000000000e+00  2.9997804486344775e+00 -3.9083471914974399e-04 0.0000000000000000e+00  3.0002918436915356e+00 5.1954180955327695e-04 0.0000000000000000e+00  2.9996141121781519e+00 -6.8726828683824206e-04 0.0000000000000000e+00  3.0005077492480732e+00 9.0428413978337974e-04 0.0000000000000000e+00  2.9993355329501918e+00 -1.1842967825772186e-03 0.0000000000000000e+00  3.0008648400768942e+00 1.5412920237822410e-03 0.0000000000000000e+00  2.9988818607223018e+00 -1.9947511776780814e-03 0.0000000000000000e+00  3.0014365443769950e+00 2.5613985882408882e-03 0.0000000000000000e+00  2.9981677085906067e+00 -3.2711778581777868e-03 0.0000000000000000e+00  3.0023238051635159e+00 4.1444909531591122e-03 0.0000000000000000e+00  2.9970738088615989e+00 -5.2304216976960987e-03 0.0000000000000000e+00  3.0036629721464543e+00 6.5389493975505008e-03 0.0000000000000000e+00  2.9954596022277280e+00 -8.1335427697480558e-03 0.0000000000000000e+00  3.0055802874751478e+00 9.9710921844000551e-03 0.0000000000000000e+00  2.9932294402881854e+00 -1.2149679040506707e-02 0.0000000000000000e+00  3.0081509962463175e+00 1.4560458276986585e-02 0.0000000000000000e+00  2.9903022339373200e+00 -1.7431690617987494e-02 0.0000000000000000e+00  3.0114763358835668e+00 2.0519282057474494e-02 0.0000000000000000e+00  2.9866221099455190e+00 -2.4154862634154728e-02 0.0000000000000000e+00  3.0154123500057346e+00 2.7644773184210526e-02 0.0000000000000000e+00  2.9826825569534603e+00 -3.1408289472340117e-02 0.0000000000000000e+00  3.0191377821385963e+00 3.4338835430020850e-02 0.0000000000000000e+00  2.9793391381263881e+00 -3.7510655192616017e-02 0.0000000000000000e+00  3.0221073939569134e+00 3.9697202579216009e-02 0.0000000000000000e+00  2.9768242302620354e+00 -4.2388017281556598e-02 0.0000000000000000e+00  3.0237304039695880e+00 4.3193539499428474e-02 0.0000000000000000e+00  2.9768906200647347e+00 -4.2937979732973947e-02 0.0000000000000000e+00  3.0210357142538324e+00 3.8911398491198221e-02 0.0000000000000000e+00  2.9822808303062152e+00 -3.3157118886566084e-02 0.0000000000000000e+00  3.0134978123326781e+00 2.5571420810268846e-02 0.0000000000000000e+00  2.9905996325584239e+00 -1.8195758494494989e-02 0.0000000000000000e+00  3.0038486329525225e+00 1.1545999463910476e-02 0.0000000000000000e+00  2.9998029189455218e+00 3.5618570385310033e-04 0.0000000000000000e+00  2.9885217014474419e+00 -1.5220318326482573e-03 0.0000000000000000e+00  3.0039335378241252e+00 3.5277759309683999e-02 0.0000000000000000e+00  2.9593686032648643e+00 1.3840332265801133e-02 0.0000000000000000e+00  2.9750982699168089e+00 1.1483618677920179e-01 0.0000000000000000e+00  2.8849627730215395e+00 1.3062087597360061e-01 0.0000000000000000e+00  2.8649058609183360e+00 3.2150012599667321e-01 0.0000000000000000e+00  2.7170469945324829e+00 4.6052251048668741e-01 0.0000000000000000e+00  2.6226521993229417e+00 7.3971234415743092e-01 0.0000000000000000e+00  2.4231986210507701e+00 1.0495994065654479e+00 0.0000000000000000e+00  2.2713696164151678e+00 1.4777011194835410e+00 0.0000000000000000e+00  2.0249617906940496e+00 1.7978462667609134e+00 0.0000000000000000e+00  1.8939389934327844e+00 2.3267312487947640e+00 0.0000000000000000e+00  1.7702473681363031e+00 2.4323383711717952e+00 0.0000000000000000e+00  1.8392106976031293e+00 2.2981664081813631e+00 0.0000000000000000e+00  1.8739207930790416e+00 2.3105289315822155e+00 0.0000000000000000e+00  1.7876116076857576e+00 2.3496750407707987e+00 0.0000000000000000e+00  1.8781616340052543e+00 2.2291718983778765e+00 0.0000000000000000e+00  1.7645954349070649e+00 2.3011878923880484e+00 0.0000000000000000e+00  1.7747171309613865e+00 2.0501970499487867e+00 0.0000000000000000e+00  1.4839347974438579e+00 1.4794145799373668e+00 0.0000000000000000e+00  1.1676288990499564e+00 5.1293223954270739e-01 0.0000000000000000e+00  1.0255892670684106e+00 8.2251444053031100e-02 0.0000000000000000e+00  1.0055208938283331e+00 9.9986554612302384e-03 0.0000000000000000e+00  9.9704039167234293e-01 7.4631798282269275e-03 0.0000000000000000e+00  1.0026173772278222e+00 -6.5374228150377120e-03 0.0000000000000000e+00  9.9900869660375380e-01 3.1975823478167698e-03 0.0000000000000000e+00  9.9977375208319685e-01 3.0389506589742889e-04 0.0000000000000000e+00  1.0005970668398319e+00 -1.6331788770578865e-03 0.0000000000000000e+00  9.9962137839109411e-01 1.2011206185225272e-03 0.0000000000000000e+00  1.0000522407076520e+00 -2.8708292067912802e-04 0.0000000000000000e+00  1.0001146352816515e+00 -2.5658515538930031e-04 0.0000000000000000e+00  9.9988633808266214e-01 3.1762025269575463e-04 0.0000000000000000e+00  1.0000470058292690e+00 -1.5360383034814445e-04 0.0000000000000000e+00  1.0000048379265054e+00 3.5068375409774856e-06 0.0000000000000000e+00  9.9997954657397481e-01 5.1793242389607426e-05 0.0000000000000000e+00  1.0000139238621135e+00 -4.0553538021646707e-05 0.0000000000000000e+00  9.9999641353565716e-01 1.3017923084294902e-05 0.0000000000000000e+00  9.9999807159165555e-01 3.6864618305322035e-06 0.0000000000000000e+00  1.0000025916717303e+00 -6.9303675141634844e-06 0.0000000000000000e+00  9.9999870901100596e-01 3.9068451670149320e-06 0.0000000000000000e+00  1.0000001320469607e+00 -6.8152884919790056e-07 0.0000000000000000e+00  1.0000003004319253e+00 -7.0393944542515198e-07 0.0000000000000000e+00  9.9999974445701845e-01 7.0943452383753084e-07 0.0000000000000000e+00  1.0000000929557034e+00 -2.9602020549099035e-07 0.0000000000000000e+00  1.0000000089829588e+00 1.9001477403163761e-09 0.0000000000000000e+00  9.9999996681645675e-01 8.4051245390707756e-08 0.0000000000000000e+00  1.0000000206750230e+00 -5.9296884116015106e-08 0.0000000000000000e+00  9.9999999494812353e-01 1.7589425125222693e-08 0.0000000000000000e+00  9.9999999774615700e-01 4.3120106206826198e-09 0.0000000000000000e+00  1.0000000029411942e+00 -7.7950633128127597e-09 0.0000000000000000e+00  9.9999999859958166e-01 4.1576698849170321e-09 0.0000000000000000e+00  1.0000000001603024e+00 -7.2783421504607139e-10 0.0000000000000000e+00  1.0000000002673182e+00 -6.2130382863223330e-10 0.0000000000000000e+00  9.9999999977486087e-01 6.1731870623870278e-10 0.0000000000000000e+00  1.0000000000829581e+00 -2.5641412118511283e-10 0.0000000000000000e+00  1.0000000000019618e+00 1.3980833543856773e-11 0.0000000000000000e+00  9.9999999997785949e-01 5.5225369106492998e-11 0.0000000000000000e+00  1.0000000000139007e+00 -3.9415750434530636e-11 0.0000000000000000e+00  9.9999999999660927e-01 1.1575016695748120e-11 0.0000000000000000e+00  9.9999999999860867e-01 2.6153320351676555e-12 0.0000000000000000e+00  1.0000000000018450e+00 -4.8190816392033832e-12 0.0000000000000000e+00  9.9999999999908928e-01 2.6313399053949951e-12 0.0000000000000000e+00  1.0000000000001665e+00 -5.9755844908707871e-13 0.0000000000000000e+00  1.0000000000001015e+00 -2.2131582268683864e-13 0.0000000000000000e+00  9.9999999999990030e-01 2.7181468260144718e-13 0.0000000000000000e+00  1.0000000000000362e+00 -1.1319633351604859e-13 0.0000000000000000e+00  1.0000000000000031e+00 2.6445472547925927e-15 0.0000000000000000e+00  9.9999999999998834e-01 2.8817668359025530e-14 0.0000000000000000e+00  1.0000000000000075e+00 -1.9610535100701871e-14 0.0000000000000000e+00  9.9999999999999833e-01 6.3345625706566388e-15 0.0000000000000000e+00  9.9999999999999989e-01 -6.3893098819961841e-17 0.0000000000000000e+00  1.0000000000000004e+00 -1.3703622129112934e-15 0.0000000000000000e+00  9.9999999999999967e-01 1.5121896811649285e-15 0.0000000000000000e+00  9.9999999999999989e-01 -1.2443287796410273e-16 0.0000000000000000e+00  1.0000000000000004e+00 6.4064144797836666e-16 0.0000000000000000e+00  1.0000000000000002e+00 -1.1811669788435319e-15 0.0000000000000000e+00  1.0000000000000009e+00 -7.4887430586609571e-16 0.0000000000000000e+00  1.0000000000000004e+00 -6.4745837692334630e-16 0.0000000000000000e+00  1.0000000000000002e+00 -9.1240610537447625e-17 0.0000000000000000e+00  1.0000000000000004e+00 8.4738153404633352e-16 0.0000000000000000e+00  9.9999999999999989e-01 -1.7013545295464891e-15 0.0000000000000000e+00  1.0000000000000004e+00 7.5905200738338142e-16 0.0000000000000000e+00  1.0000000000000004e+00 1.1615810871262302e-15 0.0000000000000000e+00  1.0000000000000002e+00 7.2441308003364650e-16 0.0000000000000000e+00  1.0000000000000004e+00 1.8136071309711048e-15 0.0000000000000000e+00  1.0000000000000002e+00 -1.9354138392630569e-15 0.0000000000000000e+00  1.0000000000000002e+00 9.3038663691488149e-16 0.0000000000000000e+00  1.0000000000000000e+00 -1.2411890857178561e-15 0.0000000000000000e+00  1.0000000000000000e+00 -8.3179715484820220e-16 0.0000000000000000e+00  1.0000000000000002e+00 1.6951289583597371e-15 0.0000000000000000e+00  1.0000000000000002e+00 -1.0426467772235434e-15 0.0000000000000000e+00  1.0000000000000007e+00 1.7613403380435343e-15 0.0000000000000000e+00  9.9999999999999967e-01 -1.5798889800298050e-15 0.0000000000000000e+00  1.0000000000000009e+00 6.4614375719134407e-16 0.0000000000000000e+00  1.0000000000000002e+00 -1.6057978484403000e-16 0.0000000000000000e+00  1.0000000000000004e+00 -1.1084580038362428e-15 0.0000000000000000e+00  1.0000000000000002e+00 2.9397794273256938e-16 0.0000000000000000e+00  1.0000000000000004e+00 -6.4527118375455401e-16 0.0000000000000000e+00  1.0000000000000000e+00 1.7366562835880038e-15 0.0000000000000000e+00  1.0000000000000004e+00 -1.6131614854047530e-15 0.0000000000000000e+00  1.0000000000000000e+00 -4.6304861665873571e-16 0.0000000000000000e+00  1.0000000000000009e+00 -2.7952804955711227e-16 0.0000000000000000e+00  1.0000000000000004e+00 1.1228520620417960e-15 0.0000000000000000e+00  1.0000000000000009e+00 -6.5014029309465262e-16 0.0000000000000000e+00  1.0000000000000004e+00 6.6431327819743226e-16 0.0000000000000000e+00  1.0000000000000004e+00 -7.9113490970712430e-17 0.0000000000000000e+00  1.0000000000000000e+00 4.5687247651629845e-16 0.0000000000000000e+00  1.0000000000000004e+00 -1.1725718190985845e-15 0.0000000000000000e+00  1.0000000000000004e+00 1.8107157716804863e-15 0.0000000000000000e+00  1.0000000000000002e+00 -9.6090830712724979e-16 0.0000000000000000e+00  1.0000000000000004e+00 7.5588193308189064e-16 0.0000000000000000e+00  1.0000000000000004e+00 -2.2021060182034387e-16 0.0000000000000000e+00  1.0000000000000000e+00 0.0000000000000000e+00 0.0000000000000000e+00  3.0000000000000004e+00 0.0000000000000000e+00 -2.2522894754110158e-16  3.0000000000000004e+00 -8.9109632285171905e-16 -1.9025415165854364e-16  3.0000000000000013e+00 -3.4306749674109266e-16 8.7933458561295093e-16  3.0000000000000004e+00 -1.1595672645106599e-16 -3.6236234095690081e-16  3.0000000000000009e+00 2.3842062390927212e-16 1.9306888637234543e-16  3.0000000000000009e+00 6.7536639711754340e-16 1.2503130352683455e-16  3.0000000000000004e+00 -4.7274839974826229e-16 1.8576307730693608e-16  3.0000000000000009e+00 2.3019243034744556e-16 -1.9110199933841724e-16  3.0000000000000009e+00 1.3553167373853141e-15 5.0849679159703595e-16  3.0000000000000009e+00 -1.2272612830212060e-15 -1.2231593487498837e-15  3.0000000000000004e+00 2.8992773433242560e-15 3.4787124173238979e-15  3.0000000000000049e+00 -1.7098157994811914e-15 -9.9414202117856053e-15  2.9999999999999907e+00 -1.0146149761921339e-15 2.5584201169154271e-14  3.0000000000000226e+00 2.5871586468166191e-15 -5.9428636077045620e-14  2.9999999999999614e+00 5.5292851540650370e-15 1.2734973771005123e-13  3.0000000000000719e+00 -3.8444571366605128e-14 -2.6689807700046705e-13  2.9999999999998610e+00 1.0878541254392885e-13 5.6142399181368310e-13  3.0000000000003011e+00 -2.3305994525590410e-13 -1.1992696933352871e-12  2.9999999999993299e+00 4.1811763761748655e-13 2.5857236754540900e-12  3.0000000000014722e+00 -7.0491380697645092e-13 -5.5585801479546651e-12  2.9999999999968963e+00 1.2266481183220376e-12 1.1788283504446492e-11  3.0000000000062927e+00 -2.3579028601329919e-12 -2.4535567174621317e-11  2.9999999999876472e+00 4.9239537676279753e-12 5.0107023639670809e-11  3.0000000000237508e+00 -1.0528717696853269e-11 -1.0062634653248495e-10  2.9999999999549396e+00 2.2018321896576060e-11 1.9924293575729532e-10  3.0000000000846505e+00 -4.4242214481726775e-11 -3.8957307528583591e-10  2.9999999998427556e+00 8.5508600116983892e-11 7.5223232156238545e-10  3.0000000002875846e+00 -1.6066928657479172e-10 -1.4325250691623630e-09  2.9999999994851230e+00 2.9784072736221866e-10 2.6849743928562476e-09  3.0000000008971472e+00 -5.5258928678607616e-10 -4.9419308939340993e-09  2.9999999984868144e+00 1.0361626721233290e-09 8.9152006222073098e-09  3.0000000024584197e+00 -1.9678933849423774e-09 -1.5741039101767886e-08  2.9999999961710602e+00 3.7658968148473914e-09 2.7180276478919894e-08  3.0000000056863869e+00 -7.1942795957117158e-09 -4.5886844652272447e-08  2.9999999920057481e+00 1.3589414276455690e-08 7.5760210558974478e-08  3.0000000105141860e+00 -2.5193296613247477e-08 -1.2240090555569690e-07  2.9999999873520591e+00 4.5629141867858873e-08 1.9369462291250411e-07  3.0000000132085241e+00 -8.0562214559520728e-08 -3.0056095157274562e-07  2.9999999898949694e+00 1.3859386288853082e-07 4.5792026202520252e-07  2.9999999999310494e+00 -2.3243361264454964e-07 -6.8595986313106381e-07  3.0000000225427281e+00 3.8039035295151810e-07 1.0118198789387148e-06  2.9999999350269668e+00 -6.0822813904313850e-07 -1.4718700026493192e-06  3.0000001381566492e+00 9.5149583360073465e-07 2.1148014981917109e-06  2.9999997430699947e+00 -1.4585252684515711e-06 -3.0058197775545823e-06  3.0000004413272623e+00 2.1944627385356747e-06 4.2322726196966202e-06  2.9999992818367711e+00 -3.2466009279906152e-06 -5.9111806746671903e-06  3.0000011228384635e+00 4.7313216417947066e-06 8.1992105919587144e-06  2.9999982984884617e+00 -6.8021799157938790e-06 -1.1306028788356330e-05  3.0000025127363559e+00 9.6597082211254067e-06 1.5511700820259912e-05  2.9999963696425480e+00 -1.3562480751250478e-05 -2.1189690621385566e-05  3.0000051459796260e+00 1.8844800256406180e-05 2.8834822323320442e-05  2.9999928215140654e+00 -2.5939784209196790e-05 -3.9099370154424852e-05  3.0000098798985384e+00 3.5419173487699617e-05 5.2833115914597833e-05  2.9999865449117653e+00 -4.8025921748747806e-05 -7.1140188342191113e-05  3.0000181489819839e+00 6.4720031390810229e-05 9.5438015544002232e-05  2.9999757319557010e+00 -8.6666586017130682e-05 -1.2755747317997398e-04  3.0000321152126368e+00 1.1529070423059584e-04 1.6981812655892696e-04  2.9999579050911898e+00 -1.5225904484803319e-04 -2.2518152414683249e-04  3.0000546157770986e+00 1.9977821443426558e-04 2.9727019766566913e-04  2.9999295361736968e+00 -2.6061710480664610e-04 -3.9058927227774359e-04  3.0000903855374657e+00 3.3863366576909575e-04 5.1041784336971574e-04  2.9998843177715391e+00 -4.3792251213769752e-04 -6.6333703985779540e-04  3.0001466015348046e+00 5.6318703686999354e-04 8.5692443759325851e-04  2.9998160085363610e+00 -7.1741609277905290e-04 -1.1008238520483272e-03  3.0002263897588595e+00 9.0518436187126544e-04 1.4053417516465454e-03  2.9997238260485353e+00 -1.1300929805515365e-03 -1.7829087278549444e-03  3.0003328691689193e+00 1.4050165251403978e-03 2.2442590904970640e-03  2.9995947931197273e+00 -1.7386839636214996e-03 -2.8023515806346023e-03  3.0004880042166953e+00 2.1494515253414497e-03 3.4663599094113397e-03  2.9994131179295263e+00 -2.6212574810113901e-03 -4.2522089500431357e-03  3.0006710031280570e+00 3.1518766339638815e-03 5.1685280550584165e-03  2.9992503292721993e+00 -3.6874025178383375e-03 -6.2311056703518095e-03  3.0007895117834478e+00 4.2739474110653512e-03 7.4296752752669951e-03  2.9991374560711055e+00 -4.8987446507146827e-03 -8.7500561194095890e-03  3.0009379655777808e+00 5.7072397222261810e-03 1.0144175064510387e-02  2.9989152417095206e+00 -6.5621187355305432e-03 -1.1572985602872503e-02  3.0011245093835104e+00 7.4473013245509190e-03 1.3000529457602132e-02  2.9989551901720923e+00 -7.8878809781135345e-03 -1.4384112057445246e-02  3.0006750017494537e+00 8.0129076464614795e-03 1.5680032391529704e-02  2.9997339001169894e+00 -7.6802924572100962e-03 -1.6683622245428555e-02  2.9999557987583936e+00 7.7551241448506067e-03 1.7253