<?xml version="1.0"?>
<VTKFile type="UnstructuredGrid"  version="0.1"  >
<UnstructuredGrid>
<Piece  NumberOfPoints="8241" NumberOfCells="16000">
<Points>
<DataArray  type="Float64"  NumberOfComponents="3"  format="ascii">-5 -1 0  -4.95 -1 0  -4.9 -1 0  -4.85 -1 0  -4.8 -1 0  -4.75 -1 0  -4.7 -1 0  -4.65 -1 0  -4.6 -1 0  -4.55 -1 0  -4.5 -1 0  -4.45 -1 0  -4.4 -1 0  -4.35 -1 0  -4.3 -1 0  -4.25 -1 0  -4.2 -1 0  -4.15 -1 0  -4.1 -1 0  -4.05 -1 0  -4 -1 0  -3.95 -1 0  -3.9 -1 0  -3.85 -1 0  -3.8 -1 0  -3.75 -1 0  -3.7 -1 0  -3.65 -1 0  -3.6 -1 0  -3.55 -1 0  -3.5 -1 0  -3.45 -1 0  -3.4 -1 0  -3.35 -1 0  -3.3 -1 0  -3.25 -1 0  -3.2 -1 0  -3.15 -1 0  -3.1 -1 0  -3.05 -1 0  -3 -1 0  -2.95 -1 0  -2.9 -1 0  -2.85 -1 0  -2.8 -1 0  -2.75 -1 0  -2.7 -1 0  -2.65 -1 0  -2.6 -1 0  -2.55 -1 0  -2.5 -1 0  -2.45 -1 0  -2.4 -1 0  -2.35 -1 0  -2.3 -1 0  -2.25 -1 0  -2.2 -1 0  -2.15 -1 0  -2.1 -1 0  -2.05 -1 0  -2 -1 0  -1.95 -1 0  -1.9 -1 0  -1.85 -1 0  -1.8 -1 0  -1.75 -1 0  -1.7 -1 0  -1.65 -1 0  -1.6 -1 0  -1.55 -1 0  -1.5 -1 0  -1.45 -1 0  -1.4 -1 0  -1.35 -1 0  -1.3 -1 0  -1.25 -1 0  -1.2 -1 0  -1.15 -1 0  -1.1 -1 0  -1.05 -1 0  -1 -1 0  -0.9500000000000002 -1 0  -0.9000000000000004 -1 0  -0.8499999999999996 -1 0  -0.7999999999999998 -1 0  -0.75 -1 0  -0.7000000000000002 -1 0  -0.6500000000000004 -1 0  -0.5999999999999996 -1 0  -0.5499999999999998 -1 0  -0.5 -1 0  -0.4500000000000002 -1 0  -0.4000000000000004 -1 0  -0.3499999999999996 -1 0  -0.2999999999999998 -1 0  -0.25 -1 0  -0.2000000000000002 -1 0  -0.1500000000000004 -1 0  -0.09999999999999964 -1 0  -0.04999999999999982 -1 0  0 -1 0  0.04999999999999982 -1 0  0.09999999999999964 -1 0  0.1500000000000004 -1 0  0.2000000000000002 -1 0  0.25 -1 0  0.2999999999999998 -1 0  0.3499999999999996 -1 0  0.4000000000000004 -1 0  0.4500000000000002 -1 0  0.5 -1 0  0.5499999999999998 -1 0  0.5999999999999996 -1 0  0.6500000000000004 -1 0  0.7000000000000002 -1 0  0.75 -1 0  0.7999999999999998 -1 0  0.8499999999999996 -1 0  0.9000000000000004 -1 0  0.9500000000000002 -1 0  1 -1 0  1.05 -1 0  1.1 -1 0  1.15 -1 0  1.2 -1 0  1.25 -1 0  1.3 -1 0  1.35 -1 0  1.4 -1 0  1.45 -1 0  1.5 -1 0  1.55 -1 0  1.6 -1 0  1.65 -1 0  1.7 -1 0  1.75 -1 0  1.8 -1 0  1.85 -1 0  1.9 -1 0  1.95 -1 0  2 -1 0  2.05 -1 0  2.1 -1 0  2.15 -1 0  2.2 -1 0  2.25 -1 0  2.3 -1 0  2.35 -1 0  2.4 -1 0  2.45 -1 0  2.5 -1 0  2.55 -1 0  2.6 -1 0  2.65 -1 0  2.7 -1 0  2.75 -1 0  2.8 -1 0  2.85 -1 0  2.9 -1 0  2.95 -1 0  3 -1 0  3.050000000000001 -1 0  3.1 -1 0  3.15 -1 0  3.199999999999999 -1 0  3.25 -1 0  3.300000000000001 -1 0  3.35 -1 0  3.4 -1 0  3.449999999999999 -1 0  3.5 -1 0  3.550000000000001 -1 0  3.6 -1 0  3.65 -1 0  3.699999999999999 -1 0  3.75 -1 0  3.800000000000001 -1 0  3.85 -1 0  3.9 -1 0  3.949999999999999 -1 0  4 -1 0  4.050000000000001 -1 0  4.1 -1 0  4.15 -1 0  4.199999999999999 -1 0  4.25 -1 0  4.300000000000001 -1 0  4.35 -1 0  4.4 -1 0  4.449999999999999 -1 0  4.5 -1 0  4.550000000000001 -1 0  4.6 -1 0  4.65 -1 0  4.699999999999999 -1 0  4.75 -1 0  4.800000000000001 -1 0  4.85 -1 0  4.9 -1 0  4.949999999999999 -1 0  5 -1 0  -5 -0.95 0  -4.95 -0.95 0  -4.9 -0.95 0  -4.85 -0.95 0  -4.8 -0.95 0  -4.75 -0.95 0  -4.7 -0.95 0  -4.65 -0.95 0  -4.6 -0.95 0  -4.55 -0.95 0  -4.5 -0.95 0  -4.45 -0.95 0  -4.4 -0.95 0  -4.35 -0.95 0  -4.3 -0.95 0  -4.25 -0.95 0  -4.2 -0.95 0  -4.15 -0.95 0  -4.1 -0.95 0  -4.05 -0.95 0  -4 -0.95 0  -3.95 -0.95 0  -3.9 -0.95 0  -3.85 -0.95 0  -3.8 -0.95 0  -3.75 -0.95 0  -3.7 -0.95 0  -3.65 -0.95 0  -3.6 -0.95 0  -3.55 -0.95 0  -3.5 -0.95 0  -3.45 -0.95 0  -3.4 -0.95 0  -3.35 -0.95 0  -3.3 -0.95 0  -3.25 -0.95 0  -3.2 -0.95 0  -3.15 -0.95 0  -3.1 -0.95 0  -3.05 -0.95 0  -3 -0.95 0  -2.95 -0.95 0  -2.9 -0.95 0  -2.85 -0.95 0  -2.8 -0.95 0  -2.75 -0.95 0  -2.7 -0.95 0  -2.65 -0.95 0  -2.6 -0.95 0  -2.55 -0.95 0  -2.5 -0.95 0  -2.45 -0.95 0  -2.4 -0.95 0  -2.35 -0.95 0  -2.3 -0.95 0  -2.25 -0.95 0  -2.2 -0.95 0  -2.15 -0.95 0  -2.1 -0.95 0  -2.05 -0.95 0  -2 -0.95 0  -1.95 -0.95 0  -1.9 -0.95 0  -1.85 -0.95 0  -1.8 -0.95 0  -1.75 -0.95 0  -1.7 -0.95 0  -1.65 -0.95 0  -1.6 -0.95 0  -1.55 -0.95 0  -1.5 -0.95 0  -1.45 -0.95 0  -1.4 -0.95 0  -1.35 -0.95 0  -1.3 -0.95 0  -1.25 -0.95 0  -1.2 -0.95 0  -1.15 -0.95 0  -1.1 -0.95 0  -1.05 -0.95 0  -1 -0.95 0  -0.9500000000000002 -0.95 0  -0.9000000000000004 -0.95 0  -0.8499999999999996 -0.95 0  -0.7999999999999998 -0.95 0  -0.75 -0.95 0  -0.7000000000000002 -0.95 0  -0.6500000000000004 -0.95 0  -0.5999999999999996 -0.95 0  -0.5499999999999998 -0.95 0  -0.5 -0.95 0  -0.4500000000000002 -0.95 0  -0.4000000000000004 -0.95 0  -0.3499999999999996 -0.95 0  -0.2999999999999998 -0.95 0  -0.25 -0.95 0  -0.2000000000000002 -0.95 0  -0.1500000000000004 -0.95 0  -0.09999999999999964 -0.95 0  -0.04999999999999982 -0.95 0  0 -0.95 0  0.04999999999999982 -0.95 0  0.09999999999999964 -0.95 0  0.1500000000000004 -0.95 0  0.2000000000000002 -0.95 0  0.25 -0.95 0  0.2999999999999998 -0.95 0  0.3499999999999996 -0.95 0  0.4000000000000004 -0.95 0  0.4500000000000002 -0.95 0  0.5 -0.95 0  0.5499999999999998 -0.95 0  0.5999999999999996 -0.95 0  0.6500000000000004 -0.95 0  0.7000000000000002 -0.95 0  0.75 -0.95 0  0.7999999999999998 -0.95 0  0.8499999999999996 -0.95 0  0.9000000000000004 -0.95 0  0.9500000000000002 -0.95 0  1 -0.95 0  1.05 -0.95 0  1.1 -0.95 0  1.15 -0.95 0  1.2 -0.95 0  1.25 -0.95 0  1.3 -0.95 0  1.35 -0.95 0  1.4 -0.95 0  1.45 -0.95 0  1.5 -0.95 0  1.55 -0.95 0  1.6 -0.95 0  1.65 -0.95 0  1.7 -0.95 0  1.75 -0.95 0  1.8 -0.95 0  1.85 -0.95 0  1.9 -0.95 0  1.95 -0.95 0  2 -0.95 0  2.05 -0.95 0  2.1 -0.95 0  2.15 -0.95 0  2.2 -0.95 0  2.25 -0.95 0  2.3 -0.95 0  2.35 -0.95 0  2.4 -0.95 0  2.45 -0.95 0  2.5 -0.95 0  2.55 -0.95 0  2.6 -0.95 0  2.65 -0.95 0  2.7 -0.95 0  2.75 -0.95 0  2.8 -0.95 0  2.85 -0.95 0  2.9 -0.95 0  2.95 -0.95 0  3 -0.95 0  3.050000000000001 -0.95 0  3.1 -0.95 0  3.15 -0.95 0  3.199999999999999 -0.95 0  3.25 -0.95 0  3.300000000000001 -0.95 0  3.35 -0.95 0  3.4 -0.95 0  3.449999999999999 -0.95 0  3.5 -0.95 0  3.550000000000001 -0.95 0  3.6 -0.95 0  3.65 -0.95 0  3.699999999999999 -0.95 0  3.75 -0.95 0  3.800000000000001 -0.95 0  3.85 -0.95 0  3.9 -0.95 0  3.949999999999999 -0.95 0  4 -0.95 0  4.050000000000001 -0.95 0  4.1 -0.95 0  4.15 -0.95 0  4.199999999999999 -0.95 0  4.25 -0.95 0  4.300000000000001 -0.95 0  4.35 -0.95 0  4.4 -0.95 0  4.449999999999999 -0.95 0  4.5 -0.95 0  4.550000000000001 -0.95 0  4.6 -0.95 0  4.65 -0.95 0  4.699999999999999 -0.95 0  4.75 -0.95 0  4.800000000000001 -0.95 0  4.85 -0.95 0  4.9 -0.95 0  4.949999999999999 -0.95 0  5 -0.95 0  -5 -0.9 0  -4.95 -0.9 0  -4.9 -0.9 0  -4.85 -0.9 0  -4.8 -0.9 0  -4.75 -0.9 0  -4.7 -0.9 0  -4.65 -0.9 0  -4.6 -0.9 0  -4.55 -0.9 0  -4.5 -0.9 0  -4.45 -0.9 0  -4.4 -0.9 0  -4.35 -0.9 0  -4.3 -0.9 0  -4.25 -0.9 0  -4.2 -0.9 0  -4.15 -0.9 0  -4.1 -0.9 0  -4.05 -0.9 0  -4 -0.9 0  -3.95 -0.9 0  -3.9 -0.9 0  -3.85 -0.9 0  -3.8 -0.9 0  -3.75 -0.9 0  -3.7 -0.9 0  -3.65 -0.9 0  -3.6 -0.9 0  -3.55 -0.9 0  -3.5 -0.9 0  -3.45 -0.9 0  -3.4 -0.9 0  -3.35 -0.9 0  -3.3 -0.9 0  -3.25 -0.9 0  -3.2 -0.9 0  -3.15 -0.9 0  -3.1 -0.9 0  -3.05 -0.9 0  -3 -0.9 0  -2.95 -0.9 0  -2.9 -0.9 0  -2.85 -0.9 0  -2.8 -0.9 0  -2.75 -0.9 0  -2.7 -0.9 0  -2.65 -0.9 0  -2.6 -0.9 0  -2.55 -0.9 0  -2.5 -0.9 0  -2.45 -0.9 0  -2.4 -0.9 0  -2.35 -0.9 0  -2.3 -0.9 0  -2.25 -0.9 0  -2.2 -0.9 0  -2.15 -0.9 0  -2.1 -0.9 0  -2.05 -0.9 0  -2 -0.9 0  -1.95 -0.9 0  -1.9 -0.9 0  -1.85 -0.9 0  -1.8 -0.9 0  -1.75 -0.9 0  -1.7 -0.9 0  -1.65 -0.9 0  -1.6 -0.9 0  -1.55 -0.9 0  -1.5 -0.9 0  -1.45 -0.9 0  -1.4 -0.9 0  -1.35 -0.9 0  -1.3 -0.9 0  -1.25 -0.9 0  -1.2 -0.9 0  -1.15 -0.9 0  -1.1 -0.9 0  -1.05 -0.9 0  -1 -0.9 0  -0.9500000000000002 -0.9 0  -0.9000000000000004 -0.9 0  -0.8499999999999996 -0.9 0  -0.7999999999999998 -0.9 0  -0.75 -0.9 0  -0.7000000000000002 -0.9 0  -0.6500000000000004 -0.9 0  -0.5999999999999996 -0.9 0  -0.5499999999999998 -0.9 0  -0.5 -0.9 0  -0.4500000000000002 -0.9 0  -0.4000000000000004 -0.9 0  -0.3499999999999996 -0.9 0  -0.2999999999999998 -0.9 0  -0.25 -0.9 0  -0.2000000000000002 -0.9 0  -0.1500000000000004 -0.9 0  -0.09999999999999964 -0.9 0  -0.04999999999999982 -0.9 0  0 -0.9 0  0.04999999999999982 -0.9 0  0.09999999999999964 -0.9 0  0.1500000000000004 -0.9 0  0.2000000000000002 -0.9 0  0.25 -0.9 0  0.2999999999999998 -0.9 0  0.3499999999999996 -0.9 0  0.4000000000000004 -0.9 0  0.4500000000000002 -0.9 0  0.5 -0.9 0  0.5499999999999998 -0.9 0  0.5999999999999996 -0.9 0  0.6500000000000004 -0.9 0  0.7000000000000002 -0.9 0  0.75 -0.9 0  0.7999999999999998 -0.9 0  0.8499999999999996 -0.9 0  0.9000000000000004 -0.9 0  0.9500000000000002 -0.9 0  1 -0.9 0  1.05 -0.9 0  1.1 -0.9 0  1.15 -0.9 0  1.2 -0.9 0  1.25 -0.9 0  1.3 -0.9 0  1.35 -0.9 0  1.4 -0.9 0  1.45 -0.9 0  1.5 -0.9 0  1.55 -0.9 0  1.6 -0.9 0  1.65 -0.9 0  1.7 -0.9 0  1.75 -0.9 0  1.8 -0.9 0  1.85 -0.9 0  1.9 -0.9 0  1.95 -0.9 0  2 -0.9 0  2.05 -0.9 0  2.1 -0.9 0  2.15 -0.9 0  2.2 -0.9 0  2.25 -0.9 0  2.3 -0.9 0  2.35 -0.9 0  2.4 -0.9 0  2.45 -0.9 0  2.5 -0.9 0  2.55 -0.9 0  2.6 -0.9 0  2.65 -0.9 0  2.7 -0.9 0  2.75 -0.9 0  2.8 -0.9 0  2.85 -0.9 0  2.9 -0.9 0  2.95 -0.9 0  3 -0.9 0  3.050000000000001 -0.9 0  3.1 -0.9 0  3.15 -0.9 0  3.199999999999999 -0.9 0  3.25 -0.9 0  3.300000000000001 -0.9 0  3.35 -0.9 0  3.4 -0.9 0  3.449999999999999 -0.9 0  3.5 -0.9 0  3.550000000000001 -0.9 0  3.6 -0.9 0  3.65 -0.9 0  3.699999999999999 -0.9 0  3.75 -0.9 0  3.800000000000001 -0.9 0  3.85 -0.9 0  3.9 -0.9 0  3.949999999999999 -0.9 0  4 -0.9 0  4.050000000000001 -0.9 0  4.1 -0.9 0  4.15 -0.9 0  4.199999999999999 -0.9 0  4.25 -0.9 0  4.300000000000001 -0.9 0  4.35 -0.9 0  4.4 -0.9 0  4.449999999999999 -0.9 0  4.5 -0.9 0  4.550000000000001 -0.9 0  4.6 -0.9 0  4.65 -0.9 0  4.699999999999999 -0.9 0  4.75 -0.9 0  4.800000000000001 -0.9 0  4.85 -0.9 0  4.9 -0.9 0  4.949999999999999 -0.9 0  5 -0.9 0  -5 -0.85 0  -4.95 -0.85 0  -4.9 -0.85 0  -4.85 -0.85 0  -4.8 -0.85 0  -4.75 -0.85 0  -4.7 -0.85 0  -4.65 -0.85 0  -4.6 -0.85 0  -4.55 -0.85 0  -4.5 -0.85 0  -
[...]
<PointData  Vectors="f_15"> 
<DataArray  type="Float64"  Name="f_15"  NumberOfComponents="3" format="ascii">9.5278153056404360e+00 0.0000000000000000e+00 0.0000000000000000e+00  9.5240814003025935e+00 5.1678678681106635e-02 0.0000000000000000e+00  9.5207979922940993e+00 1.0600500736566261e-01 0.0000000000000000e+00  9.5098082611549888e+00 1.5582077568839206e-01 0.0000000000000000e+00  9.4998444957454549e+00 2.0938715348129347e-01 0.0000000000000000e+00  9.4818977794490209e+00 2.6018054143350672e-01 0.0000000000000000e+00  9.4651371637000565e+00 3.1307623432382808e-01 0.0000000000000000e+00  9.4409832921347778e+00 3.6443633172737805e-01 0.0000000000000000e+00  9.4178681716087631e+00 4.1746402083716966e-01 0.0000000000000000e+00  9.3876068275742774e+00 4.6901805127094676e-01 0.0000000000000000e+00  9.3591064396486470e+00 5.2252502268125978e-01 0.0000000000000000e+00  9.3232620005867357e+00 5.7437989361905861e-01 0.0000000000000000e+00  9.2896790974756929e+00 6.2844580526083316e-01 0.0000000000000000e+00  9.2492263266859727e+00 6.8074579520442713e-01 0.0000000000000000e+00  9.2112161184717518e+00 7.3570105398497387e-01 0.0000000000000000e+00  9.1664365925263507e+00 7.8826569153193371e-01 0.0000000000000000e+00  9.1250232933257642e+00 8.4457078502914940e-01 0.0000000000000000e+00  9.0764865287808068e+00 8.9741871706241982e-01 0.0000000000000000e+00  9.0319960279728182e+00 9.5511509589655430e-01 0.0000000000000000e+00  8.9805737038772850e+00 1.0084180053211924e+00 0.0000000000000000e+00  8.9335558259034809e+00 1.0678050767076579e+00 0.0000000000000000e+00  8.8794728604832969e+00 1.1211501555423102e+00 0.0000000000000000e+00  8.8306916717859494e+00 1.1827931424504523e+00 0.0000000000000000e+00  8.7743962609887607e+00 1.2360497997769091e+00 0.0000000000000000e+00  8.7239924047341564e+00 1.2997302027667028e+00 0.0000000000000000e+00  8.6661422063242330e+00 1.3533559460614757e+00 0.0000000000000000e+00  8.6144077964891590e+00 1.4187154612099575e+00 0.0000000000000000e+00  8.5551741090102240e+00 1.4728827446500972e+00 0.0000000000000000e+00  8.5025189038566058e+00 1.5397378526336989e+00 0.0000000000000000e+00  8.4422378218252661e+00 1.5945502192040515e+00 0.0000000000000000e+00  8.3886846485874660e+00 1.6631856650815304e+00 0.0000000000000000e+00  8.3277226503438531e+00 1.7170791257575169e+00 0.0000000000000000e+00  8.2735111101330059e+00 1.7904136217188138e+00 0.0000000000000000e+00  8.2118921300677989e+00 1.8398958700122017e+00 0.0000000000000000e+00  8.1572372145978864e+00 1.9193859197688696e+00 0.0000000000000000e+00  8.0952899203200630e+00 1.9675256643678967e+00 0.0000000000000000e+00  8.0399697935512471e+00 2.0440630924941936e+00 0.0000000000000000e+00  7.9781688393466652e+00 2.1041973873541457e+00 0.0000000000000000e+00  7.9220872091014032e+00 2.1641820487545034e+00 0.0000000000000000e+00  7.8605702881523021e+00 2.2448901203023457e+00 0.0000000000000000e+00  7.8038962834432661e+00 2.2878611840426792e+00 0.0000000000000000e+00  7.7425996950079039e+00 2.3810906943509988e+00 0.0000000000000000e+00  7.6856199669492682e+00 2.4207645147688406e+00 0.0000000000000000e+00  7.6243861826677159e+00 2.5107708337638637e+00 0.0000000000000000e+00  7.5673601736822391e+00 2.5608846690535554e+00 0.0000000000000000e+00  7.5061332328257677e+00 2.6390072710817205e+00 0.0000000000000000e+00  7.4491518212242269e+00 2.7005599833813760e+00 0.0000000000000000e+00  7.3880084375644941e+00 2.7731769450716204e+00 0.0000000000000000e+00  7.3309706621671449e+00 2.8361454835940116e+00 0.0000000000000000e+00  7.2702785824147229e+00 2.9102746350149471e+00 0.0000000000000000e+00  7.2128122035315672e+00 2.9745117674896981e+00 0.0000000000000000e+00  7.1528233845840576e+00 3.0456537064722844e+00 0.0000000000000000e+00  7.0952111653808618e+00 3.1135203762461905e+00 0.0000000000000000e+00  7.0353160741442258e+00 3.1847282899479841e+00 0.0000000000000000e+00  6.9781501783135429e+00 3.2511690081700944e+00 0.0000000000000000e+00  6.9184022543238193e+00 3.3236103007059765e+00 0.0000000000000000e+00  6.8610669659667485e+00 3.3917406812700612e+00 0.0000000000000000e+00  6.8021547548600862e+00 3.4624451420419797e+00 0.0000000000000000e+00  6.7447481439444310e+00 3.5318127280655593e+00 0.0000000000000000e+00  6.6857384374444839e+00 3.6030834443213515e+00 0.0000000000000000e+00  6.6293673591672935e+00 3.6720003258614837e+00 0.0000000000000000e+00  6.5701027204424545e+00 3.7441618613217686e+00 0.0000000000000000e+00  6.5138528864545497e+00 3.8133398288052618e+00 0.0000000000000000e+00  6.4554570093101651e+00 3.8847662796609734e+00 0.0000000000000000e+00  6.3992904591881166e+00 3.9551760657781587e+00 0.0000000000000000e+00  6.3406196814527434e+00 4.0271707510112371e+00 0.0000000000000000e+00  6.2858864617710344e+00 4.0961886116212280e+00 0.0000000000000000e+00  6.2266901883167458e+00 4.1696635909466790e+00 0.0000000000000000e+00  6.1724501087712405e+00 4.2388085113714578e+00 0.0000000000000000e+00  6.1139512434006686e+00 4.3118058282607681e+00 0.0000000000000000e+00  6.0599042008336630e+00 4.3815215415193256e+00 0.0000000000000000e+00  6.0013622708029377e+00 4.4550974574498348e+00 0.0000000000000000e+00  5.9485055258595612e+00 4.5238659051120225e+00 0.0000000000000000e+00  5.8897269144972153e+00 4.5986138845054585e+00 0.0000000000000000e+00  5.8373138856300031e+00 4.6672528503647337e+00 0.0000000000000000e+00  5.7794028550732754e+00 4.7416852732919157e+00 0.0000000000000000e+00  5.7268211229631270e+00 4.8111666487506932e+00 0.0000000000000000e+00  5.6697443323732335e+00 4.8851550540754660e+00 0.0000000000000000e+00  5.6173377384528438e+00 4.9548705469549734e+00 0.0000000000000000e+00  5.5610743569679579e+00 5.0289582057323949e+00 0.0000000000000000e+00  5.5083706491039077e+00 5.0994165713869579e+00 0.0000000000000000e+00  5.4537168552283779e+00 5.1720442677480856e+00 0.0000000000000000e+00  5.3999844215688606e+00 5.2445718047952719e+00 0.0000000000000000e+00  5.3473063815658541e+00 5.3155894149048244e+00 0.0000000000000000e+00  5.2925325863928947e+00 5.3897953540650470e+00 0.0000000000000000e+00  5.2417007322631504e+00 5.4592739366885628e+00 0.0000000000000000e+00  5.1859602454553055e+00 5.5354576694044528e+00 0.0000000000000000e+00  5.1373847630748397e+00 5.6028668671516675e+00 0.0000000000000000e+00  5.0802049605618693e+00 5.6811207408960636e+00 0.0000000000000000e+00  5.0343738479574833e+00 5.7459761828059852e+00 0.0000000000000000e+00  4.9754717445086056e+00 5.8273965234065637e+00 0.0000000000000000e+00  4.9318389848483006e+00 5.8897483726173547e+00 0.0000000000000000e+00  4.8716461510992755e+00 5.9733625667675296e+00 0.0000000000000000e+00  4.8309809740823493e+00 6.0331489758109438e+00 0.0000000000000000e+00  4.7690535157779417e+00 6.1195121077294123e+00 0.0000000000000000e+00  4.7295892438027289e+00 6.1777794983964736e+00 0.0000000000000000e+00  4.6690068622959879e+00 6.2641696687198687e+00 0.0000000000000000e+00  4.6264080148372875e+00 6.3269693345041649e+00 0.0000000000000000e+00  4.5720799515157129e+00 6.4047375086317606e+00 0.0000000000000000e+00  4.5273136004175996e+00 6.4720963023296818e+00 0.0000000000000000e+00  4.4741813845311151e+00 6.5493566011055542e+00 0.0000000000000000e+00  4.4351083337346981e+00 6.6079966243219728e+00 0.0000000000000000e+00  4.3734980158023484e+00 6.6988178285782132e+00 0.0000000000000000e+00  4.3321679408657321e+00 6.7622096054296508e+00 0.0000000000000000e+00  4.2793879771803391e+00 6.8404610112792383e+00 0.0000000000000000e+00  4.2360510796740591e+00 6.9070244863480195e+00 0.0000000000000000e+00  4.1848449983364073e+00 6.9847971287995412e+00 0.0000000000000000e+00  4.1408622178630523e+00 7.0523699240487732e+00 0.0000000000000000e+00  4.0938003667111493e+00 7.1239466249801833e+00 0.0000000000000000e+00  4.0518391487144845e+00 7.1903594599717628e+00 0.0000000000000000e+00  4.0061907954626550e+00 7.2616366901954557e+00 0.0000000000000000e+00  3.9622805382885380e+00 7.3289641424716798e+00 0.0000000000000000e+00  3.9169688526720714e+00 7.4012131079430574e+00 0.0000000000000000e+00  3.8775149713002581e+00 7.4637912418226930e+00 0.0000000000000000e+00  3.8398395795993627e+00 7.5228731942014653e+00 0.0000000000000000e+00  3.7978369071351454e+00 7.5907739457558545e+00 0.0000000000000000e+00  3.8015230020804904e+00 7.5869419256776753e+00 0.0000000000000000e+00  3.8590825726739220e+00 7.4930394888089946e+00 0.0000000000000000e+00  3.9075031403022131e+00 7.4159702024817431e+00 0.0000000000000000e+00  3.9286670796939940e+00 7.3819228871981375e+00 0.0000000000000000e+00  3.9367121205071016e+00 7.3698998498514952e+00 0.0000000000000000e+00  3.9422532666417931e+00 7.3608686368844900e+00 0.0000000000000000e+00  3.9450146318126369e+00 7.3565309396501002e+00 0.0000000000000000e+00  3.9483924334212448e+00 7.3509124485197326e+00 0.0000000000000000e+00  3.9488493742767448e+00 7.3496829657845071e+00 0.0000000000000000e+00  3.9509542368368749e+00 7.3462547048987474e+00 0.0000000000000000e+00  3.9505190734564271e+00 7.3462144401662988e+00 0.0000000000000000e+00  3.9529547782840435e+00 7.3427805433270734e+00 0.0000000000000000e+00  3.9531157990330614e+00 7.3420488108247710e+00 0.0000000000000000e+00  3.9560117855633474e+00 7.3383849732109852e+00 0.0000000000000000e+00  3.9560326988797838e+00 7.3379182715035727e+00 0.0000000000000000e+00  3.9580898131471414e+00 7.3354364425673246e+00 0.0000000000000000e+00  3.9574138870427733e+00 7.3358188503331538e+00 0.0000000000000000e+00  3.9586638507793710e+00 7.3342996407950318e+00 0.0000000000000000e+00  3.9579301556518280e+00 7.3347546745077237e+00 0.0000000000000000e+00  3.9589140425553824e+00 7.3335340316048896e+00 0.0000000000000000e+00  3.9584356191815973e+00 7.3337589957813032e+00 0.0000000000000000e+00  3.9592007220586849e+00 7.3327906830951530e+00 0.0000000000000000e+00  3.9588824422936262e+00 7.3329021205983222e+00 0.0000000000000000e+00  3.9593913850339346e+00 7.3322168680593149e+00 0.0000000000000000e+00  3.9591726576189421e+00 7.3322577500820385e+00 0.0000000000000000e+00  3.9594949204088548e+00 7.3317708921001028e+00 0.0000000000000000e+00  3.9593598660426856e+00 7.3317497074763702e+00 0.0000000000000000e+00  3.9595640572580812e+00 7.3313869460537395e+00 0.0000000000000000e+00  3.9594846133999129e+00 7.3313273770344898e+00 0.0000000000000000e+00  3.9596055026641817e+00 7.3310537684880757e+00 0.0000000000000000e+00  3.9595499880032015e+00 7.3309784642305171e+00 0.0000000000000000e+00  3.9596148814385872e+00 7.3307602107764591e+00 0.0000000000000000e+00  3.9595653104793382e+00 7.3306818254421291e+00 0.0000000000000000e+00  3.9595966384100660e+00 7.3304851073517554e+00 0.0000000000000000e+00  3.9595469434367372e+00 7.3303995686645127e+00 0.0000000000000000e+00  3.9595569155006665e+00 7.3301996062222274e+00 0.0000000000000000e+00  3.9595031282876079e+00 7.3300886550497886e+00 0.0000000000000000e+00  3.9594994484941797e+00 7.3298503813757927e+00 0.0000000000000000e+00  3.9594388886490579e+00 7.3296816834992802e+00 0.0000000000000000e+00  3.9594257896752532e+00 7.3293501574721462e+00 0.0000000000000000e+00  3.9593595396051753e+00 7.3290636318854876e+00 0.0000000000000000e+00  3.9593383290076263e+00 7.3285675776288537e+00 0.0000000000000000e+00  3.9592673990494021e+00 7.3280782205210988e+00 0.0000000000000000e+00  3.9592401274588287e+00 7.3273297928696630e+00 0.0000000000000000e+00  3.9591638220095509e+00 7.3265505008517033e+00 0.0000000000000000e+00  3.9591315958714919e+00 7.3254649291955589e+00 0.0000000000000000e+00  3.9590502723342227e+00 7.3243293462124175e+00 0.0000000000000000e+00  3.9590123981820717e+00 7.3228616865391993e+00 0.0000000000000000e+00  3.9589258727280932e+00 7.3213533690065855e+00 0.0000000000000000e+00  3.9588834945744686e+00 7.3195218063126193e+00 0.0000000000000000e+00  3.9587894966373565e+00 7.3176978884150854e+00 0.0000000000000000e+00  3.9587448069186983e+00 7.3155908073489009e+00 0.0000000000000000e+00  3.9586419590584754e+00 7.3135743160662026e+00 0.0000000000000000e+00  3.9585956194787499e+00 7.3113360725312626e+00 0.0000000000000000e+00  3.9584831402672505e+00 7.3092868600167193e+00 0.0000000000000000e+00  3.9584364538154944e+00 7.3070764461541593e+00 0.0000000000000000e+00  3.9583112464063444e+00 7.3051533134266728e+00 0.0000000000000000e+00  3.9582670335807051e+00 7.3031034248438624e+00 0.0000000000000000e+00  3.9581249858610135e+00 7.3014232300088482e+00 0.0000000000000000e+00  3.9580846812399075e+00 7.2996158491779894e+00 0.0000000000000000e+00  3.9579221768409871e+00 7.2982343042027145e+00 0.0000000000000000e+00  3.9578840797731032e+00 7.2966871751211135e+00 0.0000000000000000e+00  3.9576940257200004e+00 7.2956026902509441e+00 0.0000000000000000e+00  3.9576508314454069e+00 7.2942727242943102e+00 0.0000000000000000e+00  3.9574109183207069e+00 7.2934274995186730e+00 0.0000000000000000e+00  3.9573333175256438e+00 7.2922083327577027e+00 0.0000000000000000e+00  3.9569762367285968e+00 7.2914668182102131e+00 0.0000000000000000e+00  3.9567466899017805e+00 7.2901058245995669e+00 0.0000000000000000e+00  3.9560601236280570e+00 7.2891187691603632e+00 0.0000000000000000e+00  3.9552555287034981e+00 7.2868992124377421e+00 0.0000000000000000e+00  3.9535138903812048e+00 7.2845325463335522e+00 0.0000000000000000e+00  3.9506749518440247e+00 7.2791528897828686e+00 0.0000000000000000e+00  3.9453354546405772e+00 7.2714728635825638e+00 0.0000000000000000e+00  3.9354126927342454e+00 7.2550670833744340e+00 0.0000000000000000e+00  3.9175461812952617e+00 7.2282053464268561e+00 0.0000000000000000e+00  3.8830160944994994e+00 7.1731273266190660e+00 0.0000000000000000e+00  3.8221710780242386e+00 7.0781808365451644e+00 0.0000000000000000e+00  3.7054169594356079e+00 6.8875293406357372e+00 0.0000000000000000e+00  3.5069602914860871e+00 6.5533446827978779e+00 0.0000000000000000e+00  3.1518420707975676e+00 5.9003972899442916e+00 0.0000000000000000e+00  2.6212269046689887e+00 4.7954526333831335e+00 0.0000000000000000e+00  1.8350588887550330e+00 2.7041464227526779e+00 0.0000000000000000e+00  1.1714209082202287e+00 5.4543857630890047e-01 0.0000000000000000e+00  1.0124447473185851e+00 3.9433608701386701e-02 0.0000000000000000e+00  1.0014839730536200e+00 0.0000000000000000e+00 0.0000000000000000e+00  9.5254785936002531e+00 0.0000000000000000e+00 3.1999076373572994e-03  9.5237698645908928e+00 5.0673494999583728e-02 -1.7773759729894020e-03  9.5182779658409800e+00 1.0277930738756927e-01 9.7512112215607369e-04  9.5097018842905872e+00 1.5373789077926878e-01 -1.2931778258765772e-03  9.4972028730759028e+00 2.0721672113565262e-01 1.4148391432159339e-03  9.4816485144827869e+00 2.5751058085352435e-01 -1.4601608105359360e-03  9.4627651995897004e+00 3.1128093703070231e-01 1.5075144708893609e-03  9.4406318565081264e+00 3.6197783356321322e-01 -1.4378245962879878e-03  9.4154156485989517e+00 4.1569798688150100e-01 1.4458446048460185e-03  9.3876019748186117e+00 4.6693376480907928e-01 -1.3672788182701686e-03  9.3565761524546449e+00 5.2090961839123950e-01 1.3694947260182357e-03  9.3233170585329503e+00 5.7263393676076069e-01 -1.2861036945646836e-03  9.2874850396951842e+00 6.2707876818548713e-01 1.2822104864206876e-03  9.2493922353299425e+00 6.7952223834551129e-01 -1.1962813717232251e-03  9.2090708884200350e+00 7.3440094344649698e-01 1.1866669224290924e-03  9.1671524027468418e+00 7.8785615029652245e-01 -1.0982933491419668e-03  9.1229682765181437e+00 8.4334070135196237e-01 1.0665476607365104e-03  9.0775291726410554e+00 8.9775715760063091e-01 -9.6863407132342992e-04  9.0304301895164443e+00 9.5413423928335217e-01 9.1007034913047813e-04  8.9820216142642550e+00 1.0096865860974369e+00 -8.0592467574631445e-04  8.9322780707689784e+00 1.0667517316510968e+00 7.2143359909316543e-04  8.8816945856177583e+00 1.1238130900426122e+00 -6.0000125931298717e-04  8.8297954091682875e+00 1.1816074958061920e+00 4.5679409951253781e-04  8.7771887812688121e+00 1.2399204554241146e+00 -2.7042595405565932e-04  8.7238292993107276e+00 1.2988039953965906e+00 1.8063837961470299e-05  8.6695299555364951e+00 1.3583394959112849e+00 2.5433240885535633e-04  8.6148475317065518e+00 1.4179706955473244e+00 -5.6968112314320217e-04  8.5593551593777910e+00 1.4791319176732121e+00 8.1949499431680818e-04  8.5036206107361849e+00 1.5392492325119429e+00 -1.0370445072457280e-03  8.4470252058718476e+00 1.6020480304990001e+00 1.1071795115972763e-03  8.3905689904613556e+00 1.6623321758670770e+00 -1.1474472762012737e-03  8.3331311604138154e+00 1.7274149235258978e+00 1.1605996985307619e-03  8.2759914426084542e+00 1.7870029082752639e+00 -1.4523672350379303e-03  8.2178627548736163e+00 1.8542657869526982e+00 2.1245960237724188e-03  8.1604641432111684e+00 1.9147198089995938e+00 -3.3434674309544450e-03  8.1013523659371138e+00 1.9810136783124639e+00 4.7584051772958927e-03  8.0440901816847781e+00 2.0454588955081010e+00 -5.9065365986111342e-03  7.9842325860869305e+00 2.1090798799342561e+00 6.0034308678072155e-03  7.9266371433768983e+00 2.1766590018272609e+00 -4.6686485248283302e-03  7.8669847471181260e+00 2.2399817118827121e+00 1.9157290714312367e-03  7.8082649552099799e+00 2.3083244409237458e+00 1.5217880041052065e-03  7.7495362113367534e+00 2.3720742954100191e+00 -4.6635467947057857e-03  7.6895676924138554e+00 2.4415637002298451e+00 6.5606768407451589e-03  7.6315411181543533e+00 2.5055586967126757e+00 -6.8803525890971697e-03  7.5710890658566132e+00 2.5749302758088497e+00 5.8401085901749177e-03  7.5129894479473665e+00 2.6407246850332569e+00 -4.1654295114592014e-03  7.4528226184798543e+00 2.7099414165332201e+00 2.5752270618779128e-03  7.3942680577544069e+00 2.7754041962391152e+00 -1.5513054309809300e-03  7.3346584480543591e+00 2.8462215837375764e+00 1.1318167395149975e-03  7.2756504439715783e+00 2.9126700226552749e+00 -1.0176565954732831e-03  7.2165132896919033e+00 2.9811013364576908e+00 9.2553103748678489e-04  7.1575250563685096e+00 3.0507239605126788e+00 -7.6992600384382997e-04  7.0982804760916878e+00 3.1194673911807884e+00 7.1648311241065529e-04  7.0398348878018266e+00 3.1869798056909895e+00 -7.8052104849138078e-04  6.9806046259085468e+00 3.2580526786226409e+00 8.4272658688117530e-04  6.9220981229727538e+00 3.3265847201324665e+00 -7.4313627689808924e-04  6.8635905819068217e+00 3.3958331609786025e+00 6.3189146623901190e-04  6.8050658865651643e+00 3.4656984623058436e+00 -6.3325313186724842e-04  6.7464965359082498e+00 3.5360521332653998e+00 7.3230408163085683e-04  6.6889135946842320e+00 3.6049136562710440e+00 -7.4188604762438087e-04  6.6302411062863831e+00 3.6761860734170519e+00 6.9810165847275160e-04  6.5726404084597201e+00 3.7454995523932930e+00 -6.8580197740189725e-04  6.5150397298678966e+00 3.8161898807373231e+00 7.0678209559094183e-04  6.4573041037654058e+00 3.8867274299221646e+00 -6.6495714669424723e-04  6.3997320193907443e+00 3.9576273619085587e+00 6.1684662610464003e-04  6.3431251484443036e+00 4.0271966423283372e+00 -6.2412887062874005e-04  6.2854121837109966e+00 4.0994525532270609e+00 6.3571315920400967e-04  6.2289075299099990e+00 4.1694858093338487e+00 -5.9273810168464301e-04  6.1723243911207684e+00 4.2407217695046153e+00 5.4093381765620561e-04  6.1156647568705642e+00 4.3118366628553435e+00 -5.2460986643524396e-04  6.0593204440402211e+00 4.3834003503844068e+00 5.0888751476512763e-04  6.0036894807569814e+00 4.4538479304953631e+00 -4.9475548004248064e-04  5.9472432669257511e+00 4.5264010363911753e+00 4.9186713534299647e-04  5.8919859241614123e+00 4.5969053123899233e+00 -4.7613470137333324e-04  5.8363969723389637e+00 4.6690749618263405e+00 4.5061498290767670e-04  5.7811799882972998e+00 4.7403134849843047e+00 -4.1961741637068647e-04  5.7259779714196481e+00 4.8125415648778445e+00 3.9253825052557647e-04  5.6716065206071908e+00 4.8834718414505423e+00 -3.3374169630183751e-04  5.6163345806441525e+00 4.9566518069155610e+00 3.4735909504052503e-04  5.5627014819283662e+00 5.0271348137980167e+00 -3.4450035200637660e-04  5.5077934080259014e+00 5.1004372442021433e+00 3.5310402546903820e-04  5.4546022164619332e+00 5.1713271062374275e+00 -2.8226902771573208e-04  5.4000379507780307e+00 5.2448832881434582e