<?xml version="1.0"?>
<VTKFile type="UnstructuredGrid"  version="0.1"  >
<UnstructuredGrid>
<Piece  NumberOfPoints="8241" NumberOfCells="16000">
<Points>
<DataArray  type="Float64"  NumberOfComponents="3"  format="ascii">-5 -1 0  -4.95 -1 0  -4.9 -1 0  -4.85 -1 0  -4.8 -1 0  -4.75 -1 0  -4.7 -1 0  -4.65 -1 0  -4.6 -1 0  -4.55 -1 0  -4.5 -1 0  -4.45 -1 0  -4.4 -1 0  -4.35 -1 0  -4.3 -1 0  -4.25 -1 0  -4.2 -1 0  -4.15 -1 0  -4.1 -1 0  -4.05 -1 0  -4 -1 0  -3.95 -1 0  -3.9 -1 0  -3.85 -1 0  -3.8 -1 0  -3.75 -1 0  -3.7 -1 0  -3.65 -1 0  -3.6 -1 0  -3.55 -1 0  -3.5 -1 0  -3.45 -1 0  -3.4 -1 0  -3.35 -1 0  -3.3 -1 0  -3.25 -1 0  -3.2 -1 0  -3.15 -1 0  -3.1 -1 0  -3.05 -1 0  -3 -1 0  -2.95 -1 0  -2.9 -1 0  -2.85 -1 0  -2.8 -1 0  -2.75 -1 0  -2.7 -1 0  -2.65 -1 0  -2.6 -1 0  -2.55 -1 0  -2.5 -1 0  -2.45 -1 0  -2.4 -1 0  -2.35 -1 0  -2.3 -1 0  -2.25 -1 0  -2.2 -1 0  -2.15 -1 0  -2.1 -1 0  -2.05 -1 0  -2 -1 0  -1.95 -1 0  -1.9 -1 0  -1.85 -1 0  -1.8 -1 0  -1.75 -1 0  -1.7 -1 0  -1.65 -1 0  -1.6 -1 0  -1.55 -1 0  -1.5 -1 0  -1.45 -1 0  -1.4 -1 0  -1.35 -1 0  -1.3 -1 0  -1.25 -1 0  -1.2 -1 0  -1.15 -1 0  -1.1 -1 0  -1.05 -1 0  -1 -1 0  -0.9500000000000002 -1 0  -0.9000000000000004 -1 0  -0.8499999999999996 -1 0  -0.7999999999999998 -1 0  -0.75 -1 0  -0.7000000000000002 -1 0  -0.6500000000000004 -1 0  -0.5999999999999996 -1 0  -0.5499999999999998 -1 0  -0.5 -1 0  -0.4500000000000002 -1 0  -0.4000000000000004 -1 0  -0.3499999999999996 -1 0  -0.2999999999999998 -1 0  -0.25 -1 0  -0.2000000000000002 -1 0  -0.1500000000000004 -1 0  -0.09999999999999964 -1 0  -0.04999999999999982 -1 0  0 -1 0  0.04999999999999982 -1 0  0.09999999999999964 -1 0  0.1500000000000004 -1 0  0.2000000000000002 -1 0  0.25 -1 0  0.2999999999999998 -1 0  0.3499999999999996 -1 0  0.4000000000000004 -1 0  0.4500000000000002 -1 0  0.5 -1 0  0.5499999999999998 -1 0  0.5999999999999996 -1 0  0.6500000000000004 -1 0  0.7000000000000002 -1 0  0.75 -1 0  0.7999999999999998 -1 0  0.8499999999999996 -1 0  0.9000000000000004 -1 0  0.9500000000000002 -1 0  1 -1 0  1.05 -1 0  1.1 -1 0  1.15 -1 0  1.2 -1 0  1.25 -1 0  1.3 -1 0  1.35 -1 0  1.4 -1 0  1.45 -1 0  1.5 -1 0  1.55 -1 0  1.6 -1 0  1.65 -1 0  1.7 -1 0  1.75 -1 0  1.8 -1 0  1.85 -1 0  1.9 -1 0  1.95 -1 0  2 -1 0  2.05 -1 0  2.1 -1 0  2.15 -1 0  2.2 -1 0  2.25 -1 0  2.3 -1 0  2.35 -1 0  2.4 -1 0  2.45 -1 0  2.5 -1 0  2.55 -1 0  2.6 -1 0  2.65 -1 0  2.7 -1 0  2.75 -1 0  2.8 -1 0  2.85 -1 0  2.9 -1 0  2.95 -1 0  3 -1 0  3.050000000000001 -1 0  3.1 -1 0  3.15 -1 0  3.199999999999999 -1 0  3.25 -1 0  3.300000000000001 -1 0  3.35 -1 0  3.4 -1 0  3.449999999999999 -1 0  3.5 -1 0  3.550000000000001 -1 0  3.6 -1 0  3.65 -1 0  3.699999999999999 -1 0  3.75 -1 0  3.800000000000001 -1 0  3.85 -1 0  3.9 -1 0  3.949999999999999 -1 0  4 -1 0  4.050000000000001 -1 0  4.1 -1 0  4.15 -1 0  4.199999999999999 -1 0  4.25 -1 0  4.300000000000001 -1 0  4.35 -1 0  4.4 -1 0  4.449999999999999 -1 0  4.5 -1 0  4.550000000000001 -1 0  4.6 -1 0  4.65 -1 0  4.699999999999999 -1 0  4.75 -1 0  4.800000000000001 -1 0  4.85 -1 0  4.9 -1 0  4.949999999999999 -1 0  5 -1 0  -5 -0.95 0  -4.95 -0.95 0  -4.9 -0.95 0  -4.85 -0.95 0  -4.8 -0.95 0  -4.75 -0.95 0  -4.7 -0.95 0  -4.65 -0.95 0  -4.6 -0.95 0  -4.55 -0.95 0  -4.5 -0.95 0  -4.45 -0.95 0  -4.4 -0.95 0  -4.35 -0.95 0  -4.3 -0.95 0  -4.25 -0.95 0  -4.2 -0.95 0  -4.15 -0.95 0  -4.1 -0.95 0  -4.05 -0.95 0  -4 -0.95 0  -3.95 -0.95 0  -3.9 -0.95 0  -3.85 -0.95 0  -3.8 -0.95 0  -3.75 -0.95 0  -3.7 -0.95 0  -3.65 -0.95 0  -3.6 -0.95 0  -3.55 -0.95 0  -3.5 -0.95 0  -3.45 -0.95 0  -3.4 -0.95 0  -3.35 -0.95 0  -3.3 -0.95 0  -3.25 -0.95 0  -3.2 -0.95 0  -3.15 -0.95 0  -3.1 -0.95 0  -3.05 -0.95 0  -3 -0.95 0  -2.95 -0.95 0  -2.9 -0.95 0  -2.85 -0.95 0  -2.8 -0.95 0  -2.75 -0.95 0  -2.7 -0.95 0  -2.65 -0.95 0  -2.6 -0.95 0  -2.55 -0.95 0  -2.5 -0.95 0  -2.45 -0.95 0  -2.4 -0.95 0  -2.35 -0.95 0  -2.3 -0.95 0  -2.25 -0.95 0  -2.2 -0.95 0  -2.15 -0.95 0  -2.1 -0.95 0  -2.05 -0.95 0  -2 -0.95 0  -1.95 -0.95 0  -1.9 -0.95 0  -1.85 -0.95 0  -1.8 -0.95 0  -1.75 -0.95 0  -1.7 -0.95 0  -1.65 -0.95 0  -1.6 -0.95 0  -1.55 -0.95 0  -1.5 -0.95 0  -1.45 -0.95 0  -1.4 -0.95 0  -1.35 -0.95 0  -1.3 -0.95 0  -1.25 -0.95 0  -1.2 -0.95 0  -1.15 -0.95 0  -1.1 -0.95 0  -1.05 -0.95 0  -1 -0.95 0  -0.9500000000000002 -0.95 0  -0.9000000000000004 -0.95 0  -0.8499999999999996 -0.95 0  -0.7999999999999998 -0.95 0  -0.75 -0.95 0  -0.7000000000000002 -0.95 0  -0.6500000000000004 -0.95 0  -0.5999999999999996 -0.95 0  -0.5499999999999998 -0.95 0  -0.5 -0.95 0  -0.4500000000000002 -0.95 0  -0.4000000000000004 -0.95 0  -0.3499999999999996 -0.95 0  -0.2999999999999998 -0.95 0  -0.25 -0.95 0  -0.2000000000000002 -0.95 0  -0.1500000000000004 -0.95 0  -0.09999999999999964 -0.95 0  -0.04999999999999982 -0.95 0  0 -0.95 0  0.04999999999999982 -0.95 0  0.09999999999999964 -0.95 0  0.1500000000000004 -0.95 0  0.2000000000000002 -0.95 0  0.25 -0.95 0  0.2999999999999998 -0.95 0  0.3499999999999996 -0.95 0  0.4000000000000004 -0.95 0  0.4500000000000002 -0.95 0  0.5 -0.95 0  0.5499999999999998 -0.95 0  0.5999999999999996 -0.95 0  0.6500000000000004 -0.95 0  0.7000000000000002 -0.95 0  0.75 -0.95 0  0.7999999999999998 -0.95 0  0.8499999999999996 -0.95 0  0.9000000000000004 -0.95 0  0.9500000000000002 -0.95 0  1 -0.95 0  1.05 -0.95 0  1.1 -0.95 0  1.15 -0.95 0  1.2 -0.95 0  1.25 -0.95 0  1.3 -0.95 0  1.35 -0.95 0  1.4 -0.95 0  1.45 -0.95 0  1.5 -0.95 0  1.55 -0.95 0  1.6 -0.95 0  1.65 -0.95 0  1.7 -0.95 0  1.75 -0.95 0  1.8 -0.95 0  1.85 -0.95 0  1.9 -0.95 0  1.95 -0.95 0  2 -0.95 0  2.05 -0.95 0  2.1 -0.95 0  2.15 -0.95 0  2.2 -0.95 0  2.25 -0.95 0  2.3 -0.95 0  2.35 -0.95 0  2.4 -0.95 0  2.45 -0.95 0  2.5 -0.95 0  2.55 -0.95 0  2.6 -0.95 0  2.65 -0.95 0  2.7 -0.95 0  2.75 -0.95 0  2.8 -0.95 0  2.85 -0.95 0  2.9 -0.95 0  2.95 -0.95 0  3 -0.95 0  3.050000000000001 -0.95 0  3.1 -0.95 0  3.15 -0.95 0  3.199999999999999 -0.95 0  3.25 -0.95 0  3.300000000000001 -0.95 0  3.35 -0.95 0  3.4 -0.95 0  3.449999999999999 -0.95 0  3.5 -0.95 0  3.550000000000001 -0.95 0  3.6 -0.95 0  3.65 -0.95 0  3.699999999999999 -0.95 0  3.75 -0.95 0  3.800000000000001 -0.95 0  3.85 -0.95 0  3.9 -0.95 0  3.949999999999999 -0.95 0  4 -0.95 0  4.050000000000001 -0.95 0  4.1 -0.95 0  4.15 -0.95 0  4.199999999999999 -0.95 0  4.25 -0.95 0  4.300000000000001 -0.95 0  4.35 -0.95 0  4.4 -0.95 0  4.449999999999999 -0.95 0  4.5 -0.95 0  4.550000000000001 -0.95 0  4.6 -0.95 0  4.65 -0.95 0  4.699999999999999 -0.95 0  4.75 -0.95 0  4.800000000000001 -0.95 0  4.85 -0.95 0  4.9 -0.95 0  4.949999999999999 -0.95 0  5 -0.95 0  -5 -0.9 0  -4.95 -0.9 0  -4.9 -0.9 0  -4.85 -0.9 0  -4.8 -0.9 0  -4.75 -0.9 0  -4.7 -0.9 0  -4.65 -0.9 0  -4.6 -0.9 0  -4.55 -0.9 0  -4.5 -0.9 0  -4.45 -0.9 0  -4.4 -0.9 0  -4.35 -0.9 0  -4.3 -0.9 0  -4.25 -0.9 0  -4.2 -0.9 0  -4.15 -0.9 0  -4.1 -0.9 0  -4.05 -0.9 0  -4 -0.9 0  -3.95 -0.9 0  -3.9 -0.9 0  -3.85 -0.9 0  -3.8 -0.9 0  -3.75 -0.9 0  -3.7 -0.9 0  -3.65 -0.9 0  -3.6 -0.9 0  -3.55 -0.9 0  -3.5 -0.9 0  -3.45 -0.9 0  -3.4 -0.9 0  -3.35 -0.9 0  -3.3 -0.9 0  -3.25 -0.9 0  -3.2 -0.9 0  -3.15 -0.9 0  -3.1 -0.9 0  -3.05 -0.9 0  -3 -0.9 0  -2.95 -0.9 0  -2.9 -0.9 0  -2.85 -0.9 0  -2.8 -0.9 0  -2.75 -0.9 0  -2.7 -0.9 0  -2.65 -0.9 0  -2.6 -0.9 0  -2.55 -0.9 0  -2.5 -0.9 0  -2.45 -0.9 0  -2.4 -0.9 0  -2.35 -0.9 0  -2.3 -0.9 0  -2.25 -0.9 0  -2.2 -0.9 0  -2.15 -0.9 0  -2.1 -0.9 0  -2.05 -0.9 0  -2 -0.9 0  -1.95 -0.9 0  -1.9 -0.9 0  -1.85 -0.9 0  -1.8 -0.9 0  -1.75 -0.9 0  -1.7 -0.9 0  -1.65 -0.9 0  -1.6 -0.9 0  -1.55 -0.9 0  -1.5 -0.9 0  -1.45 -0.9 0  -1.4 -0.9 0  -1.35 -0.9 0  -1.3 -0.9 0  -1.25 -0.9 0  -1.2 -0.9 0  -1.15 -0.9 0  -1.1 -0.9 0  -1.05 -0.9 0  -1 -0.9 0  -0.9500000000000002 -0.9 0  -0.9000000000000004 -0.9 0  -0.8499999999999996 -0.9 0  -0.7999999999999998 -0.9 0  -0.75 -0.9 0  -0.7000000000000002 -0.9 0  -0.6500000000000004 -0.9 0  -0.5999999999999996 -0.9 0  -0.5499999999999998 -0.9 0  -0.5 -0.9 0  -0.4500000000000002 -0.9 0  -0.4000000000000004 -0.9 0  -0.3499999999999996 -0.9 0  -0.2999999999999998 -0.9 0  -0.25 -0.9 0  -0.2000000000000002 -0.9 0  -0.1500000000000004 -0.9 0  -0.09999999999999964 -0.9 0  -0.04999999999999982 -0.9 0  0 -0.9 0  0.04999999999999982 -0.9 0  0.09999999999999964 -0.9 0  0.1500000000000004 -0.9 0  0.2000000000000002 -0.9 0  0.25 -0.9 0  0.2999999999999998 -0.9 0  0.3499999999999996 -0.9 0  0.4000000000000004 -0.9 0  0.4500000000000002 -0.9 0  0.5 -0.9 0  0.5499999999999998 -0.9 0  0.5999999999999996 -0.9 0  0.6500000000000004 -0.9 0  0.7000000000000002 -0.9 0  0.75 -0.9 0  0.7999999999999998 -0.9 0  0.8499999999999996 -0.9 0  0.9000000000000004 -0.9 0  0.9500000000000002 -0.9 0  1 -0.9 0  1.05 -0.9 0  1.1 -0.9 0  1.15 -0.9 0  1.2 -0.9 0  1.25 -0.9 0  1.3 -0.9 0  1.35 -0.9 0  1.4 -0.9 0  1.45 -0.9 0  1.5 -0.9 0  1.55 -0.9 0  1.6 -0.9 0  1.65 -0.9 0  1.7 -0.9 0  1.75 -0.9 0  1.8 -0.9 0  1.85 -0.9 0  1.9 -0.9 0  1.95 -0.9 0  2 -0.9 0  2.05 -0.9 0  2.1 -0.9 0  2.15 -0.9 0  2.2 -0.9 0  2.25 -0.9 0  2.3 -0.9 0  2.35 -0.9 0  2.4 -0.9 0  2.45 -0.9 0  2.5 -0.9 0  2.55 -0.9 0  2.6 -0.9 0  2.65 -0.9 0  2.7 -0.9 0  2.75 -0.9 0  2.8 -0.9 0  2.85 -0.9 0  2.9 -0.9 0  2.95 -0.9 0  3 -0.9 0  3.050000000000001 -0.9 0  3.1 -0.9 0  3.15 -0.9 0  3.199999999999999 -0.9 0  3.25 -0.9 0  3.300000000000001 -0.9 0  3.35 -0.9 0  3.4 -0.9 0  3.449999999999999 -0.9 0  3.5 -0.9 0  3.550000000000001 -0.9 0  3.6 -0.9 0  3.65 -0.9 0  3.699999999999999 -0.9 0  3.75 -0.9 0  3.800000000000001 -0.9 0  3.85 -0.9 0  3.9 -0.9 0  3.949999999999999 -0.9 0  4 -0.9 0  4.050000000000001 -0.9 0  4.1 -0.9 0  4.15 -0.9 0  4.199999999999999 -0.9 0  4.25 -0.9 0  4.300000000000001 -0.9 0  4.35 -0.9 0  4.4 -0.9 0  4.449999999999999 -0.9 0  4.5 -0.9 0  4.550000000000001 -0.9 0  4.6 -0.9 0  4.65 -0.9 0  4.699999999999999 -0.9 0  4.75 -0.9 0  4.800000000000001 -0.9 0  4.85 -0.9 0  4.9 -0.9 0  4.949999999999999 -0.9 0  5 -0.9 0  -5 -0.85 0  -4.95 -0.85 0  -4.9 -0.85 0  -4.85 -0.85 0  -4.8 -0.85 0  -4.75 -0.85 0  -4.7 -0.85 0  -4.65 -0.85 0  -4.6 -0.85 0  -4.55 -0.85 0  -4.5 -0.85 0  -
[...]
<PointData  Vectors="f_15"> 
<DataArray  type="Float64"  Name="f_15"  NumberOfComponents="3" format="ascii">9.9936757283956990e+00 0.0000000000000000e+00 0.0000000000000000e+00  1.0004879172431036e+01 6.0294120519551603e-03 0.0000000000000000e+00  9.9949522249093832e+00 -6.6775178534712971e-03 0.0000000000000000e+00  1.0004518307116568e+01 5.9014446637550054e-03 0.0000000000000000e+00  9.9948888714579027e+00 -5.6031264570490730e-03 0.0000000000000000e+00  1.0005034504767512e+01 4.8335575883707979e-03 0.0000000000000000e+00  9.9946527634825131e+00 -4.8871867217553230e-03 0.0000000000000000e+00  1.0005297495879537e+01 4.7767956527922234e-03 0.0000000000000000e+00  9.9944993200389192e+00 -4.9647033965129648e-03 0.0000000000000000e+00  1.0005626243763933e+01 4.9315820834542100e-03 0.0000000000000000e+00  9.9941172166086343e+00 -4.9744276282172924e-03 0.0000000000000000e+00  1.0006071139850393e+01 4.9234357416317563e-03 0.0000000000000000e+00  9.9937378945604625e+00 -4.9493379526162236e-03 0.0000000000000000e+00  1.0006420766650731e+01 4.9522904699107612e-03 0.0000000000000000e+00  9.9933966942246268e+00 -4.9949016070569945e-03 0.0000000000000000e+00  1.0006796584894470e+01 4.9968782568581395e-03 0.0000000000000000e+00  9.9930373261431278e+00 -4.9795461214463222e-03 0.0000000000000000e+00  1.0007063058563185e+01 4.8873874087564679e-03 0.0000000000000000e+00  9.9929084316349073e+00 -4.7699571938238788e-03 0.0000000000000000e+00  1.0007098097315566e+01 4.6332789169564979e-03 0.0000000000000000e+00  9.9928850608113517e+00 -4.5363808100285985e-03 0.0000000000000000e+00  1.0007117659420553e+01 4.4221617152702319e-03 0.0000000000000000e+00  9.9929713612592117e+00 -4.2483215966125408e-03 0.0000000000000000e+00  1.0006786527471853e+01 3.9358476510072491e-03 0.0000000000000000e+00  9.9935517177894742e+00 -3.5537742175863335e-03 0.0000000000000000e+00  1.0006114375890006e+01 3.1859868612126060e-03 0.0000000000000000e+00  9.9941201164886113e+00 -2.9342764037860974e-03 0.0000000000000000e+00  1.0005648396535312e+01 2.7127298914072489e-03 0.0000000000000000e+00  9.9947030181495258e+00 -2.4006541596578736e-03 0.0000000000000000e+00  1.0004716013486961e+01 1.8816671011575240e-03 0.0000000000000000e+00  9.9959327589006524e+00 -1.2926751139020764e-03 0.0000000000000000e+00  1.0003536440003147e+01 8.0943923303308568e-04 0.0000000000000000e+00  9.9967354065379883e+00 -5.8984964311985071e-04 0.0000000000000000e+00  1.0003050369342935e+01 4.5942600637784126e-04 0.0000000000000000e+00  9.9973159704607397e+00 -2.0695060405583862e-04 0.0000000000000000e+00  1.0002000380071323e+01 -2.9996195546758484e-04 0.0000000000000000e+00  9.9986488517370447e+00 8.9523827824878515e-04 0.0000000000000000e+00  1.0000834832090204e+01 -1.1675755910006747e-03 0.0000000000000000e+00  9.9990779704727260e+00 1.2772906704455562e-03 0.0000000000000000e+00  1.0000664999045513e+01 -9.0412815963283487e-04 0.0000000000000000e+00  9.9991420621987004e+00 1.3725132084104832e-03 0.0000000000000000e+00  9.9995669783245500e+00 -1.0345819190803701e-03 0.0000000000000000e+00  9.9998645177741263e+00 2.4912380090406465e-03 0.0000000000000000e+00  9.9981317362137236e+00 -8.4839271095247734e-04 0.0000000000000000e+00  9.9990562546859909e+00 3.2294542653553871e-03 0.0000000000000000e+00  9.9970127109230962e+00 1.0355506089598846e-03 0.0000000000000000e+00  9.9971948902454404e+00 4.7914668024973545e-03 0.0000000000000000e+00  9.9935957110578535e+00 3.6514082070934106e-03 0.0000000000000000e+00  9.9942418219933380e+00 8.8997370618511488e-03 0.0000000000000000e+00  9.9877251822773072e+00 8.9076562574223507e-03 0.0000000000000000e+00  9.9869886067706517e+00 1.5717737460196484e-02 0.0000000000000000e+00  9.9780466978804920e+00 1.9135851805406709e-02 0.0000000000000000e+00  9.9741370049241329e+00 2.8377661432441956e-02 0.0000000000000000e+00  9.9603452344634871e+00 3.6126622807734696e-02 0.0000000000000000e+00  9.9526458412886445e+00 5.0304638766955644e-02 0.0000000000000000e+00  9.9317647726815572e+00 6.4377014133319088e-02 0.0000000000000000e+00  9.9172919481957091e+00 8.5144267762054318e-02 0.0000000000000000e+00  9.8877831024985685e+00 1.0825780804309050e-01 0.0000000000000000e+00  9.8640626136090042e+00 1.3829992166858607e-01 0.0000000000000000e+00  9.8229713465029391e+00 1.7250145375037407e-01 0.0000000000000000e+00  9.7881054738836220e+00 2.1412438523380520e-01 0.0000000000000000e+00  9.7335489742676096e+00 2.6215047382940826e-01 0.0000000000000000e+00  9.6852125436990644e+00 3.1693763299912747e-01 0.0000000000000000e+00  9.6160156523008329e+00 3.8011060451319773e-01 0.0000000000000000e+00  9.5533501207171447e+00 4.5003538146835964e-01 0.0000000000000000e+00  9.4686455782263170e+00 5.2901182905225053e-01 0.0000000000000000e+00  9.3913920648451992e+00 6.1386526965429600e-01 0.0000000000000000e+00  9.2918842017662584e+00 7.0987627975618683e-01 0.0000000000000000e+00  9.2002829493215543e+00 8.0902907361750009e-01 0.0000000000000000e+00  9.0869062965887792e+00 9.2073493016031260e-01 0.0000000000000000e+00  8.9825344271388978e+00 1.0346214376141427e+00 0.0000000000000000e+00  8.8566168230943276e+00 1.1608801227870333e+00 0.0000000000000000e+00  8.7407500521612800e+00 1.2867215510186989e+00 0.0000000000000000e+00  8.6046729596327083e+00 1.4284772041006424e+00 0.0000000000000000e+00  8.4787357158359384e+00 1.5643021319235488e+00 0.0000000000000000e+00  8.3341857864763398e+00 1.7180526715614537e+00 0.0000000000000000e+00  8.2004329963794298e+00 1.8657610066582446e+00 0.0000000000000000e+00  8.0490089029632390e+00 2.0291408692888471e+00 0.0000000000000000e+00  7.9088036612180321e+00 2.1839586521375156e+00 0.0000000000000000e+00  7.7528462303995527e+00 2.3608881047991259e+00 0.0000000000000000e+00  7.6072493447535576e+00 2.5213028717034800e+00 0.0000000000000000e+00  7.4481112260155635e+00 2.7020494108027702e+00 0.0000000000000000e+00  7.2991256842389225e+00 2.8782920839889488e+00 0.0000000000000000e+00  7.1375637161278336e+00 3.0605943426802762e+00 0.0000000000000000e+00  6.9863229819431512e+00 3.2390350972958655e+00 0.0000000000000000e+00  6.8242108940532900e+00 3.4338564631457174e+00 0.0000000000000000e+00  6.6712457096189670e+00 3.6179140848317002e+00 0.0000000000000000e+00  6.5095909598617059e+00 3.8102234758426610e+00 0.0000000000000000e+00  6.3560075866500929e+00 4.0041415217147831e+00 0.0000000000000000e+00  6.1956020982706042e+00 4.1998899302978359e+00 0.0000000000000000e+00  6.0422893115086254e+00 4.3983525946492357e+00 0.0000000000000000e+00  5.8836849068323724e+00 4.5966990454394345e+00 0.0000000000000000e+00  5.7315516178683117e+00 4.7967272084657582e+00 0.0000000000000000e+00  5.5751452555979180e+00 4.9989553676003027e+00 0.0000000000000000e+00  5.4242383015891882e+00 5.2059428974262349e+00 0.0000000000000000e+00  5.2716695446380983e+00 5.4054885222363476e+00 0.0000000000000000e+00  5.1222332969873392e+00 5.6155228817007590e+00 0.0000000000000000e+00  4.9727094639933149e+00 5.8204324883650216e+00 0.0000000000000000e+00  4.8264693994735728e+00 6.0297110228051629e+00 0.0000000000000000e+00  4.6819522257501509e+00 6.2330409650557499e+00 0.0000000000000000e+00  4.5367697091127690e+00 6.4488606078742592e+00 0.0000000000000000e+00  4.4085138737219722e+00 6.6359920371491201e+00 0.0000000000000000e+00  4.2503922347209340e+00 6.8735849854668229e+00 0.0000000000000000e+00  4.1331275333798079e+00 7.0525639108113127e+00 0.0000000000000000e+00  4.0004343405801013e+00 7.2600427874040490e+00 0.0000000000000000e+00  3.8952435591538412e+00 7.4225877054150748e+00 0.0000000000000000e+00  3.7782805305491407e+00 7.6093414330948699e+00 0.0000000000000000e+00  3.7451473634078192e+00 7.6655310095846625e+00 0.0000000000000000e+00  3.8091720509751705e+00 7.5603135451263288e+00 0.0000000000000000e+00  3.8794351797850362e+00 7.4477554084503677e+00 0.0000000000000000e+00  3.9052104186504457e+00 7.4055837041373751e+00 0.0000000000000000e+00  3.9209319942611436e+00 7.3811237082799677e+00 0.0000000000000000e+00  3.9254071704280555e+00 7.3725485042463434e+00 0.0000000000000000e+00  3.9339626731737480e+00 7.3591615988078249e+00 0.0000000000000000e+00  3.9357776414555907e+00 7.3548513999292791e+00 0.0000000000000000e+00  3.9409981445029714e+00 7.3465359560357042e+00 0.0000000000000000e+00  3.9418216048984576e+00 7.3435966243329505e+00 0.0000000000000000e+00  3.9448865130077584e+00 7.3380479378724823e+00 0.0000000000000000e+00  3.9453486477642565e+00 7.3355421728257282e+00 0.0000000000000000e+00  3.9472352999148308e+00 7.3308865795554174e+00 0.0000000000000000e+00  3.9475926837473501e+00 7.3278742365024589e+00 0.0000000000000000e+00  3.9486154972461369e+00 7.3233882839541700e+00 0.0000000000000000e+00  3.9488299733423324e+00 7.3192994118698804e+00 0.0000000000000000e+00  3.9492658785822670e+00 7.3143224033057432e+00 0.0000000000000000e+00  3.9491552674172796e+00 7.3094527002071512e+00 0.0000000000000000e+00  3.9489397655051879e+00 7.3036954925820767e+00 0.0000000000000000e+00  3.9480035399011197e+00 7.2978881951746564e+00 0.0000000000000000e+00  3.9460229037502832e+00 7.2904143533680870e+00 0.0000000000000000e+00  3.9421126182226245e+00 7.2808465914057905e+00 0.0000000000000000e+00  3.9340961363916311e+00 7.2652593925400826e+00 0.0000000000000000e+00  3.9192134918018331e+00 7.2398761380780865e+00 0.0000000000000000e+00  3.8898053037714373e+00 7.1917401891529771e+00 0.0000000000000000e+00  3.8365416116892446e+00 7.1063893550676767e+00 0.0000000000000000e+00  3.7348223692085347e+00 6.9408304893135089e+00 0.0000000000000000e+00  3.5568777246632104e+00 6.6419564666845341e+00 0.0000000000000000e+00  3.2410683492192831e+00 6.0725168548720871e+00 0.0000000000000000e+00  2.7466379042428799e+00 5.0753056944715977e+00 0.0000000000000000e+00  2.0152771828828140e+00 3.2347793136532745e+00 0.0000000000000000e+00  1.2612944900610132e+00 8.4634863818323458e-01 0.0000000000000000e+00  1.0225886082059306e+00 7.1074761618358698e-02 0.0000000000000000e+00  1.0012097852531903e+00 3.3387031526741569e-03 0.0000000000000000e+00  1.0000192483297137e+00 5.5492001060927732e-04 0.0000000000000000e+00  1.0000157141488959e+00 -2.3735543721652692e-05 0.0000000000000000e+00  1.0000124696815194e+00 -2.5110206289695140e-05 0.0000000000000000e+00  9.9998658007020136e-01 3.8168769390510630e-05 0.0000000000000000e+00  1.0000099254545982e+00 -2.9177372747289999e-05 0.0000000000000000e+00  9.9999375010790392e-01 1.8929336444684671e-05 0.0000000000000000e+00  1.0000039080693213e+00 -1.1755605146255346e-05 0.0000000000000000e+00  9.9999720671690384e-01 8.0285114328770106e-06 0.0000000000000000e+00  1.0000023429028231e+00 -6.4260519136278129e-06 0.0000000000000000e+00  9.9999795885574172e-01 5.5047632175767863e-06 0.0000000000000000e+00  1.0000016540065149e+00 -4.4801767706057032e-06 0.0000000000000000e+00  9.9999880196566115e-01 3.2782693104891140e-06 0.0000000000000000e+00  1.0000007835637128e+00 -2.1555933784904872e-06 0.0000000000000000e+00  9.9999951377359975e-01 1.3278196472694645e-06 0.0000000000000000e+00  1.0000003098532413e+00 -8.2854510415203915e-07 0.0000000000000000e+00  9.9999978530629863e-01 5.6205290205343743e-07 0.0000000000000000e+00  1.0000001579785074e+00 -4.1096769663810278e-07 0.0000000000000000e+00  9.9999988498148107e-01 3.0138413672840687e-07 0.0000000000000000e+00  1.0000000787699745e+00 -2.0877438399622271e-07 0.0000000000000000e+00  9.9999994975517570e-01 1.3420475755440834e-07 0.0000000000000000e+00  1.0000000306682972e+00 -8.1818761778649760e-08 0.0000000000000000e+00  9.9999998111175215e-01 4.9850695754846387e-08 0.0000000000000000e+00  1.0000000122957831e+00 -3.2032121165374952e-08 0.0000000000000000e+00  9.9999999155556230e-01 2.1882524794783523e-08 0.0000000000000000e+00  1.0000000058534360e+00 -1.5230283161820009e-08 0.0000000000000000e+00  9.9999999607581957e-01 1.0293999357028784e-08 0.0000000000000000e+00  1.0000000025051097e+00 -6.6136622932528834e-09 0.0000000000000000e+00  9.9999999845732468e-01 4.0760849704051976e-09 0.0000000000000000e+00  1.0000000009465806e+00 -2.4874087365941458e-09 0.0000000000000000e+00  9.9999999940251849e-01 1.5574353636976735e-09 0.0000000000000000e+00  1.0000000003907310e+00 -1.0135640789096804e-09 0.0000000000000000e+00  9.9999999974080578e-01 6.7288780445069364e-10 0.0000000000000000e+00  1.0000000001695544e+00 -4.4208392583267909e-10 0.0000000000000000e+00  9.9999999989228205e-01 2.8204123294190620e-10 0.0000000000000000e+00  1.0000000000666842e+00 -1.7482683433641671e-10 0.0000000000000000e+00  9.9999999995907785e-01 1.0702742244776489e-10 0.0000000000000000e+00  1.0000000000253864e+00 -6.6096305930365981e-11 0.0000000000000000e+00  9.9999999998394562e-01 4.1652441015644964e-11 0.0000000000000000e+00  1.0000000000102736e+00 -2.6636488121294543e-11 0.0000000000000000e+00  9.9999999999344913e-01 1.7014344230180061e-11 0.0000000000000000e+00  1.0000000000041154e+00 -1.0712116878165275e-11 0.0000000000000000e+00  9.9999999999745703e-01 6.6281978686452455e-12 0.0000000000000000e+00  1.0000000000015581e+00 -4.0563444618106017e-12 0.0000000000000000e+00  9.9999999999904376e-01 2.4848224453718672e-12 0.0000000000000000e+00  1.0000000000005920e+00 -1.5342642984050639e-12 0.0000000000000000e+00  9.9999999999963107e-01 9.5701450335717022e-13 0.0000000000000000e+00  1.0000000000002303e+00 -5.9615738145222159e-13 0.0000000000000000e+00  9.9999999999985767e-01 3.7167887403311164e-13 0.0000000000000000e+00  1.0000000000000875e+00 -2.2773245361346013e-13 0.0000000000000000e+00  9.9999999999994693e-01 1.3930954138580995e-13 0.0000000000000000e+00  1.0000000000000331e+00 -8.4121171966697160e-14 0.0000000000000000e+00  9.9999999999998046e-01 5.2155240443951771e-14 0.0000000000000000e+00  1.0000000000000127e+00 -3.1331045102197314e-14 0.0000000000000000e+00  9.9999999999999256e-01 2.0264688516015399e-14 0.0000000000000000e+00  1.0000000000000053e+00 -1.2556557451374838e-14 0.0000000000000000e+00  9.9999999999999678e-01 8.5063517866667774e-15 0.0000000000000000e+00  1.0000000000000018e+00 -5.0416506827772141e-15 0.0000000000000000e+00  9.9999999999999833e-01 2.6529187772362719e-15 0.0000000000000000e+00  1.0000000000000007e+00 -8.1198716866455524e-16 0.0000000000000000e+00  9.9999999999999833e-01 0.0000000000000000e+00 0.0000000000000000e+00  9.9991149742640761e+00 0.0000000000000000e+00 -4.5348050137112893e-03  1.0002216547007281e+01 -1.4213673861390910e-03 7.0134269208975192e-04  9.9993502447019083e+00 1.7025387027289683e-03 1.2727863285298732e-03  1.0000943884262560e+01 5.1104594134588894e-04 -2.8246932527690706e-04  9.9999082806925372e+00 -5.8202178705004455e-04 -2.0781432306659337e-04  1.0000421325490542e+01 1.1811508020809437e-03 6.2954320839951302e-04  9.9998269309354555e+00 -7.5018884568528606e-04 -8.8250036810257699e-04  1.0000387960078175e+01 8.8648024322073374e-04 1.0763744110309939e-03  9.9997884141691085e+00 -7.6796681713019210e-04 -1.2602685081716573e-03  1.0000227806393005e+01 1.0009653579413976e-03 1.4535735010273380e-03  9.9998834481726817e+00 -1.0682083944709500e-03 -1.6623158615606710e-03  1.0000147988473772e+01 1.2268731630950957e-03 1.8782546687855283e-03  9.9998641259196166e+00 -1.2728909878142855e-03 -2.0980888708632840e-03  1.0000146325771476e+01 1.3680281214406191e-03 2.3184274533440854e-03  9.9998937817491527e+00 -1.4371161777500647e-03 -2.5378042847110059e-03  1.0000082362192785e+01 1.5562169931236337e-03 2.7534463189248558e-03  9.9999134437406081e+00 -1.6790630249293806e-03 -2.9595598335996377e-03  1.0000129474385284e+01 1.8163920025819887e-03 3.1526609147519251e-03  9.9998385853427489e+00 -1.9139940537437965e-03 -3.3276853286987014e-03  1.0000149813975922e+01 1.9653664119591964e-03 3.4841714986631840e-03  9.9998971418413198e+00 -1.9823270190415421e-03 -3.6150378268680621e-03  1.0000093817458540e+01 2.0223605065951985e-03 3.7165371191762555e-03  9.9998429533786446e+00 -2.1181139447680446e-03 -3.7795766802621771e-03  1.0000274769122710e+01 2.2294492363716151e-03 3.8078291075358947e-03  9.9996744988173862e+00 -2.2744832660681136e-03 -3.8037832118010622e-03  1.0000275322891012e+01 2.1913826807315223e-03 3.7782760939272927e-03  9.9998488403573109e+00 -2.0503596725322056e-03 -3.7275528135883281e-03  1.0000132330096934e+01 1.9675379068298362e-03 3.6505388854828737e-03  9.9997474234099890e+00 -2.0285566652504861e-03 -3.5394739210123051e-03  1.0000456948133971e+01 2.1353259927678406e-03 3.4072073463223274e-03  9.9994876407051585e+00 -2.1204802271899649e-03 -3.2672774776809710e-03  1.0000361968862107e+01 1.9070874166454374e-03 3.1385090031161764e-03  9.9998655251707103e+00 -1.6006773006153972e-03 -3.0163371230332360e-03  1.0000064909636373e+01 1.4840815968136510e-03 2.8929781954959055e-03  9.9996944811626669e+00 -1.5500884706477723e-03 -2.7573760024072031e-03  1.0000533871004034e+01 1.7983837499147542e-03 2.6236318017778103e-03  9.9993202388275879e+00 -1.6883806486322425e-03 -2.5096753890825633e-03  1.0000277097798918e+01 1.5564905109622194e-03 2.4298587772435113e-03  9.9998200256066969e+00 -9.7762834273165461e-04 -2.3703936453347645e-03  9.9997920532797391e+00 1.2215312718740535e-03 2.3107359301356607e-03  9.9993972479425626e+00 -8.9761343893633445e-04 -2.2361442115357987e-03  1.0000156271705524e+01 1.9296376131714226e-03 2.1610253432229123e-03  9.9986465286300508e+00 -7.4947286834250114e-04 -2.1012791198895681e-03  9.9992856821841816e+00 2.2020785607432375e-03 2.0645201715233014e-03  9.9984161501046955e+00 7.0757021914582261e-04 -2.0278534474416159e-03  9.9977101255432022e+00 3.1031437032448261e-03 1.9714499052225407e-03  9.9962654408803608e+00 2.3554050088548258e-03 -1.8851058593060310e-03  9.9956827811683855e+00 6.0878274208669460e-03 1.7897535360215904e-03  9.9922930656810767e+00 5.9269222155908076e-03 -1.6982310813557974e-03  9.9901912189214119e+00 1.0891936331653347e-02 1.6118965305806428e-03  9.9856437690983526e+00 1.3461830477498240e-02 -1.5151513299555453e-03  9.9803451066989801e+00 2.0277580794159034e-02 1.3925578942257269e-03  9.9724054296445086e+00 2.6198897649529363e-02 -1.2576551844307787e-03  9.9636784829696463e+00 3.7270674223070337e-02 1.1175156382867593e-03  9.9502223370918799e+00 4.8244070445249108e-02 -9.9598752432201792e-04  9.9352152633196180e+00 6.4964711907481293e-02 8.6984011744286672e-04  9.9149882880060574e+00 8.3698981067262423e-02 -7.5181572585161208e-04  9.8912383974829581e+00 1.0859770048134097e-01 6.1999941087537993e-04  9.8611765171348473e+00 1.3705909964808188e-01 -5.1138074843906211e-04  9.8268606278106496e+00 1.7269675237122342e-01 4.1681562269719791e-04  9.7847786491842736e+00 2.1360711067389826e-01 -3.4936360014019611e-04  9.7372974449562104e+00 2.6189151910223946e-01 2.8817245854630754e-04  9.6817104110222800e+00 3.1688942111962792e-01 -2.3046745520439654e-04  9.6198278576222318e+00 3.8011829895377647e-01 1.9651618859132120e-04  9.5493394190000505e+00 4.5016273011290808e-01 -1.8876734779467146e-04  9.4725107221823386e+00 5.2876548573418092e-01 2.3329552115538678e-04  9.3872980422090571e+00 6.1509743349616364e-01 -2.6860217750773247e-04  9.2954421762714983e+00 7.0904788670558738e-01 3.0673270073876643e-04  9.1960823585734008e+00 8.1059118148992970e-01 -2.9488016415115905e-04  9.0905494008663936e+00 9.2046691832751504e-01 3.0587682618903343e-04  8.9780465187510359e+00 1.0362153724564080e+00 -3.2460544784394249e-04  8.8600907702651437e+00 1.1598451939094572e+00 3.5301971902509114e-04  8.7365604074669463e+00 1.2902209856991749e+00 -3.0283693843853750e-04  8.6076869666393687e+00 1.4259202703339753e+00 1.1089559936108156e-04  8.4746347471025452e+00 1.5680992698053573e+00 1.7976075000162748e-04  8.3372445599933958e+00 1.7166059787554711e+00 -4.9414368321877924e-04  8.1961761808007925e+00 1.8688340107854757e+00 6.3203866661227940e-04  8.0517923154327473e+00 2.0260723311056257e+00 -6.8843394537624453e-04  7.9050029254346947e+00 2.1910187368101277e+00 6.7994255668550304e-04  7.7549396306007745e+00 2.3547685317533817e+00 -8.8646597534565929e-04  7.6037861400966582e+00 2.5259909684085837e+00 9.7286966046413869e-04  7.4501728746537523e+00 2.70318610885109