<?xml version="1.0"?>
<VTKFile type="UnstructuredGrid"  version="0.1"  >
<UnstructuredGrid>
<Piece  NumberOfPoints="8241" NumberOfCells="16000">
<Points>
<DataArray  type="Float64"  NumberOfComponents="3"  format="ascii">-5 -1 0  -4.95 -1 0  -4.9 -1 0  -4.85 -1 0  -4.8 -1 0  -4.75 -1 0  -4.7 -1 0  -4.65 -1 0  -4.6 -1 0  -4.55 -1 0  -4.5 -1 0  -4.45 -1 0  -4.4 -1 0  -4.35 -1 0  -4.3 -1 0  -4.25 -1 0  -4.2 -1 0  -4.15 -1 0  -4.1 -1 0  -4.05 -1 0  -4 -1 0  -3.95 -1 0  -3.9 -1 0  -3.85 -1 0  -3.8 -1 0  -3.75 -1 0  -3.7 -1 0  -3.65 -1 0  -3.6 -1 0  -3.55 -1 0  -3.5 -1 0  -3.45 -1 0  -3.4 -1 0  -3.35 -1 0  -3.3 -1 0  -3.25 -1 0  -3.2 -1 0  -3.15 -1 0  -3.1 -1 0  -3.05 -1 0  -3 -1 0  -2.95 -1 0  -2.9 -1 0  -2.85 -1 0  -2.8 -1 0  -2.75 -1 0  -2.7 -1 0  -2.65 -1 0  -2.6 -1 0  -2.55 -1 0  -2.5 -1 0  -2.45 -1 0  -2.4 -1 0  -2.35 -1 0  -2.3 -1 0  -2.25 -1 0  -2.2 -1 0  -2.15 -1 0  -2.1 -1 0  -2.05 -1 0  -2 -1 0  -1.95 -1 0  -1.9 -1 0  -1.85 -1 0  -1.8 -1 0  -1.75 -1 0  -1.7 -1 0  -1.65 -1 0  -1.6 -1 0  -1.55 -1 0  -1.5 -1 0  -1.45 -1 0  -1.4 -1 0  -1.35 -1 0  -1.3 -1 0  -1.25 -1 0  -1.2 -1 0  -1.15 -1 0  -1.1 -1 0  -1.05 -1 0  -1 -1 0  -0.9500000000000002 -1 0  -0.9000000000000004 -1 0  -0.8499999999999996 -1 0  -0.7999999999999998 -1 0  -0.75 -1 0  -0.7000000000000002 -1 0  -0.6500000000000004 -1 0  -0.5999999999999996 -1 0  -0.5499999999999998 -1 0  -0.5 -1 0  -0.4500000000000002 -1 0  -0.4000000000000004 -1 0  -0.3499999999999996 -1 0  -0.2999999999999998 -1 0  -0.25 -1 0  -0.2000000000000002 -1 0  -0.1500000000000004 -1 0  -0.09999999999999964 -1 0  -0.04999999999999982 -1 0  0 -1 0  0.04999999999999982 -1 0  0.09999999999999964 -1 0  0.1500000000000004 -1 0  0.2000000000000002 -1 0  0.25 -1 0  0.2999999999999998 -1 0  0.3499999999999996 -1 0  0.4000000000000004 -1 0  0.4500000000000002 -1 0  0.5 -1 0  0.5499999999999998 -1 0  0.5999999999999996 -1 0  0.6500000000000004 -1 0  0.7000000000000002 -1 0  0.75 -1 0  0.7999999999999998 -1 0  0.8499999999999996 -1 0  0.9000000000000004 -1 0  0.9500000000000002 -1 0  1 -1 0  1.05 -1 0  1.1 -1 0  1.15 -1 0  1.2 -1 0  1.25 -1 0  1.3 -1 0  1.35 -1 0  1.4 -1 0  1.45 -1 0  1.5 -1 0  1.55 -1 0  1.6 -1 0  1.65 -1 0  1.7 -1 0  1.75 -1 0  1.8 -1 0  1.85 -1 0  1.9 -1 0  1.95 -1 0  2 -1 0  2.05 -1 0  2.1 -1 0  2.15 -1 0  2.2 -1 0  2.25 -1 0  2.3 -1 0  2.35 -1 0  2.4 -1 0  2.45 -1 0  2.5 -1 0  2.55 -1 0  2.6 -1 0  2.65 -1 0  2.7 -1 0  2.75 -1 0  2.8 -1 0  2.85 -1 0  2.9 -1 0  2.95 -1 0  3 -1 0  3.050000000000001 -1 0  3.1 -1 0  3.15 -1 0  3.199999999999999 -1 0  3.25 -1 0  3.300000000000001 -1 0  3.35 -1 0  3.4 -1 0  3.449999999999999 -1 0  3.5 -1 0  3.550000000000001 -1 0  3.6 -1 0  3.65 -1 0  3.699999999999999 -1 0  3.75 -1 0  3.800000000000001 -1 0  3.85 -1 0  3.9 -1 0  3.949999999999999 -1 0  4 -1 0  4.050000000000001 -1 0  4.1 -1 0  4.15 -1 0  4.199999999999999 -1 0  4.25 -1 0  4.300000000000001 -1 0  4.35 -1 0  4.4 -1 0  4.449999999999999 -1 0  4.5 -1 0  4.550000000000001 -1 0  4.6 -1 0  4.65 -1 0  4.699999999999999 -1 0  4.75 -1 0  4.800000000000001 -1 0  4.85 -1 0  4.9 -1 0  4.949999999999999 -1 0  5 -1 0  -5 -0.95 0  -4.95 -0.95 0  -4.9 -0.95 0  -4.85 -0.95 0  -4.8 -0.95 0  -4.75 -0.95 0  -4.7 -0.95 0  -4.65 -0.95 0  -4.6 -0.95 0  -4.55 -0.95 0  -4.5 -0.95 0  -4.45 -0.95 0  -4.4 -0.95 0  -4.35 -0.95 0  -4.3 -0.95 0  -4.25 -0.95 0  -4.2 -0.95 0  -4.15 -0.95 0  -4.1 -0.95 0  -4.05 -0.95 0  -4 -0.95 0  -3.95 -0.95 0  -3.9 -0.95 0  -3.85 -0.95 0  -3.8 -0.95 0  -3.75 -0.95 0  -3.7 -0.95 0  -3.65 -0.95 0  -3.6 -0.95 0  -3.55 -0.95 0  -3.5 -0.95 0  -3.45 -0.95 0  -3.4 -0.95 0  -3.35 -0.95 0  -3.3 -0.95 0  -3.25 -0.95 0  -3.2 -0.95 0  -3.15 -0.95 0  -3.1 -0.95 0  -3.05 -0.95 0  -3 -0.95 0  -2.95 -0.95 0  -2.9 -0.95 0  -2.85 -0.95 0  -2.8 -0.95 0  -2.75 -0.95 0  -2.7 -0.95 0  -2.65 -0.95 0  -2.6 -0.95 0  -2.55 -0.95 0  -2.5 -0.95 0  -2.45 -0.95 0  -2.4 -0.95 0  -2.35 -0.95 0  -2.3 -0.95 0  -2.25 -0.95 0  -2.2 -0.95 0  -2.15 -0.95 0  -2.1 -0.95 0  -2.05 -0.95 0  -2 -0.95 0  -1.95 -0.95 0  -1.9 -0.95 0  -1.85 -0.95 0  -1.8 -0.95 0  -1.75 -0.95 0  -1.7 -0.95 0  -1.65 -0.95 0  -1.6 -0.95 0  -1.55 -0.95 0  -1.5 -0.95 0  -1.45 -0.95 0  -1.4 -0.95 0  -1.35 -0.95 0  -1.3 -0.95 0  -1.25 -0.95 0  -1.2 -0.95 0  -1.15 -0.95 0  -1.1 -0.95 0  -1.05 -0.95 0  -1 -0.95 0  -0.9500000000000002 -0.95 0  -0.9000000000000004 -0.95 0  -0.8499999999999996 -0.95 0  -0.7999999999999998 -0.95 0  -0.75 -0.95 0  -0.7000000000000002 -0.95 0  -0.6500000000000004 -0.95 0  -0.5999999999999996 -0.95 0  -0.5499999999999998 -0.95 0  -0.5 -0.95 0  -0.4500000000000002 -0.95 0  -0.4000000000000004 -0.95 0  -0.3499999999999996 -0.95 0  -0.2999999999999998 -0.95 0  -0.25 -0.95 0  -0.2000000000000002 -0.95 0  -0.1500000000000004 -0.95 0  -0.09999999999999964 -0.95 0  -0.04999999999999982 -0.95 0  0 -0.95 0  0.04999999999999982 -0.95 0  0.09999999999999964 -0.95 0  0.1500000000000004 -0.95 0  0.2000000000000002 -0.95 0  0.25 -0.95 0  0.2999999999999998 -0.95 0  0.3499999999999996 -0.95 0  0.4000000000000004 -0.95 0  0.4500000000000002 -0.95 0  0.5 -0.95 0  0.5499999999999998 -0.95 0  0.5999999999999996 -0.95 0  0.6500000000000004 -0.95 0  0.7000000000000002 -0.95 0  0.75 -0.95 0  0.7999999999999998 -0.95 0  0.8499999999999996 -0.95 0  0.9000000000000004 -0.95 0  0.9500000000000002 -0.95 0  1 -0.95 0  1.05 -0.95 0  1.1 -0.95 0  1.15 -0.95 0  1.2 -0.95 0  1.25 -0.95 0  1.3 -0.95 0  1.35 -0.95 0  1.4 -0.95 0  1.45 -0.95 0  1.5 -0.95 0  1.55 -0.95 0  1.6 -0.95 0  1.65 -0.95 0  1.7 -0.95 0  1.75 -0.95 0  1.8 -0.95 0  1.85 -0.95 0  1.9 -0.95 0  1.95 -0.95 0  2 -0.95 0  2.05 -0.95 0  2.1 -0.95 0  2.15 -0.95 0  2.2 -0.95 0  2.25 -0.95 0  2.3 -0.95 0  2.35 -0.95 0  2.4 -0.95 0  2.45 -0.95 0  2.5 -0.95 0  2.55 -0.95 0  2.6 -0.95 0  2.65 -0.95 0  2.7 -0.95 0  2.75 -0.95 0  2.8 -0.95 0  2.85 -0.95 0  2.9 -0.95 0  2.95 -0.95 0  3 -0.95 0  3.050000000000001 -0.95 0  3.1 -0.95 0  3.15 -0.95 0  3.199999999999999 -0.95 0  3.25 -0.95 0  3.300000000000001 -0.95 0  3.35 -0.95 0  3.4 -0.95 0  3.449999999999999 -0.95 0  3.5 -0.95 0  3.550000000000001 -0.95 0  3.6 -0.95 0  3.65 -0.95 0  3.699999999999999 -0.95 0  3.75 -0.95 0  3.800000000000001 -0.95 0  3.85 -0.95 0  3.9 -0.95 0  3.949999999999999 -0.95 0  4 -0.95 0  4.050000000000001 -0.95 0  4.1 -0.95 0  4.15 -0.95 0  4.199999999999999 -0.95 0  4.25 -0.95 0  4.300000000000001 -0.95 0  4.35 -0.95 0  4.4 -0.95 0  4.449999999999999 -0.95 0  4.5 -0.95 0  4.550000000000001 -0.95 0  4.6 -0.95 0  4.65 -0.95 0  4.699999999999999 -0.95 0  4.75 -0.95 0  4.800000000000001 -0.95 0  4.85 -0.95 0  4.9 -0.95 0  4.949999999999999 -0.95 0  5 -0.95 0  -5 -0.9 0  -4.95 -0.9 0  -4.9 -0.9 0  -4.85 -0.9 0  -4.8 -0.9 0  -4.75 -0.9 0  -4.7 -0.9 0  -4.65 -0.9 0  -4.6 -0.9 0  -4.55 -0.9 0  -4.5 -0.9 0  -4.45 -0.9 0  -4.4 -0.9 0  -4.35 -0.9 0  -4.3 -0.9 0  -4.25 -0.9 0  -4.2 -0.9 0  -4.15 -0.9 0  -4.1 -0.9 0  -4.05 -0.9 0  -4 -0.9 0  -3.95 -0.9 0  -3.9 -0.9 0  -3.85 -0.9 0  -3.8 -0.9 0  -3.75 -0.9 0  -3.7 -0.9 0  -3.65 -0.9 0  -3.6 -0.9 0  -3.55 -0.9 0  -3.5 -0.9 0  -3.45 -0.9 0  -3.4 -0.9 0  -3.35 -0.9 0  -3.3 -0.9 0  -3.25 -0.9 0  -3.2 -0.9 0  -3.15 -0.9 0  -3.1 -0.9 0  -3.05 -0.9 0  -3 -0.9 0  -2.95 -0.9 0  -2.9 -0.9 0  -2.85 -0.9 0  -2.8 -0.9 0  -2.75 -0.9 0  -2.7 -0.9 0  -2.65 -0.9 0  -2.6 -0.9 0  -2.55 -0.9 0  -2.5 -0.9 0  -2.45 -0.9 0  -2.4 -0.9 0  -2.35 -0.9 0  -2.3 -0.9 0  -2.25 -0.9 0  -2.2 -0.9 0  -2.15 -0.9 0  -2.1 -0.9 0  -2.05 -0.9 0  -2 -0.9 0  -1.95 -0.9 0  -1.9 -0.9 0  -1.85 -0.9 0  -1.8 -0.9 0  -1.75 -0.9 0  -1.7 -0.9 0  -1.65 -0.9 0  -1.6 -0.9 0  -1.55 -0.9 0  -1.5 -0.9 0  -1.45 -0.9 0  -1.4 -0.9 0  -1.35 -0.9 0  -1.3 -0.9 0  -1.25 -0.9 0  -1.2 -0.9 0  -1.15 -0.9 0  -1.1 -0.9 0  -1.05 -0.9 0  -1 -0.9 0  -0.9500000000000002 -0.9 0  -0.9000000000000004 -0.9 0  -0.8499999999999996 -0.9 0  -0.7999999999999998 -0.9 0  -0.75 -0.9 0  -0.7000000000000002 -0.9 0  -0.6500000000000004 -0.9 0  -0.5999999999999996 -0.9 0  -0.5499999999999998 -0.9 0  -0.5 -0.9 0  -0.4500000000000002 -0.9 0  -0.4000000000000004 -0.9 0  -0.3499999999999996 -0.9 0  -0.2999999999999998 -0.9 0  -0.25 -0.9 0  -0.2000000000000002 -0.9 0  -0.1500000000000004 -0.9 0  -0.09999999999999964 -0.9 0  -0.04999999999999982 -0.9 0  0 -0.9 0  0.04999999999999982 -0.9 0  0.09999999999999964 -0.9 0  0.1500000000000004 -0.9 0  0.2000000000000002 -0.9 0  0.25 -0.9 0  0.2999999999999998 -0.9 0  0.3499999999999996 -0.9 0  0.4000000000000004 -0.9 0  0.4500000000000002 -0.9 0  0.5 -0.9 0  0.5499999999999998 -0.9 0  0.5999999999999996 -0.9 0  0.6500000000000004 -0.9 0  0.7000000000000002 -0.9 0  0.75 -0.9 0  0.7999999999999998 -0.9 0  0.8499999999999996 -0.9 0  0.9000000000000004 -0.9 0  0.9500000000000002 -0.9 0  1 -0.9 0  1.05 -0.9 0  1.1 -0.9 0  1.15 -0.9 0  1.2 -0.9 0  1.25 -0.9 0  1.3 -0.9 0  1.35 -0.9 0  1.4 -0.9 0  1.45 -0.9 0  1.5 -0.9 0  1.55 -0.9 0  1.6 -0.9 0  1.65 -0.9 0  1.7 -0.9 0  1.75 -0.9 0  1.8 -0.9 0  1.85 -0.9 0  1.9 -0.9 0  1.95 -0.9 0  2 -0.9 0  2.05 -0.9 0  2.1 -0.9 0  2.15 -0.9 0  2.2 -0.9 0  2.25 -0.9 0  2.3 -0.9 0  2.35 -0.9 0  2.4 -0.9 0  2.45 -0.9 0  2.5 -0.9 0  2.55 -0.9 0  2.6 -0.9 0  2.65 -0.9 0  2.7 -0.9 0  2.75 -0.9 0  2.8 -0.9 0  2.85 -0.9 0  2.9 -0.9 0  2.95 -0.9 0  3 -0.9 0  3.050000000000001 -0.9 0  3.1 -0.9 0  3.15 -0.9 0  3.199999999999999 -0.9 0  3.25 -0.9 0  3.300000000000001 -0.9 0  3.35 -0.9 0  3.4 -0.9 0  3.449999999999999 -0.9 0  3.5 -0.9 0  3.550000000000001 -0.9 0  3.6 -0.9 0  3.65 -0.9 0  3.699999999999999 -0.9 0  3.75 -0.9 0  3.800000000000001 -0.9 0  3.85 -0.9 0  3.9 -0.9 0  3.949999999999999 -0.9 0  4 -0.9 0  4.050000000000001 -0.9 0  4.1 -0.9 0  4.15 -0.9 0  4.199999999999999 -0.9 0  4.25 -0.9 0  4.300000000000001 -0.9 0  4.35 -0.9 0  4.4 -0.9 0  4.449999999999999 -0.9 0  4.5 -0.9 0  4.550000000000001 -0.9 0  4.6 -0.9 0  4.65 -0.9 0  4.699999999999999 -0.9 0  4.75 -0.9 0  4.800000000000001 -0.9 0  4.85 -0.9 0  4.9 -0.9 0  4.949999999999999 -0.9 0  5 -0.9 0  -5 -0.85 0  -4.95 -0.85 0  -4.9 -0.85 0  -4.85 -0.85 0  -4.8 -0.85 0  -4.75 -0.85 0  -4.7 -0.85 0  -4.65 -0.85 0  -4.6 -0.85 0  -4.55 -0.85 0  -4.5 -0.85 0  -
[...]
<PointData  Vectors="f_15"> 
<DataArray  type="Float64"  Name="f_15"  NumberOfComponents="3" format="ascii">1.8923001860001825e+00 0.0000000000000000e+00 0.0000000000000000e+00  1.8642638615041591e+00 9.0817758231520745e-03 0.0000000000000000e+00  1.8897576282881294e+00 1.3602616038720214e-01 0.0000000000000000e+00  1.8644149715508618e+00 1.0596321348909185e-01 0.0000000000000000e+00  1.8884880521891214e+00 2.1454399424894335e-01 0.0000000000000000e+00  1.8632293170974445e+00 2.0835681245122162e-01 0.0000000000000000e+00  1.8871635532687485e+00 2.9484850321143269e-01 0.0000000000000000e+00  1.8625610816132379e+00 3.0462426766680190e-01 0.0000000000000000e+00  1.8852648710258735e+00 3.7964026176529853e-01 0.0000000000000000e+00  1.8620420797694341e+00 3.9974024889001791e-01 0.0000000000000000e+00  1.8834052314304541e+00 4.6288130646022141e-01 0.0000000000000000e+00  1.8612500845829780e+00 5.0150633772526199e-01 0.0000000000000000e+00  1.8815096153282138e+00 5.3453731750772437e-01 0.0000000000000000e+00  1.8604130434036759e+00 6.1462034788429354e-01 0.0000000000000000e+00  1.8793245242458883e+00 6.0905563626828796e-01 0.0000000000000000e+00  1.8595203818307546e+00 6.9754363271561526e-01 0.0000000000000000e+00  1.8771150748509089e+00 7.3800012264770309e-01 0.0000000000000000e+00  1.8581559534517553e+00 7.2770276888459040e-01 0.0000000000000000e+00  1.8748298971424755e+00 8.7975192024297622e-01 0.0000000000000000e+00  1.8564911162452598e+00 7.9636925536173031e-01 0.0000000000000000e+00  1.8719625375822064e+00 9.5727517752653069e-01 0.0000000000000000e+00  1.8551492990941456e+00 9.0812725717487364e-01 0.0000000000000000e+00  1.8687255410938497e+00 1.0358995181434136e+00 0.0000000000000000e+00  1.8531440003787056e+00 9.9624521274288413e-01 0.0000000000000000e+00  1.8659146863657758e+00 1.1244186575766064e+00 0.0000000000000000e+00  1.8504479512513696e+00 1.0952624048763275e+00 0.0000000000000000e+00  1.8626085868431472e+00 1.2045823704175753e+00 0.0000000000000000e+00  1.8480135999355951e+00 1.1835638634924797e+00 0.0000000000000000e+00  1.8585383813891281e+00 1.2970196657179593e+00 0.0000000000000000e+00  1.8452418779828195e+00 1.2742877918125510e+00 0.0000000000000000e+00  1.8546108890421882e+00 1.3752584371164625e+00 0.0000000000000000e+00  1.8414710941487729e+00 1.3680769159828052e+00 0.0000000000000000e+00  1.8507411696871701e+00 1.4612476762467979e+00 0.0000000000000000e+00  1.8372691066883604e+00 1.4544902846136694e+00 0.0000000000000000e+00  1.8462227318902669e+00 1.5449304907731543e+00 0.0000000000000000e+00  1.8327916655258847e+00 1.5420073313984264e+00 0.0000000000000000e+00  1.8415187559345043e+00 1.6267717532620640e+00 0.0000000000000000e+00  1.8275122653975859e+00 1.6317674497771570e+00 0.0000000000000000e+00  1.8364849703443378e+00 1.7045490592995705e+00 0.0000000000000000e+00  1.8219452438713175e+00 1.7154898161880905e+00 0.0000000000000000e+00  1.8309767749089394e+00 1.7884294477454188e+00 0.0000000000000000e+00  1.8157216803436178e+00 1.7974184594906892e+00 0.0000000000000000e+00  1.8255507657652361e+00 1.8641008419200868e+00 0.0000000000000000e+00  1.8088487533466964e+00 1.8790106947055323e+00 0.0000000000000000e+00  1.8199664186175784e+00 1.9414522773327694e+00 0.0000000000000000e+00  1.8019870654082675e+00 1.9526032988062896e+00 0.0000000000000000e+00  1.8142749072966498e+00 2.0178851460375626e+00 0.0000000000000000e+00  1.7951719561337962e+00 2.0218291379795987e+00 0.0000000000000000e+00  1.8094812968413923e+00 2.0864032135825736e+00 0.0000000000000000e+00  1.7888689251723700e+00 2.0891650018756507e+00 0.0000000000000000e+00  1.8060960427605330e+00 2.1479984857880265e+00 0.0000000000000000e+00  1.7849635487400941e+00 2.1426880143122564e+00 0.0000000000000000e+00  1.8051853696138531e+00 2.2016324641288487e+00 0.0000000000000000e+00  1.7849843716318512e+00 2.1848988800402354e+00 0.0000000000000000e+00  1.8084324233550950e+00 2.2365718137830051e+00 0.0000000000000000e+00  1.7892997989465724e+00 2.2157963094381867e+00 0.0000000000000000e+00  1.8154296463538246e+00 2.2579967175710185e+00 0.0000000000000000e+00  1.7966030039328431e+00 2.2327452975101587e+00 0.0000000000000000e+00  1.8233260132542093e+00 2.2744743751714829e+00 0.0000000000000000e+00  1.8045374065773998e+00 2.2464334440515104e+00 0.0000000000000000e+00  1.8302507236579404e+00 2.2842936319259763e+00 0.0000000000000000e+00  1.8115032910831401e+00 2.2610434350765538e+00 0.0000000000000000e+00  1.8359884698779314e+00 2.2938766853952948e+00 0.0000000000000000e+00  1.8173819306604579e+00 2.2710318879727982e+00 0.0000000000000000e+00  1.8400981377342973e+00 2.3047392935397770e+00 0.0000000000000000e+00  1.8228923803992851e+00 2.2804134855365126e+00 0.0000000000000000e+00  1.8426312024152400e+00 2.3109138133593343e+00 0.0000000000000000e+00  1.8276834531567012e+00 2.2893951506581374e+00 0.0000000000000000e+00  1.8444996581540469e+00 2.3181561299334046e+00 0.0000000000000000e+00  1.8312338887575950e+00 2.2932101109837078e+00 0.0000000000000000e+00  1.8457210557054182e+00 2.3248685050802926e+00 0.0000000000000000e+00  1.8344485735735960e+00 2.2986862091101403e+00 0.0000000000000000e+00  1.8459413779976890e+00 2.3255576311358683e+00 0.0000000000000000e+00  1.8374872018678203e+00 2.3042610511254282e+00 0.0000000000000000e+00  1.8457042722868093e+00 2.3289200864119599e+00 0.0000000000000000e+00  1.8397724434727805e+00 2.3029522160477427e+00 0.0000000000000000e+00  1.8454311046346978e+00 2.3344270477972175e+00 0.0000000000000000e+00  1.8415930356364798e+00 2.3028778772803364e+00 0.0000000000000000e+00  1.8448802594083598e+00 2.3359262440216289e+00 0.0000000000000000e+00  1.8433412726821308e+00 2.3019449985356726e+00 0.0000000000000000e+00  1.8441485266058006e+00 2.3427616262667068e+00 0.0000000000000000e+00  1.8444832580394426e+00 2.2941037002280029e+00 0.0000000000000000e+00  1.8439795703551023e+00 2.3512477924286386e+00 0.0000000000000000e+00  1.8452941853933658e+00 2.2903048174637495e+00 0.0000000000000000e+00  1.8433253390584448e+00 2.3535868673880000e+00 0.0000000000000000e+00  1.8467474773360244e+00 2.2886586883531539e+00 0.0000000000000000e+00  1.8425046072158624e+00 2.3590025578393505e+00 0.0000000000000000e+00  1.8472812548511715e+00 2.2830287841405252e+00 0.0000000000000000e+00  1.8430531447036944e+00 2.3639223913513288e+00 0.0000000000000000e+00  1.8474156993489190e+00 2.2828428494132340e+00 0.0000000000000000e+00  1.8425320983255717e+00 2.3629982598789732e+00 0.0000000000000000e+00  1.8490555736366259e+00 2.2845274032468166e+00 0.0000000000000000e+00  1.8416766204124402e+00 2.3651976595097768e+00 0.0000000000000000e+00  1.8495618027453256e+00 2.2821004926036061e+00 0.0000000000000000e+00  1.8424693420398017e+00 2.3677423116713769e+00 0.0000000000000000e+00  1.8496907198718995e+00 2.2842943386428725e+00 0.0000000000000000e+00  1.8418547048956679e+00 2.3651182450983628e+00 0.0000000000000000e+00  1.8516588397368809e+00 2.2881783620710263e+00 0.0000000000000000e+00  1.8409994375891492e+00 2.3653135905360148e+00 0.0000000000000000e+00  1.8520955828390069e+00 2.2879641265844493e+00 0.0000000000000000e+00  1.8417809072032338e+00 2.3667883477876877e+00 0.0000000000000000e+00  1.8524653278985892e+00 2.2910058299708425e+00 0.0000000000000000e+00  1.8409552285425419e+00 2.3632634421116001e+00 0.0000000000000000e+00  1.8544799086912716e+00 2.2959820004867839e+00 0.0000000000000000e+00  1.8402035239744257e+00 2.3623263753947605e+00 0.0000000000000000e+00  1.8545048937259943e+00 2.2966466434167994e+00 0.0000000000000000e+00  1.8412843927635587e+00 2.3626762862636883e+00 0.0000000000000000e+00  1.8546688869493260e+00 2.3001077581875173e+00 0.0000000000000000e+00  1.8404883757687904e+00 2.3581129717791804e+00 0.0000000000000000e+00  1.8561059545814846e+00 2.3058804428103601e+00 0.0000000000000000e+00  1.8404684210932512e+00 2.3556424402248690e+00 0.0000000000000000e+00  1.8551503241652092e+00 2.3067968629136311e+00 0.0000000000000000e+00  1.8422455020106627e+00 2.3552565561264425e+00 0.0000000000000000e+00  1.8544084148548807e+00 2.3100786264969941e+00 0.0000000000000000e+00  1.8421041973036345e+00 2.3503898809361909e+00 0.0000000000000000e+00  1.8549205199629619e+00 2.3146887378076122e+00 0.0000000000000000e+00  1.8429228693412794e+00 2.3484739620116204e+00 0.0000000000000000e+00  1.8528842069521427e+00 2.3144692859232747e+00 0.0000000000000000e+00  1.8451904158106189e+00 2.3485611899459080e+00 0.0000000000000000e+00  1.8517995108383227e+00 2.3166743573300974e+00 0.0000000000000000e+00  1.8452144762423284e+00 2.3435865815355759e+00 0.0000000000000000e+00  1.8517302467411068e+00 2.3217768575771722e+00 0.0000000000000000e+00  1.8463708000627674e+00 2.3402238804566124e+00 0.0000000000000000e+00  1.8494333211785323e+00 2.3229733493422327e+00 0.0000000000000000e+00  1.8487275067896607e+00 2.3380245931391528e+00 0.0000000000000000e+00  1.8480186465383965e+00 2.3270045052929804e+00 0.0000000000000000e+00  1.8489533672712724e+00 2.3325771623903089e+00 0.0000000000000000e+00  1.8477313861351805e+00 2.3304817080892923e+00 0.0000000000000000e+00  1.8503823849507082e+00 2.3310755124310232e+00 0.0000000000000000e+00  1.8451228464218552e+00 2.3308084646379128e+00 0.0000000000000000e+00  1.8527158364757452e+00 2.3276420891293377e+00 0.0000000000000000e+00  1.8440353719864795e+00 2.3378241197939009e+00 0.0000000000000000e+00  1.8528878955672798e+00 2.3169553725620808e+00 0.0000000000000000e+00  1.8436380234108016e+00 2.3457622902115087e+00 0.0000000000000000e+00  1.8543564297322168e+00 2.3140527375393480e+00 0.0000000000000000e+00  1.8417627290013623e+00 2.3407961100938803e+00 0.0000000000000000e+00  1.8563501419803223e+00 2.3204359108740347e+00 0.0000000000000000e+00  1.8412384874489192e+00 2.3325436091305773e+00 0.0000000000000000e+00  1.8569158473426008e+00 2.3262700527872289e+00 0.0000000000000000e+00  1.8417283839337182e+00 2.3209491749056275e+00 0.0000000000000000e+00  1.8591727968913103e+00 2.3357048760526471e+00 0.0000000000000000e+00  1.8406687051391342e+00 2.3079605359218278e+00 0.0000000000000000e+00  1.8624791422693703e+00 2.3359493998968186e+00 0.0000000000000000e+00  1.8425406272427716e+00 2.3065615306104452e+00 0.0000000000000000e+00  1.8637538457157885e+00 2.3230213730119869e+00 0.0000000000000000e+00  1.8452038579177839e+00 2.3088252013152228e+00 0.0000000000000000e+00  1.8684093327055087e+00 2.3095656064215215e+00 0.0000000000000000e+00  1.8461038455422194e+00 2.3063283877343421e+00 0.0000000000000000e+00  1.8721407900827705e+00 2.2971864476987793e+00 0.0000000000000000e+00  1.8507783030091653e+00 2.3059808065411920e+00 0.0000000000000000e+00  1.8737190880414383e+00 2.2805361795199484e+00 0.0000000000000000e+00  1.8542261912291020e+00 2.3065606531696434e+00 0.0000000000000000e+00  1.8786529930585401e+00 2.2682661623664182e+00 0.0000000000000000e+00  1.8577491077135424e+00 2.2966202102106430e+00 0.0000000000000000e+00  1.8842918826284107e+00 2.2547961480143841e+00 0.0000000000000000e+00  1.8687187494177417e+00 2.2806791761146767e+00 0.0000000000000000e+00  1.8948816399189221e+00 2.2250000467783022e+00 0.0000000000000000e+00  1.8854875326729332e+00 2.2533822706132334e+00 0.0000000000000000e+00  1.9143354073919345e+00 2.1911963169874991e+00 0.0000000000000000e+00  1.9009529915525110e+00 2.2231261205739465e+00 0.0000000000000000e+00  1.9240978267842963e+00 2.1782888063175947e+00 0.0000000000000000e+00  1.8993649568098645e+00 2.2323372932758887e+00 0.0000000000000000e+00  1.9045575800553709e+00 2.2109620953905296e+00 0.0000000000000000e+00  1.8692569492423852e+00 2.2877196628047520e+00 0.0000000000000000e+00  1.8721491506525851e+00 2.2706580811280777e+00 0.0000000000000000e+00  1.8374301696293096e+00 2.3394757404191298e+00 0.0000000000000000e+00  1.8524742523804414e+00 2.3077272389619115e+00 0.0000000000000000e+00  1.8245061051315521e+00 2.3672553734010360e+00 0.0000000000000000e+00  1.8392026473098946e+00 2.3267159671009958e+00 0.0000000000000000e+00  1.8120360726494216e+00 2.3806665374347049e+00 0.0000000000000000e+00  1.8164544001798508e+00 2.3844786297081657e+00 0.0000000000000000e+00  2.0848131773029368e+00 1.7654944589367856e+00 0.0000000000000000e+00  2.6993200740919931e+00 4.6921301652462472e-01 0.0000000000000000e+00  2.9315594587310101e+00 6.8137857535381152e-02 0.0000000000000000e+00  2.9735569149233858e+00 -1.5606491630502302e-02 0.0000000000000000e+00  2.9591981146178896e+00 2.2189911067119856e-03 0.0000000000000000e+00  2.9745611082348788e+00 -2.3056187303273055e-02 0.0000000000000000e+00  2.9638523635388911e+00 -1.1362721768568135e-02 0.0000000000000000e+00  2.9763288532233965e+00 -2.0548346234334762e-02 0.0000000000000000e+00  2.9636736088338318e+00 -2.0027238471117054e-02 0.0000000000000000e+00  2.9772955391387432e+00 -2.6962736476828415e-02 0.0000000000000000e+00  2.9615896537942734e+00 -1.8399661180923791e-02 0.0000000000000000e+00  2.9777739954402844e+00 -3.2306881380058085e-02 0.0000000000000000e+00  2.9594671869183986e+00 -2.0175391706890842e-02 0.0000000000000000e+00  2.9791085478664106e+00 -3.6133478814369638e-02 0.0000000000000000e+00  2.9577336612401428e+00 -1.7022679034708457e-02 0.0000000000000000e+00  2.9788294064374310e+00 -3.8478033400785511e-02 0.0000000000000000e+00  2.9573542595831706e+00 -1.0389898894431454e-02 0.0000000000000000e+00  2.9783278825097015e+00 -3.2242739758423226e-02 0.0000000000000000e+00  2.9565166958407927e+00 -9.5947185118880531e-03 0.0000000000000000e+00  2.9784554579157452e+00 -2.7967553951643218e-02 0.0000000000000000e+00  2.9569452528093119e+00 -2.4609477498356184e-02 0.0000000000000000e+00  2.9761094030611530e+00 -5.3219822571303199e-02 0.0000000000000000e+00  2.9600465422828668e+00 -6.1639886289453161e-02 0.0000000000000000e+00  2.9734721545694454e+00 -8.1661110667243103e-02 0.0000000000000000e+00  2.9619851363914638e+00 -7.9223103307233603e-02 0.0000000000000000e+00  2.9730900155247051e+00 -7.5318938757165443e-02 0.0000000000000000e+00  2.9645115042577146e+00 -5.8699766526540076e-02 0.0000000000000000e+00  2.9710547307325013e+00 -6.2071081405296109e-02 0.0000000000000000e+00  2.9702491166304292e+00 -3.8904350996541423e-02 0.0000000000000000e+00  2.9687482049038896e+00 0.0000000000000000e+00 0.0000000000000000e+00  1.8735593395299173e+00 0.0000000000000000e+00 4.0036050386388120e-02  1.8692343161028395e+00 5.1366115441162492e-02 -9.3464308444936878e-03  1.8733996621421851e+00 7.6119681697987343e-02 -7.0684688457604092e-03  1.8715536712396676e+00 1.2973301215994537e-01 7.7186915968267627e-05  1.8726562365410775e+00 1.8342483837761200e-01 3.1871935829086337e-03  1.8726354856999534e+00 2.1752423584917158e-01 -6.2094324032472411e-03  1.8726645181473622e+00 2.7737907911118698e-01 7.6876750277711410e-03  1.8725300374062259e+00 3.1095997318172935e-01 -8.3375319392279199e-03  1.8724447531576278e+00 3.6940362136570237e-01 8.7355303541996679e-03  1.8722519258614503e+00 4.0265846053478338e-01 -8.7794714042123464e-03  1.8716021903495315e+00 4.6332814453908616e-01 8.7076971381394395e-03  1.8716503568319294e+00 4.8949383529367663e-01 -8.1277629652377354e-03  1.8706142569252664e+00 5.6112808731634434e-01 7.6729998918247822e-03  1.8704172982112615e+00 5.7714862051560900e-01 -7.1023247132324975e-03  1.8695724427250160e+00 6.4523365427071766e-01 5.7248235141630181e-03  1.8686788336419147e+00 6.8913240814961596e-01 -7.3976583284785890e-04  1.8684399148299289e+00 7.0509478927157765e-01 -1.0284528129310947e-02  1.8663373237751171e+00 8.0653100401159949e-01 2.6920439230798288e-02  1.8672292887546615e+00 7.8557366206571055e-01 -4.2607193113018131e-02  1.8635811961533919e+00 8.8988887478880896e-01 5.0903681191549949e-02  1.8654951651335858e+00 8.8819726848228508e-01 -4.6653604499518032e-02  1.8614933965890699e+00 9.7351925656679916e-01 3.4671017480506994e-02  1.8624448295835025e+00 9.7787833359996468e-01 -2.1787929366648782e-02  1.8599525778168742e+00 1.0570041936896408e+00 1.3648457536290877e-02  1.8589031610114264e+00 1.0816946026290413e+00 -1.0101781197827514e-02  1.8574802232898779e+00 1.1306262223335366e+00 8.4857253641597435e-03  1.8560114415685796e+00 1.1721047401350433e+00 -8.7358766208895169e-03  1.8539994192554032e+00 1.2275358898126258e+00 9.1123828767205057e-03  1.8527615859269402e+00 1.2544575212201443e+00 -8.5512470072793903e-03  1.8507828822566941e+00 1.3098298510383219e+00 5.2133956399667931e-03  1.8484698920357787e+00 1.3510258640803969e+00 -1.4304472638195372e-03  1.8475494105131580e+00 1.3932526187090262e+00 -6.6895476440190487e-04  1.8440483977966651e+00 1.4357496837155612e+00 9.1863598026998856e-04  1.8434447378583980e+00 1.4800870449801584e+00 -2.1542166027643992e-03  1.8395611720161842e+00 1.5236696575721260e+00 4.4636908403983978e-03  1.8391227300419803e+00 1.5618721622451173e+00 -6.3431704192593039e-03  1.8343836808755567e+00 1.6119141062882847e+00 7.1889010990557238e-03  1.8344953700581019e+00 1.6422201605797133e+00 -8.4020742857050350e-03  1.8290938925913516e+00 1.6964920257291682e+00 9.8527586502355005e-03  1.8292536035526341e+00 1.7268964509789937e+00 -1.0638439066618448e-02  1.8234076953999860e+00 1.7774153963769903e+00 1.0530649664562412e-02  1.8239356402580573e+00 1.8053816457267753e+00 -1.1183524184559547e-02  1.8171683192929362e+00 1.8611985075874984e+00 1.2397133671611455e-02  1.8183077563251087e+00 1.8838962688059624e+00 -1.3273989826405761e-02  1.8109265498858544e+00 1.9376896073410088e+00 1.3950710611893383e-02  1.8123916308535555e+00 1.9615957177575190e+00 -1.4906255851225301e-02  1.8045563784908427e+00 2.0131123932471597e+00 1.6539768904775088e-02  1.8071240454983202e+00 2.0313955103440771e+00 -1.7535303773287554e-02  1.7983404439363968e+00 2.0875961640481808e+00 1.9137727388609766e-02  1.8028352361001936e+00 2.0950419634483914e+00 -2.0468359432153780e-02  1.7938655384152777e+00 2.1510887137296573e+00 2.2529298503627365e-02  1.8003344395875429e+00 2.1530543702414020e+00 -2.3418431335190695e-02  1.7923870917562130e+00 2.2052994968798281e+00 2.5182797293698246e-02  1.8015251863746211e+00 2.1944376189213375e+00 -2.5762120161346803e-02  1.7949970609432646e+00 2.2477495175058091e+00 2.7281982077467713e-02  1.8071304943707520e+00 2.2224288264120178e+00 -2.7239902923848643e-02  1.8018198158958383e+00 2.2723475475217843e+00 2.8378805700415250e-02  1.8152615658887061e+00 2.2429308241895143e+00 -2.8079556065660458e-02  1.8104433374323896e+00 2.2891456082861970e+00 2.8615291959648587e-02  1.8233114107934942e+00 2.2553193700013616e+00 -2.7996024684239593e-02  1.8182448101305058e+00 2.3049900372476428e+00 2.7683389382217281e-02  1.8302570545450714e+00 2.2681685054511780e+00 -2.6871944383160012e-02  1.8248348064729554e+00 2.3148277812183982e+00 2.5910948530547689e-02  1.8356890926081790e+00 2.2823103255999975e+00 -2.5131539813625366e-02  1.8307750802846838e+00 2.3233321256691211e+00 2.3677527839299675e-02  1.8397446787877485e+00 2.2918514622849036e+00 -2.2909651940420946e-02  1.8356426566048172e+00 2.3319188081780498e+00 2.1320569640967429e-02  1.8433203795344362e+00 2.3015859931307840e+00 -2.0720492356235368e-02  1.8391126224286893e+00 2.3354089775397138e+00 1.9279452145694573e-02  1.8464104895728763e+00 2.3105034329666445e+00 -1.8986095968346842e-02  1.8420614413826510e+00 2.3405409307703064e+00 1.7885072179081189e-02  1.8484629007169304e+00 2.3136393135799342e+00 -1.7675248899950119e-02  1.8444972075236488e+00 2.3459620768382821e+00 1.6682954413214709e-02  1.8500632409432241e+00 2.3189147758147164e+00 -1.6561671826370455e-02  1.8459543947175165e+00 2.3454468671221456e+00 1.5963324843658051e-02  1.8516388063965412e+00 2.3248692214461957e+00 -1.6136343151127001e-02  1.8468472984428757e+00 2.3474848468676632e+00 1.6004283684773708e-02  1.8527532468763723e+00 2.3246991720965067e+00 -1.6414215589909759e-02  1.8475615483353165e+00 2.3505998023918639e+00 1.6495968740543293e-02  1.8534938331773769e+00 2.3274554105750846e+00 -1.6989519616719781e-02  1.8477918212554614e+00 2.3481460532253395e+00 1.7266499015442929e-02  1.8544206825147707e+00 2.3305116010690474e+00 -1.7783272159283357e-02  1.8477316774006