<?xml version="1.0"?>
<VTKFile type="UnstructuredGrid"  version="0.1"  >
<UnstructuredGrid>
<Piece  NumberOfPoints="8241" NumberOfCells="16000">
<Points>
<DataArray  type="Float64"  NumberOfComponents="3"  format="ascii">-5 -1 0  -4.95 -1 0  -4.9 -1 0  -4.85 -1 0  -4.8 -1 0  -4.75 -1 0  -4.7 -1 0  -4.65 -1 0  -4.6 -1 0  -4.55 -1 0  -4.5 -1 0  -4.45 -1 0  -4.4 -1 0  -4.35 -1 0  -4.3 -1 0  -4.25 -1 0  -4.2 -1 0  -4.15 -1 0  -4.1 -1 0  -4.05 -1 0  -4 -1 0  -3.95 -1 0  -3.9 -1 0  -3.85 -1 0  -3.8 -1 0  -3.75 -1 0  -3.7 -1 0  -3.65 -1 0  -3.6 -1 0  -3.55 -1 0  -3.5 -1 0  -3.45 -1 0  -3.4 -1 0  -3.35 -1 0  -3.3 -1 0  -3.25 -1 0  -3.2 -1 0  -3.15 -1 0  -3.1 -1 0  -3.05 -1 0  -3 -1 0  -2.95 -1 0  -2.9 -1 0  -2.85 -1 0  -2.8 -1 0  -2.75 -1 0  -2.7 -1 0  -2.65 -1 0  -2.6 -1 0  -2.55 -1 0  -2.5 -1 0  -2.45 -1 0  -2.4 -1 0  -2.35 -1 0  -2.3 -1 0  -2.25 -1 0  -2.2 -1 0  -2.15 -1 0  -2.1 -1 0  -2.05 -1 0  -2 -1 0  -1.95 -1 0  -1.9 -1 0  -1.85 -1 0  -1.8 -1 0  -1.75 -1 0  -1.7 -1 0  -1.65 -1 0  -1.6 -1 0  -1.55 -1 0  -1.5 -1 0  -1.45 -1 0  -1.4 -1 0  -1.35 -1 0  -1.3 -1 0  -1.25 -1 0  -1.2 -1 0  -1.15 -1 0  -1.1 -1 0  -1.05 -1 0  -1 -1 0  -0.9500000000000002 -1 0  -0.9000000000000004 -1 0  -0.8499999999999996 -1 0  -0.7999999999999998 -1 0  -0.75 -1 0  -0.7000000000000002 -1 0  -0.6500000000000004 -1 0  -0.5999999999999996 -1 0  -0.5499999999999998 -1 0  -0.5 -1 0  -0.4500000000000002 -1 0  -0.4000000000000004 -1 0  -0.3499999999999996 -1 0  -0.2999999999999998 -1 0  -0.25 -1 0  -0.2000000000000002 -1 0  -0.1500000000000004 -1 0  -0.09999999999999964 -1 0  -0.04999999999999982 -1 0  0 -1 0  0.04999999999999982 -1 0  0.09999999999999964 -1 0  0.1500000000000004 -1 0  0.2000000000000002 -1 0  0.25 -1 0  0.2999999999999998 -1 0  0.3499999999999996 -1 0  0.4000000000000004 -1 0  0.4500000000000002 -1 0  0.5 -1 0  0.5499999999999998 -1 0  0.5999999999999996 -1 0  0.6500000000000004 -1 0  0.7000000000000002 -1 0  0.75 -1 0  0.7999999999999998 -1 0  0.8499999999999996 -1 0  0.9000000000000004 -1 0  0.9500000000000002 -1 0  1 -1 0  1.05 -1 0  1.1 -1 0  1.15 -1 0  1.2 -1 0  1.25 -1 0  1.3 -1 0  1.35 -1 0  1.4 -1 0  1.45 -1 0  1.5 -1 0  1.55 -1 0  1.6 -1 0  1.65 -1 0  1.7 -1 0  1.75 -1 0  1.8 -1 0  1.85 -1 0  1.9 -1 0  1.95 -1 0  2 -1 0  2.05 -1 0  2.1 -1 0  2.15 -1 0  2.2 -1 0  2.25 -1 0  2.3 -1 0  2.35 -1 0  2.4 -1 0  2.45 -1 0  2.5 -1 0  2.55 -1 0  2.6 -1 0  2.65 -1 0  2.7 -1 0  2.75 -1 0  2.8 -1 0  2.85 -1 0  2.9 -1 0  2.95 -1 0  3 -1 0  3.050000000000001 -1 0  3.1 -1 0  3.15 -1 0  3.199999999999999 -1 0  3.25 -1 0  3.300000000000001 -1 0  3.35 -1 0  3.4 -1 0  3.449999999999999 -1 0  3.5 -1 0  3.550000000000001 -1 0  3.6 -1 0  3.65 -1 0  3.699999999999999 -1 0  3.75 -1 0  3.800000000000001 -1 0  3.85 -1 0  3.9 -1 0  3.949999999999999 -1 0  4 -1 0  4.050000000000001 -1 0  4.1 -1 0  4.15 -1 0  4.199999999999999 -1 0  4.25 -1 0  4.300000000000001 -1 0  4.35 -1 0  4.4 -1 0  4.449999999999999 -1 0  4.5 -1 0  4.550000000000001 -1 0  4.6 -1 0  4.65 -1 0  4.699999999999999 -1 0  4.75 -1 0  4.800000000000001 -1 0  4.85 -1 0  4.9 -1 0  4.949999999999999 -1 0  5 -1 0  -5 -0.95 0  -4.95 -0.95 0  -4.9 -0.95 0  -4.85 -0.95 0  -4.8 -0.95 0  -4.75 -0.95 0  -4.7 -0.95 0  -4.65 -0.95 0  -4.6 -0.95 0  -4.55 -0.95 0  -4.5 -0.95 0  -4.45 -0.95 0  -4.4 -0.95 0  -4.35 -0.95 0  -4.3 -0.95 0  -4.25 -0.95 0  -4.2 -0.95 0  -4.15 -0.95 0  -4.1 -0.95 0  -4.05 -0.95 0  -4 -0.95 0  -3.95 -0.95 0  -3.9 -0.95 0  -3.85 -0.95 0  -3.8 -0.95 0  -3.75 -0.95 0  -3.7 -0.95 0  -3.65 -0.95 0  -3.6 -0.95 0  -3.55 -0.95 0  -3.5 -0.95 0  -3.45 -0.95 0  -3.4 -0.95 0  -3.35 -0.95 0  -3.3 -0.95 0  -3.25 -0.95 0  -3.2 -0.95 0  -3.15 -0.95 0  -3.1 -0.95 0  -3.05 -0.95 0  -3 -0.95 0  -2.95 -0.95 0  -2.9 -0.95 0  -2.85 -0.95 0  -2.8 -0.95 0  -2.75 -0.95 0  -2.7 -0.95 0  -2.65 -0.95 0  -2.6 -0.95 0  -2.55 -0.95 0  -2.5 -0.95 0  -2.45 -0.95 0  -2.4 -0.95 0  -2.35 -0.95 0  -2.3 -0.95 0  -2.25 -0.95 0  -2.2 -0.95 0  -2.15 -0.95 0  -2.1 -0.95 0  -2.05 -0.95 0  -2 -0.95 0  -1.95 -0.95 0  -1.9 -0.95 0  -1.85 -0.95 0  -1.8 -0.95 0  -1.75 -0.95 0  -1.7 -0.95 0  -1.65 -0.95 0  -1.6 -0.95 0  -1.55 -0.95 0  -1.5 -0.95 0  -1.45 -0.95 0  -1.4 -0.95 0  -1.35 -0.95 0  -1.3 -0.95 0  -1.25 -0.95 0  -1.2 -0.95 0  -1.15 -0.95 0  -1.1 -0.95 0  -1.05 -0.95 0  -1 -0.95 0  -0.9500000000000002 -0.95 0  -0.9000000000000004 -0.95 0  -0.8499999999999996 -0.95 0  -0.7999999999999998 -0.95 0  -0.75 -0.95 0  -0.7000000000000002 -0.95 0  -0.6500000000000004 -0.95 0  -0.5999999999999996 -0.95 0  -0.5499999999999998 -0.95 0  -0.5 -0.95 0  -0.4500000000000002 -0.95 0  -0.4000000000000004 -0.95 0  -0.3499999999999996 -0.95 0  -0.2999999999999998 -0.95 0  -0.25 -0.95 0  -0.2000000000000002 -0.95 0  -0.1500000000000004 -0.95 0  -0.09999999999999964 -0.95 0  -0.04999999999999982 -0.95 0  0 -0.95 0  0.04999999999999982 -0.95 0  0.09999999999999964 -0.95 0  0.1500000000000004 -0.95 0  0.2000000000000002 -0.95 0  0.25 -0.95 0  0.2999999999999998 -0.95 0  0.3499999999999996 -0.95 0  0.4000000000000004 -0.95 0  0.4500000000000002 -0.95 0  0.5 -0.95 0  0.5499999999999998 -0.95 0  0.5999999999999996 -0.95 0  0.6500000000000004 -0.95 0  0.7000000000000002 -0.95 0  0.75 -0.95 0  0.7999999999999998 -0.95 0  0.8499999999999996 -0.95 0  0.9000000000000004 -0.95 0  0.9500000000000002 -0.95 0  1 -0.95 0  1.05 -0.95 0  1.1 -0.95 0  1.15 -0.95 0  1.2 -0.95 0  1.25 -0.95 0  1.3 -0.95 0  1.35 -0.95 0  1.4 -0.95 0  1.45 -0.95 0  1.5 -0.95 0  1.55 -0.95 0  1.6 -0.95 0  1.65 -0.95 0  1.7 -0.95 0  1.75 -0.95 0  1.8 -0.95 0  1.85 -0.95 0  1.9 -0.95 0  1.95 -0.95 0  2 -0.95 0  2.05 -0.95 0  2.1 -0.95 0  2.15 -0.95 0  2.2 -0.95 0  2.25 -0.95 0  2.3 -0.95 0  2.35 -0.95 0  2.4 -0.95 0  2.45 -0.95 0  2.5 -0.95 0  2.55 -0.95 0  2.6 -0.95 0  2.65 -0.95 0  2.7 -0.95 0  2.75 -0.95 0  2.8 -0.95 0  2.85 -0.95 0  2.9 -0.95 0  2.95 -0.95 0  3 -0.95 0  3.050000000000001 -0.95 0  3.1 -0.95 0  3.15 -0.95 0  3.199999999999999 -0.95 0  3.25 -0.95 0  3.300000000000001 -0.95 0  3.35 -0.95 0  3.4 -0.95 0  3.449999999999999 -0.95 0  3.5 -0.95 0  3.550000000000001 -0.95 0  3.6 -0.95 0  3.65 -0.95 0  3.699999999999999 -0.95 0  3.75 -0.95 0  3.800000000000001 -0.95 0  3.85 -0.95 0  3.9 -0.95 0  3.949999999999999 -0.95 0  4 -0.95 0  4.050000000000001 -0.95 0  4.1 -0.95 0  4.15 -0.95 0  4.199999999999999 -0.95 0  4.25 -0.95 0  4.300000000000001 -0.95 0  4.35 -0.95 0  4.4 -0.95 0  4.449999999999999 -0.95 0  4.5 -0.95 0  4.550000000000001 -0.95 0  4.6 -0.95 0  4.65 -0.95 0  4.699999999999999 -0.95 0  4.75 -0.95 0  4.800000000000001 -0.95 0  4.85 -0.95 0  4.9 -0.95 0  4.949999999999999 -0.95 0  5 -0.95 0  -5 -0.9 0  -4.95 -0.9 0  -4.9 -0.9 0  -4.85 -0.9 0  -4.8 -0.9 0  -4.75 -0.9 0  -4.7 -0.9 0  -4.65 -0.9 0  -4.6 -0.9 0  -4.55 -0.9 0  -4.5 -0.9 0  -4.45 -0.9 0  -4.4 -0.9 0  -4.35 -0.9 0  -4.3 -0.9 0  -4.25 -0.9 0  -4.2 -0.9 0  -4.15 -0.9 0  -4.1 -0.9 0  -4.05 -0.9 0  -4 -0.9 0  -3.95 -0.9 0  -3.9 -0.9 0  -3.85 -0.9 0  -3.8 -0.9 0  -3.75 -0.9 0  -3.7 -0.9 0  -3.65 -0.9 0  -3.6 -0.9 0  -3.55 -0.9 0  -3.5 -0.9 0  -3.45 -0.9 0  -3.4 -0.9 0  -3.35 -0.9 0  -3.3 -0.9 0  -3.25 -0.9 0  -3.2 -0.9 0  -3.15 -0.9 0  -3.1 -0.9 0  -3.05 -0.9 0  -3 -0.9 0  -2.95 -0.9 0  -2.9 -0.9 0  -2.85 -0.9 0  -2.8 -0.9 0  -2.75 -0.9 0  -2.7 -0.9 0  -2.65 -0.9 0  -2.6 -0.9 0  -2.55 -0.9 0  -2.5 -0.9 0  -2.45 -0.9 0  -2.4 -0.9 0  -2.35 -0.9 0  -2.3 -0.9 0  -2.25 -0.9 0  -2.2 -0.9 0  -2.15 -0.9 0  -2.1 -0.9 0  -2.05 -0.9 0  -2 -0.9 0  -1.95 -0.9 0  -1.9 -0.9 0  -1.85 -0.9 0  -1.8 -0.9 0  -1.75 -0.9 0  -1.7 -0.9 0  -1.65 -0.9 0  -1.6 -0.9 0  -1.55 -0.9 0  -1.5 -0.9 0  -1.45 -0.9 0  -1.4 -0.9 0  -1.35 -0.9 0  -1.3 -0.9 0  -1.25 -0.9 0  -1.2 -0.9 0  -1.15 -0.9 0  -1.1 -0.9 0  -1.05 -0.9 0  -1 -0.9 0  -0.9500000000000002 -0.9 0  -0.9000000000000004 -0.9 0  -0.8499999999999996 -0.9 0  -0.7999999999999998 -0.9 0  -0.75 -0.9 0  -0.7000000000000002 -0.9 0  -0.6500000000000004 -0.9 0  -0.5999999999999996 -0.9 0  -0.5499999999999998 -0.9 0  -0.5 -0.9 0  -0.4500000000000002 -0.9 0  -0.4000000000000004 -0.9 0  -0.3499999999999996 -0.9 0  -0.2999999999999998 -0.9 0  -0.25 -0.9 0  -0.2000000000000002 -0.9 0  -0.1500000000000004 -0.9 0  -0.09999999999999964 -0.9 0  -0.04999999999999982 -0.9 0  0 -0.9 0  0.04999999999999982 -0.9 0  0.09999999999999964 -0.9 0  0.1500000000000004 -0.9 0  0.2000000000000002 -0.9 0  0.25 -0.9 0  0.2999999999999998 -0.9 0  0.3499999999999996 -0.9 0  0.4000000000000004 -0.9 0  0.4500000000000002 -0.9 0  0.5 -0.9 0  0.5499999999999998 -0.9 0  0.5999999999999996 -0.9 0  0.6500000000000004 -0.9 0  0.7000000000000002 -0.9 0  0.75 -0.9 0  0.7999999999999998 -0.9 0  0.8499999999999996 -0.9 0  0.9000000000000004 -0.9 0  0.9500000000000002 -0.9 0  1 -0.9 0  1.05 -0.9 0  1.1 -0.9 0  1.15 -0.9 0  1.2 -0.9 0  1.25 -0.9 0  1.3 -0.9 0  1.35 -0.9 0  1.4 -0.9 0  1.45 -0.9 0  1.5 -0.9 0  1.55 -0.9 0  1.6 -0.9 0  1.65 -0.9 0  1.7 -0.9 0  1.75 -0.9 0  1.8 -0.9 0  1.85 -0.9 0  1.9 -0.9 0  1.95 -0.9 0  2 -0.9 0  2.05 -0.9 0  2.1 -0.9 0  2.15 -0.9 0  2.2 -0.9 0  2.25 -0.9 0  2.3 -0.9 0  2.35 -0.9 0  2.4 -0.9 0  2.45 -0.9 0  2.5 -0.9 0  2.55 -0.9 0  2.6 -0.9 0  2.65 -0.9 0  2.7 -0.9 0  2.75 -0.9 0  2.8 -0.9 0  2.85 -0.9 0  2.9 -0.9 0  2.95 -0.9 0  3 -0.9 0  3.050000000000001 -0.9 0  3.1 -0.9 0  3.15 -0.9 0  3.199999999999999 -0.9 0  3.25 -0.9 0  3.300000000000001 -0.9 0  3.35 -0.9 0  3.4 -0.9 0  3.449999999999999 -0.9 0  3.5 -0.9 0  3.550000000000001 -0.9 0  3.6 -0.9 0  3.65 -0.9 0  3.699999999999999 -0.9 0  3.75 -0.9 0  3.800000000000001 -0.9 0  3.85 -0.9 0  3.9 -0.9 0  3.949999999999999 -0.9 0  4 -0.9 0  4.050000000000001 -0.9 0  4.1 -0.9 0  4.15 -0.9 0  4.199999999999999 -0.9 0  4.25 -0.9 0  4.300000000000001 -0.9 0  4.35 -0.9 0  4.4 -0.9 0  4.449999999999999 -0.9 0  4.5 -0.9 0  4.550000000000001 -0.9 0  4.6 -0.9 0  4.65 -0.9 0  4.699999999999999 -0.9 0  4.75 -0.9 0  4.800000000000001 -0.9 0  4.85 -0.9 0  4.9 -0.9 0  4.949999999999999 -0.9 0  5 -0.9 0  -5 -0.85 0  -4.95 -0.85 0  -4.9 -0.85 0  -4.85 -0.85 0  -4.8 -0.85 0  -4.75 -0.85 0  -4.7 -0.85 0  -4.65 -0.85 0  -4.6 -0.85 0  -4.55 -0.85 0  -4.5 -0.85 0  -
[...]
<PointData  Vectors="f_15"> 
<DataArray  type="Float64"  Name="f_15"  NumberOfComponents="3" format="ascii">1.0000000000000004e+01 0.0000000000000000e+00 0.0000000000000000e+00  1.0000000000000002e+01 -5.8249936354134098e-16 0.0000000000000000e+00  1.0000000000000002e+01 1.1879830280343648e-15 0.0000000000000000e+00  1.0000000000000000e+01 -1.7011351582322376e-15 0.0000000000000000e+00  1.0000000000000004e+01 8.9548654740789863e-16 0.0000000000000000e+00  1.0000000000000000e+01 -1.3046114939041730e-15 0.0000000000000000e+00  1.0000000000000005e+01 -4.8132393773466736e-16 0.0000000000000000e+00  1.0000000000000000e+01 -2.2557789742894169e-15 0.0000000000000000e+00  1.0000000000000005e+01 3.6645500374984889e-15 0.0000000000000000e+00  9.9999999999999964e+00 -2.8296185029409353e-15 0.0000000000000000e+00  1.0000000000000012e+01 6.0820386130335464e-15 0.0000000000000000e+00  9.9999999999999876e+00 -8.2191713382122656e-15 0.0000000000000000e+00  1.0000000000000028e+01 1.5436088913439797e-14 0.0000000000000000e+00  9.9999999999999574e+00 -2.5047945911317571e-14 0.0000000000000000e+00  1.0000000000000082e+01 4.5178726303523686e-14 0.0000000000000000e+00  9.9999999999998632e+00 -8.1055892992723899e-14 0.0000000000000000e+00  1.0000000000000252e+01 1.4167208825799510e-13 0.0000000000000000e+00  9.9999999999995612e+00 -2.5613177899911575e-13 0.0000000000000000e+00  1.0000000000000780e+01 4.5494083567805388e-13 0.0000000000000000e+00  9.9999999999986411e+00 -8.1710012089577304e-13 0.0000000000000000e+00  1.0000000000002387e+01 1.4625359932529352e-12 0.0000000000000000e+00  9.9999999999958611e+00 -2.6127644132436935e-12 0.0000000000000000e+00  1.0000000000007166e+01 4.6351524556825090e-12 0.0000000000000000e+00  9.9999999999877112e+00 -8.1594261893599442e-12 0.0000000000000000e+00  1.0000000000020959e+01 1.4256690954910592e-11 0.0000000000000000e+00  9.9999999999645404e+00 -2.4716788060124295e-11 0.0000000000000000e+00  1.0000000000059584e+01 4.2542029405460133e-11 0.0000000000000000e+00  9.9999999999006679e+00 -7.2669468208623154e-11 0.0000000000000000e+00  1.0000000000164265e+01 1.2315057397179941e-10 0.0000000000000000e+00  9.9999999997307842e+00 -2.0687638321862068e-10 0.0000000000000000e+00  1.0000000000437016e+01 3.4417936827470864e-10 0.0000000000000000e+00  9.9999999992979838e+00 -5.6647293063489755e-10 0.0000000000000000e+00  1.0000000001115076e+01 9.2118926540471407e-10 0.0000000000000000e+00  9.9999999982502583e+00 -1.4782076881579931e-09 0.0000000000000000e+00  1.0000000002710305e+01 2.3379002351515319e-09 0.0000000000000000e+00  9.9999999958582642e+00 -3.6413284496336262e-09 0.0000000000000000e+00  1.0000000006242571e+01 5.5830873840914524e-09 0.0000000000000000e+00  9.9999999907190027e+00 -8.4275897544608032e-09 0.0000000000000000e+00  1.0000000013615042e+01 1.2529041384882463e-08 0.0000000000000000e+00  9.9999999802835795e+00 -1.8354844637935345e-08 0.0000000000000000e+00  1.0000000028198878e+01 2.6512773928550698e-08 0.0000000000000000e+00  9.9999999601464697e+00 -3.7783955388668842e-08 0.0000000000000000e+00  1.0000000055696649e+01 5.3168976574378432e-08 0.0000000000000000e+00  9.9999999229608552e+00 -7.3953760174449815e-08 0.0000000000000000e+00  1.0000000105577842e+01 1.0180329739829352e-07 0.0000000000000000e+00  9.9999998564869230e+00 -1.3887068288514521e-07 0.0000000000000000e+00  1.0000000193667365e+01 1.8792575284353884e-07 0.0000000000000000e+00  9.9999997403508303e+00 -2.5247902615536941e-07 0.0000000000000000e+00  1.0000000346029864e+01 3.3700423775871809e-07 0.0000000000000000e+00  9.9999995412506131e+00 -4.4722227644789519e-07 0.0000000000000000e+00  1.0000000605497622e+01 5.9071763953221097e-07 0.0000000000000000e+00  9.9999992034263396e+00 -7.7738441799339375e-07 0.0000000000000000e+00  1.0000001044963593e+01 1.0203243788122977e-06 0.0000000000000000e+00  9.9999986323523444e+00 -1.3355430350404231e-06 0.0000000000000000e+00  1.0000001784457982e+01 1.7435422027011075e-06 0.0000000000000000e+00  9.9999976775121713e+00 -2.2684381820102211e-06 0.0000000000000000e+00  1.0000003013186031e+01 2.9444865099936319e-06 0.0000000000000000e+00  9.9999960941457484e+00 -3.8134685791518498e-06 0.0000000000000000e+00  1.0000005052734787e+01 4.9383437812458235e-06 0.0000000000000000e+00  9.9999934617209938e+00 -6.3842938018387150e-06 0.0000000000000000e+00  1.0000008426658260e+01 8.2439949960240890e-06 0.0000000000000000e+00  9.9999891545242701e+00 -1.0593264291830478e-05 0.0000000000000000e+00  1.0000013869076122e+01 1.3572816522010949e-05 0.0000000000000000e+00  9.9999822547723287e+00 -1.7319641027297048e-05 0.0000000000000000e+00  1.0000022610974609e+01 2.2120885266641678e-05 0.0000000000000000e+00  9.9999710904337391e+00 -2.8228092173715829e-05 0.0000000000000000e+00  1.0000036739980338e+01 3.5987086064158580e-05 0.0000000000000000e+00  9.9999534161156305e+00 -4.5581288297318862e-05 0.0000000000000000e+00  1.0000058434560344e+01 5.7233727463270875e-05 0.0000000000000000e+00  9.9999270003304108e+00 -7.1415278214914492e-05 0.0000000000000000e+00  1.0000090961495484e+01 8.8861227146670575e-05 0.0000000000000000e+00  9.9998865432768778e+00 -1.1107196636263395e-04 0.0000000000000000e+00  1.0000141603486352e+01 1.3861796397933196e-04 0.0000000000000000e+00  9.9998254328680467e+00 -1.7170672566883439e-04 0.0000000000000000e+00  1.0000212193067817e+01 2.0836373709174984e-04 0.0000000000000000e+00  9.9997476521853361e+00 -2.4772070171599563e-04 0.0000000000000000e+00  1.0000298260356615e+01 2.9166510525418024e-04 0.0000000000000000e+00  9.9996469650096174e+00 -3.4511475934411140e-04 0.0000000000000000e+00  1.0000419600832114e+01 4.1277036448275726e-04 0.0000000000000000e+00  9.9995088127374316e+00 -4.8646801497651259e-04 0.0000000000000000e+00  1.0000545813808486e+01 5.4537746941249010e-04 0.0000000000000000e+00  9.9994360397500106e+00 -5.5897173725933508e-04 0.0000000000000000e+00  1.0000529250347746e+01 5.2542238785773378e-04 0.0000000000000000e+00  9.9995226860538757e+00 -4.5149782352917056e-04 0.0000000000000000e+00  1.0000374827945418e+01 4.0975579866946090e-04 0.0000000000000000e+00  9.9997129817676811e+00 -2.4733737314952450e-04 0.0000000000000000e+00  9.9997809858747235e+00 7.1529320676964135e-05 0.0000000000000000e+00  1.0000659872811987e+01 1.0238864007154052e-03 0.0000000000000000e+00  9.9971925534156760e+00 -1.5603679877049612e-03 0.0000000000000000e+00  1.0002659406644316e+01 5.2992901437104653e-03 0.0000000000000000e+00  9.9905394574077793e+00 -2.9329726418808539e-03 0.0000000000000000e+00  1.0001720936247871e+01 1.5809511050172507e-02 0.0000000000000000e+00  9.9702574318055976e+00 3.9505661402633912e-03 0.0000000000000000e+00  9.9826951791747600e+00 5.3905484252544579e-02 0.0000000000000000e+00  9.8944075902885942e+00 5.0306860361812894e-02 0.0000000000000000e+00  9.8739419374876523e+00 1.9803618034747469e-01 0.0000000000000000e+00  9.6219535260828479e+00 2.7229211445425755e-01 0.0000000000000000e+00  9.4231286373537468e+00 7.0695961963823573e-01 0.0000000000000000e+00  8.7111069837350463e+00 1.1186365222649202e+00 0.0000000000000000e+00  7.8869507573651800e+00 2.3557332423149413e+00 0.0000000000000000e+00  6.1317187145146859e+00 4.0119560006613266e+00 0.0000000000000000e+00  3.8353401433879672e+00 7.3461276718488611e+00 0.0000000000000000e+00  3.3121102816046402e+00 7.3431383027015844e+00 0.0000000000000000e+00  2.9003451239907587e+00 5.8722709916835747e+00 0.0000000000000000e+00  2.1415608834918887e+00 3.7494157929935930e+00 0.0000000000000000e+00  1.3159106542940631e+00 1.0436385547838407e+00 0.0000000000000000e+00  1.0271443918897873e+00 8.6755582816829865e-02 0.0000000000000000e+00  1.0024181088907131e+00 7.4491892845102376e-04 0.0000000000000000e+00  9.9943273655926979e-01 2.3815194163962837e-03 0.0000000000000000e+00  1.0001400641785971e+00 -4.9924379446404752e-04 0.0000000000000000e+00  1.0000605762986225e+00 -1.2141312105150714e-04 0.0000000000000000e+00  9.9993450124890759e-01 1.8235249019622922e-04 0.0000000000000000e+00  1.0000270966429832e+00 -8.3674935184789809e-05 0.0000000000000000e+00  9.9999735317956973e-01 1.2554777039360426e-05 0.0000000000000000e+00  9.9999598897843900e-01 9.6171440673383910e-06 0.0000000000000000e+00  1.0000029401794819e+00 -8.2568863459919175e-06 0.0000000000000000e+00  9.9999906167886432e-01 2.9563072517665649e-06 0.0000000000000000e+00  9.9999996680051384e-01 -9.8946850306076445e-08 0.0000000000000000e+00  1.0000002058830950e+00 -5.2609939889337705e-07 0.0000000000000000e+00  9.9999988563148345e-01 3.2750195036628190e-07 0.0000000000000000e+00  1.0000000266371696e+00 -8.8601951626906643e-08 0.0000000000000000e+00  1.0000000067120176e+00 -1.1927315171368142e-08 0.0000000000000000e+00  9.9999999093457370e-01 2.4030660699375089e-08 0.0000000000000000e+00  1.0000000039748358e+00 -1.1645574895302200e-08 0.0000000000000000e+00  9.9999999943263385e-01 2.1467392348171372e-09 0.0000000000000000e+00  9.9999999957007868e-01 9.7626231448585945e-10 0.0000000000000000e+00  1.0000000003560507e+00 -9.6992726526716662e-10 0.0000000000000000e+00  9.9999999987607813e-01 3.7407280136090106e-10 0.0000000000000000e+00  1.0000000000042084e+00 -3.2523820821013241e-11 0.0000000000000000e+00  1.0000000000208618e+00 -5.1490188524513604e-11 0.0000000000000000e+00  9.9999999998724098e-01 3.5599736767609451e-11 0.0000000000000000e+00  1.0000000000034184e+00 -1.0784339857758511e-11 0.0000000000000000e+00  1.0000000000004199e+00 -4.5040819712679523e-13 0.0000000000000000e+00  9.9999999999912637e-01 2.2573068092417549e-12 0.0000000000000000e+00  1.0000000000004214e+00 -1.2048723966194082e-12 0.0000000000000000e+00  9.9999999999992195e-01 2.7001324694481364e-13 0.0000000000000000e+00  9.9999999999996725e-01 6.8059679418816482e-14 0.0000000000000000e+00  1.0000000000000340e+00 -8.8672594811388554e-14 0.0000000000000000e+00  9.9999999999998757e-01 3.7454043408192590e-14 0.0000000000000000e+00  1.0000000000000018e+00 -4.5226647576614115e-15 0.0000000000000000e+00  1.0000000000000022e+00 -3.7453186248465659e-15 0.0000000000000000e+00  9.9999999999999889e-01 2.9118696783750118e-15 0.0000000000000000e+00  1.0000000000000011e+00 -1.5421959633607329e-15 0.0000000000000000e+00  1.0000000000000007e+00 -2.2683849424029523e-16 0.0000000000000000e+00  1.0000000000000002e+00 9.6904796128922001e-16 0.0000000000000000e+00  1.0000000000000009e+00 -4.5862916525878069e-17 0.0000000000000000e+00  1.0000000000000002e+00 -4.2198965773162203e-16 0.0000000000000000e+00  1.0000000000000007e+00 -2.6681737479557050e-17 0.0000000000000000e+00  1.0000000000000004e+00 5.5447305087188275e-16 0.0000000000000000e+00  1.0000000000000002e+00 1.2844982984087120e-16 0.0000000000000000e+00  1.0000000000000007e+00 -5.6530422694913780e-16 0.0000000000000000e+00  1.0000000000000007e+00 -5.0133399997140919e-16 0.0000000000000000e+00  1.0000000000000002e+00 3.6301282677372810e-16 0.0000000000000000e+00  1.0000000000000007e+00 5.0777996585146377e-16 0.0000000000000000e+00  1.0000000000000000e+00 -1.3059988388588205e-15 0.0000000000000000e+00  1.0000000000000009e+00 1.7444876125222004e-15 0.0000000000000000e+00  1.0000000000000002e+00 -1.1944482359079521e-15 0.0000000000000000e+00  1.0000000000000002e+00 8.3397437662659157e-16 0.0000000000000000e+00  1.0000000000000007e+00 -9.3708594088796131e-16 0.0000000000000000e+00  1.0000000000000004e+00 -3.3306888600586284e-16 0.0000000000000000e+00  1.0000000000000007e+00 1.9274223222820401e-15 0.0000000000000000e+00  1.0000000000000000e+00 5.3461297807656165e-16 0.0000000000000000e+00  1.0000000000000002e+00 -5.4024241600857330e-16 0.0000000000000000e+00  1.0000000000000002e+00 8.0281525722279742e-17 0.0000000000000000e+00  1.0000000000000000e+00 -1.0349600470161742e-15 0.0000000000000000e+00  1.0000000000000009e+00 -1.5722906603245301e-17 0.0000000000000000e+00  1.0000000000000004e+00 -4.8456717215131275e-16 0.0000000000000000e+00  1.0000000000000004e+00 1.2692332695346964e-15 0.0000000000000000e+00  1.0000000000000002e+00 -2.6957661182149492e-16 0.0000000000000000e+00  1.0000000000000002e+00 3.2252084329332912e-16 0.0000000000000000e+00  1.0000000000000004e+00 -4.7208248965322879e-16 0.0000000000000000e+00  1.0000000000000002e+00 -2.5892129971002675e-16 0.0000000000000000e+00  1.0000000000000004e+00 1.2928651406860938e-15 0.0000000000000000e+00  1.0000000000000002e+00 -5.9256139327194975e-16 0.0000000000000000e+00  1.0000000000000000e+00 3.4654754867745470e-16 0.0000000000000000e+00  1.0000000000000007e+00 -1.3407025670775092e-15 0.0000000000000000e+00  1.0000000000000002e+00 -9.7323269541518001e-16 0.0000000000000000e+00  1.0000000000000013e+00 4.6180188046943376e-16 0.0000000000000000e+00  1.0000000000000002e+00 9.6556531975029366e-16 0.0000000000000000e+00  1.0000000000000002e+00 1.6403622012024734e-16 0.0000000000000000e+00  1.0000000000000007e+00 1.9943518315136348e-16 0.0000000000000000e+00  1.0000000000000002e+00 5.2014496998397636e-16 0.0000000000000000e+00  9.9999999999999989e-01 4.8308189250226396e-17 0.0000000000000000e+00  1.0000000000000004e+00 -7.9657658727582204e-16 0.0000000000000000e+00  1.0000000000000002e+00 2.8625401146949284e-16 0.0000000000000000e+00  1.0000000000000007e+00 -6.0616992925422151e-16 0.0000000000000000e+00  1.0000000000000002e+00 5.1142508346328920e-16 0.0000000000000000e+00  1.0000000000000004e+00 6.1306920575465024e-16 0.0000000000000000e+00  1.0000000000000000e+00 5.5386951837467798e-16 0.0000000000000000e+00  9.9999999999999967e-01 1.2991569618102374e-16 0.0000000000000000e+00  1.0000000000000004e+00 -1.7982803255005422e-15 0.0000000000000000e+00  1.0000000000000000e+00 1.1873655196808478e-15 0.0000000000000000e+00  1.0000000000000002e+00 -5.7825136279130832e-16 0.0000000000000000e+00  1.0000000000000004e+00 2.6368420304967010e-16 0.0000000000000000e+00  1.0000000000000002e+00 -1.2388879040077822e-16 0.0000000000000000e+00  1.0000000000000002e+00 3.7347812964068658e-17 0.0000000000000000e+00  1.0000000000000004e+00 -1.7610440648123440e-16 0.0000000000000000e+00  9.9999999999999989e-01 5.5647449047856407e-16 0.0000000000000000e+00  1.0000000000000004e+00 -3.5370762536788905e-16 0.0000000000000000e+00  9.9999999999999989e-01 -6.3320833144495661e-16 0.0000000000000000e+00  1.0000000000000007e+00 0.0000000000000000e+00 0.0000000000000000e+00  1.0000000000000004e+01 0.0000000000000000e+00 7.2368053511272611e-16  1.0000000000000002e+01 5.4751931601514279e-16 2.6734895739910034e-16  1.0000000000000002e+01 3.1910256657438461e-17 1.9278720319857319e-16  1.0000000000000004e+01 9.4172347906885779e-16 4.5946056562633029e-16  1.0000000000000002e+01 9.0174509215550800e-16 8.1476772109636070e-16  1.0000000000000002e+01 -5.4195802907773512e-16 3.0842770551435524e-16  1.0000000000000002e+01 6.9364512826630770e-16 -6.2832741176060969e-17  1.0000000000000002e+01 5.4803758247285625e-16 4.5009864281559160e-16  1.0000000000000002e+01 -2.5839038164826202e-16 8.5925058847759322e-16  1.0000000000000004e+01 -1.6318432744330144e-15 -2.0626261624761548e-15  1.0000000000000000e+01 -4.9793492130918043e-16 5.6778234577842662e-15  1.0000000000000005e+01 -2.7113770648240008e-15 -1.0095890765147907e-14  9.9999999999999947e+00 4.0384883623232563e-15 1.9036346297248111e-14  1.0000000000000016e+01 -6.1398481287592576e-15 -3.4091595852312421e-14  9.9999999999999805e+00 1.2978020387934179e-14 6.0803040195280951e-14  1.0000000000000043e+01 -2.2664339536804356e-14 -1.0838291629200129e-13  9.9999999999999307e+00 4.0318259444288800e-14 1.9128091627207265e-13  1.0000000000000124e+01 -6.8738137994862105e-14 -3.3487077287777232e-13  9.9999999999997904e+00 1.1669994325738104e-13 5.8530521375036339e-13  1.0000000000000364e+01 -1.9867013040572413e-13 -1.0164667587013297e-12  9.9999999999993889e+00 3.3367887672659267e-13 1.7592731692954796e-12  1.0000000000001030e+01 -5.6456550052327647e-13 -3.0220676762489063e-12  9.9999999999982965e+00 9.5445599516017640e-13 5.1544500128098197e-12  1.0000000000002801e+01 -1.6131584969329990e-12 -8.7210545487378190e-12  9.9999999999954579e+00 2.7085629445709543e-12 1.4639893553051656e-11  1.0000000000007306e+01 -4.5181599748851481e-12 -2.4380459640383236e-11  9.9999999999883915e+00 7.4715403785065811e-12 4.0267030459754783e-11  1.0000000000018215e+01 -1.2274929942730778e-11 -6.5915775245004229e-11  9.9999999999718820e+00 2.0056631272553330e-11 1.0685997431763144e-10  1.0000000000042622e+01 -3.2627967193205859e-11 -1.7139452269513325e-10  9.9999999999368114e+00 5.2888940981532288e-11 2.7168220042221528e-10  1.0000000000091321e+01 -8.5483232968877159e-11 -4.2514621542106675e-10  9.9999999998720579e+00 1.3783861372605433e-10 6.5613679200005008e-10  1.0000000000172607e+01 -2.2172158028981862e-10 -9.9788810735357275e-10  9.9999999997779110e+00 3.5531147886603822e-10 1.4947828472747943e-09  1.0000000000268857e+01 -5.6574813330244134e-10 -2.2049845402766468e-09  9.9999999997009681e+00 8.9212079983279440e-10 3.2035438662803367e-09  1.0000000000290077e+01 -1.3891788657089341e-09 -4.5861079410477495e-09  9.9999999997927560e+00 2.1323858711596637e-09 6.4734298573897520e-09  9.9999999999988205e+00 -3.2249796277531549e-09 -9.0170497235989880e-09  1.0000000000409758e+01 4.8066125627621397e-09 1.2406982815455613e-08  9.9999999988796535e+00 -7.0620841697210216e-09 -1.6882696427753583e-08  1.0000000002264256e+01 1.0227962887583821e-08 2.2749077375849574e-08  9.9999999959984240e+00 -1.4599853006908981e-08 -3.0398495149443711e-08  1.0000000006527669e+01 2.0545397867265448e-08 4.0339785633309803e-08  9.9999999899109131e+00 -2.8538013010986287e-08 -5.3233682989408317e-08  1.0000000015021582e+01 3.9202776892472968e-08 6.9938598085862168e-08  9.9999999782335092e+00 -5.3377095530359935e-08 -9.1569789236436364e-08  1.0000000030887971e+01 7.2116277520416111e-08 1.1958846212452555e-07  9.9999999570145519e+00 -9.6719284491346507e-08 -1.5591240089772604e-07  1.0000000058763147e+01 1.2867953177047782e-07 2.0307312967457029e-07  9.9999999210311525e+00 -1.6998348745032844e-07 -2.6434370256025552e-07  1.0000000105022433e+01 2.2323443722659642e-07 3.4395696420971611e-07  9.9999998613127961e+00 -2.9255213757823279e-07 -4.4720513605592967e-07  1.0000000183246421e+01 3.8280998947885540e-07 5.8099258223649108e-07  9.9999997593548127e+00 -5.0072905686431779e-07 -7.5396692645353933e-07  1.0000000314838543e+01 6.5140048853824613e-07 9.7800463468471779e-07  9.9999995953319800e+00 -8.4365409386294318e-07 -1.2674001737321662e-06  1.0000000519374433e+01 1.0842968656860214e-06 1.6419494022371982e-06  9.9999993406919874e+00 -1.3964112204319933e-06 -2.1223808033388836e-06  1.0000000855554447e+01 1.7977731249409044e-06 2.7398279670794249e-06  9.9999989005405254e+00 -2.3321647317944296e-06 -3.5235385531606447e-06  1.0000001436258890e+01 3.0019192963627132e-06 4.5296625126581399e-06  9.9999982042530995e+00 -3.8462303292852755e-06 -5.8040205553339791e-06  1.0000002261183258e+01 4.8417414505531582e-06 7.4458476783916929e-06  9.9999972638541781e+00 -6.0989880499068984e-06 -9.5048343048744124e-06  1.0000003491747609e+01 7.6997855736684399e-06 1.2121105626122686e-05  9.9999955766027568e+00 -9.8707407632608649e-06 -1.5334753892999341e-05  1.0000005815771752e+01 1.2666307079246065e-05 1.9372146892042248e-05  9.9999927804788253e+00 -1.5963414281458090e-05 -2.4358153023170818e-05  1.0000008584134013e+01 1.9619723221939397e-05 3.0641432850662241e-05  9.9999902410272767e+00 -2.3456749999704510e-05 -3.8430790459481680e-05  1.0000011197489409e+01 2.8480966088801742e-05 4.7850283580817233e-05  9.9999856181497968e+00 -3.5471785889917887e-05 -5.9075449224210774e-05  1.0000018875647374e+01 4.5578569889380447e-05 7.1949139664332127e-05  9.9999755150015588e+00 -5.7040671808808537e-05 -8.7325907940297485e-05  1.0000026333016065e+01 6.6594025671275794e-05 1.0549177185194219e-04  9.9999763899552843e+00 -7.1674660406066752e-05 -1.2740806784359852e-04  1.0000017714739361e+01 7.4475074179475152e-05 1.5190526387334988e-04  9.9999819196741111e+00 -8.4391948371447006e-05 -1.7630355282626198e-04  1.0000030742741991e+01 1.0963278565189849e-04 1.97446