<?xml version="1.0"?>
<VTKFile type="UnstructuredGrid"  version="0.1"  >
<UnstructuredGrid>
<Piece  NumberOfPoints="8241" NumberOfCells="16000">
<Points>
<DataArray  type="Float64"  NumberOfComponents="3"  format="ascii">-5 -1 0  -4.95 -1 0  -4.9 -1 0  -4.85 -1 0  -4.8 -1 0  -4.75 -1 0  -4.7 -1 0  -4.65 -1 0  -4.6 -1 0  -4.55 -1 0  -4.5 -1 0  -4.45 -1 0  -4.4 -1 0  -4.35 -1 0  -4.3 -1 0  -4.25 -1 0  -4.2 -1 0  -4.15 -1 0  -4.1 -1 0  -4.05 -1 0  -4 -1 0  -3.95 -1 0  -3.9 -1 0  -3.85 -1 0  -3.8 -1 0  -3.75 -1 0  -3.7 -1 0  -3.65 -1 0  -3.6 -1 0  -3.55 -1 0  -3.5 -1 0  -3.45 -1 0  -3.4 -1 0  -3.35 -1 0  -3.3 -1 0  -3.25 -1 0  -3.2 -1 0  -3.15 -1 0  -3.1 -1 0  -3.05 -1 0  -3 -1 0  -2.95 -1 0  -2.9 -1 0  -2.85 -1 0  -2.8 -1 0  -2.75 -1 0  -2.7 -1 0  -2.65 -1 0  -2.6 -1 0  -2.55 -1 0  -2.5 -1 0  -2.45 -1 0  -2.4 -1 0  -2.35 -1 0  -2.3 -1 0  -2.25 -1 0  -2.2 -1 0  -2.15 -1 0  -2.1 -1 0  -2.05 -1 0  -2 -1 0  -1.95 -1 0  -1.9 -1 0  -1.85 -1 0  -1.8 -1 0  -1.75 -1 0  -1.7 -1 0  -1.65 -1 0  -1.6 -1 0  -1.55 -1 0  -1.5 -1 0  -1.45 -1 0  -1.4 -1 0  -1.35 -1 0  -1.3 -1 0  -1.25 -1 0  -1.2 -1 0  -1.15 -1 0  -1.1 -1 0  -1.05 -1 0  -1 -1 0  -0.9500000000000002 -1 0  -0.9000000000000004 -1 0  -0.8499999999999996 -1 0  -0.7999999999999998 -1 0  -0.75 -1 0  -0.7000000000000002 -1 0  -0.6500000000000004 -1 0  -0.5999999999999996 -1 0  -0.5499999999999998 -1 0  -0.5 -1 0  -0.4500000000000002 -1 0  -0.4000000000000004 -1 0  -0.3499999999999996 -1 0  -0.2999999999999998 -1 0  -0.25 -1 0  -0.2000000000000002 -1 0  -0.1500000000000004 -1 0  -0.09999999999999964 -1 0  -0.04999999999999982 -1 0  0 -1 0  0.04999999999999982 -1 0  0.09999999999999964 -1 0  0.1500000000000004 -1 0  0.2000000000000002 -1 0  0.25 -1 0  0.2999999999999998 -1 0  0.3499999999999996 -1 0  0.4000000000000004 -1 0  0.4500000000000002 -1 0  0.5 -1 0  0.5499999999999998 -1 0  0.5999999999999996 -1 0  0.6500000000000004 -1 0  0.7000000000000002 -1 0  0.75 -1 0  0.7999999999999998 -1 0  0.8499999999999996 -1 0  0.9000000000000004 -1 0  0.9500000000000002 -1 0  1 -1 0  1.05 -1 0  1.1 -1 0  1.15 -1 0  1.2 -1 0  1.25 -1 0  1.3 -1 0  1.35 -1 0  1.4 -1 0  1.45 -1 0  1.5 -1 0  1.55 -1 0  1.6 -1 0  1.65 -1 0  1.7 -1 0  1.75 -1 0  1.8 -1 0  1.85 -1 0  1.9 -1 0  1.95 -1 0  2 -1 0  2.05 -1 0  2.1 -1 0  2.15 -1 0  2.2 -1 0  2.25 -1 0  2.3 -1 0  2.35 -1 0  2.4 -1 0  2.45 -1 0  2.5 -1 0  2.55 -1 0  2.6 -1 0  2.65 -1 0  2.7 -1 0  2.75 -1 0  2.8 -1 0  2.85 -1 0  2.9 -1 0  2.95 -1 0  3 -1 0  3.050000000000001 -1 0  3.1 -1 0  3.15 -1 0  3.199999999999999 -1 0  3.25 -1 0  3.300000000000001 -1 0  3.35 -1 0  3.4 -1 0  3.449999999999999 -1 0  3.5 -1 0  3.550000000000001 -1 0  3.6 -1 0  3.65 -1 0  3.699999999999999 -1 0  3.75 -1 0  3.800000000000001 -1 0  3.85 -1 0  3.9 -1 0  3.949999999999999 -1 0  4 -1 0  4.050000000000001 -1 0  4.1 -1 0  4.15 -1 0  4.199999999999999 -1 0  4.25 -1 0  4.300000000000001 -1 0  4.35 -1 0  4.4 -1 0  4.449999999999999 -1 0  4.5 -1 0  4.550000000000001 -1 0  4.6 -1 0  4.65 -1 0  4.699999999999999 -1 0  4.75 -1 0  4.800000000000001 -1 0  4.85 -1 0  4.9 -1 0  4.949999999999999 -1 0  5 -1 0  -5 -0.95 0  -4.95 -0.95 0  -4.9 -0.95 0  -4.85 -0.95 0  -4.8 -0.95 0  -4.75 -0.95 0  -4.7 -0.95 0  -4.65 -0.95 0  -4.6 -0.95 0  -4.55 -0.95 0  -4.5 -0.95 0  -4.45 -0.95 0  -4.4 -0.95 0  -4.35 -0.95 0  -4.3 -0.95 0  -4.25 -0.95 0  -4.2 -0.95 0  -4.15 -0.95 0  -4.1 -0.95 0  -4.05 -0.95 0  -4 -0.95 0  -3.95 -0.95 0  -3.9 -0.95 0  -3.85 -0.95 0  -3.8 -0.95 0  -3.75 -0.95 0  -3.7 -0.95 0  -3.65 -0.95 0  -3.6 -0.95 0  -3.55 -0.95 0  -3.5 -0.95 0  -3.45 -0.95 0  -3.4 -0.95 0  -3.35 -0.95 0  -3.3 -0.95 0  -3.25 -0.95 0  -3.2 -0.95 0  -3.15 -0.95 0  -3.1 -0.95 0  -3.05 -0.95 0  -3 -0.95 0  -2.95 -0.95 0  -2.9 -0.95 0  -2.85 -0.95 0  -2.8 -0.95 0  -2.75 -0.95 0  -2.7 -0.95 0  -2.65 -0.95 0  -2.6 -0.95 0  -2.55 -0.95 0  -2.5 -0.95 0  -2.45 -0.95 0  -2.4 -0.95 0  -2.35 -0.95 0  -2.3 -0.95 0  -2.25 -0.95 0  -2.2 -0.95 0  -2.15 -0.95 0  -2.1 -0.95 0  -2.05 -0.95 0  -2 -0.95 0  -1.95 -0.95 0  -1.9 -0.95 0  -1.85 -0.95 0  -1.8 -0.95 0  -1.75 -0.95 0  -1.7 -0.95 0  -1.65 -0.95 0  -1.6 -0.95 0  -1.55 -0.95 0  -1.5 -0.95 0  -1.45 -0.95 0  -1.4 -0.95 0  -1.35 -0.95 0  -1.3 -0.95 0  -1.25 -0.95 0  -1.2 -0.95 0  -1.15 -0.95 0  -1.1 -0.95 0  -1.05 -0.95 0  -1 -0.95 0  -0.9500000000000002 -0.95 0  -0.9000000000000004 -0.95 0  -0.8499999999999996 -0.95 0  -0.7999999999999998 -0.95 0  -0.75 -0.95 0  -0.7000000000000002 -0.95 0  -0.6500000000000004 -0.95 0  -0.5999999999999996 -0.95 0  -0.5499999999999998 -0.95 0  -0.5 -0.95 0  -0.4500000000000002 -0.95 0  -0.4000000000000004 -0.95 0  -0.3499999999999996 -0.95 0  -0.2999999999999998 -0.95 0  -0.25 -0.95 0  -0.2000000000000002 -0.95 0  -0.1500000000000004 -0.95 0  -0.09999999999999964 -0.95 0  -0.04999999999999982 -0.95 0  0 -0.95 0  0.04999999999999982 -0.95 0  0.09999999999999964 -0.95 0  0.1500000000000004 -0.95 0  0.2000000000000002 -0.95 0  0.25 -0.95 0  0.2999999999999998 -0.95 0  0.3499999999999996 -0.95 0  0.4000000000000004 -0.95 0  0.4500000000000002 -0.95 0  0.5 -0.95 0  0.5499999999999998 -0.95 0  0.5999999999999996 -0.95 0  0.6500000000000004 -0.95 0  0.7000000000000002 -0.95 0  0.75 -0.95 0  0.7999999999999998 -0.95 0  0.8499999999999996 -0.95 0  0.9000000000000004 -0.95 0  0.9500000000000002 -0.95 0  1 -0.95 0  1.05 -0.95 0  1.1 -0.95 0  1.15 -0.95 0  1.2 -0.95 0  1.25 -0.95 0  1.3 -0.95 0  1.35 -0.95 0  1.4 -0.95 0  1.45 -0.95 0  1.5 -0.95 0  1.55 -0.95 0  1.6 -0.95 0  1.65 -0.95 0  1.7 -0.95 0  1.75 -0.95 0  1.8 -0.95 0  1.85 -0.95 0  1.9 -0.95 0  1.95 -0.95 0  2 -0.95 0  2.05 -0.95 0  2.1 -0.95 0  2.15 -0.95 0  2.2 -0.95 0  2.25 -0.95 0  2.3 -0.95 0  2.35 -0.95 0  2.4 -0.95 0  2.45 -0.95 0  2.5 -0.95 0  2.55 -0.95 0  2.6 -0.95 0  2.65 -0.95 0  2.7 -0.95 0  2.75 -0.95 0  2.8 -0.95 0  2.85 -0.95 0  2.9 -0.95 0  2.95 -0.95 0  3 -0.95 0  3.050000000000001 -0.95 0  3.1 -0.95 0  3.15 -0.95 0  3.199999999999999 -0.95 0  3.25 -0.95 0  3.300000000000001 -0.95 0  3.35 -0.95 0  3.4 -0.95 0  3.449999999999999 -0.95 0  3.5 -0.95 0  3.550000000000001 -0.95 0  3.6 -0.95 0  3.65 -0.95 0  3.699999999999999 -0.95 0  3.75 -0.95 0  3.800000000000001 -0.95 0  3.85 -0.95 0  3.9 -0.95 0  3.949999999999999 -0.95 0  4 -0.95 0  4.050000000000001 -0.95 0  4.1 -0.95 0  4.15 -0.95 0  4.199999999999999 -0.95 0  4.25 -0.95 0  4.300000000000001 -0.95 0  4.35 -0.95 0  4.4 -0.95 0  4.449999999999999 -0.95 0  4.5 -0.95 0  4.550000000000001 -0.95 0  4.6 -0.95 0  4.65 -0.95 0  4.699999999999999 -0.95 0  4.75 -0.95 0  4.800000000000001 -0.95 0  4.85 -0.95 0  4.9 -0.95 0  4.949999999999999 -0.95 0  5 -0.95 0  -5 -0.9 0  -4.95 -0.9 0  -4.9 -0.9 0  -4.85 -0.9 0  -4.8 -0.9 0  -4.75 -0.9 0  -4.7 -0.9 0  -4.65 -0.9 0  -4.6 -0.9 0  -4.55 -0.9 0  -4.5 -0.9 0  -4.45 -0.9 0  -4.4 -0.9 0  -4.35 -0.9 0  -4.3 -0.9 0  -4.25 -0.9 0  -4.2 -0.9 0  -4.15 -0.9 0  -4.1 -0.9 0  -4.05 -0.9 0  -4 -0.9 0  -3.95 -0.9 0  -3.9 -0.9 0  -3.85 -0.9 0  -3.8 -0.9 0  -3.75 -0.9 0  -3.7 -0.9 0  -3.65 -0.9 0  -3.6 -0.9 0  -3.55 -0.9 0  -3.5 -0.9 0  -3.45 -0.9 0  -3.4 -0.9 0  -3.35 -0.9 0  -3.3 -0.9 0  -3.25 -0.9 0  -3.2 -0.9 0  -3.15 -0.9 0  -3.1 -0.9 0  -3.05 -0.9 0  -3 -0.9 0  -2.95 -0.9 0  -2.9 -0.9 0  -2.85 -0.9 0  -2.8 -0.9 0  -2.75 -0.9 0  -2.7 -0.9 0  -2.65 -0.9 0  -2.6 -0.9 0  -2.55 -0.9 0  -2.5 -0.9 0  -2.45 -0.9 0  -2.4 -0.9 0  -2.35 -0.9 0  -2.3 -0.9 0  -2.25 -0.9 0  -2.2 -0.9 0  -2.15 -0.9 0  -2.1 -0.9 0  -2.05 -0.9 0  -2 -0.9 0  -1.95 -0.9 0  -1.9 -0.9 0  -1.85 -0.9 0  -1.8 -0.9 0  -1.75 -0.9 0  -1.7 -0.9 0  -1.65 -0.9 0  -1.6 -0.9 0  -1.55 -0.9 0  -1.5 -0.9 0  -1.45 -0.9 0  -1.4 -0.9 0  -1.35 -0.9 0  -1.3 -0.9 0  -1.25 -0.9 0  -1.2 -0.9 0  -1.15 -0.9 0  -1.1 -0.9 0  -1.05 -0.9 0  -1 -0.9 0  -0.9500000000000002 -0.9 0  -0.9000000000000004 -0.9 0  -0.8499999999999996 -0.9 0  -0.7999999999999998 -0.9 0  -0.75 -0.9 0  -0.7000000000000002 -0.9 0  -0.6500000000000004 -0.9 0  -0.5999999999999996 -0.9 0  -0.5499999999999998 -0.9 0  -0.5 -0.9 0  -0.4500000000000002 -0.9 0  -0.4000000000000004 -0.9 0  -0.3499999999999996 -0.9 0  -0.2999999999999998 -0.9 0  -0.25 -0.9 0  -0.2000000000000002 -0.9 0  -0.1500000000000004 -0.9 0  -0.09999999999999964 -0.9 0  -0.04999999999999982 -0.9 0  0 -0.9 0  0.04999999999999982 -0.9 0  0.09999999999999964 -0.9 0  0.1500000000000004 -0.9 0  0.2000000000000002 -0.9 0  0.25 -0.9 0  0.2999999999999998 -0.9 0  0.3499999999999996 -0.9 0  0.4000000000000004 -0.9 0  0.4500000000000002 -0.9 0  0.5 -0.9 0  0.5499999999999998 -0.9 0  0.5999999999999996 -0.9 0  0.6500000000000004 -0.9 0  0.7000000000000002 -0.9 0  0.75 -0.9 0  0.7999999999999998 -0.9 0  0.8499999999999996 -0.9 0  0.9000000000000004 -0.9 0  0.9500000000000002 -0.9 0  1 -0.9 0  1.05 -0.9 0  1.1 -0.9 0  1.15 -0.9 0  1.2 -0.9 0  1.25 -0.9 0  1.3 -0.9 0  1.35 -0.9 0  1.4 -0.9 0  1.45 -0.9 0  1.5 -0.9 0  1.55 -0.9 0  1.6 -0.9 0  1.65 -0.9 0  1.7 -0.9 0  1.75 -0.9 0  1.8 -0.9 0  1.85 -0.9 0  1.9 -0.9 0  1.95 -0.9 0  2 -0.9 0  2.05 -0.9 0  2.1 -0.9 0  2.15 -0.9 0  2.2 -0.9 0  2.25 -0.9 0  2.3 -0.9 0  2.35 -0.9 0  2.4 -0.9 0  2.45 -0.9 0  2.5 -0.9 0  2.55 -0.9 0  2.6 -0.9 0  2.65 -0.9 0  2.7 -0.9 0  2.75 -0.9 0  2.8 -0.9 0  2.85 -0.9 0  2.9 -0.9 0  2.95 -0.9 0  3 -0.9 0  3.050000000000001 -0.9 0  3.1 -0.9 0  3.15 -0.9 0  3.199999999999999 -0.9 0  3.25 -0.9 0  3.300000000000001 -0.9 0  3.35 -0.9 0  3.4 -0.9 0  3.449999999999999 -0.9 0  3.5 -0.9 0  3.550000000000001 -0.9 0  3.6 -0.9 0  3.65 -0.9 0  3.699999999999999 -0.9 0  3.75 -0.9 0  3.800000000000001 -0.9 0  3.85 -0.9 0  3.9 -0.9 0  3.949999999999999 -0.9 0  4 -0.9 0  4.050000000000001 -0.9 0  4.1 -0.9 0  4.15 -0.9 0  4.199999999999999 -0.9 0  4.25 -0.9 0  4.300000000000001 -0.9 0  4.35 -0.9 0  4.4 -0.9 0  4.449999999999999 -0.9 0  4.5 -0.9 0  4.550000000000001 -0.9 0  4.6 -0.9 0  4.65 -0.9 0  4.699999999999999 -0.9 0  4.75 -0.9 0  4.800000000000001 -0.9 0  4.85 -0.9 0  4.9 -0.9 0  4.949999999999999 -0.9 0  5 -0.9 0  -5 -0.85 0  -4.95 -0.85 0  -4.9 -0.85 0  -4.85 -0.85 0  -4.8 -0.85 0  -4.75 -0.85 0  -4.7 -0.85 0  -4.65 -0.85 0  -4.6 -0.85 0  -4.55 -0.85 0  -4.5 -0.85 0  -
[...]
<PointData  Vectors="f_15"> 
<DataArray  type="Float64"  Name="f_15"  NumberOfComponents="3" format="ascii">2.9999724215608508e+00 0.0000000000000000e+00 0.0000000000000000e+00  2.9999808619191901e+00 2.3152821095141380e-05 0.0000000000000000e+00  2.9999669610303017e+00 3.8549323932231516e-05 0.0000000000000000e+00  2.9999488935061502e+00 8.4635973821922900e-05 0.0000000000000000e+00  2.9999189031722526e+00 1.3613593317284706e-04 0.0000000000000000e+00  2.9998790059724745e+00 2.2428189091312984e-04 0.0000000000000000e+00  2.9997968627201606e+00 3.5580583383840848e-04 0.0000000000000000e+00  2.9997019490399346e+00 5.4610081917327359e-04 0.0000000000000000e+00  2.9995373723050056e+00 8.3787547629797315e-04 0.0000000000000000e+00  2.9993111676812076e+00 1.2490400289478494e-03 0.0000000000000000e+00  2.9989831947731034e+00 1.8454026450536857e-03 0.0000000000000000e+00  2.9985264480506904e+00 2.6779762222558148e-03 0.0000000000000000e+00  2.9978821090735481e+00 3.8361027460471009e-03 0.0000000000000000e+00  2.9970262779251997e+00 5.3967770667169264e-03 0.0000000000000000e+00  2.9958611824332491e+00 7.5011156330563079e-03 0.0000000000000000e+00  2.9943450661590303e+00 1.0245219016603635e-02 0.0000000000000000e+00  2.9923858310264144e+00 1.3798121355033107e-02 0.0000000000000000e+00  2.9898976571972953e+00 1.8299425025269461e-02 0.0000000000000000e+00  2.9867981417986567e+00 2.3915045322501632e-02 0.0000000000000000e+00  2.9830053263572927e+00 3.0792115846175916e-02 0.0000000000000000e+00  2.9784211826396327e+00 3.9101987173052320e-02 0.0000000000000000e+00  2.9729899824229897e+00 4.8956582183097133e-02 0.0000000000000000e+00  2.9666424696091065e+00 6.0494085695282529e-02 0.0000000000000000e+00  2.9593198631206250e+00 7.3798279564540492e-02 0.0000000000000000e+00  2.9510089378903941e+00 8.8936537452942110e-02 0.0000000000000000e+00  2.9416749164095393e+00 1.0595220195290592e-01 0.0000000000000000e+00  2.9313260851374379e+00 1.2484833811966850e-01 0.0000000000000000e+00  2.9199709645400658e+00 1.4561915889766161e-01 0.0000000000000000e+00  2.9076451290938459e+00 1.6821899534714366e-01 0.0000000000000000e+00  2.8943686479711284e+00 1.9259414370102454e-01 0.0000000000000000e+00  2.8802132658823543e+00 2.1866462328727715e-01 0.0000000000000000e+00  2.8652001579217292e+00 2.4637205841161269e-01 0.0000000000000000e+00  2.8494219049414693e+00 2.7556712592582305e-01 0.0000000000000000e+00  2.8329005757241914e+00 3.0622941020803507e-01 0.0000000000000000e+00  2.8157284455746359e+00 3.3819319272541398e-01 0.0000000000000000e+00  2.7979406872870913e+00 3.7139606964934885e-01 0.0000000000000000e+00  2.7796163935682490e+00 4.0571955726058156e-01 0.0000000000000000e+00  2.7607786767505558e+00 4.4112510521727560e-01 0.0000000000000000e+00  2.7415314584994279e+00 4.7740693479824037e-01 0.0000000000000000e+00  2.7218626185178638e+00 5.1463893614851752e-01 0.0000000000000000e+00  2.7018679704784416e+00 5.5260851054742433e-01 0.0000000000000000e+00  2.6815666181618911e+00 5.9131129035649421e-01 0.0000000000000000e+00  2.6610057157611338e+00 6.3065452284086110e-01 0.0000000000000000e+00  2.6402030911321210e+00 6.7062474249113413e-01 0.0000000000000000e+00  2.6192390186928352e+00 7.1105248295367751e-01 0.0000000000000000e+00  2.5980803381750408e+00 7.5202358458893559e-01 0.0000000000000000e+00  2.5768047444070592e+00 7.9340629096985249e-01 0.0000000000000000e+00  2.5554227842594175e+00 8.3513274987045272e-01 0.0000000000000000e+00  2.5339487108177572e+00 8.7726333209814900e-01 0.0000000000000000e+00  2.5124068148582896e+00 9.1965142620824891e-01 0.0000000000000000e+00  2.4908410068459794e+00 9.6233841257967212e-01 0.0000000000000000e+00  2.4692274784389174e+00 1.0052171378544146e+00 0.0000000000000000e+00  2.4476136484227564e+00 1.0483909002337901e+00 0.0000000000000000e+00  2.4260157157365940e+00 1.0916163846400040e+00 0.0000000000000000e+00  2.4044221763264901e+00 1.1351240688368489e+00 0.0000000000000000e+00  2.3828730094129988e+00 1.1786483754215153e+00 0.0000000000000000e+00  2.3613717817670765e+00 1.2223697068730170e+00 0.0000000000000000e+00  2.3399250318154325e+00 1.2660701754438966e+00 0.0000000000000000e+00  2.3185453683511890e+00 1.3099386800102324e+00 0.0000000000000000e+00  2.2972618467154597e+00 1.3537447085086551e+00 0.0000000000000000e+00  2.2760486188698255e+00 1.3976258691061503e+00 0.0000000000000000e+00  2.2549573967388072e+00 1.4414681007023529e+00 0.0000000000000000e+00  2.2339669742825503e+00 1.4853107858290129e+00 0.0000000000000000e+00  2.2131075555451409e+00 1.5290539424956744e+00 0.0000000000000000e+00  2.1923766143353980e+00 1.5727547777632851e+00 0.0000000000000000e+00  2.1718044793460978e+00 1.6163567781867811e+00 0.0000000000000000e+00  2.1513793077629120e+00 1.6597737904270302e+00 0.0000000000000000e+00  2.1311414646282607e+00 1.7030766357420413e+00 0.0000000000000000e+00  2.1110924874532953e+00 1.7461378978204056e+00 0.0000000000000000e+00  2.0912500853893472e+00 1.7889666009611453e+00 0.0000000000000000e+00  2.0716524939613929e+00 1.8314616083835511e+00 0.0000000000000000e+00  2.0523058402048595e+00 1.8736379494668571e+00 0.0000000000000000e+00  2.0332639840127742e+00 1.9152893871516812e+00 0.0000000000000000e+00  2.0145437775250441e+00 1.9564993118088601e+00 0.0000000000000000e+00  1.9962352306914224e+00 1.9969407362758413e+00 0.0000000000000000e+00  1.9783429124740111e+00 2.0366431693415628e+00 0.0000000000000000e+00  1.9610309068578748e+00 2.0752533413628136e+00 0.0000000000000000e+00  1.9443219934628260e+00 2.1126857068460971e+00 0.0000000000000000e+00  1.9284404876029229e+00 2.1483736061502166e+00 0.0000000000000000e+00  1.9134893774142749e+00 2.1821470543301285e+00 0.0000000000000000e+00  1.8997934019571359e+00 2.2131866074384496e+00 0.0000000000000000e+00  1.8875097152240401e+00 2.2411084347260255e+00 0.0000000000000000e+00  1.8770578915268874e+00 2.2649574433261894e+00 0.0000000000000000e+00  1.8685711392092332e+00 2.2843564189968264e+00 0.0000000000000000e+00  1.8622691675752137e+00 2.2987612747396673e+00 0.0000000000000000e+00  1.8579612386550783e+00 2.3086429904977752e+00 0.0000000000000000e+00  1.8553683829521948e+00 2.3145866495357978e+00 0.0000000000000000e+00  1.8538561587631031e+00 2.3180332044764174e+00 0.0000000000000000e+00  1.8530467784469156e+00 2.3198877261727757e+00 0.0000000000000000e+00  1.8525025151801877e+00 2.3211326939224737e+00 0.0000000000000000e+00  1.8521176666918517e+00 2.3219788055846848e+00 0.0000000000000000e+00  1.8517751208070423e+00 2.3227763582569989e+00 0.0000000000000000e+00  1.8514740675412396e+00 2.3234360427507261e+00 0.0000000000000000e+00  1.8511655679760173e+00 2.3241330108680378e+00 0.0000000000000000e+00  1.8509032003951493e+00 2.3247076381469522e+00 0.0000000000000000e+00  1.8506479088210928e+00 2.3252928189920996e+00 0.0000000000000000e+00  1.8504131358134825e+00 2.3257922309128771e+00 0.0000000000000000e+00  1.8501958940867940e+00 2.3262935917534957e+00 0.0000000000000000e+00  1.8500007854118197e+00 2.3267045377921338e+00 0.0000000000000000e+00  1.8498075933159606e+00 2.3271401542486032e+00 0.0000000000000000e+00  1.8496442608187000e+00 2.3274710325348305e+00 0.0000000000000000e+00  1.8494892062089798e+00 2.3278476856003505e+00 0.0000000000000000e+00  1.8493311691106908e+00 2.3281279369086225e+00 0.0000000000000000e+00  1.8492402294491503e+00 2.3283886483207401e+00 0.0000000000000000e+00  1.8490808925859019e+00 2.3286416378856685e+00 0.0000000000000000e+00  1.8490212341556456e+00 2.3288417363639309e+00 0.0000000000000000e+00  1.8488692361333572e+00 2.3290813109129918e+00 0.0000000000000000e+00  1.8488434746073117e+00 2.3291996621086537e+00 0.0000000000000000e+00  1.8487090375355555e+00 2.3294057882976884e+00 0.0000000000000000e+00  1.8486997235467393e+00 2.3294629794579977e+00 0.0000000000000000e+00  1.8485660870478469e+00 2.3296879701223818e+00 0.0000000000000000e+00  1.8485637156197887e+00 2.3296907459266314e+00 0.0000000000000000e+00  1.8484835327082472e+00 2.3298515954360783e+00 0.0000000000000000e+00  1.8484466812236784e+00 2.3298884114054093e+00 0.0000000000000000e+00  1.8483912294998337e+00 2.3300165085979012e+00 0.0000000000000000e+00  1.8483598561480412e+00 2.3300066106870698e+00 0.0000000000000000e+00  1.8483244111526347e+00 2.3301019093225914e+00 0.0000000000000000e+00  1.8482777914574482e+00 2.3301116172842957e+00 0.0000000000000000e+00  1.8482672493004686e+00 2.3301780937723242e+00 0.0000000000000000e+00  1.8482093675676725e+00 2.3302153401522401e+00 0.0000000000000000e+00  1.8482171601655699e+00 2.3302197307443593e+00 0.0000000000000000e+00  1.8481534345606405e+00 2.3302686111628899e+00 0.0000000000000000e+00  1.8481675781294464e+00 2.3302237244593602e+00 0.0000000000000000e+00  1.8481143491332601e+00 2.3302549621880000e+00 0.0000000000000000e+00  1.8481121919697727e+00 2.3302353605569368e+00 0.0000000000000000e+00  1.8480794940692848e+00 2.3302556639042376e+00 0.0000000000000000e+00  1.8480790016058473e+00 2.3302361192539718e+00 0.0000000000000000e+00  1.8480358825464258e+00 2.3302736503553367e+00 0.0000000000000000e+00  1.8480346025456045e+00 2.3302273822957211e+00 0.0000000000000000e+00  1.8480202160534664e+00 2.3301584077818438e+00 0.0000000000000000e+00  1.8479935709306869e+00 2.3300982237140837e+00 0.0000000000000000e+00  1.8479783965107528e+00 2.3299748155128919e+00 0.0000000000000000e+00  1.8479739547985936e+00 2.3298216336752686e+00 0.0000000000000000e+00  1.8479499183738266e+00 2.3296632763970275e+00 0.0000000000000000e+00  1.8479360351645784e+00 2.3294816193424075e+00 0.0000000000000000e+00  1.8479230755522285e+00 2.3292475992787822e+00 0.0000000000000000e+00  1.8479131461149025e+00 2.3289842728058296e+00 0.0000000000000000e+00  1.8478943428915415e+00 2.3286861265831282e+00 0.0000000000000000e+00  1.8478827115017442e+00 2.3283813016333532e+00 0.0000000000000000e+00  1.8478692491584054e+00 2.3280272803988304e+00 0.0000000000000000e+00  1.8478642021805773e+00 2.3276940364885883e+00 0.0000000000000000e+00  1.8478339887804984e+00 2.3274112283710329e+00 0.0000000000000000e+00  1.8478380674024872e+00 2.3270988096214653e+00 0.0000000000000000e+00  1.8478105921954380e+00 2.3268702590158195e+00 0.0000000000000000e+00  1.8478110907349981e+00 2.3266478828183628e+00 0.0000000000000000e+00  1.8477812083944329e+00 2.3265015677975609e+00 0.0000000000000000e+00  1.8477829773280223e+00 2.3263292707969709e+00 0.0000000000000000e+00  1.8477658954781107e+00 2.3262241896734253e+00 0.0000000000000000e+00  1.8477446258977668e+00 2.3261354295454093e+00 0.0000000000000000e+00  1.8477313328331797e+00 2.3260513591854242e+00 0.0000000000000000e+00  1.8477284444839350e+00 2.3259316968032673e+00 0.0000000000000000e+00  1.8476850295267957e+00 2.3259440314586741e+00 0.0000000000000000e+00  1.8476804970247875e+00 2.3258089594333238e+00 0.0000000000000000e+00  1.8476727452920190e+00 2.3257621999257543e+00 0.0000000000000000e+00  1.8476183109007966e+00 2.3257398182325124e+00 0.0000000000000000e+00  1.8476294930066322e+00 2.3256437762777273e+00 0.0000000000000000e+00  1.8475973184733285e+00 2.3255813142531245e+00 0.0000000000000000e+00  1.8475664793624036e+00 2.3255834817019396e+00 0.0000000000000000e+00  1.8475558060156934e+00 2.3254678634134103e+00 0.0000000000000000e+00  1.8475378400753506e+00 2.3254338907639762e+00 0.0000000000000000e+00  1.8474870087435877e+00 2.3254048395265059e+00 0.0000000000000000e+00  1.8475036127378686e+00 2.3253197808984760e+00 0.0000000000000000e+00  1.8474320070642030e+00 2.3252390098093789e+00 0.0000000000000000e+00  1.8474662466999714e+00 2.3253177582230755e+00 0.0000000000000000e+00  1.8472752530489889e+00 2.3248438664231981e+00 0.0000000000000000e+00  1.8473362786730476e+00 2.3250283811184640e+00 0.0000000000000000e+00  1.8468604430558848e+00 2.3239142375575099e+00 0.0000000000000000e+00  1.8463449267068843e+00 2.3229060386399123e+00 0.0000000000000000e+00  1.8451705756220433e+00 2.3204986113797212e+00 0.0000000000000000e+00  1.8396202646631501e+00 2.3074402379698218e+00 0.0000000000000000e+00  1.8302160436293997e+00 2.2862061783474470e+00 0.0000000000000000e+00  1.7916813232186879e+00 2.2012049149292414e+00 0.0000000000000000e+00  1.7333246205473321e+00 2.0596525452292167e+00 0.0000000000000000e+00  1.5721424335363126e+00 1.6474216284509635e+00 0.0000000000000000e+00  1.2591826891234776e+00 7.9397898425649505e-01 0.0000000000000000e+00  1.0602659857407679e+00 1.9267359894908254e-01 0.0000000000000000e+00  1.0090067951924375e+00 2.9375111079822394e-02 0.0000000000000000e+00  1.0011431285272006e+00 4.1025183617135639e-03 0.0000000000000000e+00  1.0001299697223280e+00 4.2925165439032341e-04 0.0000000000000000e+00  1.0000371852457310e+00 2.0570566151159497e-04 0.0000000000000000e+00  9.9997833803177305e-01 -9.0405652762826538e-05 0.0000000000000000e+00  1.0000024669422709e+00 1.6893322261669319e-04 0.0000000000000000e+00  9.9998166341216044e-01 -1.3811323659676839e-04 0.0000000000000000e+00  9.9999232100654467e-01 1.9363227099213198e-04 0.0000000000000000e+00  9.9997890761415009e-01 -1.3761092724354218e-04 0.0000000000000000e+00  9.9998786226222025e-01 2.0099668133673613e-04 0.0000000000000000e+00  9.9998057259266804e-01 -1.4099339531461547e-04 0.0000000000000000e+00  9.9997775699918290e-01 2.1927673799017653e-04 0.0000000000000000e+00  9.9998380483670168e-01 -1.4316969401131617e-04 0.0000000000000000e+00  9.9997541829551251e-01 2.1130027657816948e-04 0.0000000000000000e+00  9.9998044984205692e-01 -1.1810257461507510e-04 0.0000000000000000e+00  9.9997788152401423e-01 1.8318534429924614e-04 0.0000000000000000e+00  9.9998170296508837e-01 -9.7957295620416774e-05 0.0000000000000000e+00  9.9997821037722423e-01 1.6017721260625317e-04 0.0000000000000000e+00  9.9998592532163200e-01 -8.2576351529312417e-05 0.0000000000000000e+00  9.9998295315723029e-01 1.2374569854016153e-04 0.0000000000000000e+00  9.9998792497795208e-01 -5.5511635640339251e-05 0.0000000000000000e+00  9.9999106649737768e-01 8.0380636740316113e-05 0.0000000000000000e+00  9.9998976216537383e-01 -3.0261463116536850e-05 0.0000000000000000e+00  9.9999867241861995e-01 4.5418873623018184e-05 0.0000000000000000e+00  9.9999119387119662e-01 0.0000000000000000e+00 0.0000000000000000e+00  2.9999769953185793e+00 0.0000000000000000e+00 -1.0347337612834578e-05  2.9999783271433116e+00 2.4785614426972084e-05 4.5704537766726743e-06  2.9999604688718597e+00 5.2562544942479389e-05 -5.4350548845427770e-08  2.9999497607305745e+00 9.0276391110408167e-05 1.5399190858092698e-06  2.9999207893615045e+00 1.4168511887829285e-04 -1.6392469833114085e-06  2.9998707646738345e+00 2.2918993333775848e-04 1.9578503176096016e-06  2.9998053171183257e+00 3.5152481342263500e-04 -9.4784422837347682e-07  2.9997000144647932e+00 5.4473657808928758e-04 7.6573667838813452e-07  2.9995383210494300e+00 8.2615015028322098e-04 4.6975376320626123e-07  2.9993158056255398e+00 1.2353560209151927e-03 9.5000370880018524e-08  2.9989860549221294e+00 1.8278255094800538e-03 1.0726667161058568e-06  2.9985229538395513e+00 2.6573294709076457e-03 -3.1016689540117671e-07  2.9978894399823277e+00 3.8071760776988016e-03 1.8781537019056912e-06  2.9970197316883396e+00 5.3746550087252626e-03 -8.7805786525020332e-07  2.9958587455904433e+00 7.4690318974996416e-03 1.9552042518475384e-06  2.9943429016935563e+00 1.0214819569479052e-02 -5.6090958954743660e-07  2.9923751714117550e+00 1.3769713872497882e-02 1.2174484532501368e-06  2.9898884637060337e+00 1.8268531177567247e-02 -4.1856255155611546e-07  2.9867912179311076e+00 2.3881310336463481e-02 5.5676017334896747e-07  2.9829880430529343e+00 3.0766866662489505e-02 -1.1200250806886792e-07  2.9784093347366554e+00 3.9068478701501527e-02 -8.8583875176901816e-07  2.9729788992790769e+00 4.8927826754004526e-02 7.7190179236355079e-07  2.9666220511797032e+00 6.0466134662866010e-02 -2.0814498685716415e-06  2.9593086161119651e+00 7.3768969012788926e-02 1.1979285275536475e-06  2.9509932636611143e+00 8.8909217356572701e-02 -2.8030943822610471e-06  2.9416585848059920e+00 1.0592537862584686e-01 2.0562966272791946e-06  2.9313110267925553e+00 1.2482264275053476e-01 -3.6590631619202640e-06  2.9199593218164122e+00 1.4559647226076483e-01 2.7431197978375121e-06  2.9076265971764665e+00 1.6819423414357451e-01 -3.6273135554178923e-06  2.8943603772869757e+00 1.9257221619381659e-01 2.8575508613040394e-06  2.8801952567642854e+00 2.1865340437981481e-01 -3.4884965245253928e-06  2.8651940981160298e+00 2.4634141133277171e-01 2.8290433823370678e-06  2.8494062283913775e+00 2.7556236434336884e-01 -2.6706754197798789e-06  2.8328930064062834e+00 3.0621461089254270e-01 1.6933452620792228e-06  2.8157185637638080e+00 3.3817589952064597e-01 -1.4681399900712429e-06  2.7979359809869200e+00 3.7138414250499635e-01 7.7691028353251665e-07  2.7796004685797229e+00 4.0572975254313570e-01 -1.0007691746360928e-07  2.7607849611280724e+00 4.4108582886110886e-01 -2.0065284724697976e-06  2.7415167014132837e+00 4.7742658545817684e-01 3.9136559050390498e-06  2.7218595848123739e+00 5.1462755296884199e-01 -6.0942571344533786e-06  2.7018677456029567e+00 5.5259725565616302e-01 6.8027513125450783e-06  2.6815630604641623e+00 5.9130683829383657e-01 -8.4336044339417731e-06  2.6609936149009941e+00 6.3067683708937516e-01 1.0108940900883443e-05  2.6402160045601071e+00 6.7058511556375777e-01 -1.3602580278901942e-05  2.6192254392100538e+00 7.1107843718370212e-01 1.5643947973350344e-05  2.5980790908858946e+00 7.5202542529098049e-01 -1.7049563435884546e-05  2.5768097121425670e+00 7.9338686640147260e-01 1.5810796069905724e-05  2.5554176409527685e+00 8.3514880325444107e-01 -1.5047908911707180e-05  2.5339412773373033e+00 8.7726929860700364e-01 1.3691000143527747e-05  2.5124183299309339e+00 9.1964143135267240e-01 -1.3093530571857921e-05  2.4908312117740694e+00 9.6233705959323657e-01 1.0299763334553765e-05  2.4692261191203007e+00 1.0052463293038816e+00 -5.8106906116456526e-06  2.4476221468003443e+00 1.0483515429727532e+00 -8.9116482997463776e-07  2.4260089505331015e+00 1.0916492122426469e+00 7.5925152420472413e-06  2.4044240006773605e+00 1.1351024628201576e+00 -1.3398211725102721e-05  2.3828791057179664e+00 1.1786662309252334e+00 1.8946692521300133e-05  2.3613716733414445e+00 1.2223324466983725e+00 -2.4491593676325456e-05  2.3399238437482368e+00 1.2661097163864332e+00 3.2301406190515415e-05  2.3185585997138123e+00 1.3098943624699173e+00 -3.8421226398813383e-05  2.2972548737348455e+00 1.3537621127852684e+00 4.3753572959266043e-05  2.2760596426716466e+00 1.3976003633009695e+00 -4.2688631578947421e-05  2.2549579614636568e+00 1.4414926171352314e+00 4.1714993378209735e-05  2.2339731203446731e+00 1.4852609162803350e+00 -3.7097569496976975e-05  2.2131069306989835e+00 1.5290795854595667e+00 3.6311558434143693e-05  2.1923878202699467e+00 1.5727422455996753e+00 -3.1312047221491502e-05  2.1718000634902648e+00 1.6163391062200070e+00 3.0479456624775525e-05  2.1513894576235781e+00 1.6597641881123049e+00 -2.6647382911502088e-05  2.1311433735990484e+00 1.7030874061259758e+00 2.8426532853000129e-05  2.1110958593411371e+00 1.7461075836517648e+00 -2.3429538550536678e-05  2.0912546089664446e+00 1.7889670658362269e+00 2.1225975758963677e-05  2.0716568715377348e+00 1.8314559568217963e+00 -1.4786118701666410e-05  2.0523066534747816e+00 1.8736175770304335e+00 1.5596532749367416e-05  2.0332654056305111e+00 1.9153045219473273e+00 -1.1516554383170793e-05  2.0145499536011857e+00 1.9564789506185547e+00 1.0760965541373060e-05  1.9962239719437060e+00 1.9969402726140095e+00 -7.3594276577147053e-06  1.9783485961875105e+00 2.0366492016159725e+00 9.4317152181599382e-06  1.9610156871904234e+00 2.0752885523522315e+00 -7.0183169351818727e-06  1.9443154460945260e+00 2.1126683372787167e+00 4.5263102053627358e-06  1.9284180046770212e+00 2.1484259624397892e+00 -4.6563365716911632e-06  1.9134841037441026e+00 2.1821549821036443e+00 5.8303242504329418e-06  1.8997494930686583e+00 2.2132590323098014e+00 -5.3694963282873240e-06  1.8874910233237820e+00 2.2411497173758601e+00 5.0250114535215403e-06  1.8770091032539868e+00 2.265052