<?xml version="1.0"?>
<VTKFile type="UnstructuredGrid"  version="0.1"  >
<UnstructuredGrid>
<Piece  NumberOfPoints="8241" NumberOfCells="16000">
<Points>
<DataArray  type="Float64"  NumberOfComponents="3"  format="ascii">-5 -1 0  -4.95 -1 0  -4.9 -1 0  -4.85 -1 0  -4.8 -1 0  -4.75 -1 0  -4.7 -1 0  -4.65 -1 0  -4.6 -1 0  -4.55 -1 0  -4.5 -1 0  -4.45 -1 0  -4.4 -1 0  -4.35 -1 0  -4.3 -1 0  -4.25 -1 0  -4.2 -1 0  -4.15 -1 0  -4.1 -1 0  -4.05 -1 0  -4 -1 0  -3.95 -1 0  -3.9 -1 0  -3.85 -1 0  -3.8 -1 0  -3.75 -1 0  -3.7 -1 0  -3.65 -1 0  -3.6 -1 0  -3.55 -1 0  -3.5 -1 0  -3.45 -1 0  -3.4 -1 0  -3.35 -1 0  -3.3 -1 0  -3.25 -1 0  -3.2 -1 0  -3.15 -1 0  -3.1 -1 0  -3.05 -1 0  -3 -1 0  -2.95 -1 0  -2.9 -1 0  -2.85 -1 0  -2.8 -1 0  -2.75 -1 0  -2.7 -1 0  -2.65 -1 0  -2.6 -1 0  -2.55 -1 0  -2.5 -1 0  -2.45 -1 0  -2.4 -1 0  -2.35 -1 0  -2.3 -1 0  -2.25 -1 0  -2.2 -1 0  -2.15 -1 0  -2.1 -1 0  -2.05 -1 0  -2 -1 0  -1.95 -1 0  -1.9 -1 0  -1.85 -1 0  -1.8 -1 0  -1.75 -1 0  -1.7 -1 0  -1.65 -1 0  -1.6 -1 0  -1.55 -1 0  -1.5 -1 0  -1.45 -1 0  -1.4 -1 0  -1.35 -1 0  -1.3 -1 0  -1.25 -1 0  -1.2 -1 0  -1.15 -1 0  -1.1 -1 0  -1.05 -1 0  -1 -1 0  -0.9500000000000002 -1 0  -0.9000000000000004 -1 0  -0.8499999999999996 -1 0  -0.7999999999999998 -1 0  -0.75 -1 0  -0.7000000000000002 -1 0  -0.6500000000000004 -1 0  -0.5999999999999996 -1 0  -0.5499999999999998 -1 0  -0.5 -1 0  -0.4500000000000002 -1 0  -0.4000000000000004 -1 0  -0.3499999999999996 -1 0  -0.2999999999999998 -1 0  -0.25 -1 0  -0.2000000000000002 -1 0  -0.1500000000000004 -1 0  -0.09999999999999964 -1 0  -0.04999999999999982 -1 0  0 -1 0  0.04999999999999982 -1 0  0.09999999999999964 -1 0  0.1500000000000004 -1 0  0.2000000000000002 -1 0  0.25 -1 0  0.2999999999999998 -1 0  0.3499999999999996 -1 0  0.4000000000000004 -1 0  0.4500000000000002 -1 0  0.5 -1 0  0.5499999999999998 -1 0  0.5999999999999996 -1 0  0.6500000000000004 -1 0  0.7000000000000002 -1 0  0.75 -1 0  0.7999999999999998 -1 0  0.8499999999999996 -1 0  0.9000000000000004 -1 0  0.9500000000000002 -1 0  1 -1 0  1.05 -1 0  1.1 -1 0  1.15 -1 0  1.2 -1 0  1.25 -1 0  1.3 -1 0  1.35 -1 0  1.4 -1 0  1.45 -1 0  1.5 -1 0  1.55 -1 0  1.6 -1 0  1.65 -1 0  1.7 -1 0  1.75 -1 0  1.8 -1 0  1.85 -1 0  1.9 -1 0  1.95 -1 0  2 -1 0  2.05 -1 0  2.1 -1 0  2.15 -1 0  2.2 -1 0  2.25 -1 0  2.3 -1 0  2.35 -1 0  2.4 -1 0  2.45 -1 0  2.5 -1 0  2.55 -1 0  2.6 -1 0  2.65 -1 0  2.7 -1 0  2.75 -1 0  2.8 -1 0  2.85 -1 0  2.9 -1 0  2.95 -1 0  3 -1 0  3.050000000000001 -1 0  3.1 -1 0  3.15 -1 0  3.199999999999999 -1 0  3.25 -1 0  3.300000000000001 -1 0  3.35 -1 0  3.4 -1 0  3.449999999999999 -1 0  3.5 -1 0  3.550000000000001 -1 0  3.6 -1 0  3.65 -1 0  3.699999999999999 -1 0  3.75 -1 0  3.800000000000001 -1 0  3.85 -1 0  3.9 -1 0  3.949999999999999 -1 0  4 -1 0  4.050000000000001 -1 0  4.1 -1 0  4.15 -1 0  4.199999999999999 -1 0  4.25 -1 0  4.300000000000001 -1 0  4.35 -1 0  4.4 -1 0  4.449999999999999 -1 0  4.5 -1 0  4.550000000000001 -1 0  4.6 -1 0  4.65 -1 0  4.699999999999999 -1 0  4.75 -1 0  4.800000000000001 -1 0  4.85 -1 0  4.9 -1 0  4.949999999999999 -1 0  5 -1 0  -5 -0.95 0  -4.95 -0.95 0  -4.9 -0.95 0  -4.85 -0.95 0  -4.8 -0.95 0  -4.75 -0.95 0  -4.7 -0.95 0  -4.65 -0.95 0  -4.6 -0.95 0  -4.55 -0.95 0  -4.5 -0.95 0  -4.45 -0.95 0  -4.4 -0.95 0  -4.35 -0.95 0  -4.3 -0.95 0  -4.25 -0.95 0  -4.2 -0.95 0  -4.15 -0.95 0  -4.1 -0.95 0  -4.05 -0.95 0  -4 -0.95 0  -3.95 -0.95 0  -3.9 -0.95 0  -3.85 -0.95 0  -3.8 -0.95 0  -3.75 -0.95 0  -3.7 -0.95 0  -3.65 -0.95 0  -3.6 -0.95 0  -3.55 -0.95 0  -3.5 -0.95 0  -3.45 -0.95 0  -3.4 -0.95 0  -3.35 -0.95 0  -3.3 -0.95 0  -3.25 -0.95 0  -3.2 -0.95 0  -3.15 -0.95 0  -3.1 -0.95 0  -3.05 -0.95 0  -3 -0.95 0  -2.95 -0.95 0  -2.9 -0.95 0  -2.85 -0.95 0  -2.8 -0.95 0  -2.75 -0.95 0  -2.7 -0.95 0  -2.65 -0.95 0  -2.6 -0.95 0  -2.55 -0.95 0  -2.5 -0.95 0  -2.45 -0.95 0  -2.4 -0.95 0  -2.35 -0.95 0  -2.3 -0.95 0  -2.25 -0.95 0  -2.2 -0.95 0  -2.15 -0.95 0  -2.1 -0.95 0  -2.05 -0.95 0  -2 -0.95 0  -1.95 -0.95 0  -1.9 -0.95 0  -1.85 -0.95 0  -1.8 -0.95 0  -1.75 -0.95 0  -1.7 -0.95 0  -1.65 -0.95 0  -1.6 -0.95 0  -1.55 -0.95 0  -1.5 -0.95 0  -1.45 -0.95 0  -1.4 -0.95 0  -1.35 -0.95 0  -1.3 -0.95 0  -1.25 -0.95 0  -1.2 -0.95 0  -1.15 -0.95 0  -1.1 -0.95 0  -1.05 -0.95 0  -1 -0.95 0  -0.9500000000000002 -0.95 0  -0.9000000000000004 -0.95 0  -0.8499999999999996 -0.95 0  -0.7999999999999998 -0.95 0  -0.75 -0.95 0  -0.7000000000000002 -0.95 0  -0.6500000000000004 -0.95 0  -0.5999999999999996 -0.95 0  -0.5499999999999998 -0.95 0  -0.5 -0.95 0  -0.4500000000000002 -0.95 0  -0.4000000000000004 -0.95 0  -0.3499999999999996 -0.95 0  -0.2999999999999998 -0.95 0  -0.25 -0.95 0  -0.2000000000000002 -0.95 0  -0.1500000000000004 -0.95 0  -0.09999999999999964 -0.95 0  -0.04999999999999982 -0.95 0  0 -0.95 0  0.04999999999999982 -0.95 0  0.09999999999999964 -0.95 0  0.1500000000000004 -0.95 0  0.2000000000000002 -0.95 0  0.25 -0.95 0  0.2999999999999998 -0.95 0  0.3499999999999996 -0.95 0  0.4000000000000004 -0.95 0  0.4500000000000002 -0.95 0  0.5 -0.95 0  0.5499999999999998 -0.95 0  0.5999999999999996 -0.95 0  0.6500000000000004 -0.95 0  0.7000000000000002 -0.95 0  0.75 -0.95 0  0.7999999999999998 -0.95 0  0.8499999999999996 -0.95 0  0.9000000000000004 -0.95 0  0.9500000000000002 -0.95 0  1 -0.95 0  1.05 -0.95 0  1.1 -0.95 0  1.15 -0.95 0  1.2 -0.95 0  1.25 -0.95 0  1.3 -0.95 0  1.35 -0.95 0  1.4 -0.95 0  1.45 -0.95 0  1.5 -0.95 0  1.55 -0.95 0  1.6 -0.95 0  1.65 -0.95 0  1.7 -0.95 0  1.75 -0.95 0  1.8 -0.95 0  1.85 -0.95 0  1.9 -0.95 0  1.95 -0.95 0  2 -0.95 0  2.05 -0.95 0  2.1 -0.95 0  2.15 -0.95 0  2.2 -0.95 0  2.25 -0.95 0  2.3 -0.95 0  2.35 -0.95 0  2.4 -0.95 0  2.45 -0.95 0  2.5 -0.95 0  2.55 -0.95 0  2.6 -0.95 0  2.65 -0.95 0  2.7 -0.95 0  2.75 -0.95 0  2.8 -0.95 0  2.85 -0.95 0  2.9 -0.95 0  2.95 -0.95 0  3 -0.95 0  3.050000000000001 -0.95 0  3.1 -0.95 0  3.15 -0.95 0  3.199999999999999 -0.95 0  3.25 -0.95 0  3.300000000000001 -0.95 0  3.35 -0.95 0  3.4 -0.95 0  3.449999999999999 -0.95 0  3.5 -0.95 0  3.550000000000001 -0.95 0  3.6 -0.95 0  3.65 -0.95 0  3.699999999999999 -0.95 0  3.75 -0.95 0  3.800000000000001 -0.95 0  3.85 -0.95 0  3.9 -0.95 0  3.949999999999999 -0.95 0  4 -0.95 0  4.050000000000001 -0.95 0  4.1 -0.95 0  4.15 -0.95 0  4.199999999999999 -0.95 0  4.25 -0.95 0  4.300000000000001 -0.95 0  4.35 -0.95 0  4.4 -0.95 0  4.449999999999999 -0.95 0  4.5 -0.95 0  4.550000000000001 -0.95 0  4.6 -0.95 0  4.65 -0.95 0  4.699999999999999 -0.95 0  4.75 -0.95 0  4.800000000000001 -0.95 0  4.85 -0.95 0  4.9 -0.95 0  4.949999999999999 -0.95 0  5 -0.95 0  -5 -0.9 0  -4.95 -0.9 0  -4.9 -0.9 0  -4.85 -0.9 0  -4.8 -0.9 0  -4.75 -0.9 0  -4.7 -0.9 0  -4.65 -0.9 0  -4.6 -0.9 0  -4.55 -0.9 0  -4.5 -0.9 0  -4.45 -0.9 0  -4.4 -0.9 0  -4.35 -0.9 0  -4.3 -0.9 0  -4.25 -0.9 0  -4.2 -0.9 0  -4.15 -0.9 0  -4.1 -0.9 0  -4.05 -0.9 0  -4 -0.9 0  -3.95 -0.9 0  -3.9 -0.9 0  -3.85 -0.9 0  -3.8 -0.9 0  -3.75 -0.9 0  -3.7 -0.9 0  -3.65 -0.9 0  -3.6 -0.9 0  -3.55 -0.9 0  -3.5 -0.9 0  -3.45 -0.9 0  -3.4 -0.9 0  -3.35 -0.9 0  -3.3 -0.9 0  -3.25 -0.9 0  -3.2 -0.9 0  -3.15 -0.9 0  -3.1 -0.9 0  -3.05 -0.9 0  -3 -0.9 0  -2.95 -0.9 0  -2.9 -0.9 0  -2.85 -0.9 0  -2.8 -0.9 0  -2.75 -0.9 0  -2.7 -0.9 0  -2.65 -0.9 0  -2.6 -0.9 0  -2.55 -0.9 0  -2.5 -0.9 0  -2.45 -0.9 0  -2.4 -0.9 0  -2.35 -0.9 0  -2.3 -0.9 0  -2.25 -0.9 0  -2.2 -0.9 0  -2.15 -0.9 0  -2.1 -0.9 0  -2.05 -0.9 0  -2 -0.9 0  -1.95 -0.9 0  -1.9 -0.9 0  -1.85 -0.9 0  -1.8 -0.9 0  -1.75 -0.9 0  -1.7 -0.9 0  -1.65 -0.9 0  -1.6 -0.9 0  -1.55 -0.9 0  -1.5 -0.9 0  -1.45 -0.9 0  -1.4 -0.9 0  -1.35 -0.9 0  -1.3 -0.9 0  -1.25 -0.9 0  -1.2 -0.9 0  -1.15 -0.9 0  -1.1 -0.9 0  -1.05 -0.9 0  -1 -0.9 0  -0.9500000000000002 -0.9 0  -0.9000000000000004 -0.9 0  -0.8499999999999996 -0.9 0  -0.7999999999999998 -0.9 0  -0.75 -0.9 0  -0.7000000000000002 -0.9 0  -0.6500000000000004 -0.9 0  -0.5999999999999996 -0.9 0  -0.5499999999999998 -0.9 0  -0.5 -0.9 0  -0.4500000000000002 -0.9 0  -0.4000000000000004 -0.9 0  -0.3499999999999996 -0.9 0  -0.2999999999999998 -0.9 0  -0.25 -0.9 0  -0.2000000000000002 -0.9 0  -0.1500000000000004 -0.9 0  -0.09999999999999964 -0.9 0  -0.04999999999999982 -0.9 0  0 -0.9 0  0.04999999999999982 -0.9 0  0.09999999999999964 -0.9 0  0.1500000000000004 -0.9 0  0.2000000000000002 -0.9 0  0.25 -0.9 0  0.2999999999999998 -0.9 0  0.3499999999999996 -0.9 0  0.4000000000000004 -0.9 0  0.4500000000000002 -0.9 0  0.5 -0.9 0  0.5499999999999998 -0.9 0  0.5999999999999996 -0.9 0  0.6500000000000004 -0.9 0  0.7000000000000002 -0.9 0  0.75 -0.9 0  0.7999999999999998 -0.9 0  0.8499999999999996 -0.9 0  0.9000000000000004 -0.9 0  0.9500000000000002 -0.9 0  1 -0.9 0  1.05 -0.9 0  1.1 -0.9 0  1.15 -0.9 0  1.2 -0.9 0  1.25 -0.9 0  1.3 -0.9 0  1.35 -0.9 0  1.4 -0.9 0  1.45 -0.9 0  1.5 -0.9 0  1.55 -0.9 0  1.6 -0.9 0  1.65 -0.9 0  1.7 -0.9 0  1.75 -0.9 0  1.8 -0.9 0  1.85 -0.9 0  1.9 -0.9 0  1.95 -0.9 0  2 -0.9 0  2.05 -0.9 0  2.1 -0.9 0  2.15 -0.9 0  2.2 -0.9 0  2.25 -0.9 0  2.3 -0.9 0  2.35 -0.9 0  2.4 -0.9 0  2.45 -0.9 0  2.5 -0.9 0  2.55 -0.9 0  2.6 -0.9 0  2.65 -0.9 0  2.7 -0.9 0  2.75 -0.9 0  2.8 -0.9 0  2.85 -0.9 0  2.9 -0.9 0  2.95 -0.9 0  3 -0.9 0  3.050000000000001 -0.9 0  3.1 -0.9 0  3.15 -0.9 0  3.199999999999999 -0.9 0  3.25 -0.9 0  3.300000000000001 -0.9 0  3.35 -0.9 0  3.4 -0.9 0  3.449999999999999 -0.9 0  3.5 -0.9 0  3.550000000000001 -0.9 0  3.6 -0.9 0  3.65 -0.9 0  3.699999999999999 -0.9 0  3.75 -0.9 0  3.800000000000001 -0.9 0  3.85 -0.9 0  3.9 -0.9 0  3.949999999999999 -0.9 0  4 -0.9 0  4.050000000000001 -0.9 0  4.1 -0.9 0  4.15 -0.9 0  4.199999999999999 -0.9 0  4.25 -0.9 0  4.300000000000001 -0.9 0  4.35 -0.9 0  4.4 -0.9 0  4.449999999999999 -0.9 0  4.5 -0.9 0  4.550000000000001 -0.9 0  4.6 -0.9 0  4.65 -0.9 0  4.699999999999999 -0.9 0  4.75 -0.9 0  4.800000000000001 -0.9 0  4.85 -0.9 0  4.9 -0.9 0  4.949999999999999 -0.9 0  5 -0.9 0  -5 -0.85 0  -4.95 -0.85 0  -4.9 -0.85 0  -4.85 -0.85 0  -4.8 -0.85 0  -4.75 -0.85 0  -4.7 -0.85 0  -4.65 -0.85 0  -4.6 -0.85 0  -4.55 -0.85 0  -4.5 -0.85 0  -
[...]
<PointData  Vectors="f_15"> 
<DataArray  type="Float64"  Name="f_15"  NumberOfComponents="3" format="ascii">4.8029594652199341e+00 0.0000000000000000e+00 0.0000000000000000e+00  4.8203585604371586e+00 1.1531993529544492e-01 0.0000000000000000e+00  4.8009833799345438e+00 8.0636918515906514e-02 0.0000000000000000e+00  4.8218221991213390e+00 2.3862294331731942e-01 0.0000000000000000e+00  4.8025915346945212e+00 2.3051904950544355e-01 0.0000000000000000e+00  4.8191603602430009e+00 3.5802606906988660e-01 0.0000000000000000e+00  4.8046364978986906e+00 3.7659119050976525e-01 0.0000000000000000e+00  4.8194453653554810e+00 4.8628244134576987e-01 0.0000000000000000e+00  4.8024033251155380e+00 5.1743746368557308e-01 0.0000000000000000e+00  4.8196168211923300e+00 6.1553033540112700e-01 0.0000000000000000e+00  4.8034503357605951e+00 6.5523623710630430e-01 0.0000000000000000e+00  4.8153543836701003e+00 7.5093711070807068e-01 0.0000000000000000e+00  4.8042422431680638e+00 7.8705313293031587e-01 0.0000000000000000e+00  4.8144537482315570e+00 8.8504332395181950e-01 0.0000000000000000e+00  4.8007000929230816e+00 9.2429738096437131e-01 0.0000000000000000e+00  4.8132889803922279e+00 1.0160525457131921e+00 0.0000000000000000e+00  4.8003346259186994e+00 1.0597865633429167e+00 0.0000000000000000e+00  4.8082920024527533e+00 1.1474622306414701e+00 0.0000000000000000e+00  4.7993018445357905e+00 1.1964775678494604e+00 0.0000000000000000e+00  4.8067437848293917e+00 1.2812015262850891e+00 0.0000000000000000e+00  4.7943899136478780e+00 1.3255137686018008e+00 0.0000000000000000e+00  4.8046701936327834e+00 1.4181543500218885e+00 0.0000000000000000e+00  4.7926859521417233e+00 1.4608590195606108e+00 0.0000000000000000e+00  4.7991542632831701e+00 1.5470384148220346e+00 0.0000000000000000e+00  4.7900611918001905e+00 1.5952783530858297e+00 0.0000000000000000e+00  4.7970438744760378e+00 1.6832010150469381e+00 0.0000000000000000e+00  4.7840448741855628e+00 1.7251996294004306e+00 0.0000000000000000e+00  4.7939740486196234e+00 1.8163071348501680e+00 0.0000000000000000e+00  4.7812138286270525e+00 1.8613908969006641e+00 0.0000000000000000e+00  4.7878956865728153e+00 1.9450706753859501e+00 0.0000000000000000e+00  4.7772221540467275e+00 1.9961760046341579e+00 0.0000000000000000e+00  4.7848422212422612e+00 2.0793911448499989e+00 0.0000000000000000e+00  4.7704599972652844e+00 2.1259668703770118e+00 0.0000000000000000e+00  4.7805977643608424e+00 2.2125997597911802e+00 0.0000000000000000e+00  4.7664218010982990e+00 2.2608273548235549e+00 0.0000000000000000e+00  4.7739445325633563e+00 2.3423065299369004e+00 0.0000000000000000e+00  4.7610646410402611e+00 2.3931984090578973e+00 0.0000000000000000e+00  4.7697812309866068e+00 2.4773511688745193e+00 0.0000000000000000e+00  4.7535239171336654e+00 2.5221276545070510e+00 0.0000000000000000e+00  4.7643624126451289e+00 2.6095976998579857e+00 0.0000000000000000e+00  4.7480574555608523e+00 2.6573972980654914e+00 0.0000000000000000e+00  4.7571386069399146e+00 2.7365620537569284e+00 0.0000000000000000e+00  4.7412911817996894e+00 2.7921076923365242e+00 0.0000000000000000e+00  4.7516268940613111e+00 2.8674933311392010e+00 0.0000000000000000e+00  4.7330347051055055e+00 2.9230608504644362e+00 0.0000000000000000e+00  4.7448056843850051e+00 2.9976250016928878e+00 0.0000000000000000e+00  4.7261377059027314e+00 3.0571920047079861e+00 0.0000000000000000e+00  4.7367822798830765e+00 3.1251263208966549e+00 0.0000000000000000e+00  4.7179751163743679e+00 3.1887448819562376e+00 0.0000000000000000e+00  4.7296721112312365e+00 3.2587525466321674e+00 0.0000000000000000e+00  4.7089814766374518e+00 3.3132409899567432e+00 0.0000000000000000e+00  4.7212073240080539e+00 3.3944794230362003e+00 0.0000000000000000e+00  4.7006586766531750e+00 3.4406807071128411e+00 0.0000000000000000e+00  4.7120047917999219e+00 3.5229678909159925e+00 0.0000000000000000e+00  4.6912984930665180e+00 3.5738039274372926e+00 0.0000000000000000e+00  4.7026400557173211e+00 3.6487814336592304e+00 0.0000000000000000e+00  4.6820593161629507e+00 3.7050880085302751e+00 0.0000000000000000e+00  4.6916114122185419e+00 3.7759525211849558e+00 0.0000000000000000e+00  4.6728441691112916e+00 3.8366743776619545e+00 0.0000000000000000e+00  4.6805857497138224e+00 3.8990168206211879e+00 0.0000000000000000e+00  4.6621971792212689e+00 3.9710451279824457e+00 0.0000000000000000e+00  4.6690275629584690e+00 4.0221829072557123e+00 0.0000000000000000e+00  4.6520391066648514e+00 4.0994701836676324e+00 0.0000000000000000e+00  4.6557464525140348e+00 4.1515966697056061e+00 0.0000000000000000e+00  4.6412403420500530e+00 4.2233532420613953e+00 0.0000000000000000e+00  4.6430275360047064e+00 4.2797902855928731e+00 0.0000000000000000e+00  4.6288529530889200e+00 4.3486027199777872e+00 0.0000000000000000e+00  4.6290862426514883e+00 4.4081752159898855e+00 0.0000000000000000e+00  4.6176149301213609e+00 4.4685657948018811e+00 0.0000000000000000e+00  4.6130831199663271e+00 4.5391060713972973e+00 0.0000000000000000e+00  4.6052753348510889e+00 4.5918756672171250e+00 0.0000000000000000e+00  4.5980648036445517e+00 4.6572140607100510e+00 0.0000000000000000e+00  4.5911147589146797e+00 4.7257975216700974e+00 0.0000000000000000e+00  4.5814369987617987e+00 4.7746383493413971e+00 0.0000000000000000e+00  4.5782820297693281e+00 4.8433791743229531e+00 0.0000000000000000e+00  4.5628461471475061e+00 4.9119016175134540e+00 0.0000000000000000e+00  4.5634483631342899e+00 4.9507697824348309e+00 0.0000000000000000e+00  4.5461922184728785e+00 5.0354324312254874e+00 0.0000000000000000e+00  4.5458178344135947e+00 5.0851094601409477e+00 0.0000000000000000e+00  4.5281909946979706e+00 5.1343756957200339e+00 0.0000000000000000e+00  4.5292826523065139e+00 5.2192822406638015e+00 0.0000000000000000e+00  4.5080606566037522e+00 5.2559104862945993e+00 0.0000000000000000e+00  4.5107102776504151e+00 5.3197398295033578e+00 0.0000000000000000e+00  4.4893468268702694e+00 5.3955117751388650e+00 0.0000000000000000e+00  4.4898521682146084e+00 5.4254303656915948e+00 0.0000000000000000e+00  4.4684690260763675e+00 5.5066344922583337e+00 0.0000000000000000e+00  4.4704280379663333e+00 5.5593588641202558e+00 0.0000000000000000e+00  4.4451025180434769e+00 5.6029152150636401e+00 0.0000000000000000e+00  4.4488482066915678e+00 5.6822615474644360e+00 0.0000000000000000e+00  4.4231260727044397e+00 5.7230765650723034e+00 0.0000000000000000e+00  4.4251015702008525e+00 5.7774719900356448e+00 0.0000000000000000e+00  4.3992433442807393e+00 5.8536981856707291e+00 0.0000000000000000e+00  4.4023301547059113e+00 5.8772080454053413e+00 0.0000000000000000e+00  4.3721187718388714e+00 5.9650514640878702e+00 0.0000000000000000e+00  4.3772187529056730e+00 5.9966237775024256e+00 0.0000000000000000e+00  4.3481862997206182e+00 6.0588685776065425e+00 0.0000000000000000e+00  4.3491892956357514e+00 6.1136069213837603e+00 0.0000000000000000e+00  4.3211485044422160e+00 6.1660262133416976e+00 0.0000000000000000e+00  4.3192756264337131e+00 6.2146215250717383e+00 0.0000000000000000e+00  4.2953823708372232e+00 6.2788484701179303e+00 0.0000000000000000e+00  4.2920353101802364e+00 6.3064245138957276e+00 0.0000000000000000e+00  4.2699914787152666e+00 6.3780938021053029e+00 0.0000000000000000e+00  4.2576662440546933e+00 6.4207041327219585e+00 0.0000000000000000e+00  4.2358277271230307e+00 6.4736632491046233e+00 0.0000000000000000e+00  4.2286244919820648e+00 6.5265470610485359e+00 0.0000000000000000e+00  4.2016203184675787e+00 6.5738137403867576e+00 0.0000000000000000e+00  4.1955226288212701e+00 6.6201237350361941e+00 0.0000000000000000e+00  4.1705125410067208e+00 6.6777220870717677e+00 0.0000000000000000e+00  4.1584981697104855e+00 6.7114729071036132e+00 0.0000000000000000e+00  4.1362338169879562e+00 6.7789988890169139e+00 0.0000000000000000e+00  4.1249706296172919e+00 6.8017034144779336e+00 0.0000000000000000e+00  4.0988428775781651e+00 6.8750594673767580e+00 0.0000000000000000e+00  4.0906015781973561e+00 6.8919455324764121e+00 0.0000000000000000e+00  4.0628317005996184e+00 6.9656888746482526e+00 0.0000000000000000e+00  4.0531538434327867e+00 6.9835271940071380e+00 0.0000000000000000e+00  4.0247742311778261e+00 7.0544446721423775e+00 0.0000000000000000e+00  4.0157897940543235e+00 7.0746384310848764e+00 0.0000000000000000e+00  3.9887388586883903e+00 7.1356833320434063e+00 0.0000000000000000e+00  3.9765238972470862e+00 7.1642172995853812e+00 0.0000000000000000e+00  3.9543997158413866e+00 7.2153425642926505e+00 0.0000000000000000e+00  3.9354680043791266e+00 7.2501870545417066e+00 0.0000000000000000e+00  3.9145191906360139e+00 7.2992312317975214e+00 0.0000000000000000e+00  3.8969073704483321e+00 7.3340391350624827e+00 0.0000000000000000e+00  3.8735760609256449e+00 7.3782192317463950e+00 0.0000000000000000e+00  3.8596551517713822e+00 7.4132728234308045e+00 0.0000000000000000e+00  3.8418561565548739e+00 7.4473136007159066e+00 0.0000000000000000e+00  3.8218184280730250e+00 7.4847306087319438e+00 0.0000000000000000e+00  3.7970726892643611e+00 7.5325410814251494e+00 0.0000000000000000e+00  3.8219269881018949e+00 7.4997510022426122e+00 0.0000000000000000e+00  3.8689184312044329e+00 7.4270376594695744e+00 0.0000000000000000e+00  3.9155007997002103e+00 7.3621339591728399e+00 0.0000000000000000e+00  3.9249398961091457e+00 7.3492357009300040e+00 0.0000000000000000e+00  3.9366334103712561e+00 7.3353228170482625e+00 0.0000000000000000e+00  3.9354092889622594e+00 7.3413715158589596e+00 0.0000000000000000e+00  3.9452802406438829e+00 7.3300641532926356e+00 0.0000000000000000e+00  3.9401038487476612e+00 7.3387684694823019e+00 0.0000000000000000e+00  3.9506358174001091e+00 7.3278751289712796e+00 0.0000000000000000e+00  3.9453824033629465e+00 7.3360990194815203e+00 0.0000000000000000e+00  3.9530400215543020e+00 7.3302851758882897e+00 0.0000000000000000e+00  3.9479637069862346e+00 7.3305007915849538e+00 0.0000000000000000e+00  3.9574275005486599e+00 7.3354663993129758e+00 0.0000000000000000e+00  3.9479091127912311e+00 7.3252870452497332e+00 0.0000000000000000e+00  3.9620952334861719e+00 7.3383214681270319e+00 0.0000000000000000e+00  3.9460877567445967e+00 7.3223812063402018e+00 0.0000000000000000e+00  3.9683430559329178e+00 7.3435758571987231e+00 0.0000000000000000e+00  3.9404361696622758e+00 7.3118804294158446e+00 0.0000000000000000e+00  3.9778501843486143e+00 7.3607819009960922e+00 0.0000000000000000e+00  3.9273833075113624e+00 7.2916904232261848e+00 0.0000000000000000e+00  3.9891442381462419e+00 7.3862253207225388e+00 0.0000000000000000e+00  3.9129862350892495e+00 7.2791941001827238e+00 0.0000000000000000e+00  3.9807016553408765e+00 7.3908071966097104e+00 0.0000000000000000e+00  3.9309103979698365e+00 7.3081738204778857e+00 0.0000000000000000e+00  3.9285172332911156e+00 7.3494385115464453e+00 0.0000000000000000e+00  4.0035436817201377e+00 7.3579924916787132e+00 0.0000000000000000e+00  3.8422474218860976e+00 7.2848808348085070e+00 0.0000000000000000e+00  4.1019485441156185e+00 7.4356546518539890e+00 0.0000000000000000e+00  4.0210460294555510e+00 6.8088922350024994e+00 0.0000000000000000e+00  8.6990162484360525e+00 7.4456140698306006e-01 0.0000000000000000e+00  9.5268481469897051e+00 8.2605272692878651e-02 0.0000000000000000e+00  9.4464540975902853e+00 -9.1172190131087270e-03 0.0000000000000000e+00  9.4672384492333759e+00 -1.4219980961687480e-02 0.0000000000000000e+00  9.4812732279949650e+00 -7.5965282477854796e-03 0.0000000000000000e+00  9.4933744185409505e+00 -3.7483412499000793e-02 0.0000000000000000e+00  9.5035249292852448e+00 -4.4506386809676522e-02 0.0000000000000000e+00  9.4885473624716816e+00 -2.7058563117003172e-02 0.0000000000000000e+00  9.4920138579366071e+00 -3.2452201497524112e-02 0.0000000000000000e+00  9.4955220465318551e+00 -3.5357156106926434e-02 0.0000000000000000e+00  9.4964660242850307e+00 -3.4996095035982014e-02 0.0000000000000000e+00  9.4957674707033561e+00 -3.7243951200958622e-02 0.0000000000000000e+00  9.4942013108694088e+00 -3.1869710468532125e-02 0.0000000000000000e+00  9.4957351494334876e+00 -4.0140483318566504e-02 0.0000000000000000e+00  9.4977913761226525e+00 -3.5575170389211909e-02 0.0000000000000000e+00  9.4952866816774950e+00 -4.0068656200652933e-02 0.0000000000000000e+00  9.4963920576590795e+00 -3.7600131287477252e-02 0.0000000000000000e+00  9.4976557366063226e+00 -4.2368392931967938e-02 0.0000000000000000e+00  9.4958333692730648e+00 -3.9878203492093700e-02 0.0000000000000000e+00  9.4977975632841893e+00 -4.3778577118393482e-02 0.0000000000000000e+00  9.4971107691459995e+00 -4.5359971376920674e-02 0.0000000000000000e+00  9.4967865108138430e+00 -4.5904364328384573e-02 0.0000000000000000e+00  9.4977828494516707e+00 -5.3983286941504699e-02 0.0000000000000000e+00  9.4976374658697296e+00 -5.0908845329625710e-02 0.0000000000000000e+00  9.4967298188174780e+00 -6.1631655720444080e-02 0.0000000000000000e+00  9.4984746102620079e+00 -5.7926378818389211e-02 0.0000000000000000e+00  9.4969116383018655e+00 -6.6972345321271110e-02 0.0000000000000000e+00  9.4979161145808497e+00 -6.1529757519050071e-02 0.0000000000000000e+00  9.4975801069524444e+00 -7.9412920799056055e-02 0.0000000000000000e+00  9.4976823106857395e+00 -7.7112970354190485e-02 0.0000000000000000e+00  9.4973963741295169e+00 -9.8480619594170704e-02 0.0000000000000000e+00  9.4979780817430850e+00 -9.7704283764241742e-02 0.0000000000000000e+00  9.4970351613377044e+00 -1.1574454189089037e-01 0.0000000000000000e+00  9.4981988539945217e+00 -1.0975349100285814e-01 0.0000000000000000e+00  9.4968581813804995e+00 -1.2496034991614612e-01 0.0000000000000000e+00  9.4980118225916090e+00 -1.0536630105192010e-01 0.0000000000000000e+00  9.4976276473788381e+00 -1.1118394916669555e-01 0.0000000000000000e+00  9.4972774032921574e+00 -1.0003218368433595e-01 0.0000000000000000e+00  9.4978533458846961e+00 -9.1551177440840750e-02 0.0000000000000000e+00  9.4981287182513707e+00 -9.3671393811990730e-02 0.0000000000000000e+00  9.4968781037741135e+00 -7.2013214529658587e-02 0.0000000000000000e+00  9.4982943305802401e+00 -1.0619010966261673e-01 0.0000000000000000e+00  9.4982303157929469e+00 -2.5824480470795916e-02 0.0000000000000000e+00  9.4971409487858267e+00 0.0000000000000000e+00 0.0000000000000000e+00  4.8171145418101737e+00 0.0000000000000000e+00 -3.6885920548123209e-02  4.8173847916276511e+00 5.3520160762425772e-02 -1.3417520980536120e-04  4.8184022125367640e+00 1.5471077213338991e-01 2.2335483981010391e-02  4.8170659419298074e+00 2.0179638739030728e-01 -1.6071857589893428e-02  4.8150773615600473e+00 2.7350561870848211e-01 1.3951981711205579e-02  4.8172121865856257e+00 3.3791024524914548e-01 -1.2707084785799953e-02  4.8145576311780403e+00 4.0847228819025216e-01 1.2407761027215891e-02  4.8131825133858603e+00 4.6673907380278878e-01 -1.2310084541994032e-02  4.8143091855120810e+00 5.4236418223626415e-01 1.1273799094435629e-02  4.8125056731842424e+00 5.9971818646886188e-01 -9.6870017436321513e-03  4.8099688642995515e+00 6.7604955845024017e-01 7.9490952562876211e-03  4.8119134415197609e+00 7.3073153214801057e-01 -6.6749754899616326e-03  4.8092624272389886e+00 8.0954879894551823e-01 5.3428857344185246e-03  4.8072019754162563e+00 8.6741825991783672e-01 -3.3834768292560721e-03  4.8085666532890228e+00 9.3771706732214466e-01 1.2916749549694970e-03  4.8060411837286123e+00 1.0041271419045790e+00 -4.5927737118703929e-04  4.8039155521705261e+00 1.0704149817638280e+00 8.1967019752540607e-04  4.8046611655259648e+00 1.1376309350122049e+00 -8.7743751776116728e-04  4.8026973288131654e+00 1.2043330701525521e+00 -8.7256956606535406e-05  4.7995740900431354e+00 1.2691901157026833e+00 9.0427176594170373e-04  4.8009335708064533e+00 1.3398822173782261e+00 -3.7840421518196230e-04  4.7979629428712078e+00 1.4036453412849390e+00 -5.9327579782774103e-04  4.7955244943811692e+00 1.4695787022434070e+00 8.3428993876650192e-04  4.7956793026300071e+00 1.5389404726198956e+00 -7.5198990526599780e-04  4.7934345790108530e+00 1.6055168372693616e+00 1.2939317153723301e-03  4.7900602402269543e+00 1.6680305416242767e+00 -2.2844954597731133e-03  4.7903467666548387e+00 1.7401678509451377e+00 3.1104519746905498e-03  4.7877781541451512e+00 1.8032801987154599e+00 -3.7409225689344298e-03  4.7840646811487622e+00 1.8705492654092040e+00 4.5563421675373136e-03  4.7844492205620286e+00 1.9364612666588981e+00 -5.4457548060982694e-03  4.7808401720529998e+00 2.0067137210274391e+00 6.2766435656915224e-03  4.7782804291881753e+00 2.0648802676097273e+00 -7.0908740915343682e-03  4.7764101535697279e+00 2.1417367409270613e+00 7.9496324608601537e-03  4.7749778748864733e+00 2.1986705516752831e+00 -8.6848944723092805e-03  4.7694015217355226e+00 2.2722754082036327e+00 9.3585344346689258e-03  4.7704262633048646e+00 2.3307552076958973e+00 -1.0052039671129984e-02  4.7649440269459138e+00 2.4080368698014758e+00 1.0777277059304494e-02  4.7636423000898711e+00 2.4592056612631037e+00 -1.1496952138777579e-02  4.7591365463742887e+00 2.5413999476067741e+00 1.2309413805342529e-02  4.7591753614067853e+00 2.5931113214977954e+00 -1.3223372198274236e-02  4.7512891985193839e+00 2.6707113727100684e+00 1.4217337619132913e-02  4.7534815574258023e+00 2.7250629146569989e+00 -1.5211857685847865e-02  4.7452746000331070e+00 2.8053106943504327e+00 1.6112722964650505e-02  4.7461422655308265e+00 2.8525597126595734e+00 -1.6773942984116417e-02  4.7380071698226418e+00 2.9388353808256809e+00 1.7226623474395630e-02  4.7402312237063944e+00 2.9841707587732502e+00 -1.7507681525393864e-02  4.7294959784784369e+00 3.0684980445002408e+00 1.7672448675313160e-02  4.7329377401320860e+00 3.1147713560831667e+00 -1.7616855833385233e-02  4.7221967508068765e+00 3.2020258820612457e+00 1.7301173228912333e-02  4.7245255983941821e+00 3.2412677910589021e+00 -1.6779193624971808e-02  4.7136670445511033e+00 3.3348157775321763e+00 1.6318915049189218e-02  4.7168741293301171e+00 3.3720667552352221e+00 -1.6145312467653130e-02  4.7042870799430503e+00 3.4614920479421913e+00 1.6331464344281496e-02  4.7081107842781993e+00 3.5052459922125192e+00 -1.6628657247946085e-02  4.6951444329383589e+00 3.5894466456412761e+00 1.6674759819805398e-02  4.6988568266416557e+00 3.6336662833818796e+00 -1.6188144221054329e-02  4.6850009237553074e+00 3.7200048014079332e+00 1.5184539791979831e-02  4.6891005824481127e+00 3.7625009015081043e+00 -1.3793710755463019e-02  4.6752676514768172e+00 3.8457965482888778e+00 1.2258371345532846e-02  4.6775906501466151e+00 3.8949040503109500e+00 -1.0697135023726698e-02  4.6653260245415238e+00 3.9706716212175079e+00 9.1742818696436881e-03  4.6663175165280384e+00 4.0229108942264418e+00 -7.7756315400127297e-03  4.6538166108096366e+00 4.0998516318139551e+00 6.5392227414631547e-03  4.6543564789703815e+00 4.1484986743069188e+00 -5.4825794325561294e-03  4.6429830208070735e+00 4.2257467856265674e+00 4.4488294346575526e-03  4.6405326756917207e+00 4.2778120389758447e+00 -3.3018847599956417e-03  4.6313617312339384e+00 4.3491983438211035e+00 1.9848801211083916e-03  4.6275288974466067e+00 4.4040226792333135e+00 -7.7457688375477142e-04  4.6177048512838770e+00 4.4752933707116815e+00 -1.5119736148517031e-05  4.6137264113491057e+00 4.5301102395097583e+00 1.6752213539415072e-04  4.6047010613077708e+00 4.5946992215698907e+00 1.9608068436936130e-05  4.5981127671542685e+00 4.6615031684292507e+00 -3.1576907947464382e-05  4.5905801909981294e+00 4.7143621816972283e+00 -6.1763679064434196e-04  4.5830397534176033e+00 4.7815287115381873e+00 1.8673125530767084e-03  4.5750691094911815e+00 4.8459847525007005e+00 -3.2455900147431473e-03  4.5660407284641567e+00 4.8970740498805485e+00 4.1442567298812178e-03  4.5606212922881539e+00 4.9650659662302479e+00 -4.3179786605814655e-03  4.5476035023929962e+00 5.0314444552331299e+00 3.9523408270746027e-03  4.5435689767184835e+00 5.0704540523942780e+00 -3.4819710997210061e-03  4.5310914516772298e+00 5.1585141839108219e+00 3.2004124103809039e-03  4.5242623327949465e+00 5.1973263731281785e+00 -3.1831277007501532e-03  4.5122434439426460e+00 5.2609377495518581e+00 3.2810400648506256e-03