<?xml version="1.0"?>
<VTKFile type="UnstructuredGrid"  version="0.1"  >
<UnstructuredGrid>
<Piece  NumberOfPoints="8241" NumberOfCells="16000">
<Points>
<DataArray  type="Float64"  NumberOfComponents="3"  format="ascii">-5 -1 0  -4.95 -1 0  -4.9 -1 0  -4.85 -1 0  -4.8 -1 0  -4.75 -1 0  -4.7 -1 0  -4.65 -1 0  -4.6 -1 0  -4.55 -1 0  -4.5 -1 0  -4.45 -1 0  -4.4 -1 0  -4.35 -1 0  -4.3 -1 0  -4.25 -1 0  -4.2 -1 0  -4.15 -1 0  -4.1 -1 0  -4.05 -1 0  -4 -1 0  -3.95 -1 0  -3.9 -1 0  -3.85 -1 0  -3.8 -1 0  -3.75 -1 0  -3.7 -1 0  -3.65 -1 0  -3.6 -1 0  -3.55 -1 0  -3.5 -1 0  -3.45 -1 0  -3.4 -1 0  -3.35 -1 0  -3.3 -1 0  -3.25 -1 0  -3.2 -1 0  -3.15 -1 0  -3.1 -1 0  -3.05 -1 0  -3 -1 0  -2.95 -1 0  -2.9 -1 0  -2.85 -1 0  -2.8 -1 0  -2.75 -1 0  -2.7 -1 0  -2.65 -1 0  -2.6 -1 0  -2.55 -1 0  -2.5 -1 0  -2.45 -1 0  -2.4 -1 0  -2.35 -1 0  -2.3 -1 0  -2.25 -1 0  -2.2 -1 0  -2.15 -1 0  -2.1 -1 0  -2.05 -1 0  -2 -1 0  -1.95 -1 0  -1.9 -1 0  -1.85 -1 0  -1.8 -1 0  -1.75 -1 0  -1.7 -1 0  -1.65 -1 0  -1.6 -1 0  -1.55 -1 0  -1.5 -1 0  -1.45 -1 0  -1.4 -1 0  -1.35 -1 0  -1.3 -1 0  -1.25 -1 0  -1.2 -1 0  -1.15 -1 0  -1.1 -1 0  -1.05 -1 0  -1 -1 0  -0.9500000000000002 -1 0  -0.9000000000000004 -1 0  -0.8499999999999996 -1 0  -0.7999999999999998 -1 0  -0.75 -1 0  -0.7000000000000002 -1 0  -0.6500000000000004 -1 0  -0.5999999999999996 -1 0  -0.5499999999999998 -1 0  -0.5 -1 0  -0.4500000000000002 -1 0  -0.4000000000000004 -1 0  -0.3499999999999996 -1 0  -0.2999999999999998 -1 0  -0.25 -1 0  -0.2000000000000002 -1 0  -0.1500000000000004 -1 0  -0.09999999999999964 -1 0  -0.04999999999999982 -1 0  0 -1 0  0.04999999999999982 -1 0  0.09999999999999964 -1 0  0.1500000000000004 -1 0  0.2000000000000002 -1 0  0.25 -1 0  0.2999999999999998 -1 0  0.3499999999999996 -1 0  0.4000000000000004 -1 0  0.4500000000000002 -1 0  0.5 -1 0  0.5499999999999998 -1 0  0.5999999999999996 -1 0  0.6500000000000004 -1 0  0.7000000000000002 -1 0  0.75 -1 0  0.7999999999999998 -1 0  0.8499999999999996 -1 0  0.9000000000000004 -1 0  0.9500000000000002 -1 0  1 -1 0  1.05 -1 0  1.1 -1 0  1.15 -1 0  1.2 -1 0  1.25 -1 0  1.3 -1 0  1.35 -1 0  1.4 -1 0  1.45 -1 0  1.5 -1 0  1.55 -1 0  1.6 -1 0  1.65 -1 0  1.7 -1 0  1.75 -1 0  1.8 -1 0  1.85 -1 0  1.9 -1 0  1.95 -1 0  2 -1 0  2.05 -1 0  2.1 -1 0  2.15 -1 0  2.2 -1 0  2.25 -1 0  2.3 -1 0  2.35 -1 0  2.4 -1 0  2.45 -1 0  2.5 -1 0  2.55 -1 0  2.6 -1 0  2.65 -1 0  2.7 -1 0  2.75 -1 0  2.8 -1 0  2.85 -1 0  2.9 -1 0  2.95 -1 0  3 -1 0  3.050000000000001 -1 0  3.1 -1 0  3.15 -1 0  3.199999999999999 -1 0  3.25 -1 0  3.300000000000001 -1 0  3.35 -1 0  3.4 -1 0  3.449999999999999 -1 0  3.5 -1 0  3.550000000000001 -1 0  3.6 -1 0  3.65 -1 0  3.699999999999999 -1 0  3.75 -1 0  3.800000000000001 -1 0  3.85 -1 0  3.9 -1 0  3.949999999999999 -1 0  4 -1 0  4.050000000000001 -1 0  4.1 -1 0  4.15 -1 0  4.199999999999999 -1 0  4.25 -1 0  4.300000000000001 -1 0  4.35 -1 0  4.4 -1 0  4.449999999999999 -1 0  4.5 -1 0  4.550000000000001 -1 0  4.6 -1 0  4.65 -1 0  4.699999999999999 -1 0  4.75 -1 0  4.800000000000001 -1 0  4.85 -1 0  4.9 -1 0  4.949999999999999 -1 0  5 -1 0  -5 -0.95 0  -4.95 -0.95 0  -4.9 -0.95 0  -4.85 -0.95 0  -4.8 -0.95 0  -4.75 -0.95 0  -4.7 -0.95 0  -4.65 -0.95 0  -4.6 -0.95 0  -4.55 -0.95 0  -4.5 -0.95 0  -4.45 -0.95 0  -4.4 -0.95 0  -4.35 -0.95 0  -4.3 -0.95 0  -4.25 -0.95 0  -4.2 -0.95 0  -4.15 -0.95 0  -4.1 -0.95 0  -4.05 -0.95 0  -4 -0.95 0  -3.95 -0.95 0  -3.9 -0.95 0  -3.85 -0.95 0  -3.8 -0.95 0  -3.75 -0.95 0  -3.7 -0.95 0  -3.65 -0.95 0  -3.6 -0.95 0  -3.55 -0.95 0  -3.5 -0.95 0  -3.45 -0.95 0  -3.4 -0.95 0  -3.35 -0.95 0  -3.3 -0.95 0  -3.25 -0.95 0  -3.2 -0.95 0  -3.15 -0.95 0  -3.1 -0.95 0  -3.05 -0.95 0  -3 -0.95 0  -2.95 -0.95 0  -2.9 -0.95 0  -2.85 -0.95 0  -2.8 -0.95 0  -2.75 -0.95 0  -2.7 -0.95 0  -2.65 -0.95 0  -2.6 -0.95 0  -2.55 -0.95 0  -2.5 -0.95 0  -2.45 -0.95 0  -2.4 -0.95 0  -2.35 -0.95 0  -2.3 -0.95 0  -2.25 -0.95 0  -2.2 -0.95 0  -2.15 -0.95 0  -2.1 -0.95 0  -2.05 -0.95 0  -2 -0.95 0  -1.95 -0.95 0  -1.9 -0.95 0  -1.85 -0.95 0  -1.8 -0.95 0  -1.75 -0.95 0  -1.7 -0.95 0  -1.65 -0.95 0  -1.6 -0.95 0  -1.55 -0.95 0  -1.5 -0.95 0  -1.45 -0.95 0  -1.4 -0.95 0  -1.35 -0.95 0  -1.3 -0.95 0  -1.25 -0.95 0  -1.2 -0.95 0  -1.15 -0.95 0  -1.1 -0.95 0  -1.05 -0.95 0  -1 -0.95 0  -0.9500000000000002 -0.95 0  -0.9000000000000004 -0.95 0  -0.8499999999999996 -0.95 0  -0.7999999999999998 -0.95 0  -0.75 -0.95 0  -0.7000000000000002 -0.95 0  -0.6500000000000004 -0.95 0  -0.5999999999999996 -0.95 0  -0.5499999999999998 -0.95 0  -0.5 -0.95 0  -0.4500000000000002 -0.95 0  -0.4000000000000004 -0.95 0  -0.3499999999999996 -0.95 0  -0.2999999999999998 -0.95 0  -0.25 -0.95 0  -0.2000000000000002 -0.95 0  -0.1500000000000004 -0.95 0  -0.09999999999999964 -0.95 0  -0.04999999999999982 -0.95 0  0 -0.95 0  0.04999999999999982 -0.95 0  0.09999999999999964 -0.95 0  0.1500000000000004 -0.95 0  0.2000000000000002 -0.95 0  0.25 -0.95 0  0.2999999999999998 -0.95 0  0.3499999999999996 -0.95 0  0.4000000000000004 -0.95 0  0.4500000000000002 -0.95 0  0.5 -0.95 0  0.5499999999999998 -0.95 0  0.5999999999999996 -0.95 0  0.6500000000000004 -0.95 0  0.7000000000000002 -0.95 0  0.75 -0.95 0  0.7999999999999998 -0.95 0  0.8499999999999996 -0.95 0  0.9000000000000004 -0.95 0  0.9500000000000002 -0.95 0  1 -0.95 0  1.05 -0.95 0  1.1 -0.95 0  1.15 -0.95 0  1.2 -0.95 0  1.25 -0.95 0  1.3 -0.95 0  1.35 -0.95 0  1.4 -0.95 0  1.45 -0.95 0  1.5 -0.95 0  1.55 -0.95 0  1.6 -0.95 0  1.65 -0.95 0  1.7 -0.95 0  1.75 -0.95 0  1.8 -0.95 0  1.85 -0.95 0  1.9 -0.95 0  1.95 -0.95 0  2 -0.95 0  2.05 -0.95 0  2.1 -0.95 0  2.15 -0.95 0  2.2 -0.95 0  2.25 -0.95 0  2.3 -0.95 0  2.35 -0.95 0  2.4 -0.95 0  2.45 -0.95 0  2.5 -0.95 0  2.55 -0.95 0  2.6 -0.95 0  2.65 -0.95 0  2.7 -0.95 0  2.75 -0.95 0  2.8 -0.95 0  2.85 -0.95 0  2.9 -0.95 0  2.95 -0.95 0  3 -0.95 0  3.050000000000001 -0.95 0  3.1 -0.95 0  3.15 -0.95 0  3.199999999999999 -0.95 0  3.25 -0.95 0  3.300000000000001 -0.95 0  3.35 -0.95 0  3.4 -0.95 0  3.449999999999999 -0.95 0  3.5 -0.95 0  3.550000000000001 -0.95 0  3.6 -0.95 0  3.65 -0.95 0  3.699999999999999 -0.95 0  3.75 -0.95 0  3.800000000000001 -0.95 0  3.85 -0.95 0  3.9 -0.95 0  3.949999999999999 -0.95 0  4 -0.95 0  4.050000000000001 -0.95 0  4.1 -0.95 0  4.15 -0.95 0  4.199999999999999 -0.95 0  4.25 -0.95 0  4.300000000000001 -0.95 0  4.35 -0.95 0  4.4 -0.95 0  4.449999999999999 -0.95 0  4.5 -0.95 0  4.550000000000001 -0.95 0  4.6 -0.95 0  4.65 -0.95 0  4.699999999999999 -0.95 0  4.75 -0.95 0  4.800000000000001 -0.95 0  4.85 -0.95 0  4.9 -0.95 0  4.949999999999999 -0.95 0  5 -0.95 0  -5 -0.9 0  -4.95 -0.9 0  -4.9 -0.9 0  -4.85 -0.9 0  -4.8 -0.9 0  -4.75 -0.9 0  -4.7 -0.9 0  -4.65 -0.9 0  -4.6 -0.9 0  -4.55 -0.9 0  -4.5 -0.9 0  -4.45 -0.9 0  -4.4 -0.9 0  -4.35 -0.9 0  -4.3 -0.9 0  -4.25 -0.9 0  -4.2 -0.9 0  -4.15 -0.9 0  -4.1 -0.9 0  -4.05 -0.9 0  -4 -0.9 0  -3.95 -0.9 0  -3.9 -0.9 0  -3.85 -0.9 0  -3.8 -0.9 0  -3.75 -0.9 0  -3.7 -0.9 0  -3.65 -0.9 0  -3.6 -0.9 0  -3.55 -0.9 0  -3.5 -0.9 0  -3.45 -0.9 0  -3.4 -0.9 0  -3.35 -0.9 0  -3.3 -0.9 0  -3.25 -0.9 0  -3.2 -0.9 0  -3.15 -0.9 0  -3.1 -0.9 0  -3.05 -0.9 0  -3 -0.9 0  -2.95 -0.9 0  -2.9 -0.9 0  -2.85 -0.9 0  -2.8 -0.9 0  -2.75 -0.9 0  -2.7 -0.9 0  -2.65 -0.9 0  -2.6 -0.9 0  -2.55 -0.9 0  -2.5 -0.9 0  -2.45 -0.9 0  -2.4 -0.9 0  -2.35 -0.9 0  -2.3 -0.9 0  -2.25 -0.9 0  -2.2 -0.9 0  -2.15 -0.9 0  -2.1 -0.9 0  -2.05 -0.9 0  -2 -0.9 0  -1.95 -0.9 0  -1.9 -0.9 0  -1.85 -0.9 0  -1.8 -0.9 0  -1.75 -0.9 0  -1.7 -0.9 0  -1.65 -0.9 0  -1.6 -0.9 0  -1.55 -0.9 0  -1.5 -0.9 0  -1.45 -0.9 0  -1.4 -0.9 0  -1.35 -0.9 0  -1.3 -0.9 0  -1.25 -0.9 0  -1.2 -0.9 0  -1.15 -0.9 0  -1.1 -0.9 0  -1.05 -0.9 0  -1 -0.9 0  -0.9500000000000002 -0.9 0  -0.9000000000000004 -0.9 0  -0.8499999999999996 -0.9 0  -0.7999999999999998 -0.9 0  -0.75 -0.9 0  -0.7000000000000002 -0.9 0  -0.6500000000000004 -0.9 0  -0.5999999999999996 -0.9 0  -0.5499999999999998 -0.9 0  -0.5 -0.9 0  -0.4500000000000002 -0.9 0  -0.4000000000000004 -0.9 0  -0.3499999999999996 -0.9 0  -0.2999999999999998 -0.9 0  -0.25 -0.9 0  -0.2000000000000002 -0.9 0  -0.1500000000000004 -0.9 0  -0.09999999999999964 -0.9 0  -0.04999999999999982 -0.9 0  0 -0.9 0  0.04999999999999982 -0.9 0  0.09999999999999964 -0.9 0  0.1500000000000004 -0.9 0  0.2000000000000002 -0.9 0  0.25 -0.9 0  0.2999999999999998 -0.9 0  0.3499999999999996 -0.9 0  0.4000000000000004 -0.9 0  0.4500000000000002 -0.9 0  0.5 -0.9 0  0.5499999999999998 -0.9 0  0.5999999999999996 -0.9 0  0.6500000000000004 -0.9 0  0.7000000000000002 -0.9 0  0.75 -0.9 0  0.7999999999999998 -0.9 0  0.8499999999999996 -0.9 0  0.9000000000000004 -0.9 0  0.9500000000000002 -0.9 0  1 -0.9 0  1.05 -0.9 0  1.1 -0.9 0  1.15 -0.9 0  1.2 -0.9 0  1.25 -0.9 0  1.3 -0.9 0  1.35 -0.9 0  1.4 -0.9 0  1.45 -0.9 0  1.5 -0.9 0  1.55 -0.9 0  1.6 -0.9 0  1.65 -0.9 0  1.7 -0.9 0  1.75 -0.9 0  1.8 -0.9 0  1.85 -0.9 0  1.9 -0.9 0  1.95 -0.9 0  2 -0.9 0  2.05 -0.9 0  2.1 -0.9 0  2.15 -0.9 0  2.2 -0.9 0  2.25 -0.9 0  2.3 -0.9 0  2.35 -0.9 0  2.4 -0.9 0  2.45 -0.9 0  2.5 -0.9 0  2.55 -0.9 0  2.6 -0.9 0  2.65 -0.9 0  2.7 -0.9 0  2.75 -0.9 0  2.8 -0.9 0  2.85 -0.9 0  2.9 -0.9 0  2.95 -0.9 0  3 -0.9 0  3.050000000000001 -0.9 0  3.1 -0.9 0  3.15 -0.9 0  3.199999999999999 -0.9 0  3.25 -0.9 0  3.300000000000001 -0.9 0  3.35 -0.9 0  3.4 -0.9 0  3.449999999999999 -0.9 0  3.5 -0.9 0  3.550000000000001 -0.9 0  3.6 -0.9 0  3.65 -0.9 0  3.699999999999999 -0.9 0  3.75 -0.9 0  3.800000000000001 -0.9 0  3.85 -0.9 0  3.9 -0.9 0  3.949999999999999 -0.9 0  4 -0.9 0  4.050000000000001 -0.9 0  4.1 -0.9 0  4.15 -0.9 0  4.199999999999999 -0.9 0  4.25 -0.9 0  4.300000000000001 -0.9 0  4.35 -0.9 0  4.4 -0.9 0  4.449999999999999 -0.9 0  4.5 -0.9 0  4.550000000000001 -0.9 0  4.6 -0.9 0  4.65 -0.9 0  4.699999999999999 -0.9 0  4.75 -0.9 0  4.800000000000001 -0.9 0  4.85 -0.9 0  4.9 -0.9 0  4.949999999999999 -0.9 0  5 -0.9 0  -5 -0.85 0  -4.95 -0.85 0  -4.9 -0.85 0  -4.85 -0.85 0  -4.8 -0.85 0  -4.75 -0.85 0  -4.7 -0.85 0  -4.65 -0.85 0  -4.6 -0.85 0  -4.55 -0.85 0  -4.5 -0.85 0  -
[...]
<PointData  Vectors="f_15"> 
<DataArray  type="Float64"  Name="f_15"  NumberOfComponents="3" format="ascii">1.4780787192016311e+00 0.0000000000000000e+00 0.0000000000000000e+00  1.4367895881853752e+00 9.5469930884171487e-03 0.0000000000000000e+00  1.4756280959608490e+00 1.0287081019371599e-01 0.0000000000000000e+00  1.4362053921197051e+00 1.0871107509772644e-01 0.0000000000000000e+00  1.4761364023511712e+00 1.6286702474295373e-01 0.0000000000000000e+00  1.4355133231072141e+00 1.8861873437686777e-01 0.0000000000000000e+00  1.4738757566482241e+00 2.3435739178918286e-01 0.0000000000000000e+00  1.4370431401426684e+00 2.6492285716278013e-01 0.0000000000000000e+00  1.4721751727509598e+00 2.9986113505984985e-01 0.0000000000000000e+00  1.4362062755848832e+00 3.4580640789564865e-01 0.0000000000000000e+00  1.4721724514575063e+00 3.6821757780731135e-01 0.0000000000000000e+00  1.4362933868908301e+00 4.2109494231471067e-01 0.0000000000000000e+00  1.4698351203831035e+00 4.3867368179198357e-01 0.0000000000000000e+00  1.4378037417850691e+00 4.9389702554876774e-01 0.0000000000000000e+00  1.4685745641374446e+00 5.1776591326770494e-01 0.0000000000000000e+00  1.4368327557666980e+00 5.6023354794078961e-01 0.0000000000000000e+00  1.4685804090472354e+00 5.9103325392190831e-01 0.0000000000000000e+00  1.4368031983576217e+00 6.4051451144561800e-01 0.0000000000000000e+00  1.4664167666530621e+00 6.5936833681989504e-01 0.0000000000000000e+00  1.4376021842318978e+00 7.1009225911181784e-01 0.0000000000000000e+00  1.4655398145948879e+00 7.3399099425975567e-01 0.0000000000000000e+00  1.4362078456071281e+00 7.8368526773307445e-01 0.0000000000000000e+00  1.4654848802341720e+00 8.0591533292427120e-01 0.0000000000000000e+00  1.4357644631219291e+00 8.5095954720004363e-01 0.0000000000000000e+00  1.4637731964811285e+00 8.7721141469638253e-01 0.0000000000000000e+00  1.4360402502588785e+00 9.2974283436343386e-01 0.0000000000000000e+00  1.4630203769682513e+00 9.4367630860957863e-01 0.0000000000000000e+00  1.4347495184755390e+00 9.9484807107357887e-01 0.0000000000000000e+00  1.4632172021873995e+00 1.0215101084993385e+00 0.0000000000000000e+00  1.4346120723679336e+00 1.0647332751211824e+00 0.0000000000000000e+00  1.4618886805383058e+00 1.0862013342122969e+00 0.0000000000000000e+00  1.4357706287667751e+00 1.1364015279718749e+00 0.0000000000000000e+00  1.4619406326507576e+00 1.1555986347037384e+00 0.0000000000000000e+00  1.4359522168920755e+00 1.1990137769302593e+00 0.0000000000000000e+00  1.4635010102469330e+00 1.2264786271814589e+00 0.0000000000000000e+00  1.4383178371423218e+00 1.2615069486080368e+00 0.0000000000000000e+00  1.4645909126040220e+00 1.2849543822606158e+00 0.0000000000000000e+00  1.4432309984767975e+00 1.3247546775556047e+00 0.0000000000000000e+00  1.4688091830165377e+00 1.3419954306412574e+00 0.0000000000000000e+00  1.4488852476443015e+00 1.3733955317857380e+00 0.0000000000000000e+00  1.4765988916876025e+00 1.3947755391009147e+00 0.0000000000000000e+00  1.4588592631860882e+00 1.4180160951393150e+00 0.0000000000000000e+00  1.4854608086304879e+00 1.4321686856052935e+00 0.0000000000000000e+00  1.4724463703508699e+00 1.4594504020044152e+00 0.0000000000000000e+00  1.4978612536836444e+00 1.4678003650713263e+00 0.0000000000000000e+00  1.4854621882414270e+00 1.4892450836625062e+00 0.0000000000000000e+00  1.5121898105452685e+00 1.5033369278157189e+00 0.0000000000000000e+00  1.5001111530245101e+00 1.5230972808430174e+00 0.0000000000000000e+00  1.5245880425298439e+00 1.5321402325114140e+00 0.0000000000000000e+00  1.5155586007539588e+00 1.5584595715345901e+00 0.0000000000000000e+00  1.5382095962487885e+00 1.5665418804615914e+00 0.0000000000000000e+00  1.5287212041741176e+00 1.5868738105726146e+00 0.0000000000000000e+00  1.5525910395473359e+00 1.6027770013590201e+00 0.0000000000000000e+00  1.5429349626305826e+00 1.6215538468641180e+00 0.0000000000000000e+00  1.5649937451836606e+00 1.6319247191660506e+00 0.0000000000000000e+00  1.5576388294444472e+00 1.6568363949178964e+00 0.0000000000000000e+00  1.5786939819736279e+00 1.6672739228068947e+00 0.0000000000000000e+00  1.5704771890315974e+00 1.6848269777042961e+00 0.0000000000000000e+00  1.5926626176750625e+00 1.7036670512496526e+00 0.0000000000000000e+00  1.5847830625945005e+00 1.7182893788862197e+00 0.0000000000000000e+00  1.6047468422434881e+00 1.7333163960085107e+00 0.0000000000000000e+00  1.5992826213313520e+00 1.7514346362583653e+00 0.0000000000000000e+00  1.6182980740528308e+00 1.7693127989067803e+00 0.0000000000000000e+00  1.6120250628669583e+00 1.7777036185776780e+00 0.0000000000000000e+00  1.6317400211465585e+00 1.8049206124714510e+00 0.0000000000000000e+00  1.6262838198441416e+00 1.8101969274938872e+00 0.0000000000000000e+00  1.6434122625878524e+00 1.8336473773021285e+00 0.0000000000000000e+00  1.6404476367464447e+00 1.8420811322804547e+00 0.0000000000000000e+00  1.6565274014362907e+00 1.8685776622871220e+00 0.0000000000000000e+00  1.6530400188733929e+00 1.8670189227750469e+00 0.0000000000000000e+00  1.6694246863666993e+00 1.9030319531385289e+00 0.0000000000000000e+00  1.6668339285811455e+00 1.8981134514138978e+00 0.0000000000000000e+00  1.6809844017367217e+00 1.9312679053237216e+00 0.0000000000000000e+00  1.6801393257910213e+00 1.9286805427464591e+00 0.0000000000000000e+00  1.6938570899300607e+00 1.9650148276090278e+00 0.0000000000000000e+00  1.6920019213691604e+00 1.9539900485512902e+00 0.0000000000000000e+00  1.7063630038516306e+00 1.9969694594287932e+00 0.0000000000000000e+00  1.7047467206337013e+00 1.9859445001862714e+00 0.0000000000000000e+00  1.7177636612867013e+00 2.0222439437792219e+00 0.0000000000000000e+00  1.7168472193185282e+00 2.0174275362935159e+00 0.0000000000000000e+00  1.7300065802304634e+00 2.0514579171209921e+00 0.0000000000000000e+00  1.7278613247943166e+00 2.0445697248436585e+00 0.0000000000000000e+00  1.7414769767158009e+00 2.0775307884353484e+00 0.0000000000000000e+00  1.7395876726273836e+00 2.0773139513446819e+00 0.0000000000000000e+00  1.7519110353746736e+00 2.0975377191290399e+00 0.0000000000000000e+00  1.7504693518623076e+00 2.1078137564160717e+00 0.0000000000000000e+00  1.7628885561597794e+00 2.1217913381134812e+00 0.0000000000000000e+00  1.7603143952910116e+00 2.1327418177308490e+00 0.0000000000000000e+00  1.7728722436543893e+00 2.1439263065968075e+00 0.0000000000000000e+00  1.7707144625911677e+00 2.1603520389294926e+00 0.0000000000000000e+00  1.7817397693875587e+00 2.1620481260774120e+00 0.0000000000000000e+00  1.7800965748385078e+00 2.1845477513444442e+00 0.0000000000000000e+00  1.7909059851736631e+00 2.1831005599599349e+00 0.0000000000000000e+00  1.7884656040549336e+00 2.2051613126320291e+00 0.0000000000000000e+00  1.7989732376617231e+00 2.1994737291740409e+00 0.0000000000000000e+00  1.7969379276247970e+00 2.2296819393904679e+00 0.0000000000000000e+00  1.8061537237324305e+00 2.2114750841671365e+00 0.0000000000000000e+00  1.8041545617881793e+00 2.2492416720526562e+00 0.0000000000000000e+00  1.8131959250070140e+00 2.2288170176178665e+00 0.0000000000000000e+00  1.8107889413402720e+00 2.2615543785314332e+00 0.0000000000000000e+00  1.8187741253554868e+00 2.2443882844289953e+00 0.0000000000000000e+00  1.8172105570807982e+00 2.2756487557343914e+00 0.0000000000000000e+00  1.8237598640397814e+00 2.2569619829987921e+00 0.0000000000000000e+00  1.8223035491358417e+00 2.2824318714559539e+00 0.0000000000000000e+00  1.8283868793410214e+00 2.2780198311370050e+00 0.0000000000000000e+00  1.8269912614621602e+00 2.2795626296843610e+00 0.0000000000000000e+00  1.8315428853242075e+00 2.2966487405113565e+00 0.0000000000000000e+00  1.8314700209266557e+00 2.2849635481896358e+00 0.0000000000000000e+00  1.8342630932287434e+00 2.3012504676584102e+00 0.0000000000000000e+00  1.8346390917654916e+00 2.2956291911470399e+00 0.0000000000000000e+00  1.8368641395348091e+00 2.3074687134705489e+00 0.0000000000000000e+00  1.8373334882370489e+00 2.2960758398596814e+00 0.0000000000000000e+00  1.8383357394301307e+00 2.3193123343928095e+00 0.0000000000000000e+00  1.8401283140304106e+00 2.2971809490582720e+00 0.0000000000000000e+00  1.8393242564747094e+00 2.3192467895287656e+00 0.0000000000000000e+00  1.8418187453722668e+00 2.3108670853332978e+00 0.0000000000000000e+00  1.8406780018755846e+00 2.3109105583873402e+00 0.0000000000000000e+00  1.8430917739978012e+00 2.3196227348828447e+00 0.0000000000000000e+00  1.8411264371569418e+00 2.3146999202488052e+00 0.0000000000000000e+00  1.8447397752301211e+00 2.3148391908172465e+00 0.0000000000000000e+00  1.8414781251588974e+00 2.3225088449674005e+00 0.0000000000000000e+00  1.8453862389562576e+00 2.3148662109766285e+00 0.0000000000000000e+00  1.8426031833520633e+00 2.3197626990434816e+00 0.0000000000000000e+00  1.8459328717285037e+00 2.3199364336918959e+00 0.0000000000000000e+00  1.8429268601193676e+00 2.3194525988169974e+00 0.0000000000000000e+00  1.8476124237599323e+00 2.3148764150786278e+00 0.0000000000000000e+00  1.8435096059370972e+00 2.3258263395897920e+00 0.0000000000000000e+00  1.8490126046513695e+00 2.3076163463876815e+00 0.0000000000000000e+00  1.8458735534862505e+00 2.3250066620193270e+00 0.0000000000000000e+00  1.8521957232767456e+00 2.3022971954620006e+00 0.0000000000000000e+00  1.8503696023960521e+00 2.3174208077804814e+00 0.0000000000000000e+00  1.8606291289449042e+00 2.2860478580675969e+00 0.0000000000000000e+00  1.8619791471564140e+00 2.2998015847430855e+00 0.0000000000000000e+00  1.8779966525152036e+00 2.2544871052868358e+00 0.0000000000000000e+00  1.8852456435974834e+00 2.2598819981368248e+00 0.0000000000000000e+00  1.9058751936010949e+00 2.2098959769422875e+00 0.0000000000000000e+00  1.9143823207927253e+00 2.2115983395996737e+00 0.0000000000000000e+00  1.9313947411443759e+00 2.1695465801607914e+00 0.0000000000000000e+00  1.9303349579324918e+00 2.1896094751980173e+00 0.0000000000000000e+00  1.9344223101435034e+00 2.1681828425780689e+00 0.0000000000000000e+00  1.9191556986718201e+00 2.2111344075879629e+00 0.0000000000000000e+00  1.9126683589877673e+00 2.2105648111927971e+00 0.0000000000000000e+00  1.8843555487281847e+00 2.2753216583445361e+00 0.0000000000000000e+00  1.8616519587577260e+00 2.3030843720935703e+00 0.0000000000000000e+00  1.8104078094617830e+00 2.4032332473813685e+00 0.0000000000000000e+00  1.7678215893016966e+00 2.4464131335240502e+00 0.0000000000000000e+00  1.7321589926108301e+00 2.5283051211730077e+00 0.0000000000000000e+00  2.1635899251761139e+00 1.5233398318238762e+00 0.0000000000000000e+00  2.7974217586100254e+00 2.7376759473787921e-01 0.0000000000000000e+00  2.9646925800063451e+00 -2.2625936088492418e-02 0.0000000000000000e+00  2.9373993972709953e+00 1.1642224992285023e-02 0.0000000000000000e+00  2.9697362873099125e+00 -4.4843316021212401e-02 0.0000000000000000e+00  2.9717191304407513e+00 -4.0698225302347339e-02 0.0000000000000000e+00  2.9725634140169159e+00 -4.6309442906693317e-02 0.0000000000000000e+00  2.9678699495391534e+00 -3.2128425587888719e-02 0.0000000000000000e+00  2.9757508670110813e+00 -4.4689141376789129e-02 0.0000000000000000e+00  2.9656442685881221e+00 -2.5684036727641225e-02 0.0000000000000000e+00  2.9784475336596175e+00 -4.4581430712532642e-02 0.0000000000000000e+00  2.9670660677287048e+00 -2.4425674178671697e-02 0.0000000000000000e+00  2.9774999054093652e+00 -4.0395573855177537e-02 0.0000000000000000e+00  2.9677375027587294e+00 -2.3383842842004645e-02 0.0000000000000000e+00  2.9780200492947277e+00 -4.3308622404541003e-02 0.0000000000000000e+00  2.9683282343986086e+00 -2.6930424323364305e-02 0.0000000000000000e+00  2.9789280645269964e+00 -5.2316400784558993e-02 0.0000000000000000e+00  2.9678006884722730e+00 -3.1368026600677515e-02 0.0000000000000000e+00  2.9798849893617843e+00 -5.9603166536099025e-02 0.0000000000000000e+00  2.9682855428857113e+00 -3.2269222665975275e-02 0.0000000000000000e+00  2.9797807698602683e+00 -5.7548613343015746e-02 0.0000000000000000e+00  2.9691606196985019e+00 -2.6206105224516978e-02 0.0000000000000000e+00  2.9799918559954155e+00 -5.0612826631490297e-02 0.0000000000000000e+00  2.9691657467914334e+00 -1.6541703010640060e-02 0.0000000000000000e+00  2.9803788980534831e+00 -4.2890935614081797e-02 0.0000000000000000e+00  2.9698951524779851e+00 -1.1376081701520850e-02 0.0000000000000000e+00  2.9794566316065412e+00 -3.6229074094904307e-02 0.0000000000000000e+00  2.9708428557601625e+00 -6.8065683803276763e-03 0.0000000000000000e+00  2.9789503289772559e+00 -3.6251935114253939e-02 0.0000000000000000e+00  2.9709493687505155e+00 -2.6592646126689921e-03 0.0000000000000000e+00  2.9780604664037527e+00 -3.7115982581219217e-02 0.0000000000000000e+00  2.9718339536028000e+00 -3.3811007544460492e-03 0.0000000000000000e+00  2.9761766763002617e+00 -3.6531329364825407e-02 0.0000000000000000e+00  2.9722970248017275e+00 -7.3963339282379741e-03 0.0000000000000000e+00  2.9752341772363415e+00 -3.3717949487845726e-02 0.0000000000000000e+00  2.9717672855124855e+00 -1.3829509015948628e-02 0.0000000000000000e+00  2.9740135303205841e+00 -2.9535961274196429e-02 0.0000000000000000e+00  2.9721367945741370e+00 -1.8393636815088574e-02 0.0000000000000000e+00  2.9721999244097073e+00 -2.3633853703312765e-02 0.0000000000000000e+00  2.9720354493421652e+00 -1.9159316011350708e-02 0.0000000000000000e+00  2.9717397402129708e+00 -1.6148298067966863e-02 0.0000000000000000e+00  2.9711596267646931e+00 -1.4194344679251441e-02 0.0000000000000000e+00  2.9712049853639346e+00 -1.3049890346961794e-02 0.0000000000000000e+00  2.9714024410232081e+00 -1.2554965319359110e-02 0.0000000000000000e+00  2.9702848301637537e+00 -2.9341822377624744e-02 0.0000000000000000e+00  2.9712571217403090e+00 -3.9684875935071667e-02 0.0000000000000000e+00  2.9706754724971072e+00 -6.4871328646220916e-02 0.0000000000000000e+00  2.9703558316311436e+00 -6.9789055238333286e-02 0.0000000000000000e+00  2.9709588012227717e+00 -7.8038449309234856e-02 0.0000000000000000e+00  2.9706270040391547e+00 -6.6545812912044811e-02 0.0000000000000000e+00  2.9708733858620366e+00 -5.7027289063734644e-02 0.0000000000000000e+00  2.9706230562425042e+00 -5.7082728846909389e-02 0.0000000000000000e+00  2.9720213283682915e+00 -3.3913948828218299e-02 0.0000000000000000e+00  2.9698908939520288e+00 0.0000000000000000e+00 0.0000000000000000e+00  1.4452416668603500e+00 0.0000000000000000e+00 2.5348991897645896e-02  1.4392153686297018e+00 3.7649808687894956e-02 3.4872928825784841e-04  1.4437089757638029e+00 5.7740600770694782e-02 -1.4185302769618746e-02  1.4427026024045917e+00 9.9057036781547828e-02 -2.7622182556106992e-03  1.4428076526440157e+00 1.4062941321123770e-01 1.3985190816257707e-02  1.4425690617076776e+00 1.6534006421724284e-01 -2.3507521811090160e-02  1.4444859013556874e+00 2.2392207609713891e-01 2.6760929036998032e-02  1.4426479759105291e+00 2.2998861385297112e-01 -2.6579526259552504e-02  1.4435225335822197e+00 3.0231833695175125e-01 2.4989966033491160e-02  1.4443694529476778e+00 3.0597429923683217e-01 -2.5228902441900573e-02  1.4431980425657756e+00 3.7202842577130885e-01 2.5972553520133158e-02  1.4434149703740666e+00 3.7940402408386342e-01 -2.5486788876348098e-02  1.4443928666627086e+00 4.4917755601733139e-01 2.0517387384540620e-02  1.4431215004722080e+00 4.5630983484709275e-01 -1.1651657720249307e-02  1.4432366116323421e+00 5.0688312001586211e-01 3.0714161772135060e-03  1.4441632802140658e+00 5.4608788910664985e-01 -2.3718056144204878e-03  1.4428574186071288e+00 5.7802438385749966e-01 9.1152813580530744e-03  1.4431871430368299e+00 6.0640910819385774e-01 -1.7938041945258464e-02  1.4434857520977022e+00 6.6341870575160689e-01 2.0083378141089094e-02  1.4433099570714889e+00 6.7949314166460617e-01 -1.7278291067483194e-02  1.4421071613137446e+00 7.3140110711089490e-01 1.7354637230760386e-02  1.4443567021747306e+00 7.5347670280163792e-01 -2.2352768298814486e-02  1.4418552282972092e+00 8.0915136127896004e-01 2.6468291614977001e-02  1.4436288961861858e+00 8.2170196804309792e-01 -2.5666659263290093e-02  1.4425238550570725e+00 8.8652028334401134e-01 2.4443704289268339e-02  1.4438964648078789e+00 8.9143643565955677e-01 -2.6378826196114473e-02  1.4416332355054988e+00 9.5808271396488776e-01 2.8441415581530641e-02  1.4450595640103927e+00 9.6873601132606757e-01 -2.7564190269828811e-02  1.4419013706914987e+00 1.0283646836527824e+00 2.5780983376175230e-02  1.4446441783121429e+00 1.0360288540202665e+00 -2.5673907529600162e-02  1.4433038823168625e+00 1.1040910049875752e+00 2.5539986511090306e-02  1.4454793105453350e+00 1.1070800275256940e+00 -2.4358543884606926e-02  1.4434854841288196e+00 1.1685784829554871e+00 2.2521244212649626e-02  1.4476409337131715e+00 1.1807356247883560e+00 -2.1504017825274516e-02  1.4454581625221319e+00 1.2338548619071650e+00 2.0180338662879171e-02  1.4490833226275561e+00 1.2436896482247224e+00 -1.9132161470787213e-02  1.4494747044260425e+00 1.3008647224656316e+00 1.8100613648441431e-02  1.4532453311367561e+00 1.3050691788611066e+00 -1.7339340695365919e-02  1.4537257566141599e+00 1.3532818413181804e+00 1.6372590496201784e-02  1.4605966396875729e+00 1.3636849133256688e+00 -1.5827471313468663e-02  1.4618925309800574e+00 1.4029087440244743e+00 1.5203511415594092e-02  1.4690447110967506e+00 1.4064799197737701e+00 -1.4753151515498121e-02  1.4738055546984385e+00 1.4477573279636420e+00 1.4541705292485515e-02  1.4815271783186779e+00 1.4450384257267634e+00 -1.4778101367806456e-02  1.4858148039011199e+00 1.4798437910322926e+00 1.4989870353842709e-02  1.4965284632998901e+00 1.4820728788125261e+00 -1.5334115312071754e-02  1.4999181808885689e+00 1.5145551483341786e+00 1.5905602708086882e-02  1.5097941409701707e+00 1.5102937385531752e+00 -1.6534803459823621e-02  1.5149079956464213e+00 1.5509226295680294e+00 1.7070931098998203e-02  1.5241718605877592e+00 1.5438122207959775e+00 -1.7798848858149866e-02  1.5275636635867116e+00 1.5810506355076701e+00 1.8504818905462975e-02  1.5392490925082911e+00 1.5789945902376028e+00 -1.9207580424313215e-02  1.5413075042020081e+00 1.6169677074132449e+00 1.9854520589720932e-02  1.5522224376170703e+00 1.6068146293161425e+00 -2.0544031626299721e-02  1.5556917627107536e+00 1.6539828480637966e+00 2.1066146815504758e-02  1.5663435440006723e+00 1.6411193706571057e+00 -2.1309013611579327e-02  1.5682052341805623e+00 1.6834278478170264e+00 2.1528893512890591e-02  1.5807343574091126e+00 1.6766911265492919e+00 -2.1378863992452302e-02  1.5821473402120221e+00 1.7182041003245019e+00 2.1300457690951798e-02  1.5931546884856800e+00 1.7056921193673331e+00 -2.0730390595186981e-02  1.5963437901012865e+00 1.7531388499218905e+00 2.0440180273347729e-02  1.6069290809228076e+00 1.7411751551019718e+00 -1.9355955700767660e-02  1.6087829022847790e+00 1.7807136921836502e+00 1.8654179509281093e-02  1.6206265279837757e+00 1.7770595240838862e+00 -1.7058471627837534e-02  1.6228475686103883e+00 1.8139212545789198e+00 1.6083331196262592e-02  1.6325053083309624e+00 1.8066017639600416e+00 -1.4005527114308016e-02  1.6369652589760644e+00 1.8461587402464825e+00 1.2739860043338661e-02  1.6457625556025661e+00 1.8428628441723864e+00 -1.0262920678008582e-02  1.6495252386821653e+00 1.8709843832038384e+00 8.7284756137242410e-03  1.6587471287177153e+00 1.8791461924822692e+00 -6.1057497826822998e-03  1.6634620037301353e+00 1.9015539544341613e+00 4.5239301265024212e-03  1.6702816304706027e+00 1.9087738179799021e+00 -2.1701594245878164e-03  1.6770834192622022e+00 1.9313538405685955e+00 6.1238172974829278e-04  1.6830796152387615e+00 1.9438458018456217e+00 1.3268891231251806e-03  1.6893086539118258e+00 1.9552707089301202e+00 -2.8403706070077995e-03  1.6954603754939708e+00 1.9773191686883929e+00 4.3229410913085417e-03  1.7026043776855453e+00 1.9852331690497114e+00 -5.8349762433357356e-03  1.7066171106504682e+00 2.0042646414068748e+00 6.9802790565777779e-03  1.7154141107889804e+00 2.0140541402540659e+00 -8.6312640308711802e-03  1.7186119695433237e+00 2.0364175014025707e+00 9.7497537016321256e-03  1.7271886895119857e+00 2.0371819344290309e+00 -1.1588538768623218e-02  1.7298835233215588e+00 2.0670119795536350e+00 1.27409227103557