<?xml version="1.0"?>
<VTKFile type="UnstructuredGrid"  version="0.1"  >
<UnstructuredGrid>
<Piece  NumberOfPoints="8241" NumberOfCells="16000">
<Points>
<DataArray  type="Float64"  NumberOfComponents="3"  format="ascii">-5 -1 0  -4.95 -1 0  -4.9 -1 0  -4.85 -1 0  -4.8 -1 0  -4.75 -1 0  -4.7 -1 0  -4.65 -1 0  -4.6 -1 0  -4.55 -1 0  -4.5 -1 0  -4.45 -1 0  -4.4 -1 0  -4.35 -1 0  -4.3 -1 0  -4.25 -1 0  -4.2 -1 0  -4.15 -1 0  -4.1 -1 0  -4.05 -1 0  -4 -1 0  -3.95 -1 0  -3.9 -1 0  -3.85 -1 0  -3.8 -1 0  -3.75 -1 0  -3.7 -1 0  -3.65 -1 0  -3.6 -1 0  -3.55 -1 0  -3.5 -1 0  -3.45 -1 0  -3.4 -1 0  -3.35 -1 0  -3.3 -1 0  -3.25 -1 0  -3.2 -1 0  -3.15 -1 0  -3.1 -1 0  -3.05 -1 0  -3 -1 0  -2.95 -1 0  -2.9 -1 0  -2.85 -1 0  -2.8 -1 0  -2.75 -1 0  -2.7 -1 0  -2.65 -1 0  -2.6 -1 0  -2.55 -1 0  -2.5 -1 0  -2.45 -1 0  -2.4 -1 0  -2.35 -1 0  -2.3 -1 0  -2.25 -1 0  -2.2 -1 0  -2.15 -1 0  -2.1 -1 0  -2.05 -1 0  -2 -1 0  -1.95 -1 0  -1.9 -1 0  -1.85 -1 0  -1.8 -1 0  -1.75 -1 0  -1.7 -1 0  -1.65 -1 0  -1.6 -1 0  -1.55 -1 0  -1.5 -1 0  -1.45 -1 0  -1.4 -1 0  -1.35 -1 0  -1.3 -1 0  -1.25 -1 0  -1.2 -1 0  -1.15 -1 0  -1.1 -1 0  -1.05 -1 0  -1 -1 0  -0.9500000000000002 -1 0  -0.9000000000000004 -1 0  -0.8499999999999996 -1 0  -0.7999999999999998 -1 0  -0.75 -1 0  -0.7000000000000002 -1 0  -0.6500000000000004 -1 0  -0.5999999999999996 -1 0  -0.5499999999999998 -1 0  -0.5 -1 0  -0.4500000000000002 -1 0  -0.4000000000000004 -1 0  -0.3499999999999996 -1 0  -0.2999999999999998 -1 0  -0.25 -1 0  -0.2000000000000002 -1 0  -0.1500000000000004 -1 0  -0.09999999999999964 -1 0  -0.04999999999999982 -1 0  0 -1 0  0.04999999999999982 -1 0  0.09999999999999964 -1 0  0.1500000000000004 -1 0  0.2000000000000002 -1 0  0.25 -1 0  0.2999999999999998 -1 0  0.3499999999999996 -1 0  0.4000000000000004 -1 0  0.4500000000000002 -1 0  0.5 -1 0  0.5499999999999998 -1 0  0.5999999999999996 -1 0  0.6500000000000004 -1 0  0.7000000000000002 -1 0  0.75 -1 0  0.7999999999999998 -1 0  0.8499999999999996 -1 0  0.9000000000000004 -1 0  0.9500000000000002 -1 0  1 -1 0  1.05 -1 0  1.1 -1 0  1.15 -1 0  1.2 -1 0  1.25 -1 0  1.3 -1 0  1.35 -1 0  1.4 -1 0  1.45 -1 0  1.5 -1 0  1.55 -1 0  1.6 -1 0  1.65 -1 0  1.7 -1 0  1.75 -1 0  1.8 -1 0  1.85 -1 0  1.9 -1 0  1.95 -1 0  2 -1 0  2.05 -1 0  2.1 -1 0  2.15 -1 0  2.2 -1 0  2.25 -1 0  2.3 -1 0  2.35 -1 0  2.4 -1 0  2.45 -1 0  2.5 -1 0  2.55 -1 0  2.6 -1 0  2.65 -1 0  2.7 -1 0  2.75 -1 0  2.8 -1 0  2.85 -1 0  2.9 -1 0  2.95 -1 0  3 -1 0  3.050000000000001 -1 0  3.1 -1 0  3.15 -1 0  3.199999999999999 -1 0  3.25 -1 0  3.300000000000001 -1 0  3.35 -1 0  3.4 -1 0  3.449999999999999 -1 0  3.5 -1 0  3.550000000000001 -1 0  3.6 -1 0  3.65 -1 0  3.699999999999999 -1 0  3.75 -1 0  3.800000000000001 -1 0  3.85 -1 0  3.9 -1 0  3.949999999999999 -1 0  4 -1 0  4.050000000000001 -1 0  4.1 -1 0  4.15 -1 0  4.199999999999999 -1 0  4.25 -1 0  4.300000000000001 -1 0  4.35 -1 0  4.4 -1 0  4.449999999999999 -1 0  4.5 -1 0  4.550000000000001 -1 0  4.6 -1 0  4.65 -1 0  4.699999999999999 -1 0  4.75 -1 0  4.800000000000001 -1 0  4.85 -1 0  4.9 -1 0  4.949999999999999 -1 0  5 -1 0  -5 -0.95 0  -4.95 -0.95 0  -4.9 -0.95 0  -4.85 -0.95 0  -4.8 -0.95 0  -4.75 -0.95 0  -4.7 -0.95 0  -4.65 -0.95 0  -4.6 -0.95 0  -4.55 -0.95 0  -4.5 -0.95 0  -4.45 -0.95 0  -4.4 -0.95 0  -4.35 -0.95 0  -4.3 -0.95 0  -4.25 -0.95 0  -4.2 -0.95 0  -4.15 -0.95 0  -4.1 -0.95 0  -4.05 -0.95 0  -4 -0.95 0  -3.95 -0.95 0  -3.9 -0.95 0  -3.85 -0.95 0  -3.8 -0.95 0  -3.75 -0.95 0  -3.7 -0.95 0  -3.65 -0.95 0  -3.6 -0.95 0  -3.55 -0.95 0  -3.5 -0.95 0  -3.45 -0.95 0  -3.4 -0.95 0  -3.35 -0.95 0  -3.3 -0.95 0  -3.25 -0.95 0  -3.2 -0.95 0  -3.15 -0.95 0  -3.1 -0.95 0  -3.05 -0.95 0  -3 -0.95 0  -2.95 -0.95 0  -2.9 -0.95 0  -2.85 -0.95 0  -2.8 -0.95 0  -2.75 -0.95 0  -2.7 -0.95 0  -2.65 -0.95 0  -2.6 -0.95 0  -2.55 -0.95 0  -2.5 -0.95 0  -2.45 -0.95 0  -2.4 -0.95 0  -2.35 -0.95 0  -2.3 -0.95 0  -2.25 -0.95 0  -2.2 -0.95 0  -2.15 -0.95 0  -2.1 -0.95 0  -2.05 -0.95 0  -2 -0.95 0  -1.95 -0.95 0  -1.9 -0.95 0  -1.85 -0.95 0  -1.8 -0.95 0  -1.75 -0.95 0  -1.7 -0.95 0  -1.65 -0.95 0  -1.6 -0.95 0  -1.55 -0.95 0  -1.5 -0.95 0  -1.45 -0.95 0  -1.4 -0.95 0  -1.35 -0.95 0  -1.3 -0.95 0  -1.25 -0.95 0  -1.2 -0.95 0  -1.15 -0.95 0  -1.1 -0.95 0  -1.05 -0.95 0  -1 -0.95 0  -0.9500000000000002 -0.95 0  -0.9000000000000004 -0.95 0  -0.8499999999999996 -0.95 0  -0.7999999999999998 -0.95 0  -0.75 -0.95 0  -0.7000000000000002 -0.95 0  -0.6500000000000004 -0.95 0  -0.5999999999999996 -0.95 0  -0.5499999999999998 -0.95 0  -0.5 -0.95 0  -0.4500000000000002 -0.95 0  -0.4000000000000004 -0.95 0  -0.3499999999999996 -0.95 0  -0.2999999999999998 -0.95 0  -0.25 -0.95 0  -0.2000000000000002 -0.95 0  -0.1500000000000004 -0.95 0  -0.09999999999999964 -0.95 0  -0.04999999999999982 -0.95 0  0 -0.95 0  0.04999999999999982 -0.95 0  0.09999999999999964 -0.95 0  0.1500000000000004 -0.95 0  0.2000000000000002 -0.95 0  0.25 -0.95 0  0.2999999999999998 -0.95 0  0.3499999999999996 -0.95 0  0.4000000000000004 -0.95 0  0.4500000000000002 -0.95 0  0.5 -0.95 0  0.5499999999999998 -0.95 0  0.5999999999999996 -0.95 0  0.6500000000000004 -0.95 0  0.7000000000000002 -0.95 0  0.75 -0.95 0  0.7999999999999998 -0.95 0  0.8499999999999996 -0.95 0  0.9000000000000004 -0.95 0  0.9500000000000002 -0.95 0  1 -0.95 0  1.05 -0.95 0  1.1 -0.95 0  1.15 -0.95 0  1.2 -0.95 0  1.25 -0.95 0  1.3 -0.95 0  1.35 -0.95 0  1.4 -0.95 0  1.45 -0.95 0  1.5 -0.95 0  1.55 -0.95 0  1.6 -0.95 0  1.65 -0.95 0  1.7 -0.95 0  1.75 -0.95 0  1.8 -0.95 0  1.85 -0.95 0  1.9 -0.95 0  1.95 -0.95 0  2 -0.95 0  2.05 -0.95 0  2.1 -0.95 0  2.15 -0.95 0  2.2 -0.95 0  2.25 -0.95 0  2.3 -0.95 0  2.35 -0.95 0  2.4 -0.95 0  2.45 -0.95 0  2.5 -0.95 0  2.55 -0.95 0  2.6 -0.95 0  2.65 -0.95 0  2.7 -0.95 0  2.75 -0.95 0  2.8 -0.95 0  2.85 -0.95 0  2.9 -0.95 0  2.95 -0.95 0  3 -0.95 0  3.050000000000001 -0.95 0  3.1 -0.95 0  3.15 -0.95 0  3.199999999999999 -0.95 0  3.25 -0.95 0  3.300000000000001 -0.95 0  3.35 -0.95 0  3.4 -0.95 0  3.449999999999999 -0.95 0  3.5 -0.95 0  3.550000000000001 -0.95 0  3.6 -0.95 0  3.65 -0.95 0  3.699999999999999 -0.95 0  3.75 -0.95 0  3.800000000000001 -0.95 0  3.85 -0.95 0  3.9 -0.95 0  3.949999999999999 -0.95 0  4 -0.95 0  4.050000000000001 -0.95 0  4.1 -0.95 0  4.15 -0.95 0  4.199999999999999 -0.95 0  4.25 -0.95 0  4.300000000000001 -0.95 0  4.35 -0.95 0  4.4 -0.95 0  4.449999999999999 -0.95 0  4.5 -0.95 0  4.550000000000001 -0.95 0  4.6 -0.95 0  4.65 -0.95 0  4.699999999999999 -0.95 0  4.75 -0.95 0  4.800000000000001 -0.95 0  4.85 -0.95 0  4.9 -0.95 0  4.949999999999999 -0.95 0  5 -0.95 0  -5 -0.9 0  -4.95 -0.9 0  -4.9 -0.9 0  -4.85 -0.9 0  -4.8 -0.9 0  -4.75 -0.9 0  -4.7 -0.9 0  -4.65 -0.9 0  -4.6 -0.9 0  -4.55 -0.9 0  -4.5 -0.9 0  -4.45 -0.9 0  -4.4 -0.9 0  -4.35 -0.9 0  -4.3 -0.9 0  -4.25 -0.9 0  -4.2 -0.9 0  -4.15 -0.9 0  -4.1 -0.9 0  -4.05 -0.9 0  -4 -0.9 0  -3.95 -0.9 0  -3.9 -0.9 0  -3.85 -0.9 0  -3.8 -0.9 0  -3.75 -0.9 0  -3.7 -0.9 0  -3.65 -0.9 0  -3.6 -0.9 0  -3.55 -0.9 0  -3.5 -0.9 0  -3.45 -0.9 0  -3.4 -0.9 0  -3.35 -0.9 0  -3.3 -0.9 0  -3.25 -0.9 0  -3.2 -0.9 0  -3.15 -0.9 0  -3.1 -0.9 0  -3.05 -0.9 0  -3 -0.9 0  -2.95 -0.9 0  -2.9 -0.9 0  -2.85 -0.9 0  -2.8 -0.9 0  -2.75 -0.9 0  -2.7 -0.9 0  -2.65 -0.9 0  -2.6 -0.9 0  -2.55 -0.9 0  -2.5 -0.9 0  -2.45 -0.9 0  -2.4 -0.9 0  -2.35 -0.9 0  -2.3 -0.9 0  -2.25 -0.9 0  -2.2 -0.9 0  -2.15 -0.9 0  -2.1 -0.9 0  -2.05 -0.9 0  -2 -0.9 0  -1.95 -0.9 0  -1.9 -0.9 0  -1.85 -0.9 0  -1.8 -0.9 0  -1.75 -0.9 0  -1.7 -0.9 0  -1.65 -0.9 0  -1.6 -0.9 0  -1.55 -0.9 0  -1.5 -0.9 0  -1.45 -0.9 0  -1.4 -0.9 0  -1.35 -0.9 0  -1.3 -0.9 0  -1.25 -0.9 0  -1.2 -0.9 0  -1.15 -0.9 0  -1.1 -0.9 0  -1.05 -0.9 0  -1 -0.9 0  -0.9500000000000002 -0.9 0  -0.9000000000000004 -0.9 0  -0.8499999999999996 -0.9 0  -0.7999999999999998 -0.9 0  -0.75 -0.9 0  -0.7000000000000002 -0.9 0  -0.6500000000000004 -0.9 0  -0.5999999999999996 -0.9 0  -0.5499999999999998 -0.9 0  -0.5 -0.9 0  -0.4500000000000002 -0.9 0  -0.4000000000000004 -0.9 0  -0.3499999999999996 -0.9 0  -0.2999999999999998 -0.9 0  -0.25 -0.9 0  -0.2000000000000002 -0.9 0  -0.1500000000000004 -0.9 0  -0.09999999999999964 -0.9 0  -0.04999999999999982 -0.9 0  0 -0.9 0  0.04999999999999982 -0.9 0  0.09999999999999964 -0.9 0  0.1500000000000004 -0.9 0  0.2000000000000002 -0.9 0  0.25 -0.9 0  0.2999999999999998 -0.9 0  0.3499999999999996 -0.9 0  0.4000000000000004 -0.9 0  0.4500000000000002 -0.9 0  0.5 -0.9 0  0.5499999999999998 -0.9 0  0.5999999999999996 -0.9 0  0.6500000000000004 -0.9 0  0.7000000000000002 -0.9 0  0.75 -0.9 0  0.7999999999999998 -0.9 0  0.8499999999999996 -0.9 0  0.9000000000000004 -0.9 0  0.9500000000000002 -0.9 0  1 -0.9 0  1.05 -0.9 0  1.1 -0.9 0  1.15 -0.9 0  1.2 -0.9 0  1.25 -0.9 0  1.3 -0.9 0  1.35 -0.9 0  1.4 -0.9 0  1.45 -0.9 0  1.5 -0.9 0  1.55 -0.9 0  1.6 -0.9 0  1.65 -0.9 0  1.7 -0.9 0  1.75 -0.9 0  1.8 -0.9 0  1.85 -0.9 0  1.9 -0.9 0  1.95 -0.9 0  2 -0.9 0  2.05 -0.9 0  2.1 -0.9 0  2.15 -0.9 0  2.2 -0.9 0  2.25 -0.9 0  2.3 -0.9 0  2.35 -0.9 0  2.4 -0.9 0  2.45 -0.9 0  2.5 -0.9 0  2.55 -0.9 0  2.6 -0.9 0  2.65 -0.9 0  2.7 -0.9 0  2.75 -0.9 0  2.8 -0.9 0  2.85 -0.9 0  2.9 -0.9 0  2.95 -0.9 0  3 -0.9 0  3.050000000000001 -0.9 0  3.1 -0.9 0  3.15 -0.9 0  3.199999999999999 -0.9 0  3.25 -0.9 0  3.300000000000001 -0.9 0  3.35 -0.9 0  3.4 -0.9 0  3.449999999999999 -0.9 0  3.5 -0.9 0  3.550000000000001 -0.9 0  3.6 -0.9 0  3.65 -0.9 0  3.699999999999999 -0.9 0  3.75 -0.9 0  3.800000000000001 -0.9 0  3.85 -0.9 0  3.9 -0.9 0  3.949999999999999 -0.9 0  4 -0.9 0  4.050000000000001 -0.9 0  4.1 -0.9 0  4.15 -0.9 0  4.199999999999999 -0.9 0  4.25 -0.9 0  4.300000000000001 -0.9 0  4.35 -0.9 0  4.4 -0.9 0  4.449999999999999 -0.9 0  4.5 -0.9 0  4.550000000000001 -0.9 0  4.6 -0.9 0  4.65 -0.9 0  4.699999999999999 -0.9 0  4.75 -0.9 0  4.800000000000001 -0.9 0  4.85 -0.9 0  4.9 -0.9 0  4.949999999999999 -0.9 0  5 -0.9 0  -5 -0.85 0  -4.95 -0.85 0  -4.9 -0.85 0  -4.85 -0.85 0  -4.8 -0.85 0  -4.75 -0.85 0  -4.7 -0.85 0  -4.65 -0.85 0  -4.6 -0.85 0  -4.55 -0.85 0  -4.5 -0.85 0  -
[...]
<PointData  Vectors="f_15"> 
<DataArray  type="Float64"  Name="f_15"  NumberOfComponents="3" format="ascii">6.2298753514390386e+00 0.0000000000000000e+00 0.0000000000000000e+00  6.2286945074632607e+00 8.2993094347151825e-02 0.0000000000000000e+00  6.2295058805211818e+00 1.6249745431309023e-01 0.0000000000000000e+00  6.2275729340361439e+00 2.4610139818785459e-01 0.0000000000000000e+00  6.2281363673340149e+00 3.2572823611484036e-01 0.0000000000000000e+00  6.2256256037931319e+00 4.0884524770571579e-01 0.0000000000000000e+00  6.2257702510526212e+00 4.8886767306447387e-01 0.0000000000000000e+00  6.2226194478424990e+00 5.7118784305008741e-01 0.0000000000000000e+00  6.2225928892873226e+00 6.5222579923328827e-01 0.0000000000000000e+00  6.2185841774533497e+00 7.3355046438407878e-01 0.0000000000000000e+00  6.2183371832985292e+00 8.1324951950728341e-01 0.0000000000000000e+00  6.2137368665028143e+00 8.9966178582695022e-01 0.0000000000000000e+00  6.2129797537891358e+00 9.7037052929036050e-01 0.0000000000000000e+00  6.2078353843505178e+00 1.0642614169082845e+00 0.0000000000000000e+00  6.2067538877851192e+00 1.1360099505134529e+00 0.0000000000000000e+00  6.2007563714806722e+00 1.2143332806166560e+00 0.0000000000000000e+00  6.1995369440850610e+00 1.3119798363864070e+00 0.0000000000000000e+00  6.1926471622014496e+00 1.3651231227314360e+00 0.0000000000000000e+00  6.1911243229399462e+00 1.4735777992492010e+00 0.0000000000000000e+00  6.1835810688330062e+00 1.5320064802909488e+00 0.0000000000000000e+00  6.1814999203412588e+00 1.6271078906067757e+00 0.0000000000000000e+00  6.1733623309852055e+00 1.6937662302093135e+00 0.0000000000000000e+00  6.1707994461845690e+00 1.7879068114371448e+00 0.0000000000000000e+00  6.1619047212689981e+00 1.8525608081044802e+00 0.0000000000000000e+00  6.1588039611349190e+00 1.9443878399374557e+00 0.0000000000000000e+00  6.1493812043169820e+00 2.0129809255667519e+00 0.0000000000000000e+00  6.1454169325881596e+00 2.1018833418342719e+00 0.0000000000000000e+00  6.1355718370538028e+00 2.1700758569477303e+00 0.0000000000000000e+00  6.1307233392954235e+00 2.2573346066017588e+00 0.0000000000000000e+00  6.1204689413160667e+00 2.3287445014166583e+00 0.0000000000000000e+00  6.1144757922201132e+00 2.4114099252358012e+00 0.0000000000000000e+00  6.1041348644806472e+00 2.4844854945892862e+00 0.0000000000000000e+00  6.0966023014344000e+00 2.5648524957569805e+00 0.0000000000000000e+00  6.0864067247762206e+00 2.6401505761628101e+00 0.0000000000000000e+00  6.0771607631811637e+00 2.7162357813083111e+00 0.0000000000000000e+00  6.0671160639607233e+00 2.7937674733429763e+00 0.0000000000000000e+00  6.0559890336984621e+00 2.8665731396588350e+00 0.0000000000000000e+00  6.0464545116972950e+00 2.9464133264417343e+00 0.0000000000000000e+00  6.0327867755486375e+00 3.0148425580516895e+00 0.0000000000000000e+00  6.0241937059926798e+00 3.0969206550861919e+00 0.0000000000000000e+00  6.0079494638368516e+00 3.1620983618187855e+00 0.0000000000000000e+00  5.9998560641466918e+00 3.2451564020725212e+00 0.0000000000000000e+00  5.9812668005984850e+00 3.3075928571402966e+00 0.0000000000000000e+00  5.9739506781029794e+00 3.3917204010176665e+00 0.0000000000000000e+00  5.9521366510592655e+00 3.4501383401120349e+00 0.0000000000000000e+00  5.9462403775213790e+00 3.5369276459818400e+00 0.0000000000000000e+00  5.9213143795209948e+00 3.5907254071188146e+00 0.0000000000000000e+00  5.9158199071551136e+00 3.6788525185366319e+00 0.0000000000000000e+00  5.8886988378964800e+00 3.7295686924047864e+00 0.0000000000000000e+00  5.8835851381448556e+00 3.8188741486519087e+00 0.0000000000000000e+00  5.8531954091470011e+00 3.8647803494193074e+00 0.0000000000000000e+00  5.8494397029491365e+00 3.9569367898760155e+00 0.0000000000000000e+00  5.8160119305290578e+00 3.9981934816557314e+00 0.0000000000000000e+00  5.8119427086963160e+00 4.0906823739826210e+00 0.0000000000000000e+00  5.7772035324855580e+00 4.1298205213890657e+00 0.0000000000000000e+00  5.7725138379178373e+00 4.2224943928576861e+00 0.0000000000000000e+00  5.7350996707908681e+00 4.2568275727080849e+00 0.0000000000000000e+00  5.7312255175846563e+00 4.3524654534382936e+00 0.0000000000000000e+00  5.6914701792982960e+00 4.3819154695240385e+00 0.0000000000000000e+00  5.6861202728292533e+00 4.4774345522583543e+00 0.0000000000000000e+00  5.6464415455725439e+00 4.5054285535501251e+00 0.0000000000000000e+00  5.6392791991078690e+00 4.6003446834300181e+00 0.0000000000000000e+00  5.5978458238559003e+00 4.6238751614884750e+00 0.0000000000000000e+00  5.5908144359636873e+00 4.7214615684003451e+00 0.0000000000000000e+00  5.5480588976642311e+00 4.7410253785489624e+00 0.0000000000000000e+00  5.5385138163014584e+00 4.8366293740435236e+00 0.0000000000000000e+00  5.4969872599460592e+00 4.8571722748636477e+00 0.0000000000000000e+00  5.4851553646469764e+00 4.9503705426673754e+00 0.0000000000000000e+00  5.4423444411506630e+00 4.9676218039700837e+00 0.0000000000000000e+00  5.4304252009297862e+00 5.0628371111163091e+00 0.0000000000000000e+00  5.3872793332337379e+00 5.0775653806847254e+00 0.0000000000000000e+00  5.3720624263175276e+00 5.1692297464552732e+00 0.0000000000000000e+00  5.3311381641713016e+00 5.1867063884067726e+00 0.0000000000000000e+00  5.3136952841691167e+00 5.2752862407000976e+00 0.0000000000000000e+00  5.2714923174511261e+00 5.2903491814803090e+00 0.0000000000000000e+00  5.2544842871615183e+00 5.3801458377118516e+00 0.0000000000000000e+00  5.2123613624420857e+00 5.3946581026151801e+00 0.0000000000000000e+00  5.1919283712484008e+00 5.4793657029073612e+00 0.0000000000000000e+00  5.1525477855414890e+00 5.4982954453659820e+00 0.0000000000000000e+00  5.1305563496840740e+00 5.5793509033068664e+00 0.0000000000000000e+00  5.0893021721548406e+00 5.5969927980438285e+00 0.0000000000000000e+00  5.0688172053776830e+00 5.6787736186444375e+00 0.0000000000000000e+00  5.0275650919618826e+00 5.6968451015560309e+00 0.0000000000000000e+00  5.0040769534291343e+00 5.7737959318624421e+00 0.0000000000000000e+00  4.9651458708061504e+00 5.7963461287303364e+00 0.0000000000000000e+00  4.9419904125011405e+00 5.8698112792600687e+00 0.0000000000000000e+00  4.8993144938789506e+00 5.8923054040539364e+00 0.0000000000000000e+00  4.8796407457417805e+00 5.9658089112412078e+00 0.0000000000000000e+00  4.8361908597023584e+00 5.9884158414663675e+00 0.0000000000000000e+00  4.8146107859719214e+00 6.0604449169480725e+00 0.0000000000000000e+00  4.7720939565494387e+00 6.0833914835012424e+00 0.0000000000000000e+00  4.7529608931851488e+00 6.1555171560175150e+00 0.0000000000000000e+00  4.7063377102920461e+00 6.1774410532283657e+00 0.0000000000000000e+00  4.6902501110965993e+00 6.2482304991962874e+00 0.0000000000000000e+00  4.6428416937515236e+00 6.2730823056058700e+00 0.0000000000000000e+00  4.6246685884732903e+00 6.3467233013494848e+00 0.0000000000000000e+00  4.5797442520308378e+00 6.3588705492032229e+00 0.0000000000000000e+00  4.5675010312124478e+00 6.4410816154551913e+00 0.0000000000000000e+00  4.5122707116388545e+00 6.4546406055922727e+00 0.0000000000000000e+00  4.5030158575279007e+00 6.5315994405464801e+00 0.0000000000000000e+00  4.4519900686706428e+00 6.5532194404667061e+00 0.0000000000000000e+00  4.4446161154302937e+00 6.6152935598263731e+00 0.0000000000000000e+00  4.3878555719573180e+00 6.6425916927531032e+00 0.0000000000000000e+00  4.3810333939121877e+00 6.7222476256838233e+00 0.0000000000000000e+00  4.3245639240760481e+00 6.7316802162663212e+00 0.0000000000000000e+00  4.3186737913138549e+00 6.8102921444557181e+00 0.0000000000000000e+00  4.2634162049877569e+00 6.8370958924102441e+00 0.0000000000000000e+00  4.2570490840749873e+00 6.8955424917201187e+00 0.0000000000000000e+00  4.2041444745043997e+00 6.9230634680995742e+00 0.0000000000000000e+00  4.1990323903203244e+00 7.0002963072994868e+00 0.0000000000000000e+00  4.1405410910753115e+00 7.0033973970492376e+00 0.0000000000000000e+00  4.1400509570778592e+00 7.0966328393125035e+00 0.0000000000000000e+00  4.0810830779051246e+00 7.1034196078419098e+00 0.0000000000000000e+00  4.0826617756725039e+00 7.1694753753495721e+00 0.0000000000000000e+00  4.0191287519001468e+00 7.2151368528309421e+00 0.0000000000000000e+00  4.0263238137070880e+00 7.2481067495719413e+00 0.0000000000000000e+00  3.9609745409677299e+00 7.3078259189417203e+00 0.0000000000000000e+00  3.9702284649619997e+00 7.3384759910932518e+00 0.0000000000000000e+00  3.9045228734086113e+00 7.3964388141967738e+00 0.0000000000000000e+00  3.9145813504753066e+00 7.4218225540811709e+00 0.0000000000000000e+00  3.8507907528783631e+00 7.4910139396427216e+00 0.0000000000000000e+00  3.8685988305954138e+00 7.4861002953791100e+00 0.0000000000000000e+00  3.7930458883441243e+00 7.5898352028822842e+00 0.0000000000000000e+00  3.8382737339097148e+00 7.5317391478349496e+00 0.0000000000000000e+00  3.8392897167525293e+00 7.5187463384164870e+00 0.0000000000000000e+00  3.9380392055973501e+00 7.3726021264137733e+00 0.0000000000000000e+00  3.9084035564476443e+00 7.4083082900927071e+00 0.0000000000000000e+00  3.9667713641984821e+00 7.3283407087592929e+00 0.0000000000000000e+00  3.9173284383925302e+00 7.3927463465122525e+00 0.0000000000000000e+00  3.9741571396843760e+00 7.3176929180477952e+00 0.0000000000000000e+00  3.9222069943890370e+00 7.3865662591379690e+00 0.0000000000000000e+00  3.9799259808202372e+00 7.3049229754984202e+00 0.0000000000000000e+00  3.9268165219908995e+00 7.3860561681213781e+00 0.0000000000000000e+00  3.9816302587470807e+00 7.2972639303590521e+00 0.0000000000000000e+00  3.9294133099221527e+00 7.3837990401353686e+00 0.0000000000000000e+00  3.9828582234567924e+00 7.2973216333723325e+00 0.0000000000000000e+00  3.9315539725393358e+00 7.3783624477623126e+00 0.0000000000000000e+00  3.9824341210787093e+00 7.2981490174126593e+00 0.0000000000000000e+00  3.9339989622407296e+00 7.3766676356970491e+00 0.0000000000000000e+00  3.9823877943379964e+00 7.2968140083132447e+00 0.0000000000000000e+00  3.9346528026656560e+00 7.3743824825177544e+00 0.0000000000000000e+00  3.9837618609949832e+00 7.2988531085276183e+00 0.0000000000000000e+00  3.9359648582336138e+00 7.3688604718288921e+00 0.0000000000000000e+00  3.9817352411228768e+00 7.3028320494536150e+00 0.0000000000000000e+00  3.9397250701032340e+00 7.3648903225299085e+00 0.0000000000000000e+00  3.9794933863766042e+00 7.3045952498079929e+00 0.0000000000000000e+00  3.9412292900669872e+00 7.3621412787015430e+00 0.0000000000000000e+00  3.9789828640058178e+00 7.3078123717037311e+00 0.0000000000000000e+00  3.9434893040286285e+00 7.3569284219634969e+00 0.0000000000000000e+00  3.9751253707705598e+00 7.3129781942523371e+00 0.0000000000000000e+00  3.9484701138004348e+00 7.3522549718234034e+00 0.0000000000000000e+00  3.9717648995923454e+00 7.3157150446449748e+00 0.0000000000000000e+00  3.9498733475152101e+00 7.3500143798955815e+00 0.0000000000000000e+00  3.9716393958929594e+00 7.3182051736606590e+00 0.0000000000000000e+00  3.9508606155126449e+00 7.3465784503667457e+00 0.0000000000000000e+00  3.9692006053068534e+00 7.3213096452141979e+00 0.0000000000000000e+00  3.9546009021288890e+00 7.3439129708053796e+00 0.0000000000000000e+00  3.9669281313557425e+00 7.3221749639253462e+00 0.0000000000000000e+00  3.9557283965528729e+00 7.3425951421356617e+00 0.0000000000000000e+00  3.9668355435526359e+00 7.3240082874160173e+00 0.0000000000000000e+00  3.9578092405785208e+00 7.3393853866030518e+00 0.0000000000000000e+00  3.9614320638475382e+00 7.3266386099407033e+00 0.0000000000000000e+00  3.9674913915416772e+00 7.3394347893984104e+00 0.0000000000000000e+00  3.9480960760740338e+00 7.3207501598997879e+00 0.0000000000000000e+00  3.9834184273809656e+00 7.3536045690189722e+00 0.0000000000000000e+00  3.9272994692295589e+00 7.3002075093194367e+00 0.0000000000000000e+00  4.0016979661080381e+00 7.3833967751438969e+00 0.0000000000000000e+00  3.9023407428078856e+00 7.2727897972527673e+00 0.0000000000000000e+00  4.0128702288805140e+00 7.4227187644311359e+00 0.0000000000000000e+00  3.8822182628558815e+00 7.2280965828666917e+00 0.0000000000000000e+00  4.0231484229169618e+00 7.5116297267809626e+00 0.0000000000000000e+00  3.8709435768888114e+00 7.0562149858909819e+00 0.0000000000000000e+00  3.9747032122450170e+00 7.8442629350053048e+00 0.0000000000000000e+00  4.1381497709524497e+00 6.3894256185392519e+00 0.0000000000000000e+00  3.3140033204269823e+00 8.9957980586932660e+00 0.0000000000000000e+00  7.4001121328524029e+00 1.9991991665497388e+00 0.0000000000000000e+00  9.4301878803415455e+00 1.5682951182846455e-01 0.0000000000000000e+00  9.5256007427157989e+00 -3.6077606045090409e-02 0.0000000000000000e+00  9.4234488451519862e+00 1.3236595087826087e-03 0.0000000000000000e+00  9.4912533888710922e+00 -3.1314349185460118e-02 0.0000000000000000e+00  9.4885028673897391e+00 -3.8558149691098886e-02 0.0000000000000000e+00  9.4986510713744554e+00 -6.6984170871426274e-02 0.0000000000000000e+00  9.4969224614881682e+00 -5.4412583553226958e-02 0.0000000000000000e+00  9.4869720581768124e+00 -5.7214060773652278e-02 0.0000000000000000e+00  9.4933048723611630e+00 -5.7563663491918070e-02 0.0000000000000000e+00  9.4966439078248577e+00 -7.7594096081870720e-02 0.0000000000000000e+00  9.4932573775473479e+00 -7.3002160464669050e-02 0.0000000000000000e+00  9.4933109233455149e+00 -9.2494270536120721e-02 0.0000000000000000e+00  9.4923949506613443e+00 -9.3549483045411330e-02 0.0000000000000000e+00  9.4959296622219753e+00 -1.1370407218195661e-01 0.0000000000000000e+00  9.4921266938404099e+00 -1.0624716892919664e-01 0.0000000000000000e+00  9.4948070946118044e+00 -1.2521703557091729e-01 0.0000000000000000e+00  9.4923484217373186e+00 -1.0508007545889658e-01 0.0000000000000000e+00  9.4953429243421752e+00 -1.1291127799012982e-01 0.0000000000000000e+00  9.4920010122228664e+00 -1.0036143319099824e-01 0.0000000000000000e+00  9.4954974762366700e+00 -9.4644008849896294e-02 0.0000000000000000e+00  9.4918514269049599e+00 -9.3281711399324299e-02 0.0000000000000000e+00  9.4954728186948998e+00 -7.3718211800900380e-02 0.0000000000000000e+00  9.4918413874671934e+00 -1.0940145115639059e-01 0.0000000000000000e+00  9.4954252243921076e+00 -2.8856582078427517e-02 0.0000000000000000e+00  9.4921859427150252e+00 0.0000000000000000e+00 0.0000000000000000e+00  6.2287980074046105e+00 0.0000000000000000e+00 1.5961157890355367e-03  6.2287794769095450e+00 8.0156262451252069e-02 -1.7086732507533725e-03  6.2282709338640201e+00 1.6364212852527676e-01 2.2585311086661753e-03  6.2278721361568499e+00 2.4312082774520702e-01 -2.5831785479021358e-03  6.2269233151664549e+00 3.2704836252463215e-01 2.7152642016274767e-03  6.2259383915595521e+00 4.0602585588106405e-01 -2.7766474882021832e-03  6.2245287775537301e+00 4.9010003166801985e-01 2.8754271160939216e-03  6.2231788413745042e+00 5.6909543467610857e-01 -2.9801467094694198e-03  6.2211116320809356e+00 6.5294522336738003e-01 3.0295930533900547e-03  6.2193306717512424e+00 7.3112145541300300e-01 -2.8325229984988284e-03  6.2168887456228479e+00 8.1716714369819621e-01 2.4911670172461492e-03  6.2143811071764707e+00 8.9154827507776491e-01 -2.1366488854239712e-03  6.2116077498268005e+00 9.8005013901890370e-01 2.0677002837792488e-03  6.2085500138408376e+00 1.0561883363352975e+00 -2.0720084287615946e-03  6.2052216098095290e+00 1.1359211355342937e+00 1.5914079749757362e-03  6.2015931311365797e+00 1.2247384543595001e+00 1.2606320863194634e-04  6.1979782216955837e+00 1.2935015927295885e+00 -2.9322426551583675e-03  6.1933742654886688e+00 1.3843475577823541e+00 5.7640708699094323e-03  6.1896819585984479e+00 1.4594150258446386e+00 -7.0344586925848666e-03  6.1842112013736683e+00 1.5409871398680146e+00 6.3289869029856090e-03  6.1799666195785949e+00 1.6194354270800364e+00 -4.4321837298942797e-03  6.1741934293526750e+00 1.7035767107402993e+00 2.6592970360013774e-03  6.1689205202231241e+00 1.7779676852813959e+00 -1.3262590968735617e-03  6.1629655601609832e+00 1.8601451120030357e+00 1.7224805529237423e-04  6.1567845081558490e+00 1.9404176464379208e+00 9.5380411089033331e-04  6.1503764695270435e+00 2.0167434404629661e+00 -1.5021220985551480e-03  6.1434286110532508e+00 2.0976752737983841e+00 1.2925645860484222e-03  6.1364788189250810e+00 2.1745886999344033e+00 -8.4074921673595536e-04  6.1287762159840042e+00 2.2551534071015111e+00 8.0366464497476765e-04  6.1211437080682183e+00 2.3301018095302175e+00 -1.0032062336209446e-03  6.1128312830031550e+00 2.4105304372547103e+00 9.0530349321133331e-04  6.1043091699155312e+00 2.4859375007032640e+00 -4.4414691189118791e-04  6.0954285579839267e+00 2.5647430147540611e+00 9.1749126339500580e-05  6.0860540504785918e+00 2.6395985525268477e+00 -2.0192842735672437e-05  6.0763929270037487e+00 2.7175808577147800e+00 -5.1199392974872277e-05  6.0662267327337993e+00 2.7924213561370581e+00 2.9778288253715942e-04  6.0558873098963248e+00 2.8689836468700549e+00 -5.6395376319216654e-04  6.0445614204828093e+00 2.9431635407133618e+00 7.0221613937130093e-04  6.0337060498573241e+00 3.0186988553985987e+00 -8.4536468228019071e-04  6.0213720040832728e+00 3.0928104496930793e+00 1.0429018649559887e-03  6.0094567742106157e+00 3.1662787136272259e+00 -1.2310907325637532e-03  5.9964281219501814e+00 3.2404492650151648e+00 1.3267510890398243e-03  5.9836035558237599e+00 3.3124004926677140e+00 -1.4437647678385160e-03  5.9691760744322035e+00 3.3854494672169464e+00 1.5803996598878955e-03  5.9559322345315344e+00 3.4569491274493074e+00 -1.7145827132168340e-03  5.9402535728912431e+00 3.5285421600652338e+00 1.7864155603639533e-03  5.9256803136582006e+00 3.5983921713804987e+00 -1.8840128309447889e-03  5.9094810227162160e+00 3.6699447669609029e+00 1.9926380188281852e-03  5.8937111540373230e+00 3.7378991869855094e+00 -2.1385138383685346e-03  5.8758260099908304e+00 3.8079107386026876e+00 2.2694288849448878e-03  5.8599359687252379e+00 3.8754582688888903e+00 -2.4243419691197549e-03  5.8403627467686308e+00 3.9439506225212302e+00 2.5565106793734634e-03  5.8230632731357792e+00 4.0090479711517597e+00 -2.7167187389566692e-03  5.8030881635894831e+00 4.0781080434936712e+00 2.8602879618957085e-03  5.7844201419315757e+00 4.1406793445739014e+00 -3.0240429066565708e-03  5.7624358137027993e+00 4.2078143345208510e+00 3.1487641395520640e-03  5.7440772948660159e+00 4.2704558156089183e+00 -3.2965023093987785e-03  5.7200271523524187e+00 4.3355334574138231e+00 3.4253000072050638e-03  5.7002012119721144e+00 4.3954800761660682e+00 -3.5848491342172139e-03  5.6759839548493316e+00 4.4615024070988536e+00 3.7213908866311580e-03  5.6547302432288005e+00 4.5184689101831133e+00 -3.8951834486430120e-03  5.6282455445740300e+00 4.5824955416641115e+00 4.0360051905199276e-03  5.6077772301759579e+00 4.6397954058927340e+00 -4.1791815764189470e-03  5.5790859140802072e+00 4.7017494932379957e+00 4.2737909503220298e-03  5.5571304785896016e+00 4.7557374134841792e+00 -4.3816216859210323e-03  5.5285302762806099e+00 4.8196030387172071e+00 4.4735606090146136e-03  5.5053848421359000e+00 4.8703396546190740e+00 -4.5994177839960909e-03  5.4743473761884145e+00 4.9317052505309453e+00 4.6863599249892069e-03  5.4522997618292086e+00 4.9839206665278057e+00 -4.7540834494381335e-03  5.4195513674188067e+00 5.0428202694154995e+00 4.7764073146815342e-03  5.3956075329122930e+00 5.0917872745971593e+00 -4.7983873129477713e-03  5.3636323176863892e+00 5.1529445582671585e+00 4.7958656479895933e-03  5.3387294141944039e+00 5.1993383745283293e+00 -4.8094395535540155e-03  5.3042528432964806e+00 5.2574074949635268e+00 4.7987669470958587e-03  5.2808729705894315e+00 5.3060481541571267e+00 -4.7744787450347947e-03  5.2452760761780617e+00 5.3620989620842128e+00 4.7088087222398930e-03  5.2195553695807542e+00 5.4074526937067855e+00 -4.6047654260321230e-03  5.1856614333939142e+00 5.4659291340271867e+00 4.4623641126808567e-03  5.1590716621854424e+00 5.5097528267323232e+00 -4.3376762915396227e-03  5.1227737040770274e+00 5.5646898263958704e+00 4.2451215367389330e-03  5.0980343438398199e+00 5.6115054149075609e+00 -4.1839010911856106e-03  5.0614844293126158e+00 5.6644473092962775e+00 4.1048158155456982e-03  5.0337188174886247e+