<?xml version="1.0"?>
<VTKFile type="UnstructuredGrid"  version="0.1"  >
<UnstructuredGrid>
<Piece  NumberOfPoints="8241" NumberOfCells="16000">
<Points>
<DataArray  type="Float64"  NumberOfComponents="3"  format="ascii">-5 -1 0  -4.95 -1 0  -4.9 -1 0  -4.85 -1 0  -4.8 -1 0  -4.75 -1 0  -4.7 -1 0  -4.65 -1 0  -4.6 -1 0  -4.55 -1 0  -4.5 -1 0  -4.45 -1 0  -4.4 -1 0  -4.35 -1 0  -4.3 -1 0  -4.25 -1 0  -4.2 -1 0  -4.15 -1 0  -4.1 -1 0  -4.05 -1 0  -4 -1 0  -3.95 -1 0  -3.9 -1 0  -3.85 -1 0  -3.8 -1 0  -3.75 -1 0  -3.7 -1 0  -3.65 -1 0  -3.6 -1 0  -3.55 -1 0  -3.5 -1 0  -3.45 -1 0  -3.4 -1 0  -3.35 -1 0  -3.3 -1 0  -3.25 -1 0  -3.2 -1 0  -3.15 -1 0  -3.1 -1 0  -3.05 -1 0  -3 -1 0  -2.95 -1 0  -2.9 -1 0  -2.85 -1 0  -2.8 -1 0  -2.75 -1 0  -2.7 -1 0  -2.65 -1 0  -2.6 -1 0  -2.55 -1 0  -2.5 -1 0  -2.45 -1 0  -2.4 -1 0  -2.35 -1 0  -2.3 -1 0  -2.25 -1 0  -2.2 -1 0  -2.15 -1 0  -2.1 -1 0  -2.05 -1 0  -2 -1 0  -1.95 -1 0  -1.9 -1 0  -1.85 -1 0  -1.8 -1 0  -1.75 -1 0  -1.7 -1 0  -1.65 -1 0  -1.6 -1 0  -1.55 -1 0  -1.5 -1 0  -1.45 -1 0  -1.4 -1 0  -1.35 -1 0  -1.3 -1 0  -1.25 -1 0  -1.2 -1 0  -1.15 -1 0  -1.1 -1 0  -1.05 -1 0  -1 -1 0  -0.9500000000000002 -1 0  -0.9000000000000004 -1 0  -0.8499999999999996 -1 0  -0.7999999999999998 -1 0  -0.75 -1 0  -0.7000000000000002 -1 0  -0.6500000000000004 -1 0  -0.5999999999999996 -1 0  -0.5499999999999998 -1 0  -0.5 -1 0  -0.4500000000000002 -1 0  -0.4000000000000004 -1 0  -0.3499999999999996 -1 0  -0.2999999999999998 -1 0  -0.25 -1 0  -0.2000000000000002 -1 0  -0.1500000000000004 -1 0  -0.09999999999999964 -1 0  -0.04999999999999982 -1 0  0 -1 0  0.04999999999999982 -1 0  0.09999999999999964 -1 0  0.1500000000000004 -1 0  0.2000000000000002 -1 0  0.25 -1 0  0.2999999999999998 -1 0  0.3499999999999996 -1 0  0.4000000000000004 -1 0  0.4500000000000002 -1 0  0.5 -1 0  0.5499999999999998 -1 0  0.5999999999999996 -1 0  0.6500000000000004 -1 0  0.7000000000000002 -1 0  0.75 -1 0  0.7999999999999998 -1 0  0.8499999999999996 -1 0  0.9000000000000004 -1 0  0.9500000000000002 -1 0  1 -1 0  1.05 -1 0  1.1 -1 0  1.15 -1 0  1.2 -1 0  1.25 -1 0  1.3 -1 0  1.35 -1 0  1.4 -1 0  1.45 -1 0  1.5 -1 0  1.55 -1 0  1.6 -1 0  1.65 -1 0  1.7 -1 0  1.75 -1 0  1.8 -1 0  1.85 -1 0  1.9 -1 0  1.95 -1 0  2 -1 0  2.05 -1 0  2.1 -1 0  2.15 -1 0  2.2 -1 0  2.25 -1 0  2.3 -1 0  2.35 -1 0  2.4 -1 0  2.45 -1 0  2.5 -1 0  2.55 -1 0  2.6 -1 0  2.65 -1 0  2.7 -1 0  2.75 -1 0  2.8 -1 0  2.85 -1 0  2.9 -1 0  2.95 -1 0  3 -1 0  3.050000000000001 -1 0  3.1 -1 0  3.15 -1 0  3.199999999999999 -1 0  3.25 -1 0  3.300000000000001 -1 0  3.35 -1 0  3.4 -1 0  3.449999999999999 -1 0  3.5 -1 0  3.550000000000001 -1 0  3.6 -1 0  3.65 -1 0  3.699999999999999 -1 0  3.75 -1 0  3.800000000000001 -1 0  3.85 -1 0  3.9 -1 0  3.949999999999999 -1 0  4 -1 0  4.050000000000001 -1 0  4.1 -1 0  4.15 -1 0  4.199999999999999 -1 0  4.25 -1 0  4.300000000000001 -1 0  4.35 -1 0  4.4 -1 0  4.449999999999999 -1 0  4.5 -1 0  4.550000000000001 -1 0  4.6 -1 0  4.65 -1 0  4.699999999999999 -1 0  4.75 -1 0  4.800000000000001 -1 0  4.85 -1 0  4.9 -1 0  4.949999999999999 -1 0  5 -1 0  -5 -0.95 0  -4.95 -0.95 0  -4.9 -0.95 0  -4.85 -0.95 0  -4.8 -0.95 0  -4.75 -0.95 0  -4.7 -0.95 0  -4.65 -0.95 0  -4.6 -0.95 0  -4.55 -0.95 0  -4.5 -0.95 0  -4.45 -0.95 0  -4.4 -0.95 0  -4.35 -0.95 0  -4.3 -0.95 0  -4.25 -0.95 0  -4.2 -0.95 0  -4.15 -0.95 0  -4.1 -0.95 0  -4.05 -0.95 0  -4 -0.95 0  -3.95 -0.95 0  -3.9 -0.95 0  -3.85 -0.95 0  -3.8 -0.95 0  -3.75 -0.95 0  -3.7 -0.95 0  -3.65 -0.95 0  -3.6 -0.95 0  -3.55 -0.95 0  -3.5 -0.95 0  -3.45 -0.95 0  -3.4 -0.95 0  -3.35 -0.95 0  -3.3 -0.95 0  -3.25 -0.95 0  -3.2 -0.95 0  -3.15 -0.95 0  -3.1 -0.95 0  -3.05 -0.95 0  -3 -0.95 0  -2.95 -0.95 0  -2.9 -0.95 0  -2.85 -0.95 0  -2.8 -0.95 0  -2.75 -0.95 0  -2.7 -0.95 0  -2.65 -0.95 0  -2.6 -0.95 0  -2.55 -0.95 0  -2.5 -0.95 0  -2.45 -0.95 0  -2.4 -0.95 0  -2.35 -0.95 0  -2.3 -0.95 0  -2.25 -0.95 0  -2.2 -0.95 0  -2.15 -0.95 0  -2.1 -0.95 0  -2.05 -0.95 0  -2 -0.95 0  -1.95 -0.95 0  -1.9 -0.95 0  -1.85 -0.95 0  -1.8 -0.95 0  -1.75 -0.95 0  -1.7 -0.95 0  -1.65 -0.95 0  -1.6 -0.95 0  -1.55 -0.95 0  -1.5 -0.95 0  -1.45 -0.95 0  -1.4 -0.95 0  -1.35 -0.95 0  -1.3 -0.95 0  -1.25 -0.95 0  -1.2 -0.95 0  -1.15 -0.95 0  -1.1 -0.95 0  -1.05 -0.95 0  -1 -0.95 0  -0.9500000000000002 -0.95 0  -0.9000000000000004 -0.95 0  -0.8499999999999996 -0.95 0  -0.7999999999999998 -0.95 0  -0.75 -0.95 0  -0.7000000000000002 -0.95 0  -0.6500000000000004 -0.95 0  -0.5999999999999996 -0.95 0  -0.5499999999999998 -0.95 0  -0.5 -0.95 0  -0.4500000000000002 -0.95 0  -0.4000000000000004 -0.95 0  -0.3499999999999996 -0.95 0  -0.2999999999999998 -0.95 0  -0.25 -0.95 0  -0.2000000000000002 -0.95 0  -0.1500000000000004 -0.95 0  -0.09999999999999964 -0.95 0  -0.04999999999999982 -0.95 0  0 -0.95 0  0.04999999999999982 -0.95 0  0.09999999999999964 -0.95 0  0.1500000000000004 -0.95 0  0.2000000000000002 -0.95 0  0.25 -0.95 0  0.2999999999999998 -0.95 0  0.3499999999999996 -0.95 0  0.4000000000000004 -0.95 0  0.4500000000000002 -0.95 0  0.5 -0.95 0  0.5499999999999998 -0.95 0  0.5999999999999996 -0.95 0  0.6500000000000004 -0.95 0  0.7000000000000002 -0.95 0  0.75 -0.95 0  0.7999999999999998 -0.95 0  0.8499999999999996 -0.95 0  0.9000000000000004 -0.95 0  0.9500000000000002 -0.95 0  1 -0.95 0  1.05 -0.95 0  1.1 -0.95 0  1.15 -0.95 0  1.2 -0.95 0  1.25 -0.95 0  1.3 -0.95 0  1.35 -0.95 0  1.4 -0.95 0  1.45 -0.95 0  1.5 -0.95 0  1.55 -0.95 0  1.6 -0.95 0  1.65 -0.95 0  1.7 -0.95 0  1.75 -0.95 0  1.8 -0.95 0  1.85 -0.95 0  1.9 -0.95 0  1.95 -0.95 0  2 -0.95 0  2.05 -0.95 0  2.1 -0.95 0  2.15 -0.95 0  2.2 -0.95 0  2.25 -0.95 0  2.3 -0.95 0  2.35 -0.95 0  2.4 -0.95 0  2.45 -0.95 0  2.5 -0.95 0  2.55 -0.95 0  2.6 -0.95 0  2.65 -0.95 0  2.7 -0.95 0  2.75 -0.95 0  2.8 -0.95 0  2.85 -0.95 0  2.9 -0.95 0  2.95 -0.95 0  3 -0.95 0  3.050000000000001 -0.95 0  3.1 -0.95 0  3.15 -0.95 0  3.199999999999999 -0.95 0  3.25 -0.95 0  3.300000000000001 -0.95 0  3.35 -0.95 0  3.4 -0.95 0  3.449999999999999 -0.95 0  3.5 -0.95 0  3.550000000000001 -0.95 0  3.6 -0.95 0  3.65 -0.95 0  3.699999999999999 -0.95 0  3.75 -0.95 0  3.800000000000001 -0.95 0  3.85 -0.95 0  3.9 -0.95 0  3.949999999999999 -0.95 0  4 -0.95 0  4.050000000000001 -0.95 0  4.1 -0.95 0  4.15 -0.95 0  4.199999999999999 -0.95 0  4.25 -0.95 0  4.300000000000001 -0.95 0  4.35 -0.95 0  4.4 -0.95 0  4.449999999999999 -0.95 0  4.5 -0.95 0  4.550000000000001 -0.95 0  4.6 -0.95 0  4.65 -0.95 0  4.699999999999999 -0.95 0  4.75 -0.95 0  4.800000000000001 -0.95 0  4.85 -0.95 0  4.9 -0.95 0  4.949999999999999 -0.95 0  5 -0.95 0  -5 -0.9 0  -4.95 -0.9 0  -4.9 -0.9 0  -4.85 -0.9 0  -4.8 -0.9 0  -4.75 -0.9 0  -4.7 -0.9 0  -4.65 -0.9 0  -4.6 -0.9 0  -4.55 -0.9 0  -4.5 -0.9 0  -4.45 -0.9 0  -4.4 -0.9 0  -4.35 -0.9 0  -4.3 -0.9 0  -4.25 -0.9 0  -4.2 -0.9 0  -4.15 -0.9 0  -4.1 -0.9 0  -4.05 -0.9 0  -4 -0.9 0  -3.95 -0.9 0  -3.9 -0.9 0  -3.85 -0.9 0  -3.8 -0.9 0  -3.75 -0.9 0  -3.7 -0.9 0  -3.65 -0.9 0  -3.6 -0.9 0  -3.55 -0.9 0  -3.5 -0.9 0  -3.45 -0.9 0  -3.4 -0.9 0  -3.35 -0.9 0  -3.3 -0.9 0  -3.25 -0.9 0  -3.2 -0.9 0  -3.15 -0.9 0  -3.1 -0.9 0  -3.05 -0.9 0  -3 -0.9 0  -2.95 -0.9 0  -2.9 -0.9 0  -2.85 -0.9 0  -2.8 -0.9 0  -2.75 -0.9 0  -2.7 -0.9 0  -2.65 -0.9 0  -2.6 -0.9 0  -2.55 -0.9 0  -2.5 -0.9 0  -2.45 -0.9 0  -2.4 -0.9 0  -2.35 -0.9 0  -2.3 -0.9 0  -2.25 -0.9 0  -2.2 -0.9 0  -2.15 -0.9 0  -2.1 -0.9 0  -2.05 -0.9 0  -2 -0.9 0  -1.95 -0.9 0  -1.9 -0.9 0  -1.85 -0.9 0  -1.8 -0.9 0  -1.75 -0.9 0  -1.7 -0.9 0  -1.65 -0.9 0  -1.6 -0.9 0  -1.55 -0.9 0  -1.5 -0.9 0  -1.45 -0.9 0  -1.4 -0.9 0  -1.35 -0.9 0  -1.3 -0.9 0  -1.25 -0.9 0  -1.2 -0.9 0  -1.15 -0.9 0  -1.1 -0.9 0  -1.05 -0.9 0  -1 -0.9 0  -0.9500000000000002 -0.9 0  -0.9000000000000004 -0.9 0  -0.8499999999999996 -0.9 0  -0.7999999999999998 -0.9 0  -0.75 -0.9 0  -0.7000000000000002 -0.9 0  -0.6500000000000004 -0.9 0  -0.5999999999999996 -0.9 0  -0.5499999999999998 -0.9 0  -0.5 -0.9 0  -0.4500000000000002 -0.9 0  -0.4000000000000004 -0.9 0  -0.3499999999999996 -0.9 0  -0.2999999999999998 -0.9 0  -0.25 -0.9 0  -0.2000000000000002 -0.9 0  -0.1500000000000004 -0.9 0  -0.09999999999999964 -0.9 0  -0.04999999999999982 -0.9 0  0 -0.9 0  0.04999999999999982 -0.9 0  0.09999999999999964 -0.9 0  0.1500000000000004 -0.9 0  0.2000000000000002 -0.9 0  0.25 -0.9 0  0.2999999999999998 -0.9 0  0.3499999999999996 -0.9 0  0.4000000000000004 -0.9 0  0.4500000000000002 -0.9 0  0.5 -0.9 0  0.5499999999999998 -0.9 0  0.5999999999999996 -0.9 0  0.6500000000000004 -0.9 0  0.7000000000000002 -0.9 0  0.75 -0.9 0  0.7999999999999998 -0.9 0  0.8499999999999996 -0.9 0  0.9000000000000004 -0.9 0  0.9500000000000002 -0.9 0  1 -0.9 0  1.05 -0.9 0  1.1 -0.9 0  1.15 -0.9 0  1.2 -0.9 0  1.25 -0.9 0  1.3 -0.9 0  1.35 -0.9 0  1.4 -0.9 0  1.45 -0.9 0  1.5 -0.9 0  1.55 -0.9 0  1.6 -0.9 0  1.65 -0.9 0  1.7 -0.9 0  1.75 -0.9 0  1.8 -0.9 0  1.85 -0.9 0  1.9 -0.9 0  1.95 -0.9 0  2 -0.9 0  2.05 -0.9 0  2.1 -0.9 0  2.15 -0.9 0  2.2 -0.9 0  2.25 -0.9 0  2.3 -0.9 0  2.35 -0.9 0  2.4 -0.9 0  2.45 -0.9 0  2.5 -0.9 0  2.55 -0.9 0  2.6 -0.9 0  2.65 -0.9 0  2.7 -0.9 0  2.75 -0.9 0  2.8 -0.9 0  2.85 -0.9 0  2.9 -0.9 0  2.95 -0.9 0  3 -0.9 0  3.050000000000001 -0.9 0  3.1 -0.9 0  3.15 -0.9 0  3.199999999999999 -0.9 0  3.25 -0.9 0  3.300000000000001 -0.9 0  3.35 -0.9 0  3.4 -0.9 0  3.449999999999999 -0.9 0  3.5 -0.9 0  3.550000000000001 -0.9 0  3.6 -0.9 0  3.65 -0.9 0  3.699999999999999 -0.9 0  3.75 -0.9 0  3.800000000000001 -0.9 0  3.85 -0.9 0  3.9 -0.9 0  3.949999999999999 -0.9 0  4 -0.9 0  4.050000000000001 -0.9 0  4.1 -0.9 0  4.15 -0.9 0  4.199999999999999 -0.9 0  4.25 -0.9 0  4.300000000000001 -0.9 0  4.35 -0.9 0  4.4 -0.9 0  4.449999999999999 -0.9 0  4.5 -0.9 0  4.550000000000001 -0.9 0  4.6 -0.9 0  4.65 -0.9 0  4.699999999999999 -0.9 0  4.75 -0.9 0  4.800000000000001 -0.9 0  4.85 -0.9 0  4.9 -0.9 0  4.949999999999999 -0.9 0  5 -0.9 0  -5 -0.85 0  -4.95 -0.85 0  -4.9 -0.85 0  -4.85 -0.85 0  -4.8 -0.85 0  -4.75 -0.85 0  -4.7 -0.85 0  -4.65 -0.85 0  -4.6 -0.85 0  -4.55 -0.85 0  -4.5 -0.85 0  -
[...]
<PointData  Vectors="f_15"> 
<DataArray  type="Float64"  Name="f_15"  NumberOfComponents="3" format="ascii">1.7154277774508306e+00 0.0000000000000000e+00 0.0000000000000000e+00  1.7153749168503629e+00 3.9686715639685691e-02 0.0000000000000000e+00  1.7153930396957193e+00 7.9492085398170639e-02 0.0000000000000000e+00  1.7153026180481727e+00 1.1908914412325455e-01 0.0000000000000000e+00  1.7152963194454220e+00 1.5894540477262203e-01 0.0000000000000000e+00  1.7151553875026726e+00 1.9848255462855449e-01 0.0000000000000000e+00  1.7151339182858372e+00 2.3836604020295690e-01 0.0000000000000000e+00  1.7149335599221416e+00 2.7781831093219816e-01 0.0000000000000000e+00  1.7149068674958978e+00 3.1775745737212846e-01 0.0000000000000000e+00  1.7146399591044856e+00 3.5708115960920433e-01 0.0000000000000000e+00  1.7146099354829549e+00 3.9708058248451089e-01 0.0000000000000000e+00  1.7142773372105893e+00 4.3626821093461920e-01 0.0000000000000000e+00  1.7142462735846364e+00 4.7632334751663469e-01 0.0000000000000000e+00  1.7138401009274746e+00 5.1534258925921217e-01 0.0000000000000000e+00  1.7138180245459997e+00 5.5545958575182663e-01 0.0000000000000000e+00  1.7133333521806260e+00 5.9432259464688530e-01 0.0000000000000000e+00  1.7133176051541283e+00 6.3442240174589315e-01 0.0000000000000000e+00  1.7127614165660137e+00 6.7318115875271234e-01 0.0000000000000000e+00  1.7127487786950255e+00 7.1325333104292288e-01 0.0000000000000000e+00  1.7121191554092539e+00 7.5180782271673252e-01 0.0000000000000000e+00  1.7121139849477893e+00 7.9194658599686096e-01 0.0000000000000000e+00  1.7114135183424179e+00 8.3024201453682833e-01 0.0000000000000000e+00  1.7114070055441397e+00 8.7036190545106584e-01 0.0000000000000000e+00  1.7106497044978752e+00 9.0849623391280609e-01 0.0000000000000000e+00  1.7106337303893417e+00 9.4851806510322778e-01 0.0000000000000000e+00  1.7098263715661870e+00 9.8643187159938328e-01 0.0000000000000000e+00  1.7097979128548073e+00 1.0264015224933920e+00 0.0000000000000000e+00  1.7089532776767147e+00 1.0640713143746090e+00 0.0000000000000000e+00  1.7089014452717892e+00 1.1038709419284469e+00 0.0000000000000000e+00  1.7080360299675257e+00 1.1413624530520925e+00 0.0000000000000000e+00  1.7079580892035715e+00 1.1809373035264352e+00 0.0000000000000000e+00  1.7070833406115136e+00 1.2181759930836233e+00 0.0000000000000000e+00  1.7069765410332127e+00 1.2574974617059127e+00 0.0000000000000000e+00  1.7061166120357292e+00 1.2944922642818462e+00 0.0000000000000000e+00  1.7059778084129094e+00 1.3334241535418303e+00 0.0000000000000000e+00  1.7051493592457936e+00 1.3701504297694760e+00 0.0000000000000000e+00  1.7050010925876111e+00 1.4086551029941303e+00 0.0000000000000000e+00  1.7042197565387773e+00 1.4449896625815526e+00 0.0000000000000000e+00  1.7040757561058442e+00 1.4829550292753151e+00 0.0000000000000000e+00  1.7033948362056941e+00 1.5188774403878427e+00 0.0000000000000000e+00  1.7032743715423129e+00 1.5560929655058164e+00 0.0000000000000000e+00  1.7027330507332659e+00 1.5914514686898287e+00 0.0000000000000000e+00  1.7027197298729524e+00 1.6278296170081032e+00 0.0000000000000000e+00  1.7023660264503373e+00 1.6623172151167172e+00 0.0000000000000000e+00  1.7025383675995813e+00 1.6975898398865679e+00 0.0000000000000000e+00  1.7025176158803854e+00 1.7310246901577673e+00 0.0000000000000000e+00  1.7029758511780220e+00 1.7646848489780971e+00 0.0000000000000000e+00  1.7034432730349649e+00 1.7966275405452852e+00 0.0000000000000000e+00  1.7044258593380850e+00 1.8282953490127170e+00 0.0000000000000000e+00  1.7055633903249436e+00 1.8579835543869583e+00 0.0000000000000000e+00  1.7073228723141771e+00 1.8870115411429369e+00 0.0000000000000000e+00  1.7094495031960404e+00 1.9138816045605025e+00 0.0000000000000000e+00  1.7121936493408212e+00 1.9393895927290692e+00 0.0000000000000000e+00  1.7155258237641695e+00 1.9629172799441033e+00 0.0000000000000000e+00  1.7194283529088554e+00 1.9847099654761020e+00 0.0000000000000000e+00  1.7238766011801196e+00 2.0046511824263504e+00 0.0000000000000000e+00  1.7287651315572039e+00 2.0232122137025743e+00 0.0000000000000000e+00  1.7340285880458399e+00 2.0404410677086045e+00 0.0000000000000000e+00  1.7393819636279091e+00 2.0565450467637465e+00 0.0000000000000000e+00  1.7449960031026570e+00 2.0722217916268479e+00 0.0000000000000000e+00  1.7504314959484326e+00 2.0869230770182070e+00 0.0000000000000000e+00  1.7559699737284953e+00 2.1014721266261178e+00 0.0000000000000000e+00  1.7612936862119160e+00 2.1153894894291856e+00 0.0000000000000000e+00  1.7666357658577345e+00 2.1290970485301206e+00 0.0000000000000000e+00  1.7716817933296369e+00 2.1420963328314757e+00 0.0000000000000000e+00  1.7768117547326654e+00 2.1551263568730765e+00 0.0000000000000000e+00  1.7815705704240983e+00 2.1672372967080746e+00 0.0000000000000000e+00  1.7863708523383295e+00 2.1792933307843949e+00 0.0000000000000000e+00  1.7908727590426523e+00 2.1906701023956665e+00 0.0000000000000000e+00  1.7953241510750479e+00 2.2017123304882795e+00 0.0000000000000000e+00  1.7994652090269097e+00 2.2121017858643555e+00 0.0000000000000000e+00  1.8036046644808277e+00 2.2222837759080196e+00 0.0000000000000000e+00  1.8073630926382720e+00 2.2316467481018831e+00 0.0000000000000000e+00  1.8110996410304938e+00 2.2407473395910533e+00 0.0000000000000000e+00  1.8145210302725545e+00 2.2492507355194347e+00 0.0000000000000000e+00  1.8178378199556429e+00 2.2572425064678501e+00 0.0000000000000000e+00  1.8208453275284573e+00 2.2647025571785155e+00 0.0000000000000000e+00  1.8238025041688670e+00 2.2717744425210515e+00 0.0000000000000000e+00  1.8263834547381290e+00 2.2781771991923607e+00 0.0000000000000000e+00  1.8289327632923600e+00 2.2842042534839950e+00 0.0000000000000000e+00  1.8311486231382788e+00 2.2897429759712473e+00 0.0000000000000000e+00  1.8332985364166718e+00 2.2947513084985331e+00 0.0000000000000000e+00  1.8351215081714547e+00 2.2993380952311315e+00 0.0000000000000000e+00  1.8369421709590643e+00 2.3035487424500212e+00 0.0000000000000000e+00  1.8383903538271613e+00 2.3072237158339601e+00 0.0000000000000000e+00  1.8398842624743508e+00 2.3106137457157696e+00 0.0000000000000000e+00  1.8410189754395481e+00 2.3135933498564771e+00 0.0000000000000000e+00  1.8422226084146780e+00 2.3162282408527344e+00 0.0000000000000000e+00  1.8430657785231297e+00 2.3185225022460041e+00 0.0000000000000000e+00  1.8440356472877135e+00 2.3206153426605995e+00 0.0000000000000000e+00  1.8446235001192328e+00 2.3222992142751502e+00 0.0000000000000000e+00  1.8454025727740067e+00 2.3238836761971746e+00 0.0000000000000000e+00  1.8457768572745223e+00 2.3251571380322278e+00 0.0000000000000000e+00  1.8464039407761375e+00 2.3262796078973373e+00 0.0000000000000000e+00  1.8466127799615573e+00 2.3272190828442052e+00 0.0000000000000000e+00  1.8471182863647186e+00 2.3280173931699397e+00 0.0000000000000000e+00  1.8471904038096698e+00 2.3286838430633106e+00 0.0000000000000000e+00  1.8476240528189609e+00 2.3292158456552552e+00 0.0000000000000000e+00  1.8475791111321729e+00 2.3297225266227528e+00 0.0000000000000000e+00  1.8479621923164771e+00 2.3300084440103324e+00 0.0000000000000000e+00  1.8478415840823532e+00 2.3304449554746891e+00 0.0000000000000000e+00  1.8481775841150347e+00 2.3305294462341926e+00 0.0000000000000000e+00  1.8480093646564455e+00 2.3309170701140132e+00 0.0000000000000000e+00  1.8483208647808624e+00 2.3308797954338165e+00 0.0000000000000000e+00  1.8480998372288802e+00 2.3312176731023087e+00 0.0000000000000000e+00  1.8484176174585634e+00 2.3310883206158977e+00 0.0000000000000000e+00  1.8481575313786496e+00 2.3314455211250231e+00 0.0000000000000000e+00  1.8484487769309152e+00 2.3311835090463591e+00 0.0000000000000000e+00  1.8482189987064435e+00 2.3315864021237203e+00 0.0000000000000000e+00  1.8484585885401115e+00 2.3312933575193604e+00 0.0000000000000000e+00  1.8482223056652560e+00 2.3316016643158086e+00 0.0000000000000000e+00  1.8484990872126108e+00 2.3313929598159975e+00 0.0000000000000000e+00  1.8482195063835500e+00 2.3316640946677678e+00 0.0000000000000000e+00  1.8484696000046714e+00 2.3313306657679789e+00 0.0000000000000000e+00  1.8482801245065856e+00 2.3318013170494600e+00 0.0000000000000000e+00  1.8484259153383884e+00 2.3313235268479291e+00 0.0000000000000000e+00  1.8482710900647332e+00 2.3317020623241680e+00 0.0000000000000000e+00  1.8484639270161594e+00 2.3315458117035490e+00 0.0000000000000000e+00  1.8482418222110601e+00 2.3315304676072746e+00 0.0000000000000000e+00  1.8484283126158370e+00 2.3315821770607159e+00 0.0000000000000000e+00  1.8483108341485519e+00 2.3316809557558340e+00 0.0000000000000000e+00  1.8483605585906535e+00 2.3313597424024661e+00 0.0000000000000000e+00  1.8483122108959618e+00 2.3318292438992554e+00 0.0000000000000000e+00  1.8483966741269022e+00 2.3314086985353466e+00 0.0000000000000000e+00  1.8482678277687852e+00 2.3315830301937499e+00 0.0000000000000000e+00  1.8483795102759053e+00 2.3317492835888105e+00 0.0000000000000000e+00  1.8483264945763340e+00 2.3312906497035377e+00 0.0000000000000000e+00  1.8483022113806789e+00 2.3318581391647113e+00 0.0000000000000000e+00  1.8483491592810499e+00 2.3314240494367384e+00 0.0000000000000000e+00  1.8483222854181085e+00 2.3314947297710074e+00 0.0000000000000000e+00  1.8483021659068157e+00 2.3318726616560941e+00 0.0000000000000000e+00  1.8483249912088084e+00 2.3311499882710907e+00 0.0000000000000000e+00  1.8483353931897712e+00 2.3319107603084044e+00 0.0000000000000000e+00  1.8482629580424221e+00 2.3314598952509309e+00 0.0000000000000000e+00  1.8483635685369446e+00 2.3313466667101022e+00 0.0000000000000000e+00  1.8482670287092569e+00 2.3319995153176483e+00 0.0000000000000000e+00  1.8483289188588614e+00 2.3310361248568916e+00 0.0000000000000000e+00  1.8482792723764969e+00 2.3319671552659202e+00 0.0000000000000000e+00  1.8483296047297422e+00 2.3313048753946597e+00 0.0000000000000000e+00  1.8481998648048106e+00 2.3317301260425580e+00 0.0000000000000000e+00  1.8482676106474927e+00 2.3316583484098454e+00 0.0000000000000000e+00  1.8480345402754044e+00 2.3318993591721910e+00 0.0000000000000000e+00  1.8479553694662925e+00 2.3321422521263417e+00 0.0000000000000000e+00  1.8477085205267498e+00 2.3324507761058655e+00 0.0000000000000000e+00  1.8475360648003403e+00 2.3326545197867290e+00 0.0000000000000000e+00  1.8474631725130686e+00 2.3329145086884902e+00 0.0000000000000000e+00  1.8474534435792904e+00 2.3323695687027679e+00 0.0000000000000000e+00  1.8478991714354382e+00 2.3325007350803508e+00 0.0000000000000000e+00  1.8479485942791181e+00 2.3310438770250799e+00 0.0000000000000000e+00  1.8488288043655579e+00 2.3314591402113405e+00 0.0000000000000000e+00  1.8484995638143074e+00 2.3297095062736859e+00 0.0000000000000000e+00  1.8494344194755199e+00 2.3310617451982072e+00 0.0000000000000000e+00  1.8486135818974414e+00 2.3285606599088418e+00 0.0000000000000000e+00  1.8499436923054118e+00 2.3317478579243360e+00 0.0000000000000000e+00  1.8490856679424421e+00 2.3258324095857761e+00 0.0000000000000000e+00  1.8503882187868674e+00 2.3312484661530268e+00 0.0000000000000000e+00  1.8228997591659206e+00 2.3917810298900251e+00 0.0000000000000000e+00  2.0639798877658504e+00 1.8501718091161798e+00 0.0000000000000000e+00  2.6510370254399089e+00 5.6804192514999097e-01 0.0000000000000000e+00  2.9375404944379548e+00 7.2261910127036075e-02 0.0000000000000000e+00  2.9747616079768244e+00 6.9987241058156197e-03 0.0000000000000000e+00  2.9616913483893521e+00 1.1283657348468600e-02 0.0000000000000000e+00  2.9712085082731923e+00 -1.6451354273539990e-03 0.0000000000000000e+00  2.9715493050981365e+00 9.3013446605893515e-05 0.0000000000000000e+00  2.9710858216964269e+00 -1.1029194605548505e-03 0.0000000000000000e+00  2.9724831100678926e+00 -4.5459203087873821e-03 0.0000000000000000e+00  2.9725890092554290e+00 -3.8598051646994442e-03 0.0000000000000000e+00  2.9714092623627844e+00 -3.2231446157277837e-03 0.0000000000000000e+00  2.9718803516870635e+00 -4.0125448612362896e-03 0.0000000000000000e+00  2.9717539679401752e+00 -5.1227635143021770e-03 0.0000000000000000e+00  2.9721532026823896e+00 -5.8323545070924129e-03 0.0000000000000000e+00  2.9717322699050599e+00 -6.4428819375269286e-03 0.0000000000000000e+00  2.9720143598801494e+00 -6.7985385447415945e-03 0.0000000000000000e+00  2.9716492359056712e+00 -7.4087787776707459e-03 0.0000000000000000e+00  2.9720068770284809e+00 -7.6268609378391987e-03 0.0000000000000000e+00  2.9717160877111670e+00 -8.0817406264299101e-03 0.0000000000000000e+00  2.9719692940969384e+00 -8.1737760542891242e-03 0.0000000000000000e+00  2.9716862823623011e+00 -8.2858087722334443e-03 0.0000000000000000e+00  2.9719575757580463e+00 -8.3772229158322487e-03 0.0000000000000000e+00  2.9716753094355806e+00 -8.4841733318151806e-03 0.0000000000000000e+00  2.9719408816992812e+00 -8.4511414828807516e-03 0.0000000000000000e+00  2.9716865126161904e+00 -8.5128111822539362e-03 0.0000000000000000e+00  2.9719118219007186e+00 -8.5874262808969277e-03 0.0000000000000000e+00  2.9716820669179693e+00 -8.4545968382662377e-03 0.0000000000000000e+00  2.9719054338324633e+00 -8.5995524763804159e-03 0.0000000000000000e+00  2.9716705327646866e+00 -8.6388612249405725e-03 0.0000000000000000e+00  2.9719010916172230e+00 -8.4189540616175004e-03 0.0000000000000000e+00  2.9716798895594363e+00 -8.8147395639767805e-03 0.0000000000000000e+00  2.9718716637077556e+00 -8.6046866564905896e-03 0.0000000000000000e+00  2.9717118454535387e+00 -8.4826670295773555e-03 0.0000000000000000e+00  2.9718588181232981e+00 -8.8900600174101358e-03 0.0000000000000000e+00  2.9717180938748542e+00 -8.6156419928913319e-03 0.0000000000000000e+00  2.9718762282246334e+00 -8.5556963991440006e-03 0.0000000000000000e+00  2.9717312788971664e+00 -9.6212651998036081e-03 0.0000000000000000e+00  2.9718687896478038e+00 -8.3312834330142912e-03 0.0000000000000000e+00  2.9717736788844529e+00 -9.5803285971803823e-03 0.0000000000000000e+00  2.9718673771212343e+00 -9.6189071534946990e-03 0.0000000000000000e+00  2.9717853840290318e+00 -8.6059439084418456e-03 0.0000000000000000e+00  2.9718906872053461e+00 -1.4737350402479846e-02 0.0000000000000000e+00  2.9717964352454711e+00 -1.0104033915532211e-02 0.0000000000000000e+00  2.9718856910880072e+00 0.0000000000000000e+00 0.0000000000000000e+00  1.7154175840593324e+00 0.0000000000000000e+00 1.3731820593057505e-05  1.7153928976454924e+00 3.9732421308957697e-02 -9.9399698403304161e-06  1.7153808120789213e+00 7.9449364386594348e-02 1.3236439989334563e-05  1.7153276482226003e+00 1.1915971857562165e-01 -1.5018205905437209e-05  1.7152752169162389e+00 1.5889271141357780e-01 1.7618576067003259e-05  1.7151896579991230e+00 1.9856404360547678e-01 -2.1505274122820592e-05  1.7151008230363007e+00 2.3828883938686801e-01 2.6621552152243257e-05  1.7149830883745754e+00 2.7793845113452365e-01 -3.3520673895155313e-05  1.7148577384453489e+00 3.1763250395811221e-01 4.0241355610296130e-05  1.7147045026558709e+00 3.5724259247509910e-01 -4.7859030917750589e-05  1.7145477433402527e+00 3.9692078515931234e-01 5.5151743304822845e-05  1.7143570824469867e+00 4.3646546942581321e-01 -6.3616528203942928e-05  1.7141648817026096e+00 4.7611160555495324e-01 7.1549870066663724e-05  1.7139434463698835e+00 5.1559638796215346e-01 -8.0259941646979621e-05  1.7137130790832364e+00 5.5520525608568694e-01 8.8297830183250295e-05  1.7134570278936716e+00 5.9458058078640963e-01 -9.7179460079693607e-05  1.7131955182497347e+00 6.3418262247712731e-01 1.0500120194618950e-04  1.7129023485546027e+00 6.7343970397670994e-01 -1.1177857909145250e-04  1.7126058270539770e+00 7.1295441390347558e-01 1.1504292642854359e-04  1.7122829150792198e+00 7.5216865257407051e-01 -1.1582591453176512e-04  1.7119494041549386e+00 7.9154535272918303e-01 1.1389997657334366e-04  1.7115931852657855e+00 8.3064869452078471e-01 -1.1129204423867386e-04  1.7112302098112608e+00 8.6996248432359746e-01 1.0811504236171886e-04  1.7108395924599391e+00 9.0889971210238585e-01 -1.0552545207122668e-04  1.7104449163173985e+00 9.4807128389136719e-01 1.0180660278309234e-04  1.7100264341710949e+00 9.8691780515936933e-01 -9.5721556666648230e-05  1.7096019083335594e+00 1.0258915014086061e+00 8.6835781888580538e-05  1.7091541907828602e+00 1.0645640806124745e+00 -7.8008800812716869e-05  1.7087062828164248e+00 1.1033843004551862e+00 7.1018309355171312e-05  1.7082348724675327e+00 1.1418528863428405e+00 -6.5520398488245883e-05  1.7077645316332286e+00 1.1804201100275340e+00 5.9520295258439022e-05  1.7072757572833823e+00 1.2186943832005466e+00 -5.3054902996805203e-05  1.7067953354182477e+00 1.2569928611838224e+00 4.6620799364659512e-05  1.7062928888670243e+00 1.2949612934944441e+00 -4.0891711859293414e-05  1.7058106454689732e+00 1.3329633659012985e+00 3.5104661929691114e-05  1.7053175954353039e+00 1.3706089215013724e+00 -3.0105252089015289e-05  1.7048418026067509e+00 1.4081839504639060e+00 2.6021132060692386e-05  1.7043721149332514e+00 1.4454310117816260e+00 -2.3124569383208734e-05  1.7039437840440079e+00 1.4825567220898275e+00 2.0038920473449164e-05  1.7035144933001054e+00 1.5192244255859100e+00 -1.6507572626646556e-05  1.7031628043284113e+00 1.5557681528225835e+00 1.2843170257853833e-05  1.7028445025444290e+00 1.5917934996027050e+00 -9.8405618366878749e-06  1.7026069146528313e+00 1.6274901003764082e+00 6.4283709084669854e-06  1.7024612829152332e+00 1.6626505890273275e+00 -3.0554856662191381e-06  1.7024592396290628e+00 1.6973507854223180e+00 -6.5015094214529110e-07  1.7025650574451430e+00 1.7312226750593573e+00 3.2984448067099603e-06  1.7029242966392582e+00 1.7645544341764439e+00 -7.3983956206706290e-06  1.7034848304160497e+00 1.7968269961555823e+00 1.1617122233775353e-05  1.7043605927843182e+00 1.8281193736011649e+00 -1.6834511997000645e-05  1.7055987239057813e+00 1.8582023373340011e+00 2.1148315788371674e-05  1.7072948910490831e+00 1.8869224983419752e+00 -2.5618852073582106e-05  1.7094305967468679e+00 1.9139330738600202e+00 3.0822413483221238e-05  1.7122096353743845e+00 1.9394304606752641e+00 -3.3579985734014154e-05  1.7155073010763495e+00 1.9629426870223412e+00 4.0472540054088162e-05  1.7194268269080362e+00 1.9846611161272441e+00 -4.2779076136130425e-05  1.7238740039483622e+00 2.0047359542567502e+00 4.8965136044706807e-05  1.7287948237160990e+00 2.0231990767914723e+00 -5.0073750371097452e-05  1.7339737599518785e+00 2.0403651574701622e+00 5.1061263477823988e-05  1.7394585997661254e+00 2.0566803697212399e+00 -5.2355770980149273e-05  1.7449340819660670e+00 2.0721129977646515e+00 4.9379377183367414e-05  1.7504709690769502e+00 2.0869707455208548e+00 -4.9124428187181200e-05  1.7559371970966586e+00 2.1014933399314573e+00 4.5068866461152023e-05  1.7613317943906213e+00 2.1154236272669040e+00 -4.1005103008800462e-05  1.7665632218667242e+00 2.1290075323520914e+00 3.4300121476038349e-05  1.7717650409564427e+00 2.1422690642802649e+00 -2.6532254747451479e-05  1.7767336642674756e+00 2.1549818392746674e+00 1.6791548637221695e-05  1.7816170574296526e+00 2.1673186797883273e+00 -7.0492910846149729e-06  1.7863422407751046e+00 2.1792918682139568e+00 -4.3148807061898557e-06  1.7908919880319800e+00 2.1906971178975505e+00 1.4661236148400784e-05  1.7952692010319116e+00 2.2016465764931992e+00 -2.7549575683810487e-05  1.7995184016735206e+00 2.2122734444440169e+00 4.0302892218797360e-05  1.8035311297169963e+00 2.2221568110346266e+00 -5.4637716328450880e-05  1.8073824099718732e+00 2.2317679838696112e+00 6.8753066700729762e-05  1.8110749019843515e+00 2.2407468211239423e+00 -8.2064663663017316e-05  1.8145086570177904e+00 2.2493112625597944e+00 9.6081400388266491e-05  1.8177999583241200e+00 2.2571852810210107e+00 -1.0896455168664443e-04  1.8208696609408965e+00 2.2648874626015054e+00 1.2523714879866918e-04  1.8237474207823670e+00 2.2716367840439982e+00 -1.3909682074844345e-04  1.8263922534069865e+00 2.2783292401105522e+00 1.5610190975490004e-04  1.8289190812245315e+00 2.2841511205108120e+00 -1.6895358567389131e-04  1.8311397273232042e+00 2.2898430783266854e+00 1.8496126460729385e-04  1.8332787463035471e+00 2.2946392142978196e+00 -1.9794544433214634e-04  1.8