<?xml version="1.0"?>
<VTKFile type="UnstructuredGrid"  version="0.1"  >
<UnstructuredGrid>
<Piece  NumberOfPoints="8241" NumberOfCells="16000">
<Points>
<DataArray  type="Float64"  NumberOfComponents="3"  format="ascii">-5 -1 0  -4.95 -1 0  -4.9 -1 0  -4.85 -1 0  -4.8 -1 0  -4.75 -1 0  -4.7 -1 0  -4.65 -1 0  -4.6 -1 0  -4.55 -1 0  -4.5 -1 0  -4.45 -1 0  -4.4 -1 0  -4.35 -1 0  -4.3 -1 0  -4.25 -1 0  -4.2 -1 0  -4.15 -1 0  -4.1 -1 0  -4.05 -1 0  -4 -1 0  -3.95 -1 0  -3.9 -1 0  -3.85 -1 0  -3.8 -1 0  -3.75 -1 0  -3.7 -1 0  -3.65 -1 0  -3.6 -1 0  -3.55 -1 0  -3.5 -1 0  -3.45 -1 0  -3.4 -1 0  -3.35 -1 0  -3.3 -1 0  -3.25 -1 0  -3.2 -1 0  -3.15 -1 0  -3.1 -1 0  -3.05 -1 0  -3 -1 0  -2.95 -1 0  -2.9 -1 0  -2.85 -1 0  -2.8 -1 0  -2.75 -1 0  -2.7 -1 0  -2.65 -1 0  -2.6 -1 0  -2.55 -1 0  -2.5 -1 0  -2.45 -1 0  -2.4 -1 0  -2.35 -1 0  -2.3 -1 0  -2.25 -1 0  -2.2 -1 0  -2.15 -1 0  -2.1 -1 0  -2.05 -1 0  -2 -1 0  -1.95 -1 0  -1.9 -1 0  -1.85 -1 0  -1.8 -1 0  -1.75 -1 0  -1.7 -1 0  -1.65 -1 0  -1.6 -1 0  -1.55 -1 0  -1.5 -1 0  -1.45 -1 0  -1.4 -1 0  -1.35 -1 0  -1.3 -1 0  -1.25 -1 0  -1.2 -1 0  -1.15 -1 0  -1.1 -1 0  -1.05 -1 0  -1 -1 0  -0.9500000000000002 -1 0  -0.9000000000000004 -1 0  -0.8499999999999996 -1 0  -0.7999999999999998 -1 0  -0.75 -1 0  -0.7000000000000002 -1 0  -0.6500000000000004 -1 0  -0.5999999999999996 -1 0  -0.5499999999999998 -1 0  -0.5 -1 0  -0.4500000000000002 -1 0  -0.4000000000000004 -1 0  -0.3499999999999996 -1 0  -0.2999999999999998 -1 0  -0.25 -1 0  -0.2000000000000002 -1 0  -0.1500000000000004 -1 0  -0.09999999999999964 -1 0  -0.04999999999999982 -1 0  0 -1 0  0.04999999999999982 -1 0  0.09999999999999964 -1 0  0.1500000000000004 -1 0  0.2000000000000002 -1 0  0.25 -1 0  0.2999999999999998 -1 0  0.3499999999999996 -1 0  0.4000000000000004 -1 0  0.4500000000000002 -1 0  0.5 -1 0  0.5499999999999998 -1 0  0.5999999999999996 -1 0  0.6500000000000004 -1 0  0.7000000000000002 -1 0  0.75 -1 0  0.7999999999999998 -1 0  0.8499999999999996 -1 0  0.9000000000000004 -1 0  0.9500000000000002 -1 0  1 -1 0  1.05 -1 0  1.1 -1 0  1.15 -1 0  1.2 -1 0  1.25 -1 0  1.3 -1 0  1.35 -1 0  1.4 -1 0  1.45 -1 0  1.5 -1 0  1.55 -1 0  1.6 -1 0  1.65 -1 0  1.7 -1 0  1.75 -1 0  1.8 -1 0  1.85 -1 0  1.9 -1 0  1.95 -1 0  2 -1 0  2.05 -1 0  2.1 -1 0  2.15 -1 0  2.2 -1 0  2.25 -1 0  2.3 -1 0  2.35 -1 0  2.4 -1 0  2.45 -1 0  2.5 -1 0  2.55 -1 0  2.6 -1 0  2.65 -1 0  2.7 -1 0  2.75 -1 0  2.8 -1 0  2.85 -1 0  2.9 -1 0  2.95 -1 0  3 -1 0  3.050000000000001 -1 0  3.1 -1 0  3.15 -1 0  3.199999999999999 -1 0  3.25 -1 0  3.300000000000001 -1 0  3.35 -1 0  3.4 -1 0  3.449999999999999 -1 0  3.5 -1 0  3.550000000000001 -1 0  3.6 -1 0  3.65 -1 0  3.699999999999999 -1 0  3.75 -1 0  3.800000000000001 -1 0  3.85 -1 0  3.9 -1 0  3.949999999999999 -1 0  4 -1 0  4.050000000000001 -1 0  4.1 -1 0  4.15 -1 0  4.199999999999999 -1 0  4.25 -1 0  4.300000000000001 -1 0  4.35 -1 0  4.4 -1 0  4.449999999999999 -1 0  4.5 -1 0  4.550000000000001 -1 0  4.6 -1 0  4.65 -1 0  4.699999999999999 -1 0  4.75 -1 0  4.800000000000001 -1 0  4.85 -1 0  4.9 -1 0  4.949999999999999 -1 0  5 -1 0  -5 -0.95 0  -4.95 -0.95 0  -4.9 -0.95 0  -4.85 -0.95 0  -4.8 -0.95 0  -4.75 -0.95 0  -4.7 -0.95 0  -4.65 -0.95 0  -4.6 -0.95 0  -4.55 -0.95 0  -4.5 -0.95 0  -4.45 -0.95 0  -4.4 -0.95 0  -4.35 -0.95 0  -4.3 -0.95 0  -4.25 -0.95 0  -4.2 -0.95 0  -4.15 -0.95 0  -4.1 -0.95 0  -4.05 -0.95 0  -4 -0.95 0  -3.95 -0.95 0  -3.9 -0.95 0  -3.85 -0.95 0  -3.8 -0.95 0  -3.75 -0.95 0  -3.7 -0.95 0  -3.65 -0.95 0  -3.6 -0.95 0  -3.55 -0.95 0  -3.5 -0.95 0  -3.45 -0.95 0  -3.4 -0.95 0  -3.35 -0.95 0  -3.3 -0.95 0  -3.25 -0.95 0  -3.2 -0.95 0  -3.15 -0.95 0  -3.1 -0.95 0  -3.05 -0.95 0  -3 -0.95 0  -2.95 -0.95 0  -2.9 -0.95 0  -2.85 -0.95 0  -2.8 -0.95 0  -2.75 -0.95 0  -2.7 -0.95 0  -2.65 -0.95 0  -2.6 -0.95 0  -2.55 -0.95 0  -2.5 -0.95 0  -2.45 -0.95 0  -2.4 -0.95 0  -2.35 -0.95 0  -2.3 -0.95 0  -2.25 -0.95 0  -2.2 -0.95 0  -2.15 -0.95 0  -2.1 -0.95 0  -2.05 -0.95 0  -2 -0.95 0  -1.95 -0.95 0  -1.9 -0.95 0  -1.85 -0.95 0  -1.8 -0.95 0  -1.75 -0.95 0  -1.7 -0.95 0  -1.65 -0.95 0  -1.6 -0.95 0  -1.55 -0.95 0  -1.5 -0.95 0  -1.45 -0.95 0  -1.4 -0.95 0  -1.35 -0.95 0  -1.3 -0.95 0  -1.25 -0.95 0  -1.2 -0.95 0  -1.15 -0.95 0  -1.1 -0.95 0  -1.05 -0.95 0  -1 -0.95 0  -0.9500000000000002 -0.95 0  -0.9000000000000004 -0.95 0  -0.8499999999999996 -0.95 0  -0.7999999999999998 -0.95 0  -0.75 -0.95 0  -0.7000000000000002 -0.95 0  -0.6500000000000004 -0.95 0  -0.5999999999999996 -0.95 0  -0.5499999999999998 -0.95 0  -0.5 -0.95 0  -0.4500000000000002 -0.95 0  -0.4000000000000004 -0.95 0  -0.3499999999999996 -0.95 0  -0.2999999999999998 -0.95 0  -0.25 -0.95 0  -0.2000000000000002 -0.95 0  -0.1500000000000004 -0.95 0  -0.09999999999999964 -0.95 0  -0.04999999999999982 -0.95 0  0 -0.95 0  0.04999999999999982 -0.95 0  0.09999999999999964 -0.95 0  0.1500000000000004 -0.95 0  0.2000000000000002 -0.95 0  0.25 -0.95 0  0.2999999999999998 -0.95 0  0.3499999999999996 -0.95 0  0.4000000000000004 -0.95 0  0.4500000000000002 -0.95 0  0.5 -0.95 0  0.5499999999999998 -0.95 0  0.5999999999999996 -0.95 0  0.6500000000000004 -0.95 0  0.7000000000000002 -0.95 0  0.75 -0.95 0  0.7999999999999998 -0.95 0  0.8499999999999996 -0.95 0  0.9000000000000004 -0.95 0  0.9500000000000002 -0.95 0  1 -0.95 0  1.05 -0.95 0  1.1 -0.95 0  1.15 -0.95 0  1.2 -0.95 0  1.25 -0.95 0  1.3 -0.95 0  1.35 -0.95 0  1.4 -0.95 0  1.45 -0.95 0  1.5 -0.95 0  1.55 -0.95 0  1.6 -0.95 0  1.65 -0.95 0  1.7 -0.95 0  1.75 -0.95 0  1.8 -0.95 0  1.85 -0.95 0  1.9 -0.95 0  1.95 -0.95 0  2 -0.95 0  2.05 -0.95 0  2.1 -0.95 0  2.15 -0.95 0  2.2 -0.95 0  2.25 -0.95 0  2.3 -0.95 0  2.35 -0.95 0  2.4 -0.95 0  2.45 -0.95 0  2.5 -0.95 0  2.55 -0.95 0  2.6 -0.95 0  2.65 -0.95 0  2.7 -0.95 0  2.75 -0.95 0  2.8 -0.95 0  2.85 -0.95 0  2.9 -0.95 0  2.95 -0.95 0  3 -0.95 0  3.050000000000001 -0.95 0  3.1 -0.95 0  3.15 -0.95 0  3.199999999999999 -0.95 0  3.25 -0.95 0  3.300000000000001 -0.95 0  3.35 -0.95 0  3.4 -0.95 0  3.449999999999999 -0.95 0  3.5 -0.95 0  3.550000000000001 -0.95 0  3.6 -0.95 0  3.65 -0.95 0  3.699999999999999 -0.95 0  3.75 -0.95 0  3.800000000000001 -0.95 0  3.85 -0.95 0  3.9 -0.95 0  3.949999999999999 -0.95 0  4 -0.95 0  4.050000000000001 -0.95 0  4.1 -0.95 0  4.15 -0.95 0  4.199999999999999 -0.95 0  4.25 -0.95 0  4.300000000000001 -0.95 0  4.35 -0.95 0  4.4 -0.95 0  4.449999999999999 -0.95 0  4.5 -0.95 0  4.550000000000001 -0.95 0  4.6 -0.95 0  4.65 -0.95 0  4.699999999999999 -0.95 0  4.75 -0.95 0  4.800000000000001 -0.95 0  4.85 -0.95 0  4.9 -0.95 0  4.949999999999999 -0.95 0  5 -0.95 0  -5 -0.9 0  -4.95 -0.9 0  -4.9 -0.9 0  -4.85 -0.9 0  -4.8 -0.9 0  -4.75 -0.9 0  -4.7 -0.9 0  -4.65 -0.9 0  -4.6 -0.9 0  -4.55 -0.9 0  -4.5 -0.9 0  -4.45 -0.9 0  -4.4 -0.9 0  -4.35 -0.9 0  -4.3 -0.9 0  -4.25 -0.9 0  -4.2 -0.9 0  -4.15 -0.9 0  -4.1 -0.9 0  -4.05 -0.9 0  -4 -0.9 0  -3.95 -0.9 0  -3.9 -0.9 0  -3.85 -0.9 0  -3.8 -0.9 0  -3.75 -0.9 0  -3.7 -0.9 0  -3.65 -0.9 0  -3.6 -0.9 0  -3.55 -0.9 0  -3.5 -0.9 0  -3.45 -0.9 0  -3.4 -0.9 0  -3.35 -0.9 0  -3.3 -0.9 0  -3.25 -0.9 0  -3.2 -0.9 0  -3.15 -0.9 0  -3.1 -0.9 0  -3.05 -0.9 0  -3 -0.9 0  -2.95 -0.9 0  -2.9 -0.9 0  -2.85 -0.9 0  -2.8 -0.9 0  -2.75 -0.9 0  -2.7 -0.9 0  -2.65 -0.9 0  -2.6 -0.9 0  -2.55 -0.9 0  -2.5 -0.9 0  -2.45 -0.9 0  -2.4 -0.9 0  -2.35 -0.9 0  -2.3 -0.9 0  -2.25 -0.9 0  -2.2 -0.9 0  -2.15 -0.9 0  -2.1 -0.9 0  -2.05 -0.9 0  -2 -0.9 0  -1.95 -0.9 0  -1.9 -0.9 0  -1.85 -0.9 0  -1.8 -0.9 0  -1.75 -0.9 0  -1.7 -0.9 0  -1.65 -0.9 0  -1.6 -0.9 0  -1.55 -0.9 0  -1.5 -0.9 0  -1.45 -0.9 0  -1.4 -0.9 0  -1.35 -0.9 0  -1.3 -0.9 0  -1.25 -0.9 0  -1.2 -0.9 0  -1.15 -0.9 0  -1.1 -0.9 0  -1.05 -0.9 0  -1 -0.9 0  -0.9500000000000002 -0.9 0  -0.9000000000000004 -0.9 0  -0.8499999999999996 -0.9 0  -0.7999999999999998 -0.9 0  -0.75 -0.9 0  -0.7000000000000002 -0.9 0  -0.6500000000000004 -0.9 0  -0.5999999999999996 -0.9 0  -0.5499999999999998 -0.9 0  -0.5 -0.9 0  -0.4500000000000002 -0.9 0  -0.4000000000000004 -0.9 0  -0.3499999999999996 -0.9 0  -0.2999999999999998 -0.9 0  -0.25 -0.9 0  -0.2000000000000002 -0.9 0  -0.1500000000000004 -0.9 0  -0.09999999999999964 -0.9 0  -0.04999999999999982 -0.9 0  0 -0.9 0  0.04999999999999982 -0.9 0  0.09999999999999964 -0.9 0  0.1500000000000004 -0.9 0  0.2000000000000002 -0.9 0  0.25 -0.9 0  0.2999999999999998 -0.9 0  0.3499999999999996 -0.9 0  0.4000000000000004 -0.9 0  0.4500000000000002 -0.9 0  0.5 -0.9 0  0.5499999999999998 -0.9 0  0.5999999999999996 -0.9 0  0.6500000000000004 -0.9 0  0.7000000000000002 -0.9 0  0.75 -0.9 0  0.7999999999999998 -0.9 0  0.8499999999999996 -0.9 0  0.9000000000000004 -0.9 0  0.9500000000000002 -0.9 0  1 -0.9 0  1.05 -0.9 0  1.1 -0.9 0  1.15 -0.9 0  1.2 -0.9 0  1.25 -0.9 0  1.3 -0.9 0  1.35 -0.9 0  1.4 -0.9 0  1.45 -0.9 0  1.5 -0.9 0  1.55 -0.9 0  1.6 -0.9 0  1.65 -0.9 0  1.7 -0.9 0  1.75 -0.9 0  1.8 -0.9 0  1.85 -0.9 0  1.9 -0.9 0  1.95 -0.9 0  2 -0.9 0  2.05 -0.9 0  2.1 -0.9 0  2.15 -0.9 0  2.2 -0.9 0  2.25 -0.9 0  2.3 -0.9 0  2.35 -0.9 0  2.4 -0.9 0  2.45 -0.9 0  2.5 -0.9 0  2.55 -0.9 0  2.6 -0.9 0  2.65 -0.9 0  2.7 -0.9 0  2.75 -0.9 0  2.8 -0.9 0  2.85 -0.9 0  2.9 -0.9 0  2.95 -0.9 0  3 -0.9 0  3.050000000000001 -0.9 0  3.1 -0.9 0  3.15 -0.9 0  3.199999999999999 -0.9 0  3.25 -0.9 0  3.300000000000001 -0.9 0  3.35 -0.9 0  3.4 -0.9 0  3.449999999999999 -0.9 0  3.5 -0.9 0  3.550000000000001 -0.9 0  3.6 -0.9 0  3.65 -0.9 0  3.699999999999999 -0.9 0  3.75 -0.9 0  3.800000000000001 -0.9 0  3.85 -0.9 0  3.9 -0.9 0  3.949999999999999 -0.9 0  4 -0.9 0  4.050000000000001 -0.9 0  4.1 -0.9 0  4.15 -0.9 0  4.199999999999999 -0.9 0  4.25 -0.9 0  4.300000000000001 -0.9 0  4.35 -0.9 0  4.4 -0.9 0  4.449999999999999 -0.9 0  4.5 -0.9 0  4.550000000000001 -0.9 0  4.6 -0.9 0  4.65 -0.9 0  4.699999999999999 -0.9 0  4.75 -0.9 0  4.800000000000001 -0.9 0  4.85 -0.9 0  4.9 -0.9 0  4.949999999999999 -0.9 0  5 -0.9 0  -5 -0.85 0  -4.95 -0.85 0  -4.9 -0.85 0  -4.85 -0.85 0  -4.8 -0.85 0  -4.75 -0.85 0  -4.7 -0.85 0  -4.65 -0.85 0  -4.6 -0.85 0  -4.55 -0.85 0  -4.5 -0.85 0  -
[...]
<PointData  Vectors="f_15"> 
<DataArray  type="Float64"  Name="f_15"  NumberOfComponents="3" format="ascii">9.9940639583070361e+00 0.0000000000000000e+00 0.0000000000000000e+00  9.9969276347711613e+00 -6.5853432579279364e-03 0.0000000000000000e+00  9.9931562836831187e+00 6.9283697069343212e-03 0.0000000000000000e+00  9.9950990247481197e+00 -4.3470117206704188e-03 0.0000000000000000e+00  9.9914499297839541e+00 7.2214929848935065e-03 0.0000000000000000e+00  9.9918358561307166e+00 -5.0343102108050587e-04 0.0000000000000000e+00  9.9881915125534650e+00 8.9528324365196754e-03 0.0000000000000000e+00  9.9871117800972442e+00 3.6595049959478906e-03 0.0000000000000000e+00  9.9828945140479952e+00 1.3528928641444241e-02 0.0000000000000000e+00  9.9800853541470307e+00 9.7999551595008890e-03 0.0000000000000000e+00  9.9749932489796951e+00 2.0705564709103334e-02 0.0000000000000000e+00  9.9698273982793104e+00 1.9528017419646375e-02 0.0000000000000000e+00  9.9633911975586180e+00 3.1701921997651948e-02 0.0000000000000000e+00  9.9554901058568319e+00 3.3336311896885858e-02 0.0000000000000000e+00  9.9466962022902301e+00 4.8204542710366532e-02 0.0000000000000000e+00  9.9358320329588583e+00 5.2636990331515601e-02 0.0000000000000000e+00  9.9239299391602191e+00 7.0857859100618523e-02 0.0000000000000000e+00  9.9091568011981384e+00 7.9322571591272401e-02 0.0000000000000000e+00  9.8938916475107899e+00 1.0099816950963954e-01 0.0000000000000000e+00  9.8746046385959119e+00 1.1396633606280610e-01 0.0000000000000000e+00  9.8548167319603284e+00 1.4053082229321229e-01 0.0000000000000000e+00  9.8312669667814099e+00 1.5760693420710808e-01 0.0000000000000000e+00  9.8062246234164032e+00 1.8969837693430069e-01 0.0000000000000000e+00  9.7775447545119949e+00 2.1199078754283998e-01 0.0000000000000000e+00  9.7477288142021710e+00 2.4898907873933693e-01 0.0000000000000000e+00  9.7134852503329885e+00 2.7687727846789356e-01 0.0000000000000000e+00  9.6780832631343969e+00 3.1984131514363995e-01 0.0000000000000000e+00  9.6392840126324053e+00 3.5215176749290455e-01 0.0000000000000000e+00  9.5979255614063614e+00 4.0148217652243451e-01 0.0000000000000000e+00  9.5540511075632626e+00 4.3897860473516848e-01 0.0000000000000000e+00  9.5080169750759342e+00 4.9319312205573934e-01 0.0000000000000000e+00  9.4588821252559914e+00 5.3617666822714960e-01 0.0000000000000000e+00  9.4077904111055375e+00 5.9589414456127343e-01 0.0000000000000000e+00  9.3549312936377245e+00 6.4263528288006133e-01 0.0000000000000000e+00  9.2986477947772777e+00 7.0805841139587311e-01 0.0000000000000000e+00  9.2418383638350381e+00 7.5931319980645950e-01 0.0000000000000000e+00  9.1819593815590590e+00 8.2808174687209268e-01 0.0000000000000000e+00  9.1211420132249597e+00 8.8483063350530033e-01 0.0000000000000000e+00  9.0574565444681774e+00 9.5663920403615044e-01 0.0000000000000000e+00  8.9942909383095646e+00 1.0176681067249687e+00 0.0000000000000000e+00  8.9266514547865317e+00 1.0922310194322880e+00 0.0000000000000000e+00  8.8610518889001497e+00 1.1585817586970051e+00 0.0000000000000000e+00  8.7909677684078087e+00 1.2333844004306842e+00 0.0000000000000000e+00  8.7227841255067311e+00 1.3058998213640194e+00 0.0000000000000000e+00  8.6502177502121409e+00 1.3814051691599734e+00 0.0000000000000000e+00  8.5807784871595398e+00 1.4574938841562630e+00 0.0000000000000000e+00  8.5055831903097037e+00 1.5354842261256680e+00 0.0000000000000000e+00  8.4348776466768740e+00 1.6141664040486816e+00 0.0000000000000000e+00  8.3581842982349830e+00 1.6938469710489183e+00 0.0000000000000000e+00  8.2860959704334380e+00 1.7751591217423610e+00 0.0000000000000000e+00  8.2078424371027641e+00 1.8573935198705929e+00 0.0000000000000000e+00  8.1354621287862514e+00 1.9387436252991428e+00 0.0000000000000000e+00  8.0553055880391593e+00 2.0253309795783725e+00 0.0000000000000000e+00  7.9828855613917744e+00 2.1064601171624728e+00 0.0000000000000000e+00  7.9014333587519401e+00 2.1951335005136468e+00 0.0000000000000000e+00  7.8289335707819925e+00 2.2782215731768396e+00 0.0000000000000000e+00  7.7461810593911187e+00 2.3685859939086442e+00 0.0000000000000000e+00  7.6743347275912424e+00 2.4508346690765705e+00 0.0000000000000000e+00  7.5899750145165292e+00 2.5459438214489518e+00 0.0000000000000000e+00  7.5190433183097865e+00 2.6269644693850953e+00 0.0000000000000000e+00  7.4334999003064004e+00 2.7230967483357404e+00 0.0000000000000000e+00  7.3632790655495235e+00 2.8064251998730754e+00 0.0000000000000000e+00  7.2768079629391114e+00 2.9046783435786043e+00 0.0000000000000000e+00  7.2076013934596519e+00 2.9842326208575929e+00 0.0000000000000000e+00  7.1200035531591999e+00 3.0888287474338521e+00 0.0000000000000000e+00  7.0521117145645329e+00 3.1672770430904524e+00 0.0000000000000000e+00  6.9636236653355859e+00 3.2711628838239521e+00 0.0000000000000000e+00  6.8966948722733639e+00 3.3516209045301699e+00 0.0000000000000000e+00  6.8079054947547997e+00 3.4578785180386689e+00 0.0000000000000000e+00  6.7418408523919560e+00 3.5362244565646388e+00 0.0000000000000000e+00  6.6526376470536981e+00 3.6447767985924924e+00 0.0000000000000000e+00  6.5877072604852334e+00 3.7232945927703289e+00 0.0000000000000000e+00  6.4984798437536693e+00 3.8326619504558788e+00 0.0000000000000000e+00  6.4339375833462675e+00 3.9120898573613609e+00 0.0000000000000000e+00  6.3455718021540095e+00 4.0210656943472918e+00 0.0000000000000000e+00  6.2811937955766952e+00 4.1013711424462356e+00 0.0000000000000000e+00  6.1935162582498497e+00 4.2112304328908978e+00 0.0000000000000000e+00  6.1296949341734468e+00 4.2917815215874517e+00 0.0000000000000000e+00  6.0428412219807539e+00 4.4015692821591177e+00 0.0000000000000000e+00  5.9789983809559493e+00 4.4833408077537529e+00 0.0000000000000000e+00  5.8938037648279513e+00 4.5922933774168282e+00 0.0000000000000000e+00  5.8296208877264064e+00 4.6755717329989457e+00 0.0000000000000000e+00  5.7458716775540521e+00 4.7843327917959826e+00 0.0000000000000000e+00  5.6818616686840109e+00 4.8683524977136052e+00 0.0000000000000000e+00  5.5993665704209548e+00 4.9762816433629302e+00 0.0000000000000000e+00  5.5352021049955518e+00 5.0619830178250051e+00 0.0000000000000000e+00  5.4545756904122760e+00 5.1695148339692594e+00 0.0000000000000000e+00  5.3898280457843590e+00 5.2561851595760967e+00 0.0000000000000000e+00  5.3112000757562461e+00 5.3629388309310748e+00 0.0000000000000000e+00  5.2457250279087617e+00 5.4514447263004637e+00 0.0000000000000000e+00  5.1698911114898367e+00 5.5566250588531343e+00 0.0000000000000000e+00  5.1029700996006824e+00 5.6469265276694642e+00 0.0000000000000000e+00  5.0309639643914492e+00 5.7495378434051290e+00 0.0000000000000000e+00  4.9615292458794436e+00 5.8443053738744579e+00 0.0000000000000000e+00  4.8939334596424482e+00 5.9419862686114575e+00 0.0000000000000000e+00  4.8220461863675768e+00 6.0412069524238463e+00 0.0000000000000000e+00  4.7575513558889222e+00 6.1366901612162152e+00 0.0000000000000000e+00  4.6862126649415892e+00 6.2365005406322132e+00 0.0000000000000000e+00  4.6212920421616879e+00 6.3326176560050174e+00 0.0000000000000000e+00  4.5536146452466575e+00 6.4300951489868510e+00 0.0000000000000000e+00  4.4870042207981049e+00 6.5297436272765408e+00 0.0000000000000000e+00  4.4298277312781096e+00 6.6124942453974640e+00 0.0000000000000000e+00  4.3512510165457279e+00 6.7311974384581319e+00 0.0000000000000000e+00  4.2932291121020789e+00 6.8183547529500474e+00 0.0000000000000000e+00  4.2237281485417331e+00 6.9232534229312597e+00 0.0000000000000000e+00  4.1666863800465457e+00 7.0104738137929470e+00 0.0000000000000000e+00  4.1008457494412465e+00 7.1124382966237905e+00 0.0000000000000000e+00  4.0448663280774282e+00 7.1987149689425918e+00 0.0000000000000000e+00  3.9823647687725674e+00 7.2951295880770743e+00 0.0000000000000000e+00  3.9284572853179087e+00 7.3822487072688432e+00 0.0000000000000000e+00  3.8734289228242029e+00 7.4680856147269790e+00 0.0000000000000000e+00  3.8201279361942810e+00 7.5520987438335681e+00 0.0000000000000000e+00  3.7742177568523729e+00 7.6267019985882820e+00 0.0000000000000000e+00  3.8079763488018878e+00 7.5733412543104883e+00 0.0000000000000000e+00  3.8718845845603407e+00 7.4695127437875994e+00 0.0000000000000000e+00  3.9138519718236728e+00 7.4034299818276743e+00 0.0000000000000000e+00  3.9270687005031486e+00 7.3820272611623894e+00 0.0000000000000000e+00  3.9364387654242394e+00 7.3679277211816672e+00 0.0000000000000000e+00  3.9394548763006845e+00 7.3625089378301380e+00 0.0000000000000000e+00  3.9445949275585388e+00 7.3547070822125988e+00 0.0000000000000000e+00  3.9456601441985684e+00 7.3522472202771141e+00 0.0000000000000000e+00  3.9491102500769584e+00 7.3470341630106581e+00 0.0000000000000000e+00  3.9496962757275345e+00 7.3454955313033983e+00 0.0000000000000000e+00  3.9524542780571741e+00 7.3415055314511974e+00 0.0000000000000000e+00  3.9527737489714996e+00 7.3405579889400130e+00 0.0000000000000000e+00  3.9547366763458087e+00 7.3377424897701893e+00 0.0000000000000000e+00  3.9546464813925413e+00 7.3373976629824709e+00 0.0000000000000000e+00  3.9558435121035331e+00 7.3355727133112003e+00 0.0000000000000000e+00  3.9555372979559205e+00 7.3354801765018651e+00 0.0000000000000000e+00  3.9562681950624046e+00 7.3342168234553151e+00 0.0000000000000000e+00  3.9560083574604601e+00 7.3340808843532406e+00 0.0000000000000000e+00  3.9565532496436053e+00 7.3330569552270219e+00 0.0000000000000000e+00  3.9564823928171688e+00 7.3327573577329419e+00 0.0000000000000000e+00  3.9569417034383290e+00 7.3318993696732999e+00 0.0000000000000000e+00  3.9570024690771031e+00 7.3315046087526676e+00 0.0000000000000000e+00  3.9573498090236470e+00 7.3308238650489237e+00 0.0000000000000000e+00  3.9574296369325430e+00 7.3304336918328943e+00 0.0000000000000000e+00  3.9576525113580572e+00 7.3298766710332144e+00 0.0000000000000000e+00  3.9577090143886968e+00 7.3294709482388587e+00 0.0000000000000000e+00  3.9578288304767826e+00 7.3289410428765365e+00 0.0000000000000000e+00  3.9578569536934820e+00 7.3284233899046889e+00 0.0000000000000000e+00  3.9579067454663446e+00 7.3277711666650243e+00 0.0000000000000000e+00  3.9579049056104676e+00 7.3270240458925828e+00 0.0000000000000000e+00  3.9579085731798771e+00 7.3260749360030326e+00 0.0000000000000000e+00  3.9578834400130565e+00 7.3249488389089183e+00 0.0000000000000000e+00  3.9578494918931573e+00 7.3235702158866101e+00 0.0000000000000000e+00  3.9578068964223965e+00 7.3219504514463107e+00 0.0000000000000000e+00  3.9577432562822263e+00 7.3200761649198212e+00 0.0000000000000000e+00  3.9576815053597159e+00 7.3179757870825304e+00 0.0000000000000000e+00  3.9575948354849499e+00 7.3156581228052344e+00 0.0000000000000000e+00  3.9575146003475958e+00 7.3132131972568102e+00 0.0000000000000000e+00  3.9574059940912480e+00 7.3106461410783954e+00 0.0000000000000000e+00  3.9573069969431276e+00 7.3080820527476673e+00 0.0000000000000000e+00  3.9571793212696535e+00 7.3055094191879721e+00 0.0000000000000000e+00  3.9570544037326734e+00 7.3030840970347146e+00 0.0000000000000000e+00  3.9569069471298910e+00 7.3007061389151104e+00 0.0000000000000000e+00  3.9567407679579367e+00 7.2985952995684258e+00 0.0000000000000000e+00  3.9565558082804921e+00 7.2965095820715762e+00 0.0000000000000000e+00  3.9562970079297037e+00 7.2947255231097197e+00 0.0000000000000000e+00  3.9560010638707097e+00 7.2928197739776897e+00 0.0000000000000000e+00  3.9554804967462660e+00 7.2911151946609847e+00 0.0000000000000000e+00  3.9547843449421447e+00 7.2888465510632026e+00 0.0000000000000000e+00  3.9534365149369002e+00 7.2862877775191306e+00 0.0000000000000000e+00  3.9513053714789437e+00 7.2819367725766808e+00 0.0000000000000000e+00  3.9471563218391514e+00 7.2753723613705592e+00 0.0000000000000000e+00  3.9399818702817866e+00 7.2632345505495701e+00 0.0000000000000000e+00  3.9261307771827210e+00 7.2418841108852652e+00 0.0000000000000000e+00  3.9012835939323756e+00 7.2020904430213628e+00 0.0000000000000000e+00  3.8540162186166347e+00 7.1282814204925709e+00 0.0000000000000000e+00  3.7691237415254921e+00 6.9911713001727858e+00 0.0000000000000000e+00  3.6122828249134291e+00 6.7328325129794022e+00 0.0000000000000000e+00  3.3439590126418439e+00 6.2594763555233239e+00 0.0000000000000000e+00  2.8927427591987871e+00 5.3845929449192704e+00 0.0000000000000000e+00  2.2398931309201853e+00 3.8510961910608503e+00 0.0000000000000000e+00  1.4167182032234482e+00 1.3709439794039260e+00 0.0000000000000000e+00  1.0476668858818692e+00 1.4538282106824479e-01 0.0000000000000000e+00  1.0025322566449308e+00 8.1042519063573831e-03 0.0000000000000000e+00  1.0001402367246974e+00 7.1087198315863108e-04 0.0000000000000000e+00  9.9993494421136864e-01 2.3048686361300832e-04 0.0000000000000000e+00  1.0001024733734190e+00 -2.6925522000478282e-04 0.0000000000000000e+00  9.9991207985080988e-01 2.4466158614491572e-04 0.0000000000000000e+00  1.0000689992753369e+00 -1.9198707673984149e-04 0.0000000000000000e+00  9.9994682022852344e-01 1.4796634740044394e-04 0.0000000000000000e+00  1.0000413209383936e+00 -1.1467866006634075e-04 0.0000000000000000e+00  9.9996768914549161e-01 8.9452738338974700e-05 0.0000000000000000e+00  1.0000252857604577e+00 -6.9839929440510551e-05 0.0000000000000000e+00  9.9998026870494694e-01 5.4382279853220630e-05 0.0000000000000000e+00  1.0000153191112997e+00 -4.2135544999662840e-05 0.0000000000000000e+00  9.9998817073859003e-01 3.2458916550801584e-05 0.0000000000000000e+00  1.0000090716027241e+00 -2.4826423190757725e-05 0.0000000000000000e+00  9.9999306783681652e-01 1.8881666611842062e-05 0.0000000000000000e+00  1.0000052518512776e+00 -1.4235596200098215e-05 0.0000000000000000e+00  9.9999600062645788e-01 1.0706030900094241e-05 0.0000000000000000e+00  1.0000029849841043e+00 -7.9143966832614688e-06 0.0000000000000000e+00  9.9999769298619723e-01 5.8831100698155382e-06 0.0000000000000000e+00  1.0000016644575851e+00 -4.1439994544667799e-06 0.0000000000000000e+00  9.9999860959308706e-01 3.0276511701504266e-06 0.0000000000000000e+00  1.0000009094389877e+00 -1.8012823975580151e-06 0.0000000000000000e+00  9.9999901684705439e-01 1.3007389957797470e-06 0.0000000000000000e+00  1.0000004616350648e+00 -2.4016637838706796e-07 0.0000000000000000e+00  9.9999905503948106e-01 0.0000000000000000e+00 0.0000000000000000e+00  9.9984693731220879e+00 0.0000000000000000e+00 2.3723416753689500e-03  9.9981676384299689e+00 4.2938588739630948e-03 1.4191811167552594e-03  9.9981687894798590e+00 5.4499927363126609e-04 -3.3389346096087081e-03  9.9980121041991961e+00 5.0765302649883942e-03 2.4180500000406066e-03  9.9968503035865641e+00 5.5528215112609514e-03 -1.9689191225284418e-03  9.9963172050102980e+00 7.8186080128408320e-03 1.6126153475603468e-03  9.9943679977188484e+00 9.6192326679531079e-03 -1.3818828719156129e-03  9.9927772042625591e+00 1.2985844513155107e-02 1.2461657662604199e-03  9.9897646728961504e+00 1.5269472970916697e-02 -1.0759496555095345e-03  9.9869188679389609e+00 1.9763107125787136e-02 9.3412870176667970e-04  9.9822000088223781e+00 2.3960701581085039e-02 -7.6164557674225869e-04  9.9776677124239743e+00 2.9487145255375474e-02 6.2236179744972343e-04  9.9708576968907767e+00 3.5942545037421142e-02 -4.5108439591531315e-04  9.9637629472186049e+00 4.3731506587073005e-02 3.0545969321636360e-04  9.9544940571793106e+00 5.2624317250050144e-02 -1.3464912596365975e-04  9.9442321541689278e+00 6.3111996319929239e-02 -4.9847406537941466e-07  9.9315021808360182e+00 7.5770872836551997e-02 1.3705149296205807e-04  9.9178309670099853e+00 8.9105555933036013e-02 -2.5259734304348210e-04  9.9009598228649462e+00 1.0601993466765321e-01 3.7548061009689887e-04  9.8828240390998339e+00 1.2358708810774847e-01 -4.9277921010929438e-04  9.8618525496854765e+00 1.4464140773692524e-01 5.9291374180301054e-04  9.8386047252456876e+00 1.6697631406190735e-01 -6.6678724567602635e-04  9.8125586527652597e+00 1.9339486332091030e-01 6.9621721092195596e-04  9.7846300762399956e+00 2.2012563673739935e-01 -7.1946875067540250e-04  9.7529835078659168e+00 2.5224675513547740e-01 7.1729792993545718e-04  9.7195889263200907e+00 2.8455516802339176e-01 -7.1792942918009041e-04  9.6831785953299150e+00 3.2144400352592284e-01 6.6831715363610273e-04  9.6439728658093262e+00 3.5972190445651941e-01 -5.8194991697681437e-04  9.6022069856917565e+00 4.0217530354349856e-01 4.3086710696980691e-04  9.5584088984466025e+00 4.4529078890757218e-01 -2.6431070706493538e-04  9.5110757983071181e+00 4.9340607677538101e-01 7.0053135898626514e-05  9.4622788335404771e+00 5.4219717479157647e-01 1.4223436353559042e-04  9.4108633111115125e+00 5.9428616266915102e-01 -4.1467809961679856e-04  9.3569289673283862e+00 6.4906387714033575e-01 7.5903649917537003e-04  9.3011778629261705e+00 7.0559389953813201e-01 -1.1687473806361690e-03  9.2436941435534656e+00 7.6465911968727218e-01 1.6090507591220804e-03  9.1835357667184461e+00 8.2581462349427770e-01 -2.0477299785492996e-03  9.1222934409211849e+00 8.8966906488285546e-01 2.4788904556601664e-03  9.0593671927360653e+00 9.5351923595796861e-01 -2.8897578121794077e-03  8.9942645325584660e+00 1.0225457039856398e+00 3.2707242776055510e-03  8.9284122596040234e+00 1.0894304901792646e+00 -3.5582847945458515e-03  8.8610449112634573e+00 1.1616970428589071e+00 3.7070773451064356e-03  8.7920767168671059e+00 1.2321848985118808e+00 -3.6742162770604160e-03  8.7224136387380646e+00 1.3078084843137725e+00 3.4845416958386600e-03  8.6516863985183878e+00 1.3802337973290479e+00 -3.1716027890260658e-03  8.5796105287461817e+00 1.4595953912208042e+00 2.7920755755110236e-03  8.5070448384906836e+00 1.5344593790338241e+00 -2.3745805939221435e-03  8.4338077829902574e+00 1.6153415092287862e+00 1.9490102261152593e-03  8.3592171594995932e+00 1.6938909148726389e+00 -1.5403885852232685e-03  8.2848105264176848e+00 1.7760436888034077e+00 1.1741921471878937e-03  8.2092560556293677e+00 1.8566079854133053e+00 -8.7570307104119889e-04  8.1334557079851724e+00 1.9411655932503091e+00 6.5303872339496328e-04  8.0570235947643845e+00 2.0236044195362095e+00 -5.0220979739498575e-04  7.9806579198439689e+00 2.1086847966851234e+00 3.6748735024375902e-04  7.9031437426402213e+00 2.1945643887334554e+00 -1.8321986450467657e-04  7.8263583866232516e+00 2.2799507250894187e+00 -1.1855867696767712e-04  7.7483785696225329e+00 2.3669717678296700e+00 4.9142661245540323e-04  7.6710221409235695e+00 2.4549247474144988e+00 -8.3512893310448081e-04  7.5927148530462834e+00 2.5429138629769601e+00 1.0392735804750188e-03  7.5152940000857864e+00 2.6301432975990995e+00 -1.1305027217619690e-03  7.4364972912137048e+00 2.7224158831365934e+00 1.1458643184256816e-03  7.3591515528732510e+00 2.8092824831669256e+00 -1.0830820549403647e-03  7.2803639307237082e+00 2.9004878140141135e+00 8.1595823467847369e-04  7.2027351828301178e+00 2.9920303493779064e+00 -4.1424332998404742e-04  7.1243672882537030e+00 3.0827289600395367e+00 1.0158103181934974e-04  7.0466596418611891e+00 3.1729099292065972e+00 -8.8995843274456676e-05  6.9684362777040825e+00 3.2671183767114123e+00 1.5603880206770265e-04  6.8910895733189141e+00 3.3584147244949452e+00 -8.4871162872461565e-05  6.8131326316216194e+00 3.4505751982732296e+00 -1.2042824091870617e-04  6.7358341055963527e+00 3.5443490517813592e+00 1.1264006590182776e-04  6.6585941616743973e+00 3.6375809509442987e+00 2.3172588112028648e-05  6.5815146845207808e+00 3.7309728325416858e+00 -1.1332341310551662e-04  6.5045171178388168e+00 3.8252639857203965e+00 3.9470795293656986e-05  6.4281976305211233e+00 3.9188411189543255e+00 -9.6845510853060061e-05  6.3515570223941618e+00 4.0138256130748857e+00 1.5965292689748805e-04  6.2754964814204142e+00 4.1086298880157592e+00 -2.0042394383570683e-04  6.1998146964729477e+00 4.2031743205353340e+00 1.9567179109648204e-04  6.1239991392511461e+00 4.2985677190919613e+00 -3.2555126270575563e-04  6.0488140928428207e+00 4.3940799969754263e+00 3.9759877554239423e-04  5.9739468204033122e+00 4.4894490926047945e+00 -4.5092563051440606e-04  5.8990677214515106e+00 4.5857292074296065e+00 5.4585880474175075e-04  5.8248128392510976e+00 4.6815507994142811e+00 -6.3834534317358440e-04  5.7508809015125539e+00 4.77