<?xml version="1.0"?>
<VTKFile type="UnstructuredGrid"  version="0.1"  >
<UnstructuredGrid>
<Piece  NumberOfPoints="8241" NumberOfCells="16000">
<Points>
<DataArray  type="Float64"  NumberOfComponents="3"  format="ascii">-5 -1 0  -4.95 -1 0  -4.9 -1 0  -4.85 -1 0  -4.8 -1 0  -4.75 -1 0  -4.7 -1 0  -4.65 -1 0  -4.6 -1 0  -4.55 -1 0  -4.5 -1 0  -4.45 -1 0  -4.4 -1 0  -4.35 -1 0  -4.3 -1 0  -4.25 -1 0  -4.2 -1 0  -4.15 -1 0  -4.1 -1 0  -4.05 -1 0  -4 -1 0  -3.95 -1 0  -3.9 -1 0  -3.85 -1 0  -3.8 -1 0  -3.75 -1 0  -3.7 -1 0  -3.65 -1 0  -3.6 -1 0  -3.55 -1 0  -3.5 -1 0  -3.45 -1 0  -3.4 -1 0  -3.35 -1 0  -3.3 -1 0  -3.25 -1 0  -3.2 -1 0  -3.15 -1 0  -3.1 -1 0  -3.05 -1 0  -3 -1 0  -2.95 -1 0  -2.9 -1 0  -2.85 -1 0  -2.8 -1 0  -2.75 -1 0  -2.7 -1 0  -2.65 -1 0  -2.6 -1 0  -2.55 -1 0  -2.5 -1 0  -2.45 -1 0  -2.4 -1 0  -2.35 -1 0  -2.3 -1 0  -2.25 -1 0  -2.2 -1 0  -2.15 -1 0  -2.1 -1 0  -2.05 -1 0  -2 -1 0  -1.95 -1 0  -1.9 -1 0  -1.85 -1 0  -1.8 -1 0  -1.75 -1 0  -1.7 -1 0  -1.65 -1 0  -1.6 -1 0  -1.55 -1 0  -1.5 -1 0  -1.45 -1 0  -1.4 -1 0  -1.35 -1 0  -1.3 -1 0  -1.25 -1 0  -1.2 -1 0  -1.15 -1 0  -1.1 -1 0  -1.05 -1 0  -1 -1 0  -0.9500000000000002 -1 0  -0.9000000000000004 -1 0  -0.8499999999999996 -1 0  -0.7999999999999998 -1 0  -0.75 -1 0  -0.7000000000000002 -1 0  -0.6500000000000004 -1 0  -0.5999999999999996 -1 0  -0.5499999999999998 -1 0  -0.5 -1 0  -0.4500000000000002 -1 0  -0.4000000000000004 -1 0  -0.3499999999999996 -1 0  -0.2999999999999998 -1 0  -0.25 -1 0  -0.2000000000000002 -1 0  -0.1500000000000004 -1 0  -0.09999999999999964 -1 0  -0.04999999999999982 -1 0  0 -1 0  0.04999999999999982 -1 0  0.09999999999999964 -1 0  0.1500000000000004 -1 0  0.2000000000000002 -1 0  0.25 -1 0  0.2999999999999998 -1 0  0.3499999999999996 -1 0  0.4000000000000004 -1 0  0.4500000000000002 -1 0  0.5 -1 0  0.5499999999999998 -1 0  0.5999999999999996 -1 0  0.6500000000000004 -1 0  0.7000000000000002 -1 0  0.75 -1 0  0.7999999999999998 -1 0  0.8499999999999996 -1 0  0.9000000000000004 -1 0  0.9500000000000002 -1 0  1 -1 0  1.05 -1 0  1.1 -1 0  1.15 -1 0  1.2 -1 0  1.25 -1 0  1.3 -1 0  1.35 -1 0  1.4 -1 0  1.45 -1 0  1.5 -1 0  1.55 -1 0  1.6 -1 0  1.65 -1 0  1.7 -1 0  1.75 -1 0  1.8 -1 0  1.85 -1 0  1.9 -1 0  1.95 -1 0  2 -1 0  2.05 -1 0  2.1 -1 0  2.15 -1 0  2.2 -1 0  2.25 -1 0  2.3 -1 0  2.35 -1 0  2.4 -1 0  2.45 -1 0  2.5 -1 0  2.55 -1 0  2.6 -1 0  2.65 -1 0  2.7 -1 0  2.75 -1 0  2.8 -1 0  2.85 -1 0  2.9 -1 0  2.95 -1 0  3 -1 0  3.050000000000001 -1 0  3.1 -1 0  3.15 -1 0  3.199999999999999 -1 0  3.25 -1 0  3.300000000000001 -1 0  3.35 -1 0  3.4 -1 0  3.449999999999999 -1 0  3.5 -1 0  3.550000000000001 -1 0  3.6 -1 0  3.65 -1 0  3.699999999999999 -1 0  3.75 -1 0  3.800000000000001 -1 0  3.85 -1 0  3.9 -1 0  3.949999999999999 -1 0  4 -1 0  4.050000000000001 -1 0  4.1 -1 0  4.15 -1 0  4.199999999999999 -1 0  4.25 -1 0  4.300000000000001 -1 0  4.35 -1 0  4.4 -1 0  4.449999999999999 -1 0  4.5 -1 0  4.550000000000001 -1 0  4.6 -1 0  4.65 -1 0  4.699999999999999 -1 0  4.75 -1 0  4.800000000000001 -1 0  4.85 -1 0  4.9 -1 0  4.949999999999999 -1 0  5 -1 0  -5 -0.95 0  -4.95 -0.95 0  -4.9 -0.95 0  -4.85 -0.95 0  -4.8 -0.95 0  -4.75 -0.95 0  -4.7 -0.95 0  -4.65 -0.95 0  -4.6 -0.95 0  -4.55 -0.95 0  -4.5 -0.95 0  -4.45 -0.95 0  -4.4 -0.95 0  -4.35 -0.95 0  -4.3 -0.95 0  -4.25 -0.95 0  -4.2 -0.95 0  -4.15 -0.95 0  -4.1 -0.95 0  -4.05 -0.95 0  -4 -0.95 0  -3.95 -0.95 0  -3.9 -0.95 0  -3.85 -0.95 0  -3.8 -0.95 0  -3.75 -0.95 0  -3.7 -0.95 0  -3.65 -0.95 0  -3.6 -0.95 0  -3.55 -0.95 0  -3.5 -0.95 0  -3.45 -0.95 0  -3.4 -0.95 0  -3.35 -0.95 0  -3.3 -0.95 0  -3.25 -0.95 0  -3.2 -0.95 0  -3.15 -0.95 0  -3.1 -0.95 0  -3.05 -0.95 0  -3 -0.95 0  -2.95 -0.95 0  -2.9 -0.95 0  -2.85 -0.95 0  -2.8 -0.95 0  -2.75 -0.95 0  -2.7 -0.95 0  -2.65 -0.95 0  -2.6 -0.95 0  -2.55 -0.95 0  -2.5 -0.95 0  -2.45 -0.95 0  -2.4 -0.95 0  -2.35 -0.95 0  -2.3 -0.95 0  -2.25 -0.95 0  -2.2 -0.95 0  -2.15 -0.95 0  -2.1 -0.95 0  -2.05 -0.95 0  -2 -0.95 0  -1.95 -0.95 0  -1.9 -0.95 0  -1.85 -0.95 0  -1.8 -0.95 0  -1.75 -0.95 0  -1.7 -0.95 0  -1.65 -0.95 0  -1.6 -0.95 0  -1.55 -0.95 0  -1.5 -0.95 0  -1.45 -0.95 0  -1.4 -0.95 0  -1.35 -0.95 0  -1.3 -0.95 0  -1.25 -0.95 0  -1.2 -0.95 0  -1.15 -0.95 0  -1.1 -0.95 0  -1.05 -0.95 0  -1 -0.95 0  -0.9500000000000002 -0.95 0  -0.9000000000000004 -0.95 0  -0.8499999999999996 -0.95 0  -0.7999999999999998 -0.95 0  -0.75 -0.95 0  -0.7000000000000002 -0.95 0  -0.6500000000000004 -0.95 0  -0.5999999999999996 -0.95 0  -0.5499999999999998 -0.95 0  -0.5 -0.95 0  -0.4500000000000002 -0.95 0  -0.4000000000000004 -0.95 0  -0.3499999999999996 -0.95 0  -0.2999999999999998 -0.95 0  -0.25 -0.95 0  -0.2000000000000002 -0.95 0  -0.1500000000000004 -0.95 0  -0.09999999999999964 -0.95 0  -0.04999999999999982 -0.95 0  0 -0.95 0  0.04999999999999982 -0.95 0  0.09999999999999964 -0.95 0  0.1500000000000004 -0.95 0  0.2000000000000002 -0.95 0  0.25 -0.95 0  0.2999999999999998 -0.95 0  0.3499999999999996 -0.95 0  0.4000000000000004 -0.95 0  0.4500000000000002 -0.95 0  0.5 -0.95 0  0.5499999999999998 -0.95 0  0.5999999999999996 -0.95 0  0.6500000000000004 -0.95 0  0.7000000000000002 -0.95 0  0.75 -0.95 0  0.7999999999999998 -0.95 0  0.8499999999999996 -0.95 0  0.9000000000000004 -0.95 0  0.9500000000000002 -0.95 0  1 -0.95 0  1.05 -0.95 0  1.1 -0.95 0  1.15 -0.95 0  1.2 -0.95 0  1.25 -0.95 0  1.3 -0.95 0  1.35 -0.95 0  1.4 -0.95 0  1.45 -0.95 0  1.5 -0.95 0  1.55 -0.95 0  1.6 -0.95 0  1.65 -0.95 0  1.7 -0.95 0  1.75 -0.95 0  1.8 -0.95 0  1.85 -0.95 0  1.9 -0.95 0  1.95 -0.95 0  2 -0.95 0  2.05 -0.95 0  2.1 -0.95 0  2.15 -0.95 0  2.2 -0.95 0  2.25 -0.95 0  2.3 -0.95 0  2.35 -0.95 0  2.4 -0.95 0  2.45 -0.95 0  2.5 -0.95 0  2.55 -0.95 0  2.6 -0.95 0  2.65 -0.95 0  2.7 -0.95 0  2.75 -0.95 0  2.8 -0.95 0  2.85 -0.95 0  2.9 -0.95 0  2.95 -0.95 0  3 -0.95 0  3.050000000000001 -0.95 0  3.1 -0.95 0  3.15 -0.95 0  3.199999999999999 -0.95 0  3.25 -0.95 0  3.300000000000001 -0.95 0  3.35 -0.95 0  3.4 -0.95 0  3.449999999999999 -0.95 0  3.5 -0.95 0  3.550000000000001 -0.95 0  3.6 -0.95 0  3.65 -0.95 0  3.699999999999999 -0.95 0  3.75 -0.95 0  3.800000000000001 -0.95 0  3.85 -0.95 0  3.9 -0.95 0  3.949999999999999 -0.95 0  4 -0.95 0  4.050000000000001 -0.95 0  4.1 -0.95 0  4.15 -0.95 0  4.199999999999999 -0.95 0  4.25 -0.95 0  4.300000000000001 -0.95 0  4.35 -0.95 0  4.4 -0.95 0  4.449999999999999 -0.95 0  4.5 -0.95 0  4.550000000000001 -0.95 0  4.6 -0.95 0  4.65 -0.95 0  4.699999999999999 -0.95 0  4.75 -0.95 0  4.800000000000001 -0.95 0  4.85 -0.95 0  4.9 -0.95 0  4.949999999999999 -0.95 0  5 -0.95 0  -5 -0.9 0  -4.95 -0.9 0  -4.9 -0.9 0  -4.85 -0.9 0  -4.8 -0.9 0  -4.75 -0.9 0  -4.7 -0.9 0  -4.65 -0.9 0  -4.6 -0.9 0  -4.55 -0.9 0  -4.5 -0.9 0  -4.45 -0.9 0  -4.4 -0.9 0  -4.35 -0.9 0  -4.3 -0.9 0  -4.25 -0.9 0  -4.2 -0.9 0  -4.15 -0.9 0  -4.1 -0.9 0  -4.05 -0.9 0  -4 -0.9 0  -3.95 -0.9 0  -3.9 -0.9 0  -3.85 -0.9 0  -3.8 -0.9 0  -3.75 -0.9 0  -3.7 -0.9 0  -3.65 -0.9 0  -3.6 -0.9 0  -3.55 -0.9 0  -3.5 -0.9 0  -3.45 -0.9 0  -3.4 -0.9 0  -3.35 -0.9 0  -3.3 -0.9 0  -3.25 -0.9 0  -3.2 -0.9 0  -3.15 -0.9 0  -3.1 -0.9 0  -3.05 -0.9 0  -3 -0.9 0  -2.95 -0.9 0  -2.9 -0.9 0  -2.85 -0.9 0  -2.8 -0.9 0  -2.75 -0.9 0  -2.7 -0.9 0  -2.65 -0.9 0  -2.6 -0.9 0  -2.55 -0.9 0  -2.5 -0.9 0  -2.45 -0.9 0  -2.4 -0.9 0  -2.35 -0.9 0  -2.3 -0.9 0  -2.25 -0.9 0  -2.2 -0.9 0  -2.15 -0.9 0  -2.1 -0.9 0  -2.05 -0.9 0  -2 -0.9 0  -1.95 -0.9 0  -1.9 -0.9 0  -1.85 -0.9 0  -1.8 -0.9 0  -1.75 -0.9 0  -1.7 -0.9 0  -1.65 -0.9 0  -1.6 -0.9 0  -1.55 -0.9 0  -1.5 -0.9 0  -1.45 -0.9 0  -1.4 -0.9 0  -1.35 -0.9 0  -1.3 -0.9 0  -1.25 -0.9 0  -1.2 -0.9 0  -1.15 -0.9 0  -1.1 -0.9 0  -1.05 -0.9 0  -1 -0.9 0  -0.9500000000000002 -0.9 0  -0.9000000000000004 -0.9 0  -0.8499999999999996 -0.9 0  -0.7999999999999998 -0.9 0  -0.75 -0.9 0  -0.7000000000000002 -0.9 0  -0.6500000000000004 -0.9 0  -0.5999999999999996 -0.9 0  -0.5499999999999998 -0.9 0  -0.5 -0.9 0  -0.4500000000000002 -0.9 0  -0.4000000000000004 -0.9 0  -0.3499999999999996 -0.9 0  -0.2999999999999998 -0.9 0  -0.25 -0.9 0  -0.2000000000000002 -0.9 0  -0.1500000000000004 -0.9 0  -0.09999999999999964 -0.9 0  -0.04999999999999982 -0.9 0  0 -0.9 0  0.04999999999999982 -0.9 0  0.09999999999999964 -0.9 0  0.1500000000000004 -0.9 0  0.2000000000000002 -0.9 0  0.25 -0.9 0  0.2999999999999998 -0.9 0  0.3499999999999996 -0.9 0  0.4000000000000004 -0.9 0  0.4500000000000002 -0.9 0  0.5 -0.9 0  0.5499999999999998 -0.9 0  0.5999999999999996 -0.9 0  0.6500000000000004 -0.9 0  0.7000000000000002 -0.9 0  0.75 -0.9 0  0.7999999999999998 -0.9 0  0.8499999999999996 -0.9 0  0.9000000000000004 -0.9 0  0.9500000000000002 -0.9 0  1 -0.9 0  1.05 -0.9 0  1.1 -0.9 0  1.15 -0.9 0  1.2 -0.9 0  1.25 -0.9 0  1.3 -0.9 0  1.35 -0.9 0  1.4 -0.9 0  1.45 -0.9 0  1.5 -0.9 0  1.55 -0.9 0  1.6 -0.9 0  1.65 -0.9 0  1.7 -0.9 0  1.75 -0.9 0  1.8 -0.9 0  1.85 -0.9 0  1.9 -0.9 0  1.95 -0.9 0  2 -0.9 0  2.05 -0.9 0  2.1 -0.9 0  2.15 -0.9 0  2.2 -0.9 0  2.25 -0.9 0  2.3 -0.9 0  2.35 -0.9 0  2.4 -0.9 0  2.45 -0.9 0  2.5 -0.9 0  2.55 -0.9 0  2.6 -0.9 0  2.65 -0.9 0  2.7 -0.9 0  2.75 -0.9 0  2.8 -0.9 0  2.85 -0.9 0  2.9 -0.9 0  2.95 -0.9 0  3 -0.9 0  3.050000000000001 -0.9 0  3.1 -0.9 0  3.15 -0.9 0  3.199999999999999 -0.9 0  3.25 -0.9 0  3.300000000000001 -0.9 0  3.35 -0.9 0  3.4 -0.9 0  3.449999999999999 -0.9 0  3.5 -0.9 0  3.550000000000001 -0.9 0  3.6 -0.9 0  3.65 -0.9 0  3.699999999999999 -0.9 0  3.75 -0.9 0  3.800000000000001 -0.9 0  3.85 -0.9 0  3.9 -0.9 0  3.949999999999999 -0.9 0  4 -0.9 0  4.050000000000001 -0.9 0  4.1 -0.9 0  4.15 -0.9 0  4.199999999999999 -0.9 0  4.25 -0.9 0  4.300000000000001 -0.9 0  4.35 -0.9 0  4.4 -0.9 0  4.449999999999999 -0.9 0  4.5 -0.9 0  4.550000000000001 -0.9 0  4.6 -0.9 0  4.65 -0.9 0  4.699999999999999 -0.9 0  4.75 -0.9 0  4.800000000000001 -0.9 0  4.85 -0.9 0  4.9 -0.9 0  4.949999999999999 -0.9 0  5 -0.9 0  -5 -0.85 0  -4.95 -0.85 0  -4.9 -0.85 0  -4.85 -0.85 0  -4.8 -0.85 0  -4.75 -0.85 0  -4.7 -0.85 0  -4.65 -0.85 0  -4.6 -0.85 0  -4.55 -0.85 0  -4.5 -0.85 0  -
[...]
<PointData  Vectors="f_15"> 
<DataArray  type="Float64"  Name="f_15"  NumberOfComponents="3" format="ascii">9.9912830520428813e+00 0.0000000000000000e+00 0.0000000000000000e+00  1.0006421822089184e+01 8.7898680772588080e-03 0.0000000000000000e+00  9.9929737857743675e+00 -9.8308749999384375e-03 0.0000000000000000e+00  1.0006004190335112e+01 8.2820929416354688e-03 0.0000000000000000e+00  9.9930128303095938e+00 -7.8815799610239788e-03 0.0000000000000000e+00  1.0006629367860755e+01 6.4236319259571972e-03 0.0000000000000000e+00  9.9928855005221546e+00 -6.5045918625532516e-03 0.0000000000000000e+00  1.0006847651451285e+01 6.1299215147582855e-03 0.0000000000000000e+00  9.9928851321148162e+00 -6.3940440531751533e-03 0.0000000000000000e+00  1.0007122039109651e+01 6.2011353418738677e-03 0.0000000000000000e+00  9.9926069577165499e+00 -6.2070953505294658e-03 0.0000000000000000e+00  1.0007457961782944e+01 5.9872634700209627e-03 0.0000000000000000e+00  9.9924374847059134e+00 -5.9242267986482113e-03 0.0000000000000000e+00  1.0007575626094825e+01 5.8058688379126096e-03 0.0000000000000000e+00  9.9923331584169066e+00 -5.7880879776117267e-03 0.0000000000000000e+00  1.0007747340184068e+01 5.7052982124669088e-03 0.0000000000000000e+00  9.9922090458669111e+00 -5.5893387463117929e-03 0.0000000000000000e+00  1.0007698269958688e+01 5.3426425220027664e-03 0.0000000000000000e+00  9.9924808677205075e+00 -5.0593486873062032e-03 0.0000000000000000e+00  1.0007330363465066e+01 4.7825567139403186e-03 0.0000000000000000e+00  9.9927813127679848e+00 -4.6023819489387271e-03 0.0000000000000000e+00  1.0007107905625851e+01 4.4319428154760586e-03 0.0000000000000000e+00  9.9931149539506166e+00 -4.1725959762284916e-03 0.0000000000000000e+00  1.0006448593586569e+01 3.7240347601505196e-03 0.0000000000000000e+00  9.9940735057009036e+00 -3.1941130601341331e-03 0.0000000000000000e+00  1.0005476716538979e+01 2.7427437784153905e-03 0.0000000000000000e+00  9.9947688452268952e+00 -2.4960368790745424e-03 0.0000000000000000e+00  1.0005020913651984e+01 2.3222655095476194e-03 0.0000000000000000e+00  9.9953415879632530e+00 -2.0247950888971108e-03 0.0000000000000000e+00  1.0004015145681144e+01 1.4704588840935130e-03 0.0000000000000000e+00  9.9966655574969501e+00 -8.4679582057612638e-04 0.0000000000000000e+00  1.0002849349090454e+01 4.1272168508618923e-04 0.0000000000000000e+00  9.9972724060239155e+00 -2.9179112879140138e-04 0.0000000000000000e+00  1.0002611306219094e+01 3.1828715417949556e-04 0.0000000000000000e+00  9.9976243298410736e+00 -8.4977937756122493e-05 0.0000000000000000e+00  1.0001628576830308e+01 -2.7679490465378078e-04 0.0000000000000000e+00  9.9987818895625811e+00 9.7254339788417393e-04 0.0000000000000000e+00  1.0000555720726791e+01 -8.6992269144300232e-04 0.0000000000000000e+00  9.9988159062643192e+00 1.2874175987847194e-03 0.0000000000000000e+00  1.0000347037090588e+01 -2.1226530571849674e-04 0.0000000000000000e+00  9.9984713603018243e+00 1.6031194414105928e-03 0.0000000000000000e+00  9.9988557995868508e+00 2.1105602202824570e-04 0.0000000000000000e+00  9.9983975517067147e+00 3.2018009670335234e-03 0.0000000000000000e+00  9.9966867481383179e+00 1.5020142109323290e-03 0.0000000000000000e+00  9.9962446766878656e+00 5.0759739088947859e-03 0.0000000000000000e+00  9.9937878482209488e+00 5.0576955779455804e-03 0.0000000000000000e+00  9.9921812451488599e+00 8.9860015319701437e-03 0.0000000000000000e+00  9.9873367435285214e+00 1.0753384549298060e-02 0.0000000000000000e+00  9.9850834590093971e+00 1.6860865540377554e-02 0.0000000000000000e+00  9.9764852700663482e+00 2.1257116148612587e-02 0.0000000000000000e+00  9.9713970520159680e+00 3.0088701385995675e-02 0.0000000000000000e+00  9.9586068560536170e+00 3.9320426614182384e-02 0.0000000000000000e+00  9.9488841990245689e+00 5.2568368434663421e-02 0.0000000000000000e+00  9.9292637239303492e+00 6.7995416134208633e-02 0.0000000000000000e+00  9.9134858320723023e+00 8.7998287634982283e-02 0.0000000000000000e+00  9.8850266133821236e+00 1.1209182506638478e-01 0.0000000000000000e+00  9.8603559861522658e+00 1.4064056849951453e-01 0.0000000000000000e+00  9.8212970291475425e+00 1.7554822509381690e-01 0.0000000000000000e+00  9.7858862801161273e+00 2.1525282455120351e-01 0.0000000000000000e+00  9.7340225457949323e+00 2.6258831434316465e-01 0.0000000000000000e+00  9.6863267342054833e+00 3.1479608667285358e-01 0.0000000000000000e+00  9.6208593900213781e+00 3.7667272155460052e-01 0.0000000000000000e+00  9.5595861287993458e+00 4.4219486914558792e-01 0.0000000000000000e+00  9.4800404061491701e+00 5.1875894891798202e-01 0.0000000000000000e+00  9.4054498899872367e+00 5.9889572600219265e-01 0.0000000000000000e+00  9.3118690848108034e+00 6.8995645801586947e-01 0.0000000000000000e+00  9.2243203999593728e+00 7.8359780878651641e-01 0.0000000000000000e+00  9.1181413995233029e+00 8.8988463826290509e-01 0.0000000000000000e+00  9.0184590136216443e+00 9.9592236003556445e-01 0.0000000000000000e+00  8.9007849639673911e+00 1.1154874963932493e+00 0.0000000000000000e+00  8.7909526827516142e+00 1.2343029116315500e+00 0.0000000000000000e+00  8.6631160976112369e+00 1.3658303876845943e+00 0.0000000000000000e+00  8.5444102305305805e+00 1.4943217130960704e+00 0.0000000000000000e+00  8.4087128328531158e+00 1.6391120094007574e+00 0.0000000000000000e+00  8.2823793741242469e+00 1.7753490904966109e+00 0.0000000000000000e+00  8.1402073701243225e+00 1.9295399481655890e+00 0.0000000000000000e+00  8.0083760086621130e+00 2.0763849152387475e+00 0.0000000000000000e+00  7.8608611321556570e+00 2.2375197515882523e+00 0.0000000000000000e+00  7.7246355856503675e+00 2.3897344246598191e+00 0.0000000000000000e+00  7.5739040140942544e+00 2.5629508716727045e+00 0.0000000000000000e+00  7.4338371940521935e+00 2.7194111826227885e+00 0.0000000000000000e+00  7.2810400759199414e+00 2.8939228485710262e+00 0.0000000000000000e+00  7.1388741065890526e+00 3.0652261840429382e+00 0.0000000000000000e+00  6.9844906820322699e+00 3.2409132878241977e+00 0.0000000000000000e+00  6.8409983981821032e+00 3.4125495020075314e+00 0.0000000000000000e+00  6.6868271680320728e+00 3.5982975439341685e+00 0.0000000000000000e+00  6.5422172895832871e+00 3.7755790926049722e+00 0.0000000000000000e+00  6.3890346389351507e+00 3.9596191658021627e+00 0.0000000000000000e+00  6.2442488234105102e+00 4.1437229415694059e+00 0.0000000000000000e+00  6.0925549844876459e+00 4.3296771743574309e+00 0.0000000000000000e+00  5.9483930954053781e+00 4.5187272646853076e+00 0.0000000000000000e+00  5.7988310968640908e+00 4.7075918620443842e+00 0.0000000000000000e+00  5.6555300818727812e+00 4.8971639838098815e+00 0.0000000000000000e+00  5.5083382644785779e+00 5.0879566530170415e+00 0.0000000000000000e+00  5.3664413324093783e+00 5.2841096418608533e+00 0.0000000000000000e+00  5.2228982184595418e+00 5.4733480971993691e+00 0.0000000000000000e+00  5.0821590034021149e+00 5.6713297966552121e+00 0.0000000000000000e+00  4.9416461909737350e+00 5.8647380668744908e+00 0.0000000000000000e+00  4.8040341077456556e+00 6.0627181281237945e+00 0.0000000000000000e+00  4.6680556927563766e+00 6.2542028900861855e+00 0.0000000000000000e+00  4.5309974441462701e+00 6.4571749034036188e+00 0.0000000000000000e+00  4.4111469347474053e+00 6.6334543194453373e+00 0.0000000000000000e+00  4.2605059634017852e+00 6.8593179848548518e+00 0.0000000000000000e+00  4.1496865884566247e+00 7.0274188105106186e+00 0.0000000000000000e+00  4.0223910194866477e+00 7.2264876868816978e+00 0.0000000000000000e+00  3.9221796387762486e+00 7.3822508157964659e+00 0.0000000000000000e+00  3.8082520238950210e+00 7.5611389026943678e+00 0.0000000000000000e+00  3.7454852793025610e+00 7.6657329098761151e+00 0.0000000000000000e+00  3.7861921389865927e+00 7.5988479411803951e+00 0.0000000000000000e+00  3.8651300524316405e+00 7.4718726114889522e+00 0.0000000000000000e+00  3.9003993457810227e+00 7.4145119792280871e+00 0.0000000000000000e+00  3.9187810383274124e+00 7.3858133884772235e+00 0.0000000000000000e+00  3.9242269360771527e+00 7.3758820685702400e+00 0.0000000000000000e+00  3.9332519599381679e+00 7.3618832469905620e+00 0.0000000000000000e+00  3.9353980174701815e+00 7.3571933637927822e+00 0.0000000000000000e+00  3.9408894986322927e+00 7.3486308713926061e+00 0.0000000000000000e+00  3.9417532334873733e+00 7.3457948420450707e+00 0.0000000000000000e+00  3.9450818310271698e+00 7.3401517307512654e+00 0.0000000000000000e+00  3.9455567730414134e+00 7.3379671576720966e+00 0.0000000000000000e+00  3.9476764110094282e+00 7.3335540005896895e+00 0.0000000000000000e+00  3.9480292471213141e+00 7.3312015503077506e+00 0.0000000000000000e+00  3.9492198632216957e+00 7.3273687289351734e+00 0.0000000000000000e+00  3.9494726273916125e+00 7.3241769545748179e+00 0.0000000000000000e+00  3.9500895555381810e+00 7.3200226353049107e+00 0.0000000000000000e+00  3.9501699835642921e+00 7.3160024341678280e+00 0.0000000000000000e+00  3.9503866032358470e+00 7.3111360652233222e+00 0.0000000000000000e+00  3.9501839812366537e+00 7.3064512002683086e+00 0.0000000000000000e+00  3.9497581710193366e+00 7.3010778286205209e+00 0.0000000000000000e+00  3.9487095244244941e+00 7.2954412480366972e+00 0.0000000000000000e+00  3.9465106604891105e+00 7.2882443661224281e+00 0.0000000000000000e+00  3.9423518061430918e+00 7.2788486695381716e+00 0.0000000000000000e+00  3.9339389953072685e+00 7.2630068389916431e+00 0.0000000000000000e+00  3.9185692952969124e+00 7.2372405651371556e+00 0.0000000000000000e+00  3.8881219258656547e+00 7.1878706381950392e+00 0.0000000000000000e+00  3.8336176666887822e+00 7.1005987628016776e+00 0.0000000000000000e+00  3.7290605111910478e+00 6.9305286870217424e+00 0.0000000000000000e+00  3.5476067467640924e+00 6.6253329910266361e+00 0.0000000000000000e+00  3.2245132399543168e+00 6.0407311686968130e+00 0.0000000000000000e+00  2.7237465228584528e+00 5.0247356582160911e+00 0.0000000000000000e+00  1.9812732948204343e+00 3.1369810744654747e+00 0.0000000000000000e+00  1.2423335353536151e+00 7.8221811729184010e-01 0.0000000000000000e+00  1.0201886588178959e+00 6.3843871598322888e-02 0.0000000000000000e+00  1.0010530624018754e+00 3.0448909738588202e-03 0.0000000000000000e+00  1.0000414456629458e+00 4.3584411593017172e-04 0.0000000000000000e+00  1.0000001676030084e+00 2.2299946775557206e-05 0.0000000000000000e+00  1.0000176828688629e+00 -4.4483864091400863e-05 0.0000000000000000e+00  9.9998592019430710e-01 4.2212677242884733e-05 0.0000000000000000e+00  1.0000097443670610e+00 -2.8926804775582154e-05 0.0000000000000000e+00  9.9999286228375317e-01 2.0617777717465290e-05 0.0000000000000000e+00  1.0000059047564160e+00 -1.6487278924596060e-05 0.0000000000000000e+00  9.9999499812452264e-01 1.3778328473396831e-05 0.0000000000000000e+00  1.0000039694867677e+00 -1.0947596337960143e-05 0.0000000000000000e+00  9.9999712967599175e-01 7.9516440987284381e-06 0.0000000000000000e+00  1.0000019269081226e+00 -5.3307790484420691e-06 0.0000000000000000e+00  9.9999873550136986e-01 3.4549269315173361e-06 0.0000000000000000e+00  1.0000008614841742e+00 -2.3071572102667147e-06 0.0000000000000000e+00  9.9999937761322244e-01 1.6419186386114383e-06 0.0000000000000000e+00  1.0000004600495873e+00 -1.2106218950111262e-06 0.0000000000000000e+00  9.9999966962683962e-01 8.7495997204766365e-07 0.0000000000000000e+00  1.0000002240355599e+00 -5.9803844196380833e-07 0.0000000000000000e+00  9.9999985593255958e-01 3.8583597329406090e-07 0.0000000000000000e+00  1.0000000907459008e+00 -2.4190024199144708e-07 0.0000000000000000e+00  9.9999994147462123e-01 1.5435733512523404e-07 0.0000000000000000e+00  1.0000000395710007e+00 -1.0342308275689426e-07 0.0000000000000000e+00  9.9999997243573135e-01 7.1928738738185889e-08 0.0000000000000000e+00  1.0000000190369147e+00 -4.9918288172140259e-08 0.0000000000000000e+00  9.9999998731678341e-01 3.3473426485498793e-08 0.0000000000000000e+00  1.0000000081252334e+00 -2.1521576142664809e-08 0.0000000000000000e+00  9.9999999489996694e-01 1.3486025996999342e-08 0.0000000000000000e+00  1.0000000032291836e+00 -8.4871702819105922e-09 0.0000000000000000e+00  9.9999999789685934e-01 5.4930294509305362e-09 0.0000000000000000e+00  1.0000000014021981e+00 -3.6535998843323384e-09 0.0000000000000000e+00  9.9999999906409032e-01 2.4434729555498047e-09 0.0000000000000000e+00  1.0000000006126604e+00 -1.6056527662112033e-09 0.0000000000000000e+00  9.9999999960920205e-01 1.0269228558207365e-09 0.0000000000000000e+00  1.0000000002450111e+00 -6.4361139896754009e-10 0.0000000000000000e+00  9.9999999984644350e-01 4.0209502527402297e-10 0.0000000000000000e+00  1.0000000000975378e+00 -2.5440554881356061e-10 0.0000000000000000e+00  9.9999999993713207e-01 1.6360958061227592e-10 0.0000000000000000e+00  1.0000000000406917e+00 -1.0592624441943411e-10 0.0000000000000000e+00  9.9999999997388755e-01 6.8096726741479079e-11 0.0000000000000000e+00  1.0000000000165061e+00 -4.3114943740426172e-11 0.0000000000000000e+00  9.9999999998969546e-01 2.6920758573308130e-11 0.0000000000000000e+00  1.0000000000064080e+00 -1.6714957915470722e-11 0.0000000000000000e+00  9.9999999999599709e-01 1.0419077579799899e-11 0.0000000000000000e+00  1.0000000000025191e+00 -6.5450531699721532e-12 0.0000000000000000e+00  9.9999999999840916e-01 4.1326190108387625e-12 0.0000000000000000e+00  1.0000000000010019e+00 -2.6021436189050676e-12 0.0000000000000000e+00  9.9999999999937450e-01 1.6281129278469877e-12 0.0000000000000000e+00  1.0000000000003881e+00 -1.0084881657305598e-12 0.0000000000000000e+00  9.9999999999976130e-01 6.2161399741394947e-13 0.0000000000000000e+00  1.0000000000001479e+00 -3.8221107794557028e-13 0.0000000000000000e+00  9.9999999999990907e-01 2.3691244779344215e-13 0.0000000000000000e+00  1.0000000000000573e+00 -1.4586602196839385e-13 0.0000000000000000e+00  9.9999999999996481e-01 9.1042956736371584e-14 0.0000000000000000e+00  1.0000000000000226e+00 -5.5255826876164391e-14 0.0000000000000000e+00  9.9999999999998590e-01 3.5126566865124119e-14 0.0000000000000000e+00  1.0000000000000084e+00 -1.9692621844659982e-14 0.0000000000000000e+00  9.9999999999999345e-01 1.1692168527581702e-14 0.0000000000000000e+00  1.0000000000000027e+00 -4.0329385118424682e-15 0.0000000000000000e+00  9.9999999999999456e-01 0.0000000000000000e+00 0.0000000000000000e+00  9.9991667789780365e+00 0.0000000000000000e+00 -6.9711299782316575e-03  1.0002999619737489e+01 -2.0810357652599146e-03 1.0565754574600131e-03  9.9994263558420133e+00 2.7909688834845169e-03 2.0535778863315364e-03  1.0001307869242590e+01 7.6121427908212142e-04 -5.7053503020569585e-04  1.0000079193797939e+01 -6.3811017247444055e-04 -1.5088808740176146e-04  1.0000590636307130e+01 1.6995666985487870e-03 7.5541711938765111e-04  9.9999127468065403e+00 -8.6887269380920694e-04 -1.0961352695217437e-03  1.0000507837008493e+01 1.1479085847870606e-03 1.3322971829924303e-03  9.9998424228686122e+00 -8.3019797661413458e-04 -1.5457727813402984e-03  1.0000260373537886e+01 1.2096836069277242e-03 1.7581272854794118e-03  9.9999336056025374e+00 -1.2250931033532743e-03 -1.9776727414789986e-03  1.0000180688907097e+01 1.4639613366458576e-03 2.1877675353496316e-03  9.9998524779670372e+00 -1.4476178553638440e-03 -2.3851483201908605e-03  1.0000184424985951e+01 1.5271378383177494e-03 2.5669252522994134e-03  9.9999027603503521e+00 -1.5226044000943954e-03 -2.7328202437989293e-03  1.0000080445648043e+01 1.6233302131643411e-03 2.8800333863577979e-03  9.9999001266568612e+00 -1.7298124888768468e-03 -3.0013082034523577e-03  1.0000202101334221e+01 1.8686823103591357e-03 3.0957273138508797e-03  9.9997507413934645e+00 -1.9230128806222338e-03 -3.1625182302147548e-03  1.0000218234488129e+01 1.8880490003074059e-03 3.2075839927808662e-03  9.9998851202306351e+00 -1.7979067215083896e-03 -3.2260660338907106e-03  1.0000096661188769e+01 1.7665125094423841e-03 3.2147187326415673e-03  9.9998020941809749e+00 -1.8477089652244602e-03 -3.1647580060625582e-03  1.0000382381469574e+01 1.9640280229899381e-03 3.0848098790165978e-03  9.9995597959819467e+00 -1.9747769665151918e-03 -2.9857613075605360e-03  1.0000333423687829e+01 1.7979945220489753e-03 2.8842760889436145e-03  9.9998683161623596e+00 -1.5509447823145494e-03 -2.7771283320046315e-03  1.0000095467909574e+01 1.4273034826738139e-03 2.6583358781416709e-03  9.9997237855571193e+00 -1.5145222918862633e-03 -2.5183059139234254e-03  1.0000534274195950e+01 1.6852027948884721e-03 2.3715530355236801e-03  9.9993993158789252e+00 -1.6579865006337100e-03 -2.2375648974606115e-03  1.0000354170417038e+01 1.4210128247451692e-03 2.1344876221772091e-03  9.9998970692232323e+00 -1.0328871150500967e-03 -2.0526696194511909e-03  9.9999831663411012e+00 9.9393377520509631e-04 1.9751246927050361e-03  9.9996323313524673e+00 -1.0445425220342965e-03 -1.8883983810234627e-03  1.0000502327279667e+01 1.4762091714119784e-03 1.8077554944935590e-03  9.9991898691571865e+00 -1.1911921238682412e-03 -1.7532227625374072e-03  1.0000082189684560e+01 1.3301014506316108e-03 1.7353114358772332e-03  9.9996022996266678e+00 -3.6693768954206230e-04 -1.7331733838368271e-03  9.9994334150974904e+00 1.2748556455803076e-03 1.7230618141270547e-03  9.9988235014439475e+00 -8.3408688165491969e-05 -1.6914158785709542e-03  9.9993543781781575e+00 2.4285854393057398e-03 1.6576271895583875e-03  9.9975370218591486e+00 7.1222626306079856e-04 -1.6352038498292473e-03  9.9975688754294776e+00 3.5789696581036931e-03 1.6282428200065299e-03  9.9959991630518008e+00 3.2750052889331384e-03 -1.6104609702050784e-03  9.9944226779803564e+00 6.2818245472569941e-03 1.5659038461080005e-03  9.9915500181016501e+00 7.1750311730298492e-03 -1.4917546993567089e-03  9.9892055500619907e+00 1.2172416355339985e-02 1.4086007263237775e-03  9.9837159324741211e+00 1.4822017191296544e-02 -1.3287541827710432e-03  9.9785817909751025e+00 2.2112995537090566e-02 1.2440639181627291e-03  9.9703905621990039e+00 2.8651395689996462e-02 -1.1479737180169248e-03  9.9607786264492120e+00 3.9642904663510455e-02 1.0252290172022562e-03  9.9473543685412480e+00 5.1198208145583575e-02 -9.0261504218698823e-04  9.9321665565648374e+00 6.8190833292937264e-02 7.7749996078543848e-04  9.9115041280818694e+00 8.7049020717345646e-02 -6.7294617382441949e-04  9.8879046300337681e+00 1.1174213033427811e-01 5.5818367905089621e-04  9.8582945248965697e+00 1.4017851142655144e-01 -4.5089869229715567e-04  9.8243213894805859e+00 1.7519772416797588e-01 3.3841220475347249e-04  9.7832498612726209e+00 2.1496033276443274e-01 -2.5455955276981485e-04  9.7372548861193025e+00 2.6202017901109442e-01 1.9410636545043089e-04  9.6834964133354724e+00 3.1533754862299956e-01 -1.4903465119551991e-04  9.6238619880594953e+00 3.7566489799136510e-01 1.0933649755131944e-04  9.5565599252454128e+00 4.4305267335218040e-01 -6.0388261401487409e-05  9.4831972389167305e+00 5.1819520125123508e-01 4.7160710225259025e-05  9.4019594716803727e+00 5.9979058493249549e-01 -5.8505927915004779e-05  9.3149900357463480e+00 6.8914289922291871e-01 1.2729266589503542e-04  9.2208967147882106e+00 7.8559800566096250e-01 -1.7169337247822315e-04  9.1209314389973137e+00 8.8850308105835796e-01 2.0883747202682409e-04  9.0148966090946256e+00 9.9808075196381374e-01 -1.9252627160101083e-04  8.9037788136150553e+00 1.1148650160562601e+00 2.0539450247356717e-04  8.7870165749430171e+00 1.2363000198414917e+00 -2.4015580631428379e-04  8.6660123950584662e+00 1.3644433863433132e+00 2.8120421182178408e-04  8.5407248137041574e+00 1.4983408626712404e+00 -2.4373252286365730e-04  8.4111870172460232e+00 1.6361151038202875e+00 4.9848000949618816e-05  8.2786759872905051e+00 1.7794575542052709e+00 2.2344093764306219e-04  8.1428621069690035e+00 1.9282418961221766e+00 -4.8677502872947307e-04  8.0042858906400234e+00 2.0791847071839942e+00 4.9624746441761288e-04  7.8634064523625922e+00 2.2347119208173813e+00 -3.7679474188624998e-04  7.7209165346292430e+00 2.3968506058950321e+00 1.7367307786385333e-04  7.5757665657738480e+00 2.5571403280899281e+00 -1.9809201140079350e-04  7.4305249082347116e+00 2.7229702628148718e+00 6.8676195092223780e-05  7.2829975598848335e+00 2.8963757328568960e+0