<?xml version="1.0"?>
<VTKFile type="UnstructuredGrid"  version="0.1"  >
<UnstructuredGrid>
<Piece  NumberOfPoints="8241" NumberOfCells="16000">
<Points>
<DataArray  type="Float64"  NumberOfComponents="3"  format="ascii">-5 -1 0  -4.95 -1 0  -4.9 -1 0  -4.85 -1 0  -4.8 -1 0  -4.75 -1 0  -4.7 -1 0  -4.65 -1 0  -4.6 -1 0  -4.55 -1 0  -4.5 -1 0  -4.45 -1 0  -4.4 -1 0  -4.35 -1 0  -4.3 -1 0  -4.25 -1 0  -4.2 -1 0  -4.15 -1 0  -4.1 -1 0  -4.05 -1 0  -4 -1 0  -3.95 -1 0  -3.9 -1 0  -3.85 -1 0  -3.8 -1 0  -3.75 -1 0  -3.7 -1 0  -3.65 -1 0  -3.6 -1 0  -3.55 -1 0  -3.5 -1 0  -3.45 -1 0  -3.4 -1 0  -3.35 -1 0  -3.3 -1 0  -3.25 -1 0  -3.2 -1 0  -3.15 -1 0  -3.1 -1 0  -3.05 -1 0  -3 -1 0  -2.95 -1 0  -2.9 -1 0  -2.85 -1 0  -2.8 -1 0  -2.75 -1 0  -2.7 -1 0  -2.65 -1 0  -2.6 -1 0  -2.55 -1 0  -2.5 -1 0  -2.45 -1 0  -2.4 -1 0  -2.35 -1 0  -2.3 -1 0  -2.25 -1 0  -2.2 -1 0  -2.15 -1 0  -2.1 -1 0  -2.05 -1 0  -2 -1 0  -1.95 -1 0  -1.9 -1 0  -1.85 -1 0  -1.8 -1 0  -1.75 -1 0  -1.7 -1 0  -1.65 -1 0  -1.6 -1 0  -1.55 -1 0  -1.5 -1 0  -1.45 -1 0  -1.4 -1 0  -1.35 -1 0  -1.3 -1 0  -1.25 -1 0  -1.2 -1 0  -1.15 -1 0  -1.1 -1 0  -1.05 -1 0  -1 -1 0  -0.9500000000000002 -1 0  -0.9000000000000004 -1 0  -0.8499999999999996 -1 0  -0.7999999999999998 -1 0  -0.75 -1 0  -0.7000000000000002 -1 0  -0.6500000000000004 -1 0  -0.5999999999999996 -1 0  -0.5499999999999998 -1 0  -0.5 -1 0  -0.4500000000000002 -1 0  -0.4000000000000004 -1 0  -0.3499999999999996 -1 0  -0.2999999999999998 -1 0  -0.25 -1 0  -0.2000000000000002 -1 0  -0.1500000000000004 -1 0  -0.09999999999999964 -1 0  -0.04999999999999982 -1 0  0 -1 0  0.04999999999999982 -1 0  0.09999999999999964 -1 0  0.1500000000000004 -1 0  0.2000000000000002 -1 0  0.25 -1 0  0.2999999999999998 -1 0  0.3499999999999996 -1 0  0.4000000000000004 -1 0  0.4500000000000002 -1 0  0.5 -1 0  0.5499999999999998 -1 0  0.5999999999999996 -1 0  0.6500000000000004 -1 0  0.7000000000000002 -1 0  0.75 -1 0  0.7999999999999998 -1 0  0.8499999999999996 -1 0  0.9000000000000004 -1 0  0.9500000000000002 -1 0  1 -1 0  1.05 -1 0  1.1 -1 0  1.15 -1 0  1.2 -1 0  1.25 -1 0  1.3 -1 0  1.35 -1 0  1.4 -1 0  1.45 -1 0  1.5 -1 0  1.55 -1 0  1.6 -1 0  1.65 -1 0  1.7 -1 0  1.75 -1 0  1.8 -1 0  1.85 -1 0  1.9 -1 0  1.95 -1 0  2 -1 0  2.05 -1 0  2.1 -1 0  2.15 -1 0  2.2 -1 0  2.25 -1 0  2.3 -1 0  2.35 -1 0  2.4 -1 0  2.45 -1 0  2.5 -1 0  2.55 -1 0  2.6 -1 0  2.65 -1 0  2.7 -1 0  2.75 -1 0  2.8 -1 0  2.85 -1 0  2.9 -1 0  2.95 -1 0  3 -1 0  3.050000000000001 -1 0  3.1 -1 0  3.15 -1 0  3.199999999999999 -1 0  3.25 -1 0  3.300000000000001 -1 0  3.35 -1 0  3.4 -1 0  3.449999999999999 -1 0  3.5 -1 0  3.550000000000001 -1 0  3.6 -1 0  3.65 -1 0  3.699999999999999 -1 0  3.75 -1 0  3.800000000000001 -1 0  3.85 -1 0  3.9 -1 0  3.949999999999999 -1 0  4 -1 0  4.050000000000001 -1 0  4.1 -1 0  4.15 -1 0  4.199999999999999 -1 0  4.25 -1 0  4.300000000000001 -1 0  4.35 -1 0  4.4 -1 0  4.449999999999999 -1 0  4.5 -1 0  4.550000000000001 -1 0  4.6 -1 0  4.65 -1 0  4.699999999999999 -1 0  4.75 -1 0  4.800000000000001 -1 0  4.85 -1 0  4.9 -1 0  4.949999999999999 -1 0  5 -1 0  -5 -0.95 0  -4.95 -0.95 0  -4.9 -0.95 0  -4.85 -0.95 0  -4.8 -0.95 0  -4.75 -0.95 0  -4.7 -0.95 0  -4.65 -0.95 0  -4.6 -0.95 0  -4.55 -0.95 0  -4.5 -0.95 0  -4.45 -0.95 0  -4.4 -0.95 0  -4.35 -0.95 0  -4.3 -0.95 0  -4.25 -0.95 0  -4.2 -0.95 0  -4.15 -0.95 0  -4.1 -0.95 0  -4.05 -0.95 0  -4 -0.95 0  -3.95 -0.95 0  -3.9 -0.95 0  -3.85 -0.95 0  -3.8 -0.95 0  -3.75 -0.95 0  -3.7 -0.95 0  -3.65 -0.95 0  -3.6 -0.95 0  -3.55 -0.95 0  -3.5 -0.95 0  -3.45 -0.95 0  -3.4 -0.95 0  -3.35 -0.95 0  -3.3 -0.95 0  -3.25 -0.95 0  -3.2 -0.95 0  -3.15 -0.95 0  -3.1 -0.95 0  -3.05 -0.95 0  -3 -0.95 0  -2.95 -0.95 0  -2.9 -0.95 0  -2.85 -0.95 0  -2.8 -0.95 0  -2.75 -0.95 0  -2.7 -0.95 0  -2.65 -0.95 0  -2.6 -0.95 0  -2.55 -0.95 0  -2.5 -0.95 0  -2.45 -0.95 0  -2.4 -0.95 0  -2.35 -0.95 0  -2.3 -0.95 0  -2.25 -0.95 0  -2.2 -0.95 0  -2.15 -0.95 0  -2.1 -0.95 0  -2.05 -0.95 0  -2 -0.95 0  -1.95 -0.95 0  -1.9 -0.95 0  -1.85 -0.95 0  -1.8 -0.95 0  -1.75 -0.95 0  -1.7 -0.95 0  -1.65 -0.95 0  -1.6 -0.95 0  -1.55 -0.95 0  -1.5 -0.95 0  -1.45 -0.95 0  -1.4 -0.95 0  -1.35 -0.95 0  -1.3 -0.95 0  -1.25 -0.95 0  -1.2 -0.95 0  -1.15 -0.95 0  -1.1 -0.95 0  -1.05 -0.95 0  -1 -0.95 0  -0.9500000000000002 -0.95 0  -0.9000000000000004 -0.95 0  -0.8499999999999996 -0.95 0  -0.7999999999999998 -0.95 0  -0.75 -0.95 0  -0.7000000000000002 -0.95 0  -0.6500000000000004 -0.95 0  -0.5999999999999996 -0.95 0  -0.5499999999999998 -0.95 0  -0.5 -0.95 0  -0.4500000000000002 -0.95 0  -0.4000000000000004 -0.95 0  -0.3499999999999996 -0.95 0  -0.2999999999999998 -0.95 0  -0.25 -0.95 0  -0.2000000000000002 -0.95 0  -0.1500000000000004 -0.95 0  -0.09999999999999964 -0.95 0  -0.04999999999999982 -0.95 0  0 -0.95 0  0.04999999999999982 -0.95 0  0.09999999999999964 -0.95 0  0.1500000000000004 -0.95 0  0.2000000000000002 -0.95 0  0.25 -0.95 0  0.2999999999999998 -0.95 0  0.3499999999999996 -0.95 0  0.4000000000000004 -0.95 0  0.4500000000000002 -0.95 0  0.5 -0.95 0  0.5499999999999998 -0.95 0  0.5999999999999996 -0.95 0  0.6500000000000004 -0.95 0  0.7000000000000002 -0.95 0  0.75 -0.95 0  0.7999999999999998 -0.95 0  0.8499999999999996 -0.95 0  0.9000000000000004 -0.95 0  0.9500000000000002 -0.95 0  1 -0.95 0  1.05 -0.95 0  1.1 -0.95 0  1.15 -0.95 0  1.2 -0.95 0  1.25 -0.95 0  1.3 -0.95 0  1.35 -0.95 0  1.4 -0.95 0  1.45 -0.95 0  1.5 -0.95 0  1.55 -0.95 0  1.6 -0.95 0  1.65 -0.95 0  1.7 -0.95 0  1.75 -0.95 0  1.8 -0.95 0  1.85 -0.95 0  1.9 -0.95 0  1.95 -0.95 0  2 -0.95 0  2.05 -0.95 0  2.1 -0.95 0  2.15 -0.95 0  2.2 -0.95 0  2.25 -0.95 0  2.3 -0.95 0  2.35 -0.95 0  2.4 -0.95 0  2.45 -0.95 0  2.5 -0.95 0  2.55 -0.95 0  2.6 -0.95 0  2.65 -0.95 0  2.7 -0.95 0  2.75 -0.95 0  2.8 -0.95 0  2.85 -0.95 0  2.9 -0.95 0  2.95 -0.95 0  3 -0.95 0  3.050000000000001 -0.95 0  3.1 -0.95 0  3.15 -0.95 0  3.199999999999999 -0.95 0  3.25 -0.95 0  3.300000000000001 -0.95 0  3.35 -0.95 0  3.4 -0.95 0  3.449999999999999 -0.95 0  3.5 -0.95 0  3.550000000000001 -0.95 0  3.6 -0.95 0  3.65 -0.95 0  3.699999999999999 -0.95 0  3.75 -0.95 0  3.800000000000001 -0.95 0  3.85 -0.95 0  3.9 -0.95 0  3.949999999999999 -0.95 0  4 -0.95 0  4.050000000000001 -0.95 0  4.1 -0.95 0  4.15 -0.95 0  4.199999999999999 -0.95 0  4.25 -0.95 0  4.300000000000001 -0.95 0  4.35 -0.95 0  4.4 -0.95 0  4.449999999999999 -0.95 0  4.5 -0.95 0  4.550000000000001 -0.95 0  4.6 -0.95 0  4.65 -0.95 0  4.699999999999999 -0.95 0  4.75 -0.95 0  4.800000000000001 -0.95 0  4.85 -0.95 0  4.9 -0.95 0  4.949999999999999 -0.95 0  5 -0.95 0  -5 -0.9 0  -4.95 -0.9 0  -4.9 -0.9 0  -4.85 -0.9 0  -4.8 -0.9 0  -4.75 -0.9 0  -4.7 -0.9 0  -4.65 -0.9 0  -4.6 -0.9 0  -4.55 -0.9 0  -4.5 -0.9 0  -4.45 -0.9 0  -4.4 -0.9 0  -4.35 -0.9 0  -4.3 -0.9 0  -4.25 -0.9 0  -4.2 -0.9 0  -4.15 -0.9 0  -4.1 -0.9 0  -4.05 -0.9 0  -4 -0.9 0  -3.95 -0.9 0  -3.9 -0.9 0  -3.85 -0.9 0  -3.8 -0.9 0  -3.75 -0.9 0  -3.7 -0.9 0  -3.65 -0.9 0  -3.6 -0.9 0  -3.55 -0.9 0  -3.5 -0.9 0  -3.45 -0.9 0  -3.4 -0.9 0  -3.35 -0.9 0  -3.3 -0.9 0  -3.25 -0.9 0  -3.2 -0.9 0  -3.15 -0.9 0  -3.1 -0.9 0  -3.05 -0.9 0  -3 -0.9 0  -2.95 -0.9 0  -2.9 -0.9 0  -2.85 -0.9 0  -2.8 -0.9 0  -2.75 -0.9 0  -2.7 -0.9 0  -2.65 -0.9 0  -2.6 -0.9 0  -2.55 -0.9 0  -2.5 -0.9 0  -2.45 -0.9 0  -2.4 -0.9 0  -2.35 -0.9 0  -2.3 -0.9 0  -2.25 -0.9 0  -2.2 -0.9 0  -2.15 -0.9 0  -2.1 -0.9 0  -2.05 -0.9 0  -2 -0.9 0  -1.95 -0.9 0  -1.9 -0.9 0  -1.85 -0.9 0  -1.8 -0.9 0  -1.75 -0.9 0  -1.7 -0.9 0  -1.65 -0.9 0  -1.6 -0.9 0  -1.55 -0.9 0  -1.5 -0.9 0  -1.45 -0.9 0  -1.4 -0.9 0  -1.35 -0.9 0  -1.3 -0.9 0  -1.25 -0.9 0  -1.2 -0.9 0  -1.15 -0.9 0  -1.1 -0.9 0  -1.05 -0.9 0  -1 -0.9 0  -0.9500000000000002 -0.9 0  -0.9000000000000004 -0.9 0  -0.8499999999999996 -0.9 0  -0.7999999999999998 -0.9 0  -0.75 -0.9 0  -0.7000000000000002 -0.9 0  -0.6500000000000004 -0.9 0  -0.5999999999999996 -0.9 0  -0.5499999999999998 -0.9 0  -0.5 -0.9 0  -0.4500000000000002 -0.9 0  -0.4000000000000004 -0.9 0  -0.3499999999999996 -0.9 0  -0.2999999999999998 -0.9 0  -0.25 -0.9 0  -0.2000000000000002 -0.9 0  -0.1500000000000004 -0.9 0  -0.09999999999999964 -0.9 0  -0.04999999999999982 -0.9 0  0 -0.9 0  0.04999999999999982 -0.9 0  0.09999999999999964 -0.9 0  0.1500000000000004 -0.9 0  0.2000000000000002 -0.9 0  0.25 -0.9 0  0.2999999999999998 -0.9 0  0.3499999999999996 -0.9 0  0.4000000000000004 -0.9 0  0.4500000000000002 -0.9 0  0.5 -0.9 0  0.5499999999999998 -0.9 0  0.5999999999999996 -0.9 0  0.6500000000000004 -0.9 0  0.7000000000000002 -0.9 0  0.75 -0.9 0  0.7999999999999998 -0.9 0  0.8499999999999996 -0.9 0  0.9000000000000004 -0.9 0  0.9500000000000002 -0.9 0  1 -0.9 0  1.05 -0.9 0  1.1 -0.9 0  1.15 -0.9 0  1.2 -0.9 0  1.25 -0.9 0  1.3 -0.9 0  1.35 -0.9 0  1.4 -0.9 0  1.45 -0.9 0  1.5 -0.9 0  1.55 -0.9 0  1.6 -0.9 0  1.65 -0.9 0  1.7 -0.9 0  1.75 -0.9 0  1.8 -0.9 0  1.85 -0.9 0  1.9 -0.9 0  1.95 -0.9 0  2 -0.9 0  2.05 -0.9 0  2.1 -0.9 0  2.15 -0.9 0  2.2 -0.9 0  2.25 -0.9 0  2.3 -0.9 0  2.35 -0.9 0  2.4 -0.9 0  2.45 -0.9 0  2.5 -0.9 0  2.55 -0.9 0  2.6 -0.9 0  2.65 -0.9 0  2.7 -0.9 0  2.75 -0.9 0  2.8 -0.9 0  2.85 -0.9 0  2.9 -0.9 0  2.95 -0.9 0  3 -0.9 0  3.050000000000001 -0.9 0  3.1 -0.9 0  3.15 -0.9 0  3.199999999999999 -0.9 0  3.25 -0.9 0  3.300000000000001 -0.9 0  3.35 -0.9 0  3.4 -0.9 0  3.449999999999999 -0.9 0  3.5 -0.9 0  3.550000000000001 -0.9 0  3.6 -0.9 0  3.65 -0.9 0  3.699999999999999 -0.9 0  3.75 -0.9 0  3.800000000000001 -0.9 0  3.85 -0.9 0  3.9 -0.9 0  3.949999999999999 -0.9 0  4 -0.9 0  4.050000000000001 -0.9 0  4.1 -0.9 0  4.15 -0.9 0  4.199999999999999 -0.9 0  4.25 -0.9 0  4.300000000000001 -0.9 0  4.35 -0.9 0  4.4 -0.9 0  4.449999999999999 -0.9 0  4.5 -0.9 0  4.550000000000001 -0.9 0  4.6 -0.9 0  4.65 -0.9 0  4.699999999999999 -0.9 0  4.75 -0.9 0  4.800000000000001 -0.9 0  4.85 -0.9 0  4.9 -0.9 0  4.949999999999999 -0.9 0  5 -0.9 0  -5 -0.85 0  -4.95 -0.85 0  -4.9 -0.85 0  -4.85 -0.85 0  -4.8 -0.85 0  -4.75 -0.85 0  -4.7 -0.85 0  -4.65 -0.85 0  -4.6 -0.85 0  -4.55 -0.85 0  -4.5 -0.85 0  -
[...]
<PointData  Vectors="f_15"> 
<DataArray  type="Float64"  Name="f_15"  NumberOfComponents="3" format="ascii">1.9023128647870295e+00 0.0000000000000000e+00 0.0000000000000000e+00  1.9022947233785505e+00 4.3400549384258087e-02 0.0000000000000000e+00  1.9022374562368889e+00 8.6714749734560961e-02 0.0000000000000000e+00  1.9021442521836649e+00 1.3012175287485972e-01 0.0000000000000000e+00  1.9020110228867124e+00 1.7344235721070669e-01 0.0000000000000000e+00  1.9018433976447893e+00 2.1680258276339751e-01 0.0000000000000000e+00  1.9016319264187584e+00 2.6010504420142805e-01 0.0000000000000000e+00  1.9013879784160050e+00 3.0340974702913842e-01 0.0000000000000000e+00  1.9010997146901532e+00 3.4667754693168179e-01 0.0000000000000000e+00  1.9007757004208872e+00 3.8990637274102252e-01 0.0000000000000000e+00  1.9004081284001983e+00 4.3312258403533493e-01 0.0000000000000000e+00  1.9000048735282091e+00 4.7626287406645834e-01 0.0000000000000000e+00  1.8995532914001390e+00 5.1940929638216671e-01 0.0000000000000000e+00  1.8990677417809634e+00 5.6243535330022265e-01 0.0000000000000000e+00  1.8985319128514559e+00 6.0549470897239366e-01 0.0000000000000000e+00  1.8979587568850027e+00 6.4841111688084307e-01 0.0000000000000000e+00  1.8973346493698324e+00 6.9130775750407669e-01 0.0000000000000000e+00  1.8966727826552299e+00 7.3414974683845902e-01 0.0000000000000000e+00  1.8959541993094879e+00 7.7684478602042684e-01 0.0000000000000000e+00  1.8951984915186164e+00 8.1954437921201517e-01 0.0000000000000000e+00  1.8943838719420314e+00 8.6208398892468496e-01 0.0000000000000000e+00  1.8935258322216020e+00 9.0457603864139724e-01 0.0000000000000000e+00  1.8926112284598271e+00 9.4690436093116770e-01 0.0000000000000000e+00  1.8916452855471668e+00 9.8921573588585332e-01 0.0000000000000000e+00  1.8906242015821739e+00 1.0312867872124358e+00 0.0000000000000000e+00  1.8895425303158655e+00 1.0733200658966537e+00 0.0000000000000000e+00  1.8884109191300709e+00 1.1151878047379757e+00 0.0000000000000000e+00  1.8872025085201218e+00 1.1568720019409833e+00 0.0000000000000000e+00  1.8859565412733021e+00 1.1984374239731028e+00 0.0000000000000000e+00  1.8846094836395930e+00 1.2398097237845376e+00 0.0000000000000000e+00  1.8832446721612708e+00 1.2810117563472190e+00 0.0000000000000000e+00  1.8817470794838833e+00 1.3219405768190782e+00 0.0000000000000000e+00  1.8802575700173274e+00 1.3628233603714559e+00 0.0000000000000000e+00  1.8785968538439577e+00 1.4032202642648499e+00 0.0000000000000000e+00  1.8769794847621102e+00 1.4436611066924607e+00 0.0000000000000000e+00  1.8751396817069230e+00 1.4835260643711545e+00 0.0000000000000000e+00  1.8733923749535006e+00 1.5234526425281893e+00 0.0000000000000000e+00  1.8713622725570345e+00 1.5626142186376835e+00 0.0000000000000000e+00  1.8694796908245663e+00 1.6020348063787011e+00 0.0000000000000000e+00  1.8672512553338929e+00 1.6403722832118062e+00 0.0000000000000000e+00  1.8652361528330952e+00 1.6791181865494573e+00 0.0000000000000000e+00  1.8628004788632466e+00 1.7165717467911001e+00 0.0000000000000000e+00  1.8606617107451831e+00 1.7545269718740819e+00 0.0000000000000000e+00  1.8580256951627128e+00 1.7908648567616388e+00 0.0000000000000000e+00  1.8557732204543098e+00 1.8279379611374174e+00 0.0000000000000000e+00  1.8529601262948894e+00 1.8629650498381247e+00 0.0000000000000000e+00  1.8506278271496666e+00 1.8988912628664762e+00 0.0000000000000000e+00  1.8476757486430977e+00 1.9324245381064451e+00 0.0000000000000000e+00  1.8453265151235634e+00 1.9669055405917011e+00 0.0000000000000000e+00  1.8423226498609284e+00 1.9985665224162474e+00 0.0000000000000000e+00  1.8400541490200004e+00 2.0312706755762853e+00 0.0000000000000000e+00  1.8371469183940474e+00 2.0605919177750502e+00 0.0000000000000000e+00  1.8351357363637923e+00 2.0909158728625594e+00 0.0000000000000000e+00  1.8325445762386976e+00 2.1173335326871072e+00 0.0000000000000000e+00  1.8310553996637622e+00 2.1445071772594453e+00 0.0000000000000000e+00  1.8291025812805779e+00 2.1671915113838072e+00 0.0000000000000000e+00  1.8284553095153129e+00 2.1903615005065231e+00 0.0000000000000000e+00  1.8274881631743203e+00 2.2084773114292329e+00 0.0000000000000000e+00  1.8279537856315369e+00 2.2269021036550583e+00 0.0000000000000000e+00  1.8281262909221991e+00 2.2401238411594000e+00 0.0000000000000000e+00  1.8296663188725339e+00 2.2538338183290927e+00 0.0000000000000000e+00  1.8307452989740296e+00 2.2627873423137177e+00 0.0000000000000000e+00  1.8328873616686252e+00 2.2728284221922457e+00 0.0000000000000000e+00  1.8343367084144795e+00 2.2789271057431804e+00 0.0000000000000000e+00  1.8365122966340972e+00 2.2866370286276183e+00 0.0000000000000000e+00  1.8378671640682545e+00 2.2910944449429840e+00 0.0000000000000000e+00  1.8397593431921866e+00 2.2973343987659480e+00 0.0000000000000000e+00  1.8408572698449004e+00 2.3007499274770451e+00 0.0000000000000000e+00  1.8423570912663987e+00 2.3058152793136637e+00 0.0000000000000000e+00  1.8432225342570834e+00 2.3085037938336539e+00 0.0000000000000000e+00  1.8443444103367272e+00 2.3124867612370492e+00 0.0000000000000000e+00  1.8450019666291007e+00 2.3145781352277157e+00 0.0000000000000000e+00  1.8458181192525887e+00 2.3176600380429733e+00 0.0000000000000000e+00  1.8463136093470518e+00 2.3192398983124995e+00 0.0000000000000000e+00  1.8468408592216810e+00 2.3215144984107132e+00 0.0000000000000000e+00  1.8472609224889627e+00 2.3228041233848407e+00 0.0000000000000000e+00  1.8475349229509401e+00 2.3243185452431274e+00 0.0000000000000000e+00  1.8478810593417556e+00 2.3253957890555208e+00 0.0000000000000000e+00  1.8480052287288944e+00 2.3264113861589277e+00 0.0000000000000000e+00  1.8482776876157614e+00 2.3272186397723318e+00 0.0000000000000000e+00  1.8482682027754107e+00 2.3278662992610677e+00 0.0000000000000000e+00  1.8485433197691108e+00 2.3285917251474442e+00 0.0000000000000000e+00  1.8484072639972071e+00 2.3288241583176381e+00 0.0000000000000000e+00  1.8486634202605947e+00 2.3295209237064847e+00 0.0000000000000000e+00  1.8485066164294761e+00 2.3296016741111787e+00 0.0000000000000000e+00  1.8486926527137453e+00 2.3300699445712905e+00 0.0000000000000000e+00  1.8485371951908665e+00 2.3301350486340673e+00 0.0000000000000000e+00  1.8487157992176531e+00 2.3305407570424990e+00 0.0000000000000000e+00  1.8485160115424102e+00 2.3304247018779907e+00 0.0000000000000000e+00  1.8486963010070765e+00 2.3308473593493622e+00 0.0000000000000000e+00  1.8485268897048655e+00 2.3307487808388534e+00 0.0000000000000000e+00  1.8486230544178843e+00 2.3309412003393919e+00 0.0000000000000000e+00  1.8485348187676098e+00 2.3309947962283775e+00 0.0000000000000000e+00  1.8485892326471258e+00 2.3310920487942877e+00 0.0000000000000000e+00  1.8484865476101029e+00 2.3310738656828272e+00 0.0000000000000000e+00  1.8485698204884868e+00 2.3312213607479424e+00 0.0000000000000000e+00  1.8484827002525779e+00 2.3312112558016636e+00 0.0000000000000000e+00  1.8484890767325126e+00 2.3312016453440210e+00 0.0000000000000000e+00  1.8485067001899411e+00 2.3313654274862365e+00 0.0000000000000000e+00  1.8484528530081246e+00 2.3312405884738268e+00 0.0000000000000000e+00  1.8484566500605546e+00 2.3313756830867138e+00 0.0000000000000000e+00  1.8484595011873191e+00 2.3313382181248956e+00 0.0000000000000000e+00  1.8484467758469130e+00 2.3314126888562225e+00 0.0000000000000000e+00  1.8483897479075169e+00 2.3313137667806965e+00 0.0000000000000000e+00  1.8484805188000393e+00 2.3315191431900919e+00 0.0000000000000000e+00  1.8483616970238963e+00 2.3313194535496309e+00 0.0000000000000000e+00  1.8484322458245153e+00 2.3314970260008425e+00 0.0000000000000000e+00  1.8483839255629608e+00 2.3314024908349937e+00 0.0000000000000000e+00  1.8484194729637133e+00 2.3315051514727285e+00 0.0000000000000000e+00  1.8483274555245477e+00 2.3313728120824226e+00 0.0000000000000000e+00  1.8484524531728712e+00 2.3315677309722131e+00 0.0000000000000000e+00  1.8483086625253327e+00 2.3313908133733339e+00 0.0000000000000000e+00  1.8484096632786586e+00 2.3315250045421512e+00 0.0000000000000000e+00  1.8483297242823995e+00 2.3314406658925426e+00 0.0000000000000000e+00  1.8484005428436843e+00 2.3315496570958927e+00 0.0000000000000000e+00  1.8482885226264192e+00 2.3313957219461874e+00 0.0000000000000000e+00  1.8484221601785480e+00 2.3315736323411582e+00 0.0000000000000000e+00  1.8482728230104952e+00 2.3314415895281084e+00 0.0000000000000000e+00  1.8483964865687552e+00 2.3315152394259178e+00 0.0000000000000000e+00  1.8482833598072033e+00 2.3314602857599591e+00 0.0000000000000000e+00  1.8483842132063069e+00 2.3315532236515866e+00 0.0000000000000000e+00  1.8482625773686623e+00 2.3314144115515383e+00 0.0000000000000000e+00  1.8483941136253008e+00 2.3315599257751769e+00 0.0000000000000000e+00  1.8482411343745855e+00 2.3314543860333372e+00 0.0000000000000000e+00  1.8483903993880162e+00 2.3314824604628033e+00 0.0000000000000000e+00  1.8482426131672358e+00 2.3315335447654664e+00 0.0000000000000000e+00  1.8483635632654032e+00 2.3314201201259306e+00 0.0000000000000000e+00  1.8482487880852072e+00 2.3315287280733132e+00 0.0000000000000000e+00  1.8483676538390621e+00 2.3315068705094717e+00 0.0000000000000000e+00  1.8482083630567150e+00 2.3313413910938880e+00 0.0000000000000000e+00  1.8483864908718632e+00 2.3317090728164063e+00 0.0000000000000000e+00  1.8482106979800170e+00 2.3312074612899631e+00 0.0000000000000000e+00  1.8483402861294909e+00 2.3316566985541982e+00 0.0000000000000000e+00  1.8482377268441816e+00 2.3314324588982624e+00 0.0000000000000000e+00  1.8483381510420600e+00 2.3312925964858033e+00 0.0000000000000000e+00  1.8481870706813046e+00 2.3318210767884073e+00 0.0000000000000000e+00  1.8483804006232023e+00 2.3309061723687923e+00 0.0000000000000000e+00  1.8481665811057688e+00 2.3321198726692809e+00 0.0000000000000000e+00  1.8483401104776371e+00 2.3307145647142962e+00 0.0000000000000000e+00  1.8482053551219439e+00 2.3321219660257251e+00 0.0000000000000000e+00  1.8483272720260489e+00 2.3308858418861584e+00 0.0000000000000000e+00  1.8481389284834591e+00 2.3317714965579186e+00 0.0000000000000000e+00  1.8484131444889473e+00 2.3313019309090501e+00 0.0000000000000000e+00  1.8480616243678614e+00 2.3313589990043622e+00 0.0000000000000000e+00  1.8484197977740835e+00 2.3315458329548346e+00 0.0000000000000000e+00  1.8480854065070371e+00 2.3312733072423470e+00 0.0000000000000000e+00  1.8483898657923121e+00 2.3314792806207345e+00 0.0000000000000000e+00  1.8480609524911913e+00 2.3313157994275193e+00 0.0000000000000000e+00  1.8484314203888521e+00 2.3315139046987103e+00 0.0000000000000000e+00  1.8479426034153437e+00 2.3313030967969901e+00 0.0000000000000000e+00  1.8483622738365439e+00 2.3316874090524164e+00 0.0000000000000000e+00  1.8477897135569625e+00 2.3316187531888071e+00 0.0000000000000000e+00  1.8480280627754673e+00 2.3319593537181356e+00 0.0000000000000000e+00  1.8475313021940831e+00 2.3321466575621419e+00 0.0000000000000000e+00  1.8477262134571910e+00 2.3322135070579240e+00 0.0000000000000000e+00  1.8474468013790362e+00 2.3322610505461139e+00 0.0000000000000000e+00  1.8478052079465321e+00 2.3315527827531430e+00 0.0000000000000000e+00  1.8481136885346212e+00 2.3317959427043187e+00 0.0000000000000000e+00  1.8481510622836184e+00 2.3299297153285399e+00 0.0000000000000000e+00  1.8489679039771032e+00 2.3311160113763951e+00 0.0000000000000000e+00  1.8485525983181237e+00 2.3294374432241596e+00 0.0000000000000000e+00  1.8486610472364551e+00 2.3294556752723148e+00 0.0000000000000000e+00  1.8498344656921393e+00 2.3320835646713918e+00 0.0000000000000000e+00  1.8465328851704450e+00 2.3242435655238696e+00 0.0000000000000000e+00  1.8546491036911863e+00 2.3357620487003268e+00 0.0000000000000000e+00  1.8340411658743145e+00 2.3344039043194256e+00 0.0000000000000000e+00  1.8626766506404848e+00 2.3401969176727682e+00 0.0000000000000000e+00  2.3078843131171980e+00 1.2739126513235457e+00 0.0000000000000000e+00  2.8171555560837085e+00 2.6540376871304161e-01 0.0000000000000000e+00  2.9700533515902108e+00 1.8794552106678675e-02 0.0000000000000000e+00  2.9662552414899226e+00 8.0828747413342790e-03 0.0000000000000000e+00  2.9656813956265364e+00 1.3651087655272447e-05 0.0000000000000000e+00  2.9723140491243556e+00 -6.5951545521392829e-03 0.0000000000000000e+00  2.9711295226972609e+00 -5.0143599463555307e-03 0.0000000000000000e+00  2.9715644845843676e+00 -8.0849587228541391e-03 0.0000000000000000e+00  2.9729031171951692e+00 -9.9514229371451077e-03 0.0000000000000000e+00  2.9719523491669726e+00 -8.4979419056405384e-03 0.0000000000000000e+00  2.9715930274177023e+00 -7.9064413512514933e-03 0.0000000000000000e+00  2.9717680919889515e+00 -8.7277833996679197e-03 0.0000000000000000e+00  2.9719748760725708e+00 -8.6532540403679113e-03 0.0000000000000000e+00  2.9718973847742096e+00 -9.0283054173436929e-03 0.0000000000000000e+00  2.9718636255360669e+00 -8.5614818857923901e-03 0.0000000000000000e+00  2.9717572141147905e+00 -8.9036740432369040e-03 0.0000000000000000e+00  2.9717882442033106e+00 -8.4209476071332653e-03 0.0000000000000000e+00  2.9717873351926540e+00 -9.0000131784120276e-03 0.0000000000000000e+00  2.9718053875196770e+00 -8.6346555802135436e-03 0.0000000000000000e+00  2.9717336794285711e+00 -8.7552209133915336e-03 0.0000000000000000e+00  2.9717716660936810e+00 -8.7833925502701828e-03 0.0000000000000000e+00  2.9717112262479963e+00 -8.9072758458343879e-03 0.0000000000000000e+00  2.9717615087360767e+00 -8.4367953326109600e-03 0.0000000000000000e+00  2.9716834329967612e+00 -9.1930850913124595e-03 0.0000000000000000e+00  2.9717699569917326e+00 -8.5464877947425272e-03 0.0000000000000000e+00  2.9716442977409563e+00 -8.7959198268724743e-03 0.0000000000000000e+00  2.9717569364266332e+00 -9.5544050591634521e-03 0.0000000000000000e+00  2.9716318677867011e+00 -8.5051007539215673e-03 0.0000000000000000e+00  2.9717466347027330e+00 -9.4689836173932080e-03 0.0000000000000000e+00  2.9715925452132055e+00 -9.7462161911919289e-03 0.0000000000000000e+00  2.9717565338355474e+00 -8.4192363232146548e-03 0.0000000000000000e+00  2.9715617026256984e+00 -1.4808451816257917e-02 0.0000000000000000e+00  2.9717208758573861e+00 -9.9817394439940723e-03 0.0000000000000000e+00  2.9715944736624729e+00 0.0000000000000000e+00 0.0000000000000000e+00  1.9023187865234381e+00 0.0000000000000000e+00 -2.7130678507163014e-05  1.9022972886256879e+00 4.3371764329806814e-02 2.8238146354623468e-06  1.9022425266319356e+00 8.6759459128356683e-02 1.2050646831644744e-05  1.9021470936164979e+00 1.3011630942733335e-01 -5.6088036287310441e-06  1.9020165039622268e+00 1.7346728856522520e-01 3.4912365781582042e-06  1.9018441535002037e+00 2.1680624323715608e-01 -1.4751010872611670e-06  1.9016370895280270e+00 2.6012050727622438e-01 1.3214333809779742e-06  1.9013890943232494e+00 3.0341923283542060e-01 -1.2450689359793838e-06  1.9011024183367333e+00 3.4668026637838362e-01 1.3680833595428708e-06  1.9007764922746619e+00 3.8992167665386213e-01 -3.9462918932535573e-07  1.9004113979152462e+00 4.3311794329581421e-01 -9.1388427556620296e-07  1.9000031404032842e+00 4.7628259703364773e-01 3.3814976277302370e-06  1.8995568921760795e+00 5.1938897800022144e-01 -6.3395663521999008e-06  1.8990663765142100e+00 5.6246957311865187e-01 9.9283236221512790e-06  1.8985339534163610e+00 6.0546836360400302e-01 -1.2765094615852122e-05  1.8979575087129301e+00 6.4842259756409504e-01 1.3749704264886301e-05  1.8973379756220565e+00 6.9132134708857285e-01 -1.1687426958426971e-05  1.8966699456251701e+00 7.3412183690469146e-01 6.1294529984233931e-06  1.8959582720954979e+00 7.7686725117514766e-01 1.3422461295062404e-06  1.8951973426101056e+00 8.1953261736473981e-01 -9.0059638385327110e-06  1.8943860512823223e+00 8.6208836238186159e-01 1.3812812854199224e-05  1.8935270772171864e+00 9.0454955743633647e-01 -1.5622672211853486e-05  1.8926132130906825e+00 9.4694915716479477e-01 1.2995552247102799e-05  1.8916473249859462e+00 9.8915916303563634e-01 -8.0161549368684252e-06  1.8906260757365698e+00 1.0313090887583618e+00 9.1462122230903733e-07  1.8895471335848666e+00 1.0733287000356295e+00 3.5035607673715860e-06  1.8884100723836128e+00 1.1151523495145290e+00 -4.6234660270823981e-06  1.8872120829047614e+00 1.1568833142675132e+00 2.5088018459077707e-07  1.8859505377585504e+00 1.1984435487913758e+00 4.9096853448927913e-06  1.8846258123753994e+00 1.2397930011226945e+00 -9.9459106337039147e-06  1.8832319605106467e+00 1.2809894815492944e+00 1.1109386090302442e-05  1.8817706205643892e+00 1.3219961739636950e+00 -1.1946671053249129e-05  1.8802365541908310e+00 1.3627435045413201e+00 1.2544380260600454e-05  1.8786306370495163e+00 1.4032866802152570e+00 -1.7154511568374073e-05  1.8769450806462520e+00 1.4436043169168291e+00 2.2719751457873267e-05  1.8751876779434165e+00 1.4835919733832097e+00 -2.9408232368324076e-05  1.8733434368426416e+00 1.5233435667539941e+00 3.2054358151709484e-05  1.8714237383017640e+00 1.5627713150099780e+00 -3.3866720671075493e-05  1.8694161091561365e+00 1.6018491399327044e+00 3.4925123816623778e-05  1.8673306972113437e+00 1.6405559532418197e+00 -4.1000618343733652e-05  1.8651515047651295e+00 1.6789287977425698e+00 4.7540719124418565e-05  1.8629026655709446e+00 1.7167845186591877e+00 -5.4366683101422894e-05  1.8605558606195738e+00 1.7542563650700695e+00 5.7290213776572421e-05  1.8581457859412818e+00 1.7911814314292311e+00 -6.1430364468166029e-05  1.8556473079036375e+00 1.8275855837093220e+00 6.5291448197552038e-05  1.8530999214498076e+00 1.8633332808917387e+00 -7.1205240153637367e-05  1.8504741932613649e+00 1.8985180333449880e+00 7.5679096452544727e-05  1.8478383437375236e+00 1.9328325758961782e+00 -8.1811460623229195e-05  1.8451484904425079e+00 1.9664662246186313e+00 8.5307933583024067e-05  1.8424995535365407e+00 1.9990774740018979e+00 -8.8821665854361755e-05  1.8398567380733462e+00 2.0307530318574485e+00 8.9834560079818929e-05  1.8373384311275596e+00 2.0611563889173321e+00 -9.3368712451538769e-05  1.8349127406109418e+00 2.0903862287948676e+00 9.5215815732858488e-05  1.8327525405563998e+00 2.1179288092615400e+00 -9.8391376714719939e-05  1.8308169185931757e+00 2.1439369488538835e+00 9.9363859713050252e-05  1.8293180399028592e+00 2.1678403561610864e+00 -1.0019694475089567e-04  1.8282146212569264e+00 2.1897391021847694e+00 1.0045800730598827e-04  1.8277141361512630e+00 2.2091406095075685e+00 -9.7664232651711432e-05  1.8277082758932595e+00 2.2262709920613495e+00 9.9305909830601089e-05  1.8283641419696028e+00 2.2407785647554901e+00 -9.4541132215885364e-05  1.8294288380333179e+00 2.2531894486265820e+00 9.4805980609394139e-05  1.8309758984628792e+00 2.2634259651589308e+00 -9.0479034899548650e-05  1.8326701581801736e+00 2.2722045207034114e+00 8.6541949730082552e-05  1.8345502454627518e+00 2.2795309873197249e+00 -8.3659499248634167e-05  1.8362988344922448e+00 2.2860636025897176e+00 7.6264937812767900e-05  1.8380639964906864e+00 2.2916817221691437e+00 -7.1325285414271101e-05  1.8395607297890013e+00 2.2968121722001706e+00 6.3710713492822019e-05  1.8410164804697629e+00 2.3012761000159396e+00 -5.5030289799641695e-05  1.8422104739520659e+00 2.3053867230879082e+00 4.7180001457924831e-05  1.8433445734430618e+00 2.3089049224266964e+00 -3.7527278089136979e-05  1.8442334708287353e+00 2.3121353231480133e+00 2.9340287508911281e-05  1.8451089353189043e+00 2.3149177915936954e+00 -2.0354179588284255e-05  1.8457344905624304e+00 2.3173541041244903e+00 1.2404164658528899e-05  1.8463697926789753e+00 2.3195034558890426e+00 -5.3637034203892897e-06  1.8468201545263372e+00 2.3213500388727404e+00 -1.5649174485053422e-06  1.8472520063770188e+00 2.3229231087235171e+00 6.2382470426023082e-06  1.8475414668296004e+00 2.3242740014663537e+00 -1.0329580022744858e-05  1.8478631549960516e+00 2.3254917288821413e+00 1.1247055868334563e-05  1.8480110329730750e+00 2.3263577390799921e+00 -1.0506487717973942e-05  1.8482275757694093e+00 2.3273025693089830e+00 7.1466812036762493e-06  1.8483255325611665e+00 2.3279202694528873e+00 -2.6756290855048712e-06  1.8484353572427612e+00 2.3285268934122105e+00 -1.7068092982653637e-06  1.84848091229