<?xml version="1.0"?>
<VTKFile type="UnstructuredGrid"  version="0.1"  >
<UnstructuredGrid>
<Piece  NumberOfPoints="8241" NumberOfCells="16000">
<Points>
<DataArray  type="Float64"  NumberOfComponents="3"  format="ascii">-5 -1 0  -4.95 -1 0  -4.9 -1 0  -4.85 -1 0  -4.8 -1 0  -4.75 -1 0  -4.7 -1 0  -4.65 -1 0  -4.6 -1 0  -4.55 -1 0  -4.5 -1 0  -4.45 -1 0  -4.4 -1 0  -4.35 -1 0  -4.3 -1 0  -4.25 -1 0  -4.2 -1 0  -4.15 -1 0  -4.1 -1 0  -4.05 -1 0  -4 -1 0  -3.95 -1 0  -3.9 -1 0  -3.85 -1 0  -3.8 -1 0  -3.75 -1 0  -3.7 -1 0  -3.65 -1 0  -3.6 -1 0  -3.55 -1 0  -3.5 -1 0  -3.45 -1 0  -3.4 -1 0  -3.35 -1 0  -3.3 -1 0  -3.25 -1 0  -3.2 -1 0  -3.15 -1 0  -3.1 -1 0  -3.05 -1 0  -3 -1 0  -2.95 -1 0  -2.9 -1 0  -2.85 -1 0  -2.8 -1 0  -2.75 -1 0  -2.7 -1 0  -2.65 -1 0  -2.6 -1 0  -2.55 -1 0  -2.5 -1 0  -2.45 -1 0  -2.4 -1 0  -2.35 -1 0  -2.3 -1 0  -2.25 -1 0  -2.2 -1 0  -2.15 -1 0  -2.1 -1 0  -2.05 -1 0  -2 -1 0  -1.95 -1 0  -1.9 -1 0  -1.85 -1 0  -1.8 -1 0  -1.75 -1 0  -1.7 -1 0  -1.65 -1 0  -1.6 -1 0  -1.55 -1 0  -1.5 -1 0  -1.45 -1 0  -1.4 -1 0  -1.35 -1 0  -1.3 -1 0  -1.25 -1 0  -1.2 -1 0  -1.15 -1 0  -1.1 -1 0  -1.05 -1 0  -1 -1 0  -0.9500000000000002 -1 0  -0.9000000000000004 -1 0  -0.8499999999999996 -1 0  -0.7999999999999998 -1 0  -0.75 -1 0  -0.7000000000000002 -1 0  -0.6500000000000004 -1 0  -0.5999999999999996 -1 0  -0.5499999999999998 -1 0  -0.5 -1 0  -0.4500000000000002 -1 0  -0.4000000000000004 -1 0  -0.3499999999999996 -1 0  -0.2999999999999998 -1 0  -0.25 -1 0  -0.2000000000000002 -1 0  -0.1500000000000004 -1 0  -0.09999999999999964 -1 0  -0.04999999999999982 -1 0  0 -1 0  0.04999999999999982 -1 0  0.09999999999999964 -1 0  0.1500000000000004 -1 0  0.2000000000000002 -1 0  0.25 -1 0  0.2999999999999998 -1 0  0.3499999999999996 -1 0  0.4000000000000004 -1 0  0.4500000000000002 -1 0  0.5 -1 0  0.5499999999999998 -1 0  0.5999999999999996 -1 0  0.6500000000000004 -1 0  0.7000000000000002 -1 0  0.75 -1 0  0.7999999999999998 -1 0  0.8499999999999996 -1 0  0.9000000000000004 -1 0  0.9500000000000002 -1 0  1 -1 0  1.05 -1 0  1.1 -1 0  1.15 -1 0  1.2 -1 0  1.25 -1 0  1.3 -1 0  1.35 -1 0  1.4 -1 0  1.45 -1 0  1.5 -1 0  1.55 -1 0  1.6 -1 0  1.65 -1 0  1.7 -1 0  1.75 -1 0  1.8 -1 0  1.85 -1 0  1.9 -1 0  1.95 -1 0  2 -1 0  2.05 -1 0  2.1 -1 0  2.15 -1 0  2.2 -1 0  2.25 -1 0  2.3 -1 0  2.35 -1 0  2.4 -1 0  2.45 -1 0  2.5 -1 0  2.55 -1 0  2.6 -1 0  2.65 -1 0  2.7 -1 0  2.75 -1 0  2.8 -1 0  2.85 -1 0  2.9 -1 0  2.95 -1 0  3 -1 0  3.050000000000001 -1 0  3.1 -1 0  3.15 -1 0  3.199999999999999 -1 0  3.25 -1 0  3.300000000000001 -1 0  3.35 -1 0  3.4 -1 0  3.449999999999999 -1 0  3.5 -1 0  3.550000000000001 -1 0  3.6 -1 0  3.65 -1 0  3.699999999999999 -1 0  3.75 -1 0  3.800000000000001 -1 0  3.85 -1 0  3.9 -1 0  3.949999999999999 -1 0  4 -1 0  4.050000000000001 -1 0  4.1 -1 0  4.15 -1 0  4.199999999999999 -1 0  4.25 -1 0  4.300000000000001 -1 0  4.35 -1 0  4.4 -1 0  4.449999999999999 -1 0  4.5 -1 0  4.550000000000001 -1 0  4.6 -1 0  4.65 -1 0  4.699999999999999 -1 0  4.75 -1 0  4.800000000000001 -1 0  4.85 -1 0  4.9 -1 0  4.949999999999999 -1 0  5 -1 0  -5 -0.95 0  -4.95 -0.95 0  -4.9 -0.95 0  -4.85 -0.95 0  -4.8 -0.95 0  -4.75 -0.95 0  -4.7 -0.95 0  -4.65 -0.95 0  -4.6 -0.95 0  -4.55 -0.95 0  -4.5 -0.95 0  -4.45 -0.95 0  -4.4 -0.95 0  -4.35 -0.95 0  -4.3 -0.95 0  -4.25 -0.95 0  -4.2 -0.95 0  -4.15 -0.95 0  -4.1 -0.95 0  -4.05 -0.95 0  -4 -0.95 0  -3.95 -0.95 0  -3.9 -0.95 0  -3.85 -0.95 0  -3.8 -0.95 0  -3.75 -0.95 0  -3.7 -0.95 0  -3.65 -0.95 0  -3.6 -0.95 0  -3.55 -0.95 0  -3.5 -0.95 0  -3.45 -0.95 0  -3.4 -0.95 0  -3.35 -0.95 0  -3.3 -0.95 0  -3.25 -0.95 0  -3.2 -0.95 0  -3.15 -0.95 0  -3.1 -0.95 0  -3.05 -0.95 0  -3 -0.95 0  -2.95 -0.95 0  -2.9 -0.95 0  -2.85 -0.95 0  -2.8 -0.95 0  -2.75 -0.95 0  -2.7 -0.95 0  -2.65 -0.95 0  -2.6 -0.95 0  -2.55 -0.95 0  -2.5 -0.95 0  -2.45 -0.95 0  -2.4 -0.95 0  -2.35 -0.95 0  -2.3 -0.95 0  -2.25 -0.95 0  -2.2 -0.95 0  -2.15 -0.95 0  -2.1 -0.95 0  -2.05 -0.95 0  -2 -0.95 0  -1.95 -0.95 0  -1.9 -0.95 0  -1.85 -0.95 0  -1.8 -0.95 0  -1.75 -0.95 0  -1.7 -0.95 0  -1.65 -0.95 0  -1.6 -0.95 0  -1.55 -0.95 0  -1.5 -0.95 0  -1.45 -0.95 0  -1.4 -0.95 0  -1.35 -0.95 0  -1.3 -0.95 0  -1.25 -0.95 0  -1.2 -0.95 0  -1.15 -0.95 0  -1.1 -0.95 0  -1.05 -0.95 0  -1 -0.95 0  -0.9500000000000002 -0.95 0  -0.9000000000000004 -0.95 0  -0.8499999999999996 -0.95 0  -0.7999999999999998 -0.95 0  -0.75 -0.95 0  -0.7000000000000002 -0.95 0  -0.6500000000000004 -0.95 0  -0.5999999999999996 -0.95 0  -0.5499999999999998 -0.95 0  -0.5 -0.95 0  -0.4500000000000002 -0.95 0  -0.4000000000000004 -0.95 0  -0.3499999999999996 -0.95 0  -0.2999999999999998 -0.95 0  -0.25 -0.95 0  -0.2000000000000002 -0.95 0  -0.1500000000000004 -0.95 0  -0.09999999999999964 -0.95 0  -0.04999999999999982 -0.95 0  0 -0.95 0  0.04999999999999982 -0.95 0  0.09999999999999964 -0.95 0  0.1500000000000004 -0.95 0  0.2000000000000002 -0.95 0  0.25 -0.95 0  0.2999999999999998 -0.95 0  0.3499999999999996 -0.95 0  0.4000000000000004 -0.95 0  0.4500000000000002 -0.95 0  0.5 -0.95 0  0.5499999999999998 -0.95 0  0.5999999999999996 -0.95 0  0.6500000000000004 -0.95 0  0.7000000000000002 -0.95 0  0.75 -0.95 0  0.7999999999999998 -0.95 0  0.8499999999999996 -0.95 0  0.9000000000000004 -0.95 0  0.9500000000000002 -0.95 0  1 -0.95 0  1.05 -0.95 0  1.1 -0.95 0  1.15 -0.95 0  1.2 -0.95 0  1.25 -0.95 0  1.3 -0.95 0  1.35 -0.95 0  1.4 -0.95 0  1.45 -0.95 0  1.5 -0.95 0  1.55 -0.95 0  1.6 -0.95 0  1.65 -0.95 0  1.7 -0.95 0  1.75 -0.95 0  1.8 -0.95 0  1.85 -0.95 0  1.9 -0.95 0  1.95 -0.95 0  2 -0.95 0  2.05 -0.95 0  2.1 -0.95 0  2.15 -0.95 0  2.2 -0.95 0  2.25 -0.95 0  2.3 -0.95 0  2.35 -0.95 0  2.4 -0.95 0  2.45 -0.95 0  2.5 -0.95 0  2.55 -0.95 0  2.6 -0.95 0  2.65 -0.95 0  2.7 -0.95 0  2.75 -0.95 0  2.8 -0.95 0  2.85 -0.95 0  2.9 -0.95 0  2.95 -0.95 0  3 -0.95 0  3.050000000000001 -0.95 0  3.1 -0.95 0  3.15 -0.95 0  3.199999999999999 -0.95 0  3.25 -0.95 0  3.300000000000001 -0.95 0  3.35 -0.95 0  3.4 -0.95 0  3.449999999999999 -0.95 0  3.5 -0.95 0  3.550000000000001 -0.95 0  3.6 -0.95 0  3.65 -0.95 0  3.699999999999999 -0.95 0  3.75 -0.95 0  3.800000000000001 -0.95 0  3.85 -0.95 0  3.9 -0.95 0  3.949999999999999 -0.95 0  4 -0.95 0  4.050000000000001 -0.95 0  4.1 -0.95 0  4.15 -0.95 0  4.199999999999999 -0.95 0  4.25 -0.95 0  4.300000000000001 -0.95 0  4.35 -0.95 0  4.4 -0.95 0  4.449999999999999 -0.95 0  4.5 -0.95 0  4.550000000000001 -0.95 0  4.6 -0.95 0  4.65 -0.95 0  4.699999999999999 -0.95 0  4.75 -0.95 0  4.800000000000001 -0.95 0  4.85 -0.95 0  4.9 -0.95 0  4.949999999999999 -0.95 0  5 -0.95 0  -5 -0.9 0  -4.95 -0.9 0  -4.9 -0.9 0  -4.85 -0.9 0  -4.8 -0.9 0  -4.75 -0.9 0  -4.7 -0.9 0  -4.65 -0.9 0  -4.6 -0.9 0  -4.55 -0.9 0  -4.5 -0.9 0  -4.45 -0.9 0  -4.4 -0.9 0  -4.35 -0.9 0  -4.3 -0.9 0  -4.25 -0.9 0  -4.2 -0.9 0  -4.15 -0.9 0  -4.1 -0.9 0  -4.05 -0.9 0  -4 -0.9 0  -3.95 -0.9 0  -3.9 -0.9 0  -3.85 -0.9 0  -3.8 -0.9 0  -3.75 -0.9 0  -3.7 -0.9 0  -3.65 -0.9 0  -3.6 -0.9 0  -3.55 -0.9 0  -3.5 -0.9 0  -3.45 -0.9 0  -3.4 -0.9 0  -3.35 -0.9 0  -3.3 -0.9 0  -3.25 -0.9 0  -3.2 -0.9 0  -3.15 -0.9 0  -3.1 -0.9 0  -3.05 -0.9 0  -3 -0.9 0  -2.95 -0.9 0  -2.9 -0.9 0  -2.85 -0.9 0  -2.8 -0.9 0  -2.75 -0.9 0  -2.7 -0.9 0  -2.65 -0.9 0  -2.6 -0.9 0  -2.55 -0.9 0  -2.5 -0.9 0  -2.45 -0.9 0  -2.4 -0.9 0  -2.35 -0.9 0  -2.3 -0.9 0  -2.25 -0.9 0  -2.2 -0.9 0  -2.15 -0.9 0  -2.1 -0.9 0  -2.05 -0.9 0  -2 -0.9 0  -1.95 -0.9 0  -1.9 -0.9 0  -1.85 -0.9 0  -1.8 -0.9 0  -1.75 -0.9 0  -1.7 -0.9 0  -1.65 -0.9 0  -1.6 -0.9 0  -1.55 -0.9 0  -1.5 -0.9 0  -1.45 -0.9 0  -1.4 -0.9 0  -1.35 -0.9 0  -1.3 -0.9 0  -1.25 -0.9 0  -1.2 -0.9 0  -1.15 -0.9 0  -1.1 -0.9 0  -1.05 -0.9 0  -1 -0.9 0  -0.9500000000000002 -0.9 0  -0.9000000000000004 -0.9 0  -0.8499999999999996 -0.9 0  -0.7999999999999998 -0.9 0  -0.75 -0.9 0  -0.7000000000000002 -0.9 0  -0.6500000000000004 -0.9 0  -0.5999999999999996 -0.9 0  -0.5499999999999998 -0.9 0  -0.5 -0.9 0  -0.4500000000000002 -0.9 0  -0.4000000000000004 -0.9 0  -0.3499999999999996 -0.9 0  -0.2999999999999998 -0.9 0  -0.25 -0.9 0  -0.2000000000000002 -0.9 0  -0.1500000000000004 -0.9 0  -0.09999999999999964 -0.9 0  -0.04999999999999982 -0.9 0  0 -0.9 0  0.04999999999999982 -0.9 0  0.09999999999999964 -0.9 0  0.1500000000000004 -0.9 0  0.2000000000000002 -0.9 0  0.25 -0.9 0  0.2999999999999998 -0.9 0  0.3499999999999996 -0.9 0  0.4000000000000004 -0.9 0  0.4500000000000002 -0.9 0  0.5 -0.9 0  0.5499999999999998 -0.9 0  0.5999999999999996 -0.9 0  0.6500000000000004 -0.9 0  0.7000000000000002 -0.9 0  0.75 -0.9 0  0.7999999999999998 -0.9 0  0.8499999999999996 -0.9 0  0.9000000000000004 -0.9 0  0.9500000000000002 -0.9 0  1 -0.9 0  1.05 -0.9 0  1.1 -0.9 0  1.15 -0.9 0  1.2 -0.9 0  1.25 -0.9 0  1.3 -0.9 0  1.35 -0.9 0  1.4 -0.9 0  1.45 -0.9 0  1.5 -0.9 0  1.55 -0.9 0  1.6 -0.9 0  1.65 -0.9 0  1.7 -0.9 0  1.75 -0.9 0  1.8 -0.9 0  1.85 -0.9 0  1.9 -0.9 0  1.95 -0.9 0  2 -0.9 0  2.05 -0.9 0  2.1 -0.9 0  2.15 -0.9 0  2.2 -0.9 0  2.25 -0.9 0  2.3 -0.9 0  2.35 -0.9 0  2.4 -0.9 0  2.45 -0.9 0  2.5 -0.9 0  2.55 -0.9 0  2.6 -0.9 0  2.65 -0.9 0  2.7 -0.9 0  2.75 -0.9 0  2.8 -0.9 0  2.85 -0.9 0  2.9 -0.9 0  2.95 -0.9 0  3 -0.9 0  3.050000000000001 -0.9 0  3.1 -0.9 0  3.15 -0.9 0  3.199999999999999 -0.9 0  3.25 -0.9 0  3.300000000000001 -0.9 0  3.35 -0.9 0  3.4 -0.9 0  3.449999999999999 -0.9 0  3.5 -0.9 0  3.550000000000001 -0.9 0  3.6 -0.9 0  3.65 -0.9 0  3.699999999999999 -0.9 0  3.75 -0.9 0  3.800000000000001 -0.9 0  3.85 -0.9 0  3.9 -0.9 0  3.949999999999999 -0.9 0  4 -0.9 0  4.050000000000001 -0.9 0  4.1 -0.9 0  4.15 -0.9 0  4.199999999999999 -0.9 0  4.25 -0.9 0  4.300000000000001 -0.9 0  4.35 -0.9 0  4.4 -0.9 0  4.449999999999999 -0.9 0  4.5 -0.9 0  4.550000000000001 -0.9 0  4.6 -0.9 0  4.65 -0.9 0  4.699999999999999 -0.9 0  4.75 -0.9 0  4.800000000000001 -0.9 0  4.85 -0.9 0  4.9 -0.9 0  4.949999999999999 -0.9 0  5 -0.9 0  -5 -0.85 0  -4.95 -0.85 0  -4.9 -0.85 0  -4.85 -0.85 0  -4.8 -0.85 0  -4.75 -0.85 0  -4.7 -0.85 0  -4.65 -0.85 0  -4.6 -0.85 0  -4.55 -0.85 0  -4.5 -0.85 0  -
[...]
<PointData  Vectors="f_15"> 
<DataArray  type="Float64"  Name="f_15"  NumberOfComponents="3" format="ascii">3.0032284157251867e+00 0.0000000000000000e+00 0.0000000000000000e+00  2.9988476590045146e+00 -9.1366808256059494e-03 0.0000000000000000e+00  3.0030442418097398e+00 1.1047390328462647e-02 0.0000000000000000e+00  2.9984902345276758e+00 -6.5664140128841317e-03 0.0000000000000000e+00  3.0025564326900454e+00 6.4399186373478943e-03 0.0000000000000000e+00  2.9985750190175162e+00 -2.6577671367725422e-03 0.0000000000000000e+00  3.0018248987539371e+00 2.6898200565301047e-03 0.0000000000000000e+00  2.9989104397392494e+00 -1.0573614152357903e-03 0.0000000000000000e+00  3.0012220374500251e+00 1.3622020994505724e-03 0.0000000000000000e+00  2.9992373595318256e+00 -5.5298332873144652e-04 0.0000000000000000e+00  3.0005993789796799e+00 2.7588750015314090e-04 0.0000000000000000e+00  2.9999644399855776e+00 6.7187767342587776e-04 0.0000000000000000e+00  2.9996143235987840e+00 -1.2689914286854516e-03 0.0000000000000000e+00  3.0008344454321039e+00 1.7591399337321166e-03 0.0000000000000000e+00  2.9989525896739555e+00 -1.8197851809671080e-03 0.0000000000000000e+00  3.0012766743035111e+00 1.8336395749739467e-03 0.0000000000000000e+00  2.9984434801188007e+00 -2.0206654418419173e-03 0.0000000000000000e+00  3.0020099593804765e+00 2.4534311018554068e-03 0.0000000000000000e+00  2.9975826364914084e+00 -2.9047482948483376e-03 0.0000000000000000e+00  3.0026792562439160e+00 3.0100026912972758e-03 0.0000000000000000e+00  2.9972898358399620e+00 -2.7768635183028348e-03 0.0000000000000000e+00  3.0027280215361376e+00 2.3957864624151812e-03 0.0000000000000000e+00  2.9971706393736333e+00 -2.2498614282016314e-03 0.0000000000000000e+00  3.0030523539159368e+00 2.2725074893807408e-03 0.0000000000000000e+00  2.9968060115444604e+00 -2.2952138141060937e-03 0.0000000000000000e+00  3.0031966644899417e+00 2.0208473110334161e-03 0.0000000000000000e+00  2.9968953729699845e+00 -1.6287163990198101e-03 0.0000000000000000e+00  3.0030854899126145e+00 1.2672595527777485e-03 0.0000000000000000e+00  2.9968528321236598e+00 -1.1134508386277133e-03 0.0000000000000000e+00  3.0031638267602210e+00 8.8161030409318912e-04 0.0000000000000000e+00  2.9969414075610654e+00 -5.2194551880086696e-04 0.0000000000000000e+00  3.0029073568320381e+00 5.2457323221521958e-05 0.0000000000000000e+00  2.9970667464498670e+00 1.0831283748803667e-04 0.0000000000000000e+00  3.0030902811235078e+00 -1.9571770696649169e-05 0.0000000000000000e+00  2.9967432360405990e+00 -1.1181128722793926e-04 0.0000000000000000e+00  3.0031116634748054e+00 -1.3279837401623888e-04 0.0000000000000000e+00  2.9970797213595066e+00 5.8753489472052848e-04 0.0000000000000000e+00  3.0027404699350910e+00 -7.4213757052684021e-04 0.0000000000000000e+00  2.9969120487467675e+00 4.0626482336003237e-04 0.0000000000000000e+00  3.0033335711585503e+00 4.4573941976502434e-04 0.0000000000000000e+00  2.9962482974776670e+00 -7.9646272298040781e-04 0.0000000000000000e+00  3.0034084765924720e+00 1.2245936569820310e-03 0.0000000000000000e+00  2.9963561541869681e+00 -9.0762925034947484e-04 0.0000000000000000e+00  3.0032281153434339e+00 2.2508975390403232e-03 0.0000000000000000e+00  2.9955569939439064e+00 -2.2326708468938168e-03 0.0000000000000000e+00  3.0036938185180775e+00 5.4108507250828965e-03 0.0000000000000000e+00  2.9941068871912599e+00 -3.1267548926813471e-03 0.0000000000000000e+00  3.0028643835138551e+00 8.9357024964871242e-03 0.0000000000000000e+00  2.9922775267910491e+00 -1.2489829408814993e-03 0.0000000000000000e+00  3.0003987522740911e+00 1.5627616216804557e-02 0.0000000000000000e+00  2.9876772848249580e+00 3.3983149282465334e-03 0.0000000000000000e+00  2.9955211769440404e+00 2.8564420773040125e-02 0.0000000000000000e+00  2.9791660501985273e+00 1.5781282132711273e-02 0.0000000000000000e+00  2.9849377994158610e+00 4.8885599359648320e-02 0.0000000000000000e+00  2.9654256613640158e+00 4.0565399120438390e-02 0.0000000000000000e+00  2.9669044952400299e+00 8.2431765030070200e-02 0.0000000000000000e+00  2.9429856136450847e+00 7.8965318381321509e-02 0.0000000000000000e+00  2.9405892687433628e+00 1.3358108796552837e-01 0.0000000000000000e+00  2.9107827235052572e+00 1.3584230407685169e-01 0.0000000000000000e+00  2.9034489628045628e+00 2.0123829408082328e-01 0.0000000000000000e+00  2.8695926470083286e+00 2.1329580780752055e-01 0.0000000000000000e+00  2.8558773285620900e+00 2.8817361960874249e-01 0.0000000000000000e+00  2.8182040066446810e+00 3.0696956204416354e-01 0.0000000000000000e+00  2.8003285829868600e+00 3.9453174731847018e-01 0.0000000000000000e+00  2.7578944126721385e+00 4.1775264336516671e-01 0.0000000000000000e+00  2.7365748485118453e+00 5.1409065763900830e-01 0.0000000000000000e+00  2.6918558888067943e+00 5.4430870929032826e-01 0.0000000000000000e+00  2.6661055943072420e+00 6.4795112913267106e-01 0.0000000000000000e+00  2.6199228853141636e+00 6.7925329764021691e-01 0.0000000000000000e+00  2.5924681234494229e+00 7.9452857914536257e-01 0.0000000000000000e+00  2.5428872993167295e+00 8.2591743398702966e-01 0.0000000000000000e+00  2.5157091649178356e+00 9.4450483715593914e-01 0.0000000000000000e+00  2.4638062036120769e+00 9.8335892042737583e-01 0.0000000000000000e+00  2.4362638755631023e+00 1.1038014668186593e+00 0.0000000000000000e+00  2.3824777792454910e+00 1.1405196365025196e+00 0.0000000000000000e+00  2.3567849583559415e+00 1.2705368887191986e+00 0.0000000000000000e+00  2.2991484987572246e+00 1.3108628758874792e+00 0.0000000000000000e+00  2.2764685224709806e+00 1.4276521431155786e+00 0.0000000000000000e+00  2.2169882459800303e+00 1.4889396964375143e+00 0.0000000000000000e+00  2.1945873103424178e+00 1.6021093128868871e+00 0.0000000000000000e+00  2.1358406063151025e+00 1.6498725737787374e+00 0.0000000000000000e+00  2.1135660934319787e+00 1.7772211750179536e+00 0.0000000000000000e+00  2.0556793635110027e+00 1.8362916312404949e+00 0.0000000000000000e+00  2.0330579560314010e+00 1.9356965799929262e+00 0.0000000000000000e+00  1.9797349469750771e+00 2.0094371828495250e+00 0.0000000000000000e+00  1.9545296999922686e+00 2.1089040232994827e+00 0.0000000000000000e+00  1.9099035834313631e+00 2.1686902862463198e+00 0.0000000000000000e+00  1.8856003846483855e+00 2.2632747228923686e+00 0.0000000000000000e+00  1.8535689371359569e+00 2.2977586202190805e+00 0.0000000000000000e+00  1.8443543771144344e+00 2.3496839385629387e+00 0.0000000000000000e+00  1.8373904638580745e+00 2.3443725545805476e+00 0.0000000000000000e+00  1.8417544485646684e+00 2.3530514331558834e+00 0.0000000000000000e+00  1.8421365142082169e+00 2.3331676291184609e+00 0.0000000000000000e+00  1.8424049478672182e+00 2.3482532275239363e+00 0.0000000000000000e+00  1.8440135762309531e+00 2.3314735600006138e+00 0.0000000000000000e+00  1.8455657454292682e+00 2.3395761148964773e+00 0.0000000000000000e+00  1.8446106126788837e+00 2.3324539713111268e+00 0.0000000000000000e+00  1.8442522548317770e+00 2.3404194726430747e+00 0.0000000000000000e+00  1.8476198589478694e+00 2.3248952911661585e+00 0.0000000000000000e+00  1.8449334095838226e+00 2.3378573806044423e+00 0.0000000000000000e+00  1.8449781328874613e+00 2.3316394774821108e+00 0.0000000000000000e+00  1.8481862763967181e+00 2.3301202025037080e+00 0.0000000000000000e+00  1.8463342909255442e+00 2.3288063810809101e+00 0.0000000000000000e+00  1.8459732955632886e+00 2.3337165886897360e+00 0.0000000000000000e+00  1.8458121836875745e+00 2.3299816840408201e+00 0.0000000000000000e+00  1.8488370860026715e+00 2.3253821747876122e+00 0.0000000000000000e+00  1.8458117063084210e+00 2.3327494943405505e+00 0.0000000000000000e+00  1.8467232679178958e+00 2.3268526190247560e+00 0.0000000000000000e+00  1.8468122108555944e+00 2.3301649904890622e+00 0.0000000000000000e+00  1.8477977756955790e+00 2.3245388768691928e+00 0.0000000000000000e+00  1.8462087284505768e+00 2.3301450059403219e+00 0.0000000000000000e+00  1.8467590222010912e+00 2.3246423717314273e+00 0.0000000000000000e+00  1.8481208465941503e+00 2.3277612221347521e+00 0.0000000000000000e+00  1.8455087306711688e+00 2.3185864438676904e+00 0.0000000000000000e+00  1.8478006527118240e+00 2.3225374884669074e+00 0.0000000000000000e+00  1.8473694586989244e+00 2.3057338310440714e+00 0.0000000000000000e+00  1.8465886295188845e+00 2.3159051604464422e+00 0.0000000000000000e+00  1.8458744935382261e+00 2.3009933388881012e+00 0.0000000000000000e+00  1.8508017526200689e+00 2.3080340269300574e+00 0.0000000000000000e+00  1.8423679294368411e+00 2.3053021032801029e+00 0.0000000000000000e+00  1.8517634442209641e+00 2.3149717959585576e+00 0.0000000000000000e+00  1.8423513837822720e+00 2.3080680382146586e+00 0.0000000000000000e+00  1.8547100751201215e+00 2.3178027516373230e+00 0.0000000000000000e+00  1.8353484222862761e+00 2.3246463512343349e+00 0.0000000000000000e+00  1.8627541507317513e+00 2.3082677129444487e+00 0.0000000000000000e+00  1.8295799033606834e+00 2.3363100635244640e+00 0.0000000000000000e+00  1.8652654638772981e+00 2.3049698499806341e+00 0.0000000000000000e+00  1.8275469510345188e+00 2.3444713139027455e+00 0.0000000000000000e+00  1.8682861529988111e+00 2.2932786516031367e+00 0.0000000000000000e+00  1.8234673668602197e+00 2.3591870216570046e+00 0.0000000000000000e+00  1.8703274711211137e+00 2.2832518675337607e+00 0.0000000000000000e+00  1.8235696796722127e+00 2.3614921141331635e+00 0.0000000000000000e+00  1.8672201558072101e+00 2.2827321621384140e+00 0.0000000000000000e+00  1.8243149383233057e+00 2.3598763012421093e+00 0.0000000000000000e+00  1.8618259745859220e+00 2.2662436586631980e+00 0.0000000000000000e+00  1.8130662183385677e+00 2.3440537822810108e+00 0.0000000000000000e+00  1.8272936482107711e+00 2.1774217391063950e+00 0.0000000000000000e+00  1.7327056747904372e+00 2.1735234598885120e+00 0.0000000000000000e+00  1.6639267385775165e+00 1.7529606626174683e+00 0.0000000000000000e+00  1.3300763540130964e+00 1.1514718430239306e+00 0.0000000000000000e+00  1.1260945463530170e+00 2.0897996109398886e-01 0.0000000000000000e+00  9.8722123836904441e-01 1.7046723747901579e-01 0.0000000000000000e+00  1.0328325359882269e+00 -1.1580707990216366e-01 0.0000000000000000e+00  9.6873826269768448e-01 1.2729071744593679e-01 0.0000000000000000e+00  1.0325050073736994e+00 -1.2860647898002389e-01 0.0000000000000000e+00  9.6611326518494234e-01 1.3446470140954286e-01 0.0000000000000000e+00  1.0360240105082557e+00 -1.4053757303537578e-01 0.0000000000000000e+00  9.6214180076595901e-01 1.4832714931551721e-01 0.0000000000000000e+00  1.0396377086362563e+00 -1.5081144241772118e-01 0.0000000000000000e+00  9.5927365789516827e-01 1.5570139706241540e-01 0.0000000000000000e+00  1.0425170565504398e+00 -1.5459484444271621e-01 0.0000000000000000e+00  9.5615345671050878e-01 1.5972854040073531e-01 0.0000000000000000e+00  1.0457726267134952e+00 -1.5728886871523845e-01 0.0000000000000000e+00  9.5379521458000049e-01 1.6050085247720466e-01 0.0000000000000000e+00  1.0464259614039209e+00 -1.5206637835503675e-01 0.0000000000000000e+00  9.5507226644088161e-01 1.4970838137446685e-01 0.0000000000000000e+00  1.0436343999874196e+00 -1.3691553951937807e-01 0.0000000000000000e+00  9.5877663163361038e-01 1.3172610976255630e-01 0.0000000000000000e+00  1.0391893815955957e+00 -1.1862783164804534e-01 0.0000000000000000e+00  9.6383703872882998e-01 1.1181208015563059e-01 0.0000000000000000e+00  1.0332817978479456e+00 -9.8479328362017768e-02 0.0000000000000000e+00  9.7025806860207076e-01 8.9866195420638381e-02 0.0000000000000000e+00  1.0265555584947157e+00 -7.7348202547321596e-02 0.0000000000000000e+00  9.7674230210763735e-01 6.8863654584763623e-02 0.0000000000000000e+00  1.0204307558861025e+00 -5.8737070167628073e-02 0.0000000000000000e+00  9.8233069914839299e-01 5.1479993795600726e-02 0.0000000000000000e+00  1.0152449896556361e+00 -4.3483852524897108e-02 0.0000000000000000e+00  9.8706440042334820e-01 3.7299725078424863e-02 0.0000000000000000e+00  1.0109267834907110e+00 -3.1015415867749172e-02 0.0000000000000000e+00  9.9087566033193342e-01 2.6079066519784543e-02 0.0000000000000000e+00  1.0076102047462328e+00 -2.1483985143907983e-02 0.0000000000000000e+00  9.9369898996857053e-01 1.7860605886581386e-02 0.0000000000000000e+00  1.0052022184938081e+00 -1.4618324677891769e-02 0.0000000000000000e+00  9.9574345679973053e-01 1.1995840593772867e-02 0.0000000000000000e+00  1.0034622275587837e+00 -9.6993607477527718e-03 0.0000000000000000e+00  9.9720674457530623e-01 7.8359281386327535e-03 0.0000000000000000e+00  1.0022443677162769e+00 -6.2653189246807814e-03 0.0000000000000000e+00  9.9820528555369892e-01 5.0094120342465617e-03 0.0000000000000000e+00  1.0014307690821282e+00 -3.9780666770802085e-03 0.0000000000000000e+00  9.9886528978695777e-01 3.1534259770700677e-03 0.0000000000000000e+00  1.0008952032216261e+00 -2.4811059476751367e-03 0.0000000000000000e+00  9.9929827892643663e-01 1.9435129981018198e-03 0.0000000000000000e+00  1.0005471480917527e+00 -1.5118080994353173e-03 0.0000000000000000e+00  9.9957542804062327e-01 1.1715220626269316e-03 0.0000000000000000e+00  1.0003282348024469e+00 -9.0349709154811237e-04 0.0000000000000000e+00  9.9974726623464338e-01 6.9448933969150871e-04 0.0000000000000000e+00  1.0001937523758095e+00 -5.3121469468919269e-04 0.0000000000000000e+00  9.9985226917629100e-01 4.0428814053474578e-04 0.0000000000000000e+00  1.0001120512970854e+00 -3.0584740743854985e-04 0.0000000000000000e+00  9.9991551679914059e-01 2.2996950973643962e-04 0.0000000000000000e+00  1.0000634845096752e+00 -1.7201386594731046e-04 0.0000000000000000e+00  9.9995263146106861e-01 1.2772421973326474e-04 0.0000000000000000e+00  1.0000354385606600e+00 -9.4506925016692902e-05 0.0000000000000000e+00  9.9997392407232955e-01 6.8857441017728706e-05 0.0000000000000000e+00  1.0000197056379407e+00 -5.0264645087155634e-05 0.0000000000000000e+00  9.9998592533554043e-01 3.4975655166644498e-05 0.0000000000000000e+00  1.0000114022616009e+00 -2.5040643253121586e-05 0.0000000000000000e+00  9.9999253288379608e-01 1.4835119698663243e-05 0.0000000000000000e+00  1.0000077672227758e+00 -1.0452032693534653e-05 0.0000000000000000e+00  9.9999631007862511e-01 1.9361990782962845e-06 0.0000000000000000e+00  1.0000073744255689e+00 0.0000000000000000e+00 0.0000000000000000e+00  2.9986902495758585e+00 0.0000000000000000e+00 1.0022266261604861e-02  2.9991434919746811e+00 2.0465824818916381e-03 -1.5596156944774049e-03  2.9988232095866429e+00 -4.9924116133649686e-03 -3.2557942960208352e-03  2.9994703499584054e+00 -1.0923137273667915e-03 1.3748425273994807e-03  2.9992180255044638e+00 -5.4168373870705142e-04 -5.2197552182833872e-04  2.9996540272980257e+00 -1.9119217018814751e-03 -9.2526278168017024e-05  2.9995150638733099e+00 -2.3532633500293555e-04 3.2624699436704620e-04  2.9999324688005395e+00 -4.7242040450473725e-04 -3.4738383843478231e-04  2.9995428934667498e+00 -7.5446936566466089e-04 3.2145517060789571e-04  3.0001368182974204e+00 1.3139617197208749e-04 -2.3039684355965671e-04  2.9997312015275193e+00 -3.9672253170265875e-04 7.8907598875700992e-05  2.9999900378442708e+00 1.6932314898877539e-05 1.5708640095758790e-04  2.9999309466282829e+00 -3.9870497951768170e-04 -4.5568014005219903e-04  3.0000958245807099e+00 7.2808070436709068e-04 7.8929739040482522e-04  2.9997154669753372e+00 -1.2694847081443146e-03 -1.1494163015133420e-03  3.0002722736141925e+00 1.4519034192103900e-03 1.5369896303946682e-03  2.9998285219667595e+00 -1.4296444144918919e-03 -1.9621106551867451e-03  2.9999938935281945e+00 1.3435103836178994e-03 2.4004404483507530e-03  3.0000105739491851e+00 -1.5300202781475076e-03 -2.8251623973932559e-03  3.0001199400583305e+00 1.9999634353267100e-03 3.2150931849945215e-03  2.9997089511114972e+00 -2.4937335771658361e-03 -3.5811224289853307e-03  3.0002975240486904e+00 2.7163142034715305e-03 3.9496889484344471e-03  2.9998286317559217e+00 -2.6621364948869889e-03 -4.3288802055375629e-03  3.0000480874601059e+00 2.5881339031611776e-03 4.7078096029824507e-03  2.9999341209486254e+00 -2.7592927139926827e-03 -5.0606209870872020e-03  3.0001783325631490e+00 3.0868975429651857e-03 5.4023324199901409e-03  2.9997786398650486e+00 -3.3796320285099258e-03 -5.7489813401381028e-03  3.0001661919610565e+00 3.4431602934632370e-03 6.1374348722147420e-03  2.9999239703696907e+00 -3.5180398502850678e-03 -6.5471582398364840e-03  3.0001221945672993e+00 3.6851563127769747e-03 6.9750640093140309e-03  2.9998143652737590e+00 -4.0273186123346155e-03 -7.4000827365711414e-03  3.0001923913858080e+00 4.1567727417122519e-03 7.8661611941002220e-03  3.0000095252124841e+00 -4.1573592808843369e-03 -8.3741562820456583e-03  2.9998668271329740e+00 4.0827402608384260e-03 8.9408188392289239e-03  3.0001284052129633e+00 -4.4555059283650951e-03 -9.5137169266707507e-03  3.0001361861837048e+00 4.9573529706442654e-03 1.0113926160791421e-02  2.9998161164474406e+00 -5.4824804111116218e-03 -1.0731893948010565e-02  3.0000775768131862e+00 5.3606502351999392e-03 1.1421359951468365e-02  3.0003481461537138e+00 -5.2578352418833291e-03 -1.2134367270133277e-02  2.9995867125328259e+00 5.1656008914382602e-03 1.2860726005902025e-02  3.0003535942125654e+00 -5.8412247204181989e-03 -1.3530086957785358e-02  2.9999866197098894e+00 6.4444297976756944e-03 1.4209141005549202e-02  2.9999704639920450e+00 -6.7212324671813315e-03 -1.4874820192954982e-02  2.9996524353693834e+00 6.8963655846441853e-03 1.5553240143273410e-02  3.0002575693046754e+00 -5.9601700149443685e-03 -1.6132882346908094e-02  2.9988418044372414e+00 7.7752287488004022e-03 1.6588092220936705e-02  2.9993860539286841e+00 -5.3727155851491255e-03 -1.6870561043166605e-02  2.9980792837190906e+00 1.0909990800020131e-02 1.7076292549850245e-02  2.9973038992057046e+00 -2.4711436800871479e-03 -1.7186905642624994e-02  2.9951577079268330e+00 1.5575936985679087e-02 1.7203937026047871e-02  2.9936515063315747e+00 5.4397639987325613e-03 -1.7023184349273836e-02  2.9892227466810128e+00 2.5847421005333493e-02 1.6630787516580835e-02  2.9854575358823898e+00 1.9433315504810346e-02 -1.6057165445235454e-02  2.9790323261508056e+00 4.5705139166344499e-02 1.5398123734994102e-02  2.9710878348127250e+00 4.5204734287499354e-02 -1.4713748315404335e-02  2.9610482000950356e+00 7.6894788399764810e-02 1.3957301377975385e-02  2.9493628532302174e+00 8.7165676661015601e-02 -1.3097295917636531e-02  2.9338436075083063e+00 1.2491547756404472e-01 1.2033154620525370e-02  2.9173163696387037e+00 1.4539249596476747e-01 -1.0920798721596892e-02  2.8975955895794687e+00 1.9260711594700325e-01 9.7791370343290381e-03  2.8748460100946267e+00 2.2321561870519102e-01 -8.7620624275818702e-03  2.8506987985158148e+00 2.7705311821316514e-01 7.7259455387608360e-03  2.8239001123491687e+00 3.2092376929074018e-01 -6.5982634730583278e-03  2.7942662943375853e+00 3.7952794022574116e-01 5.2093649865350700e-03  2.7640012426777427e+00 4.3320783495987891e-01 -3.7662179385374566e-03  2.7313357916344794e+00 4.9882288282565923e-01 2.3311714451747759e-03  2.6966425403835492e+00 5.6070312832093794e-01 -1.0693653940981513e-03  2.6618136667020966e+00 6.2844106909599129e-01 -1.6822963133064425e-04  2.6251966036166978e+00 7.0178546760987193e-01 1.6392041661775097e-03  2.5868553841790556e+00 7.6996329924533491e-01 -3.3704699455441418e-03  2.5495189624894889e+00 8.4904871558239636e-01 5.0982225243697398e-03  2.5097206937986689e+00 9.2223056605844544e-01 -6.3887823282250365e-03  2.4701576668874945e+00 1.0060517819855452e+00 7.0235528335926348e-03  2.4302396043734853e+00 1.0767469897936746e+00 -7.0884775263720234e-03  2.3899266161731259e+00 1.1708780411598860e+00 7.3565927939352521e-03  2.3487283428035886e+00 1.2421522678462507e+00 -8.0988925471368340e-03  2.3083211521066529e+00 1.3304837299687111e+00 9.2022224561029067e-03  2.2679981513914225e+00 1.4155056898328988e+00 -9.9833565529699429e-03  2.2252335703722466e+00 1.5038386121863094e+00 1.0307977223578893e-02  2.1873122195169898e+00 1.5749222030202388e+00 -1.0718533103740855e-02  2.1436338723693580e+00 1.6833600851290487e+00 1.1604482278818579e-02  2.1060541932088439e+00 1.754988