<?xml version="1.0"?>
<VTKFile type="UnstructuredGrid"  version="0.1"  >
<UnstructuredGrid>
<Piece  NumberOfPoints="8241" NumberOfCells="16000">
<Points>
<DataArray  type="Float64"  NumberOfComponents="3"  format="ascii">-5 -1 0  -4.95 -1 0  -4.9 -1 0  -4.85 -1 0  -4.8 -1 0  -4.75 -1 0  -4.7 -1 0  -4.65 -1 0  -4.6 -1 0  -4.55 -1 0  -4.5 -1 0  -4.45 -1 0  -4.4 -1 0  -4.35 -1 0  -4.3 -1 0  -4.25 -1 0  -4.2 -1 0  -4.15 -1 0  -4.1 -1 0  -4.05 -1 0  -4 -1 0  -3.95 -1 0  -3.9 -1 0  -3.85 -1 0  -3.8 -1 0  -3.75 -1 0  -3.7 -1 0  -3.65 -1 0  -3.6 -1 0  -3.55 -1 0  -3.5 -1 0  -3.45 -1 0  -3.4 -1 0  -3.35 -1 0  -3.3 -1 0  -3.25 -1 0  -3.2 -1 0  -3.15 -1 0  -3.1 -1 0  -3.05 -1 0  -3 -1 0  -2.95 -1 0  -2.9 -1 0  -2.85 -1 0  -2.8 -1 0  -2.75 -1 0  -2.7 -1 0  -2.65 -1 0  -2.6 -1 0  -2.55 -1 0  -2.5 -1 0  -2.45 -1 0  -2.4 -1 0  -2.35 -1 0  -2.3 -1 0  -2.25 -1 0  -2.2 -1 0  -2.15 -1 0  -2.1 -1 0  -2.05 -1 0  -2 -1 0  -1.95 -1 0  -1.9 -1 0  -1.85 -1 0  -1.8 -1 0  -1.75 -1 0  -1.7 -1 0  -1.65 -1 0  -1.6 -1 0  -1.55 -1 0  -1.5 -1 0  -1.45 -1 0  -1.4 -1 0  -1.35 -1 0  -1.3 -1 0  -1.25 -1 0  -1.2 -1 0  -1.15 -1 0  -1.1 -1 0  -1.05 -1 0  -1 -1 0  -0.9500000000000002 -1 0  -0.9000000000000004 -1 0  -0.8499999999999996 -1 0  -0.7999999999999998 -1 0  -0.75 -1 0  -0.7000000000000002 -1 0  -0.6500000000000004 -1 0  -0.5999999999999996 -1 0  -0.5499999999999998 -1 0  -0.5 -1 0  -0.4500000000000002 -1 0  -0.4000000000000004 -1 0  -0.3499999999999996 -1 0  -0.2999999999999998 -1 0  -0.25 -1 0  -0.2000000000000002 -1 0  -0.1500000000000004 -1 0  -0.09999999999999964 -1 0  -0.04999999999999982 -1 0  0 -1 0  0.04999999999999982 -1 0  0.09999999999999964 -1 0  0.1500000000000004 -1 0  0.2000000000000002 -1 0  0.25 -1 0  0.2999999999999998 -1 0  0.3499999999999996 -1 0  0.4000000000000004 -1 0  0.4500000000000002 -1 0  0.5 -1 0  0.5499999999999998 -1 0  0.5999999999999996 -1 0  0.6500000000000004 -1 0  0.7000000000000002 -1 0  0.75 -1 0  0.7999999999999998 -1 0  0.8499999999999996 -1 0  0.9000000000000004 -1 0  0.9500000000000002 -1 0  1 -1 0  1.05 -1 0  1.1 -1 0  1.15 -1 0  1.2 -1 0  1.25 -1 0  1.3 -1 0  1.35 -1 0  1.4 -1 0  1.45 -1 0  1.5 -1 0  1.55 -1 0  1.6 -1 0  1.65 -1 0  1.7 -1 0  1.75 -1 0  1.8 -1 0  1.85 -1 0  1.9 -1 0  1.95 -1 0  2 -1 0  2.05 -1 0  2.1 -1 0  2.15 -1 0  2.2 -1 0  2.25 -1 0  2.3 -1 0  2.35 -1 0  2.4 -1 0  2.45 -1 0  2.5 -1 0  2.55 -1 0  2.6 -1 0  2.65 -1 0  2.7 -1 0  2.75 -1 0  2.8 -1 0  2.85 -1 0  2.9 -1 0  2.95 -1 0  3 -1 0  3.050000000000001 -1 0  3.1 -1 0  3.15 -1 0  3.199999999999999 -1 0  3.25 -1 0  3.300000000000001 -1 0  3.35 -1 0  3.4 -1 0  3.449999999999999 -1 0  3.5 -1 0  3.550000000000001 -1 0  3.6 -1 0  3.65 -1 0  3.699999999999999 -1 0  3.75 -1 0  3.800000000000001 -1 0  3.85 -1 0  3.9 -1 0  3.949999999999999 -1 0  4 -1 0  4.050000000000001 -1 0  4.1 -1 0  4.15 -1 0  4.199999999999999 -1 0  4.25 -1 0  4.300000000000001 -1 0  4.35 -1 0  4.4 -1 0  4.449999999999999 -1 0  4.5 -1 0  4.550000000000001 -1 0  4.6 -1 0  4.65 -1 0  4.699999999999999 -1 0  4.75 -1 0  4.800000000000001 -1 0  4.85 -1 0  4.9 -1 0  4.949999999999999 -1 0  5 -1 0  -5 -0.95 0  -4.95 -0.95 0  -4.9 -0.95 0  -4.85 -0.95 0  -4.8 -0.95 0  -4.75 -0.95 0  -4.7 -0.95 0  -4.65 -0.95 0  -4.6 -0.95 0  -4.55 -0.95 0  -4.5 -0.95 0  -4.45 -0.95 0  -4.4 -0.95 0  -4.35 -0.95 0  -4.3 -0.95 0  -4.25 -0.95 0  -4.2 -0.95 0  -4.15 -0.95 0  -4.1 -0.95 0  -4.05 -0.95 0  -4 -0.95 0  -3.95 -0.95 0  -3.9 -0.95 0  -3.85 -0.95 0  -3.8 -0.95 0  -3.75 -0.95 0  -3.7 -0.95 0  -3.65 -0.95 0  -3.6 -0.95 0  -3.55 -0.95 0  -3.5 -0.95 0  -3.45 -0.95 0  -3.4 -0.95 0  -3.35 -0.95 0  -3.3 -0.95 0  -3.25 -0.95 0  -3.2 -0.95 0  -3.15 -0.95 0  -3.1 -0.95 0  -3.05 -0.95 0  -3 -0.95 0  -2.95 -0.95 0  -2.9 -0.95 0  -2.85 -0.95 0  -2.8 -0.95 0  -2.75 -0.95 0  -2.7 -0.95 0  -2.65 -0.95 0  -2.6 -0.95 0  -2.55 -0.95 0  -2.5 -0.95 0  -2.45 -0.95 0  -2.4 -0.95 0  -2.35 -0.95 0  -2.3 -0.95 0  -2.25 -0.95 0  -2.2 -0.95 0  -2.15 -0.95 0  -2.1 -0.95 0  -2.05 -0.95 0  -2 -0.95 0  -1.95 -0.95 0  -1.9 -0.95 0  -1.85 -0.95 0  -1.8 -0.95 0  -1.75 -0.95 0  -1.7 -0.95 0  -1.65 -0.95 0  -1.6 -0.95 0  -1.55 -0.95 0  -1.5 -0.95 0  -1.45 -0.95 0  -1.4 -0.95 0  -1.35 -0.95 0  -1.3 -0.95 0  -1.25 -0.95 0  -1.2 -0.95 0  -1.15 -0.95 0  -1.1 -0.95 0  -1.05 -0.95 0  -1 -0.95 0  -0.9500000000000002 -0.95 0  -0.9000000000000004 -0.95 0  -0.8499999999999996 -0.95 0  -0.7999999999999998 -0.95 0  -0.75 -0.95 0  -0.7000000000000002 -0.95 0  -0.6500000000000004 -0.95 0  -0.5999999999999996 -0.95 0  -0.5499999999999998 -0.95 0  -0.5 -0.95 0  -0.4500000000000002 -0.95 0  -0.4000000000000004 -0.95 0  -0.3499999999999996 -0.95 0  -0.2999999999999998 -0.95 0  -0.25 -0.95 0  -0.2000000000000002 -0.95 0  -0.1500000000000004 -0.95 0  -0.09999999999999964 -0.95 0  -0.04999999999999982 -0.95 0  0 -0.95 0  0.04999999999999982 -0.95 0  0.09999999999999964 -0.95 0  0.1500000000000004 -0.95 0  0.2000000000000002 -0.95 0  0.25 -0.95 0  0.2999999999999998 -0.95 0  0.3499999999999996 -0.95 0  0.4000000000000004 -0.95 0  0.4500000000000002 -0.95 0  0.5 -0.95 0  0.5499999999999998 -0.95 0  0.5999999999999996 -0.95 0  0.6500000000000004 -0.95 0  0.7000000000000002 -0.95 0  0.75 -0.95 0  0.7999999999999998 -0.95 0  0.8499999999999996 -0.95 0  0.9000000000000004 -0.95 0  0.9500000000000002 -0.95 0  1 -0.95 0  1.05 -0.95 0  1.1 -0.95 0  1.15 -0.95 0  1.2 -0.95 0  1.25 -0.95 0  1.3 -0.95 0  1.35 -0.95 0  1.4 -0.95 0  1.45 -0.95 0  1.5 -0.95 0  1.55 -0.95 0  1.6 -0.95 0  1.65 -0.95 0  1.7 -0.95 0  1.75 -0.95 0  1.8 -0.95 0  1.85 -0.95 0  1.9 -0.95 0  1.95 -0.95 0  2 -0.95 0  2.05 -0.95 0  2.1 -0.95 0  2.15 -0.95 0  2.2 -0.95 0  2.25 -0.95 0  2.3 -0.95 0  2.35 -0.95 0  2.4 -0.95 0  2.45 -0.95 0  2.5 -0.95 0  2.55 -0.95 0  2.6 -0.95 0  2.65 -0.95 0  2.7 -0.95 0  2.75 -0.95 0  2.8 -0.95 0  2.85 -0.95 0  2.9 -0.95 0  2.95 -0.95 0  3 -0.95 0  3.050000000000001 -0.95 0  3.1 -0.95 0  3.15 -0.95 0  3.199999999999999 -0.95 0  3.25 -0.95 0  3.300000000000001 -0.95 0  3.35 -0.95 0  3.4 -0.95 0  3.449999999999999 -0.95 0  3.5 -0.95 0  3.550000000000001 -0.95 0  3.6 -0.95 0  3.65 -0.95 0  3.699999999999999 -0.95 0  3.75 -0.95 0  3.800000000000001 -0.95 0  3.85 -0.95 0  3.9 -0.95 0  3.949999999999999 -0.95 0  4 -0.95 0  4.050000000000001 -0.95 0  4.1 -0.95 0  4.15 -0.95 0  4.199999999999999 -0.95 0  4.25 -0.95 0  4.300000000000001 -0.95 0  4.35 -0.95 0  4.4 -0.95 0  4.449999999999999 -0.95 0  4.5 -0.95 0  4.550000000000001 -0.95 0  4.6 -0.95 0  4.65 -0.95 0  4.699999999999999 -0.95 0  4.75 -0.95 0  4.800000000000001 -0.95 0  4.85 -0.95 0  4.9 -0.95 0  4.949999999999999 -0.95 0  5 -0.95 0  -5 -0.9 0  -4.95 -0.9 0  -4.9 -0.9 0  -4.85 -0.9 0  -4.8 -0.9 0  -4.75 -0.9 0  -4.7 -0.9 0  -4.65 -0.9 0  -4.6 -0.9 0  -4.55 -0.9 0  -4.5 -0.9 0  -4.45 -0.9 0  -4.4 -0.9 0  -4.35 -0.9 0  -4.3 -0.9 0  -4.25 -0.9 0  -4.2 -0.9 0  -4.15 -0.9 0  -4.1 -0.9 0  -4.05 -0.9 0  -4 -0.9 0  -3.95 -0.9 0  -3.9 -0.9 0  -3.85 -0.9 0  -3.8 -0.9 0  -3.75 -0.9 0  -3.7 -0.9 0  -3.65 -0.9 0  -3.6 -0.9 0  -3.55 -0.9 0  -3.5 -0.9 0  -3.45 -0.9 0  -3.4 -0.9 0  -3.35 -0.9 0  -3.3 -0.9 0  -3.25 -0.9 0  -3.2 -0.9 0  -3.15 -0.9 0  -3.1 -0.9 0  -3.05 -0.9 0  -3 -0.9 0  -2.95 -0.9 0  -2.9 -0.9 0  -2.85 -0.9 0  -2.8 -0.9 0  -2.75 -0.9 0  -2.7 -0.9 0  -2.65 -0.9 0  -2.6 -0.9 0  -2.55 -0.9 0  -2.5 -0.9 0  -2.45 -0.9 0  -2.4 -0.9 0  -2.35 -0.9 0  -2.3 -0.9 0  -2.25 -0.9 0  -2.2 -0.9 0  -2.15 -0.9 0  -2.1 -0.9 0  -2.05 -0.9 0  -2 -0.9 0  -1.95 -0.9 0  -1.9 -0.9 0  -1.85 -0.9 0  -1.8 -0.9 0  -1.75 -0.9 0  -1.7 -0.9 0  -1.65 -0.9 0  -1.6 -0.9 0  -1.55 -0.9 0  -1.5 -0.9 0  -1.45 -0.9 0  -1.4 -0.9 0  -1.35 -0.9 0  -1.3 -0.9 0  -1.25 -0.9 0  -1.2 -0.9 0  -1.15 -0.9 0  -1.1 -0.9 0  -1.05 -0.9 0  -1 -0.9 0  -0.9500000000000002 -0.9 0  -0.9000000000000004 -0.9 0  -0.8499999999999996 -0.9 0  -0.7999999999999998 -0.9 0  -0.75 -0.9 0  -0.7000000000000002 -0.9 0  -0.6500000000000004 -0.9 0  -0.5999999999999996 -0.9 0  -0.5499999999999998 -0.9 0  -0.5 -0.9 0  -0.4500000000000002 -0.9 0  -0.4000000000000004 -0.9 0  -0.3499999999999996 -0.9 0  -0.2999999999999998 -0.9 0  -0.25 -0.9 0  -0.2000000000000002 -0.9 0  -0.1500000000000004 -0.9 0  -0.09999999999999964 -0.9 0  -0.04999999999999982 -0.9 0  0 -0.9 0  0.04999999999999982 -0.9 0  0.09999999999999964 -0.9 0  0.1500000000000004 -0.9 0  0.2000000000000002 -0.9 0  0.25 -0.9 0  0.2999999999999998 -0.9 0  0.3499999999999996 -0.9 0  0.4000000000000004 -0.9 0  0.4500000000000002 -0.9 0  0.5 -0.9 0  0.5499999999999998 -0.9 0  0.5999999999999996 -0.9 0  0.6500000000000004 -0.9 0  0.7000000000000002 -0.9 0  0.75 -0.9 0  0.7999999999999998 -0.9 0  0.8499999999999996 -0.9 0  0.9000000000000004 -0.9 0  0.9500000000000002 -0.9 0  1 -0.9 0  1.05 -0.9 0  1.1 -0.9 0  1.15 -0.9 0  1.2 -0.9 0  1.25 -0.9 0  1.3 -0.9 0  1.35 -0.9 0  1.4 -0.9 0  1.45 -0.9 0  1.5 -0.9 0  1.55 -0.9 0  1.6 -0.9 0  1.65 -0.9 0  1.7 -0.9 0  1.75 -0.9 0  1.8 -0.9 0  1.85 -0.9 0  1.9 -0.9 0  1.95 -0.9 0  2 -0.9 0  2.05 -0.9 0  2.1 -0.9 0  2.15 -0.9 0  2.2 -0.9 0  2.25 -0.9 0  2.3 -0.9 0  2.35 -0.9 0  2.4 -0.9 0  2.45 -0.9 0  2.5 -0.9 0  2.55 -0.9 0  2.6 -0.9 0  2.65 -0.9 0  2.7 -0.9 0  2.75 -0.9 0  2.8 -0.9 0  2.85 -0.9 0  2.9 -0.9 0  2.95 -0.9 0  3 -0.9 0  3.050000000000001 -0.9 0  3.1 -0.9 0  3.15 -0.9 0  3.199999999999999 -0.9 0  3.25 -0.9 0  3.300000000000001 -0.9 0  3.35 -0.9 0  3.4 -0.9 0  3.449999999999999 -0.9 0  3.5 -0.9 0  3.550000000000001 -0.9 0  3.6 -0.9 0  3.65 -0.9 0  3.699999999999999 -0.9 0  3.75 -0.9 0  3.800000000000001 -0.9 0  3.85 -0.9 0  3.9 -0.9 0  3.949999999999999 -0.9 0  4 -0.9 0  4.050000000000001 -0.9 0  4.1 -0.9 0  4.15 -0.9 0  4.199999999999999 -0.9 0  4.25 -0.9 0  4.300000000000001 -0.9 0  4.35 -0.9 0  4.4 -0.9 0  4.449999999999999 -0.9 0  4.5 -0.9 0  4.550000000000001 -0.9 0  4.6 -0.9 0  4.65 -0.9 0  4.699999999999999 -0.9 0  4.75 -0.9 0  4.800000000000001 -0.9 0  4.85 -0.9 0  4.9 -0.9 0  4.949999999999999 -0.9 0  5 -0.9 0  -5 -0.85 0  -4.95 -0.85 0  -4.9 -0.85 0  -4.85 -0.85 0  -4.8 -0.85 0  -4.75 -0.85 0  -4.7 -0.85 0  -4.65 -0.85 0  -4.6 -0.85 0  -4.55 -0.85 0  -4.5 -0.85 0  -
[...]
<PointData  Vectors="f_15"> 
<DataArray  type="Float64"  Name="f_15"  NumberOfComponents="3" format="ascii">1.2447740371413059e+00 0.0000000000000000e+00 0.0000000000000000e+00  1.2442233632955633e+00 2.8191664859969642e-02 0.0000000000000000e+00  1.2448220706565876e+00 5.8021723250341460e-02 0.0000000000000000e+00  1.2443187393577904e+00 8.6119365706817871e-02 0.0000000000000000e+00  1.2448817388481024e+00 1.1529045762359653e-01 0.0000000000000000e+00  1.2444877334386917e+00 1.4379540658458603e-01 0.0000000000000000e+00  1.2450723134091901e+00 1.7256797807626392e-01 0.0000000000000000e+00  1.2446634649572987e+00 2.0121835670801955e-01 0.0000000000000000e+00  1.2453599383464569e+00 2.2975598443811540e-01 0.0000000000000000e+00  1.2449876083103193e+00 2.5842613019296035e-01 0.0000000000000000e+00  1.2456705377218924e+00 2.8678165664074773e-01 0.0000000000000000e+00  1.2454354961760699e+00 3.1535545349174648e-01 0.0000000000000000e+00  1.2461644494791493e+00 3.4351873282128459e-01 0.0000000000000000e+00  1.2459412310482403e+00 3.7197685105917383e-01 0.0000000000000000e+00  1.2468230367470408e+00 3.9987708079524298e-01 0.0000000000000000e+00  1.2466857716026944e+00 4.2813622614991159e-01 0.0000000000000000e+00  1.2476018683867376e+00 4.5573587173835983e-01 0.0000000000000000e+00  1.2476601805058916e+00 4.8370114934020858e-01 0.0000000000000000e+00  1.2487046063133498e+00 5.1088491630423005e-01 0.0000000000000000e+00  1.2488613286480101e+00 5.3849650355813694e-01 0.0000000000000000e+00  1.2501456011861485e+00 5.6508440768996038e-01 0.0000000000000000e+00  1.2505206485699458e+00 5.9214924146626757e-01 0.0000000000000000e+00  1.2519879150748161e+00 6.1807636521234888e-01 0.0000000000000000e+00  1.2526996985104459e+00 6.4435007125726218e-01 0.0000000000000000e+00  1.2545001299065974e+00 6.6926764856071619e-01 0.0000000000000000e+00  1.2555461883229970e+00 6.9462214724800120e-01 0.0000000000000000e+00  1.2578110334622041e+00 7.1825477133156612e-01 0.0000000000000000e+00  1.2593617959828414e+00 7.4224276561332625e-01 0.0000000000000000e+00  1.2621318731339184e+00 7.6440743823619695e-01 0.0000000000000000e+00  1.2643118620791141e+00 7.8673608400430073e-01 0.0000000000000000e+00  1.2677231315046171e+00 8.0708291038889934e-01 0.0000000000000000e+00  1.2705567225857857e+00 8.2766696534398798e-01 0.0000000000000000e+00  1.2746404216918399e+00 8.4615859416754857e-01 0.0000000000000000e+00  1.2781448555641837e+00 8.6494836433960431e-01 0.0000000000000000e+00  1.2828007043659968e+00 8.8189283556382991e-01 0.0000000000000000e+00  1.2868624056365461e+00 8.9923188747165161e-01 0.0000000000000000e+00  1.2919520408016492e+00 9.1499638894197421e-01 0.0000000000000000e+00  1.2963849442036059e+00 9.3145989150406971e-01 0.0000000000000000e+00  1.3017320185737804e+00 9.4652026827772873e-01 0.0000000000000000e+00  1.3063890888083365e+00 9.6248963382825548e-01 0.0000000000000000e+00  1.3118618544565643e+00 9.7726820601245612e-01 0.0000000000000000e+00  1.3166431133694658e+00 9.9299021751106953e-01 0.0000000000000000e+00  1.3221787476396583e+00 1.0076304026270122e+00 0.0000000000000000e+00  1.3270447931613572e+00 1.0232798325852244e+00 0.0000000000000000e+00  1.3326129230681298e+00 1.0378129813260104e+00 0.0000000000000000e+00  1.3375463450459866e+00 1.0534179373532606e+00 0.0000000000000000e+00  1.3431518853574194e+00 1.0678997202083642e+00 0.0000000000000000e+00  1.3481342957716198e+00 1.0834424678496835e+00 0.0000000000000000e+00  1.3537753138237616e+00 1.0978774482519156e+00 0.0000000000000000e+00  1.3588179414945325e+00 1.1133896775824916e+00 0.0000000000000000e+00  1.3644765561484988e+00 1.1277474229297009e+00 0.0000000000000000e+00  1.3695772047260799e+00 1.1432465499601729e+00 0.0000000000000000e+00  1.3752713761248405e+00 1.1575447786659272e+00 0.0000000000000000e+00  1.3804019541259589e+00 1.1730028531512648e+00 0.0000000000000000e+00  1.3861375135925416e+00 1.1872711245464791e+00 0.0000000000000000e+00  1.3913141711153634e+00 1.2026897789003910e+00 0.0000000000000000e+00  1.3970575058168306e+00 1.2169110606535973e+00 0.0000000000000000e+00  1.4022919655907489e+00 1.2323137047467740e+00 0.0000000000000000e+00  1.4080578351409934e+00 1.2465030065262961e+00 0.0000000000000000e+00  1.4133109307888023e+00 1.2618429560390858e+00 0.0000000000000000e+00  1.4191187936951946e+00 1.2760687301501743e+00 0.0000000000000000e+00  1.4244036437305061e+00 1.2913056501194580e+00 0.0000000000000000e+00  1.4302079124083851e+00 1.3055658367519993e+00 0.0000000000000000e+00  1.4355556120960791e+00 1.3207328603417487e+00 0.0000000000000000e+00  1.4413601139066838e+00 1.3350232187530071e+00 0.0000000000000000e+00  1.4467274825696914e+00 1.3500608128122522e+00 0.0000000000000000e+00  1.4525664072109861e+00 1.3644957109466569e+00 0.0000000000000000e+00  1.4579573577109648e+00 1.3793058600508301e+00 0.0000000000000000e+00  1.4637812650646278e+00 1.3938831131749869e+00 0.0000000000000000e+00  1.4692439152226773e+00 1.4085829968973089e+00 0.0000000000000000e+00  1.4750419140123605e+00 1.4231417617247750e+00 0.0000000000000000e+00  1.4805357312841401e+00 1.4378062966867253e+00 0.0000000000000000e+00  1.4863542739707976e+00 1.4524240441384288e+00 0.0000000000000000e+00  1.4918661496455945e+00 1.4668732445796684e+00 0.0000000000000000e+00  1.4976656997320472e+00 1.4816566291907727e+00 0.0000000000000000e+00  1.5032457402065309e+00 1.4959946208884261e+00 0.0000000000000000e+00  1.5090071782418484e+00 1.5106240105630619e+00 0.0000000000000000e+00  1.5146178226242961e+00 1.5251811821662904e+00 0.0000000000000000e+00  1.5203964023893632e+00 1.5395526428705020e+00 0.0000000000000000e+00  1.5260054577202364e+00 1.5540890806592256e+00 0.0000000000000000e+00  1.5317785138270821e+00 1.5686116856614054e+00 0.0000000000000000e+00  1.5374293193747726e+00 1.5828650652147698e+00 0.0000000000000000e+00  1.5431704203289947e+00 1.5973895840790275e+00 0.0000000000000000e+00  1.5488367507186560e+00 1.6118405080829099e+00 0.0000000000000000e+00  1.5545951030339829e+00 1.6258956828582145e+00 0.0000000000000000e+00  1.5602385043320839e+00 1.6405955350977963e+00 0.0000000000000000e+00  1.5660021600443970e+00 1.6546111506259857e+00 0.0000000000000000e+00  1.5716588828429248e+00 1.6689557578018714e+00 0.0000000000000000e+00  1.5773961917972481e+00 1.6831843719427977e+00 0.0000000000000000e+00  1.5830513853221173e+00 1.6974931184788924e+00 0.0000000000000000e+00  1.5888009340654639e+00 1.7112557209230059e+00 0.0000000000000000e+00  1.5944150722788606e+00 1.7259844611362836e+00 0.0000000000000000e+00  1.6001734781326515e+00 1.7394084161676342e+00 0.0000000000000000e+00  1.6057708260638570e+00 1.7539327950036572e+00 0.0000000000000000e+00  1.6115085691851792e+00 1.7675708296171211e+00 0.0000000000000000e+00  1.6170823019873157e+00 1.7818319675327210e+00 0.0000000000000000e+00  1.6228195117574387e+00 1.7952356178673237e+00 0.0000000000000000e+00  1.6283441012014652e+00 1.8096648568862999e+00 0.0000000000000000e+00  1.6340730515972353e+00 1.8228419515281551e+00 0.0000000000000000e+00  1.6395643891126805e+00 1.8369264988571894e+00 0.0000000000000000e+00  1.6452577740126828e+00 1.8504148063001151e+00 0.0000000000000000e+00  1.6507078866151601e+00 1.8640085032337990e+00 0.0000000000000000e+00  1.6563465145536365e+00 1.8775253788914068e+00 0.0000000000000000e+00  1.6617119011676071e+00 1.8910692583055568e+00 0.0000000000000000e+00  1.6672387491869443e+00 1.9045493954055115e+00 0.0000000000000000e+00  1.6724506650331119e+00 1.9179588603411633e+00 0.0000000000000000e+00  1.6778148188895081e+00 1.9316285833409310e+00 0.0000000000000000e+00  1.6828937186150268e+00 1.9448502509860666e+00 0.0000000000000000e+00  1.6881721418720144e+00 1.9582330064846336e+00 0.0000000000000000e+00  1.6933830944592889e+00 1.9711250456237983e+00 0.0000000000000000e+00  1.6987626109594702e+00 1.9836238105069122e+00 0.0000000000000000e+00  1.7043560512144014e+00 1.9960161397549172e+00 0.0000000000000000e+00  1.7097472197954486e+00 2.0075916903630522e+00 0.0000000000000000e+00  1.7154588262791932e+00 2.0197959310084088e+00 0.0000000000000000e+00  1.7207740376333760e+00 2.0316045107440663e+00 0.0000000000000000e+00  1.7256477709542009e+00 2.0419729179519539e+00 0.0000000000000000e+00  1.7324316460723306e+00 2.0574909782242456e+00 0.0000000000000000e+00  1.7344214964160050e+00 2.0596957564606484e+00 0.0000000000000000e+00  1.7469608830730015e+00 2.0834227435578225e+00 0.0000000000000000e+00  1.7272672828024198e+00 2.1088044422384851e+00 0.0000000000000000e+00  1.8084458103860828e+00 2.0031091437266131e+00 0.0000000000000000e+00  2.2965582467940462e+00 8.5024586754663278e-01 0.0000000000000000e+00  2.7373746973154671e+00 9.3174885980900832e-03 0.0000000000000000e+00  2.8642241566880373e+00 -1.7698313141302804e-01 0.0000000000000000e+00  2.8644714112700602e+00 -1.7125812592142090e-01 0.0000000000000000e+00  2.8724098993042237e+00 -1.6880586721968521e-01 0.0000000000000000e+00  2.8834898881195810e+00 -1.6154729804207907e-01 0.0000000000000000e+00  2.8885291111416103e+00 -1.5009279791656591e-01 0.0000000000000000e+00  2.8948303280914409e+00 -1.4193049265887478e-01 0.0000000000000000e+00  2.9013871481479749e+00 -1.3361570862772265e-01 0.0000000000000000e+00  2.9058535733155675e+00 -1.2189680551844596e-01 0.0000000000000000e+00  2.9106108745952102e+00 -1.1269739088894491e-01 0.0000000000000000e+00  2.9157291695455947e+00 -1.0377894724275118e-01 0.0000000000000000e+00  2.9205459751879985e+00 -9.5956477567955584e-02 0.0000000000000000e+00  2.9249910448398495e+00 -8.7508269097867505e-02 0.0000000000000000e+00  2.9291245949707116e+00 -8.0101368856016597e-02 0.0000000000000000e+00  2.9330773416533451e+00 -7.2439576246606269e-02 0.0000000000000000e+00  2.9368264861126314e+00 -6.5944153841160869e-02 0.0000000000000000e+00  2.9404042759782589e+00 -5.9379985371895344e-02 0.0000000000000000e+00  2.9436932935212483e+00 -5.3613862212050965e-02 0.0000000000000000e+00  2.9467302265196609e+00 -4.7882754173596533e-02 0.0000000000000000e+00  2.9495769482323619e+00 -4.2869688035197168e-02 0.0000000000000000e+00  2.9521844345718393e+00 -3.8057617548886750e-02 0.0000000000000000e+00  2.9545987233470403e+00 -3.3822749562382716e-02 0.0000000000000000e+00  2.9567606562284681e+00 -2.9813403224922930e-02 0.0000000000000000e+00  2.9587895842126191e+00 -2.6292257857592816e-02 0.0000000000000000e+00  2.9605230633977100e+00 -2.3050888338060752e-02 0.0000000000000000e+00  2.9621846100217235e+00 -2.0166335910668957e-02 0.0000000000000000e+00  2.9635681285805542e+00 -1.7609382938545731e-02 0.0000000000000000e+00  2.9648923351302332e+00 -1.5344426887501690e-02 0.0000000000000000e+00  2.9659481812769690e+00 -1.3326486365519223e-02 0.0000000000000000e+00  2.9669971571301850e+00 -1.1591577196523026e-02 0.0000000000000000e+00  2.9677812573845190e+00 -1.0086505582528086e-02 0.0000000000000000e+00  2.9685805605378786e+00 -8.7597343811895451e-03 0.0000000000000000e+00  2.9691544193275501e+00 -7.6378832871686854e-03 0.0000000000000000e+00  2.9697557722911512e+00 -6.7172471472708968e-03 0.0000000000000000e+00  2.9701458448232474e+00 -5.8648858083164531e-03 0.0000000000000000e+00  2.9706014880344815e+00 -5.2465446518757475e-03 0.0000000000000000e+00  2.9708574731100037e+00 -4.6480505648478993e-03 0.0000000000000000e+00  2.9711860389075455e+00 -4.2531318149530194e-03 0.0000000000000000e+00  2.9713501963469433e+00 -3.7799002761339223e-03 0.0000000000000000e+00  2.9715923108566389e+00 -3.6868213171545061e-03 0.0000000000000000e+00  2.9716757744742091e+00 -3.2561677945359361e-03 0.0000000000000000e+00  2.9718620413444321e+00 -3.4511291692328693e-03 0.0000000000000000e+00  2.9718968401368939e+00 -3.1841254543524414e-03 0.0000000000000000e+00  2.9720310384721391e+00 -3.6474270713992736e-03 0.0000000000000000e+00  2.9720358256651611e+00 -3.5817566035924570e-03 0.0000000000000000e+00  2.9721455730501556e+00 -4.3949924071955779e-03 0.0000000000000000e+00  2.9721151999251498e+00 -4.5277649662933571e-03 0.0000000000000000e+00  2.9722140251739284e+00 -5.5206154073523276e-03 0.0000000000000000e+00  2.9721677027795876e+00 -5.8631782755657743e-03 0.0000000000000000e+00  2.9722515730837498e+00 -6.7419405627529598e-03 0.0000000000000000e+00  2.9721910561229166e+00 -6.9969292196874261e-03 0.0000000000000000e+00  2.9722825572980818e+00 -7.7939912889643803e-03 0.0000000000000000e+00  2.9721962511701929e+00 -7.7664659454707644e-03 0.0000000000000000e+00  2.9722980164770285e+00 -8.3031980951388251e-03 0.0000000000000000e+00  2.9722019719710757e+00 -8.3388078854764562e-03 0.0000000000000000e+00  2.9723062216625804e+00 -8.4931853753034900e-03 0.0000000000000000e+00  2.9721960922158117e+00 -8.5576164648445488e-03 0.0000000000000000e+00  2.9723213345811730e+00 -8.6682298851754706e-03 0.0000000000000000e+00  2.9721861399125507e+00 -8.6171069949079505e-03 0.0000000000000000e+00  2.9723284089844069e+00 -8.6919722793538778e-03 0.0000000000000000e+00  2.9721855970393407e+00 -8.7432920489199772e-03 0.0000000000000000e+00  2.9723324453889153e+00 -8.6529166074489593e-03 0.0000000000000000e+00  2.9721788138554674e+00 -8.7477591894139159e-03 0.0000000000000000e+00  2.9723463900730946e+00 -8.8358980980773709e-03 0.0000000000000000e+00  2.9721703653096867e+00 -8.5663581967464018e-03 0.0000000000000000e+00  2.9723514123340662e+00 -9.0201115673440649e-03 0.0000000000000000e+00  2.9721759049135006e+00 -8.7284127896989933e-03 0.0000000000000000e+00  2.9723503989381559e+00 -8.6962783769781848e-03 0.0000000000000000e+00  2.9721751491044630e+00 -8.9985556638518711e-03 0.0000000000000000e+00  2.9723602455153646e+00 -8.7999889215552331e-03 0.0000000000000000e+00  2.9721710375003201e+00 -8.6737747915586715e-03 0.0000000000000000e+00  2.9723584205135145e+00 -9.7576775679498167e-03 0.0000000000000000e+00  2.9721821856213948e+00 -8.4288558782652026e-03 0.0000000000000000e+00  2.9723477006849626e+00 -9.6971604033639809e-03 0.0000000000000000e+00  2.9721853256461856e+00 -9.6920778665072430e-03 0.0000000000000000e+00  2.9723485459580914e+00 -8.7624883433205722e-03 0.0000000000000000e+00  2.9721788300128793e+00 -1.4690865581570392e-02 0.0000000000000000e+00  2.9723348054640573e+00 -9.9440722647481210e-03 0.0000000000000000e+00  2.9721962008950853e+00 0.0000000000000000e+00 0.0000000000000000e+00  1.2442975536776437e+00 0.0000000000000000e+00 1.7693213562318578e-04  1.2443008580988006e+00 2.8948420724535295e-02 2.2266974104271742e-04  1.2443415673061744e+00 5.7254563974617451e-02 -4.8172465617471780e-04  1.2443371512464312e+00 8.6258381092876535e-02 3.1225251116012394e-04  1.2444635928330456e+00 1.1480479597269425e-01 -2.3248621051244085e-04  1.2444964416524200e+00 1.4362354881447817e-01 1.3534715402365198e-04  1.2445991626089516e+00 1.7221028141844491e-01 -6.8243940031924782e-05  1.2447486465012887e+00 2.0089362837932409e-01 6.1850881900967380e-06  1.2448798318486867e+00 2.2950057919947606e-01 2.9156653593972408e-05  1.2450212420227942e+00 2.5800881261651759e-01 -6.5543685529968586e-05  1.2452775741722959e+00 2.8656129218242965e-01 7.1353339101307329e-05  1.2454651787147786e+00 3.1490560737683493e-01 -8.6848165105153635e-05  1.2457205822355928e+00 3.4334606118119554e-01 8.0586523652421992e-05  1.2460586975163539e+00 3.7148452574812862e-01 -9.1354368628799082e-05  1.2463795614962554e+00 3.9971954850885377e-01 8.1570267123754208e-05  1.2467462702194398e+00 4.2764650991745284e-01 -9.8848520091681107e-05  1.2472415007788895e+00 4.5558892024947040e-01 1.0710948951540769e-04  1.2477229633364078e+00 4.8317809137391676e-01 -1.3317107534984644e-04  1.2482860853853248e+00 5.1080521701459725e-01 1.3256280448966217e-04  1.2489949279212258e+00 5.3790255733346426e-01 -1.4665379643615876e-04  1.2497371838815696e+00 5.6504647683752018e-01 1.5242918789213006e-04  1.2506001295082139e+00 5.9159769745930468e-01 -1.7488832198294798e-04  1.2516400877398379e+00 6.1803735310830665e-01 1.8059378931673076e-04  1.2527975331575882e+00 6.4374775259757910e-01 -1.9886345242622999e-04  1.2541123265586223e+00 6.6938173539332124e-01 2.1061145311645086e-04  1.2556938259840147e+00 6.9397560012774495e-01 -2.3329150341440275e-04  1.2574503222482454e+00 7.1839763798861223e-01 2.4450175458293709e-04  1.2594840982869597e+00 7.4167369444870357e-01 -2.5963798803594999e-04  1.2618155359364283e+00 7.6459035968406153e-01 2.6297216280339770e-04  1.2644596381697097e+00 7.8614768431192705e-01 -2.6737647211485914e-04  1.2674038740536802e+00 8.0738723562995074e-01 2.6790472767249199e-04  1.2707326856783641e+00 8.2708370488567251e-01 -2.7110815651872804e-04  1.2743562549964387e+00 8.4646250350802155e-01 2.6977697153689304e-04  1.2783155993060433e+00 8.6445608266985718e-01 -2.6600073309720579e-04  1.2825506590270705e+00 8.8219434776989225e-01 2.5882266108490917e-04  1.2870456108471666e+00 8.9875304897696962e-01 -2.5288769435309301e-04  1.2917169871284619e+00 9.1536220569906190e-01 2.4765281784761348e-04  1.2965728528997198e+00 9.3098212015480197e-01 -2.4718693990057007e-04  1.3015183848228380e+00 9.4689268832549089e-01 2.4274694461225231e-04  1.3065715492781824e+00 9.6207724702062558e-01 -2.3845894639042982e-04  1.3116607475493027e+00 9.7762935735114642e-01 2.3109061846997948e-04  1.3168211143526907e+00 9.9260512818811197e-01 -2.2633930372371091e-04  1.3219894643449894e+00 1.0080328710048074e+00 2.2295147035138326e-04  1.3272111753854778e+00 1.0228841551182002e+00 -2.2205304791889877e-04  1.3324336020557475e+00 1.0382389108411443e+00 2.2148694512779210e-04  1.3377120019209763e+00 1.0530422064892264e+00 -2.1966583307398425e-04  1.3429710034184315e+00 1.0683157217605159e+00 2.1839412090068243e-04  1.3483007655601640e+00 1.0830748607125698e+00 -2.1734366865251004e-04  1.3536065936468833e+00 1.0983081994404646e+00 2.1904099660846680e-04  1.3589709707151489e+00 1.1129912236294608e+00 -2.2168258103191636e-04  1.3643205068943525e+00 1.1282034173046895e+00 2.2647945261417715e-04  1.3697356100463201e+00 1.1428297656818820e+00 -2.3047194290397882e-04  1.3751038805225304e+00 1.1579991538080827e+00 2.3523292964645299e-04  1.3805721590212716e+00 1.1725861979215817e+00 -2.3951245180835420e-04  1.3859752749049605e+00 1.1877307236852934e+00 2.4417074961919510e-04  1.3914657763682743e+00 1.2022514971017244e+00 -2.4920739747500542e-04  1.3969120934317369e+00 1.2173999054758731e+00 2.5321295902997262e-04  1.4024409382953253e+00 1.2318636733035313e+00 -2.5663590915847584e-04  1.4078939866063680e+00 1.2469818263630654e+00 2.5650160119881373e-04  1.4134766615117498e+00 1.2614342135877690e+00 -2.5413171808795596e-04  1.4189522048466205e+00 1.2765061991108471e+00 2.4598523128037625e-04  1.4245438123269341e+00 1.2909323053546977e+00 -2.3355105547622274e-04  1.4300707582611656e+00 1.3059890595022152e+00 2.1422228951626494e-04  1.4356766439732038e+00 1.3203929421633569e+00 -1.8984595820364995e-04  1.4412146298439772e+00 1.3353722861299056e+00 1.5976113677793668e-04  1.4468642483817551e+00 1.3498547855366823e+00 -1.2510203652649833e-04  1.4524215001983189e+00 1.3646776740236168e+00 8.5178416113485266e-05  1.4580636682497921e+00 1.3792398163759276e+00 -3.8947615537598023e-05  1.4636862830586232e+00 1.3939828755125732e+00 -1.2457480726283194e-05  1.4693123522340246e+00 1.4085409913700084e+00 6.7118527502862290e-05  1.4749588962059403e+00 1.4232006521683829e+00 -1.1871308057599232e-04  1.4806144384486222e+00 1.4378730546182528e+00 1.6315427828220632e-04  1.4862724848575080e+00 1.4522830867219563e+00 -1.9778522684355316e-04  1.4919189834849076e+00 1.4671378606094685e+00 2.2548506530415584e-04  1.4976347697644643e+00 1.4814148012520059e+00 -2.5097640651104046e-04  1.5032566783984709e+00 1.4961883148826858e+00 2.7618489010618663e-04  1.5089912944252915e+00 1.5105556129251749e+00 -3.0063340611431939e-04  1.5146418172891907e+00 1.5252364256526716e+00 3.1665160769064606e-04  1.5203671590887378e+00 1.5394494321076093e+00 -3.2302278989514149e-04  1.5260205713352322e+00 1.5543484560769210e+00 3.1752358665058917e-04  1.5317810765034290e+00 1.5682831314015757e+00 -3.1084411929353833e-04  1.5374113500293569e+00 1.5831741957