<?xml version="1.0"?>
<VTKFile type="UnstructuredGrid"  version="0.1"  >
<UnstructuredGrid>
<Piece  NumberOfPoints="8241" NumberOfCells="16000">
<Points>
<DataArray  type="Float64"  NumberOfComponents="3"  format="ascii">-5 -1 0  -4.95 -1 0  -4.9 -1 0  -4.85 -1 0  -4.8 -1 0  -4.75 -1 0  -4.7 -1 0  -4.65 -1 0  -4.6 -1 0  -4.55 -1 0  -4.5 -1 0  -4.45 -1 0  -4.4 -1 0  -4.35 -1 0  -4.3 -1 0  -4.25 -1 0  -4.2 -1 0  -4.15 -1 0  -4.1 -1 0  -4.05 -1 0  -4 -1 0  -3.95 -1 0  -3.9 -1 0  -3.85 -1 0  -3.8 -1 0  -3.75 -1 0  -3.7 -1 0  -3.65 -1 0  -3.6 -1 0  -3.55 -1 0  -3.5 -1 0  -3.45 -1 0  -3.4 -1 0  -3.35 -1 0  -3.3 -1 0  -3.25 -1 0  -3.2 -1 0  -3.15 -1 0  -3.1 -1 0  -3.05 -1 0  -3 -1 0  -2.95 -1 0  -2.9 -1 0  -2.85 -1 0  -2.8 -1 0  -2.75 -1 0  -2.7 -1 0  -2.65 -1 0  -2.6 -1 0  -2.55 -1 0  -2.5 -1 0  -2.45 -1 0  -2.4 -1 0  -2.35 -1 0  -2.3 -1 0  -2.25 -1 0  -2.2 -1 0  -2.15 -1 0  -2.1 -1 0  -2.05 -1 0  -2 -1 0  -1.95 -1 0  -1.9 -1 0  -1.85 -1 0  -1.8 -1 0  -1.75 -1 0  -1.7 -1 0  -1.65 -1 0  -1.6 -1 0  -1.55 -1 0  -1.5 -1 0  -1.45 -1 0  -1.4 -1 0  -1.35 -1 0  -1.3 -1 0  -1.25 -1 0  -1.2 -1 0  -1.15 -1 0  -1.1 -1 0  -1.05 -1 0  -1 -1 0  -0.9500000000000002 -1 0  -0.9000000000000004 -1 0  -0.8499999999999996 -1 0  -0.7999999999999998 -1 0  -0.75 -1 0  -0.7000000000000002 -1 0  -0.6500000000000004 -1 0  -0.5999999999999996 -1 0  -0.5499999999999998 -1 0  -0.5 -1 0  -0.4500000000000002 -1 0  -0.4000000000000004 -1 0  -0.3499999999999996 -1 0  -0.2999999999999998 -1 0  -0.25 -1 0  -0.2000000000000002 -1 0  -0.1500000000000004 -1 0  -0.09999999999999964 -1 0  -0.04999999999999982 -1 0  0 -1 0  0.04999999999999982 -1 0  0.09999999999999964 -1 0  0.1500000000000004 -1 0  0.2000000000000002 -1 0  0.25 -1 0  0.2999999999999998 -1 0  0.3499999999999996 -1 0  0.4000000000000004 -1 0  0.4500000000000002 -1 0  0.5 -1 0  0.5499999999999998 -1 0  0.5999999999999996 -1 0  0.6500000000000004 -1 0  0.7000000000000002 -1 0  0.75 -1 0  0.7999999999999998 -1 0  0.8499999999999996 -1 0  0.9000000000000004 -1 0  0.9500000000000002 -1 0  1 -1 0  1.05 -1 0  1.1 -1 0  1.15 -1 0  1.2 -1 0  1.25 -1 0  1.3 -1 0  1.35 -1 0  1.4 -1 0  1.45 -1 0  1.5 -1 0  1.55 -1 0  1.6 -1 0  1.65 -1 0  1.7 -1 0  1.75 -1 0  1.8 -1 0  1.85 -1 0  1.9 -1 0  1.95 -1 0  2 -1 0  2.05 -1 0  2.1 -1 0  2.15 -1 0  2.2 -1 0  2.25 -1 0  2.3 -1 0  2.35 -1 0  2.4 -1 0  2.45 -1 0  2.5 -1 0  2.55 -1 0  2.6 -1 0  2.65 -1 0  2.7 -1 0  2.75 -1 0  2.8 -1 0  2.85 -1 0  2.9 -1 0  2.95 -1 0  3 -1 0  3.050000000000001 -1 0  3.1 -1 0  3.15 -1 0  3.199999999999999 -1 0  3.25 -1 0  3.300000000000001 -1 0  3.35 -1 0  3.4 -1 0  3.449999999999999 -1 0  3.5 -1 0  3.550000000000001 -1 0  3.6 -1 0  3.65 -1 0  3.699999999999999 -1 0  3.75 -1 0  3.800000000000001 -1 0  3.85 -1 0  3.9 -1 0  3.949999999999999 -1 0  4 -1 0  4.050000000000001 -1 0  4.1 -1 0  4.15 -1 0  4.199999999999999 -1 0  4.25 -1 0  4.300000000000001 -1 0  4.35 -1 0  4.4 -1 0  4.449999999999999 -1 0  4.5 -1 0  4.550000000000001 -1 0  4.6 -1 0  4.65 -1 0  4.699999999999999 -1 0  4.75 -1 0  4.800000000000001 -1 0  4.85 -1 0  4.9 -1 0  4.949999999999999 -1 0  5 -1 0  -5 -0.95 0  -4.95 -0.95 0  -4.9 -0.95 0  -4.85 -0.95 0  -4.8 -0.95 0  -4.75 -0.95 0  -4.7 -0.95 0  -4.65 -0.95 0  -4.6 -0.95 0  -4.55 -0.95 0  -4.5 -0.95 0  -4.45 -0.95 0  -4.4 -0.95 0  -4.35 -0.95 0  -4.3 -0.95 0  -4.25 -0.95 0  -4.2 -0.95 0  -4.15 -0.95 0  -4.1 -0.95 0  -4.05 -0.95 0  -4 -0.95 0  -3.95 -0.95 0  -3.9 -0.95 0  -3.85 -0.95 0  -3.8 -0.95 0  -3.75 -0.95 0  -3.7 -0.95 0  -3.65 -0.95 0  -3.6 -0.95 0  -3.55 -0.95 0  -3.5 -0.95 0  -3.45 -0.95 0  -3.4 -0.95 0  -3.35 -0.95 0  -3.3 -0.95 0  -3.25 -0.95 0  -3.2 -0.95 0  -3.15 -0.95 0  -3.1 -0.95 0  -3.05 -0.95 0  -3 -0.95 0  -2.95 -0.95 0  -2.9 -0.95 0  -2.85 -0.95 0  -2.8 -0.95 0  -2.75 -0.95 0  -2.7 -0.95 0  -2.65 -0.95 0  -2.6 -0.95 0  -2.55 -0.95 0  -2.5 -0.95 0  -2.45 -0.95 0  -2.4 -0.95 0  -2.35 -0.95 0  -2.3 -0.95 0  -2.25 -0.95 0  -2.2 -0.95 0  -2.15 -0.95 0  -2.1 -0.95 0  -2.05 -0.95 0  -2 -0.95 0  -1.95 -0.95 0  -1.9 -0.95 0  -1.85 -0.95 0  -1.8 -0.95 0  -1.75 -0.95 0  -1.7 -0.95 0  -1.65 -0.95 0  -1.6 -0.95 0  -1.55 -0.95 0  -1.5 -0.95 0  -1.45 -0.95 0  -1.4 -0.95 0  -1.35 -0.95 0  -1.3 -0.95 0  -1.25 -0.95 0  -1.2 -0.95 0  -1.15 -0.95 0  -1.1 -0.95 0  -1.05 -0.95 0  -1 -0.95 0  -0.9500000000000002 -0.95 0  -0.9000000000000004 -0.95 0  -0.8499999999999996 -0.95 0  -0.7999999999999998 -0.95 0  -0.75 -0.95 0  -0.7000000000000002 -0.95 0  -0.6500000000000004 -0.95 0  -0.5999999999999996 -0.95 0  -0.5499999999999998 -0.95 0  -0.5 -0.95 0  -0.4500000000000002 -0.95 0  -0.4000000000000004 -0.95 0  -0.3499999999999996 -0.95 0  -0.2999999999999998 -0.95 0  -0.25 -0.95 0  -0.2000000000000002 -0.95 0  -0.1500000000000004 -0.95 0  -0.09999999999999964 -0.95 0  -0.04999999999999982 -0.95 0  0 -0.95 0  0.04999999999999982 -0.95 0  0.09999999999999964 -0.95 0  0.1500000000000004 -0.95 0  0.2000000000000002 -0.95 0  0.25 -0.95 0  0.2999999999999998 -0.95 0  0.3499999999999996 -0.95 0  0.4000000000000004 -0.95 0  0.4500000000000002 -0.95 0  0.5 -0.95 0  0.5499999999999998 -0.95 0  0.5999999999999996 -0.95 0  0.6500000000000004 -0.95 0  0.7000000000000002 -0.95 0  0.75 -0.95 0  0.7999999999999998 -0.95 0  0.8499999999999996 -0.95 0  0.9000000000000004 -0.95 0  0.9500000000000002 -0.95 0  1 -0.95 0  1.05 -0.95 0  1.1 -0.95 0  1.15 -0.95 0  1.2 -0.95 0  1.25 -0.95 0  1.3 -0.95 0  1.35 -0.95 0  1.4 -0.95 0  1.45 -0.95 0  1.5 -0.95 0  1.55 -0.95 0  1.6 -0.95 0  1.65 -0.95 0  1.7 -0.95 0  1.75 -0.95 0  1.8 -0.95 0  1.85 -0.95 0  1.9 -0.95 0  1.95 -0.95 0  2 -0.95 0  2.05 -0.95 0  2.1 -0.95 0  2.15 -0.95 0  2.2 -0.95 0  2.25 -0.95 0  2.3 -0.95 0  2.35 -0.95 0  2.4 -0.95 0  2.45 -0.95 0  2.5 -0.95 0  2.55 -0.95 0  2.6 -0.95 0  2.65 -0.95 0  2.7 -0.95 0  2.75 -0.95 0  2.8 -0.95 0  2.85 -0.95 0  2.9 -0.95 0  2.95 -0.95 0  3 -0.95 0  3.050000000000001 -0.95 0  3.1 -0.95 0  3.15 -0.95 0  3.199999999999999 -0.95 0  3.25 -0.95 0  3.300000000000001 -0.95 0  3.35 -0.95 0  3.4 -0.95 0  3.449999999999999 -0.95 0  3.5 -0.95 0  3.550000000000001 -0.95 0  3.6 -0.95 0  3.65 -0.95 0  3.699999999999999 -0.95 0  3.75 -0.95 0  3.800000000000001 -0.95 0  3.85 -0.95 0  3.9 -0.95 0  3.949999999999999 -0.95 0  4 -0.95 0  4.050000000000001 -0.95 0  4.1 -0.95 0  4.15 -0.95 0  4.199999999999999 -0.95 0  4.25 -0.95 0  4.300000000000001 -0.95 0  4.35 -0.95 0  4.4 -0.95 0  4.449999999999999 -0.95 0  4.5 -0.95 0  4.550000000000001 -0.95 0  4.6 -0.95 0  4.65 -0.95 0  4.699999999999999 -0.95 0  4.75 -0.95 0  4.800000000000001 -0.95 0  4.85 -0.95 0  4.9 -0.95 0  4.949999999999999 -0.95 0  5 -0.95 0  -5 -0.9 0  -4.95 -0.9 0  -4.9 -0.9 0  -4.85 -0.9 0  -4.8 -0.9 0  -4.75 -0.9 0  -4.7 -0.9 0  -4.65 -0.9 0  -4.6 -0.9 0  -4.55 -0.9 0  -4.5 -0.9 0  -4.45 -0.9 0  -4.4 -0.9 0  -4.35 -0.9 0  -4.3 -0.9 0  -4.25 -0.9 0  -4.2 -0.9 0  -4.15 -0.9 0  -4.1 -0.9 0  -4.05 -0.9 0  -4 -0.9 0  -3.95 -0.9 0  -3.9 -0.9 0  -3.85 -0.9 0  -3.8 -0.9 0  -3.75 -0.9 0  -3.7 -0.9 0  -3.65 -0.9 0  -3.6 -0.9 0  -3.55 -0.9 0  -3.5 -0.9 0  -3.45 -0.9 0  -3.4 -0.9 0  -3.35 -0.9 0  -3.3 -0.9 0  -3.25 -0.9 0  -3.2 -0.9 0  -3.15 -0.9 0  -3.1 -0.9 0  -3.05 -0.9 0  -3 -0.9 0  -2.95 -0.9 0  -2.9 -0.9 0  -2.85 -0.9 0  -2.8 -0.9 0  -2.75 -0.9 0  -2.7 -0.9 0  -2.65 -0.9 0  -2.6 -0.9 0  -2.55 -0.9 0  -2.5 -0.9 0  -2.45 -0.9 0  -2.4 -0.9 0  -2.35 -0.9 0  -2.3 -0.9 0  -2.25 -0.9 0  -2.2 -0.9 0  -2.15 -0.9 0  -2.1 -0.9 0  -2.05 -0.9 0  -2 -0.9 0  -1.95 -0.9 0  -1.9 -0.9 0  -1.85 -0.9 0  -1.8 -0.9 0  -1.75 -0.9 0  -1.7 -0.9 0  -1.65 -0.9 0  -1.6 -0.9 0  -1.55 -0.9 0  -1.5 -0.9 0  -1.45 -0.9 0  -1.4 -0.9 0  -1.35 -0.9 0  -1.3 -0.9 0  -1.25 -0.9 0  -1.2 -0.9 0  -1.15 -0.9 0  -1.1 -0.9 0  -1.05 -0.9 0  -1 -0.9 0  -0.9500000000000002 -0.9 0  -0.9000000000000004 -0.9 0  -0.8499999999999996 -0.9 0  -0.7999999999999998 -0.9 0  -0.75 -0.9 0  -0.7000000000000002 -0.9 0  -0.6500000000000004 -0.9 0  -0.5999999999999996 -0.9 0  -0.5499999999999998 -0.9 0  -0.5 -0.9 0  -0.4500000000000002 -0.9 0  -0.4000000000000004 -0.9 0  -0.3499999999999996 -0.9 0  -0.2999999999999998 -0.9 0  -0.25 -0.9 0  -0.2000000000000002 -0.9 0  -0.1500000000000004 -0.9 0  -0.09999999999999964 -0.9 0  -0.04999999999999982 -0.9 0  0 -0.9 0  0.04999999999999982 -0.9 0  0.09999999999999964 -0.9 0  0.1500000000000004 -0.9 0  0.2000000000000002 -0.9 0  0.25 -0.9 0  0.2999999999999998 -0.9 0  0.3499999999999996 -0.9 0  0.4000000000000004 -0.9 0  0.4500000000000002 -0.9 0  0.5 -0.9 0  0.5499999999999998 -0.9 0  0.5999999999999996 -0.9 0  0.6500000000000004 -0.9 0  0.7000000000000002 -0.9 0  0.75 -0.9 0  0.7999999999999998 -0.9 0  0.8499999999999996 -0.9 0  0.9000000000000004 -0.9 0  0.9500000000000002 -0.9 0  1 -0.9 0  1.05 -0.9 0  1.1 -0.9 0  1.15 -0.9 0  1.2 -0.9 0  1.25 -0.9 0  1.3 -0.9 0  1.35 -0.9 0  1.4 -0.9 0  1.45 -0.9 0  1.5 -0.9 0  1.55 -0.9 0  1.6 -0.9 0  1.65 -0.9 0  1.7 -0.9 0  1.75 -0.9 0  1.8 -0.9 0  1.85 -0.9 0  1.9 -0.9 0  1.95 -0.9 0  2 -0.9 0  2.05 -0.9 0  2.1 -0.9 0  2.15 -0.9 0  2.2 -0.9 0  2.25 -0.9 0  2.3 -0.9 0  2.35 -0.9 0  2.4 -0.9 0  2.45 -0.9 0  2.5 -0.9 0  2.55 -0.9 0  2.6 -0.9 0  2.65 -0.9 0  2.7 -0.9 0  2.75 -0.9 0  2.8 -0.9 0  2.85 -0.9 0  2.9 -0.9 0  2.95 -0.9 0  3 -0.9 0  3.050000000000001 -0.9 0  3.1 -0.9 0  3.15 -0.9 0  3.199999999999999 -0.9 0  3.25 -0.9 0  3.300000000000001 -0.9 0  3.35 -0.9 0  3.4 -0.9 0  3.449999999999999 -0.9 0  3.5 -0.9 0  3.550000000000001 -0.9 0  3.6 -0.9 0  3.65 -0.9 0  3.699999999999999 -0.9 0  3.75 -0.9 0  3.800000000000001 -0.9 0  3.85 -0.9 0  3.9 -0.9 0  3.949999999999999 -0.9 0  4 -0.9 0  4.050000000000001 -0.9 0  4.1 -0.9 0  4.15 -0.9 0  4.199999999999999 -0.9 0  4.25 -0.9 0  4.300000000000001 -0.9 0  4.35 -0.9 0  4.4 -0.9 0  4.449999999999999 -0.9 0  4.5 -0.9 0  4.550000000000001 -0.9 0  4.6 -0.9 0  4.65 -0.9 0  4.699999999999999 -0.9 0  4.75 -0.9 0  4.800000000000001 -0.9 0  4.85 -0.9 0  4.9 -0.9 0  4.949999999999999 -0.9 0  5 -0.9 0  -5 -0.85 0  -4.95 -0.85 0  -4.9 -0.85 0  -4.85 -0.85 0  -4.8 -0.85 0  -4.75 -0.85 0  -4.7 -0.85 0  -4.65 -0.85 0  -4.6 -0.85 0  -4.55 -0.85 0  -4.5 -0.85 0  -
[...]
<PointData  Vectors="f_15"> 
<DataArray  type="Float64"  Name="f_15"  NumberOfComponents="3" format="ascii">1.2190730585951659e+00 0.0000000000000000e+00 0.0000000000000000e+00  1.2146034670197037e+00 -1.9193879789560922e-03 0.0000000000000000e+00  1.2208815717277086e+00 8.4793839906383325e-02 0.0000000000000000e+00  1.2110367270052929e+00 1.0219486238032524e-01 0.0000000000000000e+00  1.2232369063435782e+00 1.3910261753745568e-01 0.0000000000000000e+00  1.2116407700349208e+00 1.5097783606496293e-01 0.0000000000000000e+00  1.2203554105224763e+00 2.1458471468795418e-01 0.0000000000000000e+00  1.2135547734705567e+00 2.1256243911491232e-01 0.0000000000000000e+00  1.2211723828299899e+00 2.6132398458599343e-01 0.0000000000000000e+00  1.2105414572501434e+00 2.8192932506475682e-01 0.0000000000000000e+00  1.2233469652262088e+00 3.2668010363023159e-01 0.0000000000000000e+00  1.2111821702683225e+00 3.3576582349758805e-01 0.0000000000000000e+00  1.2209579985331069e+00 3.8134233909018778e-01 0.0000000000000000e+00  1.2130950761869188e+00 4.0835619248704191e-01 0.0000000000000000e+00  1.2223004266107649e+00 4.3890202552218377e-01 0.0000000000000000e+00  1.2107063987794577e+00 4.5467740904215032e-01 0.0000000000000000e+00  1.2249208003090508e+00 5.1406330566630043e-01 0.0000000000000000e+00  1.2122222008157844e+00 5.0896901000448591e-01 0.0000000000000000e+00  1.2236723288022955e+00 5.6883336348020996e-01 0.0000000000000000e+00  1.2151306219931506e+00 5.6433403191129405e-01 0.0000000000000000e+00  1.2264469810159866e+00 6.3595847040713904e-01 0.0000000000000000e+00  1.2147653788603614e+00 6.1111483991546578e-01 0.0000000000000000e+00  1.2307775983422362e+00 6.8897368873701403e-01 0.0000000000000000e+00  1.2189589801803620e+00 6.6444652965873552e-01 0.0000000000000000e+00  1.2326779041847313e+00 7.4114282426484390e-01 0.0000000000000000e+00  1.2251963392310969e+00 7.0948055150337086e-01 0.0000000000000000e+00  1.2394475603192869e+00 7.8601184106426170e-01 0.0000000000000000e+00  1.2301470727553170e+00 7.4994835530014015e-01 0.0000000000000000e+00  1.2485045913793242e+00 8.2548200308213826e-01 0.0000000000000000e+00  1.2400195460480647e+00 7.9059185542361132e-01 0.0000000000000000e+00  1.2563947756325267e+00 8.5512833043202896e-01 0.0000000000000000e+00  1.2517636358890665e+00 8.2384865117219475e-01 0.0000000000000000e+00  1.2679665086668341e+00 8.8698224986686747e-01 0.0000000000000000e+00  1.2618200196979508e+00 8.5569218693754900e-01 0.0000000000000000e+00  1.2801266447684405e+00 9.1302318961128826e-01 0.0000000000000000e+00  1.2743511872659730e+00 8.9120698396537190e-01 0.0000000000000000e+00  1.2902396006269692e+00 9.3733933965730776e-01 0.0000000000000000e+00  1.2869072686299188e+00 9.2529540223233664e-01 0.0000000000000000e+00  1.3021424556837071e+00 9.6625419524379663e-01 0.0000000000000000e+00  1.2976507209224653e+00 9.5700520273554457e-01 0.0000000000000000e+00  1.3139844535345746e+00 9.9282233883297222e-01 0.0000000000000000e+00  1.3097608012463258e+00 9.9324305004552349e-01 0.0000000000000000e+00  1.3244999005479554e+00 1.0175912250102654e+00 0.0000000000000000e+00  1.3216526494512584e+00 1.0274684663254583e+00 0.0000000000000000e+00  1.3361990344040700e+00 1.0464832136518689e+00 0.0000000000000000e+00  1.3325065619289538e+00 1.0584235595078093e+00 0.0000000000000000e+00  1.3477425187637750e+00 1.0748881891582507e+00 0.0000000000000000e+00  1.3442173482939477e+00 1.0924331046923610e+00 0.0000000000000000e+00  1.3586323275042207e+00 1.1008251284527888e+00 0.0000000000000000e+00  1.3556969153177523e+00 1.1256330048196712e+00 0.0000000000000000e+00  1.3701375183099405e+00 1.1300537915417439e+00 0.0000000000000000e+00  1.3668599807412143e+00 1.1549153882755061e+00 0.0000000000000000e+00  1.3812984869714846e+00 1.1607680520581651e+00 0.0000000000000000e+00  1.3785724606688807e+00 1.1855719033670062e+00 0.0000000000000000e+00  1.3922238936735203e+00 1.1891100613742716e+00 0.0000000000000000e+00  1.3901486934169360e+00 1.2169482182691633e+00 0.0000000000000000e+00  1.4032869426264083e+00 1.2193388743723543e+00 0.0000000000000000e+00  1.4020085269455185e+00 1.2448171868463966e+00 0.0000000000000000e+00  1.4139354368500963e+00 1.2520699531023658e+00 0.0000000000000000e+00  1.4141531630468178e+00 1.2728394385211084e+00 0.0000000000000000e+00  1.4247609157499250e+00 1.2824804870040174e+00 0.0000000000000000e+00  1.4260876639176814e+00 1.3029855550164822e+00 0.0000000000000000e+00  1.4355624655173906e+00 1.3127927683424780e+00 0.0000000000000000e+00  1.4384555160067729e+00 1.3312753966993289e+00 0.0000000000000000e+00  1.4460928622672102e+00 1.3449863187371995e+00 0.0000000000000000e+00  1.4507646395087175e+00 1.3594467438043401e+00 0.0000000000000000e+00  1.4571527310517149e+00 1.3750922719137280e+00 0.0000000000000000e+00  1.4627170354505856e+00 1.3902353057001042e+00 0.0000000000000000e+00  1.4682451388278752e+00 1.4037572252666550e+00 0.0000000000000000e+00  1.4749573610454185e+00 1.4205949148257542e+00 0.0000000000000000e+00  1.4794023821192532e+00 1.4336528369409842e+00 0.0000000000000000e+00  1.4867225842245593e+00 1.4501186551531611e+00 0.0000000000000000e+00  1.4913428681289345e+00 1.4628275623027804e+00 0.0000000000000000e+00  1.4981730644710665e+00 1.4812164520662290e+00 0.0000000000000000e+00  1.5030734674556809e+00 1.4901141757662355e+00 0.0000000000000000e+00  1.5101099480533273e+00 1.5132388231725353e+00 0.0000000000000000e+00  1.5148751201041797e+00 1.5173302200101488e+00 0.0000000000000000e+00  1.5213939648745960e+00 1.5443606389982545e+00 0.0000000000000000e+00  1.5275537131509573e+00 1.5453004598681856e+00 0.0000000000000000e+00  1.5324617296041683e+00 1.5758626318548439e+00 0.0000000000000000e+00  1.5397206083141837e+00 1.5711346423523991e+00 0.0000000000000000e+00  1.5443030457014364e+00 1.6107307318060224e+00 0.0000000000000000e+00  1.5517398989487476e+00 1.5948040243371013e+00 0.0000000000000000e+00  1.5555289009345121e+00 1.6450154827794978e+00 0.0000000000000000e+00  1.5645471992552618e+00 1.6226162187644770e+00 0.0000000000000000e+00  1.5666411288277453e+00 1.6750111154711003e+00 0.0000000000000000e+00  1.5765904004069971e+00 1.6516716613012690e+00 0.0000000000000000e+00  1.5786963995429990e+00 1.7087271249540694e+00 0.0000000000000000e+00  1.5883344355337203e+00 1.6749520993348679e+00 0.0000000000000000e+00  1.5901158010891132e+00 1.7448709036083923e+00 0.0000000000000000e+00  1.6008115129536618e+00 1.7026372937860708e+00 0.0000000000000000e+00  1.6015182390212965e+00 1.7716021982458585e+00 0.0000000000000000e+00  1.6123405466453153e+00 1.7375655192890225e+00 0.0000000000000000e+00  1.6138984288307738e+00 1.7983108680920015e+00 0.0000000000000000e+00  1.6236559899244911e+00 1.7648077197313465e+00 0.0000000000000000e+00  1.6253886874387480e+00 1.8320391990325271e+00 0.0000000000000000e+00  1.6358332368381994e+00 1.7919348444005905e+00 0.0000000000000000e+00  1.6368924156479574e+00 1.8563831250586511e+00 0.0000000000000000e+00  1.6468362761833282e+00 1.8299966040412945e+00 0.0000000000000000e+00  1.6494113716202321e+00 1.8757691447425946e+00 0.0000000000000000e+00  1.6577759617625392e+00 1.8628866052417825e+00 0.0000000000000000e+00  1.6606973664652485e+00 1.9034073505911475e+00 0.0000000000000000e+00  1.6696984481832227e+00 1.8912917754452101e+00 0.0000000000000000e+00  1.6719825673801556e+00 1.9267418050463831e+00 0.0000000000000000e+00  1.6802997117063674e+00 1.9263694536458562e+00 0.0000000000000000e+00  1.6842999783139911e+00 1.9465776008818843e+00 0.0000000000000000e+00  1.6909924975003008e+00 1.9563652487508980e+00 0.0000000000000000e+00  1.6956871506707429e+00 1.9725004972518283e+00 0.0000000000000000e+00  1.7030478053321685e+00 1.9809139613874391e+00 0.0000000000000000e+00  1.7084686948823691e+00 1.9932173939639981e+00 0.0000000000000000e+00  1.7159575721802203e+00 2.0052529384150586e+00 0.0000000000000000e+00  1.7259532217511639e+00 2.0042685807622642e+00 0.0000000000000000e+00  1.7346525877915226e+00 2.0163174595020936e+00 0.0000000000000000e+00  1.7504128006352058e+00 2.0042718009344958e+00 0.0000000000000000e+00  1.7636779767370863e+00 2.0085154925754432e+00 0.0000000000000000e+00  1.7853145491044422e+00 1.9860235937316240e+00 0.0000000000000000e+00  1.7988366379707295e+00 1.9901390673451438e+00 0.0000000000000000e+00  1.8236609761940454e+00 1.9640224810576028e+00 0.0000000000000000e+00  1.8301189455716973e+00 1.9772434963335719e+00 0.0000000000000000e+00  1.8494512765501432e+00 1.9622615429882446e+00 0.0000000000000000e+00  1.8469396369165010e+00 1.9899347520226573e+00 0.0000000000000000e+00  1.8549143678404720e+00 1.9930269398390241e+00 0.0000000000000000e+00  1.8347109088759286e+00 2.0555274091706073e+00 0.0000000000000000e+00  1.8149828225610298e+00 2.1029452731783671e+00 0.0000000000000000e+00  1.7539161279504940e+00 2.2344160340373289e+00 0.0000000000000000e+00  1.6803646491363633e+00 2.3586689181625760e+00 0.0000000000000000e+00  1.7181109675624564e+00 2.2588924609381880e+00 0.0000000000000000e+00  2.3442621426118593e+00 8.4243061466226976e-01 0.0000000000000000e+00  2.8561709886296041e+00 -8.3203412960765277e-02 0.0000000000000000e+00  2.9165380848405640e+00 -1.7253688729643321e-01 0.0000000000000000e+00  2.8728114294362750e+00 -1.1336762125477126e-01 0.0000000000000000e+00  2.9210743059531490e+00 -1.6133383347730126e-01 0.0000000000000000e+00  2.9226065645001693e+00 -1.5692802329795519e-01 0.0000000000000000e+00  2.9295796922808099e+00 -1.5187221178121990e-01 0.0000000000000000e+00  2.9293405279023186e+00 -1.4393974253792616e-01 0.0000000000000000e+00  2.9389999685098092e+00 -1.3865470142526207e-01 0.0000000000000000e+00  2.9314027279684924e+00 -1.2396697434182224e-01 0.0000000000000000e+00  2.9483777070986412e+00 -1.3289194325191694e-01 0.0000000000000000e+00  2.9413340738047182e+00 -1.1841610216379299e-01 0.0000000000000000e+00  2.9522230259750479e+00 -1.1990195240752240e-01 0.0000000000000000e+00  2.9466313826809665e+00 -1.0915058902952404e-01 0.0000000000000000e+00  2.9577573209158485e+00 -1.1051708206547678e-01 0.0000000000000000e+00  2.9511498717299505e+00 -1.0011512409857375e-01 0.0000000000000000e+00  2.9621662192118445e+00 -1.0197793463662916e-01 0.0000000000000000e+00  2.9550495591712478e+00 -9.0567896697727107e-02 0.0000000000000000e+00  2.9651545691524817e+00 -9.2529788935421936e-02 0.0000000000000000e+00  2.9576670439184487e+00 -8.1700935983086115e-02 0.0000000000000000e+00  2.9679734076904469e+00 -8.3228105350902207e-02 0.0000000000000000e+00  2.9596614875096132e+00 -7.4365929815644397e-02 0.0000000000000000e+00  2.9693384983780526e+00 -7.3656889567787640e-02 0.0000000000000000e+00  2.9611753661024030e+00 -6.6944524239536410e-02 0.0000000000000000e+00  2.9705307105140131e+00 -6.5784856092107033e-02 0.0000000000000000e+00  2.9613724976354483e+00 -5.8795746821337175e-02 0.0000000000000000e+00  2.9716394274821720e+00 -5.8624074136363384e-02 0.0000000000000000e+00  2.9615294180114344e+00 -5.1764069307755428e-02 0.0000000000000000e+00  2.9714874046875899e+00 -5.1199505271901383e-02 0.0000000000000000e+00  2.9620814332204026e+00 -4.6001983167569586e-02 0.0000000000000000e+00  2.9713253475531136e+00 -4.4677528670628575e-02 0.0000000000000000e+00  2.9617045145106906e+00 -3.9589540335436643e-02 0.0000000000000000e+00  2.9717596950997462e+00 -4.1222079102724782e-02 0.0000000000000000e+00  2.9613574331844950e+00 -3.5219040288258736e-02 0.0000000000000000e+00  2.9714936344020781e+00 -4.2023988241028591e-02 0.0000000000000000e+00  2.9617822556314137e+00 -3.6324486991028068e-02 0.0000000000000000e+00  2.9711225794407161e+00 -4.8526015715702600e-02 0.0000000000000000e+00  2.9618078436241815e+00 -3.9019306246630553e-02 0.0000000000000000e+00  2.9714082965252078e+00 -5.2904220099845974e-02 0.0000000000000000e+00  2.9617880779621455e+00 -3.6974814500049885e-02 0.0000000000000000e+00  2.9713503130806846e+00 -4.8421254710416570e-02 0.0000000000000000e+00  2.9624089671157079e+00 -2.8535324661565668e-02 0.0000000000000000e+00  2.9711869924742604e+00 -3.9789580435440827e-02 0.0000000000000000e+00  2.9626989380281694e+00 -1.8082343984809179e-02 0.0000000000000000e+00  2.9715285767304596e+00 -3.0572715686511334e-02 0.0000000000000000e+00  2.9629273632716742e+00 -1.2647495295925992e-02 0.0000000000000000e+00  2.9714641461851743e+00 -2.3723969278879948e-02 0.0000000000000000e+00  2.9635597411305552e+00 -7.9451818938344083e-03 0.0000000000000000e+00  2.9714402341347741e+00 -2.3983713908241448e-02 0.0000000000000000e+00  2.9636288515553995e+00 -4.6628663115064516e-03 0.0000000000000000e+00  2.9718733511589117e+00 -2.5488024175169800e-02 0.0000000000000000e+00  2.9636084272291132e+00 -6.4848082364870356e-03 0.0000000000000000e+00  2.9719111607275601e+00 -2.6530398335257058e-02 0.0000000000000000e+00  2.9637845774832221e+00 -1.1786476889148689e-02 0.0000000000000000e+00  2.9720518901158424e+00 -2.5300555830953440e-02 0.0000000000000000e+00  2.9634200849106844e+00 -1.9768182751436200e-02 0.0000000000000000e+00  2.9725410231738456e+00 -2.2817803216899291e-02 0.0000000000000000e+00  2.9629450114861715e+00 -2.5342971322202604e-02 0.0000000000000000e+00  2.9727987500943840e+00 -1.8418294590425138e-02 0.0000000000000000e+00  2.9625943522925051e+00 -2.6992204727293048e-02 0.0000000000000000e+00  2.9731421110301182e+00 -1.1910728498968718e-02 0.0000000000000000e+00  2.9619780302302336e+00 -2.2375477729735162e-02 0.0000000000000000e+00  2.9736938408461784e+00 -9.9787879146153811e-03 0.0000000000000000e+00  2.9614012044436349e+00 -2.1052501267919365e-02 0.0000000000000000e+00  2.9741223879350374e+00 -2.7462692396761756e-02 0.0000000000000000e+00  2.9609098146291370e+00 -4.8310470927456745e-02 0.0000000000000000e+00  2.9745590251308944e+00 -6.1819348602937620e-02 0.0000000000000000e+00  2.9602935151574350e+00 -7.4897502320986506e-02 0.0000000000000000e+00  2.9750707070446500e+00 -7.2974370782656339e-02 0.0000000000000000e+00  2.9599233230620539e+00 -6.9743354672543861e-02 0.0000000000000000e+00  2.9756150607524323e+00 -5.1951079640860959e-02 0.0000000000000000e+00  2.9597355098234295e+00 -5.8635376346655700e-02 0.0000000000000000e+00  2.9762515587221623e+00 -2.7669297945795295e-02 0.0000000000000000e+00  2.9596203567615476e+00 0.0000000000000000e+00 0.0000000000000000e+00  1.2091234660291341e+00 0.0000000000000000e+00 2.7058968935313992e-02  1.2098483679297116e+00 3.0407404085760547e-02 3.9895129348459114e-03  1.2063557959236817e+00 4.7249907296531661e-02 -1.5614144994147584e-02  1.2114562463425875e+00 7.8133641370414245e-02 -1.4412425723652594e-02  1.2074143624230840e+00 1.1658412371052405e-01 2.9668139436320819e-02  1.2085927036117110e+00 1.3445481149081495e-01 -3.6043852360225941e-02  1.2096990144051853e+00 1.9033281493762599e-01 3.3353256440838822e-02  1.2097166259822589e+00 1.8379898516883300e-01 -3.1438797816094544e-02  1.2070124310276547e+00 2.5881635156692984e-01 3.3304800790088310e-02  1.2122923121815257e+00 2.5114915670657462e-01 -3.7904430133576666e-02  1.2080021646943040e+00 3.1498563766839649e-01 3.8234054783434585e-02  1.2100674419847266e+00 3.1135020389286672e-01 -3.6254592573775279e-02  1.2103465805627713e+00 3.8448073859537119e-01 3.5579348835123488e-02  1.2114716841340953e+00 3.6917411727529081e-01 -3.8395603978927509e-02  1.2083020533853068e+00 4.4110893632257880e-01 3.7470751812220961e-02  1.2139118884004987e+00 4.3792915444001884e-01 -2.8807799740896776e-02  1.2102804043841633e+00 4.9255621884539402e-01 1.6724890869394569e-02  1.2120483228465673e+00 5.0321677498663364e-01 -1.0455193830989112e-02  1.2135017978511609e+00 5.4778621702713937e-01 8.6162965749425353e-03  1.2140899351778160e+00 5.6597016725814664e-01 -4.8742270698126020e-03  1.2131548075555767e+00 5.9640948495137658e-01 -3.5820904049358206e-03  1.2175137116091646e+00 6.3009823878320737e-01 9.3584282369778751e-03  1.2170436753464373e+00 6.4829762764502685e-01 -9.8418749316170201e-03  1.2182286514458331e+00 6.8176948932569459e-01 1.0793202250174612e-02  1.2226819229602937e+00 6.9648469093691590e-01 -1.4314207901006216e-02  1.2237604560903730e+00 7.3484142381555662e-01 1.6523194077758801e-02  1.2265120232112652e+00 7.3885281858907392e-01 -1.5553674465392443e-02  1.2316457715928473e+00 7.7672549955289716e-01 1.5862036055250973e-02  1.2352378252460727e+00 7.7992549229188057e-01 -1.6588101662681650e-02  1.2384515006225827e+00 8.1145725138408709e-01 1.5918701140881890e-02  1.2460067329014433e+00 8.1478541059427390e-01 -1.4566327527796748e-02  1.2495112555897425e+00 8.4516622170061229e-01 1.4544176267184690e-02  1.2552009616536022e+00 8.4374557631768399e-01 -1.4178237238090908e-02  1.2615966953046014e+00 8.7349099504427996e-01 1.3012241033256915e-02  1.2672127129465407e+00 8.7690763417668427e-01 -1.1879590829708724e-02  1.2716338482633769e+00 8.9960336423933696e-01 1.1238734933028368e-02  1.2793654237105607e+00 9.0663385405162933e-01 -1.0471458249463425e-02  1.2836436158762716e+00 9.3023882094078436e-01 9.5934434751472793e-03  1.2896134427283013e+00 9.3454524960073293e-01 -9.1686119836896594e-03  1.2956175517244370e+00 9.5950016844056829e-01 8.6951834949453490e-03  1.3015031894102624e+00 9.6719008561997399e-01 -8.2166326469536172e-03  1.3061202807340500e+00 9.8685356549095293e-01 7.8606956370604140e-03  1.3133847273992563e+00 9.9771423244095803e-01 -7.8020890357340398e-03  1.3179539470568040e+00 1.0190217966819040e+00 7.8419866923031996e-03  1.3242516180454968e+00 1.0256617030453774e+00 -7.9380164825675458e-03  1.3296873128798199e+00 1.0506883461575169e+00 8.0424245705122289e-03  1.3362184770176577e+00 1.0575553944862897e+00 -8.1263005041554946e-03  1.3407051184308576e+00 1.0795840606809903e+00 8.3312922530250286e-03  1.3480899748091220e+00 1.0888735542834047e+00 -8.5862423720599202e-03  1.3525453498078601e+00 1.1121060921519437e+00 8.9699535972852500e-03  1.3596048684231301e+00 1.1172411999866929e+00 -9.2834570276902010e-03  1.3642083794862792e+00 1.1452878679062548e+00 9.7245593273700606e-03  1.3717665130883390e+00 1.1480033641661760e+00 -1.0044118809333692e-02  1.3757215370953355e+00 1.1754255626225023e+00 1.0516653524370354e-02  1.3837533587753015e+00 1.1797536697144910e+00 -1.0943109643847329e-02  1.3876276378932189e+00 1.2075512935303352e+00 1.1360589025554840e-02  1.3958096865138492e+00 1.2086807264491841e+00 -1.1649002611656320e-02  1.3992803771128868e+00 1.2411655574131726e+00 1.1875651876655319e-02  1.4080373523759988e+00 1.2388866251861474e+00 -1.2076006892582612e-02  1.4111756749333331e+00 1.2718653005175782e+00 1.2225242546655263e-02  1.4199262654693985e+00 1.2713822023615349e+00 -1.2339064725124881e-02  1.4231838202389502e+00 1.3027148421558512e+00 1.2298523873123362e-02  1.4321055781169429e+00 1.3019021215932380e+00 -1.2064273771753313e-02  1.4349349071996298e+00 1.3350970779119109e+00 1.1761548575646786e-02  1.4441842253664474e+00 1.3326865336237457e+00 -1.1352402879513765e-02  1.4471233621653967e+00 1.3652783301520082e+00 1.1071709776286796e-02  1.4558980336810921e+00 1.3656687328541246e+00 -1.0586838682027052e-02  1.4592576791644398e+00 1.3946422448503011e+00 1.0189054803619185e-02  1.4679470788959832e+00 1.3974505141716083e+00 -9.2809107234504296e-03  1.4712618373164579e+00 1.4253156298044729e+00 8.5035584985372371e-03  1.4796582963836793e+00 1.4286377043087179e+00 -7.2225848875619803e-03  1.4837933735828042e+00 1.4548924663306730e+00 6.4083193755551764e-03  1.4911735941436475e+00 1.4613402815400134e+00 -5.1484540641310019e-03  1.4959277540135940e+00 1.4831724804782014e+00 4.5430265355718832e-03  1.5032777433277671e+00 1.4938955068170288e+00 -3.2707464043461496e-03  1.5079152564659071e+00 1.5122006576715556e+00 2.6674703634059146e-03  1.5148683816209509e+00 1.5250980881583587e+00 -1.3011156903461924e-03  1.5205590933802533e+00 1.5418799347722456e+00 7.8066203622495056e-04  1.5263455356092028e+00 1.5562169814194275e+00 3.0481687607813594e-04  1.5325477287610230e+00 1.5702856498278690e+00 -4.7087424498270147e-04  1.5386360454931507e+00 1.5885958453261051e+00 1.1369397538619726e-03  1.5443117343431105e+00 1.59799733571329