<?xml version="1.0"?>
<VTKFile type="UnstructuredGrid"  version="0.1"  >
<UnstructuredGrid>
<Piece  NumberOfPoints="8241" NumberOfCells="16000">
<Points>
<DataArray  type="Float64"  NumberOfComponents="3"  format="ascii">-5 -1 0  -4.95 -1 0  -4.9 -1 0  -4.85 -1 0  -4.8 -1 0  -4.75 -1 0  -4.7 -1 0  -4.65 -1 0  -4.6 -1 0  -4.55 -1 0  -4.5 -1 0  -4.45 -1 0  -4.4 -1 0  -4.35 -1 0  -4.3 -1 0  -4.25 -1 0  -4.2 -1 0  -4.15 -1 0  -4.1 -1 0  -4.05 -1 0  -4 -1 0  -3.95 -1 0  -3.9 -1 0  -3.85 -1 0  -3.8 -1 0  -3.75 -1 0  -3.7 -1 0  -3.65 -1 0  -3.6 -1 0  -3.55 -1 0  -3.5 -1 0  -3.45 -1 0  -3.4 -1 0  -3.35 -1 0  -3.3 -1 0  -3.25 -1 0  -3.2 -1 0  -3.15 -1 0  -3.1 -1 0  -3.05 -1 0  -3 -1 0  -2.95 -1 0  -2.9 -1 0  -2.85 -1 0  -2.8 -1 0  -2.75 -1 0  -2.7 -1 0  -2.65 -1 0  -2.6 -1 0  -2.55 -1 0  -2.5 -1 0  -2.45 -1 0  -2.4 -1 0  -2.35 -1 0  -2.3 -1 0  -2.25 -1 0  -2.2 -1 0  -2.15 -1 0  -2.1 -1 0  -2.05 -1 0  -2 -1 0  -1.95 -1 0  -1.9 -1 0  -1.85 -1 0  -1.8 -1 0  -1.75 -1 0  -1.7 -1 0  -1.65 -1 0  -1.6 -1 0  -1.55 -1 0  -1.5 -1 0  -1.45 -1 0  -1.4 -1 0  -1.35 -1 0  -1.3 -1 0  -1.25 -1 0  -1.2 -1 0  -1.15 -1 0  -1.1 -1 0  -1.05 -1 0  -1 -1 0  -0.9500000000000002 -1 0  -0.9000000000000004 -1 0  -0.8499999999999996 -1 0  -0.7999999999999998 -1 0  -0.75 -1 0  -0.7000000000000002 -1 0  -0.6500000000000004 -1 0  -0.5999999999999996 -1 0  -0.5499999999999998 -1 0  -0.5 -1 0  -0.4500000000000002 -1 0  -0.4000000000000004 -1 0  -0.3499999999999996 -1 0  -0.2999999999999998 -1 0  -0.25 -1 0  -0.2000000000000002 -1 0  -0.1500000000000004 -1 0  -0.09999999999999964 -1 0  -0.04999999999999982 -1 0  0 -1 0  0.04999999999999982 -1 0  0.09999999999999964 -1 0  0.1500000000000004 -1 0  0.2000000000000002 -1 0  0.25 -1 0  0.2999999999999998 -1 0  0.3499999999999996 -1 0  0.4000000000000004 -1 0  0.4500000000000002 -1 0  0.5 -1 0  0.5499999999999998 -1 0  0.5999999999999996 -1 0  0.6500000000000004 -1 0  0.7000000000000002 -1 0  0.75 -1 0  0.7999999999999998 -1 0  0.8499999999999996 -1 0  0.9000000000000004 -1 0  0.9500000000000002 -1 0  1 -1 0  1.05 -1 0  1.1 -1 0  1.15 -1 0  1.2 -1 0  1.25 -1 0  1.3 -1 0  1.35 -1 0  1.4 -1 0  1.45 -1 0  1.5 -1 0  1.55 -1 0  1.6 -1 0  1.65 -1 0  1.7 -1 0  1.75 -1 0  1.8 -1 0  1.85 -1 0  1.9 -1 0  1.95 -1 0  2 -1 0  2.05 -1 0  2.1 -1 0  2.15 -1 0  2.2 -1 0  2.25 -1 0  2.3 -1 0  2.35 -1 0  2.4 -1 0  2.45 -1 0  2.5 -1 0  2.55 -1 0  2.6 -1 0  2.65 -1 0  2.7 -1 0  2.75 -1 0  2.8 -1 0  2.85 -1 0  2.9 -1 0  2.95 -1 0  3 -1 0  3.050000000000001 -1 0  3.1 -1 0  3.15 -1 0  3.199999999999999 -1 0  3.25 -1 0  3.300000000000001 -1 0  3.35 -1 0  3.4 -1 0  3.449999999999999 -1 0  3.5 -1 0  3.550000000000001 -1 0  3.6 -1 0  3.65 -1 0  3.699999999999999 -1 0  3.75 -1 0  3.800000000000001 -1 0  3.85 -1 0  3.9 -1 0  3.949999999999999 -1 0  4 -1 0  4.050000000000001 -1 0  4.1 -1 0  4.15 -1 0  4.199999999999999 -1 0  4.25 -1 0  4.300000000000001 -1 0  4.35 -1 0  4.4 -1 0  4.449999999999999 -1 0  4.5 -1 0  4.550000000000001 -1 0  4.6 -1 0  4.65 -1 0  4.699999999999999 -1 0  4.75 -1 0  4.800000000000001 -1 0  4.85 -1 0  4.9 -1 0  4.949999999999999 -1 0  5 -1 0  -5 -0.95 0  -4.95 -0.95 0  -4.9 -0.95 0  -4.85 -0.95 0  -4.8 -0.95 0  -4.75 -0.95 0  -4.7 -0.95 0  -4.65 -0.95 0  -4.6 -0.95 0  -4.55 -0.95 0  -4.5 -0.95 0  -4.45 -0.95 0  -4.4 -0.95 0  -4.35 -0.95 0  -4.3 -0.95 0  -4.25 -0.95 0  -4.2 -0.95 0  -4.15 -0.95 0  -4.1 -0.95 0  -4.05 -0.95 0  -4 -0.95 0  -3.95 -0.95 0  -3.9 -0.95 0  -3.85 -0.95 0  -3.8 -0.95 0  -3.75 -0.95 0  -3.7 -0.95 0  -3.65 -0.95 0  -3.6 -0.95 0  -3.55 -0.95 0  -3.5 -0.95 0  -3.45 -0.95 0  -3.4 -0.95 0  -3.35 -0.95 0  -3.3 -0.95 0  -3.25 -0.95 0  -3.2 -0.95 0  -3.15 -0.95 0  -3.1 -0.95 0  -3.05 -0.95 0  -3 -0.95 0  -2.95 -0.95 0  -2.9 -0.95 0  -2.85 -0.95 0  -2.8 -0.95 0  -2.75 -0.95 0  -2.7 -0.95 0  -2.65 -0.95 0  -2.6 -0.95 0  -2.55 -0.95 0  -2.5 -0.95 0  -2.45 -0.95 0  -2.4 -0.95 0  -2.35 -0.95 0  -2.3 -0.95 0  -2.25 -0.95 0  -2.2 -0.95 0  -2.15 -0.95 0  -2.1 -0.95 0  -2.05 -0.95 0  -2 -0.95 0  -1.95 -0.95 0  -1.9 -0.95 0  -1.85 -0.95 0  -1.8 -0.95 0  -1.75 -0.95 0  -1.7 -0.95 0  -1.65 -0.95 0  -1.6 -0.95 0  -1.55 -0.95 0  -1.5 -0.95 0  -1.45 -0.95 0  -1.4 -0.95 0  -1.35 -0.95 0  -1.3 -0.95 0  -1.25 -0.95 0  -1.2 -0.95 0  -1.15 -0.95 0  -1.1 -0.95 0  -1.05 -0.95 0  -1 -0.95 0  -0.9500000000000002 -0.95 0  -0.9000000000000004 -0.95 0  -0.8499999999999996 -0.95 0  -0.7999999999999998 -0.95 0  -0.75 -0.95 0  -0.7000000000000002 -0.95 0  -0.6500000000000004 -0.95 0  -0.5999999999999996 -0.95 0  -0.5499999999999998 -0.95 0  -0.5 -0.95 0  -0.4500000000000002 -0.95 0  -0.4000000000000004 -0.95 0  -0.3499999999999996 -0.95 0  -0.2999999999999998 -0.95 0  -0.25 -0.95 0  -0.2000000000000002 -0.95 0  -0.1500000000000004 -0.95 0  -0.09999999999999964 -0.95 0  -0.04999999999999982 -0.95 0  0 -0.95 0  0.04999999999999982 -0.95 0  0.09999999999999964 -0.95 0  0.1500000000000004 -0.95 0  0.2000000000000002 -0.95 0  0.25 -0.95 0  0.2999999999999998 -0.95 0  0.3499999999999996 -0.95 0  0.4000000000000004 -0.95 0  0.4500000000000002 -0.95 0  0.5 -0.95 0  0.5499999999999998 -0.95 0  0.5999999999999996 -0.95 0  0.6500000000000004 -0.95 0  0.7000000000000002 -0.95 0  0.75 -0.95 0  0.7999999999999998 -0.95 0  0.8499999999999996 -0.95 0  0.9000000000000004 -0.95 0  0.9500000000000002 -0.95 0  1 -0.95 0  1.05 -0.95 0  1.1 -0.95 0  1.15 -0.95 0  1.2 -0.95 0  1.25 -0.95 0  1.3 -0.95 0  1.35 -0.95 0  1.4 -0.95 0  1.45 -0.95 0  1.5 -0.95 0  1.55 -0.95 0  1.6 -0.95 0  1.65 -0.95 0  1.7 -0.95 0  1.75 -0.95 0  1.8 -0.95 0  1.85 -0.95 0  1.9 -0.95 0  1.95 -0.95 0  2 -0.95 0  2.05 -0.95 0  2.1 -0.95 0  2.15 -0.95 0  2.2 -0.95 0  2.25 -0.95 0  2.3 -0.95 0  2.35 -0.95 0  2.4 -0.95 0  2.45 -0.95 0  2.5 -0.95 0  2.55 -0.95 0  2.6 -0.95 0  2.65 -0.95 0  2.7 -0.95 0  2.75 -0.95 0  2.8 -0.95 0  2.85 -0.95 0  2.9 -0.95 0  2.95 -0.95 0  3 -0.95 0  3.050000000000001 -0.95 0  3.1 -0.95 0  3.15 -0.95 0  3.199999999999999 -0.95 0  3.25 -0.95 0  3.300000000000001 -0.95 0  3.35 -0.95 0  3.4 -0.95 0  3.449999999999999 -0.95 0  3.5 -0.95 0  3.550000000000001 -0.95 0  3.6 -0.95 0  3.65 -0.95 0  3.699999999999999 -0.95 0  3.75 -0.95 0  3.800000000000001 -0.95 0  3.85 -0.95 0  3.9 -0.95 0  3.949999999999999 -0.95 0  4 -0.95 0  4.050000000000001 -0.95 0  4.1 -0.95 0  4.15 -0.95 0  4.199999999999999 -0.95 0  4.25 -0.95 0  4.300000000000001 -0.95 0  4.35 -0.95 0  4.4 -0.95 0  4.449999999999999 -0.95 0  4.5 -0.95 0  4.550000000000001 -0.95 0  4.6 -0.95 0  4.65 -0.95 0  4.699999999999999 -0.95 0  4.75 -0.95 0  4.800000000000001 -0.95 0  4.85 -0.95 0  4.9 -0.95 0  4.949999999999999 -0.95 0  5 -0.95 0  -5 -0.9 0  -4.95 -0.9 0  -4.9 -0.9 0  -4.85 -0.9 0  -4.8 -0.9 0  -4.75 -0.9 0  -4.7 -0.9 0  -4.65 -0.9 0  -4.6 -0.9 0  -4.55 -0.9 0  -4.5 -0.9 0  -4.45 -0.9 0  -4.4 -0.9 0  -4.35 -0.9 0  -4.3 -0.9 0  -4.25 -0.9 0  -4.2 -0.9 0  -4.15 -0.9 0  -4.1 -0.9 0  -4.05 -0.9 0  -4 -0.9 0  -3.95 -0.9 0  -3.9 -0.9 0  -3.85 -0.9 0  -3.8 -0.9 0  -3.75 -0.9 0  -3.7 -0.9 0  -3.65 -0.9 0  -3.6 -0.9 0  -3.55 -0.9 0  -3.5 -0.9 0  -3.45 -0.9 0  -3.4 -0.9 0  -3.35 -0.9 0  -3.3 -0.9 0  -3.25 -0.9 0  -3.2 -0.9 0  -3.15 -0.9 0  -3.1 -0.9 0  -3.05 -0.9 0  -3 -0.9 0  -2.95 -0.9 0  -2.9 -0.9 0  -2.85 -0.9 0  -2.8 -0.9 0  -2.75 -0.9 0  -2.7 -0.9 0  -2.65 -0.9 0  -2.6 -0.9 0  -2.55 -0.9 0  -2.5 -0.9 0  -2.45 -0.9 0  -2.4 -0.9 0  -2.35 -0.9 0  -2.3 -0.9 0  -2.25 -0.9 0  -2.2 -0.9 0  -2.15 -0.9 0  -2.1 -0.9 0  -2.05 -0.9 0  -2 -0.9 0  -1.95 -0.9 0  -1.9 -0.9 0  -1.85 -0.9 0  -1.8 -0.9 0  -1.75 -0.9 0  -1.7 -0.9 0  -1.65 -0.9 0  -1.6 -0.9 0  -1.55 -0.9 0  -1.5 -0.9 0  -1.45 -0.9 0  -1.4 -0.9 0  -1.35 -0.9 0  -1.3 -0.9 0  -1.25 -0.9 0  -1.2 -0.9 0  -1.15 -0.9 0  -1.1 -0.9 0  -1.05 -0.9 0  -1 -0.9 0  -0.9500000000000002 -0.9 0  -0.9000000000000004 -0.9 0  -0.8499999999999996 -0.9 0  -0.7999999999999998 -0.9 0  -0.75 -0.9 0  -0.7000000000000002 -0.9 0  -0.6500000000000004 -0.9 0  -0.5999999999999996 -0.9 0  -0.5499999999999998 -0.9 0  -0.5 -0.9 0  -0.4500000000000002 -0.9 0  -0.4000000000000004 -0.9 0  -0.3499999999999996 -0.9 0  -0.2999999999999998 -0.9 0  -0.25 -0.9 0  -0.2000000000000002 -0.9 0  -0.1500000000000004 -0.9 0  -0.09999999999999964 -0.9 0  -0.04999999999999982 -0.9 0  0 -0.9 0  0.04999999999999982 -0.9 0  0.09999999999999964 -0.9 0  0.1500000000000004 -0.9 0  0.2000000000000002 -0.9 0  0.25 -0.9 0  0.2999999999999998 -0.9 0  0.3499999999999996 -0.9 0  0.4000000000000004 -0.9 0  0.4500000000000002 -0.9 0  0.5 -0.9 0  0.5499999999999998 -0.9 0  0.5999999999999996 -0.9 0  0.6500000000000004 -0.9 0  0.7000000000000002 -0.9 0  0.75 -0.9 0  0.7999999999999998 -0.9 0  0.8499999999999996 -0.9 0  0.9000000000000004 -0.9 0  0.9500000000000002 -0.9 0  1 -0.9 0  1.05 -0.9 0  1.1 -0.9 0  1.15 -0.9 0  1.2 -0.9 0  1.25 -0.9 0  1.3 -0.9 0  1.35 -0.9 0  1.4 -0.9 0  1.45 -0.9 0  1.5 -0.9 0  1.55 -0.9 0  1.6 -0.9 0  1.65 -0.9 0  1.7 -0.9 0  1.75 -0.9 0  1.8 -0.9 0  1.85 -0.9 0  1.9 -0.9 0  1.95 -0.9 0  2 -0.9 0  2.05 -0.9 0  2.1 -0.9 0  2.15 -0.9 0  2.2 -0.9 0  2.25 -0.9 0  2.3 -0.9 0  2.35 -0.9 0  2.4 -0.9 0  2.45 -0.9 0  2.5 -0.9 0  2.55 -0.9 0  2.6 -0.9 0  2.65 -0.9 0  2.7 -0.9 0  2.75 -0.9 0  2.8 -0.9 0  2.85 -0.9 0  2.9 -0.9 0  2.95 -0.9 0  3 -0.9 0  3.050000000000001 -0.9 0  3.1 -0.9 0  3.15 -0.9 0  3.199999999999999 -0.9 0  3.25 -0.9 0  3.300000000000001 -0.9 0  3.35 -0.9 0  3.4 -0.9 0  3.449999999999999 -0.9 0  3.5 -0.9 0  3.550000000000001 -0.9 0  3.6 -0.9 0  3.65 -0.9 0  3.699999999999999 -0.9 0  3.75 -0.9 0  3.800000000000001 -0.9 0  3.85 -0.9 0  3.9 -0.9 0  3.949999999999999 -0.9 0  4 -0.9 0  4.050000000000001 -0.9 0  4.1 -0.9 0  4.15 -0.9 0  4.199999999999999 -0.9 0  4.25 -0.9 0  4.300000000000001 -0.9 0  4.35 -0.9 0  4.4 -0.9 0  4.449999999999999 -0.9 0  4.5 -0.9 0  4.550000000000001 -0.9 0  4.6 -0.9 0  4.65 -0.9 0  4.699999999999999 -0.9 0  4.75 -0.9 0  4.800000000000001 -0.9 0  4.85 -0.9 0  4.9 -0.9 0  4.949999999999999 -0.9 0  5 -0.9 0  -5 -0.85 0  -4.95 -0.85 0  -4.9 -0.85 0  -4.85 -0.85 0  -4.8 -0.85 0  -4.75 -0.85 0  -4.7 -0.85 0  -4.65 -0.85 0  -4.6 -0.85 0  -4.55 -0.85 0  -4.5 -0.85 0  -
[...]
<PointData  Vectors="f_15"> 
<DataArray  type="Float64"  Name="f_15"  NumberOfComponents="3" format="ascii">6.6556327929679666e+00 0.0000000000000000e+00 0.0000000000000000e+00  6.6549143845547905e+00 8.5877548590025457e-02 0.0000000000000000e+00  6.6550192965174748e+00 1.6930399033897883e-01 0.0000000000000000e+00  6.6533610343362861e+00 2.5575732706539162e-01 0.0000000000000000e+00  6.6530476859968832e+00 3.3889036796003857e-01 0.0000000000000000e+00  6.6506337277768317e+00 4.2524241634577009e-01 0.0000000000000000e+00  6.6494989519767573e+00 5.0826282458033811e-01 0.0000000000000000e+00  6.6465170680371006e+00 5.9439424558308784e-01 0.0000000000000000e+00  6.6447469549068652e+00 6.7742605942811684e-01 0.0000000000000000e+00  6.6408097696669319e+00 7.6351729612968966e-01 0.0000000000000000e+00  6.6385304823932829e+00 8.4466894426865136e-01 0.0000000000000000e+00  6.6339008069543004e+00 9.3492530304809329e-01 0.0000000000000000e+00  6.6306291449086947e+00 1.0087664141404207e+00 0.0000000000000000e+00  6.6255043232528559e+00 1.1055712813067673e+00 0.0000000000000000e+00  6.6214620981792045e+00 1.1774114407092069e+00 0.0000000000000000e+00  6.6153105242663264e+00 1.2659377179962967e+00 0.0000000000000000e+00  6.6108455831922033e+00 1.3547539170553418e+00 0.0000000000000000e+00  6.6036326817038091e+00 1.4221483825119561e+00 0.0000000000000000e+00  6.5984405927597631e+00 1.5254747200943255e+00 0.0000000000000000e+00  6.5904317435247375e+00 1.5884737229613917e+00 0.0000000000000000e+00  6.5843330161855604e+00 1.6868827463383202e+00 0.0000000000000000e+00  6.5755155797626417e+00 1.7538733126786354e+00 0.0000000000000000e+00  6.5684610049571308e+00 1.8523627414007739e+00 0.0000000000000000e+00  6.5588560777669249e+00 1.9152895294997749e+00 0.0000000000000000e+00  6.5507097469667084e+00 2.0124973285052832e+00 0.0000000000000000e+00  6.5403524130611661e+00 2.0819757817750739e+00 0.0000000000000000e+00  6.5310954273370632e+00 2.1692134335229407e+00 0.0000000000000000e+00  6.5197581165086635e+00 2.2428895163309130e+00 0.0000000000000000e+00  6.5095975727985698e+00 2.3290334890389524e+00 0.0000000000000000e+00  6.4971091364067508e+00 2.4018388932732986e+00 0.0000000000000000e+00  6.4858523853605856e+00 2.4844694052033618e+00 0.0000000000000000e+00  6.4724645657188464e+00 2.5594961844101038e+00 0.0000000000000000e+00  6.4598784285642381e+00 2.6401682457588058e+00 0.0000000000000000e+00  6.4454637204296104e+00 2.7134313252935400e+00 0.0000000000000000e+00  6.4316866304337079e+00 2.7927819044529114e+00 0.0000000000000000e+00  6.4161326354743906e+00 2.8667219358464195e+00 0.0000000000000000e+00  6.4009987425302413e+00 2.9430174871754162e+00 0.0000000000000000e+00  6.3844041440913202e+00 3.0165588674433059e+00 0.0000000000000000e+00  6.3678270696215815e+00 3.0914001158721467e+00 0.0000000000000000e+00  6.3500860811815576e+00 3.1635214668529383e+00 0.0000000000000000e+00  6.3321034603270236e+00 3.2376028554527814e+00 0.0000000000000000e+00  6.3131361683596126e+00 3.3073510658120289e+00 0.0000000000000000e+00  6.2937038261268725e+00 3.3807049389963950e+00 0.0000000000000000e+00  6.2735467793080204e+00 3.4488089242814630e+00 0.0000000000000000e+00  6.2525130218578733e+00 3.5206385337241555e+00 0.0000000000000000e+00  6.2313073764377505e+00 3.5872441051111079e+00 0.0000000000000000e+00  6.2085257643302452e+00 3.6573464931241846e+00 0.0000000000000000e+00  6.1863141245544639e+00 3.7227906607183820e+00 0.0000000000000000e+00  6.1617960708234456e+00 3.7907242285273846e+00 0.0000000000000000e+00  6.1386341168210725e+00 3.8553244734209193e+00 0.0000000000000000e+00  6.1121805739687289e+00 3.9207547645298688e+00 0.0000000000000000e+00  6.0884360466622898e+00 3.9846728522276509e+00 0.0000000000000000e+00  6.0597929413525975e+00 4.0476224707394506e+00 0.0000000000000000e+00  6.0355969368510074e+00 4.1108971425007388e+00 0.0000000000000000e+00  6.0048443459959291e+00 4.1710431989199712e+00 0.0000000000000000e+00  5.9803666247822393e+00 4.2345744292941472e+00 0.0000000000000000e+00  5.9471482285501072e+00 4.2905937783044523e+00 0.0000000000000000e+00  5.9230743342839602e+00 4.3557983434402514e+00 0.0000000000000000e+00  5.8870156657565440e+00 4.4071752723787352e+00 0.0000000000000000e+00  5.8635611453027092e+00 4.4738137562075346e+00 0.0000000000000000e+00  5.8247630791889229e+00 4.5210505769456102e+00 0.0000000000000000e+00  5.8023019781267786e+00 4.5895994765202826e+00 0.0000000000000000e+00  5.7601926970436468e+00 4.6315189495980214e+00 0.0000000000000000e+00  5.7395908540673330e+00 4.7034699498773609e+00 0.0000000000000000e+00  5.6939559702468925e+00 4.7397650334328105e+00 0.0000000000000000e+00  5.6751436088292939e+00 4.8143427954101510e+00 0.0000000000000000e+00  5.6263135869609231e+00 4.8464770293983817e+00 0.0000000000000000e+00  5.6098375814930419e+00 4.9235099780259697e+00 0.0000000000000000e+00  5.5567586506532933e+00 4.9501975061089052e+00 0.0000000000000000e+00  5.5439450075622503e+00 5.0318538363596108e+00 0.0000000000000000e+00  5.4864920047930044e+00 5.0525493072993353e+00 0.0000000000000000e+00  5.4764374562593545e+00 5.1374354841213687e+00 0.0000000000000000e+00  5.4160852817459268e+00 5.1544121890645780e+00 0.0000000000000000e+00  5.4086444404526839e+00 5.2423006896552042e+00 0.0000000000000000e+00  5.3440915035687366e+00 5.2535788957766245e+00 0.0000000000000000e+00  5.3411965057116859e+00 5.3469852654784393e+00 0.0000000000000000e+00  5.2723272366348946e+00 5.3526050184034313e+00 0.0000000000000000e+00  5.2718932968312382e+00 5.4489578839650656e+00 0.0000000000000000e+00  5.2016530390643556e+00 5.4520588037586153e+00 0.0000000000000000e+00  5.2029177836360949e+00 5.5506131155369722e+00 0.0000000000000000e+00  5.1293270627493381e+00 5.5496344965018727e+00 0.0000000000000000e+00  5.1349000755536149e+00 5.6524070378922842e+00 0.0000000000000000e+00  5.0582207585439320e+00 5.6478169227259123e+00 0.0000000000000000e+00  5.0644458271298456e+00 5.7517402846526808e+00 0.0000000000000000e+00  4.9889109750016392e+00 5.7474638590093594e+00 0.0000000000000000e+00  4.9951359076788302e+00 5.8504396354515436e+00 0.0000000000000000e+00  4.9176159107322723e+00 5.8457439650170882e+00 0.0000000000000000e+00  4.9270541706315765e+00 5.9500024205184925e+00 0.0000000000000000e+00  4.8483026830129328e+00 5.9446846280226602e+00 0.0000000000000000e+00  4.8563933418117893e+00 6.0468561171713251e+00 0.0000000000000000e+00  4.7806667779059708e+00 6.0461762289091361e+00 0.0000000000000000e+00  4.7873300593236765e+00 6.1436886724389925e+00 0.0000000000000000e+00  4.7116233629226505e+00 6.1444142251359066e+00 0.0000000000000000e+00  4.7198888765372180e+00 6.2420934953787750e+00 0.0000000000000000e+00  4.6436306471533557e+00 6.2446612108224269e+00 0.0000000000000000e+00  4.6490513179542088e+00 6.3401571133074608e+00 0.0000000000000000e+00  4.5768195681028576e+00 6.3461899309348873e+00 0.0000000000000000e+00  4.5864020729541295e+00 6.4311956827480721e+00 0.0000000000000000e+00  4.5079414292580831e+00 6.4453767926672523e+00 0.0000000000000000e+00  4.5175884447748542e+00 6.5327863591920785e+00 0.0000000000000000e+00  4.4425618844178425e+00 6.5450869757471821e+00 0.0000000000000000e+00  4.4546653878345026e+00 6.6220136639625684e+00 0.0000000000000000e+00  4.3751874977315239e+00 6.6458079319523531e+00 0.0000000000000000e+00  4.3878261852644327e+00 6.7270575122588081e+00 0.0000000000000000e+00  4.3076362869977887e+00 6.7424786368712102e+00 0.0000000000000000e+00  4.3231665538069928e+00 6.8224449781378960e+00 0.0000000000000000e+00  4.2420092957639852e+00 6.8509904320335879e+00 0.0000000000000000e+00  4.2572688691787377e+00 6.9137820858564876e+00 0.0000000000000000e+00  4.1795385474126290e+00 6.9463075211546039e+00 0.0000000000000000e+00  4.1977030317014581e+00 7.0155454479171695e+00 0.0000000000000000e+00  4.1132723482476274e+00 7.0378555886462637e+00 0.0000000000000000e+00  4.1338948147127352e+00 7.1119776244814625e+00 0.0000000000000000e+00  4.0516551687411733e+00 7.1486250378669371e+00 0.0000000000000000e+00  4.0708187084242144e+00 7.1903360434306993e+00 0.0000000000000000e+00  3.9908971188395044e+00 7.2558699473685442e+00 0.0000000000000000e+00  4.0096953090311880e+00 7.2863110354077465e+00 0.0000000000000000e+00  3.9306459494403314e+00 7.3423081556213976e+00 0.0000000000000000e+00  3.9491911128179806e+00 7.3871990498512767e+00 0.0000000000000000e+00  3.8741714769747442e+00 7.4356545555798732e+00 0.0000000000000000e+00  3.8918180145788854e+00 7.4669297612722234e+00 0.0000000000000000e+00  3.8218971044635559e+00 7.5321769629907793e+00 0.0000000000000000e+00  3.8334663722719875e+00 7.5490023049923032e+00 0.0000000000000000e+00  3.7938238880861896e+00 7.5847491736490955e+00 0.0000000000000000e+00  3.8856951250636507e+00 7.4639761119245351e+00 0.0000000000000000e+00  3.8982386769647950e+00 7.4180968348175345e+00 0.0000000000000000e+00  3.9494496417151868e+00 7.3668689732405550e+00 0.0000000000000000e+00  3.9269179729831603e+00 7.3660186197629924e+00 0.0000000000000000e+00  3.9600028391626192e+00 7.3561284948087557e+00 0.0000000000000000e+00  3.9332273986247968e+00 7.3571742925400256e+00 0.0000000000000000e+00  3.9627662563763102e+00 7.3425740166953650e+00 0.0000000000000000e+00  3.9392101448474781e+00 7.3594031052560016e+00 0.0000000000000000e+00  3.9668388265770802e+00 7.3286751299613924e+00 0.0000000000000000e+00  3.9419465054425804e+00 7.3577055514499348e+00 0.0000000000000000e+00  3.9684169661462527e+00 7.3262326894036747e+00 0.0000000000000000e+00  3.9471944866862012e+00 7.3520855408319097e+00 0.0000000000000000e+00  3.9641003831604245e+00 7.3277412253391052e+00 0.0000000000000000e+00  3.9531577992645230e+00 7.3467261732314384e+00 0.0000000000000000e+00  3.9632933898912861e+00 7.3298729452412417e+00 0.0000000000000000e+00  3.9533079733257832e+00 7.3416578567228701e+00 0.0000000000000000e+00  3.9644311192949901e+00 7.3321327736706907e+00 0.0000000000000000e+00  3.9546889240264638e+00 7.3389587987338274e+00 0.0000000000000000e+00  3.9634087257707238e+00 7.3316643916408930e+00 0.0000000000000000e+00  3.9557912600009058e+00 7.3383122117037916e+00 0.0000000000000000e+00  3.9650103432216612e+00 7.3307490628860323e+00 0.0000000000000000e+00  3.9547430034643076e+00 7.3381899326157978e+00 0.0000000000000000e+00  3.9648957763785124e+00 7.3295672294799061e+00 0.0000000000000000e+00  3.9576018349533033e+00 7.3384621423816743e+00 0.0000000000000000e+00  3.9618361139165512e+00 7.3297731881581347e+00 0.0000000000000000e+00  3.9596284134134803e+00 7.3358250896626576e+00 0.0000000000000000e+00  3.9615959350958447e+00 7.3331861204724582e+00 0.0000000000000000e+00  3.9602040760000499e+00 7.3324376406702241e+00 0.0000000000000000e+00  3.9596264603972320e+00 7.3339783894555595e+00 0.0000000000000000e+00  3.9633886226291670e+00 7.3333422707250087e+00 0.0000000000000000e+00  3.9576232824867899e+00 7.3326282056716323e+00 0.0000000000000000e+00  3.9625757665815646e+00 7.3326037325260947e+00 0.0000000000000000e+00  3.9603900328715715e+00 7.3354966961191606e+00 0.0000000000000000e+00  3.9608775142290047e+00 7.3285380787905119e+00 0.0000000000000000e+00  3.9588581789405670e+00 7.3382683050365936e+00 0.0000000000000000e+00  3.9659118301500982e+00 7.3262348385062257e+00 0.0000000000000000e+00  3.9532550101740953e+00 7.3409974932697741e+00 0.0000000000000000e+00  3.9698143062892886e+00 7.3210959808243281e+00 0.0000000000000000e+00  3.9519823321836678e+00 7.3474412080392568e+00 0.0000000000000000e+00  3.9702053716786190e+00 7.3149135172913624e+00 0.0000000000000000e+00  3.9511602613853558e+00 7.3515866529270593e+00 0.0000000000000000e+00  3.9720740601648306e+00 7.3122893955987047e+00 0.0000000000000000e+00  3.9496709565879375e+00 7.3521881010479930e+00 0.0000000000000000e+00  3.9725140370347134e+00 7.3154063263964861e+00 0.0000000000000000e+00  3.9492485506820736e+00 7.3426798798758801e+00 0.0000000000000000e+00  3.9743866541366049e+00 7.3325066668903212e+00 0.0000000000000000e+00  3.9415250809561466e+00 7.3226917035602357e+00 0.0000000000000000e+00  3.9824583635959727e+00 7.3562441157023883e+00 0.0000000000000000e+00  3.9244936912335353e+00 7.3023540908584188e+00 0.0000000000000000e+00  3.9923606495480510e+00 7.3925686052221335e+00 0.0000000000000000e+00  3.8971533907608991e+00 7.2492919473237265e+00 0.0000000000000000e+00  4.0254820982274468e+00 7.4986317653405301e+00 0.0000000000000000e+00  3.8422547025564082e+00 7.0545572832671031e+00 0.0000000000000000e+00  4.0485103913893381e+00 7.8525125342085182e+00 0.0000000000000000e+00  4.0008971247764338e+00 6.3506222604839664e+00 0.0000000000000000e+00  3.4456386777694497e+00 9.1252128661763319e+00 0.0000000000000000e+00  6.3443735447516207e+00 3.1421074886697618e+00 0.0000000000000000e+00  9.3346836780274440e+00 2.0300791941278928e-01 0.0000000000000000e+00  9.5565864793764153e+00 -3.7991086539002773e-02 0.0000000000000000e+00  9.4038196884968990e+00 -2.9041086690158742e-03 0.0000000000000000e+00  9.4955160576495583e+00 -5.1800586104335071e-02 0.0000000000000000e+00  9.4832866550772099e+00 -4.1685979638516280e-02 0.0000000000000000e+00  9.4968196315153239e+00 -8.2558126509607851e-02 0.0000000000000000e+00  9.4985924844938712e+00 -7.7755919555781247e-02 0.0000000000000000e+00  9.4853696721125544e+00 -8.4213261785668000e-02 0.0000000000000000e+00  9.4913335811555779e+00 -9.4363614247135297e-02 0.0000000000000000e+00  9.4953127197580400e+00 -1.1354328126203268e-01 0.0000000000000000e+00  9.4913338933397888e+00 -1.0863101241638812e-01 0.0000000000000000e+00  9.4923837236936563e+00 -1.2265991667048882e-01 0.0000000000000000e+00  9.4897339480136207e+00 -1.0750027410565689e-01 0.0000000000000000e+00  9.4942588822681273e+00 -1.1298015980906922e-01 0.0000000000000000e+00  9.4891731603175469e+00 -1.0169148438720528e-01 0.0000000000000000e+00  9.4946218423264419e+00 -9.5276114444212592e-02 0.0000000000000000e+00  9.4877594945365917e+00 -9.4429550486786126e-02 0.0000000000000000e+00  9.4950627187813588e+00 -7.3430614037226963e-02 0.0000000000000000e+00  9.4882731093299615e+00 -1.1126566913258545e-01 0.0000000000000000e+00  9.4948736651758701e+00 -2.9424097571335951e-02 0.0000000000000000e+00  9.4876791891954753e+00 0.0000000000000000e+00 0.0000000000000000e+00  6.6550157254316185e+00 0.0000000000000000e+00 1.4269604769442863e-03  6.6548573556351993e+00 8.3771267035855079e-02 -1.3321126196101552e-03  6.6542062605905317e+00 1.7004134458383713e-01 1.6496334939910047e-03  6.6535853459228687e+00 2.5331168125772541e-01 -1.9437551563490228e-03  6.6522033836314582e+00 3.3995130109223998e-01 2.0749380253831757e-03  6.6507237148812832e+00 4.2270988288328143e-01 -2.1325940199750926e-03  6.6488075964993829e+00 5.0952355152034035e-01 2.1828830974992578e-03  6.6466549311495919e+00 5.9205983890662561e-01 -2.2097015838990690e-03  6.6438101493179111e+00 6.7872981212558936e-01 2.2408432021999037e-03  6.6411443869562721e+00 7.6056388417734588e-01 -2.1774345189428828e-03  6.6375860999884955e+00 8.4852244869156634e-01 2.1854636653873289e-03  6.6340002390470474e+00 9.2767290159381510e-01 -2.4079015215028713e-03  6.6298328291461992e+00 1.0174688945384902e+00 3.1738323568156986e-03  6.6256547418937144e+00 1.0964835028155711e+00 -4.4293106560426183e-03  6.6202897856761842e+00 1.1822147023589533e+00 5.8086165257346615e-03  6.6158021933408246e+00 1.2671081064359335e+00 -6.4297525385017878e-03  6.6094674796597763e+00 1.3471639929077213e+00 5.6518445137092969e-03  6.6039591600488494e+00 1.4321817809480080e+00 -3.3495372553015079e-03  6.5973376624642537e+00 1.5165366650963896e+00 4.1550265195063318e-04  6.5903748650674423e+00 1.5949978865885226e+00 2.1746923316278222e-03  6.5834671835091427e+00 1.6801497384055202e+00 -3.7793741014678080e-03  6.5751993785302325e+00 1.7639798375446383e+00 4.5480289415131608e-03  6.5677186909220326e+00 1.8393172371414754e+00 -4.6347728125097536e-03  6.5583958358150207e+00 1.9275456527277570e+00 3.9696620057302241e-03  6.5499205533748013e+00 2.0051874918797408e+00 -2.3847618574857530e-03  6.5399712893205422e+00 2.0849406456529809e+00 4.2702062892201859e-04  6.5300289957447015e+00 2.1677176963829683e+00 9.0174747816838862e-04  6.5195884136917304e+00 2.2456514157218752e+00 -1.0621449290303927e-03  6.5083115750360960e+00 2.3262256115294235e+00 5.9567542667462667e-04  6.4968910135159561e+00 2.4034029715677336e+00 -4.0244376343168999e-04  6.4846560404789573e+00 2.4842502648093303e+00 6.7756727059577302e-04  6.4720497375157171e+00 2.5601656363224587e+00 -9.1185695524761848e-04  6.4586684199609037e+00 2.6386922007015796e+00 7.7488723734033405e-04  6.4450533317134919e+00 2.7146486388326210e+00 -5.9146027355455578e-04  6.4303773119394538e+00 2.7924774879266048e+00 6.7705630815937561e-04  6.4156326738247467e+00 2.8661699115068644e+00 -9.2484523528841753e-04  6.3997247739109628e+00 2.9432242985965189e+00 9.8518180494211027e-04  6.3837773182292938e+00 3.0160609975202273e+00 -9.0900120545695841e-04  6.3665145965557288e+00 3.0912392045629020e+00 8.8116583862310482e-04  6.3494310824870013e+00 3.1633226982188019e+00 -9.8483670679140514e-04  6.3306960912959331e+00 3.2366129670188788e+00 1.0509157778572807e-03  6.3124569226326157e+00 3.3074328155973434e+00 -1.0808570652738895e-03  6.2922483473913831e+00 3.3796792514495384e+00 1.1007894119346659e-03  6.2727610382427006e+00 3.4485126909482755e+00 -1.1498179678418733e-03  6.2511248191233779e+00 3.5194839275607821e+00 1.1373577432229156e-03  6.2303314984717497e+00 3.5867655910016158e+00 -1.0974310943469190e-03  6.2072302120945482e+00 3.6562218958846926e+00 1.0355298173852642e-03  6.1852008794870450e+00 3.7219073201384805e+00 -9.8559341607353012e-04  6.1606017616795610e+00 3.7897458204945433e+00 8.9340737542574348e-04  6.1372531285119711e+00 3.8539170162583920e+00 -7.9168678641613360e-04  6.1113615463909596e+00 3.9199468900002730e+00 6.6306286486592222e-04  6.0866044460038182e+00 3.9829570551357838e+00 -5.6624586185400065e-04  6.0593675380205392e+00 4.0468645372848870e+00 4.8059482121110751e-04  6.0334696863796609e+00 4.1086467892674365e+00 -4.2850895602273014e-04  6.0048218312748087e+00 4.1709707196712156e+00 3.3399108004022793e-04  5.9776903915978066e+00 4.2309078835353588e+00 -2.3538120211732497e-04  5.9480187834737590e+00 4.2921165292929047e+00 1.1679082406225153e-04  5.9195698404040007e+00 4.3504923705020246e+00 -3.9546373913665205e-05  5.8887776225891226e+00 4.4097910587095575e+00 -3.8645596919644336e-05  5.8594619277851852e+00 4.4674706415465648e+00 6.7289035454540778e-05  5.8274959977205496e+00 4.5250958170608824e+00 -9.1038020076779830e-05  5.7972045449594916e+00 4.5811002411633011e+00 8.3708682208547783e-05  5.7644818159129061e+00 4.6382701622651394e+00 -9.5366230411191057e-05  5.7333743505407009e+00 4.6925315520455770e+00 8.0574772583317245e-05  5.6995099659850244e+00 4.7484309382379255e+00 -6.8944024515608018e-05  5.6682262790541031e+00 4.8022745577791124e+00 2.3749683290334547e-05  5.6333844387610972e+00 4.8568065709954409e+00 4.2573099846643132e-06  5.6013397388175887e+00 4.9091171272124763e+00 -4.5637740052380905e-05  5.5663694640135253e+00 4.9641748706027471e+00 7.0805033265888603e-05  5.5337688468518804e+00 5.0144645162531187e+00 -1.3028007147972172e-04  5.4976778105921884e+00 5.0689074480205152e+00 1.7359936609034936e-04  5.4659003755995386e+00 5.1192256961844276e+00 -2.2072899464885290e-04  5.4286318573563621e+00 5.1727366764659495e+00 2.2477030107908246e-04  5.3963994026601609e+00 5.2214500227886296e+00 -2.3861128229474285e-04  5.3598616069484990e+00 5.2763099466655659e+00 2.3460584275880006e-04  5.3268354090911263e+00 5.3234068546174118e+00 -2.4620045392212685e-04  5.2894573229272526e+00 5.3773639004438136e+00 2.4202742401543983e-04  5.2579709101857146e+00 5.4255628714833177e+00 -2.5754537854270394e-04  5.2194115534940275e+00 5.4783841944781768e+00 2.8293780254888242e-04  5.1872694021141728e+00 5.5255292343612048e+00 -3.4469100103432589e-04  5.1504815775988417e+00 5.5797990023617769e+00 4.1559956790614448e-04  5.1173494183599502e+00 5.6255845661192367e+00 -5.1846335228378552e-04  5.0795372026629932e+00 