<?xml version="1.0"?>
<VTKFile type="UnstructuredGrid"  version="0.1"  >
<UnstructuredGrid>
<Piece  NumberOfPoints="8241" NumberOfCells="16000">
<Points>
<DataArray  type="Float64"  NumberOfComponents="3"  format="ascii">-5 -1 0  -4.95 -1 0  -4.9 -1 0  -4.85 -1 0  -4.8 -1 0  -4.75 -1 0  -4.7 -1 0  -4.65 -1 0  -4.6 -1 0  -4.55 -1 0  -4.5 -1 0  -4.45 -1 0  -4.4 -1 0  -4.35 -1 0  -4.3 -1 0  -4.25 -1 0  -4.2 -1 0  -4.15 -1 0  -4.1 -1 0  -4.05 -1 0  -4 -1 0  -3.95 -1 0  -3.9 -1 0  -3.85 -1 0  -3.8 -1 0  -3.75 -1 0  -3.7 -1 0  -3.65 -1 0  -3.6 -1 0  -3.55 -1 0  -3.5 -1 0  -3.45 -1 0  -3.4 -1 0  -3.35 -1 0  -3.3 -1 0  -3.25 -1 0  -3.2 -1 0  -3.15 -1 0  -3.1 -1 0  -3.05 -1 0  -3 -1 0  -2.95 -1 0  -2.9 -1 0  -2.85 -1 0  -2.8 -1 0  -2.75 -1 0  -2.7 -1 0  -2.65 -1 0  -2.6 -1 0  -2.55 -1 0  -2.5 -1 0  -2.45 -1 0  -2.4 -1 0  -2.35 -1 0  -2.3 -1 0  -2.25 -1 0  -2.2 -1 0  -2.15 -1 0  -2.1 -1 0  -2.05 -1 0  -2 -1 0  -1.95 -1 0  -1.9 -1 0  -1.85 -1 0  -1.8 -1 0  -1.75 -1 0  -1.7 -1 0  -1.65 -1 0  -1.6 -1 0  -1.55 -1 0  -1.5 -1 0  -1.45 -1 0  -1.4 -1 0  -1.35 -1 0  -1.3 -1 0  -1.25 -1 0  -1.2 -1 0  -1.15 -1 0  -1.1 -1 0  -1.05 -1 0  -1 -1 0  -0.9500000000000002 -1 0  -0.9000000000000004 -1 0  -0.8499999999999996 -1 0  -0.7999999999999998 -1 0  -0.75 -1 0  -0.7000000000000002 -1 0  -0.6500000000000004 -1 0  -0.5999999999999996 -1 0  -0.5499999999999998 -1 0  -0.5 -1 0  -0.4500000000000002 -1 0  -0.4000000000000004 -1 0  -0.3499999999999996 -1 0  -0.2999999999999998 -1 0  -0.25 -1 0  -0.2000000000000002 -1 0  -0.1500000000000004 -1 0  -0.09999999999999964 -1 0  -0.04999999999999982 -1 0  0 -1 0  0.04999999999999982 -1 0  0.09999999999999964 -1 0  0.1500000000000004 -1 0  0.2000000000000002 -1 0  0.25 -1 0  0.2999999999999998 -1 0  0.3499999999999996 -1 0  0.4000000000000004 -1 0  0.4500000000000002 -1 0  0.5 -1 0  0.5499999999999998 -1 0  0.5999999999999996 -1 0  0.6500000000000004 -1 0  0.7000000000000002 -1 0  0.75 -1 0  0.7999999999999998 -1 0  0.8499999999999996 -1 0  0.9000000000000004 -1 0  0.9500000000000002 -1 0  1 -1 0  1.05 -1 0  1.1 -1 0  1.15 -1 0  1.2 -1 0  1.25 -1 0  1.3 -1 0  1.35 -1 0  1.4 -1 0  1.45 -1 0  1.5 -1 0  1.55 -1 0  1.6 -1 0  1.65 -1 0  1.7 -1 0  1.75 -1 0  1.8 -1 0  1.85 -1 0  1.9 -1 0  1.95 -1 0  2 -1 0  2.05 -1 0  2.1 -1 0  2.15 -1 0  2.2 -1 0  2.25 -1 0  2.3 -1 0  2.35 -1 0  2.4 -1 0  2.45 -1 0  2.5 -1 0  2.55 -1 0  2.6 -1 0  2.65 -1 0  2.7 -1 0  2.75 -1 0  2.8 -1 0  2.85 -1 0  2.9 -1 0  2.95 -1 0  3 -1 0  3.050000000000001 -1 0  3.1 -1 0  3.15 -1 0  3.199999999999999 -1 0  3.25 -1 0  3.300000000000001 -1 0  3.35 -1 0  3.4 -1 0  3.449999999999999 -1 0  3.5 -1 0  3.550000000000001 -1 0  3.6 -1 0  3.65 -1 0  3.699999999999999 -1 0  3.75 -1 0  3.800000000000001 -1 0  3.85 -1 0  3.9 -1 0  3.949999999999999 -1 0  4 -1 0  4.050000000000001 -1 0  4.1 -1 0  4.15 -1 0  4.199999999999999 -1 0  4.25 -1 0  4.300000000000001 -1 0  4.35 -1 0  4.4 -1 0  4.449999999999999 -1 0  4.5 -1 0  4.550000000000001 -1 0  4.6 -1 0  4.65 -1 0  4.699999999999999 -1 0  4.75 -1 0  4.800000000000001 -1 0  4.85 -1 0  4.9 -1 0  4.949999999999999 -1 0  5 -1 0  -5 -0.95 0  -4.95 -0.95 0  -4.9 -0.95 0  -4.85 -0.95 0  -4.8 -0.95 0  -4.75 -0.95 0  -4.7 -0.95 0  -4.65 -0.95 0  -4.6 -0.95 0  -4.55 -0.95 0  -4.5 -0.95 0  -4.45 -0.95 0  -4.4 -0.95 0  -4.35 -0.95 0  -4.3 -0.95 0  -4.25 -0.95 0  -4.2 -0.95 0  -4.15 -0.95 0  -4.1 -0.95 0  -4.05 -0.95 0  -4 -0.95 0  -3.95 -0.95 0  -3.9 -0.95 0  -3.85 -0.95 0  -3.8 -0.95 0  -3.75 -0.95 0  -3.7 -0.95 0  -3.65 -0.95 0  -3.6 -0.95 0  -3.55 -0.95 0  -3.5 -0.95 0  -3.45 -0.95 0  -3.4 -0.95 0  -3.35 -0.95 0  -3.3 -0.95 0  -3.25 -0.95 0  -3.2 -0.95 0  -3.15 -0.95 0  -3.1 -0.95 0  -3.05 -0.95 0  -3 -0.95 0  -2.95 -0.95 0  -2.9 -0.95 0  -2.85 -0.95 0  -2.8 -0.95 0  -2.75 -0.95 0  -2.7 -0.95 0  -2.65 -0.95 0  -2.6 -0.95 0  -2.55 -0.95 0  -2.5 -0.95 0  -2.45 -0.95 0  -2.4 -0.95 0  -2.35 -0.95 0  -2.3 -0.95 0  -2.25 -0.95 0  -2.2 -0.95 0  -2.15 -0.95 0  -2.1 -0.95 0  -2.05 -0.95 0  -2 -0.95 0  -1.95 -0.95 0  -1.9 -0.95 0  -1.85 -0.95 0  -1.8 -0.95 0  -1.75 -0.95 0  -1.7 -0.95 0  -1.65 -0.95 0  -1.6 -0.95 0  -1.55 -0.95 0  -1.5 -0.95 0  -1.45 -0.95 0  -1.4 -0.95 0  -1.35 -0.95 0  -1.3 -0.95 0  -1.25 -0.95 0  -1.2 -0.95 0  -1.15 -0.95 0  -1.1 -0.95 0  -1.05 -0.95 0  -1 -0.95 0  -0.9500000000000002 -0.95 0  -0.9000000000000004 -0.95 0  -0.8499999999999996 -0.95 0  -0.7999999999999998 -0.95 0  -0.75 -0.95 0  -0.7000000000000002 -0.95 0  -0.6500000000000004 -0.95 0  -0.5999999999999996 -0.95 0  -0.5499999999999998 -0.95 0  -0.5 -0.95 0  -0.4500000000000002 -0.95 0  -0.4000000000000004 -0.95 0  -0.3499999999999996 -0.95 0  -0.2999999999999998 -0.95 0  -0.25 -0.95 0  -0.2000000000000002 -0.95 0  -0.1500000000000004 -0.95 0  -0.09999999999999964 -0.95 0  -0.04999999999999982 -0.95 0  0 -0.95 0  0.04999999999999982 -0.95 0  0.09999999999999964 -0.95 0  0.1500000000000004 -0.95 0  0.2000000000000002 -0.95 0  0.25 -0.95 0  0.2999999999999998 -0.95 0  0.3499999999999996 -0.95 0  0.4000000000000004 -0.95 0  0.4500000000000002 -0.95 0  0.5 -0.95 0  0.5499999999999998 -0.95 0  0.5999999999999996 -0.95 0  0.6500000000000004 -0.95 0  0.7000000000000002 -0.95 0  0.75 -0.95 0  0.7999999999999998 -0.95 0  0.8499999999999996 -0.95 0  0.9000000000000004 -0.95 0  0.9500000000000002 -0.95 0  1 -0.95 0  1.05 -0.95 0  1.1 -0.95 0  1.15 -0.95 0  1.2 -0.95 0  1.25 -0.95 0  1.3 -0.95 0  1.35 -0.95 0  1.4 -0.95 0  1.45 -0.95 0  1.5 -0.95 0  1.55 -0.95 0  1.6 -0.95 0  1.65 -0.95 0  1.7 -0.95 0  1.75 -0.95 0  1.8 -0.95 0  1.85 -0.95 0  1.9 -0.95 0  1.95 -0.95 0  2 -0.95 0  2.05 -0.95 0  2.1 -0.95 0  2.15 -0.95 0  2.2 -0.95 0  2.25 -0.95 0  2.3 -0.95 0  2.35 -0.95 0  2.4 -0.95 0  2.45 -0.95 0  2.5 -0.95 0  2.55 -0.95 0  2.6 -0.95 0  2.65 -0.95 0  2.7 -0.95 0  2.75 -0.95 0  2.8 -0.95 0  2.85 -0.95 0  2.9 -0.95 0  2.95 -0.95 0  3 -0.95 0  3.050000000000001 -0.95 0  3.1 -0.95 0  3.15 -0.95 0  3.199999999999999 -0.95 0  3.25 -0.95 0  3.300000000000001 -0.95 0  3.35 -0.95 0  3.4 -0.95 0  3.449999999999999 -0.95 0  3.5 -0.95 0  3.550000000000001 -0.95 0  3.6 -0.95 0  3.65 -0.95 0  3.699999999999999 -0.95 0  3.75 -0.95 0  3.800000000000001 -0.95 0  3.85 -0.95 0  3.9 -0.95 0  3.949999999999999 -0.95 0  4 -0.95 0  4.050000000000001 -0.95 0  4.1 -0.95 0  4.15 -0.95 0  4.199999999999999 -0.95 0  4.25 -0.95 0  4.300000000000001 -0.95 0  4.35 -0.95 0  4.4 -0.95 0  4.449999999999999 -0.95 0  4.5 -0.95 0  4.550000000000001 -0.95 0  4.6 -0.95 0  4.65 -0.95 0  4.699999999999999 -0.95 0  4.75 -0.95 0  4.800000000000001 -0.95 0  4.85 -0.95 0  4.9 -0.95 0  4.949999999999999 -0.95 0  5 -0.95 0  -5 -0.9 0  -4.95 -0.9 0  -4.9 -0.9 0  -4.85 -0.9 0  -4.8 -0.9 0  -4.75 -0.9 0  -4.7 -0.9 0  -4.65 -0.9 0  -4.6 -0.9 0  -4.55 -0.9 0  -4.5 -0.9 0  -4.45 -0.9 0  -4.4 -0.9 0  -4.35 -0.9 0  -4.3 -0.9 0  -4.25 -0.9 0  -4.2 -0.9 0  -4.15 -0.9 0  -4.1 -0.9 0  -4.05 -0.9 0  -4 -0.9 0  -3.95 -0.9 0  -3.9 -0.9 0  -3.85 -0.9 0  -3.8 -0.9 0  -3.75 -0.9 0  -3.7 -0.9 0  -3.65 -0.9 0  -3.6 -0.9 0  -3.55 -0.9 0  -3.5 -0.9 0  -3.45 -0.9 0  -3.4 -0.9 0  -3.35 -0.9 0  -3.3 -0.9 0  -3.25 -0.9 0  -3.2 -0.9 0  -3.15 -0.9 0  -3.1 -0.9 0  -3.05 -0.9 0  -3 -0.9 0  -2.95 -0.9 0  -2.9 -0.9 0  -2.85 -0.9 0  -2.8 -0.9 0  -2.75 -0.9 0  -2.7 -0.9 0  -2.65 -0.9 0  -2.6 -0.9 0  -2.55 -0.9 0  -2.5 -0.9 0  -2.45 -0.9 0  -2.4 -0.9 0  -2.35 -0.9 0  -2.3 -0.9 0  -2.25 -0.9 0  -2.2 -0.9 0  -2.15 -0.9 0  -2.1 -0.9 0  -2.05 -0.9 0  -2 -0.9 0  -1.95 -0.9 0  -1.9 -0.9 0  -1.85 -0.9 0  -1.8 -0.9 0  -1.75 -0.9 0  -1.7 -0.9 0  -1.65 -0.9 0  -1.6 -0.9 0  -1.55 -0.9 0  -1.5 -0.9 0  -1.45 -0.9 0  -1.4 -0.9 0  -1.35 -0.9 0  -1.3 -0.9 0  -1.25 -0.9 0  -1.2 -0.9 0  -1.15 -0.9 0  -1.1 -0.9 0  -1.05 -0.9 0  -1 -0.9 0  -0.9500000000000002 -0.9 0  -0.9000000000000004 -0.9 0  -0.8499999999999996 -0.9 0  -0.7999999999999998 -0.9 0  -0.75 -0.9 0  -0.7000000000000002 -0.9 0  -0.6500000000000004 -0.9 0  -0.5999999999999996 -0.9 0  -0.5499999999999998 -0.9 0  -0.5 -0.9 0  -0.4500000000000002 -0.9 0  -0.4000000000000004 -0.9 0  -0.3499999999999996 -0.9 0  -0.2999999999999998 -0.9 0  -0.25 -0.9 0  -0.2000000000000002 -0.9 0  -0.1500000000000004 -0.9 0  -0.09999999999999964 -0.9 0  -0.04999999999999982 -0.9 0  0 -0.9 0  0.04999999999999982 -0.9 0  0.09999999999999964 -0.9 0  0.1500000000000004 -0.9 0  0.2000000000000002 -0.9 0  0.25 -0.9 0  0.2999999999999998 -0.9 0  0.3499999999999996 -0.9 0  0.4000000000000004 -0.9 0  0.4500000000000002 -0.9 0  0.5 -0.9 0  0.5499999999999998 -0.9 0  0.5999999999999996 -0.9 0  0.6500000000000004 -0.9 0  0.7000000000000002 -0.9 0  0.75 -0.9 0  0.7999999999999998 -0.9 0  0.8499999999999996 -0.9 0  0.9000000000000004 -0.9 0  0.9500000000000002 -0.9 0  1 -0.9 0  1.05 -0.9 0  1.1 -0.9 0  1.15 -0.9 0  1.2 -0.9 0  1.25 -0.9 0  1.3 -0.9 0  1.35 -0.9 0  1.4 -0.9 0  1.45 -0.9 0  1.5 -0.9 0  1.55 -0.9 0  1.6 -0.9 0  1.65 -0.9 0  1.7 -0.9 0  1.75 -0.9 0  1.8 -0.9 0  1.85 -0.9 0  1.9 -0.9 0  1.95 -0.9 0  2 -0.9 0  2.05 -0.9 0  2.1 -0.9 0  2.15 -0.9 0  2.2 -0.9 0  2.25 -0.9 0  2.3 -0.9 0  2.35 -0.9 0  2.4 -0.9 0  2.45 -0.9 0  2.5 -0.9 0  2.55 -0.9 0  2.6 -0.9 0  2.65 -0.9 0  2.7 -0.9 0  2.75 -0.9 0  2.8 -0.9 0  2.85 -0.9 0  2.9 -0.9 0  2.95 -0.9 0  3 -0.9 0  3.050000000000001 -0.9 0  3.1 -0.9 0  3.15 -0.9 0  3.199999999999999 -0.9 0  3.25 -0.9 0  3.300000000000001 -0.9 0  3.35 -0.9 0  3.4 -0.9 0  3.449999999999999 -0.9 0  3.5 -0.9 0  3.550000000000001 -0.9 0  3.6 -0.9 0  3.65 -0.9 0  3.699999999999999 -0.9 0  3.75 -0.9 0  3.800000000000001 -0.9 0  3.85 -0.9 0  3.9 -0.9 0  3.949999999999999 -0.9 0  4 -0.9 0  4.050000000000001 -0.9 0  4.1 -0.9 0  4.15 -0.9 0  4.199999999999999 -0.9 0  4.25 -0.9 0  4.300000000000001 -0.9 0  4.35 -0.9 0  4.4 -0.9 0  4.449999999999999 -0.9 0  4.5 -0.9 0  4.550000000000001 -0.9 0  4.6 -0.9 0  4.65 -0.9 0  4.699999999999999 -0.9 0  4.75 -0.9 0  4.800000000000001 -0.9 0  4.85 -0.9 0  4.9 -0.9 0  4.949999999999999 -0.9 0  5 -0.9 0  -5 -0.85 0  -4.95 -0.85 0  -4.9 -0.85 0  -4.85 -0.85 0  -4.8 -0.85 0  -4.75 -0.85 0  -4.7 -0.85 0  -4.65 -0.85 0  -4.6 -0.85 0  -4.55 -0.85 0  -4.5 -0.85 0  -
[...]
<PointData  Vectors="f_15"> 
<DataArray  type="Float64"  Name="f_15"  NumberOfComponents="3" format="ascii">9.1161041310006556e+00 0.0000000000000000e+00 0.0000000000000000e+00  9.1136907444418895e+00 7.0965050660466572e-02 0.0000000000000000e+00  9.1106115158291558e+00 1.4287342038724599e-01 0.0000000000000000e+00  9.1023469231292609e+00 2.1246491608058624e-01 0.0000000000000000e+00  9.0938454945331575e+00 2.8335093180226811e-01 0.0000000000000000e+00  9.0800903945477156e+00 3.5299128897818960e-01 0.0000000000000000e+00  9.0659029090822720e+00 4.2275323450579017e-01 0.0000000000000000e+00  9.0469752930649161e+00 4.9178697873609856e-01 0.0000000000000000e+00  9.0274724436572846e+00 5.6073596267861137e-01 0.0000000000000000e+00  9.0032186589059684e+00 6.2861907024370622e-01 0.0000000000000000e+00  8.9788924479079277e+00 6.9674481670939736e-01 0.0000000000000000e+00  8.9496919402542527e+00 7.6333419665354707e-01 0.0000000000000000e+00  8.9205822682808087e+00 8.3054865078047113e-01 0.0000000000000000e+00  8.8869385009702739e+00 8.9568065655067564e-01 0.0000000000000000e+00  8.8535974819104126e+00 9.6224561924781604e-01 0.0000000000000000e+00  8.8155470625381227e+00 1.0255757387838615e+00 0.0000000000000000e+00  8.7786558028827280e+00 1.0918758885503372e+00 0.0000000000000000e+00  8.7367019681898253e+00 1.1533328288396889e+00 0.0000000000000000e+00  8.6964641437474377e+00 1.2195177655422276e+00 0.0000000000000000e+00  8.6512326094623546e+00 1.2791735147059478e+00 0.0000000000000000e+00  8.6082508887610381e+00 1.3457117608134965e+00 0.0000000000000000e+00  8.5598979581216277e+00 1.4031473590040269e+00 0.0000000000000000e+00  8.5148575083166236e+00 1.4709480082664061e+00 0.0000000000000000e+00  8.4639060844195537e+00 1.5258284477281387e+00 0.0000000000000000e+00  8.4169755947222669e+00 1.5951152918452634e+00 0.0000000000000000e+00  8.3640849062939608e+00 1.6483051561946644e+00 0.0000000000000000e+00  8.3156434798302605e+00 1.7178238956889369e+00 0.0000000000000000e+00  8.2610791852896419e+00 1.7715903567363986e+00 0.0000000000000000e+00  8.2115353203159369e+00 1.8392259447969705e+00 0.0000000000000000e+00  8.1557761030090532e+00 1.8951330247388236e+00 0.0000000000000000e+00  8.1051819018323403e+00 1.9620061749153623e+00 0.0000000000000000e+00  8.0486689321546603e+00 2.0156914663734762e+00 0.0000000000000000e+00  7.9973363844768564e+00 2.0891456823204280e+00 0.0000000000000000e+00  7.9401312889617355e+00 2.1342837153275998e+00 0.0000000000000000e+00  7.8883468000079269e+00 2.2146166843901476e+00 0.0000000000000000e+00  7.8307973624243825e+00 2.2612378568192679e+00 0.0000000000000000e+00  7.7784222975538801e+00 2.3295381771323633e+00 0.0000000000000000e+00  7.7209278745694325e+00 2.3981461182316268e+00 0.0000000000000000e+00  7.6680839225282327e+00 2.4428422017778200e+00 0.0000000000000000e+00  7.6105174773705135e+00 2.5295113195069963e+00 0.0000000000000000e+00  7.5577034157159941e+00 2.5682345472792774e+00 0.0000000000000000e+00  7.4998172938456422e+00 2.6511943517100964e+00 0.0000000000000000e+00  7.4472819894459361e+00 2.6996318933816710e+00 0.0000000000000000e+00  7.3892749366052604e+00 2.7735020286385335e+00 0.0000000000000000e+00  7.3366769582855520e+00 2.8296755541599228e+00 0.0000000000000000e+00  7.2791688244956614e+00 2.8986729310409181e+00 0.0000000000000000e+00  7.2260869496584643e+00 2.9583833292006427e+00 0.0000000000000000e+00  7.1692931231013812e+00 3.0268823494951094e+00 0.0000000000000000e+00  7.1159666787955809e+00 3.0862191144926605e+00 0.0000000000000000e+00  7.0595493195952566e+00 3.1552812387982785e+00 0.0000000000000000e+00  7.0062846558870087e+00 3.2164795566973319e+00 0.0000000000000000e+00  6.9502823247389633e+00 3.2835347589119457e+00 0.0000000000000000e+00  6.8969099796337501e+00 3.3463293532659364e+00 0.0000000000000000e+00  6.8414813627303355e+00 3.4136761202779695e+00 0.0000000000000000e+00  6.7880803539896712e+00 3.4766331054290989e+00 0.0000000000000000e+00  6.7331630394711990e+00 3.5438211585719879e+00 0.0000000000000000e+00  6.6796279445233955e+00 3.6077218388547863e+00 0.0000000000000000e+00  6.6254841802189297e+00 3.6743773870352818e+00 0.0000000000000000e+00  6.5718657286239699e+00 3.7394778886833242e+00 0.0000000000000000e+00  6.5179845309198976e+00 3.8056963214263537e+00 0.0000000000000000e+00  6.4649144103789231e+00 3.8708535015868311e+00 0.0000000000000000e+00  6.4112668682671714e+00 3.9376267991155807e+00 0.0000000000000000e+00  6.3580661993302678e+00 4.0035267929577083e+00 0.0000000000000000e+00  6.3054024538269831e+00 4.0691935923648774e+00 0.0000000000000000e+00  6.2521876659364590e+00 4.1360953765184272e+00 0.0000000000000000e+00  6.1994362872221105e+00 4.2021778961879628e+00 0.0000000000000000e+00  6.1473693991967817e+00 4.2683945918321333e+00 0.0000000000000000e+00  6.0944225282430136e+00 4.3351948366938231e+00 0.0000000000000000e+00  6.0424649689095213e+00 4.4018008136023177e+00 0.0000000000000000e+00  5.9904549288636444e+00 4.4678862390657406e+00 0.0000000000000000e+00  5.9386565571585566e+00 4.5350866005534991e+00 0.0000000000000000e+00  5.8863034210389493e+00 4.6019768916923240e+00 0.0000000000000000e+00  5.8360245339298009e+00 4.6677874629257188e+00 0.0000000000000000e+00  5.7831703974185587e+00 4.7360198636815491e+00 0.0000000000000000e+00  5.7333550599025731e+00 4.8017176266762114e+00 0.0000000000000000e+00  5.6811912724606497e+00 4.8694584395791027e+00 0.0000000000000000e+00  5.6316673433675124e+00 4.9355584768690397e+00 0.0000000000000000e+00  5.5793846482333569e+00 5.0041104316906191e+00 0.0000000000000000e+00  5.5310530318953859e+00 5.0688789847694524e+00 0.0000000000000000e+00  5.4785837120224583e+00 5.1385163151598192e+00 0.0000000000000000e+00  5.4306878141403221e+00 5.2031327061000257e+00 0.0000000000000000e+00  5.3789963855954293e+00 5.2726020178359283e+00 0.0000000000000000e+00  5.3309353845038103e+00 5.3376863878276684e+00 0.0000000000000000e+00  5.2801275462037438e+00 5.4067437720031650e+00 0.0000000000000000e+00  5.2320090587019719e+00 5.4726387020715164e+00 0.0000000000000000e+00  5.1821502843006115e+00 5.5409661855524366e+00 0.0000000000000000e+00  5.1337276156102414e+00 5.6074829647384590e+00 0.0000000000000000e+00  5.0854268372234674e+00 5.6750299011329322e+00 0.0000000000000000e+00  5.0360638427537747e+00 5.7430034669803396e+00 0.0000000000000000e+00  4.9898286659199753e+00 5.8082414176527708e+00 0.0000000000000000e+00  4.9390293618501797e+00 5.8789908724371118e+00 0.0000000000000000e+00  4.8948860584648903e+00 5.9423638961833856e+00 0.0000000000000000e+00  4.8427384016608093e+00 6.0147600196830373e+00 0.0000000000000000e+00  4.8017949292556645e+00 6.0748811621242904e+00 0.0000000000000000e+00  4.7466260813714465e+00 6.1522403929052745e+00 0.0000000000000000e+00  4.7090914200895106e+00 6.2079423292358245e+00 0.0000000000000000e+00  4.6519107897127290e+00 6.2888051256478379e+00 0.0000000000000000e+00  4.6141211710026884e+00 6.3455631331213826e+00 0.0000000000000000e+00  4.5629491316297264e+00 6.4187589907855829e+00 0.0000000000000000e+00  4.5217338637390760e+00 6.4805246253658799e+00 0.0000000000000000e+00  4.4719864228632513e+00 6.5529393007294132e+00 0.0000000000000000e+00  4.4359051191679368e+00 6.6078653327618628e+00 0.0000000000000000e+00  4.3778665446647143e+00 6.6923037549449678e+00 0.0000000000000000e+00  4.3403750493245301e+00 6.7503183316616102e+00 0.0000000000000000e+00  4.2905847808775794e+00 6.8242186180261823e+00 0.0000000000000000e+00  4.2505528477118482e+00 6.8858195562065312e+00 0.0000000000000000e+00  4.2017686556415272e+00 6.9584747574926844e+00 0.0000000000000000e+00  4.1614395434828273e+00 7.0219145776912235e+00 0.0000000000000000e+00  4.1168441500461910e+00 7.0891191435035381e+00 0.0000000000000000e+00  4.0783688490613850e+00 7.1494465049856384e+00 0.0000000000000000e+00  4.0347526027929410e+00 7.2173002312384957e+00 0.0000000000000000e+00  3.9938034990816553e+00 7.2814868755104669e+00 0.0000000000000000e+00  3.9505096796119616e+00 7.3477009250926004e+00 0.0000000000000000e+00  3.9112662776556717e+00 7.4108543988808124e+00 0.0000000000000000e+00  3.8759125648518267e+00 7.4678967845438766e+00 0.0000000000000000e+00  3.8412917786584257e+00 7.5216757307597675e+00 0.0000000000000000e+00  3.8000320975220174e+00 7.5884021825020209e+00 0.0000000000000000e+00  3.8037931856753824e+00 7.5826497085817985e+00 0.0000000000000000e+00  3.8625298363485880e+00 7.4883835319068917e+00 0.0000000000000000e+00  3.9102762779487787e+00 7.4117796704391514e+00 0.0000000000000000e+00  3.9308764628421482e+00 7.3798874878977685e+00 0.0000000000000000e+00  3.9378619096040248e+00 7.3681585086159540e+00 0.0000000000000000e+00  3.9422813727845445e+00 7.3614725397591192e+00 0.0000000000000000e+00  3.9453357623436989e+00 7.3558557246823577e+00 0.0000000000000000e+00  3.9475300264067443e+00 7.3526393836311117e+00 0.0000000000000000e+00  3.9491194428803991e+00 7.3494998726621192e+00 0.0000000000000000e+00  3.9501738903502490e+00 7.3479953986702951e+00 0.0000000000000000e+00  3.9523171907508563e+00 7.3445150838731106e+00 0.0000000000000000e+00  3.9537147649494626e+00 7.3426254791336758e+00 0.0000000000000000e+00  3.9561780062831957e+00 7.3390957609525502e+00 0.0000000000000000e+00  3.9564970960711756e+00 7.3385188503472261e+00 0.0000000000000000e+00  3.9579854760622033e+00 7.3364161900407945e+00 0.0000000000000000e+00  3.9572455082540219e+00 7.3369993405590295e+00 0.0000000000000000e+00  3.9584963054057103e+00 7.3353277261659962e+00 0.0000000000000000e+00  3.9577368234854289e+00 7.3358604165694263e+00 0.0000000000000000e+00  3.9590881849883757e+00 7.3342043701908155e+00 0.0000000000000000e+00  3.9583936892339988e+00 7.3346720941648487e+00 0.0000000000000000e+00  3.9595331301811383e+00 7.3333201007326867e+00 0.0000000000000000e+00  3.9588682654671441e+00 7.3338000867851258e+00 0.0000000000000000e+00  3.9597301553369317e+00 7.3327332035833583e+00 0.0000000000000000e+00  3.9592275318917571e+00 7.3331285153916532e+00 0.0000000000000000e+00  3.9598435478037204e+00 7.3322391327370573e+00 0.0000000000000000e+00  3.9595450199940103e+00 7.3325787919265437e+00 0.0000000000000000e+00  3.9598952995089607e+00 7.3318058407906506e+00 0.0000000000000000e+00  3.9597905521452557e+00 7.3321799693227385e+00 0.0000000000000000e+00  3.9598701468106094e+00 7.3314239105829699e+00 0.0000000000000000e+00  3.9599717663634242e+00 7.3319233800693882e+00 0.0000000000000000e+00  3.9597873845732172e+00 7.3310405718795701e+00 0.0000000000000000e+00  3.9601276343458989e+00 7.3317884727524198e+00 0.0000000000000000e+00  3.9596488825688119e+00 7.3306156678880612e+00 0.0000000000000000e+00  3.9602897117666189e+00 7.3317796327544622e+00 0.0000000000000000e+00  3.9594345077686932e+00 7.3301123213452950e+00 0.0000000000000000e+00  3.9604887642370352e+00 7.3319174112123155e+00 0.0000000000000000e+00  3.9591199720436325e+00 7.3294736417211004e+00 0.0000000000000000e+00  3.9607651411289813e+00 7.3322306217728341e+00 0.0000000000000000e+00  3.9586676025445486e+00 7.3286148145731262e+00 0.0000000000000000e+00  3.9611755206421773e+00 7.3327655960725577e+00 0.0000000000000000e+00  3.9580182546281932e+00 7.3273980846327040e+00 0.0000000000000000e+00  3.9617941115549633e+00 7.3335808444887416e+00 0.0000000000000000e+00  3.9570987021873258e+00 7.3256290634294103e+00 0.0000000000000000e+00  3.9627065884025066e+00 7.3347214274480734e+00 0.0000000000000000e+00  3.9558145832173586e+00 7.3230448413828872e+00 0.0000000000000000e+00  3.9640344036229913e+00 7.3362592702230804e+00 0.0000000000000000e+00  3.9540101816651005e+00 7.3192409069295667e+00 0.0000000000000000e+00  3.9659686764517352e+00 7.3383581880566986e+00 0.0000000000000000e+00  3.9514800962282455e+00 7.3137201730091048e+00 0.0000000000000000e+00  3.9687045111489039e+00 7.3411762788529140e+00 0.0000000000000000e+00  3.9480544259930208e+00 7.3060850619000322e+00 0.0000000000000000e+00  3.9724306615119076e+00 7.3449279045449352e+00 0.0000000000000000e+00  3.9434467613565105e+00 7.2957825121763324e+00 0.0000000000000000e+00  3.9775960324638771e+00 7.3504114455054337e+00 0.0000000000000000e+00  3.9371057160190808e+00 7.2819314467631751e+00 0.0000000000000000e+00  3.9846418603784928e+00 7.3584448958889759e+00 0.0000000000000000e+00  3.9289273818143795e+00 7.2646574921107350e+00 0.0000000000000000e+00  3.9933614907994595e+00 7.3688095649617695e+00 0.0000000000000000e+00  3.9189904955078516e+00 7.2442731568756411e+00 0.0000000000000000e+00  4.0044070429776717e+00 7.3831706620740354e+00 0.0000000000000000e+00  3.9058467018718903e+00 7.2182019595235261e+00 0.0000000000000000e+00  4.0190357310552862e+00 7.4038916336326821e+00 0.0000000000000000e+00  3.8900534826131774e+00 7.1882585442858371e+00 0.0000000000000000e+00  4.0341143653004945e+00 7.4249399647920464e+00 0.0000000000000000e+00  3.8756933300150109e+00 7.1617379452930123e+00 0.0000000000000000e+00  4.0481409109165325e+00 7.4454331190450196e+00 0.0000000000000000e+00  3.8595950303495181e+00 7.1301306067741255e+00 0.0000000000000000e+00  4.0660839394687054e+00 7.4754483753355156e+00 0.0000000000000000e+00  3.8424653175707975e+00 7.0975880894704169e+00 0.0000000000000000e+00  4.0748248942435721e+00 7.4864780952228420e+00 0.0000000000000000e+00  3.8469690409658961e+00 7.1082656758277087e+00 0.0000000000000000e+00  4.0554060838732333e+00 7.4522389359830079e+00 0.0000000000000000e+00  3.8746101183786954e+00 7.1453736401201864e+00 0.0000000000000000e+00  4.0238779736089816e+00 7.4162162748698774e+00 0.0000000000000000e+00  3.9091235209294717e+00 7.1891463416650430e+00 0.0000000000000000e+00  3.9663430616887707e+00 7.3167926117611533e+00 0.0000000000000000e+00  4.0063985397800392e+00 7.3786772870383652e+00 0.0000000000000000e+00  3.7964252889288290e+00 6.9779555740444881e+00 0.0000000000000000e+00  4.2171652196583223e+00 7.8281144472956949e+00 0.0000000000000000e+00  3.6264913562472909e+00 6.1949310303346570e+00 0.0000000000000000e+00  3.9901627749430784e+00 8.8456517270580193e+00 0.0000000000000000e+00  5.0764553988380383e+00 3.8257260819580559e+00 0.0000000000000000e+00  8.6885122886100756e+00 8.6272646516205564e-01 0.0000000000000000e+00  8.5869973472205370e+00 0.0000000000000000e+00 0.0000000000000000e+00  9.1146004553188984e+00 0.0000000000000000e+00 2.5677738649094203e-03  9.1133424423631908e+00 6.9526399867619076e-02 -1.5781877843735325e-03  9.1088382340849421e+00 1.4072129995416302e-01 1.0312149418867027e-03  9.1020369386723363e+00 2.1015508185230344e-01 -1.3182222487039836e-03  9.0920274616389811e+00 2.8186182605282600e-01 1.4169764763015686e-03  9.0794903235791935e+00 3.5026957336222175e-01 -1.4886984834085557e-03  9.0641882792917023e+00 4.2145293445005461e-01 1.5393779580921234e-03  9.0462837002715268e+00 4.8919795336543165e-01 -1.5303169254086652e-03  9.0255143405052980e+00 5.5936901046927112e-01 1.5614639167975215e-03  9.0026702282757913e+00 6.2624970705789518e-01 -1.5538462757742398e-03  8.9768257373621942e+00 6.9539353911139212e-01 1.5803928979706838e-03  8.9490088020265066e+00 7.6117010441632338e-01 -1.5708376725406712e-03  8.9186091241364966e+00 8.2920124386201155e-01 1.5968534115386854e-03  8.8863025516398473e+00 8.9393011951102919e-01 -1.5951407037468855e-03  8.8514106061371258e+00 9.6069040432072361e-01 1.6292776652757836e-03  8.8152212834249450e+00 1.0244658642691713e+00 -1.6304315891795202e-03  8.7763883929017918e+00 1.0900809713939259e+00 1.6441584002164979e-03  8.7364466432134193e+00 1.1528345923104688e+00 -1.6205792911639439e-03  8.6943490213261612e+00 1.2175273517392187e+00 1.5940645588552265e-03  8.6512120630601270e+00 1.2795022274866583e+00 -1.5490364651594170e-03  8.6060495490258155e+00 1.3431366488398797e+00 1.4968036519736221e-03  8.5603688431903606e+00 1.4048408827045649e+00 -1.4184156970376857e-03  8.5127289983090328e+00 1.4674900263910351e+00 1.2640309013088665e-03  8.4646359895178591e+00 1.5289297247099474e+00 -1.0010667148190335e-03  8.4152397856682946e+00 1.5911737930375496e+00 5.6159889636629115e-04  8.3651235354531863e+00 1.6522199332158500e+00 -4.2426028981390972e-06  8.3142283979256906e+00 1.7143372153350851e+00 -6.3521412972078375e-04  8.2626071216970463e+00 1.7753864189120740e+00 1.1261546888647054e-03  8.2105665792699867e+00 1.8369714035440874e+00 -1.3295772665151771e-03  8.1577290852914910e+00 1.8992378627167028e+00 1.0313114860612989e-03  8.1047435887372590e+00 1.9588491735224032e+00 -3.3511434353321090e-04  8.0512842069018120e+00 2.0240399918448300e+00 -5.8687488847788147e-04  7.9972251438376354e+00 2.0814920336670100e+00 1.3083047110583454e-03  7.9435619393974921e+00 2.1470596167467657e+00 -1.7257458391477156e-03  7.8887127431420971e+00 2.2086865064120600e+00 1.9648777698929561e-03  7.8348569875809977e+00 2.2662696955851560e+00 -2.6906008364711875e-03  7.7793071511548311e+00 2.3390786561285850e+00 4.3849969204613551e-03  7.7258668326275055e+00 2.3870820075777770e+00 -7.1668201729191442e-03  7.6690523105436004e+00 2.4660217056782128e+00 1.0194462875060409e-02  7.6165935517312118e+00 2.5137432251884517e+00 -1.2239580240813001e-02  7.5587887758074785e+00 2.5900479099948361e+00 1.2253312508294964e-02  7.5065005026624911e+00 2.6422915291342779e+00 -1.0234511162459046e-02  7.4491229207095522e+00 2.7147250664705327e+00 7.1065808372513268e-03  7.3957709189244882e+00 2.7719765236547578e+00 -4.2315545383389379e-03  7.3396711644791859e+00 2.8391777755640302e+00 2.3954243595354684e-03  7.2852282348374944e+00 2.9018728638063251e+00 -1.7299061256848742e-03  7.2298941758252919e+00 2.9668820746661346e+00 1.7125317824602739e-03  7.1752946810289240e+00 3.0291648698113054e+00 -1.8784668084166815e-03  7.1199626121850068e+00 3.0961694569071052e+00 1.8507477507165295e-03  7.0656406993349750e+00 3.1586353424724116e+00 -1.6159733628326109e-03  7.0104142157895213e+00 3.2241817433713877e+00 1.3141131549410231e-03  6.9561061262484696e+00 3.2882990806838484e+00 -1.1764614969492914e-03  6.9011997974767336e+00 3.3543332131253574e+00 1.1997609942671192e-03  6.8470132839287166e+00 3.4177062735839554e+00 -1.2122437468065320e-03  6.7922941709185567e+00 3.4841782384458111e+00 1.0995371453779467e-03  6.7382405624244157e+00 3.5483410002242790e+00 -9.7344509280559630e-04  6.6839172929058126e+00 3.6144210993992254e+00 9.5303785404004539e-04  6.6300053730975375e+00 3.6791232255641124e+00 -9.6655331666666152e-04  6.5757421936627507e+00 3.7452756712577386e+00 9.2387376943766102e-04  6.5224520194314541e+00 3.8098252452042600e+00 -8.5493099242335481e-04  6.4682881081588253e+00 3.8767550429567521e+00 8.4311113395608094e-04  6.4149906742937484e+00 3.9415245530566088e+00 -8.2616856887117310e-04  6.3616646713354816e+00 4.0076707014357469e+00 7.8026916008048749e-04  6.3084014020040904e+00 4.0733976867026129e+00 -7.4357287012287443e-04  6.2550329677407790e+00 4.1400337015751978e+00 7.6024221328579815e-04  6.2027879497082576e+00 4.2049224790681166e+00 -7.5172842735007537e-04  6.1493970784053138e+00 4.2722676806843003e+00 7.1855546447309243e-04  6.0970738502674333e+00 4.3377171604246030e+00 -6.7481647532441000e-04  6.0448764917301991e+00 4.4041807774891959e+00 6.4631928160500864e-04  5.9924173613651561e+00 4.4705474411935295e+00 -5.9556341384723894e-04  5.9402534413340389e+00 4.5373610717737165e+00 5.6949793567418893e-04  5.8889388715608506e+00 4.6028893163570235e+00 -5.5020961094325060e-04  5.8367183275785575e+00 4.6705243575579072e+00 5.5464657790075384e-04  5.7854200698895992e+00 4.7365265170923783e+00 -5.3950012667563704e-04  5.7343808577500237e+00 4.8031882703639450e+00 5.3514034060585009e-04  5.6829622728405740e+00 4.8701813275071331e+00 -4.8272139715089304e-04  5.6321209358381150e+00 4.9371415374500991e+00 4.8125734475892948e-04  5.5816928148672291e+00 5.0032463047081475e+00 -4.8742748809042584e-04  5.5308013419273250e+00 5.0711415279375043e+00 5.3760611789145608e-04  5.4807240621941364e+00 5.1374136134412263e+00 -5.0274126580411918e-04  5.4305615175158684e+00 5.2049305286059688e+00 5.0835665470054081e-04  5.3806674942840758e+00 5.2715249997023674e+00 -4.8729725057317216e-04  5.3307671354489319e+00 5.339363255114945