<?xml version="1.0"?>
<VTKFile type="UnstructuredGrid"  version="0.1"  >
<UnstructuredGrid>
<Piece  NumberOfPoints="8241" NumberOfCells="16000">
<Points>
<DataArray  type="Float64"  NumberOfComponents="3"  format="ascii">-5 -1 0  -4.95 -1 0  -4.9 -1 0  -4.85 -1 0  -4.8 -1 0  -4.75 -1 0  -4.7 -1 0  -4.65 -1 0  -4.6 -1 0  -4.55 -1 0  -4.5 -1 0  -4.45 -1 0  -4.4 -1 0  -4.35 -1 0  -4.3 -1 0  -4.25 -1 0  -4.2 -1 0  -4.15 -1 0  -4.1 -1 0  -4.05 -1 0  -4 -1 0  -3.95 -1 0  -3.9 -1 0  -3.85 -1 0  -3.8 -1 0  -3.75 -1 0  -3.7 -1 0  -3.65 -1 0  -3.6 -1 0  -3.55 -1 0  -3.5 -1 0  -3.45 -1 0  -3.4 -1 0  -3.35 -1 0  -3.3 -1 0  -3.25 -1 0  -3.2 -1 0  -3.15 -1 0  -3.1 -1 0  -3.05 -1 0  -3 -1 0  -2.95 -1 0  -2.9 -1 0  -2.85 -1 0  -2.8 -1 0  -2.75 -1 0  -2.7 -1 0  -2.65 -1 0  -2.6 -1 0  -2.55 -1 0  -2.5 -1 0  -2.45 -1 0  -2.4 -1 0  -2.35 -1 0  -2.3 -1 0  -2.25 -1 0  -2.2 -1 0  -2.15 -1 0  -2.1 -1 0  -2.05 -1 0  -2 -1 0  -1.95 -1 0  -1.9 -1 0  -1.85 -1 0  -1.8 -1 0  -1.75 -1 0  -1.7 -1 0  -1.65 -1 0  -1.6 -1 0  -1.55 -1 0  -1.5 -1 0  -1.45 -1 0  -1.4 -1 0  -1.35 -1 0  -1.3 -1 0  -1.25 -1 0  -1.2 -1 0  -1.15 -1 0  -1.1 -1 0  -1.05 -1 0  -1 -1 0  -0.9500000000000002 -1 0  -0.9000000000000004 -1 0  -0.8499999999999996 -1 0  -0.7999999999999998 -1 0  -0.75 -1 0  -0.7000000000000002 -1 0  -0.6500000000000004 -1 0  -0.5999999999999996 -1 0  -0.5499999999999998 -1 0  -0.5 -1 0  -0.4500000000000002 -1 0  -0.4000000000000004 -1 0  -0.3499999999999996 -1 0  -0.2999999999999998 -1 0  -0.25 -1 0  -0.2000000000000002 -1 0  -0.1500000000000004 -1 0  -0.09999999999999964 -1 0  -0.04999999999999982 -1 0  0 -1 0  0.04999999999999982 -1 0  0.09999999999999964 -1 0  0.1500000000000004 -1 0  0.2000000000000002 -1 0  0.25 -1 0  0.2999999999999998 -1 0  0.3499999999999996 -1 0  0.4000000000000004 -1 0  0.4500000000000002 -1 0  0.5 -1 0  0.5499999999999998 -1 0  0.5999999999999996 -1 0  0.6500000000000004 -1 0  0.7000000000000002 -1 0  0.75 -1 0  0.7999999999999998 -1 0  0.8499999999999996 -1 0  0.9000000000000004 -1 0  0.9500000000000002 -1 0  1 -1 0  1.05 -1 0  1.1 -1 0  1.15 -1 0  1.2 -1 0  1.25 -1 0  1.3 -1 0  1.35 -1 0  1.4 -1 0  1.45 -1 0  1.5 -1 0  1.55 -1 0  1.6 -1 0  1.65 -1 0  1.7 -1 0  1.75 -1 0  1.8 -1 0  1.85 -1 0  1.9 -1 0  1.95 -1 0  2 -1 0  2.05 -1 0  2.1 -1 0  2.15 -1 0  2.2 -1 0  2.25 -1 0  2.3 -1 0  2.35 -1 0  2.4 -1 0  2.45 -1 0  2.5 -1 0  2.55 -1 0  2.6 -1 0  2.65 -1 0  2.7 -1 0  2.75 -1 0  2.8 -1 0  2.85 -1 0  2.9 -1 0  2.95 -1 0  3 -1 0  3.050000000000001 -1 0  3.1 -1 0  3.15 -1 0  3.199999999999999 -1 0  3.25 -1 0  3.300000000000001 -1 0  3.35 -1 0  3.4 -1 0  3.449999999999999 -1 0  3.5 -1 0  3.550000000000001 -1 0  3.6 -1 0  3.65 -1 0  3.699999999999999 -1 0  3.75 -1 0  3.800000000000001 -1 0  3.85 -1 0  3.9 -1 0  3.949999999999999 -1 0  4 -1 0  4.050000000000001 -1 0  4.1 -1 0  4.15 -1 0  4.199999999999999 -1 0  4.25 -1 0  4.300000000000001 -1 0  4.35 -1 0  4.4 -1 0  4.449999999999999 -1 0  4.5 -1 0  4.550000000000001 -1 0  4.6 -1 0  4.65 -1 0  4.699999999999999 -1 0  4.75 -1 0  4.800000000000001 -1 0  4.85 -1 0  4.9 -1 0  4.949999999999999 -1 0  5 -1 0  -5 -0.95 0  -4.95 -0.95 0  -4.9 -0.95 0  -4.85 -0.95 0  -4.8 -0.95 0  -4.75 -0.95 0  -4.7 -0.95 0  -4.65 -0.95 0  -4.6 -0.95 0  -4.55 -0.95 0  -4.5 -0.95 0  -4.45 -0.95 0  -4.4 -0.95 0  -4.35 -0.95 0  -4.3 -0.95 0  -4.25 -0.95 0  -4.2 -0.95 0  -4.15 -0.95 0  -4.1 -0.95 0  -4.05 -0.95 0  -4 -0.95 0  -3.95 -0.95 0  -3.9 -0.95 0  -3.85 -0.95 0  -3.8 -0.95 0  -3.75 -0.95 0  -3.7 -0.95 0  -3.65 -0.95 0  -3.6 -0.95 0  -3.55 -0.95 0  -3.5 -0.95 0  -3.45 -0.95 0  -3.4 -0.95 0  -3.35 -0.95 0  -3.3 -0.95 0  -3.25 -0.95 0  -3.2 -0.95 0  -3.15 -0.95 0  -3.1 -0.95 0  -3.05 -0.95 0  -3 -0.95 0  -2.95 -0.95 0  -2.9 -0.95 0  -2.85 -0.95 0  -2.8 -0.95 0  -2.75 -0.95 0  -2.7 -0.95 0  -2.65 -0.95 0  -2.6 -0.95 0  -2.55 -0.95 0  -2.5 -0.95 0  -2.45 -0.95 0  -2.4 -0.95 0  -2.35 -0.95 0  -2.3 -0.95 0  -2.25 -0.95 0  -2.2 -0.95 0  -2.15 -0.95 0  -2.1 -0.95 0  -2.05 -0.95 0  -2 -0.95 0  -1.95 -0.95 0  -1.9 -0.95 0  -1.85 -0.95 0  -1.8 -0.95 0  -1.75 -0.95 0  -1.7 -0.95 0  -1.65 -0.95 0  -1.6 -0.95 0  -1.55 -0.95 0  -1.5 -0.95 0  -1.45 -0.95 0  -1.4 -0.95 0  -1.35 -0.95 0  -1.3 -0.95 0  -1.25 -0.95 0  -1.2 -0.95 0  -1.15 -0.95 0  -1.1 -0.95 0  -1.05 -0.95 0  -1 -0.95 0  -0.9500000000000002 -0.95 0  -0.9000000000000004 -0.95 0  -0.8499999999999996 -0.95 0  -0.7999999999999998 -0.95 0  -0.75 -0.95 0  -0.7000000000000002 -0.95 0  -0.6500000000000004 -0.95 0  -0.5999999999999996 -0.95 0  -0.5499999999999998 -0.95 0  -0.5 -0.95 0  -0.4500000000000002 -0.95 0  -0.4000000000000004 -0.95 0  -0.3499999999999996 -0.95 0  -0.2999999999999998 -0.95 0  -0.25 -0.95 0  -0.2000000000000002 -0.95 0  -0.1500000000000004 -0.95 0  -0.09999999999999964 -0.95 0  -0.04999999999999982 -0.95 0  0 -0.95 0  0.04999999999999982 -0.95 0  0.09999999999999964 -0.95 0  0.1500000000000004 -0.95 0  0.2000000000000002 -0.95 0  0.25 -0.95 0  0.2999999999999998 -0.95 0  0.3499999999999996 -0.95 0  0.4000000000000004 -0.95 0  0.4500000000000002 -0.95 0  0.5 -0.95 0  0.5499999999999998 -0.95 0  0.5999999999999996 -0.95 0  0.6500000000000004 -0.95 0  0.7000000000000002 -0.95 0  0.75 -0.95 0  0.7999999999999998 -0.95 0  0.8499999999999996 -0.95 0  0.9000000000000004 -0.95 0  0.9500000000000002 -0.95 0  1 -0.95 0  1.05 -0.95 0  1.1 -0.95 0  1.15 -0.95 0  1.2 -0.95 0  1.25 -0.95 0  1.3 -0.95 0  1.35 -0.95 0  1.4 -0.95 0  1.45 -0.95 0  1.5 -0.95 0  1.55 -0.95 0  1.6 -0.95 0  1.65 -0.95 0  1.7 -0.95 0  1.75 -0.95 0  1.8 -0.95 0  1.85 -0.95 0  1.9 -0.95 0  1.95 -0.95 0  2 -0.95 0  2.05 -0.95 0  2.1 -0.95 0  2.15 -0.95 0  2.2 -0.95 0  2.25 -0.95 0  2.3 -0.95 0  2.35 -0.95 0  2.4 -0.95 0  2.45 -0.95 0  2.5 -0.95 0  2.55 -0.95 0  2.6 -0.95 0  2.65 -0.95 0  2.7 -0.95 0  2.75 -0.95 0  2.8 -0.95 0  2.85 -0.95 0  2.9 -0.95 0  2.95 -0.95 0  3 -0.95 0  3.050000000000001 -0.95 0  3.1 -0.95 0  3.15 -0.95 0  3.199999999999999 -0.95 0  3.25 -0.95 0  3.300000000000001 -0.95 0  3.35 -0.95 0  3.4 -0.95 0  3.449999999999999 -0.95 0  3.5 -0.95 0  3.550000000000001 -0.95 0  3.6 -0.95 0  3.65 -0.95 0  3.699999999999999 -0.95 0  3.75 -0.95 0  3.800000000000001 -0.95 0  3.85 -0.95 0  3.9 -0.95 0  3.949999999999999 -0.95 0  4 -0.95 0  4.050000000000001 -0.95 0  4.1 -0.95 0  4.15 -0.95 0  4.199999999999999 -0.95 0  4.25 -0.95 0  4.300000000000001 -0.95 0  4.35 -0.95 0  4.4 -0.95 0  4.449999999999999 -0.95 0  4.5 -0.95 0  4.550000000000001 -0.95 0  4.6 -0.95 0  4.65 -0.95 0  4.699999999999999 -0.95 0  4.75 -0.95 0  4.800000000000001 -0.95 0  4.85 -0.95 0  4.9 -0.95 0  4.949999999999999 -0.95 0  5 -0.95 0  -5 -0.9 0  -4.95 -0.9 0  -4.9 -0.9 0  -4.85 -0.9 0  -4.8 -0.9 0  -4.75 -0.9 0  -4.7 -0.9 0  -4.65 -0.9 0  -4.6 -0.9 0  -4.55 -0.9 0  -4.5 -0.9 0  -4.45 -0.9 0  -4.4 -0.9 0  -4.35 -0.9 0  -4.3 -0.9 0  -4.25 -0.9 0  -4.2 -0.9 0  -4.15 -0.9 0  -4.1 -0.9 0  -4.05 -0.9 0  -4 -0.9 0  -3.95 -0.9 0  -3.9 -0.9 0  -3.85 -0.9 0  -3.8 -0.9 0  -3.75 -0.9 0  -3.7 -0.9 0  -3.65 -0.9 0  -3.6 -0.9 0  -3.55 -0.9 0  -3.5 -0.9 0  -3.45 -0.9 0  -3.4 -0.9 0  -3.35 -0.9 0  -3.3 -0.9 0  -3.25 -0.9 0  -3.2 -0.9 0  -3.15 -0.9 0  -3.1 -0.9 0  -3.05 -0.9 0  -3 -0.9 0  -2.95 -0.9 0  -2.9 -0.9 0  -2.85 -0.9 0  -2.8 -0.9 0  -2.75 -0.9 0  -2.7 -0.9 0  -2.65 -0.9 0  -2.6 -0.9 0  -2.55 -0.9 0  -2.5 -0.9 0  -2.45 -0.9 0  -2.4 -0.9 0  -2.35 -0.9 0  -2.3 -0.9 0  -2.25 -0.9 0  -2.2 -0.9 0  -2.15 -0.9 0  -2.1 -0.9 0  -2.05 -0.9 0  -2 -0.9 0  -1.95 -0.9 0  -1.9 -0.9 0  -1.85 -0.9 0  -1.8 -0.9 0  -1.75 -0.9 0  -1.7 -0.9 0  -1.65 -0.9 0  -1.6 -0.9 0  -1.55 -0.9 0  -1.5 -0.9 0  -1.45 -0.9 0  -1.4 -0.9 0  -1.35 -0.9 0  -1.3 -0.9 0  -1.25 -0.9 0  -1.2 -0.9 0  -1.15 -0.9 0  -1.1 -0.9 0  -1.05 -0.9 0  -1 -0.9 0  -0.9500000000000002 -0.9 0  -0.9000000000000004 -0.9 0  -0.8499999999999996 -0.9 0  -0.7999999999999998 -0.9 0  -0.75 -0.9 0  -0.7000000000000002 -0.9 0  -0.6500000000000004 -0.9 0  -0.5999999999999996 -0.9 0  -0.5499999999999998 -0.9 0  -0.5 -0.9 0  -0.4500000000000002 -0.9 0  -0.4000000000000004 -0.9 0  -0.3499999999999996 -0.9 0  -0.2999999999999998 -0.9 0  -0.25 -0.9 0  -0.2000000000000002 -0.9 0  -0.1500000000000004 -0.9 0  -0.09999999999999964 -0.9 0  -0.04999999999999982 -0.9 0  0 -0.9 0  0.04999999999999982 -0.9 0  0.09999999999999964 -0.9 0  0.1500000000000004 -0.9 0  0.2000000000000002 -0.9 0  0.25 -0.9 0  0.2999999999999998 -0.9 0  0.3499999999999996 -0.9 0  0.4000000000000004 -0.9 0  0.4500000000000002 -0.9 0  0.5 -0.9 0  0.5499999999999998 -0.9 0  0.5999999999999996 -0.9 0  0.6500000000000004 -0.9 0  0.7000000000000002 -0.9 0  0.75 -0.9 0  0.7999999999999998 -0.9 0  0.8499999999999996 -0.9 0  0.9000000000000004 -0.9 0  0.9500000000000002 -0.9 0  1 -0.9 0  1.05 -0.9 0  1.1 -0.9 0  1.15 -0.9 0  1.2 -0.9 0  1.25 -0.9 0  1.3 -0.9 0  1.35 -0.9 0  1.4 -0.9 0  1.45 -0.9 0  1.5 -0.9 0  1.55 -0.9 0  1.6 -0.9 0  1.65 -0.9 0  1.7 -0.9 0  1.75 -0.9 0  1.8 -0.9 0  1.85 -0.9 0  1.9 -0.9 0  1.95 -0.9 0  2 -0.9 0  2.05 -0.9 0  2.1 -0.9 0  2.15 -0.9 0  2.2 -0.9 0  2.25 -0.9 0  2.3 -0.9 0  2.35 -0.9 0  2.4 -0.9 0  2.45 -0.9 0  2.5 -0.9 0  2.55 -0.9 0  2.6 -0.9 0  2.65 -0.9 0  2.7 -0.9 0  2.75 -0.9 0  2.8 -0.9 0  2.85 -0.9 0  2.9 -0.9 0  2.95 -0.9 0  3 -0.9 0  3.050000000000001 -0.9 0  3.1 -0.9 0  3.15 -0.9 0  3.199999999999999 -0.9 0  3.25 -0.9 0  3.300000000000001 -0.9 0  3.35 -0.9 0  3.4 -0.9 0  3.449999999999999 -0.9 0  3.5 -0.9 0  3.550000000000001 -0.9 0  3.6 -0.9 0  3.65 -0.9 0  3.699999999999999 -0.9 0  3.75 -0.9 0  3.800000000000001 -0.9 0  3.85 -0.9 0  3.9 -0.9 0  3.949999999999999 -0.9 0  4 -0.9 0  4.050000000000001 -0.9 0  4.1 -0.9 0  4.15 -0.9 0  4.199999999999999 -0.9 0  4.25 -0.9 0  4.300000000000001 -0.9 0  4.35 -0.9 0  4.4 -0.9 0  4.449999999999999 -0.9 0  4.5 -0.9 0  4.550000000000001 -0.9 0  4.6 -0.9 0  4.65 -0.9 0  4.699999999999999 -0.9 0  4.75 -0.9 0  4.800000000000001 -0.9 0  4.85 -0.9 0  4.9 -0.9 0  4.949999999999999 -0.9 0  5 -0.9 0  -5 -0.85 0  -4.95 -0.85 0  -4.9 -0.85 0  -4.85 -0.85 0  -4.8 -0.85 0  -4.75 -0.85 0  -4.7 -0.85 0  -4.65 -0.85 0  -4.6 -0.85 0  -4.55 -0.85 0  -4.5 -0.85 0  -
[...]
<PointData  Vectors="f_15"> 
<DataArray  type="Float64"  Name="f_15"  NumberOfComponents="3" format="ascii">9.9853640326252791e+00 0.0000000000000000e+00 0.0000000000000000e+00  9.9853653850954327e+00 -1.9791783106506379e-03 0.0000000000000000e+00  9.9839849003615821e+00 1.2640520900256989e-02 0.0000000000000000e+00  9.9811353082927550e+00 6.5411931505213444e-03 0.0000000000000000e+00  9.9786917131666488e+00 1.9168942930024566e-02 0.0000000000000000e+00  9.9732877371111677e+00 1.7455300273029984e-02 0.0000000000000000e+00  9.9694805957686246e+00 2.8559177951115126e-02 0.0000000000000000e+00  9.9609288071909656e+00 3.0288482339396530e-02 0.0000000000000000e+00  9.9555012644883512e+00 4.2619922904677900e-02 0.0000000000000000e+00  9.9435687664019294e+00 4.7300922903947620e-02 0.0000000000000000e+00  9.9356643734076346e+00 6.1716470320697700e-02 0.0000000000000000e+00  9.9201070029769038e+00 7.0226515662907774e-02 0.0000000000000000e+00  9.9092396588693017e+00 8.7354700148640274e-02 0.0000000000000000e+00  9.8894456544039322e+00 9.9897142178183865e-02 0.0000000000000000e+00  9.8750970381012522e+00 1.2090851855445089e-01 0.0000000000000000e+00  9.8508815398275207e+00 1.3764237586488842e-01 0.0000000000000000e+00  9.8323607372914061e+00 1.6297597062522562e-01 0.0000000000000000e+00  9.8034886754265340e+00 1.8458612586188411e-01 0.0000000000000000e+00  9.7805702710170745e+00 2.1445698937188917e-01 0.0000000000000000e+00  9.7468158921987325e+00 2.4091556382195603e-01 0.0000000000000000e+00  9.7191396937790842e+00 2.7614874257996358e-01 0.0000000000000000e+00  9.6807692381666293e+00 3.0703642918384377e-01 0.0000000000000000e+00  9.6481450067376091e+00 3.4773293230699426e-01 0.0000000000000000e+00  9.6050969565854825e+00 3.8348064601840859e-01 0.0000000000000000e+00  9.5678899384205316e+00 4.2907464903157660e-01 0.0000000000000000e+00  9.5203601339699802e+00 4.6947634496598201e-01 0.0000000000000000e+00  9.4783811272992704e+00 5.2051445935885132e-01 0.0000000000000000e+00  9.4271627930802175e+00 5.6447090422396884e-01 0.0000000000000000e+00  9.3805937261408268e+00 6.2089569898843189e-01 0.0000000000000000e+00  9.3255939535385668e+00 6.6881709803083911e-01 0.0000000000000000e+00  9.2753561954956503e+00 7.2929960708659591e-01 0.0000000000000000e+00  9.2168860242556310e+00 7.8112750172422984e-01 0.0000000000000000e+00  9.1627384987811578e+00 8.4617736096740526e-01 0.0000000000000000e+00  9.1019554609082505e+00 9.0030492134449713e-01 0.0000000000000000e+00  9.0441494816315995e+00 9.6988990951608200e-01 0.0000000000000000e+00  8.9807378043333639e+00 1.0272678041436583e+00 0.0000000000000000e+00  8.9205276503806950e+00 1.0988122457612255e+00 0.0000000000000000e+00  8.8547313454392018e+00 1.1607963181456276e+00 0.0000000000000000e+00  8.7916264420071482e+00 1.2336371431124693e+00 0.0000000000000000e+00  8.7248461868186649e+00 1.2995819929320256e+00 0.0000000000000000e+00  8.6589824134915983e+00 1.3729215647446524e+00 0.0000000000000000e+00  8.5906198651187555e+00 1.4446009711897336e+00 0.0000000000000000e+00  8.5235074431535907e+00 1.5155731352475286e+00 0.0000000000000000e+00  8.4534940520157829e+00 1.5938378125006143e+00 0.0000000000000000e+00  8.3846478841057550e+00 1.6637818774306059e+00 0.0000000000000000e+00  8.3142750984625007e+00 1.7449449383767126e+00 0.0000000000000000e+00  8.2437791303167103e+00 1.8167836211620929e+00 0.0000000000000000e+00  8.1723305675505369e+00 1.8995152626996017e+00 0.0000000000000000e+00  8.1015910960924291e+00 1.9724354282495893e+00 0.0000000000000000e+00  8.0289791421914511e+00 2.0570679193251342e+00 0.0000000000000000e+00  7.9573437881432429e+00 2.1321514506907362e+00 0.0000000000000000e+00  7.8849065101456359e+00 2.2157620828959628e+00 0.0000000000000000e+00  7.8121487247088623e+00 2.2950015170714568e+00 0.0000000000000000e+00  7.7394388670919527e+00 2.3781026773998888e+00 0.0000000000000000e+00  7.6665831633016666e+00 2.4580386873653772e+00 0.0000000000000000e+00  7.5935533049130797e+00 2.5435791831066465e+00 0.0000000000000000e+00  7.5200102202704979e+00 2.6247273944145628e+00 0.0000000000000000e+00  7.4477757803352826e+00 2.7080082446575502e+00 0.0000000000000000e+00  7.3732204545478091e+00 2.7946825865896456e+00 0.0000000000000000e+00  7.3015780902205938e+00 2.8761642980516244e+00 0.0000000000000000e+00  7.2266458609342390e+00 2.9630108986628243e+00 0.0000000000000000e+00  7.1556123664568032e+00 3.0466111695014502e+00 0.0000000000000000e+00  7.0798297945667334e+00 3.1357814904163779e+00 0.0000000000000000e+00  7.0103188505781491e+00 3.2155689657730053e+00 0.0000000000000000e+00  6.9331891917393218e+00 3.3092605776571209e+00 0.0000000000000000e+00  6.8653486139411930e+00 3.3888453375743599e+00 0.0000000000000000e+00  6.7872616414512432e+00 3.4826387282797038e+00 0.0000000000000000e+00  6.7207928067613993e+00 3.5620432825098907e+00 0.0000000000000000e+00  6.6418681022580657e+00 3.6584748719496258e+00 0.0000000000000000e+00  6.5771909345673656e+00 3.7362680308032794e+00 0.0000000000000000e+00  6.4970218296149858e+00 3.8352172321552600e+00 0.0000000000000000e+00  6.4343062423497290e+00 3.9113638535932393e+00 0.0000000000000000e+00  6.3533512852143446e+00 4.0122139282235691e+00 0.0000000000000000e+00  6.2920272932331205e+00 4.0882647949770980e+00 0.0000000000000000e+00  6.2107571512029951e+00 4.1900902277527745e+00 0.0000000000000000e+00  6.1508300906343338e+00 4.2652142076706312e+00 0.0000000000000000e+00  6.0691236332050744e+00 4.3688380977876742e+00 0.0000000000000000e+00  6.0106398820612901e+00 4.4431611428100686e+00 0.0000000000000000e+00  5.9289634126524078e+00 4.5476973269534673e+00 0.0000000000000000e+00  5.8711899591609056e+00 4.6223873803515714e+00 0.0000000000000000e+00  5.7902928616639189e+00 4.7268433205582276e+00 0.0000000000000000e+00  5.7329596189338377e+00 4.8016593121456870e+00 0.0000000000000000e+00  5.6527194020169187e+00 4.9066861527589918e+00 0.0000000000000000e+00  5.5960924992058336e+00 4.9818797005546092e+00 0.0000000000000000e+00  5.5165417340444520e+00 5.0869096298037242e+00 0.0000000000000000e+00  5.4600977333320992e+00 5.1626046165476032e+00 0.0000000000000000e+00  5.3819820168203663e+00 5.2672515640572470e+00 0.0000000000000000e+00  5.3252604200816975e+00 5.3443909869363591e+00 0.0000000000000000e+00  5.2485683910096226e+00 5.4483358267629889e+00 0.0000000000000000e+00  5.1918310600287070e+00 5.5260178113478338e+00 0.0000000000000000e+00  5.1170946159504824e+00 5.6295230060038453e+00 0.0000000000000000e+00  5.0597096260585808e+00 5.7083584544564774e+00 0.0000000000000000e+00  4.9878144828299664e+00 5.8095688662048293e+00 0.0000000000000000e+00  4.9279972725406376e+00 5.8923404725152686e+00 0.0000000000000000e+00  4.8611528000612028e+00 5.9890333578238133e+00 0.0000000000000000e+00  4.7973580447851507e+00 6.0770716646995870e+00 0.0000000000000000e+00  4.7352988853508933e+00 6.1688290043515392e+00 0.0000000000000000e+00  4.6698780780850608e+00 6.2610009061695440e+00 0.0000000000000000e+00  4.6091264547721273e+00 6.3511593294220932e+00 0.0000000000000000e+00  4.5458799347037777e+00 6.4412408070939602e+00 0.0000000000000000e+00  4.4845242532790257e+00 6.5345025894583211e+00 0.0000000000000000e+00  4.4304569568476246e+00 6.6120721535841076e+00 0.0000000000000000e+00  4.3579431167615610e+00 6.7217760679441403e+00 0.0000000000000000e+00  4.3027531895734805e+00 6.8038496182836132e+00 0.0000000000000000e+00  4.2387656403769194e+00 6.9021139697668001e+00 0.0000000000000000e+00  4.1839338556095980e+00 6.9838470156137253e+00 0.0000000000000000e+00  4.1230022413474048e+00 7.0787638085145801e+00 0.0000000000000000e+00  4.0695058292257720e+00 7.1613705353779853e+00 0.0000000000000000e+00  4.0109957270586065e+00 7.2513317586011761e+00 0.0000000000000000e+00  3.9595285490892151e+00 7.3324599752901927e+00 0.0000000000000000e+00  3.9049495033087673e+00 7.4197181870517053e+00 0.0000000000000000e+00  3.8590462036747146e+00 7.4914862308404704e+00 0.0000000000000000e+00  3.8016043665888595e+00 7.5816618040746118e+00 0.0000000000000000e+00  3.7799595698468802e+00 7.6188557239828665e+00 0.0000000000000000e+00  3.8274124326376544e+00 7.5415695976419412e+00 0.0000000000000000e+00  3.8914506635715389e+00 7.4398332448939879e+00 0.0000000000000000e+00  3.9193297013465869e+00 7.3948895199389195e+00 0.0000000000000000e+00  3.9331571627624582e+00 7.3739781342386008e+00 0.0000000000000000e+00  3.9367565602522734e+00 7.3673925576235479e+00 0.0000000000000000e+00  3.9426291212706857e+00 7.3585292054843503e+00 0.0000000000000000e+00  3.9439393373174045e+00 7.3555421074054950e+00 0.0000000000000000e+00  3.9481067891485009e+00 7.3494157802523956e+00 0.0000000000000000e+00  3.9490027306404891e+00 7.3474392350331392e+00 0.0000000000000000e+00  3.9522284601312632e+00 7.3428941819576830e+00 0.0000000000000000e+00  3.9525526626133720e+00 7.3419135351346663e+00 0.0000000000000000e+00  3.9545917974638614e+00 7.3389835024745214e+00 0.0000000000000000e+00  3.9542568867772747e+00 7.3388744247175826e+00 0.0000000000000000e+00  3.9554157584473097e+00 7.3370341109784389e+00 0.0000000000000000e+00  3.9549172543064559e+00 7.3371094370823089e+00 0.0000000000000000e+00  3.9557780866655254e+00 7.3356553548034524e+00 0.0000000000000000e+00  3.9555474809053464e+00 7.3354775395839997e+00 0.0000000000000000e+00  3.9563936326727767e+00 7.3341347702711204e+00 0.0000000000000000e+00  3.9564484169638821e+00 7.3337415788020541e+00 0.0000000000000000e+00  3.9571759110418800e+00 7.3326496920651936e+00 0.0000000000000000e+00  3.9572956658485343e+00 7.3322607023745192e+00 0.0000000000000000e+00  3.9577862603539122e+00 7.3314971428451292e+00 0.0000000000000000e+00  3.9578572950994770e+00 7.3311948435932450e+00 0.0000000000000000e+00  3.9581421836329822e+00 7.3306628359636932e+00 0.0000000000000000e+00  3.9581739178837276e+00 7.3304002754041528e+00 0.0000000000000000e+00  3.9583257372275638e+00 7.3299941968468403e+00 0.0000000000000000e+00  3.9583371992813823e+00 7.3297131856463782e+00 0.0000000000000000e+00  3.9584117222841586e+00 7.3293337653842476e+00 0.0000000000000000e+00  3.9584059420240081e+00 7.3289872112135317e+00 0.0000000000000000e+00  3.9584328541829557e+00 7.3285252524356856e+00 0.0000000000000000e+00  3.9584125023684420e+00 7.3280239703017260e+00 0.0000000000000000e+00  3.9584027328965519e+00 7.3273641887790060e+00 0.0000000000000000e+00  3.9583691035216821e+00 7.3265800362651916e+00 0.0000000000000000e+00  3.9583326838645325e+00 7.3255847795979010e+00 0.0000000000000000e+00  3.9582839146336957e+00 7.3244027258558466e+00 0.0000000000000000e+00  3.9582277188737200e+00 7.3229577581949821e+00 0.0000000000000000e+00  3.9581664386741271e+00 7.3213095702092543e+00 0.0000000000000000e+00  3.9580905890944140e+00 7.3193973522980214e+00 0.0000000000000000e+00  3.9580188951314850e+00 7.3173133007043081e+00 0.0000000000000000e+00  3.9579264586442653e+00 7.3150229259114017e+00 0.0000000000000000e+00  3.9578403819633134e+00 7.3126596210269632e+00 0.0000000000000000e+00  3.9577360523390150e+00 7.3101704034574935e+00 0.0000000000000000e+00  3.9576325710494018e+00 7.3077509906591809e+00 0.0000000000000000e+00  3.9575170374805650e+00 7.3052890581066530e+00 0.0000000000000000e+00  3.9573928322482055e+00 7.3030300126631262e+00 0.0000000000000000e+00  3.9572660067972354e+00 7.3007775028404653e+00 0.0000000000000000e+00  3.9571089917706210e+00 7.2988344509780099e+00 0.0000000000000000e+00  3.9569642401241203e+00 7.2968688397776953e+00 0.0000000000000000e+00  3.9567418636842220e+00 7.2952720755049016e+00 0.0000000000000000e+00  3.9565390886318017e+00 7.2935317914973652e+00 0.0000000000000000e+00  3.9561520498688445e+00 7.2921225858704117e+00 0.0000000000000000e+00  3.9557293564623088e+00 7.2902784764758737e+00 0.0000000000000000e+00  3.9548510033632631e+00 7.2885042731788587e+00 0.0000000000000000e+00  3.9536198332573647e+00 7.2855288436713197e+00 0.0000000000000000e+00  3.9511274231608571e+00 7.2815791853228413e+00 0.0000000000000000e+00  3.9470247812655432e+00 7.2741813737115040e+00 0.0000000000000000e+00  3.9390112778800432e+00 7.2619394839472475e+00 0.0000000000000000e+00  3.9248042921354434e+00 7.2388073708481135e+00 0.0000000000000000e+00  3.8976788788858245e+00 7.1969839571553571e+00 0.0000000000000000e+00  3.8484369097695095e+00 7.1183597918989241e+00 0.0000000000000000e+00  3.7569109853910709e+00 6.9723269303601825e+00 0.0000000000000000e+00  3.5928735020740779e+00 6.6987298266630901e+00 0.0000000000000000e+00  3.3069665532969350e+00 6.1931491010109800e+00 0.0000000000000000e+00  2.8401782510302085e+00 5.2731286972146316e+00 0.0000000000000000e+00  2.1578006132754819e+00 3.6330226686938816e+00 0.0000000000000000e+00  1.3539651894340354e+00 1.1578524151307774e+00 0.0000000000000000e+00  1.0360067275197378e+00 1.1257993237445477e-01 0.0000000000000000e+00  1.0022135711286866e+00 4.9627257312315782e-03 0.0000000000000000e+00  9.9983574143357146e-01 1.3646565629753895e-03 0.0000000000000000e+00  1.0001721206907850e+00 -4.5375620343267108e-04 0.0000000000000000e+00  9.9989832947052126e-01 3.0028214093835655e-04 0.0000000000000000e+00  1.0000790709960168e+00 -2.2154312600818486e-04 0.0000000000000000e+00  9.9993473874272532e-01 1.8177888387501309e-04 0.0000000000000000e+00  1.0000537001934504e+00 -1.4891128956722255e-04 0.0000000000000000e+00  9.9995669675741083e-01 1.1974049200768610e-04 0.0000000000000000e+00  1.0000343249929025e+00 -9.4608098542444617e-05 0.0000000000000000e+00  9.9997293205860205e-01 7.4105736002215834e-05 0.0000000000000000e+00  1.0000211027465067e+00 -5.7398412273914845e-05 0.0000000000000000e+00  9.9998336828082091e-01 4.4445249353204065e-05 0.0000000000000000e+00  1.0000127412325068e+00 -3.3626871192880097e-05 0.0000000000000000e+00  9.9998973877914066e-01 2.5733481636905101e-05 0.0000000000000000e+00  1.0000075392886583e+00 -1.8350414801255514e-05 0.0000000000000000e+00  9.9999335121743282e-01 1.3837971931662976e-05 0.0000000000000000e+00  1.0000043647189960e+00 -8.1063431994801570e-06 0.0000000000000000e+00  9.9999498865388836e-01 6.1698833854860683e-06 0.0000000000000000e+00  1.0000023351146241e+00 -8.6306951350118505e-07 0.0000000000000000e+00  9.9999512656512846e-01 0.0000000000000000e+00 0.0000000000000000e+00  9.9850471838137267e+00 0.0000000000000000e+00 3.3187864940910534e-03  9.9858659266484171e+00 5.3482887180408365e-03 1.9389740999439399e-04  9.9838100028863721e+00 5.7011738478305422e-03 -2.2296237301952372e-03  9.9826814218370732e+00 1.1683862518159085e-02 1.2611250927318570e-03  9.9792838947756923e+00 1.6691510171229371e-02 -8.9157282719724048e-04  9.9761362210459072e+00 2.1297274232789896e-02 5.2722883026789851e-04  9.9706363205472783e+00 2.8284603954414730e-02 -3.8346510713729214e-04  9.9653906521128093e+00 3.5090951996405370e-02 2.6193197022905310e-04  9.9574545691736560e+00 4.3631383996221434e-02 -2.0310029795913512e-04  9.9493201145445784e+00 5.2912508460918606e-02 9.1165686212516903e-05  9.9386097695850424e+00 6.4416609803444255e-02 -3.5402967984862497e-05  9.9271688055332206e+00 7.6440913498559568e-02 -7.2843649803364200e-05  9.9128935377533161e+00 9.1303107342144224e-02 1.2146835348152818e-04  9.8977135051361689e+00 1.0706998897378549e-01 -2.1959306831674302e-04  9.8794998822764555e+00 1.2566731494102773e-01 2.5821823678332645e-04  9.8599135541955469e+00 1.4545693456796582e-01 -3.4097199205105510e-04  9.8373655706517305e+00 1.6863421549024915e-01 3.5940557840631365e-04  9.8131689670576208e+00 1.9265913531621676e-01 -4.2690501712426668e-04  9.7858482134303877e+00 2.2052967534745249e-01 4.3740921643494477e-04  9.7567558025829921e+00 2.4951517762617384e-01 -4.9352403697846918e-04  9.7247186402941850e+00 2.8195490016932168e-01 4.8340062685566697e-04  9.6905629159249997e+00 3.1590442743020336e-01 -4.9925083406562030e-04  9.6536372438308895e+00 3.5345008532855804e-01 4.4250131952068881e-04  9.6147804648830437e+00 3.9195579329605235e-01 -4.1895888573375385e-04  9.5730301272273230e+00 4.3442441982395757e-01 3.3873698697683817e-04  9.5293794765696749e+00 4.7802033352267753e-01 -2.8211568859908432e-04  9.4834514116503232e+00 5.2454495194880091e-01 1.5578586421210661e-04  9.4352372103950550e+00 5.7314188562190604e-01 -2.2809396992842037e-05  9.3850395850586548e+00 6.2407293103802908e-01 -1.7204835747682855e-04  9.3331603415551143e+00 6.7664759651523654e-01 3.5607288050930786e-04  9.2789995808175032e+00 7.3177604907133220e-01 -5.7592688481614336e-04  9.2232943463654298e+00 7.8887600777316580e-01 8.1088529654597637e-04  9.1662826972945801e+00 8.4671300483033596e-01 -1.1173548541399598e-03  9.1070331736258296e+00 9.0842327918373200e-01 1.4877353019225699e-03  9.0469358445015953e+00 9.6943370830591735e-01 -1.9213211261694262e-03  8.9853581760481891e+00 1.0340946675905323e+00 2.3841343793949035e-03  8.9224568526725943e+00 1.0985358667862313e+00 -2.8595991545173061e-03  8.8581372754359755e+00 1.1666404630959419e+00 3.3359470957009391e-03  8.7937870887820893e+00 1.2326769484148650e+00 -3.7756452311280913e-03  8.7269230363849868e+00 1.3046896095182794e+00 4.1326832543553535e-03  8.6605479120721860e+00 1.3728384098274991e+00 -4.3123728895877430e-03  8.5926513271243952e+00 1.4467709542671912e+00 4.2683143448768602e-03  8.5242068689429811e+00 1.5177582351960119e+00 -3.9667328311238717e-03  8.4548082386800782e+00 1.5940337565227547e+00 3.4534748975798388e-03  8.3856003129948533e+00 1.6659732788160546e+00 -2.7769708900857205e-03  8.3147879021415694e+00 1.7451398351867666e+00 2.0268680630683242e-03  8.2441134195110148e+00 1.8191006657301581e+00 -1.2724933070202514e-03  8.1733031984577575e+00 1.8982385009361413e+00 5.8825328099709664e-04  8.1010892838199400e+00 1.9761047380790673e+00 -6.9217833112635819e-06  8.0296222629370728e+00 2.0552136725272798e+00 -4.6156949238562538e-04  7.9572098528737483e+00 2.1346740072114163e+00 8.2770718477094042e-04  7.8849210905905842e+00 2.2155807958731946e+00 -1.0919253690101656e-03  7.8117595535655227e+00 2.2966790173025933e+00 1.2681264225765519e-03  7.7398023301434957e+00 2.3768312968435468e+00 -1.3934165814076999e-03  7.6657564810243297e+00 2.4617274399817841e+00 1.5216505325807898e-03  7.5935991627744928e+00 2.5415442188353343e+00 -1.6455186861704519e-03  7.5197451396087232e+00 2.6263928934832284e+00 1.6613770881027338e-03  7.4471405752863875e+00 2.7095881040614458e+00 -1.4645693496473200e-03  7.3731760028361810e+00 2.7942765233700904e+00 1.0833196138239872e-03  7.3008806729635634e+00 2.8765927274875125e+00 -6.8480362987583389e-04  7.2267345581849067e+00 2.9647200765277493e+00 3.6140492734213338e-04  7.1543557049226232e+00 3.0477937958287455e+00 -5.4314806107670946e-05  7.0808368007164182e+00 3.1331971462235773e+00 -3.1914202350797710e-04  7.0081030638324213e+00 3.2205961086373116e+00 5.8850659183978696e-04  6.9350367041407690e+00 3.3063389565607153e+00 -5.9687092653423345e-04  6.8626611902538857e+00 3.3919514849987675e+00 4.3591546600466068e-04  6.7895782145652053e+00 3.4799142599832349e+00 -4.4653360840501478e-04  6.7176911401715955e+00 3.5667607559477439e+00 6.1445368302868000e-04  6.6450706062371578e+00 3.6538712846736545e+00 -7.3323091828067088e-04  6.5732188674665712e+00 3.7418279270241239e+00 6.5750773641205904e-04  6.5012506338832043e+00 3.8292722657757552e+00 -6.2414442419135704e-04  6.4298383705331208e+00 3.9176502548115568e+00 6.1124279611030866e-04  6.3580625510441608e+00 4.0061647256352932e+00 -5.6869377835998410e-04  6.2873316307041067e+00 4.0941676667843865e+00 4.4867374798725191e-04  6.2160478513801705e+00 4.1830333974529559e+00 -4.5001203784869153e-04  6.1455482012495635e+00 4.2721741756675575e+00 4.3966523834574272e-04  6.0751070384925541e+00 4.3609319113551743e+00 -4.0112167107001813e-04  6.0049907501281252e+00 4.4504054812738456e+00 3.3422336016492705e-04  5.9349759290099833e+00 4.5398579845355735e+00 -2.7778448473117452e-04  5.8656616702639575e+00 4.6292001715227604e+00 1.4606151957557157e-04  5.7961199163531285e+00 4.7190649226753312e+00 -1.2768338303509264e-05  5.7272341381546923e+00 4.8091917512753870e+00 -4.5832109540754510e-05  5.6586282653890114e+00 4.8990