<?xml version="1.0"?>
<VTKFile type="UnstructuredGrid"  version="0.1"  >
<UnstructuredGrid>
<Piece  NumberOfPoints="8241" NumberOfCells="16000">
<Points>
<DataArray  type="Float64"  NumberOfComponents="3"  format="ascii">-5 -1 0  -4.95 -1 0  -4.9 -1 0  -4.85 -1 0  -4.8 -1 0  -4.75 -1 0  -4.7 -1 0  -4.65 -1 0  -4.6 -1 0  -4.55 -1 0  -4.5 -1 0  -4.45 -1 0  -4.4 -1 0  -4.35 -1 0  -4.3 -1 0  -4.25 -1 0  -4.2 -1 0  -4.15 -1 0  -4.1 -1 0  -4.05 -1 0  -4 -1 0  -3.95 -1 0  -3.9 -1 0  -3.85 -1 0  -3.8 -1 0  -3.75 -1 0  -3.7 -1 0  -3.65 -1 0  -3.6 -1 0  -3.55 -1 0  -3.5 -1 0  -3.45 -1 0  -3.4 -1 0  -3.35 -1 0  -3.3 -1 0  -3.25 -1 0  -3.2 -1 0  -3.15 -1 0  -3.1 -1 0  -3.05 -1 0  -3 -1 0  -2.95 -1 0  -2.9 -1 0  -2.85 -1 0  -2.8 -1 0  -2.75 -1 0  -2.7 -1 0  -2.65 -1 0  -2.6 -1 0  -2.55 -1 0  -2.5 -1 0  -2.45 -1 0  -2.4 -1 0  -2.35 -1 0  -2.3 -1 0  -2.25 -1 0  -2.2 -1 0  -2.15 -1 0  -2.1 -1 0  -2.05 -1 0  -2 -1 0  -1.95 -1 0  -1.9 -1 0  -1.85 -1 0  -1.8 -1 0  -1.75 -1 0  -1.7 -1 0  -1.65 -1 0  -1.6 -1 0  -1.55 -1 0  -1.5 -1 0  -1.45 -1 0  -1.4 -1 0  -1.35 -1 0  -1.3 -1 0  -1.25 -1 0  -1.2 -1 0  -1.15 -1 0  -1.1 -1 0  -1.05 -1 0  -1 -1 0  -0.9500000000000002 -1 0  -0.9000000000000004 -1 0  -0.8499999999999996 -1 0  -0.7999999999999998 -1 0  -0.75 -1 0  -0.7000000000000002 -1 0  -0.6500000000000004 -1 0  -0.5999999999999996 -1 0  -0.5499999999999998 -1 0  -0.5 -1 0  -0.4500000000000002 -1 0  -0.4000000000000004 -1 0  -0.3499999999999996 -1 0  -0.2999999999999998 -1 0  -0.25 -1 0  -0.2000000000000002 -1 0  -0.1500000000000004 -1 0  -0.09999999999999964 -1 0  -0.04999999999999982 -1 0  0 -1 0  0.04999999999999982 -1 0  0.09999999999999964 -1 0  0.1500000000000004 -1 0  0.2000000000000002 -1 0  0.25 -1 0  0.2999999999999998 -1 0  0.3499999999999996 -1 0  0.4000000000000004 -1 0  0.4500000000000002 -1 0  0.5 -1 0  0.5499999999999998 -1 0  0.5999999999999996 -1 0  0.6500000000000004 -1 0  0.7000000000000002 -1 0  0.75 -1 0  0.7999999999999998 -1 0  0.8499999999999996 -1 0  0.9000000000000004 -1 0  0.9500000000000002 -1 0  1 -1 0  1.05 -1 0  1.1 -1 0  1.15 -1 0  1.2 -1 0  1.25 -1 0  1.3 -1 0  1.35 -1 0  1.4 -1 0  1.45 -1 0  1.5 -1 0  1.55 -1 0  1.6 -1 0  1.65 -1 0  1.7 -1 0  1.75 -1 0  1.8 -1 0  1.85 -1 0  1.9 -1 0  1.95 -1 0  2 -1 0  2.05 -1 0  2.1 -1 0  2.15 -1 0  2.2 -1 0  2.25 -1 0  2.3 -1 0  2.35 -1 0  2.4 -1 0  2.45 -1 0  2.5 -1 0  2.55 -1 0  2.6 -1 0  2.65 -1 0  2.7 -1 0  2.75 -1 0  2.8 -1 0  2.85 -1 0  2.9 -1 0  2.95 -1 0  3 -1 0  3.050000000000001 -1 0  3.1 -1 0  3.15 -1 0  3.199999999999999 -1 0  3.25 -1 0  3.300000000000001 -1 0  3.35 -1 0  3.4 -1 0  3.449999999999999 -1 0  3.5 -1 0  3.550000000000001 -1 0  3.6 -1 0  3.65 -1 0  3.699999999999999 -1 0  3.75 -1 0  3.800000000000001 -1 0  3.85 -1 0  3.9 -1 0  3.949999999999999 -1 0  4 -1 0  4.050000000000001 -1 0  4.1 -1 0  4.15 -1 0  4.199999999999999 -1 0  4.25 -1 0  4.300000000000001 -1 0  4.35 -1 0  4.4 -1 0  4.449999999999999 -1 0  4.5 -1 0  4.550000000000001 -1 0  4.6 -1 0  4.65 -1 0  4.699999999999999 -1 0  4.75 -1 0  4.800000000000001 -1 0  4.85 -1 0  4.9 -1 0  4.949999999999999 -1 0  5 -1 0  -5 -0.95 0  -4.95 -0.95 0  -4.9 -0.95 0  -4.85 -0.95 0  -4.8 -0.95 0  -4.75 -0.95 0  -4.7 -0.95 0  -4.65 -0.95 0  -4.6 -0.95 0  -4.55 -0.95 0  -4.5 -0.95 0  -4.45 -0.95 0  -4.4 -0.95 0  -4.35 -0.95 0  -4.3 -0.95 0  -4.25 -0.95 0  -4.2 -0.95 0  -4.15 -0.95 0  -4.1 -0.95 0  -4.05 -0.95 0  -4 -0.95 0  -3.95 -0.95 0  -3.9 -0.95 0  -3.85 -0.95 0  -3.8 -0.95 0  -3.75 -0.95 0  -3.7 -0.95 0  -3.65 -0.95 0  -3.6 -0.95 0  -3.55 -0.95 0  -3.5 -0.95 0  -3.45 -0.95 0  -3.4 -0.95 0  -3.35 -0.95 0  -3.3 -0.95 0  -3.25 -0.95 0  -3.2 -0.95 0  -3.15 -0.95 0  -3.1 -0.95 0  -3.05 -0.95 0  -3 -0.95 0  -2.95 -0.95 0  -2.9 -0.95 0  -2.85 -0.95 0  -2.8 -0.95 0  -2.75 -0.95 0  -2.7 -0.95 0  -2.65 -0.95 0  -2.6 -0.95 0  -2.55 -0.95 0  -2.5 -0.95 0  -2.45 -0.95 0  -2.4 -0.95 0  -2.35 -0.95 0  -2.3 -0.95 0  -2.25 -0.95 0  -2.2 -0.95 0  -2.15 -0.95 0  -2.1 -0.95 0  -2.05 -0.95 0  -2 -0.95 0  -1.95 -0.95 0  -1.9 -0.95 0  -1.85 -0.95 0  -1.8 -0.95 0  -1.75 -0.95 0  -1.7 -0.95 0  -1.65 -0.95 0  -1.6 -0.95 0  -1.55 -0.95 0  -1.5 -0.95 0  -1.45 -0.95 0  -1.4 -0.95 0  -1.35 -0.95 0  -1.3 -0.95 0  -1.25 -0.95 0  -1.2 -0.95 0  -1.15 -0.95 0  -1.1 -0.95 0  -1.05 -0.95 0  -1 -0.95 0  -0.9500000000000002 -0.95 0  -0.9000000000000004 -0.95 0  -0.8499999999999996 -0.95 0  -0.7999999999999998 -0.95 0  -0.75 -0.95 0  -0.7000000000000002 -0.95 0  -0.6500000000000004 -0.95 0  -0.5999999999999996 -0.95 0  -0.5499999999999998 -0.95 0  -0.5 -0.95 0  -0.4500000000000002 -0.95 0  -0.4000000000000004 -0.95 0  -0.3499999999999996 -0.95 0  -0.2999999999999998 -0.95 0  -0.25 -0.95 0  -0.2000000000000002 -0.95 0  -0.1500000000000004 -0.95 0  -0.09999999999999964 -0.95 0  -0.04999999999999982 -0.95 0  0 -0.95 0  0.04999999999999982 -0.95 0  0.09999999999999964 -0.95 0  0.1500000000000004 -0.95 0  0.2000000000000002 -0.95 0  0.25 -0.95 0  0.2999999999999998 -0.95 0  0.3499999999999996 -0.95 0  0.4000000000000004 -0.95 0  0.4500000000000002 -0.95 0  0.5 -0.95 0  0.5499999999999998 -0.95 0  0.5999999999999996 -0.95 0  0.6500000000000004 -0.95 0  0.7000000000000002 -0.95 0  0.75 -0.95 0  0.7999999999999998 -0.95 0  0.8499999999999996 -0.95 0  0.9000000000000004 -0.95 0  0.9500000000000002 -0.95 0  1 -0.95 0  1.05 -0.95 0  1.1 -0.95 0  1.15 -0.95 0  1.2 -0.95 0  1.25 -0.95 0  1.3 -0.95 0  1.35 -0.95 0  1.4 -0.95 0  1.45 -0.95 0  1.5 -0.95 0  1.55 -0.95 0  1.6 -0.95 0  1.65 -0.95 0  1.7 -0.95 0  1.75 -0.95 0  1.8 -0.95 0  1.85 -0.95 0  1.9 -0.95 0  1.95 -0.95 0  2 -0.95 0  2.05 -0.95 0  2.1 -0.95 0  2.15 -0.95 0  2.2 -0.95 0  2.25 -0.95 0  2.3 -0.95 0  2.35 -0.95 0  2.4 -0.95 0  2.45 -0.95 0  2.5 -0.95 0  2.55 -0.95 0  2.6 -0.95 0  2.65 -0.95 0  2.7 -0.95 0  2.75 -0.95 0  2.8 -0.95 0  2.85 -0.95 0  2.9 -0.95 0  2.95 -0.95 0  3 -0.95 0  3.050000000000001 -0.95 0  3.1 -0.95 0  3.15 -0.95 0  3.199999999999999 -0.95 0  3.25 -0.95 0  3.300000000000001 -0.95 0  3.35 -0.95 0  3.4 -0.95 0  3.449999999999999 -0.95 0  3.5 -0.95 0  3.550000000000001 -0.95 0  3.6 -0.95 0  3.65 -0.95 0  3.699999999999999 -0.95 0  3.75 -0.95 0  3.800000000000001 -0.95 0  3.85 -0.95 0  3.9 -0.95 0  3.949999999999999 -0.95 0  4 -0.95 0  4.050000000000001 -0.95 0  4.1 -0.95 0  4.15 -0.95 0  4.199999999999999 -0.95 0  4.25 -0.95 0  4.300000000000001 -0.95 0  4.35 -0.95 0  4.4 -0.95 0  4.449999999999999 -0.95 0  4.5 -0.95 0  4.550000000000001 -0.95 0  4.6 -0.95 0  4.65 -0.95 0  4.699999999999999 -0.95 0  4.75 -0.95 0  4.800000000000001 -0.95 0  4.85 -0.95 0  4.9 -0.95 0  4.949999999999999 -0.95 0  5 -0.95 0  -5 -0.9 0  -4.95 -0.9 0  -4.9 -0.9 0  -4.85 -0.9 0  -4.8 -0.9 0  -4.75 -0.9 0  -4.7 -0.9 0  -4.65 -0.9 0  -4.6 -0.9 0  -4.55 -0.9 0  -4.5 -0.9 0  -4.45 -0.9 0  -4.4 -0.9 0  -4.35 -0.9 0  -4.3 -0.9 0  -4.25 -0.9 0  -4.2 -0.9 0  -4.15 -0.9 0  -4.1 -0.9 0  -4.05 -0.9 0  -4 -0.9 0  -3.95 -0.9 0  -3.9 -0.9 0  -3.85 -0.9 0  -3.8 -0.9 0  -3.75 -0.9 0  -3.7 -0.9 0  -3.65 -0.9 0  -3.6 -0.9 0  -3.55 -0.9 0  -3.5 -0.9 0  -3.45 -0.9 0  -3.4 -0.9 0  -3.35 -0.9 0  -3.3 -0.9 0  -3.25 -0.9 0  -3.2 -0.9 0  -3.15 -0.9 0  -3.1 -0.9 0  -3.05 -0.9 0  -3 -0.9 0  -2.95 -0.9 0  -2.9 -0.9 0  -2.85 -0.9 0  -2.8 -0.9 0  -2.75 -0.9 0  -2.7 -0.9 0  -2.65 -0.9 0  -2.6 -0.9 0  -2.55 -0.9 0  -2.5 -0.9 0  -2.45 -0.9 0  -2.4 -0.9 0  -2.35 -0.9 0  -2.3 -0.9 0  -2.25 -0.9 0  -2.2 -0.9 0  -2.15 -0.9 0  -2.1 -0.9 0  -2.05 -0.9 0  -2 -0.9 0  -1.95 -0.9 0  -1.9 -0.9 0  -1.85 -0.9 0  -1.8 -0.9 0  -1.75 -0.9 0  -1.7 -0.9 0  -1.65 -0.9 0  -1.6 -0.9 0  -1.55 -0.9 0  -1.5 -0.9 0  -1.45 -0.9 0  -1.4 -0.9 0  -1.35 -0.9 0  -1.3 -0.9 0  -1.25 -0.9 0  -1.2 -0.9 0  -1.15 -0.9 0  -1.1 -0.9 0  -1.05 -0.9 0  -1 -0.9 0  -0.9500000000000002 -0.9 0  -0.9000000000000004 -0.9 0  -0.8499999999999996 -0.9 0  -0.7999999999999998 -0.9 0  -0.75 -0.9 0  -0.7000000000000002 -0.9 0  -0.6500000000000004 -0.9 0  -0.5999999999999996 -0.9 0  -0.5499999999999998 -0.9 0  -0.5 -0.9 0  -0.4500000000000002 -0.9 0  -0.4000000000000004 -0.9 0  -0.3499999999999996 -0.9 0  -0.2999999999999998 -0.9 0  -0.25 -0.9 0  -0.2000000000000002 -0.9 0  -0.1500000000000004 -0.9 0  -0.09999999999999964 -0.9 0  -0.04999999999999982 -0.9 0  0 -0.9 0  0.04999999999999982 -0.9 0  0.09999999999999964 -0.9 0  0.1500000000000004 -0.9 0  0.2000000000000002 -0.9 0  0.25 -0.9 0  0.2999999999999998 -0.9 0  0.3499999999999996 -0.9 0  0.4000000000000004 -0.9 0  0.4500000000000002 -0.9 0  0.5 -0.9 0  0.5499999999999998 -0.9 0  0.5999999999999996 -0.9 0  0.6500000000000004 -0.9 0  0.7000000000000002 -0.9 0  0.75 -0.9 0  0.7999999999999998 -0.9 0  0.8499999999999996 -0.9 0  0.9000000000000004 -0.9 0  0.9500000000000002 -0.9 0  1 -0.9 0  1.05 -0.9 0  1.1 -0.9 0  1.15 -0.9 0  1.2 -0.9 0  1.25 -0.9 0  1.3 -0.9 0  1.35 -0.9 0  1.4 -0.9 0  1.45 -0.9 0  1.5 -0.9 0  1.55 -0.9 0  1.6 -0.9 0  1.65 -0.9 0  1.7 -0.9 0  1.75 -0.9 0  1.8 -0.9 0  1.85 -0.9 0  1.9 -0.9 0  1.95 -0.9 0  2 -0.9 0  2.05 -0.9 0  2.1 -0.9 0  2.15 -0.9 0  2.2 -0.9 0  2.25 -0.9 0  2.3 -0.9 0  2.35 -0.9 0  2.4 -0.9 0  2.45 -0.9 0  2.5 -0.9 0  2.55 -0.9 0  2.6 -0.9 0  2.65 -0.9 0  2.7 -0.9 0  2.75 -0.9 0  2.8 -0.9 0  2.85 -0.9 0  2.9 -0.9 0  2.95 -0.9 0  3 -0.9 0  3.050000000000001 -0.9 0  3.1 -0.9 0  3.15 -0.9 0  3.199999999999999 -0.9 0  3.25 -0.9 0  3.300000000000001 -0.9 0  3.35 -0.9 0  3.4 -0.9 0  3.449999999999999 -0.9 0  3.5 -0.9 0  3.550000000000001 -0.9 0  3.6 -0.9 0  3.65 -0.9 0  3.699999999999999 -0.9 0  3.75 -0.9 0  3.800000000000001 -0.9 0  3.85 -0.9 0  3.9 -0.9 0  3.949999999999999 -0.9 0  4 -0.9 0  4.050000000000001 -0.9 0  4.1 -0.9 0  4.15 -0.9 0  4.199999999999999 -0.9 0  4.25 -0.9 0  4.300000000000001 -0.9 0  4.35 -0.9 0  4.4 -0.9 0  4.449999999999999 -0.9 0  4.5 -0.9 0  4.550000000000001 -0.9 0  4.6 -0.9 0  4.65 -0.9 0  4.699999999999999 -0.9 0  4.75 -0.9 0  4.800000000000001 -0.9 0  4.85 -0.9 0  4.9 -0.9 0  4.949999999999999 -0.9 0  5 -0.9 0  -5 -0.85 0  -4.95 -0.85 0  -4.9 -0.85 0  -4.85 -0.85 0  -4.8 -0.85 0  -4.75 -0.85 0  -4.7 -0.85 0  -4.65 -0.85 0  -4.6 -0.85 0  -4.55 -0.85 0  -4.5 -0.85 0  -
[...]
<PointData  Vectors="f_15"> 
<DataArray  type="Float64"  Name="f_15"  NumberOfComponents="3" format="ascii">9.9950179314131606e+00 0.0000000000000000e+00 0.0000000000000000e+00  9.9992938697059994e+00 1.2582799638146458e-02 0.0000000000000000e+00  9.9934754145304794e+00 -1.8359505751574724e-02 0.0000000000000000e+00  1.0000994346650927e+01 8.5571716486601817e-03 0.0000000000000000e+00  9.9931617270855035e+00 -1.2438012345038002e-02 0.0000000000000000e+00  1.0000750396756322e+01 2.8461998055127882e-03 0.0000000000000000e+00  9.9943293728197613e+00 -7.5243804310100313e-03 0.0000000000000000e+00  1.0000873801566877e+01 8.9154905456430419e-04 0.0000000000000000e+00  9.9941689840937240e+00 -5.5474549389463272e-03 0.0000000000000000e+00  1.0002130366888901e+01 3.6594965726203946e-04 0.0000000000000000e+00  9.9943607455249985e+00 -3.5925892766030085e-03 0.0000000000000000e+00  1.0002014822079982e+01 -7.6494301818519838e-04 0.0000000000000000e+00  9.9955429347183351e+00 -1.5293819877818865e-03 0.0000000000000000e+00  1.0002127355965856e+01 -1.3753653242762592e-03 0.0000000000000000e+00  9.9954914429328348e+00 -5.0728326526633437e-04 0.0000000000000000e+00  1.0002928103015430e+01 -1.4612274270089259e-03 0.0000000000000000e+00  9.9957180213530545e+00 5.9393419649585123e-04 0.0000000000000000e+00  1.0002567176209775e+01 -2.1021568231213436e-03 0.0000000000000000e+00  9.9963960721298797e+00 1.8372039120857387e-03 0.0000000000000000e+00  1.0002463482244597e+01 -2.2639311061174866e-03 0.0000000000000000e+00  9.9960231604818830e+00 2.4360597889942610e-03 0.0000000000000000e+00  1.0002484422692435e+01 -2.0344821708022411e-03 0.0000000000000000e+00  9.9958100832961385e+00 3.5235893316797103e-03 0.0000000000000000e+00  1.0001448916186259e+01 -1.9288469623906805e-03 0.0000000000000000e+00  9.9952522871520326e+00 4.9844497846637682e-03 0.0000000000000000e+00  1.0000238831826552e+01 -7.4399554957644350e-04 0.0000000000000000e+00  9.9933612093834956e+00 6.7606709870522818e-03 0.0000000000000000e+00  9.9979042808157104e+00 1.4709160200596300e-03 0.0000000000000000e+00  9.9905201956704701e+00 1.0265623994606649e-02 0.0000000000000000e+00  9.9934429218061087e+00 5.2423077212377794e-03 0.0000000000000000e+00  9.9852223002821923e+00 1.5748120303312671e-02 0.0000000000000000e+00  9.9865601900012777e+00 1.2339937278733960e-02 0.0000000000000000e+00  9.9762037395305949e+00 2.4458929579579635e-02 0.0000000000000000e+00  9.9750976839214882e+00 2.3535490873412588e-02 0.0000000000000000e+00  9.9623866809384207e+00 3.8632304273996727e-02 0.0000000000000000e+00  9.9573784056171508e+00 4.0860723871855645e-02 0.0000000000000000e+00  9.9409975561895081e+00 5.9582843406347105e-02 0.0000000000000000e+00  9.9316693814326413e+00 6.7009976064138430e-02 0.0000000000000000e+00  9.9100340699198526e+00 8.9854851643743711e-02 0.0000000000000000e+00  9.8949024385792317e+00 1.0365842208771270e-01 0.0000000000000000e+00  9.8675243133170767e+00 1.3222686498523931e-01 0.0000000000000000e+00  9.8451606717473492e+00 1.5341334590999198e-01 0.0000000000000000e+00  9.8106554311628944e+00 1.8822032111417034e-01 0.0000000000000000e+00  9.7808436642907921e+00 2.1861571352726802e-01 0.0000000000000000e+00  9.7381413359206217e+00 2.5997162039722727e-01 0.0000000000000000e+00  9.6999357622404236e+00 3.0002572026272173e-01 0.0000000000000000e+00  9.6492866531830099e+00 3.4905828002094280e-01 0.0000000000000000e+00  9.6021207663300050e+00 3.9877363099504975e-01 0.0000000000000000e+00  9.5431900951384936e+00 4.5536777526072475e-01 0.0000000000000000e+00  9.4877505256584982e+00 5.1534824292799075e-01 0.0000000000000000e+00  9.4205503336931162e+00 5.7917248826305978e-01 0.0000000000000000e+00  9.3569417908925203e+00 6.4862856378157885e-01 0.0000000000000000e+00  9.2826100503723232e+00 7.2018632046665332e-01 0.0000000000000000e+00  9.2111250762185559e+00 7.9815036877179957e-01 0.0000000000000000e+00  9.1301983428982201e+00 8.7661460170523731e-01 0.0000000000000000e+00  9.0520841677539892e+00 9.6312965494154501e-01 0.0000000000000000e+00  8.9651018923906509e+00 1.0476472146031726e+00 0.0000000000000000e+00  8.8810087041823795e+00 1.1413685029743399e+00 0.0000000000000000e+00  8.7892930035858594e+00 1.2323037284730782e+00 0.0000000000000000e+00  8.6997369371282467e+00 1.3320762400943826e+00 0.0000000000000000e+00  8.6040300209933775e+00 1.4281240778566151e+00 0.0000000000000000e+00  8.5101961967178497e+00 1.5343358501438984e+00 0.0000000000000000e+00  8.4109972880809831e+00 1.6346151604403838e+00 0.0000000000000000e+00  8.3135522527651240e+00 1.7454564792781959e+00 0.0000000000000000e+00  8.2119427511585403e+00 1.8510163352398628e+00 0.0000000000000000e+00  8.1112472118283598e+00 1.9656426402704359e+00 0.0000000000000000e+00  8.0078556097275424e+00 2.0739838852184840e+00 0.0000000000000000e+00  7.9048210965259793e+00 2.1945876259904438e+00 0.0000000000000000e+00  7.7998891475760592e+00 2.3048186106716031e+00 0.0000000000000000e+00  7.6950815237749737e+00 2.4275655442132740e+00 0.0000000000000000e+00  7.5893859081075483e+00 2.5439269231079136e+00 0.0000000000000000e+00  7.4828914481447324e+00 2.6676622655380555e+00 0.0000000000000000e+00  7.3769774675613791e+00 2.7846668562188936e+00 0.0000000000000000e+00  7.2694259572361961e+00 2.9148343110428647e+00 0.0000000000000000e+00  7.1632953910352866e+00 3.0336976988359354e+00 0.0000000000000000e+00  7.0551427806197644e+00 3.1610918790416629e+00 0.0000000000000000e+00  6.9493777166744524e+00 3.2877233217859452e+00 0.0000000000000000e+00  6.8405337727772073e+00 3.4164463738470228e+00 0.0000000000000000e+00  6.7356848542804828e+00 3.5414604302658637e+00 0.0000000000000000e+00  6.6264090311288308e+00 3.6736848198650267e+00 0.0000000000000000e+00  6.5226789806865026e+00 3.8016912300791206e+00 0.0000000000000000e+00  6.4133654882356392e+00 3.9334646507321054e+00 0.0000000000000000e+00  6.3110061504012727e+00 4.0635775556753400e+00 0.0000000000000000e+00  6.2015601083906713e+00 4.1962580249568733e+00 0.0000000000000000e+00  6.1010652696644980e+00 4.3265580099886822e+00 0.0000000000000000e+00  5.9918149820682922e+00 4.4626643446916416e+00 0.0000000000000000e+00  5.8925784524841101e+00 4.5930258895100717e+00 0.0000000000000000e+00  5.7844995917220681e+00 4.7291269483643994e+00 0.0000000000000000e+00  5.6862861623410383e+00 4.8605546047792982e+00 0.0000000000000000e+00  5.5794459687257074e+00 4.9985775046025527e+00 0.0000000000000000e+00  5.4819684683133669e+00 5.1313093576614124e+00 0.0000000000000000e+00  5.3773199720195040e+00 5.2686166591799122e+00 0.0000000000000000e+00  5.2797498839062902e+00 5.4031531308749665e+00 0.0000000000000000e+00  5.1780241319879190e+00 5.5405664754633497e+00 0.0000000000000000e+00  5.0811498195266518e+00 5.6760293888247482e+00 0.0000000000000000e+00  4.9814349217931131e+00 5.8127256837182344e+00 0.0000000000000000e+00  4.8851253027671051e+00 5.9508920508605705e+00 0.0000000000000000e+00  4.7885716447807507e+00 6.0866540676116463e+00 0.0000000000000000e+00  4.6926557217131784e+00 6.2249028257337828e+00 0.0000000000000000e+00  4.5996746052643411e+00 6.3591735990240625e+00 0.0000000000000000e+00  4.5036698069056653e+00 6.5015223800945421e+00 0.0000000000000000e+00  4.4226141462832826e+00 6.6196778922635415e+00 0.0000000000000000e+00  4.3135777088451741e+00 6.7833351315539892e+00 0.0000000000000000e+00  4.2340935339139731e+00 6.9048023320725820e+00 0.0000000000000000e+00  4.1394886115463665e+00 7.0481656463261446e+00 0.0000000000000000e+00  4.0625231492734244e+00 7.1664607204780966e+00 0.0000000000000000e+00  3.9752366923406686e+00 7.3040889959165058e+00 0.0000000000000000e+00  3.9047323102650626e+00 7.4152142308549029e+00 0.0000000000000000e+00  3.8243608817503918e+00 7.5400670775254390e+00 0.0000000000000000e+00  3.7653713720811299e+00 7.6376259700852218e+00 0.0000000000000000e+00  3.7842755414851741e+00 7.6069603462369537e+00 0.0000000000000000e+00  3.8593828187723673e+00 7.4861367669592580e+00 0.0000000000000000e+00  3.9018351712106241e+00 7.4176681454725735e+00 0.0000000000000000e+00  3.9218589435169511e+00 7.3863800525028624e+00 0.0000000000000000e+00  3.9281687034712580e+00 7.3756426107256248e+00 0.0000000000000000e+00  3.9359726870104810e+00 7.3636498610958423e+00 0.0000000000000000e+00  3.9385830900064045e+00 7.3587062310353266e+00 0.0000000000000000e+00  3.9436724619910408e+00 7.3510454849479867e+00 0.0000000000000000e+00  3.9446818532338561e+00 7.3486620258096966e+00 0.0000000000000000e+00  3.9480938692295577e+00 7.3435057606165035e+00 0.0000000000000000e+00  3.9484953057429295e+00 7.3421526608478036e+00 0.0000000000000000e+00  3.9508572521415180e+00 7.3385708630028219e+00 0.0000000000000000e+00  3.9510838288308285e+00 7.3375617424742421e+00 0.0000000000000000e+00  3.9526460792611524e+00 7.3350588562995505e+00 0.0000000000000000e+00  3.9527646084248849e+00 7.3342643343143052e+00 0.0000000000000000e+00  3.9537779656341012e+00 7.3323796678555251e+00 0.0000000000000000e+00  3.9538936093545951e+00 7.3315477794744899e+00 0.0000000000000000e+00  3.9545221355058660e+00 7.3300140258493327e+00 0.0000000000000000e+00  3.9546360303453181e+00 7.3289440495550471e+00 0.0000000000000000e+00  3.9549964101003958e+00 7.3274036005940522e+00 0.0000000000000000e+00  3.9550545461528142e+00 7.3259657580950837e+00 0.0000000000000000e+00  3.9552463756499834e+00 7.3240182035392865e+00 0.0000000000000000e+00  3.9552484505483196e+00 7.3219754788447640e+00 0.0000000000000000e+00  3.9553107546828077e+00 7.3194574841292681e+00 0.0000000000000000e+00  3.9552634742389663e+00 7.3167074734672308e+00 0.0000000000000000e+00  3.9552311738311996e+00 7.3136442222569835e+00 0.0000000000000000e+00  3.9551178927177273e+00 7.3104344113947572e+00 0.0000000000000000e+00  3.9550062195921516e+00 7.3070705060417440e+00 0.0000000000000000e+00  3.9548075846548936e+00 7.3037478507650677e+00 0.0000000000000000e+00  3.9545685404984874e+00 7.3004539005142535e+00 0.0000000000000000e+00  3.9541740890514889e+00 7.2971933906673065e+00 0.0000000000000000e+00  3.9536166239231347e+00 7.2939611465502256e+00 0.0000000000000000e+00  3.9525808900757378e+00 7.2903406402868995e+00 0.0000000000000000e+00  3.9509533724550918e+00 7.2860549070851111e+00 0.0000000000000000e+00  3.9477103642718925e+00 7.2796608804168823e+00 0.0000000000000000e+00  3.9422805863715951e+00 7.2700297038999251e+00 0.0000000000000000e+00  3.9313242360127423e+00 7.2521548855205946e+00 0.0000000000000000e+00  3.9124518953148471e+00 7.2219470399013970e+00 0.0000000000000000e+00  3.8747254688318504e+00 7.1623807605650249e+00 0.0000000000000000e+00  3.8095959117951925e+00 7.0582811216974886e+00 0.0000000000000000e+00  3.6829925706673317e+00 6.8517857726221960e+00 0.0000000000000000e+00  3.4710185853010915e+00 6.4889089585837594e+00 0.0000000000000000e+00  3.0909522146480164e+00 5.7828543924359632e+00 0.0000000000000000e+00  2.5362611435107407e+00 4.5947668803985504e+00 0.0000000000000000e+00  1.7229660631648920e+00 2.3614284860918957e+00 0.0000000000000000e+00  1.1288039230736171e+00 4.0251790635510432e-01 0.0000000000000000e+00  1.0083605479238011e+00 2.7585170214043227e-02 0.0000000000000000e+00  1.0004055582190141e+00 1.5268492889824461e-03 0.0000000000000000e+00  9.9999249090352726e-01 2.6010796981929273e-04 0.0000000000000000e+00  1.0000665293872515e+00 -1.6850384882306210e-04 0.0000000000000000e+00  9.9994354065135660e-01 1.6056411459780838e-04 0.0000000000000000e+00  1.0000450266807281e+00 -1.2496186497497691e-04 0.0000000000000000e+00  9.9996548987514555e-01 9.5376319698212608e-05 0.0000000000000000e+00  1.0000261946793692e+00 -7.2008438539153294e-05 0.0000000000000000e+00  9.9998035490152093e-01 5.3824105117393453e-05 0.0000000000000000e+00  1.0000145712600319e+00 -3.9787620873645787e-05 0.0000000000000000e+00  9.9998924958883506e-01 2.9239890812153628e-05 0.0000000000000000e+00  1.0000079361985708e+00 -2.1500796275382353e-05 0.0000000000000000e+00  9.9999413276591775e-01 1.5851233579680315e-05 0.0000000000000000e+00  1.0000043240740586e+00 -1.1668957265683961e-05 0.0000000000000000e+00  9.9999684200516614e-01 8.5228185595585641e-06 0.0000000000000000e+00  1.0000022795920198e+00 -6.1532071842654487e-06 0.0000000000000000e+00  9.9999836951393406e-01 4.3980917101066602e-06 0.0000000000000000e+00  1.0000011622189071e+00 -3.1294300336491038e-06 0.0000000000000000e+00  9.9999917032560359e-01 2.2289622483697007e-06 0.0000000000000000e+00  1.0000005936139422e+00 -1.5918434654757972e-06 0.0000000000000000e+00  9.9999957581203525e-01 1.1364981069254917e-06 0.0000000000000000e+00  1.0000003013033081e+00 -8.0715582541889647e-07 0.0000000000000000e+00  9.9999978781597576e-01 5.6839809815465966e-07 0.0000000000000000e+00  1.0000001482977825e+00 -3.9703896286239030e-07 0.0000000000000000e+00  9.9999989676434253e-01 2.7604358909206996e-07 0.0000000000000000e+00  1.0000000718326305e+00 -1.9175731708975709e-07 0.0000000000000000e+00  9.9999994998666430e-01 1.3331397487056316e-07 0.0000000000000000e+00  1.0000000347833051e+00 -9.2631783995168355e-08 0.0000000000000000e+00  9.9999997590680156e-01 6.4136000264269210e-08 0.0000000000000000e+00  1.0000000165877190e+00 -4.4143940422042010e-08 0.0000000000000000e+00  9.9999998864701511e-01 3.0196429425542665e-08 0.0000000000000000e+00  1.0000000077389670e+00 -2.0563599067278413e-08 0.0000000000000000e+00  9.9999999473412082e-01 1.3973628018891532e-08 0.0000000000000000e+00  1.0000000035797669e+00 -9.4863985670649629e-09 0.0000000000000000e+00  9.9999999756962421e-01 6.4314826183084474e-09 0.0000000000000000e+00  1.0000000016437847e+00 -4.3446447825431442e-09 0.0000000000000000e+00  9.9999999889138214e-01 2.9218148496216953e-09 0.0000000000000000e+00  1.0000000007412626e+00 -1.9483846838644112e-09 0.0000000000000000e+00  9.9999999950044527e-01 1.2955353050994802e-09 0.0000000000000000e+00  1.0000000003283844e+00 -8.4357448834634794e-10 0.0000000000000000e+00  9.9999999976868814e-01 5.5349347725313224e-10 0.0000000000000000e+00  1.0000000001439622e+00 -3.2829569545336983e-10 0.0000000000000000e+00  9.9999999987289934e-01 2.0642731509982264e-10 0.0000000000000000e+00  1.0000000000600258e+00 -6.1688403656790167e-11 0.0000000000000000e+00  9.9999999988524935e-01 0.0000000000000000e+00 0.0000000000000000e+00  1.0004044295497520e+01 0.0000000000000000e+00 -1.4612569806128335e-02  1.0001560028187589e+01 -1.3812733019099726e-03 2.8445854574218154e-03  1.0004531925581597e+01 7.6789891450340609e-03 4.3615271985950072e-03  1.0001944666760007e+01 4.3061364734865767e-03 -1.8945530610646349e-03  1.0003318374435354e+01 1.8705990804690677e-03 9.3560136914522490e-04  1.0002908540846141e+01 5.6316764872064622e-03 -3.7200900496689405e-04  1.0002599911211581e+01 1.9515383023266117e-03 2.0902744447529089e-04  1.0002070258175893e+01 3.4936743726194891e-03 -3.7364658278554594e-04  1.0002997184517429e+01 2.4893796782559968e-03 4.2047390720504414e-04  1.0001413590261617e+01 2.5504935645499615e-03 -5.6850409048181437e-04  1.0001993851141764e+01 1.6891481311552986e-03 5.8121953967099095e-04  1.0001766298800996e+01 2.2445824021512365e-03 -6.8633896104145376e-04  1.0001302874877013e+01 1.3254527117918771e-03 7.0317183329080435e-04  1.0000883700010235e+01 1.2896990692276228e-03 -7.6882837551139459e-04  1.0001531729348445e+01 1.3771248932586528e-03 7.6976874890735485e-04  1.0000370939266952e+01 8.5006151707453298e-04 -8.0978240247431331e-04  1.0000706068806105e+01 8.2850668108988893e-04 8.1485182282457671e-04  1.0000550254594360e+01 8.7141531315835824e-04 -8.3549091382560366e-04  1.0000293093821245e+01 7.6205896399068429e-04 8.1721871798902336e-04  9.9997713668942492e+00 4.8259545321923167e-04 -8.0096955547323198e-04  1.0000278151810578e+01 1.0592593338708493e-03 7.7712222937387633e-04  9.9993212503147717e+00 7.3804833525795946e-04 -7.7260772475359115e-04  9.9993254178558413e+00 1.1303421846115514e-03 7.6690836015894288e-04  9.9988270844805793e+00 1.4322467929768516e-03 -7.5568656181998462e-04  9.9984349998587856e+00 2.1086055349517508e-03 7.2995264034915539e-04  9.9971989542573780e+00 2.3496306098272257e-03 -7.0387858990028250e-04  9.9968127133260865e+00 3.8479346284246026e-03 6.8993360085679411e-04  9.9950048409354615e+00 4.7690705060747388e-03 -6.8635819186978599e-04  9.9934382246096636e+00 6.6835864257899502e-03 6.8217424995717347e-04  9.9909303571520418e+00 8.7889587073948627e-03 -6.6416656597393807e-04  9.9882612256216454e+00 1.2200542322784513e-02 6.3719895095688849e-04  9.9837828259573893e+00 1.5445741629829278e-02 -6.1190218342937509e-04  9.9793343645729529e+00 2.0968544344660996e-02 5.9570118193664416e-04  9.9727467815793442e+00 2.6779904331305206e-02 -5.8165703413302515e-04  9.9650898232520326e+00 3.4798443201149720e-02 5.5412324689466943e-04  9.9552229163304045e+00 4.3959960753396352e-02 -5.1134453813350667e-04  9.9439790507766990e+00 5.6199816286995476e-02 4.5623766561987244e-04  9.9292681702261927e+00 6.9450239596556121e-02 -4.1165054700697856e-04  9.9129698819417698e+00 8.6791111100003815e-02 3.7359467202567365e-04  9.8929293281149064e+00 1.0600091267108479e-01 -3.4657993838073777e-04  9.8700518833123425e+00 1.2926736807765790e-01 3.0908897126574682e-04  9.8432371906443468e+00 1.5525825766548451e-01 -2.7385216833742380e-04  9.8134393203075891e+00 1.8613721552372456e-01 2.4591236427214200e-04  9.7786408250134009e+00 2.1957139784510254e-01 -2.5305877174161079e-04  9.7408065543532896e+00 2.5853019791298620e-01 2.9272302662357883e-04  9.6981054878810298e+00 3.0070104651546770e-01 -3.5679544188877766e-04  9.6515041904808356e+00 3.4799386649452474e-01 4.2930782157717221e-04  9.6003481342452357e+00 3.9884838556895486e-01 -5.0149996334941118e-04  9.5455430948568747e+00 4.5532406542832349e-01 5.9741961767088630e-04  9.4857548645280279e+00 5.1456157531135094e-01 -7.1498246983054553e-04  9.4227248078748698e+00 5.7977135113300338e-01 8.6956945440879775e-04  9.3553068066786285e+00 6.4771610280324188e-01 -1.0119599963943455e-03  9.2842801823490877e+00 7.2106776309570342e-01 1.1484128359317549e-03  9.2096349418901458e+00 7.9680610064866753e-01 -1.2426263778592703e-03  9.1318500715816455e+00 8.7845870527007519e-01 1.3543470434995175e-03  9.0504550002409250e+00 9.6109535397810364e-01 -1.4573017344216847e-03  8.9665354610943826e+00 1.0499378363742429e+00 1.5850105210080728e-03  8.8797064512712449e+00 1.1395817335933283e+00 -1.6602035832766822e-03  8.7901951723262943e+00 1.2345994834736000e+00 1.7030024904021656e-03  8.6986408683956924e+00 1.3300332762272131e+00 -1.6745039154535582e-03  8.6047934408607141e+00 1.4314064334169156e+00 1.6495481318511132e-03  8.5090139899560207e+00 1.5317387468570143e+00 -1.6046892860764894e-03  8.4115367982935485e+00 1.6378925628004284e+00 1.5692155629388608e-03  8.3126382293998411e+00 1.7438773800253540e+00 -1.4704170808560808e-03  8.2119672430014212e+00 1.8537579712602805e+00 1.3196043650273792e-03  8.1105615956224320e+00 1.9636274321300784e+00 -1.1263090028009559e-03  8.0076863090574033e+00 2.0785458861275794e+00 1.0094486085062873e-03  7.9040730447148482e+00 2.1914027871800994e+00 -1.0411605349149534e-03  7.7995416453232194e+00 2.3086626691690095e+00 1.1987496882705710e-03  7.6945850063168226e+00 2.4271781908015448e+00 -1.3081069840832008e-03  7.5885563912777334e+00 2.5459469380479662e+00 1.2098039188986377e-03  7.4827561921009842e+00 2.6656515752448664e+00 -9.7824422531449782e-04  7.3760142973205793e+00 2.7906465493866097e+00 7.6820215073518524e-04  7.2693228849674520e+00 2.9114434129867615e+00 -6.1474435558490860e-04  7.1624789783342973e+00 3.0350080015996563e+00 2.5607442304279108e-04  7.0553983508514744e+00 3.1636821284387731e+00 2.2178333976489691e-04  6.9484705602663688e+00 3.2875224806659729e+00 -5.2011992767761125e-04  6.8414885532327601e+00 3.4144471400681384e+00 4.3562993031216935e-04  6.7348425315306155e+00 3.5435135937012725e+00 -5.1646401063672827e-04  6.6278892568099268e+00 3.6733212444771626e+00 9.9879902336666871e-04  6.5220985301169971e+00 3.8002971532464724e+00 -1.4782645082270945e-03  6.4151601385892283e+00 3.9336547609783481e+00 1.5893617108800060e-03  6.310