<?xml version="1.0"?>
<VTKFile type="UnstructuredGrid"  version="0.1"  >
<UnstructuredGrid>
<Piece  NumberOfPoints="8241" NumberOfCells="16000">
<Points>
<DataArray  type="Float64"  NumberOfComponents="3"  format="ascii">-5 -1 0  -4.95 -1 0  -4.9 -1 0  -4.85 -1 0  -4.8 -1 0  -4.75 -1 0  -4.7 -1 0  -4.65 -1 0  -4.6 -1 0  -4.55 -1 0  -4.5 -1 0  -4.45 -1 0  -4.4 -1 0  -4.35 -1 0  -4.3 -1 0  -4.25 -1 0  -4.2 -1 0  -4.15 -1 0  -4.1 -1 0  -4.05 -1 0  -4 -1 0  -3.95 -1 0  -3.9 -1 0  -3.85 -1 0  -3.8 -1 0  -3.75 -1 0  -3.7 -1 0  -3.65 -1 0  -3.6 -1 0  -3.55 -1 0  -3.5 -1 0  -3.45 -1 0  -3.4 -1 0  -3.35 -1 0  -3.3 -1 0  -3.25 -1 0  -3.2 -1 0  -3.15 -1 0  -3.1 -1 0  -3.05 -1 0  -3 -1 0  -2.95 -1 0  -2.9 -1 0  -2.85 -1 0  -2.8 -1 0  -2.75 -1 0  -2.7 -1 0  -2.65 -1 0  -2.6 -1 0  -2.55 -1 0  -2.5 -1 0  -2.45 -1 0  -2.4 -1 0  -2.35 -1 0  -2.3 -1 0  -2.25 -1 0  -2.2 -1 0  -2.15 -1 0  -2.1 -1 0  -2.05 -1 0  -2 -1 0  -1.95 -1 0  -1.9 -1 0  -1.85 -1 0  -1.8 -1 0  -1.75 -1 0  -1.7 -1 0  -1.65 -1 0  -1.6 -1 0  -1.55 -1 0  -1.5 -1 0  -1.45 -1 0  -1.4 -1 0  -1.35 -1 0  -1.3 -1 0  -1.25 -1 0  -1.2 -1 0  -1.15 -1 0  -1.1 -1 0  -1.05 -1 0  -1 -1 0  -0.9500000000000002 -1 0  -0.9000000000000004 -1 0  -0.8499999999999996 -1 0  -0.7999999999999998 -1 0  -0.75 -1 0  -0.7000000000000002 -1 0  -0.6500000000000004 -1 0  -0.5999999999999996 -1 0  -0.5499999999999998 -1 0  -0.5 -1 0  -0.4500000000000002 -1 0  -0.4000000000000004 -1 0  -0.3499999999999996 -1 0  -0.2999999999999998 -1 0  -0.25 -1 0  -0.2000000000000002 -1 0  -0.1500000000000004 -1 0  -0.09999999999999964 -1 0  -0.04999999999999982 -1 0  0 -1 0  0.04999999999999982 -1 0  0.09999999999999964 -1 0  0.1500000000000004 -1 0  0.2000000000000002 -1 0  0.25 -1 0  0.2999999999999998 -1 0  0.3499999999999996 -1 0  0.4000000000000004 -1 0  0.4500000000000002 -1 0  0.5 -1 0  0.5499999999999998 -1 0  0.5999999999999996 -1 0  0.6500000000000004 -1 0  0.7000000000000002 -1 0  0.75 -1 0  0.7999999999999998 -1 0  0.8499999999999996 -1 0  0.9000000000000004 -1 0  0.9500000000000002 -1 0  1 -1 0  1.05 -1 0  1.1 -1 0  1.15 -1 0  1.2 -1 0  1.25 -1 0  1.3 -1 0  1.35 -1 0  1.4 -1 0  1.45 -1 0  1.5 -1 0  1.55 -1 0  1.6 -1 0  1.65 -1 0  1.7 -1 0  1.75 -1 0  1.8 -1 0  1.85 -1 0  1.9 -1 0  1.95 -1 0  2 -1 0  2.05 -1 0  2.1 -1 0  2.15 -1 0  2.2 -1 0  2.25 -1 0  2.3 -1 0  2.35 -1 0  2.4 -1 0  2.45 -1 0  2.5 -1 0  2.55 -1 0  2.6 -1 0  2.65 -1 0  2.7 -1 0  2.75 -1 0  2.8 -1 0  2.85 -1 0  2.9 -1 0  2.95 -1 0  3 -1 0  3.050000000000001 -1 0  3.1 -1 0  3.15 -1 0  3.199999999999999 -1 0  3.25 -1 0  3.300000000000001 -1 0  3.35 -1 0  3.4 -1 0  3.449999999999999 -1 0  3.5 -1 0  3.550000000000001 -1 0  3.6 -1 0  3.65 -1 0  3.699999999999999 -1 0  3.75 -1 0  3.800000000000001 -1 0  3.85 -1 0  3.9 -1 0  3.949999999999999 -1 0  4 -1 0  4.050000000000001 -1 0  4.1 -1 0  4.15 -1 0  4.199999999999999 -1 0  4.25 -1 0  4.300000000000001 -1 0  4.35 -1 0  4.4 -1 0  4.449999999999999 -1 0  4.5 -1 0  4.550000000000001 -1 0  4.6 -1 0  4.65 -1 0  4.699999999999999 -1 0  4.75 -1 0  4.800000000000001 -1 0  4.85 -1 0  4.9 -1 0  4.949999999999999 -1 0  5 -1 0  -5 -0.95 0  -4.95 -0.95 0  -4.9 -0.95 0  -4.85 -0.95 0  -4.8 -0.95 0  -4.75 -0.95 0  -4.7 -0.95 0  -4.65 -0.95 0  -4.6 -0.95 0  -4.55 -0.95 0  -4.5 -0.95 0  -4.45 -0.95 0  -4.4 -0.95 0  -4.35 -0.95 0  -4.3 -0.95 0  -4.25 -0.95 0  -4.2 -0.95 0  -4.15 -0.95 0  -4.1 -0.95 0  -4.05 -0.95 0  -4 -0.95 0  -3.95 -0.95 0  -3.9 -0.95 0  -3.85 -0.95 0  -3.8 -0.95 0  -3.75 -0.95 0  -3.7 -0.95 0  -3.65 -0.95 0  -3.6 -0.95 0  -3.55 -0.95 0  -3.5 -0.95 0  -3.45 -0.95 0  -3.4 -0.95 0  -3.35 -0.95 0  -3.3 -0.95 0  -3.25 -0.95 0  -3.2 -0.95 0  -3.15 -0.95 0  -3.1 -0.95 0  -3.05 -0.95 0  -3 -0.95 0  -2.95 -0.95 0  -2.9 -0.95 0  -2.85 -0.95 0  -2.8 -0.95 0  -2.75 -0.95 0  -2.7 -0.95 0  -2.65 -0.95 0  -2.6 -0.95 0  -2.55 -0.95 0  -2.5 -0.95 0  -2.45 -0.95 0  -2.4 -0.95 0  -2.35 -0.95 0  -2.3 -0.95 0  -2.25 -0.95 0  -2.2 -0.95 0  -2.15 -0.95 0  -2.1 -0.95 0  -2.05 -0.95 0  -2 -0.95 0  -1.95 -0.95 0  -1.9 -0.95 0  -1.85 -0.95 0  -1.8 -0.95 0  -1.75 -0.95 0  -1.7 -0.95 0  -1.65 -0.95 0  -1.6 -0.95 0  -1.55 -0.95 0  -1.5 -0.95 0  -1.45 -0.95 0  -1.4 -0.95 0  -1.35 -0.95 0  -1.3 -0.95 0  -1.25 -0.95 0  -1.2 -0.95 0  -1.15 -0.95 0  -1.1 -0.95 0  -1.05 -0.95 0  -1 -0.95 0  -0.9500000000000002 -0.95 0  -0.9000000000000004 -0.95 0  -0.8499999999999996 -0.95 0  -0.7999999999999998 -0.95 0  -0.75 -0.95 0  -0.7000000000000002 -0.95 0  -0.6500000000000004 -0.95 0  -0.5999999999999996 -0.95 0  -0.5499999999999998 -0.95 0  -0.5 -0.95 0  -0.4500000000000002 -0.95 0  -0.4000000000000004 -0.95 0  -0.3499999999999996 -0.95 0  -0.2999999999999998 -0.95 0  -0.25 -0.95 0  -0.2000000000000002 -0.95 0  -0.1500000000000004 -0.95 0  -0.09999999999999964 -0.95 0  -0.04999999999999982 -0.95 0  0 -0.95 0  0.04999999999999982 -0.95 0  0.09999999999999964 -0.95 0  0.1500000000000004 -0.95 0  0.2000000000000002 -0.95 0  0.25 -0.95 0  0.2999999999999998 -0.95 0  0.3499999999999996 -0.95 0  0.4000000000000004 -0.95 0  0.4500000000000002 -0.95 0  0.5 -0.95 0  0.5499999999999998 -0.95 0  0.5999999999999996 -0.95 0  0.6500000000000004 -0.95 0  0.7000000000000002 -0.95 0  0.75 -0.95 0  0.7999999999999998 -0.95 0  0.8499999999999996 -0.95 0  0.9000000000000004 -0.95 0  0.9500000000000002 -0.95 0  1 -0.95 0  1.05 -0.95 0  1.1 -0.95 0  1.15 -0.95 0  1.2 -0.95 0  1.25 -0.95 0  1.3 -0.95 0  1.35 -0.95 0  1.4 -0.95 0  1.45 -0.95 0  1.5 -0.95 0  1.55 -0.95 0  1.6 -0.95 0  1.65 -0.95 0  1.7 -0.95 0  1.75 -0.95 0  1.8 -0.95 0  1.85 -0.95 0  1.9 -0.95 0  1.95 -0.95 0  2 -0.95 0  2.05 -0.95 0  2.1 -0.95 0  2.15 -0.95 0  2.2 -0.95 0  2.25 -0.95 0  2.3 -0.95 0  2.35 -0.95 0  2.4 -0.95 0  2.45 -0.95 0  2.5 -0.95 0  2.55 -0.95 0  2.6 -0.95 0  2.65 -0.95 0  2.7 -0.95 0  2.75 -0.95 0  2.8 -0.95 0  2.85 -0.95 0  2.9 -0.95 0  2.95 -0.95 0  3 -0.95 0  3.050000000000001 -0.95 0  3.1 -0.95 0  3.15 -0.95 0  3.199999999999999 -0.95 0  3.25 -0.95 0  3.300000000000001 -0.95 0  3.35 -0.95 0  3.4 -0.95 0  3.449999999999999 -0.95 0  3.5 -0.95 0  3.550000000000001 -0.95 0  3.6 -0.95 0  3.65 -0.95 0  3.699999999999999 -0.95 0  3.75 -0.95 0  3.800000000000001 -0.95 0  3.85 -0.95 0  3.9 -0.95 0  3.949999999999999 -0.95 0  4 -0.95 0  4.050000000000001 -0.95 0  4.1 -0.95 0  4.15 -0.95 0  4.199999999999999 -0.95 0  4.25 -0.95 0  4.300000000000001 -0.95 0  4.35 -0.95 0  4.4 -0.95 0  4.449999999999999 -0.95 0  4.5 -0.95 0  4.550000000000001 -0.95 0  4.6 -0.95 0  4.65 -0.95 0  4.699999999999999 -0.95 0  4.75 -0.95 0  4.800000000000001 -0.95 0  4.85 -0.95 0  4.9 -0.95 0  4.949999999999999 -0.95 0  5 -0.95 0  -5 -0.9 0  -4.95 -0.9 0  -4.9 -0.9 0  -4.85 -0.9 0  -4.8 -0.9 0  -4.75 -0.9 0  -4.7 -0.9 0  -4.65 -0.9 0  -4.6 -0.9 0  -4.55 -0.9 0  -4.5 -0.9 0  -4.45 -0.9 0  -4.4 -0.9 0  -4.35 -0.9 0  -4.3 -0.9 0  -4.25 -0.9 0  -4.2 -0.9 0  -4.15 -0.9 0  -4.1 -0.9 0  -4.05 -0.9 0  -4 -0.9 0  -3.95 -0.9 0  -3.9 -0.9 0  -3.85 -0.9 0  -3.8 -0.9 0  -3.75 -0.9 0  -3.7 -0.9 0  -3.65 -0.9 0  -3.6 -0.9 0  -3.55 -0.9 0  -3.5 -0.9 0  -3.45 -0.9 0  -3.4 -0.9 0  -3.35 -0.9 0  -3.3 -0.9 0  -3.25 -0.9 0  -3.2 -0.9 0  -3.15 -0.9 0  -3.1 -0.9 0  -3.05 -0.9 0  -3 -0.9 0  -2.95 -0.9 0  -2.9 -0.9 0  -2.85 -0.9 0  -2.8 -0.9 0  -2.75 -0.9 0  -2.7 -0.9 0  -2.65 -0.9 0  -2.6 -0.9 0  -2.55 -0.9 0  -2.5 -0.9 0  -2.45 -0.9 0  -2.4 -0.9 0  -2.35 -0.9 0  -2.3 -0.9 0  -2.25 -0.9 0  -2.2 -0.9 0  -2.15 -0.9 0  -2.1 -0.9 0  -2.05 -0.9 0  -2 -0.9 0  -1.95 -0.9 0  -1.9 -0.9 0  -1.85 -0.9 0  -1.8 -0.9 0  -1.75 -0.9 0  -1.7 -0.9 0  -1.65 -0.9 0  -1.6 -0.9 0  -1.55 -0.9 0  -1.5 -0.9 0  -1.45 -0.9 0  -1.4 -0.9 0  -1.35 -0.9 0  -1.3 -0.9 0  -1.25 -0.9 0  -1.2 -0.9 0  -1.15 -0.9 0  -1.1 -0.9 0  -1.05 -0.9 0  -1 -0.9 0  -0.9500000000000002 -0.9 0  -0.9000000000000004 -0.9 0  -0.8499999999999996 -0.9 0  -0.7999999999999998 -0.9 0  -0.75 -0.9 0  -0.7000000000000002 -0.9 0  -0.6500000000000004 -0.9 0  -0.5999999999999996 -0.9 0  -0.5499999999999998 -0.9 0  -0.5 -0.9 0  -0.4500000000000002 -0.9 0  -0.4000000000000004 -0.9 0  -0.3499999999999996 -0.9 0  -0.2999999999999998 -0.9 0  -0.25 -0.9 0  -0.2000000000000002 -0.9 0  -0.1500000000000004 -0.9 0  -0.09999999999999964 -0.9 0  -0.04999999999999982 -0.9 0  0 -0.9 0  0.04999999999999982 -0.9 0  0.09999999999999964 -0.9 0  0.1500000000000004 -0.9 0  0.2000000000000002 -0.9 0  0.25 -0.9 0  0.2999999999999998 -0.9 0  0.3499999999999996 -0.9 0  0.4000000000000004 -0.9 0  0.4500000000000002 -0.9 0  0.5 -0.9 0  0.5499999999999998 -0.9 0  0.5999999999999996 -0.9 0  0.6500000000000004 -0.9 0  0.7000000000000002 -0.9 0  0.75 -0.9 0  0.7999999999999998 -0.9 0  0.8499999999999996 -0.9 0  0.9000000000000004 -0.9 0  0.9500000000000002 -0.9 0  1 -0.9 0  1.05 -0.9 0  1.1 -0.9 0  1.15 -0.9 0  1.2 -0.9 0  1.25 -0.9 0  1.3 -0.9 0  1.35 -0.9 0  1.4 -0.9 0  1.45 -0.9 0  1.5 -0.9 0  1.55 -0.9 0  1.6 -0.9 0  1.65 -0.9 0  1.7 -0.9 0  1.75 -0.9 0  1.8 -0.9 0  1.85 -0.9 0  1.9 -0.9 0  1.95 -0.9 0  2 -0.9 0  2.05 -0.9 0  2.1 -0.9 0  2.15 -0.9 0  2.2 -0.9 0  2.25 -0.9 0  2.3 -0.9 0  2.35 -0.9 0  2.4 -0.9 0  2.45 -0.9 0  2.5 -0.9 0  2.55 -0.9 0  2.6 -0.9 0  2.65 -0.9 0  2.7 -0.9 0  2.75 -0.9 0  2.8 -0.9 0  2.85 -0.9 0  2.9 -0.9 0  2.95 -0.9 0  3 -0.9 0  3.050000000000001 -0.9 0  3.1 -0.9 0  3.15 -0.9 0  3.199999999999999 -0.9 0  3.25 -0.9 0  3.300000000000001 -0.9 0  3.35 -0.9 0  3.4 -0.9 0  3.449999999999999 -0.9 0  3.5 -0.9 0  3.550000000000001 -0.9 0  3.6 -0.9 0  3.65 -0.9 0  3.699999999999999 -0.9 0  3.75 -0.9 0  3.800000000000001 -0.9 0  3.85 -0.9 0  3.9 -0.9 0  3.949999999999999 -0.9 0  4 -0.9 0  4.050000000000001 -0.9 0  4.1 -0.9 0  4.15 -0.9 0  4.199999999999999 -0.9 0  4.25 -0.9 0  4.300000000000001 -0.9 0  4.35 -0.9 0  4.4 -0.9 0  4.449999999999999 -0.9 0  4.5 -0.9 0  4.550000000000001 -0.9 0  4.6 -0.9 0  4.65 -0.9 0  4.699999999999999 -0.9 0  4.75 -0.9 0  4.800000000000001 -0.9 0  4.85 -0.9 0  4.9 -0.9 0  4.949999999999999 -0.9 0  5 -0.9 0  -5 -0.85 0  -4.95 -0.85 0  -4.9 -0.85 0  -4.85 -0.85 0  -4.8 -0.85 0  -4.75 -0.85 0  -4.7 -0.85 0  -4.65 -0.85 0  -4.6 -0.85 0  -4.55 -0.85 0  -4.5 -0.85 0  -
[...]
<PointData  Vectors="f_15"> 
<DataArray  type="Float64"  Name="f_15"  NumberOfComponents="3" format="ascii">3.0016985542177461e+00 0.0000000000000000e+00 0.0000000000000000e+00  3.0003350146814025e+00 -7.5924033152209034e-03 0.0000000000000000e+00  3.0020317914001775e+00 9.8660869201536872e-03 0.0000000000000000e+00  2.9997145499138838e+00 -4.6438766691104857e-03 0.0000000000000000e+00  3.0015460318303457e+00 5.0854324982415782e-03 0.0000000000000000e+00  2.9999095946706476e+00 -6.9146194573560060e-04 0.0000000000000000e+00  3.0006739788951924e+00 1.0568168083094848e-03 0.0000000000000000e+00  3.0002430573925043e+00 1.0759447305645640e-03 0.0000000000000000e+00  3.0000610953238254e+00 -5.4128690248266042e-04 0.0000000000000000e+00  3.0005109570052104e+00 1.5752708611150659e-03 0.0000000000000000e+00  2.9993956872665821e+00 -1.6748227120306103e-03 0.0000000000000000e+00  3.0012559447629128e+00 2.7355092868853880e-03 0.0000000000000000e+00  2.9983707554557535e+00 -3.2482137890600532e-03 0.0000000000000000e+00  3.0020739899879705e+00 3.7454090867856419e-03 0.0000000000000000e+00  2.9977942430407114e+00 -3.6840699926015820e-03 0.0000000000000000e+00  3.0023899849383988e+00 3.6117622994953722e-03 0.0000000000000000e+00  2.9973969554398998e+00 -3.6812533975001511e-03 0.0000000000000000e+00  3.0029938839188977e+00 3.9996748259584951e-03 0.0000000000000000e+00  2.9966902273779743e+00 -4.2980230511877517e-03 0.0000000000000000e+00  3.0034823398479409e+00 4.2506088992436079e-03 0.0000000000000000e+00  2.9965487511946978e+00 -3.9150996119810171e-03 0.0000000000000000e+00  3.0034346792473250e+00 3.4943470542600883e-03 0.0000000000000000e+00  2.9965011356053215e+00 -3.3062821125379145e-03 0.0000000000000000e+00  3.0036349037528662e+00 3.2042953531767841e-03 0.0000000000000000e+00  2.9963296448257042e+00 -3.0319869954037685e-03 0.0000000000000000e+00  3.0035944826316889e+00 2.6036463459926194e-03 0.0000000000000000e+00  2.9964901557594406e+00 -2.1900271392344913e-03 0.0000000000000000e+00  3.0035276306093186e+00 1.8976269914512190e-03 0.0000000000000000e+00  2.9964065226600858e+00 -1.7575359621768896e-03 0.0000000000000000e+00  3.0035263444588480e+00 1.3993436595591193e-03 0.0000000000000000e+00  2.9966738616103501e+00 -8.4371386248732457e-04 0.0000000000000000e+00  3.0031260729756735e+00 2.6173803549378317e-04 0.0000000000000000e+00  2.9968076819220921e+00 -1.0369970607822094e-04 0.0000000000000000e+00  3.0033761598074600e+00 2.4092619411950923e-04 0.0000000000000000e+00  2.9964588568227883e+00 -3.0741818669862862e-04 0.0000000000000000e+00  3.0033150702888447e+00 -3.6898476629971817e-05 0.0000000000000000e+00  2.9968950091050863e+00 6.2977960667683921e-04 0.0000000000000000e+00  3.0028869403310621e+00 -7.6676532156813419e-04 0.0000000000000000e+00  2.9967172104849387e+00 5.1088742742974992e-04 0.0000000000000000e+00  3.0034431653105713e+00 3.6768274220112595e-04 0.0000000000000000e+00  2.9960907662019176e+00 -4.7482059234062082e-04 0.0000000000000000e+00  3.0034114051011316e+00 1.0662439371413271e-03 0.0000000000000000e+00  2.9961375652707747e+00 -3.8838270008140457e-04 0.0000000000000000e+00  3.0030801177933957e+00 2.3663370695930805e-03 0.0000000000000000e+00  2.9951726649020816e+00 -1.3080891445698671e-03 0.0000000000000000e+00  3.0030915140760119e+00 6.1054194845133938e-03 0.0000000000000000e+00  2.9932630375197173e+00 -1.1589794211333950e-03 0.0000000000000000e+00  3.0014078075415020e+00 1.1052111690654077e-02 0.0000000000000000e+00  2.9903884965513581e+00 2.7496122466887547e-03 0.0000000000000000e+00  2.9972758819503755e+00 2.0506514385382552e-02 0.0000000000000000e+00  2.9839212188496176e+00 1.1017662371831225e-02 0.0000000000000000e+00  2.9897693717967275e+00 3.8164152336318369e-02 0.0000000000000000e+00  2.9723444592757300e+00 2.8863898818069760e-02 0.0000000000000000e+00  2.9754885672577394e+00 6.5225975137622405e-02 0.0000000000000000e+00  2.9546269295842760e+00 6.1177071753594270e-02 0.0000000000000000e+00  2.9527488744257635e+00 1.0695979828225476e-01 0.0000000000000000e+00  2.9276075862348496e+00 1.0833952250055152e-01 0.0000000000000000e+00  2.9215294958079081e+00 1.6719179162614603e-01 0.0000000000000000e+00  2.8905810079542498e+00 1.7394196526122657e-01 0.0000000000000000e+00  2.8799107297828228e+00 2.4369036424741208e-01 0.0000000000000000e+00  2.8451427568599104e+00 2.5932919863455062e-01 0.0000000000000000e+00  2.8284849975785695e+00 3.3805829844764179e-01 0.0000000000000000e+00  2.7905836393495296e+00 3.5956628387921097e-01 0.0000000000000000e+00  2.7701440093687499e+00 4.5003915713521309e-01 0.0000000000000000e+00  2.7280029123161325e+00 4.7509018096649047e-01 0.0000000000000000e+00  2.7048913700874917e+00 5.7335083179283930e-01 0.0000000000000000e+00  2.6606918826909718e+00 6.0463645073872330e-01 0.0000000000000000e+00  2.6337470835417873e+00 7.0913933749020241e-01 0.0000000000000000e+00  2.5886805842813398e+00 7.4105993095473532e-01 0.0000000000000000e+00  2.5600574234299533e+00 8.5593422125021124e-01 0.0000000000000000e+00  2.5123075820997585e+00 8.8816498831947621e-01 0.0000000000000000e+00  2.4840856123723136e+00 1.0046863329842173e+00 0.0000000000000000e+00  2.4342588142549020e+00 1.0446808788791224e+00 0.0000000000000000e+00  2.4059987657603101e+00 1.1627846862670097e+00 0.0000000000000000e+00  2.3544318902567594e+00 1.1986758833379536e+00 0.0000000000000000e+00  2.3282353150811850e+00 1.3282822042524574e+00 0.0000000000000000e+00  2.2727310705463930e+00 1.3657375208002818e+00 0.0000000000000000e+00  2.2502971642172578e+00 1.4824713334392965e+00 0.0000000000000000e+00  2.1920296142174922e+00 1.5398592888080689e+00 0.0000000000000000e+00  2.1712129100624908e+00 1.6543011145088073e+00 0.0000000000000000e+00  2.1126497776737945e+00 1.6973293976778223e+00 0.0000000000000000e+00  2.0928191422543088e+00 1.8233026083258421e+00 0.0000000000000000e+00  2.0347358162929474e+00 1.8804872783763178e+00 0.0000000000000000e+00  2.0152076750427086e+00 1.9777474801303947e+00 0.0000000000000000e+00  1.9612992992707154e+00 2.0482501049095809e+00 0.0000000000000000e+00  1.9401435473188477e+00 2.1423287860256810e+00 0.0000000000000000e+00  1.8951486183656867e+00 2.2009796499601753e+00 0.0000000000000000e+00  1.8758583586748609e+00 2.2868244819694432e+00 0.0000000000000000e+00  1.8461828782686767e+00 2.3150276813202559e+00 0.0000000000000000e+00  1.8427677380074410e+00 2.3527724058325128e+00 0.0000000000000000e+00  1.8379158811200762e+00 2.3429962994359377e+00 0.0000000000000000e+00  1.8427860850634223e+00 2.3509958357999019e+00 0.0000000000000000e+00  1.8416852259895471e+00 2.3345244744786857e+00 0.0000000000000000e+00  1.8432896445688263e+00 2.3464321116089191e+00 0.0000000000000000e+00  1.8445835944313851e+00 2.3304657574062957e+00 0.0000000000000000e+00  1.8451208664361036e+00 2.3393874758107169e+00 0.0000000000000000e+00  1.8450981662700303e+00 2.3323511075932237e+00 0.0000000000000000e+00  1.8445257845768182e+00 2.3400424173438625e+00 0.0000000000000000e+00  1.8474221277471459e+00 2.3251785577497746e+00 0.0000000000000000e+00  1.8451843221518613e+00 2.3375273832041406e+00 0.0000000000000000e+00  1.8452344555975915e+00 2.3315113459562773e+00 0.0000000000000000e+00  1.8481872675248250e+00 2.3291108935655251e+00 0.0000000000000000e+00  1.8465811162039738e+00 2.3297536343036351e+00 0.0000000000000000e+00  1.8454951427819244e+00 2.3341916903571676e+00 0.0000000000000000e+00  1.8465165357839732e+00 2.3288299153073400e+00 0.0000000000000000e+00  1.8489082271585080e+00 2.3253848791016880e+00 0.0000000000000000e+00  1.8455010530340625e+00 2.3337433591462498e+00 0.0000000000000000e+00  1.8467782458507005e+00 2.3266341974089175e+00 0.0000000000000000e+00  1.8475997956078418e+00 2.3293970776903192e+00 0.0000000000000000e+00  1.8469780293321572e+00 2.3263011153357711e+00 0.0000000000000000e+00  1.8468319450760731e+00 2.3288798859179090e+00 0.0000000000000000e+00  1.8467475184132163e+00 2.3255974793410092e+00 0.0000000000000000e+00  1.8478472142889879e+00 2.3288044159089449e+00 0.0000000000000000e+00  1.8458826710813669e+00 2.3195407472878364e+00 0.0000000000000000e+00  1.8477655431612006e+00 2.3248705240424208e+00 0.0000000000000000e+00  1.8469175105344333e+00 2.3083727756529520e+00 0.0000000000000000e+00  1.8471912197923641e+00 2.3164843975575486e+00 0.0000000000000000e+00  1.8453033737920339e+00 2.3031865672522960e+00 0.0000000000000000e+00  1.8510600118444918e+00 2.3066355672224530e+00 0.0000000000000000e+00  1.8421985604460205e+00 2.3057212574351511e+00 0.0000000000000000e+00  1.8516764351286876e+00 2.3124169343113219e+00 0.0000000000000000e+00  1.8427299290821904e+00 2.3069672300269897e+00 0.0000000000000000e+00  1.8540703300408885e+00 2.3168960631047200e+00 0.0000000000000000e+00  1.8361548808561325e+00 2.3227874816384189e+00 0.0000000000000000e+00  1.8622064395265054e+00 2.3084038532737123e+00 0.0000000000000000e+00  1.8300503339624277e+00 2.3353150250364836e+00 0.0000000000000000e+00  1.8652541132736442e+00 2.3051825082066157e+00 0.0000000000000000e+00  1.8274424907427662e+00 2.3442131968847968e+00 0.0000000000000000e+00  1.8690479109998639e+00 2.2929883031564922e+00 0.0000000000000000e+00  1.8225355409674620e+00 2.3605204358153400e+00 0.0000000000000000e+00  1.8719214681541418e+00 2.2816709143445513e+00 0.0000000000000000e+00  1.8222774708054323e+00 2.3643306022511505e+00 0.0000000000000000e+00  1.8695030469325951e+00 2.2819374105640953e+00 0.0000000000000000e+00  1.8232492466871209e+00 2.3627235853830393e+00 0.0000000000000000e+00  1.8679265370542164e+00 2.2752923922283750e+00 0.0000000000000000e+00  1.8180901521136428e+00 2.3594367305765842e+00 0.0000000000000000e+00  1.8565243727457210e+00 2.2413883309866609e+00 0.0000000000000000e+00  1.7863585399504605e+00 2.2924013658005031e+00 0.0000000000000000e+00  1.7741040768167107e+00 2.0478357113951007e+00 0.0000000000000000e+00  1.6246782683355336e+00 1.9087819703964399e+00 0.0000000000000000e+00  1.3822710975062147e+00 9.8578419327080236e-01 0.0000000000000000e+00  1.0753684145542801e+00 4.2905776939201973e-01 0.0000000000000000e+00  1.0456269919317265e+00 -6.2902602742870711e-02 0.0000000000000000e+00  9.7222744020365381e-01 1.2938221090047478e-01 0.0000000000000000e+00  1.0311197136693240e+00 -1.2396743081387944e-01 0.0000000000000000e+00  9.6787647571305713e-01 1.2979406251950629e-01 0.0000000000000000e+00  1.0341304831462339e+00 -1.3668623272805738e-01 0.0000000000000000e+00  9.6397741301730377e-01 1.4421563425106179e-01 0.0000000000000000e+00  1.0378695364004618e+00 -1.4870700248053115e-01 0.0000000000000000e+00  9.6074371167809969e-01 1.5423798737011304e-01 0.0000000000000000e+00  1.0414254441131017e+00 -1.5605329857056205e-01 0.0000000000000000e+00  9.5658235952536208e-01 1.6305155047304493e-01 0.0000000000000000e+00  1.0461854990579640e+00 -1.6429446817213586e-01 0.0000000000000000e+00  9.5240769235231271e-01 1.7035210148205646e-01 0.0000000000000000e+00  1.0488931326093240e+00 -1.6499733856884044e-01 0.0000000000000000e+00  9.5162852346791038e-01 1.6559515181612997e-01 0.0000000000000000e+00  1.0481458639261108e+00 -1.5462354042922480e-01 0.0000000000000000e+00  9.5347556956703639e-01 1.5211928112510054e-01 0.0000000000000000e+00  1.0453146616367606e+00 -1.3956636679072149e-01 0.0000000000000000e+00  9.5732307057944133e-01 1.3457842195692918e-01 0.0000000000000000e+00  1.0401532862204712e+00 -1.2034196935541167e-01 0.0000000000000000e+00  9.6344387244870311e-01 1.1231394844809080e-01 0.0000000000000000e+00  1.0333401949337306e+00 -9.8010494890906394e-02 0.0000000000000000e+00  9.7027148900670601e-01 8.9251743642723633e-02 0.0000000000000000e+00  1.0266408047250093e+00 -7.7133742121914886e-02 0.0000000000000000e+00  9.7658251823429099e-01 6.9046076556971814e-02 0.0000000000000000e+00  1.0205651375107514e+00 -5.9014107661317997e-02 0.0000000000000000e+00  9.8228645395861813e-01 5.1607965003345677e-02 0.0000000000000000e+00  1.0152179031085342e+00 -4.3424145251699221e-02 0.0000000000000000e+00  9.8709809630044498e-01 3.7201693628264573e-02 0.0000000000000000e+00  1.0109404341757040e+00 -3.1034904923308813e-02 0.0000000000000000e+00  9.9080842342371345e-01 2.6256566674439891e-02 0.0000000000000000e+00  1.0077038163283125e+00 -2.1752478810694705e-02 0.0000000000000000e+00  9.9361098949474325e-01 1.8132322446412594e-02 0.0000000000000000e+00  1.0052708960749404e+00 -1.4836449665559094e-02 0.0000000000000000e+00  9.9568958387846351e-01 1.2167289147368858e-02 0.0000000000000000e+00  1.0035131200043419e+00 -9.8514318016507552e-03 0.0000000000000000e+00  9.9715227684374230e-01 7.9928618497790843e-03 0.0000000000000000e+00  1.0023012662387538e+00 -6.4268048837183948e-03 0.0000000000000000e+00  9.9815163030866871e-01 5.1633911928386953e-03 0.0000000000000000e+00  1.0014766531769763e+00 -4.1105257887802359e-03 0.0000000000000000e+00  9.9882830672522671e-01 3.2606134156369648e-03 0.0000000000000000e+00  1.0009250154213671e+00 -2.5663620223545058e-03 0.0000000000000000e+00  9.9927332477283570e-01 2.0136861383430343e-03 0.0000000000000000e+00  1.0005687336683637e+00 -1.5714693939347115e-03 0.0000000000000000e+00  9.9955687433876672e-01 1.2224327614769612e-03 0.0000000000000000e+00  1.0003436428886734e+00 -9.4553095960324570e-04 0.0000000000000000e+00  9.9973506124558886e-01 7.2758686276255011e-04 0.0000000000000000e+00  1.0002031887320271e+00 -5.5630969437440341e-04 0.0000000000000000e+00  9.9984512447408980e-01 4.2275880491232166e-04 0.0000000000000000e+00  1.0001177004728963e+00 -3.1957775016956013e-04 0.0000000000000000e+00  9.9991124016069544e-01 2.3970580614878073e-04 0.0000000000000000e+00  1.0000671870658793e+00 -1.7918902475693336e-04 0.0000000000000000e+00  9.9995008981984079e-01 1.3167713206531966e-04 0.0000000000000000e+00  1.0000382248628255e+00 -9.7066083116267431e-05 0.0000000000000000e+00  9.9997249681407296e-01 6.7896714403670514e-05 0.0000000000000000e+00  1.0000226800187884e+00 -4.9119503765723718e-05 0.0000000000000000e+00  9.9998510646431793e-01 2.9002962669362477e-05 0.0000000000000000e+00  1.0000158133445842e+00 -2.0774901891779319e-05 0.0000000000000000e+00  9.9999250331390710e-01 3.5473954110579765e-06 0.0000000000000000e+00  1.0000150839449951e+00 0.0000000000000000e+00 0.0000000000000000e+00  2.9981578451276003e+00 0.0000000000000000e+00 9.4438327105596312e-03  2.9996758400683148e+00 1.4708201609677453e-03 -1.5108782560715487e-03  2.9983399083426669e+00 -5.0195007608934599e-03 -3.1487691437469528e-03  2.9995741935459765e+00 -1.3389710005770373e-03 1.5028400405593058e-03  2.9990310944224032e+00 -1.0124389421028977e-03 -7.8880288444501594e-04  2.9995484169866340e+00 -1.9354290895521552e-03 3.4081621581291092e-04  2.9993892812693286e+00 -7.0245319712433239e-04 -2.1562680580156787e-04  2.9998910980503717e+00 -3.7163459257985441e-04 3.0293920224789617e-04  2.9994110668882699e+00 -1.2723097326391316e-03 -3.9541847523616788e-04  3.0001099503234352e+00 4.5560511082620264e-04 5.4503772134451901e-04  2.9996867281429602e+00 -9.4240138055793168e-04 -7.2971623830900842e-04  2.9999368163866107e+00 3.9671048404542558e-04 9.8814561728094137e-04  2.9999135611323635e+00 -8.7458612756598068e-04 -1.2824447665855338e-03  3.0000938066837008e+00 1.1354966926009991e-03 1.5916657967421784e-03  2.9996717238127633e+00 -1.7351875577510064e-03 -1.9024736655813795e-03  3.0002941670833958e+00 1.8615702202423746e-03 2.2280735700700078e-03  2.9997953798984480e+00 -1.8269837406673234e-03 -2.5759475750201022e-03  3.0000285109501355e+00 1.6950033977109363e-03 2.9303355085300718e-03  2.9999561336219669e+00 -1.8660165756053315e-03 -3.2618240165232892e-03  3.0001706481106272e+00 2.2716719492695187e-03 3.5631318401499702e-03  2.9996833395202342e+00 -2.6776163888144432e-03 -3.8460832696953864e-03  3.0003066874116486e+00 2.8112585412216123e-03 4.1430470855466847e-03  2.9998024952028590e+00 -2.7532655251529640e-03 -4.4520107974631426e-03  3.0001296526225203e+00 2.7322427771784182e-03 4.7652193350993140e-03  2.9998292342798178e+00 -2.9429883972251444e-03 -5.0586653822010472e-03  3.0002543931209300e+00 3.1945127674769644e-03 5.3594136054495988e-03  2.9997781729318969e+00 -3.3533620543188180e-03 -5.6809623091368736e-03  3.0001424009668618e+00 3.3315045629548770e-03 6.0528557887038507e-03  2.9999055264035999e+00 -3.4720692085593963e-03 -6.4429612814790975e-03  3.0002257552251215e+00 3.7657599886378721e-03 6.8527140361608939e-03  2.9996901522598418e+00 -4.1745825542202544e-03 -7.2712142136739889e-03  3.0002728071609268e+00 4.2285352433878874e-03 7.7485562284139728e-03  3.0000018237211385e+00 -4.1353487734700472e-03 -8.2766163413143627e-03  2.9998758947884494e+00 4.0342201946911493e-03 8.8607377031814701e-03  3.0000804436768287e+00 -4.5078904573017308e-03 -9.4466678591805155e-03  3.0002400446875965e+00 5.0727947967326862e-03 1.0070465162733749e-02  2.9997310077540735e+00 -5.6268011638548211e-03 -1.0730199369433022e-02  3.0001452700049831e+00 5.4602707139645018e-03 1.1475988554625673e-02  3.0002893434368771e+00 -5.3806356109536817e-03 -1.2241551314434874e-02  2.9996544336574864e+00 5.3838276340420392e-03 1.3013104508793314e-02  3.0002284032018283e+00 -6.0215605722730428e-03 -1.3724889246904419e-02  2.9999920536253772e+00 6.8023332141827911e-03 1.4458859326697979e-02  2.9997781369019498e+00 -6.6833347065185728e-03 -1.5184466708486069e-02  2.9994980364364201e+00 7.5286763863154759e-03 1.5920824754605642e-02  2.9997809652484291e+00 -5.5534797846084312e-03 -1.6538962095876922e-02  2.9983428419437632e+00 9.1851385127587979e-03 1.7023209459706614e-02  2.9983619257455461e+00 -3.9999507017557043e-03 -1.7319694272736885e-02  2.9967622554109639e+00 1.3761437484683425e-02 1.7534752522632844e-02  2.9951361443740745e+00 9.5255295953807460e-04 -1.7633040950449756e-02  2.9923512183181691e+00 2.1161549223193653e-02 1.7622688852848591e-02  2.9894987292359589e+00 1.2570590104054194e-02 -1.7396429157356272e-02  2.9838191352064038e+00 3.5885257731044208e-02 1.6947186522009498e-02  2.9782747238195211e+00 3.2264083961080652e-02 -1.6310405944757789e-02  2.9700223276695303e+00 6.2351029916830496e-02 1.5572625192853129e-02  2.9597079146460685e+00 6.5501629623507626e-02 -1.4809968728822986e-02  2.9475879703289793e+00 1.0175701714224465e-01 1.3964224952241545e-02  2.9332832931874719e+00 1.1635208979566315e-01 -1.3022002375010888e-02  2.9154094933962340e+00 1.5852577658407918e-01 1.1868666241499735e-02  2.8965952049053652e+00 1.8369539972257329e-01 -1.0671744259777185e-02  2.8745546593850242e+00 2.3472458977467675e-01 9.4395216704518548e-03  2.8498492751704125e+00 2.6959227098532829e-01 -8.3359608263040997e-03  2.8239865774588999e+00 3.2657700886181357e-01 7.2103416854294514e-03  2.7955771026669236e+00 3.7382867960424310e-01 -5.9912937613012208e-03  2.7647636899596768e+00 4.3461042822586998e-01 4.5088128000076227e-03  2.7336098928825288e+00 4.9092410323474411e-01 -2.9839465052371528e-03  2.7001064167160904e+00 5.5759335052304138e-01 1.4920070748235446e-03  2.6650658999783325e+00 6.2135713444488816e-01 -2.3076107923678026e-04  2.6300656811977356e+00 6.8929395270949845e-01 -9.2775134146204710e-04  2.5932358340766233e+00 7.6361478745672251e-01 2.2212765588100702e-03  2.5552999607536941e+00 8.3165590526983091e-01 -3.6579157753993540e-03  2.5181691290974757e+00 9.1045379504156698e-01 4.9858849654503181e-03  2.4787756473436833e+00 9.8361875327043924e-01 -5.8093896394044850e-03  2.4400418666800157e+00 1.0662234437026625e+00 5.9597050821127255e-03  2.4005281620698313e+00 1.1363382350367213e+00 -5.6562546231813228e-03  2.3613319591802044e+00 1.2291418933543097e+00 5.8067049456317710e-03  2.3206554892331726e+00 1.2996290166739721e+00 -6.7807149799444305e-03  2.2816783659582960e+00 1.3854471282863825e+00 8.4052539367716304e-03  2.2417586551760924e+00 1.4698038853689668e+00 -9.8908423551678989e-03  2.2006673545398270e+00 1.5567770552558455e+00 1.1062996987277323e-02  2.1634419853347127e+00 1.6242107259990524e+00 -1.2320133602275386e-02  2.1209466880651311e+00 1.7325620944005782e+00 1.3637268301654347e-02  2.0849078255787368e+00 1.80065508