<?xml version="1.0"?>
<VTKFile type="UnstructuredGrid"  version="0.1"  >
<UnstructuredGrid>
<Piece  NumberOfPoints="8241" NumberOfCells="16000">
<Points>
<DataArray  type="Float64"  NumberOfComponents="3"  format="ascii">-5 -1 0  -4.95 -1 0  -4.9 -1 0  -4.85 -1 0  -4.8 -1 0  -4.75 -1 0  -4.7 -1 0  -4.65 -1 0  -4.6 -1 0  -4.55 -1 0  -4.5 -1 0  -4.45 -1 0  -4.4 -1 0  -4.35 -1 0  -4.3 -1 0  -4.25 -1 0  -4.2 -1 0  -4.15 -1 0  -4.1 -1 0  -4.05 -1 0  -4 -1 0  -3.95 -1 0  -3.9 -1 0  -3.85 -1 0  -3.8 -1 0  -3.75 -1 0  -3.7 -1 0  -3.65 -1 0  -3.6 -1 0  -3.55 -1 0  -3.5 -1 0  -3.45 -1 0  -3.4 -1 0  -3.35 -1 0  -3.3 -1 0  -3.25 -1 0  -3.2 -1 0  -3.15 -1 0  -3.1 -1 0  -3.05 -1 0  -3 -1 0  -2.95 -1 0  -2.9 -1 0  -2.85 -1 0  -2.8 -1 0  -2.75 -1 0  -2.7 -1 0  -2.65 -1 0  -2.6 -1 0  -2.55 -1 0  -2.5 -1 0  -2.45 -1 0  -2.4 -1 0  -2.35 -1 0  -2.3 -1 0  -2.25 -1 0  -2.2 -1 0  -2.15 -1 0  -2.1 -1 0  -2.05 -1 0  -2 -1 0  -1.95 -1 0  -1.9 -1 0  -1.85 -1 0  -1.8 -1 0  -1.75 -1 0  -1.7 -1 0  -1.65 -1 0  -1.6 -1 0  -1.55 -1 0  -1.5 -1 0  -1.45 -1 0  -1.4 -1 0  -1.35 -1 0  -1.3 -1 0  -1.25 -1 0  -1.2 -1 0  -1.15 -1 0  -1.1 -1 0  -1.05 -1 0  -1 -1 0  -0.9500000000000002 -1 0  -0.9000000000000004 -1 0  -0.8499999999999996 -1 0  -0.7999999999999998 -1 0  -0.75 -1 0  -0.7000000000000002 -1 0  -0.6500000000000004 -1 0  -0.5999999999999996 -1 0  -0.5499999999999998 -1 0  -0.5 -1 0  -0.4500000000000002 -1 0  -0.4000000000000004 -1 0  -0.3499999999999996 -1 0  -0.2999999999999998 -1 0  -0.25 -1 0  -0.2000000000000002 -1 0  -0.1500000000000004 -1 0  -0.09999999999999964 -1 0  -0.04999999999999982 -1 0  0 -1 0  0.04999999999999982 -1 0  0.09999999999999964 -1 0  0.1500000000000004 -1 0  0.2000000000000002 -1 0  0.25 -1 0  0.2999999999999998 -1 0  0.3499999999999996 -1 0  0.4000000000000004 -1 0  0.4500000000000002 -1 0  0.5 -1 0  0.5499999999999998 -1 0  0.5999999999999996 -1 0  0.6500000000000004 -1 0  0.7000000000000002 -1 0  0.75 -1 0  0.7999999999999998 -1 0  0.8499999999999996 -1 0  0.9000000000000004 -1 0  0.9500000000000002 -1 0  1 -1 0  1.05 -1 0  1.1 -1 0  1.15 -1 0  1.2 -1 0  1.25 -1 0  1.3 -1 0  1.35 -1 0  1.4 -1 0  1.45 -1 0  1.5 -1 0  1.55 -1 0  1.6 -1 0  1.65 -1 0  1.7 -1 0  1.75 -1 0  1.8 -1 0  1.85 -1 0  1.9 -1 0  1.95 -1 0  2 -1 0  2.05 -1 0  2.1 -1 0  2.15 -1 0  2.2 -1 0  2.25 -1 0  2.3 -1 0  2.35 -1 0  2.4 -1 0  2.45 -1 0  2.5 -1 0  2.55 -1 0  2.6 -1 0  2.65 -1 0  2.7 -1 0  2.75 -1 0  2.8 -1 0  2.85 -1 0  2.9 -1 0  2.95 -1 0  3 -1 0  3.050000000000001 -1 0  3.1 -1 0  3.15 -1 0  3.199999999999999 -1 0  3.25 -1 0  3.300000000000001 -1 0  3.35 -1 0  3.4 -1 0  3.449999999999999 -1 0  3.5 -1 0  3.550000000000001 -1 0  3.6 -1 0  3.65 -1 0  3.699999999999999 -1 0  3.75 -1 0  3.800000000000001 -1 0  3.85 -1 0  3.9 -1 0  3.949999999999999 -1 0  4 -1 0  4.050000000000001 -1 0  4.1 -1 0  4.15 -1 0  4.199999999999999 -1 0  4.25 -1 0  4.300000000000001 -1 0  4.35 -1 0  4.4 -1 0  4.449999999999999 -1 0  4.5 -1 0  4.550000000000001 -1 0  4.6 -1 0  4.65 -1 0  4.699999999999999 -1 0  4.75 -1 0  4.800000000000001 -1 0  4.85 -1 0  4.9 -1 0  4.949999999999999 -1 0  5 -1 0  -5 -0.95 0  -4.95 -0.95 0  -4.9 -0.95 0  -4.85 -0.95 0  -4.8 -0.95 0  -4.75 -0.95 0  -4.7 -0.95 0  -4.65 -0.95 0  -4.6 -0.95 0  -4.55 -0.95 0  -4.5 -0.95 0  -4.45 -0.95 0  -4.4 -0.95 0  -4.35 -0.95 0  -4.3 -0.95 0  -4.25 -0.95 0  -4.2 -0.95 0  -4.15 -0.95 0  -4.1 -0.95 0  -4.05 -0.95 0  -4 -0.95 0  -3.95 -0.95 0  -3.9 -0.95 0  -3.85 -0.95 0  -3.8 -0.95 0  -3.75 -0.95 0  -3.7 -0.95 0  -3.65 -0.95 0  -3.6 -0.95 0  -3.55 -0.95 0  -3.5 -0.95 0  -3.45 -0.95 0  -3.4 -0.95 0  -3.35 -0.95 0  -3.3 -0.95 0  -3.25 -0.95 0  -3.2 -0.95 0  -3.15 -0.95 0  -3.1 -0.95 0  -3.05 -0.95 0  -3 -0.95 0  -2.95 -0.95 0  -2.9 -0.95 0  -2.85 -0.95 0  -2.8 -0.95 0  -2.75 -0.95 0  -2.7 -0.95 0  -2.65 -0.95 0  -2.6 -0.95 0  -2.55 -0.95 0  -2.5 -0.95 0  -2.45 -0.95 0  -2.4 -0.95 0  -2.35 -0.95 0  -2.3 -0.95 0  -2.25 -0.95 0  -2.2 -0.95 0  -2.15 -0.95 0  -2.1 -0.95 0  -2.05 -0.95 0  -2 -0.95 0  -1.95 -0.95 0  -1.9 -0.95 0  -1.85 -0.95 0  -1.8 -0.95 0  -1.75 -0.95 0  -1.7 -0.95 0  -1.65 -0.95 0  -1.6 -0.95 0  -1.55 -0.95 0  -1.5 -0.95 0  -1.45 -0.95 0  -1.4 -0.95 0  -1.35 -0.95 0  -1.3 -0.95 0  -1.25 -0.95 0  -1.2 -0.95 0  -1.15 -0.95 0  -1.1 -0.95 0  -1.05 -0.95 0  -1 -0.95 0  -0.9500000000000002 -0.95 0  -0.9000000000000004 -0.95 0  -0.8499999999999996 -0.95 0  -0.7999999999999998 -0.95 0  -0.75 -0.95 0  -0.7000000000000002 -0.95 0  -0.6500000000000004 -0.95 0  -0.5999999999999996 -0.95 0  -0.5499999999999998 -0.95 0  -0.5 -0.95 0  -0.4500000000000002 -0.95 0  -0.4000000000000004 -0.95 0  -0.3499999999999996 -0.95 0  -0.2999999999999998 -0.95 0  -0.25 -0.95 0  -0.2000000000000002 -0.95 0  -0.1500000000000004 -0.95 0  -0.09999999999999964 -0.95 0  -0.04999999999999982 -0.95 0  0 -0.95 0  0.04999999999999982 -0.95 0  0.09999999999999964 -0.95 0  0.1500000000000004 -0.95 0  0.2000000000000002 -0.95 0  0.25 -0.95 0  0.2999999999999998 -0.95 0  0.3499999999999996 -0.95 0  0.4000000000000004 -0.95 0  0.4500000000000002 -0.95 0  0.5 -0.95 0  0.5499999999999998 -0.95 0  0.5999999999999996 -0.95 0  0.6500000000000004 -0.95 0  0.7000000000000002 -0.95 0  0.75 -0.95 0  0.7999999999999998 -0.95 0  0.8499999999999996 -0.95 0  0.9000000000000004 -0.95 0  0.9500000000000002 -0.95 0  1 -0.95 0  1.05 -0.95 0  1.1 -0.95 0  1.15 -0.95 0  1.2 -0.95 0  1.25 -0.95 0  1.3 -0.95 0  1.35 -0.95 0  1.4 -0.95 0  1.45 -0.95 0  1.5 -0.95 0  1.55 -0.95 0  1.6 -0.95 0  1.65 -0.95 0  1.7 -0.95 0  1.75 -0.95 0  1.8 -0.95 0  1.85 -0.95 0  1.9 -0.95 0  1.95 -0.95 0  2 -0.95 0  2.05 -0.95 0  2.1 -0.95 0  2.15 -0.95 0  2.2 -0.95 0  2.25 -0.95 0  2.3 -0.95 0  2.35 -0.95 0  2.4 -0.95 0  2.45 -0.95 0  2.5 -0.95 0  2.55 -0.95 0  2.6 -0.95 0  2.65 -0.95 0  2.7 -0.95 0  2.75 -0.95 0  2.8 -0.95 0  2.85 -0.95 0  2.9 -0.95 0  2.95 -0.95 0  3 -0.95 0  3.050000000000001 -0.95 0  3.1 -0.95 0  3.15 -0.95 0  3.199999999999999 -0.95 0  3.25 -0.95 0  3.300000000000001 -0.95 0  3.35 -0.95 0  3.4 -0.95 0  3.449999999999999 -0.95 0  3.5 -0.95 0  3.550000000000001 -0.95 0  3.6 -0.95 0  3.65 -0.95 0  3.699999999999999 -0.95 0  3.75 -0.95 0  3.800000000000001 -0.95 0  3.85 -0.95 0  3.9 -0.95 0  3.949999999999999 -0.95 0  4 -0.95 0  4.050000000000001 -0.95 0  4.1 -0.95 0  4.15 -0.95 0  4.199999999999999 -0.95 0  4.25 -0.95 0  4.300000000000001 -0.95 0  4.35 -0.95 0  4.4 -0.95 0  4.449999999999999 -0.95 0  4.5 -0.95 0  4.550000000000001 -0.95 0  4.6 -0.95 0  4.65 -0.95 0  4.699999999999999 -0.95 0  4.75 -0.95 0  4.800000000000001 -0.95 0  4.85 -0.95 0  4.9 -0.95 0  4.949999999999999 -0.95 0  5 -0.95 0  -5 -0.9 0  -4.95 -0.9 0  -4.9 -0.9 0  -4.85 -0.9 0  -4.8 -0.9 0  -4.75 -0.9 0  -4.7 -0.9 0  -4.65 -0.9 0  -4.6 -0.9 0  -4.55 -0.9 0  -4.5 -0.9 0  -4.45 -0.9 0  -4.4 -0.9 0  -4.35 -0.9 0  -4.3 -0.9 0  -4.25 -0.9 0  -4.2 -0.9 0  -4.15 -0.9 0  -4.1 -0.9 0  -4.05 -0.9 0  -4 -0.9 0  -3.95 -0.9 0  -3.9 -0.9 0  -3.85 -0.9 0  -3.8 -0.9 0  -3.75 -0.9 0  -3.7 -0.9 0  -3.65 -0.9 0  -3.6 -0.9 0  -3.55 -0.9 0  -3.5 -0.9 0  -3.45 -0.9 0  -3.4 -0.9 0  -3.35 -0.9 0  -3.3 -0.9 0  -3.25 -0.9 0  -3.2 -0.9 0  -3.15 -0.9 0  -3.1 -0.9 0  -3.05 -0.9 0  -3 -0.9 0  -2.95 -0.9 0  -2.9 -0.9 0  -2.85 -0.9 0  -2.8 -0.9 0  -2.75 -0.9 0  -2.7 -0.9 0  -2.65 -0.9 0  -2.6 -0.9 0  -2.55 -0.9 0  -2.5 -0.9 0  -2.45 -0.9 0  -2.4 -0.9 0  -2.35 -0.9 0  -2.3 -0.9 0  -2.25 -0.9 0  -2.2 -0.9 0  -2.15 -0.9 0  -2.1 -0.9 0  -2.05 -0.9 0  -2 -0.9 0  -1.95 -0.9 0  -1.9 -0.9 0  -1.85 -0.9 0  -1.8 -0.9 0  -1.75 -0.9 0  -1.7 -0.9 0  -1.65 -0.9 0  -1.6 -0.9 0  -1.55 -0.9 0  -1.5 -0.9 0  -1.45 -0.9 0  -1.4 -0.9 0  -1.35 -0.9 0  -1.3 -0.9 0  -1.25 -0.9 0  -1.2 -0.9 0  -1.15 -0.9 0  -1.1 -0.9 0  -1.05 -0.9 0  -1 -0.9 0  -0.9500000000000002 -0.9 0  -0.9000000000000004 -0.9 0  -0.8499999999999996 -0.9 0  -0.7999999999999998 -0.9 0  -0.75 -0.9 0  -0.7000000000000002 -0.9 0  -0.6500000000000004 -0.9 0  -0.5999999999999996 -0.9 0  -0.5499999999999998 -0.9 0  -0.5 -0.9 0  -0.4500000000000002 -0.9 0  -0.4000000000000004 -0.9 0  -0.3499999999999996 -0.9 0  -0.2999999999999998 -0.9 0  -0.25 -0.9 0  -0.2000000000000002 -0.9 0  -0.1500000000000004 -0.9 0  -0.09999999999999964 -0.9 0  -0.04999999999999982 -0.9 0  0 -0.9 0  0.04999999999999982 -0.9 0  0.09999999999999964 -0.9 0  0.1500000000000004 -0.9 0  0.2000000000000002 -0.9 0  0.25 -0.9 0  0.2999999999999998 -0.9 0  0.3499999999999996 -0.9 0  0.4000000000000004 -0.9 0  0.4500000000000002 -0.9 0  0.5 -0.9 0  0.5499999999999998 -0.9 0  0.5999999999999996 -0.9 0  0.6500000000000004 -0.9 0  0.7000000000000002 -0.9 0  0.75 -0.9 0  0.7999999999999998 -0.9 0  0.8499999999999996 -0.9 0  0.9000000000000004 -0.9 0  0.9500000000000002 -0.9 0  1 -0.9 0  1.05 -0.9 0  1.1 -0.9 0  1.15 -0.9 0  1.2 -0.9 0  1.25 -0.9 0  1.3 -0.9 0  1.35 -0.9 0  1.4 -0.9 0  1.45 -0.9 0  1.5 -0.9 0  1.55 -0.9 0  1.6 -0.9 0  1.65 -0.9 0  1.7 -0.9 0  1.75 -0.9 0  1.8 -0.9 0  1.85 -0.9 0  1.9 -0.9 0  1.95 -0.9 0  2 -0.9 0  2.05 -0.9 0  2.1 -0.9 0  2.15 -0.9 0  2.2 -0.9 0  2.25 -0.9 0  2.3 -0.9 0  2.35 -0.9 0  2.4 -0.9 0  2.45 -0.9 0  2.5 -0.9 0  2.55 -0.9 0  2.6 -0.9 0  2.65 -0.9 0  2.7 -0.9 0  2.75 -0.9 0  2.8 -0.9 0  2.85 -0.9 0  2.9 -0.9 0  2.95 -0.9 0  3 -0.9 0  3.050000000000001 -0.9 0  3.1 -0.9 0  3.15 -0.9 0  3.199999999999999 -0.9 0  3.25 -0.9 0  3.300000000000001 -0.9 0  3.35 -0.9 0  3.4 -0.9 0  3.449999999999999 -0.9 0  3.5 -0.9 0  3.550000000000001 -0.9 0  3.6 -0.9 0  3.65 -0.9 0  3.699999999999999 -0.9 0  3.75 -0.9 0  3.800000000000001 -0.9 0  3.85 -0.9 0  3.9 -0.9 0  3.949999999999999 -0.9 0  4 -0.9 0  4.050000000000001 -0.9 0  4.1 -0.9 0  4.15 -0.9 0  4.199999999999999 -0.9 0  4.25 -0.9 0  4.300000000000001 -0.9 0  4.35 -0.9 0  4.4 -0.9 0  4.449999999999999 -0.9 0  4.5 -0.9 0  4.550000000000001 -0.9 0  4.6 -0.9 0  4.65 -0.9 0  4.699999999999999 -0.9 0  4.75 -0.9 0  4.800000000000001 -0.9 0  4.85 -0.9 0  4.9 -0.9 0  4.949999999999999 -0.9 0  5 -0.9 0  -5 -0.85 0  -4.95 -0.85 0  -4.9 -0.85 0  -4.85 -0.85 0  -4.8 -0.85 0  -4.75 -0.85 0  -4.7 -0.85 0  -4.65 -0.85 0  -4.6 -0.85 0  -4.55 -0.85 0  -4.5 -0.85 0  -
[...]
<PointData  Vectors="f_15"> 
<DataArray  type="Float64"  Name="f_15"  NumberOfComponents="3" format="ascii">2.7546899179256519e+00 0.0000000000000000e+00 0.0000000000000000e+00  2.7542408026054166e+00 4.1654119649974328e-02 0.0000000000000000e+00  2.7528649480270406e+00 8.3223514178007010e-02 0.0000000000000000e+00  2.7505860006393608e+00 1.2459904127100094e-01 0.0000000000000000e+00  2.7473952034739133e+00 1.6570298885537738e-01 0.0000000000000000e+00  2.7433127667967332e+00 2.0644510237230948e-01 0.0000000000000000e+00  2.7383257941730892e+00 2.4675675783304679e-01 0.0000000000000000e+00  2.7324804414960195e+00 2.8656032029660788e-01 0.0000000000000000e+00  2.7257559083957501e+00 3.2581082249140547e-01 0.0000000000000000e+00  2.7182059977216877e+00 3.6445251407817159e-01 0.0000000000000000e+00  2.7098306960484901e+00 4.0245815218797115e-01 0.0000000000000000e+00  2.7006848514558714e+00 4.3980773899862902e-01 0.0000000000000000e+00  2.6907728224237717e+00 4.7649431343840276e-01 0.0000000000000000e+00  2.6801764136797406e+00 5.1252430248714453e-01 0.0000000000000000e+00  2.6688943675708576e+00 5.4792159482917624e-01 0.0000000000000000e+00  2.6570175806493310e+00 5.8271519723761711e-01 0.0000000000000000e+00  2.6445636960994312e+00 6.1694058504333915e-01 0.0000000000000000e+00  2.6316154890105046e+00 6.5066414508374004e-01 0.0000000000000000e+00  2.6181943495369366e+00 6.8391277603923351e-01 0.0000000000000000e+00  2.6043953298020450e+00 7.1677388512537787e-01 0.0000000000000000e+00  2.5902236071069153e+00 7.4927793375761398e-01 0.0000000000000000e+00  2.5757742182365377e+00 7.8151051416233042e-01 0.0000000000000000e+00  2.5610567981112609e+00 8.1348533151445879e-01 0.0000000000000000e+00  2.5461435020907830e+00 8.4531543959273847e-01 0.0000000000000000e+00  2.5310445784301909e+00 8.7695892531967001e-01 0.0000000000000000e+00  2.5158285308645949e+00 9.0855287698142728e-01 0.0000000000000000e+00  2.5004843699426611e+00 9.4003430058733140e-01 0.0000000000000000e+00  2.4850798161700656e+00 9.7152144246486538e-01 0.0000000000000000e+00  2.4696024830917929e+00 1.0029347469765211e+00 0.0000000000000000e+00  2.4540949178758402e+00 1.0344207271050931e+00 0.0000000000000000e+00  2.4385551834819270e+00 1.0658274373965957e+00 0.0000000000000000e+00  2.4230164373470551e+00 1.0973432256582343e+00 0.0000000000000000e+00  2.4074623168312352e+00 1.1288034583463062e+00 0.0000000000000000e+00  2.3919328059392830e+00 1.1603601013341718e+00 0.0000000000000000e+00  2.3764107791616955e+00 1.1918653786610069e+00 0.0000000000000000e+00  2.3609152957981667e+00 1.2234953086935867e+00 0.0000000000000000e+00  2.3454482451458052e+00 1.2550346220370001e+00 0.0000000000000000e+00  2.3300200068925951e+00 1.2866929259981958e+00 0.0000000000000000e+00  2.3146199891026797e+00 1.3183090548316967e+00 0.0000000000000000e+00  2.2992739691796769e+00 1.3499504954762156e+00 0.0000000000000000e+00  2.2839665327401879e+00 1.3815973605352680e+00 0.0000000000000000e+00  2.2687113470507305e+00 1.4132640380454757e+00 0.0000000000000000e+00  2.2535056691095328e+00 1.4448800432074147e+00 0.0000000000000000e+00  2.2383658178179227e+00 1.4765284625704329e+00 0.0000000000000000e+00  2.2232685594073498e+00 1.5081459365006704e+00 0.0000000000000000e+00  2.2082523217894248e+00 1.5397224615993761e+00 0.0000000000000000e+00  2.1932877533534292e+00 1.5712773386138952e+00 0.0000000000000000e+00  2.1784022725958261e+00 1.6028143412642761e+00 0.0000000000000000e+00  2.1635814567324978e+00 1.6342693621434221e+00 0.0000000000000000e+00  2.1488497256228238e+00 1.6656590405427674e+00 0.0000000000000000e+00  2.1341854839234413e+00 1.6970644117275384e+00 0.0000000000000000e+00  2.1196209463901932e+00 1.7282585184133856e+00 0.0000000000000000e+00  2.1051391818761900e+00 1.7594920455356227e+00 0.0000000000000000e+00  2.0907630613778783e+00 1.7905202183351856e+00 0.0000000000000000e+00  2.0764819481165522e+00 1.8215164984489849e+00 0.0000000000000000e+00  2.0623293860321259e+00 1.8522594315135883e+00 0.0000000000000000e+00  2.0482837356256383e+00 1.8829883629124420e+00 0.0000000000000000e+00  2.0343823787241995e+00 1.9133639867624452e+00 0.0000000000000000e+00  2.0206274491467107e+00 1.9436590862760503e+00 0.0000000000000000e+00  2.0070340638407012e+00 1.9736040000107422e+00 0.0000000000000000e+00  1.9936207226089477e+00 2.0033033688454585e+00 0.0000000000000000e+00  1.9804261738916697e+00 2.0325750774249922e+00 0.0000000000000000e+00  1.9674562937599576e+00 2.0615058949105500e+00 0.0000000000000000e+00  1.9547674172889213e+00 2.0898241000081583e+00 0.0000000000000000e+00  1.9424039314730088e+00 2.1175714677253623e+00 0.0000000000000000e+00  1.9304198405154702e+00 2.1445159192156993e+00 0.0000000000000000e+00  1.9188931060932821e+00 2.1705138286013534e+00 0.0000000000000000e+00  1.9079241170099301e+00 2.1953470765987357e+00 0.0000000000000000e+00  1.8976250260765113e+00 2.2187035173082745e+00 0.0000000000000000e+00  1.8881389915206144e+00 2.2402914724271601e+00 0.0000000000000000e+00  1.8796224271249464e+00 2.2596929529731380e+00 0.0000000000000000e+00  1.8722525596298363e+00 2.2765596869646898e+00 0.0000000000000000e+00  1.8661455752199847e+00 2.2905008050854021e+00 0.0000000000000000e+00  1.8613754707278403e+00 2.3014638908951519e+00 0.0000000000000000e+00  1.8579139632745867e+00 2.3093624491203295e+00 0.0000000000000000e+00  1.8555763014355353e+00 2.3147629163444052e+00 0.0000000000000000e+00  1.8540818541559017e+00 2.3181446528056062e+00 0.0000000000000000e+00  1.8531914061369616e+00 2.3202395330691381e+00 0.0000000000000000e+00  1.8525924197557662e+00 2.3215494591482986e+00 0.0000000000000000e+00  1.8521703910217713e+00 2.3225788953267461e+00 0.0000000000000000e+00  1.8518281727748500e+00 2.3232838775814098e+00 0.0000000000000000e+00  1.8515324623850333e+00 2.3240422856212080e+00 0.0000000000000000e+00  1.8512297800252686e+00 2.3246328885608465e+00 0.0000000000000000e+00  1.8509949966226531e+00 2.3252652157701723e+00 0.0000000000000000e+00  1.8507281738705006e+00 2.3257675770238544e+00 0.0000000000000000e+00  1.8505139975738112e+00 2.3263526724692216e+00 0.0000000000000000e+00  1.8502949141357983e+00 2.3267414701001101e+00 0.0000000000000000e+00  1.8501191342498806e+00 2.3272463844456737e+00 0.0000000000000000e+00  1.8499173580333821e+00 2.3275835042558026e+00 0.0000000000000000e+00  1.8497767143635415e+00 2.3280073057988857e+00 0.0000000000000000e+00  1.8496051491370706e+00 2.3282842548523250e+00 0.0000000000000000e+00  1.8494834916975436e+00 2.3286540720765276e+00 0.0000000000000000e+00  1.8493467518295219e+00 2.3288519467635549e+00 0.0000000000000000e+00  1.8492566029586461e+00 2.3291563768610879e+00 0.0000000000000000e+00  1.8491351943102501e+00 2.3293135983899154e+00 0.0000000000000000e+00  1.8490618334179312e+00 2.3295744435320751e+00 0.0000000000000000e+00  1.8489681990905629e+00 2.3296832184213767e+00 0.0000000000000000e+00  1.8489063271758661e+00 2.3299061037062461e+00 0.0000000000000000e+00  1.8488247304180661e+00 2.3299844000252872e+00 0.0000000000000000e+00  1.8487879351419456e+00 2.3301595782939799e+00 0.0000000000000000e+00  1.8487124153527086e+00 2.3302201604781603e+00 0.0000000000000000e+00  1.8486793945659274e+00 2.3303771453540278e+00 0.0000000000000000e+00  1.8486270744856588e+00 2.3304002475184644e+00 0.0000000000000000e+00  1.8485955835790213e+00 2.3305443926716212e+00 0.0000000000000000e+00  1.8485418248188819e+00 2.3305614264736416e+00 0.0000000000000000e+00  1.8485379404132645e+00 2.3306581655220371e+00 0.0000000000000000e+00  1.8484810206795415e+00 2.3306778078888959e+00 0.0000000000000000e+00  1.8484713317186332e+00 2.3307761865029253e+00 0.0000000000000000e+00  1.8484340444919589e+00 2.3307655322551830e+00 0.0000000000000000e+00  1.8484265976031697e+00 2.3308508485371555e+00 0.0000000000000000e+00  1.8483841607589711e+00 2.3308444179330894e+00 0.0000000000000000e+00  1.8483957201948382e+00 2.3308982585571223e+00 0.0000000000000000e+00  1.8483445444051592e+00 2.3309114972077301e+00 0.0000000000000000e+00  1.8483517474647821e+00 2.3309605698285787e+00 0.0000000000000000e+00  1.8483250893650847e+00 2.3309290114689984e+00 0.0000000000000000e+00  1.8483245371016261e+00 2.3309934094934830e+00 0.0000000000000000e+00  1.8482882626549026e+00 2.3309756621481799e+00 0.0000000000000000e+00  1.8483006775996007e+00 2.3310181906866223e+00 0.0000000000000000e+00  1.8482698818245411e+00 2.3309909630993615e+00 0.0000000000000000e+00  1.8482754841408755e+00 2.3310374559925182e+00 0.0000000000000000e+00  1.8482480168070572e+00 2.3310044312055722e+00 0.0000000000000000e+00  1.8482534267988502e+00 2.3310527688993847e+00 0.0000000000000000e+00  1.8482297974421662e+00 2.3310083560726738e+00 0.0000000000000000e+00  1.8482372176166126e+00 2.3310507601618018e+00 0.0000000000000000e+00  1.8482097254973533e+00 2.3310235500579752e+00 0.0000000000000000e+00  1.8482211826844899e+00 2.3310496960638321e+00 0.0000000000000000e+00  1.8481881245988740e+00 2.3310225411833758e+00 0.0000000000000000e+00  1.8482123379344986e+00 2.3310290232889153e+00 0.0000000000000000e+00  1.8481744255868984e+00 2.3310092782077958e+00 0.0000000000000000e+00  1.8481860924850759e+00 2.3310396269974913e+00 0.0000000000000000e+00  1.8481627831195275e+00 2.3309936934145683e+00 0.0000000000000000e+00  1.8481884479208177e+00 2.3310029122986284e+00 0.0000000000000000e+00  1.8481267040617011e+00 2.3310202678142020e+00 0.0000000000000000e+00  1.8481778518229188e+00 2.3309716728518501e+00 0.0000000000000000e+00  1.8481304158242333e+00 2.3309587037528043e+00 0.0000000000000000e+00  1.8481486738913082e+00 2.3309628965788178e+00 0.0000000000000000e+00  1.8481136270687522e+00 2.3309299404294750e+00 0.0000000000000000e+00  1.8481512625065275e+00 2.3309002037949051e+00 0.0000000000000000e+00  1.8480924117311703e+00 2.3309189520731888e+00 0.0000000000000000e+00  1.8481298600441993e+00 2.3308820417592213e+00 0.0000000000000000e+00  1.8480959184558829e+00 2.3308538973063340e+00 0.0000000000000000e+00  1.8481051188110380e+00 2.3308377450199851e+00 0.0000000000000000e+00  1.8480862256464405e+00 2.3307531494392384e+00 0.0000000000000000e+00  1.8480932078636556e+00 2.3307070055229246e+00 0.0000000000000000e+00  1.8480726732209796e+00 2.3305759074829133e+00 0.0000000000000000e+00  1.8480787263396914e+00 2.3304785352311415e+00 0.0000000000000000e+00  1.8480637810098781e+00 2.3303017238233621e+00 0.0000000000000000e+00  1.8480582793829474e+00 2.3301618999359754e+00 0.0000000000000000e+00  1.8480583437100258e+00 2.3298838042001169e+00 0.0000000000000000e+00  1.8480416287778250e+00 2.3297288134284293e+00 0.0000000000000000e+00  1.8480406944635994e+00 2.3293723669087378e+00 0.0000000000000000e+00  1.8480349628166450e+00 2.3291360158784364e+00 0.0000000000000000e+00  1.8480227204620281e+00 2.3287815302439614e+00 0.0000000000000000e+00  1.8480200874019972e+00 2.3285185615874244e+00 0.0000000000000000e+00  1.8480077775838617e+00 2.3281459927738810e+00 0.0000000000000000e+00  1.8480089825921113e+00 2.3279397654326397e+00 0.0000000000000000e+00  1.8479874250092554e+00 2.3276054637191748e+00 0.0000000000000000e+00  1.8479930720789850e+00 2.3274580530852358e+00 0.0000000000000000e+00  1.8479717298312628e+00 2.3271659433851015e+00 0.0000000000000000e+00  1.8479815198812823e+00 2.3271239673189372e+00 0.0000000000000000e+00  1.8479369091668318e+00 2.3268509274187030e+00 0.0000000000000000e+00  1.8479824717872488e+00 2.3268857632129589e+00 0.0000000000000000e+00  1.8479068637692619e+00 2.3266274241049660e+00 0.0000000000000000e+00  1.8479678221021700e+00 2.3267674206196918e+00 0.0000000000000000e+00  1.8478783952126900e+00 2.3264283628394677e+00 0.0000000000000000e+00  1.8479776597683024e+00 2.3267198561503259e+00 0.0000000000000000e+00  1.8478217526120069e+00 2.3262717006655671e+00 0.0000000000000000e+00  1.8479978614296499e+00 2.3267126792232409e+00 0.0000000000000000e+00  1.8477838646942844e+00 2.3261113804973097e+00 0.0000000000000000e+00  1.8480075996726990e+00 2.3267528636006598e+00 0.0000000000000000e+00  1.8477295682028723e+00 2.3259486385302894e+00 0.0000000000000000e+00  1.8480591790855745e+00 2.3268112059952970e+00 0.0000000000000000e+00  1.8476487561059831e+00 2.3257580141487377e+00 0.0000000000000000e+00  1.8480896465054473e+00 2.3268913925066790e+00 0.0000000000000000e+00  1.8476393646049332e+00 2.3256334760729271e+00 0.0000000000000000e+00  1.8480425722596201e+00 2.3267982888324714e+00 0.0000000000000000e+00  1.8476853626276526e+00 2.3257506507931804e+00 0.0000000000000000e+00  1.8479752662873798e+00 2.3265615521442400e+00 0.0000000000000000e+00  1.8477484447047867e+00 2.3258895368062484e+00 0.0000000000000000e+00  1.8478199313626358e+00 2.3262804169070077e+00 0.0000000000000000e+00  1.8480069580252978e+00 2.3263884169556284e+00 0.0000000000000000e+00  1.8473122440146390e+00 2.3250824066934972e+00 0.0000000000000000e+00  1.8487094341747579e+00 2.3281983794780809e+00 0.0000000000000000e+00  1.8463364038657599e+00 2.3225743562051040e+00 0.0000000000000000e+00  1.8497434012989893e+00 2.3307375006909181e+00 0.0000000000000000e+00  1.8452633908991278e+00 2.3201439903966685e+00 0.0000000000000000e+00  1.8505822272519696e+00 2.3325865506067927e+00 0.0000000000000000e+00  1.8445191116527697e+00 2.3183202209147575e+00 0.0000000000000000e+00  1.8512790544819893e+00 2.3348799523286101e+00 0.0000000000000000e+00  1.8433848801617236e+00 2.3145136812926692e+00 0.0000000000000000e+00  1.8527909435459842e+00 2.3399458974677283e+00 0.0000000000000000e+00  1.8417968171293313e+00 2.3096704452607772e+00 0.0000000000000000e+00  1.8531466811841049e+00 2.3411615278512699e+00 0.0000000000000000e+00  1.8436494714749803e+00 2.3148120489080251e+00 0.0000000000000000e+00  1.8488653807766338e+00 2.3278075671111109e+00 0.0000000000000000e+00  1.8440389469283642e+00 2.3440937166716402e+00 0.0000000000000000e+00  1.8482834695751396e+00 2.3004739511194194e+00 0.0000000000000000e+00  2.2283192430868888e+00 1.5089815461595304e+00 0.0000000000000000e+00  2.6826048943048457e+00 4.5492115865778027e-01 0.0000000000000000e+00  2.9060705739871358e+00 1.2464953060026024e-01 0.0000000000000000e+00  2.8994728726903283e+00 0.0000000000000000e+00 0.0000000000000000e+00  2.7546939297625541e+00 0.0000000000000000e+00 -6.3173689986030174e-06  2.7542375540604533e+00 4.1661220024878792e-02 2.5626041439626582e-06  2.7528630788965236e+00 8.3223635882336167e-02 -4.3968729289104031e-06  2.7505841056993705e+00 1.2460308825944845e-01 3.1520487358238106e-06  2.7473952104347856e+00 1.6570290200976151e-01 -3.1600951943899907e-06  2.7433042854566208e+00 2.0645011654053888e-01 2.5884444821537448e-06  2.7383294761860903e+00 2.4675523911435662e-01 -2.1803602926395203e-06  2.7324726203112331e+00 2.8656490946904989e-01 1.9986611902716300e-06  2.7257550292756036e+00 3.2581095047018627e-01 -1.2592066887163248e-06  2.7182015458623630e+00 3.6445394182003027e-01 1.1652585648503469e-06  2.7098314312700840e+00 4.0245971654516610e-01 -6.3303758900256426e-08  2.7006756331150239e+00 4.3980880536818567e-01 2.1070410600721618e-07  2.6907782785993288e+00 4.7649386074068473e-01 6.4527989357343591e-07  2.6801679115489887e+00 5.1252582495426025e-01 -3.4661308975587542e-08  2.6688961735712184e+00 5.4792237332558424e-01 6.7483590161825399e-07  2.6570139547114167e+00 5.8271212438357323e-01 -2.3242784933344416e-07  2.6445659590864277e+00 6.1694588587588861e-01 9.1104175400925351e-07  2.6316087943429030e+00 6.5065894071170527e-01 -5.1130396790708745e-07  2.6182018837569054e+00 6.8391657063144029e-01 5.5602255683160830e-07  2.6043883780844888e+00 7.1677197648902580e-01 2.4800011261008382e-07  2.5902286826129775e+00 7.4928225589420339e-01 -5.9080213454386316e-07  2.5757727401751942e+00 7.8150325702825096e-01 1.0437254998476353e-06  2.5610602364673678e+00 8.1349973432594191e-01 -9.6244302830104896e-07  2.5461405521705540e+00 8.4530214639504053e-01 1.1340452578836794e-06  2.5310526059981373e+00 8.7697323980544373e-01 -1.1755590083937674e-06  2.5158231250491343e+00 9.0854651942383513e-01 1.7173401330916837e-06  2.5004907267548013e+00 9.4004562191080554e-01 -1.6536050592965324e-06  2.4850791858799401e+00 9.7150906305448925e-01 1.9240014468066791e-06  2.4696039794186904e+00 1.0029610398423461e+00 -1.3279904179155330e-06  2.4540941487018126e+00 1.0343961751948620e+00 1.7139690190053844e-06  2.4385598573701457e+00 1.0658527928409633e+00 -1.3932664339852848e-06  2.4230106748574269e+00 1.0973307391262308e+00 2.4060898806178858e-06  2.4074663764283488e+00 1.1288172639053666e+00 -2.6519107640885014e-06  2.3919310543771366e+00 1.1603419047172694e+00 4.5754391332197464e-06  2.3764082752221296e+00 1.1918963806440008e+00 -5.9871832790078249e-06  2.3609140786625655e+00 1.2234612867859700e+00 9.3686559118765644e-06  2.3454498232760641e+00 1.2550531480206790e+00 -1.3163114896983623e-05  2.3300116465681291e+00 1.2866925493914136e+00 2.0521553811812204e-05  2.3146235616713007e+00 1.3182848776660727e+00 -3.0010185718458403e-05  2.2992682094530910e+00 1.3499647863226794e+00 4.2140743263855722e-05  2.2839658338039230e+00 1.3815793988879437e+00 -5.2307935979930367e-05  2.2687044263784855e+00 1.4132614577431628e+00 5.8313368401333422e-05  2.2535108952467677e+00 1.4448480225916620e+00 -5.6791970398470386e-05  2.2383524807354602e+00 1.4765578375105859e+00 4.9135277510067385e-05  2.2232736088293970e+00 1.5080840065643497e+00 -3.7151341272392287e-05  2.2082443476654947e+00 1.5397325053805377e+00 2.5218311531080329e-05  2.1932856793940565e+00 1.5712652985417555e+00 -1.5749681463287385e-05  2.1783952574912555e+00 1.6027845122587479e+00 1.1430063385943788e-05  2.1635812802049665e+00 1.6342354912908361e+00 -1.1948313634562674e-05  2.1488386244473676e+00 1.6656916784119011e+00 1.5325155014134700e-05  2.1341831743462158e+00 1.6969824964124063e+00 -1.6502503807515111e-05  2.1196127191354455e+00 1.7282816652282076e+00 1.2800841059368787e-05  2.1051332522238555e+00 1.7594502144513737e+00 -6.0746081241738006e-06  2.0907522676159536e+00 1.7905173528476772e+00 1.0461847042104439e-06  2.0764800182988656e+00 1.8214590501944619e+00 -3.7259026266988032e-07  2.0623169709868683e+00 1.8522844061380783e+00 2.1794072998299476e-06  2.0482766658649596e+00 1.8829132125349839e+00 -4.1043705429391335e-06  2.0343775006420577e+00 1.9133722094911894e+00 4.3824300690427204e-06  2.0206163924535869e+00 1.9436242172118083e+00 -2.3587065895503127e-06  2.0070225879965524e+00 1.9735836565374330e+00 -4.8998994858311583e-07  1.9936167988561886e+00 2.0032637289622484e+00 1.0822909712222438e-06  1.9804110119141609e+00 2.0325897579229864e+00 1.5692860173625864e-06  1.9674443631371661e+00 2.0614600322718397e+00 -4.5006054700883696e-06  1.9547587623972005e+00 2.0898191810604811e+00 4.6219389610265426e-06  1.9423883195061071e+00 2.1175626842381985e+00 -4.0559393067428264e-06  1.9304007793355222e+00 2.1445126997807935e+00 4.2267841695216651e-06  1.9188764784147232e+00 2.1705239204101363e+00 -5.7999894387491951e-06  1.9079018198676958e+00 2.1953554360497507e+00 5.9517592980470051e-06  1.8976021839002688e+00 2.2187176711154399e+00 -8.0408115036410448e-06  1.8881135025113882e+00 2.2403139301987656e+00 8.7914904167670862e-06  1.8796074162493526e+00 2.2597106152903708e+00 -7.1692692617290780e-06  1.8722302285191472e+00 2.2765665204537773e+00 8.9184786122853800e-06  1.8661269840235455e+00 2.2905363819951363e+00 -4.9914483566395394e-06  1.8613762200036186e+00 2.3014339547255083e+00 1.2966285968782695e-05  1.8579213179497829e+00 2.3093540750544168e+00 -5.7173534837800297e-06  1.8555792495402188e+00 2.3147354032346485e+00 1.0758417848361769e-05  1.8541197950866328e+00 2.3180804336606120e+00 -1.0511229933908957e-05  1.8531992436374707e+00 2.3201886512545742e+00 5.4558214356799949e-06  1.8525972352771507e+00 2.3215633416253838e+00 -1.2025705142679357e-05  1.8521734600406612e+00 2.3225299721987951e+00 7.7487608802416871e-06  1.8518201045201796e+00 2.3233340697971983e+00 -1.3125273096632968e-05  1.8514965638391547e+00 2.3240641277799319e+00 1.1498313847559702e-05  1.8512301111301648e+00 2.3246691613767347e