<?xml version="1.0"?>
<VTKFile type="UnstructuredGrid"  version="0.1"  >
<UnstructuredGrid>
<Piece  NumberOfPoints="8241" NumberOfCells="16000">
<Points>
<DataArray  type="Float64"  NumberOfComponents="3"  format="ascii">-5 -1 0  -4.95 -1 0  -4.9 -1 0  -4.85 -1 0  -4.8 -1 0  -4.75 -1 0  -4.7 -1 0  -4.65 -1 0  -4.6 -1 0  -4.55 -1 0  -4.5 -1 0  -4.45 -1 0  -4.4 -1 0  -4.35 -1 0  -4.3 -1 0  -4.25 -1 0  -4.2 -1 0  -4.15 -1 0  -4.1 -1 0  -4.05 -1 0  -4 -1 0  -3.95 -1 0  -3.9 -1 0  -3.85 -1 0  -3.8 -1 0  -3.75 -1 0  -3.7 -1 0  -3.65 -1 0  -3.6 -1 0  -3.55 -1 0  -3.5 -1 0  -3.45 -1 0  -3.4 -1 0  -3.35 -1 0  -3.3 -1 0  -3.25 -1 0  -3.2 -1 0  -3.15 -1 0  -3.1 -1 0  -3.05 -1 0  -3 -1 0  -2.95 -1 0  -2.9 -1 0  -2.85 -1 0  -2.8 -1 0  -2.75 -1 0  -2.7 -1 0  -2.65 -1 0  -2.6 -1 0  -2.55 -1 0  -2.5 -1 0  -2.45 -1 0  -2.4 -1 0  -2.35 -1 0  -2.3 -1 0  -2.25 -1 0  -2.2 -1 0  -2.15 -1 0  -2.1 -1 0  -2.05 -1 0  -2 -1 0  -1.95 -1 0  -1.9 -1 0  -1.85 -1 0  -1.8 -1 0  -1.75 -1 0  -1.7 -1 0  -1.65 -1 0  -1.6 -1 0  -1.55 -1 0  -1.5 -1 0  -1.45 -1 0  -1.4 -1 0  -1.35 -1 0  -1.3 -1 0  -1.25 -1 0  -1.2 -1 0  -1.15 -1 0  -1.1 -1 0  -1.05 -1 0  -1 -1 0  -0.9500000000000002 -1 0  -0.9000000000000004 -1 0  -0.8499999999999996 -1 0  -0.7999999999999998 -1 0  -0.75 -1 0  -0.7000000000000002 -1 0  -0.6500000000000004 -1 0  -0.5999999999999996 -1 0  -0.5499999999999998 -1 0  -0.5 -1 0  -0.4500000000000002 -1 0  -0.4000000000000004 -1 0  -0.3499999999999996 -1 0  -0.2999999999999998 -1 0  -0.25 -1 0  -0.2000000000000002 -1 0  -0.1500000000000004 -1 0  -0.09999999999999964 -1 0  -0.04999999999999982 -1 0  0 -1 0  0.04999999999999982 -1 0  0.09999999999999964 -1 0  0.1500000000000004 -1 0  0.2000000000000002 -1 0  0.25 -1 0  0.2999999999999998 -1 0  0.3499999999999996 -1 0  0.4000000000000004 -1 0  0.4500000000000002 -1 0  0.5 -1 0  0.5499999999999998 -1 0  0.5999999999999996 -1 0  0.6500000000000004 -1 0  0.7000000000000002 -1 0  0.75 -1 0  0.7999999999999998 -1 0  0.8499999999999996 -1 0  0.9000000000000004 -1 0  0.9500000000000002 -1 0  1 -1 0  1.05 -1 0  1.1 -1 0  1.15 -1 0  1.2 -1 0  1.25 -1 0  1.3 -1 0  1.35 -1 0  1.4 -1 0  1.45 -1 0  1.5 -1 0  1.55 -1 0  1.6 -1 0  1.65 -1 0  1.7 -1 0  1.75 -1 0  1.8 -1 0  1.85 -1 0  1.9 -1 0  1.95 -1 0  2 -1 0  2.05 -1 0  2.1 -1 0  2.15 -1 0  2.2 -1 0  2.25 -1 0  2.3 -1 0  2.35 -1 0  2.4 -1 0  2.45 -1 0  2.5 -1 0  2.55 -1 0  2.6 -1 0  2.65 -1 0  2.7 -1 0  2.75 -1 0  2.8 -1 0  2.85 -1 0  2.9 -1 0  2.95 -1 0  3 -1 0  3.050000000000001 -1 0  3.1 -1 0  3.15 -1 0  3.199999999999999 -1 0  3.25 -1 0  3.300000000000001 -1 0  3.35 -1 0  3.4 -1 0  3.449999999999999 -1 0  3.5 -1 0  3.550000000000001 -1 0  3.6 -1 0  3.65 -1 0  3.699999999999999 -1 0  3.75 -1 0  3.800000000000001 -1 0  3.85 -1 0  3.9 -1 0  3.949999999999999 -1 0  4 -1 0  4.050000000000001 -1 0  4.1 -1 0  4.15 -1 0  4.199999999999999 -1 0  4.25 -1 0  4.300000000000001 -1 0  4.35 -1 0  4.4 -1 0  4.449999999999999 -1 0  4.5 -1 0  4.550000000000001 -1 0  4.6 -1 0  4.65 -1 0  4.699999999999999 -1 0  4.75 -1 0  4.800000000000001 -1 0  4.85 -1 0  4.9 -1 0  4.949999999999999 -1 0  5 -1 0  -5 -0.95 0  -4.95 -0.95 0  -4.9 -0.95 0  -4.85 -0.95 0  -4.8 -0.95 0  -4.75 -0.95 0  -4.7 -0.95 0  -4.65 -0.95 0  -4.6 -0.95 0  -4.55 -0.95 0  -4.5 -0.95 0  -4.45 -0.95 0  -4.4 -0.95 0  -4.35 -0.95 0  -4.3 -0.95 0  -4.25 -0.95 0  -4.2 -0.95 0  -4.15 -0.95 0  -4.1 -0.95 0  -4.05 -0.95 0  -4 -0.95 0  -3.95 -0.95 0  -3.9 -0.95 0  -3.85 -0.95 0  -3.8 -0.95 0  -3.75 -0.95 0  -3.7 -0.95 0  -3.65 -0.95 0  -3.6 -0.95 0  -3.55 -0.95 0  -3.5 -0.95 0  -3.45 -0.95 0  -3.4 -0.95 0  -3.35 -0.95 0  -3.3 -0.95 0  -3.25 -0.95 0  -3.2 -0.95 0  -3.15 -0.95 0  -3.1 -0.95 0  -3.05 -0.95 0  -3 -0.95 0  -2.95 -0.95 0  -2.9 -0.95 0  -2.85 -0.95 0  -2.8 -0.95 0  -2.75 -0.95 0  -2.7 -0.95 0  -2.65 -0.95 0  -2.6 -0.95 0  -2.55 -0.95 0  -2.5 -0.95 0  -2.45 -0.95 0  -2.4 -0.95 0  -2.35 -0.95 0  -2.3 -0.95 0  -2.25 -0.95 0  -2.2 -0.95 0  -2.15 -0.95 0  -2.1 -0.95 0  -2.05 -0.95 0  -2 -0.95 0  -1.95 -0.95 0  -1.9 -0.95 0  -1.85 -0.95 0  -1.8 -0.95 0  -1.75 -0.95 0  -1.7 -0.95 0  -1.65 -0.95 0  -1.6 -0.95 0  -1.55 -0.95 0  -1.5 -0.95 0  -1.45 -0.95 0  -1.4 -0.95 0  -1.35 -0.95 0  -1.3 -0.95 0  -1.25 -0.95 0  -1.2 -0.95 0  -1.15 -0.95 0  -1.1 -0.95 0  -1.05 -0.95 0  -1 -0.95 0  -0.9500000000000002 -0.95 0  -0.9000000000000004 -0.95 0  -0.8499999999999996 -0.95 0  -0.7999999999999998 -0.95 0  -0.75 -0.95 0  -0.7000000000000002 -0.95 0  -0.6500000000000004 -0.95 0  -0.5999999999999996 -0.95 0  -0.5499999999999998 -0.95 0  -0.5 -0.95 0  -0.4500000000000002 -0.95 0  -0.4000000000000004 -0.95 0  -0.3499999999999996 -0.95 0  -0.2999999999999998 -0.95 0  -0.25 -0.95 0  -0.2000000000000002 -0.95 0  -0.1500000000000004 -0.95 0  -0.09999999999999964 -0.95 0  -0.04999999999999982 -0.95 0  0 -0.95 0  0.04999999999999982 -0.95 0  0.09999999999999964 -0.95 0  0.1500000000000004 -0.95 0  0.2000000000000002 -0.95 0  0.25 -0.95 0  0.2999999999999998 -0.95 0  0.3499999999999996 -0.95 0  0.4000000000000004 -0.95 0  0.4500000000000002 -0.95 0  0.5 -0.95 0  0.5499999999999998 -0.95 0  0.5999999999999996 -0.95 0  0.6500000000000004 -0.95 0  0.7000000000000002 -0.95 0  0.75 -0.95 0  0.7999999999999998 -0.95 0  0.8499999999999996 -0.95 0  0.9000000000000004 -0.95 0  0.9500000000000002 -0.95 0  1 -0.95 0  1.05 -0.95 0  1.1 -0.95 0  1.15 -0.95 0  1.2 -0.95 0  1.25 -0.95 0  1.3 -0.95 0  1.35 -0.95 0  1.4 -0.95 0  1.45 -0.95 0  1.5 -0.95 0  1.55 -0.95 0  1.6 -0.95 0  1.65 -0.95 0  1.7 -0.95 0  1.75 -0.95 0  1.8 -0.95 0  1.85 -0.95 0  1.9 -0.95 0  1.95 -0.95 0  2 -0.95 0  2.05 -0.95 0  2.1 -0.95 0  2.15 -0.95 0  2.2 -0.95 0  2.25 -0.95 0  2.3 -0.95 0  2.35 -0.95 0  2.4 -0.95 0  2.45 -0.95 0  2.5 -0.95 0  2.55 -0.95 0  2.6 -0.95 0  2.65 -0.95 0  2.7 -0.95 0  2.75 -0.95 0  2.8 -0.95 0  2.85 -0.95 0  2.9 -0.95 0  2.95 -0.95 0  3 -0.95 0  3.050000000000001 -0.95 0  3.1 -0.95 0  3.15 -0.95 0  3.199999999999999 -0.95 0  3.25 -0.95 0  3.300000000000001 -0.95 0  3.35 -0.95 0  3.4 -0.95 0  3.449999999999999 -0.95 0  3.5 -0.95 0  3.550000000000001 -0.95 0  3.6 -0.95 0  3.65 -0.95 0  3.699999999999999 -0.95 0  3.75 -0.95 0  3.800000000000001 -0.95 0  3.85 -0.95 0  3.9 -0.95 0  3.949999999999999 -0.95 0  4 -0.95 0  4.050000000000001 -0.95 0  4.1 -0.95 0  4.15 -0.95 0  4.199999999999999 -0.95 0  4.25 -0.95 0  4.300000000000001 -0.95 0  4.35 -0.95 0  4.4 -0.95 0  4.449999999999999 -0.95 0  4.5 -0.95 0  4.550000000000001 -0.95 0  4.6 -0.95 0  4.65 -0.95 0  4.699999999999999 -0.95 0  4.75 -0.95 0  4.800000000000001 -0.95 0  4.85 -0.95 0  4.9 -0.95 0  4.949999999999999 -0.95 0  5 -0.95 0  -5 -0.9 0  -4.95 -0.9 0  -4.9 -0.9 0  -4.85 -0.9 0  -4.8 -0.9 0  -4.75 -0.9 0  -4.7 -0.9 0  -4.65 -0.9 0  -4.6 -0.9 0  -4.55 -0.9 0  -4.5 -0.9 0  -4.45 -0.9 0  -4.4 -0.9 0  -4.35 -0.9 0  -4.3 -0.9 0  -4.25 -0.9 0  -4.2 -0.9 0  -4.15 -0.9 0  -4.1 -0.9 0  -4.05 -0.9 0  -4 -0.9 0  -3.95 -0.9 0  -3.9 -0.9 0  -3.85 -0.9 0  -3.8 -0.9 0  -3.75 -0.9 0  -3.7 -0.9 0  -3.65 -0.9 0  -3.6 -0.9 0  -3.55 -0.9 0  -3.5 -0.9 0  -3.45 -0.9 0  -3.4 -0.9 0  -3.35 -0.9 0  -3.3 -0.9 0  -3.25 -0.9 0  -3.2 -0.9 0  -3.15 -0.9 0  -3.1 -0.9 0  -3.05 -0.9 0  -3 -0.9 0  -2.95 -0.9 0  -2.9 -0.9 0  -2.85 -0.9 0  -2.8 -0.9 0  -2.75 -0.9 0  -2.7 -0.9 0  -2.65 -0.9 0  -2.6 -0.9 0  -2.55 -0.9 0  -2.5 -0.9 0  -2.45 -0.9 0  -2.4 -0.9 0  -2.35 -0.9 0  -2.3 -0.9 0  -2.25 -0.9 0  -2.2 -0.9 0  -2.15 -0.9 0  -2.1 -0.9 0  -2.05 -0.9 0  -2 -0.9 0  -1.95 -0.9 0  -1.9 -0.9 0  -1.85 -0.9 0  -1.8 -0.9 0  -1.75 -0.9 0  -1.7 -0.9 0  -1.65 -0.9 0  -1.6 -0.9 0  -1.55 -0.9 0  -1.5 -0.9 0  -1.45 -0.9 0  -1.4 -0.9 0  -1.35 -0.9 0  -1.3 -0.9 0  -1.25 -0.9 0  -1.2 -0.9 0  -1.15 -0.9 0  -1.1 -0.9 0  -1.05 -0.9 0  -1 -0.9 0  -0.9500000000000002 -0.9 0  -0.9000000000000004 -0.9 0  -0.8499999999999996 -0.9 0  -0.7999999999999998 -0.9 0  -0.75 -0.9 0  -0.7000000000000002 -0.9 0  -0.6500000000000004 -0.9 0  -0.5999999999999996 -0.9 0  -0.5499999999999998 -0.9 0  -0.5 -0.9 0  -0.4500000000000002 -0.9 0  -0.4000000000000004 -0.9 0  -0.3499999999999996 -0.9 0  -0.2999999999999998 -0.9 0  -0.25 -0.9 0  -0.2000000000000002 -0.9 0  -0.1500000000000004 -0.9 0  -0.09999999999999964 -0.9 0  -0.04999999999999982 -0.9 0  0 -0.9 0  0.04999999999999982 -0.9 0  0.09999999999999964 -0.9 0  0.1500000000000004 -0.9 0  0.2000000000000002 -0.9 0  0.25 -0.9 0  0.2999999999999998 -0.9 0  0.3499999999999996 -0.9 0  0.4000000000000004 -0.9 0  0.4500000000000002 -0.9 0  0.5 -0.9 0  0.5499999999999998 -0.9 0  0.5999999999999996 -0.9 0  0.6500000000000004 -0.9 0  0.7000000000000002 -0.9 0  0.75 -0.9 0  0.7999999999999998 -0.9 0  0.8499999999999996 -0.9 0  0.9000000000000004 -0.9 0  0.9500000000000002 -0.9 0  1 -0.9 0  1.05 -0.9 0  1.1 -0.9 0  1.15 -0.9 0  1.2 -0.9 0  1.25 -0.9 0  1.3 -0.9 0  1.35 -0.9 0  1.4 -0.9 0  1.45 -0.9 0  1.5 -0.9 0  1.55 -0.9 0  1.6 -0.9 0  1.65 -0.9 0  1.7 -0.9 0  1.75 -0.9 0  1.8 -0.9 0  1.85 -0.9 0  1.9 -0.9 0  1.95 -0.9 0  2 -0.9 0  2.05 -0.9 0  2.1 -0.9 0  2.15 -0.9 0  2.2 -0.9 0  2.25 -0.9 0  2.3 -0.9 0  2.35 -0.9 0  2.4 -0.9 0  2.45 -0.9 0  2.5 -0.9 0  2.55 -0.9 0  2.6 -0.9 0  2.65 -0.9 0  2.7 -0.9 0  2.75 -0.9 0  2.8 -0.9 0  2.85 -0.9 0  2.9 -0.9 0  2.95 -0.9 0  3 -0.9 0  3.050000000000001 -0.9 0  3.1 -0.9 0  3.15 -0.9 0  3.199999999999999 -0.9 0  3.25 -0.9 0  3.300000000000001 -0.9 0  3.35 -0.9 0  3.4 -0.9 0  3.449999999999999 -0.9 0  3.5 -0.9 0  3.550000000000001 -0.9 0  3.6 -0.9 0  3.65 -0.9 0  3.699999999999999 -0.9 0  3.75 -0.9 0  3.800000000000001 -0.9 0  3.85 -0.9 0  3.9 -0.9 0  3.949999999999999 -0.9 0  4 -0.9 0  4.050000000000001 -0.9 0  4.1 -0.9 0  4.15 -0.9 0  4.199999999999999 -0.9 0  4.25 -0.9 0  4.300000000000001 -0.9 0  4.35 -0.9 0  4.4 -0.9 0  4.449999999999999 -0.9 0  4.5 -0.9 0  4.550000000000001 -0.9 0  4.6 -0.9 0  4.65 -0.9 0  4.699999999999999 -0.9 0  4.75 -0.9 0  4.800000000000001 -0.9 0  4.85 -0.9 0  4.9 -0.9 0  4.949999999999999 -0.9 0  5 -0.9 0  -5 -0.85 0  -4.95 -0.85 0  -4.9 -0.85 0  -4.85 -0.85 0  -4.8 -0.85 0  -4.75 -0.85 0  -4.7 -0.85 0  -4.65 -0.85 0  -4.6 -0.85 0  -4.55 -0.85 0  -4.5 -0.85 0  -
[...]
<PointData  Vectors="f_15"> 
<DataArray  type="Float64"  Name="f_15"  NumberOfComponents="3" format="ascii">1.9188792170230560e+00 0.0000000000000000e+00 0.0000000000000000e+00  1.9188618899956367e+00 4.3704027314866639e-02 0.0000000000000000e+00  1.9187990839795765e+00 8.7314828567695582e-02 0.0000000000000000e+00  1.9187015781357621e+00 1.3102722309062256e-01 0.0000000000000000e+00  1.9185581253320652e+00 1.7464337594806020e-01 0.0000000000000000e+00  1.9183807597810605e+00 2.1830607512752306e-01 0.0000000000000000e+00  1.9181544203037983e+00 2.6190297600109297e-01 0.0000000000000000e+00  1.9178952595968972e+00 3.0550651441976301e-01 0.0000000000000000e+00  1.9175869954153688e+00 3.4906559780770591e-01 0.0000000000000000e+00  1.9172422256715353e+00 3.9258942376877415e-01 0.0000000000000000e+00  1.9168495464765056e+00 4.3609227464517392e-01 0.0000000000000000e+00  1.9164192264513771e+00 4.7952252371376347e-01 0.0000000000000000e+00  1.9159373256767882e+00 5.2294992284523523e-01 0.0000000000000000e+00  1.9154183708673731e+00 5.6625928441075235e-01 0.0000000000000000e+00  1.9148459601637042e+00 6.0959365007636013e-01 0.0000000000000000e+00  1.9142329896877646e+00 6.5278340769439935e-01 0.0000000000000000e+00  1.9135657274786551e+00 6.9594989415392183e-01 0.0000000000000000e+00  1.9128566186556686e+00 7.3905275098889622e-01 0.0000000000000000e+00  1.9120877480888687e+00 7.8200910781054445e-01 0.0000000000000000e+00  1.9112774426468608e+00 8.2496008128992238e-01 0.0000000000000000e+00  1.9104035227192946e+00 8.6774489628576923e-01 0.0000000000000000e+00  1.9094835007633746e+00 9.1048143235478818e-01 0.0000000000000000e+00  1.9084997623610338e+00 9.5303493060046807e-01 0.0000000000000000e+00  1.9074631457662705e+00 9.9558162605080358e-01 0.0000000000000000e+00  1.9063618457256568e+00 1.0378571096588380e+00 0.0000000000000000e+00  1.9052010161641482e+00 1.0801116875451415e+00 0.0000000000000000e+00  1.9039751374290308e+00 1.1221633499398131e+00 0.0000000000000000e+00  1.9026790262146198e+00 1.1640516303296395e+00 0.0000000000000000e+00  1.9013232311231207e+00 1.2057738793694381e+00 0.0000000000000000e+00  1.8998781888622847e+00 1.2473381850251215e+00 0.0000000000000000e+00  1.8983859755176216e+00 1.2886588291883929e+00 0.0000000000000000e+00  1.8967800408877311e+00 1.3297681550564446e+00 0.0000000000000000e+00  1.8951418097387449e+00 1.3707299636741692e+00 0.0000000000000000e+00  1.8933614772345324e+00 1.4112893120679273e+00 0.0000000000000000e+00  1.8915724655759936e+00 1.4517657864277633e+00 0.0000000000000000e+00  1.8895986742345243e+00 1.4917778932256607e+00 0.0000000000000000e+00  1.8876545191590839e+00 1.5316857350661499e+00 0.0000000000000000e+00  1.8854748842562545e+00 1.5709789939786618e+00 0.0000000000000000e+00  1.8833662288218085e+00 1.6103288098175816e+00 0.0000000000000000e+00  1.8809699113732234e+00 1.6487715322433556e+00 0.0000000000000000e+00  1.8786983731413442e+00 1.6873957376570028e+00 0.0000000000000000e+00  1.8760708542460269e+00 1.7249312396167147e+00 0.0000000000000000e+00  1.8736436569370041e+00 1.7627096108148330e+00 0.0000000000000000e+00  1.8707874633589054e+00 1.7991023463003477e+00 0.0000000000000000e+00  1.8682114764651097e+00 1.8359551923287341e+00 0.0000000000000000e+00  1.8651438317342237e+00 1.8710061465163321e+00 0.0000000000000000e+00  1.8624511280814771e+00 1.9066802950761532e+00 0.0000000000000000e+00  1.8592011937760065e+00 1.9402110302941888e+00 0.0000000000000000e+00  1.8564516798207125e+00 1.9744272083296048e+00 0.0000000000000000e+00  1.8530963277583854e+00 2.0060706955842060e+00 0.0000000000000000e+00  1.8503821882351252e+00 2.0385314525509695e+00 0.0000000000000000e+00  1.8470572160753602e+00 2.0678353338000095e+00 0.0000000000000000e+00  1.8445476147300490e+00 2.0979817924618787e+00 0.0000000000000000e+00  1.8414587634226292e+00 2.1244140860680858e+00 0.0000000000000000e+00  1.8394117616273320e+00 2.1515223806668820e+00 0.0000000000000000e+00  1.8368719468622241e+00 2.1742759148946820e+00 0.0000000000000000e+00  1.8356156340916927e+00 2.1975197807378342e+00 0.0000000000000000e+00  1.8339880957465833e+00 2.2157271105177414e+00 0.0000000000000000e+00  1.8338376738430289e+00 2.2343053712998158e+00 0.0000000000000000e+00  1.8333432776899443e+00 2.2475127551121656e+00 0.0000000000000000e+00  1.8343471475568647e+00 2.2612883257061971e+00 0.0000000000000000e+00  1.8348397063150395e+00 2.2699429493086685e+00 0.0000000000000000e+00  1.8365992994734344e+00 2.2798492592750637e+00 0.0000000000000000e+00  1.8375686584932407e+00 2.2853199450868056e+00 0.0000000000000000e+00  1.8395033909993233e+00 2.2927662959391215e+00 0.0000000000000000e+00  1.8404453154838747e+00 2.2964100820512803e+00 0.0000000000000000e+00  1.8421817663859730e+00 2.3023944582745339e+00 0.0000000000000000e+00  1.8428948532037051e+00 2.3049497861908144e+00 0.0000000000000000e+00  1.8442988054782457e+00 2.3098599091244032e+00 0.0000000000000000e+00  1.8447899071334048e+00 2.3116858024960845e+00 0.0000000000000000e+00  1.8458710895478487e+00 2.3156442292142163e+00 0.0000000000000000e+00  1.8461719794130802e+00 2.3169039516585057e+00 0.0000000000000000e+00  1.8469891959721527e+00 2.3200603687127273e+00 0.0000000000000000e+00  1.8471590568473513e+00 2.3208753121506436e+00 0.0000000000000000e+00  1.8477239128042344e+00 2.3233040671473986e+00 0.0000000000000000e+00  1.8478440891193462e+00 2.3238874425267286e+00 0.0000000000000000e+00  1.8481928020587757e+00 2.3256340591829239e+00 0.0000000000000000e+00  1.8482676859736986e+00 2.3260708299816923e+00 0.0000000000000000e+00  1.8484824381825187e+00 2.3273477131410112e+00 0.0000000000000000e+00  1.8485262068558572e+00 2.3276188916942240e+00 0.0000000000000000e+00  1.8486106620778813e+00 2.3285145706991042e+00 0.0000000000000000e+00  1.8486893751135958e+00 2.3287979327638566e+00 0.0000000000000000e+00  1.8486569416006395e+00 2.3292764040533682e+00 0.0000000000000000e+00  1.8487412937382626e+00 2.3295956806948421e+00 0.0000000000000000e+00  1.8486837468582342e+00 2.3299067752779004e+00 0.0000000000000000e+00  1.8487332147360962e+00 2.3300850142855323e+00 0.0000000000000000e+00  1.8486609427342702e+00 2.3303224663170590e+00 0.0000000000000000e+00  1.8487305391994282e+00 2.3305251086538195e+00 0.0000000000000000e+00  1.8486091980079313e+00 2.3305487791423078e+00 0.0000000000000000e+00  1.8486918069381819e+00 2.3307990623540955e+00 0.0000000000000000e+00  1.8485974965116767e+00 2.3308382790520250e+00 0.0000000000000000e+00  1.8486128384557416e+00 2.3308912128361037e+00 0.0000000000000000e+00  1.8485837035727277e+00 2.3310409502308000e+00 0.0000000000000000e+00  1.8485785411939413e+00 2.3310545792518407e+00 0.0000000000000000e+00  1.8485256202697715e+00 2.3311027208089627e+00 0.0000000000000000e+00  1.8485514839319699e+00 2.3311737248934286e+00 0.0000000000000000e+00  1.8485189885239783e+00 2.3312436161408940e+00 0.0000000000000000e+00  1.8484697459651409e+00 2.3311550517358870e+00 0.0000000000000000e+00  1.8485330994894833e+00 2.3313820842119632e+00 0.0000000000000000e+00  1.8484391520918599e+00 2.3312078929747462e+00 0.0000000000000000e+00  1.8484770846164340e+00 2.3313859549850822e+00 0.0000000000000000e+00  1.8484438394392355e+00 2.3313043308631918e+00 0.0000000000000000e+00  1.8484678329494715e+00 2.3314253861272962e+00 0.0000000000000000e+00  1.8483730169638350e+00 2.3312817536760106e+00 0.0000000000000000e+00  1.8484985802984344e+00 2.3315286955285472e+00 0.0000000000000000e+00  1.8483477735504441e+00 2.3312904443102833e+00 0.0000000000000000e+00  1.8484449250484902e+00 2.3315048095006010e+00 0.0000000000000000e+00  1.8483743015626026e+00 2.3313798352856017e+00 0.0000000000000000e+00  1.8484288902536399e+00 2.3315049952149689e+00 0.0000000000000000e+00  1.8483160907531055e+00 2.3313542536197565e+00 0.0000000000000000e+00  1.8484646167907677e+00 2.3315729011659325e+00 0.0000000000000000e+00  1.8482965494070593e+00 2.3313666630738541e+00 0.0000000000000000e+00  1.8484159425573807e+00 2.3315259925966645e+00 0.0000000000000000e+00  1.8483251368444114e+00 2.3314303817455135e+00 0.0000000000000000e+00  1.8484031789912685e+00 2.3315425585665532e+00 0.0000000000000000e+00  1.8482796210899437e+00 2.3313795757327971e+00 0.0000000000000000e+00  1.8484297111086665e+00 2.3315775947366717e+00 0.0000000000000000e+00  1.8482655888537298e+00 2.3314262247880495e+00 0.0000000000000000e+00  1.8483951771352267e+00 2.3315041335061295e+00 0.0000000000000000e+00  1.8482811200574234e+00 2.3314579220678131e+00 0.0000000000000000e+00  1.8483881100692836e+00 2.3315485226043555e+00 0.0000000000000000e+00  1.8482500678597003e+00 2.3313920184318548e+00 0.0000000000000000e+00  1.8484000378046301e+00 2.3315639500086589e+00 0.0000000000000000e+00  1.8482379244276601e+00 2.3314478450605689e+00 0.0000000000000000e+00  1.8483854732177938e+00 2.3314647014068899e+00 0.0000000000000000e+00  1.8482385337542535e+00 2.3315229471124082e+00 0.0000000000000000e+00  1.8483715526729227e+00 2.3314382864682601e+00 0.0000000000000000e+00  1.8482318372188400e+00 2.3314815178150097e+00 0.0000000000000000e+00  1.8483754716453946e+00 2.3315249990233151e+00 0.0000000000000000e+00  1.8482039516641451e+00 2.3313357238211814e+00 0.0000000000000000e+00  1.8483820388023793e+00 2.3316716378633084e+00 0.0000000000000000e+00  1.8482061154069997e+00 2.3312363577342641e+00 0.0000000000000000e+00  1.8483478759170406e+00 2.3316249616182474e+00 0.0000000000000000e+00  1.8482193984729034e+00 2.3314177862346659e+00 0.0000000000000000e+00  1.8483518721975905e+00 2.3313220312450658e+00 0.0000000000000000e+00  1.8481717241724436e+00 2.3317522670446400e+00 0.0000000000000000e+00  1.8483856875185152e+00 2.3309620895436201e+00 0.0000000000000000e+00  1.8481598804556154e+00 2.3320548824156706e+00 0.0000000000000000e+00  1.8483421820943542e+00 2.3307484101357896e+00 0.0000000000000000e+00  1.8481924565112851e+00 2.3320805277798344e+00 0.0000000000000000e+00  1.8483429454932745e+00 2.3309017525592397e+00 0.0000000000000000e+00  1.8481138217791733e+00 2.3317429766439721e+00 0.0000000000000000e+00  1.8484303645772429e+00 2.3312987624885397e+00 0.0000000000000000e+00  1.8480455904336643e+00 2.3313574190113195e+00 0.0000000000000000e+00  1.8484234048381198e+00 2.3315196681919934e+00 0.0000000000000000e+00  1.8480746285762817e+00 2.3312777445269028e+00 0.0000000000000000e+00  1.8483986853999101e+00 2.3314761360984719e+00 0.0000000000000000e+00  1.8480390930927504e+00 2.3312744757078794e+00 0.0000000000000000e+00  1.8484622834659006e+00 2.3315207088121128e+00 0.0000000000000000e+00  1.8479479588838843e+00 2.3312132879838940e+00 0.0000000000000000e+00  1.8484178075270201e+00 2.3315947578092309e+00 0.0000000000000000e+00  1.8478896677969061e+00 2.3314608950188020e+00 0.0000000000000000e+00  1.8481349861719409e+00 2.3317412847900147e+00 0.0000000000000000e+00  1.8476642313016411e+00 2.3319428599593182e+00 0.0000000000000000e+00  1.8478387127262959e+00 2.3321486503653044e+00 0.0000000000000000e+00  1.8473742920756271e+00 2.3321109540420411e+00 0.0000000000000000e+00  1.8478275834999356e+00 2.3321655786986693e+00 0.0000000000000000e+00  1.8476296887117565e+00 2.3314346063367832e+00 0.0000000000000000e+00  1.8483063289877837e+00 2.3313334603140961e+00 0.0000000000000000e+00  1.8482800966815689e+00 2.3301581200481825e+00 0.0000000000000000e+00  1.8488190238362137e+00 2.3303909389478452e+00 0.0000000000000000e+00  1.8488194538787270e+00 2.3300453534457812e+00 0.0000000000000000e+00  1.8482407441576836e+00 2.3283479350274243e+00 0.0000000000000000e+00  1.8503604730534282e+00 2.3334547828585230e+00 0.0000000000000000e+00  1.8458343021518997e+00 2.3218051413446532e+00 0.0000000000000000e+00  1.8557625134294737e+00 2.3368471932337016e+00 0.0000000000000000e+00  1.8250802143743508e+00 2.3533577677755790e+00 0.0000000000000000e+00  1.9199310661632987e+00 2.2082841681130825e+00 0.0000000000000000e+00  2.4542507629830594e+00 9.5742368195682126e-01 0.0000000000000000e+00  2.8783277945933836e+00 1.6247842655717037e-01 0.0000000000000000e+00  2.9760173062322988e+00 6.8931886611879973e-03 0.0000000000000000e+00  2.9629551934014318e+00 8.7822516393491843e-03 0.0000000000000000e+00  2.9682163748799142e+00 -3.9787114741231472e-03 0.0000000000000000e+00  2.9723285159258874e+00 -6.3729644150949142e-03 0.0000000000000000e+00  2.9708606667560487e+00 -5.6460604933310024e-03 0.0000000000000000e+00  2.9720879140576586e+00 -9.1674763174161844e-03 0.0000000000000000e+00  2.9727415337558210e+00 -9.9772133072234970e-03 0.0000000000000000e+00  2.9718215200586382e+00 -8.1255642434052526e-03 0.0000000000000000e+00  2.9715409374417576e+00 -8.4062723496924341e-03 0.0000000000000000e+00  2.9719020510394403e+00 -8.5664343777822685e-03 0.0000000000000000e+00  2.9718983212523340e+00 -9.0343230423747100e-03 0.0000000000000000e+00  2.9719355946972179e+00 -8.7148586887862128e-03 0.0000000000000000e+00  2.9717906994982326e+00 -8.9804016881015712e-03 0.0000000000000000e+00  2.9717830135982375e+00 -8.4315027211044127e-03 0.0000000000000000e+00  2.9717455435753881e+00 -8.9586368972400451e-03 0.0000000000000000e+00  2.9718395761953054e+00 -8.6875475746601080e-03 0.0000000000000000e+00  2.9717188863356028e+00 -8.7806009330752971e-03 0.0000000000000000e+00  2.9718009589889167e+00 -8.8199213466756705e-03 0.0000000000000000e+00  2.9716854823967074e+00 -8.9124324582820092e-03 0.0000000000000000e+00  2.9717799467322643e+00 -8.4585750557144030e-03 0.0000000000000000e+00  2.9716663047487111e+00 -9.1985542803353533e-03 0.0000000000000000e+00  2.9717825707667136e+00 -8.5700031321537095e-03 0.0000000000000000e+00  2.9716347592845094e+00 -8.8145712435250666e-03 0.0000000000000000e+00  2.9717708590322336e+00 -9.5632596824785157e-03 0.0000000000000000e+00  2.9716173144144724e+00 -8.5297993581723627e-03 0.0000000000000000e+00  2.9717574419418025e+00 -9.4762403875652892e-03 0.0000000000000000e+00  2.9715912796967912e+00 -9.7690333326904168e-03 0.0000000000000000e+00  2.9717500826658516e+00 -8.4344058393596953e-03 0.0000000000000000e+00  2.9715709863503457e+00 -1.4820992116425010e-02 0.0000000000000000e+00  2.9717053804899241e+00 -9.9991964898865551e-03 0.0000000000000000e+00  2.9716004010407309e+00 0.0000000000000000e+00 0.0000000000000000e+00  1.9188861555709160e+00 0.0000000000000000e+00 -2.9347448497705783e-05  1.9188638247123513e+00 4.3672351487094190e-02 3.4758568527716705e-06  1.9188050485661676e+00 8.7362454740715606e-02 1.2296882069950373e-05  1.9187035621412571e+00 1.3101888658575869e-01 -5.6272547557135361e-06  1.9185641175572223e+00 1.7466957600585875e-01 3.5946965117178772e-06  1.9183807206011705e+00 2.1830750743029498e-01 -1.4913902577943779e-06  1.9181598581114694e+00 2.6191910112590938e-01 1.4704302445604476e-06  1.9178954323592332e+00 3.0551356640157229e-01 -1.3636505679144107e-06  1.9175899681352677e+00 3.4906934009081092e-01 1.6515881322236990e-06  1.9172422420225232e+00 3.9260205872778592e-01 -6.9090279420148743e-07  1.9168526716375096e+00 4.3608894739401738e-01 -4.9090031733046304e-07  1.9164171672945256e+00 4.7953966926140090e-01 3.0586584387954819e-06  1.9159406987235026e+00 5.2293111392737446e-01 -6.1425799327605144e-06  1.9154165723507621e+00 5.6629167854447127e-01 1.0140256758010279e-05  1.9148480443954603e+00 6.0956753360123817e-01 -1.3436599744179481e-05  1.9142314670368787e+00 6.5279589216412048e-01 1.5044416772578707e-05  1.9135688240295492e+00 6.9596106186559736e-01 -1.3527522472727865e-05  1.9128538753685762e+00 7.3902793669221900e-01 8.4200673698356088e-06  1.9120918383598811e+00 7.8202962300927348e-01 -1.0242914428449198e-06  1.9112758550487614e+00 8.2494910643005370e-01 -6.9483591024371185e-06  1.9104064724152798e+00 8.6775123654981445e-01 1.2403977225035562e-05  1.9094840548336625e+00 9.1045192691327859e-01 -1.4934941071927614e-05  1.9085026299433767e+00 9.5308538606893400e-01 1.2821112090719530e-05  1.9074642850765873e+00 9.9551902432839701e-01 -7.8019955748896983e-06  1.9063656989608730e+00 1.0378869016964134e+00 -2.6041566101020721e-07  1.9052030107425206e+00 1.0801144263767133e+00 6.5192257637853077e-06  1.9039782571875152e+00 1.1221337870568533e+00 -9.8854006565208313e-06  1.9026844825608507e+00 1.1640573778731653e+00 7.2682238236506033e-06  1.9013224533627022e+00 1.2057889358982108e+00 -3.0111242250658834e-06  1.8998889314830449e+00 1.2473088858059747e+00 -1.9089035083939420e-06  1.8983808472729986e+00 1.2886530669221927e+00 3.0201284135167707e-06  1.8967949376187359e+00 1.3298050583507643e+00 -3.4830060177556394e-06  1.8951314555609466e+00 1.3706704163176058e+00 3.0287532577645614e-06  1.8933840884160651e+00 1.4113324197540957e+00 -6.2794462844731417e-06  1.8915507117740051e+00 1.4517364084337381e+00 1.0539512192030205e-05  1.8896330374868566e+00 1.4918103575916883e+00 -1.6620629752765062e-05  1.8876213893430236e+00 1.5316146210619614e+00 1.9133268807542277e-05  1.8855186643569486e+00 1.5710951933286463e+00 -2.0776789949624958e-05  1.8833218694958755e+00 1.6101850605509873e+00 2.0958478457457320e-05  1.8810289829588236e+00 1.6489105313605932e+00 -2.6030134833289929e-05  1.8786345634681778e+00 1.6872560252638187e+00 3.2060431107771912e-05  1.8761510869286646e+00 1.7250890624977044e+00 -3.9209387146854719e-05  1.8735606537834939e+00 1.7624951947770442e+00 4.2346084767282350e-05  1.8708838560432108e+00 1.7993606631434149e+00 -4.6531726169828383e-05  1.8681099651238890e+00 1.8356597689918353e+00 5.0381552678792811e-05  1.8652598490676735e+00 1.8713140786589757e+00 -5.6584524695501429e-05  1.8623212744560158e+00 1.9063639714620892e+00 6.1260386945259261e-05  1.8593415096406720e+00 1.9405598494514762e+00 -6.7694450179955277e-05  1.8562954589553227e+00 1.9740423880675473e+00 7.1869526859706171e-05  1.8532536996306579e+00 2.0065282783589793e+00 -7.6305196623230090e-05  1.8502034107387191e+00 2.0380572495452003e+00 7.7952842680843076e-05  1.8472334716544070e+00 2.0683585489023670e+00 -8.1922691279546483e-05  1.8443384927495028e+00 2.0974834593685139e+00 8.4337537460046306e-05  1.8416566548451327e+00 2.1249838905416834e+00 -8.8300290507929634e-05  1.8391794518497411e+00 2.1509668378466329e+00 9.0081880836137868e-05  1.8370850525629632e+00 2.1749228819578246e+00 -9.2423922239422355e-05  1.8353710914725203e+00 2.1968882501996538e+00 9.3743343107782908e-05  1.8342208158460258e+00 2.2164159457587389e+00 -9.2453118938247506e-05  1.8335791670528190e+00 2.2336398748329866e+00 9.4778020939131078e-05  1.8335967811510416e+00 2.2482182371447887e+00 -9.1047212044908986e-05  1.8340860050392067e+00 2.2605816984532785e+00 9.2648882013941008e-05  1.8350995241478445e+00 2.2706662307314631e+00 -8.8793478731942179e-05  1.8363452663249811e+00 2.2791231292674747e+00 8.6755100722924866e-05  1.8378268394742774e+00 2.2860420981960576e+00 -8.4794012297377650e-05  1.8392426048649460e+00 2.2920572779686763e+00 7.8027307424609712e-05  1.8406959897985444e+00 2.2971404247762921e+00 -7.3814898478567894e-05  1.8419249329434979e+00 2.3017154678886458e+00 6.5867716040009767e-05  1.8431181466468887e+00 2.3056536311665745e+00 -5.7247766717735080e-05  1.8440776880116767e+00 2.3092404616476263e+00 4.8722586190457583e-05  1.8449899211131247e+00 2.3123017094895459e+00 -3.8159283790493070e-05  1.8456769339143209e+00 2.3150755248525079e+00 2.8552863096998193e-05  1.8463615680717960e+00 2.3174657511907433e+00 -1.7123772444628408e-05  1.8468239914930120e+00 2.3195323657530986e+00 6.2318733542508421e-06  1.8473007651711630e+00 2.3213634524415521e+00 4.5659139656205519e-06  1.8476163186349468e+00 2.3229009876388482e+00 -1.5639369761192704e-05  1.8479286741756524e+00 2.3242489335844336e+00 2.4817340194714633e-05  1.8481099335622795e+00 2.3253419060048199e+00 -3.3639766533467296e-05  1.8483366731555220e+00 2.3263988051672531e+00 3.9333223226796623e-05  1.8484117128714805e+00 2.3270736075957430e+00 -4.3852677270056558e-05  1.8485506637757407e+00 2.3279046017156708e+00 4.5638614332275791e-05  1.8485972126002332e+00 2.3283669477081479e+00 -4.6570019621812438e-05  1.8486550166310387e+00 2.3289301861811094e+00 4.6626129457409342e-05  1.8486612686