<?xml version="1.0"?>
<VTKFile type="UnstructuredGrid"  version="0.1"  >
<UnstructuredGrid>
<Piece  NumberOfPoints="8241" NumberOfCells="16000">
<Points>
<DataArray  type="Float64"  NumberOfComponents="3"  format="ascii">-5 -1 0  -4.95 -1 0  -4.9 -1 0  -4.85 -1 0  -4.8 -1 0  -4.75 -1 0  -4.7 -1 0  -4.65 -1 0  -4.6 -1 0  -4.55 -1 0  -4.5 -1 0  -4.45 -1 0  -4.4 -1 0  -4.35 -1 0  -4.3 -1 0  -4.25 -1 0  -4.2 -1 0  -4.15 -1 0  -4.1 -1 0  -4.05 -1 0  -4 -1 0  -3.95 -1 0  -3.9 -1 0  -3.85 -1 0  -3.8 -1 0  -3.75 -1 0  -3.7 -1 0  -3.65 -1 0  -3.6 -1 0  -3.55 -1 0  -3.5 -1 0  -3.45 -1 0  -3.4 -1 0  -3.35 -1 0  -3.3 -1 0  -3.25 -1 0  -3.2 -1 0  -3.15 -1 0  -3.1 -1 0  -3.05 -1 0  -3 -1 0  -2.95 -1 0  -2.9 -1 0  -2.85 -1 0  -2.8 -1 0  -2.75 -1 0  -2.7 -1 0  -2.65 -1 0  -2.6 -1 0  -2.55 -1 0  -2.5 -1 0  -2.45 -1 0  -2.4 -1 0  -2.35 -1 0  -2.3 -1 0  -2.25 -1 0  -2.2 -1 0  -2.15 -1 0  -2.1 -1 0  -2.05 -1 0  -2 -1 0  -1.95 -1 0  -1.9 -1 0  -1.85 -1 0  -1.8 -1 0  -1.75 -1 0  -1.7 -1 0  -1.65 -1 0  -1.6 -1 0  -1.55 -1 0  -1.5 -1 0  -1.45 -1 0  -1.4 -1 0  -1.35 -1 0  -1.3 -1 0  -1.25 -1 0  -1.2 -1 0  -1.15 -1 0  -1.1 -1 0  -1.05 -1 0  -1 -1 0  -0.9500000000000002 -1 0  -0.9000000000000004 -1 0  -0.8499999999999996 -1 0  -0.7999999999999998 -1 0  -0.75 -1 0  -0.7000000000000002 -1 0  -0.6500000000000004 -1 0  -0.5999999999999996 -1 0  -0.5499999999999998 -1 0  -0.5 -1 0  -0.4500000000000002 -1 0  -0.4000000000000004 -1 0  -0.3499999999999996 -1 0  -0.2999999999999998 -1 0  -0.25 -1 0  -0.2000000000000002 -1 0  -0.1500000000000004 -1 0  -0.09999999999999964 -1 0  -0.04999999999999982 -1 0  0 -1 0  0.04999999999999982 -1 0  0.09999999999999964 -1 0  0.1500000000000004 -1 0  0.2000000000000002 -1 0  0.25 -1 0  0.2999999999999998 -1 0  0.3499999999999996 -1 0  0.4000000000000004 -1 0  0.4500000000000002 -1 0  0.5 -1 0  0.5499999999999998 -1 0  0.5999999999999996 -1 0  0.6500000000000004 -1 0  0.7000000000000002 -1 0  0.75 -1 0  0.7999999999999998 -1 0  0.8499999999999996 -1 0  0.9000000000000004 -1 0  0.9500000000000002 -1 0  1 -1 0  1.05 -1 0  1.1 -1 0  1.15 -1 0  1.2 -1 0  1.25 -1 0  1.3 -1 0  1.35 -1 0  1.4 -1 0  1.45 -1 0  1.5 -1 0  1.55 -1 0  1.6 -1 0  1.65 -1 0  1.7 -1 0  1.75 -1 0  1.8 -1 0  1.85 -1 0  1.9 -1 0  1.95 -1 0  2 -1 0  2.05 -1 0  2.1 -1 0  2.15 -1 0  2.2 -1 0  2.25 -1 0  2.3 -1 0  2.35 -1 0  2.4 -1 0  2.45 -1 0  2.5 -1 0  2.55 -1 0  2.6 -1 0  2.65 -1 0  2.7 -1 0  2.75 -1 0  2.8 -1 0  2.85 -1 0  2.9 -1 0  2.95 -1 0  3 -1 0  3.050000000000001 -1 0  3.1 -1 0  3.15 -1 0  3.199999999999999 -1 0  3.25 -1 0  3.300000000000001 -1 0  3.35 -1 0  3.4 -1 0  3.449999999999999 -1 0  3.5 -1 0  3.550000000000001 -1 0  3.6 -1 0  3.65 -1 0  3.699999999999999 -1 0  3.75 -1 0  3.800000000000001 -1 0  3.85 -1 0  3.9 -1 0  3.949999999999999 -1 0  4 -1 0  4.050000000000001 -1 0  4.1 -1 0  4.15 -1 0  4.199999999999999 -1 0  4.25 -1 0  4.300000000000001 -1 0  4.35 -1 0  4.4 -1 0  4.449999999999999 -1 0  4.5 -1 0  4.550000000000001 -1 0  4.6 -1 0  4.65 -1 0  4.699999999999999 -1 0  4.75 -1 0  4.800000000000001 -1 0  4.85 -1 0  4.9 -1 0  4.949999999999999 -1 0  5 -1 0  -5 -0.95 0  -4.95 -0.95 0  -4.9 -0.95 0  -4.85 -0.95 0  -4.8 -0.95 0  -4.75 -0.95 0  -4.7 -0.95 0  -4.65 -0.95 0  -4.6 -0.95 0  -4.55 -0.95 0  -4.5 -0.95 0  -4.45 -0.95 0  -4.4 -0.95 0  -4.35 -0.95 0  -4.3 -0.95 0  -4.25 -0.95 0  -4.2 -0.95 0  -4.15 -0.95 0  -4.1 -0.95 0  -4.05 -0.95 0  -4 -0.95 0  -3.95 -0.95 0  -3.9 -0.95 0  -3.85 -0.95 0  -3.8 -0.95 0  -3.75 -0.95 0  -3.7 -0.95 0  -3.65 -0.95 0  -3.6 -0.95 0  -3.55 -0.95 0  -3.5 -0.95 0  -3.45 -0.95 0  -3.4 -0.95 0  -3.35 -0.95 0  -3.3 -0.95 0  -3.25 -0.95 0  -3.2 -0.95 0  -3.15 -0.95 0  -3.1 -0.95 0  -3.05 -0.95 0  -3 -0.95 0  -2.95 -0.95 0  -2.9 -0.95 0  -2.85 -0.95 0  -2.8 -0.95 0  -2.75 -0.95 0  -2.7 -0.95 0  -2.65 -0.95 0  -2.6 -0.95 0  -2.55 -0.95 0  -2.5 -0.95 0  -2.45 -0.95 0  -2.4 -0.95 0  -2.35 -0.95 0  -2.3 -0.95 0  -2.25 -0.95 0  -2.2 -0.95 0  -2.15 -0.95 0  -2.1 -0.95 0  -2.05 -0.95 0  -2 -0.95 0  -1.95 -0.95 0  -1.9 -0.95 0  -1.85 -0.95 0  -1.8 -0.95 0  -1.75 -0.95 0  -1.7 -0.95 0  -1.65 -0.95 0  -1.6 -0.95 0  -1.55 -0.95 0  -1.5 -0.95 0  -1.45 -0.95 0  -1.4 -0.95 0  -1.35 -0.95 0  -1.3 -0.95 0  -1.25 -0.95 0  -1.2 -0.95 0  -1.15 -0.95 0  -1.1 -0.95 0  -1.05 -0.95 0  -1 -0.95 0  -0.9500000000000002 -0.95 0  -0.9000000000000004 -0.95 0  -0.8499999999999996 -0.95 0  -0.7999999999999998 -0.95 0  -0.75 -0.95 0  -0.7000000000000002 -0.95 0  -0.6500000000000004 -0.95 0  -0.5999999999999996 -0.95 0  -0.5499999999999998 -0.95 0  -0.5 -0.95 0  -0.4500000000000002 -0.95 0  -0.4000000000000004 -0.95 0  -0.3499999999999996 -0.95 0  -0.2999999999999998 -0.95 0  -0.25 -0.95 0  -0.2000000000000002 -0.95 0  -0.1500000000000004 -0.95 0  -0.09999999999999964 -0.95 0  -0.04999999999999982 -0.95 0  0 -0.95 0  0.04999999999999982 -0.95 0  0.09999999999999964 -0.95 0  0.1500000000000004 -0.95 0  0.2000000000000002 -0.95 0  0.25 -0.95 0  0.2999999999999998 -0.95 0  0.3499999999999996 -0.95 0  0.4000000000000004 -0.95 0  0.4500000000000002 -0.95 0  0.5 -0.95 0  0.5499999999999998 -0.95 0  0.5999999999999996 -0.95 0  0.6500000000000004 -0.95 0  0.7000000000000002 -0.95 0  0.75 -0.95 0  0.7999999999999998 -0.95 0  0.8499999999999996 -0.95 0  0.9000000000000004 -0.95 0  0.9500000000000002 -0.95 0  1 -0.95 0  1.05 -0.95 0  1.1 -0.95 0  1.15 -0.95 0  1.2 -0.95 0  1.25 -0.95 0  1.3 -0.95 0  1.35 -0.95 0  1.4 -0.95 0  1.45 -0.95 0  1.5 -0.95 0  1.55 -0.95 0  1.6 -0.95 0  1.65 -0.95 0  1.7 -0.95 0  1.75 -0.95 0  1.8 -0.95 0  1.85 -0.95 0  1.9 -0.95 0  1.95 -0.95 0  2 -0.95 0  2.05 -0.95 0  2.1 -0.95 0  2.15 -0.95 0  2.2 -0.95 0  2.25 -0.95 0  2.3 -0.95 0  2.35 -0.95 0  2.4 -0.95 0  2.45 -0.95 0  2.5 -0.95 0  2.55 -0.95 0  2.6 -0.95 0  2.65 -0.95 0  2.7 -0.95 0  2.75 -0.95 0  2.8 -0.95 0  2.85 -0.95 0  2.9 -0.95 0  2.95 -0.95 0  3 -0.95 0  3.050000000000001 -0.95 0  3.1 -0.95 0  3.15 -0.95 0  3.199999999999999 -0.95 0  3.25 -0.95 0  3.300000000000001 -0.95 0  3.35 -0.95 0  3.4 -0.95 0  3.449999999999999 -0.95 0  3.5 -0.95 0  3.550000000000001 -0.95 0  3.6 -0.95 0  3.65 -0.95 0  3.699999999999999 -0.95 0  3.75 -0.95 0  3.800000000000001 -0.95 0  3.85 -0.95 0  3.9 -0.95 0  3.949999999999999 -0.95 0  4 -0.95 0  4.050000000000001 -0.95 0  4.1 -0.95 0  4.15 -0.95 0  4.199999999999999 -0.95 0  4.25 -0.95 0  4.300000000000001 -0.95 0  4.35 -0.95 0  4.4 -0.95 0  4.449999999999999 -0.95 0  4.5 -0.95 0  4.550000000000001 -0.95 0  4.6 -0.95 0  4.65 -0.95 0  4.699999999999999 -0.95 0  4.75 -0.95 0  4.800000000000001 -0.95 0  4.85 -0.95 0  4.9 -0.95 0  4.949999999999999 -0.95 0  5 -0.95 0  -5 -0.9 0  -4.95 -0.9 0  -4.9 -0.9 0  -4.85 -0.9 0  -4.8 -0.9 0  -4.75 -0.9 0  -4.7 -0.9 0  -4.65 -0.9 0  -4.6 -0.9 0  -4.55 -0.9 0  -4.5 -0.9 0  -4.45 -0.9 0  -4.4 -0.9 0  -4.35 -0.9 0  -4.3 -0.9 0  -4.25 -0.9 0  -4.2 -0.9 0  -4.15 -0.9 0  -4.1 -0.9 0  -4.05 -0.9 0  -4 -0.9 0  -3.95 -0.9 0  -3.9 -0.9 0  -3.85 -0.9 0  -3.8 -0.9 0  -3.75 -0.9 0  -3.7 -0.9 0  -3.65 -0.9 0  -3.6 -0.9 0  -3.55 -0.9 0  -3.5 -0.9 0  -3.45 -0.9 0  -3.4 -0.9 0  -3.35 -0.9 0  -3.3 -0.9 0  -3.25 -0.9 0  -3.2 -0.9 0  -3.15 -0.9 0  -3.1 -0.9 0  -3.05 -0.9 0  -3 -0.9 0  -2.95 -0.9 0  -2.9 -0.9 0  -2.85 -0.9 0  -2.8 -0.9 0  -2.75 -0.9 0  -2.7 -0.9 0  -2.65 -0.9 0  -2.6 -0.9 0  -2.55 -0.9 0  -2.5 -0.9 0  -2.45 -0.9 0  -2.4 -0.9 0  -2.35 -0.9 0  -2.3 -0.9 0  -2.25 -0.9 0  -2.2 -0.9 0  -2.15 -0.9 0  -2.1 -0.9 0  -2.05 -0.9 0  -2 -0.9 0  -1.95 -0.9 0  -1.9 -0.9 0  -1.85 -0.9 0  -1.8 -0.9 0  -1.75 -0.9 0  -1.7 -0.9 0  -1.65 -0.9 0  -1.6 -0.9 0  -1.55 -0.9 0  -1.5 -0.9 0  -1.45 -0.9 0  -1.4 -0.9 0  -1.35 -0.9 0  -1.3 -0.9 0  -1.25 -0.9 0  -1.2 -0.9 0  -1.15 -0.9 0  -1.1 -0.9 0  -1.05 -0.9 0  -1 -0.9 0  -0.9500000000000002 -0.9 0  -0.9000000000000004 -0.9 0  -0.8499999999999996 -0.9 0  -0.7999999999999998 -0.9 0  -0.75 -0.9 0  -0.7000000000000002 -0.9 0  -0.6500000000000004 -0.9 0  -0.5999999999999996 -0.9 0  -0.5499999999999998 -0.9 0  -0.5 -0.9 0  -0.4500000000000002 -0.9 0  -0.4000000000000004 -0.9 0  -0.3499999999999996 -0.9 0  -0.2999999999999998 -0.9 0  -0.25 -0.9 0  -0.2000000000000002 -0.9 0  -0.1500000000000004 -0.9 0  -0.09999999999999964 -0.9 0  -0.04999999999999982 -0.9 0  0 -0.9 0  0.04999999999999982 -0.9 0  0.09999999999999964 -0.9 0  0.1500000000000004 -0.9 0  0.2000000000000002 -0.9 0  0.25 -0.9 0  0.2999999999999998 -0.9 0  0.3499999999999996 -0.9 0  0.4000000000000004 -0.9 0  0.4500000000000002 -0.9 0  0.5 -0.9 0  0.5499999999999998 -0.9 0  0.5999999999999996 -0.9 0  0.6500000000000004 -0.9 0  0.7000000000000002 -0.9 0  0.75 -0.9 0  0.7999999999999998 -0.9 0  0.8499999999999996 -0.9 0  0.9000000000000004 -0.9 0  0.9500000000000002 -0.9 0  1 -0.9 0  1.05 -0.9 0  1.1 -0.9 0  1.15 -0.9 0  1.2 -0.9 0  1.25 -0.9 0  1.3 -0.9 0  1.35 -0.9 0  1.4 -0.9 0  1.45 -0.9 0  1.5 -0.9 0  1.55 -0.9 0  1.6 -0.9 0  1.65 -0.9 0  1.7 -0.9 0  1.75 -0.9 0  1.8 -0.9 0  1.85 -0.9 0  1.9 -0.9 0  1.95 -0.9 0  2 -0.9 0  2.05 -0.9 0  2.1 -0.9 0  2.15 -0.9 0  2.2 -0.9 0  2.25 -0.9 0  2.3 -0.9 0  2.35 -0.9 0  2.4 -0.9 0  2.45 -0.9 0  2.5 -0.9 0  2.55 -0.9 0  2.6 -0.9 0  2.65 -0.9 0  2.7 -0.9 0  2.75 -0.9 0  2.8 -0.9 0  2.85 -0.9 0  2.9 -0.9 0  2.95 -0.9 0  3 -0.9 0  3.050000000000001 -0.9 0  3.1 -0.9 0  3.15 -0.9 0  3.199999999999999 -0.9 0  3.25 -0.9 0  3.300000000000001 -0.9 0  3.35 -0.9 0  3.4 -0.9 0  3.449999999999999 -0.9 0  3.5 -0.9 0  3.550000000000001 -0.9 0  3.6 -0.9 0  3.65 -0.9 0  3.699999999999999 -0.9 0  3.75 -0.9 0  3.800000000000001 -0.9 0  3.85 -0.9 0  3.9 -0.9 0  3.949999999999999 -0.9 0  4 -0.9 0  4.050000000000001 -0.9 0  4.1 -0.9 0  4.15 -0.9 0  4.199999999999999 -0.9 0  4.25 -0.9 0  4.300000000000001 -0.9 0  4.35 -0.9 0  4.4 -0.9 0  4.449999999999999 -0.9 0  4.5 -0.9 0  4.550000000000001 -0.9 0  4.6 -0.9 0  4.65 -0.9 0  4.699999999999999 -0.9 0  4.75 -0.9 0  4.800000000000001 -0.9 0  4.85 -0.9 0  4.9 -0.9 0  4.949999999999999 -0.9 0  5 -0.9 0  -5 -0.85 0  -4.95 -0.85 0  -4.9 -0.85 0  -4.85 -0.85 0  -4.8 -0.85 0  -4.75 -0.85 0  -4.7 -0.85 0  -4.65 -0.85 0  -4.6 -0.85 0  -4.55 -0.85 0  -4.5 -0.85 0  -
[...]
<PointData  Vectors="f_15"> 
<DataArray  type="Float64"  Name="f_15"  NumberOfComponents="3" format="ascii">9.9959048184387385e+00 0.0000000000000000e+00 0.0000000000000000e+00  1.0003279455257223e+01 3.7298472166239775e-03 0.0000000000000000e+00  9.9967458724840803e+00 -4.1090843761496347e-03 0.0000000000000000e+00  1.0003023624671014e+01 3.7875323819362202e-03 0.0000000000000000e+00  9.9966403039737806e+00 -3.6095913713778999e-03 0.0000000000000000e+00  1.0003404455703583e+01 3.2593960161789452e-03 0.0000000000000000e+00  9.9963949129595875e+00 -3.3089278640622668e-03 0.0000000000000000e+00  1.0003653301575827e+01 3.3209119271737182e-03 0.0000000000000000e+00  9.9961864904973581e+00 -3.4579831226374163e-03 0.0000000000000000e+00  1.0003971932139256e+01 3.4987564456470748e-03 0.0000000000000000e+00  9.9958020174228146e+00 -3.5662931186777975e-03 0.0000000000000000e+00  1.0004419991734684e+01 3.6037193992685462e-03 0.0000000000000000e+00  9.9953558688246122e+00 -3.6814747389042391e-03 0.0000000000000000e+00  1.0004869893085717e+01 3.7530371446647904e-03 0.0000000000000000e+00  9.9948939160735879e+00 -3.8411196741957145e-03 0.0000000000000000e+00  1.0005366613790653e+01 3.9086735012165263e-03 0.0000000000000000e+00  9.9943797762363360e+00 -3.9737567614974217e-03 0.0000000000000000e+00  1.0005860704411999e+01 4.0064028963507706e-03 0.0000000000000000e+00  9.9939403246599809e+00 -4.0314958361046876e-03 0.0000000000000000e+00  1.0006245746158994e+01 4.0342698720960942e-03 0.0000000000000000e+00  9.9935851064803902e+00 -4.0482707512858717e-03 0.0000000000000000e+00  1.0006570928691936e+01 4.0347708122476797e-03 0.0000000000000000e+00  9.9933395559858003e+00 -3.9878075775069263e-03 0.0000000000000000e+00  1.0006657206752410e+01 3.8502163378411405e-03 0.0000000000000000e+00  9.9934346898932596e+00 -3.6644906647242291e-03 0.0000000000000000e+00  1.0006439679364405e+01 3.4518658153796012e-03 0.0000000000000000e+00  9.9936744935178083e+00 -3.2829371410119800e-03 0.0000000000000000e+00  1.0006181642872129e+01 3.0977751993898593e-03 0.0000000000000000e+00  9.9940646114860847e+00 -2.8441245205584396e-03 0.0000000000000000e+00  1.0005511446304213e+01 2.4333050892139693e-03 0.0000000000000000e+00  9.9949988815792423e+00 -1.9560624335825906e-03 0.0000000000000000e+00  1.0004517711274437e+01 1.5111856548706826e-03 0.0000000000000000e+00  9.9958202792775719e+00 -1.2281685479226746e-03 0.0000000000000000e+00  1.0003867831914354e+01 9.8586632309723751e-04 0.0000000000000000e+00  9.9965640621748939e+00 -6.6737488736211075e-04 0.0000000000000000e+00  1.0002768641374661e+01 1.1823787473254548e-04 0.0000000000000000e+00  9.9979478232973769e+00 4.6562925229551175e-04 0.0000000000000000e+00  1.0001496687063884e+01 -9.0675958089099940e-04 0.0000000000000000e+00  9.9987180233917954e+00 1.0446887416169970e-03 0.0000000000000000e+00  1.0001082755954565e+01 -1.0292627750214313e-03 0.0000000000000000e+00  9.9991491006891042e+00 1.2609489875372091e-03 0.0000000000000000e+00  1.0000031753878364e+01 -1.5231852220938065e-03 0.0000000000000000e+00  1.0000300986765129e+01 2.2776557403106149e-03 0.0000000000000000e+00  9.9987861580144273e+00 -1.9609212638947355e-03 0.0000000000000000e+00  1.0000292795621458e+01 2.6555215711047860e-03 0.0000000000000000e+00  9.9983703950354705e+00 -1.0177411818489675e-03 0.0000000000000000e+00  9.9996004735019905e+00 3.1362659522510723e-03 0.0000000000000000e+00  9.9964892474097358e+00 -5.7416090387795312e-05 0.0000000000000000e+00  9.9989453753248281e+00 5.2953357539779833e-03 0.0000000000000000e+00  9.9933405421711807e+00 2.1417172257751625e-03 0.0000000000000000e+00  9.9955420468889749e+00 8.3919725544480232e-03 0.0000000000000000e+00  9.9887565232869893e+00 7.5369428575061395e-03 0.0000000000000000e+00  9.9889036663781994e+00 1.4649558547474521e-02 0.0000000000000000e+00  9.9790095155290786e+00 1.6567438020942363e-02 0.0000000000000000e+00  9.9774260010566458e+00 2.6984796179719099e-02 0.0000000000000000e+00  9.9621761441179864e+00 3.2848809656961853e-02 0.0000000000000000e+00  9.9561459728709707e+00 4.7781621037402251e-02 0.0000000000000000e+00  9.9347120727075122e+00 6.0553711696396693e-02 0.0000000000000000e+00  9.9214423646903196e+00 8.2251769092549887e-02 0.0000000000000000e+00  9.8905303445366801e+00 1.0401249053910311e-01 0.0000000000000000e+00  9.8682731452310986e+00 1.3551894650252286e-01 0.0000000000000000e+00  9.8250266985221053e+00 1.6926506728502774e-01 0.0000000000000000e+00  9.7905648088387025e+00 2.1278411117548990e-01 0.0000000000000000e+00  9.7332424677746054e+00 2.6107637748502099e-01 0.0000000000000000e+00  9.6844001674834441e+00 3.1928042148385777e-01 0.0000000000000000e+00  9.6109393555835290e+00 3.8378934031454670e-01 0.0000000000000000e+00  9.5466837126912267e+00 4.5771818672906506e-01 0.0000000000000000e+00  9.4565918864471907e+00 5.4045546470085104e-01 0.0000000000000000e+00  9.3761328092017635e+00 6.3027865012386197e-01 0.0000000000000000e+00  9.2699331750659422e+00 7.3093562449300520e-01 0.0000000000000000e+00  9.1739927862411541e+00 8.3743223621778839e-01 0.0000000000000000e+00  9.0526191352234875e+00 9.5531320366521122e-01 0.0000000000000000e+00  8.9423381404252265e+00 1.0763194748026348e+00 0.0000000000000000e+00  8.8079921874995843e+00 1.2122346490376570e+00 0.0000000000000000e+00  8.6847047335157068e+00 1.3458650430832393e+00 0.0000000000000000e+00  8.5394182505702894e+00 1.4967367599725958e+00 0.0000000000000000e+00  8.4053884804185444e+00 1.6441529922684437e+00 0.0000000000000000e+00  8.2511210886994419e+00 1.8076933989111685e+00 0.0000000000000000e+00  8.1080890136226991e+00 1.9644476732083012e+00 0.0000000000000000e+00  7.9473975566951465e+00 2.1435340152121212e+00 0.0000000000000000e+00  7.7969140885600305e+00 2.3076887245210340e+00 0.0000000000000000e+00  7.6315338273716629e+00 2.4937996144966235e+00 0.0000000000000000e+00  7.4758458421798233e+00 2.6743525203568757e+00 0.0000000000000000e+00  7.3069316860031623e+00 2.8636475720262342e+00 0.0000000000000000e+00  7.1476626316062823e+00 3.0487149327992848e+00 0.0000000000000000e+00  6.9771014508900135e+00 3.2527028451400088e+00 0.0000000000000000e+00  6.8152650584699623e+00 3.4434567320442055e+00 0.0000000000000000e+00  6.6443826821565537e+00 3.6450406806912281e+00 0.0000000000000000e+00  6.4812635520795459e+00 3.8495937878529656e+00 0.0000000000000000e+00  6.3112289197065969e+00 4.0556087713568516e+00 0.0000000000000000e+00  6.1478390864198404e+00 4.2634447947056255e+00 0.0000000000000000e+00  5.9791717340550905e+00 4.4732011593099639e+00 0.0000000000000000e+00  5.8171596150817075e+00 4.6846900780530651e+00 0.0000000000000000e+00  5.6504925506666588e+00 4.8995420859421923e+00 0.0000000000000000e+00  5.4893705182397534e+00 5.1177918236360895e+00 0.0000000000000000e+00  5.3267996800778326e+00 5.3295225780634228e+00 0.0000000000000000e+00  5.1673663459594357e+00 5.5527957828273937e+00 0.0000000000000000e+00  5.0078697067861393e+00 5.7705010148110265e+00 0.0000000000000000e+00  4.8517395105566301e+00 5.9924083812582083e+00 0.0000000000000000e+00  4.6976852119681105e+00 6.2097134547767254e+00 0.0000000000000000e+00  4.5431856046842860e+00 6.4392038532399134e+00 0.0000000000000000e+00  4.4056295729697483e+00 6.6386776245666237e+00 0.0000000000000000e+00  4.2390993247320736e+00 6.8896588415412605e+00 0.0000000000000000e+00  4.1145746738142872e+00 7.0810299459247830e+00 0.0000000000000000e+00  3.9765651875253276e+00 7.2957292640522402e+00 0.0000000000000000e+00  3.8643122144746118e+00 7.4697858084641400e+00 0.0000000000000000e+00  3.7521185385653655e+00 7.6516383205394076e+00 0.0000000000000000e+00  3.7560110050836468e+00 7.6466411381108648e+00 0.0000000000000000e+00  3.8316483414237088e+00 7.5225042559580748e+00 0.0000000000000000e+00  3.8901028758680405e+00 7.4293613507811758e+00 0.0000000000000000e+00  3.9086348680689338e+00 7.3986427690694070e+00 0.0000000000000000e+00  3.9227315706337986e+00 7.3767678657812512e+00 0.0000000000000000e+00  3.9264438031118978e+00 7.3692057917250802e+00 0.0000000000000000e+00  3.9345118423587238e+00 7.3563819132651167e+00 0.0000000000000000e+00  3.9360414198001488e+00 7.3523377646588619e+00 0.0000000000000000e+00  3.9409515679886176e+00 7.3442375494079055e+00 0.0000000000000000e+00  3.9417693429432084e+00 7.3410598813236767e+00 0.0000000000000000e+00  3.9445743582103483e+00 7.3354491539839994e+00 0.0000000000000000e+00  3.9450327811908146e+00 7.3323923623849918e+00 0.0000000000000000e+00  3.9466758322611870e+00 7.3272324480517321e+00 0.0000000000000000e+00  3.9470011897354444e+00 7.3233254299972312e+00 0.0000000000000000e+00  3.9478027679300820e+00 7.3179805395079116e+00 0.0000000000000000e+00  3.9478616482783031e+00 7.3128800717518869e+00 0.0000000000000000e+00  3.9478803920413501e+00 7.3069011674762328e+00 0.0000000000000000e+00  3.9470855874296285e+00 7.3007897390012468e+00 0.0000000000000000e+00  3.9454066072926626e+00 7.2929435778442349e+00 0.0000000000000000e+00  3.9417215828348908e+00 7.2833307627795305e+00 0.0000000000000000e+00  3.9341595316039317e+00 7.2678260551922174e+00 0.0000000000000000e+00  3.9198219909821796e+00 7.2427623979335767e+00 0.0000000000000000e+00  3.8914273761447249e+00 7.1959624741732302e+00 0.0000000000000000e+00  3.8394299167491850e+00 7.1123425808292211e+00 0.0000000000000000e+00  3.7405367931874842e+00 6.9511757723915597e+00 0.0000000000000000e+00  3.5659334260229443e+00 6.6584870496322957e+00 0.0000000000000000e+00  3.2573068109826022e+00 6.1036430120940794e+00 0.0000000000000000e+00  2.7690476006399765e+00 5.1244689853179208e+00 0.0000000000000000e+00  2.0488058093452195e+00 3.3303850723106034e+00 0.0000000000000000e+00  1.2810781031485758e+00 9.1320912557596368e-01 0.0000000000000000e+00  1.0252356664970368e+00 7.8996113113959224e-02 0.0000000000000000e+00  1.0013597607493305e+00 3.7360993917822994e-03 0.0000000000000000e+00  1.0000155255474257e+00 6.2369788685407085e-04 0.0000000000000000e+00  1.0000246648539968e+00 -4.4753854474875218e-05 0.0000000000000000e+00  1.0000039487072170e+00 -1.2880913359435134e-06 0.0000000000000000e+00  9.9999379872756944e-01 1.6958418298620367e-05 0.0000000000000000e+00  1.0000060222971094e+00 -1.6487498081387156e-05 0.0000000000000000e+00  9.9999472555503466e-01 1.4928081562811152e-05 0.0000000000000000e+00  1.0000041164452689e+00 -1.2003646717467990e-05 0.0000000000000000e+00  9.9999723896901982e-01 8.2547818983593634e-06 0.0000000000000000e+00  1.0000016774540879e+00 -5.0276897654164533e-06 0.0000000000000000e+00  9.9999892331438467e-01 3.0984484832077794e-06 0.0000000000000000e+00  1.0000008403432050e+00 -2.2773194068516307e-06 0.0000000000000000e+00  9.9999926233683811e-01 1.9476216217556624e-06 0.0000000000000000e+00  1.0000006190754231e+00 -1.6442495829247573e-06 0.0000000000000000e+00  9.9999954084249765e-01 1.2392707544374711e-06 0.0000000000000000e+00  1.0000002985482281e+00 -8.1627989416951907e-07 0.0000000000000000e+00  9.9999982318240666e-01 4.8358718135517118e-07 0.0000000000000000e+00  1.0000001040639848e+00 -2.7920188412403280e-07 0.0000000000000000e+00  9.9999993252350994e-01 1.7585727778794950e-07 0.0000000000000000e+00  1.0000000489340286e+00 -1.2575258762538778e-07 0.0000000000000000e+00  9.9999996362262733e-01 9.4098736184203682e-08 0.0000000000000000e+00  1.0000000255110950e+00 -6.6992905061590250e-08 0.0000000000000000e+00  9.9999998362926767e-01 4.3551351547902369e-08 0.0000000000000000e+00  1.0000000097683208e+00 -2.6090405897312933e-08 0.0000000000000000e+00  9.9999999427562658e-01 1.5155527746846527e-08 0.0000000000000000e+00  1.0000000035347094e+00 -9.2021398256321403e-09 0.0000000000000000e+00  9.9999999763528669e-01 6.0881260536417157e-09 0.0000000000000000e+00  1.0000000016435453e+00 -4.2385037742987768e-09 0.0000000000000000e+00  9.9999999888370705e-01 2.9059988393213615e-09 0.0000000000000000e+00  1.0000000007167886e+00 -1.8838500671965670e-09 0.0000000000000000e+00  9.9999999956369123e-01 1.1515734455568867e-09 0.0000000000000000e+00  1.0000000002597285e+00 -6.8306652307874216e-10 0.0000000000000000e+00  9.9999999984214061e-01 4.1133288818124962e-10 0.0000000000000000e+00  1.0000000001004128e+00 -2.5954465356837062e-10 0.0000000000000000e+00  9.9999999993405286e-01 1.7020460617043578e-10 0.0000000000000000e+00  1.0000000000431890e+00 -1.1193847240643881e-10 0.0000000000000000e+00  9.9999999997253530e-01 7.1594109140622406e-11 0.0000000000000000e+00  1.0000000000168752e+00 -4.4137377458293693e-11 0.0000000000000000e+00  9.9999999998983646e-01 2.6557271061825713e-11 0.0000000000000000e+00  1.0000000000061464e+00 -1.5986835945214781e-11 0.0000000000000000e+00  9.9999999999620304e-01 9.8278102480917194e-12 0.0000000000000000e+00  1.0000000000023941e+00 -6.1837922666478814e-12 0.0000000000000000e+00  9.9999999999848410e-01 3.9213040301362651e-12 0.0000000000000000e+00  1.0000000000009486e+00 -2.4591174620080693e-12 0.0000000000000000e+00  9.9999999999941824e-01 1.5128986032468284e-12 0.0000000000000000e+00  1.0000000000003522e+00 -9.1462757525646287e-13 0.0000000000000000e+00  9.9999999999978795e-01 5.5149949020738126e-13 0.0000000000000000e+00  1.0000000000001292e+00 -3.3412832035764784e-13 0.0000000000000000e+00  9.9999999999992084e-01 2.0644065836742331e-13 0.0000000000000000e+00  1.0000000000000491e+00 -1.2668732024679817e-13 0.0000000000000000e+00  9.9999999999997002e-01 8.0029621756326413e-14 0.0000000000000000e+00  1.0000000000000184e+00 -4.8167609649017847e-14 0.0000000000000000e+00  9.9999999999998912e-01 3.0331210761059962e-14 0.0000000000000000e+00  1.0000000000000073e+00 -1.7532586982426533e-14 0.0000000000000000e+00  9.9999999999999623e-01 1.1390410734139859e-14 0.0000000000000000e+00  1.0000000000000029e+00 -6.5135697119139019e-15 0.0000000000000000e+00  9.9999999999999845e-01 4.9292691048727046e-15 0.0000000000000000e+00  1.0000000000000011e+00 -3.4831463101458332e-15 0.0000000000000000e+00  9.9999999999999911e-01 2.3933342085429019e-15 0.0000000000000000e+00  1.0000000000000004e+00 -2.0055140887489429e-15 0.0000000000000000e+00  9.9999999999999933e-01 8.3383318696112389e-16 0.0000000000000000e+00  1.0000000000000004e+00 -2.2432987462949714e-16 0.0000000000000000e+00  9.9999999999999933e-01 0.0000000000000000e+00 0.0000000000000000e+00  9.9992681959446461e+00 0.0000000000000000e+00 -2.6558493703294794e-03  1.0001463072865619e+01 -8.6489705623383649e-04 4.2166772775486763e-04  9.9994502343011114e+00 9.2470779702551393e-04 7.0393056460338582e-04  1.0000620618711210e+01 3.2648082561576914e-04 -1.1015755831359284e-04  9.9998534752248585e+00 -4.4763376505061852e-04 -1.8873995593595187e-04  1.0000288214266815e+01 7.5787924511965508e-04 4.5142190080268925e-04  9.9998189593095894e+00 -5.6088855111549618e-04 -6.1901381711341281e-04  1.0000280275021966e+01 6.2602466757530068e-04 7.5870938313572322e-04  9.9998013373951107e+00 -6.0181403125788104e-04 -8.9865030980920018e-04  1.0000184364995775e+01 7.4079614023054088e-04 1.0532181616169074e-03  9.9998785607604255e+00 -8.1348949385695710e-04 -1.2280264411189702e-03  1.0000116412575982e+01 9.2131333352815604e-04 1.4201071870156468e-03  9.9998927763388306e+00 -9.8835291239923544e-04 -1.6286103032874285e-03  1.0000102363517875e+01 1.0857437727347513e-03 1.8510287876183980e-03  9.9999186348165612e+00 -1.1831541813353316e-03 -2.0872009260979574e-03  1.0000054775198581e+01 1.3068983282919732e-03 2.3349583486596101e-03  9.9999553253941844e+00 -1.4334790864188450e-03 -2.5914295365484798e-03  1.0000047434272963e+01 1.5705320405795722e-03 2.8523230824253195e-03  9.9999406810191616e+00 -1.6962950384356609e-03 -3.1121556887348562e-03  1.0000051550555922e+01 1.8099985778720995e-03 3.3662752866040428e-03  9.9999655293955563e+00 -1.9091418923316238e-03 -3.6071830229242640e-03  1.0000026838531577e+01 2.0164630326057749e-03 3.8294827175886898e-03  9.9999419749429581e+00 -2.1429399188291811e-03 -4.0244542222824236e-03  1.0000116915779785e+01 2.2733018900851633e-03 4.1904298448445067e-03  9.9998467979081447e+00 -2.3663780957315882e-03 -4.3230657654193053e-03  1.0000138745231483e+01 2.3874870362404622e-03 4.4250422196854570e-03  9.9999173732076869e+00 -2.3673731001892023e-03 -4.4897119506595497e-03  1.0000080377396023e+01 2.3638578544585820e-03 4.5163926052266736e-03  9.9998446932259295e+00 -2.4324391876501860e-03 -4.4978392198829894e-03  1.0000293123966305e+01 2.5142047283155089e-03 4.4432021286958572e-03  9.9996607294822031e+00 -2.5203878186706159e-03 -4.3584835144337359e-03  1.0000266351358727e+01 2.3778163886217273e-03 4.2587822188155525e-03  9.9998886287624504e+00 -2.1726293154741270e-03 -4.1412435937769341e-03  1.0000077762341819e+01 2.0568140509388067e-03 4.0062253688588527e-03  9.9997745568074041e+00 -2.0964128372592842e-03 -3.8467773938178880e-03  1.0000437481664934e+01 2.2219693257478188e-03 3.6774457853801451e-03  9.9994778874216994e+00 -2.1575089529593818e-03 -3.5122158929612327e-03  1.0000295923957042e+01 1.9515806649572694e-03 3.3675999866803479e-03  9.9998983567915065e+00 -1.5427741189899581e-03 -3.2363932811117924e-03  9.9999284980055716e+00 1.5253176702106797e-03 3.1066850636698178e-03  9.9996517445843338e+00 -1.4673801186467568e-03 -2.9668589946679571e-03  1.0000392595689162e+01 1.9533780437222979e-03 2.8284235961854938e-03  9.9991305082108930e+00 -1.5167974428809011e-03 -2.7071391914452805e-03  9.9999655825598168e+00 1.8475284129120682e-03 2.6123068428728666e-03  9.9994197991665850e+00 -5.4533933453962250e-04 -2.5282005698261481e-03  9.9991124676496757e+00 1.8799229006711308e-03 2.4348315066067415e-03  9.9984184052101703e+00 6.3513455206545784e-05 -2.3198615508209096e-03  9.9987002087731387e+00 3.3705250275072899e-03 2.1991461182314692e-03  9.9964609471075967e+00 1.4440418592156857e-03 -2.0858037718084863e-03  9.9961226396244705e+00 5.3088018397247543e-03 1.9866124640051902e-03  9.9937565886425883e+00 5.3134849386476642e-03 -1.8832138435385846e-03  9.9911474527507167e+00 9.6138762784492120e-03 1.7608814039816862e-03  9.9869028289306385e+00 1.1688104232077012e-02 -1.6196518158049214e-03  9.9826991021036591e+00 1.8779331723382722e-02 1.4729860033212048e-03  9.9744779224373268e+00 2.3775858552472409e-02 -1.3396861160693881e-03  9.9661877605508860e+00 3.4534806567757328e-02 1.2091354299046595e-03  9.9535795579367008e+00 4.5296094334529809e-02 -1.0854678464720219e-03  9.9385271528366523e+00 6.1670541704880871e-02 9.4562455275073564e-04  9.9183753018534322e+00 7.9989854473942704e-02 -8.1939149899485427e-04  9.8950771568870000e+00 1.0509459438316895e-01 6.9743461238940408e-04  9.8644563733232964e+00 1.3376400515446757e-01 -6.0530761233331916e-04  9.8295719712624035e+00 1.6989872366296571e-01 5.1852006778959475e-04  9.7866538555964979e+00 2.1166434603230677e-01 -4.4573170510603860e-04  9.7376992579668897e+00 2.6175642459919202e-01 3.8365861780280869e-04  9.6799337560377037e+00 3.1847129200196261e-01 -3.4636506454971796e-04  9.6156166237366829e+00 3.8424800430856199e-01 3.4585481725848765e-04  9.5418771166580036e+00 4.5798117953482620e-01 -3.4809442420501532e-04  9.4610090603024712e+00 5.4031688673427736e-01 3.5796079511182154e-04  9.3712824944417576e+00 6.3109330093216198e-01 -3.2921772579838122e-04  9.2742543713649628e+00 7.3112541712457879e-01 3.1636727069412821e-04  9.1689008903442861e+00 8.3848945968632416e-01 -3.0236101325946331e-04  9.0567801880642644e+00 9.5475893970442671e-01 3.0124113607770238e-04  8.9374941425309142e+00 1.0791911131228329e+00 -2.3204709118093664e-04  8.8116357369109473e+00 1.2102284822133405e+00 4.7631428445887958e-05  8.6801156803552519e+00 1.3492308772947827e+00 2.3917113018000994e-04  8.5429083699557076e+00 1.4953880782052518e+00 -5.6618774802458195e-04  8.4008614391682030e+00 1.6472227601845371e+00 7.8122449002544466e-04  8.2542389709209978e+00 1.8046502185746085e+00 -9.6041928455183230e-04  8.1040845944896898e+00 1.9711744238298348e+00 1.1227128801622572e-03  7.9498343052415050e+00 2.1374419334192649e+00 -1.5005481320909632e-03  7.7932780092797929e+00 2.3131368765027425e+00 1.8188403810302908e-03  7.6337753995563036e+00 2.49347913556