<?xml version="1.0"?>
<VTKFile type="UnstructuredGrid"  version="0.1"  >
<UnstructuredGrid>
<Piece  NumberOfPoints="8241" NumberOfCells="16000">
<Points>
<DataArray  type="Float64"  NumberOfComponents="3"  format="ascii">-5 -1 0  -4.95 -1 0  -4.9 -1 0  -4.85 -1 0  -4.8 -1 0  -4.75 -1 0  -4.7 -1 0  -4.65 -1 0  -4.6 -1 0  -4.55 -1 0  -4.5 -1 0  -4.45 -1 0  -4.4 -1 0  -4.35 -1 0  -4.3 -1 0  -4.25 -1 0  -4.2 -1 0  -4.15 -1 0  -4.1 -1 0  -4.05 -1 0  -4 -1 0  -3.95 -1 0  -3.9 -1 0  -3.85 -1 0  -3.8 -1 0  -3.75 -1 0  -3.7 -1 0  -3.65 -1 0  -3.6 -1 0  -3.55 -1 0  -3.5 -1 0  -3.45 -1 0  -3.4 -1 0  -3.35 -1 0  -3.3 -1 0  -3.25 -1 0  -3.2 -1 0  -3.15 -1 0  -3.1 -1 0  -3.05 -1 0  -3 -1 0  -2.95 -1 0  -2.9 -1 0  -2.85 -1 0  -2.8 -1 0  -2.75 -1 0  -2.7 -1 0  -2.65 -1 0  -2.6 -1 0  -2.55 -1 0  -2.5 -1 0  -2.45 -1 0  -2.4 -1 0  -2.35 -1 0  -2.3 -1 0  -2.25 -1 0  -2.2 -1 0  -2.15 -1 0  -2.1 -1 0  -2.05 -1 0  -2 -1 0  -1.95 -1 0  -1.9 -1 0  -1.85 -1 0  -1.8 -1 0  -1.75 -1 0  -1.7 -1 0  -1.65 -1 0  -1.6 -1 0  -1.55 -1 0  -1.5 -1 0  -1.45 -1 0  -1.4 -1 0  -1.35 -1 0  -1.3 -1 0  -1.25 -1 0  -1.2 -1 0  -1.15 -1 0  -1.1 -1 0  -1.05 -1 0  -1 -1 0  -0.9500000000000002 -1 0  -0.9000000000000004 -1 0  -0.8499999999999996 -1 0  -0.7999999999999998 -1 0  -0.75 -1 0  -0.7000000000000002 -1 0  -0.6500000000000004 -1 0  -0.5999999999999996 -1 0  -0.5499999999999998 -1 0  -0.5 -1 0  -0.4500000000000002 -1 0  -0.4000000000000004 -1 0  -0.3499999999999996 -1 0  -0.2999999999999998 -1 0  -0.25 -1 0  -0.2000000000000002 -1 0  -0.1500000000000004 -1 0  -0.09999999999999964 -1 0  -0.04999999999999982 -1 0  0 -1 0  0.04999999999999982 -1 0  0.09999999999999964 -1 0  0.1500000000000004 -1 0  0.2000000000000002 -1 0  0.25 -1 0  0.2999999999999998 -1 0  0.3499999999999996 -1 0  0.4000000000000004 -1 0  0.4500000000000002 -1 0  0.5 -1 0  0.5499999999999998 -1 0  0.5999999999999996 -1 0  0.6500000000000004 -1 0  0.7000000000000002 -1 0  0.75 -1 0  0.7999999999999998 -1 0  0.8499999999999996 -1 0  0.9000000000000004 -1 0  0.9500000000000002 -1 0  1 -1 0  1.05 -1 0  1.1 -1 0  1.15 -1 0  1.2 -1 0  1.25 -1 0  1.3 -1 0  1.35 -1 0  1.4 -1 0  1.45 -1 0  1.5 -1 0  1.55 -1 0  1.6 -1 0  1.65 -1 0  1.7 -1 0  1.75 -1 0  1.8 -1 0  1.85 -1 0  1.9 -1 0  1.95 -1 0  2 -1 0  2.05 -1 0  2.1 -1 0  2.15 -1 0  2.2 -1 0  2.25 -1 0  2.3 -1 0  2.35 -1 0  2.4 -1 0  2.45 -1 0  2.5 -1 0  2.55 -1 0  2.6 -1 0  2.65 -1 0  2.7 -1 0  2.75 -1 0  2.8 -1 0  2.85 -1 0  2.9 -1 0  2.95 -1 0  3 -1 0  3.050000000000001 -1 0  3.1 -1 0  3.15 -1 0  3.199999999999999 -1 0  3.25 -1 0  3.300000000000001 -1 0  3.35 -1 0  3.4 -1 0  3.449999999999999 -1 0  3.5 -1 0  3.550000000000001 -1 0  3.6 -1 0  3.65 -1 0  3.699999999999999 -1 0  3.75 -1 0  3.800000000000001 -1 0  3.85 -1 0  3.9 -1 0  3.949999999999999 -1 0  4 -1 0  4.050000000000001 -1 0  4.1 -1 0  4.15 -1 0  4.199999999999999 -1 0  4.25 -1 0  4.300000000000001 -1 0  4.35 -1 0  4.4 -1 0  4.449999999999999 -1 0  4.5 -1 0  4.550000000000001 -1 0  4.6 -1 0  4.65 -1 0  4.699999999999999 -1 0  4.75 -1 0  4.800000000000001 -1 0  4.85 -1 0  4.9 -1 0  4.949999999999999 -1 0  5 -1 0  -5 -0.95 0  -4.95 -0.95 0  -4.9 -0.95 0  -4.85 -0.95 0  -4.8 -0.95 0  -4.75 -0.95 0  -4.7 -0.95 0  -4.65 -0.95 0  -4.6 -0.95 0  -4.55 -0.95 0  -4.5 -0.95 0  -4.45 -0.95 0  -4.4 -0.95 0  -4.35 -0.95 0  -4.3 -0.95 0  -4.25 -0.95 0  -4.2 -0.95 0  -4.15 -0.95 0  -4.1 -0.95 0  -4.05 -0.95 0  -4 -0.95 0  -3.95 -0.95 0  -3.9 -0.95 0  -3.85 -0.95 0  -3.8 -0.95 0  -3.75 -0.95 0  -3.7 -0.95 0  -3.65 -0.95 0  -3.6 -0.95 0  -3.55 -0.95 0  -3.5 -0.95 0  -3.45 -0.95 0  -3.4 -0.95 0  -3.35 -0.95 0  -3.3 -0.95 0  -3.25 -0.95 0  -3.2 -0.95 0  -3.15 -0.95 0  -3.1 -0.95 0  -3.05 -0.95 0  -3 -0.95 0  -2.95 -0.95 0  -2.9 -0.95 0  -2.85 -0.95 0  -2.8 -0.95 0  -2.75 -0.95 0  -2.7 -0.95 0  -2.65 -0.95 0  -2.6 -0.95 0  -2.55 -0.95 0  -2.5 -0.95 0  -2.45 -0.95 0  -2.4 -0.95 0  -2.35 -0.95 0  -2.3 -0.95 0  -2.25 -0.95 0  -2.2 -0.95 0  -2.15 -0.95 0  -2.1 -0.95 0  -2.05 -0.95 0  -2 -0.95 0  -1.95 -0.95 0  -1.9 -0.95 0  -1.85 -0.95 0  -1.8 -0.95 0  -1.75 -0.95 0  -1.7 -0.95 0  -1.65 -0.95 0  -1.6 -0.95 0  -1.55 -0.95 0  -1.5 -0.95 0  -1.45 -0.95 0  -1.4 -0.95 0  -1.35 -0.95 0  -1.3 -0.95 0  -1.25 -0.95 0  -1.2 -0.95 0  -1.15 -0.95 0  -1.1 -0.95 0  -1.05 -0.95 0  -1 -0.95 0  -0.9500000000000002 -0.95 0  -0.9000000000000004 -0.95 0  -0.8499999999999996 -0.95 0  -0.7999999999999998 -0.95 0  -0.75 -0.95 0  -0.7000000000000002 -0.95 0  -0.6500000000000004 -0.95 0  -0.5999999999999996 -0.95 0  -0.5499999999999998 -0.95 0  -0.5 -0.95 0  -0.4500000000000002 -0.95 0  -0.4000000000000004 -0.95 0  -0.3499999999999996 -0.95 0  -0.2999999999999998 -0.95 0  -0.25 -0.95 0  -0.2000000000000002 -0.95 0  -0.1500000000000004 -0.95 0  -0.09999999999999964 -0.95 0  -0.04999999999999982 -0.95 0  0 -0.95 0  0.04999999999999982 -0.95 0  0.09999999999999964 -0.95 0  0.1500000000000004 -0.95 0  0.2000000000000002 -0.95 0  0.25 -0.95 0  0.2999999999999998 -0.95 0  0.3499999999999996 -0.95 0  0.4000000000000004 -0.95 0  0.4500000000000002 -0.95 0  0.5 -0.95 0  0.5499999999999998 -0.95 0  0.5999999999999996 -0.95 0  0.6500000000000004 -0.95 0  0.7000000000000002 -0.95 0  0.75 -0.95 0  0.7999999999999998 -0.95 0  0.8499999999999996 -0.95 0  0.9000000000000004 -0.95 0  0.9500000000000002 -0.95 0  1 -0.95 0  1.05 -0.95 0  1.1 -0.95 0  1.15 -0.95 0  1.2 -0.95 0  1.25 -0.95 0  1.3 -0.95 0  1.35 -0.95 0  1.4 -0.95 0  1.45 -0.95 0  1.5 -0.95 0  1.55 -0.95 0  1.6 -0.95 0  1.65 -0.95 0  1.7 -0.95 0  1.75 -0.95 0  1.8 -0.95 0  1.85 -0.95 0  1.9 -0.95 0  1.95 -0.95 0  2 -0.95 0  2.05 -0.95 0  2.1 -0.95 0  2.15 -0.95 0  2.2 -0.95 0  2.25 -0.95 0  2.3 -0.95 0  2.35 -0.95 0  2.4 -0.95 0  2.45 -0.95 0  2.5 -0.95 0  2.55 -0.95 0  2.6 -0.95 0  2.65 -0.95 0  2.7 -0.95 0  2.75 -0.95 0  2.8 -0.95 0  2.85 -0.95 0  2.9 -0.95 0  2.95 -0.95 0  3 -0.95 0  3.050000000000001 -0.95 0  3.1 -0.95 0  3.15 -0.95 0  3.199999999999999 -0.95 0  3.25 -0.95 0  3.300000000000001 -0.95 0  3.35 -0.95 0  3.4 -0.95 0  3.449999999999999 -0.95 0  3.5 -0.95 0  3.550000000000001 -0.95 0  3.6 -0.95 0  3.65 -0.95 0  3.699999999999999 -0.95 0  3.75 -0.95 0  3.800000000000001 -0.95 0  3.85 -0.95 0  3.9 -0.95 0  3.949999999999999 -0.95 0  4 -0.95 0  4.050000000000001 -0.95 0  4.1 -0.95 0  4.15 -0.95 0  4.199999999999999 -0.95 0  4.25 -0.95 0  4.300000000000001 -0.95 0  4.35 -0.95 0  4.4 -0.95 0  4.449999999999999 -0.95 0  4.5 -0.95 0  4.550000000000001 -0.95 0  4.6 -0.95 0  4.65 -0.95 0  4.699999999999999 -0.95 0  4.75 -0.95 0  4.800000000000001 -0.95 0  4.85 -0.95 0  4.9 -0.95 0  4.949999999999999 -0.95 0  5 -0.95 0  -5 -0.9 0  -4.95 -0.9 0  -4.9 -0.9 0  -4.85 -0.9 0  -4.8 -0.9 0  -4.75 -0.9 0  -4.7 -0.9 0  -4.65 -0.9 0  -4.6 -0.9 0  -4.55 -0.9 0  -4.5 -0.9 0  -4.45 -0.9 0  -4.4 -0.9 0  -4.35 -0.9 0  -4.3 -0.9 0  -4.25 -0.9 0  -4.2 -0.9 0  -4.15 -0.9 0  -4.1 -0.9 0  -4.05 -0.9 0  -4 -0.9 0  -3.95 -0.9 0  -3.9 -0.9 0  -3.85 -0.9 0  -3.8 -0.9 0  -3.75 -0.9 0  -3.7 -0.9 0  -3.65 -0.9 0  -3.6 -0.9 0  -3.55 -0.9 0  -3.5 -0.9 0  -3.45 -0.9 0  -3.4 -0.9 0  -3.35 -0.9 0  -3.3 -0.9 0  -3.25 -0.9 0  -3.2 -0.9 0  -3.15 -0.9 0  -3.1 -0.9 0  -3.05 -0.9 0  -3 -0.9 0  -2.95 -0.9 0  -2.9 -0.9 0  -2.85 -0.9 0  -2.8 -0.9 0  -2.75 -0.9 0  -2.7 -0.9 0  -2.65 -0.9 0  -2.6 -0.9 0  -2.55 -0.9 0  -2.5 -0.9 0  -2.45 -0.9 0  -2.4 -0.9 0  -2.35 -0.9 0  -2.3 -0.9 0  -2.25 -0.9 0  -2.2 -0.9 0  -2.15 -0.9 0  -2.1 -0.9 0  -2.05 -0.9 0  -2 -0.9 0  -1.95 -0.9 0  -1.9 -0.9 0  -1.85 -0.9 0  -1.8 -0.9 0  -1.75 -0.9 0  -1.7 -0.9 0  -1.65 -0.9 0  -1.6 -0.9 0  -1.55 -0.9 0  -1.5 -0.9 0  -1.45 -0.9 0  -1.4 -0.9 0  -1.35 -0.9 0  -1.3 -0.9 0  -1.25 -0.9 0  -1.2 -0.9 0  -1.15 -0.9 0  -1.1 -0.9 0  -1.05 -0.9 0  -1 -0.9 0  -0.9500000000000002 -0.9 0  -0.9000000000000004 -0.9 0  -0.8499999999999996 -0.9 0  -0.7999999999999998 -0.9 0  -0.75 -0.9 0  -0.7000000000000002 -0.9 0  -0.6500000000000004 -0.9 0  -0.5999999999999996 -0.9 0  -0.5499999999999998 -0.9 0  -0.5 -0.9 0  -0.4500000000000002 -0.9 0  -0.4000000000000004 -0.9 0  -0.3499999999999996 -0.9 0  -0.2999999999999998 -0.9 0  -0.25 -0.9 0  -0.2000000000000002 -0.9 0  -0.1500000000000004 -0.9 0  -0.09999999999999964 -0.9 0  -0.04999999999999982 -0.9 0  0 -0.9 0  0.04999999999999982 -0.9 0  0.09999999999999964 -0.9 0  0.1500000000000004 -0.9 0  0.2000000000000002 -0.9 0  0.25 -0.9 0  0.2999999999999998 -0.9 0  0.3499999999999996 -0.9 0  0.4000000000000004 -0.9 0  0.4500000000000002 -0.9 0  0.5 -0.9 0  0.5499999999999998 -0.9 0  0.5999999999999996 -0.9 0  0.6500000000000004 -0.9 0  0.7000000000000002 -0.9 0  0.75 -0.9 0  0.7999999999999998 -0.9 0  0.8499999999999996 -0.9 0  0.9000000000000004 -0.9 0  0.9500000000000002 -0.9 0  1 -0.9 0  1.05 -0.9 0  1.1 -0.9 0  1.15 -0.9 0  1.2 -0.9 0  1.25 -0.9 0  1.3 -0.9 0  1.35 -0.9 0  1.4 -0.9 0  1.45 -0.9 0  1.5 -0.9 0  1.55 -0.9 0  1.6 -0.9 0  1.65 -0.9 0  1.7 -0.9 0  1.75 -0.9 0  1.8 -0.9 0  1.85 -0.9 0  1.9 -0.9 0  1.95 -0.9 0  2 -0.9 0  2.05 -0.9 0  2.1 -0.9 0  2.15 -0.9 0  2.2 -0.9 0  2.25 -0.9 0  2.3 -0.9 0  2.35 -0.9 0  2.4 -0.9 0  2.45 -0.9 0  2.5 -0.9 0  2.55 -0.9 0  2.6 -0.9 0  2.65 -0.9 0  2.7 -0.9 0  2.75 -0.9 0  2.8 -0.9 0  2.85 -0.9 0  2.9 -0.9 0  2.95 -0.9 0  3 -0.9 0  3.050000000000001 -0.9 0  3.1 -0.9 0  3.15 -0.9 0  3.199999999999999 -0.9 0  3.25 -0.9 0  3.300000000000001 -0.9 0  3.35 -0.9 0  3.4 -0.9 0  3.449999999999999 -0.9 0  3.5 -0.9 0  3.550000000000001 -0.9 0  3.6 -0.9 0  3.65 -0.9 0  3.699999999999999 -0.9 0  3.75 -0.9 0  3.800000000000001 -0.9 0  3.85 -0.9 0  3.9 -0.9 0  3.949999999999999 -0.9 0  4 -0.9 0  4.050000000000001 -0.9 0  4.1 -0.9 0  4.15 -0.9 0  4.199999999999999 -0.9 0  4.25 -0.9 0  4.300000000000001 -0.9 0  4.35 -0.9 0  4.4 -0.9 0  4.449999999999999 -0.9 0  4.5 -0.9 0  4.550000000000001 -0.9 0  4.6 -0.9 0  4.65 -0.9 0  4.699999999999999 -0.9 0  4.75 -0.9 0  4.800000000000001 -0.9 0  4.85 -0.9 0  4.9 -0.9 0  4.949999999999999 -0.9 0  5 -0.9 0  -5 -0.85 0  -4.95 -0.85 0  -4.9 -0.85 0  -4.85 -0.85 0  -4.8 -0.85 0  -4.75 -0.85 0  -4.7 -0.85 0  -4.65 -0.85 0  -4.6 -0.85 0  -4.55 -0.85 0  -4.5 -0.85 0  -
[...]
<PointData  Vectors="f_15"> 
<DataArray  type="Float64"  Name="f_15"  NumberOfComponents="3" format="ascii">1.1865193606017463e+00 0.0000000000000000e+00 0.0000000000000000e+00  1.1766370640895774e+00 7.9446398840795716e-03 0.0000000000000000e+00  1.1882117028035086e+00 6.7206167719737614e-02 0.0000000000000000e+00  1.1736878627807139e+00 1.1323759452981756e-01 0.0000000000000000e+00  1.1899765873725432e+00 1.2344204152100662e-01 0.0000000000000000e+00  1.1752966531369897e+00 1.5457887096885009e-01 0.0000000000000000e+00  1.1866722329787966e+00 1.9988051287852160e-01 0.0000000000000000e+00  1.1776813163398783e+00 2.1574486538749132e-01 0.0000000000000000e+00  1.1874221018033067e+00 2.4288271147119017e-01 0.0000000000000000e+00  1.1752342401179061e+00 2.8198638292297612e-01 0.0000000000000000e+00  1.1892041593571225e+00 3.0834424154230256e-01 0.0000000000000000e+00  1.1765769900576679e+00 3.3300881036900093e-01 0.0000000000000000e+00  1.1867288931407183e+00 3.6025971850437022e-01 0.0000000000000000e+00  1.1788384743254063e+00 3.9889642866455205e-01 0.0000000000000000e+00  1.1883234747952918e+00 4.2206095783399666e-01 0.0000000000000000e+00  1.1769477931569596e+00 4.3836883734422510e-01 0.0000000000000000e+00  1.1913203036753126e+00 4.8990952383775249e-01 0.0000000000000000e+00  1.1791612390957347e+00 4.9325620774699158e-01 0.0000000000000000e+00  1.1908536957252203e+00 5.4185385507315353e-01 0.0000000000000000e+00  1.1829311315947146e+00 5.3872367128141652e-01 0.0000000000000000e+00  1.1948585468834338e+00 6.0247980404263035e-01 0.0000000000000000e+00  1.1839794401794743e+00 5.8509503966234366e-01 0.0000000000000000e+00  1.2008152829142469e+00 6.4614503547195568e-01 0.0000000000000000e+00  1.1900265962916137e+00 6.2849253700549801e-01 0.0000000000000000e+00  1.2048597583391625e+00 6.9024145712562157e-01 0.0000000000000000e+00  1.1985027316655077e+00 6.6710505886269911e-01 0.0000000000000000e+00  1.2137282631177482e+00 7.2602420731082762e-01 0.0000000000000000e+00  1.2055943475028512e+00 6.9978431160438825e-01 0.0000000000000000e+00  1.2244809919476718e+00 7.5579730112893073e-01 0.0000000000000000e+00  1.2168720715616645e+00 7.3532293097229118e-01 0.0000000000000000e+00  1.2330191492451974e+00 7.8297784789317248e-01 0.0000000000000000e+00  1.2292915583493476e+00 7.6400836588914101e-01 0.0000000000000000e+00  1.2443067969638377e+00 8.1125449665618055e-01 0.0000000000000000e+00  1.2392566149501627e+00 7.9607031589961907e-01 0.0000000000000000e+00  1.2559765162392242e+00 8.3626295201652667e-01 0.0000000000000000e+00  1.2514186711210467e+00 8.2997105121891823e-01 0.0000000000000000e+00  1.2652544084121220e+00 8.6216867918935403e-01 0.0000000000000000e+00  1.2639295240935542e+00 8.6147471978276224e-01 0.0000000000000000e+00  1.2762928749873266e+00 8.9135833735672854e-01 0.0000000000000000e+00  1.2743707893849514e+00 8.9360246735244730e-01 0.0000000000000000e+00  1.2877615907401725e+00 9.1784569492656409e-01 0.0000000000000000e+00  1.2860865856989649e+00 9.2748373553887364e-01 0.0000000000000000e+00  1.2977128952267116e+00 9.4515769016733053e-01 0.0000000000000000e+00  1.2980912124626924e+00 9.5918971301842537e-01 0.0000000000000000e+00  1.3086990933035536e+00 9.7453406908174567e-01 0.0000000000000000e+00  1.3088338327783595e+00 9.9005499069003222e-01 0.0000000000000000e+00  1.3200492781587758e+00 1.0028142891704213e+00 0.0000000000000000e+00  1.3201612499121174e+00 1.0223503336026667e+00 0.0000000000000000e+00  1.3305813649514373e+00 1.0305872375583811e+00 0.0000000000000000e+00  1.3317356655063466e+00 1.0536749168720461e+00 0.0000000000000000e+00  1.3414041775472492e+00 1.0599272990942681e+00 0.0000000000000000e+00  1.3429014784273849e+00 1.0831872452794569e+00 0.0000000000000000e+00  1.3522727005691242e+00 1.0897651872055960e+00 0.0000000000000000e+00  1.3542697390642893e+00 1.1131985357194243e+00 0.0000000000000000e+00  1.3629582067111183e+00 1.1184398288383910e+00 0.0000000000000000e+00  1.3656845385275516e+00 1.1435081422808706e+00 0.0000000000000000e+00  1.3735904774266299e+00 1.1479838526269293e+00 0.0000000000000000e+00  1.3773265587061150e+00 1.1716594959099855e+00 0.0000000000000000e+00  1.3840252966427442e+00 1.1792963762958053e+00 0.0000000000000000e+00  1.3888357282090025e+00 1.1995839823562642e+00 0.0000000000000000e+00  1.3949599305521998e+00 1.2092712717328526e+00 0.0000000000000000e+00  1.3999364679002317e+00 1.2289223586350990e+00 0.0000000000000000e+00  1.4058257945443666e+00 1.2390574498469409e+00 0.0000000000000000e+00  1.4116334655446001e+00 1.2566696766553263e+00 0.0000000000000000e+00  1.4163163707904531e+00 1.2706655475892574e+00 0.0000000000000000e+00  1.4230231006368297e+00 1.2839773672566823e+00 0.0000000000000000e+00  1.4278038425054385e+00 1.3005621633189646e+00 0.0000000000000000e+00  1.4336348972383772e+00 1.3140068439824550e+00 0.0000000000000000e+00  1.4393105239815254e+00 1.3283800675748663e+00 0.0000000000000000e+00  1.4450590608545564e+00 1.3440327881453291e+00 0.0000000000000000e+00  1.4502132206437364e+00 1.3577444565743728e+00 0.0000000000000000e+00  1.4563463368699801e+00 1.3722204287781132e+00 0.0000000000000000e+00  1.4620650702838351e+00 1.3873816500376648e+00 0.0000000000000000e+00  1.4669476719805314e+00 1.4020415871487275e+00 0.0000000000000000e+00  1.4738052653692530e+00 1.4139338103750898e+00 0.0000000000000000e+00  1.4785268244453629e+00 1.4342392180757384e+00 0.0000000000000000e+00  1.4848263162706414e+00 1.4399204818011024e+00 0.0000000000000000e+00  1.4900343352163612e+00 1.4646183969376305e+00 0.0000000000000000e+00  1.4967171019798704e+00 1.4681876036368391e+00 0.0000000000000000e+00  1.5009733621480443e+00 1.4945736387026927e+00 0.0000000000000000e+00  1.5083485093461280e+00 1.4934352875556425e+00 0.0000000000000000e+00  1.5129027146570369e+00 1.5299432326507429e+00 0.0000000000000000e+00  1.5193226719242423e+00 1.5146012351764107e+00 0.0000000000000000e+00  1.5245937209666534e+00 1.5651461293923208e+00 0.0000000000000000e+00  1.5312301172228440e+00 1.5411018728350367e+00 0.0000000000000000e+00  1.5356902190402086e+00 1.5944184443089424e+00 0.0000000000000000e+00  1.5428472635901493e+00 1.5700159054685854e+00 0.0000000000000000e+00  1.5476676652276979e+00 1.6274787127077033e+00 0.0000000000000000e+00  1.5539611148648986e+00 1.5927701127909111e+00 0.0000000000000000e+00  1.5592369761078932e+00 1.6633470298721567e+00 0.0000000000000000e+00  1.5659821411124526e+00 1.6199381844646499e+00 0.0000000000000000e+00  1.5703922555816550e+00 1.6902368777574159e+00 0.0000000000000000e+00  1.5774847975586033e+00 1.6541985863576234e+00 0.0000000000000000e+00  1.5824460929867912e+00 1.7168609088210942e+00 0.0000000000000000e+00  1.5886615338539705e+00 1.6826347206411254e+00 0.0000000000000000e+00  1.5938652708381880e+00 1.7481181556132543e+00 0.0000000000000000e+00  1.6006946095841130e+00 1.7122381258020101e+00 0.0000000000000000e+00  1.6051625820957556e+00 1.7717204235650956e+00 0.0000000000000000e+00  1.6118185922630257e+00 1.7491046191729582e+00 0.0000000000000000e+00  1.6174187681297485e+00 1.7934053075891978e+00 0.0000000000000000e+00  1.6229548177119728e+00 1.7810340186521310e+00 0.0000000000000000e+00  1.6285432175959300e+00 1.8205434542700638e+00 0.0000000000000000e+00  1.6352639051652091e+00 1.8107715780468021e+00 0.0000000000000000e+00  1.6400235227413900e+00 1.8435734341405081e+00 0.0000000000000000e+00  1.6467583220356099e+00 1.8430896061362254e+00 0.0000000000000000e+00  1.6537486346549692e+00 1.8636779981583811e+00 0.0000000000000000e+00  1.6604651144599907e+00 1.8676157532724600e+00 0.0000000000000000e+00  1.6693826733201478e+00 1.8811324181866496e+00 0.0000000000000000e+00  1.6806274426115051e+00 1.8809813566138378e+00 0.0000000000000000e+00  1.6928772679357120e+00 1.8831333648793911e+00 0.0000000000000000e+00  1.7083485876502236e+00 1.8799711011091507e+00 0.0000000000000000e+00  1.7275430911404466e+00 1.8687302360813736e+00 0.0000000000000000e+00  1.7444237156411908e+00 1.8635125216465103e+00 0.0000000000000000e+00  1.7646628054736773e+00 1.8508763874776002e+00 0.0000000000000000e+00  1.7793544358029172e+00 1.8510944483594756e+00 0.0000000000000000e+00  1.7935002203319688e+00 1.8477182030239041e+00 0.0000000000000000e+00  1.7991218003326659e+00 1.8629869500149465e+00 0.0000000000000000e+00  1.8049246859334425e+00 1.8761446603118359e+00 0.0000000000000000e+00  1.7937480498539671e+00 1.9225900829918732e+00 0.0000000000000000e+00  1.7715059435130318e+00 1.9817584183253605e+00 0.0000000000000000e+00  1.7229028629436776e+00 2.0960541624799816e+00 0.0000000000000000e+00  1.6437070121745296e+00 2.2359733780205824e+00 0.0000000000000000e+00  1.6635921863452521e+00 2.1859780690783586e+00 0.0000000000000000e+00  2.2318469545369437e+00 8.5822130055037715e-01 0.0000000000000000e+00  2.7787554887792068e+00 -1.4674145303485728e-01 0.0000000000000000e+00  2.8665343279459354e+00 -2.7739674972162270e-01 0.0000000000000000e+00  2.8250245966658869e+00 -2.1322280336039257e-01 0.0000000000000000e+00  2.8642062510982393e+00 -2.4635918118422032e-01 0.0000000000000000e+00  2.8762844153775040e+00 -2.4635431038358832e-01 0.0000000000000000e+00  2.8817569284558435e+00 -2.3651646006065669e-01 0.0000000000000000e+00  2.8863310132659761e+00 -2.2439355699063662e-01 0.0000000000000000e+00  2.8949735576242541e+00 -2.1686705814105961e-01 0.0000000000000000e+00  2.8930241650186628e+00 -1.9622279516968638e-01 0.0000000000000000e+00  2.9073222936789351e+00 -2.0228602171247398e-01 0.0000000000000000e+00  2.9065971375779536e+00 -1.8308852542724013e-01 0.0000000000000000e+00  2.9167546432765303e+00 -1.8512880179297070e-01 0.0000000000000000e+00  2.9159879686185870e+00 -1.6534142321511908e-01 0.0000000000000000e+00  2.9254027867692058e+00 -1.6935314181675551e-01 0.0000000000000000e+00  2.9252041525314887e+00 -1.5102963103998349e-01 0.0000000000000000e+00  2.9341812625055517e+00 -1.5500818951020817e-01 0.0000000000000000e+00  2.9322086966259566e+00 -1.3650495169822655e-01 0.0000000000000000e+00  2.9416568000200569e+00 -1.4084635803374970e-01 0.0000000000000000e+00  2.9388147962925326e+00 -1.2183742894835248e-01 0.0000000000000000e+00  2.9470223789893435e+00 -1.2614241400810178e-01 0.0000000000000000e+00  2.9450202498369435e+00 -1.0850411814098138e-01 0.0000000000000000e+00  2.9518390401605354e+00 -1.1147652361341882e-01 0.0000000000000000e+00  2.9487788044279450e+00 -9.5048019615452201e-02 0.0000000000000000e+00  2.9564018626107744e+00 -9.7819273484757385e-02 0.0000000000000000e+00  2.9521189959441112e+00 -8.3512611454634400e-02 0.0000000000000000e+00  2.9589120381349949e+00 -8.4196280936002510e-02 0.0000000000000000e+00  2.9553200116291416e+00 -7.3654753085575814e-02 0.0000000000000000e+00  2.9610455350758009e+00 -7.2131232020031522e-02 0.0000000000000000e+00  2.9568661508301894e+00 -6.3954996924886764e-02 0.0000000000000000e+00  2.9631767477296083e+00 -6.1906440740071414e-02 0.0000000000000000e+00  2.9582569749442476e+00 -5.5833912301611527e-02 0.0000000000000000e+00  2.9640439725896135e+00 -5.2379855430139233e-02 0.0000000000000000e+00  2.9596108136335864e+00 -4.9518321451273696e-02 0.0000000000000000e+00  2.9651369883570884e+00 -4.4523417240265421e-02 0.0000000000000000e+00  2.9598351054115439e+00 -4.3078540660294228e-02 0.0000000000000000e+00  2.9663185905692813e+00 -4.0116792132890107e-02 0.0000000000000000e+00  2.9605118934295462e+00 -3.9304256836023260e-02 0.0000000000000000e+00  2.9664429473101648e+00 -4.0229824428311571e-02 0.0000000000000000e+00  2.9613568943010504e+00 -4.1081080766626123e-02 0.0000000000000000e+00  2.9671866717150501e+00 -4.6461799423923700e-02 0.0000000000000000e+00  2.9611589167719603e+00 -4.4112430369558878e-02 0.0000000000000000e+00  2.9681508132745837e+00 -5.0808504882494360e-02 0.0000000000000000e+00  2.9617115934870406e+00 -4.2174474086418889e-02 0.0000000000000000e+00  2.9680899963045282e+00 -4.6061247608217358e-02 0.0000000000000000e+00  2.9625268425976148e+00 -3.4344521358957013e-02 0.0000000000000000e+00  2.9687688473806850e+00 -3.6922251450455364e-02 0.0000000000000000e+00  2.9623626485319967e+00 -2.4121937010548218e-02 0.0000000000000000e+00  2.9696437416371237e+00 -2.8071378442988168e-02 0.0000000000000000e+00  2.9628570599312818e+00 -1.8119974432816006e-02 0.0000000000000000e+00  2.9696549612036520e+00 -2.1388325293270723e-02 0.0000000000000000e+00  2.9634015323762042e+00 -1.3288141243492212e-02 0.0000000000000000e+00  2.9703230843665271e+00 -2.1373896211966135e-02 0.0000000000000000e+00  2.9630868172480778e+00 -9.3795402488082835e-03 0.0000000000000000e+00  2.9710107717540080e+00 -2.3162125148659788e-02 0.0000000000000000e+00  2.9633212546526866e+00 -1.0155863769555840e-02 0.0000000000000000e+00  2.9709711726450552e+00 -2.4302068337375960e-02 0.0000000000000000e+00  2.9634038776290694e+00 -1.4638397022331330e-02 0.0000000000000000e+00  2.9716014855218122e+00 -2.3220518067999091e-02 0.0000000000000000e+00  2.9626758731554514e+00 -2.1548982787573289e-02 0.0000000000000000e+00  2.9721636730674130e+00 -2.1220587542210134e-02 0.0000000000000000e+00  2.9625544383304123e+00 -2.6199275323970317e-02 0.0000000000000000e+00  2.9720571190106120e+00 -1.7178829668269453e-02 0.0000000000000000e+00  2.9623040594506573e+00 -2.7312760551627846e-02 0.0000000000000000e+00  2.9726733497923949e+00 -1.1213833719551146e-02 0.0000000000000000e+00  2.9613817922652235e+00 -2.2152047692344402e-02 0.0000000000000000e+00  2.9732830709171632e+00 -1.0155504861383868e-02 0.0000000000000000e+00  2.9611374545989957e+00 -2.0672687701189518e-02 0.0000000000000000e+00  2.9733330712223789e+00 -2.8437274089185866e-02 0.0000000000000000e+00  2.9608666259299712e+00 -4.8079095156517496e-02 0.0000000000000000e+00  2.9739973801917241e+00 -6.3163995015578164e-02 0.0000000000000000e+00  2.9599854355712281e+00 -7.4224607133401371e-02 0.0000000000000000e+00  2.9747640612254940e+00 -7.4590532139974117e-02 0.0000000000000000e+00  2.9598315825739347e+00 -6.9171397151542191e-02 0.0000000000000000e+00  2.9751474324843388e+00 -5.4179062654827338e-02 0.0000000000000000e+00  2.9598236468477972e+00 -5.8421725844193917e-02 0.0000000000000000e+00  2.9761740822088703e+00 -3.0074080702606944e-02 0.0000000000000000e+00  2.9593164016981657e+00 0.0000000000000000e+00 0.0000000000000000e+00  1.1726261876354649e+00 0.0000000000000000e+00 1.5560190393933427e-02  1.1723183049336792e+00 2.7137351840695420e-02 7.5498643782679472e-03  1.1695412803413390e+00 4.9311077898496168e-02 -1.3688972827780520e-02  1.1737286322915519e+00 7.5452154241850936e-02 -1.6943105433402769e-02  1.1707473228520333e+00 1.1170830079642781e-01 3.1888266313286291e-02  1.1707466279916245e+00 1.3064948996061970e-01 -3.6795721657778495e-02  1.1727587240732082e+00 1.8359513857601886e-01 3.3868951316470879e-02  1.1722006813137738e+00 1.7518808888797560e-01 -3.3558915016023580e-02  1.1700042101699908e+00 2.5128984256184034e-01 3.7498552669346180e-02  1.1747394812074510e+00 2.3921028666447805e-01 -4.2765033423092652e-02  1.1713369727190239e+00 3.0566332152556613e-01 4.2330894430284260e-02  1.1727711280333954e+00 2.9567617218265629e-01 -3.9885770485384588e-02  1.1738692076686985e+00 3.7237821195194004e-01 3.8753002559901599e-02  1.1747192286326986e+00 3.5251839486365427e-01 -3.8819757399009225e-02  1.1724062133805959e+00 4.2273772025833861e-01 3.1846049165435465e-02  1.1776525190209695e+00 4.2170231632892474e-01 -1.8962889053076935e-02  1.1752327511120781e+00 4.6853466086086049e-01 7.1062746449035629e-03  1.1767079416842670e+00 4.8367669500609495e-01 -3.3674555897776370e-03  1.1794420562596086e+00 5.1874019274755678e-01 2.9089190572550869e-04  1.1800547804341075e+00 5.4384149498889178e-01 6.2848978281108666e-03  1.1805728517442804e+00 5.6111410516871996e-01 -1.4706679531230395e-02  1.1851989229953810e+00 5.9974116087145035e-01 1.6855531646616722e-02  1.1863651777180773e+00 6.0830432321499661e-01 -1.6621498956074912e-02  1.1882163142857509e+00 6.4498276669141064e-01 1.8946982812082621e-02  1.1943374350756701e+00 6.4689829661524412e-01 -2.2366663932972115e-02  1.1962551580705365e+00 6.8872322907290251e-01 2.2369371435215391e-02  1.2006651179899233e+00 6.8311797300626964e-01 -2.1540687966617521e-02  1.2065215085040497e+00 7.2197926905310528e-01 2.2572983308515031e-02  1.2113685743369451e+00 7.1689586495683311e-01 -2.2860688196624179e-02  1.2149042088142672e+00 7.5189187831207915e-01 2.1429345860956815e-02  1.2233501055037108e+00 7.4623377306583949e-01 -2.0848030022379348e-02  1.2264949728350851e+00 7.8272393823012343e-01 2.0896243352586191e-02  1.2327411841848273e+00 7.7498327823147140e-01 -1.9985135943818656e-02  1.2386175102279913e+00 8.0870702670578687e-01 1.8478094345203318e-02  1.2443772790789318e+00 8.0684689023338241e-01 -1.7546246500501964e-02  1.2481854015655602e+00 8.3620933874385139e-01 1.6433090947383693e-02  1.2562860731649128e+00 8.3566400883505532e-01 -1.5170024602691600e-02  1.2596133229250350e+00 8.6567620682245572e-01 1.4040664458293399e-02  1.2659809063300353e+00 8.6494757395029720e-01 -1.3372388423088473e-02  1.2713982497174945e+00 8.9297373780593314e-01 1.2304605352667615e-02  1.2771888747712885e+00 8.9675078435223865e-01 -1.1402282232554850e-02  1.2814139471526642e+00 9.2089935887856045e-01 1.0638021341198777e-02  1.2888007210111461e+00 9.2607740073040101e-01 -1.0181624607067157e-02  1.2925455401963259e+00 9.5125705821275186e-01 9.8045064267506168e-03  1.2991164802194826e+00 9.5504132242665252e-01 -9.5699134652945037e-03  1.3040433200594146e+00 9.8069891501472095e-01 9.4073625183716623e-03  1.3102856210597282e+00 9.8593689484900859e-01 -9.3129540819679463e-03  1.3146170089041691e+00 1.0097908283608124e+00 9.4077292634572370e-03  1.3218644898296334e+00 1.0156243796150350e+00 -9.6380186515074451e-03  1.3256940543112037e+00 1.0408449314814991e+00 1.0095747006692805e-02  1.3329888113801176e+00 1.0440500049008510e+00 -1.0580531698080781e-02  1.3370169787262400e+00 1.0723420730058379e+00 1.1229484111912748e-02  1.3444478957940895e+00 1.0735820187375853e+00 -1.1793632232015560e-02  1.3481746826373660e+00 1.1026645384252007e+00 1.2526768982779921e-02  1.3560251463978124e+00 1.1035608948504945e+00 -1.3123746076038972e-02  1.3594614178100228e+00 1.1339757351775532e+00 1.3741828777079844e-02  1.3677018333374407e+00 1.1323274406975457e+00 -1.4203532713548395e-02  1.3707282092690536e+00 1.1663232791490699e+00 1.4613083530155961e-02  1.3793039697179630e+00 1.1618220095988310e+00 -1.4885017021724952e-02  1.3824687691138695e+00 1.1967775707208010e+00 1.5031822929979108e-02  1.3906066909071788e+00 1.1931950778080276e+00 -1.5012734852834615e-02  1.3941721111412384e+00 1.2268663247821074e+00 1.4752572232611788e-02  1.4024607218724181e+00 1.2237059254074518e+00 -1.4288103403451515e-02  1.4055163812905533e+00 1.2580777156260259e+00 1.3680430955480292e-02  1.4140810954819190e+00 1.2544392526818195e+00 -1.2948557321579870e-02  1.4177139263227994e+00 1.2873620308193727e+00 1.2226909220594556e-02  1.4250777970300033e+00 1.2874828225985964e+00 -1.1381959759677613e-02  1.4297900106483992e+00 1.3153856934280828e+00 1.0558328476388561e-02  1.4369368291810842e+00 1.3197559188213708e+00 -9.4496565631259077e-03  1.4411715495104140e+00 1.3451557589211491e+00 8.4380671536005182e-03  1.4486686027897628e+00 1.3504139004799356e+00 -7.1285103005209217e-03  1.4534235103173221e+00 1.3748048733333502e+00 6.1704171195789458e-03  1.4597064145846235e+00 1.3824678600058100e+00 -4.9675960534236634e-03  1.4655121027261870e+00 1.4023842383731375e+00 4.2412247037971508e-03  1.4716534448129595e+00 1.4153707956182808e+00 -2.9947288595771637e-03  1.4768744372264853e+00 1.4306042028447414e+00 2.1439278689688061e-03  1.4834104723719221e+00 1.4460331060519656e+00 -5.0103843392141755e-04  1.4891530657958774e+00 1.4606849961240578e+00 -5.8270461590286047e-04  1.4944532257628966e+00 1.4763621583704873e+00 2.3122163099700602e-03  1.5012041529840578e+00 1.4883948705954120e+00 -3.1949159623387026e-03  1.5064084041807904e+00 1.5099513022590563e+00 4.6323510931785862e-03  1.5125646115781561e+00 1.51400849796