<?xml version="1.0"?>
<VTKFile type="UnstructuredGrid"  version="0.1"  >
<UnstructuredGrid>
<Piece  NumberOfPoints="8241" NumberOfCells="16000">
<Points>
<DataArray  type="Float64"  NumberOfComponents="3"  format="ascii">-5 -1 0  -4.95 -1 0  -4.9 -1 0  -4.85 -1 0  -4.8 -1 0  -4.75 -1 0  -4.7 -1 0  -4.65 -1 0  -4.6 -1 0  -4.55 -1 0  -4.5 -1 0  -4.45 -1 0  -4.4 -1 0  -4.35 -1 0  -4.3 -1 0  -4.25 -1 0  -4.2 -1 0  -4.15 -1 0  -4.1 -1 0  -4.05 -1 0  -4 -1 0  -3.95 -1 0  -3.9 -1 0  -3.85 -1 0  -3.8 -1 0  -3.75 -1 0  -3.7 -1 0  -3.65 -1 0  -3.6 -1 0  -3.55 -1 0  -3.5 -1 0  -3.45 -1 0  -3.4 -1 0  -3.35 -1 0  -3.3 -1 0  -3.25 -1 0  -3.2 -1 0  -3.15 -1 0  -3.1 -1 0  -3.05 -1 0  -3 -1 0  -2.95 -1 0  -2.9 -1 0  -2.85 -1 0  -2.8 -1 0  -2.75 -1 0  -2.7 -1 0  -2.65 -1 0  -2.6 -1 0  -2.55 -1 0  -2.5 -1 0  -2.45 -1 0  -2.4 -1 0  -2.35 -1 0  -2.3 -1 0  -2.25 -1 0  -2.2 -1 0  -2.15 -1 0  -2.1 -1 0  -2.05 -1 0  -2 -1 0  -1.95 -1 0  -1.9 -1 0  -1.85 -1 0  -1.8 -1 0  -1.75 -1 0  -1.7 -1 0  -1.65 -1 0  -1.6 -1 0  -1.55 -1 0  -1.5 -1 0  -1.45 -1 0  -1.4 -1 0  -1.35 -1 0  -1.3 -1 0  -1.25 -1 0  -1.2 -1 0  -1.15 -1 0  -1.1 -1 0  -1.05 -1 0  -1 -1 0  -0.9500000000000002 -1 0  -0.9000000000000004 -1 0  -0.8499999999999996 -1 0  -0.7999999999999998 -1 0  -0.75 -1 0  -0.7000000000000002 -1 0  -0.6500000000000004 -1 0  -0.5999999999999996 -1 0  -0.5499999999999998 -1 0  -0.5 -1 0  -0.4500000000000002 -1 0  -0.4000000000000004 -1 0  -0.3499999999999996 -1 0  -0.2999999999999998 -1 0  -0.25 -1 0  -0.2000000000000002 -1 0  -0.1500000000000004 -1 0  -0.09999999999999964 -1 0  -0.04999999999999982 -1 0  0 -1 0  0.04999999999999982 -1 0  0.09999999999999964 -1 0  0.1500000000000004 -1 0  0.2000000000000002 -1 0  0.25 -1 0  0.2999999999999998 -1 0  0.3499999999999996 -1 0  0.4000000000000004 -1 0  0.4500000000000002 -1 0  0.5 -1 0  0.5499999999999998 -1 0  0.5999999999999996 -1 0  0.6500000000000004 -1 0  0.7000000000000002 -1 0  0.75 -1 0  0.7999999999999998 -1 0  0.8499999999999996 -1 0  0.9000000000000004 -1 0  0.9500000000000002 -1 0  1 -1 0  1.05 -1 0  1.1 -1 0  1.15 -1 0  1.2 -1 0  1.25 -1 0  1.3 -1 0  1.35 -1 0  1.4 -1 0  1.45 -1 0  1.5 -1 0  1.55 -1 0  1.6 -1 0  1.65 -1 0  1.7 -1 0  1.75 -1 0  1.8 -1 0  1.85 -1 0  1.9 -1 0  1.95 -1 0  2 -1 0  2.05 -1 0  2.1 -1 0  2.15 -1 0  2.2 -1 0  2.25 -1 0  2.3 -1 0  2.35 -1 0  2.4 -1 0  2.45 -1 0  2.5 -1 0  2.55 -1 0  2.6 -1 0  2.65 -1 0  2.7 -1 0  2.75 -1 0  2.8 -1 0  2.85 -1 0  2.9 -1 0  2.95 -1 0  3 -1 0  3.050000000000001 -1 0  3.1 -1 0  3.15 -1 0  3.199999999999999 -1 0  3.25 -1 0  3.300000000000001 -1 0  3.35 -1 0  3.4 -1 0  3.449999999999999 -1 0  3.5 -1 0  3.550000000000001 -1 0  3.6 -1 0  3.65 -1 0  3.699999999999999 -1 0  3.75 -1 0  3.800000000000001 -1 0  3.85 -1 0  3.9 -1 0  3.949999999999999 -1 0  4 -1 0  4.050000000000001 -1 0  4.1 -1 0  4.15 -1 0  4.199999999999999 -1 0  4.25 -1 0  4.300000000000001 -1 0  4.35 -1 0  4.4 -1 0  4.449999999999999 -1 0  4.5 -1 0  4.550000000000001 -1 0  4.6 -1 0  4.65 -1 0  4.699999999999999 -1 0  4.75 -1 0  4.800000000000001 -1 0  4.85 -1 0  4.9 -1 0  4.949999999999999 -1 0  5 -1 0  -5 -0.95 0  -4.95 -0.95 0  -4.9 -0.95 0  -4.85 -0.95 0  -4.8 -0.95 0  -4.75 -0.95 0  -4.7 -0.95 0  -4.65 -0.95 0  -4.6 -0.95 0  -4.55 -0.95 0  -4.5 -0.95 0  -4.45 -0.95 0  -4.4 -0.95 0  -4.35 -0.95 0  -4.3 -0.95 0  -4.25 -0.95 0  -4.2 -0.95 0  -4.15 -0.95 0  -4.1 -0.95 0  -4.05 -0.95 0  -4 -0.95 0  -3.95 -0.95 0  -3.9 -0.95 0  -3.85 -0.95 0  -3.8 -0.95 0  -3.75 -0.95 0  -3.7 -0.95 0  -3.65 -0.95 0  -3.6 -0.95 0  -3.55 -0.95 0  -3.5 -0.95 0  -3.45 -0.95 0  -3.4 -0.95 0  -3.35 -0.95 0  -3.3 -0.95 0  -3.25 -0.95 0  -3.2 -0.95 0  -3.15 -0.95 0  -3.1 -0.95 0  -3.05 -0.95 0  -3 -0.95 0  -2.95 -0.95 0  -2.9 -0.95 0  -2.85 -0.95 0  -2.8 -0.95 0  -2.75 -0.95 0  -2.7 -0.95 0  -2.65 -0.95 0  -2.6 -0.95 0  -2.55 -0.95 0  -2.5 -0.95 0  -2.45 -0.95 0  -2.4 -0.95 0  -2.35 -0.95 0  -2.3 -0.95 0  -2.25 -0.95 0  -2.2 -0.95 0  -2.15 -0.95 0  -2.1 -0.95 0  -2.05 -0.95 0  -2 -0.95 0  -1.95 -0.95 0  -1.9 -0.95 0  -1.85 -0.95 0  -1.8 -0.95 0  -1.75 -0.95 0  -1.7 -0.95 0  -1.65 -0.95 0  -1.6 -0.95 0  -1.55 -0.95 0  -1.5 -0.95 0  -1.45 -0.95 0  -1.4 -0.95 0  -1.35 -0.95 0  -1.3 -0.95 0  -1.25 -0.95 0  -1.2 -0.95 0  -1.15 -0.95 0  -1.1 -0.95 0  -1.05 -0.95 0  -1 -0.95 0  -0.9500000000000002 -0.95 0  -0.9000000000000004 -0.95 0  -0.8499999999999996 -0.95 0  -0.7999999999999998 -0.95 0  -0.75 -0.95 0  -0.7000000000000002 -0.95 0  -0.6500000000000004 -0.95 0  -0.5999999999999996 -0.95 0  -0.5499999999999998 -0.95 0  -0.5 -0.95 0  -0.4500000000000002 -0.95 0  -0.4000000000000004 -0.95 0  -0.3499999999999996 -0.95 0  -0.2999999999999998 -0.95 0  -0.25 -0.95 0  -0.2000000000000002 -0.95 0  -0.1500000000000004 -0.95 0  -0.09999999999999964 -0.95 0  -0.04999999999999982 -0.95 0  0 -0.95 0  0.04999999999999982 -0.95 0  0.09999999999999964 -0.95 0  0.1500000000000004 -0.95 0  0.2000000000000002 -0.95 0  0.25 -0.95 0  0.2999999999999998 -0.95 0  0.3499999999999996 -0.95 0  0.4000000000000004 -0.95 0  0.4500000000000002 -0.95 0  0.5 -0.95 0  0.5499999999999998 -0.95 0  0.5999999999999996 -0.95 0  0.6500000000000004 -0.95 0  0.7000000000000002 -0.95 0  0.75 -0.95 0  0.7999999999999998 -0.95 0  0.8499999999999996 -0.95 0  0.9000000000000004 -0.95 0  0.9500000000000002 -0.95 0  1 -0.95 0  1.05 -0.95 0  1.1 -0.95 0  1.15 -0.95 0  1.2 -0.95 0  1.25 -0.95 0  1.3 -0.95 0  1.35 -0.95 0  1.4 -0.95 0  1.45 -0.95 0  1.5 -0.95 0  1.55 -0.95 0  1.6 -0.95 0  1.65 -0.95 0  1.7 -0.95 0  1.75 -0.95 0  1.8 -0.95 0  1.85 -0.95 0  1.9 -0.95 0  1.95 -0.95 0  2 -0.95 0  2.05 -0.95 0  2.1 -0.95 0  2.15 -0.95 0  2.2 -0.95 0  2.25 -0.95 0  2.3 -0.95 0  2.35 -0.95 0  2.4 -0.95 0  2.45 -0.95 0  2.5 -0.95 0  2.55 -0.95 0  2.6 -0.95 0  2.65 -0.95 0  2.7 -0.95 0  2.75 -0.95 0  2.8 -0.95 0  2.85 -0.95 0  2.9 -0.95 0  2.95 -0.95 0  3 -0.95 0  3.050000000000001 -0.95 0  3.1 -0.95 0  3.15 -0.95 0  3.199999999999999 -0.95 0  3.25 -0.95 0  3.300000000000001 -0.95 0  3.35 -0.95 0  3.4 -0.95 0  3.449999999999999 -0.95 0  3.5 -0.95 0  3.550000000000001 -0.95 0  3.6 -0.95 0  3.65 -0.95 0  3.699999999999999 -0.95 0  3.75 -0.95 0  3.800000000000001 -0.95 0  3.85 -0.95 0  3.9 -0.95 0  3.949999999999999 -0.95 0  4 -0.95 0  4.050000000000001 -0.95 0  4.1 -0.95 0  4.15 -0.95 0  4.199999999999999 -0.95 0  4.25 -0.95 0  4.300000000000001 -0.95 0  4.35 -0.95 0  4.4 -0.95 0  4.449999999999999 -0.95 0  4.5 -0.95 0  4.550000000000001 -0.95 0  4.6 -0.95 0  4.65 -0.95 0  4.699999999999999 -0.95 0  4.75 -0.95 0  4.800000000000001 -0.95 0  4.85 -0.95 0  4.9 -0.95 0  4.949999999999999 -0.95 0  5 -0.95 0  -5 -0.9 0  -4.95 -0.9 0  -4.9 -0.9 0  -4.85 -0.9 0  -4.8 -0.9 0  -4.75 -0.9 0  -4.7 -0.9 0  -4.65 -0.9 0  -4.6 -0.9 0  -4.55 -0.9 0  -4.5 -0.9 0  -4.45 -0.9 0  -4.4 -0.9 0  -4.35 -0.9 0  -4.3 -0.9 0  -4.25 -0.9 0  -4.2 -0.9 0  -4.15 -0.9 0  -4.1 -0.9 0  -4.05 -0.9 0  -4 -0.9 0  -3.95 -0.9 0  -3.9 -0.9 0  -3.85 -0.9 0  -3.8 -0.9 0  -3.75 -0.9 0  -3.7 -0.9 0  -3.65 -0.9 0  -3.6 -0.9 0  -3.55 -0.9 0  -3.5 -0.9 0  -3.45 -0.9 0  -3.4 -0.9 0  -3.35 -0.9 0  -3.3 -0.9 0  -3.25 -0.9 0  -3.2 -0.9 0  -3.15 -0.9 0  -3.1 -0.9 0  -3.05 -0.9 0  -3 -0.9 0  -2.95 -0.9 0  -2.9 -0.9 0  -2.85 -0.9 0  -2.8 -0.9 0  -2.75 -0.9 0  -2.7 -0.9 0  -2.65 -0.9 0  -2.6 -0.9 0  -2.55 -0.9 0  -2.5 -0.9 0  -2.45 -0.9 0  -2.4 -0.9 0  -2.35 -0.9 0  -2.3 -0.9 0  -2.25 -0.9 0  -2.2 -0.9 0  -2.15 -0.9 0  -2.1 -0.9 0  -2.05 -0.9 0  -2 -0.9 0  -1.95 -0.9 0  -1.9 -0.9 0  -1.85 -0.9 0  -1.8 -0.9 0  -1.75 -0.9 0  -1.7 -0.9 0  -1.65 -0.9 0  -1.6 -0.9 0  -1.55 -0.9 0  -1.5 -0.9 0  -1.45 -0.9 0  -1.4 -0.9 0  -1.35 -0.9 0  -1.3 -0.9 0  -1.25 -0.9 0  -1.2 -0.9 0  -1.15 -0.9 0  -1.1 -0.9 0  -1.05 -0.9 0  -1 -0.9 0  -0.9500000000000002 -0.9 0  -0.9000000000000004 -0.9 0  -0.8499999999999996 -0.9 0  -0.7999999999999998 -0.9 0  -0.75 -0.9 0  -0.7000000000000002 -0.9 0  -0.6500000000000004 -0.9 0  -0.5999999999999996 -0.9 0  -0.5499999999999998 -0.9 0  -0.5 -0.9 0  -0.4500000000000002 -0.9 0  -0.4000000000000004 -0.9 0  -0.3499999999999996 -0.9 0  -0.2999999999999998 -0.9 0  -0.25 -0.9 0  -0.2000000000000002 -0.9 0  -0.1500000000000004 -0.9 0  -0.09999999999999964 -0.9 0  -0.04999999999999982 -0.9 0  0 -0.9 0  0.04999999999999982 -0.9 0  0.09999999999999964 -0.9 0  0.1500000000000004 -0.9 0  0.2000000000000002 -0.9 0  0.25 -0.9 0  0.2999999999999998 -0.9 0  0.3499999999999996 -0.9 0  0.4000000000000004 -0.9 0  0.4500000000000002 -0.9 0  0.5 -0.9 0  0.5499999999999998 -0.9 0  0.5999999999999996 -0.9 0  0.6500000000000004 -0.9 0  0.7000000000000002 -0.9 0  0.75 -0.9 0  0.7999999999999998 -0.9 0  0.8499999999999996 -0.9 0  0.9000000000000004 -0.9 0  0.9500000000000002 -0.9 0  1 -0.9 0  1.05 -0.9 0  1.1 -0.9 0  1.15 -0.9 0  1.2 -0.9 0  1.25 -0.9 0  1.3 -0.9 0  1.35 -0.9 0  1.4 -0.9 0  1.45 -0.9 0  1.5 -0.9 0  1.55 -0.9 0  1.6 -0.9 0  1.65 -0.9 0  1.7 -0.9 0  1.75 -0.9 0  1.8 -0.9 0  1.85 -0.9 0  1.9 -0.9 0  1.95 -0.9 0  2 -0.9 0  2.05 -0.9 0  2.1 -0.9 0  2.15 -0.9 0  2.2 -0.9 0  2.25 -0.9 0  2.3 -0.9 0  2.35 -0.9 0  2.4 -0.9 0  2.45 -0.9 0  2.5 -0.9 0  2.55 -0.9 0  2.6 -0.9 0  2.65 -0.9 0  2.7 -0.9 0  2.75 -0.9 0  2.8 -0.9 0  2.85 -0.9 0  2.9 -0.9 0  2.95 -0.9 0  3 -0.9 0  3.050000000000001 -0.9 0  3.1 -0.9 0  3.15 -0.9 0  3.199999999999999 -0.9 0  3.25 -0.9 0  3.300000000000001 -0.9 0  3.35 -0.9 0  3.4 -0.9 0  3.449999999999999 -0.9 0  3.5 -0.9 0  3.550000000000001 -0.9 0  3.6 -0.9 0  3.65 -0.9 0  3.699999999999999 -0.9 0  3.75 -0.9 0  3.800000000000001 -0.9 0  3.85 -0.9 0  3.9 -0.9 0  3.949999999999999 -0.9 0  4 -0.9 0  4.050000000000001 -0.9 0  4.1 -0.9 0  4.15 -0.9 0  4.199999999999999 -0.9 0  4.25 -0.9 0  4.300000000000001 -0.9 0  4.35 -0.9 0  4.4 -0.9 0  4.449999999999999 -0.9 0  4.5 -0.9 0  4.550000000000001 -0.9 0  4.6 -0.9 0  4.65 -0.9 0  4.699999999999999 -0.9 0  4.75 -0.9 0  4.800000000000001 -0.9 0  4.85 -0.9 0  4.9 -0.9 0  4.949999999999999 -0.9 0  5 -0.9 0  -5 -0.85 0  -4.95 -0.85 0  -4.9 -0.85 0  -4.85 -0.85 0  -4.8 -0.85 0  -4.75 -0.85 0  -4.7 -0.85 0  -4.65 -0.85 0  -4.6 -0.85 0  -4.55 -0.85 0  -4.5 -0.85 0  -
[...]
<PointData  Vectors="f_15"> 
<DataArray  type="Float64"  Name="f_15"  NumberOfComponents="3" format="ascii">3.0000199722198282e+00 0.0000000000000000e+00 0.0000000000000000e+00  2.9999952857620547e+00 -6.0680042334272703e-06 0.0000000000000000e+00  3.0000167101120092e+00 2.4818477583753481e-05 0.0000000000000000e+00  3.0000006073733863e+00 7.1474842127450710e-06 0.0000000000000000e+00  3.0000142757101615e+00 2.5253060948171515e-05 0.0000000000000000e+00  2.9999954945555118e+00 2.3985735916458789e-06 0.0000000000000000e+00  3.0000201124186847e+00 1.9751266803945186e-05 0.0000000000000000e+00  2.9999920509900413e+00 2.4417386832920775e-05 0.0000000000000000e+00  3.0000177258759071e+00 -6.2102190671685681e-06 0.0000000000000000e+00  2.9999974549376525e+00 2.6138088475555871e-05 0.0000000000000000e+00  3.0000134535462086e+00 1.4393135375981210e-05 0.0000000000000000e+00  2.9999991590733694e+00 -4.5000818416164128e-07 0.0000000000000000e+00  3.0000174678857423e+00 1.0380603732834124e-05 0.0000000000000000e+00  2.9999946591219708e+00 2.6045900816666288e-05 0.0000000000000000e+00  3.0000198088418446e+00 -2.0297026463255373e-05 0.0000000000000000e+00  2.9999977834264859e+00 2.5761739059611256e-05 0.0000000000000000e+00  3.0000094636424626e+00 9.1096352134462726e-06 0.0000000000000000e+00  2.9999978870837141e+00 5.6906649108536698e-06 0.0000000000000000e+00  3.0000017655760187e+00 2.2171569455309721e-05 0.0000000000000000e+00  2.9999742398540263e+00 5.9258254077384756e-05 0.0000000000000000e+00  2.9999788227760420e+00 4.2787183548767808e-05 0.0000000000000000e+00  2.9999316974532420e+00 1.3723452470346917e-04 0.0000000000000000e+00  2.9998985519285015e+00 1.9334536003599260e-04 0.0000000000000000e+00  2.9998223562373050e+00 3.2045513349623846e-04 0.0000000000000000e+00  2.9997193421176576e+00 5.1453017869672844e-04 0.0000000000000000e+00  2.9995372166406229e+00 8.4267798945699497e-04 0.0000000000000000e+00  2.9993008131021548e+00 1.2599620482254840e-03 0.0000000000000000e+00  2.9989022020366769e+00 1.9872272871700471e-03 0.0000000000000000e+00  2.9983631283768055e+00 2.9600305055043148e-03 0.0000000000000000e+00  2.9975633855611483e+00 4.4046553154088817e-03 0.0000000000000000e+00  2.9964626912837331e+00 6.3885833355422595e-03 0.0000000000000000e+00  2.9949302137998428e+00 9.1727302309423560e-03 0.0000000000000000e+00  2.9929067113931391e+00 1.2823929875133425e-02 0.0000000000000000e+00  2.9901979127516882e+00 1.7727739130652915e-02 0.0000000000000000e+00  2.9867571263582566e+00 2.3960824607273477e-02 0.0000000000000000e+00  2.9823781218479728e+00 3.1903662496056542e-02 0.0000000000000000e+00  2.9769880534617315e+00 4.1657177607252287e-02 0.0000000000000000e+00  2.9704268179868958e+00 5.3591825096257789e-02 0.0000000000000000e+00  2.9626489884772238e+00 6.7712038593826018e-02 0.0000000000000000e+00  2.9535021054732189e+00 8.4356822956195912e-02 0.0000000000000000e+00  2.9430289381262917e+00 1.0344591120178138e-01 0.0000000000000000e+00  2.9311159195245406e+00 1.2520763423574707e-01 0.0000000000000000e+00  2.9178393020301532e+00 1.4947311451602285e-01 0.0000000000000000e+00  2.9031672585404595e+00 1.7640526851971622e-01 0.0000000000000000e+00  2.8872130448772353e+00 2.0572330061587310e-01 0.0000000000000000e+00  2.8699552826161643e+00 2.3753597820539760e-01 0.0000000000000000e+00  2.8515807548553718e+00 2.7152573718339285e-01 0.0000000000000000e+00  2.8320605839932202e+00 3.0773643867753336e-01 0.0000000000000000e+00  2.8115918480040665e+00 3.4583760883799713e-01 0.0000000000000000e+00  2.7901727903987052e+00 3.8586747865586546e-01 0.0000000000000000e+00  2.7679933063212299e+00 4.2747946232864470e-01 0.0000000000000000e+00  2.7450261045609419e+00 4.7071291571065632e-01 0.0000000000000000e+00  2.7214958387045609e+00 5.1525039109885651e-01 0.0000000000000000e+00  2.6973338656447559e+00 5.6112270661896102e-01 0.0000000000000000e+00  2.6727589203999158e+00 6.0803663831727717e-01 0.0000000000000000e+00  2.6477080465200387e+00 6.5604533632237494e-01 0.0000000000000000e+00  2.6223765099596918e+00 7.0486720084705412e-01 0.0000000000000000e+00  2.5966799875559570e+00 7.5456889753523404e-01 0.0000000000000000e+00  2.5708309201173130e+00 8.0489484967034419e-01 0.0000000000000000e+00  2.5447142192207397e+00 8.5592566795907354e-01 0.0000000000000000e+00  2.5185288322926538e+00 9.0740871871765738e-01 0.0000000000000000e+00  2.4921770174561155e+00 9.5944993232079079e-01 0.0000000000000000e+00  2.4658261158469177e+00 1.0118156612819020e+00 0.0000000000000000e+00  2.4393755153548935e+00 1.0645905156729825e+00 0.0000000000000000e+00  2.4130000410170016e+00 1.1175854495149204e+00 0.0000000000000000e+00  2.3865854888893909e+00 1.1708831187709077e+00 0.0000000000000000e+00  2.3602866756967535e+00 1.2242805607322973e+00 0.0000000000000000e+00  2.3340229937608048e+00 1.2778795199018680e+00 0.0000000000000000e+00  2.3079099348986944e+00 1.3315191829880726e+00 0.0000000000000000e+00  2.2818796434531441e+00 1.3852152506114515e+00 0.0000000000000000e+00  2.2560524424527326e+00 1.4388711750751690e+00 0.0000000000000000e+00  2.2303552722462650e+00 1.4925418316633918e+00 0.0000000000000000e+00  2.2048911361827388e+00 1.5459964304825016e+00 0.0000000000000000e+00  2.1796304662854005e+00 1.5993786838103488e+00 0.0000000000000000e+00  2.1546381989806305e+00 1.6524916726186107e+00 0.0000000000000000e+00  2.1299072996003372e+00 1.7053276006780245e+00 0.0000000000000000e+00  2.1055209462954045e+00 1.7577515009573046e+00 0.0000000000000000e+00  2.0814680647819226e+00 1.8097691069455935e+00 0.0000000000000000e+00  2.0578391291968452e+00 1.8611239474675172e+00 0.0000000000000000e+00  2.0346809393278251e+00 1.9118039902331501e+00 0.0000000000000000e+00  2.0120657038691272e+00 1.9615159320526827e+00 0.0000000000000000e+00  1.9901011636291386e+00 2.0100957075954566e+00 0.0000000000000000e+00  1.9689259318750638e+00 2.0571980521913726e+00 0.0000000000000000e+00  1.9486878375257504e+00 2.1024471907695315e+00 0.0000000000000000e+00  1.9296413764335132e+00 2.1452136944774285e+00 0.0000000000000000e+00  1.9120688367155643e+00 2.1849101473200370e+00 0.0000000000000000e+00  1.8963319956539251e+00 2.2205888084064251e+00 0.0000000000000000e+00  1.8828369924242370e+00 2.2513062565116115e+00 0.0000000000000000e+00  1.8719903025879807e+00 2.2760579674613783e+00 0.0000000000000000e+00  1.8639710676169869e+00 2.2944243168991969e+00 0.0000000000000000e+00  1.8586780529934812e+00 2.3064838855582375e+00 0.0000000000000000e+00  1.8556103666816977e+00 2.3135851612124645e+00 0.0000000000000000e+00  1.8539457547934401e+00 2.3173151044443081e+00 0.0000000000000000e+00  1.8531051371058502e+00 2.3192902830759157e+00 0.0000000000000000e+00  1.8525344467336855e+00 2.3205060147455181e+00 0.0000000000000000e+00  1.8521636124612306e+00 2.3213931712653562e+00 0.0000000000000000e+00  1.8517710689282252e+00 2.3222043490691457e+00 0.0000000000000000e+00  1.8514737455896857e+00 2.3228939455857667e+00 0.0000000000000000e+00  1.8511470944704831e+00 2.3236093194804286e+00 0.0000000000000000e+00  1.8508790469477279e+00 2.3241650225354147e+00 0.0000000000000000e+00  1.8506083685770394e+00 2.3247928047523758e+00 0.0000000000000000e+00  1.8503579499379887e+00 2.3252903958094961e+00 0.0000000000000000e+00  1.8501551691595082e+00 2.3257855167252877e+00 0.0000000000000000e+00  1.8499045882195064e+00 2.3262577981644230e+00 0.0000000000000000e+00  1.8497486787020077e+00 2.3266531987502010e+00 0.0000000000000000e+00  1.8495285765712102e+00 2.3270455465229891e+00 0.0000000000000000e+00  1.8494055699746630e+00 2.3273423268883313e+00 0.0000000000000000e+00  1.8492359959208760e+00 2.3276707977627256e+00 0.0000000000000000e+00  1.8491211514014867e+00 2.3279303252026464e+00 0.0000000000000000e+00  1.8489557323587313e+00 2.3282335535892700e+00 0.0000000000000000e+00  1.8488891178549494e+00 2.3283616747561964e+00 0.0000000000000000e+00  1.8487786862125453e+00 2.3285510189048182e+00 0.0000000000000000e+00  1.8486637673557935e+00 2.3287750294756657e+00 0.0000000000000000e+00  1.8485968567970279e+00 2.3288985249439316e+00 0.0000000000000000e+00  1.8485250767013219e+00 2.3290328183711941e+00 0.0000000000000000e+00  1.8484468061812194e+00 2.3291509720530130e+00 0.0000000000000000e+00  1.8483722175846087e+00 2.3292468513760154e+00 0.0000000000000000e+00  1.8483422060610628e+00 2.3292505544665540e+00 0.0000000000000000e+00  1.8482618956838011e+00 2.3293547053264447e+00 0.0000000000000000e+00  1.8482232943923083e+00 2.3294044974192580e+00 0.0000000000000000e+00  1.8481706628946417e+00 2.3294784324587114e+00 0.0000000000000000e+00  1.8481583098968850e+00 2.3294820726752463e+00 0.0000000000000000e+00  1.8480613918832496e+00 2.3296105764206048e+00 0.0000000000000000e+00  1.8480851300752610e+00 2.3294581133752570e+00 0.0000000000000000e+00  1.8480184350963429e+00 2.3294640011033239e+00 0.0000000000000000e+00  1.8479993243742256e+00 2.3293135965080340e+00 0.0000000000000000e+00  1.8479506762315252e+00 2.3292334380131416e+00 0.0000000000000000e+00  1.8479578861588859e+00 2.3289950180294383e+00 0.0000000000000000e+00  1.8478937182789348e+00 2.3288912030773417e+00 0.0000000000000000e+00  1.8478854532739892e+00 2.3286279287009526e+00 0.0000000000000000e+00  1.8478558999225467e+00 2.3283823474673486e+00 0.0000000000000000e+00  1.8478355629254430e+00 2.3280440945848211e+00 0.0000000000000000e+00  1.8478071819901152e+00 2.3277447740480035e+00 0.0000000000000000e+00  1.8477755776608149e+00 2.3273915583152291e+00 0.0000000000000000e+00  1.8477745060413417e+00 2.3270288009201425e+00 0.0000000000000000e+00  1.8477253805842544e+00 2.3267555431068438e+00 0.0000000000000000e+00  1.8477114899505003e+00 2.3264701245655650e+00 0.0000000000000000e+00  1.8476808026147025e+00 2.3262350803498153e+00 0.0000000000000000e+00  1.8476706826086364e+00 2.3259923848416078e+00 0.0000000000000000e+00  1.8476096709473826e+00 2.3259089176800063e+00 0.0000000000000000e+00  1.8476166942305718e+00 2.3256682779849731e+00 0.0000000000000000e+00  1.8475797835528414e+00 2.3255829633955867e+00 0.0000000000000000e+00  1.8475317774147710e+00 2.3255051041412202e+00 0.0000000000000000e+00  1.8475343773511896e+00 2.3253541000222677e+00 0.0000000000000000e+00  1.8474921753294595e+00 2.3252927927691167e+00 0.0000000000000000e+00  1.8474498162763791e+00 2.3252292538031583e+00 0.0000000000000000e+00  1.8474426878044108e+00 2.3251244686828918e+00 0.0000000000000000e+00  1.8474020917203644e+00 2.3250477646553636e+00 0.0000000000000000e+00  1.8473501358847479e+00 2.3250084510410991e+00 0.0000000000000000e+00  1.8473668938257408e+00 2.3249220356026958e+00 0.0000000000000000e+00  1.8471409549692686e+00 2.3245201336934342e+00 0.0000000000000000e+00  1.8472247862438798e+00 2.3246742502954789e+00 0.0000000000000000e+00  1.8465265618161693e+00 2.3230560406455014e+00 0.0000000000000000e+00  1.8462081780530950e+00 2.3226170404151918e+00 0.0000000000000000e+00  1.8440197888944854e+00 2.3177824308322870e+00 0.0000000000000000e+00  1.8381814110053054e+00 2.3039093547864207e+00 0.0000000000000000e+00  1.8247517677677900e+00 2.2742294744793257e+00 0.0000000000000000e+00  1.7797849344114460e+00 2.1739196253538320e+00 0.0000000000000000e+00  1.7136097212676269e+00 2.0090162428535261e+00 0.0000000000000000e+00  1.5097757621761732e+00 1.4851101727736657e+00 0.0000000000000000e+00  1.1992034693880567e+00 6.1754112627230562e-01 0.0000000000000000e+00  1.0409581079294372e+00 1.3183457842612117e-01 0.0000000000000000e+00  1.0058307943736113e+00 1.9062951002234388e-02 0.0000000000000000e+00  1.0007100315222535e+00 2.6311771736163719e-03 0.0000000000000000e+00  1.0001151307079512e+00 3.0152449183448743e-04 0.0000000000000000e+00  1.0000048534783348e+00 9.1393071496776568e-05 0.0000000000000000e+00  1.0000138305553019e+00 -1.7111871590680871e-05 0.0000000000000000e+00  9.9998769961505418e-01 3.6040034365039515e-05 0.0000000000000000e+00  1.0000178993550044e+00 -4.3035671241305070e-05 0.0000000000000000e+00  9.9997842581623786e-01 5.1644304631446549e-05 0.0000000000000000e+00  1.0000227490395392e+00 -4.9502829341603735e-05 0.0000000000000000e+00  9.9997900074004042e-01 3.9011693479692416e-05 0.0000000000000000e+00  1.0000180689992773e+00 -2.6282771371370319e-05 0.0000000000000000e+00  9.9998480911295007e-01 1.6333366579967737e-05 0.0000000000000000e+00  1.0000120757695856e+00 -8.1381929748013749e-06 0.0000000000000000e+00  9.9999230430660713e-01 -2.6692752047569868e-06 0.0000000000000000e+00  1.0000015964618505e+00 1.8649726942188300e-05 0.0000000000000000e+00  1.0000052678766029e+00 -3.7461984115394874e-05 0.0000000000000000e+00  9.9998823449312768e-01 5.4956095162008922e-05 0.0000000000000000e+00  1.0000169771864760e+00 -6.7917738217225325e-05 0.0000000000000000e+00  9.9997838575724440e-01 7.7840411319565485e-05 0.0000000000000000e+00  1.0000256830789060e+00 -8.5977173945871941e-05 0.0000000000000000e+00  9.9996968975567024e-01 9.5380875592779201e-05 0.0000000000000000e+00  1.0000337271651443e+00 -1.0266138546784934e-04 0.0000000000000000e+00  9.9996260589841712e-01 1.0957092905378193e-04 0.0000000000000000e+00  1.0000383207555765e+00 -1.1005519480052233e-04 0.0000000000000000e+00  9.9995920568270080e-01 1.1165235786452765e-04 0.0000000000000000e+00  1.0000397236770324e+00 -1.0618188314104696e-04 0.0000000000000000e+00  9.9995719728480181e-01 1.0710705084667312e-04 0.0000000000000000e+00  1.0000398677243807e+00 -9.7689945159323520e-05 0.0000000000000000e+00  9.9995599264767276e-01 9.8756973920964439e-05 0.0000000000000000e+00  1.0000378938832517e+00 -8.2727820584174974e-05 0.0000000000000000e+00  9.9995618320795621e-01 8.4102099911406977e-05 0.0000000000000000e+00  1.0000340009027204e+00 -6.1405026620838521e-05 0.0000000000000000e+00  9.9995650520197943e-01 6.6388281720016227e-05 0.0000000000000000e+00  1.0000294254871884e+00 -3.7648161607383416e-05 0.0000000000000000e+00  9.9995621482984831e-01 4.7515823754202757e-05 0.0000000000000000e+00  1.0000241925953481e+00 -1.1734923051327091e-05 0.0000000000000000e+00  9.9995589687383635e-01 2.7314910296425233e-05 0.0000000000000000e+00  1.0000179045911044e+00 1.2319053642742695e-05 0.0000000000000000e+00  9.9995607174849110e-01 0.0000000000000000e+00 0.0000000000000000e+00  2.9999857572052804e+00 0.0000000000000000e+00 2.8124896231637332e-05  2.9999944853506864e+00 -1.0895747324023357e-05 -1.1999173121951080e-05  2.9999947260667472e+00 -1.2904317751659042e-05 -1.7625808832212925e-06  2.9999907041224123e+00 -1.6132849311421424e-05 -3.3530434667419088e-06  2.9999916221457537e+00 -1.6712510263168719e-05 4.3280578615906721e-06  2.9999974167723353e+00 -1.6992372594197723e-05 -5.7670562248879360e-06  2.9999899922272792e+00 -3.4182522165562269e-06 4.0408046127860471e-06  2.9999945445948568e+00 -3.1194928838318962e-05 -3.0041914443692279e-06  2.9999961888168949e+00 -5.3659121461999730e-06 1.7753231789957874e-06  2.9999905615609452e+00 -5.9440908207251048e-06 -2.5105788215073015e-06  2.9999956134002010e+00 -2.7440854684864387e-05 2.2196923789700139e-06  2.9999938837298856e+00 -4.3436888322320241e-06 -1.3267288255005899e-06  2.9999896734193410e+00 1.0713586167701033e-06 -1.2551640115217167e-06  2.9999942357803895e+00 -2.4228398776477001e-05 2.9325025760732949e-06  2.9999914271503636e+00 1.6405172080427876e-06 -3.5040040066064694e-06  2.9999851594018110e+00 1.1467692346588787e-05 2.7492396006151343e-06  2.9999923761135339e+00 -1.6772542772177824e-05 -2.6390367504121702e-06  2.9999830844088611e+00 2.0734591415702474e-05 4.0292269171211863e-06  2.9999772410950682e+00 2.6879060297974494e-05 -6.2061185786366613e-06  2.9999750669203413e+00 2.4659004453730166e-05 8.0214583038938792e-06  2.9999570202367885e+00 6.7685070275240935e-05 -7.6632783151626873e-06  2.9999288530056663e+00 1.2390305705477328e-04 6.8386230461267373e-06  2.9998973906081430e+00 1.6710156574913670e-04 -5.5702440683660781e-06  2.9998233102345511e+00 3.1866792871007680e-04 6.7262376856770083e-06  2.9997176004568988e+00 5.0470114020720140e-04 -7.4103365738432649e-06  2.9995567839014328e+00 7.9540448483101419e-04 8.8816119941854078e-06  2.9992988533518590e+00 1.2623203202190877e-03 -6.9942196511563827e-06  2.9989193819855351e+00 1.9576256327324768e-03 6.1684096478152040e-06  2.9983727658884378e+00 2.9358223248323509e-03 -3.4547723005884726e-06  2.9975731909899737e+00 4.3872574583061303e-03 4.5510105050095914e-06  2.9964662352432025e+00 6.3921172279229809e-03 -3.5101974477576727e-06  2.9949471694325212e+00 9.1398934039313151e-03 4.6140553215363900e-06  2.9928967911540743e+00 1.2842758084277541e-02 -2.1025384869521301e-06  2.9902104486464371e+00 1.7716860654522583e-02 1.0858440713523972e-06  2.9867531136662882e+00 2.3975551240905602e-02 5.2427542990186173e-07  2.9823774936615899e+00 3.1894470426093183e-02 -1.2252607569967923e-06  2.9769825597360091e+00 4.1691128327198082e-02 4.1634018259039325e-07  2.9704344777533178e+00 5.3573858952334297e-02 -2.4926918728842728e-06  2.9626305974370970e+00 6.7743908370314479e-02 1.5236896986027131e-06  2.9535124543459821e+00 8.4346733026828602e-02 -5.1298442375525169e-06  2.9430179824177678e+00 1.0347329709144690e-01 3.3927374173226283e-06  2.9311153236167131e+00 1.2518810810438796e-01 -6.3823831070961779e-06  2.9178318294947228e+00 1.4950863898567376e-01 4.5232200185978889e-06  2.9031747389675973e+00 1.7637950064644722e-01 -7.2133130411222271e-06  2.8871935661912622e+00 2.0575137702903346e-01 6.5151864441493703e-06  2.8699703157807939e+00 2.3751549647008019e-01 -8.2641984877063202e-06  2.8515655543978458e+00 2.7154971900850533e-01 7.8296644188995635e-06  2.8320675912199760e+00 3.0770902420644147e-01 -8.0911049619739634e-06  2.8115820838145709e+00 3.4586614657973902e-01 8.1156630886602732e-06  2.7901859848798867e+00 3.8583802259857436e-01 -7.7945831697166374e-06  2.7679728503631629e+00 4.2750210066822181e-01 7.9917333131661685e-06  2.7450479493189990e+00 4.7068912245734712e-01 -6.5158725313983911e-06  2.7214766371053400e+00 5.1527180069138223e-01 5.8108292740587312e-06  2.6973482864866880e+00 5.6109720747071190e-01 -3.6682230650461354e-06  2.6727448095780009e+00 6.0806168236760416e-01 3.0177796990879376e-06  2.6477246675669299e+00 6.5602319517571306e-01 -1.4817781665317568e-06  2.6223532784831973e+00 7.0488965266774428e-01 6.9873430835872313e-07  2.5967026025759701e+00 7.5455112558909077e-01 9.2911394732965253e-07  2.5708087056587736e+00 8.0492052244738388e-01 -2.4969576270037296e-06  2.5447286207387734e+00 8.5590533840550054e-01 3.5163039698133100e-06  2.5185135833462837e+00 9.0743368510029487e-01 -4.6715600997592978e-06  2.4921920532347848e+00 9.5943675746455592e-01 4.5858155290594339e-06  2.4658054318371732e+00 1.0118294776287560e+00 -6.4369861432838303e-06  2.4393964247989115e+00 1.0645784746758074e+00 7.4157742003492171e-06  2.4129834812344226e+00 1.1176036017028843e+00 -1.1166043245053652e-05  2.3865981996542329e+00 1.1708611425347324e+00 1.2375365691467250e-05  2.3602804999371267e+00 1.2242899961933662e+00 -1.5080467742090555e-05  2.3340352582439414e+00 1.2778802677490158e+00 1.4065383524217664e-05  2.3078996425138492e+00 1.3315033164480243e+00 -1.5379128971962785e-05  2.2818979300091695e+00 1.3852102912661524e+00 1.3384517027544971e-05  2.2560454768926990e+00 1.4388928746959573e+00 -1.2731899618523446e-05  2.2303648646422443e+00 1.4925000531878403e+00 7.4162303667181218e-06  2.2048953892130467e+00 1.5460095504923121e+00 -4.9071747068634846e-06  2.1796394934528247e+00 1.5993801562868615e+00 1.8983774306762054e-06  2.1546380227964503e+00 1.6524766047060839e+00 -2.3885789870240536e-06  2.1299263572031375e+00 1.7053011711371553e+00 -9.3699960959138363e-07  2.1055229956967580e+00 1.7577734841295332e+00 2.2234112883861560e-06  2.0814804293731588e+00 1.8097324000852881e+00 -3.0025311294766117e-06  2.0578543993001799e+00 1.8611255175427224e+00 8.2392984294938809e-07  2.0346885737323892e+00 1.9117819374157132e+00 -4.1934552153888284e-06  2.0120731556971139e+00 1.9615141270526955e+00 6.9400616423761489e-06  1.9901181468496214e+00 2.0100907816529503e+00 -9.7307199683572305e-06  1.9689