<?xml version="1.0"?>
<VTKFile type="UnstructuredGrid"  version="0.1"  >
<UnstructuredGrid>
<Piece  NumberOfPoints="8241" NumberOfCells="16000">
<Points>
<DataArray  type="Float64"  NumberOfComponents="3"  format="ascii">-5 -1 0  -4.95 -1 0  -4.9 -1 0  -4.85 -1 0  -4.8 -1 0  -4.75 -1 0  -4.7 -1 0  -4.65 -1 0  -4.6 -1 0  -4.55 -1 0  -4.5 -1 0  -4.45 -1 0  -4.4 -1 0  -4.35 -1 0  -4.3 -1 0  -4.25 -1 0  -4.2 -1 0  -4.15 -1 0  -4.1 -1 0  -4.05 -1 0  -4 -1 0  -3.95 -1 0  -3.9 -1 0  -3.85 -1 0  -3.8 -1 0  -3.75 -1 0  -3.7 -1 0  -3.65 -1 0  -3.6 -1 0  -3.55 -1 0  -3.5 -1 0  -3.45 -1 0  -3.4 -1 0  -3.35 -1 0  -3.3 -1 0  -3.25 -1 0  -3.2 -1 0  -3.15 -1 0  -3.1 -1 0  -3.05 -1 0  -3 -1 0  -2.95 -1 0  -2.9 -1 0  -2.85 -1 0  -2.8 -1 0  -2.75 -1 0  -2.7 -1 0  -2.65 -1 0  -2.6 -1 0  -2.55 -1 0  -2.5 -1 0  -2.45 -1 0  -2.4 -1 0  -2.35 -1 0  -2.3 -1 0  -2.25 -1 0  -2.2 -1 0  -2.15 -1 0  -2.1 -1 0  -2.05 -1 0  -2 -1 0  -1.95 -1 0  -1.9 -1 0  -1.85 -1 0  -1.8 -1 0  -1.75 -1 0  -1.7 -1 0  -1.65 -1 0  -1.6 -1 0  -1.55 -1 0  -1.5 -1 0  -1.45 -1 0  -1.4 -1 0  -1.35 -1 0  -1.3 -1 0  -1.25 -1 0  -1.2 -1 0  -1.15 -1 0  -1.1 -1 0  -1.05 -1 0  -1 -1 0  -0.9500000000000002 -1 0  -0.9000000000000004 -1 0  -0.8499999999999996 -1 0  -0.7999999999999998 -1 0  -0.75 -1 0  -0.7000000000000002 -1 0  -0.6500000000000004 -1 0  -0.5999999999999996 -1 0  -0.5499999999999998 -1 0  -0.5 -1 0  -0.4500000000000002 -1 0  -0.4000000000000004 -1 0  -0.3499999999999996 -1 0  -0.2999999999999998 -1 0  -0.25 -1 0  -0.2000000000000002 -1 0  -0.1500000000000004 -1 0  -0.09999999999999964 -1 0  -0.04999999999999982 -1 0  0 -1 0  0.04999999999999982 -1 0  0.09999999999999964 -1 0  0.1500000000000004 -1 0  0.2000000000000002 -1 0  0.25 -1 0  0.2999999999999998 -1 0  0.3499999999999996 -1 0  0.4000000000000004 -1 0  0.4500000000000002 -1 0  0.5 -1 0  0.5499999999999998 -1 0  0.5999999999999996 -1 0  0.6500000000000004 -1 0  0.7000000000000002 -1 0  0.75 -1 0  0.7999999999999998 -1 0  0.8499999999999996 -1 0  0.9000000000000004 -1 0  0.9500000000000002 -1 0  1 -1 0  1.05 -1 0  1.1 -1 0  1.15 -1 0  1.2 -1 0  1.25 -1 0  1.3 -1 0  1.35 -1 0  1.4 -1 0  1.45 -1 0  1.5 -1 0  1.55 -1 0  1.6 -1 0  1.65 -1 0  1.7 -1 0  1.75 -1 0  1.8 -1 0  1.85 -1 0  1.9 -1 0  1.95 -1 0  2 -1 0  2.05 -1 0  2.1 -1 0  2.15 -1 0  2.2 -1 0  2.25 -1 0  2.3 -1 0  2.35 -1 0  2.4 -1 0  2.45 -1 0  2.5 -1 0  2.55 -1 0  2.6 -1 0  2.65 -1 0  2.7 -1 0  2.75 -1 0  2.8 -1 0  2.85 -1 0  2.9 -1 0  2.95 -1 0  3 -1 0  3.050000000000001 -1 0  3.1 -1 0  3.15 -1 0  3.199999999999999 -1 0  3.25 -1 0  3.300000000000001 -1 0  3.35 -1 0  3.4 -1 0  3.449999999999999 -1 0  3.5 -1 0  3.550000000000001 -1 0  3.6 -1 0  3.65 -1 0  3.699999999999999 -1 0  3.75 -1 0  3.800000000000001 -1 0  3.85 -1 0  3.9 -1 0  3.949999999999999 -1 0  4 -1 0  4.050000000000001 -1 0  4.1 -1 0  4.15 -1 0  4.199999999999999 -1 0  4.25 -1 0  4.300000000000001 -1 0  4.35 -1 0  4.4 -1 0  4.449999999999999 -1 0  4.5 -1 0  4.550000000000001 -1 0  4.6 -1 0  4.65 -1 0  4.699999999999999 -1 0  4.75 -1 0  4.800000000000001 -1 0  4.85 -1 0  4.9 -1 0  4.949999999999999 -1 0  5 -1 0  -5 -0.95 0  -4.95 -0.95 0  -4.9 -0.95 0  -4.85 -0.95 0  -4.8 -0.95 0  -4.75 -0.95 0  -4.7 -0.95 0  -4.65 -0.95 0  -4.6 -0.95 0  -4.55 -0.95 0  -4.5 -0.95 0  -4.45 -0.95 0  -4.4 -0.95 0  -4.35 -0.95 0  -4.3 -0.95 0  -4.25 -0.95 0  -4.2 -0.95 0  -4.15 -0.95 0  -4.1 -0.95 0  -4.05 -0.95 0  -4 -0.95 0  -3.95 -0.95 0  -3.9 -0.95 0  -3.85 -0.95 0  -3.8 -0.95 0  -3.75 -0.95 0  -3.7 -0.95 0  -3.65 -0.95 0  -3.6 -0.95 0  -3.55 -0.95 0  -3.5 -0.95 0  -3.45 -0.95 0  -3.4 -0.95 0  -3.35 -0.95 0  -3.3 -0.95 0  -3.25 -0.95 0  -3.2 -0.95 0  -3.15 -0.95 0  -3.1 -0.95 0  -3.05 -0.95 0  -3 -0.95 0  -2.95 -0.95 0  -2.9 -0.95 0  -2.85 -0.95 0  -2.8 -0.95 0  -2.75 -0.95 0  -2.7 -0.95 0  -2.65 -0.95 0  -2.6 -0.95 0  -2.55 -0.95 0  -2.5 -0.95 0  -2.45 -0.95 0  -2.4 -0.95 0  -2.35 -0.95 0  -2.3 -0.95 0  -2.25 -0.95 0  -2.2 -0.95 0  -2.15 -0.95 0  -2.1 -0.95 0  -2.05 -0.95 0  -2 -0.95 0  -1.95 -0.95 0  -1.9 -0.95 0  -1.85 -0.95 0  -1.8 -0.95 0  -1.75 -0.95 0  -1.7 -0.95 0  -1.65 -0.95 0  -1.6 -0.95 0  -1.55 -0.95 0  -1.5 -0.95 0  -1.45 -0.95 0  -1.4 -0.95 0  -1.35 -0.95 0  -1.3 -0.95 0  -1.25 -0.95 0  -1.2 -0.95 0  -1.15 -0.95 0  -1.1 -0.95 0  -1.05 -0.95 0  -1 -0.95 0  -0.9500000000000002 -0.95 0  -0.9000000000000004 -0.95 0  -0.8499999999999996 -0.95 0  -0.7999999999999998 -0.95 0  -0.75 -0.95 0  -0.7000000000000002 -0.95 0  -0.6500000000000004 -0.95 0  -0.5999999999999996 -0.95 0  -0.5499999999999998 -0.95 0  -0.5 -0.95 0  -0.4500000000000002 -0.95 0  -0.4000000000000004 -0.95 0  -0.3499999999999996 -0.95 0  -0.2999999999999998 -0.95 0  -0.25 -0.95 0  -0.2000000000000002 -0.95 0  -0.1500000000000004 -0.95 0  -0.09999999999999964 -0.95 0  -0.04999999999999982 -0.95 0  0 -0.95 0  0.04999999999999982 -0.95 0  0.09999999999999964 -0.95 0  0.1500000000000004 -0.95 0  0.2000000000000002 -0.95 0  0.25 -0.95 0  0.2999999999999998 -0.95 0  0.3499999999999996 -0.95 0  0.4000000000000004 -0.95 0  0.4500000000000002 -0.95 0  0.5 -0.95 0  0.5499999999999998 -0.95 0  0.5999999999999996 -0.95 0  0.6500000000000004 -0.95 0  0.7000000000000002 -0.95 0  0.75 -0.95 0  0.7999999999999998 -0.95 0  0.8499999999999996 -0.95 0  0.9000000000000004 -0.95 0  0.9500000000000002 -0.95 0  1 -0.95 0  1.05 -0.95 0  1.1 -0.95 0  1.15 -0.95 0  1.2 -0.95 0  1.25 -0.95 0  1.3 -0.95 0  1.35 -0.95 0  1.4 -0.95 0  1.45 -0.95 0  1.5 -0.95 0  1.55 -0.95 0  1.6 -0.95 0  1.65 -0.95 0  1.7 -0.95 0  1.75 -0.95 0  1.8 -0.95 0  1.85 -0.95 0  1.9 -0.95 0  1.95 -0.95 0  2 -0.95 0  2.05 -0.95 0  2.1 -0.95 0  2.15 -0.95 0  2.2 -0.95 0  2.25 -0.95 0  2.3 -0.95 0  2.35 -0.95 0  2.4 -0.95 0  2.45 -0.95 0  2.5 -0.95 0  2.55 -0.95 0  2.6 -0.95 0  2.65 -0.95 0  2.7 -0.95 0  2.75 -0.95 0  2.8 -0.95 0  2.85 -0.95 0  2.9 -0.95 0  2.95 -0.95 0  3 -0.95 0  3.050000000000001 -0.95 0  3.1 -0.95 0  3.15 -0.95 0  3.199999999999999 -0.95 0  3.25 -0.95 0  3.300000000000001 -0.95 0  3.35 -0.95 0  3.4 -0.95 0  3.449999999999999 -0.95 0  3.5 -0.95 0  3.550000000000001 -0.95 0  3.6 -0.95 0  3.65 -0.95 0  3.699999999999999 -0.95 0  3.75 -0.95 0  3.800000000000001 -0.95 0  3.85 -0.95 0  3.9 -0.95 0  3.949999999999999 -0.95 0  4 -0.95 0  4.050000000000001 -0.95 0  4.1 -0.95 0  4.15 -0.95 0  4.199999999999999 -0.95 0  4.25 -0.95 0  4.300000000000001 -0.95 0  4.35 -0.95 0  4.4 -0.95 0  4.449999999999999 -0.95 0  4.5 -0.95 0  4.550000000000001 -0.95 0  4.6 -0.95 0  4.65 -0.95 0  4.699999999999999 -0.95 0  4.75 -0.95 0  4.800000000000001 -0.95 0  4.85 -0.95 0  4.9 -0.95 0  4.949999999999999 -0.95 0  5 -0.95 0  -5 -0.9 0  -4.95 -0.9 0  -4.9 -0.9 0  -4.85 -0.9 0  -4.8 -0.9 0  -4.75 -0.9 0  -4.7 -0.9 0  -4.65 -0.9 0  -4.6 -0.9 0  -4.55 -0.9 0  -4.5 -0.9 0  -4.45 -0.9 0  -4.4 -0.9 0  -4.35 -0.9 0  -4.3 -0.9 0  -4.25 -0.9 0  -4.2 -0.9 0  -4.15 -0.9 0  -4.1 -0.9 0  -4.05 -0.9 0  -4 -0.9 0  -3.95 -0.9 0  -3.9 -0.9 0  -3.85 -0.9 0  -3.8 -0.9 0  -3.75 -0.9 0  -3.7 -0.9 0  -3.65 -0.9 0  -3.6 -0.9 0  -3.55 -0.9 0  -3.5 -0.9 0  -3.45 -0.9 0  -3.4 -0.9 0  -3.35 -0.9 0  -3.3 -0.9 0  -3.25 -0.9 0  -3.2 -0.9 0  -3.15 -0.9 0  -3.1 -0.9 0  -3.05 -0.9 0  -3 -0.9 0  -2.95 -0.9 0  -2.9 -0.9 0  -2.85 -0.9 0  -2.8 -0.9 0  -2.75 -0.9 0  -2.7 -0.9 0  -2.65 -0.9 0  -2.6 -0.9 0  -2.55 -0.9 0  -2.5 -0.9 0  -2.45 -0.9 0  -2.4 -0.9 0  -2.35 -0.9 0  -2.3 -0.9 0  -2.25 -0.9 0  -2.2 -0.9 0  -2.15 -0.9 0  -2.1 -0.9 0  -2.05 -0.9 0  -2 -0.9 0  -1.95 -0.9 0  -1.9 -0.9 0  -1.85 -0.9 0  -1.8 -0.9 0  -1.75 -0.9 0  -1.7 -0.9 0  -1.65 -0.9 0  -1.6 -0.9 0  -1.55 -0.9 0  -1.5 -0.9 0  -1.45 -0.9 0  -1.4 -0.9 0  -1.35 -0.9 0  -1.3 -0.9 0  -1.25 -0.9 0  -1.2 -0.9 0  -1.15 -0.9 0  -1.1 -0.9 0  -1.05 -0.9 0  -1 -0.9 0  -0.9500000000000002 -0.9 0  -0.9000000000000004 -0.9 0  -0.8499999999999996 -0.9 0  -0.7999999999999998 -0.9 0  -0.75 -0.9 0  -0.7000000000000002 -0.9 0  -0.6500000000000004 -0.9 0  -0.5999999999999996 -0.9 0  -0.5499999999999998 -0.9 0  -0.5 -0.9 0  -0.4500000000000002 -0.9 0  -0.4000000000000004 -0.9 0  -0.3499999999999996 -0.9 0  -0.2999999999999998 -0.9 0  -0.25 -0.9 0  -0.2000000000000002 -0.9 0  -0.1500000000000004 -0.9 0  -0.09999999999999964 -0.9 0  -0.04999999999999982 -0.9 0  0 -0.9 0  0.04999999999999982 -0.9 0  0.09999999999999964 -0.9 0  0.1500000000000004 -0.9 0  0.2000000000000002 -0.9 0  0.25 -0.9 0  0.2999999999999998 -0.9 0  0.3499999999999996 -0.9 0  0.4000000000000004 -0.9 0  0.4500000000000002 -0.9 0  0.5 -0.9 0  0.5499999999999998 -0.9 0  0.5999999999999996 -0.9 0  0.6500000000000004 -0.9 0  0.7000000000000002 -0.9 0  0.75 -0.9 0  0.7999999999999998 -0.9 0  0.8499999999999996 -0.9 0  0.9000000000000004 -0.9 0  0.9500000000000002 -0.9 0  1 -0.9 0  1.05 -0.9 0  1.1 -0.9 0  1.15 -0.9 0  1.2 -0.9 0  1.25 -0.9 0  1.3 -0.9 0  1.35 -0.9 0  1.4 -0.9 0  1.45 -0.9 0  1.5 -0.9 0  1.55 -0.9 0  1.6 -0.9 0  1.65 -0.9 0  1.7 -0.9 0  1.75 -0.9 0  1.8 -0.9 0  1.85 -0.9 0  1.9 -0.9 0  1.95 -0.9 0  2 -0.9 0  2.05 -0.9 0  2.1 -0.9 0  2.15 -0.9 0  2.2 -0.9 0  2.25 -0.9 0  2.3 -0.9 0  2.35 -0.9 0  2.4 -0.9 0  2.45 -0.9 0  2.5 -0.9 0  2.55 -0.9 0  2.6 -0.9 0  2.65 -0.9 0  2.7 -0.9 0  2.75 -0.9 0  2.8 -0.9 0  2.85 -0.9 0  2.9 -0.9 0  2.95 -0.9 0  3 -0.9 0  3.050000000000001 -0.9 0  3.1 -0.9 0  3.15 -0.9 0  3.199999999999999 -0.9 0  3.25 -0.9 0  3.300000000000001 -0.9 0  3.35 -0.9 0  3.4 -0.9 0  3.449999999999999 -0.9 0  3.5 -0.9 0  3.550000000000001 -0.9 0  3.6 -0.9 0  3.65 -0.9 0  3.699999999999999 -0.9 0  3.75 -0.9 0  3.800000000000001 -0.9 0  3.85 -0.9 0  3.9 -0.9 0  3.949999999999999 -0.9 0  4 -0.9 0  4.050000000000001 -0.9 0  4.1 -0.9 0  4.15 -0.9 0  4.199999999999999 -0.9 0  4.25 -0.9 0  4.300000000000001 -0.9 0  4.35 -0.9 0  4.4 -0.9 0  4.449999999999999 -0.9 0  4.5 -0.9 0  4.550000000000001 -0.9 0  4.6 -0.9 0  4.65 -0.9 0  4.699999999999999 -0.9 0  4.75 -0.9 0  4.800000000000001 -0.9 0  4.85 -0.9 0  4.9 -0.9 0  4.949999999999999 -0.9 0  5 -0.9 0  -5 -0.85 0  -4.95 -0.85 0  -4.9 -0.85 0  -4.85 -0.85 0  -4.8 -0.85 0  -4.75 -0.85 0  -4.7 -0.85 0  -4.65 -0.85 0  -4.6 -0.85 0  -4.55 -0.85 0  -4.5 -0.85 0  -
[...]
<PointData  Vectors="f_15"> 
<DataArray  type="Float64"  Name="f_15"  NumberOfComponents="3" format="ascii">8.9829158376989291e+00 0.0000000000000000e+00 0.0000000000000000e+00  8.9808334421322655e+00 7.5154055867410099e-02 0.0000000000000000e+00  8.9779808887113912e+00 1.5062813689524579e-01 0.0000000000000000e+00  8.9705501269261152e+00 2.2466416633069980e-01 0.0000000000000000e+00  8.9627433695473648e+00 2.9914061507729001e-01 0.0000000000000000e+00  8.9503642937276204e+00 3.7306728592378052e-01 0.0000000000000000e+00  8.9373379328819560e+00 4.4645290411067201e-01 0.0000000000000000e+00  8.9201734946530742e+00 5.1962980285813087e-01 0.0000000000000000e+00  8.9022898287443848e+00 5.9211360148939018e-01 0.0000000000000000e+00  8.8801601696812327e+00 6.6400183914083433e-01 0.0000000000000000e+00  8.8577335844086615e+00 7.3551865252063475e-01 0.0000000000000000e+00  8.8309830240607461e+00 8.0590814412232958e-01 0.0000000000000000e+00  8.8039990715329992e+00 8.7632899644805529e-01 0.0000000000000000e+00  8.7729560629221286e+00 9.4499603581836022e-01 0.0000000000000000e+00  8.7419094978751488e+00 1.0145338230988077e+00 0.0000000000000000e+00  8.7065509978122169e+00 1.0810442682837407e+00 0.0000000000000000e+00  8.6719609556469557e+00 1.1500900127664115e+00 0.0000000000000000e+00  8.6327358424532470e+00 1.2142600091823332e+00 0.0000000000000000e+00  8.5947487265074862e+00 1.2829461426340445e+00 0.0000000000000000e+00  8.5521592400043005e+00 1.3448221583498534e+00 0.0000000000000000e+00  8.5113343605498279e+00 1.4135753859959339e+00 0.0000000000000000e+00  8.4655012002369361e+00 1.4726447340812894e+00 0.0000000000000000e+00  8.4224431686708350e+00 1.5425529100033792e+00 0.0000000000000000e+00  8.3738709245387462e+00 1.5982135406827671e+00 0.0000000000000000e+00  8.3287343821412936e+00 1.6696648272834191e+00 0.0000000000000000e+00  8.2780501623162959e+00 1.7229522940972484e+00 0.0000000000000000e+00  8.2312129273519670e+00 1.7940846331623894e+00 0.0000000000000000e+00  8.1786986743910433e+00 1.8483392971677248e+00 0.0000000000000000e+00  8.1305585909810105e+00 1.9159340041897863e+00 0.0000000000000000e+00  8.0767232051804498e+00 1.9734259306077735e+00 0.0000000000000000e+00  8.0273487898808487e+00 2.0389568990043805e+00 0.0000000000000000e+00  7.9726448962721532e+00 2.0940138857428972e+00 0.0000000000000000e+00  7.9224013205481292e+00 2.1665800029653233e+00 0.0000000000000000e+00  7.8668738487588881e+00 2.2120594084190945e+00 0.0000000000000000e+00  7.8161227767961865e+00 2.2911039427319011e+00 0.0000000000000000e+00  7.7600985806165674e+00 2.3393859236054491e+00 0.0000000000000000e+00  7.7087684327848374e+00 2.4041473617012326e+00 0.0000000000000000e+00  7.6526138338896690e+00 2.4750212362293982e+00 0.0000000000000000e+00  7.6009225460820602e+00 2.5181067873957428e+00 0.0000000000000000e+00  7.5444554543558215e+00 2.6020660968870946e+00 0.0000000000000000e+00  7.4929449894684090e+00 2.6445626336250840e+00 0.0000000000000000e+00  7.4360264419295934e+00 2.7213037828072024e+00 0.0000000000000000e+00  7.3847255511613703e+00 2.7732418729837578e+00 0.0000000000000000e+00  7.3278568692511605e+00 2.8437368521575088e+00 0.0000000000000000e+00  7.2762268918419108e+00 2.8998146347569347e+00 0.0000000000000000e+00  7.2200347790800690e+00 2.9677357877960997e+00 0.0000000000000000e+00  7.1678746684790129e+00 3.0264420516482038e+00 0.0000000000000000e+00  7.1122851069270512e+00 3.0936667197078918e+00 0.0000000000000000e+00  7.0600555925355906e+00 3.1524322468000259e+00 0.0000000000000000e+00  7.0046902350229141e+00 3.2198654721036797e+00 0.0000000000000000e+00  6.9525786451585523e+00 3.2802604970187743e+00 0.0000000000000000e+00  6.8976921168009691e+00 3.3461984649515322e+00 0.0000000000000000e+00  6.8453287411384309e+00 3.4078664106116121e+00 0.0000000000000000e+00  6.7911827991404490e+00 3.4737792709127508e+00 0.0000000000000000e+00  6.7386891966864049e+00 3.5359930413717180e+00 0.0000000000000000e+00  6.6850685810861448e+00 3.6017752731344754e+00 0.0000000000000000e+00  6.6325156136820986e+00 3.6645562250808932e+00 0.0000000000000000e+00  6.5795965516902806e+00 3.7299443134425561e+00 0.0000000000000000e+00  6.5269587633494508e+00 3.7939950934031388e+00 0.0000000000000000e+00  6.4744332144874814e+00 3.8588811402011007e+00 0.0000000000000000e+00  6.4221644616030344e+00 3.9230211894199161e+00 0.0000000000000000e+00  6.3700007788477855e+00 3.9882887481882596e+00 0.0000000000000000e+00  6.3175927908078968e+00 4.0532514063704363e+00 0.0000000000000000e+00  6.2663710938227455e+00 4.1175273288339742e+00 0.0000000000000000e+00  6.2139465912980008e+00 4.1834069747875544e+00 0.0000000000000000e+00  6.1627358358309543e+00 4.2479274287378050e+00 0.0000000000000000e+00  6.1113004669110413e+00 4.3133424044252582e+00 0.0000000000000000e+00  6.0600383718731630e+00 4.3784315942439562e+00 0.0000000000000000e+00  6.0086213483631949e+00 4.4443629029454597e+00 0.0000000000000000e+00  5.9583237072439452e+00 4.5085824435258832e+00 0.0000000000000000e+00  5.9070531704552378e+00 4.5751899698706060e+00 0.0000000000000000e+00  5.8564227180995809e+00 4.6401881957901443e+00 0.0000000000000000e+00  5.8066198821509998e+00 4.7053975413394635e+00 0.0000000000000000e+00  5.7555532878971913e+00 4.7716765908813263e+00 0.0000000000000000e+00  5.7061376443413883e+00 4.8369302984972915e+00 0.0000000000000000e+00  5.6557627546470295e+00 4.9025603016022767e+00 0.0000000000000000e+00  5.6067064420243806e+00 4.9681728048854827e+00 0.0000000000000000e+00  5.5560586164047212e+00 5.0347387113374946e+00 0.0000000000000000e+00  5.5083322195031039e+00 5.0989521600256200e+00 0.0000000000000000e+00  5.4573715171321480e+00 5.1666491675190045e+00 0.0000000000000000e+00  5.4101711905596170e+00 5.2305217398620201e+00 0.0000000000000000e+00  5.3598088080668793e+00 5.2983261441445295e+00 0.0000000000000000e+00  5.3126989385123293e+00 5.3623750473479364e+00 0.0000000000000000e+00  5.2628785800672793e+00 5.4300270413152978e+00 0.0000000000000000e+00  5.2160125445709040e+00 5.4945320687471435e+00 0.0000000000000000e+00  5.1668841761002229e+00 5.5618888856868729e+00 0.0000000000000000e+00  5.1198982352595168e+00 5.6266078775987234e+00 0.0000000000000000e+00  5.0720843953910686e+00 5.6933923756183082e+00 0.0000000000000000e+00  5.0244067980889753e+00 5.7594312496451234e+00 0.0000000000000000e+00  4.9783348399383494e+00 5.8242579444855407e+00 0.0000000000000000e+00  4.9294778308940357e+00 5.8925291886484930e+00 0.0000000000000000e+00  4.8852711558984154e+00 5.9559062394826441e+00 0.0000000000000000e+00  4.8352580322842043e+00 6.0256605216489563e+00 0.0000000000000000e+00  4.7940560590008019e+00 6.0857889955733473e+00 0.0000000000000000e+00  4.7409796806699802e+00 6.1605038354396546e+00 0.0000000000000000e+00  4.7035259653835562e+00 6.2160836818312752e+00 0.0000000000000000e+00  4.6476244270829552e+00 6.2951124422226998e+00 0.0000000000000000e+00  4.6108575662300826e+00 6.3502980826243318e+00 0.0000000000000000e+00  4.5606834379001153e+00 6.4223380631198328e+00 0.0000000000000000e+00  4.5202040727392072e+00 6.4828919688205495e+00 0.0000000000000000e+00  4.4714534783057500e+00 6.5537470409687781e+00 0.0000000000000000e+00  4.4360272383345638e+00 6.6078354452159545e+00 0.0000000000000000e+00  4.3790911354730682e+00 6.6907005127809374e+00 0.0000000000000000e+00  4.3424445724649798e+00 6.7472148985233416e+00 0.0000000000000000e+00  4.2935442812896492e+00 6.8198162566143425e+00 0.0000000000000000e+00  4.2543276602052984e+00 6.8804544464718127e+00 0.0000000000000000e+00  4.2062180494702863e+00 6.9516206303260644e+00 0.0000000000000000e+00  4.1668356168838629e+00 7.0137419425005332e+00 0.0000000000000000e+00  4.1230002698651793e+00 7.0799200293091094e+00 0.0000000000000000e+00  4.0853185721835770e+00 7.1390106480771109e+00 0.0000000000000000e+00  4.0421986036487114e+00 7.2054069553513553e+00 0.0000000000000000e+00  4.0021631007839673e+00 7.2689923510798096e+00 0.0000000000000000e+00  3.9593796414164206e+00 7.3339073560111405e+00 0.0000000000000000e+00  3.9209744508549504e+00 7.3955076850658772e+00 0.0000000000000000e+00  3.8845656786235914e+00 7.4543297809223654e+00 0.0000000000000000e+00  3.8526009661186058e+00 7.5044726077807624e+00 0.0000000000000000e+00  3.8099919072013524e+00 7.5718498808257273e+00 0.0000000000000000e+00  3.7957309140396327e+00 7.5957360987899056e+00 0.0000000000000000e+00  3.8456191953391636e+00 7.5156157448290379e+00 0.0000000000000000e+00  3.9008482460923064e+00 7.4270796040218068e+00 0.0000000000000000e+00  3.9276411352864558e+00 7.3850842838506194e+00 0.0000000000000000e+00  3.9363291754931282e+00 7.3707226101588343e+00 0.0000000000000000e+00  3.9413070986678274e+00 7.3630966017202439e+00 0.0000000000000000e+00  3.9444877530128273e+00 7.3573355598155148e+00 0.0000000000000000e+00  3.9471416219615629e+00 7.3534810114761422e+00 0.0000000000000000e+00  3.9486542872144432e+00 7.3504242708693717e+00 0.0000000000000000e+00  3.9501071096044154e+00 7.3484426589697964e+00 0.0000000000000000e+00  3.9521237985955100e+00 7.3450429691135541e+00 0.0000000000000000e+00  3.9538970203519388e+00 7.3427580407687323e+00 0.0000000000000000e+00  3.9560925929085764e+00 7.3394276197007020e+00 0.0000000000000000e+00  3.9565998587330693e+00 7.3387329365991354e+00 0.0000000000000000e+00  3.9577816630469269e+00 7.3368261945449884e+00 0.0000000000000000e+00  3.9572403122815953e+00 7.3373475831798460e+00 0.0000000000000000e+00  3.9583399084770359e+00 7.3356118948880820e+00 0.0000000000000000e+00  3.9578055533137473e+00 7.3361929015355249e+00 0.0000000000000000e+00  3.9590277427567102e+00 7.3342627524427417e+00 0.0000000000000000e+00  3.9585245934557891e+00 7.3351076497566430e+00 0.0000000000000000e+00  3.9594421276646057e+00 7.3331728467833743e+00 0.0000000000000000e+00  3.9590784880483292e+00 7.3344825898698947e+00 0.0000000000000000e+00  3.9595264282265950e+00 7.3322651630286213e+00 0.0000000000000000e+00  3.9596387092611227e+00 7.3341733104188780e+00 0.0000000000000000e+00  3.9594265816059266e+00 7.3312789903957833e+00 0.0000000000000000e+00  3.9602846694978719e+00 7.3341752589917757e+00 0.0000000000000000e+00  3.9591028651462299e+00 7.3301706922975631e+00 0.0000000000000000e+00  3.9610016090076221e+00 7.3345692643827469e+00 0.0000000000000000e+00  3.9585198570068441e+00 7.3288735165484669e+00 0.0000000000000000e+00  3.9618417741782861e+00 7.3353751003900163e+00 0.0000000000000000e+00  3.9576826616281884e+00 7.3272782225310378e+00 0.0000000000000000e+00  3.9628704479389039e+00 7.3366149713092090e+00 0.0000000000000000e+00  3.9565677831821784e+00 7.3253045755200219e+00 0.0000000000000000e+00  3.9641417587323495e+00 7.3383561234129440e+00 0.0000000000000000e+00  3.9551145062721957e+00 7.3228343650933780e+00 0.0000000000000000e+00  3.9657414756280058e+00 7.3407294113141699e+00 0.0000000000000000e+00  3.9532400035090314e+00 7.3196948735480207e+00 0.0000000000000000e+00  3.9677592624308735e+00 7.3438575028727824e+00 0.0000000000000000e+00  3.9508804356495903e+00 7.3157619092538839e+00 0.0000000000000000e+00  3.9702663097518034e+00 7.3478241948508014e+00 0.0000000000000000e+00  3.9479387179113887e+00 7.3108336920841621e+00 0.0000000000000000e+00  3.9734232661288367e+00 7.3528685138666727e+00 0.0000000000000000e+00  3.9442340505018669e+00 7.3045387089528111e+00 0.0000000000000000e+00  3.9773584057121454e+00 7.3591172844426804e+00 0.0000000000000000e+00  3.9397842321837717e+00 7.2968742954285357e+00 0.0000000000000000e+00  3.9819329952638132e+00 7.3661901635162454e+00 0.0000000000000000e+00  3.9346920218246262e+00 7.2878783392664284e+00 0.0000000000000000e+00  3.9872683289894209e+00 7.3742503693660160e+00 0.0000000000000000e+00  3.9286297986558796e+00 7.2767190283613132e+00 0.0000000000000000e+00  3.9935661560100391e+00 7.3834867436084659e+00 0.0000000000000000e+00  3.9219974060764202e+00 7.2641038778776243e+00 0.0000000000000000e+00  3.9997021886834303e+00 7.3916184325064922e+00 0.0000000000000000e+00  3.9160951871946992e+00 7.2521708541117667e+00 0.0000000000000000e+00  4.0051620398800081e+00 7.3981363786651233e+00 0.0000000000000000e+00  3.9102443670245930e+00 7.2390361095448652e+00 0.0000000000000000e+00  4.0108644369278972e+00 7.4050003841583907e+00 0.0000000000000000e+00  3.9052156124837913e+00 7.2267974594372566e+00 0.0000000000000000e+00  4.0130723690090360e+00 7.4047114375850374e+00 0.0000000000000000e+00  3.9064481478998405e+00 7.2258658613442934e+00 0.0000000000000000e+00  4.0082143935533612e+00 7.3926263994539791e+00 0.0000000000000000e+00  3.9127877492879413e+00 7.2312360953678496e+00 0.0000000000000000e+00  4.0009618272901157e+00 7.3796247778164394e+00 0.0000000000000000e+00  3.9217233892328913e+00 7.2403612848756902e+00 0.0000000000000000e+00  3.9855764312382855e+00 7.3500740946704033e+00 0.0000000000000000e+00  3.9471438631042939e+00 7.2836777411218936e+00 0.0000000000000000e+00  3.9485297701543609e+00 7.2814207032269884e+00 0.0000000000000000e+00  3.9911566529886970e+00 7.3526061105733787e+00 0.0000000000000000e+00  3.9039792497168389e+00 7.2125805099976299e+00 0.0000000000000000e+00  4.0310096063591683e+00 7.4061609838628728e+00 0.0000000000000000e+00  3.8658781916663840e+00 7.1472798717302126e+00 0.0000000000000000e+00  4.0761029951538816e+00 7.4917854250279241e+00 0.0000000000000000e+00  3.8034130367447831e+00 7.0150893363779874e+00 0.0000000000000000e+00  4.1570224966024272e+00 7.6325720674197850e+00 0.0000000000000000e+00  3.7200898955876429e+00 6.8844941869521863e+00 0.0000000000000000e+00  4.2070158229405950e+00 7.6778507188769671e+00 0.0000000000000000e+00  3.7320851462665781e+00 6.9399691158881698e+00 0.0000000000000000e+00  4.1238262258636196e+00 7.5261512831879163e+00 0.0000000000000000e+00  3.8397678085941673e+00 7.1750611378242777e+00 0.0000000000000000e+00  4.1247505551389105e+00 7.1199703808776036e+00 0.0000000000000000e+00  3.5355854829567348e+00 7.9299034687802772e+00 0.0000000000000000e+00  5.3230693171105878e+00 5.2189930589676843e+00 0.0000000000000000e+00  8.6452484291910618e+00 2.5987117299997009e-01 0.0000000000000000e+00  9.3141646289016418e+00 5.2620756381588407e-01 0.0000000000000000e+00  8.8999372424234480e+00 0.0000000000000000e+00 0.0000000000000000e+00  8.9815596933426605e+00 0.0000000000000000e+00 2.3419069518086756e-03  8.9804950246140685e+00 7.3539498934236544e-02 -1.5132600539533581e-03  8.9763405849646620e+00 1.4888207180217899e-01 1.0695596770881298e-03  8.9701929555910169e+00 2.2226440336237133e-01 -1.3388136438107919e-03  8.9611053332305701e+00 2.9793582487371278e-01 1.4355112023491674e-03  8.9497026129424615e+00 3.7032813102853895e-01 -1.5115190498836085e-03  8.9357382684980475e+00 4.4540568452275392e-01 1.5698521225779255e-03  8.9194588197549738e+00 5.1699548380317939e-01 -1.5758130224207201e-03  8.9004215989333204e+00 5.9100398422025024e-01 1.6199795537505475e-03  8.8795235122794853e+00 6.6155544461433458e-01 -1.6299957086869893e-03  8.8557752635715659e+00 7.3439924253935762e-01 1.6707770854302790e-03  8.8301820521462062e+00 8.0363906802862173e-01 -1.6818171111058135e-03  8.8020611761461627e+00 8.7518425818398848e-01 1.7255038647210562e-03  8.7722072681210577e+00 9.4309869902062737e-01 -1.7508904319894403e-03  8.7397155061853713e+00 1.0131324150671210e+00 1.8093897264807889e-03  8.7060400542734975e+00 1.0797722935135443e+00 -1.8430049051420536e-03  8.6696707546153444e+00 1.1483568491831235e+00 1.8805701517098786e-03  8.6322458018283044e+00 1.2135881787688276e+00 -1.8829183086971103e-03  8.5925353158300073e+00 1.2809363257641624e+00 1.8712979683534051e-03  8.5518707989897162e+00 1.3449398697776662e+00 -1.8494137353801429e-03  8.5089746945499396e+00 1.4108545365053171e+00 1.8164859724072043e-03  8.4656258172378340e+00 1.4742029201301783e+00 -1.7664179037028644e-03  8.4201069926061436e+00 1.5386419787992291e+00 1.6208226469880660e-03  8.3741778552564146e+00 1.6013655205422377e+00 -1.3444154523998492e-03  8.3267225872521280e+00 1.6650216236127831e+00 8.3902822685927737e-04  8.2785785331109398e+00 1.7267594617837616e+00 -1.8067641784682537e-04  8.2294693545252358e+00 1.7902128007854734e+00 -5.7821803261219606e-04  8.1796098509921595e+00 1.8512397164083267e+00 1.1321391042043443e-03  8.1292019459778757e+00 1.9139834843926800e+00 -1.2946845785277411e-03  8.0779860658754288e+00 1.9760159631802747e+00 8.1559399024656192e-04  8.0264172009037420e+00 2.0360256106335455e+00 1.5439517512761826e-04  7.9745619515404282e+00 2.1012337264785912e+00 -1.3843396744569812e-03  7.9216421987008685e+00 2.1586104582891812e+00 2.4074183533904989e-03  7.8696684296395070e+00 2.2233739240994508e+00 -3.1741569332535595e-03  7.8156499484994209e+00 2.2862056565040780e+00 3.8925384193334300e-03  7.7636485995478415e+00 2.3407706658551057e+00 -5.2236229637583854e-03  7.7086257102772962e+00 2.4162835589517990e+00 7.4329498692991903e-03  7.6571660240029802e+00 2.4606348676730936e+00 -1.0246735992234119e-02  7.6008141138896894e+00 2.5411296047762040e+00 1.2515416446175145e-02  7.5500973394744832e+00 2.5871042703264884e+00 -1.3085208020422144e-02  7.4931893389377757e+00 2.6627023862782648e+00 1.1456042711054470e-02  7.4420274031872697e+00 2.7146909178290493e+00 -8.3606043314870902e-03  7.3860979623218297e+00 2.7854691956921629e+00 5.1312280196738232e-03  7.3335273856492487e+00 2.8427190054047204e+00 -2.9617744800202973e-03  7.2789012186355757e+00 2.9083336741555406e+00 2.0453611086843301e-03  7.2254791509055574e+00 2.9703581728312098e+00 -1.9930506195028029e-03  7.1712770491112723e+00 3.0346083591721316e+00 2.1196030872616531e-03  7.1179909353658122e+00 3.0955530019431148e+00 -2.1465979279567783e-03  7.0636599738241097e+00 3.1618120774471792e+00 1.9405121343791690e-03  7.0106357905036933e+00 3.2231130396015679e+00 -1.6487931510711993e-03  6.9565356959126223e+00 3.2878877793710175e+00 1.3965932629424324e-03  6.9033807991756104e+00 3.3506407168758883e+00 -1.3316442852624526e-03  6.8497142055591969e+00 3.4157532321331527e+00 1.3514552359091339e-03  6.7966513728458526e+00 3.4781314554526994e+00 -1.3122438047293672e-03  6.7431122186365275e+00 3.5435200020816686e+00 1.1729180697374678e-03  6.6902984328786186e+00 3.6063321778766801e+00 -1.0775894294096685e-03  6.6370477664318814e+00 3.6716064952996650e+00 1.0662225271181377e-03  6.5843869367078653e+00 3.7350219533222440e+00 -1.0475491781703455e-03  6.5312843252815531e+00 3.8001105841096594e+00 9.7697245981867012e-04  6.4791053002097305e+00 3.8634364230527631e+00 -9.2212809698780270e-04  6.4261557196029617e+00 3.9292344680375377e+00 9.1211327108481496e-04  6.3740199533982107e+00 3.9928214113502061e+00 -8.7269898529760879e-04  6.3217812622242606e+00 4.0578942424763644e+00 8.1691261276462359e-04  6.2697350192978920e+00 4.1222481288362598e+00 -7.9099179327329059e-04  6.2174802319849887e+00 4.1877609108746041e+00 7.9965521735779715e-04  6.1663461264651298e+00 4.2514623788263410e+00 -7.7042862198240902e-04  6.1141263261298828e+00 4.3175578056488320e+00 7.3525931747193301e-04  6.0629080151069763e+00 4.3817712833110996e+00 -6.9678334625148763e-04  6.0118074760352238e+00 4.4469920251584787e+00 6.6774057451035498e-04  5.9605084484663005e+00 4.5120865180798218e+00 -6.1466681348439295e-04  5.9094015332400458e+00 4.5777081736896523e+00 5.9091458951321071e-04  5.8592123589604954e+00 4.6418929391771115e+00 -5.6158109541119513e-04  5.8080988431585174e+00 4.7083004282914498e+00 5.5860410401108878e-04  5.7578440793680237e+00 4.7730721929807913e+00 -5.3241234400224337e-04  5.7079373911139308e+00 4.8383263798160518e+00 5.1674529673602517e-04  5.6575673918360296e+00 4.9041339567780780e+00 -4.6262072156936666e-04  5.6077990235749180e+00 4.9697710800044401e+00 4.8164111287839765e-04  5.5584238170868643e+00 5.0346414523644913e+00 -4.9347293310718571e-04  5.5086513006276920e+00 5.1010989390086978e+00 5.3270373196337482e-04  5.4595006300038307e+00 5.1662358431282094e+00 -4.9149158726396319e-04  5.4105458188592586e+00 5.2322846554042250e+00 5.0224855649593989e-04  5.3615293580646179e+00 5.2977769873896428e+00 -4.8683478498318854e-04  5.3128225708422674e+00 5.3640268565124076