<?xml version="1.0"?>
<VTKFile type="UnstructuredGrid"  version="0.1"  >
<UnstructuredGrid>
<Piece  NumberOfPoints="8241" NumberOfCells="16000">
<Points>
<DataArray  type="Float64"  NumberOfComponents="3"  format="ascii">-5 -1 0  -4.95 -1 0  -4.9 -1 0  -4.85 -1 0  -4.8 -1 0  -4.75 -1 0  -4.7 -1 0  -4.65 -1 0  -4.6 -1 0  -4.55 -1 0  -4.5 -1 0  -4.45 -1 0  -4.4 -1 0  -4.35 -1 0  -4.3 -1 0  -4.25 -1 0  -4.2 -1 0  -4.15 -1 0  -4.1 -1 0  -4.05 -1 0  -4 -1 0  -3.95 -1 0  -3.9 -1 0  -3.85 -1 0  -3.8 -1 0  -3.75 -1 0  -3.7 -1 0  -3.65 -1 0  -3.6 -1 0  -3.55 -1 0  -3.5 -1 0  -3.45 -1 0  -3.4 -1 0  -3.35 -1 0  -3.3 -1 0  -3.25 -1 0  -3.2 -1 0  -3.15 -1 0  -3.1 -1 0  -3.05 -1 0  -3 -1 0  -2.95 -1 0  -2.9 -1 0  -2.85 -1 0  -2.8 -1 0  -2.75 -1 0  -2.7 -1 0  -2.65 -1 0  -2.6 -1 0  -2.55 -1 0  -2.5 -1 0  -2.45 -1 0  -2.4 -1 0  -2.35 -1 0  -2.3 -1 0  -2.25 -1 0  -2.2 -1 0  -2.15 -1 0  -2.1 -1 0  -2.05 -1 0  -2 -1 0  -1.95 -1 0  -1.9 -1 0  -1.85 -1 0  -1.8 -1 0  -1.75 -1 0  -1.7 -1 0  -1.65 -1 0  -1.6 -1 0  -1.55 -1 0  -1.5 -1 0  -1.45 -1 0  -1.4 -1 0  -1.35 -1 0  -1.3 -1 0  -1.25 -1 0  -1.2 -1 0  -1.15 -1 0  -1.1 -1 0  -1.05 -1 0  -1 -1 0  -0.9500000000000002 -1 0  -0.9000000000000004 -1 0  -0.8499999999999996 -1 0  -0.7999999999999998 -1 0  -0.75 -1 0  -0.7000000000000002 -1 0  -0.6500000000000004 -1 0  -0.5999999999999996 -1 0  -0.5499999999999998 -1 0  -0.5 -1 0  -0.4500000000000002 -1 0  -0.4000000000000004 -1 0  -0.3499999999999996 -1 0  -0.2999999999999998 -1 0  -0.25 -1 0  -0.2000000000000002 -1 0  -0.1500000000000004 -1 0  -0.09999999999999964 -1 0  -0.04999999999999982 -1 0  0 -1 0  0.04999999999999982 -1 0  0.09999999999999964 -1 0  0.1500000000000004 -1 0  0.2000000000000002 -1 0  0.25 -1 0  0.2999999999999998 -1 0  0.3499999999999996 -1 0  0.4000000000000004 -1 0  0.4500000000000002 -1 0  0.5 -1 0  0.5499999999999998 -1 0  0.5999999999999996 -1 0  0.6500000000000004 -1 0  0.7000000000000002 -1 0  0.75 -1 0  0.7999999999999998 -1 0  0.8499999999999996 -1 0  0.9000000000000004 -1 0  0.9500000000000002 -1 0  1 -1 0  1.05 -1 0  1.1 -1 0  1.15 -1 0  1.2 -1 0  1.25 -1 0  1.3 -1 0  1.35 -1 0  1.4 -1 0  1.45 -1 0  1.5 -1 0  1.55 -1 0  1.6 -1 0  1.65 -1 0  1.7 -1 0  1.75 -1 0  1.8 -1 0  1.85 -1 0  1.9 -1 0  1.95 -1 0  2 -1 0  2.05 -1 0  2.1 -1 0  2.15 -1 0  2.2 -1 0  2.25 -1 0  2.3 -1 0  2.35 -1 0  2.4 -1 0  2.45 -1 0  2.5 -1 0  2.55 -1 0  2.6 -1 0  2.65 -1 0  2.7 -1 0  2.75 -1 0  2.8 -1 0  2.85 -1 0  2.9 -1 0  2.95 -1 0  3 -1 0  3.050000000000001 -1 0  3.1 -1 0  3.15 -1 0  3.199999999999999 -1 0  3.25 -1 0  3.300000000000001 -1 0  3.35 -1 0  3.4 -1 0  3.449999999999999 -1 0  3.5 -1 0  3.550000000000001 -1 0  3.6 -1 0  3.65 -1 0  3.699999999999999 -1 0  3.75 -1 0  3.800000000000001 -1 0  3.85 -1 0  3.9 -1 0  3.949999999999999 -1 0  4 -1 0  4.050000000000001 -1 0  4.1 -1 0  4.15 -1 0  4.199999999999999 -1 0  4.25 -1 0  4.300000000000001 -1 0  4.35 -1 0  4.4 -1 0  4.449999999999999 -1 0  4.5 -1 0  4.550000000000001 -1 0  4.6 -1 0  4.65 -1 0  4.699999999999999 -1 0  4.75 -1 0  4.800000000000001 -1 0  4.85 -1 0  4.9 -1 0  4.949999999999999 -1 0  5 -1 0  -5 -0.95 0  -4.95 -0.95 0  -4.9 -0.95 0  -4.85 -0.95 0  -4.8 -0.95 0  -4.75 -0.95 0  -4.7 -0.95 0  -4.65 -0.95 0  -4.6 -0.95 0  -4.55 -0.95 0  -4.5 -0.95 0  -4.45 -0.95 0  -4.4 -0.95 0  -4.35 -0.95 0  -4.3 -0.95 0  -4.25 -0.95 0  -4.2 -0.95 0  -4.15 -0.95 0  -4.1 -0.95 0  -4.05 -0.95 0  -4 -0.95 0  -3.95 -0.95 0  -3.9 -0.95 0  -3.85 -0.95 0  -3.8 -0.95 0  -3.75 -0.95 0  -3.7 -0.95 0  -3.65 -0.95 0  -3.6 -0.95 0  -3.55 -0.95 0  -3.5 -0.95 0  -3.45 -0.95 0  -3.4 -0.95 0  -3.35 -0.95 0  -3.3 -0.95 0  -3.25 -0.95 0  -3.2 -0.95 0  -3.15 -0.95 0  -3.1 -0.95 0  -3.05 -0.95 0  -3 -0.95 0  -2.95 -0.95 0  -2.9 -0.95 0  -2.85 -0.95 0  -2.8 -0.95 0  -2.75 -0.95 0  -2.7 -0.95 0  -2.65 -0.95 0  -2.6 -0.95 0  -2.55 -0.95 0  -2.5 -0.95 0  -2.45 -0.95 0  -2.4 -0.95 0  -2.35 -0.95 0  -2.3 -0.95 0  -2.25 -0.95 0  -2.2 -0.95 0  -2.15 -0.95 0  -2.1 -0.95 0  -2.05 -0.95 0  -2 -0.95 0  -1.95 -0.95 0  -1.9 -0.95 0  -1.85 -0.95 0  -1.8 -0.95 0  -1.75 -0.95 0  -1.7 -0.95 0  -1.65 -0.95 0  -1.6 -0.95 0  -1.55 -0.95 0  -1.5 -0.95 0  -1.45 -0.95 0  -1.4 -0.95 0  -1.35 -0.95 0  -1.3 -0.95 0  -1.25 -0.95 0  -1.2 -0.95 0  -1.15 -0.95 0  -1.1 -0.95 0  -1.05 -0.95 0  -1 -0.95 0  -0.9500000000000002 -0.95 0  -0.9000000000000004 -0.95 0  -0.8499999999999996 -0.95 0  -0.7999999999999998 -0.95 0  -0.75 -0.95 0  -0.7000000000000002 -0.95 0  -0.6500000000000004 -0.95 0  -0.5999999999999996 -0.95 0  -0.5499999999999998 -0.95 0  -0.5 -0.95 0  -0.4500000000000002 -0.95 0  -0.4000000000000004 -0.95 0  -0.3499999999999996 -0.95 0  -0.2999999999999998 -0.95 0  -0.25 -0.95 0  -0.2000000000000002 -0.95 0  -0.1500000000000004 -0.95 0  -0.09999999999999964 -0.95 0  -0.04999999999999982 -0.95 0  0 -0.95 0  0.04999999999999982 -0.95 0  0.09999999999999964 -0.95 0  0.1500000000000004 -0.95 0  0.2000000000000002 -0.95 0  0.25 -0.95 0  0.2999999999999998 -0.95 0  0.3499999999999996 -0.95 0  0.4000000000000004 -0.95 0  0.4500000000000002 -0.95 0  0.5 -0.95 0  0.5499999999999998 -0.95 0  0.5999999999999996 -0.95 0  0.6500000000000004 -0.95 0  0.7000000000000002 -0.95 0  0.75 -0.95 0  0.7999999999999998 -0.95 0  0.8499999999999996 -0.95 0  0.9000000000000004 -0.95 0  0.9500000000000002 -0.95 0  1 -0.95 0  1.05 -0.95 0  1.1 -0.95 0  1.15 -0.95 0  1.2 -0.95 0  1.25 -0.95 0  1.3 -0.95 0  1.35 -0.95 0  1.4 -0.95 0  1.45 -0.95 0  1.5 -0.95 0  1.55 -0.95 0  1.6 -0.95 0  1.65 -0.95 0  1.7 -0.95 0  1.75 -0.95 0  1.8 -0.95 0  1.85 -0.95 0  1.9 -0.95 0  1.95 -0.95 0  2 -0.95 0  2.05 -0.95 0  2.1 -0.95 0  2.15 -0.95 0  2.2 -0.95 0  2.25 -0.95 0  2.3 -0.95 0  2.35 -0.95 0  2.4 -0.95 0  2.45 -0.95 0  2.5 -0.95 0  2.55 -0.95 0  2.6 -0.95 0  2.65 -0.95 0  2.7 -0.95 0  2.75 -0.95 0  2.8 -0.95 0  2.85 -0.95 0  2.9 -0.95 0  2.95 -0.95 0  3 -0.95 0  3.050000000000001 -0.95 0  3.1 -0.95 0  3.15 -0.95 0  3.199999999999999 -0.95 0  3.25 -0.95 0  3.300000000000001 -0.95 0  3.35 -0.95 0  3.4 -0.95 0  3.449999999999999 -0.95 0  3.5 -0.95 0  3.550000000000001 -0.95 0  3.6 -0.95 0  3.65 -0.95 0  3.699999999999999 -0.95 0  3.75 -0.95 0  3.800000000000001 -0.95 0  3.85 -0.95 0  3.9 -0.95 0  3.949999999999999 -0.95 0  4 -0.95 0  4.050000000000001 -0.95 0  4.1 -0.95 0  4.15 -0.95 0  4.199999999999999 -0.95 0  4.25 -0.95 0  4.300000000000001 -0.95 0  4.35 -0.95 0  4.4 -0.95 0  4.449999999999999 -0.95 0  4.5 -0.95 0  4.550000000000001 -0.95 0  4.6 -0.95 0  4.65 -0.95 0  4.699999999999999 -0.95 0  4.75 -0.95 0  4.800000000000001 -0.95 0  4.85 -0.95 0  4.9 -0.95 0  4.949999999999999 -0.95 0  5 -0.95 0  -5 -0.9 0  -4.95 -0.9 0  -4.9 -0.9 0  -4.85 -0.9 0  -4.8 -0.9 0  -4.75 -0.9 0  -4.7 -0.9 0  -4.65 -0.9 0  -4.6 -0.9 0  -4.55 -0.9 0  -4.5 -0.9 0  -4.45 -0.9 0  -4.4 -0.9 0  -4.35 -0.9 0  -4.3 -0.9 0  -4.25 -0.9 0  -4.2 -0.9 0  -4.15 -0.9 0  -4.1 -0.9 0  -4.05 -0.9 0  -4 -0.9 0  -3.95 -0.9 0  -3.9 -0.9 0  -3.85 -0.9 0  -3.8 -0.9 0  -3.75 -0.9 0  -3.7 -0.9 0  -3.65 -0.9 0  -3.6 -0.9 0  -3.55 -0.9 0  -3.5 -0.9 0  -3.45 -0.9 0  -3.4 -0.9 0  -3.35 -0.9 0  -3.3 -0.9 0  -3.25 -0.9 0  -3.2 -0.9 0  -3.15 -0.9 0  -3.1 -0.9 0  -3.05 -0.9 0  -3 -0.9 0  -2.95 -0.9 0  -2.9 -0.9 0  -2.85 -0.9 0  -2.8 -0.9 0  -2.75 -0.9 0  -2.7 -0.9 0  -2.65 -0.9 0  -2.6 -0.9 0  -2.55 -0.9 0  -2.5 -0.9 0  -2.45 -0.9 0  -2.4 -0.9 0  -2.35 -0.9 0  -2.3 -0.9 0  -2.25 -0.9 0  -2.2 -0.9 0  -2.15 -0.9 0  -2.1 -0.9 0  -2.05 -0.9 0  -2 -0.9 0  -1.95 -0.9 0  -1.9 -0.9 0  -1.85 -0.9 0  -1.8 -0.9 0  -1.75 -0.9 0  -1.7 -0.9 0  -1.65 -0.9 0  -1.6 -0.9 0  -1.55 -0.9 0  -1.5 -0.9 0  -1.45 -0.9 0  -1.4 -0.9 0  -1.35 -0.9 0  -1.3 -0.9 0  -1.25 -0.9 0  -1.2 -0.9 0  -1.15 -0.9 0  -1.1 -0.9 0  -1.05 -0.9 0  -1 -0.9 0  -0.9500000000000002 -0.9 0  -0.9000000000000004 -0.9 0  -0.8499999999999996 -0.9 0  -0.7999999999999998 -0.9 0  -0.75 -0.9 0  -0.7000000000000002 -0.9 0  -0.6500000000000004 -0.9 0  -0.5999999999999996 -0.9 0  -0.5499999999999998 -0.9 0  -0.5 -0.9 0  -0.4500000000000002 -0.9 0  -0.4000000000000004 -0.9 0  -0.3499999999999996 -0.9 0  -0.2999999999999998 -0.9 0  -0.25 -0.9 0  -0.2000000000000002 -0.9 0  -0.1500000000000004 -0.9 0  -0.09999999999999964 -0.9 0  -0.04999999999999982 -0.9 0  0 -0.9 0  0.04999999999999982 -0.9 0  0.09999999999999964 -0.9 0  0.1500000000000004 -0.9 0  0.2000000000000002 -0.9 0  0.25 -0.9 0  0.2999999999999998 -0.9 0  0.3499999999999996 -0.9 0  0.4000000000000004 -0.9 0  0.4500000000000002 -0.9 0  0.5 -0.9 0  0.5499999999999998 -0.9 0  0.5999999999999996 -0.9 0  0.6500000000000004 -0.9 0  0.7000000000000002 -0.9 0  0.75 -0.9 0  0.7999999999999998 -0.9 0  0.8499999999999996 -0.9 0  0.9000000000000004 -0.9 0  0.9500000000000002 -0.9 0  1 -0.9 0  1.05 -0.9 0  1.1 -0.9 0  1.15 -0.9 0  1.2 -0.9 0  1.25 -0.9 0  1.3 -0.9 0  1.35 -0.9 0  1.4 -0.9 0  1.45 -0.9 0  1.5 -0.9 0  1.55 -0.9 0  1.6 -0.9 0  1.65 -0.9 0  1.7 -0.9 0  1.75 -0.9 0  1.8 -0.9 0  1.85 -0.9 0  1.9 -0.9 0  1.95 -0.9 0  2 -0.9 0  2.05 -0.9 0  2.1 -0.9 0  2.15 -0.9 0  2.2 -0.9 0  2.25 -0.9 0  2.3 -0.9 0  2.35 -0.9 0  2.4 -0.9 0  2.45 -0.9 0  2.5 -0.9 0  2.55 -0.9 0  2.6 -0.9 0  2.65 -0.9 0  2.7 -0.9 0  2.75 -0.9 0  2.8 -0.9 0  2.85 -0.9 0  2.9 -0.9 0  2.95 -0.9 0  3 -0.9 0  3.050000000000001 -0.9 0  3.1 -0.9 0  3.15 -0.9 0  3.199999999999999 -0.9 0  3.25 -0.9 0  3.300000000000001 -0.9 0  3.35 -0.9 0  3.4 -0.9 0  3.449999999999999 -0.9 0  3.5 -0.9 0  3.550000000000001 -0.9 0  3.6 -0.9 0  3.65 -0.9 0  3.699999999999999 -0.9 0  3.75 -0.9 0  3.800000000000001 -0.9 0  3.85 -0.9 0  3.9 -0.9 0  3.949999999999999 -0.9 0  4 -0.9 0  4.050000000000001 -0.9 0  4.1 -0.9 0  4.15 -0.9 0  4.199999999999999 -0.9 0  4.25 -0.9 0  4.300000000000001 -0.9 0  4.35 -0.9 0  4.4 -0.9 0  4.449999999999999 -0.9 0  4.5 -0.9 0  4.550000000000001 -0.9 0  4.6 -0.9 0  4.65 -0.9 0  4.699999999999999 -0.9 0  4.75 -0.9 0  4.800000000000001 -0.9 0  4.85 -0.9 0  4.9 -0.9 0  4.949999999999999 -0.9 0  5 -0.9 0  -5 -0.85 0  -4.95 -0.85 0  -4.9 -0.85 0  -4.85 -0.85 0  -4.8 -0.85 0  -4.75 -0.85 0  -4.7 -0.85 0  -4.65 -0.85 0  -4.6 -0.85 0  -4.55 -0.85 0  -4.5 -0.85 0  -
[...]
<PointData  Vectors="f_15"> 
<DataArray  type="Float64"  Name="f_15"  NumberOfComponents="3" format="ascii">1.6415863987766341e+00 0.0000000000000000e+00 0.0000000000000000e+00  1.6438970252795517e+00 3.0520188775219531e-02 0.0000000000000000e+00  1.6438535684750393e+00 9.8492121927922116e-02 0.0000000000000000e+00  1.6427572495525851e+00 1.2806202127596863e-01 0.0000000000000000e+00  1.6446670955730098e+00 1.7296398179604575e-01 0.0000000000000000e+00  1.6422133501464189e+00 2.1615963600415916e-01 0.0000000000000000e+00  1.6451952184199523e+00 2.5094880217740978e-01 0.0000000000000000e+00  1.6410120616600161e+00 3.0168549043799842e-01 0.0000000000000000e+00  1.6456494718913504e+00 3.2696146434759560e-01 0.0000000000000000e+00  1.6394526000696656e+00 3.8756406784634650e-01 0.0000000000000000e+00  1.6457705577115804e+00 4.0261197575161145e-01 0.0000000000000000e+00  1.6377552145834795e+00 4.7688097009180952e-01 0.0000000000000000e+00  1.6455594377772562e+00 4.6910105093205745e-01 0.0000000000000000e+00  1.6360454726715923e+00 5.6884927285644460e-01 0.0000000000000000e+00  1.6451490983525001e+00 5.5483893351122360e-01 0.0000000000000000e+00  1.6342156629136488e+00 6.1941219612770371e-01 0.0000000000000000e+00  1.6446710481434679e+00 6.7406871243523869e-01 0.0000000000000000e+00  1.6324817749055496e+00 6.7963292545862974e-01 0.0000000000000000e+00  1.6434621344158737e+00 7.4225999897906647e-01 0.0000000000000000e+00  1.6313825635162225e+00 7.8301510748752423e-01 0.0000000000000000e+00  1.6421904062309929e+00 8.1654623884457789e-01 0.0000000000000000e+00  1.6295871460180578e+00 8.4692571485140566e-01 0.0000000000000000e+00  1.6413546782022883e+00 9.1229650478421132e-01 0.0000000000000000e+00  1.6282407855844145e+00 9.2998688775787697e-01 0.0000000000000000e+00  1.6392599804922461e+00 9.7950899211628906e-01 0.0000000000000000e+00  1.6276276262644942e+00 1.0172369240528729e+00 0.0000000000000000e+00  1.6375947381649412e+00 1.0618085907426555e+00 0.0000000000000000e+00  1.6257797705811081e+00 1.0951046018596986e+00 0.0000000000000000e+00  1.6364663409811167e+00 1.1423520189764149e+00 0.0000000000000000e+00  1.6246500339756624e+00 1.1768231583736293e+00 0.0000000000000000e+00  1.6338671196855425e+00 1.2190466055907550e+00 0.0000000000000000e+00  1.6243684271355414e+00 1.2618465329417399e+00 0.0000000000000000e+00  1.6317784474895942e+00 1.2966047180570062e+00 0.0000000000000000e+00  1.6227486850391981e+00 1.3385792348347680e+00 0.0000000000000000e+00  1.6306499259484117e+00 1.3775757046400439e+00 0.0000000000000000e+00  1.6217112460594183e+00 1.4194463453540824e+00 0.0000000000000000e+00  1.6283182177868005e+00 1.4517637888900978e+00 0.0000000000000000e+00  1.6217291160752336e+00 1.4989586904388146e+00 0.0000000000000000e+00  1.6267317237580916e+00 1.5283900312349887e+00 0.0000000000000000e+00  1.6210314838929338e+00 1.5726789294796168e+00 0.0000000000000000e+00  1.6263542308128918e+00 1.6056878960009084e+00 0.0000000000000000e+00  1.6215892051053644e+00 1.6457100659820030e+00 0.0000000000000000e+00  1.6259683598957761e+00 1.6733044521086367e+00 0.0000000000000000e+00  1.6239727861371354e+00 1.7174890293905232e+00 0.0000000000000000e+00  1.6281610568770035e+00 1.7400477613201619e+00 0.0000000000000000e+00  1.6275164248575138e+00 1.7768759993392338e+00 0.0000000000000000e+00  1.6337661823387941e+00 1.7995523309809798e+00 0.0000000000000000e+00  1.6353288159637105e+00 1.8301979227492511e+00 0.0000000000000000e+00  1.6419860220780895e+00 1.8435627679366138e+00 0.0000000000000000e+00  1.6473853841189210e+00 1.8758033625751680e+00 0.0000000000000000e+00  1.6545406685560065e+00 1.8809362836715589e+00 0.0000000000000000e+00  1.6606552285181693e+00 1.9078255344287207e+00 0.0000000000000000e+00  1.6693476458311591e+00 1.9153357139771305e+00 0.0000000000000000e+00  1.6754656621315867e+00 1.9405616285195566e+00 0.0000000000000000e+00  1.6829153388670570e+00 1.9427445518536373e+00 0.0000000000000000e+00  1.6906137602985389e+00 1.9740983549694842e+00 0.0000000000000000e+00  1.6968772464077917e+00 1.9731721468501566e+00 0.0000000000000000e+00  1.7038324599823540e+00 2.0008684015717106e+00 0.0000000000000000e+00  1.7110619256305333e+00 2.0065601929636658e+00 0.0000000000000000e+00  1.7170988651073325e+00 2.0298833360004473e+00 0.0000000000000000e+00  1.7235779471545958e+00 2.0329363030516876e+00 0.0000000000000000e+00  1.7303388721054802e+00 2.0609151811238404e+00 0.0000000000000000e+00  1.7364789002613317e+00 2.0613071451020604e+00 0.0000000000000000e+00  1.7415708592398087e+00 2.0853411001034745e+00 0.0000000000000000e+00  1.7495350272738606e+00 2.0917062385286145e+00 0.0000000000000000e+00  1.7529546301635204e+00 2.1115550056873471e+00 0.0000000000000000e+00  1.7607260323179579e+00 2.1152562211695924e+00 0.0000000000000000e+00  1.7643322499957355e+00 2.1397276900862674e+00 0.0000000000000000e+00  1.7721603160379962e+00 2.1408196678563662e+00 0.0000000000000000e+00  1.7736909232069140e+00 2.1607405450230015e+00 0.0000000000000000e+00  1.7833008608664571e+00 2.1683131602900825e+00 0.0000000000000000e+00  1.7832700038598346e+00 2.1838563514757032e+00 0.0000000000000000e+00  1.7922927915763780e+00 2.1874866566734328e+00 0.0000000000000000e+00  1.7925015114986633e+00 2.2095193545057064e+00 0.0000000000000000e+00  1.8015691362642918e+00 2.2068281459287395e+00 0.0000000000000000e+00  1.7995620064517850e+00 2.2277674926367377e+00 0.0000000000000000e+00  1.8101315020765134e+00 2.2276678909187551e+00 0.0000000000000000e+00  1.8071994730726977e+00 2.2459795855744416e+00 0.0000000000000000e+00  1.8161975876367600e+00 2.2419757286730690e+00 0.0000000000000000e+00  1.8143200053409014e+00 2.2630787489947957e+00 0.0000000000000000e+00  1.8226655552599045e+00 2.2592163815124588e+00 0.0000000000000000e+00  1.8191760958439085e+00 2.2700923105417252e+00 0.0000000000000000e+00  1.8282195473648457e+00 2.2790145722133444e+00 0.0000000000000000e+00  1.8247584940257122e+00 2.2767525453659911e+00 0.0000000000000000e+00  1.8315041010143709e+00 2.2917978001091353e+00 0.0000000000000000e+00  1.8295175519486000e+00 2.2831550055840024e+00 0.0000000000000000e+00  1.8352923159163954e+00 2.3073427338201702e+00 0.0000000000000000e+00  1.8325137782435581e+00 2.2809574815563298e+00 0.0000000000000000e+00  1.8378780228603786e+00 2.3231911812254014e+00 0.0000000000000000e+00  1.8364709462781263e+00 2.2828287321720562e+00 0.0000000000000000e+00  1.8387497544199665e+00 2.3286071695095867e+00 0.0000000000000000e+00  1.8392278498045971e+00 2.2881962521553882e+00 0.0000000000000000e+00  1.8407472441490018e+00 2.3351776450745394e+00 0.0000000000000000e+00  1.8404116363694512e+00 2.2875625305918397e+00 0.0000000000000000e+00  1.8417464718013359e+00 2.3402540492509600e+00 0.0000000000000000e+00  1.8428585099974171e+00 2.2938252281844944e+00 0.0000000000000000e+00  1.8412853022689026e+00 2.3349534174073558e+00 0.0000000000000000e+00  1.8442337035626919e+00 2.3030740892789239e+00 0.0000000000000000e+00  1.8426851584369295e+00 2.3331682820992157e+00 0.0000000000000000e+00  1.8437966456555308e+00 2.3049325082929197e+00 0.0000000000000000e+00  1.8435631719086107e+00 2.3330742906712461e+00 0.0000000000000000e+00  1.8448978900357165e+00 2.3108228004105222e+00 0.0000000000000000e+00  1.8430530539763617e+00 2.3274252300133571e+00 0.0000000000000000e+00  1.8453093236844325e+00 2.3157865536129045e+00 0.0000000000000000e+00  1.8445631401249005e+00 2.3290512495399240e+00 0.0000000000000000e+00  1.8439569842643879e+00 2.3124888710727491e+00 0.0000000000000000e+00  1.8456988036499404e+00 2.3328912855320230e+00 0.0000000000000000e+00  1.8445446853122727e+00 2.3136581589701923e+00 0.0000000000000000e+00  1.8452700059037672e+00 2.3307633383539699e+00 0.0000000000000000e+00  1.8447583024121776e+00 2.3156094400576768e+00 0.0000000000000000e+00  1.8466259372847651e+00 2.3341130123351990e+00 0.0000000000000000e+00  1.8435873802120371e+00 2.3114914405486831e+00 0.0000000000000000e+00  1.8476629476285047e+00 2.3375193372825325e+00 0.0000000000000000e+00  1.8442111278537840e+00 2.3141892984166517e+00 0.0000000000000000e+00  1.8471298199764421e+00 2.3328527711808955e+00 0.0000000000000000e+00  1.8447294767371454e+00 2.3200483052226666e+00 0.0000000000000000e+00  1.8482718944272112e+00 2.3316377740301322e+00 0.0000000000000000e+00  1.8437359415960970e+00 2.3194990926627708e+00 0.0000000000000000e+00  1.8494196969670234e+00 2.3344530755060209e+00 0.0000000000000000e+00  1.8440910423158841e+00 2.3195241746492061e+00 0.0000000000000000e+00  1.8492132605901475e+00 2.3338737030101608e+00 0.0000000000000000e+00  1.8446665523827013e+00 2.3225246309326648e+00 0.0000000000000000e+00  1.8500306400146631e+00 2.3308833227891705e+00 0.0000000000000000e+00  1.8438592685129809e+00 2.3288148828687949e+00 0.0000000000000000e+00  1.8513382329816357e+00 2.3240778851615209e+00 0.0000000000000000e+00  1.8439186550478455e+00 2.3347555748896105e+00 0.0000000000000000e+00  1.8512426303637501e+00 2.3252912796392375e+00 0.0000000000000000e+00  1.8445887804585985e+00 2.3265518719894431e+00 0.0000000000000000e+00  1.8519334532136149e+00 2.3373329871231041e+00 0.0000000000000000e+00  1.8440913213412946e+00 2.3188218722807918e+00 0.0000000000000000e+00  1.8532958497626615e+00 2.3344706765046705e+00 0.0000000000000000e+00  1.8441845872303624e+00 2.3303066731391366e+00 0.0000000000000000e+00  1.8539703077142453e+00 2.3194106256930400e+00 0.0000000000000000e+00  1.8450871205930772e+00 2.3364016133523888e+00 0.0000000000000000e+00  1.8554583166549854e+00 2.3200468224832904e+00 0.0000000000000000e+00  1.8454637288209643e+00 2.3241873953378369e+00 0.0000000000000000e+00  1.8580822825071899e+00 2.3272928954237813e+00 0.0000000000000000e+00  1.8471140793540002e+00 2.3118036863955074e+00 0.0000000000000000e+00  1.8600669461147914e+00 2.3269858548221944e+00 0.0000000000000000e+00  1.8503694945893856e+00 2.3028134260931403e+00 0.0000000000000000e+00  1.8639337909857863e+00 2.3191526478275066e+00 0.0000000000000000e+00  1.8541799637991569e+00 2.2949298993543410e+00 0.0000000000000000e+00  1.8711656264824206e+00 2.3017606747683059e+00 0.0000000000000000e+00  1.8627513553755335e+00 2.2810814944259770e+00 0.0000000000000000e+00  1.8846393064637732e+00 2.2747536105554795e+00 0.0000000000000000e+00  1.8798294796280344e+00 2.2485029593916304e+00 0.0000000000000000e+00  1.9082029346624190e+00 2.2382530005724468e+00 0.0000000000000000e+00  1.9040872197772454e+00 2.2038429637898713e+00 0.0000000000000000e+00  1.9324426106868102e+00 2.2023050562449784e+00 0.0000000000000000e+00  1.9190527750563395e+00 2.1828307990369415e+00 0.0000000000000000e+00  1.9344364785699113e+00 2.2031007566422622e+00 0.0000000000000000e+00  1.9053399351385831e+00 2.2093255452698095e+00 0.0000000000000000e+00  1.9086321968526518e+00 2.2513069537120103e+00 0.0000000000000000e+00  1.8723219164171461e+00 2.2664638019039702e+00 0.0000000000000000e+00  1.8735927325658233e+00 2.3121073986554186e+00 0.0000000000000000e+00  1.8345255796313686e+00 2.3401510060575421e+00 0.0000000000000000e+00  1.8244405923770723e+00 2.3871156031378740e+00 0.0000000000000000e+00  1.7855973375547594e+00 2.4190591618182951e+00 0.0000000000000000e+00  1.7725319922434777e+00 2.4681615712516254e+00 0.0000000000000000e+00  2.0178481003845246e+00 1.8861043687794998e+00 0.0000000000000000e+00  2.6690938757522549e+00 5.4728907761542245e-01 0.0000000000000000e+00  2.9265822281571006e+00 4.2212709019842559e-02 0.0000000000000000e+00  2.9599682351279437e+00 1.4837412337886380e-02 0.0000000000000000e+00  2.9584986150416190e+00 -3.7308111490698959e-02 0.0000000000000000e+00  2.9809438422304320e+00 -3.1965910379410309e-02 0.0000000000000000e+00  2.9604934668936922e+00 -4.8746223465373224e-02 0.0000000000000000e+00  2.9779138071816265e+00 -2.6564840988858043e-02 0.0000000000000000e+00  2.9639669372755320e+00 -5.0653374317319311e-02 0.0000000000000000e+00  2.9768071598423389e+00 -2.2395763264551890e-02 0.0000000000000000e+00  2.9655788198278592e+00 -4.1821555775162229e-02 0.0000000000000000e+00  2.9754398009786667e+00 -1.3569039626681873e-02 0.0000000000000000e+00  2.9665627968780046e+00 -3.1336578396827235e-02 0.0000000000000000e+00  2.9738995196785813e+00 -8.6280318095752519e-03 0.0000000000000000e+00  2.9690292810009615e+00 -2.6352135031371082e-02 0.0000000000000000e+00  2.9724463708855215e+00 -3.2942564031828965e-03 0.0000000000000000e+00  2.9706662457242556e+00 -2.6973991351614986e-02 0.0000000000000000e+00  2.9708416552245644e+00 4.5914071342375036e-05 0.0000000000000000e+00  2.9734180764326807e+00 -2.9643642602621371e-02 0.0000000000000000e+00  2.9690332792578307e+00 -1.4170649570987557e-03 0.0000000000000000e+00  2.9756513948815111e+00 -3.2305785300071124e-02 0.0000000000000000e+00  2.9682530164620107e+00 -5.6979671634330318e-03 0.0000000000000000e+00  2.9771356556482158e+00 -3.3190150332294610e-02 0.0000000000000000e+00  2.9677348220695845e+00 -1.3992921404745794e-02 0.0000000000000000e+00  2.9791282030337918e+00 -3.1678489743082211e-02 0.0000000000000000e+00  2.9667220638399874e+00 -2.0905317257795149e-02 0.0000000000000000e+00  2.9808813489544250e+00 -2.8987219703678943e-02 0.0000000000000000e+00  2.9667096564374695e+00 -2.2859671738719074e-02 0.0000000000000000e+00  2.9814665912017562e+00 -2.4725128147205643e-02 0.0000000000000000e+00  2.9668738597847590e+00 -1.9095661685776911e-02 0.0000000000000000e+00  2.9825326936570802e+00 -2.3096413293190843e-02 0.0000000000000000e+00  2.9660312720945159e+00 -1.8205785371443763e-02 0.0000000000000000e+00  2.9831725368439090e+00 -4.0131958545418511e-02 0.0000000000000000e+00  2.9663036196343548e+00 -4.4890233559340798e-02 0.0000000000000000e+00  2.9814325524623486e+00 -7.6878953039406700e-02 0.0000000000000000e+00  2.9670608418485100e+00 -7.5835377949638849e-02 0.0000000000000000e+00  2.9799574897676924e+00 -9.1423640056080224e-02 0.0000000000000000e+00  2.9660962701426508e+00 -7.1520953305140716e-02 0.0000000000000000e+00  2.9787275611229571e+00 -7.0764629988974800e-02 0.0000000000000000e+00  2.9663777151161805e+00 -6.0575966573751680e-02 0.0000000000000000e+00  2.9745695315952791e+00 -4.7880839354014465e-02 0.0000000000000000e+00  2.9681038697589832e+00 0.0000000000000000e+00 0.0000000000000000e+00  1.6356901723288797e+00 0.0000000000000000e+00 1.2073421717570035e-02  1.6401001002565996e+00 3.7744668762914733e-02 9.0530840559866261e-05  1.6358048314908911e+00 7.2808514018694481e-02 -8.4462175729917519e-03  1.6382813171528723e+00 1.1232310836899573e-01 1.0924702954034243e-03  1.6361717938094864e+00 1.5712791555333816e-01 3.3960623616147707e-03  1.6373511358356392e+00 1.9127049873497604e-01 -8.0902412980615717e-03  1.6358555269379700e+00 2.4351677297925917e-01 1.0822403423092628e-02  1.6370152437256460e+00 2.6862369837887573e-01 -1.1636565074026176e-02  1.6355915526974938e+00 3.2890922121659277e-01 1.1645697180035615e-02  1.6366843394347184e+00 3.5121608817887973e-01 -1.1157153843880479e-02  1.6354892986395306e+00 4.1141985476194365e-01 1.1179996556035257e-02  1.6363500247311331e+00 4.3071227885351149e-01 -1.1251306048887570e-02  1.6354595197290538e+00 5.0019512538754740e-01 1.1350911359433113e-02  1.6359300023801160e+00 5.1333087553733259e-01 -8.4630866597641217e-03  1.6355165157325364e+00 5.6795239931414221e-01 1.1310405512829427e-03  1.6353350960166166e+00 6.2361475173152381e-01 1.0686884075273075e-02  1.6355676172996525e+00 6.2820268715908367e-01 -2.0796088494741079e-02  1.6344335841445212e+00 7.0656703464856485e-01 2.2049496544351701e-02  1.6353215966446710e+00 7.3130741024832047e-01 -1.2655375433086747e-02  1.6340905040504330e+00 7.7020870215362203e-01 1.7617488259551886e-03  1.6340710714920477e+00 8.1452801283015785e-01 2.3154344938500974e-03  1.6340209324900650e+00 8.6335276118748794e-01 9.0439564112002101e-04  1.6330985285058592e+00 8.9285222745835080e-01 -2.5161348773084474e-03  1.6329216352928093e+00 9.3515723213452084e-01 -2.4343278509776039e-03  1.6323364672553118e+00 9.8728020914850489e-01 1.0091726021353066e-02  1.6323646613061908e+00 1.0114953341221107e+00 -1.4231884904448055e-02  1.6302474393047537e+00 1.0675609788923921e+00 1.4813530474224394e-02  1.6322098970679204e+00 1.0924393562099335e+00 -1.5791128546655743e-02  1.6287408752406316e+00 1.1505009419229297e+00 1.7833916543138949e-02  1.6306231591141891e+00 1.1690503918320569e+00 -2.0133692480954278e-02  1.6278379591555281e+00 1.2355632550239537e+00 2.1665968946224645e-02  1.6295461280409205e+00 1.2453950597886567e+00 -2.3247224842292476e-02  1.6255091234355290e+00 1.3144782920632478e+00 2.4241850303983473e-02  1.6292689253060766e+00 1.3274770002501517e+00 -2.4782885068801483e-02  1.6236942199169515e+00 1.3946604207342626e+00 2.5606367371519136e-02  1.6276209410249212e+00 1.4008021938233310e+00 -2.6662273054472305e-02  1.6228775465520120e+00 1.4762325314547979e+00 2.7008518030929653e-02  1.6265044161954625e+00 1.4788360778425735e+00 -2.6597570450158640e-02  1.6211833386044909e+00 1.5502041423723893e+00 2.6576218248095518e-02  1.6263843425751021e+00 1.5564735235578746e+00 -2.6471179631772531e-02  1.6205585837746934e+00 1.6246363142257718e+00 2.5998855105362099e-02  1.6258625233906623e+00 1.6268536171298003e+00 -2.5186745899782675e-02  1.6215732427723728e+00 1.6985186017160270e+00 2.4787454866227698e-02  1.6272838618159513e+00 1.6963517629167277e+00 -2.3951734181276451e-02  1.6234096703417187e+00 1.7600056069414070e+00 2.2732008944797544e-02  1.6314191320991336e+00 1.7617996989108358e+00 -2.1597936258931749e-02  1.6290400539380481e+00 1.8171554311201132e+00 2.0668791652798599e-02  1.6377294600591792e+00 1.8128655018728064e+00 -1.9500163512354667e-02  1.6389692779465250e+00 1.8656994460334082e+00 1.8362109611263718e-02  1.6487343526118150e+00 1.8565175065820472e+00 -1.7260897564308736e-02  1.6511293659211139e+00 1.8991552359918114e+00 1.6217476598413751e-02  1.6629631972352548e+00 1.8954126233310271e+00 -1.4804610906147559e-02  1.6658880164169332e+00 1.9306047871734389e+00 1.3877343969288122e-02  1.6765729579327551e+00 1.9255944103910696e+00 -1.2757675228172071e-02  1.6812820089450682e+00 1.9628131404080449e+00 1.2044385085662759e-02  1.6906517007783606e+00 1.9588425857281968e+00 -1.0779297453992814e-02  1.6947934849758155e+00 1.9893959514028146e+00 1.0276616963357526e-02  1.7049330137623124e+00 1.9943740366623977e+00 -9.0684018834507555e-03  1.7085024756368290e+00 2.0188097311008248e+00 8.7708695531605457e-03  1.7175837118339472e+00 2.0228534982450030e+00 -7.8008626831450895e-03  1.7223191993829974e+00 2.0510612342996009e+00 8.0917369880279099e-03  1.7306309995779845e+00 2.0531002912965248e+00 -7.3788758523704624e-03  1.7342931099509742e+00 2.0770689482418301e+00 7.8555996562471586e-03  1.7438818301638355e+00 2.0847978521949773e+00 -7.3491440835367133e-03  1.7465500869275103e+00 2.1051026492679492e+00 7.8804655464508998e-03  1.7553096738452818e+00 2.1093196888151216e+00 -7.6769133148016835e-03  1.7588418294411514e+00 2.1351901567937968e+00 8.1623710046728141e-03  1.7669530460908149e+00 2.1353256985153672e+00 -8.3662041531934149e-03  1.7691550147785879e+00 2.1581653569016463e+00 8.5759962441739335e-03  1.7784499352240637e+00 2.1628639207495879e+00 -8.9466638331182208e-03  1.7797889557012543e+00 2.1827696119519753e+00 8.7865650726144766e-03  1.7879248011176112e+00 2.1824867869397968e+00 -9.1880320240810866e-03  1.7901985320647453e+00 2.2091253903171291e+00 8.6602277311848535e-03  1.7976093533255137e+00 2.2034690152660357e+00 -8.8316171034359247e-03  1.7985511005288475e+00 2.2273022687321320e+00 7.7916945411972294e-03  1.8066581230861798e+00 2.2270203280316587e+00 -7.5056445503790623e-03  1.8074900030663461e+00 2.2452019983077576e+00 6.0570206060129011e-03  1.8133365053090407e+00 2.2440384724098399e+00 -5.5079027560314946e-03  1.8158633057325904e+00 2.2632480608884555e+00 4.0357644403730139e-03  1.8205221911569016e+00 2.2628004069672554e+00 -3.4790534111329113e-03  1.8218064659222211e+00 2.2733083003432668e+00 2.2761459098539581e-03  1.8270993693083981e+00 2.2822292368668737e+00 -1.9406914521794712e-03  1.82820