<?xml version="1.0"?>
<VTKFile type="UnstructuredGrid"  version="0.1"  >
<UnstructuredGrid>
<Piece  NumberOfPoints="8241" NumberOfCells="16000">
<Points>
<DataArray  type="Float64"  NumberOfComponents="3"  format="ascii">-5 -1 0  -4.95 -1 0  -4.9 -1 0  -4.85 -1 0  -4.8 -1 0  -4.75 -1 0  -4.7 -1 0  -4.65 -1 0  -4.6 -1 0  -4.55 -1 0  -4.5 -1 0  -4.45 -1 0  -4.4 -1 0  -4.35 -1 0  -4.3 -1 0  -4.25 -1 0  -4.2 -1 0  -4.15 -1 0  -4.1 -1 0  -4.05 -1 0  -4 -1 0  -3.95 -1 0  -3.9 -1 0  -3.85 -1 0  -3.8 -1 0  -3.75 -1 0  -3.7 -1 0  -3.65 -1 0  -3.6 -1 0  -3.55 -1 0  -3.5 -1 0  -3.45 -1 0  -3.4 -1 0  -3.35 -1 0  -3.3 -1 0  -3.25 -1 0  -3.2 -1 0  -3.15 -1 0  -3.1 -1 0  -3.05 -1 0  -3 -1 0  -2.95 -1 0  -2.9 -1 0  -2.85 -1 0  -2.8 -1 0  -2.75 -1 0  -2.7 -1 0  -2.65 -1 0  -2.6 -1 0  -2.55 -1 0  -2.5 -1 0  -2.45 -1 0  -2.4 -1 0  -2.35 -1 0  -2.3 -1 0  -2.25 -1 0  -2.2 -1 0  -2.15 -1 0  -2.1 -1 0  -2.05 -1 0  -2 -1 0  -1.95 -1 0  -1.9 -1 0  -1.85 -1 0  -1.8 -1 0  -1.75 -1 0  -1.7 -1 0  -1.65 -1 0  -1.6 -1 0  -1.55 -1 0  -1.5 -1 0  -1.45 -1 0  -1.4 -1 0  -1.35 -1 0  -1.3 -1 0  -1.25 -1 0  -1.2 -1 0  -1.15 -1 0  -1.1 -1 0  -1.05 -1 0  -1 -1 0  -0.9500000000000002 -1 0  -0.9000000000000004 -1 0  -0.8499999999999996 -1 0  -0.7999999999999998 -1 0  -0.75 -1 0  -0.7000000000000002 -1 0  -0.6500000000000004 -1 0  -0.5999999999999996 -1 0  -0.5499999999999998 -1 0  -0.5 -1 0  -0.4500000000000002 -1 0  -0.4000000000000004 -1 0  -0.3499999999999996 -1 0  -0.2999999999999998 -1 0  -0.25 -1 0  -0.2000000000000002 -1 0  -0.1500000000000004 -1 0  -0.09999999999999964 -1 0  -0.04999999999999982 -1 0  0 -1 0  0.04999999999999982 -1 0  0.09999999999999964 -1 0  0.1500000000000004 -1 0  0.2000000000000002 -1 0  0.25 -1 0  0.2999999999999998 -1 0  0.3499999999999996 -1 0  0.4000000000000004 -1 0  0.4500000000000002 -1 0  0.5 -1 0  0.5499999999999998 -1 0  0.5999999999999996 -1 0  0.6500000000000004 -1 0  0.7000000000000002 -1 0  0.75 -1 0  0.7999999999999998 -1 0  0.8499999999999996 -1 0  0.9000000000000004 -1 0  0.9500000000000002 -1 0  1 -1 0  1.05 -1 0  1.1 -1 0  1.15 -1 0  1.2 -1 0  1.25 -1 0  1.3 -1 0  1.35 -1 0  1.4 -1 0  1.45 -1 0  1.5 -1 0  1.55 -1 0  1.6 -1 0  1.65 -1 0  1.7 -1 0  1.75 -1 0  1.8 -1 0  1.85 -1 0  1.9 -1 0  1.95 -1 0  2 -1 0  2.05 -1 0  2.1 -1 0  2.15 -1 0  2.2 -1 0  2.25 -1 0  2.3 -1 0  2.35 -1 0  2.4 -1 0  2.45 -1 0  2.5 -1 0  2.55 -1 0  2.6 -1 0  2.65 -1 0  2.7 -1 0  2.75 -1 0  2.8 -1 0  2.85 -1 0  2.9 -1 0  2.95 -1 0  3 -1 0  3.050000000000001 -1 0  3.1 -1 0  3.15 -1 0  3.199999999999999 -1 0  3.25 -1 0  3.300000000000001 -1 0  3.35 -1 0  3.4 -1 0  3.449999999999999 -1 0  3.5 -1 0  3.550000000000001 -1 0  3.6 -1 0  3.65 -1 0  3.699999999999999 -1 0  3.75 -1 0  3.800000000000001 -1 0  3.85 -1 0  3.9 -1 0  3.949999999999999 -1 0  4 -1 0  4.050000000000001 -1 0  4.1 -1 0  4.15 -1 0  4.199999999999999 -1 0  4.25 -1 0  4.300000000000001 -1 0  4.35 -1 0  4.4 -1 0  4.449999999999999 -1 0  4.5 -1 0  4.550000000000001 -1 0  4.6 -1 0  4.65 -1 0  4.699999999999999 -1 0  4.75 -1 0  4.800000000000001 -1 0  4.85 -1 0  4.9 -1 0  4.949999999999999 -1 0  5 -1 0  -5 -0.95 0  -4.95 -0.95 0  -4.9 -0.95 0  -4.85 -0.95 0  -4.8 -0.95 0  -4.75 -0.95 0  -4.7 -0.95 0  -4.65 -0.95 0  -4.6 -0.95 0  -4.55 -0.95 0  -4.5 -0.95 0  -4.45 -0.95 0  -4.4 -0.95 0  -4.35 -0.95 0  -4.3 -0.95 0  -4.25 -0.95 0  -4.2 -0.95 0  -4.15 -0.95 0  -4.1 -0.95 0  -4.05 -0.95 0  -4 -0.95 0  -3.95 -0.95 0  -3.9 -0.95 0  -3.85 -0.95 0  -3.8 -0.95 0  -3.75 -0.95 0  -3.7 -0.95 0  -3.65 -0.95 0  -3.6 -0.95 0  -3.55 -0.95 0  -3.5 -0.95 0  -3.45 -0.95 0  -3.4 -0.95 0  -3.35 -0.95 0  -3.3 -0.95 0  -3.25 -0.95 0  -3.2 -0.95 0  -3.15 -0.95 0  -3.1 -0.95 0  -3.05 -0.95 0  -3 -0.95 0  -2.95 -0.95 0  -2.9 -0.95 0  -2.85 -0.95 0  -2.8 -0.95 0  -2.75 -0.95 0  -2.7 -0.95 0  -2.65 -0.95 0  -2.6 -0.95 0  -2.55 -0.95 0  -2.5 -0.95 0  -2.45 -0.95 0  -2.4 -0.95 0  -2.35 -0.95 0  -2.3 -0.95 0  -2.25 -0.95 0  -2.2 -0.95 0  -2.15 -0.95 0  -2.1 -0.95 0  -2.05 -0.95 0  -2 -0.95 0  -1.95 -0.95 0  -1.9 -0.95 0  -1.85 -0.95 0  -1.8 -0.95 0  -1.75 -0.95 0  -1.7 -0.95 0  -1.65 -0.95 0  -1.6 -0.95 0  -1.55 -0.95 0  -1.5 -0.95 0  -1.45 -0.95 0  -1.4 -0.95 0  -1.35 -0.95 0  -1.3 -0.95 0  -1.25 -0.95 0  -1.2 -0.95 0  -1.15 -0.95 0  -1.1 -0.95 0  -1.05 -0.95 0  -1 -0.95 0  -0.9500000000000002 -0.95 0  -0.9000000000000004 -0.95 0  -0.8499999999999996 -0.95 0  -0.7999999999999998 -0.95 0  -0.75 -0.95 0  -0.7000000000000002 -0.95 0  -0.6500000000000004 -0.95 0  -0.5999999999999996 -0.95 0  -0.5499999999999998 -0.95 0  -0.5 -0.95 0  -0.4500000000000002 -0.95 0  -0.4000000000000004 -0.95 0  -0.3499999999999996 -0.95 0  -0.2999999999999998 -0.95 0  -0.25 -0.95 0  -0.2000000000000002 -0.95 0  -0.1500000000000004 -0.95 0  -0.09999999999999964 -0.95 0  -0.04999999999999982 -0.95 0  0 -0.95 0  0.04999999999999982 -0.95 0  0.09999999999999964 -0.95 0  0.1500000000000004 -0.95 0  0.2000000000000002 -0.95 0  0.25 -0.95 0  0.2999999999999998 -0.95 0  0.3499999999999996 -0.95 0  0.4000000000000004 -0.95 0  0.4500000000000002 -0.95 0  0.5 -0.95 0  0.5499999999999998 -0.95 0  0.5999999999999996 -0.95 0  0.6500000000000004 -0.95 0  0.7000000000000002 -0.95 0  0.75 -0.95 0  0.7999999999999998 -0.95 0  0.8499999999999996 -0.95 0  0.9000000000000004 -0.95 0  0.9500000000000002 -0.95 0  1 -0.95 0  1.05 -0.95 0  1.1 -0.95 0  1.15 -0.95 0  1.2 -0.95 0  1.25 -0.95 0  1.3 -0.95 0  1.35 -0.95 0  1.4 -0.95 0  1.45 -0.95 0  1.5 -0.95 0  1.55 -0.95 0  1.6 -0.95 0  1.65 -0.95 0  1.7 -0.95 0  1.75 -0.95 0  1.8 -0.95 0  1.85 -0.95 0  1.9 -0.95 0  1.95 -0.95 0  2 -0.95 0  2.05 -0.95 0  2.1 -0.95 0  2.15 -0.95 0  2.2 -0.95 0  2.25 -0.95 0  2.3 -0.95 0  2.35 -0.95 0  2.4 -0.95 0  2.45 -0.95 0  2.5 -0.95 0  2.55 -0.95 0  2.6 -0.95 0  2.65 -0.95 0  2.7 -0.95 0  2.75 -0.95 0  2.8 -0.95 0  2.85 -0.95 0  2.9 -0.95 0  2.95 -0.95 0  3 -0.95 0  3.050000000000001 -0.95 0  3.1 -0.95 0  3.15 -0.95 0  3.199999999999999 -0.95 0  3.25 -0.95 0  3.300000000000001 -0.95 0  3.35 -0.95 0  3.4 -0.95 0  3.449999999999999 -0.95 0  3.5 -0.95 0  3.550000000000001 -0.95 0  3.6 -0.95 0  3.65 -0.95 0  3.699999999999999 -0.95 0  3.75 -0.95 0  3.800000000000001 -0.95 0  3.85 -0.95 0  3.9 -0.95 0  3.949999999999999 -0.95 0  4 -0.95 0  4.050000000000001 -0.95 0  4.1 -0.95 0  4.15 -0.95 0  4.199999999999999 -0.95 0  4.25 -0.95 0  4.300000000000001 -0.95 0  4.35 -0.95 0  4.4 -0.95 0  4.449999999999999 -0.95 0  4.5 -0.95 0  4.550000000000001 -0.95 0  4.6 -0.95 0  4.65 -0.95 0  4.699999999999999 -0.95 0  4.75 -0.95 0  4.800000000000001 -0.95 0  4.85 -0.95 0  4.9 -0.95 0  4.949999999999999 -0.95 0  5 -0.95 0  -5 -0.9 0  -4.95 -0.9 0  -4.9 -0.9 0  -4.85 -0.9 0  -4.8 -0.9 0  -4.75 -0.9 0  -4.7 -0.9 0  -4.65 -0.9 0  -4.6 -0.9 0  -4.55 -0.9 0  -4.5 -0.9 0  -4.45 -0.9 0  -4.4 -0.9 0  -4.35 -0.9 0  -4.3 -0.9 0  -4.25 -0.9 0  -4.2 -0.9 0  -4.15 -0.9 0  -4.1 -0.9 0  -4.05 -0.9 0  -4 -0.9 0  -3.95 -0.9 0  -3.9 -0.9 0  -3.85 -0.9 0  -3.8 -0.9 0  -3.75 -0.9 0  -3.7 -0.9 0  -3.65 -0.9 0  -3.6 -0.9 0  -3.55 -0.9 0  -3.5 -0.9 0  -3.45 -0.9 0  -3.4 -0.9 0  -3.35 -0.9 0  -3.3 -0.9 0  -3.25 -0.9 0  -3.2 -0.9 0  -3.15 -0.9 0  -3.1 -0.9 0  -3.05 -0.9 0  -3 -0.9 0  -2.95 -0.9 0  -2.9 -0.9 0  -2.85 -0.9 0  -2.8 -0.9 0  -2.75 -0.9 0  -2.7 -0.9 0  -2.65 -0.9 0  -2.6 -0.9 0  -2.55 -0.9 0  -2.5 -0.9 0  -2.45 -0.9 0  -2.4 -0.9 0  -2.35 -0.9 0  -2.3 -0.9 0  -2.25 -0.9 0  -2.2 -0.9 0  -2.15 -0.9 0  -2.1 -0.9 0  -2.05 -0.9 0  -2 -0.9 0  -1.95 -0.9 0  -1.9 -0.9 0  -1.85 -0.9 0  -1.8 -0.9 0  -1.75 -0.9 0  -1.7 -0.9 0  -1.65 -0.9 0  -1.6 -0.9 0  -1.55 -0.9 0  -1.5 -0.9 0  -1.45 -0.9 0  -1.4 -0.9 0  -1.35 -0.9 0  -1.3 -0.9 0  -1.25 -0.9 0  -1.2 -0.9 0  -1.15 -0.9 0  -1.1 -0.9 0  -1.05 -0.9 0  -1 -0.9 0  -0.9500000000000002 -0.9 0  -0.9000000000000004 -0.9 0  -0.8499999999999996 -0.9 0  -0.7999999999999998 -0.9 0  -0.75 -0.9 0  -0.7000000000000002 -0.9 0  -0.6500000000000004 -0.9 0  -0.5999999999999996 -0.9 0  -0.5499999999999998 -0.9 0  -0.5 -0.9 0  -0.4500000000000002 -0.9 0  -0.4000000000000004 -0.9 0  -0.3499999999999996 -0.9 0  -0.2999999999999998 -0.9 0  -0.25 -0.9 0  -0.2000000000000002 -0.9 0  -0.1500000000000004 -0.9 0  -0.09999999999999964 -0.9 0  -0.04999999999999982 -0.9 0  0 -0.9 0  0.04999999999999982 -0.9 0  0.09999999999999964 -0.9 0  0.1500000000000004 -0.9 0  0.2000000000000002 -0.9 0  0.25 -0.9 0  0.2999999999999998 -0.9 0  0.3499999999999996 -0.9 0  0.4000000000000004 -0.9 0  0.4500000000000002 -0.9 0  0.5 -0.9 0  0.5499999999999998 -0.9 0  0.5999999999999996 -0.9 0  0.6500000000000004 -0.9 0  0.7000000000000002 -0.9 0  0.75 -0.9 0  0.7999999999999998 -0.9 0  0.8499999999999996 -0.9 0  0.9000000000000004 -0.9 0  0.9500000000000002 -0.9 0  1 -0.9 0  1.05 -0.9 0  1.1 -0.9 0  1.15 -0.9 0  1.2 -0.9 0  1.25 -0.9 0  1.3 -0.9 0  1.35 -0.9 0  1.4 -0.9 0  1.45 -0.9 0  1.5 -0.9 0  1.55 -0.9 0  1.6 -0.9 0  1.65 -0.9 0  1.7 -0.9 0  1.75 -0.9 0  1.8 -0.9 0  1.85 -0.9 0  1.9 -0.9 0  1.95 -0.9 0  2 -0.9 0  2.05 -0.9 0  2.1 -0.9 0  2.15 -0.9 0  2.2 -0.9 0  2.25 -0.9 0  2.3 -0.9 0  2.35 -0.9 0  2.4 -0.9 0  2.45 -0.9 0  2.5 -0.9 0  2.55 -0.9 0  2.6 -0.9 0  2.65 -0.9 0  2.7 -0.9 0  2.75 -0.9 0  2.8 -0.9 0  2.85 -0.9 0  2.9 -0.9 0  2.95 -0.9 0  3 -0.9 0  3.050000000000001 -0.9 0  3.1 -0.9 0  3.15 -0.9 0  3.199999999999999 -0.9 0  3.25 -0.9 0  3.300000000000001 -0.9 0  3.35 -0.9 0  3.4 -0.9 0  3.449999999999999 -0.9 0  3.5 -0.9 0  3.550000000000001 -0.9 0  3.6 -0.9 0  3.65 -0.9 0  3.699999999999999 -0.9 0  3.75 -0.9 0  3.800000000000001 -0.9 0  3.85 -0.9 0  3.9 -0.9 0  3.949999999999999 -0.9 0  4 -0.9 0  4.050000000000001 -0.9 0  4.1 -0.9 0  4.15 -0.9 0  4.199999999999999 -0.9 0  4.25 -0.9 0  4.300000000000001 -0.9 0  4.35 -0.9 0  4.4 -0.9 0  4.449999999999999 -0.9 0  4.5 -0.9 0  4.550000000000001 -0.9 0  4.6 -0.9 0  4.65 -0.9 0  4.699999999999999 -0.9 0  4.75 -0.9 0  4.800000000000001 -0.9 0  4.85 -0.9 0  4.9 -0.9 0  4.949999999999999 -0.9 0  5 -0.9 0  -5 -0.85 0  -4.95 -0.85 0  -4.9 -0.85 0  -4.85 -0.85 0  -4.8 -0.85 0  -4.75 -0.85 0  -4.7 -0.85 0  -4.65 -0.85 0  -4.6 -0.85 0  -4.55 -0.85 0  -4.5 -0.85 0  -
[...]
<PointData  Vectors="f_15"> 
<DataArray  type="Float64"  Name="f_15"  NumberOfComponents="3" format="ascii">9.9388934546998602e+00 0.0000000000000000e+00 0.0000000000000000e+00  9.9356749207021124e+00 9.8300398388537994e-03 0.0000000000000000e+00  9.9351565707005971e+00 2.9315461567485591e-02 0.0000000000000000e+00  9.9267341252245291e+00 3.6471546753506778e-02 0.0000000000000000e+00  9.9225166299064096e+00 5.5165068975725012e-02 0.0000000000000000e+00  9.9094405635240275e+00 6.6277552740054452e-02 0.0000000000000000e+00  9.9013417249112834e+00 8.4912206798518519e-02 0.0000000000000000e+00  9.8832176227370336e+00 9.9780553267354813e-02 0.0000000000000000e+00  9.8712946491203102e+00 1.2057394717314501e-01 0.0000000000000000e+00  9.8481883968897588e+00 1.3898233188707515e-01 0.0000000000000000e+00  9.8319726511901777e+00 1.6285876572622313e-01 0.0000000000000000e+00  9.8040766557668917e+00 1.8540920735072344e-01 0.0000000000000000e+00  9.7835340419944554e+00 2.1272933749785977e-01 0.0000000000000000e+00  9.7506815798136444e+00 2.3969127689837824e-01 0.0000000000000000e+00  9.7259158609542329e+00 2.7105674779397865e-01 0.0000000000000000e+00  9.6883164115364835e+00 3.0227332486950459e-01 0.0000000000000000e+00  9.6591925455147809e+00 3.3803856920328368e-01 0.0000000000000000e+00  9.6171895008279265e+00 3.7355570006098404e-01 0.0000000000000000e+00  9.5838589227319080e+00 4.1363449182493967e-01 0.0000000000000000e+00  9.5376507895825622e+00 4.5333087798580085e-01 0.0000000000000000e+00  9.5003673152198687e+00 4.9790732401253490e-01 0.0000000000000000e+00  9.4503216837376574e+00 5.4119185698631445e-01 0.0000000000000000e+00  9.4092988973314196e+00 5.9035793118252200e-01 0.0000000000000000e+00  9.3558051774794215e+00 6.3701726199336917e-01 0.0000000000000000e+00  9.3113226704320020e+00 6.9031561473559400e-01 0.0000000000000000e+00  9.2548462319234002e+00 7.4012703487157006e-01 0.0000000000000000e+00  9.2070862815779435e+00 7.9757892720838774e-01 0.0000000000000000e+00  9.1480829728416442e+00 8.4974755688363890e-01 0.0000000000000000e+00  9.0974485836387959e+00 9.1131488067597222e-01 0.0000000000000000e+00  9.0360995942694906e+00 9.6578198129710890e-01 0.0000000000000000e+00  8.9829801477726132e+00 1.0306917520992334e+00 0.0000000000000000e+00  8.9198169404945098e+00 1.0872480272756133e+00 0.0000000000000000e+00  8.8641454263895945e+00 1.1558599326004027e+00 0.0000000000000000e+00  8.7996949098474744e+00 1.2132722103463642e+00 0.0000000000000000e+00  8.7419306176536864e+00 1.2856000109579961e+00 0.0000000000000000e+00  8.6760214837244387e+00 1.3447135634329337e+00 0.0000000000000000e+00  8.6166736911584678e+00 1.4182472514847664e+00 0.0000000000000000e+00  8.5498787302531891e+00 1.4812759934140907e+00 0.0000000000000000e+00  8.4884230125270168e+00 1.5538927942090042e+00 0.0000000000000000e+00  8.4215175514946008e+00 1.6221509410844284e+00 0.0000000000000000e+00  8.3583769165396440e+00 1.6916789988042829e+00 0.0000000000000000e+00  8.2906798329005422e+00 1.7676569225618317e+00 0.0000000000000000e+00  8.2268211984990032e+00 1.8316289509736106e+00 0.0000000000000000e+00  8.1585486588102469e+00 1.9151243222001497e+00 0.0000000000000000e+00  8.0933479180731389e+00 1.9768364445705091e+00 0.0000000000000000e+00  8.0253206685731762e+00 2.0618669132365062e+00 0.0000000000000000e+00  7.9592421464061571e+00 2.1265938468195467e+00 0.0000000000000000e+00  7.8903787442252042e+00 2.2105419056439488e+00 0.0000000000000000e+00  7.8246681597095860e+00 2.2775335221379782e+00 0.0000000000000000e+00  7.7550900933547817e+00 2.3617233096556847e+00 0.0000000000000000e+00  7.6888024307204530e+00 2.4313142234142475e+00 0.0000000000000000e+00  7.6196562677933262e+00 2.5129906940052389e+00 0.0000000000000000e+00  7.5529899973389671e+00 2.5872681197577836e+00 0.0000000000000000e+00  7.4831678122486185e+00 2.6677752881702674e+00 0.0000000000000000e+00  7.4174050337546857e+00 2.7418320729966119e+00 0.0000000000000000e+00  7.3469581964986270e+00 2.8249643646191651e+00 0.0000000000000000e+00  7.2810625803622830e+00 2.9001265209356801e+00 0.0000000000000000e+00  7.2112537357319626e+00 2.9802948197012706e+00 0.0000000000000000e+00  7.1451184294418946e+00 3.0598555973300896e+00 0.0000000000000000e+00  7.0751984349335206e+00 3.1401308000848416e+00 0.0000000000000000e+00  7.0097329374396971e+00 3.2177798335351651e+00 0.0000000000000000e+00  6.9398091954270429e+00 3.3003150848441920e+00 0.0000000000000000e+00  6.8741406512391858e+00 3.3797330232479612e+00 0.0000000000000000e+00  6.8052995385527009e+00 3.4601374705595704e+00 0.0000000000000000e+00  6.7391126941765913e+00 3.5415063034871381e+00 0.0000000000000000e+00  6.6710323243412306e+00 3.6221407243296517e+00 0.0000000000000000e+00  6.6048977282794965e+00 3.7040707743269476e+00 0.0000000000000000e+00  6.5376403330674613e+00 3.7847047078941976e+00 0.0000000000000000e+00  6.4708880055685096e+00 3.8676939709795777e+00 0.0000000000000000e+00  6.4054199676226791e+00 3.9471775881965745e+00 0.0000000000000000e+00  6.3375804352507297e+00 4.0328435389774695e+00 0.0000000000000000e+00  6.2738906517849173e+00 4.1106585894835188e+00 0.0000000000000000e+00  6.2052396632321933e+00 4.1977483641548448e+00 0.0000000000000000e+00  6.1433504703226056e+00 4.2748589983461240e+00 0.0000000000000000e+00  6.0736297436906828e+00 4.3638063387918322e+00 0.0000000000000000e+00  6.0139392213022553e+00 4.4390486042323225e+00 0.0000000000000000e+00  5.9429998847545038e+00 4.5306646730764859e+00 0.0000000000000000e+00  5.8854338194655407e+00 4.6039139606654960e+00 0.0000000000000000e+00  5.8135766114270586e+00 4.6973156030515302e+00 0.0000000000000000e+00  5.7578844468587480e+00 4.7695731294086183e+00 0.0000000000000000e+00  5.6853400989028238e+00 4.8644521510390080e+00 0.0000000000000000e+00  5.6313980303225577e+00 4.9356209427478417e+00 0.0000000000000000e+00  5.5582676211478415e+00 5.0319548916191845e+00 0.0000000000000000e+00  5.5059378865828190e+00 5.1017936049949943e+00 0.0000000000000000e+00  5.4324814355063484e+00 5.1998613483281604e+00 0.0000000000000000e+00  5.3813317408943320e+00 5.2691896598767185e+00 0.0000000000000000e+00  5.3080394763723975e+00 5.3674807148033112e+00 0.0000000000000000e+00  5.2577197444977353e+00 5.4369432406871407e+00 0.0000000000000000e+00  5.1847814780382402e+00 5.5360791822345563e+00 0.0000000000000000e+00  5.1355731419915793e+00 5.6044419396783951e+00 0.0000000000000000e+00  5.0632810649694173e+00 5.7037094412159011e+00 0.0000000000000000e+00  5.0145135833846473e+00 5.7730233657957823e+00 0.0000000000000000e+00  4.9433431457893313e+00 5.8717248102382333e+00 0.0000000000000000e+00  4.8937112778530336e+00 5.9419518764607657e+00 0.0000000000000000e+00  4.8264653710385801e+00 6.0380154761377733e+00 0.0000000000000000e+00  4.7728637359460615e+00 6.1138392976506433e+00 0.0000000000000000e+00  4.7110708202771612e+00 6.2031933543543438e+00 0.0000000000000000e+00  4.6538829924530924e+00 6.2852423126679682e+00 0.0000000000000000e+00  4.5955502427460093e+00 6.3711374255135835e+00 0.0000000000000000e+00  4.5388656474638482e+00 6.4527408230478978e+00 0.0000000000000000e+00  4.4809065747923276e+00 6.5393282305536165e+00 0.0000000000000000e+00  4.4319527913358083e+00 6.6111697319824483e+00 0.0000000000000000e+00  4.3641321664054997e+00 6.7130457328501860e+00 0.0000000000000000e+00  4.3129614926240878e+00 6.7885056443766549e+00 0.0000000000000000e+00  4.2541029450234102e+00 6.8792916969294646e+00 0.0000000000000000e+00  4.2024073900860657e+00 6.9568429055879939e+00 0.0000000000000000e+00  4.1458972406464305e+00 7.0436253910853042e+00 0.0000000000000000e+00  4.0950773342454667e+00 7.1215679354254373e+00 0.0000000000000000e+00  4.0413847539169430e+00 7.2058916460863740e+00 0.0000000000000000e+00  3.9924677867135454e+00 7.2805431310884101e+00 0.0000000000000000e+00  3.9407901830635916e+00 7.3629025963767667e+00 0.0000000000000000e+00  3.8943065019327818e+00 7.4371671622015576e+00 0.0000000000000000e+00  3.8472277475730396e+00 7.5097760060620873e+00 0.0000000000000000e+00  3.7973507839046126e+00 7.5893386750281087e+00 0.0000000000000000e+00  3.7849833092628753e+00 7.6107465170541531e+00 0.0000000000000000e+00  3.8437887376528557e+00 7.5168542766044366e+00 0.0000000000000000e+00  3.8981383271821270e+00 7.4294048428298565e+00 0.0000000000000000e+00  3.9256478775387156e+00 7.3864552496177085e+00 0.0000000000000000e+00  3.9325823877575159e+00 7.3745336220388396e+00 0.0000000000000000e+00  3.9397229586646385e+00 7.3637890634812067e+00 0.0000000000000000e+00  3.9416402722349506e+00 7.3597977606400278e+00 0.0000000000000000e+00  3.9469666780112513e+00 7.3522257372547921e+00 0.0000000000000000e+00  3.9480735414862882e+00 7.3498194569639947e+00 0.0000000000000000e+00  3.9518453065809780e+00 7.3446319882589135e+00 0.0000000000000000e+00  3.9518235279054736e+00 7.3438911612626194e+00 0.0000000000000000e+00  3.9539324741031812e+00 7.3408608590299984e+00 0.0000000000000000e+00  3.9531633923423413e+00 7.3411172194877663e+00 0.0000000000000000e+00  3.9544727127073438e+00 7.3390778446510536e+00 0.0000000000000000e+00  3.9539227275014635e+00 7.3391465167453447e+00 0.0000000000000000e+00  3.9552789665337231e+00 7.3371484234309445e+00 0.0000000000000000e+00  3.9552927787835772e+00 7.3367221136376592e+00 0.0000000000000000e+00  3.9566497623387367e+00 7.3348785503434017e+00 0.0000000000000000e+00  3.9568220545345687e+00 7.3344239199777439e+00 0.0000000000000000e+00  3.9577875886957776e+00 7.3331338486482398e+00 0.0000000000000000e+00  3.9578197021152421e+00 7.3328910837027683e+00 0.0000000000000000e+00  3.9583742630689760e+00 7.3320881953629122e+00 0.0000000000000000e+00  3.9583201526183855e+00 7.3319459506406712e+00 0.0000000000000000e+00  3.9586403123273923e+00 7.3313968757709382e+00 0.0000000000000000e+00  3.9585931124129816e+00 7.3312474379872823e+00 0.0000000000000000e+00  3.9587866868472390e+00 7.3308394905535472e+00 0.0000000000000000e+00  3.9587609190738813e+00 7.3306649031426669e+00 0.0000000000000000e+00  3.9588746465991305e+00 7.3303415643271688e+00 0.0000000000000000e+00  3.9588536722651146e+00 7.3301561978567777e+00 0.0000000000000000e+00  3.9589113068246324e+00 7.3298661680022192e+00 0.0000000000000000e+00  3.9588861747636841e+00 7.3296542789160872e+00 0.0000000000000000e+00  3.9589036460162639e+00 7.3293463760729658e+00 0.0000000000000000e+00  3.9588716507843849e+00 7.3290557056754952e+00 0.0000000000000000e+00  3.9588636437367994e+00 7.3286493001787072e+00 0.0000000000000000e+00  3.9588217725320929e+00 7.3282051618274879e+00 0.0000000000000000e+00  3.9587955004996895e+00 7.3275899296018450e+00 0.0000000000000000e+00  3.9587448333485757e+00 7.3268847823257275e+00 0.0000000000000000e+00  3.9587012240969508e+00 7.3259482193961478e+00 0.0000000000000000e+00  3.9586429659984304e+00 7.3248697254826185e+00 0.0000000000000000e+00  3.9585853396405271e+00 7.3235185295601903e+00 0.0000000000000000e+00  3.9585176435250142e+00 7.3220088104154621e+00 0.0000000000000000e+00  3.9584489426127596e+00 7.3202140758914060e+00 0.0000000000000000e+00  3.9583722323520703e+00 7.3182989073356657e+00 0.0000000000000000e+00  3.9582920422841594e+00 7.3161355123077634e+00 0.0000000000000000e+00  3.9582063238180645e+00 7.3139352634788732e+00 0.0000000000000000e+00  3.9581169768525353e+00 7.3115604084295436e+00 0.0000000000000000e+00  3.9580176960341529e+00 7.3092714360798903e+00 0.0000000000000000e+00  3.9579233780335623e+00 7.3068780474380208e+00 0.0000000000000000e+00  3.9578062388145288e+00 7.3047047942735004e+00 0.0000000000000000e+00  3.9577079298077247e+00 7.3024717074319065e+00 0.0000000000000000e+00  3.9575686713604066e+00 7.3005673795455870e+00 0.0000000000000000e+00  3.9574650921917978e+00 7.2986012367666122e+00 0.0000000000000000e+00  3.9572911938027917e+00 7.2970389742862469e+00 0.0000000000000000e+00  3.9571737360269896e+00 7.2953459423437259e+00 0.0000000000000000e+00  3.9569293049739023e+00 7.2940878641707876e+00 0.0000000000000000e+00  3.9567541708904765e+00 7.2925535900162730e+00 0.0000000000000000e+00  3.9563303017183933e+00 7.2913959130168537e+00 0.0000000000000000e+00  3.9559231037684461e+00 7.2896603002674452e+00 0.0000000000000000e+00  3.9549628919134636e+00 7.2879993540290426e+00 0.0000000000000000e+00  3.9536970043139545e+00 7.2849944437237424e+00 0.0000000000000000e+00  3.9509734438832700e+00 7.2808768393201797e+00 0.0000000000000000e+00  3.9466570758775115e+00 7.2731436444974982e+00 0.0000000000000000e+00  3.9379112821951243e+00 7.2599368443664192e+00 0.0000000000000000e+00  3.9228425678813159e+00 7.2354631000349148e+00 0.0000000000000000e+00  3.8932974658358850e+00 7.1900115707599417e+00 0.0000000000000000e+00  3.8409698586737382e+00 7.1064382291583073e+00 0.0000000000000000e+00  3.7416246184958255e+00 6.9475456019926831e+00 0.0000000000000000e+00  3.5678468603566129e+00 6.6562019287902476e+00 0.0000000000000000e+00  3.2605029471950093e+00 6.1072080974149197e+00 0.0000000000000000e+00  2.7744836156408308e+00 5.1332031920177430e+00 0.0000000000000000e+00  2.0570072303756826e+00 3.3540095821419555e+00 0.0000000000000000e+00  1.2865600066607870e+00 9.3027944434653387e-01 0.0000000000000000e+00  1.0257455967740650e+00 8.1841679273552931e-02 0.0000000000000000e+00  1.0016008260237335e+00 3.2884130308118756e-03 0.0000000000000000e+00  9.9985251785082929e-01 1.1019138839923478e-03 0.0000000000000000e+00  1.0001548622183261e+00 -4.1001336936918474e-04 0.0000000000000000e+00  9.9989905956382230e-01 2.8862520076842606e-04 0.0000000000000000e+00  1.0000798614464452e+00 -2.1717059523688608e-04 0.0000000000000000e+00  9.9993280814158414e-01 1.7740289897500997e-04 0.0000000000000000e+00  1.0000539635558960e+00 -1.3997835888457819e-04 0.0000000000000000e+00  9.9995365691274918e-01 1.1214343477805518e-04 0.0000000000000000e+00  1.0000346594703826e+00 -8.0693901351204213e-05 0.0000000000000000e+00  9.9996713163362183e-01 6.3556097224767245e-05 0.0000000000000000e+00  1.0000214859271552e+00 -3.5858367843297951e-05 0.0000000000000000e+00  9.9997337078236692e-01 2.9582293740481187e-05 0.0000000000000000e+00  1.0000122401836520e+00 -2.0647105542708806e-06 0.0000000000000000e+00  9.9997384255471244e-01 0.0000000000000000e+00 0.0000000000000000e+00  9.9354544397177449e+00 0.0000000000000000e+00 3.5558177114288054e-03  9.9356924453704281e+00 1.2509466851311653e-02 -1.0235381602938939e-03  9.9316165500414968e+00 2.3795025270672669e-02 -4.7165239134614085e-04  9.9271625287120049e+00 3.7286647977901113e-02 -1.8552708688649071e-04  9.9194740616668451e+00 5.2529602106775194e-02 4.3873473895350421e-04  9.9105309416269147e+00 6.5983548976911305e-02 -6.3469283705651857e-04  9.8985393455884747e+00 8.3721022863473826e-02 7.2270099803100349e-04  9.8853795801285500e+00 1.0007007559514955e-01 -7.2946928885116342e-04  9.8690265367706349e+00 1.2020260740610327e-01 7.3411169797705275e-04  9.8512244474171364e+00 1.4004994753363925e-01 -7.2926602586055752e-04  9.8305977053218729e+00 1.6365533375771218e-01 7.1814058372499415e-04  9.8081686040927973e+00 1.8718450546774681e-01 -7.1775187232921058e-04  9.7829330464423858e+00 2.1471926664161586e-01 6.9160483220428309e-04  9.7560138954215532e+00 2.4248597534764102e-01 -6.8989001028086088e-04  9.7262392518667102e+00 2.7397825762784533e-01 6.4327075717671199e-04  9.6946753895153677e+00 3.0622150635481327e-01 -6.3799177202669233e-04  9.6605696644655801e+00 3.4190421956777656e-01 5.6708895681296619e-04  9.6245291075051629e+00 3.7845713005966641e-01 -5.5957951031632668e-04  9.5861209344808760e+00 4.1835436106931079e-01 4.7288721763702495e-04  9.5458900765423103e+00 4.5927877207430212e-01 -4.5836851587227769e-04  9.5034301884586991e+00 5.0299260636084275e-01 3.4643732000757258e-04  9.4592135915098030e+00 5.4823885871826539e-01 -3.0408601449176891e-04  9.4130190067220401e+00 5.9566733015737738e-01 1.5437589820105230e-04  9.3651291361213360e+00 6.4474731678124264e-01 -8.1346653158325348e-05  9.3155521893139586e+00 6.9573169824405345e-01 -9.7610058134913681e-05  9.2642618533787200e+00 7.4858667095477249e-01 2.0999768559645335e-04  9.2116789060898778e+00 8.0242702410965894e-01 -4.2466779049408549e-04  9.1574247005262066e+00 8.5901534574948712e-01 5.7773226409544133e-04  9.1020254506927554e+00 9.1557776203292585e-01 -8.0324091351152553e-04  9.0452244912983097e+00 9.7519934827124188e-01 9.6363143281477399e-04  8.9875103644487488e+00 1.0343779693521986e+00 -1.1945614957743931e-03  8.9281946627809052e+00 1.0971349705666391e+00 1.4162947204486281e-03  8.8686732790981413e+00 1.1579539396850318e+00 -1.7451166750700724e-03  8.8073145101744448e+00 1.2239164989954858e+00 2.1324910524133664e-03  8.7459190682631043e+00 1.2866529580172938e+00 -2.6574954895814910e-03  8.6830019077851972e+00 1.3544960953758653e+00 3.2924430116227262e-03  8.6203238229109118e+00 1.4196042829092284e+00 -4.0587564691548245e-03  8.5554545631157168e+00 1.4895546732529021e+00 4.8667574183678536e-03  8.4921867401709079e+00 1.5555542215201008e+00 -5.5901070038546540e-03  8.4258956311988076e+00 1.6283675816589656e+00 6.0705357355960885e-03  8.3613620367322135e+00 1.6953372563612299e+00 -6.1445853253016157e-03  8.2946813182796184e+00 1.7696685036926116e+00 5.7463375036627502e-03  8.2290198469078604e+00 1.8382356362937988e+00 -4.8416448086718048e-03  8.1615172215561671e+00 1.9144120309186883e+00 3.5397613492581330e-03  8.0954175098610897e+00 1.9832864959437075e+00 -1.9940221749134368e-03  8.0276233468152487e+00 2.0612004582441790e+00 4.7459323049354812e-04  7.9601104976097972e+00 2.1325316676819686e+00 8.1425168293001798e-04  7.8930977291409254e+00 2.2082989238782571e+00 -1.7206847026119026e-03  7.8245177844029250e+00 2.2846297348314284e+00 2.2999943233709625e-03  7.7571529606571907e+00 2.3587474114473386e+00 -2.6240947684759951e-03  7.6888367854960995e+00 2.4364462026210107e+00 2.8033448372592733e-03  7.6211437018003423e+00 2.5122804604985731e+00 -2.8138743759303876e-03  7.5521758617135815e+00 2.5909555210239406e+00 2.6732597063306787e-03  7.4852539470662487e+00 2.6654579226420676e+00 -2.3981322183479676e-03  7.4158541612899036e+00 2.7476442714936069e+00 2.0857401793081850e-03  7.3485373468674364e+00 2.8224047404370594e+00 -1.7275278657475494e-03  7.2800440702685822e+00 2.9023763328564232e+00 1.3049335810526722e-03  7.2122516704128961e+00 2.9816800980554792e+00 -8.5938138764217844e-04  7.1437635254047684e+00 3.0611178935699677e+00 5.6449840443436011e-04  7.0766452346778239e+00 3.1387502017493274e+00 -4.8985749622496456e-04  7.0080427315310008e+00 3.2211753430816445e+00 4.6795987449711540e-04  6.9408802688535296e+00 3.2999509224092032e+00 -2.9107138422942633e-04  6.8731144807728235e+00 3.3800604186294487e+00 2.0800543833986034e-05  6.8058135160364248e+00 3.4610627144658848e+00 9.7192803346726639e-05  6.7382356958404959e+00 3.5422424331566060e+00 -6.9568643781004114e-05  6.6717097211015988e+00 3.6223663102412029e+00 8.3757089997237315e-05  6.6041015505248151e+00 3.7044810688407419e+00 -2.1950512355926982e-04  6.5378873062711325e+00 3.7850958005282318e+00 2.9812218894844576e-04  6.4710111271284223e+00 3.8672113397712908e+00 -3.3149503266900678e-04  6.4048838230976495e+00 3.9489701952863756e+00 3.9014936114729480e-04  6.3384093385641354e+00 4.0307917783859484e+00 -4.9642125782941703e-04  6.2729600560938383e+00 4.1125474547308052e+00 4.9008010388227480e-04  6.2066661100432068e+00 4.1955955147183079e+00 -4.6919434754671453e-04  6.1417533097055097e+00 4.2772779091648614e+00 4.7513366382507095e-04  6.0759952659521179e+00 4.3602858222862748e+00 -5.1442318014493008e-04  6.0114699470523929e+00 4.4427564808493809e+00 5.1123911515123927e-04  5.9461979435014838e+00 4.5257671152294412e+00 -5.3296907056023235e-04  5.8822746382442217e+00 4.6083033713947605e+00 5.3034191649460952e-04  5.8174051951296910e+00 4.6921302189791945e+00 -4.8519020307927809e-04  5.7540366262133302e+00 4.7746100878112774e+00 4.8933315694837866e-04  5.6897691974880553e+00 4.8584870398382822e+00 -4.9366684342560304e-04  5.6267867881340523e+00 4.9415199022103460e+00 4.6564644538808628e-04  5.5632577829791856e+00 5.0252549461