<?xml version="1.0"?>
<VTKFile type="UnstructuredGrid"  version="0.1"  >
<UnstructuredGrid>
<Piece  NumberOfPoints="8241" NumberOfCells="16000">
<Points>
<DataArray  type="Float64"  NumberOfComponents="3"  format="ascii">-5 -1 0  -4.95 -1 0  -4.9 -1 0  -4.85 -1 0  -4.8 -1 0  -4.75 -1 0  -4.7 -1 0  -4.65 -1 0  -4.6 -1 0  -4.55 -1 0  -4.5 -1 0  -4.45 -1 0  -4.4 -1 0  -4.35 -1 0  -4.3 -1 0  -4.25 -1 0  -4.2 -1 0  -4.15 -1 0  -4.1 -1 0  -4.05 -1 0  -4 -1 0  -3.95 -1 0  -3.9 -1 0  -3.85 -1 0  -3.8 -1 0  -3.75 -1 0  -3.7 -1 0  -3.65 -1 0  -3.6 -1 0  -3.55 -1 0  -3.5 -1 0  -3.45 -1 0  -3.4 -1 0  -3.35 -1 0  -3.3 -1 0  -3.25 -1 0  -3.2 -1 0  -3.15 -1 0  -3.1 -1 0  -3.05 -1 0  -3 -1 0  -2.95 -1 0  -2.9 -1 0  -2.85 -1 0  -2.8 -1 0  -2.75 -1 0  -2.7 -1 0  -2.65 -1 0  -2.6 -1 0  -2.55 -1 0  -2.5 -1 0  -2.45 -1 0  -2.4 -1 0  -2.35 -1 0  -2.3 -1 0  -2.25 -1 0  -2.2 -1 0  -2.15 -1 0  -2.1 -1 0  -2.05 -1 0  -2 -1 0  -1.95 -1 0  -1.9 -1 0  -1.85 -1 0  -1.8 -1 0  -1.75 -1 0  -1.7 -1 0  -1.65 -1 0  -1.6 -1 0  -1.55 -1 0  -1.5 -1 0  -1.45 -1 0  -1.4 -1 0  -1.35 -1 0  -1.3 -1 0  -1.25 -1 0  -1.2 -1 0  -1.15 -1 0  -1.1 -1 0  -1.05 -1 0  -1 -1 0  -0.9500000000000002 -1 0  -0.9000000000000004 -1 0  -0.8499999999999996 -1 0  -0.7999999999999998 -1 0  -0.75 -1 0  -0.7000000000000002 -1 0  -0.6500000000000004 -1 0  -0.5999999999999996 -1 0  -0.5499999999999998 -1 0  -0.5 -1 0  -0.4500000000000002 -1 0  -0.4000000000000004 -1 0  -0.3499999999999996 -1 0  -0.2999999999999998 -1 0  -0.25 -1 0  -0.2000000000000002 -1 0  -0.1500000000000004 -1 0  -0.09999999999999964 -1 0  -0.04999999999999982 -1 0  0 -1 0  0.04999999999999982 -1 0  0.09999999999999964 -1 0  0.1500000000000004 -1 0  0.2000000000000002 -1 0  0.25 -1 0  0.2999999999999998 -1 0  0.3499999999999996 -1 0  0.4000000000000004 -1 0  0.4500000000000002 -1 0  0.5 -1 0  0.5499999999999998 -1 0  0.5999999999999996 -1 0  0.6500000000000004 -1 0  0.7000000000000002 -1 0  0.75 -1 0  0.7999999999999998 -1 0  0.8499999999999996 -1 0  0.9000000000000004 -1 0  0.9500000000000002 -1 0  1 -1 0  1.05 -1 0  1.1 -1 0  1.15 -1 0  1.2 -1 0  1.25 -1 0  1.3 -1 0  1.35 -1 0  1.4 -1 0  1.45 -1 0  1.5 -1 0  1.55 -1 0  1.6 -1 0  1.65 -1 0  1.7 -1 0  1.75 -1 0  1.8 -1 0  1.85 -1 0  1.9 -1 0  1.95 -1 0  2 -1 0  2.05 -1 0  2.1 -1 0  2.15 -1 0  2.2 -1 0  2.25 -1 0  2.3 -1 0  2.35 -1 0  2.4 -1 0  2.45 -1 0  2.5 -1 0  2.55 -1 0  2.6 -1 0  2.65 -1 0  2.7 -1 0  2.75 -1 0  2.8 -1 0  2.85 -1 0  2.9 -1 0  2.95 -1 0  3 -1 0  3.050000000000001 -1 0  3.1 -1 0  3.15 -1 0  3.199999999999999 -1 0  3.25 -1 0  3.300000000000001 -1 0  3.35 -1 0  3.4 -1 0  3.449999999999999 -1 0  3.5 -1 0  3.550000000000001 -1 0  3.6 -1 0  3.65 -1 0  3.699999999999999 -1 0  3.75 -1 0  3.800000000000001 -1 0  3.85 -1 0  3.9 -1 0  3.949999999999999 -1 0  4 -1 0  4.050000000000001 -1 0  4.1 -1 0  4.15 -1 0  4.199999999999999 -1 0  4.25 -1 0  4.300000000000001 -1 0  4.35 -1 0  4.4 -1 0  4.449999999999999 -1 0  4.5 -1 0  4.550000000000001 -1 0  4.6 -1 0  4.65 -1 0  4.699999999999999 -1 0  4.75 -1 0  4.800000000000001 -1 0  4.85 -1 0  4.9 -1 0  4.949999999999999 -1 0  5 -1 0  -5 -0.95 0  -4.95 -0.95 0  -4.9 -0.95 0  -4.85 -0.95 0  -4.8 -0.95 0  -4.75 -0.95 0  -4.7 -0.95 0  -4.65 -0.95 0  -4.6 -0.95 0  -4.55 -0.95 0  -4.5 -0.95 0  -4.45 -0.95 0  -4.4 -0.95 0  -4.35 -0.95 0  -4.3 -0.95 0  -4.25 -0.95 0  -4.2 -0.95 0  -4.15 -0.95 0  -4.1 -0.95 0  -4.05 -0.95 0  -4 -0.95 0  -3.95 -0.95 0  -3.9 -0.95 0  -3.85 -0.95 0  -3.8 -0.95 0  -3.75 -0.95 0  -3.7 -0.95 0  -3.65 -0.95 0  -3.6 -0.95 0  -3.55 -0.95 0  -3.5 -0.95 0  -3.45 -0.95 0  -3.4 -0.95 0  -3.35 -0.95 0  -3.3 -0.95 0  -3.25 -0.95 0  -3.2 -0.95 0  -3.15 -0.95 0  -3.1 -0.95 0  -3.05 -0.95 0  -3 -0.95 0  -2.95 -0.95 0  -2.9 -0.95 0  -2.85 -0.95 0  -2.8 -0.95 0  -2.75 -0.95 0  -2.7 -0.95 0  -2.65 -0.95 0  -2.6 -0.95 0  -2.55 -0.95 0  -2.5 -0.95 0  -2.45 -0.95 0  -2.4 -0.95 0  -2.35 -0.95 0  -2.3 -0.95 0  -2.25 -0.95 0  -2.2 -0.95 0  -2.15 -0.95 0  -2.1 -0.95 0  -2.05 -0.95 0  -2 -0.95 0  -1.95 -0.95 0  -1.9 -0.95 0  -1.85 -0.95 0  -1.8 -0.95 0  -1.75 -0.95 0  -1.7 -0.95 0  -1.65 -0.95 0  -1.6 -0.95 0  -1.55 -0.95 0  -1.5 -0.95 0  -1.45 -0.95 0  -1.4 -0.95 0  -1.35 -0.95 0  -1.3 -0.95 0  -1.25 -0.95 0  -1.2 -0.95 0  -1.15 -0.95 0  -1.1 -0.95 0  -1.05 -0.95 0  -1 -0.95 0  -0.9500000000000002 -0.95 0  -0.9000000000000004 -0.95 0  -0.8499999999999996 -0.95 0  -0.7999999999999998 -0.95 0  -0.75 -0.95 0  -0.7000000000000002 -0.95 0  -0.6500000000000004 -0.95 0  -0.5999999999999996 -0.95 0  -0.5499999999999998 -0.95 0  -0.5 -0.95 0  -0.4500000000000002 -0.95 0  -0.4000000000000004 -0.95 0  -0.3499999999999996 -0.95 0  -0.2999999999999998 -0.95 0  -0.25 -0.95 0  -0.2000000000000002 -0.95 0  -0.1500000000000004 -0.95 0  -0.09999999999999964 -0.95 0  -0.04999999999999982 -0.95 0  0 -0.95 0  0.04999999999999982 -0.95 0  0.09999999999999964 -0.95 0  0.1500000000000004 -0.95 0  0.2000000000000002 -0.95 0  0.25 -0.95 0  0.2999999999999998 -0.95 0  0.3499999999999996 -0.95 0  0.4000000000000004 -0.95 0  0.4500000000000002 -0.95 0  0.5 -0.95 0  0.5499999999999998 -0.95 0  0.5999999999999996 -0.95 0  0.6500000000000004 -0.95 0  0.7000000000000002 -0.95 0  0.75 -0.95 0  0.7999999999999998 -0.95 0  0.8499999999999996 -0.95 0  0.9000000000000004 -0.95 0  0.9500000000000002 -0.95 0  1 -0.95 0  1.05 -0.95 0  1.1 -0.95 0  1.15 -0.95 0  1.2 -0.95 0  1.25 -0.95 0  1.3 -0.95 0  1.35 -0.95 0  1.4 -0.95 0  1.45 -0.95 0  1.5 -0.95 0  1.55 -0.95 0  1.6 -0.95 0  1.65 -0.95 0  1.7 -0.95 0  1.75 -0.95 0  1.8 -0.95 0  1.85 -0.95 0  1.9 -0.95 0  1.95 -0.95 0  2 -0.95 0  2.05 -0.95 0  2.1 -0.95 0  2.15 -0.95 0  2.2 -0.95 0  2.25 -0.95 0  2.3 -0.95 0  2.35 -0.95 0  2.4 -0.95 0  2.45 -0.95 0  2.5 -0.95 0  2.55 -0.95 0  2.6 -0.95 0  2.65 -0.95 0  2.7 -0.95 0  2.75 -0.95 0  2.8 -0.95 0  2.85 -0.95 0  2.9 -0.95 0  2.95 -0.95 0  3 -0.95 0  3.050000000000001 -0.95 0  3.1 -0.95 0  3.15 -0.95 0  3.199999999999999 -0.95 0  3.25 -0.95 0  3.300000000000001 -0.95 0  3.35 -0.95 0  3.4 -0.95 0  3.449999999999999 -0.95 0  3.5 -0.95 0  3.550000000000001 -0.95 0  3.6 -0.95 0  3.65 -0.95 0  3.699999999999999 -0.95 0  3.75 -0.95 0  3.800000000000001 -0.95 0  3.85 -0.95 0  3.9 -0.95 0  3.949999999999999 -0.95 0  4 -0.95 0  4.050000000000001 -0.95 0  4.1 -0.95 0  4.15 -0.95 0  4.199999999999999 -0.95 0  4.25 -0.95 0  4.300000000000001 -0.95 0  4.35 -0.95 0  4.4 -0.95 0  4.449999999999999 -0.95 0  4.5 -0.95 0  4.550000000000001 -0.95 0  4.6 -0.95 0  4.65 -0.95 0  4.699999999999999 -0.95 0  4.75 -0.95 0  4.800000000000001 -0.95 0  4.85 -0.95 0  4.9 -0.95 0  4.949999999999999 -0.95 0  5 -0.95 0  -5 -0.9 0  -4.95 -0.9 0  -4.9 -0.9 0  -4.85 -0.9 0  -4.8 -0.9 0  -4.75 -0.9 0  -4.7 -0.9 0  -4.65 -0.9 0  -4.6 -0.9 0  -4.55 -0.9 0  -4.5 -0.9 0  -4.45 -0.9 0  -4.4 -0.9 0  -4.35 -0.9 0  -4.3 -0.9 0  -4.25 -0.9 0  -4.2 -0.9 0  -4.15 -0.9 0  -4.1 -0.9 0  -4.05 -0.9 0  -4 -0.9 0  -3.95 -0.9 0  -3.9 -0.9 0  -3.85 -0.9 0  -3.8 -0.9 0  -3.75 -0.9 0  -3.7 -0.9 0  -3.65 -0.9 0  -3.6 -0.9 0  -3.55 -0.9 0  -3.5 -0.9 0  -3.45 -0.9 0  -3.4 -0.9 0  -3.35 -0.9 0  -3.3 -0.9 0  -3.25 -0.9 0  -3.2 -0.9 0  -3.15 -0.9 0  -3.1 -0.9 0  -3.05 -0.9 0  -3 -0.9 0  -2.95 -0.9 0  -2.9 -0.9 0  -2.85 -0.9 0  -2.8 -0.9 0  -2.75 -0.9 0  -2.7 -0.9 0  -2.65 -0.9 0  -2.6 -0.9 0  -2.55 -0.9 0  -2.5 -0.9 0  -2.45 -0.9 0  -2.4 -0.9 0  -2.35 -0.9 0  -2.3 -0.9 0  -2.25 -0.9 0  -2.2 -0.9 0  -2.15 -0.9 0  -2.1 -0.9 0  -2.05 -0.9 0  -2 -0.9 0  -1.95 -0.9 0  -1.9 -0.9 0  -1.85 -0.9 0  -1.8 -0.9 0  -1.75 -0.9 0  -1.7 -0.9 0  -1.65 -0.9 0  -1.6 -0.9 0  -1.55 -0.9 0  -1.5 -0.9 0  -1.45 -0.9 0  -1.4 -0.9 0  -1.35 -0.9 0  -1.3 -0.9 0  -1.25 -0.9 0  -1.2 -0.9 0  -1.15 -0.9 0  -1.1 -0.9 0  -1.05 -0.9 0  -1 -0.9 0  -0.9500000000000002 -0.9 0  -0.9000000000000004 -0.9 0  -0.8499999999999996 -0.9 0  -0.7999999999999998 -0.9 0  -0.75 -0.9 0  -0.7000000000000002 -0.9 0  -0.6500000000000004 -0.9 0  -0.5999999999999996 -0.9 0  -0.5499999999999998 -0.9 0  -0.5 -0.9 0  -0.4500000000000002 -0.9 0  -0.4000000000000004 -0.9 0  -0.3499999999999996 -0.9 0  -0.2999999999999998 -0.9 0  -0.25 -0.9 0  -0.2000000000000002 -0.9 0  -0.1500000000000004 -0.9 0  -0.09999999999999964 -0.9 0  -0.04999999999999982 -0.9 0  0 -0.9 0  0.04999999999999982 -0.9 0  0.09999999999999964 -0.9 0  0.1500000000000004 -0.9 0  0.2000000000000002 -0.9 0  0.25 -0.9 0  0.2999999999999998 -0.9 0  0.3499999999999996 -0.9 0  0.4000000000000004 -0.9 0  0.4500000000000002 -0.9 0  0.5 -0.9 0  0.5499999999999998 -0.9 0  0.5999999999999996 -0.9 0  0.6500000000000004 -0.9 0  0.7000000000000002 -0.9 0  0.75 -0.9 0  0.7999999999999998 -0.9 0  0.8499999999999996 -0.9 0  0.9000000000000004 -0.9 0  0.9500000000000002 -0.9 0  1 -0.9 0  1.05 -0.9 0  1.1 -0.9 0  1.15 -0.9 0  1.2 -0.9 0  1.25 -0.9 0  1.3 -0.9 0  1.35 -0.9 0  1.4 -0.9 0  1.45 -0.9 0  1.5 -0.9 0  1.55 -0.9 0  1.6 -0.9 0  1.65 -0.9 0  1.7 -0.9 0  1.75 -0.9 0  1.8 -0.9 0  1.85 -0.9 0  1.9 -0.9 0  1.95 -0.9 0  2 -0.9 0  2.05 -0.9 0  2.1 -0.9 0  2.15 -0.9 0  2.2 -0.9 0  2.25 -0.9 0  2.3 -0.9 0  2.35 -0.9 0  2.4 -0.9 0  2.45 -0.9 0  2.5 -0.9 0  2.55 -0.9 0  2.6 -0.9 0  2.65 -0.9 0  2.7 -0.9 0  2.75 -0.9 0  2.8 -0.9 0  2.85 -0.9 0  2.9 -0.9 0  2.95 -0.9 0  3 -0.9 0  3.050000000000001 -0.9 0  3.1 -0.9 0  3.15 -0.9 0  3.199999999999999 -0.9 0  3.25 -0.9 0  3.300000000000001 -0.9 0  3.35 -0.9 0  3.4 -0.9 0  3.449999999999999 -0.9 0  3.5 -0.9 0  3.550000000000001 -0.9 0  3.6 -0.9 0  3.65 -0.9 0  3.699999999999999 -0.9 0  3.75 -0.9 0  3.800000000000001 -0.9 0  3.85 -0.9 0  3.9 -0.9 0  3.949999999999999 -0.9 0  4 -0.9 0  4.050000000000001 -0.9 0  4.1 -0.9 0  4.15 -0.9 0  4.199999999999999 -0.9 0  4.25 -0.9 0  4.300000000000001 -0.9 0  4.35 -0.9 0  4.4 -0.9 0  4.449999999999999 -0.9 0  4.5 -0.9 0  4.550000000000001 -0.9 0  4.6 -0.9 0  4.65 -0.9 0  4.699999999999999 -0.9 0  4.75 -0.9 0  4.800000000000001 -0.9 0  4.85 -0.9 0  4.9 -0.9 0  4.949999999999999 -0.9 0  5 -0.9 0  -5 -0.85 0  -4.95 -0.85 0  -4.9 -0.85 0  -4.85 -0.85 0  -4.8 -0.85 0  -4.75 -0.85 0  -4.7 -0.85 0  -4.65 -0.85 0  -4.6 -0.85 0  -4.55 -0.85 0  -4.5 -0.85 0  -
[...]
<PointData  Vectors="f_15"> 
<DataArray  type="Float64"  Name="f_15"  NumberOfComponents="3" format="ascii">1.4346774549802694e+00 0.0000000000000000e+00 0.0000000000000000e+00  1.3969039321757399e+00 -4.7480083947016071e-03 0.0000000000000000e+00  1.4328074361517766e+00 1.1354500450567930e-01 0.0000000000000000e+00  1.3959182016582454e+00 9.8319539903169592e-02 0.0000000000000000e+00  1.4338998237271090e+00 1.6761676142914719e-01 0.0000000000000000e+00  1.3954371587977279e+00 1.7871928655167291e-01 0.0000000000000000e+00  1.4315205358973713e+00 2.3633655597806710e-01 0.0000000000000000e+00  1.3971963762647934e+00 2.5359276849449502e-01 0.0000000000000000e+00  1.4302046728673590e+00 2.9793275065171743e-01 0.0000000000000000e+00  1.3959184607860053e+00 3.3389700500429864e-01 0.0000000000000000e+00  1.4306534416404686e+00 3.6414531990184423e-01 0.0000000000000000e+00  1.3960147257615871e+00 4.0497760938827143e-01 0.0000000000000000e+00  1.4281803485761508e+00 4.3422910159889050e-01 0.0000000000000000e+00  1.3976658282840329e+00 4.7722575877393886e-01 0.0000000000000000e+00  1.4271457054890935e+00 5.0522963464918391e-01 0.0000000000000000e+00  1.3964414495460629e+00 5.4906732133143654e-01 0.0000000000000000e+00  1.4275304526164945e+00 5.7416668218524602e-01 0.0000000000000000e+00  1.3965187379473494e+00 6.2213829678601484e-01 0.0000000000000000e+00  1.4254438740113473e+00 6.4690581004502479e-01 0.0000000000000000e+00  1.3976409877072169e+00 6.9040733347598704e-01 0.0000000000000000e+00  1.4247660929973547e+00 7.1510468881502387e-01 0.0000000000000000e+00  1.3963737452633906e+00 7.6190618022078849e-01 0.0000000000000000e+00  1.4251951891238319e+00 7.9081853230513832e-01 0.0000000000000000e+00  1.3961413272454186e+00 8.2455373001989485e-01 0.0000000000000000e+00  1.4236986327785224e+00 8.5725576670162762e-01 0.0000000000000000e+00  1.3969883207845168e+00 9.0215342071768712e-01 0.0000000000000000e+00  1.4233098043761117e+00 9.2528060399097378e-01 0.0000000000000000e+00  1.3959693824982398e+00 9.6247887486914885e-01 0.0000000000000000e+00  1.4241942256900615e+00 9.9877826430039940e-01 0.0000000000000000e+00  1.3964334974065928e+00 1.0308406707503215e+00 0.0000000000000000e+00  1.4233941587234169e+00 1.0612148260290333e+00 0.0000000000000000e+00  1.3984668296098972e+00 1.0988929048935228e+00 0.0000000000000000e+00  1.4244644875589521e+00 1.1253532032833509e+00 0.0000000000000000e+00  1.3996381902968678e+00 1.1577625636308591e+00 0.0000000000000000e+00  1.4274381561728660e+00 1.1904580174002726e+00 0.0000000000000000e+00  1.4037183111870597e+00 1.2162981040407588e+00 0.0000000000000000e+00  1.4303935592593198e+00 1.2402603555593368e+00 0.0000000000000000e+00  1.4107982800684191e+00 1.2729508263319138e+00 0.0000000000000000e+00  1.4372936785787871e+00 1.2884590688968787e+00 0.0000000000000000e+00  1.4189043566280677e+00 1.3135253700505236e+00 0.0000000000000000e+00  1.4475781673553600e+00 1.3323220127309601e+00 0.0000000000000000e+00  1.4310902798918432e+00 1.3521090329711833e+00 0.0000000000000000e+00  1.4582643101186583e+00 1.3618539827126879e+00 0.0000000000000000e+00  1.4452288384443759e+00 1.3899356627114474e+00 0.0000000000000000e+00  1.4716510087815575e+00 1.3946043178430430e+00 0.0000000000000000e+00  1.4578321358828923e+00 1.4182383778317895e+00 0.0000000000000000e+00  1.4857421123344772e+00 1.4290467983575001e+00 0.0000000000000000e+00  1.4720226415070847e+00 1.4517901121505254e+00 0.0000000000000000e+00  1.4978240144235904e+00 1.4570940752805175e+00 0.0000000000000000e+00  1.4864963346534135e+00 1.4869645191770038e+00 0.0000000000000000e+00  1.5114704983314979e+00 1.4916108824895802e+00 0.0000000000000000e+00  1.4988575331033376e+00 1.5151458687814079e+00 0.0000000000000000e+00  1.5254713771318149e+00 1.5270079011969158e+00 0.0000000000000000e+00  1.5127516838772213e+00 1.5498395722833671e+00 0.0000000000000000e+00  1.5374900861727969e+00 1.5562266987827846e+00 0.0000000000000000e+00  1.5270800309505899e+00 1.5840885384237526e+00 0.0000000000000000e+00  1.5508439660598474e+00 1.5921814364157054e+00 0.0000000000000000e+00  1.5397985276777493e+00 1.6114887642827413e+00 0.0000000000000000e+00  1.5643008476820839e+00 1.6281782092862922e+00 0.0000000000000000e+00  1.5539822756659600e+00 1.6450301437594836e+00 0.0000000000000000e+00  1.5761678629298277e+00 1.6582648056457365e+00 0.0000000000000000e+00  1.5682376810853185e+00 1.6772499678739339e+00 0.0000000000000000e+00  1.5893196462532895e+00 1.6950317835910191e+00 0.0000000000000000e+00  1.5811343514632856e+00 1.7034869115391655e+00 0.0000000000000000e+00  1.6022463307738786e+00 1.7308438956729939e+00 0.0000000000000000e+00  1.5954115247133236e+00 1.7358062559197591e+00 0.0000000000000000e+00  1.6138934967768548e+00 1.7606873119211042e+00 0.0000000000000000e+00  1.6094943494418708e+00 1.7669313941487685e+00 0.0000000000000000e+00  1.6267809662703097e+00 1.7961233888285622e+00 0.0000000000000000e+00  1.6224213455584353e+00 1.7928761137767903e+00 0.0000000000000000e+00  1.6393719733844947e+00 1.8300453138032013e+00 0.0000000000000000e+00  1.6363462979508234e+00 1.8246462013735731e+00 0.0000000000000000e+00  1.6511153621998507e+00 1.8587498902435435e+00 0.0000000000000000e+00  1.6497920315811241e+00 1.8553610870835338e+00 0.0000000000000000e+00  1.6638408494779817e+00 1.8926999096324209e+00 0.0000000000000000e+00  1.6623473273528249e+00 1.8817171504346721e+00 0.0000000000000000e+00  1.6761443740235029e+00 1.9251921651552628e+00 0.0000000000000000e+00  1.6755752272660271e+00 1.9134680640479087e+00 0.0000000000000000e+00  1.6878267800680793e+00 1.9531110664544400e+00 0.0000000000000000e+00  1.6882070389349042e+00 1.9441751554951736e+00 0.0000000000000000e+00  1.7001028448422228e+00 1.9848776535194679e+00 0.0000000000000000e+00  1.7001660804797449e+00 1.9718584297043140e+00 0.0000000000000000e+00  1.7118800327085280e+00 2.0132626879516557e+00 0.0000000000000000e+00  1.7123909441966281e+00 2.0052731384553542e+00 0.0000000000000000e+00  1.7232690637769861e+00 2.0360406800193229e+00 0.0000000000000000e+00  1.7238261613925203e+00 2.0376502187053225e+00 0.0000000000000000e+00  1.7349859090120852e+00 2.0616485336772703e+00 0.0000000000000000e+00  1.7346297327844153e+00 2.0663984660876578e+00 0.0000000000000000e+00  1.7461568346958380e+00 2.0846796691464924e+00 0.0000000000000000e+00  1.7454521614925353e+00 2.0979787228785085e+00 0.0000000000000000e+00  1.7567641128250637e+00 2.1043509609857072e+00 0.0000000000000000e+00  1.7556008308610866e+00 2.1268196835607220e+00 0.0000000000000000e+00  1.7673378855748965e+00 2.1260966534600407e+00 0.0000000000000000e+00  1.7650715327921871e+00 2.1533457668343665e+00 0.0000000000000000e+00  1.7772922041015100e+00 2.1436896445512121e+00 0.0000000000000000e+00  1.7743299523865619e+00 2.1826833621973565e+00 0.0000000000000000e+00  1.7863737743087964e+00 2.1591589626247996e+00 0.0000000000000000e+00  1.7832432010051646e+00 2.2057657365223280e+00 0.0000000000000000e+00  1.7946740753322259e+00 2.1809276627404230e+00 0.0000000000000000e+00  1.7917429265805995e+00 2.2217206481631822e+00 0.0000000000000000e+00  1.8022012236155953e+00 2.2010929475841228e+00 0.0000000000000000e+00  1.7995198274014370e+00 2.2398667878815814e+00 0.0000000000000000e+00  1.8091429046951153e+00 2.2177846366963001e+00 0.0000000000000000e+00  1.8068375192273400e+00 2.2510430552462060e+00 0.0000000000000000e+00  1.8148306019919793e+00 2.2438796855283041e+00 0.0000000000000000e+00  1.8139222439356413e+00 2.2507808378492404e+00 0.0000000000000000e+00  1.8197892109268532e+00 2.2688729301563293e+00 0.0000000000000000e+00  1.8198656041233889e+00 2.2587532690176677e+00 0.0000000000000000e+00  1.8244581701969611e+00 2.2779029542753437e+00 0.0000000000000000e+00  1.8251077314787703e+00 2.2740096276221773e+00 0.0000000000000000e+00  1.8279703471719964e+00 2.2871728684464592e+00 0.0000000000000000e+00  1.8300911267850617e+00 2.2783003351790057e+00 0.0000000000000000e+00  1.8308881294075912e+00 2.3027597030086575e+00 0.0000000000000000e+00  1.8339721864613370e+00 2.2824180537464862e+00 0.0000000000000000e+00  1.8335634323221908e+00 2.3063093106861738e+00 0.0000000000000000e+00  1.8372124856905827e+00 2.2980500312150545e+00 0.0000000000000000e+00  1.8354754433577718e+00 2.3022330474344734e+00 0.0000000000000000e+00  1.8401676249841541e+00 2.3076712651713280e+00 0.0000000000000000e+00  1.8368743573265014e+00 2.3090209344132622e+00 0.0000000000000000e+00  1.8424532135004044e+00 2.3054864787617153e+00 0.0000000000000000e+00  1.8383914666650993e+00 2.3168850453575791e+00 0.0000000000000000e+00  1.8440752753451171e+00 2.3082545627272393e+00 0.0000000000000000e+00  1.8397363367417585e+00 2.3157213360948128e+00 0.0000000000000000e+00  1.8461019694837231e+00 2.3117921634617735e+00 0.0000000000000000e+00  1.8407258932603892e+00 2.3180052288043829e+00 0.0000000000000000e+00  1.8491951001814795e+00 2.3049288408870532e+00 0.0000000000000000e+00  1.8432952698150329e+00 2.3202691461099394e+00 0.0000000000000000e+00  1.8542118443879152e+00 2.2959028612192109e+00 0.0000000000000000e+00  1.8507926010847338e+00 2.3074673014243552e+00 0.0000000000000000e+00  1.8660609260524734e+00 2.2777138478423193e+00 0.0000000000000000e+00  1.8669431148016424e+00 2.2811752475470279e+00 0.0000000000000000e+00  1.8893109237027421e+00 2.2359706705410471e+00 0.0000000000000000e+00  1.8943320776691623e+00 2.2395146455671466e+00 0.0000000000000000e+00  1.9182910547232215e+00 2.1873826333250999e+00 0.0000000000000000e+00  1.9215713080587693e+00 2.1966023460902622e+00 0.0000000000000000e+00  1.9361778369941096e+00 2.1610511240117853e+00 0.0000000000000000e+00  1.9275595857271264e+00 2.1901342535634107e+00 0.0000000000000000e+00  1.9302880820545443e+00 2.1734387553069259e+00 0.0000000000000000e+00  1.9074301938406588e+00 2.2282581644823125e+00 0.0000000000000000e+00  1.8983554321330165e+00 2.2346016231635146e+00 0.0000000000000000e+00  1.8538124814466557e+00 2.3224460229357660e+00 0.0000000000000000e+00  1.8210618371260110e+00 2.3726141153335063e+00 0.0000000000000000e+00  1.7470099370040744e+00 2.4824572796354736e+00 0.0000000000000000e+00  1.7432397721438861e+00 2.4983984583196635e+00 0.0000000000000000e+00  2.1893492786194848e+00 1.4433600627182839e+00 0.0000000000000000e+00  2.8348568720303078e+00 1.9596667001788112e-01 0.0000000000000000e+00  2.9583042613059014e+00 -1.8402994673863603e-02 0.0000000000000000e+00  2.9435358359615544e+00 -1.3670417706936248e-02 0.0000000000000000e+00  2.9595393366966625e+00 -3.7015669447408875e-02 0.0000000000000000e+00  2.9809812554339770e+00 -6.6361513029741734e-02 0.0000000000000000e+00  2.9613291481112913e+00 -3.9464002715268315e-02 0.0000000000000000e+00  2.9786223067448132e+00 -5.5881424937540523e-02 0.0000000000000000e+00  2.9639379407297284e+00 -3.8158763189517622e-02 0.0000000000000000e+00  2.9763760967715669e+00 -4.6668233601075977e-02 0.0000000000000000e+00  2.9663043641863380e+00 -3.9097890360838224e-02 0.0000000000000000e+00  2.9792671280659637e+00 -4.4037863149066672e-02 0.0000000000000000e+00  2.9646888670530860e+00 -3.4072079643192039e-02 0.0000000000000000e+00  2.9801983483130230e+00 -3.9750007027929968e-02 0.0000000000000000e+00  2.9654870820252852e+00 -3.1679976783666172e-02 0.0000000000000000e+00  2.9808443673858900e+00 -3.7997579534345162e-02 0.0000000000000000e+00  2.9660234267627263e+00 -3.0495875216073703e-02 0.0000000000000000e+00  2.9815455227329082e+00 -4.0462120990612152e-02 0.0000000000000000e+00  2.9659708905442104e+00 -3.3181547193081473e-02 0.0000000000000000e+00  2.9823875165244904e+00 -4.9583168507449434e-02 0.0000000000000000e+00  2.9664986964394853e+00 -3.8068034101148888e-02 0.0000000000000000e+00  2.9823064173099434e+00 -5.6381095430380161e-02 0.0000000000000000e+00  2.9674235717701194e+00 -3.8250376357345191e-02 0.0000000000000000e+00  2.9820369332385321e+00 -5.4294861968373354e-02 0.0000000000000000e+00  2.9679922911999808e+00 -3.1326334153311229e-02 0.0000000000000000e+00  2.9819874915054099e+00 -4.7184554669514774e-02 0.0000000000000000e+00  2.9684028897074648e+00 -2.1058912633270511e-02 0.0000000000000000e+00  2.9812058787077378e+00 -3.8941095939008297e-02 0.0000000000000000e+00  2.9693291918311071e+00 -1.4890333314003175e-02 0.0000000000000000e+00  2.9798440922971703e+00 -3.2088364259099653e-02 0.0000000000000000e+00  2.9699350025129325e+00 -9.3351976820855199e-03 0.0000000000000000e+00  2.9788089200197905e+00 -3.1579430401643106e-02 0.0000000000000000e+00  2.9699534170104771e+00 -4.3106005643530369e-03 0.0000000000000000e+00  2.9776383601228207e+00 -3.2393886318936908e-02 0.0000000000000000e+00  2.9704099917172835e+00 -3.8517525815660357e-03 0.0000000000000000e+00  2.9759303985377952e+00 -3.2250987137658629e-02 0.0000000000000000e+00  2.9708536180714651e+00 -7.0817196668849884e-03 0.0000000000000000e+00  2.9748792689729489e+00 -2.9860486569547626e-02 0.0000000000000000e+00  2.9707428707832255e+00 -1.3052754064798654e-02 0.0000000000000000e+00  2.9739961394514292e+00 -2.6616574389108073e-02 0.0000000000000000e+00  2.9712896179118928e+00 -1.7175921548100739e-02 0.0000000000000000e+00  2.9727236102884329e+00 -2.1629987401750681e-02 0.0000000000000000e+00  2.9718565885593025e+00 -1.7984268655032862e-02 0.0000000000000000e+00  2.9722539278396964e+00 -1.5027837612898430e-02 0.0000000000000000e+00  2.9718916485588571e+00 -1.2929543461676468e-02 0.0000000000000000e+00  2.9719022024194062e+00 -1.2923665840692418e-02 0.0000000000000000e+00  2.9724503542313849e+00 -1.1532554295493987e-02 0.0000000000000000e+00  2.9712394261664374e+00 -2.9816503773756515e-02 0.0000000000000000e+00  2.9727999217553838e+00 -3.9097745562174532e-02 0.0000000000000000e+00  2.9711830399875483e+00 -6.5686295890745441e-02 0.0000000000000000e+00  2.9725296236812420e+00 -6.9013338726733778e-02 0.0000000000000000e+00  2.9711742919908852e+00 -7.8983886795032626e-02 0.0000000000000000e+00  2.9727300844907623e+00 -6.6026709649402132e-02 0.0000000000000000e+00  2.9710749629642352e+00 -5.8240265564568842e-02 0.0000000000000000e+00  2.9728158838559158e+00 -5.6939826960461438e-02 0.0000000000000000e+00  2.9715063813408720e+00 -3.5094099105724877e-02 0.0000000000000000e+00  2.9725976020490128e+00 0.0000000000000000e+00 0.0000000000000000e+00  1.4042597814992244e+00 0.0000000000000000e+00 3.5637149589414857e-02  1.3984677658966298e+00 4.1574293129835252e-02 1.6326890212534579e-03  1.4023181581591959e+00 4.9424229226324723e-02 -2.0274998055733608e-02  1.4018029398249565e+00 9.6913965333204996e-02 6.8426931416356207e-04  1.4015754900353177e+00 1.3395445250023608e-01 1.2781736160992267e-02  1.4009808397826458e+00 1.6021538150811246e-01 -2.2165181249977784e-02  1.4034880979456328e+00 2.1549401354394754e-01 2.5385281630071619e-02  1.4010238710492502e+00 2.2333091750222819e-01 -2.3725258740215947e-02  1.4021819994073674e+00 2.9186593823327628e-01 2.2375672938461422e-02  1.4029072881099993e+00 2.9852889752320150e-01 -2.2568678865297398e-02  1.4020521116556897e+00 3.5895957674187240e-01 2.3959853669442952e-02  1.4016053457789630e+00 3.7106153820349963e-01 -2.2639557730057904e-02  1.4035667486759675e+00 4.3430800984539242e-01 1.7464331662567712e-02  1.4014851253506628e+00 4.4537356039541875e-01 -1.0019667432696710e-02  1.4021143748951694e+00 4.9339302069573238e-01 6.5359205436758315e-03  1.4029332025039685e+00 5.2773651517631459e-01 -1.1456745445810683e-02  1.4017279703960628e+00 5.6690915620556370e-01 2.0695312966107847e-02  1.4018424343762366e+00 5.8628027089518275e-01 -2.6747844301943290e-02  1.4025807483256238e+00 6.4736396596726964e-01 2.5548164800739365e-02  1.4019817641561625e+00 6.5771483754810278e-01 -2.3136973412302173e-02  1.4010902120790636e+00 7.1544185952953077e-01 2.6026165269665297e-02  1.4032907876306913e+00 7.2869671640476852e-01 -3.0861237153965170e-02  1.4008539506107580e+00 7.8839841725875459e-01 3.1830469575399610e-02  1.4024917983084100e+00 7.9624071893161119e-01 -2.9231953440558775e-02  1.4018804659272954e+00 8.6416302716742555e-01 2.9145721774721470e-02  1.4028156412190025e+00 8.6324078442246011e-01 -3.0972335260287486e-02  1.4011195241939594e+00 9.3080984397274857e-01 3.0404476339299952e-02  1.4043596859247462e+00 9.3977504406519796e-01 -2.7525564489878831e-02  1.4018274481337325e+00 9.9825248649513920e-01 2.5786616574648896e-02  1.4041453268741746e+00 1.0042336326129655e+00 -2.5393575151531112e-02  1.4040153743039481e+00 1.0693670781438640e+00 2.3675146509204232e-02  1.4056632059995036e+00 1.0730271053694727e+00 -2.1394018227049557e-02  1.4050442755837167e+00 1.1290798795643060e+00 1.9445731512107451e-02  1.4089621224263602e+00 1.1428490695070452e+00 -1.8410748185263871e-02  1.4085462848505597e+00 1.1893361989127802e+00 1.6677092943437402e-02  1.4119583075740307e+00 1.1992915161430950e+00 -1.5613164647665776e-02  1.4146093195187381e+00 1.2494955077298655e+00 1.4552608647404533e-02  1.4185864452391779e+00 1.2542771329086677e+00 -1.3984289072921950e-02  1.4213558735822973e+00 1.2935808550743739e+00 1.3225141746281062e-02  1.4286192663083879e+00 1.3044013905724126e+00 -1.3040281000707411e-02  1.4322730002431134e+00 1.3356691438750525e+00 1.2686768496950730e-02  1.4394949633072802e+00 1.3389443596046964e+00 -1.2909582094242195e-02  1.4457248705394443e+00 1.3757401032993815e+00 1.3301843616932232e-02  1.4535825221720586e+00 1.3732956177208000e+00 -1.4040664376570838e-02  1.4581525972935643e+00 1.4050757590305294e+00 1.4635091805443685e-02  1.4685738063084666e+00 1.4086221758928690e+00 -1.5519948641527340e-02  1.4722521791127157e+00 1.4401301594862432e+00 1.6413175320312137e-02  1.4814616929009419e+00 1.4363866107198628e+00 -1.7258009564736866e-02  1.4865722956211216e+00 1.4769874673523633e+00 1.8112562351023487e-02  1.4958137713004622e+00 1.4698625288929592e+00 -1.9088538588981477e-02  1.4987324931176831e+00 1.5071059560708231e+00 1.9889023919895166e-02  1.5104832806466186e+00 1.5044981328330187e+00 -2.0676762321768037e-02  1.5124188794502105e+00 1.5434732072005211e+00 2.1354895508193236e-02  1.5230691497472391e+00 1.5323302721386454e+00 -2.1909643717253534e-02  1.5265066072719042e+00 1.5795875956645613e+00 2.2144011718907917e-02  1.5369616563557595e+00 1.5672591355338916e+00 -2.2150791338450420e-02  1.5388453753101634e+00 1.6086549612436707e+00 2.1964926153874832e-02  1.5509701787615955e+00 1.6026491225424808e+00 -2.1434399963206952e-02  1.5526131791682689e+00 1.6435720416052377e+00 2.0883708434083943e-02  1.5632500176885582e+00 1.6320305115360074e+00 -1.9940341534476474e-02  1.5665068953553813e+00 1.6774823135985786e+00 1.9064456889980975e-02  1.5767683505068499e+00 1.6684477637813027e+00 -1.7536465511223422e-02  1.5790555241710147e+00 1.7046926325585268e+00 1.6273791537581603e-02  1.5901111479663861e+00 1.7043333504321840e+00 -1.4308955539427690e-02  1.5930751265838727e+00 1.7375741894611281e+00 1.2798281988459025e-02  1.6020610447478372e+00 1.7346656804727749e+00 -1.0486165797750290e-02  1.6069665299261524e+00 1.7691250195536761e+00 8.8150484746636944e-03  1.6151953609760257e+00 1.7713830389456442e+00 -6.1845036035991325e-03  1.6197098215286978e+00 1.7947461450040540e+00 4.4048619417314432e-03  1.6280142413884917e+00 1.8071488871444723e+00 -1.7240696422868779e-03  1.6336106534345438e+00 1.8258515190735067e+00 8.9649434242473260e-05  1.6398492830361830e+00 1.8375944054592197e+00 2.3307256036166290e-03  1.6471063387567404e+00 1.8556980054395051e+00 -3.7753579588120094e-03  1.6526624388223945e+00 1.8732583228286102e+00 5.7381936813467168e-03  1.6596983523069075e+00 1.8807670221076902e+00 -6.9436572380523563e-03  1.6650705970093378e+00 1.9070234084520792e+00 8.2879157687730243e-03  1.6730649184985109e+00 1.9113248802055065e+00 -9.2494870231997969e-03  1.6767970977754600e+00 1.9354739243431847e+00 1.0010206895982489e-02  1.6858913006847924e+00 1.9407636369950361e+00 -1.0915938047226839e-02  1.6891657167905125e+00 1.9681411781592248e+00 1.1360799164980364e-02  1.6980864901814545e+00 1.9663030130671479e+00 -1.2266075957520777e-02  1.7010154458801305e+00 1.9984381603560175e+00 1.2524896433