<?xml version="1.0"?>
<VTKFile type="UnstructuredGrid"  version="0.1"  >
<UnstructuredGrid>
<Piece  NumberOfPoints="8241" NumberOfCells="16000">
<Points>
<DataArray  type="Float64"  NumberOfComponents="3"  format="ascii">-5 -1 0  -4.95 -1 0  -4.9 -1 0  -4.85 -1 0  -4.8 -1 0  -4.75 -1 0  -4.7 -1 0  -4.65 -1 0  -4.6 -1 0  -4.55 -1 0  -4.5 -1 0  -4.45 -1 0  -4.4 -1 0  -4.35 -1 0  -4.3 -1 0  -4.25 -1 0  -4.2 -1 0  -4.15 -1 0  -4.1 -1 0  -4.05 -1 0  -4 -1 0  -3.95 -1 0  -3.9 -1 0  -3.85 -1 0  -3.8 -1 0  -3.75 -1 0  -3.7 -1 0  -3.65 -1 0  -3.6 -1 0  -3.55 -1 0  -3.5 -1 0  -3.45 -1 0  -3.4 -1 0  -3.35 -1 0  -3.3 -1 0  -3.25 -1 0  -3.2 -1 0  -3.15 -1 0  -3.1 -1 0  -3.05 -1 0  -3 -1 0  -2.95 -1 0  -2.9 -1 0  -2.85 -1 0  -2.8 -1 0  -2.75 -1 0  -2.7 -1 0  -2.65 -1 0  -2.6 -1 0  -2.55 -1 0  -2.5 -1 0  -2.45 -1 0  -2.4 -1 0  -2.35 -1 0  -2.3 -1 0  -2.25 -1 0  -2.2 -1 0  -2.15 -1 0  -2.1 -1 0  -2.05 -1 0  -2 -1 0  -1.95 -1 0  -1.9 -1 0  -1.85 -1 0  -1.8 -1 0  -1.75 -1 0  -1.7 -1 0  -1.65 -1 0  -1.6 -1 0  -1.55 -1 0  -1.5 -1 0  -1.45 -1 0  -1.4 -1 0  -1.35 -1 0  -1.3 -1 0  -1.25 -1 0  -1.2 -1 0  -1.15 -1 0  -1.1 -1 0  -1.05 -1 0  -1 -1 0  -0.9500000000000002 -1 0  -0.9000000000000004 -1 0  -0.8499999999999996 -1 0  -0.7999999999999998 -1 0  -0.75 -1 0  -0.7000000000000002 -1 0  -0.6500000000000004 -1 0  -0.5999999999999996 -1 0  -0.5499999999999998 -1 0  -0.5 -1 0  -0.4500000000000002 -1 0  -0.4000000000000004 -1 0  -0.3499999999999996 -1 0  -0.2999999999999998 -1 0  -0.25 -1 0  -0.2000000000000002 -1 0  -0.1500000000000004 -1 0  -0.09999999999999964 -1 0  -0.04999999999999982 -1 0  0 -1 0  0.04999999999999982 -1 0  0.09999999999999964 -1 0  0.1500000000000004 -1 0  0.2000000000000002 -1 0  0.25 -1 0  0.2999999999999998 -1 0  0.3499999999999996 -1 0  0.4000000000000004 -1 0  0.4500000000000002 -1 0  0.5 -1 0  0.5499999999999998 -1 0  0.5999999999999996 -1 0  0.6500000000000004 -1 0  0.7000000000000002 -1 0  0.75 -1 0  0.7999999999999998 -1 0  0.8499999999999996 -1 0  0.9000000000000004 -1 0  0.9500000000000002 -1 0  1 -1 0  1.05 -1 0  1.1 -1 0  1.15 -1 0  1.2 -1 0  1.25 -1 0  1.3 -1 0  1.35 -1 0  1.4 -1 0  1.45 -1 0  1.5 -1 0  1.55 -1 0  1.6 -1 0  1.65 -1 0  1.7 -1 0  1.75 -1 0  1.8 -1 0  1.85 -1 0  1.9 -1 0  1.95 -1 0  2 -1 0  2.05 -1 0  2.1 -1 0  2.15 -1 0  2.2 -1 0  2.25 -1 0  2.3 -1 0  2.35 -1 0  2.4 -1 0  2.45 -1 0  2.5 -1 0  2.55 -1 0  2.6 -1 0  2.65 -1 0  2.7 -1 0  2.75 -1 0  2.8 -1 0  2.85 -1 0  2.9 -1 0  2.95 -1 0  3 -1 0  3.050000000000001 -1 0  3.1 -1 0  3.15 -1 0  3.199999999999999 -1 0  3.25 -1 0  3.300000000000001 -1 0  3.35 -1 0  3.4 -1 0  3.449999999999999 -1 0  3.5 -1 0  3.550000000000001 -1 0  3.6 -1 0  3.65 -1 0  3.699999999999999 -1 0  3.75 -1 0  3.800000000000001 -1 0  3.85 -1 0  3.9 -1 0  3.949999999999999 -1 0  4 -1 0  4.050000000000001 -1 0  4.1 -1 0  4.15 -1 0  4.199999999999999 -1 0  4.25 -1 0  4.300000000000001 -1 0  4.35 -1 0  4.4 -1 0  4.449999999999999 -1 0  4.5 -1 0  4.550000000000001 -1 0  4.6 -1 0  4.65 -1 0  4.699999999999999 -1 0  4.75 -1 0  4.800000000000001 -1 0  4.85 -1 0  4.9 -1 0  4.949999999999999 -1 0  5 -1 0  -5 -0.95 0  -4.95 -0.95 0  -4.9 -0.95 0  -4.85 -0.95 0  -4.8 -0.95 0  -4.75 -0.95 0  -4.7 -0.95 0  -4.65 -0.95 0  -4.6 -0.95 0  -4.55 -0.95 0  -4.5 -0.95 0  -4.45 -0.95 0  -4.4 -0.95 0  -4.35 -0.95 0  -4.3 -0.95 0  -4.25 -0.95 0  -4.2 -0.95 0  -4.15 -0.95 0  -4.1 -0.95 0  -4.05 -0.95 0  -4 -0.95 0  -3.95 -0.95 0  -3.9 -0.95 0  -3.85 -0.95 0  -3.8 -0.95 0  -3.75 -0.95 0  -3.7 -0.95 0  -3.65 -0.95 0  -3.6 -0.95 0  -3.55 -0.95 0  -3.5 -0.95 0  -3.45 -0.95 0  -3.4 -0.95 0  -3.35 -0.95 0  -3.3 -0.95 0  -3.25 -0.95 0  -3.2 -0.95 0  -3.15 -0.95 0  -3.1 -0.95 0  -3.05 -0.95 0  -3 -0.95 0  -2.95 -0.95 0  -2.9 -0.95 0  -2.85 -0.95 0  -2.8 -0.95 0  -2.75 -0.95 0  -2.7 -0.95 0  -2.65 -0.95 0  -2.6 -0.95 0  -2.55 -0.95 0  -2.5 -0.95 0  -2.45 -0.95 0  -2.4 -0.95 0  -2.35 -0.95 0  -2.3 -0.95 0  -2.25 -0.95 0  -2.2 -0.95 0  -2.15 -0.95 0  -2.1 -0.95 0  -2.05 -0.95 0  -2 -0.95 0  -1.95 -0.95 0  -1.9 -0.95 0  -1.85 -0.95 0  -1.8 -0.95 0  -1.75 -0.95 0  -1.7 -0.95 0  -1.65 -0.95 0  -1.6 -0.95 0  -1.55 -0.95 0  -1.5 -0.95 0  -1.45 -0.95 0  -1.4 -0.95 0  -1.35 -0.95 0  -1.3 -0.95 0  -1.25 -0.95 0  -1.2 -0.95 0  -1.15 -0.95 0  -1.1 -0.95 0  -1.05 -0.95 0  -1 -0.95 0  -0.9500000000000002 -0.95 0  -0.9000000000000004 -0.95 0  -0.8499999999999996 -0.95 0  -0.7999999999999998 -0.95 0  -0.75 -0.95 0  -0.7000000000000002 -0.95 0  -0.6500000000000004 -0.95 0  -0.5999999999999996 -0.95 0  -0.5499999999999998 -0.95 0  -0.5 -0.95 0  -0.4500000000000002 -0.95 0  -0.4000000000000004 -0.95 0  -0.3499999999999996 -0.95 0  -0.2999999999999998 -0.95 0  -0.25 -0.95 0  -0.2000000000000002 -0.95 0  -0.1500000000000004 -0.95 0  -0.09999999999999964 -0.95 0  -0.04999999999999982 -0.95 0  0 -0.95 0  0.04999999999999982 -0.95 0  0.09999999999999964 -0.95 0  0.1500000000000004 -0.95 0  0.2000000000000002 -0.95 0  0.25 -0.95 0  0.2999999999999998 -0.95 0  0.3499999999999996 -0.95 0  0.4000000000000004 -0.95 0  0.4500000000000002 -0.95 0  0.5 -0.95 0  0.5499999999999998 -0.95 0  0.5999999999999996 -0.95 0  0.6500000000000004 -0.95 0  0.7000000000000002 -0.95 0  0.75 -0.95 0  0.7999999999999998 -0.95 0  0.8499999999999996 -0.95 0  0.9000000000000004 -0.95 0  0.9500000000000002 -0.95 0  1 -0.95 0  1.05 -0.95 0  1.1 -0.95 0  1.15 -0.95 0  1.2 -0.95 0  1.25 -0.95 0  1.3 -0.95 0  1.35 -0.95 0  1.4 -0.95 0  1.45 -0.95 0  1.5 -0.95 0  1.55 -0.95 0  1.6 -0.95 0  1.65 -0.95 0  1.7 -0.95 0  1.75 -0.95 0  1.8 -0.95 0  1.85 -0.95 0  1.9 -0.95 0  1.95 -0.95 0  2 -0.95 0  2.05 -0.95 0  2.1 -0.95 0  2.15 -0.95 0  2.2 -0.95 0  2.25 -0.95 0  2.3 -0.95 0  2.35 -0.95 0  2.4 -0.95 0  2.45 -0.95 0  2.5 -0.95 0  2.55 -0.95 0  2.6 -0.95 0  2.65 -0.95 0  2.7 -0.95 0  2.75 -0.95 0  2.8 -0.95 0  2.85 -0.95 0  2.9 -0.95 0  2.95 -0.95 0  3 -0.95 0  3.050000000000001 -0.95 0  3.1 -0.95 0  3.15 -0.95 0  3.199999999999999 -0.95 0  3.25 -0.95 0  3.300000000000001 -0.95 0  3.35 -0.95 0  3.4 -0.95 0  3.449999999999999 -0.95 0  3.5 -0.95 0  3.550000000000001 -0.95 0  3.6 -0.95 0  3.65 -0.95 0  3.699999999999999 -0.95 0  3.75 -0.95 0  3.800000000000001 -0.95 0  3.85 -0.95 0  3.9 -0.95 0  3.949999999999999 -0.95 0  4 -0.95 0  4.050000000000001 -0.95 0  4.1 -0.95 0  4.15 -0.95 0  4.199999999999999 -0.95 0  4.25 -0.95 0  4.300000000000001 -0.95 0  4.35 -0.95 0  4.4 -0.95 0  4.449999999999999 -0.95 0  4.5 -0.95 0  4.550000000000001 -0.95 0  4.6 -0.95 0  4.65 -0.95 0  4.699999999999999 -0.95 0  4.75 -0.95 0  4.800000000000001 -0.95 0  4.85 -0.95 0  4.9 -0.95 0  4.949999999999999 -0.95 0  5 -0.95 0  -5 -0.9 0  -4.95 -0.9 0  -4.9 -0.9 0  -4.85 -0.9 0  -4.8 -0.9 0  -4.75 -0.9 0  -4.7 -0.9 0  -4.65 -0.9 0  -4.6 -0.9 0  -4.55 -0.9 0  -4.5 -0.9 0  -4.45 -0.9 0  -4.4 -0.9 0  -4.35 -0.9 0  -4.3 -0.9 0  -4.25 -0.9 0  -4.2 -0.9 0  -4.15 -0.9 0  -4.1 -0.9 0  -4.05 -0.9 0  -4 -0.9 0  -3.95 -0.9 0  -3.9 -0.9 0  -3.85 -0.9 0  -3.8 -0.9 0  -3.75 -0.9 0  -3.7 -0.9 0  -3.65 -0.9 0  -3.6 -0.9 0  -3.55 -0.9 0  -3.5 -0.9 0  -3.45 -0.9 0  -3.4 -0.9 0  -3.35 -0.9 0  -3.3 -0.9 0  -3.25 -0.9 0  -3.2 -0.9 0  -3.15 -0.9 0  -3.1 -0.9 0  -3.05 -0.9 0  -3 -0.9 0  -2.95 -0.9 0  -2.9 -0.9 0  -2.85 -0.9 0  -2.8 -0.9 0  -2.75 -0.9 0  -2.7 -0.9 0  -2.65 -0.9 0  -2.6 -0.9 0  -2.55 -0.9 0  -2.5 -0.9 0  -2.45 -0.9 0  -2.4 -0.9 0  -2.35 -0.9 0  -2.3 -0.9 0  -2.25 -0.9 0  -2.2 -0.9 0  -2.15 -0.9 0  -2.1 -0.9 0  -2.05 -0.9 0  -2 -0.9 0  -1.95 -0.9 0  -1.9 -0.9 0  -1.85 -0.9 0  -1.8 -0.9 0  -1.75 -0.9 0  -1.7 -0.9 0  -1.65 -0.9 0  -1.6 -0.9 0  -1.55 -0.9 0  -1.5 -0.9 0  -1.45 -0.9 0  -1.4 -0.9 0  -1.35 -0.9 0  -1.3 -0.9 0  -1.25 -0.9 0  -1.2 -0.9 0  -1.15 -0.9 0  -1.1 -0.9 0  -1.05 -0.9 0  -1 -0.9 0  -0.9500000000000002 -0.9 0  -0.9000000000000004 -0.9 0  -0.8499999999999996 -0.9 0  -0.7999999999999998 -0.9 0  -0.75 -0.9 0  -0.7000000000000002 -0.9 0  -0.6500000000000004 -0.9 0  -0.5999999999999996 -0.9 0  -0.5499999999999998 -0.9 0  -0.5 -0.9 0  -0.4500000000000002 -0.9 0  -0.4000000000000004 -0.9 0  -0.3499999999999996 -0.9 0  -0.2999999999999998 -0.9 0  -0.25 -0.9 0  -0.2000000000000002 -0.9 0  -0.1500000000000004 -0.9 0  -0.09999999999999964 -0.9 0  -0.04999999999999982 -0.9 0  0 -0.9 0  0.04999999999999982 -0.9 0  0.09999999999999964 -0.9 0  0.1500000000000004 -0.9 0  0.2000000000000002 -0.9 0  0.25 -0.9 0  0.2999999999999998 -0.9 0  0.3499999999999996 -0.9 0  0.4000000000000004 -0.9 0  0.4500000000000002 -0.9 0  0.5 -0.9 0  0.5499999999999998 -0.9 0  0.5999999999999996 -0.9 0  0.6500000000000004 -0.9 0  0.7000000000000002 -0.9 0  0.75 -0.9 0  0.7999999999999998 -0.9 0  0.8499999999999996 -0.9 0  0.9000000000000004 -0.9 0  0.9500000000000002 -0.9 0  1 -0.9 0  1.05 -0.9 0  1.1 -0.9 0  1.15 -0.9 0  1.2 -0.9 0  1.25 -0.9 0  1.3 -0.9 0  1.35 -0.9 0  1.4 -0.9 0  1.45 -0.9 0  1.5 -0.9 0  1.55 -0.9 0  1.6 -0.9 0  1.65 -0.9 0  1.7 -0.9 0  1.75 -0.9 0  1.8 -0.9 0  1.85 -0.9 0  1.9 -0.9 0  1.95 -0.9 0  2 -0.9 0  2.05 -0.9 0  2.1 -0.9 0  2.15 -0.9 0  2.2 -0.9 0  2.25 -0.9 0  2.3 -0.9 0  2.35 -0.9 0  2.4 -0.9 0  2.45 -0.9 0  2.5 -0.9 0  2.55 -0.9 0  2.6 -0.9 0  2.65 -0.9 0  2.7 -0.9 0  2.75 -0.9 0  2.8 -0.9 0  2.85 -0.9 0  2.9 -0.9 0  2.95 -0.9 0  3 -0.9 0  3.050000000000001 -0.9 0  3.1 -0.9 0  3.15 -0.9 0  3.199999999999999 -0.9 0  3.25 -0.9 0  3.300000000000001 -0.9 0  3.35 -0.9 0  3.4 -0.9 0  3.449999999999999 -0.9 0  3.5 -0.9 0  3.550000000000001 -0.9 0  3.6 -0.9 0  3.65 -0.9 0  3.699999999999999 -0.9 0  3.75 -0.9 0  3.800000000000001 -0.9 0  3.85 -0.9 0  3.9 -0.9 0  3.949999999999999 -0.9 0  4 -0.9 0  4.050000000000001 -0.9 0  4.1 -0.9 0  4.15 -0.9 0  4.199999999999999 -0.9 0  4.25 -0.9 0  4.300000000000001 -0.9 0  4.35 -0.9 0  4.4 -0.9 0  4.449999999999999 -0.9 0  4.5 -0.9 0  4.550000000000001 -0.9 0  4.6 -0.9 0  4.65 -0.9 0  4.699999999999999 -0.9 0  4.75 -0.9 0  4.800000000000001 -0.9 0  4.85 -0.9 0  4.9 -0.9 0  4.949999999999999 -0.9 0  5 -0.9 0  -5 -0.85 0  -4.95 -0.85 0  -4.9 -0.85 0  -4.85 -0.85 0  -4.8 -0.85 0  -4.75 -0.85 0  -4.7 -0.85 0  -4.65 -0.85 0  -4.6 -0.85 0  -4.55 -0.85 0  -4.5 -0.85 0  -
[...]
<PointData  Vectors="f_15"> 
<DataArray  type="Float64"  Name="f_15"  NumberOfComponents="3" format="ascii">4.3477105280628132e+00 0.0000000000000000e+00 0.0000000000000000e+00  4.3465484481885444e+00 1.0210319584201694e-01 0.0000000000000000e+00  4.3415275233873825e+00 8.2108381690336754e-02 0.0000000000000000e+00  4.3482675554311028e+00 2.0875116783061196e-01 0.0000000000000000e+00  4.3439254056140140e+00 2.1863776245724023e-01 0.0000000000000000e+00  4.3437031948202227e+00 3.1866130384569236e-01 0.0000000000000000e+00  4.3442847685808532e+00 3.5012018321847965e-01 0.0000000000000000e+00  4.3464753660574056e+00 4.3400790579425430e-01 0.0000000000000000e+00  4.3392146786169290e+00 4.8209439892696859e-01 0.0000000000000000e+00  4.3472943907033432e+00 5.4973569550962942e-01 0.0000000000000000e+00  4.3408765663801283e+00 6.0646863961556063e-01 0.0000000000000000e+00  4.3432595473733988e+00 6.7721254685443455e-01 0.0000000000000000e+00  4.3407294924336650e+00 7.2601860721902167e-01 0.0000000000000000e+00  4.3450952437043382e+00 7.9945518229618751e-01 0.0000000000000000e+00  4.3364567596022230e+00 8.5227669817312990e-01 0.0000000000000000e+00  4.3451144363834979e+00 9.2086789788345480e-01 0.0000000000000000e+00  4.3372739652669416e+00 9.7684253904946106e-01 0.0000000000000000e+00  4.3414856337033934e+00 1.0429994043151980e+00 0.0000000000000000e+00  4.3365493212138650e+00 1.0991007155041050e+00 0.0000000000000000e+00  4.3418314302663230e+00 1.1686392192994801e+00 0.0000000000000000e+00  4.3330716759732120e+00 1.2218644193335060e+00 0.0000000000000000e+00  4.3404668413193166e+00 1.2890549012600079e+00 0.0000000000000000e+00  4.3328599210912122e+00 1.3460457298757771e+00 0.0000000000000000e+00  4.3369703073987278e+00 1.4142212129474485e+00 0.0000000000000000e+00  4.3311087881374259e+00 1.4655530766630898e+00 0.0000000000000000e+00  4.3357261467209982e+00 1.5384736752380954e+00 0.0000000000000000e+00  4.3280969527329338e+00 1.5886034315151958e+00 0.0000000000000000e+00  4.3329962587519049e+00 1.6595510957999366e+00 0.0000000000000000e+00  4.3265155887312936e+00 1.7122981307853697e+00 0.0000000000000000e+00  4.3297189939892355e+00 1.7823131740534950e+00 0.0000000000000000e+00  4.3235579242072184e+00 1.8331185923509632e+00 0.0000000000000000e+00  4.3271215598329329e+00 1.9050145309762152e+00 0.0000000000000000e+00  4.3207435553117586e+00 1.9573692987041609e+00 0.0000000000000000e+00  4.3231658452841106e+00 2.0234758461295947e+00 0.0000000000000000e+00  4.3180494238425196e+00 2.0827081147384803e+00 0.0000000000000000e+00  4.3198380676722303e+00 2.1443994953751759e+00 0.0000000000000000e+00  4.3141018515853551e+00 2.2029346307848390e+00 0.0000000000000000e+00  4.3161307826073783e+00 2.2700603073401937e+00 0.0000000000000000e+00  4.3111500772756655e+00 2.3207253003067860e+00 0.0000000000000000e+00  4.3112987435242829e+00 2.3943743758131619e+00 0.0000000000000000e+00  4.3073809263703060e+00 2.4428771737970560e+00 0.0000000000000000e+00  4.3077586881050864e+00 2.5123382669433587e+00 0.0000000000000000e+00  4.3025902791292152e+00 2.5703786049315682e+00 0.0000000000000000e+00  4.3030547758577118e+00 2.6280627147743902e+00 0.0000000000000000e+00  4.2993090083044079e+00 2.6958092296268639e+00 0.0000000000000000e+00  4.2973972464678072e+00 2.7476842829801842e+00 0.0000000000000000e+00  4.2946164019507496e+00 2.8180295985394990e+00 0.0000000000000000e+00  4.2934056597897312e+00 2.8677035946231810e+00 0.0000000000000000e+00  4.2889615040738738e+00 2.9405143108200082e+00 0.0000000000000000e+00  4.2879377466647028e+00 2.9896727594721009e+00 0.0000000000000000e+00  4.2849405624897727e+00 3.0568776340495014e+00 0.0000000000000000e+00  4.2815957045518545e+00 3.1182739652179765e+00 0.0000000000000000e+00  4.2793883357931035e+00 3.1711600422484687e+00 0.0000000000000000e+00  4.2768314978627950e+00 3.2402745828334361e+00 0.0000000000000000e+00  4.2730046002942528e+00 3.2978370686102463e+00 0.0000000000000000e+00  4.2706299145653386e+00 3.3497621630002299e+00 0.0000000000000000e+00  4.2678794929129245e+00 3.4305523996287275e+00 0.0000000000000000e+00  4.2639448039496672e+00 3.4607912093355075e+00 0.0000000000000000e+00  4.2610096994209616e+00 3.5549823432248062e+00 0.0000000000000000e+00  4.2587086943607577e+00 3.5834219519083232e+00 0.0000000000000000e+00  4.2534276810917140e+00 3.6664407988713705e+00 0.0000000000000000e+00  4.2520480347999543e+00 3.7150640479333710e+00 0.0000000000000000e+00  4.2469517702680228e+00 3.7777169771030175e+00 0.0000000000000000e+00  4.2447697438329879e+00 3.8341278564092289e+00 0.0000000000000000e+00  4.2392243139155203e+00 3.9076363879587537e+00 0.0000000000000000e+00  4.2382026120978047e+00 3.9409584324998388e+00 0.0000000000000000e+00  4.2311653432837728e+00 4.0305877147999469e+00 0.0000000000000000e+00  4.2302742629736274e+00 4.0711459565454193e+00 0.0000000000000000e+00  4.2238366439327919e+00 4.1295343814136256e+00 0.0000000000000000e+00  4.2218519724990120e+00 4.2048269336985076e+00 0.0000000000000000e+00  4.2154511118555602e+00 4.2498675779750350e+00 0.0000000000000000e+00  4.2136698129123822e+00 4.3058016019604448e+00 0.0000000000000000e+00  4.2069849120910954e+00 4.3882567909711812e+00 0.0000000000000000e+00  4.2041243080197939e+00 4.4160636268326421e+00 0.0000000000000000e+00  4.1989408502371948e+00 4.4960960793038049e+00 0.0000000000000000e+00  4.1943246589633940e+00 4.5534768121827316e+00 0.0000000000000000e+00  4.1897523229712625e+00 4.5983464739236055e+00 0.0000000000000000e+00  4.1844526347415396e+00 4.6716224360997716e+00 0.0000000000000000e+00  4.1808178745491409e+00 4.7269433887483983e+00 0.0000000000000000e+00  4.1727983977103582e+00 4.7745869418853992e+00 0.0000000000000000e+00  4.1722549234774506e+00 4.8489076809706528e+00 0.0000000000000000e+00  4.1613438273914749e+00 4.8969322005501379e+00 0.0000000000000000e+00  4.1613097048869019e+00 4.9523047595554823e+00 0.0000000000000000e+00  4.1512955324964453e+00 5.0234156208379988e+00 0.0000000000000000e+00  4.1490708639672125e+00 5.0648759704640813e+00 0.0000000000000000e+00  4.1402165833850075e+00 5.1338548093338039e+00 0.0000000000000000e+00  4.1371674863874901e+00 5.1878203848639899e+00 0.0000000000000000e+00  4.1283673274749528e+00 5.2430783566793275e+00 0.0000000000000000e+00  4.1242948448653056e+00 5.3015733938834693e+00 0.0000000000000000e+00  4.1173029973403699e+00 5.3614494906753647e+00 0.0000000000000000e+00  4.1097964642472187e+00 5.4101682649822793e+00 0.0000000000000000e+00  4.1057993810426199e+00 5.4754780349169314e+00 0.0000000000000000e+00  4.0958148085685639e+00 5.5262314941315074e+00 0.0000000000000000e+00  4.0904569500173089e+00 5.5848520893678089e+00 0.0000000000000000e+00  4.0850759653104705e+00 5.6373122754297436e+00 0.0000000000000000e+00  4.0740878475284044e+00 5.6997030791457410e+00 0.0000000000000000e+00  4.0702922440800968e+00 5.7449466183460185e+00 0.0000000000000000e+00  4.0594142143360310e+00 5.8134063755704188e+00 0.0000000000000000e+00  4.0543041268293019e+00 5.8560794285923539e+00 0.0000000000000000e+00  4.0465975958516287e+00 5.9152444308349725e+00 0.0000000000000000e+00  4.0413011573548188e+00 5.9653548403383025e+00 0.0000000000000000e+00  4.0302654903500388e+00 6.0207616263253270e+00 0.0000000000000000e+00  4.0216355116410476e+00 6.0789921687707178e+00 0.0000000000000000e+00  4.0125814996063793e+00 6.1297653672746000e+00 0.0000000000000000e+00  4.0036920330325181e+00 6.1868570695246383e+00 0.0000000000000000e+00  3.9927742242564928e+00 6.2382875472811534e+00 0.0000000000000000e+00  3.9864297684869521e+00 6.2919373424559879e+00 0.0000000000000000e+00  3.9741939151195322e+00 6.3436498904700427e+00 0.0000000000000000e+00  3.9655424307761695e+00 6.3981002824771034e+00 0.0000000000000000e+00  3.9571724090026610e+00 6.4452205188882719e+00 0.0000000000000000e+00  3.9442412855295728e+00 6.5033276885006810e+00 0.0000000000000000e+00  3.9337451930062888e+00 6.5518143034039937e+00 0.0000000000000000e+00  3.9276392371196827e+00 6.5995475787063231e+00 0.0000000000000000e+00  3.9129189581242252e+00 6.6528880325983231e+00 0.0000000000000000e+00  3.9031483930532764e+00 6.7030273471274340e+00 0.0000000000000000e+00  3.8958580632532569e+00 6.7469990721206257e+00 0.0000000000000000e+00  3.8785388461055184e+00 6.8040466357634015e+00 0.0000000000000000e+00  3.8734440690334595e+00 6.8450126864849974e+00 0.0000000000000000e+00  3.8575380997332362e+00 6.8982866508291334e+00 0.0000000000000000e+00  3.8499829577900613e+00 6.9405298980609524e+00 0.0000000000000000e+00  3.8328357282612058e+00 6.9947923594001793e+00 0.0000000000000000e+00  3.8245032476979026e+00 7.0365638892616351e+00 0.0000000000000000e+00  3.8067901586410766e+00 7.0889731348156442e+00 0.0000000000000000e+00  3.8029817181771324e+00 7.1244721144186780e+00 0.0000000000000000e+00  3.7836308733895287e+00 7.1778157635242295e+00 0.0000000000000000e+00  3.7768581561130246e+00 7.2136284111458888e+00 0.0000000000000000e+00  3.7586893525459524e+00 7.2673513267458310e+00 0.0000000000000000e+00  3.7511399928253781e+00 7.2983174743289485e+00 0.0000000000000000e+00  3.7384978810413663e+00 7.3449780062154710e+00 0.0000000000000000e+00  3.7199855605488321e+00 7.3893295493509301e+00 0.0000000000000000e+00  3.7460308751278841e+00 7.3767067505442094e+00 0.0000000000000000e+00  3.7964531025911965e+00 7.3013073316202100e+00 0.0000000000000000e+00  3.8452778088476181e+00 7.2603050777259135e+00 0.0000000000000000e+00  3.8574877539190457e+00 7.2329719973683844e+00 0.0000000000000000e+00  3.8789112369813887e+00 7.2448491155502213e+00 0.0000000000000000e+00  3.8748231940012667e+00 7.2404124313011673e+00 0.0000000000000000e+00  3.8915063676390327e+00 7.2476745024556628e+00 0.0000000000000000e+00  3.8934797505319474e+00 7.2561235340957193e+00 0.0000000000000000e+00  3.8930687442764675e+00 7.2493728829954103e+00 0.0000000000000000e+00  3.9126966373323535e+00 7.2805738565743594e+00 0.0000000000000000e+00  3.8892024970764241e+00 7.2430216485130412e+00 0.0000000000000000e+00  3.9308760459628327e+00 7.3202867392965176e+00 0.0000000000000000e+00  3.8690728248378861e+00 7.2068209908578913e+00 0.0000000000000000e+00  3.9765052469775912e+00 7.4304478718946321e+00 0.0000000000000000e+00  3.8142499022354044e+00 7.0223001147116255e+00 0.0000000000000000e+00  4.0249441468752645e+00 7.7795653292090803e+00 0.0000000000000000e+00  3.9504616023295145e+00 6.3577691158888685e+00 0.0000000000000000e+00  3.5023841738340020e+00 8.9789563913345152e+00 0.0000000000000000e+00  6.0358185250051051e+00 3.4683617783660501e+00 0.0000000000000000e+00  9.2553351910923034e+00 2.2207703886607241e-01 0.0000000000000000e+00  9.5347996692334611e+00 -3.4419330041243291e-02 0.0000000000000000e+00  9.3798606596837342e+00 -6.6431520892474465e-03 0.0000000000000000e+00  9.4727869141192826e+00 -3.9544665623725814e-02 0.0000000000000000e+00  9.4625843650749832e+00 -3.1531154987493003e-02 0.0000000000000000e+00  9.4814308793770685e+00 -5.4997168031767331e-02 0.0000000000000000e+00  9.4879613134260001e+00 -5.3337094714289331e-02 0.0000000000000000e+00  9.4720311556762873e+00 -3.3729952564909529e-02 0.0000000000000000e+00  9.4859668192886222e+00 -5.0059235545542313e-02 0.0000000000000000e+00  9.4852370124952845e+00 -4.0646444615578578e-02 0.0000000000000000e+00  9.4892268584943071e+00 -5.1607683369032417e-02 0.0000000000000000e+00  9.4871882137619288e+00 -3.7366019655509404e-02 0.0000000000000000e+00  9.4890840856082974e+00 -4.8358850888951969e-02 0.0000000000000000e+00  9.4904393863005829e+00 -3.8131554106412648e-02 0.0000000000000000e+00  9.4931859027035976e+00 -4.6414133684141073e-02 0.0000000000000000e+00  9.4899837678123919e+00 -3.6938564060587473e-02 0.0000000000000000e+00  9.4940240367868878e+00 -4.2081058822122971e-02 0.0000000000000000e+00  9.4929857319664688e+00 -3.9108087728263970e-02 0.0000000000000000e+00  9.4933275469761291e+00 -3.7818598275194786e-02 0.0000000000000000e+00  9.4947932368908070e+00 -4.1858749672903962e-02 0.0000000000000000e+00  9.4941470535243724e+00 -3.5979489216220364e-02 0.0000000000000000e+00  9.4944298745783566e+00 -4.3802006822560184e-02 0.0000000000000000e+00  9.4957041495722567e+00 -3.7040785354021423e-02 0.0000000000000000e+00  9.4948805842993345e+00 -4.3860889070621002e-02 0.0000000000000000e+00  9.4952641995518405e+00 -3.9225123772014439e-02 0.0000000000000000e+00  9.4964077077067461e+00 -4.5594869860646987e-02 0.0000000000000000e+00  9.4949165152966213e+00 -4.0726922799745380e-02 0.0000000000000000e+00  9.4969458850536110e+00 -4.6983106650091921e-02 0.0000000000000000e+00  9.4955639283205624e+00 -4.6139787758303900e-02 0.0000000000000000e+00  9.4966728779766267e+00 -4.8966246215797295e-02 0.0000000000000000e+00  9.4964471014820635e+00 -5.4601660096339495e-02 0.0000000000000000e+00  9.4968992014006162e+00 -5.3953338424146721e-02 0.0000000000000000e+00  9.4961193420947119e+00 -6.2341729102678198e-02 0.0000000000000000e+00  9.4982538336596516e+00 -6.0670181962725465e-02 0.0000000000000000e+00  9.4956720420694491e+00 -6.8183117831654205e-02 0.0000000000000000e+00  9.4984162443017173e+00 -6.4311815437466294e-02 0.0000000000000000e+00  9.4968786013965207e+00 -8.1094413314072897e-02 0.0000000000000000e+00  9.4977839397806552e+00 -8.0551405054830133e-02 0.0000000000000000e+00  9.4972022347801754e+00 -1.0050401179525301e-01 0.0000000000000000e+00  9.4987562164707118e+00 -1.0052313198283258e-01 0.0000000000000000e+00  9.4964700989684090e+00 -1.1798465393470446e-01 0.0000000000000000e+00  9.4993525984258742e+00 -1.1152271934299202e-01 0.0000000000000000e+00  9.4969842882449615e+00 -1.2576700273958424e-01 0.0000000000000000e+00  9.4989124486881629e+00 -1.0631152416214883e-01 0.0000000000000000e+00  9.4978474485333599e+00 -1.1135221380421242e-01 0.0000000000000000e+00  9.4989020444016319e+00 -1.0038005762273611e-01 0.0000000000000000e+00  9.4979133322530682e+00 -9.1918899361172798e-02 0.0000000000000000e+00  9.4995388685853026e+00 -9.3802387799403183e-02 0.0000000000000000e+00  9.4977107793601832e+00 -7.3052931964513915e-02 0.0000000000000000e+00  9.4995824442910752e+00 -1.0508518599045265e-01 0.0000000000000000e+00  9.4986885867377495e+00 -2.6293789706124646e-02 0.0000000000000000e+00  9.4991101063820587e+00 0.0000000000000000e+00 0.0000000000000000e+00  4.3519953445108648e+00 0.0000000000000000e+00 -2.0896945416223094e-02  4.3456613344313348e+00 4.9672277761474828e-02 -7.3496076541168399e-03  4.3529333629084954e+00 1.3906536964221569e-01 2.6694681848281273e-02  4.3497636663812385e+00 1.8436723341414141e-01 -2.0343549816531803e-02  4.3479190669729082e+00 2.5428344900779337e-01 1.7993656776584484e-02  4.3510478007630615e+00 3.0799492880788748e-01 -1.4734771399054113e-02  4.3505316245056438e+00 3.7786530762478104e-01 1.1720352915327727e-02  4.3463168830882086e+00 4.3209942781494309e-01 -8.0054830386664718e-03  4.3510466817257827e+00 4.9555372366831707e-01 4.1407561186915364e-03  4.3482772796546101e+00 5.5720672242009861e-01 -8.0446580757578194e-04  4.3462755579503067e+00 6.1935382120896054e-01 -1.1283084481295584e-03  4.3481131254727767e+00 6.7679374045551877e-01 2.1585802201727323e-03  4.3475740580621300e+00 7.3999243567306006e-01 -3.4138193750899849e-03  4.3432591364922581e+00 8.0435021887505687e-01 5.2503929839480398e-03  4.3469315833423181e+00 8.5751991720951626e-01 -6.3695920961059733e-03  4.3436974869925500e+00 9.2752067872718824e-01 6.2948286698534910e-03  4.3423058581486220e+00 9.7999349229829136e-01 -6.0568065166852264e-03  4.3424537515579837e+00 1.0488070416266655e+00 6.1460465960040955e-03  4.3420871825929721e+00 1.1033760883455614e+00 -5.7806630252791530e-03  4.3380995299851177e+00 1.1695029920783329e+00 4.8522514727167279e-03  4.3402964905094272e+00 1.2246161471152759e+00 -4.4221529750677509e-03  4.3373425650736355e+00 1.2930874643375760e+00 4.9300778356128321e-03  4.3362424194915352e+00 1.3471927499678669e+00 -5.1542860377997825e-03  4.3350829184389879e+00 1.4124898251927629e+00 4.7839148218769903e-03  4.3349674201509369e+00 1.4707307746990261e+00 -4.5634363189211253e-03  4.3313399161402781e+00 1.5357405006966380e+00 4.7260523826493797e-03  4.3322989400389407e+00 1.5905126661499822e+00 -4.6867168870876226e-03  4.3295205268831918e+00 1.6592112914006298e+00 4.3343408874165863e-03  4.3288416622726809e+00 1.7131026156211149e+00 -3.8305299497418252e-03  4.3264715800956663e+00 1.7794305074629717e+00 3.1326006569155594e-03  4.3263878780492719e+00 1.8369002673160768e+00 -2.1487944676106246e-03  4.3234269510819674e+00 1.9015242177138127e+00 1.1692304367379306e-03  4.3226232535232150e+00 1.9577536981440582e+00 -3.2585055211167667e-04  4.3207753968903555e+00 2.0241822711708437e+00 -3.6192547270737804e-04  4.3194050784683293e+00 2.0812202296550786e+00 8.0339698488007762e-04  4.3167758402709797e+00 2.1430733118773309e+00 -7.6490182817178106e-04  4.3161707211661930e+00 2.2065499841893890e+00 2.7574957498030414e-04  4.3135336928242669e+00 2.2631318756101928e+00 5.1605640527839177e-04  4.3118503966884960e+00 2.3279057160731011e+00 -1.2358041065997864e-03  4.3096917373678485e+00 2.3876824950431694e+00 1.5621159877906728e-03  4.3086147962224715e+00 2.4459344921572952e+00 -1.3946149699185179e-03  4.3049170641532202e+00 2.5127032419015216e+00 9.9385402736776882e-04  4.3042952751465640e+00 2.5661396517649271e+00 -7.1752011462322891e-04  4.3015474168896004e+00 2.6334841543064051e+00 7.7955987871448028e-04  4.2990759968729773e+00 2.6898675074771887e+00 -1.1383619856905048e-03  4.2968121703366320e+00 2.7531847131561835e+00 1.5397178889757785e-03  4.2954213934812779e+00 2.8114694308921937e+00 -1.6227950532723861e-03  4.2912513701523274e+00 2.8753116328469015e+00 1.2786789475615543e-03  4.2901571377948491e+00 2.9330318256723649e+00 -6.3515719317887244e-04  4.2874040655347097e+00 2.9934150642348558e+00 5.2140362417951375e-05  4.2840746563795165e+00 3.0590832128677916e+00 1.1073815583927762e-04  4.2817968868095226e+00 3.1108628333313604e+00 3.0916154103115745e-04  4.2798871418030284e+00 3.1787815460403746e+00 -1.2048042527098546e-03  4.2751370700546163e+00 3.2380293489776348e+00 2.2205475871842637e-03  4.2742333045296039e+00 3.2909734028376616e+00 -2.9969058029521221e-03  4.2700351059022985e+00 3.3650336805030303e+00 3.3114377665074040e-03  4.2677200162619862e+00 3.4097124716638629e+00 -3.3777225788781742e-03  4.2634279277004916e+00 3.4828001023926407e+00 3.5465048364784041e-03  4.2626478304840152e+00 3.5352033487264407e+00 -4.1724018554379523e-03  4.2559983937105086e+00 3.5970554174163083e+00 5.0816977084196845e-03  4.2561246846542433e+00 3.6600790479790950e+00 -5.7841452833253953e-03  4.2499718392634778e+00 3.7155314960944295e+00 5.6637715389061391e-03  4.2485049039993354e+00 3.7759482746513258e+00 -4.6618520802359604e-03  4.2431251449788832e+00 3.8436510774154544e+00 3.2523091008271532e-03  4.2414380435795911e+00 3.8876970261182313e+00 -2.1700141091709401e-03  4.2357871991279215e+00 3.9632422162197622e+00 1.7446603549914189e-03  4.2333523796337902e+00 4.0169392297984503e+00 -1.8135807699914313e-03  4.2287741881214433e+00 4.0676683928519664e+00 1.8798444130751083e-03  4.2251641289771422e+00 4.1442129723337962e+00 -1.8133977431877980e-03  4.2202937791361164e+00 4.1920738472630870e+00 1.7337786767000715e-03  4.2176457976197721e+00 4.2458837840643335e+00 -1.9351882904160187e-03  4.2113574886098721e+00 4.3267887750839051e+00 2.3465001586273019e-03  4.2088506835327442e+00 4.3605462675338433e+00 -2.5710389611547338e-03  4.2030247985630558e+00 4.4333370906431444e+00 2.2754050758561736e-03  4.1995010746172889e+00 4.4959863256634467e+00 -1.5577507393014132e-03  4.1935558332462088e+00 4.5405737625052680e+00 9.3326989116940620e-04  4.1906597339781833e+00 4.6095954623802564e+00 -9.9309800023047881e-04  4.1832437998775545e+00 4.6723272578255157e+00 1.7895915663026347e-03  4.1811347606314264e+00 4.7123482808377339e+00 -2.8104577267219913e-03  4.1729175090662345e+00 4.7938688153765892e+00 3.3051390655321577e-03  4.1710895399571051e+00 4.8353071115222424e+00 -2.8617238125528055e-03  4.1620028191724394e+00 4.8984361875671683e+00 1.6999994569738