<?xml version="1.0"?>
<VTKFile type="UnstructuredGrid"  version="0.1"  >
<UnstructuredGrid>
<Piece  NumberOfPoints="8241" NumberOfCells="16000">
<Points>
<DataArray  type="Float64"  NumberOfComponents="3"  format="ascii">-5 -1 0  -4.95 -1 0  -4.9 -1 0  -4.85 -1 0  -4.8 -1 0  -4.75 -1 0  -4.7 -1 0  -4.65 -1 0  -4.6 -1 0  -4.55 -1 0  -4.5 -1 0  -4.45 -1 0  -4.4 -1 0  -4.35 -1 0  -4.3 -1 0  -4.25 -1 0  -4.2 -1 0  -4.15 -1 0  -4.1 -1 0  -4.05 -1 0  -4 -1 0  -3.95 -1 0  -3.9 -1 0  -3.85 -1 0  -3.8 -1 0  -3.75 -1 0  -3.7 -1 0  -3.65 -1 0  -3.6 -1 0  -3.55 -1 0  -3.5 -1 0  -3.45 -1 0  -3.4 -1 0  -3.35 -1 0  -3.3 -1 0  -3.25 -1 0  -3.2 -1 0  -3.15 -1 0  -3.1 -1 0  -3.05 -1 0  -3 -1 0  -2.95 -1 0  -2.9 -1 0  -2.85 -1 0  -2.8 -1 0  -2.75 -1 0  -2.7 -1 0  -2.65 -1 0  -2.6 -1 0  -2.55 -1 0  -2.5 -1 0  -2.45 -1 0  -2.4 -1 0  -2.35 -1 0  -2.3 -1 0  -2.25 -1 0  -2.2 -1 0  -2.15 -1 0  -2.1 -1 0  -2.05 -1 0  -2 -1 0  -1.95 -1 0  -1.9 -1 0  -1.85 -1 0  -1.8 -1 0  -1.75 -1 0  -1.7 -1 0  -1.65 -1 0  -1.6 -1 0  -1.55 -1 0  -1.5 -1 0  -1.45 -1 0  -1.4 -1 0  -1.35 -1 0  -1.3 -1 0  -1.25 -1 0  -1.2 -1 0  -1.15 -1 0  -1.1 -1 0  -1.05 -1 0  -1 -1 0  -0.9500000000000002 -1 0  -0.9000000000000004 -1 0  -0.8499999999999996 -1 0  -0.7999999999999998 -1 0  -0.75 -1 0  -0.7000000000000002 -1 0  -0.6500000000000004 -1 0  -0.5999999999999996 -1 0  -0.5499999999999998 -1 0  -0.5 -1 0  -0.4500000000000002 -1 0  -0.4000000000000004 -1 0  -0.3499999999999996 -1 0  -0.2999999999999998 -1 0  -0.25 -1 0  -0.2000000000000002 -1 0  -0.1500000000000004 -1 0  -0.09999999999999964 -1 0  -0.04999999999999982 -1 0  0 -1 0  0.04999999999999982 -1 0  0.09999999999999964 -1 0  0.1500000000000004 -1 0  0.2000000000000002 -1 0  0.25 -1 0  0.2999999999999998 -1 0  0.3499999999999996 -1 0  0.4000000000000004 -1 0  0.4500000000000002 -1 0  0.5 -1 0  0.5499999999999998 -1 0  0.5999999999999996 -1 0  0.6500000000000004 -1 0  0.7000000000000002 -1 0  0.75 -1 0  0.7999999999999998 -1 0  0.8499999999999996 -1 0  0.9000000000000004 -1 0  0.9500000000000002 -1 0  1 -1 0  1.05 -1 0  1.1 -1 0  1.15 -1 0  1.2 -1 0  1.25 -1 0  1.3 -1 0  1.35 -1 0  1.4 -1 0  1.45 -1 0  1.5 -1 0  1.55 -1 0  1.6 -1 0  1.65 -1 0  1.7 -1 0  1.75 -1 0  1.8 -1 0  1.85 -1 0  1.9 -1 0  1.95 -1 0  2 -1 0  2.05 -1 0  2.1 -1 0  2.15 -1 0  2.2 -1 0  2.25 -1 0  2.3 -1 0  2.35 -1 0  2.4 -1 0  2.45 -1 0  2.5 -1 0  2.55 -1 0  2.6 -1 0  2.65 -1 0  2.7 -1 0  2.75 -1 0  2.8 -1 0  2.85 -1 0  2.9 -1 0  2.95 -1 0  3 -1 0  3.050000000000001 -1 0  3.1 -1 0  3.15 -1 0  3.199999999999999 -1 0  3.25 -1 0  3.300000000000001 -1 0  3.35 -1 0  3.4 -1 0  3.449999999999999 -1 0  3.5 -1 0  3.550000000000001 -1 0  3.6 -1 0  3.65 -1 0  3.699999999999999 -1 0  3.75 -1 0  3.800000000000001 -1 0  3.85 -1 0  3.9 -1 0  3.949999999999999 -1 0  4 -1 0  4.050000000000001 -1 0  4.1 -1 0  4.15 -1 0  4.199999999999999 -1 0  4.25 -1 0  4.300000000000001 -1 0  4.35 -1 0  4.4 -1 0  4.449999999999999 -1 0  4.5 -1 0  4.550000000000001 -1 0  4.6 -1 0  4.65 -1 0  4.699999999999999 -1 0  4.75 -1 0  4.800000000000001 -1 0  4.85 -1 0  4.9 -1 0  4.949999999999999 -1 0  5 -1 0  -5 -0.95 0  -4.95 -0.95 0  -4.9 -0.95 0  -4.85 -0.95 0  -4.8 -0.95 0  -4.75 -0.95 0  -4.7 -0.95 0  -4.65 -0.95 0  -4.6 -0.95 0  -4.55 -0.95 0  -4.5 -0.95 0  -4.45 -0.95 0  -4.4 -0.95 0  -4.35 -0.95 0  -4.3 -0.95 0  -4.25 -0.95 0  -4.2 -0.95 0  -4.15 -0.95 0  -4.1 -0.95 0  -4.05 -0.95 0  -4 -0.95 0  -3.95 -0.95 0  -3.9 -0.95 0  -3.85 -0.95 0  -3.8 -0.95 0  -3.75 -0.95 0  -3.7 -0.95 0  -3.65 -0.95 0  -3.6 -0.95 0  -3.55 -0.95 0  -3.5 -0.95 0  -3.45 -0.95 0  -3.4 -0.95 0  -3.35 -0.95 0  -3.3 -0.95 0  -3.25 -0.95 0  -3.2 -0.95 0  -3.15 -0.95 0  -3.1 -0.95 0  -3.05 -0.95 0  -3 -0.95 0  -2.95 -0.95 0  -2.9 -0.95 0  -2.85 -0.95 0  -2.8 -0.95 0  -2.75 -0.95 0  -2.7 -0.95 0  -2.65 -0.95 0  -2.6 -0.95 0  -2.55 -0.95 0  -2.5 -0.95 0  -2.45 -0.95 0  -2.4 -0.95 0  -2.35 -0.95 0  -2.3 -0.95 0  -2.25 -0.95 0  -2.2 -0.95 0  -2.15 -0.95 0  -2.1 -0.95 0  -2.05 -0.95 0  -2 -0.95 0  -1.95 -0.95 0  -1.9 -0.95 0  -1.85 -0.95 0  -1.8 -0.95 0  -1.75 -0.95 0  -1.7 -0.95 0  -1.65 -0.95 0  -1.6 -0.95 0  -1.55 -0.95 0  -1.5 -0.95 0  -1.45 -0.95 0  -1.4 -0.95 0  -1.35 -0.95 0  -1.3 -0.95 0  -1.25 -0.95 0  -1.2 -0.95 0  -1.15 -0.95 0  -1.1 -0.95 0  -1.05 -0.95 0  -1 -0.95 0  -0.9500000000000002 -0.95 0  -0.9000000000000004 -0.95 0  -0.8499999999999996 -0.95 0  -0.7999999999999998 -0.95 0  -0.75 -0.95 0  -0.7000000000000002 -0.95 0  -0.6500000000000004 -0.95 0  -0.5999999999999996 -0.95 0  -0.5499999999999998 -0.95 0  -0.5 -0.95 0  -0.4500000000000002 -0.95 0  -0.4000000000000004 -0.95 0  -0.3499999999999996 -0.95 0  -0.2999999999999998 -0.95 0  -0.25 -0.95 0  -0.2000000000000002 -0.95 0  -0.1500000000000004 -0.95 0  -0.09999999999999964 -0.95 0  -0.04999999999999982 -0.95 0  0 -0.95 0  0.04999999999999982 -0.95 0  0.09999999999999964 -0.95 0  0.1500000000000004 -0.95 0  0.2000000000000002 -0.95 0  0.25 -0.95 0  0.2999999999999998 -0.95 0  0.3499999999999996 -0.95 0  0.4000000000000004 -0.95 0  0.4500000000000002 -0.95 0  0.5 -0.95 0  0.5499999999999998 -0.95 0  0.5999999999999996 -0.95 0  0.6500000000000004 -0.95 0  0.7000000000000002 -0.95 0  0.75 -0.95 0  0.7999999999999998 -0.95 0  0.8499999999999996 -0.95 0  0.9000000000000004 -0.95 0  0.9500000000000002 -0.95 0  1 -0.95 0  1.05 -0.95 0  1.1 -0.95 0  1.15 -0.95 0  1.2 -0.95 0  1.25 -0.95 0  1.3 -0.95 0  1.35 -0.95 0  1.4 -0.95 0  1.45 -0.95 0  1.5 -0.95 0  1.55 -0.95 0  1.6 -0.95 0  1.65 -0.95 0  1.7 -0.95 0  1.75 -0.95 0  1.8 -0.95 0  1.85 -0.95 0  1.9 -0.95 0  1.95 -0.95 0  2 -0.95 0  2.05 -0.95 0  2.1 -0.95 0  2.15 -0.95 0  2.2 -0.95 0  2.25 -0.95 0  2.3 -0.95 0  2.35 -0.95 0  2.4 -0.95 0  2.45 -0.95 0  2.5 -0.95 0  2.55 -0.95 0  2.6 -0.95 0  2.65 -0.95 0  2.7 -0.95 0  2.75 -0.95 0  2.8 -0.95 0  2.85 -0.95 0  2.9 -0.95 0  2.95 -0.95 0  3 -0.95 0  3.050000000000001 -0.95 0  3.1 -0.95 0  3.15 -0.95 0  3.199999999999999 -0.95 0  3.25 -0.95 0  3.300000000000001 -0.95 0  3.35 -0.95 0  3.4 -0.95 0  3.449999999999999 -0.95 0  3.5 -0.95 0  3.550000000000001 -0.95 0  3.6 -0.95 0  3.65 -0.95 0  3.699999999999999 -0.95 0  3.75 -0.95 0  3.800000000000001 -0.95 0  3.85 -0.95 0  3.9 -0.95 0  3.949999999999999 -0.95 0  4 -0.95 0  4.050000000000001 -0.95 0  4.1 -0.95 0  4.15 -0.95 0  4.199999999999999 -0.95 0  4.25 -0.95 0  4.300000000000001 -0.95 0  4.35 -0.95 0  4.4 -0.95 0  4.449999999999999 -0.95 0  4.5 -0.95 0  4.550000000000001 -0.95 0  4.6 -0.95 0  4.65 -0.95 0  4.699999999999999 -0.95 0  4.75 -0.95 0  4.800000000000001 -0.95 0  4.85 -0.95 0  4.9 -0.95 0  4.949999999999999 -0.95 0  5 -0.95 0  -5 -0.9 0  -4.95 -0.9 0  -4.9 -0.9 0  -4.85 -0.9 0  -4.8 -0.9 0  -4.75 -0.9 0  -4.7 -0.9 0  -4.65 -0.9 0  -4.6 -0.9 0  -4.55 -0.9 0  -4.5 -0.9 0  -4.45 -0.9 0  -4.4 -0.9 0  -4.35 -0.9 0  -4.3 -0.9 0  -4.25 -0.9 0  -4.2 -0.9 0  -4.15 -0.9 0  -4.1 -0.9 0  -4.05 -0.9 0  -4 -0.9 0  -3.95 -0.9 0  -3.9 -0.9 0  -3.85 -0.9 0  -3.8 -0.9 0  -3.75 -0.9 0  -3.7 -0.9 0  -3.65 -0.9 0  -3.6 -0.9 0  -3.55 -0.9 0  -3.5 -0.9 0  -3.45 -0.9 0  -3.4 -0.9 0  -3.35 -0.9 0  -3.3 -0.9 0  -3.25 -0.9 0  -3.2 -0.9 0  -3.15 -0.9 0  -3.1 -0.9 0  -3.05 -0.9 0  -3 -0.9 0  -2.95 -0.9 0  -2.9 -0.9 0  -2.85 -0.9 0  -2.8 -0.9 0  -2.75 -0.9 0  -2.7 -0.9 0  -2.65 -0.9 0  -2.6 -0.9 0  -2.55 -0.9 0  -2.5 -0.9 0  -2.45 -0.9 0  -2.4 -0.9 0  -2.35 -0.9 0  -2.3 -0.9 0  -2.25 -0.9 0  -2.2 -0.9 0  -2.15 -0.9 0  -2.1 -0.9 0  -2.05 -0.9 0  -2 -0.9 0  -1.95 -0.9 0  -1.9 -0.9 0  -1.85 -0.9 0  -1.8 -0.9 0  -1.75 -0.9 0  -1.7 -0.9 0  -1.65 -0.9 0  -1.6 -0.9 0  -1.55 -0.9 0  -1.5 -0.9 0  -1.45 -0.9 0  -1.4 -0.9 0  -1.35 -0.9 0  -1.3 -0.9 0  -1.25 -0.9 0  -1.2 -0.9 0  -1.15 -0.9 0  -1.1 -0.9 0  -1.05 -0.9 0  -1 -0.9 0  -0.9500000000000002 -0.9 0  -0.9000000000000004 -0.9 0  -0.8499999999999996 -0.9 0  -0.7999999999999998 -0.9 0  -0.75 -0.9 0  -0.7000000000000002 -0.9 0  -0.6500000000000004 -0.9 0  -0.5999999999999996 -0.9 0  -0.5499999999999998 -0.9 0  -0.5 -0.9 0  -0.4500000000000002 -0.9 0  -0.4000000000000004 -0.9 0  -0.3499999999999996 -0.9 0  -0.2999999999999998 -0.9 0  -0.25 -0.9 0  -0.2000000000000002 -0.9 0  -0.1500000000000004 -0.9 0  -0.09999999999999964 -0.9 0  -0.04999999999999982 -0.9 0  0 -0.9 0  0.04999999999999982 -0.9 0  0.09999999999999964 -0.9 0  0.1500000000000004 -0.9 0  0.2000000000000002 -0.9 0  0.25 -0.9 0  0.2999999999999998 -0.9 0  0.3499999999999996 -0.9 0  0.4000000000000004 -0.9 0  0.4500000000000002 -0.9 0  0.5 -0.9 0  0.5499999999999998 -0.9 0  0.5999999999999996 -0.9 0  0.6500000000000004 -0.9 0  0.7000000000000002 -0.9 0  0.75 -0.9 0  0.7999999999999998 -0.9 0  0.8499999999999996 -0.9 0  0.9000000000000004 -0.9 0  0.9500000000000002 -0.9 0  1 -0.9 0  1.05 -0.9 0  1.1 -0.9 0  1.15 -0.9 0  1.2 -0.9 0  1.25 -0.9 0  1.3 -0.9 0  1.35 -0.9 0  1.4 -0.9 0  1.45 -0.9 0  1.5 -0.9 0  1.55 -0.9 0  1.6 -0.9 0  1.65 -0.9 0  1.7 -0.9 0  1.75 -0.9 0  1.8 -0.9 0  1.85 -0.9 0  1.9 -0.9 0  1.95 -0.9 0  2 -0.9 0  2.05 -0.9 0  2.1 -0.9 0  2.15 -0.9 0  2.2 -0.9 0  2.25 -0.9 0  2.3 -0.9 0  2.35 -0.9 0  2.4 -0.9 0  2.45 -0.9 0  2.5 -0.9 0  2.55 -0.9 0  2.6 -0.9 0  2.65 -0.9 0  2.7 -0.9 0  2.75 -0.9 0  2.8 -0.9 0  2.85 -0.9 0  2.9 -0.9 0  2.95 -0.9 0  3 -0.9 0  3.050000000000001 -0.9 0  3.1 -0.9 0  3.15 -0.9 0  3.199999999999999 -0.9 0  3.25 -0.9 0  3.300000000000001 -0.9 0  3.35 -0.9 0  3.4 -0.9 0  3.449999999999999 -0.9 0  3.5 -0.9 0  3.550000000000001 -0.9 0  3.6 -0.9 0  3.65 -0.9 0  3.699999999999999 -0.9 0  3.75 -0.9 0  3.800000000000001 -0.9 0  3.85 -0.9 0  3.9 -0.9 0  3.949999999999999 -0.9 0  4 -0.9 0  4.050000000000001 -0.9 0  4.1 -0.9 0  4.15 -0.9 0  4.199999999999999 -0.9 0  4.25 -0.9 0  4.300000000000001 -0.9 0  4.35 -0.9 0  4.4 -0.9 0  4.449999999999999 -0.9 0  4.5 -0.9 0  4.550000000000001 -0.9 0  4.6 -0.9 0  4.65 -0.9 0  4.699999999999999 -0.9 0  4.75 -0.9 0  4.800000000000001 -0.9 0  4.85 -0.9 0  4.9 -0.9 0  4.949999999999999 -0.9 0  5 -0.9 0  -5 -0.85 0  -4.95 -0.85 0  -4.9 -0.85 0  -4.85 -0.85 0  -4.8 -0.85 0  -4.75 -0.85 0  -4.7 -0.85 0  -4.65 -0.85 0  -4.6 -0.85 0  -4.55 -0.85 0  -4.5 -0.85 0  -
[...]
<PointData  Vectors="f_15"> 
<DataArray  type="Float64"  Name="f_15"  NumberOfComponents="3" format="ascii">1.4290632082203232e+00 0.0000000000000000e+00 0.0000000000000000e+00  1.3922268872763335e+00 -6.5043585868148407e-03 0.0000000000000000e+00  1.4272984673726627e+00 1.1477250187490348e-01 0.0000000000000000e+00  1.3911744723388932e+00 9.6958525237225368e-02 0.0000000000000000e+00  1.4284874286735871e+00 1.6825247614251276e-01 0.0000000000000000e+00  1.3907110534250309e+00 1.7727891071407864e-01 0.0000000000000000e+00  1.4261362606992882e+00 2.3677448990678335e-01 0.0000000000000000e+00  1.3924806982032436e+00 2.5191944040211212e-01 0.0000000000000000e+00  1.4249140181619779e+00 2.9794587152662433e-01 0.0000000000000000e+00  1.3911333773272303e+00 3.3212590833446459e-01 0.0000000000000000e+00  1.4254593940305145e+00 3.6397468342661410e-01 0.0000000000000000e+00  1.3912125269152802e+00 4.0266508734635126e-01 0.0000000000000000e+00  1.4230047749479637e+00 4.3396753912095304e-01 0.0000000000000000e+00  1.3928631663170246e+00 4.7497717880660850e-01 0.0000000000000000e+00  1.4220255541059412e+00 5.0390832385847251e-01 0.0000000000000000e+00  1.3915926874990623e+00 5.4731004179173703e-01 0.0000000000000000e+00  1.4224753703727719e+00 5.7261603905907221e-01 0.0000000000000000e+00  1.3916765488429348e+00 6.1933173019097865e-01 0.0000000000000000e+00  1.4203996995972190e+00 6.4568995496369641e-01 0.0000000000000000e+00  1.3928402052621742e+00 6.8767693021081666e-01 0.0000000000000000e+00  1.4197501793196634e+00 7.1317133452166959e-01 0.0000000000000000e+00  1.3915873309593971e+00 7.5863850514383402e-01 0.0000000000000000e+00  1.4202404684247181e+00 7.8931973995256977e-01 0.0000000000000000e+00  1.3913983525059850e+00 8.2099297106414593e-01 0.0000000000000000e+00  1.4187619334662152e+00 8.5508273406537016e-01 0.0000000000000000e+00  1.3923285579876203e+00 8.9822299518429638e-01 0.0000000000000000e+00  1.4184341580392441e+00 9.2333449645725607e-01 0.0000000000000000e+00  1.3913543176550442e+00 9.5814542002921665e-01 0.0000000000000000e+00  1.4194103813951962e+00 9.9617731978626234e-01 0.0000000000000000e+00  1.3919206679494638e+00 1.0262179110849003e+00 0.0000000000000000e+00  1.4186953045623190e+00 1.0582883172763400e+00 0.0000000000000000e+00  1.3940788015110090e+00 1.0938890831844226e+00 0.0000000000000000e+00  1.4199348295920029e+00 1.1216927447898863e+00 0.0000000000000000e+00  1.3953957270712025e+00 1.1521821712968721e+00 0.0000000000000000e+00  1.4231291702943112e+00 1.1859546472662952e+00 0.0000000000000000e+00  1.3997258331398184e+00 1.2101786920334703e+00 0.0000000000000000e+00  1.4263648377862137e+00 1.2345927368120000e+00 0.0000000000000000e+00  1.4070912992640607e+00 1.2659189078938602e+00 0.0000000000000000e+00  1.4336282832269969e+00 1.2816646168715984e+00 0.0000000000000000e+00  1.4154713887633461e+00 1.3055451774664497e+00 0.0000000000000000e+00  1.4441911879152587e+00 1.3244796707183975e+00 0.0000000000000000e+00  1.4278491002248188e+00 1.3436214566081408e+00 0.0000000000000000e+00  1.4550276708874372e+00 1.3532530576296600e+00 0.0000000000000000e+00  1.4419742027200344e+00 1.3811932467045820e+00 0.0000000000000000e+00  1.4684650294718113e+00 1.3857737283762432e+00 0.0000000000000000e+00  1.4545051292007032e+00 1.4094340593226506e+00 0.0000000000000000e+00  1.4824900149111238e+00 1.4201058666607538e+00 0.0000000000000000e+00  1.4686379364866435e+00 1.4430084826362826e+00 0.0000000000000000e+00  1.4945260977046915e+00 1.4480102200854499e+00 0.0000000000000000e+00  1.4829970966164665e+00 1.4781925355965984e+00 0.0000000000000000e+00  1.5081544918222001e+00 1.4824574012217251e+00 0.0000000000000000e+00  1.4952894980114146e+00 1.5064083611751837e+00 0.0000000000000000e+00  1.5220810764579573e+00 1.5177043779478634e+00 0.0000000000000000e+00  1.5091581343277594e+00 1.5410775450176977e+00 0.0000000000000000e+00  1.5340459117362277e+00 1.5469155339126988e+00 0.0000000000000000e+00  1.5234388274917781e+00 1.5752135826929470e+00 0.0000000000000000e+00  1.5473491843553202e+00 1.5828743979745485e+00 0.0000000000000000e+00  1.5361408249754285e+00 1.6026102978295920e+00 0.0000000000000000e+00  1.5607457030431946e+00 1.6187484852261529e+00 0.0000000000000000e+00  1.5502885854179793e+00 1.6361588126804674e+00 0.0000000000000000e+00  1.5725960749828047e+00 1.6488808360399763e+00 0.0000000000000000e+00  1.5644975395952683e+00 1.6682745269159096e+00 0.0000000000000000e+00  1.5856975466749470e+00 1.6856940684771706e+00 0.0000000000000000e+00  1.5773987085385648e+00 1.6945181148228543e+00 0.0000000000000000e+00  1.5985812814935290e+00 1.7214858726820288e+00 0.0000000000000000e+00  1.5916403812580002e+00 1.7267961680421988e+00 0.0000000000000000e+00  1.6102503384933231e+00 1.7514491048869387e+00 0.0000000000000000e+00  1.6056801069210249e+00 1.7578293806759981e+00 0.0000000000000000e+00  1.6231202874319299e+00 1.7869108916274015e+00 0.0000000000000000e+00  1.6186149641030749e+00 1.7838908844480355e+00 0.0000000000000000e+00  1.6356938125706897e+00 1.8207545766761255e+00 0.0000000000000000e+00  1.6325242228494308e+00 1.8157142518215528e+00 0.0000000000000000e+00  1.6474584705197446e+00 1.8494930453334646e+00 0.0000000000000000e+00  1.6459754972394343e+00 1.8464513717615041e+00 0.0000000000000000e+00  1.6601504583823323e+00 1.8834099384443181e+00 0.0000000000000000e+00  1.6586000133973955e+00 1.8729344236553109e+00 0.0000000000000000e+00  1.6724201783647830e+00 1.9159196927486866e+00 0.0000000000000000e+00  1.6718746650345060e+00 1.9046395642357588e+00 0.0000000000000000e+00  1.6841068224540743e+00 1.9440908931422152e+00 0.0000000000000000e+00  1.6845737627361634e+00 1.9352595038917393e+00 0.0000000000000000e+00  1.6963553917868679e+00 1.9760876405331624e+00 0.0000000000000000e+00  1.6966344998409566e+00 1.9629626644415181e+00 0.0000000000000000e+00  1.7081519273235484e+00 2.0047631518890388e+00 0.0000000000000000e+00  1.7089044671147378e+00 1.9963203582048779e+00 0.0000000000000000e+00  1.7196184885942598e+00 2.0279306087291760e+00 0.0000000000000000e+00  1.7204096995456675e+00 2.0287932734753156e+00 0.0000000000000000e+00  1.7313852728187333e+00 2.0537194657661901e+00 0.0000000000000000e+00  1.7313147899362777e+00 2.0578755009507126e+00 0.0000000000000000e+00  1.7426754760200360e+00 2.0769057715344665e+00 0.0000000000000000e+00  1.7421645899969087e+00 2.0897889098669187e+00 0.0000000000000000e+00  1.7534636136089772e+00 2.0967857436781907e+00 0.0000000000000000e+00  1.7523947486166125e+00 2.1190846149784068e+00 0.0000000000000000e+00  1.7641688578505135e+00 2.1186064059649401e+00 0.0000000000000000e+00  1.7619868397063614e+00 2.1462296708264876e+00 0.0000000000000000e+00  1.7743149074760567e+00 2.1363291163935068e+00 0.0000000000000000e+00  1.7713265972975532e+00 2.1760951110949134e+00 0.0000000000000000e+00  1.7836021533303081e+00 2.1521407707971418e+00 0.0000000000000000e+00  1.7804181923936409e+00 2.1995944448945095e+00 0.0000000000000000e+00  1.7920448234598516e+00 2.1743863213632504e+00 0.0000000000000000e+00  1.7891155210467617e+00 2.2159688982354511e+00 0.0000000000000000e+00  1.7997986153450320e+00 2.1950495351779442e+00 0.0000000000000000e+00  1.7970414116159230e+00 2.2346296151109817e+00 0.0000000000000000e+00  1.8069766828378626e+00 2.2121519503406684e+00 0.0000000000000000e+00  1.8045958562403681e+00 2.2464244383591767e+00 0.0000000000000000e+00  1.8128211002040202e+00 2.2387454232939819e+00 0.0000000000000000e+00  1.8119489803565592e+00 2.2465945465641552e+00 0.0000000000000000e+00  1.8180128509708691e+00 2.2644361207635999e+00 0.0000000000000000e+00  1.8180700385008834e+00 2.2549399548506908e+00 0.0000000000000000e+00  1.8229449020788582e+00 2.2740725555413732e+00 0.0000000000000000e+00  1.8235546831379010e+00 2.2707117858493939e+00 0.0000000000000000e+00  1.8266156690577706e+00 2.2838167781924086e+00 0.0000000000000000e+00  1.8288211110480423e+00 2.2755418273896453e+00 0.0000000000000000e+00  1.8297408560865862e+00 2.2998274949436843e+00 0.0000000000000000e+00  1.8328573228010712e+00 2.2802073106137586e+00 0.0000000000000000e+00  1.8326727417070547e+00 2.3038266497643991e+00 0.0000000000000000e+00  1.8362932671704371e+00 2.2961088391165445e+00 0.0000000000000000e+00  1.8347127507840379e+00 2.3004842945837543e+00 0.0000000000000000e+00  1.8394765187670523e+00 2.3057914087104083e+00 0.0000000000000000e+00  1.8362705186980515e+00 2.3077675300909197e+00 0.0000000000000000e+00  1.8418891994788644e+00 2.3040327197059693e+00 0.0000000000000000e+00  1.8379557423184152e+00 2.3156799642938504e+00 0.0000000000000000e+00  1.8436924830567900e+00 2.3071618597430561e+00 0.0000000000000000e+00  1.8393787270054611e+00 2.3148415535033999e+00 0.0000000000000000e+00  1.8459806549828055e+00 2.3104295018346304e+00 0.0000000000000000e+00  1.8405678906721767e+00 2.3173201492681037e+00 0.0000000000000000e+00  1.8494499248401466e+00 2.3032402898465492e+00 0.0000000000000000e+00  1.8436992221962694e+00 2.3185397693673933e+00 0.0000000000000000e+00  1.8554047487092793e+00 2.2931574090114113e+00 0.0000000000000000e+00  1.8525195821448610e+00 2.3034718601674560e+00 0.0000000000000000e+00  1.8691062203669568e+00 2.2719683368338131e+00 0.0000000000000000e+00  1.8707722928715953e+00 2.2739872583284950e+00 0.0000000000000000e+00  1.8944189735099728e+00 2.2271667383832474e+00 0.0000000000000000e+00  1.8992843787072431e+00 2.2307740371132732e+00 0.0000000000000000e+00  1.9229959868543272e+00 2.1797709741917077e+00 0.0000000000000000e+00  1.9241911125507283e+00 2.1921784297904683e+00 0.0000000000000000e+00  1.9370645114718956e+00 2.1599689679032115e+00 0.0000000000000000e+00  1.9254271797301070e+00 2.1928941681115703e+00 0.0000000000000000e+00  1.9275469828010783e+00 2.1807269355939636e+00 0.0000000000000000e+00  1.8998922339074502e+00 2.2366451766902733e+00 0.0000000000000000e+00  1.8907411627984936e+00 2.2569813218132864e+00 0.0000000000000000e+00  1.8346806412278203e+00 2.3424277092653232e+00 0.0000000000000000e+00  1.8046282847169544e+00 2.4097904686802449e+00 0.0000000000000000e+00  1.7171806325908214e+00 2.5247054055136919e+00 0.0000000000000000e+00  1.8393262885900679e+00 2.2712586486679154e+00 0.0000000000000000e+00  2.4759659916688612e+00 8.5104489216991464e-01 0.0000000000000000e+00  2.9345345592551424e+00 2.3221198267421198e-02 0.0000000000000000e+00  2.9473353335195647e+00 -1.0011580229067304e-02 0.0000000000000000e+00  2.9481760341761611e+00 -2.2974909518099166e-02 0.0000000000000000e+00  2.9692908717071669e+00 -5.2037259301370993e-02 0.0000000000000000e+00  2.9763996681504437e+00 -6.0662696356349598e-02 0.0000000000000000e+00  2.9624792243339426e+00 -4.2037119348534525e-02 0.0000000000000000e+00  2.9790858475936646e+00 -5.5813164256728998e-02 0.0000000000000000e+00  2.9623766765701292e+00 -3.7247143039497305e-02 0.0000000000000000e+00  2.9779459392284502e+00 -4.8469443336249966e-02 0.0000000000000000e+00  2.9661038441674297e+00 -3.9824520943996411e-02 0.0000000000000000e+00  2.9789402443322222e+00 -4.3076485126794052e-02 0.0000000000000000e+00  2.9647750974456910e+00 -3.5241496257177096e-02 0.0000000000000000e+00  2.9805011838116680e+00 -3.9520858792947429e-02 0.0000000000000000e+00  2.9652459358639840e+00 -3.2442424393182852e-02 0.0000000000000000e+00  2.9812739728566409e+00 -3.7964699903288823e-02 0.0000000000000000e+00  2.9657054044126521e+00 -3.0991863151502281e-02 0.0000000000000000e+00  2.9819219916519137e+00 -4.0373619236292631e-02 0.0000000000000000e+00  2.9657957413349996e+00 -3.3870321628148702e-02 0.0000000000000000e+00  2.9826959674016922e+00 -4.9377520450104330e-02 0.0000000000000000e+00  2.9663970380749474e+00 -3.8746410894533415e-02 0.0000000000000000e+00  2.9825014318868281e+00 -5.6060284693856655e-02 0.0000000000000000e+00  2.9673370513666875e+00 -3.8845372632522294e-02 0.0000000000000000e+00  2.9822766691835527e+00 -5.3984710207349157e-02 0.0000000000000000e+00  2.9678300913077100e+00 -3.1764350218705335e-02 0.0000000000000000e+00  2.9821489274336281e+00 -4.6788128446766872e-02 0.0000000000000000e+00  2.9683040697524099e+00 -2.1442744418493063e-02 0.0000000000000000e+00  2.9812303050124211e+00 -3.8386068140123603e-02 0.0000000000000000e+00  2.9691995515585807e+00 -1.5227415510323861e-02 0.0000000000000000e+00  2.9798867505623452e+00 -3.1487488998158814e-02 0.0000000000000000e+00  2.9696881861921001e+00 -9.4935505446210652e-03 0.0000000000000000e+00  2.9788374568161164e+00 -3.1004409794008949e-02 0.0000000000000000e+00  2.9697041352886071e+00 -4.3951744108568537e-03 0.0000000000000000e+00  2.9776437304316938e+00 -3.1806066540505336e-02 0.0000000000000000e+00  2.9701230575233302e+00 -3.8951327699731685e-03 0.0000000000000000e+00  2.9760055238435785e+00 -3.1753744517953104e-02 0.0000000000000000e+00  2.9705599584660396e+00 -7.0819461319224803e-03 0.0000000000000000e+00  2.9749758225580822e+00 -2.9479013673630792e-02 0.0000000000000000e+00  2.9705326915378634e+00 -1.3055726222649030e-02 0.0000000000000000e+00  2.9741387512673705e+00 -2.6359325728338937e-02 0.0000000000000000e+00  2.9711070813039391e+00 -1.7186562035357653e-02 0.0000000000000000e+00  2.9729635527733134e+00 -2.1473911766096022e-02 0.0000000000000000e+00  2.9717479426975659e+00 -1.8019887909348099e-02 0.0000000000000000e+00  2.9724897400032697e+00 -1.4950099154587067e-02 0.0000000000000000e+00  2.9719075054911133e+00 -1.2954502097992636e-02 0.0000000000000000e+00  2.9721551871291121e+00 -1.2919470409375971e-02 0.0000000000000000e+00  2.9725020198996259e+00 -1.1561570183267651e-02 0.0000000000000000e+00  2.9715254104064712e+00 -2.9842742851677272e-02 0.0000000000000000e+00  2.9729218658452989e+00 -3.9147754692524232e-02 0.0000000000000000e+00  2.9713970815381305e+00 -6.5710760465381990e-02 0.0000000000000000e+00  2.9727527837100212e+00 -6.8998605963763462e-02 0.0000000000000000e+00  2.9713278541459633e+00 -7.8999604814399313e-02 0.0000000000000000e+00  2.9729713713060613e+00 -6.6008892721416468e-02 0.0000000000000000e+00  2.9711780980588167e+00 -5.8259869329687387e-02 0.0000000000000000e+00  2.9731033264332187e+00 -5.6944223816186863e-02 0.0000000000000000e+00  2.9714620181425260e+00 -3.5101638351855598e-02 0.0000000000000000e+00  2.9729538987192856e+00 0.0000000000000000e+00 0.0000000000000000e+00  1.3993460946012704e+00 0.0000000000000000e+00 3.6828460252658630e-02  1.3936591865712560e+00 4.2077999720408127e-02 1.7972364011471513e-03  1.3973635293831213e+00 4.8495648622381989e-02 -2.0972011294310904e-02  1.3969532860217122e+00 9.6715049393188701e-02 1.0601740549412461e-03  1.3966424390806451e+00 1.3317761836473876e-01 1.2667182067046458e-02  1.3960369506549528e+00 1.5966801458145974e-01 -2.2012087469068031e-02  1.3985656691291271e+00 2.1448818282062071e-01 2.5216330544077289e-02  1.3960638147661233e+00 2.2256088519875503e-01 -2.3371024871493215e-02  1.3972047107552079e+00 2.9061177546432532e-01 2.2075529194834818e-02  1.3979501972168660e+00 2.9763649591754060e-01 -2.2270282048375837e-02  1.3970878627482473e+00 3.5737156006015586e-01 2.3749807428554887e-02  1.3965937645442561e+00 3.7003178033041306e-01 -2.2325959197635494e-02  1.3986337381727580e+00 4.3252976556922856e-01 1.7196872234398607e-02  1.3964864944737867e+00 4.4394164930763036e-01 -1.0029705687804221e-02  1.3971413655480029e+00 4.9187185726001004e-01 7.2487624558473900e-03  1.3979748460524233e+00 5.2540015251463423e-01 -1.2741148511726072e-02  1.3967616938596810e+00 5.6556082251275130e-01 2.2057954364831135e-02  1.3968555992163130e+00 5.8388634236999581e-01 -2.7597582939420013e-02  1.3976520653810751e+00 6.4537876721089282e-01 2.6047397128933725e-02  1.3969959487912091e+00 6.5508346390771499e-01 -2.3789983305523444e-02  1.3961480096958776e+00 7.1342357865212724e-01 2.6973157576583345e-02  1.3983352888958922e+00 7.2582281635809398e-01 -3.1610145106848592e-02  1.3959250285330334e+00 7.8576647680209011e-01 3.2161445195133843e-02  1.3975176493917538e+00 7.9319085607685513e-01 -2.9445816430598050e-02  1.3969991155208652e+00 8.6131415282878732e-01 2.9506384509557004e-02  1.3978575546562557e+00 8.5997544655609492e-01 -3.1188202435690853e-02  1.3962512085481826e+00 9.2726775035895326e-01 3.0268625220477675e-02  1.3994478553786271e+00 9.3630256972778791e-01 -2.7256089066573196e-02  1.3970267205116185e+00 9.9439851309005522e-01 2.5573908295182562e-02  1.3992640603747779e+00 1.0003786341920806e+00 -2.5091269681818192e-02  1.3993165247254202e+00 1.0648676994976791e+00 2.3174233934861926e-02  1.4008933666635077e+00 1.0688052341802661e+00 -2.0840853588466046e-02  1.4004646389043844e+00 1.1239355145219856e+00 1.8930933792258874e-02  1.4043584542342555e+00 1.1380025942098893e+00 -1.7887215959349910e-02  1.4041926725156786e+00 1.1835177920691822e+00 1.6109637646025216e-02  1.4075790863325379e+00 1.1935185770632004e+00 -1.5069989894268207e-02  1.4105376145507358e+00 1.2426919562445977e+00 1.4027714990203494e-02  1.4145450334590397e+00 1.2475949083661548e+00 -1.3496526395441556e-02  1.4175968516460309e+00 1.2857378518209377e+00 1.2769633534083896e-02  1.4248967693150281e+00 1.2966606921545669e+00 -1.2635239379617403e-02  1.4288098002026217e+00 1.3270274607684194e+00 1.2333181982959634e-02  1.4360005501415252e+00 1.3303242397413593e+00 -1.2643831419473289e-02  1.4423702855008687e+00 1.3666829671185488e+00 1.3093938576460287e-02  1.4501933654559993e+00 1.3644035768575953e+00 -1.3877023760725266e-02  1.4547969680725308e+00 1.3958434747142223e+00 1.4510801505376612e-02  1.4651310233728774e+00 1.3996297801402651e+00 -1.5439640182493799e-02  1.4688756264920071e+00 1.4309550455190916e+00 1.6343934899623238e-02  1.4779725056390265e+00 1.4273706386487608e+00 -1.7199873224634645e-02  1.4831126635133645e+00 1.4678484909955103e+00 1.8073277022415225e-02  1.4923154511601111e+00 1.4608560118304712e+00 -1.9047810607009573e-02  1.4952344440213901e+00 1.4979281207886583e+00 1.9834351351443943e-02  1.5069187610282249e+00 1.4954543512964076e+00 -2.0610333059537574e-02  1.5089181241713856e+00 1.5342682082686840e+00 2.1264592006063430e-02  1.5194599080800117e+00 1.5233645839516958e+00 -2.1778526035904008e-02  1.5229623324669099e+00 1.5702420869466673e+00 2.1967130895004273e-02  1.5333222202378600e+00 1.5583513167662595e+00 -2.1936628768167363e-02  1.5352811187634692e+00 1.5992802154063421e+00 2.1698479067728881e-02  1.5472834136090730e+00 1.5936959901606200e+00 -2.1129526636141534e-02  1.5490163722318722e+00 1.6341943453420973e+00 2.0534270739092628e-02  1.5595526984959498e+00 1.6231476049113887e+00 -1.9556839401729371e-02  1.5628697080868581e+00 1.6679624186918756e+00 1.8625734127715267e-02  1.5730355293538492e+00 1.6596264302140840e+00 -1.7068863210010613e-02  1.5754300771728236e+00 1.6951576811461608e+00 1.5764339316002744e-02  1.5863440584387241e+00 1.6954644433991533e+00 -1.3787208659185415e-02  1.5894165460310672e+00 1.7280194813400107e+00 1.2251318922547513e-02  1.5983154785200111e+00 1.7258535976976026e+00 -9.9559167568839656e-03  1.6032620831865287e+00 1.7595240947398203e+00 8.2817177424388041e-03  1.6114352024641256e+00 1.7625393033064229e+00 -5.6858873495974115e-03  1.6160123696872764e+00 1.7852943668187109e+00 3.9278136933585299e-03  1.6242433539598675e+00 1.7981644528097758e+00 -1.2928682089794583e-03  1.6298846884997864e+00 1.8164979668988821e+00 -3.0613132758390766e-04  1.6361101157025599e+00 1.8286359912013941e+00 2.6895586321505744e-03  1.6433572369199265e+00 1.8463987356392915e+00 -4.0903233203460499e-03  1.6489144916565646e+00 1.8642795011339690e+00 6.0274023611646644e-03  1.6559780171022345e+00 1.8716333819048387e+00 -7.1803233823895547e-03  1.6613266606623645e+00 1.8980268623792000e+00 8.4951635757726657e-03  1.6693329197984856e+00 1.9022531229310389e+00 -9.3841446607269233e-03  1.6731086391366958e+00 1.9266124803011331e+00 1.0094677026548234e-02  1.6821526067104968e+00 1.9317715175458519e+00 -1.0904006857178388e-02  1.6855110338901680e+00 1.9592793116971856e+00 1.1262370368571105e-02  1.6943711322511865e+00 1.9575766046130518e+00 -1.2045844922423851e-02  1.6974336401657590e+00 1.9895286925869569e+00 1.218532520