<?xml version="1.0"?>
<VTKFile type="UnstructuredGrid"  version="0.1"  >
<UnstructuredGrid>
<Piece  NumberOfPoints="8241" NumberOfCells="16000">
<Points>
<DataArray  type="Float64"  NumberOfComponents="3"  format="ascii">-5 -1 0  -4.95 -1 0  -4.9 -1 0  -4.85 -1 0  -4.8 -1 0  -4.75 -1 0  -4.7 -1 0  -4.65 -1 0  -4.6 -1 0  -4.55 -1 0  -4.5 -1 0  -4.45 -1 0  -4.4 -1 0  -4.35 -1 0  -4.3 -1 0  -4.25 -1 0  -4.2 -1 0  -4.15 -1 0  -4.1 -1 0  -4.05 -1 0  -4 -1 0  -3.95 -1 0  -3.9 -1 0  -3.85 -1 0  -3.8 -1 0  -3.75 -1 0  -3.7 -1 0  -3.65 -1 0  -3.6 -1 0  -3.55 -1 0  -3.5 -1 0  -3.45 -1 0  -3.4 -1 0  -3.35 -1 0  -3.3 -1 0  -3.25 -1 0  -3.2 -1 0  -3.15 -1 0  -3.1 -1 0  -3.05 -1 0  -3 -1 0  -2.95 -1 0  -2.9 -1 0  -2.85 -1 0  -2.8 -1 0  -2.75 -1 0  -2.7 -1 0  -2.65 -1 0  -2.6 -1 0  -2.55 -1 0  -2.5 -1 0  -2.45 -1 0  -2.4 -1 0  -2.35 -1 0  -2.3 -1 0  -2.25 -1 0  -2.2 -1 0  -2.15 -1 0  -2.1 -1 0  -2.05 -1 0  -2 -1 0  -1.95 -1 0  -1.9 -1 0  -1.85 -1 0  -1.8 -1 0  -1.75 -1 0  -1.7 -1 0  -1.65 -1 0  -1.6 -1 0  -1.55 -1 0  -1.5 -1 0  -1.45 -1 0  -1.4 -1 0  -1.35 -1 0  -1.3 -1 0  -1.25 -1 0  -1.2 -1 0  -1.15 -1 0  -1.1 -1 0  -1.05 -1 0  -1 -1 0  -0.9500000000000002 -1 0  -0.9000000000000004 -1 0  -0.8499999999999996 -1 0  -0.7999999999999998 -1 0  -0.75 -1 0  -0.7000000000000002 -1 0  -0.6500000000000004 -1 0  -0.5999999999999996 -1 0  -0.5499999999999998 -1 0  -0.5 -1 0  -0.4500000000000002 -1 0  -0.4000000000000004 -1 0  -0.3499999999999996 -1 0  -0.2999999999999998 -1 0  -0.25 -1 0  -0.2000000000000002 -1 0  -0.1500000000000004 -1 0  -0.09999999999999964 -1 0  -0.04999999999999982 -1 0  0 -1 0  0.04999999999999982 -1 0  0.09999999999999964 -1 0  0.1500000000000004 -1 0  0.2000000000000002 -1 0  0.25 -1 0  0.2999999999999998 -1 0  0.3499999999999996 -1 0  0.4000000000000004 -1 0  0.4500000000000002 -1 0  0.5 -1 0  0.5499999999999998 -1 0  0.5999999999999996 -1 0  0.6500000000000004 -1 0  0.7000000000000002 -1 0  0.75 -1 0  0.7999999999999998 -1 0  0.8499999999999996 -1 0  0.9000000000000004 -1 0  0.9500000000000002 -1 0  1 -1 0  1.05 -1 0  1.1 -1 0  1.15 -1 0  1.2 -1 0  1.25 -1 0  1.3 -1 0  1.35 -1 0  1.4 -1 0  1.45 -1 0  1.5 -1 0  1.55 -1 0  1.6 -1 0  1.65 -1 0  1.7 -1 0  1.75 -1 0  1.8 -1 0  1.85 -1 0  1.9 -1 0  1.95 -1 0  2 -1 0  2.05 -1 0  2.1 -1 0  2.15 -1 0  2.2 -1 0  2.25 -1 0  2.3 -1 0  2.35 -1 0  2.4 -1 0  2.45 -1 0  2.5 -1 0  2.55 -1 0  2.6 -1 0  2.65 -1 0  2.7 -1 0  2.75 -1 0  2.8 -1 0  2.85 -1 0  2.9 -1 0  2.95 -1 0  3 -1 0  3.050000000000001 -1 0  3.1 -1 0  3.15 -1 0  3.199999999999999 -1 0  3.25 -1 0  3.300000000000001 -1 0  3.35 -1 0  3.4 -1 0  3.449999999999999 -1 0  3.5 -1 0  3.550000000000001 -1 0  3.6 -1 0  3.65 -1 0  3.699999999999999 -1 0  3.75 -1 0  3.800000000000001 -1 0  3.85 -1 0  3.9 -1 0  3.949999999999999 -1 0  4 -1 0  4.050000000000001 -1 0  4.1 -1 0  4.15 -1 0  4.199999999999999 -1 0  4.25 -1 0  4.300000000000001 -1 0  4.35 -1 0  4.4 -1 0  4.449999999999999 -1 0  4.5 -1 0  4.550000000000001 -1 0  4.6 -1 0  4.65 -1 0  4.699999999999999 -1 0  4.75 -1 0  4.800000000000001 -1 0  4.85 -1 0  4.9 -1 0  4.949999999999999 -1 0  5 -1 0  -5 -0.95 0  -4.95 -0.95 0  -4.9 -0.95 0  -4.85 -0.95 0  -4.8 -0.95 0  -4.75 -0.95 0  -4.7 -0.95 0  -4.65 -0.95 0  -4.6 -0.95 0  -4.55 -0.95 0  -4.5 -0.95 0  -4.45 -0.95 0  -4.4 -0.95 0  -4.35 -0.95 0  -4.3 -0.95 0  -4.25 -0.95 0  -4.2 -0.95 0  -4.15 -0.95 0  -4.1 -0.95 0  -4.05 -0.95 0  -4 -0.95 0  -3.95 -0.95 0  -3.9 -0.95 0  -3.85 -0.95 0  -3.8 -0.95 0  -3.75 -0.95 0  -3.7 -0.95 0  -3.65 -0.95 0  -3.6 -0.95 0  -3.55 -0.95 0  -3.5 -0.95 0  -3.45 -0.95 0  -3.4 -0.95 0  -3.35 -0.95 0  -3.3 -0.95 0  -3.25 -0.95 0  -3.2 -0.95 0  -3.15 -0.95 0  -3.1 -0.95 0  -3.05 -0.95 0  -3 -0.95 0  -2.95 -0.95 0  -2.9 -0.95 0  -2.85 -0.95 0  -2.8 -0.95 0  -2.75 -0.95 0  -2.7 -0.95 0  -2.65 -0.95 0  -2.6 -0.95 0  -2.55 -0.95 0  -2.5 -0.95 0  -2.45 -0.95 0  -2.4 -0.95 0  -2.35 -0.95 0  -2.3 -0.95 0  -2.25 -0.95 0  -2.2 -0.95 0  -2.15 -0.95 0  -2.1 -0.95 0  -2.05 -0.95 0  -2 -0.95 0  -1.95 -0.95 0  -1.9 -0.95 0  -1.85 -0.95 0  -1.8 -0.95 0  -1.75 -0.95 0  -1.7 -0.95 0  -1.65 -0.95 0  -1.6 -0.95 0  -1.55 -0.95 0  -1.5 -0.95 0  -1.45 -0.95 0  -1.4 -0.95 0  -1.35 -0.95 0  -1.3 -0.95 0  -1.25 -0.95 0  -1.2 -0.95 0  -1.15 -0.95 0  -1.1 -0.95 0  -1.05 -0.95 0  -1 -0.95 0  -0.9500000000000002 -0.95 0  -0.9000000000000004 -0.95 0  -0.8499999999999996 -0.95 0  -0.7999999999999998 -0.95 0  -0.75 -0.95 0  -0.7000000000000002 -0.95 0  -0.6500000000000004 -0.95 0  -0.5999999999999996 -0.95 0  -0.5499999999999998 -0.95 0  -0.5 -0.95 0  -0.4500000000000002 -0.95 0  -0.4000000000000004 -0.95 0  -0.3499999999999996 -0.95 0  -0.2999999999999998 -0.95 0  -0.25 -0.95 0  -0.2000000000000002 -0.95 0  -0.1500000000000004 -0.95 0  -0.09999999999999964 -0.95 0  -0.04999999999999982 -0.95 0  0 -0.95 0  0.04999999999999982 -0.95 0  0.09999999999999964 -0.95 0  0.1500000000000004 -0.95 0  0.2000000000000002 -0.95 0  0.25 -0.95 0  0.2999999999999998 -0.95 0  0.3499999999999996 -0.95 0  0.4000000000000004 -0.95 0  0.4500000000000002 -0.95 0  0.5 -0.95 0  0.5499999999999998 -0.95 0  0.5999999999999996 -0.95 0  0.6500000000000004 -0.95 0  0.7000000000000002 -0.95 0  0.75 -0.95 0  0.7999999999999998 -0.95 0  0.8499999999999996 -0.95 0  0.9000000000000004 -0.95 0  0.9500000000000002 -0.95 0  1 -0.95 0  1.05 -0.95 0  1.1 -0.95 0  1.15 -0.95 0  1.2 -0.95 0  1.25 -0.95 0  1.3 -0.95 0  1.35 -0.95 0  1.4 -0.95 0  1.45 -0.95 0  1.5 -0.95 0  1.55 -0.95 0  1.6 -0.95 0  1.65 -0.95 0  1.7 -0.95 0  1.75 -0.95 0  1.8 -0.95 0  1.85 -0.95 0  1.9 -0.95 0  1.95 -0.95 0  2 -0.95 0  2.05 -0.95 0  2.1 -0.95 0  2.15 -0.95 0  2.2 -0.95 0  2.25 -0.95 0  2.3 -0.95 0  2.35 -0.95 0  2.4 -0.95 0  2.45 -0.95 0  2.5 -0.95 0  2.55 -0.95 0  2.6 -0.95 0  2.65 -0.95 0  2.7 -0.95 0  2.75 -0.95 0  2.8 -0.95 0  2.85 -0.95 0  2.9 -0.95 0  2.95 -0.95 0  3 -0.95 0  3.050000000000001 -0.95 0  3.1 -0.95 0  3.15 -0.95 0  3.199999999999999 -0.95 0  3.25 -0.95 0  3.300000000000001 -0.95 0  3.35 -0.95 0  3.4 -0.95 0  3.449999999999999 -0.95 0  3.5 -0.95 0  3.550000000000001 -0.95 0  3.6 -0.95 0  3.65 -0.95 0  3.699999999999999 -0.95 0  3.75 -0.95 0  3.800000000000001 -0.95 0  3.85 -0.95 0  3.9 -0.95 0  3.949999999999999 -0.95 0  4 -0.95 0  4.050000000000001 -0.95 0  4.1 -0.95 0  4.15 -0.95 0  4.199999999999999 -0.95 0  4.25 -0.95 0  4.300000000000001 -0.95 0  4.35 -0.95 0  4.4 -0.95 0  4.449999999999999 -0.95 0  4.5 -0.95 0  4.550000000000001 -0.95 0  4.6 -0.95 0  4.65 -0.95 0  4.699999999999999 -0.95 0  4.75 -0.95 0  4.800000000000001 -0.95 0  4.85 -0.95 0  4.9 -0.95 0  4.949999999999999 -0.95 0  5 -0.95 0  -5 -0.9 0  -4.95 -0.9 0  -4.9 -0.9 0  -4.85 -0.9 0  -4.8 -0.9 0  -4.75 -0.9 0  -4.7 -0.9 0  -4.65 -0.9 0  -4.6 -0.9 0  -4.55 -0.9 0  -4.5 -0.9 0  -4.45 -0.9 0  -4.4 -0.9 0  -4.35 -0.9 0  -4.3 -0.9 0  -4.25 -0.9 0  -4.2 -0.9 0  -4.15 -0.9 0  -4.1 -0.9 0  -4.05 -0.9 0  -4 -0.9 0  -3.95 -0.9 0  -3.9 -0.9 0  -3.85 -0.9 0  -3.8 -0.9 0  -3.75 -0.9 0  -3.7 -0.9 0  -3.65 -0.9 0  -3.6 -0.9 0  -3.55 -0.9 0  -3.5 -0.9 0  -3.45 -0.9 0  -3.4 -0.9 0  -3.35 -0.9 0  -3.3 -0.9 0  -3.25 -0.9 0  -3.2 -0.9 0  -3.15 -0.9 0  -3.1 -0.9 0  -3.05 -0.9 0  -3 -0.9 0  -2.95 -0.9 0  -2.9 -0.9 0  -2.85 -0.9 0  -2.8 -0.9 0  -2.75 -0.9 0  -2.7 -0.9 0  -2.65 -0.9 0  -2.6 -0.9 0  -2.55 -0.9 0  -2.5 -0.9 0  -2.45 -0.9 0  -2.4 -0.9 0  -2.35 -0.9 0  -2.3 -0.9 0  -2.25 -0.9 0  -2.2 -0.9 0  -2.15 -0.9 0  -2.1 -0.9 0  -2.05 -0.9 0  -2 -0.9 0  -1.95 -0.9 0  -1.9 -0.9 0  -1.85 -0.9 0  -1.8 -0.9 0  -1.75 -0.9 0  -1.7 -0.9 0  -1.65 -0.9 0  -1.6 -0.9 0  -1.55 -0.9 0  -1.5 -0.9 0  -1.45 -0.9 0  -1.4 -0.9 0  -1.35 -0.9 0  -1.3 -0.9 0  -1.25 -0.9 0  -1.2 -0.9 0  -1.15 -0.9 0  -1.1 -0.9 0  -1.05 -0.9 0  -1 -0.9 0  -0.9500000000000002 -0.9 0  -0.9000000000000004 -0.9 0  -0.8499999999999996 -0.9 0  -0.7999999999999998 -0.9 0  -0.75 -0.9 0  -0.7000000000000002 -0.9 0  -0.6500000000000004 -0.9 0  -0.5999999999999996 -0.9 0  -0.5499999999999998 -0.9 0  -0.5 -0.9 0  -0.4500000000000002 -0.9 0  -0.4000000000000004 -0.9 0  -0.3499999999999996 -0.9 0  -0.2999999999999998 -0.9 0  -0.25 -0.9 0  -0.2000000000000002 -0.9 0  -0.1500000000000004 -0.9 0  -0.09999999999999964 -0.9 0  -0.04999999999999982 -0.9 0  0 -0.9 0  0.04999999999999982 -0.9 0  0.09999999999999964 -0.9 0  0.1500000000000004 -0.9 0  0.2000000000000002 -0.9 0  0.25 -0.9 0  0.2999999999999998 -0.9 0  0.3499999999999996 -0.9 0  0.4000000000000004 -0.9 0  0.4500000000000002 -0.9 0  0.5 -0.9 0  0.5499999999999998 -0.9 0  0.5999999999999996 -0.9 0  0.6500000000000004 -0.9 0  0.7000000000000002 -0.9 0  0.75 -0.9 0  0.7999999999999998 -0.9 0  0.8499999999999996 -0.9 0  0.9000000000000004 -0.9 0  0.9500000000000002 -0.9 0  1 -0.9 0  1.05 -0.9 0  1.1 -0.9 0  1.15 -0.9 0  1.2 -0.9 0  1.25 -0.9 0  1.3 -0.9 0  1.35 -0.9 0  1.4 -0.9 0  1.45 -0.9 0  1.5 -0.9 0  1.55 -0.9 0  1.6 -0.9 0  1.65 -0.9 0  1.7 -0.9 0  1.75 -0.9 0  1.8 -0.9 0  1.85 -0.9 0  1.9 -0.9 0  1.95 -0.9 0  2 -0.9 0  2.05 -0.9 0  2.1 -0.9 0  2.15 -0.9 0  2.2 -0.9 0  2.25 -0.9 0  2.3 -0.9 0  2.35 -0.9 0  2.4 -0.9 0  2.45 -0.9 0  2.5 -0.9 0  2.55 -0.9 0  2.6 -0.9 0  2.65 -0.9 0  2.7 -0.9 0  2.75 -0.9 0  2.8 -0.9 0  2.85 -0.9 0  2.9 -0.9 0  2.95 -0.9 0  3 -0.9 0  3.050000000000001 -0.9 0  3.1 -0.9 0  3.15 -0.9 0  3.199999999999999 -0.9 0  3.25 -0.9 0  3.300000000000001 -0.9 0  3.35 -0.9 0  3.4 -0.9 0  3.449999999999999 -0.9 0  3.5 -0.9 0  3.550000000000001 -0.9 0  3.6 -0.9 0  3.65 -0.9 0  3.699999999999999 -0.9 0  3.75 -0.9 0  3.800000000000001 -0.9 0  3.85 -0.9 0  3.9 -0.9 0  3.949999999999999 -0.9 0  4 -0.9 0  4.050000000000001 -0.9 0  4.1 -0.9 0  4.15 -0.9 0  4.199999999999999 -0.9 0  4.25 -0.9 0  4.300000000000001 -0.9 0  4.35 -0.9 0  4.4 -0.9 0  4.449999999999999 -0.9 0  4.5 -0.9 0  4.550000000000001 -0.9 0  4.6 -0.9 0  4.65 -0.9 0  4.699999999999999 -0.9 0  4.75 -0.9 0  4.800000000000001 -0.9 0  4.85 -0.9 0  4.9 -0.9 0  4.949999999999999 -0.9 0  5 -0.9 0  -5 -0.85 0  -4.95 -0.85 0  -4.9 -0.85 0  -4.85 -0.85 0  -4.8 -0.85 0  -4.75 -0.85 0  -4.7 -0.85 0  -4.65 -0.85 0  -4.6 -0.85 0  -4.55 -0.85 0  -4.5 -0.85 0  -
[...]
<PointData  Vectors="f_15"> 
<DataArray  type="Float64"  Name="f_15"  NumberOfComponents="3" format="ascii">3.0000201709134080e+00 0.0000000000000000e+00 0.0000000000000000e+00  2.9999963804278393e+00 -3.8160305069990337e-06 0.0000000000000000e+00  3.0000154085343378e+00 2.3473168763835979e-05 0.0000000000000000e+00  3.0000014208869370e+00 8.2918208614494468e-06 0.0000000000000000e+00  3.0000149710716557e+00 2.4556983243706916e-05 0.0000000000000000e+00  2.9999952871820050e+00 4.0850614495121046e-06 0.0000000000000000e+00  3.0000202187889928e+00 1.8497315624500991e-05 0.0000000000000000e+00  2.9999936777859149e+00 2.4833048758847668e-05 0.0000000000000000e+00  3.0000168929918587e+00 -5.4487420803463079e-06 0.0000000000000000e+00  2.9999987698412349e+00 2.4798229973000772e-05 0.0000000000000000e+00  3.0000136455901258e+00 1.4367563084928868e-05 0.0000000000000000e+00  3.0000000887626252e+00 -2.4705076073151648e-07 0.0000000000000000e+00  3.0000171130402609e+00 9.8243762426015453e-06 0.0000000000000000e+00  2.9999959253881485e+00 2.5535041634026757e-05 0.0000000000000000e+00  3.0000188424530125e+00 -1.8025309817551830e-05 0.0000000000000000e+00  2.9999979549250151e+00 2.6002967186080495e-05 0.0000000000000000e+00  3.0000069695595055e+00 1.3879598951650937e-05 0.0000000000000000e+00  2.9999959728730592e+00 1.1228909258697391e-05 0.0000000000000000e+00  2.9999951373150968e+00 3.3758756906090015e-05 0.0000000000000000e+00  2.9999656356117659e+00 7.5916490102869770e-05 0.0000000000000000e+00  2.9999630781969264e+00 7.2847162279128722e-05 0.0000000000000000e+00  2.9999072456582065e+00 1.8114524234916145e-04 0.0000000000000000e+00  2.9998581228878067e+00 2.6733207231734163e-04 0.0000000000000000e+00  2.9997621414289912e+00 4.3077688113734588e-04 0.0000000000000000e+00  2.9996234089083407e+00 6.8746489620801377e-04 0.0000000000000000e+00  2.9993946490933703e+00 1.1006272632440174e-03 0.0000000000000000e+00  2.9990889965355070e+00 1.6449092602354870e-03 0.0000000000000000e+00  2.9985938775632608e+00 2.5430246445388811e-03 0.0000000000000000e+00  2.9979227878886423e+00 3.7570482316672954e-03 0.0000000000000000e+00  2.9969511478370237e+00 5.5128481615605027e-03 0.0000000000000000e+00  2.9956223913659987e+00 7.9077204495740377e-03 0.0000000000000000e+00  2.9938074637056609e+00 1.1203971401282322e-02 0.0000000000000000e+00  2.9914351187236714e+00 1.5488940988846409e-02 0.0000000000000000e+00  2.9883103294440798e+00 2.1144710673087500e-02 0.0000000000000000e+00  2.9843845122329449e+00 2.8259933388786605e-02 0.0000000000000000e+00  2.9794604519967729e+00 3.7194662154597415e-02 0.0000000000000000e+00  2.9734644692501995e+00 4.8051315613325207e-02 0.0000000000000000e+00  2.9662571976903274e+00 6.1167252247838554e-02 0.0000000000000000e+00  2.9577993762847665e+00 7.6534049557661146e-02 0.0000000000000000e+00  2.9479602007292414e+00 9.4453486393066902e-02 0.0000000000000000e+00  2.9367923261674354e+00 1.1482777096726141e-01 0.0000000000000000e+00  2.9242050916941560e+00 1.3784540597343112e-01 0.0000000000000000e+00  2.9102798563993435e+00 1.6332798671081530e-01 0.0000000000000000e+00  2.8950046357641206e+00 1.9140300916919309e-01 0.0000000000000000e+00  2.8784941827356247e+00 2.2178662211859884e-01 0.0000000000000000e+00  2.8607401101965277e+00 2.5456519708546582e-01 0.0000000000000000e+00  2.8419259524214517e+00 2.8942389476053321e-01 0.0000000000000000e+00  2.8220314657038585e+00 3.2639250520391161e-01 0.0000000000000000e+00  2.8012468394440813e+00 3.6515212098791511e-01 0.0000000000000000e+00  2.7795736832017033e+00 4.0573120938063217e-01 0.0000000000000000e+00  2.7571951851393353e+00 4.4779803794028000e-01 0.0000000000000000e+00  2.7340840623511884e+00 4.9138888414909571e-01 0.0000000000000000e+00  2.7104570799046219e+00 5.3619875451048005e-01 0.0000000000000000e+00  2.6862455277603372e+00 5.8226032258455873e-01 0.0000000000000000e+00  2.6616607408046287e+00 6.2929071331516218e-01 0.0000000000000000e+00  2.6366373023737393e+00 6.7734720401927051e-01 0.0000000000000000e+00  2.6113664416001821e+00 7.2615518247783095e-01 0.0000000000000000e+00  2.5857598535108210e+00 7.7578883524853004e-01 0.0000000000000000e+00  2.5600266192913703e+00 8.2599405380366309e-01 0.0000000000000000e+00  2.5340489054387150e+00 8.7686303699891377e-01 0.0000000000000000e+00  2.5080229443725548e+00 9.2813906681233072e-01 0.0000000000000000e+00  2.4818471472165378e+00 9.7994261935251892e-01 0.0000000000000000e+00  2.4556892468801359e+00 1.0320326844543561e+00 0.0000000000000000e+00  2.4294432459544026e+00 1.0845084276125785e+00 0.0000000000000000e+00  2.4032854453829606e+00 1.1371725438877283e+00 0.0000000000000000e+00  2.3770970756792851e+00 1.1901226755393377e+00 0.0000000000000000e+00  2.3510347369811178e+00 1.2431437021073974e+00 0.0000000000000000e+00  2.3250125148327698e+00 1.2963559560857678e+00 0.0000000000000000e+00  2.2991501392662856e+00 1.3495829787981957e+00 0.0000000000000000e+00  2.2733728746859065e+00 1.4028589236371660e+00 0.0000000000000000e+00  2.2478063814854328e+00 1.4560712447926407e+00 0.0000000000000000e+00  2.2223713882626117e+00 1.5092931455754315e+00 0.0000000000000000e+00  2.1971761609905838e+00 1.5622775059550287e+00 0.0000000000000000e+00  2.1721847882359393e+00 1.6151822815686410e+00 0.0000000000000000e+00  2.1474692895512497e+00 1.6677978463039720e+00 0.0000000000000000e+00  2.1230152503005297e+00 1.7201279709321349e+00 0.0000000000000000e+00  2.0989140004746432e+00 1.7720249104632495e+00 0.0000000000000000e+00  2.0751482633586615e+00 1.8234985211795542e+00 0.0000000000000000e+00  2.0518164920441748e+00 1.8742858565973879e+00 0.0000000000000000e+00  2.0289611498369329e+00 1.9243763104203631e+00 0.0000000000000000e+00  2.0066631863294844e+00 1.9734591278392442e+00 0.0000000000000000e+00  1.9850289921730611e+00 2.0213704816389626e+00 0.0000000000000000e+00  1.9642069437059635e+00 2.0677453866708664e+00 0.0000000000000000e+00  1.9443497730596035e+00 2.1121965384825541e+00 0.0000000000000000e+00  1.9257217292330342e+00 2.1540679469550987e+00 0.0000000000000000e+00  1.9086154540938334e+00 2.1927483914492187e+00 0.0000000000000000e+00  1.8933981640253730e+00 2.2272777895117724e+00 0.0000000000000000e+00  1.8804733717264239e+00 2.2567156136317421e+00 0.0000000000000000e+00  1.8702265776499760e+00 2.2801139932574315e+00 0.0000000000000000e+00  1.8627783174439203e+00 2.2971727762268057e+00 0.0000000000000000e+00  1.8579660912109488e+00 2.3081367496073524e+00 0.0000000000000000e+00  1.8552271568154459e+00 2.3144805236841584e+00 0.0000000000000000e+00  1.8537488329226757e+00 2.3177852989444925e+00 0.0000000000000000e+00  1.8529898924257819e+00 2.3195723454400081e+00 0.0000000000000000e+00  1.8524544362196822e+00 2.3207046518137147e+00 0.0000000000000000e+00  1.8520967002366171e+00 2.3215657218182759e+00 0.0000000000000000e+00  1.8517078640009021e+00 2.3223608976335766e+00 0.0000000000000000e+00  1.8514210567007647e+00 2.3230382835818646e+00 0.0000000000000000e+00  1.8510929025439349e+00 2.3237478519008272e+00 0.0000000000000000e+00  1.8508344943473523e+00 2.3242916984601929e+00 0.0000000000000000e+00  1.8505632325456336e+00 2.3249135650763697e+00 0.0000000000000000e+00  1.8503206597821573e+00 2.3253985946681808e+00 0.0000000000000000e+00  1.8501166713131141e+00 2.3258917244590789e+00 0.0000000000000000e+00  1.8498736590326068e+00 2.3263531135726909e+00 0.0000000000000000e+00  1.8497175106898744e+00 2.3267482969403210e+00 0.0000000000000000e+00  1.8495040031451329e+00 2.3271254055601478e+00 0.0000000000000000e+00  1.8493839205037472e+00 2.3274167336175315e+00 0.0000000000000000e+00  1.8492154406879004e+00 2.3277406213811807e+00 0.0000000000000000e+00  1.8491023512608191e+00 2.3279989168668074e+00 0.0000000000000000e+00  1.8489424761071613e+00 2.3282912977060084e+00 0.0000000000000000e+00  1.8488773139744554e+00 2.3284198555298534e+00 0.0000000000000000e+00  1.8487671534601451e+00 2.3286052518996616e+00 0.0000000000000000e+00  1.8486543216798896e+00 2.3288240061353678e+00 0.0000000000000000e+00  1.8485910582753691e+00 2.3289388179861201e+00 0.0000000000000000e+00  1.8485196547723204e+00 2.3290741354036979e+00 0.0000000000000000e+00  1.8484411178926272e+00 2.3291967843206964e+00 0.0000000000000000e+00  1.8483703510597700e+00 2.3292883594454410e+00 0.0000000000000000e+00  1.8483407978176862e+00 2.3292917849419053e+00 0.0000000000000000e+00  1.8482590541724289e+00 2.3293948976233563e+00 0.0000000000000000e+00  1.8482247083979537e+00 2.3294323793912435e+00 0.0000000000000000e+00  1.8481715787234327e+00 2.3295071814829784e+00 0.0000000000000000e+00  1.8481583172487854e+00 2.3295131781410290e+00 0.0000000000000000e+00  1.8480641468500196e+00 2.3296453012642977e+00 0.0000000000000000e+00  1.8480875832305741e+00 2.3295005927484627e+00 0.0000000000000000e+00  1.8480217235509921e+00 2.3295149109449813e+00 0.0000000000000000e+00  1.8480010615236369e+00 2.3293733974284714e+00 0.0000000000000000e+00  1.8479572377792304e+00 2.3292900728989205e+00 0.0000000000000000e+00  1.8479615104697273e+00 2.3290627861715327e+00 0.0000000000000000e+00  1.8478999146309474e+00 2.3289611709794609e+00 0.0000000000000000e+00  1.8478902316412213e+00 2.3287103003375837e+00 0.0000000000000000e+00  1.8478643921848121e+00 2.3284663004116153e+00 0.0000000000000000e+00  1.8478403245935060e+00 2.3281454895213547e+00 0.0000000000000000e+00  1.8478151728588612e+00 2.3278449582097309e+00 0.0000000000000000e+00  1.8477841760891307e+00 2.3274933096234847e+00 0.0000000000000000e+00  1.8477833080833639e+00 2.3271281606835323e+00 0.0000000000000000e+00  1.8477344332304566e+00 2.3268507111097971e+00 0.0000000000000000e+00  1.8477239047723804e+00 2.3265530823638634e+00 0.0000000000000000e+00  1.8476908883552354e+00 2.3263149174780131e+00 0.0000000000000000e+00  1.8476838585709587e+00 2.3260629271618614e+00 0.0000000000000000e+00  1.8476220307131372e+00 2.3259722424800371e+00 0.0000000000000000e+00  1.8476306252815320e+00 2.3257281371231571e+00 0.0000000000000000e+00  1.8475929370393180e+00 2.3256365976436517e+00 0.0000000000000000e+00  1.8475470016884903e+00 2.3255556397820145e+00 0.0000000000000000e+00  1.8475486857078172e+00 2.3254050575473633e+00 0.0000000000000000e+00  1.8475069456348958e+00 2.3253334359560891e+00 0.0000000000000000e+00  1.8474710269385051e+00 2.3252910071105002e+00 0.0000000000000000e+00  1.8474503535933362e+00 2.3251474280978308e+00 0.0000000000000000e+00  1.8474344278484276e+00 2.3251256877579158e+00 0.0000000000000000e+00  1.8473525744134642e+00 2.3250214411232615e+00 0.0000000000000000e+00  1.8474017874436688e+00 2.3250028125512214e+00 0.0000000000000000e+00  1.8472386836794170e+00 2.3247356632014893e+00 0.0000000000000000e+00  1.8471813198213904e+00 2.3246023447963426e+00 0.0000000000000000e+00  1.8470246244058435e+00 2.3241659604499683e+00 0.0000000000000000e+00  1.8461967843603748e+00 2.3224428160334258e+00 0.0000000000000000e+00  1.8458440440996877e+00 2.3219332797644983e+00 0.0000000000000000e+00  1.8411390129726164e+00 2.3109744382741009e+00 0.0000000000000000e+00  1.8344072088261187e+00 2.2953592876158537e+00 0.0000000000000000e+00  1.8060021662410350e+00 2.2330727669079451e+00 0.0000000000000000e+00  1.7525196398580183e+00 2.1083379270242344e+00 0.0000000000000000e+00  1.6401292008803061e+00 1.8215799084153079e+00 0.0000000000000000e+00  1.3502972317908335e+00 1.0534162731231631e+00 0.0000000000000000e+00  1.0978435842010943e+00 3.0968986127212816e-01 0.0000000000000000e+00  1.0160846136932544e+00 5.2370554593518692e-02 0.0000000000000000e+00  1.0020980570001616e+00 7.1123232406021045e-03 0.0000000000000000e+00  1.0002714075307071e+00 9.4074416400414889e-04 0.0000000000000000e+00  1.0000357055843785e+00 1.5449082080764887e-04 0.0000000000000000e+00  1.0000139203158525e+00 5.4583707662392929e-06 0.0000000000000000e+00  9.9999067125119923e-01 3.5292194844801453e-05 0.0000000000000000e+00  1.0000168192905463e+00 -4.1592025805318132e-05 0.0000000000000000e+00  9.9997892231250018e-01 5.3589396174540905e-05 0.0000000000000000e+00  1.0000232146512309e+00 -5.3645075080442235e-05 0.0000000000000000e+00  9.9997771358142262e-01 4.5358773842911586e-05 0.0000000000000000e+00  1.0000201250776406e+00 -3.4469592252932655e-05 0.0000000000000000e+00  9.9998199823901912e-01 2.6315797181728298e-05 0.0000000000000000e+00  1.0000156347291216e+00 -1.9863634671983066e-05 0.0000000000000000e+00  9.9998809663774257e-01 1.0509024257327875e-05 0.0000000000000000e+00  1.0000062059167947e+00 4.6737028241957365e-06 0.0000000000000000e+00  1.0000005112551600e+00 -2.3331942285187673e-05 0.0000000000000000e+00  9.9999289534821112e-01 4.1185732052270303e-05 0.0000000000000000e+00  1.0000124911725772e+00 -5.4613957847897692e-05 0.0000000000000000e+00  9.9998254531263076e-01 6.5256684990700026e-05 0.0000000000000000e+00  1.0000218425787359e+00 -7.4144095450032576e-05 0.0000000000000000e+00  9.9997297072879687e-01 8.4848515560140977e-05 0.0000000000000000e+00  1.0000308807366824e+00 -9.3271531560470156e-05 0.0000000000000000e+00  9.9996471144310084e-01 1.0186375904478285e-04 0.0000000000000000e+00  1.0000365783879159e+00 -1.0326919966821626e-04 0.0000000000000000e+00  9.9996008572137918e-01 1.0657636004200672e-04 0.0000000000000000e+00  1.0000390399761250e+00 -1.0161355299188750e-04 0.0000000000000000e+00  9.9995683027882953e-01 1.0447002982191234e-04 0.0000000000000000e+00  1.0000401559151968e+00 -9.5049967269440126e-05 0.0000000000000000e+00  9.9995445861906473e-01 9.8181525705662664e-05 0.0000000000000000e+00  1.0000389127800113e+00 -8.1274188531771258e-05 0.0000000000000000e+00  9.9995367080440545e-01 8.4828983400371519e-05 0.0000000000000000e+00  1.0000354959304567e+00 -6.0392932624995379e-05 0.0000000000000000e+00  9.9995317372475123e-01 6.7892934121687194e-05 0.0000000000000000e+00  1.0000311861161539e+00 -3.6601394553358346e-05 0.0000000000000000e+00  9.9995227789818719e-01 4.9224628726874398e-05 0.0000000000000000e+00  1.0000259625801167e+00 -1.0126924418057589e-05 0.0000000000000000e+00  9.9995168901807230e-01 2.8618534842381148e-05 0.0000000000000000e+00  1.0000194567985232e+00 1.4500418658980332e-05 0.0000000000000000e+00  9.9995190419388569e-01 0.0000000000000000e+00 0.0000000000000000e+00  2.9999868069413487e+00 0.0000000000000000e+00 2.7172621654514605e-05  2.9999931839820921e+00 -1.1454222387331004e-05 -1.2182707095376686e-05  2.9999951033886090e+00 -1.2853136727990338e-05 -7.2308710946901214e-07  2.9999912560809658e+00 -1.6186431388648023e-05 -3.9594596092798642e-06  2.9999904467235514e+00 -1.6625821689330991e-05 4.7512146215738944e-06  2.9999972177107495e+00 -1.7656154581303763e-05 -5.9564369282252620e-06  2.9999904786174256e+00 -3.9138478975007118e-06 4.1201111629973519e-06  2.9999931391896122e+00 -3.0050324857155071e-05 -3.0347430286000853e-06  2.9999960288123733e+00 -6.6557333087109247e-06 1.7014688089078316e-06  2.9999903568696049e+00 -5.3392654754894894e-06 -2.3637703858486886e-06  2.9999946653534169e+00 -2.6475229219578515e-05 1.9279107948911530e-06  2.9999931264605837e+00 -4.2326439078091147e-06 -1.0416377957542258e-06  2.9999892881317125e+00 1.3697481944889005e-06 -1.5844465613816733e-06  2.9999930476466536e+00 -2.1912102335851601e-05 3.2352785748175869e-06  2.9999903889560393e+00 1.8216787052406393e-06 -3.8743504728161540e-06  2.9999836355856737e+00 1.3871125954297076e-05 3.1351682196206389e-06  2.9999905075681910e+00 -1.3612017699168445e-05 -3.0119808269027353e-06  2.9999795908985498e+00 2.5672994364886605e-05 4.3725636399067591e-06  2.9999719332858508e+00 3.5373224758980804e-05 -6.4824120080347482e-06  2.9999667201387896e+00 4.0030330395634958e-05 8.2853524815190357e-06  2.9999422714643917e+00 9.2344656834103298e-05 -7.8133074954634346e-06  2.9999049645076972e+00 1.6646634785901477e-04 6.9484359937052590e-06  2.9998597663493496e+00 2.3527187211149181e-04 -5.5776539231993693e-06  2.9997622844137433e+00 4.2717821387580607e-04 6.7841076212973894e-06  2.9996234952030538e+00 6.7424635280098340e-04 -7.3865654870442672e-06  2.9994149546454998e+00 1.0525059256286098e-03 8.8382724840038551e-06  2.9990861798868957e+00 1.6449654340211894e-03 -6.7493340628211637e-06  2.9986102484004200e+00 2.5162357034774654e-03 5.9241155466090032e-06  2.9979331794566280e+00 3.7318541563970443e-03 -3.2028767664179342e-06  2.9969576063459082e+00 5.4987689870579486e-03 4.3899497241224933e-06  2.9956255784081733e+00 7.9128355884146989e-03 -3.4046997644798444e-06  2.9938233907999452e+00 1.1174135290867282e-02 4.3003073875031858e-06  2.9914234968599622e+00 1.5508319401599179e-02 -1.9125464349408812e-06  2.9883212816949918e+00 2.1137432803188482e-02 6.1873009611954749e-07  2.9843815310192592e+00 2.8273384996307750e-02 5.6053036292041395e-07  2.9794574481256473e+00 3.7187730105000233e-02 -1.5525425864420071e-06  2.9734598050121570e+00 4.8083967184349818e-02 4.4531629643527623e-07  2.9662642705462741e+00 6.1149696207299015e-02 -2.9102512660172934e-06  2.9577814694779101e+00 7.6564261550226179e-02 1.9070222199684335e-06  2.9479694880480127e+00 9.4444277000505492e-02 -5.6207256183098766e-06  2.9367829305746604e+00 1.1485213181525838e-01 3.9699850846912380e-06  2.9242032774449984e+00 1.3782725920417954e-01 -6.8284122385266566e-06  2.9102735313507111e+00 1.6336126290665068e-01 5.3414711441055225e-06  2.8950115352817409e+00 1.9137738911973309e-01 -7.9641279534816676e-06  2.8784758995086115e+00 2.2181348810403223e-01 7.7584589895944102e-06  2.8607542673006074e+00 2.5454511748913122e-01 -9.3696695943852974e-06  2.8419121243009409e+00 2.8944610458373510e-01 9.2011495976350732e-06  2.8220379981683714e+00 3.2636620812217271e-01 -9.2917280063198799e-06  2.8012377414204543e+00 3.6517934387144213e-01 9.4842080678932415e-06  2.7795866373588791e+00 4.0570220862921286e-01 -9.1596659464256625e-06  2.7571755395584474e+00 4.4782060388774841e-01 9.4338796334448504e-06  2.7341050988002409e+00 4.9136526133660086e-01 -7.9471475302414501e-06  2.7104385802849835e+00 5.3622036711828103e-01 7.0749452868404557e-06  2.6862595641543852e+00 5.8223528367409527e-01 -4.8641458074891026e-06  2.6616464942295153e+00 6.2931626811455510e-01 3.9555012534403113e-06  2.6366538336466472e+00 6.7732508642734346e-01 -2.4409658708158453e-06  2.6113432420417251e+00 7.2617875572266599e-01 1.4126666071013805e-06  2.5857819725284230e+00 7.7577037572456009e-01 1.7295826673333279e-07  2.5600046473438409e+00 8.2602115465543646e-01 -2.0566288788257706e-06  2.5340632888119985e+00 8.7684136651257449e-01 3.1063293826886601e-06  2.5080074153835707e+00 9.2816533495438247e-01 -4.6086864543604479e-06  2.4818627677442362e+00 9.7992796460152676e-01 4.5785030642688029e-06  2.4556684227197478e+00 1.0320471784302749e+00 -6.7573776243441427e-06  2.4294645482933843e+00 1.0844948791756508e+00 7.9026127039394590e-06  2.4032690221872470e+00 1.1371916244715523e+00 -1.2033145757206489e-05  2.3771104429337782e+00 1.1900984960720324e+00 1.3416122230452490e-05  2.3510281806523872e+00 1.2431543881536333e+00 -1.6153364772655084e-05  2.3250259247544531e+00 1.2963550065983267e+00 1.4866128736479903e-05  2.2991393325429286e+00 1.3495680221701536e+00 -1.5722566676188527e-05  2.2733921401394737e+00 1.4028515944198814e+00 1.3282051832550402e-05  2.2477991457862565e+00 1.4560951003271829e+00 -1.2215542236160924e-05  2.2223821188938371e+00 1.5092485690509507e+00 7.0286561182641222e-06  2.1971798585101978e+00 1.5622914033412330e+00 -4.9457700504080714e-06  2.1721953783830807e+00 1.6151814920969254e+00 2.7588633211534296e-06  2.1474685347846041e+00 1.6677837265141613e+00 -3.4032787428096376e-06  2.1230355694181315e+00 1.7201001966710716e+00 1.5217941023052720e-07  2.0989156636764474e+00 1.7720445604420387e+00 1.3394059500606550e-06  2.0751614369805367e+00 1.8234620672979618e+00 -1.8789161309271686e-06  2.0518309269083717e+00 1.8742894455650916e+00 2.0753805338848202e-07  2.0289690069898887e+00 1.9243521757932889e+00 -3.8426218182913594e-06  2.0066694179018767e+00 1.9734577273232869e+00 6.6365615073046527e-06  1.9850455014001214e+00 2.0213658697923371e+00 -9.0939227212880903e-06  1.9642060