<?xml version="1.0"?>
<VTKFile type="UnstructuredGrid"  version="0.1"  >
<UnstructuredGrid>
<Piece  NumberOfPoints="8241" NumberOfCells="16000">
<Points>
<DataArray  type="Float64"  NumberOfComponents="3"  format="ascii">-5 -1 0  -4.95 -1 0  -4.9 -1 0  -4.85 -1 0  -4.8 -1 0  -4.75 -1 0  -4.7 -1 0  -4.65 -1 0  -4.6 -1 0  -4.55 -1 0  -4.5 -1 0  -4.45 -1 0  -4.4 -1 0  -4.35 -1 0  -4.3 -1 0  -4.25 -1 0  -4.2 -1 0  -4.15 -1 0  -4.1 -1 0  -4.05 -1 0  -4 -1 0  -3.95 -1 0  -3.9 -1 0  -3.85 -1 0  -3.8 -1 0  -3.75 -1 0  -3.7 -1 0  -3.65 -1 0  -3.6 -1 0  -3.55 -1 0  -3.5 -1 0  -3.45 -1 0  -3.4 -1 0  -3.35 -1 0  -3.3 -1 0  -3.25 -1 0  -3.2 -1 0  -3.15 -1 0  -3.1 -1 0  -3.05 -1 0  -3 -1 0  -2.95 -1 0  -2.9 -1 0  -2.85 -1 0  -2.8 -1 0  -2.75 -1 0  -2.7 -1 0  -2.65 -1 0  -2.6 -1 0  -2.55 -1 0  -2.5 -1 0  -2.45 -1 0  -2.4 -1 0  -2.35 -1 0  -2.3 -1 0  -2.25 -1 0  -2.2 -1 0  -2.15 -1 0  -2.1 -1 0  -2.05 -1 0  -2 -1 0  -1.95 -1 0  -1.9 -1 0  -1.85 -1 0  -1.8 -1 0  -1.75 -1 0  -1.7 -1 0  -1.65 -1 0  -1.6 -1 0  -1.55 -1 0  -1.5 -1 0  -1.45 -1 0  -1.4 -1 0  -1.35 -1 0  -1.3 -1 0  -1.25 -1 0  -1.2 -1 0  -1.15 -1 0  -1.1 -1 0  -1.05 -1 0  -1 -1 0  -0.9500000000000002 -1 0  -0.9000000000000004 -1 0  -0.8499999999999996 -1 0  -0.7999999999999998 -1 0  -0.75 -1 0  -0.7000000000000002 -1 0  -0.6500000000000004 -1 0  -0.5999999999999996 -1 0  -0.5499999999999998 -1 0  -0.5 -1 0  -0.4500000000000002 -1 0  -0.4000000000000004 -1 0  -0.3499999999999996 -1 0  -0.2999999999999998 -1 0  -0.25 -1 0  -0.2000000000000002 -1 0  -0.1500000000000004 -1 0  -0.09999999999999964 -1 0  -0.04999999999999982 -1 0  0 -1 0  0.04999999999999982 -1 0  0.09999999999999964 -1 0  0.1500000000000004 -1 0  0.2000000000000002 -1 0  0.25 -1 0  0.2999999999999998 -1 0  0.3499999999999996 -1 0  0.4000000000000004 -1 0  0.4500000000000002 -1 0  0.5 -1 0  0.5499999999999998 -1 0  0.5999999999999996 -1 0  0.6500000000000004 -1 0  0.7000000000000002 -1 0  0.75 -1 0  0.7999999999999998 -1 0  0.8499999999999996 -1 0  0.9000000000000004 -1 0  0.9500000000000002 -1 0  1 -1 0  1.05 -1 0  1.1 -1 0  1.15 -1 0  1.2 -1 0  1.25 -1 0  1.3 -1 0  1.35 -1 0  1.4 -1 0  1.45 -1 0  1.5 -1 0  1.55 -1 0  1.6 -1 0  1.65 -1 0  1.7 -1 0  1.75 -1 0  1.8 -1 0  1.85 -1 0  1.9 -1 0  1.95 -1 0  2 -1 0  2.05 -1 0  2.1 -1 0  2.15 -1 0  2.2 -1 0  2.25 -1 0  2.3 -1 0  2.35 -1 0  2.4 -1 0  2.45 -1 0  2.5 -1 0  2.55 -1 0  2.6 -1 0  2.65 -1 0  2.7 -1 0  2.75 -1 0  2.8 -1 0  2.85 -1 0  2.9 -1 0  2.95 -1 0  3 -1 0  3.050000000000001 -1 0  3.1 -1 0  3.15 -1 0  3.199999999999999 -1 0  3.25 -1 0  3.300000000000001 -1 0  3.35 -1 0  3.4 -1 0  3.449999999999999 -1 0  3.5 -1 0  3.550000000000001 -1 0  3.6 -1 0  3.65 -1 0  3.699999999999999 -1 0  3.75 -1 0  3.800000000000001 -1 0  3.85 -1 0  3.9 -1 0  3.949999999999999 -1 0  4 -1 0  4.050000000000001 -1 0  4.1 -1 0  4.15 -1 0  4.199999999999999 -1 0  4.25 -1 0  4.300000000000001 -1 0  4.35 -1 0  4.4 -1 0  4.449999999999999 -1 0  4.5 -1 0  4.550000000000001 -1 0  4.6 -1 0  4.65 -1 0  4.699999999999999 -1 0  4.75 -1 0  4.800000000000001 -1 0  4.85 -1 0  4.9 -1 0  4.949999999999999 -1 0  5 -1 0  -5 -0.95 0  -4.95 -0.95 0  -4.9 -0.95 0  -4.85 -0.95 0  -4.8 -0.95 0  -4.75 -0.95 0  -4.7 -0.95 0  -4.65 -0.95 0  -4.6 -0.95 0  -4.55 -0.95 0  -4.5 -0.95 0  -4.45 -0.95 0  -4.4 -0.95 0  -4.35 -0.95 0  -4.3 -0.95 0  -4.25 -0.95 0  -4.2 -0.95 0  -4.15 -0.95 0  -4.1 -0.95 0  -4.05 -0.95 0  -4 -0.95 0  -3.95 -0.95 0  -3.9 -0.95 0  -3.85 -0.95 0  -3.8 -0.95 0  -3.75 -0.95 0  -3.7 -0.95 0  -3.65 -0.95 0  -3.6 -0.95 0  -3.55 -0.95 0  -3.5 -0.95 0  -3.45 -0.95 0  -3.4 -0.95 0  -3.35 -0.95 0  -3.3 -0.95 0  -3.25 -0.95 0  -3.2 -0.95 0  -3.15 -0.95 0  -3.1 -0.95 0  -3.05 -0.95 0  -3 -0.95 0  -2.95 -0.95 0  -2.9 -0.95 0  -2.85 -0.95 0  -2.8 -0.95 0  -2.75 -0.95 0  -2.7 -0.95 0  -2.65 -0.95 0  -2.6 -0.95 0  -2.55 -0.95 0  -2.5 -0.95 0  -2.45 -0.95 0  -2.4 -0.95 0  -2.35 -0.95 0  -2.3 -0.95 0  -2.25 -0.95 0  -2.2 -0.95 0  -2.15 -0.95 0  -2.1 -0.95 0  -2.05 -0.95 0  -2 -0.95 0  -1.95 -0.95 0  -1.9 -0.95 0  -1.85 -0.95 0  -1.8 -0.95 0  -1.75 -0.95 0  -1.7 -0.95 0  -1.65 -0.95 0  -1.6 -0.95 0  -1.55 -0.95 0  -1.5 -0.95 0  -1.45 -0.95 0  -1.4 -0.95 0  -1.35 -0.95 0  -1.3 -0.95 0  -1.25 -0.95 0  -1.2 -0.95 0  -1.15 -0.95 0  -1.1 -0.95 0  -1.05 -0.95 0  -1 -0.95 0  -0.9500000000000002 -0.95 0  -0.9000000000000004 -0.95 0  -0.8499999999999996 -0.95 0  -0.7999999999999998 -0.95 0  -0.75 -0.95 0  -0.7000000000000002 -0.95 0  -0.6500000000000004 -0.95 0  -0.5999999999999996 -0.95 0  -0.5499999999999998 -0.95 0  -0.5 -0.95 0  -0.4500000000000002 -0.95 0  -0.4000000000000004 -0.95 0  -0.3499999999999996 -0.95 0  -0.2999999999999998 -0.95 0  -0.25 -0.95 0  -0.2000000000000002 -0.95 0  -0.1500000000000004 -0.95 0  -0.09999999999999964 -0.95 0  -0.04999999999999982 -0.95 0  0 -0.95 0  0.04999999999999982 -0.95 0  0.09999999999999964 -0.95 0  0.1500000000000004 -0.95 0  0.2000000000000002 -0.95 0  0.25 -0.95 0  0.2999999999999998 -0.95 0  0.3499999999999996 -0.95 0  0.4000000000000004 -0.95 0  0.4500000000000002 -0.95 0  0.5 -0.95 0  0.5499999999999998 -0.95 0  0.5999999999999996 -0.95 0  0.6500000000000004 -0.95 0  0.7000000000000002 -0.95 0  0.75 -0.95 0  0.7999999999999998 -0.95 0  0.8499999999999996 -0.95 0  0.9000000000000004 -0.95 0  0.9500000000000002 -0.95 0  1 -0.95 0  1.05 -0.95 0  1.1 -0.95 0  1.15 -0.95 0  1.2 -0.95 0  1.25 -0.95 0  1.3 -0.95 0  1.35 -0.95 0  1.4 -0.95 0  1.45 -0.95 0  1.5 -0.95 0  1.55 -0.95 0  1.6 -0.95 0  1.65 -0.95 0  1.7 -0.95 0  1.75 -0.95 0  1.8 -0.95 0  1.85 -0.95 0  1.9 -0.95 0  1.95 -0.95 0  2 -0.95 0  2.05 -0.95 0  2.1 -0.95 0  2.15 -0.95 0  2.2 -0.95 0  2.25 -0.95 0  2.3 -0.95 0  2.35 -0.95 0  2.4 -0.95 0  2.45 -0.95 0  2.5 -0.95 0  2.55 -0.95 0  2.6 -0.95 0  2.65 -0.95 0  2.7 -0.95 0  2.75 -0.95 0  2.8 -0.95 0  2.85 -0.95 0  2.9 -0.95 0  2.95 -0.95 0  3 -0.95 0  3.050000000000001 -0.95 0  3.1 -0.95 0  3.15 -0.95 0  3.199999999999999 -0.95 0  3.25 -0.95 0  3.300000000000001 -0.95 0  3.35 -0.95 0  3.4 -0.95 0  3.449999999999999 -0.95 0  3.5 -0.95 0  3.550000000000001 -0.95 0  3.6 -0.95 0  3.65 -0.95 0  3.699999999999999 -0.95 0  3.75 -0.95 0  3.800000000000001 -0.95 0  3.85 -0.95 0  3.9 -0.95 0  3.949999999999999 -0.95 0  4 -0.95 0  4.050000000000001 -0.95 0  4.1 -0.95 0  4.15 -0.95 0  4.199999999999999 -0.95 0  4.25 -0.95 0  4.300000000000001 -0.95 0  4.35 -0.95 0  4.4 -0.95 0  4.449999999999999 -0.95 0  4.5 -0.95 0  4.550000000000001 -0.95 0  4.6 -0.95 0  4.65 -0.95 0  4.699999999999999 -0.95 0  4.75 -0.95 0  4.800000000000001 -0.95 0  4.85 -0.95 0  4.9 -0.95 0  4.949999999999999 -0.95 0  5 -0.95 0  -5 -0.9 0  -4.95 -0.9 0  -4.9 -0.9 0  -4.85 -0.9 0  -4.8 -0.9 0  -4.75 -0.9 0  -4.7 -0.9 0  -4.65 -0.9 0  -4.6 -0.9 0  -4.55 -0.9 0  -4.5 -0.9 0  -4.45 -0.9 0  -4.4 -0.9 0  -4.35 -0.9 0  -4.3 -0.9 0  -4.25 -0.9 0  -4.2 -0.9 0  -4.15 -0.9 0  -4.1 -0.9 0  -4.05 -0.9 0  -4 -0.9 0  -3.95 -0.9 0  -3.9 -0.9 0  -3.85 -0.9 0  -3.8 -0.9 0  -3.75 -0.9 0  -3.7 -0.9 0  -3.65 -0.9 0  -3.6 -0.9 0  -3.55 -0.9 0  -3.5 -0.9 0  -3.45 -0.9 0  -3.4 -0.9 0  -3.35 -0.9 0  -3.3 -0.9 0  -3.25 -0.9 0  -3.2 -0.9 0  -3.15 -0.9 0  -3.1 -0.9 0  -3.05 -0.9 0  -3 -0.9 0  -2.95 -0.9 0  -2.9 -0.9 0  -2.85 -0.9 0  -2.8 -0.9 0  -2.75 -0.9 0  -2.7 -0.9 0  -2.65 -0.9 0  -2.6 -0.9 0  -2.55 -0.9 0  -2.5 -0.9 0  -2.45 -0.9 0  -2.4 -0.9 0  -2.35 -0.9 0  -2.3 -0.9 0  -2.25 -0.9 0  -2.2 -0.9 0  -2.15 -0.9 0  -2.1 -0.9 0  -2.05 -0.9 0  -2 -0.9 0  -1.95 -0.9 0  -1.9 -0.9 0  -1.85 -0.9 0  -1.8 -0.9 0  -1.75 -0.9 0  -1.7 -0.9 0  -1.65 -0.9 0  -1.6 -0.9 0  -1.55 -0.9 0  -1.5 -0.9 0  -1.45 -0.9 0  -1.4 -0.9 0  -1.35 -0.9 0  -1.3 -0.9 0  -1.25 -0.9 0  -1.2 -0.9 0  -1.15 -0.9 0  -1.1 -0.9 0  -1.05 -0.9 0  -1 -0.9 0  -0.9500000000000002 -0.9 0  -0.9000000000000004 -0.9 0  -0.8499999999999996 -0.9 0  -0.7999999999999998 -0.9 0  -0.75 -0.9 0  -0.7000000000000002 -0.9 0  -0.6500000000000004 -0.9 0  -0.5999999999999996 -0.9 0  -0.5499999999999998 -0.9 0  -0.5 -0.9 0  -0.4500000000000002 -0.9 0  -0.4000000000000004 -0.9 0  -0.3499999999999996 -0.9 0  -0.2999999999999998 -0.9 0  -0.25 -0.9 0  -0.2000000000000002 -0.9 0  -0.1500000000000004 -0.9 0  -0.09999999999999964 -0.9 0  -0.04999999999999982 -0.9 0  0 -0.9 0  0.04999999999999982 -0.9 0  0.09999999999999964 -0.9 0  0.1500000000000004 -0.9 0  0.2000000000000002 -0.9 0  0.25 -0.9 0  0.2999999999999998 -0.9 0  0.3499999999999996 -0.9 0  0.4000000000000004 -0.9 0  0.4500000000000002 -0.9 0  0.5 -0.9 0  0.5499999999999998 -0.9 0  0.5999999999999996 -0.9 0  0.6500000000000004 -0.9 0  0.7000000000000002 -0.9 0  0.75 -0.9 0  0.7999999999999998 -0.9 0  0.8499999999999996 -0.9 0  0.9000000000000004 -0.9 0  0.9500000000000002 -0.9 0  1 -0.9 0  1.05 -0.9 0  1.1 -0.9 0  1.15 -0.9 0  1.2 -0.9 0  1.25 -0.9 0  1.3 -0.9 0  1.35 -0.9 0  1.4 -0.9 0  1.45 -0.9 0  1.5 -0.9 0  1.55 -0.9 0  1.6 -0.9 0  1.65 -0.9 0  1.7 -0.9 0  1.75 -0.9 0  1.8 -0.9 0  1.85 -0.9 0  1.9 -0.9 0  1.95 -0.9 0  2 -0.9 0  2.05 -0.9 0  2.1 -0.9 0  2.15 -0.9 0  2.2 -0.9 0  2.25 -0.9 0  2.3 -0.9 0  2.35 -0.9 0  2.4 -0.9 0  2.45 -0.9 0  2.5 -0.9 0  2.55 -0.9 0  2.6 -0.9 0  2.65 -0.9 0  2.7 -0.9 0  2.75 -0.9 0  2.8 -0.9 0  2.85 -0.9 0  2.9 -0.9 0  2.95 -0.9 0  3 -0.9 0  3.050000000000001 -0.9 0  3.1 -0.9 0  3.15 -0.9 0  3.199999999999999 -0.9 0  3.25 -0.9 0  3.300000000000001 -0.9 0  3.35 -0.9 0  3.4 -0.9 0  3.449999999999999 -0.9 0  3.5 -0.9 0  3.550000000000001 -0.9 0  3.6 -0.9 0  3.65 -0.9 0  3.699999999999999 -0.9 0  3.75 -0.9 0  3.800000000000001 -0.9 0  3.85 -0.9 0  3.9 -0.9 0  3.949999999999999 -0.9 0  4 -0.9 0  4.050000000000001 -0.9 0  4.1 -0.9 0  4.15 -0.9 0  4.199999999999999 -0.9 0  4.25 -0.9 0  4.300000000000001 -0.9 0  4.35 -0.9 0  4.4 -0.9 0  4.449999999999999 -0.9 0  4.5 -0.9 0  4.550000000000001 -0.9 0  4.6 -0.9 0  4.65 -0.9 0  4.699999999999999 -0.9 0  4.75 -0.9 0  4.800000000000001 -0.9 0  4.85 -0.9 0  4.9 -0.9 0  4.949999999999999 -0.9 0  5 -0.9 0  -5 -0.85 0  -4.95 -0.85 0  -4.9 -0.85 0  -4.85 -0.85 0  -4.8 -0.85 0  -4.75 -0.85 0  -4.7 -0.85 0  -4.65 -0.85 0  -4.6 -0.85 0  -4.55 -0.85 0  -4.5 -0.85 0  -
[...]
<PointData  Vectors="f_15"> 
<DataArray  type="Float64"  Name="f_15"  NumberOfComponents="3" format="ascii">1.7429761883481030e+00 0.0000000000000000e+00 0.0000000000000000e+00  1.7429579431683284e+00 4.0287055730986926e-02 0.0000000000000000e+00  1.7429383460555439e+00 8.0576428361881558e-02 0.0000000000000000e+00  1.7428772316366006e+00 1.2083294526624201e-01 0.0000000000000000e+00  1.7428230870894470e+00 1.6114569435367931e-01 0.0000000000000000e+00  1.7427166599076120e+00 2.0136192780462855e-01 0.0000000000000000e+00  1.7426309988253688e+00 2.4167871248716055e-01 0.0000000000000000e+00  1.7424725365275187e+00 2.8183630357968242e-01 0.0000000000000000e+00  1.7423643380264537e+00 3.2217394082761625e-01 0.0000000000000000e+00  1.7421469463823103e+00 3.6223574029901912e-01 0.0000000000000000e+00  1.7420178209780239e+00 4.0259718282273876e-01 0.0000000000000000e+00  1.7417419813619022e+00 4.4255219484481612e-01 0.0000000000000000e+00  1.7415941962100172e+00 4.8293486276574799e-01 0.0000000000000000e+00  1.7412512215986451e+00 5.2274923840541865e-01 0.0000000000000000e+00  1.7410957752376759e+00 5.6315934796034439e-01 0.0000000000000000e+00  1.7406779594909980e+00 6.0284114159828628e-01 0.0000000000000000e+00  1.7405150799197524e+00 6.4320540991621122e-01 0.0000000000000000e+00  1.7400254026664108e+00 6.8279851632297717e-01 0.0000000000000000e+00  1.7398550969307598e+00 7.2311225290744097e-01 0.0000000000000000e+00  1.7392868457359116e+00 7.6250923950966754e-01 0.0000000000000000e+00  1.7391180857660924e+00 8.0287612062198033e-01 0.0000000000000000e+00  1.7384676168521471e+00 8.4200617995527749e-01 0.0000000000000000e+00  1.7382957952744544e+00 8.8235792657713974e-01 0.0000000000000000e+00  1.7375726706328662e+00 9.2130344555473909e-01 0.0000000000000000e+00  1.7373921541612889e+00 9.6156882224489171e-01 0.0000000000000000e+00  1.7365976847161988e+00 1.0002631726218305e+00 0.0000000000000000e+00  1.7364104435047441e+00 1.0405005847778428e+00 0.0000000000000000e+00  1.7355505236416231e+00 1.0788988460286086e+00 0.0000000000000000e+00  1.7353470247010645e+00 1.1190071957101289e+00 0.0000000000000000e+00  1.7344381264910778e+00 1.1571734000413310e+00 0.0000000000000000e+00  1.7342106621251034e+00 1.1970874725488478e+00 0.0000000000000000e+00  1.7332636578004328e+00 1.2349526352113527e+00 0.0000000000000000e+00  1.7330101401900899e+00 1.2746539344754790e+00 0.0000000000000000e+00  1.7320422526009172e+00 1.3122115525082507e+00 0.0000000000000000e+00  1.7317574830749454e+00 1.3515713987830851e+00 0.0000000000000000e+00  1.7307886596004010e+00 1.3888137071152191e+00 0.0000000000000000e+00  1.7304798563308028e+00 1.4277687594549322e+00 0.0000000000000000e+00  1.7295305885174193e+00 1.4646017975317365e+00 0.0000000000000000e+00  1.7292053821165798e+00 1.5030410332274107e+00 0.0000000000000000e+00  1.7283167813236224e+00 1.5394362973322426e+00 0.0000000000000000e+00  1.7279921139300971e+00 1.5771750814142209e+00 0.0000000000000000e+00  1.7271996747618421e+00 1.6130018972480920e+00 0.0000000000000000e+00  1.7269336643403268e+00 1.6499305700911946e+00 0.0000000000000000e+00  1.7262884813830630e+00 1.6849478758854450e+00 0.0000000000000000e+00  1.7261399614207487e+00 1.7208124233775246e+00 0.0000000000000000e+00  1.7257597466235612e+00 1.7548453101906649e+00 0.0000000000000000e+00  1.7258226944506649e+00 1.7892147268500473e+00 0.0000000000000000e+00  1.7258354064560435e+00 1.8218596453550058e+00 0.0000000000000000e+00  1.7263118821279517e+00 1.8543722427802318e+00 0.0000000000000000e+00  1.7268962038433708e+00 1.8849589526462662e+00 0.0000000000000000e+00  1.7280095393633048e+00 1.9149692186102216e+00 0.0000000000000000e+00  1.7294724300507081e+00 1.9429199811979294e+00 0.0000000000000000e+00  1.7314668535799227e+00 1.9695367491799620e+00 0.0000000000000000e+00  1.7340597512162284e+00 1.9941622500705865e+00 0.0000000000000000e+00  1.7371917709734128e+00 2.0169562914611814e+00 0.0000000000000000e+00  1.7409641406543475e+00 2.0377568549333089e+00 0.0000000000000000e+00  1.7451719503894574e+00 2.0568343115028491e+00 0.0000000000000000e+00  1.7499385720996068e+00 2.0744175095612514e+00 0.0000000000000000e+00  1.7547758735924510e+00 2.0904213932993945e+00 0.0000000000000000e+00  1.7600439925441618e+00 2.1059070165872571e+00 0.0000000000000000e+00  1.7650720028166325e+00 2.1200548274001565e+00 0.0000000000000000e+00  1.7703318357699873e+00 2.1341040879565654e+00 0.0000000000000000e+00  1.7752419808332502e+00 2.1471761330823940e+00 0.0000000000000000e+00  1.7803151452255335e+00 2.1602730548927318e+00 0.0000000000000000e+00  1.7849016092506069e+00 2.1722520884904388e+00 0.0000000000000000e+00  1.7897240545348145e+00 2.1845696890485384e+00 0.0000000000000000e+00  1.7939889664635436e+00 2.1955684578660932e+00 0.0000000000000000e+00  1.7984352935594878e+00 2.2068100387425953e+00 0.0000000000000000e+00  1.8023976451239798e+00 2.2169669246114148e+00 0.0000000000000000e+00  1.8064710705469105e+00 2.2271337671860181e+00 0.0000000000000000e+00  1.8100275546970002e+00 2.2362035266397617e+00 0.0000000000000000e+00  1.8137564272165607e+00 2.2454336096643046e+00 0.0000000000000000e+00  1.8169174500218490e+00 2.2534414135066623e+00 0.0000000000000000e+00  1.8202028723056261e+00 2.2615035274141011e+00 0.0000000000000000e+00  1.8230231020070362e+00 2.2686413757661561e+00 0.0000000000000000e+00  1.8258751984042449e+00 2.2755546309147956e+00 0.0000000000000000e+00  1.8282736236711863e+00 2.2816427609712870e+00 0.0000000000000000e+00  1.8307687325563224e+00 2.2876381923563738e+00 0.0000000000000000e+00  1.8327592306932772e+00 2.2927038350603453e+00 0.0000000000000000e+00  1.8348428219139303e+00 2.2976592229634485e+00 0.0000000000000000e+00  1.8365108275917492e+00 2.3019536314570184e+00 0.0000000000000000e+00  1.8382133180148819e+00 2.3059310997836522e+00 0.0000000000000000e+00  1.8395210194232940e+00 2.3093536714074223e+00 0.0000000000000000e+00  1.8409430972797451e+00 2.3126471808323315e+00 0.0000000000000000e+00  1.8419209387771025e+00 2.3152529259755394e+00 0.0000000000000000e+00  1.8430548321421225e+00 2.3178186418003173e+00 0.0000000000000000e+00  1.8437886573489721e+00 2.3198884751332103e+00 0.0000000000000000e+00  1.8446792828732943e+00 2.3218077489800830e+00 0.0000000000000000e+00  1.8451715191068618e+00 2.3233002592682794e+00 0.0000000000000000e+00  1.8459006539743397e+00 2.3248461044493842e+00 0.0000000000000000e+00  1.8461853267401751e+00 2.3258382645708005e+00 0.0000000000000000e+00  1.8467737938003399e+00 2.3269852586862156e+00 0.0000000000000000e+00  1.8469101171887350e+00 2.3277171528387357e+00 0.0000000000000000e+00  1.8473899648803718e+00 2.3285131909351140e+00 0.0000000000000000e+00  1.8474028786460674e+00 2.3289885863227164e+00 0.0000000000000000e+00  1.8478187631530729e+00 2.3296015549184075e+00 0.0000000000000000e+00  1.8477245506748683e+00 2.3298721398399795e+00 0.0000000000000000e+00  1.8481028275571791e+00 2.3303015168505561e+00 0.0000000000000000e+00  1.8479384964681123e+00 2.3305013800195740e+00 0.0000000000000000e+00  1.8482764140803138e+00 2.3307369197516805e+00 0.0000000000000000e+00  1.8480747077674011e+00 2.3309241307096777e+00 0.0000000000000000e+00  1.8483875917165884e+00 2.3310284405425215e+00 0.0000000000000000e+00  1.8481476227578677e+00 2.3311768223328655e+00 0.0000000000000000e+00  1.8484553249725735e+00 2.3312220856420214e+00 0.0000000000000000e+00  1.8481957903089259e+00 2.3313591656465027e+00 0.0000000000000000e+00  1.8484805652774909e+00 2.3312920178479599e+00 0.0000000000000000e+00  1.8482307706250380e+00 2.3315198584636487e+00 0.0000000000000000e+00  1.8484838474410146e+00 2.3313343817015268e+00 0.0000000000000000e+00  1.8482547258094286e+00 2.3315711464713158e+00 0.0000000000000000e+00  1.8484795228817952e+00 2.3314185579170750e+00 0.0000000000000000e+00  1.8482610311650465e+00 2.3315818393185133e+00 0.0000000000000000e+00  1.8484766156495891e+00 2.3314370177883137e+00 0.0000000000000000e+00  1.8482720601045601e+00 2.3316612870475466e+00 0.0000000000000000e+00  1.8484427895265221e+00 2.3313775091968854e+00 0.0000000000000000e+00  1.8483070594541233e+00 2.3317279518789236e+00 0.0000000000000000e+00  1.8484110723896596e+00 2.3314114965559245e+00 0.0000000000000000e+00  1.8482998561020898e+00 2.3316283592736022e+00 0.0000000000000000e+00  1.8484239701411200e+00 2.3315655564355469e+00 0.0000000000000000e+00  1.8482906082323023e+00 2.3315334137439101e+00 0.0000000000000000e+00  1.8483836700146572e+00 2.3315532294909009e+00 0.0000000000000000e+00  1.8483406433065215e+00 2.3316669481475971e+00 0.0000000000000000e+00  1.8483400912318755e+00 2.3313944282583239e+00 0.0000000000000000e+00  1.8483258539767207e+00 2.3317398162362597e+00 0.0000000000000000e+00  1.8483738441484336e+00 2.3314781707905881e+00 0.0000000000000000e+00  1.8482940606130152e+00 2.3315197050755301e+00 0.0000000000000000e+00  1.8483437563951861e+00 2.3317467809093508e+00 0.0000000000000000e+00  1.8483524546872434e+00 2.3312960119214283e+00 0.0000000000000000e+00  1.8482821251829522e+00 2.3318289788554392e+00 0.0000000000000000e+00  1.8483489388988965e+00 2.3314036551552997e+00 0.0000000000000000e+00  1.8483224414090205e+00 2.3315119515067231e+00 0.0000000000000000e+00  1.8482987887064193e+00 2.3318310701487750e+00 0.0000000000000000e+00  1.8483096113576252e+00 2.3311334764402876e+00 0.0000000000000000e+00  1.8483509459315495e+00 2.3319358969504633e+00 0.0000000000000000e+00  1.8482406937946565e+00 2.3314016092962704e+00 0.0000000000000000e+00  1.8483633324283697e+00 2.3313366607164596e+00 0.0000000000000000e+00  1.8482685951155660e+00 2.3320571644086523e+00 0.0000000000000000e+00  1.8483138842620745e+00 2.3308883306345733e+00 0.0000000000000000e+00  1.8482686058207096e+00 2.3321122850136899e+00 0.0000000000000000e+00  1.8483592947367380e+00 2.3311227465856170e+00 0.0000000000000000e+00  1.8481940833617296e+00 2.3317625865609810e+00 0.0000000000000000e+00  1.8483584164182563e+00 2.3314333429002208e+00 0.0000000000000000e+00  1.8481733353418039e+00 2.3316940032425197e+00 0.0000000000000000e+00  1.8481682892912974e+00 2.3317049249003685e+00 0.0000000000000000e+00  1.8479978930649039e+00 2.3319937107160551e+00 0.0000000000000000e+00  1.8478585504239924e+00 2.3322277561070273e+00 0.0000000000000000e+00  1.8475875374029087e+00 2.3325623710096925e+00 0.0000000000000000e+00  1.8475104816246743e+00 2.3326204899847127e+00 0.0000000000000000e+00  1.8474949309669573e+00 2.3328584217563990e+00 0.0000000000000000e+00  1.8475138671027476e+00 2.3320015228432434e+00 0.0000000000000000e+00  1.8481712536556172e+00 2.3323246040359846e+00 0.0000000000000000e+00  1.8480589949534076e+00 2.3304003806510774e+00 0.0000000000000000e+00  1.8490142562159328e+00 2.3313731010961902e+00 0.0000000000000000e+00  1.8487522252832991e+00 2.3297902223159133e+00 0.0000000000000000e+00  1.8488082467617482e+00 2.3293875990480077e+00 0.0000000000000000e+00  1.8502904329883527e+00 2.3325472391102640e+00 0.0000000000000000e+00  1.8466851519293950e+00 2.3235559792382006e+00 0.0000000000000000e+00  1.8555706833600876e+00 2.3366293409945667e+00 0.0000000000000000e+00  1.8320192298602465e+00 2.3382281909608302e+00 0.0000000000000000e+00  1.8724928760011226e+00 2.3208239057907267e+00 0.0000000000000000e+00  2.3396150141166769e+00 1.2046007380121730e+00 0.0000000000000000e+00  2.8325871550289743e+00 2.4146042037659712e-01 0.0000000000000000e+00  2.9723268300244339e+00 1.7984810145494936e-02 0.0000000000000000e+00  2.9654434215214054e+00 1.2225219647240861e-02 0.0000000000000000e+00  2.9660032657738444e+00 3.4859098349175202e-03 0.0000000000000000e+00  2.9724619363793048e+00 -1.7237784964228282e-03 0.0000000000000000e+00  2.9708406827852221e+00 -2.6045784472225451e-04 0.0000000000000000e+00  2.9718366977593931e+00 -3.4703282968861653e-03 0.0000000000000000e+00  2.9727049520676010e+00 -5.5222495941810957e-03 0.0000000000000000e+00  2.9720858637205225e+00 -4.1168887232639634e-03 0.0000000000000000e+00  2.9713768159112117e+00 -4.5851398842993987e-03 0.0000000000000000e+00  2.9720292855226935e+00 -5.6423681023255673e-03 0.0000000000000000e+00  2.9717714283034304e+00 -6.5103003894052772e-03 0.0000000000000000e+00  2.9721353035657794e+00 -7.0412209205190784e-03 0.0000000000000000e+00  2.9716884323979462e+00 -7.4844474952394033e-03 0.0000000000000000e+00  2.9719832197689797e+00 -7.6271529748209053e-03 0.0000000000000000e+00  2.9716596254182699e+00 -7.9916513283460611e-03 0.0000000000000000e+00  2.9720073071480155e+00 -8.2813954371587541e-03 0.0000000000000000e+00  2.9716933397670355e+00 -8.2852370172368864e-03 0.0000000000000000e+00  2.9719497283461149e+00 -8.4525658341758642e-03 0.0000000000000000e+00  2.9716873527703456e+00 -8.4507695581673755e-03 0.0000000000000000e+00  2.9719210558379663e+00 -8.5172684293745582e-03 0.0000000000000000e+00  2.9716935985254351e+00 -8.4834909624144153e-03 0.0000000000000000e+00  2.9718982145642237e+00 -8.6418388884244666e-03 0.0000000000000000e+00  2.9717018024604540e+00 -8.4613957570721255e-03 0.0000000000000000e+00  2.9718745321964137e+00 -8.6216071274738352e-03 0.0000000000000000e+00  2.9716922608952663e+00 -8.6360988050921735e-03 0.0000000000000000e+00  2.9718665080281061e+00 -8.4504967066444271e-03 0.0000000000000000e+00  2.9716962172571098e+00 -8.7966087664153193e-03 0.0000000000000000e+00  2.9718406402322288e+00 -8.6290040129954546e-03 0.0000000000000000e+00  2.9717100892283845e+00 -8.4605488009511596e-03 0.0000000000000000e+00  2.9718304826108399e+00 -8.8982125616638291e-03 0.0000000000000000e+00  2.9717042745835749e+00 -8.5821715428861106e-03 0.0000000000000000e+00  2.9718404300362904e+00 -8.5620818405934915e-03 0.0000000000000000e+00  2.9717141337016986e+00 -9.5771724471897576e-03 0.0000000000000000e+00  2.9718227019720178e+00 -8.3251237324650871e-03 0.0000000000000000e+00  2.9717519283475489e+00 -9.5381987798953856e-03 0.0000000000000000e+00  2.9718189497341303e+00 -9.6035254485717196e-03 0.0000000000000000e+00  2.9717583352166317e+00 -8.5588757678439747e-03 0.0000000000000000e+00  2.9718411042172796e+00 -1.4729729334432583e-02 0.0000000000000000e+00  2.9717746879098752e+00 -1.0072389000429404e-02 0.0000000000000000e+00  2.9718303180513179e+00 0.0000000000000000e+00 0.0000000000000000e+00  1.7429786963167182e+00 0.0000000000000000e+00 -1.0220899689806212e-05  1.7429636395754760e+00 4.0291006667866405e-02 -5.2297368709516040e-07  1.7429380095224629e+00 8.0579727098980092e-02 8.0659478101872025e-06  1.7428854441789288e+00 1.2085806194421155e-01 -4.5951916710092882e-06  1.7428207257528792e+00 1.6113821118457397e-01 3.6742858331294066e-06  1.7427276047791671e+00 2.0139505194074400e-01 -4.2776191593643665e-06  1.7426231487975348e+00 2.4165728012317689e-01 6.4878764133169471e-06  1.7424928753184745e+00 2.8189358604927928e-01 -1.0693669385244900e-05  1.7423466663555556e+00 3.2212097660001254e-01 1.4864015083408728e-05  1.7421762323138470e+00 3.6231979472209908e-01 -2.0127269772323735e-05  1.7419932151849804e+00 4.0252192932869679e-01 2.5315687499696055e-05  1.7417801199803671e+00 4.4265935487862795e-01 -3.2055770502685035e-05  1.7415566030018126e+00 4.8282110138169199e-01 3.8823770312299337e-05  1.7413068624494368e+00 5.2289779683353854e-01 -4.6949538153295541e-05  1.7410396821748562e+00 5.6301674426029791e-01 5.5112688665566830e-05  1.7407496234506614e+00 6.0298132152366091e-01 -6.4884400896503248e-05  1.7404450893441690e+00 6.4308780449591774e-01 7.4760922759975820e-05  1.7401117582275418e+00 6.8292802174040279e-01 -8.4863762197040770e-05  1.7397655856926744e+00 7.2294675376754880e-01 9.2553958680275809e-05  1.7393962130918585e+00 7.6273065925565120e-01 -9.8221536944458955e-05  1.7390052582082800e+00 8.0261391024108497e-01 1.0124781187381092e-04  1.7385956929938566e+00 8.4227300155677076e-01 -1.0348254674204450e-04  1.7381676316678734e+00 8.8209425704577826e-01 1.0505038447475452e-04  1.7377150598410940e+00 9.2157051325857886e-01 -1.0741639438715480e-04  1.7372464276718733e+00 9.6125367958510355e-01 1.0939958733522429e-04  1.7367584976339181e+00 1.0006213587996495e+00 -1.0993935871731980e-04  1.7362478372550882e+00 1.0401060585181010e+00 1.0746878559544904e-04  1.7357220837978007e+00 1.0792836942040138e+00 -1.0354304702245283e-04  1.7351773512920363e+00 1.1186199262243457e+00 9.9586395827559957e-05  1.7346142673145577e+00 1.1575679304313780e+00 -9.6344147617429454e-05  1.7340355375658294e+00 1.1966558788007868e+00 9.2683748900224176e-05  1.7334431497894551e+00 1.2353987339696120e+00 -8.8888240284268794e-05  1.7328351645545905e+00 1.2742051508078460e+00 8.5092541375293314e-05  1.7322171755166402e+00 1.3126375650620847e+00 -8.1578387095624757e-05  1.7315891392458909e+00 1.3511487035453300e+00 7.6811591686641055e-05  1.7309579492288545e+00 1.3892360280776885e+00 -7.1454827550034247e-05  1.7303191557249895e+00 1.4273322209030939e+00 6.6159952094671062e-05  1.7296876168146433e+00 1.4650173929159822e+00 -6.2755879575242168e-05  1.7290644446100101e+00 1.5026538515974133e+00 6.0127380796168146e-05  1.7284511448724333e+00 1.5397829601329789e+00 -5.7518379670511929e-05  1.7278671928250737e+00 1.5768444032420037e+00 5.4202012600546000e-05  1.7273228435486363e+00 1.6133374900359134e+00 -5.1226718513118449e-05  1.7268161712587691e+00 1.6496058682478771e+00 4.8035848974281843e-05  1.7263892511328884e+00 1.6852602376720971e+00 -4.5133646364903661e-05  1.7260543000867916e+00 1.7205803144296135e+00 4.2180900586696180e-05  1.7258210830235383e+00 1.7550438014503487e+00 -4.1081015690507408e-05  1.7257584045277685e+00 1.7890768790567795e+00 3.9279923503349308e-05  1.7258876880190459e+00 1.8220500360967153e+00 -3.7278867285826663e-05  1.7262457374423574e+00 1.8542198212230618e+00 3.3517947449131063e-05  1.7269277831425449e+00 1.8851383367843699e+00 -3.0716450385719647e-05  1.7279841177334632e+00 1.9149197781770879e+00 2.6998708682355365e-05  1.7294539117884726e+00 1.9429462439056504e+00 -2.3196095501326678e-05  1.7314756707091352e+00 1.9696007227842012e+00 2.0544017478025509e-05  1.7340422115280640e+00 1.9941625417342099e+00 -1.4937205737202873e-05  1.7371934511846772e+00 2.0169571916642113e+00 1.2320934650218093e-05  1.7409444741120503e+00 2.0377770063019156e+00 -4.3780348203944615e-06  1.7452191102639756e+00 2.0569028809693508e+00 1.7043596620664577e-06  1.7498649065663501e+00 2.0742676317657716e+00 3.5807891233753386e-06  1.7548660807195968e+00 2.0906207575641238e+00 -7.6784447835993880e-06  1.7599698564821453e+00 2.1057323515275796e+00 8.7547883309058740e-06  1.7651319990070571e+00 2.1201739290067767e+00 -1.2469744510931889e-05  1.7702694466702542e+00 2.1340249808654055e+00 1.1928053093574157e-05  1.7753186366372820e+00 2.1473250296190827e+00 -1.2576898921523802e-05  1.7801999189840445e+00 2.1600665776209764e+00 1.0393557354076856e-05  1.7850210202561729e+00 2.1725329332344243e+00 -7.3358790872940902e-06  1.7896122925493261e+00 2.1843334618817316e+00 2.5517623490653731e-06  1.7940695316551387e+00 2.1957377597290160e+00 3.4316085190026347e-06  1.7983687325704025e+00 2.2067043717201500e+00 -1.1521454720299340e-05  1.8024673675208558e+00 2.2171000211786875e+00 1.9626177449914393e-05  1.8063674588488874e+00 2.2269475200251381e+00 -3.0219271577726981e-05  1.8101315710237227e+00 2.2364745203660976e+00 4.0306543021983251e-05  1.8136443115157870e+00 2.2452146286156256e+00 -5.1937097660813113e-05  1.8169731998237695e+00 2.2536331232821856e+00 6.2982543273619452e-05  1.8201457269171577e+00 2.2614331993235357e+00 -7.4353562896480808e-05  1.8230483246031990e+00 2.2687703717187846e+00 8.6442444158029024e-05  1.8257960376171927e+00 2.2754262854198868e+00 -9.8159303475145180e-05  1.8283382615021915e+00 2.2819019795961171e+00 1.1252924073811528e-04  1.8306765222499592e+00 2.2874401342555313e+00 -1.2477748986933573e-04  1.8327928495013670e+00 2.2929088157079107e+00 1.3957043944073114e-04  1.8348053690748634e+00 2.2975796427204496e+00 -1.4999428102510092e-04  1.8365205283554058e+00 2.3020874371273519e+00 1.6372093717572947e-04  1.8381638170828991e+00 2.3057878063956134e+00 -1.7416715083797598e-04  1.839