<?xml version="1.0"?>
<VTKFile type="UnstructuredGrid"  version="0.1"  >
<UnstructuredGrid>
<Piece  NumberOfPoints="8241" NumberOfCells="16000">
<Points>
<DataArray  type="Float64"  NumberOfComponents="3"  format="ascii">-5 -1 0  -4.95 -1 0  -4.9 -1 0  -4.85 -1 0  -4.8 -1 0  -4.75 -1 0  -4.7 -1 0  -4.65 -1 0  -4.6 -1 0  -4.55 -1 0  -4.5 -1 0  -4.45 -1 0  -4.4 -1 0  -4.35 -1 0  -4.3 -1 0  -4.25 -1 0  -4.2 -1 0  -4.15 -1 0  -4.1 -1 0  -4.05 -1 0  -4 -1 0  -3.95 -1 0  -3.9 -1 0  -3.85 -1 0  -3.8 -1 0  -3.75 -1 0  -3.7 -1 0  -3.65 -1 0  -3.6 -1 0  -3.55 -1 0  -3.5 -1 0  -3.45 -1 0  -3.4 -1 0  -3.35 -1 0  -3.3 -1 0  -3.25 -1 0  -3.2 -1 0  -3.15 -1 0  -3.1 -1 0  -3.05 -1 0  -3 -1 0  -2.95 -1 0  -2.9 -1 0  -2.85 -1 0  -2.8 -1 0  -2.75 -1 0  -2.7 -1 0  -2.65 -1 0  -2.6 -1 0  -2.55 -1 0  -2.5 -1 0  -2.45 -1 0  -2.4 -1 0  -2.35 -1 0  -2.3 -1 0  -2.25 -1 0  -2.2 -1 0  -2.15 -1 0  -2.1 -1 0  -2.05 -1 0  -2 -1 0  -1.95 -1 0  -1.9 -1 0  -1.85 -1 0  -1.8 -1 0  -1.75 -1 0  -1.7 -1 0  -1.65 -1 0  -1.6 -1 0  -1.55 -1 0  -1.5 -1 0  -1.45 -1 0  -1.4 -1 0  -1.35 -1 0  -1.3 -1 0  -1.25 -1 0  -1.2 -1 0  -1.15 -1 0  -1.1 -1 0  -1.05 -1 0  -1 -1 0  -0.9500000000000002 -1 0  -0.9000000000000004 -1 0  -0.8499999999999996 -1 0  -0.7999999999999998 -1 0  -0.75 -1 0  -0.7000000000000002 -1 0  -0.6500000000000004 -1 0  -0.5999999999999996 -1 0  -0.5499999999999998 -1 0  -0.5 -1 0  -0.4500000000000002 -1 0  -0.4000000000000004 -1 0  -0.3499999999999996 -1 0  -0.2999999999999998 -1 0  -0.25 -1 0  -0.2000000000000002 -1 0  -0.1500000000000004 -1 0  -0.09999999999999964 -1 0  -0.04999999999999982 -1 0  0 -1 0  0.04999999999999982 -1 0  0.09999999999999964 -1 0  0.1500000000000004 -1 0  0.2000000000000002 -1 0  0.25 -1 0  0.2999999999999998 -1 0  0.3499999999999996 -1 0  0.4000000000000004 -1 0  0.4500000000000002 -1 0  0.5 -1 0  0.5499999999999998 -1 0  0.5999999999999996 -1 0  0.6500000000000004 -1 0  0.7000000000000002 -1 0  0.75 -1 0  0.7999999999999998 -1 0  0.8499999999999996 -1 0  0.9000000000000004 -1 0  0.9500000000000002 -1 0  1 -1 0  1.05 -1 0  1.1 -1 0  1.15 -1 0  1.2 -1 0  1.25 -1 0  1.3 -1 0  1.35 -1 0  1.4 -1 0  1.45 -1 0  1.5 -1 0  1.55 -1 0  1.6 -1 0  1.65 -1 0  1.7 -1 0  1.75 -1 0  1.8 -1 0  1.85 -1 0  1.9 -1 0  1.95 -1 0  2 -1 0  2.05 -1 0  2.1 -1 0  2.15 -1 0  2.2 -1 0  2.25 -1 0  2.3 -1 0  2.35 -1 0  2.4 -1 0  2.45 -1 0  2.5 -1 0  2.55 -1 0  2.6 -1 0  2.65 -1 0  2.7 -1 0  2.75 -1 0  2.8 -1 0  2.85 -1 0  2.9 -1 0  2.95 -1 0  3 -1 0  3.050000000000001 -1 0  3.1 -1 0  3.15 -1 0  3.199999999999999 -1 0  3.25 -1 0  3.300000000000001 -1 0  3.35 -1 0  3.4 -1 0  3.449999999999999 -1 0  3.5 -1 0  3.550000000000001 -1 0  3.6 -1 0  3.65 -1 0  3.699999999999999 -1 0  3.75 -1 0  3.800000000000001 -1 0  3.85 -1 0  3.9 -1 0  3.949999999999999 -1 0  4 -1 0  4.050000000000001 -1 0  4.1 -1 0  4.15 -1 0  4.199999999999999 -1 0  4.25 -1 0  4.300000000000001 -1 0  4.35 -1 0  4.4 -1 0  4.449999999999999 -1 0  4.5 -1 0  4.550000000000001 -1 0  4.6 -1 0  4.65 -1 0  4.699999999999999 -1 0  4.75 -1 0  4.800000000000001 -1 0  4.85 -1 0  4.9 -1 0  4.949999999999999 -1 0  5 -1 0  -5 -0.95 0  -4.95 -0.95 0  -4.9 -0.95 0  -4.85 -0.95 0  -4.8 -0.95 0  -4.75 -0.95 0  -4.7 -0.95 0  -4.65 -0.95 0  -4.6 -0.95 0  -4.55 -0.95 0  -4.5 -0.95 0  -4.45 -0.95 0  -4.4 -0.95 0  -4.35 -0.95 0  -4.3 -0.95 0  -4.25 -0.95 0  -4.2 -0.95 0  -4.15 -0.95 0  -4.1 -0.95 0  -4.05 -0.95 0  -4 -0.95 0  -3.95 -0.95 0  -3.9 -0.95 0  -3.85 -0.95 0  -3.8 -0.95 0  -3.75 -0.95 0  -3.7 -0.95 0  -3.65 -0.95 0  -3.6 -0.95 0  -3.55 -0.95 0  -3.5 -0.95 0  -3.45 -0.95 0  -3.4 -0.95 0  -3.35 -0.95 0  -3.3 -0.95 0  -3.25 -0.95 0  -3.2 -0.95 0  -3.15 -0.95 0  -3.1 -0.95 0  -3.05 -0.95 0  -3 -0.95 0  -2.95 -0.95 0  -2.9 -0.95 0  -2.85 -0.95 0  -2.8 -0.95 0  -2.75 -0.95 0  -2.7 -0.95 0  -2.65 -0.95 0  -2.6 -0.95 0  -2.55 -0.95 0  -2.5 -0.95 0  -2.45 -0.95 0  -2.4 -0.95 0  -2.35 -0.95 0  -2.3 -0.95 0  -2.25 -0.95 0  -2.2 -0.95 0  -2.15 -0.95 0  -2.1 -0.95 0  -2.05 -0.95 0  -2 -0.95 0  -1.95 -0.95 0  -1.9 -0.95 0  -1.85 -0.95 0  -1.8 -0.95 0  -1.75 -0.95 0  -1.7 -0.95 0  -1.65 -0.95 0  -1.6 -0.95 0  -1.55 -0.95 0  -1.5 -0.95 0  -1.45 -0.95 0  -1.4 -0.95 0  -1.35 -0.95 0  -1.3 -0.95 0  -1.25 -0.95 0  -1.2 -0.95 0  -1.15 -0.95 0  -1.1 -0.95 0  -1.05 -0.95 0  -1 -0.95 0  -0.9500000000000002 -0.95 0  -0.9000000000000004 -0.95 0  -0.8499999999999996 -0.95 0  -0.7999999999999998 -0.95 0  -0.75 -0.95 0  -0.7000000000000002 -0.95 0  -0.6500000000000004 -0.95 0  -0.5999999999999996 -0.95 0  -0.5499999999999998 -0.95 0  -0.5 -0.95 0  -0.4500000000000002 -0.95 0  -0.4000000000000004 -0.95 0  -0.3499999999999996 -0.95 0  -0.2999999999999998 -0.95 0  -0.25 -0.95 0  -0.2000000000000002 -0.95 0  -0.1500000000000004 -0.95 0  -0.09999999999999964 -0.95 0  -0.04999999999999982 -0.95 0  0 -0.95 0  0.04999999999999982 -0.95 0  0.09999999999999964 -0.95 0  0.1500000000000004 -0.95 0  0.2000000000000002 -0.95 0  0.25 -0.95 0  0.2999999999999998 -0.95 0  0.3499999999999996 -0.95 0  0.4000000000000004 -0.95 0  0.4500000000000002 -0.95 0  0.5 -0.95 0  0.5499999999999998 -0.95 0  0.5999999999999996 -0.95 0  0.6500000000000004 -0.95 0  0.7000000000000002 -0.95 0  0.75 -0.95 0  0.7999999999999998 -0.95 0  0.8499999999999996 -0.95 0  0.9000000000000004 -0.95 0  0.9500000000000002 -0.95 0  1 -0.95 0  1.05 -0.95 0  1.1 -0.95 0  1.15 -0.95 0  1.2 -0.95 0  1.25 -0.95 0  1.3 -0.95 0  1.35 -0.95 0  1.4 -0.95 0  1.45 -0.95 0  1.5 -0.95 0  1.55 -0.95 0  1.6 -0.95 0  1.65 -0.95 0  1.7 -0.95 0  1.75 -0.95 0  1.8 -0.95 0  1.85 -0.95 0  1.9 -0.95 0  1.95 -0.95 0  2 -0.95 0  2.05 -0.95 0  2.1 -0.95 0  2.15 -0.95 0  2.2 -0.95 0  2.25 -0.95 0  2.3 -0.95 0  2.35 -0.95 0  2.4 -0.95 0  2.45 -0.95 0  2.5 -0.95 0  2.55 -0.95 0  2.6 -0.95 0  2.65 -0.95 0  2.7 -0.95 0  2.75 -0.95 0  2.8 -0.95 0  2.85 -0.95 0  2.9 -0.95 0  2.95 -0.95 0  3 -0.95 0  3.050000000000001 -0.95 0  3.1 -0.95 0  3.15 -0.95 0  3.199999999999999 -0.95 0  3.25 -0.95 0  3.300000000000001 -0.95 0  3.35 -0.95 0  3.4 -0.95 0  3.449999999999999 -0.95 0  3.5 -0.95 0  3.550000000000001 -0.95 0  3.6 -0.95 0  3.65 -0.95 0  3.699999999999999 -0.95 0  3.75 -0.95 0  3.800000000000001 -0.95 0  3.85 -0.95 0  3.9 -0.95 0  3.949999999999999 -0.95 0  4 -0.95 0  4.050000000000001 -0.95 0  4.1 -0.95 0  4.15 -0.95 0  4.199999999999999 -0.95 0  4.25 -0.95 0  4.300000000000001 -0.95 0  4.35 -0.95 0  4.4 -0.95 0  4.449999999999999 -0.95 0  4.5 -0.95 0  4.550000000000001 -0.95 0  4.6 -0.95 0  4.65 -0.95 0  4.699999999999999 -0.95 0  4.75 -0.95 0  4.800000000000001 -0.95 0  4.85 -0.95 0  4.9 -0.95 0  4.949999999999999 -0.95 0  5 -0.95 0  -5 -0.9 0  -4.95 -0.9 0  -4.9 -0.9 0  -4.85 -0.9 0  -4.8 -0.9 0  -4.75 -0.9 0  -4.7 -0.9 0  -4.65 -0.9 0  -4.6 -0.9 0  -4.55 -0.9 0  -4.5 -0.9 0  -4.45 -0.9 0  -4.4 -0.9 0  -4.35 -0.9 0  -4.3 -0.9 0  -4.25 -0.9 0  -4.2 -0.9 0  -4.15 -0.9 0  -4.1 -0.9 0  -4.05 -0.9 0  -4 -0.9 0  -3.95 -0.9 0  -3.9 -0.9 0  -3.85 -0.9 0  -3.8 -0.9 0  -3.75 -0.9 0  -3.7 -0.9 0  -3.65 -0.9 0  -3.6 -0.9 0  -3.55 -0.9 0  -3.5 -0.9 0  -3.45 -0.9 0  -3.4 -0.9 0  -3.35 -0.9 0  -3.3 -0.9 0  -3.25 -0.9 0  -3.2 -0.9 0  -3.15 -0.9 0  -3.1 -0.9 0  -3.05 -0.9 0  -3 -0.9 0  -2.95 -0.9 0  -2.9 -0.9 0  -2.85 -0.9 0  -2.8 -0.9 0  -2.75 -0.9 0  -2.7 -0.9 0  -2.65 -0.9 0  -2.6 -0.9 0  -2.55 -0.9 0  -2.5 -0.9 0  -2.45 -0.9 0  -2.4 -0.9 0  -2.35 -0.9 0  -2.3 -0.9 0  -2.25 -0.9 0  -2.2 -0.9 0  -2.15 -0.9 0  -2.1 -0.9 0  -2.05 -0.9 0  -2 -0.9 0  -1.95 -0.9 0  -1.9 -0.9 0  -1.85 -0.9 0  -1.8 -0.9 0  -1.75 -0.9 0  -1.7 -0.9 0  -1.65 -0.9 0  -1.6 -0.9 0  -1.55 -0.9 0  -1.5 -0.9 0  -1.45 -0.9 0  -1.4 -0.9 0  -1.35 -0.9 0  -1.3 -0.9 0  -1.25 -0.9 0  -1.2 -0.9 0  -1.15 -0.9 0  -1.1 -0.9 0  -1.05 -0.9 0  -1 -0.9 0  -0.9500000000000002 -0.9 0  -0.9000000000000004 -0.9 0  -0.8499999999999996 -0.9 0  -0.7999999999999998 -0.9 0  -0.75 -0.9 0  -0.7000000000000002 -0.9 0  -0.6500000000000004 -0.9 0  -0.5999999999999996 -0.9 0  -0.5499999999999998 -0.9 0  -0.5 -0.9 0  -0.4500000000000002 -0.9 0  -0.4000000000000004 -0.9 0  -0.3499999999999996 -0.9 0  -0.2999999999999998 -0.9 0  -0.25 -0.9 0  -0.2000000000000002 -0.9 0  -0.1500000000000004 -0.9 0  -0.09999999999999964 -0.9 0  -0.04999999999999982 -0.9 0  0 -0.9 0  0.04999999999999982 -0.9 0  0.09999999999999964 -0.9 0  0.1500000000000004 -0.9 0  0.2000000000000002 -0.9 0  0.25 -0.9 0  0.2999999999999998 -0.9 0  0.3499999999999996 -0.9 0  0.4000000000000004 -0.9 0  0.4500000000000002 -0.9 0  0.5 -0.9 0  0.5499999999999998 -0.9 0  0.5999999999999996 -0.9 0  0.6500000000000004 -0.9 0  0.7000000000000002 -0.9 0  0.75 -0.9 0  0.7999999999999998 -0.9 0  0.8499999999999996 -0.9 0  0.9000000000000004 -0.9 0  0.9500000000000002 -0.9 0  1 -0.9 0  1.05 -0.9 0  1.1 -0.9 0  1.15 -0.9 0  1.2 -0.9 0  1.25 -0.9 0  1.3 -0.9 0  1.35 -0.9 0  1.4 -0.9 0  1.45 -0.9 0  1.5 -0.9 0  1.55 -0.9 0  1.6 -0.9 0  1.65 -0.9 0  1.7 -0.9 0  1.75 -0.9 0  1.8 -0.9 0  1.85 -0.9 0  1.9 -0.9 0  1.95 -0.9 0  2 -0.9 0  2.05 -0.9 0  2.1 -0.9 0  2.15 -0.9 0  2.2 -0.9 0  2.25 -0.9 0  2.3 -0.9 0  2.35 -0.9 0  2.4 -0.9 0  2.45 -0.9 0  2.5 -0.9 0  2.55 -0.9 0  2.6 -0.9 0  2.65 -0.9 0  2.7 -0.9 0  2.75 -0.9 0  2.8 -0.9 0  2.85 -0.9 0  2.9 -0.9 0  2.95 -0.9 0  3 -0.9 0  3.050000000000001 -0.9 0  3.1 -0.9 0  3.15 -0.9 0  3.199999999999999 -0.9 0  3.25 -0.9 0  3.300000000000001 -0.9 0  3.35 -0.9 0  3.4 -0.9 0  3.449999999999999 -0.9 0  3.5 -0.9 0  3.550000000000001 -0.9 0  3.6 -0.9 0  3.65 -0.9 0  3.699999999999999 -0.9 0  3.75 -0.9 0  3.800000000000001 -0.9 0  3.85 -0.9 0  3.9 -0.9 0  3.949999999999999 -0.9 0  4 -0.9 0  4.050000000000001 -0.9 0  4.1 -0.9 0  4.15 -0.9 0  4.199999999999999 -0.9 0  4.25 -0.9 0  4.300000000000001 -0.9 0  4.35 -0.9 0  4.4 -0.9 0  4.449999999999999 -0.9 0  4.5 -0.9 0  4.550000000000001 -0.9 0  4.6 -0.9 0  4.65 -0.9 0  4.699999999999999 -0.9 0  4.75 -0.9 0  4.800000000000001 -0.9 0  4.85 -0.9 0  4.9 -0.9 0  4.949999999999999 -0.9 0  5 -0.9 0  -5 -0.85 0  -4.95 -0.85 0  -4.9 -0.85 0  -4.85 -0.85 0  -4.8 -0.85 0  -4.75 -0.85 0  -4.7 -0.85 0  -4.65 -0.85 0  -4.6 -0.85 0  -4.55 -0.85 0  -4.5 -0.85 0  -
[...]
<PointData  Vectors="f_15"> 
<DataArray  type="Float64"  Name="f_15"  NumberOfComponents="3" format="ascii">2.0147690542370804e+00 0.0000000000000000e+00 0.0000000000000000e+00  2.0147536992730295e+00 4.5362368230697420e-02 0.0000000000000000e+00  2.0146547854588128e+00 9.0616051189970195e-02 0.0000000000000000e+00  2.0145239251713067e+00 1.3599051461716230e-01 0.0000000000000000e+00  2.0143103939608711e+00 1.8123198628364176e-01 0.0000000000000000e+00  2.0140620535647651e+00 2.2654705433473019e-01 0.0000000000000000e+00  2.0137316916703765e+00 2.7174891219965397e-01 0.0000000000000000e+00  2.0133646816714603e+00 3.1698550930174962e-01 0.0000000000000000e+00  2.0129135382201522e+00 3.6212056268795217e-01 0.0000000000000000e+00  2.0124240690605872e+00 4.0725141487381894e-01 0.0000000000000000e+00  2.0118500495405764e+00 4.5229094279517112e-01 0.0000000000000000e+00  2.0112315650916655e+00 4.9729414236647113e-01 0.0000000000000000e+00  2.0105296107767345e+00 5.4220973329598554e-01 0.0000000000000000e+00  2.0097783198819750e+00 5.8704508332281125e-01 0.0000000000000000e+00  2.0089394834921457e+00 6.3181704213480594e-01 0.0000000000000000e+00  2.0080486930416028e+00 6.7646132741327392e-01 0.0000000000000000e+00  2.0070671650483272e+00 7.2101888906777400e-01 0.0000000000000000e+00  2.0060256289364147e+00 7.6548288620495564e-01 0.0000000000000000e+00  2.0048922066255450e+00 8.0976853685584227e-01 0.0000000000000000e+00  2.0036926440284200e+00 8.5399063943311104e-01 0.0000000000000000e+00  2.0023926506274239e+00 8.9800444136852653e-01 0.0000000000000000e+00  2.0010236596103756e+00 9.4192921285272790e-01 0.0000000000000000e+00  1.9995477943791742e+00 9.8558182236539404e-01 0.0000000000000000e+00  1.9979909497948880e+00 1.0292236777761936e+00 0.0000000000000000e+00  1.9963253913748624e+00 1.0724513799507405e+00 0.0000000000000000e+00  1.9945691836712882e+00 1.1156776017613634e+00 0.0000000000000000e+00  1.9926912725288313e+00 1.1585410512514929e+00 0.0000000000000000e+00  1.9907196389101929e+00 1.2012295936005306e+00 0.0000000000000000e+00  1.9886151583003637e+00 1.2436091498371062e+00 0.0000000000000000e+00  1.9864015958316033e+00 1.2858058835783222e+00 0.0000000000000000e+00  1.9840518299119294e+00 1.3275635814920430e+00 0.0000000000000000e+00  1.9815802005374830e+00 1.3691450403687584e+00 0.0000000000000000e+00  1.9789548387821938e+00 1.4102986394561250e+00 0.0000000000000000e+00  1.9762043705774845e+00 1.4511305954129938e+00 0.0000000000000000e+00  1.9732868262923640e+00 1.4915362457025880e+00 0.0000000000000000e+00  1.9702236839156562e+00 1.5316175366086029e+00 0.0000000000000000e+00  1.9669940723980386e+00 1.5711323004971300e+00 0.0000000000000000e+00  1.9636015397092412e+00 1.6103054734474089e+00 0.0000000000000000e+00  1.9600275186142397e+00 1.6489163369872115e+00 0.0000000000000000e+00  1.9562874157701760e+00 1.6870119756089488e+00 0.0000000000000000e+00  1.9523586855240496e+00 1.7245621644405049e+00 0.0000000000000000e+00  1.9482427162253122e+00 1.7615402254063386e+00 0.0000000000000000e+00  1.9439527922180402e+00 1.7978610330767040e+00 0.0000000000000000e+00  1.9394590753345651e+00 1.8335314869311352e+00 0.0000000000000000e+00  1.9347992711772259e+00 1.8685722398441971e+00 0.0000000000000000e+00  1.9299360696273320e+00 1.9027508316714177e+00 0.0000000000000000e+00  1.9249330922525449e+00 1.9363123475665340e+00 0.0000000000000000e+00  1.9197158288644300e+00 1.9688940335382155e+00 0.0000000000000000e+00  1.9144200838454615e+00 2.0007812046839146e+00 0.0000000000000000e+00  1.9089115150332472e+00 2.0315260826498274e+00 0.0000000000000000e+00  1.9034002803085763e+00 2.0615834608466379e+00 0.0000000000000000e+00  1.8977074742307536e+00 2.0901963960238241e+00 0.0000000000000000e+00  1.8921306294254612e+00 2.1181157421650156e+00 0.0000000000000000e+00  1.8864181508946396e+00 2.1442759990359961e+00 0.0000000000000000e+00  1.8810045280953893e+00 2.1696280547125579e+00 0.0000000000000000e+00  1.8755414162215884e+00 2.1927837802914554e+00 0.0000000000000000e+00  1.8706162312273793e+00 2.2150140677977488e+00 0.0000000000000000e+00  1.8657774922204462e+00 2.2344287662458613e+00 0.0000000000000000e+00  1.8617739059779141e+00 2.2527508348449756e+00 0.0000000000000000e+00  1.8579886593064432e+00 2.2676242418588397e+00 0.0000000000000000e+00  1.8553226381301648e+00 2.2813332810756597e+00 0.0000000000000000e+00  1.8528899972759583e+00 2.2911669009306830e+00 0.0000000000000000e+00  1.8516845226288576e+00 2.3002751420937617e+00 0.0000000000000000e+00  1.8504792599671609e+00 2.3055894932539673e+00 0.0000000000000000e+00  1.8503754076840988e+00 2.3111869969575749e+00 0.0000000000000000e+00  1.8498451001658343e+00 2.3135086061430066e+00 0.0000000000000000e+00  1.8502473668913324e+00 2.3172460787478752e+00 0.0000000000000000e+00  1.8498585820243167e+00 2.3180100939932706e+00 0.0000000000000000e+00  1.8503774779846613e+00 2.3210431319938447e+00 0.0000000000000000e+00  1.8498968952872890e+00 2.3210036608978166e+00 0.0000000000000000e+00  1.8504257802681823e+00 2.3237513276117108e+00 0.0000000000000000e+00  1.8498178221498167e+00 2.3232093363313191e+00 0.0000000000000000e+00  1.8503574860790679e+00 2.3258121388268025e+00 0.0000000000000000e+00  1.8496566776948911e+00 2.3248486195234008e+00 0.0000000000000000e+00  1.8502165123330425e+00 2.3273908913953183e+00 0.0000000000000000e+00  1.8494524582637628e+00 2.3260909553241360e+00 0.0000000000000000e+00  1.8500494777113270e+00 2.3285707457496172e+00 0.0000000000000000e+00  1.8492397057823258e+00 2.3270413665361529e+00 0.0000000000000000e+00  1.8498682031375917e+00 2.3294675382684487e+00 0.0000000000000000e+00  1.8490477036557984e+00 2.3277686021859880e+00 0.0000000000000000e+00  1.8496893040937967e+00 2.3301284453988957e+00 0.0000000000000000e+00  1.8488738211030937e+00 2.3283661859235778e+00 0.0000000000000000e+00  1.8495299576701834e+00 2.3306061736693873e+00 0.0000000000000000e+00  1.8487295842878448e+00 2.3288277921315892e+00 0.0000000000000000e+00  1.8493800292661302e+00 2.3309758200932666e+00 0.0000000000000000e+00  1.8486160854129465e+00 2.3292204249218318e+00 0.0000000000000000e+00  1.8492458986616613e+00 2.3311986265331823e+00 0.0000000000000000e+00  1.8485243487255418e+00 2.3295916639082579e+00 0.0000000000000000e+00  1.8491292130392278e+00 2.3313615484257313e+00 0.0000000000000000e+00  1.8484527258585963e+00 2.3298418893432067e+00 0.0000000000000000e+00  1.8490306757180601e+00 2.3315269668026768e+00 0.0000000000000000e+00  1.8483910531744989e+00 2.3300731086378819e+00 0.0000000000000000e+00  1.8489402759627342e+00 2.3315750508671527e+00 0.0000000000000000e+00  1.8483578182649212e+00 2.3303288970936231e+00 0.0000000000000000e+00  1.8488546567656567e+00 2.3316105314372431e+00 0.0000000000000000e+00  1.8483209367355085e+00 2.3304635864065433e+00 0.0000000000000000e+00  1.8488085282151701e+00 2.3317110605147295e+00 0.0000000000000000e+00  1.8482733904839315e+00 2.3305733224869218e+00 0.0000000000000000e+00  1.8487549764635338e+00 2.3317107833828232e+00 0.0000000000000000e+00  1.8482758549180496e+00 2.3307470915034236e+00 0.0000000000000000e+00  1.8486819426994210e+00 2.3316888309505028e+00 0.0000000000000000e+00  1.8482609349273396e+00 2.3308241724082976e+00 0.0000000000000000e+00  1.8486704862037664e+00 2.3317618475263111e+00 0.0000000000000000e+00  1.8482124402829008e+00 2.3308483487258322e+00 0.0000000000000000e+00  1.8486453966453391e+00 2.3317624387436404e+00 0.0000000000000000e+00  1.8482290076969139e+00 2.3309724846738331e+00 0.0000000000000000e+00  1.8485731064577324e+00 2.3316971028497955e+00 0.0000000000000000e+00  1.8482392932669409e+00 2.3310467047307553e+00 0.0000000000000000e+00  1.8485673864509018e+00 2.3317298631216103e+00 0.0000000000000000e+00  1.8481889497076502e+00 2.3310351351778689e+00 0.0000000000000000e+00  1.8485686904047371e+00 2.3317486797461093e+00 0.0000000000000000e+00  1.8481977615661553e+00 2.3311085012731452e+00 0.0000000000000000e+00  1.8485026062715992e+00 2.3316627245708341e+00 0.0000000000000000e+00  1.8482288789121801e+00 2.3312049510785853e+00 0.0000000000000000e+00  1.8484846309143987e+00 2.3316492001552325e+00 0.0000000000000000e+00  1.8481834318628700e+00 2.3311755870849176e+00 0.0000000000000000e+00  1.8485105061877141e+00 2.3316994418146848e+00 0.0000000000000000e+00  1.8481725234015072e+00 2.3311890686516610e+00 0.0000000000000000e+00  1.8484550904553518e+00 2.3316250595224211e+00 0.0000000000000000e+00  1.8482148931718225e+00 2.3312941100552336e+00 0.0000000000000000e+00  1.8484319412494206e+00 2.3315776500492675e+00 0.0000000000000000e+00  1.8481699460481553e+00 2.3312562517556401e+00 0.0000000000000000e+00  1.8484707684635282e+00 2.3316425285522753e+00 0.0000000000000000e+00  1.8481483596176926e+00 2.3312589041262570e+00 0.0000000000000000e+00  1.8484281112338787e+00 2.3315457689669370e+00 0.0000000000000000e+00  1.8481832870179578e+00 2.3313577988299583e+00 0.0000000000000000e+00  1.8484178061813565e+00 2.3315320094851644e+00 0.0000000000000000e+00  1.8481285653979564e+00 2.3312657234737499e+00 0.0000000000000000e+00  1.8484600621045959e+00 2.3316196844036452e+00 0.0000000000000000e+00  1.8481153805367894e+00 2.3312443551207798e+00 0.0000000000000000e+00  1.8484202992746299e+00 2.3315638059083992e+00 0.0000000000000000e+00  1.8481262385992969e+00 2.3312678443182748e+00 0.0000000000000000e+00  1.8484435821434235e+00 2.3315955601532541e+00 0.0000000000000000e+00  1.8480603481878850e+00 2.3312094798531757e+00 0.0000000000000000e+00  1.8484754634470899e+00 2.3315205040042963e+00 0.0000000000000000e+00  1.8480559255103965e+00 2.3314315866591433e+00 0.0000000000000000e+00  1.8484448981089330e+00 2.3312056542477326e+00 0.0000000000000000e+00  1.8480572415904639e+00 2.3316509113708670e+00 0.0000000000000000e+00  1.8484603423719024e+00 2.3311154053121026e+00 0.0000000000000000e+00  1.8480115633032097e+00 2.3316119199292400e+00 0.0000000000000000e+00  1.8484765296163639e+00 2.3311575817593524e+00 0.0000000000000000e+00  1.8480157064689211e+00 2.3315397720293962e+00 0.0000000000000000e+00  1.8484282088743873e+00 2.3312180873326587e+00 0.0000000000000000e+00  1.8480502814384416e+00 2.3314309174511956e+00 0.0000000000000000e+00  1.8483992561563918e+00 2.3313244811958977e+00 0.0000000000000000e+00  1.8480377106035808e+00 2.3312797228485715e+00 0.0000000000000000e+00  1.8484028450679815e+00 2.3314637002671716e+00 0.0000000000000000e+00  1.8480297954951168e+00 2.3311323471949437e+00 0.0000000000000000e+00  1.8483675266606283e+00 2.3314830793560679e+00 0.0000000000000000e+00  1.8480783859293610e+00 2.3311607407802932e+00 0.0000000000000000e+00  1.8482924092039839e+00 2.3313497248252713e+00 0.0000000000000000e+00  1.8481318351768896e+00 2.3311998915031724e+00 0.0000000000000000e+00  1.8482654089066102e+00 2.3313156935066037e+00 0.0000000000000000e+00  1.8481092834635993e+00 2.3311453193326170e+00 0.0000000000000000e+00  1.8482315058374923e+00 2.3313683718580571e+00 0.0000000000000000e+00  1.8480664254294605e+00 2.3312441545633180e+00 0.0000000000000000e+00  1.8479936627037115e+00 2.3314350518593665e+00 0.0000000000000000e+00  1.8479376111288179e+00 2.3316161020962083e+00 0.0000000000000000e+00  1.8476987498173987e+00 2.3315497242875449e+00 0.0000000000000000e+00  1.8476858295825243e+00 2.3316375892433330e+00 0.0000000000000000e+00  1.8477618317687317e+00 2.3315081377130542e+00 0.0000000000000000e+00  1.8477490713704889e+00 2.3305629035663662e+00 0.0000000000000000e+00  1.8483037806142484e+00 2.3308087560110580e+00 0.0000000000000000e+00  1.8481830120792710e+00 2.3289830655088237e+00 0.0000000000000000e+00  1.8487867983637603e+00 2.3298530167482068e+00 0.0000000000000000e+00  1.8484882820867934e+00 2.3284863418277215e+00 0.0000000000000000e+00  1.8483245281003959e+00 2.3281834498107838e+00 0.0000000000000000e+00  1.8496287113100822e+00 2.3308294440792703e+00 0.0000000000000000e+00  1.8460925132426851e+00 2.3226178977220715e+00 0.0000000000000000e+00  1.8547087774674036e+00 2.3342096343697598e+00 0.0000000000000000e+00  1.8330767093100124e+00 2.3331602615770008e+00 0.0000000000000000e+00  1.8661056631107968e+00 2.3310978456172764e+00 0.0000000000000000e+00  2.3180084797968181e+00 1.2486055689498750e+00 0.0000000000000000e+00  2.8218076517535211e+00 2.5443162812629649e-01 0.0000000000000000e+00  2.9702894617559505e+00 1.5637037160751505e-02 0.0000000000000000e+00  2.9660454200837854e+00 5.6770192169765098e-03 0.0000000000000000e+00  2.9657606969352814e+00 -2.3558089366021531e-03 0.0000000000000000e+00  2.9724769641331665e+00 -8.0988228382696849e-03 0.0000000000000000e+00  2.9709838646674487e+00 -6.3748499797018424e-03 0.0000000000000000e+00  2.9717249424563219e+00 -9.0517787836091757e-03 0.0000000000000000e+00  2.9727764860151300e+00 -1.0695966031724562e-02 0.0000000000000000e+00  2.9720605408129215e+00 -8.8440124292935521e-03 0.0000000000000000e+00  2.9713990301064150e+00 -8.5820035326999704e-03 0.0000000000000000e+00  2.9719267899104262e+00 -8.6606817963235747e-03 0.0000000000000000e+00  2.9717478577309837e+00 -9.2582347181607884e-03 0.0000000000000000e+00  2.9720311972725812e+00 -9.0000035900243015e-03 0.0000000000000000e+00  2.9716510169595103e+00 -8.8761427043987946e-03 0.0000000000000000e+00  2.9718550518959459e+00 -8.9732624127110989e-03 0.0000000000000000e+00  2.9715956145838827e+00 -8.9256155336244047e-03 0.0000000000000000e+00  2.9718894689547475e+00 -8.6842511758573986e-03 0.0000000000000000e+00  2.9715941454653136e+00 -9.2615597290507529e-03 0.0000000000000000e+00  2.9718447864714337e+00 -8.7219176692865403e-03 0.0000000000000000e+00  2.9715744577266929e+00 -8.8285492762618691e-03 0.0000000000000000e+00  2.9717829579555657e+00 -9.7125548940415144e-03 0.0000000000000000e+00  2.9716122164858976e+00 -8.5318300717622114e-03 0.0000000000000000e+00  2.9717287785823738e+00 -9.6474907802758074e-03 0.0000000000000000e+00  2.9716335123451421e+00 -9.7590453554842419e-03 0.0000000000000000e+00  2.9717018372715587e+00 -8.5932974191453067e-03 0.0000000000000000e+00  2.9716256423907228e+00 -1.4852587318842765e-02 0.0000000000000000e+00  2.9716795566497196e+00 -1.0153310861875648e-02 0.0000000000000000e+00  2.9716423738301860e+00 0.0000000000000000e+00 0.0000000000000000e+00  2.0147784467114924e+00 0.0000000000000000e+00 -3.2752742979046634e-05  2.0147507364161115e+00 4.5323721278381100e-02 6.0384735774598415e-06  2.0146635267787549e+00 9.0666145967881667e-02 9.6322788708820737e-06  2.0145200226000566e+00 1.3596956825738535e-01 -2.8923921231509963e-06  2.0143175744654780e+00 1.8126076166191335e-01 1.2912523278037443e-06  2.0140573343373820e+00 2.2653525414832240e-01 1.1725820134378827e-06  2.0137384887679706e+00 2.7176883576488930e-01 -8.6834527011340449e-07  2.0133584975298553e+00 3.1697848816125707e-01 1.3274470824141348e-06  2.0129200052149141e+00 3.6213175386791274e-01 -5.4565394878612614e-07  2.0124184612498408e+00 4.0724823152549505e-01 1.4423819997838189e-06  2.0118547226154333e+00 4.5229976386172344e-01 -1.8660736340411585e-06  2.0112269109031722e+00 4.9729371556757651e-01 4.2605266936806031e-06  2.0105347747101634e+00 5.4220689256658339e-01 -6.9908551394101480e-06  2.0097724923516105e+00 5.8706234676315616e-01 1.1801274429001048e-05  2.0089458642676625e+00 6.3180164906611613e-01 -1.6389199054390838e-05  2.0080439801280736e+00 6.7647275931153017e-01 2.0642195385972504e-05  2.0070722376122259e+00 7.2102630135961865e-01 -2.2094477824326718e-05  2.0060227932824164e+00 7.6547119561912003e-01 2.0505414555481330e-05  2.0048984821086324e+00 8.0978066309325503e-01 -1.5419548908158404e-05  2.0036887526104672e+00 8.5399015456050675e-01 8.1145297641325106e-06  2.0024005170518508e+00 8.9801260421761975e-01 -4.1386958554510309e-07  2.0010222349880373e+00 9.4189767713047434e-01 -6.6109777422652457e-06  1.9995529568980182e+00 9.8564972467093670e-01 1.1253775978574723e-05  1.9979926744557512e+00 1.0291408962439508e+00 -1.3342635016999254e-05  1.9963322683173437e+00 1.0725139736012745e+00 1.0556795762770030e-05  1.9945678456963380e+00 1.1156552713979222e+00 -4.4534841437861418e-06  1.9927018476506131e+00 1.1585329690520332e+00 -4.2492784462239302e-06  1.9907193022226197e+00 1.2012254863234180e+00 1.0111272879796017e-05  1.9886225470077112e+00 1.2436388469093633e+00 -1.3057183964503235e-05  1.9864044017393234e+00 1.2857534096776289e+00 1.1585069658384585e-05  1.9840606024099321e+00 1.3275920180601735e+00 -1.0499628973219716e-05  1.9815782207469115e+00 1.3691412293883145e+00 9.0325465209883016e-06  1.9789670360091491e+00 1.4102795924488487e+00 -9.9149534327713933e-06  1.9762035552664958e+00 1.4511233969989457e+00 9.6421150172032440e-06  1.9732924474168183e+00 1.4915644894671933e+00 -1.0328293531011319e-05  1.9702271935579887e+00 1.5315679168195175e+00 8.7591462631932196e-06  1.9669994693310815e+00 1.5711575621378440e+00 -8.2740424684882757e-06  1.9635988184773203e+00 1.6103040360494021e+00 6.9838746132124641e-06  1.9600360971795407e+00 1.6488909469545694e+00 -8.8804394409171940e-06  1.9562863349738504e+00 1.6870219405403570e+00 9.2838545715191014e-06  1.9523590170998881e+00 1.7245686225792813e+00 -9.2664814593884645e-06  1.9482484884328075e+00 1.7615161269271560e+00 5.0942815536441516e-06  1.9439514191779121e+00 1.7978534268723707e+00 -3.1947339936107464e-06  1.9394624018579951e+00 1.8335602884266766e+00 1.6828685539179812e-06  1.9347986163349036e+00 1.8685156762145148e+00 -2.6367766874192548e-06  1.9299444739082194e+00 1.9027873006109863e+00 8.1394175784631394e-07  1.9249204755673912e+00 1.9362764043703076e+00 3.1068446280240470e-07  1.9197333322562944e+00 1.9689251016407561e+00 -2.7960263333090024e-06  1.9143987823316551e+00 2.0007279757850931e+00 3.9293356496015440e-06  1.9089298886479757e+00 2.0316108294593880e+00 -6.6019505472216812e-06  1.9033712875956923e+00 2.0614830286925052e+00 6.7444725576791187e-06  1.8977341033595747e+00 2.0903191571814972e+00 -7.8449414098344746e-06  1.8920831123355712e+00 2.1180103460043087e+00 7.7687187200657272e-06  1.8864568591327830e+00 2.1444270046100260e+00 -1.0476798869836069e-05  1.8809387935416093e+00 2.1694847358136324e+00 1.1809360533925719e-05  1.8755890880969384e+00 2.1930100047168706e+00 -1.6243343342872407e-05  1.8705325990084616e+00 2.2148140590562417e+00 1.9339084766009637e-05  1.8658448818268480e+00 2.2347067049974387e+00 -2.3564056453827578e-05  1.8616688287722369e+00 2.2525016656747927e+00 2.6494887413629394e-05  1.8580845799299253e+00 2.2679498586493883e+00 -2.8655848071629340e-05  1.8551976455881325e+00 2.2810039209535384e+00 3.4713749104591262e-05  1.8530159917694642e+00 2.2915730841455946e+00 -3.6043738791771860e-05  1.8515400345753292e+00 2.2998531296010660e+00 4.3200272434904239e-05  1.8506413166529574e+00 2.3060501613669411e+00 -4.6029376795398914e-05  1.8502029717877480e+00 2.3106959899671251e+00 4.8881392629900429e-05  1.8500389238355761e+00 2.3140468835755281e+00 -5.3449108125311245e-05  1.8500369131697305e+00 2.3166729835387772e+00 5.2057353912869415e-05  1.8500735342700514e+00 2.3186744277165330e+00 -5.6224335192114769e-05  1.8501265917594261e+00 2.3203929965707375e+00 5.5245083886751587e-05  1.8501428717395862e+00 2.3217526078391741e+00 -5.5022705022209432e-05  1.8501426036192907e+00 2.3230342095900278e+00 5.2967995820919055e-05  1.8501028414038236e+00 2.3240179154016416e+00 -4.8127749156720073e-05  1.8500571587596351e+00 2.3249849039232080e+00 4.2845467785213601e-05  1.8499701868129252e+00 2.3257429970746504e+00 -3.5186669577515298e-05  1.8498982861363473e+00 2.3264687451827770e+00 2.6656708594122496e-05  1.8497927031189410e+00 2.3270443238453100e+00 -1.6169652262794094e-05  1.8497050712571257e+00 2.3276028702400544e+00 3.2308557151058916e-06  1.8495929801741766e+00 2.3280507929752052e+00 1.0419980274579713e-05  1.8495149836008813e+00 2.3284480939497736e+00 -2.7209724791337170e-05  1.8493958619979622e+00 2.3288262473495438e+00 4.4124649023454059e-05  1.8493315582968348e+00 2.3290987775999157e+00 -6.3529639344065490e-05  1.8492231779611650e+00 2.3294198299256865e+00 8.1899167534364958e-05  1.8491663795135120