<?xml version="1.0"?>
<VTKFile type="UnstructuredGrid"  version="0.1"  >
<UnstructuredGrid>
<Piece  NumberOfPoints="8241" NumberOfCells="16000">
<Points>
<DataArray  type="Float64"  NumberOfComponents="3"  format="ascii">-5 -1 0  -4.95 -1 0  -4.9 -1 0  -4.85 -1 0  -4.8 -1 0  -4.75 -1 0  -4.7 -1 0  -4.65 -1 0  -4.6 -1 0  -4.55 -1 0  -4.5 -1 0  -4.45 -1 0  -4.4 -1 0  -4.35 -1 0  -4.3 -1 0  -4.25 -1 0  -4.2 -1 0  -4.15 -1 0  -4.1 -1 0  -4.05 -1 0  -4 -1 0  -3.95 -1 0  -3.9 -1 0  -3.85 -1 0  -3.8 -1 0  -3.75 -1 0  -3.7 -1 0  -3.65 -1 0  -3.6 -1 0  -3.55 -1 0  -3.5 -1 0  -3.45 -1 0  -3.4 -1 0  -3.35 -1 0  -3.3 -1 0  -3.25 -1 0  -3.2 -1 0  -3.15 -1 0  -3.1 -1 0  -3.05 -1 0  -3 -1 0  -2.95 -1 0  -2.9 -1 0  -2.85 -1 0  -2.8 -1 0  -2.75 -1 0  -2.7 -1 0  -2.65 -1 0  -2.6 -1 0  -2.55 -1 0  -2.5 -1 0  -2.45 -1 0  -2.4 -1 0  -2.35 -1 0  -2.3 -1 0  -2.25 -1 0  -2.2 -1 0  -2.15 -1 0  -2.1 -1 0  -2.05 -1 0  -2 -1 0  -1.95 -1 0  -1.9 -1 0  -1.85 -1 0  -1.8 -1 0  -1.75 -1 0  -1.7 -1 0  -1.65 -1 0  -1.6 -1 0  -1.55 -1 0  -1.5 -1 0  -1.45 -1 0  -1.4 -1 0  -1.35 -1 0  -1.3 -1 0  -1.25 -1 0  -1.2 -1 0  -1.15 -1 0  -1.1 -1 0  -1.05 -1 0  -1 -1 0  -0.9500000000000002 -1 0  -0.9000000000000004 -1 0  -0.8499999999999996 -1 0  -0.7999999999999998 -1 0  -0.75 -1 0  -0.7000000000000002 -1 0  -0.6500000000000004 -1 0  -0.5999999999999996 -1 0  -0.5499999999999998 -1 0  -0.5 -1 0  -0.4500000000000002 -1 0  -0.4000000000000004 -1 0  -0.3499999999999996 -1 0  -0.2999999999999998 -1 0  -0.25 -1 0  -0.2000000000000002 -1 0  -0.1500000000000004 -1 0  -0.09999999999999964 -1 0  -0.04999999999999982 -1 0  0 -1 0  0.04999999999999982 -1 0  0.09999999999999964 -1 0  0.1500000000000004 -1 0  0.2000000000000002 -1 0  0.25 -1 0  0.2999999999999998 -1 0  0.3499999999999996 -1 0  0.4000000000000004 -1 0  0.4500000000000002 -1 0  0.5 -1 0  0.5499999999999998 -1 0  0.5999999999999996 -1 0  0.6500000000000004 -1 0  0.7000000000000002 -1 0  0.75 -1 0  0.7999999999999998 -1 0  0.8499999999999996 -1 0  0.9000000000000004 -1 0  0.9500000000000002 -1 0  1 -1 0  1.05 -1 0  1.1 -1 0  1.15 -1 0  1.2 -1 0  1.25 -1 0  1.3 -1 0  1.35 -1 0  1.4 -1 0  1.45 -1 0  1.5 -1 0  1.55 -1 0  1.6 -1 0  1.65 -1 0  1.7 -1 0  1.75 -1 0  1.8 -1 0  1.85 -1 0  1.9 -1 0  1.95 -1 0  2 -1 0  2.05 -1 0  2.1 -1 0  2.15 -1 0  2.2 -1 0  2.25 -1 0  2.3 -1 0  2.35 -1 0  2.4 -1 0  2.45 -1 0  2.5 -1 0  2.55 -1 0  2.6 -1 0  2.65 -1 0  2.7 -1 0  2.75 -1 0  2.8 -1 0  2.85 -1 0  2.9 -1 0  2.95 -1 0  3 -1 0  3.050000000000001 -1 0  3.1 -1 0  3.15 -1 0  3.199999999999999 -1 0  3.25 -1 0  3.300000000000001 -1 0  3.35 -1 0  3.4 -1 0  3.449999999999999 -1 0  3.5 -1 0  3.550000000000001 -1 0  3.6 -1 0  3.65 -1 0  3.699999999999999 -1 0  3.75 -1 0  3.800000000000001 -1 0  3.85 -1 0  3.9 -1 0  3.949999999999999 -1 0  4 -1 0  4.050000000000001 -1 0  4.1 -1 0  4.15 -1 0  4.199999999999999 -1 0  4.25 -1 0  4.300000000000001 -1 0  4.35 -1 0  4.4 -1 0  4.449999999999999 -1 0  4.5 -1 0  4.550000000000001 -1 0  4.6 -1 0  4.65 -1 0  4.699999999999999 -1 0  4.75 -1 0  4.800000000000001 -1 0  4.85 -1 0  4.9 -1 0  4.949999999999999 -1 0  5 -1 0  -5 -0.95 0  -4.95 -0.95 0  -4.9 -0.95 0  -4.85 -0.95 0  -4.8 -0.95 0  -4.75 -0.95 0  -4.7 -0.95 0  -4.65 -0.95 0  -4.6 -0.95 0  -4.55 -0.95 0  -4.5 -0.95 0  -4.45 -0.95 0  -4.4 -0.95 0  -4.35 -0.95 0  -4.3 -0.95 0  -4.25 -0.95 0  -4.2 -0.95 0  -4.15 -0.95 0  -4.1 -0.95 0  -4.05 -0.95 0  -4 -0.95 0  -3.95 -0.95 0  -3.9 -0.95 0  -3.85 -0.95 0  -3.8 -0.95 0  -3.75 -0.95 0  -3.7 -0.95 0  -3.65 -0.95 0  -3.6 -0.95 0  -3.55 -0.95 0  -3.5 -0.95 0  -3.45 -0.95 0  -3.4 -0.95 0  -3.35 -0.95 0  -3.3 -0.95 0  -3.25 -0.95 0  -3.2 -0.95 0  -3.15 -0.95 0  -3.1 -0.95 0  -3.05 -0.95 0  -3 -0.95 0  -2.95 -0.95 0  -2.9 -0.95 0  -2.85 -0.95 0  -2.8 -0.95 0  -2.75 -0.95 0  -2.7 -0.95 0  -2.65 -0.95 0  -2.6 -0.95 0  -2.55 -0.95 0  -2.5 -0.95 0  -2.45 -0.95 0  -2.4 -0.95 0  -2.35 -0.95 0  -2.3 -0.95 0  -2.25 -0.95 0  -2.2 -0.95 0  -2.15 -0.95 0  -2.1 -0.95 0  -2.05 -0.95 0  -2 -0.95 0  -1.95 -0.95 0  -1.9 -0.95 0  -1.85 -0.95 0  -1.8 -0.95 0  -1.75 -0.95 0  -1.7 -0.95 0  -1.65 -0.95 0  -1.6 -0.95 0  -1.55 -0.95 0  -1.5 -0.95 0  -1.45 -0.95 0  -1.4 -0.95 0  -1.35 -0.95 0  -1.3 -0.95 0  -1.25 -0.95 0  -1.2 -0.95 0  -1.15 -0.95 0  -1.1 -0.95 0  -1.05 -0.95 0  -1 -0.95 0  -0.9500000000000002 -0.95 0  -0.9000000000000004 -0.95 0  -0.8499999999999996 -0.95 0  -0.7999999999999998 -0.95 0  -0.75 -0.95 0  -0.7000000000000002 -0.95 0  -0.6500000000000004 -0.95 0  -0.5999999999999996 -0.95 0  -0.5499999999999998 -0.95 0  -0.5 -0.95 0  -0.4500000000000002 -0.95 0  -0.4000000000000004 -0.95 0  -0.3499999999999996 -0.95 0  -0.2999999999999998 -0.95 0  -0.25 -0.95 0  -0.2000000000000002 -0.95 0  -0.1500000000000004 -0.95 0  -0.09999999999999964 -0.95 0  -0.04999999999999982 -0.95 0  0 -0.95 0  0.04999999999999982 -0.95 0  0.09999999999999964 -0.95 0  0.1500000000000004 -0.95 0  0.2000000000000002 -0.95 0  0.25 -0.95 0  0.2999999999999998 -0.95 0  0.3499999999999996 -0.95 0  0.4000000000000004 -0.95 0  0.4500000000000002 -0.95 0  0.5 -0.95 0  0.5499999999999998 -0.95 0  0.5999999999999996 -0.95 0  0.6500000000000004 -0.95 0  0.7000000000000002 -0.95 0  0.75 -0.95 0  0.7999999999999998 -0.95 0  0.8499999999999996 -0.95 0  0.9000000000000004 -0.95 0  0.9500000000000002 -0.95 0  1 -0.95 0  1.05 -0.95 0  1.1 -0.95 0  1.15 -0.95 0  1.2 -0.95 0  1.25 -0.95 0  1.3 -0.95 0  1.35 -0.95 0  1.4 -0.95 0  1.45 -0.95 0  1.5 -0.95 0  1.55 -0.95 0  1.6 -0.95 0  1.65 -0.95 0  1.7 -0.95 0  1.75 -0.95 0  1.8 -0.95 0  1.85 -0.95 0  1.9 -0.95 0  1.95 -0.95 0  2 -0.95 0  2.05 -0.95 0  2.1 -0.95 0  2.15 -0.95 0  2.2 -0.95 0  2.25 -0.95 0  2.3 -0.95 0  2.35 -0.95 0  2.4 -0.95 0  2.45 -0.95 0  2.5 -0.95 0  2.55 -0.95 0  2.6 -0.95 0  2.65 -0.95 0  2.7 -0.95 0  2.75 -0.95 0  2.8 -0.95 0  2.85 -0.95 0  2.9 -0.95 0  2.95 -0.95 0  3 -0.95 0  3.050000000000001 -0.95 0  3.1 -0.95 0  3.15 -0.95 0  3.199999999999999 -0.95 0  3.25 -0.95 0  3.300000000000001 -0.95 0  3.35 -0.95 0  3.4 -0.95 0  3.449999999999999 -0.95 0  3.5 -0.95 0  3.550000000000001 -0.95 0  3.6 -0.95 0  3.65 -0.95 0  3.699999999999999 -0.95 0  3.75 -0.95 0  3.800000000000001 -0.95 0  3.85 -0.95 0  3.9 -0.95 0  3.949999999999999 -0.95 0  4 -0.95 0  4.050000000000001 -0.95 0  4.1 -0.95 0  4.15 -0.95 0  4.199999999999999 -0.95 0  4.25 -0.95 0  4.300000000000001 -0.95 0  4.35 -0.95 0  4.4 -0.95 0  4.449999999999999 -0.95 0  4.5 -0.95 0  4.550000000000001 -0.95 0  4.6 -0.95 0  4.65 -0.95 0  4.699999999999999 -0.95 0  4.75 -0.95 0  4.800000000000001 -0.95 0  4.85 -0.95 0  4.9 -0.95 0  4.949999999999999 -0.95 0  5 -0.95 0  -5 -0.9 0  -4.95 -0.9 0  -4.9 -0.9 0  -4.85 -0.9 0  -4.8 -0.9 0  -4.75 -0.9 0  -4.7 -0.9 0  -4.65 -0.9 0  -4.6 -0.9 0  -4.55 -0.9 0  -4.5 -0.9 0  -4.45 -0.9 0  -4.4 -0.9 0  -4.35 -0.9 0  -4.3 -0.9 0  -4.25 -0.9 0  -4.2 -0.9 0  -4.15 -0.9 0  -4.1 -0.9 0  -4.05 -0.9 0  -4 -0.9 0  -3.95 -0.9 0  -3.9 -0.9 0  -3.85 -0.9 0  -3.8 -0.9 0  -3.75 -0.9 0  -3.7 -0.9 0  -3.65 -0.9 0  -3.6 -0.9 0  -3.55 -0.9 0  -3.5 -0.9 0  -3.45 -0.9 0  -3.4 -0.9 0  -3.35 -0.9 0  -3.3 -0.9 0  -3.25 -0.9 0  -3.2 -0.9 0  -3.15 -0.9 0  -3.1 -0.9 0  -3.05 -0.9 0  -3 -0.9 0  -2.95 -0.9 0  -2.9 -0.9 0  -2.85 -0.9 0  -2.8 -0.9 0  -2.75 -0.9 0  -2.7 -0.9 0  -2.65 -0.9 0  -2.6 -0.9 0  -2.55 -0.9 0  -2.5 -0.9 0  -2.45 -0.9 0  -2.4 -0.9 0  -2.35 -0.9 0  -2.3 -0.9 0  -2.25 -0.9 0  -2.2 -0.9 0  -2.15 -0.9 0  -2.1 -0.9 0  -2.05 -0.9 0  -2 -0.9 0  -1.95 -0.9 0  -1.9 -0.9 0  -1.85 -0.9 0  -1.8 -0.9 0  -1.75 -0.9 0  -1.7 -0.9 0  -1.65 -0.9 0  -1.6 -0.9 0  -1.55 -0.9 0  -1.5 -0.9 0  -1.45 -0.9 0  -1.4 -0.9 0  -1.35 -0.9 0  -1.3 -0.9 0  -1.25 -0.9 0  -1.2 -0.9 0  -1.15 -0.9 0  -1.1 -0.9 0  -1.05 -0.9 0  -1 -0.9 0  -0.9500000000000002 -0.9 0  -0.9000000000000004 -0.9 0  -0.8499999999999996 -0.9 0  -0.7999999999999998 -0.9 0  -0.75 -0.9 0  -0.7000000000000002 -0.9 0  -0.6500000000000004 -0.9 0  -0.5999999999999996 -0.9 0  -0.5499999999999998 -0.9 0  -0.5 -0.9 0  -0.4500000000000002 -0.9 0  -0.4000000000000004 -0.9 0  -0.3499999999999996 -0.9 0  -0.2999999999999998 -0.9 0  -0.25 -0.9 0  -0.2000000000000002 -0.9 0  -0.1500000000000004 -0.9 0  -0.09999999999999964 -0.9 0  -0.04999999999999982 -0.9 0  0 -0.9 0  0.04999999999999982 -0.9 0  0.09999999999999964 -0.9 0  0.1500000000000004 -0.9 0  0.2000000000000002 -0.9 0  0.25 -0.9 0  0.2999999999999998 -0.9 0  0.3499999999999996 -0.9 0  0.4000000000000004 -0.9 0  0.4500000000000002 -0.9 0  0.5 -0.9 0  0.5499999999999998 -0.9 0  0.5999999999999996 -0.9 0  0.6500000000000004 -0.9 0  0.7000000000000002 -0.9 0  0.75 -0.9 0  0.7999999999999998 -0.9 0  0.8499999999999996 -0.9 0  0.9000000000000004 -0.9 0  0.9500000000000002 -0.9 0  1 -0.9 0  1.05 -0.9 0  1.1 -0.9 0  1.15 -0.9 0  1.2 -0.9 0  1.25 -0.9 0  1.3 -0.9 0  1.35 -0.9 0  1.4 -0.9 0  1.45 -0.9 0  1.5 -0.9 0  1.55 -0.9 0  1.6 -0.9 0  1.65 -0.9 0  1.7 -0.9 0  1.75 -0.9 0  1.8 -0.9 0  1.85 -0.9 0  1.9 -0.9 0  1.95 -0.9 0  2 -0.9 0  2.05 -0.9 0  2.1 -0.9 0  2.15 -0.9 0  2.2 -0.9 0  2.25 -0.9 0  2.3 -0.9 0  2.35 -0.9 0  2.4 -0.9 0  2.45 -0.9 0  2.5 -0.9 0  2.55 -0.9 0  2.6 -0.9 0  2.65 -0.9 0  2.7 -0.9 0  2.75 -0.9 0  2.8 -0.9 0  2.85 -0.9 0  2.9 -0.9 0  2.95 -0.9 0  3 -0.9 0  3.050000000000001 -0.9 0  3.1 -0.9 0  3.15 -0.9 0  3.199999999999999 -0.9 0  3.25 -0.9 0  3.300000000000001 -0.9 0  3.35 -0.9 0  3.4 -0.9 0  3.449999999999999 -0.9 0  3.5 -0.9 0  3.550000000000001 -0.9 0  3.6 -0.9 0  3.65 -0.9 0  3.699999999999999 -0.9 0  3.75 -0.9 0  3.800000000000001 -0.9 0  3.85 -0.9 0  3.9 -0.9 0  3.949999999999999 -0.9 0  4 -0.9 0  4.050000000000001 -0.9 0  4.1 -0.9 0  4.15 -0.9 0  4.199999999999999 -0.9 0  4.25 -0.9 0  4.300000000000001 -0.9 0  4.35 -0.9 0  4.4 -0.9 0  4.449999999999999 -0.9 0  4.5 -0.9 0  4.550000000000001 -0.9 0  4.6 -0.9 0  4.65 -0.9 0  4.699999999999999 -0.9 0  4.75 -0.9 0  4.800000000000001 -0.9 0  4.85 -0.9 0  4.9 -0.9 0  4.949999999999999 -0.9 0  5 -0.9 0  -5 -0.85 0  -4.95 -0.85 0  -4.9 -0.85 0  -4.85 -0.85 0  -4.8 -0.85 0  -4.75 -0.85 0  -4.7 -0.85 0  -4.65 -0.85 0  -4.6 -0.85 0  -4.55 -0.85 0  -4.5 -0.85 0  -
[...]
<PointData  Vectors="f_15"> 
<DataArray  type="Float64"  Name="f_15"  NumberOfComponents="3" format="ascii">1.5274348343874038e+00 0.0000000000000000e+00 0.0000000000000000e+00  1.5269059595069647e+00 3.4362652675712785e-02 0.0000000000000000e+00  1.5273765279226412e+00 7.2837841460538955e-02 0.0000000000000000e+00  1.5268975680191044e+00 1.0596624123067913e-01 0.0000000000000000e+00  1.5273014525299573e+00 1.4366201518166127e-01 0.0000000000000000e+00  1.5268544761364551e+00 1.7767746823539218e-01 0.0000000000000000e+00  1.5272210606096153e+00 2.1461184381329682e-01 0.0000000000000000e+00  1.5268088391024439e+00 2.4904101319210054e-01 0.0000000000000000e+00  1.5271099608451124e+00 2.8575826094268059e-01 0.0000000000000000e+00  1.5267721932297467e+00 3.2031609249074344e-01 0.0000000000000000e+00  1.5269880582799298e+00 3.5682352523296301e-01 0.0000000000000000e+00  1.5267079668148820e+00 3.9154345165491483e-01 0.0000000000000000e+00  1.5268825523310157e+00 4.2788571058268488e-01 0.0000000000000000e+00  1.5266263344489082e+00 4.6261231112960649e-01 0.0000000000000000e+00  1.5267575144775685e+00 4.9886321524562166e-01 0.0000000000000000e+00  1.5265641433166610e+00 5.3365729135037931e-01 0.0000000000000000e+00  1.5266215776429457e+00 5.6963313313766728e-01 0.0000000000000000e+00  1.5264823008476041e+00 6.0456939041622637e-01 0.0000000000000000e+00  1.5265261367453165e+00 6.4037482886242880e-01 0.0000000000000000e+00  1.5263851816003915e+00 6.7517713609997665e-01 0.0000000000000000e+00  1.5264316846739849e+00 7.1097267605025827e-01 0.0000000000000000e+00  1.5263398340527459e+00 7.4570286420907550e-01 0.0000000000000000e+00  1.5263362553240145e+00 7.8119858083072236e-01 0.0000000000000000e+00  1.5263125326880358e+00 8.1601333033632484e-01 0.0000000000000000e+00  1.5263201140369886e+00 8.5129576915314464e-01 0.0000000000000000e+00  1.5262984918541249e+00 8.8586131621077058e-01 0.0000000000000000e+00  1.5263590959696209e+00 9.2108771736481609e-01 0.0000000000000000e+00  1.5263941109110533e+00 9.5546863324056530e-01 0.0000000000000000e+00  1.5264474002086170e+00 9.9031535049305863e-01 0.0000000000000000e+00  1.5265955126768824e+00 1.0246392139356166e+00 0.0000000000000000e+00  1.5266985617931388e+00 1.0591283868099217e+00 0.0000000000000000e+00  1.5269064025052286e+00 1.0930634839937607e+00 0.0000000000000000e+00  1.5271397471404644e+00 1.1273065829479936e+00 0.0000000000000000e+00  1.5274662729617587e+00 1.1608070928368803e+00 0.0000000000000000e+00  1.5278006823535812e+00 1.1944410149922575e+00 0.0000000000000000e+00  1.5283514191901453e+00 1.2275681356680805e+00 0.0000000000000000e+00  1.5288666812441538e+00 1.2604593500618324e+00 0.0000000000000000e+00  1.5296465975472477e+00 1.2927848200010621e+00 0.0000000000000000e+00  1.5304965789230942e+00 1.3248957868845208e+00 0.0000000000000000e+00  1.5316178765768917e+00 1.3561379704920293e+00 0.0000000000000000e+00  1.5328778722895997e+00 1.3869384136145413e+00 0.0000000000000000e+00  1.5345473161541026e+00 1.4168800810555617e+00 0.0000000000000000e+00  1.5363973993753881e+00 1.4459316575510988e+00 0.0000000000000000e+00  1.5387542889765586e+00 1.4738912488320828e+00 0.0000000000000000e+00  1.5414569963086941e+00 1.5008513933384502e+00 0.0000000000000000e+00  1.5446958000984938e+00 1.5263094108296673e+00 0.0000000000000000e+00  1.5483852323776686e+00 1.5506038717447455e+00 0.0000000000000000e+00  1.5526668052160923e+00 1.5734024980611945e+00 0.0000000000000000e+00  1.5573717862322574e+00 1.5949790996463791e+00 0.0000000000000000e+00  1.5625821312218189e+00 1.6151903653214115e+00 0.0000000000000000e+00  1.5681502484645060e+00 1.6346447867793605e+00 0.0000000000000000e+00  1.5740060434941701e+00 1.6530017994214645e+00 0.0000000000000000e+00  1.5800773582070393e+00 1.6710518929149125e+00 0.0000000000000000e+00  1.5862767226739647e+00 1.6884456807725481e+00 0.0000000000000000e+00  1.5925671058925401e+00 1.7058280402446000e+00 0.0000000000000000e+00  1.5988680554813857e+00 1.7226830988911521e+00 0.0000000000000000e+00  1.6052457392048134e+00 1.7397854704037723e+00 0.0000000000000000e+00  1.6115639327883811e+00 1.7563662457393763e+00 0.0000000000000000e+00  1.6179516526822404e+00 1.7731947829381400e+00 0.0000000000000000e+00  1.6242681901075502e+00 1.7895632835860695e+00 0.0000000000000000e+00  1.6306606209155998e+00 1.8062040976637013e+00 0.0000000000000000e+00  1.6369399782665890e+00 1.8222614675123612e+00 0.0000000000000000e+00  1.6433294108644552e+00 1.8387030624773111e+00 0.0000000000000000e+00  1.6495802682168716e+00 1.8545393452273933e+00 0.0000000000000000e+00  1.6559276872749624e+00 1.8706583030387656e+00 0.0000000000000000e+00  1.6621373605387229e+00 1.8862550716607260e+00 0.0000000000000000e+00  1.6684572622776406e+00 1.9021502318168266e+00 0.0000000000000000e+00  1.6745806294321051e+00 1.9173671643820391e+00 0.0000000000000000e+00  1.6808566243220751e+00 1.9330111549179574e+00 0.0000000000000000e+00  1.6869133874709978e+00 1.9479637067432483e+00 0.0000000000000000e+00  1.6930913003054830e+00 1.9631847617610290e+00 0.0000000000000000e+00  1.6990627193678125e+00 1.9778545520136182e+00 0.0000000000000000e+00  1.7051671786650802e+00 1.9927667195285450e+00 0.0000000000000000e+00  1.7109888743275645e+00 2.0069624972216680e+00 0.0000000000000000e+00  1.7170034545914057e+00 2.0215414302762311e+00 0.0000000000000000e+00  1.7226998606207746e+00 2.0353899756733269e+00 0.0000000000000000e+00  1.7285495538414264e+00 2.0494117402577037e+00 0.0000000000000000e+00  1.7341088229558199e+00 2.0629055438411243e+00 0.0000000000000000e+00  1.7398141939492251e+00 2.0764834477007836e+00 0.0000000000000000e+00  1.7451537512325188e+00 2.0893856832387545e+00 0.0000000000000000e+00  1.7507098174266684e+00 2.1025175766326623e+00 0.0000000000000000e+00  1.7558441998546310e+00 2.1149274636991704e+00 0.0000000000000000e+00  1.7611609553661267e+00 2.1273720748273819e+00 0.0000000000000000e+00  1.7660986004553587e+00 2.1392886920584764e+00 0.0000000000000000e+00  1.7711767011297768e+00 2.1511367980070473e+00 0.0000000000000000e+00  1.7758288826954340e+00 2.1623060712128779e+00 0.0000000000000000e+00  1.7806850601391786e+00 2.1735887526844637e+00 0.0000000000000000e+00  1.7850433519410007e+00 2.1840583845751493e+00 0.0000000000000000e+00  1.7895884424485089e+00 2.1945505187157641e+00 0.0000000000000000e+00  1.7936871414047495e+00 2.2043574430175883e+00 0.0000000000000000e+00  1.7978942067012855e+00 2.2140875538847293e+00 0.0000000000000000e+00  1.8016601822940359e+00 2.2230237865920079e+00 0.0000000000000000e+00  1.8055659522029270e+00 2.2320753154827555e+00 0.0000000000000000e+00  1.8089723029869622e+00 2.2401067167207134e+00 0.0000000000000000e+00  1.8125134805088956e+00 2.2483388504461028e+00 0.0000000000000000e+00  1.8156114170999886e+00 2.2555712956375449e+00 0.0000000000000000e+00  1.8187478016000600e+00 2.2629064219589483e+00 0.0000000000000000e+00  1.8215069512024356e+00 2.2692797167960479e+00 0.0000000000000000e+00  1.8242853979985874e+00 2.2758551498709814e+00 0.0000000000000000e+00  1.8266749796830639e+00 2.2812016366934396e+00 0.0000000000000000e+00  1.8290872085183714e+00 2.2871495877013808e+00 0.0000000000000000e+00  1.8311577756997572e+00 2.2915084568801789e+00 0.0000000000000000e+00  1.8331773895085401e+00 2.2966808266717349e+00 0.0000000000000000e+00  1.8349489160273602e+00 2.3003639972266328e+00 0.0000000000000000e+00  1.8366282099472959e+00 2.3046079602235876e+00 0.0000000000000000e+00  1.8380817706950145e+00 2.3076153529754815e+00 0.0000000000000000e+00  1.8394615445295572e+00 2.3113526625146967e+00 0.0000000000000000e+00  1.8406486281324315e+00 2.3132928920772096e+00 0.0000000000000000e+00  1.8417242334341528e+00 2.3167914250239630e+00 0.0000000000000000e+00  1.8426933330923090e+00 2.3180683837467329e+00 0.0000000000000000e+00  1.8435175355201492e+00 2.3206803411049393e+00 0.0000000000000000e+00  1.8442708411135702e+00 2.3220323683035362e+00 0.0000000000000000e+00  1.8448976729246556e+00 2.3237669278461501e+00 0.0000000000000000e+00  1.8454792144489323e+00 2.3246565899325367e+00 0.0000000000000000e+00  1.8459266684985391e+00 2.3264862592238060e+00 0.0000000000000000e+00  1.8463753175614892e+00 2.3264937343258465e+00 0.0000000000000000e+00  1.8466830989352578e+00 2.3282292140600744e+00 0.0000000000000000e+00  1.8470282857587126e+00 2.3282425242057907e+00 0.0000000000000000e+00  1.8472170373021246e+00 2.3292085264213034e+00 0.0000000000000000e+00  1.8474907291514981e+00 2.3294211535099993e+00 0.0000000000000000e+00  1.8475974995700499e+00 2.3302050343607834e+00 0.0000000000000000e+00  1.8478021566177949e+00 2.3299281246031400e+00 0.0000000000000000e+00  1.8478532223989037e+00 2.3309522198553281e+00 0.0000000000000000e+00  1.8480303065820216e+00 2.3304743238723704e+00 0.0000000000000000e+00  1.8480081398131278e+00 2.3311219223298028e+00 0.0000000000000000e+00  1.8481789028409008e+00 2.3310639734968137e+00 0.0000000000000000e+00  1.8481194362639941e+00 2.3312392079631929e+00 0.0000000000000000e+00  1.8482213707155655e+00 2.3313273447436593e+00 0.0000000000000000e+00  1.8481225452106229e+00 2.3316595407443623e+00 0.0000000000000000e+00  1.8481180240526995e+00 2.3316200565648169e+00 0.0000000000000000e+00  1.8478884324697626e+00 2.3322362660668046e+00 0.0000000000000000e+00  1.8477785644286582e+00 2.3323976129694111e+00 0.0000000000000000e+00  1.8474811282312653e+00 2.3328070502026241e+00 0.0000000000000000e+00  1.8474441088462126e+00 2.3331036510133920e+00 0.0000000000000000e+00  1.8473412698484681e+00 2.3328672103416666e+00 0.0000000000000000e+00  1.8477127095807762e+00 2.3327499593769612e+00 0.0000000000000000e+00  1.8478533362281313e+00 2.3318872237217039e+00 0.0000000000000000e+00  1.8485558230255750e+00 2.3316307691741716e+00 0.0000000000000000e+00  1.8485223721861230e+00 2.3304348519348079e+00 0.0000000000000000e+00  1.8493370008128367e+00 2.3313342885538284e+00 0.0000000000000000e+00  1.8485164391682711e+00 2.3283647622952142e+00 0.0000000000000000e+00  1.8505770696031616e+00 2.3330915158345249e+00 0.0000000000000000e+00  1.8480467512949581e+00 2.3233770778652083e+00 0.0000000000000000e+00  1.8535581800239307e+00 2.3334956261840585e+00 0.0000000000000000e+00  1.8216559333079880e+00 2.3817521765646923e+00 0.0000000000000000e+00  2.0083322372735819e+00 1.9890194178862333e+00 0.0000000000000000e+00  2.5907835328435072e+00 6.8425708240761596e-01 0.0000000000000000e+00  2.9218856560741981e+00 9.6724209036997480e-02 0.0000000000000000e+00  2.9765350440959168e+00 6.9023621453207168e-03 0.0000000000000000e+00  2.9613689957408043e+00 1.3179108188443249e-02 0.0000000000000000e+00  2.9703015539574267e+00 -4.5314815029869092e-04 0.0000000000000000e+00  2.9718309871478477e+00 5.5136187301459280e-04 0.0000000000000000e+00  2.9708680289312968e+00 9.9866499013530078e-05 0.0000000000000000e+00  2.9724883637664878e+00 -3.3344533747618329e-03 0.0000000000000000e+00  2.9726094984018601e+00 -2.6371174904266858e-03 0.0000000000000000e+00  2.9716404399883873e+00 -1.4165054424259019e-03 0.0000000000000000e+00  2.9717268737174378e+00 -1.3891515412774067e-03 0.0000000000000000e+00  2.9719780164142868e+00 -2.1313435718874263e-03 0.0000000000000000e+00  2.9720768852215085e+00 -1.9345975686555186e-03 0.0000000000000000e+00  2.9719755830945407e+00 -2.2639483450100951e-03 0.0000000000000000e+00  2.9719882416183658e+00 -1.7475997145930218e-03 0.0000000000000000e+00  2.9718614806335402e+00 -2.2430253582240126e-03 0.0000000000000000e+00  2.9720167557129589e+00 -1.8514725870938536e-03 0.0000000000000000e+00  2.9719163332001890e+00 -2.5758566187631536e-03 0.0000000000000000e+00  2.9720230169707267e+00 -2.1704827404941478e-03 0.0000000000000000e+00  2.9718785077222254e+00 -3.0214828715878447e-03 0.0000000000000000e+00  2.9720179325368212e+00 -2.7934075376710430e-03 0.0000000000000000e+00  2.9718933985013494e+00 -3.9692958808605662e-03 0.0000000000000000e+00  2.9719944691157143e+00 -3.8773660876986566e-03 0.0000000000000000e+00  2.9719225221659507e+00 -5.2336343101278401e-03 0.0000000000000000e+00  2.9719834314254032e+00 -5.2952665315134434e-03 0.0000000000000000e+00  2.9719198624465180e+00 -6.5266508510518680e-03 0.0000000000000000e+00  2.9719900295879378e+00 -6.4963374762249471e-03 0.0000000000000000e+00  2.9719369802489299e+00 -7.6532099724526464e-03 0.0000000000000000e+00  2.9719807960739160e+00 -7.3043977167552530e-03 0.0000000000000000e+00  2.9719607675400237e+00 -8.2218115499813268e-03 0.0000000000000000e+00  2.9719873836811743e+00 -7.9232962770737440e-03 0.0000000000000000e+00  2.9719655590183791e+00 -8.4408035746403928e-03 0.0000000000000000e+00  2.9720068994509878e+00 -8.1921514272040950e-03 0.0000000000000000e+00  2.9719797594073110e+00 -8.6491389801429865e-03 0.0000000000000000e+00  2.9720061238672257e+00 -8.2769050658813327e-03 0.0000000000000000e+00  2.9720036035562720e+00 -8.7060230824249161e-03 0.0000000000000000e+00  2.9720110020140638e+00 -8.4383937205998929e-03 0.0000000000000000e+00  2.9720056624709481e+00 -8.6750163644624245e-03 0.0000000000000000e+00  2.9720239643833883e+00 -8.4799369260392665e-03 0.0000000000000000e+00  2.9720113937667660e+00 -8.8750234912050290e-03 0.0000000000000000e+00  2.9720138080069551e+00 -8.3154320694987481e-03 0.0000000000000000e+00  2.9720263615551299e+00 -9.0777375158548352e-03 0.0000000000000000e+00  2.9720078589523036e+00 -8.5092488912087635e-03 0.0000000000000000e+00  2.9720200769434992e+00 -8.7592097154893991e-03 0.0000000000000000e+00  2.9720131846792586e+00 -8.8128096702905397e-03 0.0000000000000000e+00  2.9720205290496189e+00 -8.8864060584164031e-03 0.0000000000000000e+00  2.9719997799007571e+00 -8.5046572721648797e-03 0.0000000000000000e+00  2.9720331155447397e+00 -9.8844943135966302e-03 0.0000000000000000e+00  2.9719953432604371e+00 -8.2917527680726015e-03 0.0000000000000000e+00  2.9720257819514488e+00 -9.8493091706068729e-03 0.0000000000000000e+00  2.9720060861195985e+00 -9.5913012603143118e-03 0.0000000000000000e+00  2.9720229420281306e+00 -8.8991693421923996e-03 0.0000000000000000e+00  2.9719969487117233e+00 -1.4707583516377245e-02 0.0000000000000000e+00  2.9720254568252722e+00 -1.0293968751920698e-02 0.0000000000000000e+00  2.9720055326712127e+00 0.0000000000000000e+00 0.0000000000000000e+00  1.5270267489728386e+00 0.0000000000000000e+00 1.2801117770163141e-03  1.5269779834922750e+00 3.5962936228331549e-02 -1.7915529254633323e-04  1.5270296669929229e+00 7.0749038598341127e-02 -4.4401229051811583e-04  1.5269982948184044e+00 1.0687857712855334e-01 2.3418540668943696e-04  1.5270054715066879e+00 1.4257652158340076e-01 -1.6137575052954160e-04  1.5270005857803919e+00 1.7812883690278214e-01 1.0876245341065177e-04  1.5269727076269002e+00 2.1385254671711595e-01 -1.0033371908410771e-04  1.5269585469802394e+00 2.4957327294764881e-01 1.1111325026005863e-04  1.5269339334861001e+00 2.8507294151484591e-01 -1.2647366603796110e-04  1.5268944879266932e+00 3.2082713722777295e-01 1.3873954111234414e-04  1.5268584183742673e+00 3.5629168118711402e-01 -1.4833615583409676e-04  1.5268319186000634e+00 3.9202302411133200e-01 1.5428353856414723e-04  1.5267630040691114e+00 4.2735991069911261e-01 -1.5892167462475563e-04  1.5267386142481116e+00 4.6312952890625730e-01 1.5703000090824657e-04  1.5266827695953915e+00 4.9840364285459210e-01 -1.5076417204628603e-04  1.5266272597740311e+00 5.3402569911757569e-01 1.3985889761387738e-04  1.5265816861220842e+00 5.6934508210163692e-01 -1.3125277514584833e-04  1.5265452868001319e+00 6.0487310425912044e-01 1.2389227386763122e-04  1.5264670832455538e+00 6.4002178907553720e-01 -1.1920695576919535e-04  1.5264546612733032e+00 6.7558483966018634e-01 1.1370164617042591e-04  1.5263999813976066e+00 7.1062594584696259e-01 -1.0868704819328795e-04  1.5263571612829852e+00 7.4595173323069885e-01 1.0043300916239456e-04  1.5263441154295352e+00 7.8104688174400150e-01 -9.0968768720754234e-05  1.5263283949298276e+00 8.1619968063805326e-01 8.1989690685030806e-05  1.5262962440789491e+00 8.5104093597750108e-01 -7.8878960913367200e-05  1.5263401634019467e+00 8.8617850860260572e-01 7.7844261617256798e-05  1.5263466547333326e+00 9.2083173917663730e-01 -7.6941156346621976e-05  1.5263873043527454e+00 9.5563623003716602e-01 7.4349015569564507e-05  1.5264830969100731e+00 9.9023084419496388e-01 -7.4901337225578713e-05  1.5265763048360876e+00 1.0247497294899934e+00 7.6963806638909247e-05  1.5267053390248402e+00 1.0589521693327519e+00 -8.0601539654049186e-05  1.5269213694111956e+00 1.0933088852400259e+00 8.3265783242677824e-05  1.5271420975994052e+00 1.1270975427597856e+00 -8.6288958626735824e-05  1.5274414041965303e+00 1.1609423187363415e+00 8.7563213563650490e-05  1.5278499807326298e+00 1.1943991677974632e+00 -8.8870474238600058e-05  1.5283033642633561e+00 1.2276332116317288e+00 8.9696343996072773e-05  1.5288921788476872e+00 1.2603560676244907e+00 -9.1411790954481405e-05  1.5296338568404615e+00 1.2929778032018742e+00 9.0933401931195918e-05  1.5305032474025173e+00 1.3247464645949178e+00 -8.9366372606241134e-05  1.5315812083847047e+00 1.3562561476234758e+00 8.4848299259066785e-05  1.5329193040146762e+00 1.3869302832087218e+00 -7.9638185951432772e-05  1.5344904530565424e+00 1.4169319054504568e+00 7.2308816455099112e-05  1.5364178982980885e+00 1.4458798450982941e+00 -6.4832443894998387e-05  1.5387339167890390e+00 1.4740457155720934e+00 5.6537637354295844e-05  1.5414540151242420e+00 1.5007498355342992e+00 -4.6810559455815517e-05  1.5446713076161294e+00 1.5264069431850769e+00 3.7619782834998431e-05  1.5484058349446301e+00 1.5505912708502365e+00 -2.4849464247860758e-05  1.5526382659322335e+00 1.5734503313723724e+00 1.5785950220277299e-05  1.5573784660586492e+00 1.5949126428459774e+00 -2.5159187575300581e-06  1.5625888448257466e+00 1.6153013157951104e+00 -7.6497322272634695e-06  1.5681402883332478e+00 1.6345496485746005e+00 2.0904118347033120e-05  1.5740155986650468e+00 1.6530569587802122e+00 -3.4008243704469491e-05  1.5800766036033440e+00 1.6710169845305447e+00 4.5450150477634693e-05  1.5862871447622788e+00 1.6884904316634168e+00 -5.8299260960038218e-05  1.5925460148593169e+00 1.7057543530947747e+00 6.7866995680202204e-05  1.5988967941232612e+00 1.7227776234719943e+00 -7.9147198470542294e-05  1.6052108889334820e+00 1.7397350705147441e+00 9.0170840082665364e-05  1.6115882018489800e+00 1.7564068857314619e+00 -1.0146978466190395e-04  1.6179175454182837e+00 1.7731915141791468e+00 1.1169669231015369e-04  1.6243016461324240e+00 1.7896232753712500e+00 -1.1999174110810130e-04  1.6306046016411171e+00 1.8061489769437920e+00 1.2707869529150930e-04  1.6369874011929182e+00 1.8223552320019498e+00 -1.3291598515157192e-04  1.6432698681946345e+00 1.8386944503088640e+00 1.3964679397761016e-04  1.6496156706504330e+00 1.8545619295472036e+00 -1.4529319238996478e-04  1.6558679355916401e+00 1.8706961873350625e+00 1.5170618234763204e-04  1.6621896174039172e+00 1.8863165190154914e+00 -1.5378272783601901e-04  1.6683704758232329e+00 1.9021086474604478e+00 1.5666378761118360e-04  1.6746511619013904e+00 1.9174661792889134e+00 -1.5480983622665712e-04  1.6807792545232996e+00 1.9330137650322097e+00 1.5666021901641227e-04  1.6869670500341434e+00 1.9479600366574095e+00 -1.5542212835781589e-04  1.6930242610692730e+00 1.9632369176223972e+00 1.5826012290731754e-04  1.6991413027747810e+00 1.9778865317683323e+00 -1.5622849291905066e-04  1.7050670332553761e+00 1.9927112725775806e+00 1.5586006649352891e-04  1.7110935934399345e+00 2.0070461976716105e+00 -1.5136405326414279e-04  1.7169131376693068e+00 2.0215351940833775e+00 1.4982354814768300e-04  1.7227769032740734e+00 2.0353515346280204e+00 -1.4782845718406260e-04  1.7284764907398051e+00 2.0494862003595982e+00 1.4844675871868290e-04  1.7342004971252090e+00 2.0629005991707348e+00 -1.4789822764114277e-04  1.7396999154820600e+00 2.0764520620991616e+00 1.4730757414284539e-04  1.7452767634320856e+00 2.0894538519212036e+00 -1.4553387332012687e-04  1.7505933869444714e+00 2.1025316710061914e+00 1.4524059898627560e-04  1.7559360630591185e+00 2.1148750178510158e+00 -1.45343059975432