<?xml version="1.0"?>
<VTKFile type="UnstructuredGrid"  version="0.1"  >
<UnstructuredGrid>
<Piece  NumberOfPoints="8241" NumberOfCells="16000">
<Points>
<DataArray  type="Float64"  NumberOfComponents="3"  format="ascii">-5 -1 0  -4.95 -1 0  -4.9 -1 0  -4.85 -1 0  -4.8 -1 0  -4.75 -1 0  -4.7 -1 0  -4.65 -1 0  -4.6 -1 0  -4.55 -1 0  -4.5 -1 0  -4.45 -1 0  -4.4 -1 0  -4.35 -1 0  -4.3 -1 0  -4.25 -1 0  -4.2 -1 0  -4.15 -1 0  -4.1 -1 0  -4.05 -1 0  -4 -1 0  -3.95 -1 0  -3.9 -1 0  -3.85 -1 0  -3.8 -1 0  -3.75 -1 0  -3.7 -1 0  -3.65 -1 0  -3.6 -1 0  -3.55 -1 0  -3.5 -1 0  -3.45 -1 0  -3.4 -1 0  -3.35 -1 0  -3.3 -1 0  -3.25 -1 0  -3.2 -1 0  -3.15 -1 0  -3.1 -1 0  -3.05 -1 0  -3 -1 0  -2.95 -1 0  -2.9 -1 0  -2.85 -1 0  -2.8 -1 0  -2.75 -1 0  -2.7 -1 0  -2.65 -1 0  -2.6 -1 0  -2.55 -1 0  -2.5 -1 0  -2.45 -1 0  -2.4 -1 0  -2.35 -1 0  -2.3 -1 0  -2.25 -1 0  -2.2 -1 0  -2.15 -1 0  -2.1 -1 0  -2.05 -1 0  -2 -1 0  -1.95 -1 0  -1.9 -1 0  -1.85 -1 0  -1.8 -1 0  -1.75 -1 0  -1.7 -1 0  -1.65 -1 0  -1.6 -1 0  -1.55 -1 0  -1.5 -1 0  -1.45 -1 0  -1.4 -1 0  -1.35 -1 0  -1.3 -1 0  -1.25 -1 0  -1.2 -1 0  -1.15 -1 0  -1.1 -1 0  -1.05 -1 0  -1 -1 0  -0.9500000000000002 -1 0  -0.9000000000000004 -1 0  -0.8499999999999996 -1 0  -0.7999999999999998 -1 0  -0.75 -1 0  -0.7000000000000002 -1 0  -0.6500000000000004 -1 0  -0.5999999999999996 -1 0  -0.5499999999999998 -1 0  -0.5 -1 0  -0.4500000000000002 -1 0  -0.4000000000000004 -1 0  -0.3499999999999996 -1 0  -0.2999999999999998 -1 0  -0.25 -1 0  -0.2000000000000002 -1 0  -0.1500000000000004 -1 0  -0.09999999999999964 -1 0  -0.04999999999999982 -1 0  0 -1 0  0.04999999999999982 -1 0  0.09999999999999964 -1 0  0.1500000000000004 -1 0  0.2000000000000002 -1 0  0.25 -1 0  0.2999999999999998 -1 0  0.3499999999999996 -1 0  0.4000000000000004 -1 0  0.4500000000000002 -1 0  0.5 -1 0  0.5499999999999998 -1 0  0.5999999999999996 -1 0  0.6500000000000004 -1 0  0.7000000000000002 -1 0  0.75 -1 0  0.7999999999999998 -1 0  0.8499999999999996 -1 0  0.9000000000000004 -1 0  0.9500000000000002 -1 0  1 -1 0  1.05 -1 0  1.1 -1 0  1.15 -1 0  1.2 -1 0  1.25 -1 0  1.3 -1 0  1.35 -1 0  1.4 -1 0  1.45 -1 0  1.5 -1 0  1.55 -1 0  1.6 -1 0  1.65 -1 0  1.7 -1 0  1.75 -1 0  1.8 -1 0  1.85 -1 0  1.9 -1 0  1.95 -1 0  2 -1 0  2.05 -1 0  2.1 -1 0  2.15 -1 0  2.2 -1 0  2.25 -1 0  2.3 -1 0  2.35 -1 0  2.4 -1 0  2.45 -1 0  2.5 -1 0  2.55 -1 0  2.6 -1 0  2.65 -1 0  2.7 -1 0  2.75 -1 0  2.8 -1 0  2.85 -1 0  2.9 -1 0  2.95 -1 0  3 -1 0  3.050000000000001 -1 0  3.1 -1 0  3.15 -1 0  3.199999999999999 -1 0  3.25 -1 0  3.300000000000001 -1 0  3.35 -1 0  3.4 -1 0  3.449999999999999 -1 0  3.5 -1 0  3.550000000000001 -1 0  3.6 -1 0  3.65 -1 0  3.699999999999999 -1 0  3.75 -1 0  3.800000000000001 -1 0  3.85 -1 0  3.9 -1 0  3.949999999999999 -1 0  4 -1 0  4.050000000000001 -1 0  4.1 -1 0  4.15 -1 0  4.199999999999999 -1 0  4.25 -1 0  4.300000000000001 -1 0  4.35 -1 0  4.4 -1 0  4.449999999999999 -1 0  4.5 -1 0  4.550000000000001 -1 0  4.6 -1 0  4.65 -1 0  4.699999999999999 -1 0  4.75 -1 0  4.800000000000001 -1 0  4.85 -1 0  4.9 -1 0  4.949999999999999 -1 0  5 -1 0  -5 -0.95 0  -4.95 -0.95 0  -4.9 -0.95 0  -4.85 -0.95 0  -4.8 -0.95 0  -4.75 -0.95 0  -4.7 -0.95 0  -4.65 -0.95 0  -4.6 -0.95 0  -4.55 -0.95 0  -4.5 -0.95 0  -4.45 -0.95 0  -4.4 -0.95 0  -4.35 -0.95 0  -4.3 -0.95 0  -4.25 -0.95 0  -4.2 -0.95 0  -4.15 -0.95 0  -4.1 -0.95 0  -4.05 -0.95 0  -4 -0.95 0  -3.95 -0.95 0  -3.9 -0.95 0  -3.85 -0.95 0  -3.8 -0.95 0  -3.75 -0.95 0  -3.7 -0.95 0  -3.65 -0.95 0  -3.6 -0.95 0  -3.55 -0.95 0  -3.5 -0.95 0  -3.45 -0.95 0  -3.4 -0.95 0  -3.35 -0.95 0  -3.3 -0.95 0  -3.25 -0.95 0  -3.2 -0.95 0  -3.15 -0.95 0  -3.1 -0.95 0  -3.05 -0.95 0  -3 -0.95 0  -2.95 -0.95 0  -2.9 -0.95 0  -2.85 -0.95 0  -2.8 -0.95 0  -2.75 -0.95 0  -2.7 -0.95 0  -2.65 -0.95 0  -2.6 -0.95 0  -2.55 -0.95 0  -2.5 -0.95 0  -2.45 -0.95 0  -2.4 -0.95 0  -2.35 -0.95 0  -2.3 -0.95 0  -2.25 -0.95 0  -2.2 -0.95 0  -2.15 -0.95 0  -2.1 -0.95 0  -2.05 -0.95 0  -2 -0.95 0  -1.95 -0.95 0  -1.9 -0.95 0  -1.85 -0.95 0  -1.8 -0.95 0  -1.75 -0.95 0  -1.7 -0.95 0  -1.65 -0.95 0  -1.6 -0.95 0  -1.55 -0.95 0  -1.5 -0.95 0  -1.45 -0.95 0  -1.4 -0.95 0  -1.35 -0.95 0  -1.3 -0.95 0  -1.25 -0.95 0  -1.2 -0.95 0  -1.15 -0.95 0  -1.1 -0.95 0  -1.05 -0.95 0  -1 -0.95 0  -0.9500000000000002 -0.95 0  -0.9000000000000004 -0.95 0  -0.8499999999999996 -0.95 0  -0.7999999999999998 -0.95 0  -0.75 -0.95 0  -0.7000000000000002 -0.95 0  -0.6500000000000004 -0.95 0  -0.5999999999999996 -0.95 0  -0.5499999999999998 -0.95 0  -0.5 -0.95 0  -0.4500000000000002 -0.95 0  -0.4000000000000004 -0.95 0  -0.3499999999999996 -0.95 0  -0.2999999999999998 -0.95 0  -0.25 -0.95 0  -0.2000000000000002 -0.95 0  -0.1500000000000004 -0.95 0  -0.09999999999999964 -0.95 0  -0.04999999999999982 -0.95 0  0 -0.95 0  0.04999999999999982 -0.95 0  0.09999999999999964 -0.95 0  0.1500000000000004 -0.95 0  0.2000000000000002 -0.95 0  0.25 -0.95 0  0.2999999999999998 -0.95 0  0.3499999999999996 -0.95 0  0.4000000000000004 -0.95 0  0.4500000000000002 -0.95 0  0.5 -0.95 0  0.5499999999999998 -0.95 0  0.5999999999999996 -0.95 0  0.6500000000000004 -0.95 0  0.7000000000000002 -0.95 0  0.75 -0.95 0  0.7999999999999998 -0.95 0  0.8499999999999996 -0.95 0  0.9000000000000004 -0.95 0  0.9500000000000002 -0.95 0  1 -0.95 0  1.05 -0.95 0  1.1 -0.95 0  1.15 -0.95 0  1.2 -0.95 0  1.25 -0.95 0  1.3 -0.95 0  1.35 -0.95 0  1.4 -0.95 0  1.45 -0.95 0  1.5 -0.95 0  1.55 -0.95 0  1.6 -0.95 0  1.65 -0.95 0  1.7 -0.95 0  1.75 -0.95 0  1.8 -0.95 0  1.85 -0.95 0  1.9 -0.95 0  1.95 -0.95 0  2 -0.95 0  2.05 -0.95 0  2.1 -0.95 0  2.15 -0.95 0  2.2 -0.95 0  2.25 -0.95 0  2.3 -0.95 0  2.35 -0.95 0  2.4 -0.95 0  2.45 -0.95 0  2.5 -0.95 0  2.55 -0.95 0  2.6 -0.95 0  2.65 -0.95 0  2.7 -0.95 0  2.75 -0.95 0  2.8 -0.95 0  2.85 -0.95 0  2.9 -0.95 0  2.95 -0.95 0  3 -0.95 0  3.050000000000001 -0.95 0  3.1 -0.95 0  3.15 -0.95 0  3.199999999999999 -0.95 0  3.25 -0.95 0  3.300000000000001 -0.95 0  3.35 -0.95 0  3.4 -0.95 0  3.449999999999999 -0.95 0  3.5 -0.95 0  3.550000000000001 -0.95 0  3.6 -0.95 0  3.65 -0.95 0  3.699999999999999 -0.95 0  3.75 -0.95 0  3.800000000000001 -0.95 0  3.85 -0.95 0  3.9 -0.95 0  3.949999999999999 -0.95 0  4 -0.95 0  4.050000000000001 -0.95 0  4.1 -0.95 0  4.15 -0.95 0  4.199999999999999 -0.95 0  4.25 -0.95 0  4.300000000000001 -0.95 0  4.35 -0.95 0  4.4 -0.95 0  4.449999999999999 -0.95 0  4.5 -0.95 0  4.550000000000001 -0.95 0  4.6 -0.95 0  4.65 -0.95 0  4.699999999999999 -0.95 0  4.75 -0.95 0  4.800000000000001 -0.95 0  4.85 -0.95 0  4.9 -0.95 0  4.949999999999999 -0.95 0  5 -0.95 0  -5 -0.9 0  -4.95 -0.9 0  -4.9 -0.9 0  -4.85 -0.9 0  -4.8 -0.9 0  -4.75 -0.9 0  -4.7 -0.9 0  -4.65 -0.9 0  -4.6 -0.9 0  -4.55 -0.9 0  -4.5 -0.9 0  -4.45 -0.9 0  -4.4 -0.9 0  -4.35 -0.9 0  -4.3 -0.9 0  -4.25 -0.9 0  -4.2 -0.9 0  -4.15 -0.9 0  -4.1 -0.9 0  -4.05 -0.9 0  -4 -0.9 0  -3.95 -0.9 0  -3.9 -0.9 0  -3.85 -0.9 0  -3.8 -0.9 0  -3.75 -0.9 0  -3.7 -0.9 0  -3.65 -0.9 0  -3.6 -0.9 0  -3.55 -0.9 0  -3.5 -0.9 0  -3.45 -0.9 0  -3.4 -0.9 0  -3.35 -0.9 0  -3.3 -0.9 0  -3.25 -0.9 0  -3.2 -0.9 0  -3.15 -0.9 0  -3.1 -0.9 0  -3.05 -0.9 0  -3 -0.9 0  -2.95 -0.9 0  -2.9 -0.9 0  -2.85 -0.9 0  -2.8 -0.9 0  -2.75 -0.9 0  -2.7 -0.9 0  -2.65 -0.9 0  -2.6 -0.9 0  -2.55 -0.9 0  -2.5 -0.9 0  -2.45 -0.9 0  -2.4 -0.9 0  -2.35 -0.9 0  -2.3 -0.9 0  -2.25 -0.9 0  -2.2 -0.9 0  -2.15 -0.9 0  -2.1 -0.9 0  -2.05 -0.9 0  -2 -0.9 0  -1.95 -0.9 0  -1.9 -0.9 0  -1.85 -0.9 0  -1.8 -0.9 0  -1.75 -0.9 0  -1.7 -0.9 0  -1.65 -0.9 0  -1.6 -0.9 0  -1.55 -0.9 0  -1.5 -0.9 0  -1.45 -0.9 0  -1.4 -0.9 0  -1.35 -0.9 0  -1.3 -0.9 0  -1.25 -0.9 0  -1.2 -0.9 0  -1.15 -0.9 0  -1.1 -0.9 0  -1.05 -0.9 0  -1 -0.9 0  -0.9500000000000002 -0.9 0  -0.9000000000000004 -0.9 0  -0.8499999999999996 -0.9 0  -0.7999999999999998 -0.9 0  -0.75 -0.9 0  -0.7000000000000002 -0.9 0  -0.6500000000000004 -0.9 0  -0.5999999999999996 -0.9 0  -0.5499999999999998 -0.9 0  -0.5 -0.9 0  -0.4500000000000002 -0.9 0  -0.4000000000000004 -0.9 0  -0.3499999999999996 -0.9 0  -0.2999999999999998 -0.9 0  -0.25 -0.9 0  -0.2000000000000002 -0.9 0  -0.1500000000000004 -0.9 0  -0.09999999999999964 -0.9 0  -0.04999999999999982 -0.9 0  0 -0.9 0  0.04999999999999982 -0.9 0  0.09999999999999964 -0.9 0  0.1500000000000004 -0.9 0  0.2000000000000002 -0.9 0  0.25 -0.9 0  0.2999999999999998 -0.9 0  0.3499999999999996 -0.9 0  0.4000000000000004 -0.9 0  0.4500000000000002 -0.9 0  0.5 -0.9 0  0.5499999999999998 -0.9 0  0.5999999999999996 -0.9 0  0.6500000000000004 -0.9 0  0.7000000000000002 -0.9 0  0.75 -0.9 0  0.7999999999999998 -0.9 0  0.8499999999999996 -0.9 0  0.9000000000000004 -0.9 0  0.9500000000000002 -0.9 0  1 -0.9 0  1.05 -0.9 0  1.1 -0.9 0  1.15 -0.9 0  1.2 -0.9 0  1.25 -0.9 0  1.3 -0.9 0  1.35 -0.9 0  1.4 -0.9 0  1.45 -0.9 0  1.5 -0.9 0  1.55 -0.9 0  1.6 -0.9 0  1.65 -0.9 0  1.7 -0.9 0  1.75 -0.9 0  1.8 -0.9 0  1.85 -0.9 0  1.9 -0.9 0  1.95 -0.9 0  2 -0.9 0  2.05 -0.9 0  2.1 -0.9 0  2.15 -0.9 0  2.2 -0.9 0  2.25 -0.9 0  2.3 -0.9 0  2.35 -0.9 0  2.4 -0.9 0  2.45 -0.9 0  2.5 -0.9 0  2.55 -0.9 0  2.6 -0.9 0  2.65 -0.9 0  2.7 -0.9 0  2.75 -0.9 0  2.8 -0.9 0  2.85 -0.9 0  2.9 -0.9 0  2.95 -0.9 0  3 -0.9 0  3.050000000000001 -0.9 0  3.1 -0.9 0  3.15 -0.9 0  3.199999999999999 -0.9 0  3.25 -0.9 0  3.300000000000001 -0.9 0  3.35 -0.9 0  3.4 -0.9 0  3.449999999999999 -0.9 0  3.5 -0.9 0  3.550000000000001 -0.9 0  3.6 -0.9 0  3.65 -0.9 0  3.699999999999999 -0.9 0  3.75 -0.9 0  3.800000000000001 -0.9 0  3.85 -0.9 0  3.9 -0.9 0  3.949999999999999 -0.9 0  4 -0.9 0  4.050000000000001 -0.9 0  4.1 -0.9 0  4.15 -0.9 0  4.199999999999999 -0.9 0  4.25 -0.9 0  4.300000000000001 -0.9 0  4.35 -0.9 0  4.4 -0.9 0  4.449999999999999 -0.9 0  4.5 -0.9 0  4.550000000000001 -0.9 0  4.6 -0.9 0  4.65 -0.9 0  4.699999999999999 -0.9 0  4.75 -0.9 0  4.800000000000001 -0.9 0  4.85 -0.9 0  4.9 -0.9 0  4.949999999999999 -0.9 0  5 -0.9 0  -5 -0.85 0  -4.95 -0.85 0  -4.9 -0.85 0  -4.85 -0.85 0  -4.8 -0.85 0  -4.75 -0.85 0  -4.7 -0.85 0  -4.65 -0.85 0  -4.6 -0.85 0  -4.55 -0.85 0  -4.5 -0.85 0  -
[...]
<PointData  Vectors="f_15"> 
<DataArray  type="Float64"  Name="f_15"  NumberOfComponents="3" format="ascii">1.8308655207358406e+00 0.0000000000000000e+00 0.0000000000000000e+00  1.8308499195645569e+00 4.2047774407599540e-02 0.0000000000000000e+00  1.8308082938394192e+00 8.4035816622394247e-02 0.0000000000000000e+00  1.8307360506663533e+00 1.2608458373009732e-01 0.0000000000000000e+00  1.8306359416780398e+00 1.6807683639993043e-01 0.0000000000000000e+00  1.8305096636883529e+00 2.1009458651680679e-01 0.0000000000000000e+00  1.8303485698121458e+00 2.5206751272085703e-01 0.0000000000000000e+00  1.8301663035132112e+00 2.9404541552457841e-01 0.0000000000000000e+00  1.8299475720679526e+00 3.3599365355664568e-01 0.0000000000000000e+00  1.8297055350030427e+00 3.7790857211883916e-01 0.0000000000000000e+00  1.8294273371616996e+00 4.1982216933977018e-01 0.0000000000000000e+00  1.8291278112162250e+00 4.6166477493796898e-01 0.0000000000000000e+00  1.8287872100074181e+00 5.0353067439869881e-01 0.0000000000000000e+00  1.8284259806709440e+00 5.4527708904732908e-01 0.0000000000000000e+00  1.8280275149197018e+00 5.8708377867292616e-01 0.0000000000000000e+00  1.8275983272332568e+00 6.2874582850129390e-01 0.0000000000000000e+00  1.8271405424062195e+00 6.7041760918031368e-01 0.0000000000000000e+00  1.8266439248727930e+00 7.1203523997732721e-01 0.0000000000000000e+00  1.8261247915208414e+00 7.5355217709727140e-01 0.0000000000000000e+00  1.8255531400083713e+00 7.9503614927382171e-01 0.0000000000000000e+00  1.8249795434316209e+00 8.3647994120060254e-01 0.0000000000000000e+00  1.8243231680098728e+00 8.7775220023917633e-01 0.0000000000000000e+00  1.8236949525627815e+00 9.1907705341374701e-01 0.0000000000000000e+00  1.8229519728511205e+00 9.6017813486274806e-01 0.0000000000000000e+00  1.8222682685210119e+00 1.0013373049159449e+00 0.0000000000000000e+00  1.8214289209556469e+00 1.0421810721185525e+00 0.0000000000000000e+00  1.8206967995332031e+00 1.0832391544397120e+00 0.0000000000000000e+00  1.8197511704956058e+00 1.1237534849410149e+00 0.0000000000000000e+00  1.8189699029534423e+00 1.1646370364480239e+00 0.0000000000000000e+00  1.8179159131528315e+00 1.2048484103717667e+00 0.0000000000000000e+00  1.8170845226786194e+00 1.2455186318631435e+00 0.0000000000000000e+00  1.8159146707333200e+00 1.2853104973089660e+00 0.0000000000000000e+00  1.8150371116312713e+00 1.3258001491623854e+00 0.0000000000000000e+00  1.8137474367285755e+00 1.3651153460999133e+00 0.0000000000000000e+00  1.8128207032666164e+00 1.4053088607627271e+00 0.0000000000000000e+00  1.8114150826902224e+00 1.4441450289991846e+00 0.0000000000000000e+00  1.8104377885653062e+00 1.4839834579807771e+00 0.0000000000000000e+00  1.8089197424705210e+00 1.5222071754170241e+00 0.0000000000000000e+00  1.8078943811992383e+00 1.5616489837272065e+00 0.0000000000000000e+00  1.8062764534648603e+00 1.5991954417723171e+00 0.0000000000000000e+00  1.8052057581907235e+00 1.6380631351194623e+00 0.0000000000000000e+00  1.8035099094018330e+00 1.6748655614554735e+00 0.0000000000000000e+00  1.8024064681747334e+00 1.7130251773257488e+00 0.0000000000000000e+00  1.8006683213347183e+00 1.7488984523967182e+00 0.0000000000000000e+00  1.7995542600617187e+00 1.7861788389350985e+00 0.0000000000000000e+00  1.7978323038036366e+00 1.8209511073094120e+00 0.0000000000000000e+00  1.7967589367056505e+00 1.8570296930228998e+00 0.0000000000000000e+00  1.7951344646550969e+00 1.8904709139014571e+00 0.0000000000000000e+00  1.7941962029847343e+00 1.9249828952302401e+00 0.0000000000000000e+00  1.7928096768772426e+00 1.9566532521467579e+00 0.0000000000000000e+00  1.7921443242661541e+00 1.9891001741196019e+00 0.0000000000000000e+00  1.7912104891237923e+00 2.0184693653741888e+00 0.0000000000000000e+00  1.7910469529468562e+00 2.0480921426171879e+00 0.0000000000000000e+00  1.7908319229939493e+00 2.0744386168995188e+00 0.0000000000000000e+00  1.7914748501217608e+00 2.1004089719718806e+00 0.0000000000000000e+00  1.7922881233058958e+00 2.1228799414135313e+00 0.0000000000000000e+00  1.7939679196322775e+00 2.1444571965255101e+00 0.0000000000000000e+00  1.7959961463867418e+00 2.1626308905380260e+00 0.0000000000000000e+00  1.7987041232930447e+00 2.1796230870669815e+00 0.0000000000000000e+00  1.8017328380999658e+00 2.1938782475604777e+00 0.0000000000000000e+00  1.8051022575948352e+00 2.2071487959013365e+00 0.0000000000000000e+00  1.8086030327388836e+00 2.2185674610094970e+00 0.0000000000000000e+00  1.8120446553987499e+00 2.2293214891271798e+00 0.0000000000000000e+00  1.8155555184109939e+00 2.2390966478617988e+00 0.0000000000000000e+00  1.8186676597230569e+00 2.2480745797808490e+00 0.0000000000000000e+00  1.8219128432040126e+00 2.2567367016864526e+00 0.0000000000000000e+00  1.8246026799591779e+00 2.2643707147319652e+00 0.0000000000000000e+00  1.8274790936591188e+00 2.2719541039988713e+00 0.0000000000000000e+00  1.8297064200953552e+00 2.2783414325766080e+00 0.0000000000000000e+00  1.8322634254743464e+00 2.2850106980137515e+00 0.0000000000000000e+00  1.8340048413778411e+00 2.2900827062700828e+00 0.0000000000000000e+00  1.8362346792665010e+00 2.2958828517926890e+00 0.0000000000000000e+00  1.8375905466610503e+00 2.2998894201723115e+00 0.0000000000000000e+00  1.8394497525090341e+00 2.3046865763177742e+00 0.0000000000000000e+00  1.8404599151964838e+00 2.3078100740822434e+00 0.0000000000000000e+00  1.8420405872314345e+00 2.3118041622934808e+00 0.0000000000000000e+00  1.8426857148030895e+00 2.3139894769052836e+00 0.0000000000000000e+00  1.8440235115838564e+00 2.3173417714627100e+00 0.0000000000000000e+00  1.8444272169009945e+00 2.3188629739306301e+00 0.0000000000000000e+00  1.8454753635101184e+00 2.3214356989598444e+00 0.0000000000000000e+00  1.8457101735262660e+00 2.3225661477420219e+00 0.0000000000000000e+00  1.8465672199943914e+00 2.3245527822536474e+00 0.0000000000000000e+00  1.8465948979614977e+00 2.3251780079998370e+00 0.0000000000000000e+00  1.8473306893902151e+00 2.3268520992469059e+00 0.0000000000000000e+00  1.8472459988236190e+00 2.3271351017721904e+00 0.0000000000000000e+00  1.8478062229066807e+00 2.3283437360799564e+00 0.0000000000000000e+00  1.8476934704866210e+00 2.3285798495570043e+00 0.0000000000000000e+00  1.8481411836856818e+00 2.3294330669685790e+00 0.0000000000000000e+00  1.8479407437714788e+00 2.3294514014053527e+00 0.0000000000000000e+00  1.8483663438349558e+00 2.3302402521888514e+00 0.0000000000000000e+00  1.8481170564480798e+00 2.3300969208148814e+00 0.0000000000000000e+00  1.8484520885032274e+00 2.3306456779143332e+00 0.0000000000000000e+00  1.8482508051705733e+00 2.3306109124283436e+00 0.0000000000000000e+00  1.8485062713149287e+00 2.3309506536202091e+00 0.0000000000000000e+00  1.8482827731040654e+00 2.3308435147342261e+00 0.0000000000000000e+00  1.8485593929097599e+00 2.3312109005746060e+00 0.0000000000000000e+00  1.8483109636435608e+00 2.3310453763033969e+00 0.0000000000000000e+00  1.8485318443564622e+00 2.3312684483354884e+00 0.0000000000000000e+00  1.8483591020756567e+00 2.3312519222988262e+00 0.0000000000000000e+00  1.8485115498539622e+00 2.3313357239505152e+00 0.0000000000000000e+00  1.8483458507428543e+00 2.3313048478496272e+00 0.0000000000000000e+00  1.8485166259167374e+00 2.3314253277596633e+00 0.0000000000000000e+00  1.8483485521881353e+00 2.3313811009224152e+00 0.0000000000000000e+00  1.8484693894328541e+00 2.3314080729862474e+00 0.0000000000000000e+00  1.8483765057152823e+00 2.3314788588932616e+00 0.0000000000000000e+00  1.8484399100586395e+00 2.3314150987000741e+00 0.0000000000000000e+00  1.8483649432816736e+00 2.3314970863303186e+00 0.0000000000000000e+00  1.8484309131987382e+00 2.3314531622592676e+00 0.0000000000000000e+00  1.8483655894336852e+00 2.3315159345323253e+00 0.0000000000000000e+00  1.8483947638377571e+00 2.3314544638254726e+00 0.0000000000000000e+00  1.8483860498841433e+00 2.3315544692355274e+00 0.0000000000000000e+00  1.8483620671760301e+00 2.3314361455983859e+00 0.0000000000000000e+00  1.8483848939180094e+00 2.3315941132042348e+00 0.0000000000000000e+00  1.8483571450145058e+00 2.3314368342614280e+00 0.0000000000000000e+00  1.8483703848226563e+00 2.3315742343066299e+00 0.0000000000000000e+00  1.8483420477180199e+00 2.3314879759887370e+00 0.0000000000000000e+00  1.8483873105167334e+00 2.3315525680654625e+00 0.0000000000000000e+00  1.8482996514914405e+00 2.3314814709601355e+00 0.0000000000000000e+00  1.8483995560668922e+00 2.3315859485943924e+00 0.0000000000000000e+00  1.8483018423377808e+00 2.3314635487151047e+00 0.0000000000000000e+00  1.8483627352693521e+00 2.3315816688348936e+00 0.0000000000000000e+00  1.8483113039285513e+00 2.3314795579551824e+00 0.0000000000000000e+00  1.8483713212138557e+00 2.3315741718872363e+00 0.0000000000000000e+00  1.8482666788571995e+00 2.3314865667902835e+00 0.0000000000000000e+00  1.8483913892973349e+00 2.3315206529914492e+00 0.0000000000000000e+00  1.8482638899877966e+00 2.3316066426449340e+00 0.0000000000000000e+00  1.8483540249456185e+00 2.3313590370793644e+00 0.0000000000000000e+00  1.8482889928062469e+00 2.3316977098997764e+00 0.0000000000000000e+00  1.8483364505610647e+00 2.3314216963429253e+00 0.0000000000000000e+00  1.8482669289195566e+00 2.3314380583938101e+00 0.0000000000000000e+00  1.8483561293801860e+00 2.3317799522318556e+00 0.0000000000000000e+00  1.8482432465872305e+00 2.3311238275734509e+00 0.0000000000000000e+00  1.8483467305310191e+00 2.3318374546663283e+00 0.0000000000000000e+00  1.8482550045050892e+00 2.3314035028851388e+00 0.0000000000000000e+00  1.8483181768526740e+00 2.3312478919617772e+00 0.0000000000000000e+00  1.8482579835533917e+00 2.3320744628107120e+00 0.0000000000000000e+00  1.8483280525280046e+00 2.3307027486072687e+00 0.0000000000000000e+00  1.8482057542039585e+00 2.3323171311829944e+00 0.0000000000000000e+00  1.8483750864404938e+00 2.3307357391539711e+00 0.0000000000000000e+00  1.8481683117890602e+00 2.3320690458616955e+00 0.0000000000000000e+00  1.8483610866511893e+00 2.3310499859416569e+00 0.0000000000000000e+00  1.8481902399606676e+00 2.3317259425314742e+00 0.0000000000000000e+00  1.8483464977718320e+00 2.3313562927650229e+00 0.0000000000000000e+00  1.8481554305235830e+00 2.3314270809432074e+00 0.0000000000000000e+00  1.8483867070305464e+00 2.3315750812062546e+00 0.0000000000000000e+00  1.8480833136830566e+00 2.3313743907098905e+00 0.0000000000000000e+00  1.8483053182449662e+00 2.3316499596076121e+00 0.0000000000000000e+00  1.8479811270583466e+00 2.3316881848923043e+00 0.0000000000000000e+00  1.8480220418369389e+00 2.3319755821588624e+00 0.0000000000000000e+00  1.8476546244253769e+00 2.3321471697558342e+00 0.0000000000000000e+00  1.8477220615399619e+00 2.3324774852469337e+00 0.0000000000000000e+00  1.8473568240315534e+00 2.3324827575456686e+00 0.0000000000000000e+00  1.8476869022230427e+00 2.3322261108465625e+00 0.0000000000000000e+00  1.8477456447121832e+00 2.3320084247872823e+00 0.0000000000000000e+00  1.8481651407684654e+00 2.3310774377108512e+00 0.0000000000000000e+00  1.8485389478931122e+00 2.3309071808247670e+00 0.0000000000000000e+00  1.8487096888084020e+00 2.3299023698347998e+00 0.0000000000000000e+00  1.8491189382587436e+00 2.3308506228141055e+00 0.0000000000000000e+00  1.8483993268285932e+00 2.3281894599071933e+00 0.0000000000000000e+00  1.8502370716932612e+00 2.3332826280000076e+00 0.0000000000000000e+00  1.8473275422067217e+00 2.3234273172837838e+00 0.0000000000000000e+00  1.8533995487155497e+00 2.3341867029436827e+00 0.0000000000000000e+00  1.8213978301838498e+00 2.3793170064101985e+00 0.0000000000000000e+00  2.0007570506616537e+00 2.0075675484680451e+00 0.0000000000000000e+00  2.5811886849921550e+00 7.0238681469045527e-01 0.0000000000000000e+00  2.9188908896649903e+00 1.0004562391044451e-01 0.0000000000000000e+00  2.9763712578787267e+00 5.8068794870745040e-03 0.0000000000000000e+00  2.9616430669987994e+00 1.0723482475588979e-02 0.0000000000000000e+00  2.9702895167154195e+00 -3.2095332195991744e-03 0.0000000000000000e+00  2.9718959487555301e+00 -3.1492043965038589e-03 0.0000000000000000e+00  2.9709465941445892e+00 -3.9768469556913499e-03 0.0000000000000000e+00  2.9724068120546110e+00 -7.9648774744718702e-03 0.0000000000000000e+00  2.9726164078095891e+00 -7.9826622718457696e-03 0.0000000000000000e+00  2.9716175931578159e+00 -7.0851064225185200e-03 0.0000000000000000e+00  2.9717065343673443e+00 -7.5239646459238857e-03 0.0000000000000000e+00  2.9718510701737442e+00 -8.1435610025642740e-03 0.0000000000000000e+00  2.9720200541778969e+00 -8.6116448142288353e-03 0.0000000000000000e+00  2.9718540615099123e+00 -8.3545144323942146e-03 0.0000000000000000e+00  2.9718750981221169e+00 -8.6954854239933987e-03 0.0000000000000000e+00  2.9717387068928542e+00 -8.3092246971457583e-03 0.0000000000000000e+00  2.9718740093285061e+00 -8.7846491686548768e-03 0.0000000000000000e+00  2.9717632636697711e+00 -8.4264861344485100e-03 0.0000000000000000e+00  2.9718622738643736e+00 -8.8988357027477427e-03 0.0000000000000000e+00  2.9717340078993821e+00 -8.3393648757212769e-03 0.0000000000000000e+00  2.9718159444047609e+00 -8.8823703815156443e-03 0.0000000000000000e+00  2.9717350698683442e+00 -8.5099582646136328e-03 0.0000000000000000e+00  2.9718022383244938e+00 -8.6870433696805138e-03 0.0000000000000000e+00  2.9717176842444175e+00 -8.7369977111490336e-03 0.0000000000000000e+00  2.9717881451855157e+00 -8.7871575795940328e-03 0.0000000000000000e+00  2.9717094939259421e+00 -8.4374506931321584e-03 0.0000000000000000e+00  2.9717457643589840e+00 -9.0339790357988354e-03 0.0000000000000000e+00  2.9717273113869731e+00 -8.5388113196450451e-03 0.0000000000000000e+00  2.9717074412672240e+00 -8.6798690776545701e-03 0.0000000000000000e+00  2.9717194600484058e+00 -9.5238259656496432e-03 0.0000000000000000e+00  2.9716935104997231e+00 -8.3881926253459391e-03 0.0000000000000000e+00  2.9717114746504381e+00 -9.4746179695704390e-03 0.0000000000000000e+00  2.9716672991012278e+00 -9.6334988262964209e-03 0.0000000000000000e+00  2.9717369159266585e+00 -8.4413777475701949e-03 0.0000000000000000e+00  2.9716278402073852e+00 -1.4754894290721993e-02 0.0000000000000000e+00  2.9717582918551968e+00 -9.9544522034346328e-03 0.0000000000000000e+00  2.9716333434971998e+00 0.0000000000000000e+00 0.0000000000000000e+00  1.8308689034326755e+00 0.0000000000000000e+00 -1.8013810028036802e-05  1.8308523992491421e+00 4.2030037947617810e-02 1.3607452647491858e-06  1.8308109816315237e+00 8.4066435353553681e-02 8.4276215208882518e-06  1.8307390707828062e+00 1.2608689172483387e-01 -2.7721675916998561e-06  1.8306409924041476e+00 1.6809725021875419e-01 9.4780733868762166e-08  1.8305103972730257e+00 2.1010168270148202e-01 1.7465816995278999e-06  1.8303546146172061e+00 2.5208277556068481e-01 -2.4874425616280705e-06  1.8301681447274831e+00 2.9405989244572955e-01 2.3059716961684806e-06  1.8299516680008481e+00 3.3599516241420924e-01 -2.5270116377921815e-06  1.8297070743777797e+00 3.7793061030462310e-01 2.8724832979683987e-06  1.8294331099772565e+00 4.1981631026133187e-01 -3.7362636125211148e-06  1.8291266342082153e+00 4.6169121881847236e-01 4.3861297263531237e-06  1.8287925464482229e+00 5.0350794260256926e-01 -5.1932883769927667e-06  1.8284272170171578e+00 5.4531766241429880e-01 5.2856369319797462e-06  1.8280287591905613e+00 5.8705744000546856e-01 -4.5586626849298438e-06  1.8276013819915857e+00 6.2875587980151015e-01 1.5286306778076974e-06  1.8271413242058914e+00 6.7043761368947907e-01 3.8215821480094105e-06  1.8266475054744151e+00 7.1200465590754514e-01 -1.1835507296935887e-05  1.8261214532680792e+00 7.5356852907455796e-01 2.0076116974666348e-05  1.8255645586394145e+00 7.9504388967614770e-01 -2.7335945817304293e-05  1.8249670219246001e+00 8.3645040953821448e-01 3.1538672981124565e-05  1.8243424851611629e+00 8.7776887902708378e-01 -3.3814578370649915e-05  1.8236765504748724e+00 9.1906853577331804e-01 3.4020927746656438e-05  1.8229784373534375e+00 9.6017949643545553e-01 -3.4825215664382131e-05  1.8222393528166319e+00 1.0012937851864168e+00 3.6804680925809873e-05  1.8214702530527542e+00 1.0422572835009973e+00 -4.2322729199794554e-05  1.8206520584902537e+00 1.0831282605875228e+00 4.9425999541336129e-05  1.8198074403885505e+00 1.1238491009422902e+00 -5.7506942162487704e-05  1.8189116498926092e+00 1.1645392258846459e+00 6.3364995256493090e-05  1.8179868793908056e+00 1.2049542292241511e+00 -6.7778813045310074e-05  1.8170086297590868e+00 1.2453580709464507e+00 7.0137076043079693e-05  1.8160054816348687e+00 1.2855115888156783e+00 -7.3627128285921428e-05  1.8149411595136233e+00 1.3255688622542172e+00 7.8396782246643816e-05  1.8138563424072052e+00 1.3653437363607550e+00 -8.5797303945551106e-05  1.8127079189829023e+00 1.4050739014990865e+00 9.1869995092173047e-05  1.8115410261465767e+00 1.4444034240181629e+00 -9.5646303720891724e-05  1.8103075482619564e+00 1.4836765751804206e+00 9.5163902447822874e-05  1.8090635119485989e+00 1.5225520869006319e+00 -9.5287720676859793e-05  1.8077492093587988e+00 1.5612841476171206e+00 9.6921147335279545e-05  1.8064338672878624e+00 1.5995554756775252e+00 -1.0154044352747897e-04  1.8050489793896742e+00 1.6376938274933828e+00 1.0407340059054133e-04  1.8036775052172636e+00 1.6752530051803740e+00 -1.0481313933162167e-04  1.8022409907610901e+00 1.7126083267481715e+00 1.0339081265185739e-04  1.8008377716925712e+00 1.7493400957678023e+00 -1.0319254596711436e-04  1.7993862797642302e+00 1.7857415908564915e+00 1.0279651433561690e-04  1.7979994897134739e+00 1.8213887639278592e+00 -1.0438960651116049e-04  1.7965869932754406e+00 1.8566253801044272e+00 1.0576298416280207e-04  1.7952989679479181e+00 1.8908983880196464e+00 -1.0787134045752916e-04  1.7940277328597212e+00 1.9245770457683287e+00 1.0656277706778734e-04  1.7929552594956462e+00 1.9570918807790747e+00 -1.0561293460912370e-04  1.7919921024784706e+00 1.9887311393436908e+00 1.0382135866132123e-04  1.7913350787996645e+00 2.0188537421426913e+00 -1.0466222946970247e-04  1.7909029354357877e+00 2.0477923947228311e+00 1.0431999577235665e-04  1.7909475861127102e+00 2.0747736525851024e+00 -1.0458474414107245e-04  1.7913494207155125e+00 2.1001376766342386e+00 1.0381778070392607e-04  1.7923749953439356e+00 2.1231639878686774e+00 -9.9300097096201672e-05  1.7938878637172564e+00 2.1442591100565864e+00 9.7140404987894330e-05  1.7960499243430414e+00 2.1627970326205639e+00 -9.0149393896381150e-05  1.7986531485266615e+00 2.1795112042059599e+00 8.9076989234139657e-05  1.8017778087286052e+00 2.1939777386997577e+00 -8.3869480832550960e-05  1.8050742655717700e+00 2.2070680067750588e+00 8.0105056075586292e-05  1.8086085999316508e+00 2.2185966532661325e+00 -7.6806131668802254e-05  1.8120709622811526e+00 2.2293700317660221e+00 6.9150150984505267e-05  1.8154977052780323e+00 2.2389880514197382e+00 -6.4704985420258463e-05  1.8187244356714900e+00 2.2482497911634645e+00 5.8800812080996788e-05  1.8218413377181983e+00 2.2565935322750135e+00 -5.4779949984021900e-05  1.8246677631015586e+00 2.2645434517252392e+00 5.2398163159923210e-05  1.8273836396156862e+00 2.2717654297388652e+00 -5.0310292174102875e-05  1.8298350043346456e+00 2.2786208018237550e+00 5.0404131439299170e-05  1.8321058126552796e+00 2.2846540942111560e+00 -5.0612679215759492e-05  1.8341717103283379e+00 2.2904790327945612e+00 5.2229961356101894e-05  1.8360786306441348e+00 2.2955206547126989e+00 -5.5850322680935705e-05  1.8377284184703704e+00 2.3002280720697250e+00 6.0907704149219108e-05  1.8392947004904809e+00 2.3043811931614200e+00 -6.8915646314028026e-05  1.8406272044539660e+00 2.3082115520708326e+00 7.8135443929778798e-05  1.8418259549874083e+00 2.3113760493377389e+00 -8.8728851286096135e-05  1.8428808252685767e+00 2.3145093329888593e+00 9.9241466351098452e-05  1.8438249912747249e+00 2.3169246057643087e+00 -1.0978376737265686e-04  1.8445659759418453e+00 2.3192698996989507e+00 1.2210934646335493e-04  1.8453168318941249e+00 2.3211529424920987e+00 -1.3441834233211247e-04  1.8458503626046847e+00 2.3229495883379379e+00 1.4965488358909283e-04  1.8463702407748523e+00 2.3241720307953257e+00 -1.6179536346758961e-04  1.84676631