<?xml version="1.0"?>
<VTKFile type="UnstructuredGrid"  version="0.1"  >
<UnstructuredGrid>
<Piece  NumberOfPoints="8241" NumberOfCells="16000">
<Points>
<DataArray  type="Float64"  NumberOfComponents="3"  format="ascii">-5 -1 0  -4.95 -1 0  -4.9 -1 0  -4.85 -1 0  -4.8 -1 0  -4.75 -1 0  -4.7 -1 0  -4.65 -1 0  -4.6 -1 0  -4.55 -1 0  -4.5 -1 0  -4.45 -1 0  -4.4 -1 0  -4.35 -1 0  -4.3 -1 0  -4.25 -1 0  -4.2 -1 0  -4.15 -1 0  -4.1 -1 0  -4.05 -1 0  -4 -1 0  -3.95 -1 0  -3.9 -1 0  -3.85 -1 0  -3.8 -1 0  -3.75 -1 0  -3.7 -1 0  -3.65 -1 0  -3.6 -1 0  -3.55 -1 0  -3.5 -1 0  -3.45 -1 0  -3.4 -1 0  -3.35 -1 0  -3.3 -1 0  -3.25 -1 0  -3.2 -1 0  -3.15 -1 0  -3.1 -1 0  -3.05 -1 0  -3 -1 0  -2.95 -1 0  -2.9 -1 0  -2.85 -1 0  -2.8 -1 0  -2.75 -1 0  -2.7 -1 0  -2.65 -1 0  -2.6 -1 0  -2.55 -1 0  -2.5 -1 0  -2.45 -1 0  -2.4 -1 0  -2.35 -1 0  -2.3 -1 0  -2.25 -1 0  -2.2 -1 0  -2.15 -1 0  -2.1 -1 0  -2.05 -1 0  -2 -1 0  -1.95 -1 0  -1.9 -1 0  -1.85 -1 0  -1.8 -1 0  -1.75 -1 0  -1.7 -1 0  -1.65 -1 0  -1.6 -1 0  -1.55 -1 0  -1.5 -1 0  -1.45 -1 0  -1.4 -1 0  -1.35 -1 0  -1.3 -1 0  -1.25 -1 0  -1.2 -1 0  -1.15 -1 0  -1.1 -1 0  -1.05 -1 0  -1 -1 0  -0.9500000000000002 -1 0  -0.9000000000000004 -1 0  -0.8499999999999996 -1 0  -0.7999999999999998 -1 0  -0.75 -1 0  -0.7000000000000002 -1 0  -0.6500000000000004 -1 0  -0.5999999999999996 -1 0  -0.5499999999999998 -1 0  -0.5 -1 0  -0.4500000000000002 -1 0  -0.4000000000000004 -1 0  -0.3499999999999996 -1 0  -0.2999999999999998 -1 0  -0.25 -1 0  -0.2000000000000002 -1 0  -0.1500000000000004 -1 0  -0.09999999999999964 -1 0  -0.04999999999999982 -1 0  0 -1 0  0.04999999999999982 -1 0  0.09999999999999964 -1 0  0.1500000000000004 -1 0  0.2000000000000002 -1 0  0.25 -1 0  0.2999999999999998 -1 0  0.3499999999999996 -1 0  0.4000000000000004 -1 0  0.4500000000000002 -1 0  0.5 -1 0  0.5499999999999998 -1 0  0.5999999999999996 -1 0  0.6500000000000004 -1 0  0.7000000000000002 -1 0  0.75 -1 0  0.7999999999999998 -1 0  0.8499999999999996 -1 0  0.9000000000000004 -1 0  0.9500000000000002 -1 0  1 -1 0  1.05 -1 0  1.1 -1 0  1.15 -1 0  1.2 -1 0  1.25 -1 0  1.3 -1 0  1.35 -1 0  1.4 -1 0  1.45 -1 0  1.5 -1 0  1.55 -1 0  1.6 -1 0  1.65 -1 0  1.7 -1 0  1.75 -1 0  1.8 -1 0  1.85 -1 0  1.9 -1 0  1.95 -1 0  2 -1 0  2.05 -1 0  2.1 -1 0  2.15 -1 0  2.2 -1 0  2.25 -1 0  2.3 -1 0  2.35 -1 0  2.4 -1 0  2.45 -1 0  2.5 -1 0  2.55 -1 0  2.6 -1 0  2.65 -1 0  2.7 -1 0  2.75 -1 0  2.8 -1 0  2.85 -1 0  2.9 -1 0  2.95 -1 0  3 -1 0  3.050000000000001 -1 0  3.1 -1 0  3.15 -1 0  3.199999999999999 -1 0  3.25 -1 0  3.300000000000001 -1 0  3.35 -1 0  3.4 -1 0  3.449999999999999 -1 0  3.5 -1 0  3.550000000000001 -1 0  3.6 -1 0  3.65 -1 0  3.699999999999999 -1 0  3.75 -1 0  3.800000000000001 -1 0  3.85 -1 0  3.9 -1 0  3.949999999999999 -1 0  4 -1 0  4.050000000000001 -1 0  4.1 -1 0  4.15 -1 0  4.199999999999999 -1 0  4.25 -1 0  4.300000000000001 -1 0  4.35 -1 0  4.4 -1 0  4.449999999999999 -1 0  4.5 -1 0  4.550000000000001 -1 0  4.6 -1 0  4.65 -1 0  4.699999999999999 -1 0  4.75 -1 0  4.800000000000001 -1 0  4.85 -1 0  4.9 -1 0  4.949999999999999 -1 0  5 -1 0  -5 -0.95 0  -4.95 -0.95 0  -4.9 -0.95 0  -4.85 -0.95 0  -4.8 -0.95 0  -4.75 -0.95 0  -4.7 -0.95 0  -4.65 -0.95 0  -4.6 -0.95 0  -4.55 -0.95 0  -4.5 -0.95 0  -4.45 -0.95 0  -4.4 -0.95 0  -4.35 -0.95 0  -4.3 -0.95 0  -4.25 -0.95 0  -4.2 -0.95 0  -4.15 -0.95 0  -4.1 -0.95 0  -4.05 -0.95 0  -4 -0.95 0  -3.95 -0.95 0  -3.9 -0.95 0  -3.85 -0.95 0  -3.8 -0.95 0  -3.75 -0.95 0  -3.7 -0.95 0  -3.65 -0.95 0  -3.6 -0.95 0  -3.55 -0.95 0  -3.5 -0.95 0  -3.45 -0.95 0  -3.4 -0.95 0  -3.35 -0.95 0  -3.3 -0.95 0  -3.25 -0.95 0  -3.2 -0.95 0  -3.15 -0.95 0  -3.1 -0.95 0  -3.05 -0.95 0  -3 -0.95 0  -2.95 -0.95 0  -2.9 -0.95 0  -2.85 -0.95 0  -2.8 -0.95 0  -2.75 -0.95 0  -2.7 -0.95 0  -2.65 -0.95 0  -2.6 -0.95 0  -2.55 -0.95 0  -2.5 -0.95 0  -2.45 -0.95 0  -2.4 -0.95 0  -2.35 -0.95 0  -2.3 -0.95 0  -2.25 -0.95 0  -2.2 -0.95 0  -2.15 -0.95 0  -2.1 -0.95 0  -2.05 -0.95 0  -2 -0.95 0  -1.95 -0.95 0  -1.9 -0.95 0  -1.85 -0.95 0  -1.8 -0.95 0  -1.75 -0.95 0  -1.7 -0.95 0  -1.65 -0.95 0  -1.6 -0.95 0  -1.55 -0.95 0  -1.5 -0.95 0  -1.45 -0.95 0  -1.4 -0.95 0  -1.35 -0.95 0  -1.3 -0.95 0  -1.25 -0.95 0  -1.2 -0.95 0  -1.15 -0.95 0  -1.1 -0.95 0  -1.05 -0.95 0  -1 -0.95 0  -0.9500000000000002 -0.95 0  -0.9000000000000004 -0.95 0  -0.8499999999999996 -0.95 0  -0.7999999999999998 -0.95 0  -0.75 -0.95 0  -0.7000000000000002 -0.95 0  -0.6500000000000004 -0.95 0  -0.5999999999999996 -0.95 0  -0.5499999999999998 -0.95 0  -0.5 -0.95 0  -0.4500000000000002 -0.95 0  -0.4000000000000004 -0.95 0  -0.3499999999999996 -0.95 0  -0.2999999999999998 -0.95 0  -0.25 -0.95 0  -0.2000000000000002 -0.95 0  -0.1500000000000004 -0.95 0  -0.09999999999999964 -0.95 0  -0.04999999999999982 -0.95 0  0 -0.95 0  0.04999999999999982 -0.95 0  0.09999999999999964 -0.95 0  0.1500000000000004 -0.95 0  0.2000000000000002 -0.95 0  0.25 -0.95 0  0.2999999999999998 -0.95 0  0.3499999999999996 -0.95 0  0.4000000000000004 -0.95 0  0.4500000000000002 -0.95 0  0.5 -0.95 0  0.5499999999999998 -0.95 0  0.5999999999999996 -0.95 0  0.6500000000000004 -0.95 0  0.7000000000000002 -0.95 0  0.75 -0.95 0  0.7999999999999998 -0.95 0  0.8499999999999996 -0.95 0  0.9000000000000004 -0.95 0  0.9500000000000002 -0.95 0  1 -0.95 0  1.05 -0.95 0  1.1 -0.95 0  1.15 -0.95 0  1.2 -0.95 0  1.25 -0.95 0  1.3 -0.95 0  1.35 -0.95 0  1.4 -0.95 0  1.45 -0.95 0  1.5 -0.95 0  1.55 -0.95 0  1.6 -0.95 0  1.65 -0.95 0  1.7 -0.95 0  1.75 -0.95 0  1.8 -0.95 0  1.85 -0.95 0  1.9 -0.95 0  1.95 -0.95 0  2 -0.95 0  2.05 -0.95 0  2.1 -0.95 0  2.15 -0.95 0  2.2 -0.95 0  2.25 -0.95 0  2.3 -0.95 0  2.35 -0.95 0  2.4 -0.95 0  2.45 -0.95 0  2.5 -0.95 0  2.55 -0.95 0  2.6 -0.95 0  2.65 -0.95 0  2.7 -0.95 0  2.75 -0.95 0  2.8 -0.95 0  2.85 -0.95 0  2.9 -0.95 0  2.95 -0.95 0  3 -0.95 0  3.050000000000001 -0.95 0  3.1 -0.95 0  3.15 -0.95 0  3.199999999999999 -0.95 0  3.25 -0.95 0  3.300000000000001 -0.95 0  3.35 -0.95 0  3.4 -0.95 0  3.449999999999999 -0.95 0  3.5 -0.95 0  3.550000000000001 -0.95 0  3.6 -0.95 0  3.65 -0.95 0  3.699999999999999 -0.95 0  3.75 -0.95 0  3.800000000000001 -0.95 0  3.85 -0.95 0  3.9 -0.95 0  3.949999999999999 -0.95 0  4 -0.95 0  4.050000000000001 -0.95 0  4.1 -0.95 0  4.15 -0.95 0  4.199999999999999 -0.95 0  4.25 -0.95 0  4.300000000000001 -0.95 0  4.35 -0.95 0  4.4 -0.95 0  4.449999999999999 -0.95 0  4.5 -0.95 0  4.550000000000001 -0.95 0  4.6 -0.95 0  4.65 -0.95 0  4.699999999999999 -0.95 0  4.75 -0.95 0  4.800000000000001 -0.95 0  4.85 -0.95 0  4.9 -0.95 0  4.949999999999999 -0.95 0  5 -0.95 0  -5 -0.9 0  -4.95 -0.9 0  -4.9 -0.9 0  -4.85 -0.9 0  -4.8 -0.9 0  -4.75 -0.9 0  -4.7 -0.9 0  -4.65 -0.9 0  -4.6 -0.9 0  -4.55 -0.9 0  -4.5 -0.9 0  -4.45 -0.9 0  -4.4 -0.9 0  -4.35 -0.9 0  -4.3 -0.9 0  -4.25 -0.9 0  -4.2 -0.9 0  -4.15 -0.9 0  -4.1 -0.9 0  -4.05 -0.9 0  -4 -0.9 0  -3.95 -0.9 0  -3.9 -0.9 0  -3.85 -0.9 0  -3.8 -0.9 0  -3.75 -0.9 0  -3.7 -0.9 0  -3.65 -0.9 0  -3.6 -0.9 0  -3.55 -0.9 0  -3.5 -0.9 0  -3.45 -0.9 0  -3.4 -0.9 0  -3.35 -0.9 0  -3.3 -0.9 0  -3.25 -0.9 0  -3.2 -0.9 0  -3.15 -0.9 0  -3.1 -0.9 0  -3.05 -0.9 0  -3 -0.9 0  -2.95 -0.9 0  -2.9 -0.9 0  -2.85 -0.9 0  -2.8 -0.9 0  -2.75 -0.9 0  -2.7 -0.9 0  -2.65 -0.9 0  -2.6 -0.9 0  -2.55 -0.9 0  -2.5 -0.9 0  -2.45 -0.9 0  -2.4 -0.9 0  -2.35 -0.9 0  -2.3 -0.9 0  -2.25 -0.9 0  -2.2 -0.9 0  -2.15 -0.9 0  -2.1 -0.9 0  -2.05 -0.9 0  -2 -0.9 0  -1.95 -0.9 0  -1.9 -0.9 0  -1.85 -0.9 0  -1.8 -0.9 0  -1.75 -0.9 0  -1.7 -0.9 0  -1.65 -0.9 0  -1.6 -0.9 0  -1.55 -0.9 0  -1.5 -0.9 0  -1.45 -0.9 0  -1.4 -0.9 0  -1.35 -0.9 0  -1.3 -0.9 0  -1.25 -0.9 0  -1.2 -0.9 0  -1.15 -0.9 0  -1.1 -0.9 0  -1.05 -0.9 0  -1 -0.9 0  -0.9500000000000002 -0.9 0  -0.9000000000000004 -0.9 0  -0.8499999999999996 -0.9 0  -0.7999999999999998 -0.9 0  -0.75 -0.9 0  -0.7000000000000002 -0.9 0  -0.6500000000000004 -0.9 0  -0.5999999999999996 -0.9 0  -0.5499999999999998 -0.9 0  -0.5 -0.9 0  -0.4500000000000002 -0.9 0  -0.4000000000000004 -0.9 0  -0.3499999999999996 -0.9 0  -0.2999999999999998 -0.9 0  -0.25 -0.9 0  -0.2000000000000002 -0.9 0  -0.1500000000000004 -0.9 0  -0.09999999999999964 -0.9 0  -0.04999999999999982 -0.9 0  0 -0.9 0  0.04999999999999982 -0.9 0  0.09999999999999964 -0.9 0  0.1500000000000004 -0.9 0  0.2000000000000002 -0.9 0  0.25 -0.9 0  0.2999999999999998 -0.9 0  0.3499999999999996 -0.9 0  0.4000000000000004 -0.9 0  0.4500000000000002 -0.9 0  0.5 -0.9 0  0.5499999999999998 -0.9 0  0.5999999999999996 -0.9 0  0.6500000000000004 -0.9 0  0.7000000000000002 -0.9 0  0.75 -0.9 0  0.7999999999999998 -0.9 0  0.8499999999999996 -0.9 0  0.9000000000000004 -0.9 0  0.9500000000000002 -0.9 0  1 -0.9 0  1.05 -0.9 0  1.1 -0.9 0  1.15 -0.9 0  1.2 -0.9 0  1.25 -0.9 0  1.3 -0.9 0  1.35 -0.9 0  1.4 -0.9 0  1.45 -0.9 0  1.5 -0.9 0  1.55 -0.9 0  1.6 -0.9 0  1.65 -0.9 0  1.7 -0.9 0  1.75 -0.9 0  1.8 -0.9 0  1.85 -0.9 0  1.9 -0.9 0  1.95 -0.9 0  2 -0.9 0  2.05 -0.9 0  2.1 -0.9 0  2.15 -0.9 0  2.2 -0.9 0  2.25 -0.9 0  2.3 -0.9 0  2.35 -0.9 0  2.4 -0.9 0  2.45 -0.9 0  2.5 -0.9 0  2.55 -0.9 0  2.6 -0.9 0  2.65 -0.9 0  2.7 -0.9 0  2.75 -0.9 0  2.8 -0.9 0  2.85 -0.9 0  2.9 -0.9 0  2.95 -0.9 0  3 -0.9 0  3.050000000000001 -0.9 0  3.1 -0.9 0  3.15 -0.9 0  3.199999999999999 -0.9 0  3.25 -0.9 0  3.300000000000001 -0.9 0  3.35 -0.9 0  3.4 -0.9 0  3.449999999999999 -0.9 0  3.5 -0.9 0  3.550000000000001 -0.9 0  3.6 -0.9 0  3.65 -0.9 0  3.699999999999999 -0.9 0  3.75 -0.9 0  3.800000000000001 -0.9 0  3.85 -0.9 0  3.9 -0.9 0  3.949999999999999 -0.9 0  4 -0.9 0  4.050000000000001 -0.9 0  4.1 -0.9 0  4.15 -0.9 0  4.199999999999999 -0.9 0  4.25 -0.9 0  4.300000000000001 -0.9 0  4.35 -0.9 0  4.4 -0.9 0  4.449999999999999 -0.9 0  4.5 -0.9 0  4.550000000000001 -0.9 0  4.6 -0.9 0  4.65 -0.9 0  4.699999999999999 -0.9 0  4.75 -0.9 0  4.800000000000001 -0.9 0  4.85 -0.9 0  4.9 -0.9 0  4.949999999999999 -0.9 0  5 -0.9 0  -5 -0.85 0  -4.95 -0.85 0  -4.9 -0.85 0  -4.85 -0.85 0  -4.8 -0.85 0  -4.75 -0.85 0  -4.7 -0.85 0  -4.65 -0.85 0  -4.6 -0.85 0  -4.55 -0.85 0  -4.5 -0.85 0  -
[...]
<PointData  Vectors="f_15"> 
<DataArray  type="Float64"  Name="f_15"  NumberOfComponents="3" format="ascii">1.3086437620820368e+00 0.0000000000000000e+00 0.0000000000000000e+00  1.3083470045164425e+00 3.0081523318298310e-02 0.0000000000000000e+00  1.3086992201509788e+00 6.1261063039917962e-02 0.0000000000000000e+00  1.3083936533074378e+00 9.1306362639027680e-02 0.0000000000000000e+00  1.3086989897422638e+00 1.2203465660214269e-01 0.0000000000000000e+00  1.3085098052068824e+00 1.5233851951064525e-01 0.0000000000000000e+00  1.3088072685733172e+00 1.8277522164866414e-01 0.0000000000000000e+00  1.3085818556582811e+00 2.1323334492920526e-01 0.0000000000000000e+00  1.3089862013134352e+00 2.4350975150638832e-01 0.0000000000000000e+00  1.3087777109798255e+00 2.7393806508464985e-01 0.0000000000000000e+00  1.3091407637926036e+00 3.0414729305920951e-01 0.0000000000000000e+00  1.3090409861488463e+00 3.3454768571082522e-01 0.0000000000000000e+00  1.3094413298913794e+00 3.6454453197713976e-01 0.0000000000000000e+00  1.3093027294063151e+00 3.9494036233675678e-01 0.0000000000000000e+00  1.3098217617109034e+00 4.2481233524900919e-01 0.0000000000000000e+00  1.3097283520025278e+00 4.5499963114223341e-01 0.0000000000000000e+00  1.3102477985358372e+00 4.8471827155096714e-01 0.0000000000000000e+00  1.3102547771500406e+00 5.1481718913477159e-01 0.0000000000000000e+00  1.3108790227052576e+00 5.4420851071462906e-01 0.0000000000000000e+00  1.3108870283815677e+00 5.7409564683847458e-01 0.0000000000000000e+00  1.3116681393047547e+00 6.0324442934416223e-01 0.0000000000000000e+00  1.3117909111441104e+00 6.3279984551451496e-01 0.0000000000000000e+00  1.3126544921810959e+00 6.6152167176685805e-01 0.0000000000000000e+00  1.3129590753143561e+00 6.9074395788242382e-01 0.0000000000000000e+00  1.3140192222363463e+00 7.1890524409442580e-01 0.0000000000000000e+00  1.3144783073169473e+00 7.4755277968523259e-01 0.0000000000000000e+00  1.3158117437870407e+00 7.7507531620780068e-01 0.0000000000000000e+00  1.3165725651686979e+00 8.0294892530902262e-01 0.0000000000000000e+00  1.3181820206347461e+00 8.2948203581368651e-01 0.0000000000000000e+00  1.3193723819335075e+00 8.5638947346672545e-01 0.0000000000000000e+00  1.3214185983533695e+00 8.8167690217963790e-01 0.0000000000000000e+00  1.3230994308768673e+00 9.0715052693933951e-01 0.0000000000000000e+00  1.3257325305044276e+00 9.3091794465007227e-01 0.0000000000000000e+00  1.3280750849238725e+00 9.5465378855712091e-01 0.0000000000000000e+00  1.3313591334273838e+00 9.7648005644498259e-01 0.0000000000000000e+00  1.3344801685888765e+00 9.9828337090164487e-01 0.0000000000000000e+00  1.3384961977654075e+00 1.0180974841279835e+00 0.0000000000000000e+00  1.3423578977226476e+00 1.0378692606639712e+00 0.0000000000000000e+00  1.3470646506871407e+00 1.0559013938956858e+00 0.0000000000000000e+00  1.3515585754600246e+00 1.0740403410658343e+00 0.0000000000000000e+00  1.3567600508973712e+00 1.0906851755568800e+00 0.0000000000000000e+00  1.3616985184220576e+00 1.1077896625366799e+00 0.0000000000000000e+00  1.3671913833504341e+00 1.1236498052140107e+00 0.0000000000000000e+00  1.3723765670563242e+00 1.1401640170347291e+00 0.0000000000000000e+00  1.3780148888832429e+00 1.1556907902717892e+00 0.0000000000000000e+00  1.3833271569876306e+00 1.1719458147060506e+00 0.0000000000000000e+00  1.3890341830121906e+00 1.1873022921869572e+00 0.0000000000000000e+00  1.3944287636080899e+00 1.2034559402536018e+00 0.0000000000000000e+00  1.4001638911259275e+00 1.2187203397655606e+00 0.0000000000000000e+00  1.4056374320000224e+00 1.2347876728055358e+00 0.0000000000000000e+00  1.4113907421414602e+00 1.2500002708361377e+00 0.0000000000000000e+00  1.4169231007176961e+00 1.2659860554229510e+00 0.0000000000000000e+00  1.4227107456003083e+00 1.2811406190763068e+00 0.0000000000000000e+00  1.4282939930142573e+00 1.2970701382108110e+00 0.0000000000000000e+00  1.4340964476124953e+00 1.3121472916440020e+00 0.0000000000000000e+00  1.4397503260214555e+00 1.3280305880069836e+00 0.0000000000000000e+00  1.4455605266373170e+00 1.3430472082365801e+00 0.0000000000000000e+00  1.4512591730814826e+00 1.3588614929036549e+00 0.0000000000000000e+00  1.4571058724450001e+00 1.3738333459319292e+00 0.0000000000000000e+00  1.4628333853503985e+00 1.3895941730767465e+00 0.0000000000000000e+00  1.4686970891880338e+00 1.4044945973177168e+00 0.0000000000000000e+00  1.4744744932526657e+00 1.4202195116790015e+00 0.0000000000000000e+00  1.4803485739198077e+00 1.4350705350538107e+00 0.0000000000000000e+00  1.4861437835745916e+00 1.4507169556124861e+00 0.0000000000000000e+00  1.4920634516921909e+00 1.4655572029480357e+00 0.0000000000000000e+00  1.4978566206720247e+00 1.4811127978461374e+00 0.0000000000000000e+00  1.5038013455381847e+00 1.4959397050917851e+00 0.0000000000000000e+00  1.5096167463298740e+00 1.5113991839159346e+00 0.0000000000000000e+00  1.5155766654781127e+00 1.5262379036240346e+00 0.0000000000000000e+00  1.5213834372875310e+00 1.5415682432387032e+00 0.0000000000000000e+00  1.5273937699548135e+00 1.5564356678099627e+00 0.0000000000000000e+00  1.5331737963865320e+00 1.5716232610103522e+00 0.0000000000000000e+00  1.5392093354851084e+00 1.5865360573842027e+00 0.0000000000000000e+00  1.5449968372549308e+00 1.6015406571625430e+00 0.0000000000000000e+00  1.5510355217138578e+00 1.6165171011517263e+00 0.0000000000000000e+00  1.5568104779948668e+00 1.6313722576764516e+00 0.0000000000000000e+00  1.5628814714815278e+00 1.6462963089516505e+00 0.0000000000000000e+00  1.5686254903378822e+00 1.6611190043001642e+00 0.0000000000000000e+00  1.5747045905776289e+00 1.6759412939302414e+00 0.0000000000000000e+00  1.5804537420226079e+00 1.6906410050254244e+00 0.0000000000000000e+00  1.5865104235398446e+00 1.7054948462774169e+00 0.0000000000000000e+00  1.5922528704934349e+00 1.7200141602929351e+00 0.0000000000000000e+00  1.5983142198778777e+00 1.7347350181338566e+00 0.0000000000000000e+00  1.6040190341165619e+00 1.7493777670888979e+00 0.0000000000000000e+00  1.6100775213618250e+00 1.7636945504009898e+00 0.0000000000000000e+00  1.6157673269887836e+00 1.7784353363886010e+00 0.0000000000000000e+00  1.6217889404054739e+00 1.7926626308863034e+00 0.0000000000000000e+00  1.6274622690383966e+00 1.8070804707311441e+00 0.0000000000000000e+00  1.6334639546032315e+00 1.8213476484795901e+00 0.0000000000000000e+00  1.6390832832114663e+00 1.8357374691030108e+00 0.0000000000000000e+00  1.6450698896758815e+00 1.8494463631350653e+00 0.0000000000000000e+00  1.6506458605434755e+00 1.8642113487594858e+00 0.0000000000000000e+00  1.6565776441966005e+00 1.8774497407498476e+00 0.0000000000000000e+00  1.6621210828329951e+00 1.8919899987779718e+00 0.0000000000000000e+00  1.6680000666827854e+00 1.9053473459137460e+00 0.0000000000000000e+00  1.6734710465651974e+00 1.9195140438021308e+00 0.0000000000000000e+00  1.6793123541542352e+00 1.9325108402186375e+00 0.0000000000000000e+00  1.6847034861146402e+00 1.9469191462469861e+00 0.0000000000000000e+00  1.6904720837072542e+00 1.9593169534337125e+00 0.0000000000000000e+00  1.6957949472402147e+00 1.9734671563710571e+00 0.0000000000000000e+00  1.7014791421807831e+00 1.9860991551924225e+00 0.0000000000000000e+00  1.7066996487578876e+00 1.9993595913285540e+00 0.0000000000000000e+00  1.7123115504841584e+00 2.0121317828793344e+00 0.0000000000000000e+00  1.7174121658303421e+00 2.0250574595730684e+00 0.0000000000000000e+00  1.7229165088120062e+00 2.0373880136568796e+00 0.0000000000000000e+00  1.7279153401167977e+00 2.0500254734036836e+00 0.0000000000000000e+00  1.7332798539403997e+00 2.0622235025501503e+00 0.0000000000000000e+00  1.7381460031362725e+00 2.0742142786710889e+00 0.0000000000000000e+00  1.7433781214227901e+00 2.0862195417007210e+00 0.0000000000000000e+00  1.7480449721046394e+00 2.0979324671161428e+00 0.0000000000000000e+00  1.7530871963509453e+00 2.1094568121813637e+00 0.0000000000000000e+00  1.7575007251020236e+00 2.1209399031134124e+00 0.0000000000000000e+00  1.7622521119387693e+00 2.1322994151069863e+00 0.0000000000000000e+00  1.7663708715528437e+00 2.1433188358523507e+00 0.0000000000000000e+00  1.7708642643324508e+00 2.1543028244745410e+00 0.0000000000000000e+00  1.7748699494411422e+00 2.1647780400367358e+00 0.0000000000000000e+00  1.7792802412345585e+00 2.1746699404995020e+00 0.0000000000000000e+00  1.7835061948649242e+00 2.1842728044180797e+00 0.0000000000000000e+00  1.7878600487795089e+00 2.1929264405550626e+00 0.0000000000000000e+00  1.7922077319634433e+00 2.2018456977514180e+00 0.0000000000000000e+00  1.7961206924017530e+00 2.2095911487010289e+00 0.0000000000000000e+00  1.8003894779187690e+00 2.2187594722964357e+00 0.0000000000000000e+00  1.8033576339612234e+00 2.2244421086034190e+00 0.0000000000000000e+00  1.8084478157087203e+00 2.2358085534808105e+00 0.0000000000000000e+00  1.8100953025882545e+00 2.2351742341718683e+00 0.0000000000000000e+00  1.8168753175797852e+00 2.2505707671358497e+00 0.0000000000000000e+00  1.7909111074542816e+00 2.3087979902531752e+00 0.0000000000000000e+00  2.0009555925475704e+00 1.8610523421865655e+00 0.0000000000000000e+00  2.5796453657647165e+00 5.8119181103226636e-01 0.0000000000000000e+00  2.8952907560015131e+00 3.4164337776240214e-02 0.0000000000000000e+00  2.9479211812522235e+00 -4.2667218761626859e-02 0.0000000000000000e+00  2.9372032070927685e+00 -3.2060504339592844e-02 0.0000000000000000e+00  2.9484935317170322e+00 -3.9480681093195427e-02 0.0000000000000000e+00  2.9526591390272010e+00 -3.4131020201921512e-02 0.0000000000000000e+00  2.9540718354233366e+00 -3.0009588628659090e-02 0.0000000000000000e+00  2.9579372483924917e+00 -2.9757656590321847e-02 0.0000000000000000e+00  2.9598960935204386e+00 -2.5289901341215542e-02 0.0000000000000000e+00  2.9608003623341612e+00 -2.1029702083450740e-02 0.0000000000000000e+00  2.9623581515331265e+00 -1.8139480896598302e-02 0.0000000000000000e+00  2.9641031194080556e+00 -1.6345384858514542e-02 0.0000000000000000e+00  2.9653275074658336e+00 -1.4039243160191504e-02 0.0000000000000000e+00  2.9664125312072316e+00 -1.2244520493911702e-02 0.0000000000000000e+00  2.9672238685805441e+00 -1.0321136262146667e-02 0.0000000000000000e+00  2.9680537365819410e+00 -8.9422183975777416e-03 0.0000000000000000e+00  2.9687466567262355e+00 -7.7508002683787892e-03 0.0000000000000000e+00  2.9694022978387720e+00 -6.7345859563277786e-03 0.0000000000000000e+00  2.9698358404519456e+00 -5.8958164012290039e-03 0.0000000000000000e+00  2.9703054414853800e+00 -5.0433713051878382e-03 0.0000000000000000e+00  2.9705960324132543e+00 -4.5582258732112585e-03 0.0000000000000000e+00  2.9709677351308161e+00 -3.9427913361031160e-03 0.0000000000000000e+00  2.9711300732721493e+00 -3.6745261358274526e-03 0.0000000000000000e+00  2.9714237675032882e+00 -3.1926505647999026e-03 0.0000000000000000e+00  2.9714862294575117e+00 -3.1181459256972520e-03 0.0000000000000000e+00  2.9717325223592312e+00 -2.7125759051896581e-03 0.0000000000000000e+00  2.9717137765383232e+00 -2.7357593755070356e-03 0.0000000000000000e+00  2.9719472072937507e+00 -2.4648634047424946e-03 0.0000000000000000e+00  2.9718667280548283e+00 -2.5196598364530514e-03 0.0000000000000000e+00  2.9720780820363055e+00 -2.3029376167170794e-03 0.0000000000000000e+00  2.9719644081685690e+00 -2.4333985111527983e-03 0.0000000000000000e+00  2.9721708111074996e+00 -2.2542743224691626e-03 0.0000000000000000e+00  2.9720212451042780e+00 -2.3550944328954893e-03 0.0000000000000000e+00  2.9722259501462696e+00 -2.3416228723126932e-03 0.0000000000000000e+00  2.9720681936437798e+00 -2.3822779055235020e-03 0.0000000000000000e+00  2.9722525984070036e+00 -2.5344780205273447e-03 0.0000000000000000e+00  2.9720975392701341e+00 -2.6809689363741676e-03 0.0000000000000000e+00  2.9722767964166805e+00 -3.0187971761713502e-03 0.0000000000000000e+00  2.9721141323404376e+00 -3.3109267715217610e-03 0.0000000000000000e+00  2.9722863993597191e+00 -3.9564224945448940e-03 0.0000000000000000e+00  2.9721389647954486e+00 -4.4103738205575260e-03 0.0000000000000000e+00  2.9722839932931535e+00 -5.1957457547099021e-03 0.0000000000000000e+00  2.9721570924014462e+00 -5.8506556357843381e-03 0.0000000000000000e+00  2.9722894815807877e+00 -6.4940917352729480e-03 0.0000000000000000e+00  2.9721673284608285e+00 -7.0431632944770260e-03 0.0000000000000000e+00  2.9722875276526364e+00 -7.6081818770333378e-03 0.0000000000000000e+00  2.9721886427381059e+00 -7.8471154050089083e-03 0.0000000000000000e+00  2.9722755409793056e+00 -8.1540877261829063e-03 0.0000000000000000e+00  2.9722054409724601e+00 -8.4463134600525364e-03 0.0000000000000000e+00  2.9722718067553533e+00 -8.3649239199037710e-03 0.0000000000000000e+00  2.9722146521222355e+00 -8.6728039522369262e-03 0.0000000000000000e+00  2.9722623992687534e+00 -8.5616369838105322e-03 0.0000000000000000e+00  2.9722322371790861e+00 -8.7222285078638814e-03 0.0000000000000000e+00  2.9722463510691206e+00 -8.6006219677173430e-03 0.0000000000000000e+00  2.9722442300771998e+00 -8.8378456222920430e-03 0.0000000000000000e+00  2.9722393298811447e+00 -8.5642375801583005e-03 0.0000000000000000e+00  2.9722495021022204e+00 -8.8299668117958908e-03 0.0000000000000000e+00  2.9722289904836932e+00 -8.7550688789437732e-03 0.0000000000000000e+00  2.9722617322271514e+00 -8.6218512250003099e-03 0.0000000000000000e+00  2.9722155497474474e+00 -8.9552816756150282e-03 0.0000000000000000e+00  2.9722676070517662e+00 -8.7634749294102730e-03 0.0000000000000000e+00  2.9722132159696026e+00 -8.6370992682352748e-03 0.0000000000000000e+00  2.9722671225173012e+00 -9.0242792229839469e-03 0.0000000000000000e+00  2.9722084616871247e+00 -8.7551464725095091e-03 0.0000000000000000e+00  2.9722742718367252e+00 -8.6799443036576010e-03 0.0000000000000000e+00  2.9722018927247942e+00 -9.7411390319170916e-03 0.0000000000000000e+00  2.9722746496263603e+00 -8.4249397640509018e-03 0.0000000000000000e+00  2.9722078540962320e+00 -9.6963355145132206e-03 0.0000000000000000e+00  2.9722696958444663e+00 -9.6892834056363630e-03 0.0000000000000000e+00  2.9722112531646143e+00 -8.7657019047156989e-03 0.0000000000000000e+00  2.9722708503032242e+00 -1.4704668412689198e-02 0.0000000000000000e+00  2.9722093959360345e+00 -1.0011714132059318e-02 0.0000000000000000e+00  2.9722753112253444e+00 0.0000000000000000e+00 0.0000000000000000e+00  1.3083518571161961e+00 0.0000000000000000e+00 2.0385352915601052e-05  1.3084028603885527e+00 3.0546482118642634e-02 1.9243764633629341e-04  1.3083808709432361e+00 6.0764768795091531e-02 -4.1448390951868871e-04  1.3083968626102365e+00 9.1347903823067372e-02 2.6697209740309880e-04  1.3084829278287615e+00 1.2169591738230802e-01 -2.4715481480504318e-04  1.3084944238171436e+00 1.5217416613307203e-01 1.6377401927795827e-04  1.3085354993914755e+00 1.8256716824725067e-01 -1.3550603247025137e-04  1.3086600162187738e+00 2.1295391661819457e-01 6.7781835078851535e-05  1.3087020361304809e+00 2.4331727554624966e-01 -4.1285377645412502e-05  1.3087876511482155e+00 2.7362586296450081e-01 -1.0697073378960287e-05  1.3089348853129603e+00 3.0399299885345632e-01 2.2934493188111784e-05  1.3090484582597259e+00 3.3409058885970033e-01 -5.0615371444121374e-05  1.3091560089644616e+00 3.6448287431379656e-01 5.4390013047004360e-05  1.3093829604305474e+00 3.9445728662264518e-01 -6.8970849671131764e-05  1.3095374616062208e+00 4.2466810262153093e-01 5.8496433550502747e-05  1.3097459755956726e+00 4.5455191175571202e-01 -5.1519524933957507e-05  1.3100162445141545e+00 4.8464681168090318e-01 4.0494897353797411e-05  1.3103036326604196e+00 5.1428980327042195e-01 -4.7114412819540301e-05  1.3105818695431708e+00 5.4417552915776579e-01 5.1454573330261880e-05  1.3110021600231070e+00 5.7365695491060187e-01 -5.9148924619063480e-05  1.3113968055796388e+00 6.0322198494274037e-01 6.3848158550927408e-05  1.3118668403096370e+00 6.3235507407199509e-01 -7.4137508077944908e-05  1.3124344122893852e+00 6.6163385897164417e-01 8.0880461780501151e-05  1.3130710857820036e+00 6.9029356606756720e-01 -9.1427376893282470e-05  1.3137610370433697e+00 7.1906145357534978e-01 1.0508156272824496e-04  1.3146398506610797e+00 7.4718801344405339e-01 -1.2493030043693619e-04  1.3155831105708882e+00 7.7528194748044044e-01 1.4224598215476360e-04  1.3166979751542980e+00 8.0254359844732570e-01 -1.6078841064563409e-04  1.3180009673480453e+00 8.2982869548894511e-01 1.7771986192232950e-04  1.3195113053907384e+00 8.5597949220764047e-01 -1.9473403436651556e-04  1.3212143765572961e+00 8.8201847782224785e-01 2.0896397816850743e-04  1.3232674928945614e+00 9.0680488450071561e-01 -2.2236000516824464e-04  1.3255459828601153e+00 9.3129335413121794e-01 2.3248319938911480e-04  1.3282131337450771e+00 9.5425190247677050e-01 -2.3755313421163683e-04  1.3312096795734740e+00 9.7693037494582713e-01 2.4040628998301398e-04  1.3346162819623504e+00 9.9788572386078056e-01 -2.3723180473176052e-04  1.3383419905152922e+00 1.0184886175947456e+00 2.3379479511670339e-04  1.3425082038163703e+00 1.0375261755366505e+00 -2.2602736961184128e-04  1.3469222857589496e+00 1.0562811215945074e+00 2.2053497752922950e-04  1.3516939523702345e+00 1.0736584838192804e+00 -2.1142409723466809e-04  1.3566410875391139e+00 1.0910908786477993e+00 2.0121396374886961e-04  1.3618218104518311e+00 1.1074181231628837e+00 -1.9030343097537527e-04  1.3670807325108090e+00 1.1240062977191043e+00 1.7800361978438414e-04  1.3724924646446692e+00 1.1398449981673289e+00 -1.6782565305819842e-04  1.3779079340643148e+00 1.1560330400869256e+00 1.5739580803360607e-04  1.3834332146734327e+00 1.1716307322909381e+00 -1.4794571318343719e-04  1.3889338717979267e+00 1.1876600338588061e+00 1.3858646798320045e-04  1.3945155254954347e+00 1.2031560059003457e+00 -1.3003752934147576e-04  1.4000815006417398e+00 1.2190609276427420e+00 1.2405401176192554e-04  1.4057052897065572e+00 1.2345180315394197e+00 -1.1894193227665076e-04  1.4113140535337256e+00 1.2503235285602412e+00 1.1653382091017060e-04  1.4169918654599520e+00 1.2657252704163759e+00 -1.1367069992094671e-04  1.4226361175891269e+00 1.2814636030240130e+00 1.1401357590900726e-04  1.4283491014270491e+00 1.2967972929128122e+00 -1.1496632829738493e-04  1.4340470854090266e+00 1.3124745212458599e+00 1.2074126805676808e-04  1.4397878396433781e+00 1.3277519482035547e+00 -1.2635294194539580e-04  1.4455160442449793e+00 1.3433611400443752e+00 1.3484657022819205e-04  1.4513086703414886e+00 1.3585848732273911e+00 -1.4149544501622699e-04  1.4570548039971287e+00 1.3741482427145910e+00 1.5016877551923052e-04  1.4628760746404246e+00 1.3892938106721346e+00 -1.5899576902635311e-04  1.4686646610264191e+00 1.4048319266222180e+00 1.6990844618004587e-04  1.4745033731973498e+00 1.4199095405696303e+00 -1.8040357864978958e-04  1.4803087283650873e+00 1.4353977379008447e+00 1.8869016687177577e-04  1.4861925283254160e+00 1.4504296778197954e+00 -1.9367807196880553e-04  1.4920025029165840e+00 1.4658690758229922e+00 1.9433139849305353e-04  1.4979036486113575e+00 1.4808433210086911e+00 -1.9223159447666013e-04  1.5037501164996225e+00 1.4962370672784842e+00 1.8571936004741876e-04  1.5096521264633325e+00 1.5111718365547919e+00 -1.7395706956455187e-04  1.5155128833868943e+00 1.5264823810466388e+00 1.5388153870536593e-04  1.5214425542820278e+00 1.5414090584905231e+00 -1.2545548857321125e-04  1.5273075571312296e+00 1.5566067770012275e+00 9.0622813818028118e-05  1.5332331925862033e+00 1.5715537071105254e+00 -5.1726197425647146e-05  1.5391400806861251e+00 1.5865956585870293e+00 1.1291135411421101e-05  1.5450386796462243e+00 1.6015927330436259e+00 3.3616304708155095e-05  1.5509679871122692e+00 1.6164724611100814e+00 -8.3326962844760012e-05  1.5568679933301715e+00 1.6314796553977957e+00 1.3948902122103021e-04  1.5628022144136793e+00 1.6462257620651306e+00 -1.9452857728312863e-04  1.5686803602369241e+00 1.6612574727697600e+00 2.4295661716512929e-04  1.5746500029802193e+00 1.6757754499874973e+00 -2.7766194145137737e-04  1.5804854944640403e+00 1.6909207507238910e+00 3.0225053901060796e-04  1.5864680028574478e+00 1.7052001186128838e+00 -3.2346006875009917e-04  1.5922945918078799e+00 1.7203065362141619e