<?xml version="1.0"?>
<VTKFile type="UnstructuredGrid"  version="0.1"  >
<UnstructuredGrid>
<Piece  NumberOfPoints="8241" NumberOfCells="16000">
<Points>
<DataArray  type="Float64"  NumberOfComponents="3"  format="ascii">-5 -1 0  -4.95 -1 0  -4.9 -1 0  -4.85 -1 0  -4.8 -1 0  -4.75 -1 0  -4.7 -1 0  -4.65 -1 0  -4.6 -1 0  -4.55 -1 0  -4.5 -1 0  -4.45 -1 0  -4.4 -1 0  -4.35 -1 0  -4.3 -1 0  -4.25 -1 0  -4.2 -1 0  -4.15 -1 0  -4.1 -1 0  -4.05 -1 0  -4 -1 0  -3.95 -1 0  -3.9 -1 0  -3.85 -1 0  -3.8 -1 0  -3.75 -1 0  -3.7 -1 0  -3.65 -1 0  -3.6 -1 0  -3.55 -1 0  -3.5 -1 0  -3.45 -1 0  -3.4 -1 0  -3.35 -1 0  -3.3 -1 0  -3.25 -1 0  -3.2 -1 0  -3.15 -1 0  -3.1 -1 0  -3.05 -1 0  -3 -1 0  -2.95 -1 0  -2.9 -1 0  -2.85 -1 0  -2.8 -1 0  -2.75 -1 0  -2.7 -1 0  -2.65 -1 0  -2.6 -1 0  -2.55 -1 0  -2.5 -1 0  -2.45 -1 0  -2.4 -1 0  -2.35 -1 0  -2.3 -1 0  -2.25 -1 0  -2.2 -1 0  -2.15 -1 0  -2.1 -1 0  -2.05 -1 0  -2 -1 0  -1.95 -1 0  -1.9 -1 0  -1.85 -1 0  -1.8 -1 0  -1.75 -1 0  -1.7 -1 0  -1.65 -1 0  -1.6 -1 0  -1.55 -1 0  -1.5 -1 0  -1.45 -1 0  -1.4 -1 0  -1.35 -1 0  -1.3 -1 0  -1.25 -1 0  -1.2 -1 0  -1.15 -1 0  -1.1 -1 0  -1.05 -1 0  -1 -1 0  -0.9500000000000002 -1 0  -0.9000000000000004 -1 0  -0.8499999999999996 -1 0  -0.7999999999999998 -1 0  -0.75 -1 0  -0.7000000000000002 -1 0  -0.6500000000000004 -1 0  -0.5999999999999996 -1 0  -0.5499999999999998 -1 0  -0.5 -1 0  -0.4500000000000002 -1 0  -0.4000000000000004 -1 0  -0.3499999999999996 -1 0  -0.2999999999999998 -1 0  -0.25 -1 0  -0.2000000000000002 -1 0  -0.1500000000000004 -1 0  -0.09999999999999964 -1 0  -0.04999999999999982 -1 0  0 -1 0  0.04999999999999982 -1 0  0.09999999999999964 -1 0  0.1500000000000004 -1 0  0.2000000000000002 -1 0  0.25 -1 0  0.2999999999999998 -1 0  0.3499999999999996 -1 0  0.4000000000000004 -1 0  0.4500000000000002 -1 0  0.5 -1 0  0.5499999999999998 -1 0  0.5999999999999996 -1 0  0.6500000000000004 -1 0  0.7000000000000002 -1 0  0.75 -1 0  0.7999999999999998 -1 0  0.8499999999999996 -1 0  0.9000000000000004 -1 0  0.9500000000000002 -1 0  1 -1 0  1.05 -1 0  1.1 -1 0  1.15 -1 0  1.2 -1 0  1.25 -1 0  1.3 -1 0  1.35 -1 0  1.4 -1 0  1.45 -1 0  1.5 -1 0  1.55 -1 0  1.6 -1 0  1.65 -1 0  1.7 -1 0  1.75 -1 0  1.8 -1 0  1.85 -1 0  1.9 -1 0  1.95 -1 0  2 -1 0  2.05 -1 0  2.1 -1 0  2.15 -1 0  2.2 -1 0  2.25 -1 0  2.3 -1 0  2.35 -1 0  2.4 -1 0  2.45 -1 0  2.5 -1 0  2.55 -1 0  2.6 -1 0  2.65 -1 0  2.7 -1 0  2.75 -1 0  2.8 -1 0  2.85 -1 0  2.9 -1 0  2.95 -1 0  3 -1 0  3.050000000000001 -1 0  3.1 -1 0  3.15 -1 0  3.199999999999999 -1 0  3.25 -1 0  3.300000000000001 -1 0  3.35 -1 0  3.4 -1 0  3.449999999999999 -1 0  3.5 -1 0  3.550000000000001 -1 0  3.6 -1 0  3.65 -1 0  3.699999999999999 -1 0  3.75 -1 0  3.800000000000001 -1 0  3.85 -1 0  3.9 -1 0  3.949999999999999 -1 0  4 -1 0  4.050000000000001 -1 0  4.1 -1 0  4.15 -1 0  4.199999999999999 -1 0  4.25 -1 0  4.300000000000001 -1 0  4.35 -1 0  4.4 -1 0  4.449999999999999 -1 0  4.5 -1 0  4.550000000000001 -1 0  4.6 -1 0  4.65 -1 0  4.699999999999999 -1 0  4.75 -1 0  4.800000000000001 -1 0  4.85 -1 0  4.9 -1 0  4.949999999999999 -1 0  5 -1 0  -5 -0.95 0  -4.95 -0.95 0  -4.9 -0.95 0  -4.85 -0.95 0  -4.8 -0.95 0  -4.75 -0.95 0  -4.7 -0.95 0  -4.65 -0.95 0  -4.6 -0.95 0  -4.55 -0.95 0  -4.5 -0.95 0  -4.45 -0.95 0  -4.4 -0.95 0  -4.35 -0.95 0  -4.3 -0.95 0  -4.25 -0.95 0  -4.2 -0.95 0  -4.15 -0.95 0  -4.1 -0.95 0  -4.05 -0.95 0  -4 -0.95 0  -3.95 -0.95 0  -3.9 -0.95 0  -3.85 -0.95 0  -3.8 -0.95 0  -3.75 -0.95 0  -3.7 -0.95 0  -3.65 -0.95 0  -3.6 -0.95 0  -3.55 -0.95 0  -3.5 -0.95 0  -3.45 -0.95 0  -3.4 -0.95 0  -3.35 -0.95 0  -3.3 -0.95 0  -3.25 -0.95 0  -3.2 -0.95 0  -3.15 -0.95 0  -3.1 -0.95 0  -3.05 -0.95 0  -3 -0.95 0  -2.95 -0.95 0  -2.9 -0.95 0  -2.85 -0.95 0  -2.8 -0.95 0  -2.75 -0.95 0  -2.7 -0.95 0  -2.65 -0.95 0  -2.6 -0.95 0  -2.55 -0.95 0  -2.5 -0.95 0  -2.45 -0.95 0  -2.4 -0.95 0  -2.35 -0.95 0  -2.3 -0.95 0  -2.25 -0.95 0  -2.2 -0.95 0  -2.15 -0.95 0  -2.1 -0.95 0  -2.05 -0.95 0  -2 -0.95 0  -1.95 -0.95 0  -1.9 -0.95 0  -1.85 -0.95 0  -1.8 -0.95 0  -1.75 -0.95 0  -1.7 -0.95 0  -1.65 -0.95 0  -1.6 -0.95 0  -1.55 -0.95 0  -1.5 -0.95 0  -1.45 -0.95 0  -1.4 -0.95 0  -1.35 -0.95 0  -1.3 -0.95 0  -1.25 -0.95 0  -1.2 -0.95 0  -1.15 -0.95 0  -1.1 -0.95 0  -1.05 -0.95 0  -1 -0.95 0  -0.9500000000000002 -0.95 0  -0.9000000000000004 -0.95 0  -0.8499999999999996 -0.95 0  -0.7999999999999998 -0.95 0  -0.75 -0.95 0  -0.7000000000000002 -0.95 0  -0.6500000000000004 -0.95 0  -0.5999999999999996 -0.95 0  -0.5499999999999998 -0.95 0  -0.5 -0.95 0  -0.4500000000000002 -0.95 0  -0.4000000000000004 -0.95 0  -0.3499999999999996 -0.95 0  -0.2999999999999998 -0.95 0  -0.25 -0.95 0  -0.2000000000000002 -0.95 0  -0.1500000000000004 -0.95 0  -0.09999999999999964 -0.95 0  -0.04999999999999982 -0.95 0  0 -0.95 0  0.04999999999999982 -0.95 0  0.09999999999999964 -0.95 0  0.1500000000000004 -0.95 0  0.2000000000000002 -0.95 0  0.25 -0.95 0  0.2999999999999998 -0.95 0  0.3499999999999996 -0.95 0  0.4000000000000004 -0.95 0  0.4500000000000002 -0.95 0  0.5 -0.95 0  0.5499999999999998 -0.95 0  0.5999999999999996 -0.95 0  0.6500000000000004 -0.95 0  0.7000000000000002 -0.95 0  0.75 -0.95 0  0.7999999999999998 -0.95 0  0.8499999999999996 -0.95 0  0.9000000000000004 -0.95 0  0.9500000000000002 -0.95 0  1 -0.95 0  1.05 -0.95 0  1.1 -0.95 0  1.15 -0.95 0  1.2 -0.95 0  1.25 -0.95 0  1.3 -0.95 0  1.35 -0.95 0  1.4 -0.95 0  1.45 -0.95 0  1.5 -0.95 0  1.55 -0.95 0  1.6 -0.95 0  1.65 -0.95 0  1.7 -0.95 0  1.75 -0.95 0  1.8 -0.95 0  1.85 -0.95 0  1.9 -0.95 0  1.95 -0.95 0  2 -0.95 0  2.05 -0.95 0  2.1 -0.95 0  2.15 -0.95 0  2.2 -0.95 0  2.25 -0.95 0  2.3 -0.95 0  2.35 -0.95 0  2.4 -0.95 0  2.45 -0.95 0  2.5 -0.95 0  2.55 -0.95 0  2.6 -0.95 0  2.65 -0.95 0  2.7 -0.95 0  2.75 -0.95 0  2.8 -0.95 0  2.85 -0.95 0  2.9 -0.95 0  2.95 -0.95 0  3 -0.95 0  3.050000000000001 -0.95 0  3.1 -0.95 0  3.15 -0.95 0  3.199999999999999 -0.95 0  3.25 -0.95 0  3.300000000000001 -0.95 0  3.35 -0.95 0  3.4 -0.95 0  3.449999999999999 -0.95 0  3.5 -0.95 0  3.550000000000001 -0.95 0  3.6 -0.95 0  3.65 -0.95 0  3.699999999999999 -0.95 0  3.75 -0.95 0  3.800000000000001 -0.95 0  3.85 -0.95 0  3.9 -0.95 0  3.949999999999999 -0.95 0  4 -0.95 0  4.050000000000001 -0.95 0  4.1 -0.95 0  4.15 -0.95 0  4.199999999999999 -0.95 0  4.25 -0.95 0  4.300000000000001 -0.95 0  4.35 -0.95 0  4.4 -0.95 0  4.449999999999999 -0.95 0  4.5 -0.95 0  4.550000000000001 -0.95 0  4.6 -0.95 0  4.65 -0.95 0  4.699999999999999 -0.95 0  4.75 -0.95 0  4.800000000000001 -0.95 0  4.85 -0.95 0  4.9 -0.95 0  4.949999999999999 -0.95 0  5 -0.95 0  -5 -0.9 0  -4.95 -0.9 0  -4.9 -0.9 0  -4.85 -0.9 0  -4.8 -0.9 0  -4.75 -0.9 0  -4.7 -0.9 0  -4.65 -0.9 0  -4.6 -0.9 0  -4.55 -0.9 0  -4.5 -0.9 0  -4.45 -0.9 0  -4.4 -0.9 0  -4.35 -0.9 0  -4.3 -0.9 0  -4.25 -0.9 0  -4.2 -0.9 0  -4.15 -0.9 0  -4.1 -0.9 0  -4.05 -0.9 0  -4 -0.9 0  -3.95 -0.9 0  -3.9 -0.9 0  -3.85 -0.9 0  -3.8 -0.9 0  -3.75 -0.9 0  -3.7 -0.9 0  -3.65 -0.9 0  -3.6 -0.9 0  -3.55 -0.9 0  -3.5 -0.9 0  -3.45 -0.9 0  -3.4 -0.9 0  -3.35 -0.9 0  -3.3 -0.9 0  -3.25 -0.9 0  -3.2 -0.9 0  -3.15 -0.9 0  -3.1 -0.9 0  -3.05 -0.9 0  -3 -0.9 0  -2.95 -0.9 0  -2.9 -0.9 0  -2.85 -0.9 0  -2.8 -0.9 0  -2.75 -0.9 0  -2.7 -0.9 0  -2.65 -0.9 0  -2.6 -0.9 0  -2.55 -0.9 0  -2.5 -0.9 0  -2.45 -0.9 0  -2.4 -0.9 0  -2.35 -0.9 0  -2.3 -0.9 0  -2.25 -0.9 0  -2.2 -0.9 0  -2.15 -0.9 0  -2.1 -0.9 0  -2.05 -0.9 0  -2 -0.9 0  -1.95 -0.9 0  -1.9 -0.9 0  -1.85 -0.9 0  -1.8 -0.9 0  -1.75 -0.9 0  -1.7 -0.9 0  -1.65 -0.9 0  -1.6 -0.9 0  -1.55 -0.9 0  -1.5 -0.9 0  -1.45 -0.9 0  -1.4 -0.9 0  -1.35 -0.9 0  -1.3 -0.9 0  -1.25 -0.9 0  -1.2 -0.9 0  -1.15 -0.9 0  -1.1 -0.9 0  -1.05 -0.9 0  -1 -0.9 0  -0.9500000000000002 -0.9 0  -0.9000000000000004 -0.9 0  -0.8499999999999996 -0.9 0  -0.7999999999999998 -0.9 0  -0.75 -0.9 0  -0.7000000000000002 -0.9 0  -0.6500000000000004 -0.9 0  -0.5999999999999996 -0.9 0  -0.5499999999999998 -0.9 0  -0.5 -0.9 0  -0.4500000000000002 -0.9 0  -0.4000000000000004 -0.9 0  -0.3499999999999996 -0.9 0  -0.2999999999999998 -0.9 0  -0.25 -0.9 0  -0.2000000000000002 -0.9 0  -0.1500000000000004 -0.9 0  -0.09999999999999964 -0.9 0  -0.04999999999999982 -0.9 0  0 -0.9 0  0.04999999999999982 -0.9 0  0.09999999999999964 -0.9 0  0.1500000000000004 -0.9 0  0.2000000000000002 -0.9 0  0.25 -0.9 0  0.2999999999999998 -0.9 0  0.3499999999999996 -0.9 0  0.4000000000000004 -0.9 0  0.4500000000000002 -0.9 0  0.5 -0.9 0  0.5499999999999998 -0.9 0  0.5999999999999996 -0.9 0  0.6500000000000004 -0.9 0  0.7000000000000002 -0.9 0  0.75 -0.9 0  0.7999999999999998 -0.9 0  0.8499999999999996 -0.9 0  0.9000000000000004 -0.9 0  0.9500000000000002 -0.9 0  1 -0.9 0  1.05 -0.9 0  1.1 -0.9 0  1.15 -0.9 0  1.2 -0.9 0  1.25 -0.9 0  1.3 -0.9 0  1.35 -0.9 0  1.4 -0.9 0  1.45 -0.9 0  1.5 -0.9 0  1.55 -0.9 0  1.6 -0.9 0  1.65 -0.9 0  1.7 -0.9 0  1.75 -0.9 0  1.8 -0.9 0  1.85 -0.9 0  1.9 -0.9 0  1.95 -0.9 0  2 -0.9 0  2.05 -0.9 0  2.1 -0.9 0  2.15 -0.9 0  2.2 -0.9 0  2.25 -0.9 0  2.3 -0.9 0  2.35 -0.9 0  2.4 -0.9 0  2.45 -0.9 0  2.5 -0.9 0  2.55 -0.9 0  2.6 -0.9 0  2.65 -0.9 0  2.7 -0.9 0  2.75 -0.9 0  2.8 -0.9 0  2.85 -0.9 0  2.9 -0.9 0  2.95 -0.9 0  3 -0.9 0  3.050000000000001 -0.9 0  3.1 -0.9 0  3.15 -0.9 0  3.199999999999999 -0.9 0  3.25 -0.9 0  3.300000000000001 -0.9 0  3.35 -0.9 0  3.4 -0.9 0  3.449999999999999 -0.9 0  3.5 -0.9 0  3.550000000000001 -0.9 0  3.6 -0.9 0  3.65 -0.9 0  3.699999999999999 -0.9 0  3.75 -0.9 0  3.800000000000001 -0.9 0  3.85 -0.9 0  3.9 -0.9 0  3.949999999999999 -0.9 0  4 -0.9 0  4.050000000000001 -0.9 0  4.1 -0.9 0  4.15 -0.9 0  4.199999999999999 -0.9 0  4.25 -0.9 0  4.300000000000001 -0.9 0  4.35 -0.9 0  4.4 -0.9 0  4.449999999999999 -0.9 0  4.5 -0.9 0  4.550000000000001 -0.9 0  4.6 -0.9 0  4.65 -0.9 0  4.699999999999999 -0.9 0  4.75 -0.9 0  4.800000000000001 -0.9 0  4.85 -0.9 0  4.9 -0.9 0  4.949999999999999 -0.9 0  5 -0.9 0  -5 -0.85 0  -4.95 -0.85 0  -4.9 -0.85 0  -4.85 -0.85 0  -4.8 -0.85 0  -4.75 -0.85 0  -4.7 -0.85 0  -4.65 -0.85 0  -4.6 -0.85 0  -4.55 -0.85 0  -4.5 -0.85 0  -
[...]
<PointData  Vectors="f_15"> 
<DataArray  type="Float64"  Name="f_15"  NumberOfComponents="3" format="ascii">9.9952209609841649e+00 0.0000000000000000e+00 0.0000000000000000e+00  9.9988369393750194e+00 -6.3721923459066675e-03 0.0000000000000000e+00  9.9936972199019305e+00 2.5188503138411800e-03 0.0000000000000000e+00  9.9985965031708748e+00 -6.7822175025535631e-03 0.0000000000000000e+00  9.9933737729199432e+00 2.1466807708470765e-03 0.0000000000000000e+00  9.9972114689370972e+00 -6.1367118119884951e-03 0.0000000000000000e+00  9.9925814306372658e+00 2.0156678215846667e-03 0.0000000000000000e+00  9.9961878707577334e+00 -5.3186432914833701e-03 0.0000000000000000e+00  9.9908405148741224e+00 3.2379196432739334e-03 0.0000000000000000e+00  9.9944268827320730e+00 -4.1094273667050948e-03 0.0000000000000000e+00  9.9887942764483757e+00 5.4814699439777285e-03 0.0000000000000000e+00  9.9911715972815376e+00 -1.0792389714045214e-03 0.0000000000000000e+00  9.9853826054473416e+00 8.8288714599134583e-03 0.0000000000000000e+00  9.9866403311555345e+00 3.8104094684285016e-03 0.0000000000000000e+00  9.9793742145097752e+00 1.5096252241529492e-02 0.0000000000000000e+00  9.9796963955355658e+00 1.0894933596410370e-02 0.0000000000000000e+00  9.9705817123817262e+00 2.4602410913712652e-02 0.0000000000000000e+00  9.9685470144486938e+00 2.2445526841256152e-02 0.0000000000000000e+00  9.9577494909558517e+00 3.7965636553392440e-02 0.0000000000000000e+00  9.9526373971651090e+00 3.9039807863579391e-02 0.0000000000000000e+00  9.9385926093161636e+00 5.7838069630438374e-02 0.0000000000000000e+00  9.9306627903388769e+00 6.1496711188266259e-02 0.0000000000000000e+00  9.9123540975342088e+00 8.4961051359950496e-02 0.0000000000000000e+00  9.9000849356554195e+00 9.2616044825489588e-02 0.0000000000000000e+00  9.8778934894070449e+00 1.2014222294720218e-01 0.0000000000000000e+00  9.8602141701091970e+00 1.3306352078363157e-01 0.0000000000000000e+00  9.8327787062154979e+00 1.6601453585023382e-01 0.0000000000000000e+00  9.8103438164289312e+00 1.8338293914603324e-01 0.0000000000000000e+00  9.7766677413324334e+00 2.2292017260669120e-01 0.0000000000000000e+00  9.7484913976381407e+00 2.4576887737120456e-01 0.0000000000000000e+00  9.7094797039752834e+00 2.9090634788701009e-01 0.0000000000000000e+00  9.6748371211887285e+00 3.2009468868784630e-01 0.0000000000000000e+00  9.6298630583677962e+00 3.7154231991978326e-01 0.0000000000000000e+00  9.5899740870321413e+00 4.0589319241913496e-01 0.0000000000000000e+00  9.5384938226054139e+00 4.6416798257139991e-01 0.0000000000000000e+00  9.4932156318400551e+00 5.0422084500730413e-01 0.0000000000000000e+00  9.4364859168068858e+00 5.6772257702991835e-01 0.0000000000000000e+00  9.3856215991543124e+00 6.1418748962250935e-01 0.0000000000000000e+00  9.3236587830638058e+00 6.8264925177197167e-01 0.0000000000000000e+00  9.2686561208398253e+00 7.3453276102191034e-01 0.0000000000000000e+00  9.2012255669578238e+00 8.0777795172869771e-01 0.0000000000000000e+00  9.1425000176954718e+00 8.6544851008574308e-01 0.0000000000000000e+00  9.0707865807614194e+00 9.4169315978293711e-01 0.0000000000000000e+00  9.0083353464508207e+00 1.0056195905837129e+00 0.0000000000000000e+00  8.9327532926706876e+00 1.0846851068240506e+00 0.0000000000000000e+00  8.8677107201385166e+00 1.1532263282326209e+00 0.0000000000000000e+00  8.7881931813084648e+00 1.2359157379715018e+00 0.0000000000000000e+00  8.7211254454118254e+00 1.3082019568089525e+00 0.0000000000000000e+00  8.6385380240820009e+00 1.3938076199045049e+00 0.0000000000000000e+00  8.5694545390162897e+00 1.4696970215682605e+00 0.0000000000000000e+00  8.4843144553519316e+00 1.5584924237815987e+00 0.0000000000000000e+00  8.4139738176733925e+00 1.6360584017624173e+00 0.0000000000000000e+00  8.3261796212212804e+00 1.7292699709302166e+00 0.0000000000000000e+00  8.2552141137534569e+00 1.8077883180168335e+00 0.0000000000000000e+00  8.1652359670388659e+00 1.9040665855588457e+00 0.0000000000000000e+00  8.0936265072965288e+00 1.9847375973257406e+00 0.0000000000000000e+00  8.0020152336608525e+00 2.0834527836641445e+00 0.0000000000000000e+00  7.9301157440844579e+00 2.1646718908201223e+00 0.0000000000000000e+00  7.8368444587989199e+00 2.2673662949873226e+00 0.0000000000000000e+00  7.7651376258752238e+00 2.3490209594886062e+00 0.0000000000000000e+00  7.6705331334963347e+00 2.4525867417717384e+00 0.0000000000000000e+00  7.5988363293758310e+00 2.5379402584122066e+00 0.0000000000000000e+00  7.5035664053573967e+00 2.6420998366772728e+00 0.0000000000000000e+00  7.4318125034011180e+00 2.7264367679597288e+00 0.0000000000000000e+00  7.3360690029728683e+00 2.8361842118254619e+00 0.0000000000000000e+00  7.2644656850766030e+00 2.9195338035607494e+00 0.0000000000000000e+00  7.1685560769146974e+00 3.0286658693806747e+00 0.0000000000000000e+00  7.0968230058602773e+00 3.1161499656401719e+00 0.0000000000000000e+00  7.0014280608542148e+00 3.2262787996753599e+00 0.0000000000000000e+00  6.9293384223936885e+00 3.3117544999362263e+00 0.0000000000000000e+00  6.8345557224320936e+00 3.4250106269849963e+00 0.0000000000000000e+00  6.7624609800234952e+00 3.5122597527627644e+00 0.0000000000000000e+00  6.6684071916033396e+00 3.6242796878685000e+00 0.0000000000000000e+00  6.5959291110401645e+00 3.7135109968035889e+00 0.0000000000000000e+00  6.5033739931000927e+00 3.8255500595849208e+00 0.0000000000000000e+00  6.4303133015764491e+00 3.9163474428629415e+00 0.0000000000000000e+00  6.3391399721306199e+00 4.0286881842616724e+00 0.0000000000000000e+00  6.2659767757205849e+00 4.1200365822773133e+00 0.0000000000000000e+00  6.1761302214826213e+00 4.2321882598023146e+00 0.0000000000000000e+00  6.1027187505597746e+00 4.3254933393868056e+00 0.0000000000000000e+00  6.0146437652675244e+00 4.4369840374445610e+00 0.0000000000000000e+00  5.9408546502355088e+00 4.5316520345907758e+00 0.0000000000000000e+00  5.8544554443985630e+00 4.6428031849287308e+00 0.0000000000000000e+00  5.7806150052771903e+00 4.7381217179230299e+00 0.0000000000000000e+00  5.6958741332830600e+00 4.8494109039602007e+00 0.0000000000000000e+00  5.6217572072227178e+00 4.9463509142923936e+00 0.0000000000000000e+00  5.5390103593216526e+00 5.0568642293441091e+00 0.0000000000000000e+00  5.4643021125779088e+00 5.1545197342484341e+00 0.0000000000000000e+00  5.3840105481102567e+00 5.2650253848930033e+00 0.0000000000000000e+00  5.3080223687770154e+00 5.3649845899281594e+00 0.0000000000000000e+00  5.2311523088203806e+00 5.4727202126242940e+00 0.0000000000000000e+00  5.1534613736014592e+00 5.5759061243905688e+00 0.0000000000000000e+00  5.0801919644455724e+00 5.6812456790694261e+00 0.0000000000000000e+00  5.0013805709799026e+00 5.7870562262168903e+00 0.0000000000000000e+00  4.9307239843470319e+00 5.8894984911683625e+00 0.0000000000000000e+00  4.8518654804624228e+00 5.9984576494386337e+00 0.0000000000000000e+00  4.7820388268925793e+00 6.1005843787098311e+00 0.0000000000000000e+00  4.7059843201658342e+00 6.2072581165929330e+00 0.0000000000000000e+00  4.6346134028398174e+00 6.3125290125619085e+00 0.0000000000000000e+00  4.5629350760745746e+00 6.4163639793306020e+00 0.0000000000000000e+00  4.4895873179805479e+00 6.5241389049507648e+00 0.0000000000000000e+00  4.4291590218471635e+00 6.6135309118576808e+00 0.0000000000000000e+00  4.3435226040379229e+00 6.7420208435621047e+00 0.0000000000000000e+00  4.2819250870006398e+00 6.8346118822557420e+00 0.0000000000000000e+00  4.2069441923830402e+00 6.9474972471442245e+00 0.0000000000000000e+00  4.1465053025934919e+00 7.0419235740678472e+00 0.0000000000000000e+00  4.0757909681858102e+00 7.1496243656966776e+00 0.0000000000000000e+00  4.0164934277383049e+00 7.2417211571167055e+00 0.0000000000000000e+00  3.9499676651720859e+00 7.3463050676508814e+00 0.0000000000000000e+00  3.8953033106356947e+00 7.4339263954244874e+00 0.0000000000000000e+00  3.8346140210715718e+00 7.5273317040790939e+00 0.0000000000000000e+00  3.7812265089685826e+00 7.6150200484048591e+00 0.0000000000000000e+00  3.7860121008221070e+00 7.6075695152513738e+00 0.0000000000000000e+00  3.8549900225576810e+00 7.4966622773432334e+00 0.0000000000000000e+00  3.9017816263913128e+00 7.4210577686852952e+00 0.0000000000000000e+00  3.9243963784920948e+00 7.3858294857546980e+00 0.0000000000000000e+00  3.9312947612706952e+00 7.3744340911471884e+00 0.0000000000000000e+00  3.9388392928561475e+00 7.3630202158523268e+00 0.0000000000000000e+00  3.9414077401960470e+00 7.3584000532045648e+00 0.0000000000000000e+00  3.9460515112298360e+00 7.3514061149981096e+00 0.0000000000000000e+00  3.9469613645070014e+00 7.3492910846024300e+00 0.0000000000000000e+00  3.9500286944706309e+00 7.3446527716522754e+00 0.0000000000000000e+00  3.9503489624575279e+00 7.3434739904580297e+00 0.0000000000000000e+00  3.9527036936984263e+00 7.3399920942740229e+00 0.0000000000000000e+00  3.9528895592965045e+00 7.3391895012952553e+00 0.0000000000000000e+00  3.9546598593161928e+00 7.3366030560798006e+00 0.0000000000000000e+00  3.9546789051141533e+00 7.3361316040355469e+00 0.0000000000000000e+00  3.9558391190858475e+00 7.3343743650195039e+00 0.0000000000000000e+00  3.9557366216104208e+00 7.3340786655800487e+00 0.0000000000000000e+00  3.9564355945740672e+00 7.3328895516222987e+00 0.0000000000000000e+00  3.9562997136601319e+00 7.3326438973491532e+00 0.0000000000000000e+00  3.9567138713863024e+00 7.3317724338279264e+00 0.0000000000000000e+00  3.9566319612027669e+00 7.3314656297128575e+00 0.0000000000000000e+00  3.9569018257046569e+00 7.3307593757889480e+00 0.0000000000000000e+00  3.9569000345806509e+00 7.3303360781799771e+00 0.0000000000000000e+00  3.9570919878523387e+00 7.3296803969432194e+00 0.0000000000000000e+00  3.9571222386410656e+00 7.3291460153895489e+00 0.0000000000000000e+00  3.9572480453960361e+00 7.3284170223357643e+00 0.0000000000000000e+00  3.9572734088691561e+00 7.3276831365132180e+00 0.0000000000000000e+00  3.9573338054137546e+00 7.3267406332301457e+00 0.0000000000000000e+00  3.9573403948632349e+00 7.3256441913041579e+00 0.0000000000000000e+00  3.9573482014959058e+00 7.3243070729999991e+00 0.0000000000000000e+00  3.9573262219814702e+00 7.3227271593860888e+00 0.0000000000000000e+00  3.9572930954062677e+00 7.3208654244050635e+00 0.0000000000000000e+00  3.9572451827500532e+00 7.3187586378036364e+00 0.0000000000000000e+00  3.9571734779628804e+00 7.3164101326730622e+00 0.0000000000000000e+00  3.9571031796246752e+00 7.3138726168099613e+00 0.0000000000000000e+00  3.9569996832852259e+00 7.3112133217683883e+00 0.0000000000000000e+00  3.9569024489454718e+00 7.3084996967091840e+00 0.0000000000000000e+00  3.9567707196076363e+00 7.3057806313107827e+00 0.0000000000000000e+00  3.9566426879992558e+00 7.3031721526927065e+00 0.0000000000000000e+00  3.9564734975250442e+00 7.3006423162865213e+00 0.0000000000000000e+00  3.9562922265880567e+00 7.2983248649714749e+00 0.0000000000000000e+00  3.9560544642462152e+00 7.2960794439856489e+00 0.0000000000000000e+00  3.9557337536089907e+00 7.2940575762238788e+00 0.0000000000000000e+00  3.9552876071688039e+00 7.2918769637451142e+00 0.0000000000000000e+00  3.9545510466574756e+00 7.2897359724114592e+00 0.0000000000000000e+00  3.9533655354069888e+00 7.2867154811334540e+00 0.0000000000000000e+00  3.9512502551614763e+00 7.2828834622896261e+00 0.0000000000000000e+00  3.9474648979809963e+00 7.2760050350922585e+00 0.0000000000000000e+00  3.9405886362217029e+00 7.2651549429410140e+00 0.0000000000000000e+00  3.9276948223602033e+00 7.2441536892842615e+00 0.0000000000000000e+00  3.9042480306781768e+00 7.2077630237615518e+00 0.0000000000000000e+00  3.8597566220849027e+00 7.1368434408624575e+00 0.0000000000000000e+00  3.7800740728161610e+00 7.0100521056902538e+00 0.0000000000000000e+00  3.6313643677042022e+00 6.7639608938769440e+00 0.0000000000000000e+00  3.3783629042332191e+00 6.3234130317133133e+00 0.0000000000000000e+00  2.9445792322288766e+00 5.4893770508982351e+00 0.0000000000000000e+00  2.3184958784404319e+00 4.0581565183723205e+00 0.0000000000000000e+00  1.4863085773910307e+00 1.5995619497875702e+00 0.0000000000000000e+00  1.0615802791789481e+00 1.9018302121617645e-01 0.0000000000000000e+00  1.0037557558356116e+00 1.0100367113217979e-02 0.0000000000000000e+00  9.9987391576380369e-01 1.7292430549399810e-03 0.0000000000000000e+00  1.0001893216675293e+00 -4.6115973243167959e-04 0.0000000000000000e+00  9.9990244264459083e-01 2.9293488396291422e-04 0.0000000000000000e+00  1.0000723026325826e+00 -2.0190832938291189e-04 0.0000000000000000e+00  9.9994143782929468e-01 1.6269034458568329e-04 0.0000000000000000e+00  1.0000477353448354e+00 -1.3196328076231690e-04 0.0000000000000000e+00  9.9996198084322951e-01 1.0495641315179099e-04 0.0000000000000000e+00  1.0000297756333487e+00 -8.2077435974052318e-05 0.0000000000000000e+00  9.9997689134532419e-01 6.3611842128068584e-05 0.0000000000000000e+00  1.0000178331533309e+00 -4.9027875793283811e-05 0.0000000000000000e+00  9.9998631165702001e-01 3.7592585942832837e-05 0.0000000000000000e+00  1.0000104490581516e+00 -2.8663419521707124e-05 0.0000000000000000e+00  9.9999206280630593e-01 2.1742788941171002e-05 0.0000000000000000e+00  1.0000060060661418e+00 -1.6424952556974031e-05 0.0000000000000000e+00  9.9999546921906790e-01 1.2367473190549961e-05 0.0000000000000000e+00  1.0000034061021239e+00 -9.2803476562024383e-06 0.0000000000000000e+00  9.9999744998358198e-01 6.9343426600916108e-06 0.0000000000000000e+00  1.0000018980217569e+00 -5.1511243741170907e-06 0.0000000000000000e+00  9.9999859366573540e-01 3.8044192119768143e-06 0.0000000000000000e+00  1.0000010341837955e+00 -2.7879638578538506e-06 0.0000000000000000e+00  9.9999923824423786e-01 2.0355023332335724e-06 0.0000000000000000e+00  1.0000005529888281e+00 -1.4668874119013765e-06 0.0000000000000000e+00  9.9999958840357228e-01 1.0597256869851506e-06 0.0000000000000000e+00  1.0000002908305203e+00 -7.3455395371721770e-07 0.0000000000000000e+00  9.9999976847596495e-01 5.2164425741664284e-07 0.0000000000000000e+00  1.0000001502476241e+00 -3.1255137279916757e-07 0.0000000000000000e+00  9.9999984639400363e-01 2.1623231993268777e-07 0.0000000000000000e+00  1.0000000724790441e+00 -4.7774569776570924e-08 0.0000000000000000e+00  9.9999985437989802e-01 0.0000000000000000e+00 0.0000000000000000e+00  1.0003299977701088e+01 0.0000000000000000e+00 -1.0357654715665364e-04  1.0000896330139952e+01 4.3431554704000570e-03 2.4406874727182595e-03  1.0003189890250026e+01 2.9235771909950442e-04 -3.0971898594208029e-03  1.0002204895134465e+01 4.5493858962654720e-03 2.7373699182415643e-03  1.0002401267832617e+01 2.4951369843238453e-03 -2.3504747544847034e-03  1.0002392978384412e+01 5.0654991435901608e-03 2.1974759685685226e-03  1.0002215017783314e+01 3.9545369229281062e-03 -1.9161970976137137e-03  1.0001383961326482e+01 6.5355461803092247e-03 1.8269882281840458e-03  1.0001185916948506e+01 5.4462545569137679e-03 -1.5599776891415690e-03  1.0000081524764603e+01 8.3781121330970872e-03 1.4301485455942196e-03  9.9986691691939011e+00 8.2611537503580502e-03 -1.1799625953043812e-03  9.9974097486897584e+00 1.0797026453508078e-02 1.0475173238811768e-03  9.9950359420615307e+00 1.2286807530455654e-02 -8.0488155884525243e-04  9.9923440502512477e+00 1.5427069081187959e-02 6.3186976732936657e-04  9.9891739176994889e+00 1.7888624565834874e-02 -3.7825338711026783e-04  9.9848574762169537e+00 2.2470835306491889e-02 2.0181960407106400e-04  9.9795195720753789e+00 2.7148250088262729e-02 -4.4647699588602811e-06  9.9737425773143613e+00 3.2618766281081450e-02 -1.4292343331494991e-04  9.9656647613886022e+00 4.0548241657254798e-02 3.1948278249290158e-04  9.9569179203564282e+00 4.8408747603280365e-02 -4.8713997600965362e-04  9.9463321652246055e+00 5.9027754962130821e-02 6.5173314465180002e-04  9.9337194140723568e+00 7.0560659036706469e-02 -7.7752025704822534e-04  9.9190977858565503e+00 8.5358620012979405e-02 8.5356810464174511e-04  9.9029650988524001e+00 1.0011876364732890e-01 -9.1186599207647879e-04  9.8832714170574896e+00 1.2025566875391537e-01 9.4915367294398200e-04  9.8622080924374380e+00 1.3981674617055947e-01 -9.9407801707679529e-04  9.8380120333953229e+00 1.6454871513401162e-01 9.9633450712114128e-04  9.8110111268971298e+00 1.9012296232601117e-01 -9.6055525226170456e-04  9.7811959404176072e+00 2.2057507506374996e-01 8.5457629647395423e-04  9.7490947840181938e+00 2.5142844172253681e-01 -7.2577228961998930e-04  9.7128474533113955e+00 2.8832839038670360e-01 5.6901735765378040e-04  9.6748990152408840e+00 3.2548408825815817e-01 -4.0427420374525649e-04  9.6333435782365626e+00 3.6762016105218903e-01 1.9487035282814217e-04  9.5889538051738104e+00 4.1175957267328567e-01 7.1039334760054348e-05  9.5417689426765406e+00 4.5957525455231202e-01 -3.9748062296332629e-04  9.4922117416553569e+00 5.0951503877102111e-01 7.5705247511304290e-04  9.4390676697315321e+00 5.6326032125400960e-01 -1.1195021419793309e-03  9.3843188987709851e+00 6.1932826507394689e-01 1.4756800911972655e-03  9.3265907589200445e+00 6.7755580070455468e-01 -1.8168284168925766e-03  9.2664542239964156e+00 7.3999868037122174e-01 2.1510430892661605e-03  9.2043848261738841e+00 8.0271281703128361e-01 -2.4392741868038861e-03  9.1401782902368485e+00 8.7012417834798239e-01 2.6551200257857303e-03  9.0736547808766996e+00 9.3753785195068595e-01 -2.7475714136612852e-03  9.0058104001380936e+00 1.0096939160883960e+00 2.7249688560889180e-03  8.9359721329312922e+00 1.0806008910571387e+00 -2.5921567683811837e-03  8.8644638994987464e+00 1.1575128855734838e+00 2.3962450057776934e-03  8.7917938505885136e+00 1.2319359290916356e+00 -2.1459984714347255e-03  8.7176122017962587e+00 1.3120129283108544e+00 1.8653488526818788e-03  8.6420658751338415e+00 1.3905955294223167e+00 -1.5549268932875317e-03  8.5657589679719948e+00 1.4732753607393074e+00 1.2461472827233532e-03  8.4881210290824942e+00 1.5549081051275844e+00 -9.6262362428344657e-04  8.4096325238622978e+00 1.6406882319993847e+00 7.3770212617379257e-04  8.3304859617662625e+00 1.7249865157629805e+00 -5.7993838382436823e-04  8.2503865225357149e+00 1.8125715745423769e+00 4.7343618114621954e-04  8.1696892180087595e+00 1.9003830274641345e+00 -3.7941769698552100e-04  8.0885467111405056e+00 1.9893817270932517e+00 2.4111397930741434e-04  8.0066995762123394e+00 2.0790916040941920e+00 -4.4863985454870471e-05  7.9244891419728427e+00 2.1709442447013827e+00 -1.9855358032958953e-04  7.8419986669220032e+00 2.2621224910047699e+00 4.4042151874074413e-04  7.7590517026807966e+00 2.3545103033409114e+00 -7.2127450429007611e-04  7.6757998516601189e+00 2.4497601376141738e+00 1.0787004971230018e-03  7.5927033307645724e+00 2.5419110328995767e+00 -1.5402630885921161e-03  7.5088070711774666e+00 2.6380754522996441e+00 1.9201820463231065e-03  7.4255244968102261e+00 2.7337778934859891e+00 -2.0594472523667515e-03  7.3415168635076684e+00 2.8302946732921117e+00 1.9153434260738486e-03  7.2580372635745523e+00 2.9249659030726192e+00 -1.7342455125563608e-03  7.1739924363158201e+00 3.0261535005075881e+00 1.5934364750547095e-03  7.0906651807971759e+00 3.1211974130445350e+00 -1.4447966413338861e-03  7.0067034514538102e+00 3.2200984729645525e+00 1.1323950761387759e-03  6.9233820463914633e+00 3.3197936470810867e+00 -9.3411732711196494e-04  6.8400021573085743e+00 3.4193342320624573e+00 9.7433945675380411e-04  6.7567198768745200e+00 3.5175427812443516e+00 -1.1595648286198527e-03  6.6736655368831412e+00 3.6192896620415596e+00 1.0481495813413823e-03  6.5910085887161989e+00 3.7188587216487137e+00 -8.5409394557896202e-04  6.5082352776968992e+00 3.8203975067734781e+00 7.6215599644949283e-04  6.4259429808621702e+00 3.9212259921028703e+00 -8.7425067065396067e-04  6.3439577536176257e+00 4.0227700605172059e+00 8.4315455377305046e-04  6.2619939710046006e+00 4.1245591676782078e+00 -8.5596199818551940e-04  6.1805594151153356e+00 4.2273732629058136e+00 8.8054421209598967e-04  6.0994006478471965e+00 4.3290862093779632e+00 -8.7458970470138475e-04  6.0184054209477091e+00 4.4323658375206270e+00 7.3076527140775703e-04  5.9379162972684174e+00 4.5350163235524636e+00 -6.9868483364095356e-04  5.8577770041581907e+