<?xml version="1.0"?>
<VTKFile type="UnstructuredGrid"  version="0.1"  >
<UnstructuredGrid>
<Piece  NumberOfPoints="8241" NumberOfCells="16000">
<Points>
<DataArray  type="Float64"  NumberOfComponents="3"  format="ascii">-5 -1 0  -4.95 -1 0  -4.9 -1 0  -4.85 -1 0  -4.8 -1 0  -4.75 -1 0  -4.7 -1 0  -4.65 -1 0  -4.6 -1 0  -4.55 -1 0  -4.5 -1 0  -4.45 -1 0  -4.4 -1 0  -4.35 -1 0  -4.3 -1 0  -4.25 -1 0  -4.2 -1 0  -4.15 -1 0  -4.1 -1 0  -4.05 -1 0  -4 -1 0  -3.95 -1 0  -3.9 -1 0  -3.85 -1 0  -3.8 -1 0  -3.75 -1 0  -3.7 -1 0  -3.65 -1 0  -3.6 -1 0  -3.55 -1 0  -3.5 -1 0  -3.45 -1 0  -3.4 -1 0  -3.35 -1 0  -3.3 -1 0  -3.25 -1 0  -3.2 -1 0  -3.15 -1 0  -3.1 -1 0  -3.05 -1 0  -3 -1 0  -2.95 -1 0  -2.9 -1 0  -2.85 -1 0  -2.8 -1 0  -2.75 -1 0  -2.7 -1 0  -2.65 -1 0  -2.6 -1 0  -2.55 -1 0  -2.5 -1 0  -2.45 -1 0  -2.4 -1 0  -2.35 -1 0  -2.3 -1 0  -2.25 -1 0  -2.2 -1 0  -2.15 -1 0  -2.1 -1 0  -2.05 -1 0  -2 -1 0  -1.95 -1 0  -1.9 -1 0  -1.85 -1 0  -1.8 -1 0  -1.75 -1 0  -1.7 -1 0  -1.65 -1 0  -1.6 -1 0  -1.55 -1 0  -1.5 -1 0  -1.45 -1 0  -1.4 -1 0  -1.35 -1 0  -1.3 -1 0  -1.25 -1 0  -1.2 -1 0  -1.15 -1 0  -1.1 -1 0  -1.05 -1 0  -1 -1 0  -0.9500000000000002 -1 0  -0.9000000000000004 -1 0  -0.8499999999999996 -1 0  -0.7999999999999998 -1 0  -0.75 -1 0  -0.7000000000000002 -1 0  -0.6500000000000004 -1 0  -0.5999999999999996 -1 0  -0.5499999999999998 -1 0  -0.5 -1 0  -0.4500000000000002 -1 0  -0.4000000000000004 -1 0  -0.3499999999999996 -1 0  -0.2999999999999998 -1 0  -0.25 -1 0  -0.2000000000000002 -1 0  -0.1500000000000004 -1 0  -0.09999999999999964 -1 0  -0.04999999999999982 -1 0  0 -1 0  0.04999999999999982 -1 0  0.09999999999999964 -1 0  0.1500000000000004 -1 0  0.2000000000000002 -1 0  0.25 -1 0  0.2999999999999998 -1 0  0.3499999999999996 -1 0  0.4000000000000004 -1 0  0.4500000000000002 -1 0  0.5 -1 0  0.5499999999999998 -1 0  0.5999999999999996 -1 0  0.6500000000000004 -1 0  0.7000000000000002 -1 0  0.75 -1 0  0.7999999999999998 -1 0  0.8499999999999996 -1 0  0.9000000000000004 -1 0  0.9500000000000002 -1 0  1 -1 0  1.05 -1 0  1.1 -1 0  1.15 -1 0  1.2 -1 0  1.25 -1 0  1.3 -1 0  1.35 -1 0  1.4 -1 0  1.45 -1 0  1.5 -1 0  1.55 -1 0  1.6 -1 0  1.65 -1 0  1.7 -1 0  1.75 -1 0  1.8 -1 0  1.85 -1 0  1.9 -1 0  1.95 -1 0  2 -1 0  2.05 -1 0  2.1 -1 0  2.15 -1 0  2.2 -1 0  2.25 -1 0  2.3 -1 0  2.35 -1 0  2.4 -1 0  2.45 -1 0  2.5 -1 0  2.55 -1 0  2.6 -1 0  2.65 -1 0  2.7 -1 0  2.75 -1 0  2.8 -1 0  2.85 -1 0  2.9 -1 0  2.95 -1 0  3 -1 0  3.050000000000001 -1 0  3.1 -1 0  3.15 -1 0  3.199999999999999 -1 0  3.25 -1 0  3.300000000000001 -1 0  3.35 -1 0  3.4 -1 0  3.449999999999999 -1 0  3.5 -1 0  3.550000000000001 -1 0  3.6 -1 0  3.65 -1 0  3.699999999999999 -1 0  3.75 -1 0  3.800000000000001 -1 0  3.85 -1 0  3.9 -1 0  3.949999999999999 -1 0  4 -1 0  4.050000000000001 -1 0  4.1 -1 0  4.15 -1 0  4.199999999999999 -1 0  4.25 -1 0  4.300000000000001 -1 0  4.35 -1 0  4.4 -1 0  4.449999999999999 -1 0  4.5 -1 0  4.550000000000001 -1 0  4.6 -1 0  4.65 -1 0  4.699999999999999 -1 0  4.75 -1 0  4.800000000000001 -1 0  4.85 -1 0  4.9 -1 0  4.949999999999999 -1 0  5 -1 0  -5 -0.95 0  -4.95 -0.95 0  -4.9 -0.95 0  -4.85 -0.95 0  -4.8 -0.95 0  -4.75 -0.95 0  -4.7 -0.95 0  -4.65 -0.95 0  -4.6 -0.95 0  -4.55 -0.95 0  -4.5 -0.95 0  -4.45 -0.95 0  -4.4 -0.95 0  -4.35 -0.95 0  -4.3 -0.95 0  -4.25 -0.95 0  -4.2 -0.95 0  -4.15 -0.95 0  -4.1 -0.95 0  -4.05 -0.95 0  -4 -0.95 0  -3.95 -0.95 0  -3.9 -0.95 0  -3.85 -0.95 0  -3.8 -0.95 0  -3.75 -0.95 0  -3.7 -0.95 0  -3.65 -0.95 0  -3.6 -0.95 0  -3.55 -0.95 0  -3.5 -0.95 0  -3.45 -0.95 0  -3.4 -0.95 0  -3.35 -0.95 0  -3.3 -0.95 0  -3.25 -0.95 0  -3.2 -0.95 0  -3.15 -0.95 0  -3.1 -0.95 0  -3.05 -0.95 0  -3 -0.95 0  -2.95 -0.95 0  -2.9 -0.95 0  -2.85 -0.95 0  -2.8 -0.95 0  -2.75 -0.95 0  -2.7 -0.95 0  -2.65 -0.95 0  -2.6 -0.95 0  -2.55 -0.95 0  -2.5 -0.95 0  -2.45 -0.95 0  -2.4 -0.95 0  -2.35 -0.95 0  -2.3 -0.95 0  -2.25 -0.95 0  -2.2 -0.95 0  -2.15 -0.95 0  -2.1 -0.95 0  -2.05 -0.95 0  -2 -0.95 0  -1.95 -0.95 0  -1.9 -0.95 0  -1.85 -0.95 0  -1.8 -0.95 0  -1.75 -0.95 0  -1.7 -0.95 0  -1.65 -0.95 0  -1.6 -0.95 0  -1.55 -0.95 0  -1.5 -0.95 0  -1.45 -0.95 0  -1.4 -0.95 0  -1.35 -0.95 0  -1.3 -0.95 0  -1.25 -0.95 0  -1.2 -0.95 0  -1.15 -0.95 0  -1.1 -0.95 0  -1.05 -0.95 0  -1 -0.95 0  -0.9500000000000002 -0.95 0  -0.9000000000000004 -0.95 0  -0.8499999999999996 -0.95 0  -0.7999999999999998 -0.95 0  -0.75 -0.95 0  -0.7000000000000002 -0.95 0  -0.6500000000000004 -0.95 0  -0.5999999999999996 -0.95 0  -0.5499999999999998 -0.95 0  -0.5 -0.95 0  -0.4500000000000002 -0.95 0  -0.4000000000000004 -0.95 0  -0.3499999999999996 -0.95 0  -0.2999999999999998 -0.95 0  -0.25 -0.95 0  -0.2000000000000002 -0.95 0  -0.1500000000000004 -0.95 0  -0.09999999999999964 -0.95 0  -0.04999999999999982 -0.95 0  0 -0.95 0  0.04999999999999982 -0.95 0  0.09999999999999964 -0.95 0  0.1500000000000004 -0.95 0  0.2000000000000002 -0.95 0  0.25 -0.95 0  0.2999999999999998 -0.95 0  0.3499999999999996 -0.95 0  0.4000000000000004 -0.95 0  0.4500000000000002 -0.95 0  0.5 -0.95 0  0.5499999999999998 -0.95 0  0.5999999999999996 -0.95 0  0.6500000000000004 -0.95 0  0.7000000000000002 -0.95 0  0.75 -0.95 0  0.7999999999999998 -0.95 0  0.8499999999999996 -0.95 0  0.9000000000000004 -0.95 0  0.9500000000000002 -0.95 0  1 -0.95 0  1.05 -0.95 0  1.1 -0.95 0  1.15 -0.95 0  1.2 -0.95 0  1.25 -0.95 0  1.3 -0.95 0  1.35 -0.95 0  1.4 -0.95 0  1.45 -0.95 0  1.5 -0.95 0  1.55 -0.95 0  1.6 -0.95 0  1.65 -0.95 0  1.7 -0.95 0  1.75 -0.95 0  1.8 -0.95 0  1.85 -0.95 0  1.9 -0.95 0  1.95 -0.95 0  2 -0.95 0  2.05 -0.95 0  2.1 -0.95 0  2.15 -0.95 0  2.2 -0.95 0  2.25 -0.95 0  2.3 -0.95 0  2.35 -0.95 0  2.4 -0.95 0  2.45 -0.95 0  2.5 -0.95 0  2.55 -0.95 0  2.6 -0.95 0  2.65 -0.95 0  2.7 -0.95 0  2.75 -0.95 0  2.8 -0.95 0  2.85 -0.95 0  2.9 -0.95 0  2.95 -0.95 0  3 -0.95 0  3.050000000000001 -0.95 0  3.1 -0.95 0  3.15 -0.95 0  3.199999999999999 -0.95 0  3.25 -0.95 0  3.300000000000001 -0.95 0  3.35 -0.95 0  3.4 -0.95 0  3.449999999999999 -0.95 0  3.5 -0.95 0  3.550000000000001 -0.95 0  3.6 -0.95 0  3.65 -0.95 0  3.699999999999999 -0.95 0  3.75 -0.95 0  3.800000000000001 -0.95 0  3.85 -0.95 0  3.9 -0.95 0  3.949999999999999 -0.95 0  4 -0.95 0  4.050000000000001 -0.95 0  4.1 -0.95 0  4.15 -0.95 0  4.199999999999999 -0.95 0  4.25 -0.95 0  4.300000000000001 -0.95 0  4.35 -0.95 0  4.4 -0.95 0  4.449999999999999 -0.95 0  4.5 -0.95 0  4.550000000000001 -0.95 0  4.6 -0.95 0  4.65 -0.95 0  4.699999999999999 -0.95 0  4.75 -0.95 0  4.800000000000001 -0.95 0  4.85 -0.95 0  4.9 -0.95 0  4.949999999999999 -0.95 0  5 -0.95 0  -5 -0.9 0  -4.95 -0.9 0  -4.9 -0.9 0  -4.85 -0.9 0  -4.8 -0.9 0  -4.75 -0.9 0  -4.7 -0.9 0  -4.65 -0.9 0  -4.6 -0.9 0  -4.55 -0.9 0  -4.5 -0.9 0  -4.45 -0.9 0  -4.4 -0.9 0  -4.35 -0.9 0  -4.3 -0.9 0  -4.25 -0.9 0  -4.2 -0.9 0  -4.15 -0.9 0  -4.1 -0.9 0  -4.05 -0.9 0  -4 -0.9 0  -3.95 -0.9 0  -3.9 -0.9 0  -3.85 -0.9 0  -3.8 -0.9 0  -3.75 -0.9 0  -3.7 -0.9 0  -3.65 -0.9 0  -3.6 -0.9 0  -3.55 -0.9 0  -3.5 -0.9 0  -3.45 -0.9 0  -3.4 -0.9 0  -3.35 -0.9 0  -3.3 -0.9 0  -3.25 -0.9 0  -3.2 -0.9 0  -3.15 -0.9 0  -3.1 -0.9 0  -3.05 -0.9 0  -3 -0.9 0  -2.95 -0.9 0  -2.9 -0.9 0  -2.85 -0.9 0  -2.8 -0.9 0  -2.75 -0.9 0  -2.7 -0.9 0  -2.65 -0.9 0  -2.6 -0.9 0  -2.55 -0.9 0  -2.5 -0.9 0  -2.45 -0.9 0  -2.4 -0.9 0  -2.35 -0.9 0  -2.3 -0.9 0  -2.25 -0.9 0  -2.2 -0.9 0  -2.15 -0.9 0  -2.1 -0.9 0  -2.05 -0.9 0  -2 -0.9 0  -1.95 -0.9 0  -1.9 -0.9 0  -1.85 -0.9 0  -1.8 -0.9 0  -1.75 -0.9 0  -1.7 -0.9 0  -1.65 -0.9 0  -1.6 -0.9 0  -1.55 -0.9 0  -1.5 -0.9 0  -1.45 -0.9 0  -1.4 -0.9 0  -1.35 -0.9 0  -1.3 -0.9 0  -1.25 -0.9 0  -1.2 -0.9 0  -1.15 -0.9 0  -1.1 -0.9 0  -1.05 -0.9 0  -1 -0.9 0  -0.9500000000000002 -0.9 0  -0.9000000000000004 -0.9 0  -0.8499999999999996 -0.9 0  -0.7999999999999998 -0.9 0  -0.75 -0.9 0  -0.7000000000000002 -0.9 0  -0.6500000000000004 -0.9 0  -0.5999999999999996 -0.9 0  -0.5499999999999998 -0.9 0  -0.5 -0.9 0  -0.4500000000000002 -0.9 0  -0.4000000000000004 -0.9 0  -0.3499999999999996 -0.9 0  -0.2999999999999998 -0.9 0  -0.25 -0.9 0  -0.2000000000000002 -0.9 0  -0.1500000000000004 -0.9 0  -0.09999999999999964 -0.9 0  -0.04999999999999982 -0.9 0  0 -0.9 0  0.04999999999999982 -0.9 0  0.09999999999999964 -0.9 0  0.1500000000000004 -0.9 0  0.2000000000000002 -0.9 0  0.25 -0.9 0  0.2999999999999998 -0.9 0  0.3499999999999996 -0.9 0  0.4000000000000004 -0.9 0  0.4500000000000002 -0.9 0  0.5 -0.9 0  0.5499999999999998 -0.9 0  0.5999999999999996 -0.9 0  0.6500000000000004 -0.9 0  0.7000000000000002 -0.9 0  0.75 -0.9 0  0.7999999999999998 -0.9 0  0.8499999999999996 -0.9 0  0.9000000000000004 -0.9 0  0.9500000000000002 -0.9 0  1 -0.9 0  1.05 -0.9 0  1.1 -0.9 0  1.15 -0.9 0  1.2 -0.9 0  1.25 -0.9 0  1.3 -0.9 0  1.35 -0.9 0  1.4 -0.9 0  1.45 -0.9 0  1.5 -0.9 0  1.55 -0.9 0  1.6 -0.9 0  1.65 -0.9 0  1.7 -0.9 0  1.75 -0.9 0  1.8 -0.9 0  1.85 -0.9 0  1.9 -0.9 0  1.95 -0.9 0  2 -0.9 0  2.05 -0.9 0  2.1 -0.9 0  2.15 -0.9 0  2.2 -0.9 0  2.25 -0.9 0  2.3 -0.9 0  2.35 -0.9 0  2.4 -0.9 0  2.45 -0.9 0  2.5 -0.9 0  2.55 -0.9 0  2.6 -0.9 0  2.65 -0.9 0  2.7 -0.9 0  2.75 -0.9 0  2.8 -0.9 0  2.85 -0.9 0  2.9 -0.9 0  2.95 -0.9 0  3 -0.9 0  3.050000000000001 -0.9 0  3.1 -0.9 0  3.15 -0.9 0  3.199999999999999 -0.9 0  3.25 -0.9 0  3.300000000000001 -0.9 0  3.35 -0.9 0  3.4 -0.9 0  3.449999999999999 -0.9 0  3.5 -0.9 0  3.550000000000001 -0.9 0  3.6 -0.9 0  3.65 -0.9 0  3.699999999999999 -0.9 0  3.75 -0.9 0  3.800000000000001 -0.9 0  3.85 -0.9 0  3.9 -0.9 0  3.949999999999999 -0.9 0  4 -0.9 0  4.050000000000001 -0.9 0  4.1 -0.9 0  4.15 -0.9 0  4.199999999999999 -0.9 0  4.25 -0.9 0  4.300000000000001 -0.9 0  4.35 -0.9 0  4.4 -0.9 0  4.449999999999999 -0.9 0  4.5 -0.9 0  4.550000000000001 -0.9 0  4.6 -0.9 0  4.65 -0.9 0  4.699999999999999 -0.9 0  4.75 -0.9 0  4.800000000000001 -0.9 0  4.85 -0.9 0  4.9 -0.9 0  4.949999999999999 -0.9 0  5 -0.9 0  -5 -0.85 0  -4.95 -0.85 0  -4.9 -0.85 0  -4.85 -0.85 0  -4.8 -0.85 0  -4.75 -0.85 0  -4.7 -0.85 0  -4.65 -0.85 0  -4.6 -0.85 0  -4.55 -0.85 0  -4.5 -0.85 0  -
[...]
<PointData  Vectors="f_15"> 
<DataArray  type="Float64"  Name="f_15"  NumberOfComponents="3" format="ascii">2.9931447124771591e+00 0.0000000000000000e+00 0.0000000000000000e+00  3.0037370575258464e+00 3.5209422951676721e-02 0.0000000000000000e+00  2.9941721768077270e+00 -3.9878408616228947e-02 0.0000000000000000e+00  3.0044168186106108e+00 2.9133672462349346e-02 0.0000000000000000e+00  2.9936178601327352e+00 -2.8449555714643433e-02 0.0000000000000000e+00  3.0048319077890766e+00 1.8258954992268060e-02 0.0000000000000000e+00  2.9946581145866782e+00 -1.9151644972835346e-02 0.0000000000000000e+00  3.0042845947127819e+00 1.4641128396941766e-02 0.0000000000000000e+00  2.9950568842140313e+00 -1.6026872983391855e-02 0.0000000000000000e+00  3.0051709005223906e+00 1.3933882369543314e-02 0.0000000000000000e+00  2.9947393071737261e+00 -1.3062289598949417e-02 0.0000000000000000e+00  3.0054352768294850e+00 1.1675930688663265e-02 0.0000000000000000e+00  2.9955467586492155e+00 -9.2026067980223569e-03 0.0000000000000000e+00  3.0051249685372641e+00 9.6961862070337260e-03 0.0000000000000000e+00  2.9957630805703701e+00 -7.3423120858682129e-03 0.0000000000000000e+00  3.0056235778638296e+00 9.2539506047080011e-03 0.0000000000000000e+00  2.9954614186066428e+00 -5.9552475597195037e-03 0.0000000000000000e+00  3.0056323295879745e+00 7.3157198735928058e-03 0.0000000000000000e+00  2.9956981595286862e+00 -3.1770146527692546e-03 0.0000000000000000e+00  3.0051882720579335e+00 5.0857601326364625e-03 0.0000000000000000e+00  2.9955359120136644e+00 -1.8947945753743159e-03 0.0000000000000000e+00  3.0050743249821319e+00 4.7204365528876009e-03 0.0000000000000000e+00  2.9949076531228012e+00 -7.8247877282044856e-04 0.0000000000000000e+00  3.0045173007093817e+00 3.5104470216754599e-03 0.0000000000000000e+00  2.9943005576908082e+00 2.5549190760585025e-03 0.0000000000000000e+00  3.0032088170368816e+00 3.0226910997948708e-03 0.0000000000000000e+00  2.9928890013238654e+00 5.9044485643084165e-03 0.0000000000000000e+00  3.0011784727596074e+00 5.9716336552879884e-03 0.0000000000000000e+00  2.9900513746389019e+00 1.1391280026764816e-02 0.0000000000000000e+00  2.9973131580466057e+00 1.1057788766429434e-02 0.0000000000000000e+00  2.9853119914785187e+00 2.1968461720144116e-02 0.0000000000000000e+00  2.9906597016049630e+00 2.1151433079777470e-02 0.0000000000000000e+00  2.9773266884513339e+00 3.7127478304617316e-02 0.0000000000000000e+00  2.9803658629071683e+00 3.9347648606889406e-02 0.0000000000000000e+00  2.9651280004702505e+00 5.9826876562685843e-02 0.0000000000000000e+00  2.9651791021698299e+00 6.5645241007906335e-02 0.0000000000000000e+00  2.9479027853220772e+00 9.2158473872098259e-02 0.0000000000000000e+00  2.9446384954236677e+00 1.0289021019985828e-01 0.0000000000000000e+00  2.9248336353176994e+00 1.3308502192869068e-01 0.0000000000000000e+00  2.9184305627549980e+00 1.5246878606060771e-01 0.0000000000000000e+00  2.8961921831954589e+00 1.8381424203458457e-01 0.0000000000000000e+00  2.8863484838554880e+00 2.1303499509620349e-01 0.0000000000000000e+00  2.8621515754541478e+00 2.4387433533399244e-01 0.0000000000000000e+00  2.8493724686912403e+00 2.8558010493996144e-01 0.0000000000000000e+00  2.8228618608770994e+00 3.1076001647457879e-01 0.0000000000000000e+00  2.8079501557860409e+00 3.6898874950818361e-01 0.0000000000000000e+00  2.7797524106957963e+00 3.8542867415081455e-01 0.0000000000000000e+00  2.7622096678237309e+00 4.5967907275620606e-01 0.0000000000000000e+00  2.7334194686153497e+00 4.6760321799209548e-01 0.0000000000000000e+00  2.7136338016543311e+00 5.5740036190026032e-01 0.0000000000000000e+00  2.6839028422808262e+00 5.5520117997519780e-01 0.0000000000000000e+00  2.6627214355401838e+00 6.6005948284746396e-01 0.0000000000000000e+00  2.6326689185368379e+00 6.5040463040644658e-01 0.0000000000000000e+00  2.6093114949039080e+00 7.6365742757709665e-01 0.0000000000000000e+00  2.5800812853129949e+00 7.5261348957232621e-01 0.0000000000000000e+00  2.5548452330552651e+00 8.7005759484641743e-01 0.0000000000000000e+00  2.5256879873166285e+00 8.5816392263248931e-01 0.0000000000000000e+00  2.4996895430192128e+00 9.7845508891824495e-01 0.0000000000000000e+00  2.4707564032774272e+00 9.6992957761918008e-01 0.0000000000000000e+00  2.4433207495128726e+00 1.0852397831651632e+00 0.0000000000000000e+00  2.4155266276846090e+00 1.0855879904083785e+00 0.0000000000000000e+00  2.3869719395690314e+00 1.1965134006505143e+00 0.0000000000000000e+00  2.3593242540429786e+00 1.1988381671014872e+00 0.0000000000000000e+00  2.3308146697021854e+00 1.3100932964687291e+00 0.0000000000000000e+00  2.3033705922612246e+00 1.3195462149197690e+00 0.0000000000000000e+00  2.2740183084091017e+00 1.4168397440930907e+00 0.0000000000000000e+00  2.2478420636376999e+00 1.4425031328555462e+00 0.0000000000000000e+00  2.2177620563141458e+00 1.5355787096981430e+00 0.0000000000000000e+00  2.1917297906300095e+00 1.5524281124628101e+00 0.0000000000000000e+00  2.1622613723140249e+00 1.6563944547448921e+00 0.0000000000000000e+00  2.1363303452876266e+00 1.6779455094156310e+00 0.0000000000000000e+00  2.1064145862528032e+00 1.7644990500610456e+00 0.0000000000000000e+00  2.0820147798879538e+00 1.7978466363424970e+00 0.0000000000000000e+00  2.0516806503444425e+00 1.8895337061273558e+00 0.0000000000000000e+00  2.0278857990137347e+00 1.9110482237850572e+00 0.0000000000000000e+00  1.9984556616628786e+00 2.0052373593310895e+00 0.0000000000000000e+00  1.9752335834534263e+00 2.0298689984771512e+00 0.0000000000000000e+00  1.9468148898574713e+00 2.1194584446189872e+00 0.0000000000000000e+00  1.9249425648408529e+00 2.1436673369545658e+00 0.0000000000000000e+00  1.8999984771090022e+00 2.2259935940813764e+00 0.0000000000000000e+00  1.8798054065138809e+00 2.2408996435171655e+00 0.0000000000000000e+00  1.8622178009744503e+00 2.3147988582502959e+00 0.0000000000000000e+00  1.8493152901976535e+00 2.3154556377313669e+00 0.0000000000000000e+00  1.8415118243178423e+00 2.3560544983366336e+00 0.0000000000000000e+00  1.8429606477816305e+00 2.3326791919504757e+00 0.0000000000000000e+00  1.8403907428502499e+00 2.3570768140455609e+00 0.0000000000000000e+00  1.8459118736845070e+00 2.3260094766322501e+00 0.0000000000000000e+00  1.8413177482800411e+00 2.3578305680320648e+00 0.0000000000000000e+00  1.8462453501739029e+00 2.3211556852831827e+00 0.0000000000000000e+00  1.8457633265506552e+00 2.3517025009337105e+00 0.0000000000000000e+00  1.8435995971115704e+00 2.3192221960352279e+00 0.0000000000000000e+00  1.8514854934850080e+00 2.3487955531736247e+00 0.0000000000000000e+00  1.8376940067195422e+00 2.3240952503390830e+00 0.0000000000000000e+00  1.8574458469293746e+00 2.3399113104324583e+00 0.0000000000000000e+00  1.8337580086482592e+00 2.3306683515910969e+00 0.0000000000000000e+00  1.8614407027873352e+00 2.3292765544401060e+00 0.0000000000000000e+00  1.8316491589188606e+00 2.3395966620218864e+00 0.0000000000000000e+00  1.8613317193902872e+00 2.3230319272525080e+00 0.0000000000000000e+00  1.8350298350377652e+00 2.3405047597855937e+00 0.0000000000000000e+00  1.8571400592116738e+00 2.3217792841849239e+00 0.0000000000000000e+00  1.8392583319957785e+00 2.3406774476455450e+00 0.0000000000000000e+00  1.8534312683326482e+00 2.3216964694477440e+00 0.0000000000000000e+00  1.8436795874561613e+00 2.3374683141429631e+00 0.0000000000000000e+00  1.8492934726699075e+00 2.3248586583867761e+00 0.0000000000000000e+00  1.8478209451957432e+00 2.3332793285346178e+00 0.0000000000000000e+00  1.8450525195451504e+00 2.3295053637624239e+00 0.0000000000000000e+00  1.8514936422052533e+00 2.3271881584817211e+00 0.0000000000000000e+00  1.8442683555657691e+00 2.3306856413207568e+00 0.0000000000000000e+00  1.8507604213286450e+00 2.3283317035424353e+00 0.0000000000000000e+00  1.8431541042930997e+00 2.3323430915424415e+00 0.0000000000000000e+00  1.8546917577752529e+00 2.3205918028980959e+00 0.0000000000000000e+00  1.8398444919488439e+00 2.3386837763839479e+00 0.0000000000000000e+00  1.8551240463807697e+00 2.3191025721256842e+00 0.0000000000000000e+00  1.8406115598863666e+00 2.3374591954716464e+00 0.0000000000000000e+00  1.8561489765809700e+00 2.3163652207794518e+00 0.0000000000000000e+00  1.8376123646223330e+00 2.3426765271453363e+00 0.0000000000000000e+00  1.8587326171260068e+00 2.3112490908664225e+00 0.0000000000000000e+00  1.8371567530274424e+00 2.3437023795578358e+00 0.0000000000000000e+00  1.8579217716296363e+00 2.3120480912319685e+00 0.0000000000000000e+00  1.8368207088412472e+00 2.3438296409944157e+00 0.0000000000000000e+00  1.8603626824887600e+00 2.3042865894508981e+00 0.0000000000000000e+00  1.8340006299342324e+00 2.3452297445114829e+00 0.0000000000000000e+00  1.8608075511215083e+00 2.2960383786763234e+00 0.0000000000000000e+00  1.8363661966669458e+00 2.3344579015516831e+00 0.0000000000000000e+00  1.8580482848464652e+00 2.2933410548943005e+00 0.0000000000000000e+00  1.8373153702738130e+00 2.3280017301599520e+00 0.0000000000000000e+00  1.8585643678780503e+00 2.2896372793963988e+00 0.0000000000000000e+00  1.8375435088854151e+00 2.3272957191206811e+00 0.0000000000000000e+00  1.8566343573275008e+00 2.2966220135011928e+00 0.0000000000000000e+00  1.8401065934879088e+00 2.3267029601824065e+00 0.0000000000000000e+00  1.8546662471634585e+00 2.3051055399985465e+00 0.0000000000000000e+00  1.8412029882709617e+00 2.3287164539692045e+00 0.0000000000000000e+00  1.8535404307905095e+00 2.3126424544297506e+00 0.0000000000000000e+00  1.8413145476063588e+00 2.3288038109058533e+00 0.0000000000000000e+00  1.8546029215925448e+00 2.3143584111350379e+00 0.0000000000000000e+00  1.8383961526266883e+00 2.3337951433749233e+00 0.0000000000000000e+00  1.8566098957695487e+00 2.3122066358508104e+00 0.0000000000000000e+00  1.8376756292094170e+00 2.3334608331757427e+00 0.0000000000000000e+00  1.8559164374841752e+00 2.3146842164206425e+00 0.0000000000000000e+00  1.8366415585305240e+00 2.3353634713399924e+00 0.0000000000000000e+00  1.8592120861024819e+00 2.3057713377160449e+00 0.0000000000000000e+00  1.8321639897269637e+00 2.3474973770206922e+00 0.0000000000000000e+00  1.8616260661560744e+00 2.2971733117779660e+00 0.0000000000000000e+00  1.8333017219134637e+00 2.3470155481513548e+00 0.0000000000000000e+00  1.8583266120080535e+00 2.3018660538456759e+00 0.0000000000000000e+00  1.8361118868901050e+00 2.3424341337794843e+00 0.0000000000000000e+00  1.8579830866752545e+00 2.2983867001447922e+00 0.0000000000000000e+00  1.8349600826357388e+00 2.3483368716824398e+00 0.0000000000000000e+00  1.8583412268430783e+00 2.2917251968218890e+00 0.0000000000000000e+00  1.8369176754374770e+00 2.3472040947927337e+00 0.0000000000000000e+00  1.8535423467017069e+00 2.2947504140306174e+00 0.0000000000000000e+00  1.8405083896992651e+00 2.3377805157664677e+00 0.0000000000000000e+00  1.8472875739400865e+00 2.2909933943480860e+00 0.0000000000000000e+00  1.8326401986083214e+00 2.3168218290127283e+00 0.0000000000000000e+00  1.8225813746392845e+00 2.2313891832226793e+00 0.0000000000000000e+00  1.7650211203448261e+00 2.1661047667636928e+00 0.0000000000000000e+00  1.6910094105397198e+00 1.9137266476855601e+00 0.0000000000000000e+00  1.4424766509329978e+00 1.3329921913501830e+00 0.0000000000000000e+00  1.1529112209044365e+00 4.3302477838800524e-01 0.0000000000000000e+00  1.0239151093544356e+00 1.2303385748224716e-01 0.0000000000000000e+00  1.0082281698361657e+00 -3.3731888734130445e-02 0.0000000000000000e+00  9.9567873928845929e-01 3.7166882877589721e-02 0.0000000000000000e+00  1.0034483607429576e+00 -4.5331289664808538e-02 0.0000000000000000e+00  9.9668161617370787e-01 3.4436245737253790e-02 0.0000000000000000e+00  1.0032389301685973e+00 -5.0682099207376596e-02 0.0000000000000000e+00  9.9467892976643324e-01 4.4826120545346744e-02 0.0000000000000000e+00  1.0068716601590646e+00 -6.5257387047946216e-02 0.0000000000000000e+00  9.9003607879927535e-01 6.0674833024777081e-02 0.0000000000000000e+00  1.0126275471159940e+00 -8.1820934603303835e-02 0.0000000000000000e+00  9.8277224657855977e-01 8.0342732824761509e-02 0.0000000000000000e+00  1.0219228551739594e+00 -1.0501445871250686e-01 0.0000000000000000e+00  9.7243885250347140e-01 1.0726773900383302e-01 0.0000000000000000e+00  1.0325684961560497e+00 -1.2929194335468697e-01 0.0000000000000000e+00  9.6290722069593215e-01 1.3081858016850839e-01 0.0000000000000000e+00  1.0413493017008462e+00 -1.4656136858762872e-01 0.0000000000000000e+00  9.5524807186330052e-01 1.4850460562105022e-01 0.0000000000000000e+00  1.0486537963644198e+00 -1.6005459382058299e-01 0.0000000000000000e+00  9.4906410954687204e-01 1.6299642087375218e-01 0.0000000000000000e+00  1.0537886384382349e+00 -1.6837886964191054e-01 0.0000000000000000e+00  9.4561330433639068e-01 1.6979692015716844e-01 0.0000000000000000e+00  1.0559975891904281e+00 -1.6868378547279592e-01 0.0000000000000000e+00  9.4464532300585469e-01 1.6865669105518680e-01 0.0000000000000000e+00  1.0561871418853355e+00 -1.6350695150922440e-01 0.0000000000000000e+00  9.4540659723954390e-01 1.6204811852313417e-01 0.0000000000000000e+00  1.0546442233426363e+00 -1.5352207866493045e-01 0.0000000000000000e+00  9.4800648365923856e-01 1.4935009546806177e-01 0.0000000000000000e+00  1.0515193942453351e+00 -1.3849925453144432e-01 0.0000000000000000e+00  9.5203541534569702e-01 1.3145256631363833e-01 0.0000000000000000e+00  1.0475921758089244e+00 -1.2030985817680967e-01 0.0000000000000000e+00  9.5691281282762353e-01 1.1030973726511920e-01 0.0000000000000000e+00  1.0434121141914083e+00 -1.0024773027755789e-01 0.0000000000000000e+00  9.6242626508262397e-01 8.6715790350234176e-02 0.0000000000000000e+00  1.0394133819225631e+00 -7.9236639625292343e-02 0.0000000000000000e+00  9.6826739021845476e-01 6.1867228194202720e-02 0.0000000000000000e+00  1.0361825086738583e+00 -5.8683434540825377e-02 0.0000000000000000e+00  9.7410966475587213e-01 3.6805922875623426e-02 0.0000000000000000e+00  1.0341063885063384e+00 -3.9109384563546554e-02 0.0000000000000000e+00  9.7992403888074553e-01 1.1938971559643003e-02 0.0000000000000000e+00  1.0331035552194294e+00 -2.1363100818181248e-02 0.0000000000000000e+00  9.8600352261291513e-01 -9.7055434216206417e-03 0.0000000000000000e+00  1.0327900678143744e+00 0.0000000000000000e+00 0.0000000000000000e+00  2.9998314718474024e+00 0.0000000000000000e+00 -2.7950780046651819e-02  3.0027050012878984e+00 -9.4940707268849830e-03 1.7513118891506708e-03  3.0007177745023643e+00 1.4665900448501674e-02 1.2817772506124921e-02  3.0008283879222959e+00 2.2274325420206724e-03 -7.4954921971203577e-03  3.0009590821153656e+00 1.1998328778982446e-03 4.8498508450333221e-03  3.0010778483198113e+00 5.5565447158681920e-03 -3.3800669326050485e-03  2.9999158071364604e+00 7.4560612342071462e-04 2.4925453269145671e-03  3.0008147495070912e+00 1.7646601916358360e-03 -2.5149190242782790e-03  3.0003773088557910e+00 1.7066305718262346e-03 2.1066935265566284e-03  2.9997562842485705e+00 4.3189477189709599e-04 -2.0842797259161328e-03  3.0001923349690633e+00 -7.1585452843455429e-05 1.6419536731428256e-03  2.9999929095324633e+00 8.2386900119139873e-04 -1.5369116616478348e-03  2.9994290184253916e+00 -1.2803543073091979e-03 1.1627703687280169e-03  2.9997138980131526e+00 -1.9764603772855013e-04 -9.4595540298879018e-04  2.9997328040832980e+00 -1.0144796814350863e-03 5.4106578266982909e-04  2.9990660469642219e+00 -7.7370977876886887e-04 -2.3284123057208729e-04  2.9996862064356344e+00 -2.0899635757660739e-03 -1.3094040900105889e-04  2.9992690518098670e+00 4.4981286561996672e-04 4.3097379486189822e-04  2.9993609191352610e+00 -2.9994522399919388e-03 -7.9301784187724698e-04  2.9992245279949010e+00 5.2937522778132202e-04 1.2067865341638328e-03  2.9996037036540928e+00 -2.0660135760688643e-03 -1.6446382132514373e-03  2.9988531561107559e+00 7.8784028930992253e-04 2.0741995530854313e-03  2.9995131889314166e+00 -2.1327912464486291e-03 -2.4362324119780701e-03  2.9986843867171857e+00 3.1231103504599971e-03 2.7855112765604044e-03  2.9988088210939363e+00 -1.6478975296128080e-03 -3.1453968189791557e-03  2.9978568596650921e+00 5.0661234756672726e-03 3.5809898022969018e-03  2.9976548707448294e+00 1.6512211323374464e-03 -4.0132912285267292e-03  2.9958218815457673e+00 8.6495733450459699e-03 4.4449817069261224e-03  2.9950262149594207e+00 6.1176817424292967e-03 -4.8121866811413208e-03  2.9922726648373148e+00 1.6568865194015635e-02 5.2092497298279741e-03  2.9900638653922660e+00 1.4485230068287858e-02 -5.6408374849953018e-03  2.9859260561893777e+00 2.8192368099190679e-02 6.1905336309113880e-03  2.9820318599649172e+00 2.9639459667468490e-02 -6.7719230818631968e-03  2.9757727956795197e+00 4.6736079677219051e-02 7.4269763776072875e-03  2.9696124520176976e+00 5.1480448068215029e-02 -8.0910046636192105e-03  2.9609592121199619e+00 7.4726036180942382e-02 8.9006422884457936e-03  2.9521182862191191e+00 8.2895518441055402e-02 -9.8068607319701673e-03  2.9405098458159391e+00 1.1182987644195906e-01 1.0910788369102002e-02  2.9290539406506104e+00 1.2523555783907472e-01 -1.2064941458379998e-02  2.9144400154483701e+00 1.6003128047213155e-01 1.3330163532021544e-02  2.9000272074219824e+00 1.7724990376967692e-01 -1.4543475548856480e-02  2.8827945391543834e+00 2.1936597199271160e-01 1.5829456694473353e-02  2.8657942813306296e+00 2.3997938997281892e-01 -1.6974971708267905e-02  2.8456543116467548e+00 2.8763820898693687e-01 1.8020588353631923e-02  2.8267546806973995e+00 3.1265485624163225e-01 -1.8680734773639556e-02  2.8043159269705673e+00 3.6520139009561209e-01 1.8973965227183413e-02  2.7830924351013375e+00 3.9282091197516977e-01 -1.8750855296017405e-02  2.7593513569730690e+00 4.5060275012391998e-01 1.8090887522303881e-02  2.7362774665226692e+00 4.8120823771633198e-01 -1.6967217956729973e-02  2.7108688095391003e+00 5.4080997997512548e-01 1.5329842973693370e-02  2.6868310864396410e+00 5.7675215968424420e-01 -1.3264221107534783e-02  2.6603552475105539e+00 6.3657779520305657e-01 1.0733160585443600e-02  2.6346569881560615e+00 6.7651443948939460e-01 -8.1566086829472501e-03  2.6082242830785791e+00 7.3696261488053227e-01 5.4893470264593507e-03  2.5811933459892749e+00 7.8170030773418220e-01 -3.1623676808555006e-03  2.5541338267583562e+00 8.3920272205238367e-01 8.8966619084051755e-04  2.5267926472754074e+00 8.9093747035455895e-01 1.0682315978233364e-03  2.4993948644855060e+00 9.4599326853890087e-01 -2.9632667898016459e-03  2.4709665047599203e+00 1.0004204249292925e+00 4.4042030772798117e-03  2.4442345745614640e+00 1.0563772364457853e+00 -5.5797976902572603e-03  2.4149840671205234e+00 1.1141456296141086e+00 6.1606154583116824e-03  2.3879735405251727e+00 1.1656906796813415e+00 -6.4543813972119260e-03  2.3590491744187498e+00 1.2303972888606407e+00 6.4560456193216969e-03  2.3317999471688120e+00 1.2811463697945022e+00 -6.3506114238939667e-03  2.3024325517734163e+00 1.3414780142239595e+00 5.6580547544565745e-03  2.2758264796307568e+00 1.4003968150080939e+00 -4.2728687252427105e-03  2.2463964816970652e+00 1.4597936467730657e+00 2.0765872636850677e-03  2.2191850885272943e+00 1.5115118021376714e+00 -2.7746437267042051e-04  2.1910581817242658e+00 1.5799648955002608e+00 -6.9960680939131501e-04  2.1632717075632155e+00 1.6353157058505863e+00 1.0179077098897542e-03  2.1353701185436718e+00 1.6874267576881412e+00 -1.9498438898504066e-03  2.1083189043982293e+00 1.7571169508809807e+00 2.9409016985401555e-03  2.0806401937995478e+00 1.8123110295480864e+00 -3.3139870737137257e-03  2.0532778701641035e+00 1.8680544522359472e+00 2.9344736728773449e-03  2.0271600319865208e+00 1.9289436738116412e+00 -3.4234840601345194e-03  1.9994993051162657e+00 1.9918327871658532e+00 4.4971966241428730e-03  1.9745923020795568e+00 2.0425418005196856e+00 -4.8908458270629073e-03  1.9479337732947604e+00 2.1060502462205344e+00 4.1844164581515530e-03  1.9247944226042326e+00 2.1550331852654088e+00 -3.9245840645934747e-03  1.8998628503361279e+00 2.2119519788479218e+00 3.7867309317731711e-03  1.8804028207428716e+00 2.2588574458017896e+00 -2.9933856606000541e-03  1.8615368855202064e+00 2.3015865122484485e+00 2.3892458461296485e-03