<?xml version="1.0"?>
<VTKFile type="UnstructuredGrid"  version="0.1"  >
<UnstructuredGrid>
<Piece  NumberOfPoints="8241" NumberOfCells="16000">
<Points>
<DataArray  type="Float64"  NumberOfComponents="3"  format="ascii">-5 -1 0  -4.95 -1 0  -4.9 -1 0  -4.85 -1 0  -4.8 -1 0  -4.75 -1 0  -4.7 -1 0  -4.65 -1 0  -4.6 -1 0  -4.55 -1 0  -4.5 -1 0  -4.45 -1 0  -4.4 -1 0  -4.35 -1 0  -4.3 -1 0  -4.25 -1 0  -4.2 -1 0  -4.15 -1 0  -4.1 -1 0  -4.05 -1 0  -4 -1 0  -3.95 -1 0  -3.9 -1 0  -3.85 -1 0  -3.8 -1 0  -3.75 -1 0  -3.7 -1 0  -3.65 -1 0  -3.6 -1 0  -3.55 -1 0  -3.5 -1 0  -3.45 -1 0  -3.4 -1 0  -3.35 -1 0  -3.3 -1 0  -3.25 -1 0  -3.2 -1 0  -3.15 -1 0  -3.1 -1 0  -3.05 -1 0  -3 -1 0  -2.95 -1 0  -2.9 -1 0  -2.85 -1 0  -2.8 -1 0  -2.75 -1 0  -2.7 -1 0  -2.65 -1 0  -2.6 -1 0  -2.55 -1 0  -2.5 -1 0  -2.45 -1 0  -2.4 -1 0  -2.35 -1 0  -2.3 -1 0  -2.25 -1 0  -2.2 -1 0  -2.15 -1 0  -2.1 -1 0  -2.05 -1 0  -2 -1 0  -1.95 -1 0  -1.9 -1 0  -1.85 -1 0  -1.8 -1 0  -1.75 -1 0  -1.7 -1 0  -1.65 -1 0  -1.6 -1 0  -1.55 -1 0  -1.5 -1 0  -1.45 -1 0  -1.4 -1 0  -1.35 -1 0  -1.3 -1 0  -1.25 -1 0  -1.2 -1 0  -1.15 -1 0  -1.1 -1 0  -1.05 -1 0  -1 -1 0  -0.9500000000000002 -1 0  -0.9000000000000004 -1 0  -0.8499999999999996 -1 0  -0.7999999999999998 -1 0  -0.75 -1 0  -0.7000000000000002 -1 0  -0.6500000000000004 -1 0  -0.5999999999999996 -1 0  -0.5499999999999998 -1 0  -0.5 -1 0  -0.4500000000000002 -1 0  -0.4000000000000004 -1 0  -0.3499999999999996 -1 0  -0.2999999999999998 -1 0  -0.25 -1 0  -0.2000000000000002 -1 0  -0.1500000000000004 -1 0  -0.09999999999999964 -1 0  -0.04999999999999982 -1 0  0 -1 0  0.04999999999999982 -1 0  0.09999999999999964 -1 0  0.1500000000000004 -1 0  0.2000000000000002 -1 0  0.25 -1 0  0.2999999999999998 -1 0  0.3499999999999996 -1 0  0.4000000000000004 -1 0  0.4500000000000002 -1 0  0.5 -1 0  0.5499999999999998 -1 0  0.5999999999999996 -1 0  0.6500000000000004 -1 0  0.7000000000000002 -1 0  0.75 -1 0  0.7999999999999998 -1 0  0.8499999999999996 -1 0  0.9000000000000004 -1 0  0.9500000000000002 -1 0  1 -1 0  1.05 -1 0  1.1 -1 0  1.15 -1 0  1.2 -1 0  1.25 -1 0  1.3 -1 0  1.35 -1 0  1.4 -1 0  1.45 -1 0  1.5 -1 0  1.55 -1 0  1.6 -1 0  1.65 -1 0  1.7 -1 0  1.75 -1 0  1.8 -1 0  1.85 -1 0  1.9 -1 0  1.95 -1 0  2 -1 0  2.05 -1 0  2.1 -1 0  2.15 -1 0  2.2 -1 0  2.25 -1 0  2.3 -1 0  2.35 -1 0  2.4 -1 0  2.45 -1 0  2.5 -1 0  2.55 -1 0  2.6 -1 0  2.65 -1 0  2.7 -1 0  2.75 -1 0  2.8 -1 0  2.85 -1 0  2.9 -1 0  2.95 -1 0  3 -1 0  3.050000000000001 -1 0  3.1 -1 0  3.15 -1 0  3.199999999999999 -1 0  3.25 -1 0  3.300000000000001 -1 0  3.35 -1 0  3.4 -1 0  3.449999999999999 -1 0  3.5 -1 0  3.550000000000001 -1 0  3.6 -1 0  3.65 -1 0  3.699999999999999 -1 0  3.75 -1 0  3.800000000000001 -1 0  3.85 -1 0  3.9 -1 0  3.949999999999999 -1 0  4 -1 0  4.050000000000001 -1 0  4.1 -1 0  4.15 -1 0  4.199999999999999 -1 0  4.25 -1 0  4.300000000000001 -1 0  4.35 -1 0  4.4 -1 0  4.449999999999999 -1 0  4.5 -1 0  4.550000000000001 -1 0  4.6 -1 0  4.65 -1 0  4.699999999999999 -1 0  4.75 -1 0  4.800000000000001 -1 0  4.85 -1 0  4.9 -1 0  4.949999999999999 -1 0  5 -1 0  -5 -0.95 0  -4.95 -0.95 0  -4.9 -0.95 0  -4.85 -0.95 0  -4.8 -0.95 0  -4.75 -0.95 0  -4.7 -0.95 0  -4.65 -0.95 0  -4.6 -0.95 0  -4.55 -0.95 0  -4.5 -0.95 0  -4.45 -0.95 0  -4.4 -0.95 0  -4.35 -0.95 0  -4.3 -0.95 0  -4.25 -0.95 0  -4.2 -0.95 0  -4.15 -0.95 0  -4.1 -0.95 0  -4.05 -0.95 0  -4 -0.95 0  -3.95 -0.95 0  -3.9 -0.95 0  -3.85 -0.95 0  -3.8 -0.95 0  -3.75 -0.95 0  -3.7 -0.95 0  -3.65 -0.95 0  -3.6 -0.95 0  -3.55 -0.95 0  -3.5 -0.95 0  -3.45 -0.95 0  -3.4 -0.95 0  -3.35 -0.95 0  -3.3 -0.95 0  -3.25 -0.95 0  -3.2 -0.95 0  -3.15 -0.95 0  -3.1 -0.95 0  -3.05 -0.95 0  -3 -0.95 0  -2.95 -0.95 0  -2.9 -0.95 0  -2.85 -0.95 0  -2.8 -0.95 0  -2.75 -0.95 0  -2.7 -0.95 0  -2.65 -0.95 0  -2.6 -0.95 0  -2.55 -0.95 0  -2.5 -0.95 0  -2.45 -0.95 0  -2.4 -0.95 0  -2.35 -0.95 0  -2.3 -0.95 0  -2.25 -0.95 0  -2.2 -0.95 0  -2.15 -0.95 0  -2.1 -0.95 0  -2.05 -0.95 0  -2 -0.95 0  -1.95 -0.95 0  -1.9 -0.95 0  -1.85 -0.95 0  -1.8 -0.95 0  -1.75 -0.95 0  -1.7 -0.95 0  -1.65 -0.95 0  -1.6 -0.95 0  -1.55 -0.95 0  -1.5 -0.95 0  -1.45 -0.95 0  -1.4 -0.95 0  -1.35 -0.95 0  -1.3 -0.95 0  -1.25 -0.95 0  -1.2 -0.95 0  -1.15 -0.95 0  -1.1 -0.95 0  -1.05 -0.95 0  -1 -0.95 0  -0.9500000000000002 -0.95 0  -0.9000000000000004 -0.95 0  -0.8499999999999996 -0.95 0  -0.7999999999999998 -0.95 0  -0.75 -0.95 0  -0.7000000000000002 -0.95 0  -0.6500000000000004 -0.95 0  -0.5999999999999996 -0.95 0  -0.5499999999999998 -0.95 0  -0.5 -0.95 0  -0.4500000000000002 -0.95 0  -0.4000000000000004 -0.95 0  -0.3499999999999996 -0.95 0  -0.2999999999999998 -0.95 0  -0.25 -0.95 0  -0.2000000000000002 -0.95 0  -0.1500000000000004 -0.95 0  -0.09999999999999964 -0.95 0  -0.04999999999999982 -0.95 0  0 -0.95 0  0.04999999999999982 -0.95 0  0.09999999999999964 -0.95 0  0.1500000000000004 -0.95 0  0.2000000000000002 -0.95 0  0.25 -0.95 0  0.2999999999999998 -0.95 0  0.3499999999999996 -0.95 0  0.4000000000000004 -0.95 0  0.4500000000000002 -0.95 0  0.5 -0.95 0  0.5499999999999998 -0.95 0  0.5999999999999996 -0.95 0  0.6500000000000004 -0.95 0  0.7000000000000002 -0.95 0  0.75 -0.95 0  0.7999999999999998 -0.95 0  0.8499999999999996 -0.95 0  0.9000000000000004 -0.95 0  0.9500000000000002 -0.95 0  1 -0.95 0  1.05 -0.95 0  1.1 -0.95 0  1.15 -0.95 0  1.2 -0.95 0  1.25 -0.95 0  1.3 -0.95 0  1.35 -0.95 0  1.4 -0.95 0  1.45 -0.95 0  1.5 -0.95 0  1.55 -0.95 0  1.6 -0.95 0  1.65 -0.95 0  1.7 -0.95 0  1.75 -0.95 0  1.8 -0.95 0  1.85 -0.95 0  1.9 -0.95 0  1.95 -0.95 0  2 -0.95 0  2.05 -0.95 0  2.1 -0.95 0  2.15 -0.95 0  2.2 -0.95 0  2.25 -0.95 0  2.3 -0.95 0  2.35 -0.95 0  2.4 -0.95 0  2.45 -0.95 0  2.5 -0.95 0  2.55 -0.95 0  2.6 -0.95 0  2.65 -0.95 0  2.7 -0.95 0  2.75 -0.95 0  2.8 -0.95 0  2.85 -0.95 0  2.9 -0.95 0  2.95 -0.95 0  3 -0.95 0  3.050000000000001 -0.95 0  3.1 -0.95 0  3.15 -0.95 0  3.199999999999999 -0.95 0  3.25 -0.95 0  3.300000000000001 -0.95 0  3.35 -0.95 0  3.4 -0.95 0  3.449999999999999 -0.95 0  3.5 -0.95 0  3.550000000000001 -0.95 0  3.6 -0.95 0  3.65 -0.95 0  3.699999999999999 -0.95 0  3.75 -0.95 0  3.800000000000001 -0.95 0  3.85 -0.95 0  3.9 -0.95 0  3.949999999999999 -0.95 0  4 -0.95 0  4.050000000000001 -0.95 0  4.1 -0.95 0  4.15 -0.95 0  4.199999999999999 -0.95 0  4.25 -0.95 0  4.300000000000001 -0.95 0  4.35 -0.95 0  4.4 -0.95 0  4.449999999999999 -0.95 0  4.5 -0.95 0  4.550000000000001 -0.95 0  4.6 -0.95 0  4.65 -0.95 0  4.699999999999999 -0.95 0  4.75 -0.95 0  4.800000000000001 -0.95 0  4.85 -0.95 0  4.9 -0.95 0  4.949999999999999 -0.95 0  5 -0.95 0  -5 -0.9 0  -4.95 -0.9 0  -4.9 -0.9 0  -4.85 -0.9 0  -4.8 -0.9 0  -4.75 -0.9 0  -4.7 -0.9 0  -4.65 -0.9 0  -4.6 -0.9 0  -4.55 -0.9 0  -4.5 -0.9 0  -4.45 -0.9 0  -4.4 -0.9 0  -4.35 -0.9 0  -4.3 -0.9 0  -4.25 -0.9 0  -4.2 -0.9 0  -4.15 -0.9 0  -4.1 -0.9 0  -4.05 -0.9 0  -4 -0.9 0  -3.95 -0.9 0  -3.9 -0.9 0  -3.85 -0.9 0  -3.8 -0.9 0  -3.75 -0.9 0  -3.7 -0.9 0  -3.65 -0.9 0  -3.6 -0.9 0  -3.55 -0.9 0  -3.5 -0.9 0  -3.45 -0.9 0  -3.4 -0.9 0  -3.35 -0.9 0  -3.3 -0.9 0  -3.25 -0.9 0  -3.2 -0.9 0  -3.15 -0.9 0  -3.1 -0.9 0  -3.05 -0.9 0  -3 -0.9 0  -2.95 -0.9 0  -2.9 -0.9 0  -2.85 -0.9 0  -2.8 -0.9 0  -2.75 -0.9 0  -2.7 -0.9 0  -2.65 -0.9 0  -2.6 -0.9 0  -2.55 -0.9 0  -2.5 -0.9 0  -2.45 -0.9 0  -2.4 -0.9 0  -2.35 -0.9 0  -2.3 -0.9 0  -2.25 -0.9 0  -2.2 -0.9 0  -2.15 -0.9 0  -2.1 -0.9 0  -2.05 -0.9 0  -2 -0.9 0  -1.95 -0.9 0  -1.9 -0.9 0  -1.85 -0.9 0  -1.8 -0.9 0  -1.75 -0.9 0  -1.7 -0.9 0  -1.65 -0.9 0  -1.6 -0.9 0  -1.55 -0.9 0  -1.5 -0.9 0  -1.45 -0.9 0  -1.4 -0.9 0  -1.35 -0.9 0  -1.3 -0.9 0  -1.25 -0.9 0  -1.2 -0.9 0  -1.15 -0.9 0  -1.1 -0.9 0  -1.05 -0.9 0  -1 -0.9 0  -0.9500000000000002 -0.9 0  -0.9000000000000004 -0.9 0  -0.8499999999999996 -0.9 0  -0.7999999999999998 -0.9 0  -0.75 -0.9 0  -0.7000000000000002 -0.9 0  -0.6500000000000004 -0.9 0  -0.5999999999999996 -0.9 0  -0.5499999999999998 -0.9 0  -0.5 -0.9 0  -0.4500000000000002 -0.9 0  -0.4000000000000004 -0.9 0  -0.3499999999999996 -0.9 0  -0.2999999999999998 -0.9 0  -0.25 -0.9 0  -0.2000000000000002 -0.9 0  -0.1500000000000004 -0.9 0  -0.09999999999999964 -0.9 0  -0.04999999999999982 -0.9 0  0 -0.9 0  0.04999999999999982 -0.9 0  0.09999999999999964 -0.9 0  0.1500000000000004 -0.9 0  0.2000000000000002 -0.9 0  0.25 -0.9 0  0.2999999999999998 -0.9 0  0.3499999999999996 -0.9 0  0.4000000000000004 -0.9 0  0.4500000000000002 -0.9 0  0.5 -0.9 0  0.5499999999999998 -0.9 0  0.5999999999999996 -0.9 0  0.6500000000000004 -0.9 0  0.7000000000000002 -0.9 0  0.75 -0.9 0  0.7999999999999998 -0.9 0  0.8499999999999996 -0.9 0  0.9000000000000004 -0.9 0  0.9500000000000002 -0.9 0  1 -0.9 0  1.05 -0.9 0  1.1 -0.9 0  1.15 -0.9 0  1.2 -0.9 0  1.25 -0.9 0  1.3 -0.9 0  1.35 -0.9 0  1.4 -0.9 0  1.45 -0.9 0  1.5 -0.9 0  1.55 -0.9 0  1.6 -0.9 0  1.65 -0.9 0  1.7 -0.9 0  1.75 -0.9 0  1.8 -0.9 0  1.85 -0.9 0  1.9 -0.9 0  1.95 -0.9 0  2 -0.9 0  2.05 -0.9 0  2.1 -0.9 0  2.15 -0.9 0  2.2 -0.9 0  2.25 -0.9 0  2.3 -0.9 0  2.35 -0.9 0  2.4 -0.9 0  2.45 -0.9 0  2.5 -0.9 0  2.55 -0.9 0  2.6 -0.9 0  2.65 -0.9 0  2.7 -0.9 0  2.75 -0.9 0  2.8 -0.9 0  2.85 -0.9 0  2.9 -0.9 0  2.95 -0.9 0  3 -0.9 0  3.050000000000001 -0.9 0  3.1 -0.9 0  3.15 -0.9 0  3.199999999999999 -0.9 0  3.25 -0.9 0  3.300000000000001 -0.9 0  3.35 -0.9 0  3.4 -0.9 0  3.449999999999999 -0.9 0  3.5 -0.9 0  3.550000000000001 -0.9 0  3.6 -0.9 0  3.65 -0.9 0  3.699999999999999 -0.9 0  3.75 -0.9 0  3.800000000000001 -0.9 0  3.85 -0.9 0  3.9 -0.9 0  3.949999999999999 -0.9 0  4 -0.9 0  4.050000000000001 -0.9 0  4.1 -0.9 0  4.15 -0.9 0  4.199999999999999 -0.9 0  4.25 -0.9 0  4.300000000000001 -0.9 0  4.35 -0.9 0  4.4 -0.9 0  4.449999999999999 -0.9 0  4.5 -0.9 0  4.550000000000001 -0.9 0  4.6 -0.9 0  4.65 -0.9 0  4.699999999999999 -0.9 0  4.75 -0.9 0  4.800000000000001 -0.9 0  4.85 -0.9 0  4.9 -0.9 0  4.949999999999999 -0.9 0  5 -0.9 0  -5 -0.85 0  -4.95 -0.85 0  -4.9 -0.85 0  -4.85 -0.85 0  -4.8 -0.85 0  -4.75 -0.85 0  -4.7 -0.85 0  -4.65 -0.85 0  -4.6 -0.85 0  -4.55 -0.85 0  -4.5 -0.85 0  -
[...]
<PointData  Vectors="f_15"> 
<DataArray  type="Float64"  Name="f_15"  NumberOfComponents="3" format="ascii">9.9949602257663201e+00 0.0000000000000000e+00 0.0000000000000000e+00  9.9986381264064548e+00 -7.0476374586677182e-03 0.0000000000000000e+00  9.9937553232090348e+00 4.4220931026923947e-03 0.0000000000000000e+00  9.9978016689974964e+00 -6.6237180278243398e-03 0.0000000000000000e+00  9.9930842145715957e+00 3.8693452116408409e-03 0.0000000000000000e+00  9.9958919317194503e+00 -4.9234862944807630e-03 0.0000000000000000e+00  9.9915996469375159e+00 3.9964317124888630e-03 0.0000000000000000e+00  9.9937662026454213e+00 -3.1863318934367457e-03 0.0000000000000000e+00  9.9889344735173129e+00 6.0311438420944784e-03 0.0000000000000000e+00  9.9903973940416915e+00 -5.4510619902173915e-04 0.0000000000000000e+00  9.9852068967655505e+00 9.5558751924905289e-03 0.0000000000000000e+00  9.9850293942896720e+00 4.5097194993189513e-03 0.0000000000000000e+00  9.9793024865073416e+00 1.5166990840863620e-02 0.0000000000000000e+00  9.9773984133089755e+00 1.2152733897331389e-02 0.0000000000000000e+00  9.9699202232795336e+00 2.4657133875926794e-02 0.0000000000000000e+00  9.9662657295860750e+00 2.3255512704386999e-02 0.0000000000000000e+00  9.9564729669215986e+00 3.8484212088826575e-02 0.0000000000000000e+00  9.9497941181517113e+00 4.0016308725415513e-02 0.0000000000000000e+00  9.9376444242466704e+00 5.7689907879024310e-02 0.0000000000000000e+00  9.9272100298871031e+00 6.3059940894829997e-02 0.0000000000000000e+00  9.9112202379180356e+00 8.4736940737887401e-02 0.0000000000000000e+00  9.8972931381291360e+00 9.3423479923257946e-02 0.0000000000000000e+00  9.8764779738669208e+00 1.2021293546364349e-01 0.0000000000000000e+00  9.8577397197127574e+00 1.3358443493653391e-01 0.0000000000000000e+00  9.8325564054590124e+00 1.6487419925304311e-01 0.0000000000000000e+00  9.8081352258305916e+00 1.8384677138834390e-01 0.0000000000000000e+00  9.7774019816617628e+00 2.2092850383564921e-01 0.0000000000000000e+00  9.7481831419223646e+00 2.4449068551048939e-01 0.0000000000000000e+00  9.7111164857662100e+00 2.8821410622407723e-01 0.0000000000000000e+00  9.6762963742401187e+00 3.1729979298114547e-01 0.0000000000000000e+00  9.6340699177304963e+00 3.6640730779334901e-01 0.0000000000000000e+00  9.5931159388505485e+00 4.0162971015855592e-01 0.0000000000000000e+00  9.5452254640831953e+00 4.5678768816148152e-01 0.0000000000000000e+00  9.4995972656937084e+00 4.9666229678308216e-01 0.0000000000000000e+00  9.4456516469006253e+00 5.5824933228369666e-01 0.0000000000000000e+00  9.3951992599274039e+00 6.0337621770874206e-01 0.0000000000000000e+00  9.3366918646283672e+00 6.6943118554675796e-01 0.0000000000000000e+00  9.2812523032437593e+00 7.2059899195239707e-01 0.0000000000000000e+00  9.2181404710182893e+00 7.9084997693100278e-01 0.0000000000000000e+00  9.1593134591587724e+00 8.4689891495157088e-01 0.0000000000000000e+00  9.0913684728614736e+00 9.2115216372494491e-01 0.0000000000000000e+00  9.0294048829094873e+00 9.8268913496911670e-01 0.0000000000000000e+00  8.9579662762197785e+00 1.0588487952667025e+00 0.0000000000000000e+00  8.8927862997370291e+00 1.1265049764148978e+00 0.0000000000000000e+00  8.8181052247521343e+00 1.2046204892793990e+00 0.0000000000000000e+00  8.7509388439466775e+00 1.2763943002649494e+00 0.0000000000000000e+00  8.6728763629607322e+00 1.3576413065287456e+00 0.0000000000000000e+00  8.6041017323200872e+00 1.4326286401092765e+00 0.0000000000000000e+00  8.5236023330129473e+00 1.5162691445900134e+00 0.0000000000000000e+00  8.4531674591239288e+00 1.5943903813361064e+00 0.0000000000000000e+00  8.3705348301493494e+00 1.6809546653610015e+00 0.0000000000000000e+00  8.2993171040734310e+00 1.7599969990068767e+00 0.0000000000000000e+00  8.2143206391628780e+00 1.8509865695168377e+00 0.0000000000000000e+00  8.1428452843438741e+00 1.9303523560022104e+00 0.0000000000000000e+00  8.0559637003644990e+00 2.0241223836140785e+00 0.0000000000000000e+00  7.9841988239467341e+00 2.1053903756676120e+00 0.0000000000000000e+00  7.8957827476784033e+00 2.2013377738619986e+00 0.0000000000000000e+00  7.8242069754859633e+00 2.2825674342577584e+00 0.0000000000000000e+00  7.7340979200789741e+00 2.3827342944902701e+00 0.0000000000000000e+00  7.6631396018146845e+00 2.4637250944680535e+00 0.0000000000000000e+00  7.5716740752764560e+00 2.5647884021598086e+00 0.0000000000000000e+00  7.5011147622280259e+00 2.6489152516072800e+00 0.0000000000000000e+00  7.4088539448851600e+00 2.7512005111961155e+00 0.0000000000000000e+00  7.3387041520153113e+00 2.8329558992049662e+00 0.0000000000000000e+00  7.2457176852001455e+00 2.9415018695228707e+00 0.0000000000000000e+00  7.1762136169479618e+00 3.0219237581175697e+00 0.0000000000000000e+00  7.0827711461347675e+00 3.1297777335556431e+00 0.0000000000000000e+00  7.0135898696324768e+00 3.2136106454305433e+00 0.0000000000000000e+00  6.9203718058648924e+00 3.3229969142208269e+00 0.0000000000000000e+00  6.8512903885764702e+00 3.4047259082544450e+00 0.0000000000000000e+00  6.7583227773463692e+00 3.5167439245517715e+00 0.0000000000000000e+00  6.6896724476680953e+00 3.5997747074525748e+00 0.0000000000000000e+00  6.5971827316056473e+00 3.7114122218359049e+00 0.0000000000000000e+00  6.5283852215584579e+00 3.7959308566855583e+00 0.0000000000000000e+00  6.4372579791943378e+00 3.9071687111983149e+00 0.0000000000000000e+00  6.3680657942139351e+00 3.9932697496900533e+00 0.0000000000000000e+00  6.2781464395011701e+00 4.1049652503661314e+00 0.0000000000000000e+00  6.2090539068192570e+00 4.1915231083350717e+00 0.0000000000000000e+00  6.1203052176330610e+00 4.3029236089132672e+00 0.0000000000000000e+00  6.0510082913891639e+00 4.3911876744679281e+00 0.0000000000000000e+00  5.9640644210269906e+00 4.5018216523496424e+00 0.0000000000000000e+00  5.8943228073496101e+00 4.5917262374460917e+00 0.0000000000000000e+00  5.8090254063418714e+00 4.7018914495432504e+00 0.0000000000000000e+00  5.7392940365891523e+00 4.7924570128545287e+00 0.0000000000000000e+00  5.6554976433211008e+00 4.9022653871513926e+00 0.0000000000000000e+00  5.5855441316685397e+00 4.9946972910326028e+00 0.0000000000000000e+00  5.5036857365656502e+00 5.1039080278025120e+00 0.0000000000000000e+00  5.4331414049720657e+00 5.1969715196555342e+00 0.0000000000000000e+00  5.3535612008994322e+00 5.3058607909026794e+00 0.0000000000000000e+00  5.2819341618163005e+00 5.4011765379683521e+00 0.0000000000000000e+00  5.2055682109245103e+00 5.5076861714318142e+00 0.0000000000000000e+00  5.1322255601005473e+00 5.6056640025025697e+00 0.0000000000000000e+00  5.0597427686037406e+00 5.7096680556542481e+00 0.0000000000000000e+00  4.9845441616118329e+00 5.8112082123285145e+00 0.0000000000000000e+00  4.9154890749951496e+00 5.9111718987821398e+00 0.0000000000000000e+00  4.8392486516899114e+00 6.0165248434121734e+00 0.0000000000000000e+00  4.7719145374026137e+00 6.1155714999225577e+00 0.0000000000000000e+00  4.6976531774156109e+00 6.2195332428959809e+00 0.0000000000000000e+00  4.6290763079467103e+00 6.3208191520116923e+00 0.0000000000000000e+00  4.5590653162236912e+00 6.4222244215688340e+00 0.0000000000000000e+00  4.4884609670150750e+00 6.5264597820266612e+00 0.0000000000000000e+00  4.4295127510131902e+00 6.6130137659536006e+00 0.0000000000000000e+00  4.3466897987980930e+00 6.7375579853630354e+00 0.0000000000000000e+00  4.2867241002916545e+00 6.8278763660479722e+00 0.0000000000000000e+00  4.2138470710431726e+00 6.9372925732699651e+00 0.0000000000000000e+00  4.1550217985308313e+00 7.0288086242617291e+00 0.0000000000000000e+00  4.0861568454911357e+00 7.1342683871163519e+00 0.0000000000000000e+00  4.0283551277661713e+00 7.2236813084513578e+00 0.0000000000000000e+00  3.9633721801857971e+00 7.3249860889734517e+00 0.0000000000000000e+00  3.9088416958343708e+00 7.4131431344501415e+00 0.0000000000000000e+00  3.8514697404211797e+00 7.5013379059801535e+00 0.0000000000000000e+00  3.7949517556225447e+00 7.5926351526047879e+00 0.0000000000000000e+00  3.7759518416202824e+00 7.6240390268555966e+00 0.0000000000000000e+00  3.8360965216544884e+00 7.5274645222789811e+00 0.0000000000000000e+00  3.8919366935728812e+00 7.4370572364293759e+00 0.0000000000000000e+00  3.9211259036603656e+00 7.3913868192159891e+00 0.0000000000000000e+00  3.9298287158129748e+00 7.3771616885205207e+00 0.0000000000000000e+00  3.9379487939449320e+00 7.3649036298766886e+00 0.0000000000000000e+00  3.9407122971494752e+00 7.3599600123545033e+00 0.0000000000000000e+00  3.9455367331747477e+00 7.3526646579965291e+00 0.0000000000000000e+00  3.9465014360486008e+00 7.3504275937915633e+00 0.0000000000000000e+00  3.9496897599470384e+00 7.3455933278915557e+00 0.0000000000000000e+00  3.9500999602691760e+00 7.3442891288460679e+00 0.0000000000000000e+00  3.9526047532899908e+00 7.3406139295914912e+00 0.0000000000000000e+00  3.9528471715606202e+00 7.3397500414138541e+00 0.0000000000000000e+00  3.9547065305005429e+00 7.3370603957519824e+00 0.0000000000000000e+00  3.9546951099223064e+00 7.3366278527436100e+00 0.0000000000000000e+00  3.9558850514305179e+00 7.3348319516996723e+00 0.0000000000000000e+00  3.9557079134349538e+00 7.3346137796037070e+00 0.0000000000000000e+00  3.9564189404513774e+00 7.3333994610640989e+00 0.0000000000000000e+00  3.9562241551856676e+00 7.3332095579016698e+00 0.0000000000000000e+00  3.9566739237945678e+00 7.3322961430455544e+00 0.0000000000000000e+00  3.9565819902135968e+00 7.3320089144080915e+00 0.0000000000000000e+00  3.9569131101394248e+00 7.3312615574505831e+00 0.0000000000000000e+00  3.9569304105651320e+00 7.3308637764582603e+00 0.0000000000000000e+00  3.9571800728246340e+00 7.3302187559663201e+00 0.0000000000000000e+00  3.9572323988981761e+00 7.3297632437453331e+00 0.0000000000000000e+00  3.9573982473229230e+00 7.3291360122919267e+00 0.0000000000000000e+00  3.9574412651041855e+00 7.3285729005350797e+00 0.0000000000000000e+00  3.9575282826608253e+00 7.3278457644928521e+00 0.0000000000000000e+00  3.9575483258109871e+00 7.3270364316378274e+00 0.0000000000000000e+00  3.9575761343940274e+00 7.3260315988723610e+00 0.0000000000000000e+00  3.9575657448625789e+00 7.3248366830480096e+00 0.0000000000000000e+00  3.9575502492521624e+00 7.3233810000083812e+00 0.0000000000000000e+00  3.9575146768293008e+00 7.3216857088217475e+00 0.0000000000000000e+00  3.9574601686651745e+00 7.3197204018767588e+00 0.0000000000000000e+00  3.9574046425421692e+00 7.3175159125084850e+00 0.0000000000000000e+00  3.9573191740997973e+00 7.3151109157559837e+00 0.0000000000000000e+00  3.9572397762987057e+00 7.3125589073989179e+00 0.0000000000000000e+00  3.9571300112340908e+00 7.3099058406542028e+00 0.0000000000000000e+00  3.9570265688314246e+00 7.3072612117078082e+00 0.0000000000000000e+00  3.9568898445405152e+00 7.3046278112665801e+00 0.0000000000000000e+00  3.9567579011603167e+00 7.3021409164900870e+00 0.0000000000000000e+00  3.9565891589928990e+00 7.2997367762670020e+00 0.0000000000000000e+00  3.9563993092532868e+00 7.2975752715087161e+00 0.0000000000000000e+00  3.9561669460265567e+00 7.2954455976312049e+00 0.0000000000000000e+00  3.9558329243920878e+00 7.2935700722803007e+00 0.0000000000000000e+00  3.9553888849340137e+00 7.2914777322307591e+00 0.0000000000000000e+00  3.9546255735114864e+00 7.2894282913708466e+00 0.0000000000000000e+00  3.9534296782041620e+00 7.2864354634105331e+00 0.0000000000000000e+00  3.9512403664113362e+00 7.2826013581194893e+00 0.0000000000000000e+00  3.9473938971539129e+00 7.2756229635069882e+00 0.0000000000000000e+00  3.9402993602103167e+00 7.2645263922063554e+00 0.0000000000000000e+00  3.9271494531712001e+00 7.2431035830208312e+00 0.0000000000000000e+00  3.9030080924425317e+00 7.2056948742960287e+00 0.0000000000000000e+00  3.8575901224865219e+00 7.1332667956886624e+00 0.0000000000000000e+00  3.7756733442563148e+00 7.0028671734831809e+00 0.0000000000000000e+00  3.6239546735661206e+00 6.7514064889146326e+00 0.0000000000000000e+00  3.3647053557455933e+00 6.2986565983806528e+00 0.0000000000000000e+00  2.9241527064138664e+00 5.4476023120366062e+00 0.0000000000000000e+00  2.2872522965358941e+00 3.9773928009940316e+00 0.0000000000000000e+00  1.4579443833348102e+00 1.5056995568097846e+00 0.0000000000000000e+00  1.0554574004153268e+00 1.7140443222157203e-01 0.0000000000000000e+00  1.0033774509748195e+00 8.7784707973818377e-03 0.0000000000000000e+00  9.9985691646086894e-01 1.6666526854558650e-03 0.0000000000000000e+00  1.0001876494370525e+00 -4.6805670424900038e-04 0.0000000000000000e+00  9.9990120291910101e-01 2.9596546642040450e-04 0.0000000000000000e+00  1.0000736608448904e+00 -2.0603819795362774e-04 0.0000000000000000e+00  9.9994001288289114e-01 1.6676856331056378e-04 0.0000000000000000e+00  1.0000491885356677e+00 -1.3606851035680425e-04 0.0000000000000000e+00  9.9996057166479224e-01 1.0894423739236039e-04 0.0000000000000000e+00  1.0000310281645282e+00 -8.5658346933748669e-05 0.0000000000000000e+00  9.9997586194313104e-01 6.6578775985795855e-05 0.0000000000000000e+00  1.0000186481306497e+00 -5.1373106742247234e-05 0.0000000000000000e+00  9.9998565728648858e-01 3.9451395861901973e-05 0.0000000000000000e+00  1.0000109957409578e+00 -3.0189545676989588e-05 0.0000000000000000e+00  9.9999159511048352e-01 2.3031259135517803e-05 0.0000000000000000e+00  1.0000063999502495e+00 -1.7503615226036343e-05 0.0000000000000000e+00  9.9999514890745511e-01 1.3239663878339815e-05 0.0000000000000000e+00  1.0000036541399486e+00 -9.9508030048212653e-06 0.0000000000000000e+00  9.9999725921148275e-01 7.4355340926702502e-06 0.0000000000000000e+00  1.0000020395440943e+00 -5.5110709733521947e-06 0.0000000000000000e+00  9.9999847791291696e-01 4.0713084537558502e-06 0.0000000000000000e+00  1.0000011173715848e+00 -2.9644834578154579e-06 0.0000000000000000e+00  9.9999915601407885e-01 2.1660954177060664e-06 0.0000000000000000e+00  1.0000006014966287e+00 -1.5116854126591446e-06 0.0000000000000000e+00  9.9999951216317839e-01 1.0854729978874150e-06 0.0000000000000000e+00  1.0000003177166807e+00 -6.4906319672210847e-07 0.0000000000000000e+00  9.9999966801602713e-01 4.5636075412020782e-07 0.0000000000000000e+00  1.0000001563863676e+00 -9.4585149744972645e-08 0.0000000000000000e+00  9.9999968347265755e-01 0.0000000000000000e+00 0.0000000000000000e+00  1.0001920230375680e+01 0.0000000000000000e+00 1.1092907391724435e-03  1.0000378940109366e+01 4.3787063717277653e-03 2.0841687924597328e-03  1.0001764228484657e+01 1.7420606860105478e-05 -3.4004685613504108e-03  1.0001272374888897e+01 4.4351450927332652e-03 2.7560697078547873e-03  1.0000978255532178e+01 3.2154462567747896e-03 -2.3179040890922084e-03  1.0000938913881699e+01 5.4913662876214433e-03 2.0658095186697344e-03  1.0000221303138144e+01 5.3428488664505691e-03 -1.7929368370102929e-03  9.9993319412751411e+00 8.0565992194746756e-03 1.6843890137914199e-03  9.9982034204154857e+00 8.0073108151246450e-03 -1.4465959654901537e-03  9.9967659985407611e+00 1.1296135547591306e-02 1.3121164310905919e-03  9.9942937246516284e+00 1.2566107338004054e-02 -1.0809781816691815e-03  9.9921335391409816e+00 1.5930348402238580e-02 9.4499051142515162e-04  9.9883420090344401e+00 1.8987943996013924e-02 -7.1751223890791354e-04  9.9843452250674343e+00 2.3587120484315601e-02 5.5403376453103744e-04  9.9791332073868393e+00 2.8151636137615028e-02 -3.2058353543136357e-04  9.9729241194173124e+00 3.4631962598602385e-02 1.5879760177247966e-04  9.9650331335076654e+00 4.2070841527469711e-02 2.6318688723050712e-05  9.9565712671950592e+00 5.0203482340360525e-02 -1.6443384177948993e-04  9.9453315875841923e+00 6.1332762214799927e-02 3.3104967540736142e-04  9.9332227869200107e+00 7.2672723219636359e-02 -4.8312400543990339e-04  9.9187737687878688e+00 8.7150128336706295e-02 6.3121863828593649e-04  9.9021492893182792e+00 1.0269482368136479e-01 -7.4006758192304075e-04  9.8831141586656504e+00 1.2199278809406858e-01 8.0397201419174307e-04  9.8623813806959504e+00 1.4134298701811177e-01 -8.5185570937541951e-04  9.8378614782748102e+00 1.6629809822683930e-01 8.7878955822539597e-04  9.8118163502796225e+00 1.9093461354121244e-01 -9.0952527174046813e-04  9.7825600022611301e+00 2.2069692820660924e-01 8.9433168239296413e-04  9.7504203344950167e+00 2.5149694039819326e-01 -8.3907514191896974e-04  9.7155062738908367e+00 2.8708373622153432e-01 7.1457067432886563e-04  9.6783743498807127e+00 3.2309340637085238e-01 -5.6870360394690404e-04  9.6372048675320272e+00 3.6495293761869729e-01 3.9490308691486479e-04  9.5944857835772055e+00 4.0712591128874553e-01 -2.0828615099290442e-04  9.5484483520507908e+00 4.5377013696746710e-01 -3.0042244996656061e-05  9.4997151582736645e+00 5.0261831573246130e-01 3.3331668664080103e-04  9.4485416945426586e+00 5.5448353649919668e-01 -7.0075212882757362e-04  9.3953005185780221e+00 6.0854734415530942e-01 1.1016716957453865e-03  9.3387454561386374e+00 6.6582912817518747e-01 -1.5035697589892802e-03  9.2809264496556381e+00 7.2550369473141374e-01 1.8991470357878416e-03  9.2205494975038000e+00 7.8649442093902600e-01 -2.2791826955798566e-03  9.1579664695317167e+00 8.5207649137538011e-01 2.6465971753647185e-03  9.0938814406014963e+00 9.1690444000929627e-01 -2.9530815808712224e-03  9.0280038805619078e+00 9.8674221561445896e-01 3.1631995519885107e-03  8.9600420758900938e+00 1.0557613065772764e+00 -3.2275651527708588e-03  8.8911404696645242e+00 1.1297604510084360e+00 3.1596286554772877e-03  8.8205469575785145e+00 1.2015688439657912e+00 -2.9761509384739543e-03  8.7485269696420218e+00 1.2798904658010974e+00 2.7270604252418950e-03  8.6755902959681350e+00 1.3546939715727722e+00 -2.4281479750774722e-03  8.6015382607318429e+00 1.4355066905928811e+00 2.1029314367080379e-03  8.5261318661036931e+00 1.5141873701864164e+00 -1.7625066747282709e-03  8.4504027782653921e+00 1.5970487265637339e+00 1.4368081944780924e-03  8.3734002763285265e+00 1.6782930104707905e+00 -1.1535999313094813e-03  8.2958475220668628e+00 1.7639512581568262e+00 9.3648249861496018e-04  8.2176668782666056e+00 1.8474638372936374e+00 -7.9111594036785434e-04  8.1389306165284054e+00 1.9344213958212091e+00 6.8367320741675400e-04  8.0594492999056691e+00 2.0213272381530549e+00 -5.6278751277845027e-04  7.9799616979328771e+00 2.1092418231316921e+00 3.5485713052516742e-04  7.8996270273994522e+00 2.1977234220191622e+00 -5.9379192057361858e-05  7.8193099314897152e+00 2.2882964141932627e+00 -2.8654116240865246e-04  7.7384960163822658e+00 2.3780767650807046e+00 6.0147169926190881e-04  7.6577374137377943e+00 2.4685575480134880e+00 -9.0718053256665587e-04  7.5762753849462507e+00 2.5626405570294053e+00 1.2205095409848145e-03  7.4955299900304020e+00 2.6525687981368153e+00 -1.5383375039000546e-03  7.4136531745751597e+00 2.7469328951867626e+00 1.6710725227308788e-03  7.3327322690539205e+00 2.8408348758816846e+00 -1.5380902763408894e-03  7.2509857423092834e+00 2.9350771331683543e+00 1.2306253168578357e-03  7.1698924926166985e+00 3.0278453637218665e+00 -1.0445210314899342e-03  7.0882375382876397e+00 3.1262982621257693e+00 9.7154420709636845e-04  7.0073727382870619e+00 3.2198067297964870e+00 -8.6848517848992965e-04  6.9258911634297800e+00 3.3158513652533537e+00 6.0814928662787041e-04  6.8450523761793072e+00 3.4131789078019272e+00 -5.0928723552775754e-04  6.7642390022941150e+00 3.5101860069228525e+00 6.1907804371016939e-04  6.6834989936962055e+00 3.6063917749523435e+00 -7.7290895605897623e-04  6.6029835516898787e+00 3.7049836584482905e+00 6.4826129299667891e-04  6.5229539409874784e+00 3.8021067570059617e+00 -5.5352503723982420e-04  6.4427303410696002e+00 3.9010351460103605e+00 5.6007975709449517e-04  6.3630326794655110e+00 3.9993230112979310e+00 -6.5464614269238606e-04  6.2836883997818349e+00 4.0979283155831805e+00 6.1747166047693635e-04  6.2042590549395609e+00 4.1970691507100346e+00 -6.9271552747350010e-04  6.1254596651609541e+00 4.2968854783714594e+00 7.5921538157278838e-04  6.0469185805799270e+00 4.3959796219735878e+00 -7.6257282920437735e-04  5.9684652298571876e+00 4.4964061444814849e+00 7.1181755896467826e-04  5.8905994226934553e+00 4.5960793706182299e+00 -7.5794855015381859e-04  5.8130418439363938e+00 