<?xml version="1.0"?>
<VTKFile type="UnstructuredGrid"  version="0.1"  >
<UnstructuredGrid>
<Piece  NumberOfPoints="8241" NumberOfCells="16000">
<Points>
<DataArray  type="Float64"  NumberOfComponents="3"  format="ascii">-5 -1 0  -4.95 -1 0  -4.9 -1 0  -4.85 -1 0  -4.8 -1 0  -4.75 -1 0  -4.7 -1 0  -4.65 -1 0  -4.6 -1 0  -4.55 -1 0  -4.5 -1 0  -4.45 -1 0  -4.4 -1 0  -4.35 -1 0  -4.3 -1 0  -4.25 -1 0  -4.2 -1 0  -4.15 -1 0  -4.1 -1 0  -4.05 -1 0  -4 -1 0  -3.95 -1 0  -3.9 -1 0  -3.85 -1 0  -3.8 -1 0  -3.75 -1 0  -3.7 -1 0  -3.65 -1 0  -3.6 -1 0  -3.55 -1 0  -3.5 -1 0  -3.45 -1 0  -3.4 -1 0  -3.35 -1 0  -3.3 -1 0  -3.25 -1 0  -3.2 -1 0  -3.15 -1 0  -3.1 -1 0  -3.05 -1 0  -3 -1 0  -2.95 -1 0  -2.9 -1 0  -2.85 -1 0  -2.8 -1 0  -2.75 -1 0  -2.7 -1 0  -2.65 -1 0  -2.6 -1 0  -2.55 -1 0  -2.5 -1 0  -2.45 -1 0  -2.4 -1 0  -2.35 -1 0  -2.3 -1 0  -2.25 -1 0  -2.2 -1 0  -2.15 -1 0  -2.1 -1 0  -2.05 -1 0  -2 -1 0  -1.95 -1 0  -1.9 -1 0  -1.85 -1 0  -1.8 -1 0  -1.75 -1 0  -1.7 -1 0  -1.65 -1 0  -1.6 -1 0  -1.55 -1 0  -1.5 -1 0  -1.45 -1 0  -1.4 -1 0  -1.35 -1 0  -1.3 -1 0  -1.25 -1 0  -1.2 -1 0  -1.15 -1 0  -1.1 -1 0  -1.05 -1 0  -1 -1 0  -0.9500000000000002 -1 0  -0.9000000000000004 -1 0  -0.8499999999999996 -1 0  -0.7999999999999998 -1 0  -0.75 -1 0  -0.7000000000000002 -1 0  -0.6500000000000004 -1 0  -0.5999999999999996 -1 0  -0.5499999999999998 -1 0  -0.5 -1 0  -0.4500000000000002 -1 0  -0.4000000000000004 -1 0  -0.3499999999999996 -1 0  -0.2999999999999998 -1 0  -0.25 -1 0  -0.2000000000000002 -1 0  -0.1500000000000004 -1 0  -0.09999999999999964 -1 0  -0.04999999999999982 -1 0  0 -1 0  0.04999999999999982 -1 0  0.09999999999999964 -1 0  0.1500000000000004 -1 0  0.2000000000000002 -1 0  0.25 -1 0  0.2999999999999998 -1 0  0.3499999999999996 -1 0  0.4000000000000004 -1 0  0.4500000000000002 -1 0  0.5 -1 0  0.5499999999999998 -1 0  0.5999999999999996 -1 0  0.6500000000000004 -1 0  0.7000000000000002 -1 0  0.75 -1 0  0.7999999999999998 -1 0  0.8499999999999996 -1 0  0.9000000000000004 -1 0  0.9500000000000002 -1 0  1 -1 0  1.05 -1 0  1.1 -1 0  1.15 -1 0  1.2 -1 0  1.25 -1 0  1.3 -1 0  1.35 -1 0  1.4 -1 0  1.45 -1 0  1.5 -1 0  1.55 -1 0  1.6 -1 0  1.65 -1 0  1.7 -1 0  1.75 -1 0  1.8 -1 0  1.85 -1 0  1.9 -1 0  1.95 -1 0  2 -1 0  2.05 -1 0  2.1 -1 0  2.15 -1 0  2.2 -1 0  2.25 -1 0  2.3 -1 0  2.35 -1 0  2.4 -1 0  2.45 -1 0  2.5 -1 0  2.55 -1 0  2.6 -1 0  2.65 -1 0  2.7 -1 0  2.75 -1 0  2.8 -1 0  2.85 -1 0  2.9 -1 0  2.95 -1 0  3 -1 0  3.050000000000001 -1 0  3.1 -1 0  3.15 -1 0  3.199999999999999 -1 0  3.25 -1 0  3.300000000000001 -1 0  3.35 -1 0  3.4 -1 0  3.449999999999999 -1 0  3.5 -1 0  3.550000000000001 -1 0  3.6 -1 0  3.65 -1 0  3.699999999999999 -1 0  3.75 -1 0  3.800000000000001 -1 0  3.85 -1 0  3.9 -1 0  3.949999999999999 -1 0  4 -1 0  4.050000000000001 -1 0  4.1 -1 0  4.15 -1 0  4.199999999999999 -1 0  4.25 -1 0  4.300000000000001 -1 0  4.35 -1 0  4.4 -1 0  4.449999999999999 -1 0  4.5 -1 0  4.550000000000001 -1 0  4.6 -1 0  4.65 -1 0  4.699999999999999 -1 0  4.75 -1 0  4.800000000000001 -1 0  4.85 -1 0  4.9 -1 0  4.949999999999999 -1 0  5 -1 0  -5 -0.95 0  -4.95 -0.95 0  -4.9 -0.95 0  -4.85 -0.95 0  -4.8 -0.95 0  -4.75 -0.95 0  -4.7 -0.95 0  -4.65 -0.95 0  -4.6 -0.95 0  -4.55 -0.95 0  -4.5 -0.95 0  -4.45 -0.95 0  -4.4 -0.95 0  -4.35 -0.95 0  -4.3 -0.95 0  -4.25 -0.95 0  -4.2 -0.95 0  -4.15 -0.95 0  -4.1 -0.95 0  -4.05 -0.95 0  -4 -0.95 0  -3.95 -0.95 0  -3.9 -0.95 0  -3.85 -0.95 0  -3.8 -0.95 0  -3.75 -0.95 0  -3.7 -0.95 0  -3.65 -0.95 0  -3.6 -0.95 0  -3.55 -0.95 0  -3.5 -0.95 0  -3.45 -0.95 0  -3.4 -0.95 0  -3.35 -0.95 0  -3.3 -0.95 0  -3.25 -0.95 0  -3.2 -0.95 0  -3.15 -0.95 0  -3.1 -0.95 0  -3.05 -0.95 0  -3 -0.95 0  -2.95 -0.95 0  -2.9 -0.95 0  -2.85 -0.95 0  -2.8 -0.95 0  -2.75 -0.95 0  -2.7 -0.95 0  -2.65 -0.95 0  -2.6 -0.95 0  -2.55 -0.95 0  -2.5 -0.95 0  -2.45 -0.95 0  -2.4 -0.95 0  -2.35 -0.95 0  -2.3 -0.95 0  -2.25 -0.95 0  -2.2 -0.95 0  -2.15 -0.95 0  -2.1 -0.95 0  -2.05 -0.95 0  -2 -0.95 0  -1.95 -0.95 0  -1.9 -0.95 0  -1.85 -0.95 0  -1.8 -0.95 0  -1.75 -0.95 0  -1.7 -0.95 0  -1.65 -0.95 0  -1.6 -0.95 0  -1.55 -0.95 0  -1.5 -0.95 0  -1.45 -0.95 0  -1.4 -0.95 0  -1.35 -0.95 0  -1.3 -0.95 0  -1.25 -0.95 0  -1.2 -0.95 0  -1.15 -0.95 0  -1.1 -0.95 0  -1.05 -0.95 0  -1 -0.95 0  -0.9500000000000002 -0.95 0  -0.9000000000000004 -0.95 0  -0.8499999999999996 -0.95 0  -0.7999999999999998 -0.95 0  -0.75 -0.95 0  -0.7000000000000002 -0.95 0  -0.6500000000000004 -0.95 0  -0.5999999999999996 -0.95 0  -0.5499999999999998 -0.95 0  -0.5 -0.95 0  -0.4500000000000002 -0.95 0  -0.4000000000000004 -0.95 0  -0.3499999999999996 -0.95 0  -0.2999999999999998 -0.95 0  -0.25 -0.95 0  -0.2000000000000002 -0.95 0  -0.1500000000000004 -0.95 0  -0.09999999999999964 -0.95 0  -0.04999999999999982 -0.95 0  0 -0.95 0  0.04999999999999982 -0.95 0  0.09999999999999964 -0.95 0  0.1500000000000004 -0.95 0  0.2000000000000002 -0.95 0  0.25 -0.95 0  0.2999999999999998 -0.95 0  0.3499999999999996 -0.95 0  0.4000000000000004 -0.95 0  0.4500000000000002 -0.95 0  0.5 -0.95 0  0.5499999999999998 -0.95 0  0.5999999999999996 -0.95 0  0.6500000000000004 -0.95 0  0.7000000000000002 -0.95 0  0.75 -0.95 0  0.7999999999999998 -0.95 0  0.8499999999999996 -0.95 0  0.9000000000000004 -0.95 0  0.9500000000000002 -0.95 0  1 -0.95 0  1.05 -0.95 0  1.1 -0.95 0  1.15 -0.95 0  1.2 -0.95 0  1.25 -0.95 0  1.3 -0.95 0  1.35 -0.95 0  1.4 -0.95 0  1.45 -0.95 0  1.5 -0.95 0  1.55 -0.95 0  1.6 -0.95 0  1.65 -0.95 0  1.7 -0.95 0  1.75 -0.95 0  1.8 -0.95 0  1.85 -0.95 0  1.9 -0.95 0  1.95 -0.95 0  2 -0.95 0  2.05 -0.95 0  2.1 -0.95 0  2.15 -0.95 0  2.2 -0.95 0  2.25 -0.95 0  2.3 -0.95 0  2.35 -0.95 0  2.4 -0.95 0  2.45 -0.95 0  2.5 -0.95 0  2.55 -0.95 0  2.6 -0.95 0  2.65 -0.95 0  2.7 -0.95 0  2.75 -0.95 0  2.8 -0.95 0  2.85 -0.95 0  2.9 -0.95 0  2.95 -0.95 0  3 -0.95 0  3.050000000000001 -0.95 0  3.1 -0.95 0  3.15 -0.95 0  3.199999999999999 -0.95 0  3.25 -0.95 0  3.300000000000001 -0.95 0  3.35 -0.95 0  3.4 -0.95 0  3.449999999999999 -0.95 0  3.5 -0.95 0  3.550000000000001 -0.95 0  3.6 -0.95 0  3.65 -0.95 0  3.699999999999999 -0.95 0  3.75 -0.95 0  3.800000000000001 -0.95 0  3.85 -0.95 0  3.9 -0.95 0  3.949999999999999 -0.95 0  4 -0.95 0  4.050000000000001 -0.95 0  4.1 -0.95 0  4.15 -0.95 0  4.199999999999999 -0.95 0  4.25 -0.95 0  4.300000000000001 -0.95 0  4.35 -0.95 0  4.4 -0.95 0  4.449999999999999 -0.95 0  4.5 -0.95 0  4.550000000000001 -0.95 0  4.6 -0.95 0  4.65 -0.95 0  4.699999999999999 -0.95 0  4.75 -0.95 0  4.800000000000001 -0.95 0  4.85 -0.95 0  4.9 -0.95 0  4.949999999999999 -0.95 0  5 -0.95 0  -5 -0.9 0  -4.95 -0.9 0  -4.9 -0.9 0  -4.85 -0.9 0  -4.8 -0.9 0  -4.75 -0.9 0  -4.7 -0.9 0  -4.65 -0.9 0  -4.6 -0.9 0  -4.55 -0.9 0  -4.5 -0.9 0  -4.45 -0.9 0  -4.4 -0.9 0  -4.35 -0.9 0  -4.3 -0.9 0  -4.25 -0.9 0  -4.2 -0.9 0  -4.15 -0.9 0  -4.1 -0.9 0  -4.05 -0.9 0  -4 -0.9 0  -3.95 -0.9 0  -3.9 -0.9 0  -3.85 -0.9 0  -3.8 -0.9 0  -3.75 -0.9 0  -3.7 -0.9 0  -3.65 -0.9 0  -3.6 -0.9 0  -3.55 -0.9 0  -3.5 -0.9 0  -3.45 -0.9 0  -3.4 -0.9 0  -3.35 -0.9 0  -3.3 -0.9 0  -3.25 -0.9 0  -3.2 -0.9 0  -3.15 -0.9 0  -3.1 -0.9 0  -3.05 -0.9 0  -3 -0.9 0  -2.95 -0.9 0  -2.9 -0.9 0  -2.85 -0.9 0  -2.8 -0.9 0  -2.75 -0.9 0  -2.7 -0.9 0  -2.65 -0.9 0  -2.6 -0.9 0  -2.55 -0.9 0  -2.5 -0.9 0  -2.45 -0.9 0  -2.4 -0.9 0  -2.35 -0.9 0  -2.3 -0.9 0  -2.25 -0.9 0  -2.2 -0.9 0  -2.15 -0.9 0  -2.1 -0.9 0  -2.05 -0.9 0  -2 -0.9 0  -1.95 -0.9 0  -1.9 -0.9 0  -1.85 -0.9 0  -1.8 -0.9 0  -1.75 -0.9 0  -1.7 -0.9 0  -1.65 -0.9 0  -1.6 -0.9 0  -1.55 -0.9 0  -1.5 -0.9 0  -1.45 -0.9 0  -1.4 -0.9 0  -1.35 -0.9 0  -1.3 -0.9 0  -1.25 -0.9 0  -1.2 -0.9 0  -1.15 -0.9 0  -1.1 -0.9 0  -1.05 -0.9 0  -1 -0.9 0  -0.9500000000000002 -0.9 0  -0.9000000000000004 -0.9 0  -0.8499999999999996 -0.9 0  -0.7999999999999998 -0.9 0  -0.75 -0.9 0  -0.7000000000000002 -0.9 0  -0.6500000000000004 -0.9 0  -0.5999999999999996 -0.9 0  -0.5499999999999998 -0.9 0  -0.5 -0.9 0  -0.4500000000000002 -0.9 0  -0.4000000000000004 -0.9 0  -0.3499999999999996 -0.9 0  -0.2999999999999998 -0.9 0  -0.25 -0.9 0  -0.2000000000000002 -0.9 0  -0.1500000000000004 -0.9 0  -0.09999999999999964 -0.9 0  -0.04999999999999982 -0.9 0  0 -0.9 0  0.04999999999999982 -0.9 0  0.09999999999999964 -0.9 0  0.1500000000000004 -0.9 0  0.2000000000000002 -0.9 0  0.25 -0.9 0  0.2999999999999998 -0.9 0  0.3499999999999996 -0.9 0  0.4000000000000004 -0.9 0  0.4500000000000002 -0.9 0  0.5 -0.9 0  0.5499999999999998 -0.9 0  0.5999999999999996 -0.9 0  0.6500000000000004 -0.9 0  0.7000000000000002 -0.9 0  0.75 -0.9 0  0.7999999999999998 -0.9 0  0.8499999999999996 -0.9 0  0.9000000000000004 -0.9 0  0.9500000000000002 -0.9 0  1 -0.9 0  1.05 -0.9 0  1.1 -0.9 0  1.15 -0.9 0  1.2 -0.9 0  1.25 -0.9 0  1.3 -0.9 0  1.35 -0.9 0  1.4 -0.9 0  1.45 -0.9 0  1.5 -0.9 0  1.55 -0.9 0  1.6 -0.9 0  1.65 -0.9 0  1.7 -0.9 0  1.75 -0.9 0  1.8 -0.9 0  1.85 -0.9 0  1.9 -0.9 0  1.95 -0.9 0  2 -0.9 0  2.05 -0.9 0  2.1 -0.9 0  2.15 -0.9 0  2.2 -0.9 0  2.25 -0.9 0  2.3 -0.9 0  2.35 -0.9 0  2.4 -0.9 0  2.45 -0.9 0  2.5 -0.9 0  2.55 -0.9 0  2.6 -0.9 0  2.65 -0.9 0  2.7 -0.9 0  2.75 -0.9 0  2.8 -0.9 0  2.85 -0.9 0  2.9 -0.9 0  2.95 -0.9 0  3 -0.9 0  3.050000000000001 -0.9 0  3.1 -0.9 0  3.15 -0.9 0  3.199999999999999 -0.9 0  3.25 -0.9 0  3.300000000000001 -0.9 0  3.35 -0.9 0  3.4 -0.9 0  3.449999999999999 -0.9 0  3.5 -0.9 0  3.550000000000001 -0.9 0  3.6 -0.9 0  3.65 -0.9 0  3.699999999999999 -0.9 0  3.75 -0.9 0  3.800000000000001 -0.9 0  3.85 -0.9 0  3.9 -0.9 0  3.949999999999999 -0.9 0  4 -0.9 0  4.050000000000001 -0.9 0  4.1 -0.9 0  4.15 -0.9 0  4.199999999999999 -0.9 0  4.25 -0.9 0  4.300000000000001 -0.9 0  4.35 -0.9 0  4.4 -0.9 0  4.449999999999999 -0.9 0  4.5 -0.9 0  4.550000000000001 -0.9 0  4.6 -0.9 0  4.65 -0.9 0  4.699999999999999 -0.9 0  4.75 -0.9 0  4.800000000000001 -0.9 0  4.85 -0.9 0  4.9 -0.9 0  4.949999999999999 -0.9 0  5 -0.9 0  -5 -0.85 0  -4.95 -0.85 0  -4.9 -0.85 0  -4.85 -0.85 0  -4.8 -0.85 0  -4.75 -0.85 0  -4.7 -0.85 0  -4.65 -0.85 0  -4.6 -0.85 0  -4.55 -0.85 0  -4.5 -0.85 0  -
[...]
<PointData  Vectors="f_15"> 
<DataArray  type="Float64"  Name="f_15"  NumberOfComponents="3" format="ascii">5.4991524852776452e+00 0.0000000000000000e+00 0.0000000000000000e+00  5.5056412357988318e+00 8.0874412191389217e-02 0.0000000000000000e+00  5.4994906335403977e+00 1.4341957295752866e-01 0.0000000000000000e+00  5.5051089716757131e+00 2.3164308133091055e-01 0.0000000000000000e+00  5.4981467435792881e+00 2.9188863290679057e-01 0.0000000000000000e+00  5.5046379674721351e+00 3.8117682355255256e-01 0.0000000000000000e+00  5.4962538178974105e+00 4.4046235999613409e-01 0.0000000000000000e+00  5.5037054620141976e+00 5.3013828652980755e-01 0.0000000000000000e+00  5.4935319291818638e+00 5.9035388238117137e-01 0.0000000000000000e+00  5.5025177092115287e+00 6.7823385515935619e-01 0.0000000000000000e+00  5.4904180805422822e+00 7.3778824394124709e-01 0.0000000000000000e+00  5.5003799803316378e+00 8.3207271545589434e-01 0.0000000000000000e+00  5.4870324030979232e+00 8.8023007201600201e-01 0.0000000000000000e+00  5.4980172861374896e+00 9.8303051019395349e-01 0.0000000000000000e+00  5.4825018497734925e+00 1.0342712242968608e+00 0.0000000000000000e+00  5.4953718948393764e+00 1.1216325044883351e+00 0.0000000000000000e+00  5.4779488626362003e+00 1.1890963946530864e+00 0.0000000000000000e+00  5.4912507038739768e+00 1.2720770658527842e+00 0.0000000000000000e+00  5.4733277904985247e+00 1.3302704873149114e+00 0.0000000000000000e+00  5.4869672167764039e+00 1.4249485221578431e+00 0.0000000000000000e+00  5.4673497522404704e+00 1.4784977093618132e+00 0.0000000000000000e+00  5.4823346533187207e+00 1.5711751593942200e+00 0.0000000000000000e+00  5.4615994819887330e+00 1.6263858643862557e+00 0.0000000000000000e+00  5.4758369353666865e+00 1.7190265380666108e+00 0.0000000000000000e+00  5.4558881955096945e+00 1.7748340635323552e+00 0.0000000000000000e+00  5.4693035867223756e+00 1.8654524449880669e+00 0.0000000000000000e+00  5.4484367776315752e+00 1.9209375513089699e+00 0.0000000000000000e+00  5.4624719696407107e+00 2.0139112401468076e+00 0.0000000000000000e+00  5.4414998535914911e+00 2.0681423367673317e+00 0.0000000000000000e+00  5.4532321607400496e+00 2.1582620297643222e+00 0.0000000000000000e+00  5.4346116976556180e+00 2.2160152072654569e+00 0.0000000000000000e+00  5.4443853308448569e+00 2.3047765315388999e+00 0.0000000000000000e+00  5.4253570372809685e+00 2.3604208843643213e+00 0.0000000000000000e+00  5.4352213824502558e+00 2.4514094359432130e+00 0.0000000000000000e+00  5.4169533967475116e+00 2.5062829227067298e+00 0.0000000000000000e+00  5.4232601346428817e+00 2.5946397291171692e+00 0.0000000000000000e+00  5.4082939475076284e+00 2.6528725779161508e+00 0.0000000000000000e+00  5.4121942692324936e+00 2.7390751519421972e+00 0.0000000000000000e+00  5.3967551134721683e+00 2.7958326410632393e+00 0.0000000000000000e+00  5.4006141762264930e+00 2.8831725277211482e+00 0.0000000000000000e+00  5.3863906886267738e+00 2.9417207421265146e+00 0.0000000000000000e+00  5.3859389572904934e+00 3.0224116731330017e+00 0.0000000000000000e+00  5.3753106014917558e+00 3.0873977729189259e+00 0.0000000000000000e+00  5.3726376010917374e+00 3.1644936100661285e+00 0.0000000000000000e+00  5.3609852237634232e+00 3.2280153641494529e+00 0.0000000000000000e+00  5.3583954625412265e+00 3.3064204729798616e+00 0.0000000000000000e+00  5.3481503732740734e+00 3.3713173857020200e+00 0.0000000000000000e+00  5.3409022550269887e+00 3.4433348793969336e+00 0.0000000000000000e+00  5.3339607218788290e+00 3.5136722641814115e+00 0.0000000000000000e+00  5.3252039857036699e+00 3.5837479577630567e+00 0.0000000000000000e+00  5.3162809038964127e+00 3.6502510449353096e+00 0.0000000000000000e+00  5.3080194812450445e+00 3.7233826656407252e+00 0.0000000000000000e+00  5.3003395055420874e+00 3.7898559455858831e+00 0.0000000000000000e+00  5.2874697252212632e+00 3.8577277182111738e+00 0.0000000000000000e+00  5.2824191639853559e+00 3.9276674658556483e+00 0.0000000000000000e+00  5.2689604781227617e+00 3.9957206207726865e+00 0.0000000000000000e+00  5.2608398903251450e+00 4.0598520621967564e+00 0.0000000000000000e+00  5.2484577501608083e+00 4.1313471313698917e+00 0.0000000000000000e+00  5.2410951908629739e+00 4.1961562117315045e+00 0.0000000000000000e+00  5.2244298518290746e+00 4.2607097921001964e+00 0.0000000000000000e+00  5.2189948735388008e+00 4.3302494084683891e+00 0.0000000000000000e+00  5.2023674094903107e+00 4.3938225007780574e+00 0.0000000000000000e+00  5.1931070995879089e+00 4.4578868827692251e+00 0.0000000000000000e+00  5.1780618484509322e+00 4.5250202358831819e+00 0.0000000000000000e+00  5.1687955784912347e+00 4.5883587247244852e+00 0.0000000000000000e+00  5.1502125224806621e+00 4.6502472995241195e+00 0.0000000000000000e+00  5.1418612978718956e+00 4.7163985494116210e+00 0.0000000000000000e+00  5.1241261194919963e+00 4.7785476231356583e+00 0.0000000000000000e+00  5.1109930216821118e+00 4.8372502487888278e+00 0.0000000000000000e+00  5.0957374514435356e+00 4.9060711590724315e+00 0.0000000000000000e+00  5.0813500382942793e+00 4.9592853998438873e+00 0.0000000000000000e+00  5.0637693208671788e+00 5.0268621267497862e+00 0.0000000000000000e+00  5.0490654967308055e+00 5.0812829008605442e+00 0.0000000000000000e+00  5.0331744015005171e+00 5.1471202208845224e+00 0.0000000000000000e+00  5.0129414105122665e+00 5.1972821273146330e+00 0.0000000000000000e+00  5.0001845111084728e+00 5.2678222248897555e+00 0.0000000000000000e+00  4.9779453026729152e+00 5.3112240164362827e+00 0.0000000000000000e+00  4.9633394697193030e+00 5.3829993115217105e+00 0.0000000000000000e+00  4.9407628335202869e+00 5.4271418278583257e+00 0.0000000000000000e+00  4.9274110871118912e+00 5.4927700846654526e+00 0.0000000000000000e+00  4.8997132480474734e+00 5.5402828423153148e+00 0.0000000000000000e+00  4.8893410070970109e+00 5.6047034016062591e+00 0.0000000000000000e+00  4.8597380816755456e+00 5.6448448765105850e+00 0.0000000000000000e+00  4.8470744445550711e+00 5.7172835393798112e+00 0.0000000000000000e+00  4.8181076391021804e+00 5.7515755182498349e+00 0.0000000000000000e+00  4.8058343309969214e+00 5.8163162449408938e+00 0.0000000000000000e+00  4.7721739047928251e+00 5.8670417006648430e+00 0.0000000000000000e+00  4.7631780366725129e+00 5.9110012933252944e+00 0.0000000000000000e+00  4.7277357143563767e+00 5.9701734283243404e+00 0.0000000000000000e+00  4.7155684563156317e+00 6.0195841907635295e+00 0.0000000000000000e+00  4.6824562857978487e+00 6.0611563874798451e+00 0.0000000000000000e+00  4.6700917328992269e+00 6.1216154909205143e+00 0.0000000000000000e+00  4.6322536771040879e+00 6.1653410648393150e+00 0.0000000000000000e+00  4.6242496760806793e+00 6.2049644676457900e+00 0.0000000000000000e+00  4.5822225024904215e+00 6.2781635539458938e+00 0.0000000000000000e+00  4.5736997695792052e+00 6.2896180682204221e+00 0.0000000000000000e+00  4.5363692264811659e+00 6.3724243345070688e+00 0.0000000000000000e+00  4.5232976073012212e+00 6.3862629526000747e+00 0.0000000000000000e+00  4.4831622442065839e+00 6.4609774202294270e+00 0.0000000000000000e+00  4.4717673048577904e+00 6.4876202108738319e+00 0.0000000000000000e+00  4.4359961393422882e+00 6.5405015864777800e+00 0.0000000000000000e+00  4.4241541683453196e+00 6.5744397793609286e+00 0.0000000000000000e+00  4.3816127820685811e+00 6.6361333872137864e+00 0.0000000000000000e+00  4.3696267948648000e+00 6.6609156063990067e+00 0.0000000000000000e+00  4.3282514202686855e+00 6.7382976216444934e+00 0.0000000000000000e+00  4.3163628195165638e+00 6.7340718977761611e+00 0.0000000000000000e+00  4.2786475848605230e+00 6.8369092530041664e+00 0.0000000000000000e+00  4.2604219810214516e+00 6.8197308478611820e+00 0.0000000000000000e+00  4.2296841150347708e+00 6.9105089442706538e+00 0.0000000000000000e+00  4.2039647985463997e+00 6.9309439179511942e+00 0.0000000000000000e+00  4.1771259507697884e+00 6.9721608091019442e+00 0.0000000000000000e+00  4.1519474986646321e+00 7.0326378513349068e+00 0.0000000000000000e+00  4.1269318074625474e+00 7.0476877359756758e+00 0.0000000000000000e+00  4.0965701944234194e+00 7.1173422545680669e+00 0.0000000000000000e+00  4.0746587879320355e+00 7.1390150734800075e+00 0.0000000000000000e+00  4.0446512844479354e+00 7.1940380316786019e+00 0.0000000000000000e+00  4.0225292406416058e+00 7.2268331623080941e+00 0.0000000000000000e+00  3.9918596605169370e+00 7.2747948900128101e+00 0.0000000000000000e+00  3.9747685085244053e+00 7.3061763820934571e+00 0.0000000000000000e+00  3.9405661357821855e+00 7.3562867554338283e+00 0.0000000000000000e+00  3.9255339012314194e+00 7.3846599736913534e+00 0.0000000000000000e+00  3.8907705412899540e+00 7.4372962671756069e+00 0.0000000000000000e+00  3.8759692348281498e+00 7.4636587155535334e+00 0.0000000000000000e+00  3.8487342935745650e+00 7.5041892173050266e+00 0.0000000000000000e+00  3.8257911961631699e+00 7.5446690601773536e+00 0.0000000000000000e+00  3.8118960534754196e+00 7.5629171554466090e+00 0.0000000000000000e+00  3.8599945585367101e+00 7.4915446759900206e+00 0.0000000000000000e+00  3.9081795667256789e+00 7.4102718845266278e+00 0.0000000000000000e+00  3.9296718586264920e+00 7.3800212194128942e+00 0.0000000000000000e+00  3.9416803794925048e+00 7.3558095938174919e+00 0.0000000000000000e+00  3.9428906690969283e+00 7.3618960288080109e+00 0.0000000000000000e+00  3.9499345134685013e+00 7.3425096293514578e+00 0.0000000000000000e+00  3.9465197241501113e+00 7.3550640793413491e+00 0.0000000000000000e+00  3.9585044329290935e+00 7.3317780240157377e+00 0.0000000000000000e+00  3.9440994387266035e+00 7.3570302671808943e+00 0.0000000000000000e+00  3.9643975406419965e+00 7.3228342553777770e+00 0.0000000000000000e+00  3.9441489566334420e+00 7.3573131510621055e+00 0.0000000000000000e+00  3.9661525039075740e+00 7.3205333676596229e+00 0.0000000000000000e+00  3.9457566046190222e+00 7.3535435658849231e+00 0.0000000000000000e+00  3.9681693419717274e+00 7.3195192065601020e+00 0.0000000000000000e+00  3.9464144609232199e+00 7.3519260186949387e+00 0.0000000000000000e+00  3.9684320536065947e+00 7.3185665456097375e+00 0.0000000000000000e+00  3.9492351141596509e+00 7.3492520738787324e+00 0.0000000000000000e+00  3.9662266181403667e+00 7.3212846145328170e+00 0.0000000000000000e+00  3.9520401891368255e+00 7.3447985335560855e+00 0.0000000000000000e+00  3.9663748132061616e+00 7.3223354736912469e+00 0.0000000000000000e+00  3.9518992395627439e+00 7.3453539504109333e+00 0.0000000000000000e+00  3.9670871229982558e+00 7.3192432095619582e+00 0.0000000000000000e+00  3.9530350001258130e+00 7.3482042880060661e+00 0.0000000000000000e+00  3.9654097208860173e+00 7.3164545123010836e+00 0.0000000000000000e+00  3.9561822638590947e+00 7.3502792949063798e+00 0.0000000000000000e+00  3.9627334711400808e+00 7.3130335755212279e+00 0.0000000000000000e+00  3.9594046042166324e+00 7.3546131566239721e+00 0.0000000000000000e+00  3.9595990993817471e+00 7.3082558805582183e+00 0.0000000000000000e+00  3.9645992160209960e+00 7.3585719067932187e+00 0.0000000000000000e+00  3.9533555206587931e+00 7.3012494015992164e+00 0.0000000000000000e+00  3.9748110840003332e+00 7.3705280748739517e+00 0.0000000000000000e+00  3.9383936425500843e+00 7.2841347483685777e+00 0.0000000000000000e+00  3.9849836846543414e+00 7.3932483532762019e+00 0.0000000000000000e+00  3.9255104745772664e+00 7.2787399816132341e+00 0.0000000000000000e+00  3.9718554226502705e+00 7.3880462343663282e+00 0.0000000000000000e+00  3.9453918734204070e+00 7.3196906253649603e+00 0.0000000000000000e+00  3.9174757254653367e+00 7.3322484572056279e+00 0.0000000000000000e+00  4.0156869731909746e+00 7.4032470397591181e+00 0.0000000000000000e+00  3.8380709487256195e+00 7.1978994374834633e+00 0.0000000000000000e+00  4.0642524040374344e+00 7.6102435738054863e+00 0.0000000000000000e+00  4.1766193776880680e+00 6.4837734431674372e+00 0.0000000000000000e+00  8.7843556009044015e+00 6.6571169272785857e-01 0.0000000000000000e+00  9.5399969188053202e+00 7.2785860422296983e-02 0.0000000000000000e+00  9.4389576324952547e+00 -1.5749592320285916e-03 0.0000000000000000e+00  9.4711229001484902e+00 -1.4188542675639400e-02 0.0000000000000000e+00  9.4847017090014507e+00 -7.6442356029138656e-03 0.0000000000000000e+00  9.4929939385958750e+00 -3.6445635906004609e-02 0.0000000000000000e+00  9.5032323558286649e+00 -4.5815360857229863e-02 0.0000000000000000e+00  9.4914116174216510e+00 -2.9610522332833487e-02 0.0000000000000000e+00  9.4895498985069544e+00 -3.5891700477225036e-02 0.0000000000000000e+00  9.4969661247983232e+00 -3.9256445789705753e-02 0.0000000000000000e+00  9.4976957561115594e+00 -4.6814305423711629e-02 0.0000000000000000e+00  9.4925594592905416e+00 -3.9656986341874964e-02 0.0000000000000000e+00  9.4966623450644789e+00 -5.3102628925526356e-02 0.0000000000000000e+00  9.4941771866697149e+00 -4.6529379268002227e-02 0.0000000000000000e+00  9.4966990973243171e+00 -6.1799099041066709e-02 0.0000000000000000e+00  9.4957529051903453e+00 -5.4308899424551672e-02 0.0000000000000000e+00  9.4952056292793223e+00 -6.5990077386323759e-02 0.0000000000000000e+00  9.4959729540323110e+00 -5.8749512659900562e-02 0.0000000000000000e+00  9.4968848757029090e+00 -7.8078792684932438e-02 0.0000000000000000e+00  9.4949620470790208e+00 -7.4568096836130887e-02 0.0000000000000000e+00  9.4971342833913361e+00 -9.6813599632647990e-02 0.0000000000000000e+00  9.4959214159034762e+00 -9.5316081580593473e-02 0.0000000000000000e+00  9.4960737182537098e+00 -1.1540808609986762e-01 0.0000000000000000e+00  9.4969115358249532e+00 -1.0840099184946342e-01 0.0000000000000000e+00  9.4961285761669814e+00 -1.2568285098751220e-01 0.0000000000000000e+00  9.4963921183434792e+00 -1.0635667342916820e-01 0.0000000000000000e+00  9.4968708046988493e+00 -1.1273445122093162e-01 0.0000000000000000e+00  9.4965588924953845e+00 -1.0072435005231208e-01 0.0000000000000000e+00  9.4963506972800467e+00 -9.4369951730866125e-02 0.0000000000000000e+00  9.4972262739266107e+00 -9.4036552713156141e-02 0.0000000000000000e+00  9.4961230250559865e+00 -7.3508312935473816e-02 0.0000000000000000e+00  9.4970433529797127e+00 -1.0852407368280735e-01 0.0000000000000000e+00  9.4963345745132717e+00 -2.8062324428794468e-02 0.0000000000000000e+00  9.4973053541015595e+00 0.0000000000000000e+00 0.0000000000000000e+00  5.5003382863469135e+00 0.0000000000000000e+00 -9.2700034200376578e-04  5.5029946355343382e+00 7.2014094604563997e-02 -1.1863351810191549e-03  5.5004059452640268e+00 1.5001992941162379e-01 2.6460282960169201e-03  5.5015607715254164e+00 2.2221096488578798e-01 -2.5695398808029857e-03  5.5000535922681300e+00 2.9828593768459966e-01 2.5082927052977764e-03  5.5004394824855085e+00 3.7184902969881073e-01 -2.5105314649780438e-03  5.4987807649390712e+00 4.4733465952886559e-01 2.7623477635090946e-03  5.4988560478398476e+00 5.2139316593472673e-01 -3.0440746796467489e-03  5.4971684620546348e+00 5.9626294399360324e-01 3.0141329200495700e-03  5.4968325338986075e+00 6.6986405663367499e-01 -2.3254847080037928e-03  5.4947140177828677e+00 7.4750820939137042e-01 1.0810292574733986e-03  5.4944437376520332e+00 8.1633423579469200e-01 4.0085845270996454e-04  5.4920498186090443e+00 8.9632159685820878e-01 -1.8548231333539611e-03  5.4908746004048741e+00 9.7047046384854607e-01 3.5781342914342276e-03  5.4891816275212433e+00 1.0361262930271469e+00 -5.7093000232623439e-03  5.4871651738129881e+00 1.1262488871132004e+00 7.4797477617179692e-03  5.4848647112213280e+00 1.1846271833489905e+00 -7.2977262225331898e-03  5.4835002061295253e+00 1.2684815495085360e+00 4.6613840897790915e-03  5.4802339544306946e+00 1.3399205799667508e+00 -1.1306524011978241e-03  5.4784676239620884e+00 1.4139131814595580e+00 -8.6512555512492152e-04  5.4755023434568688e+00 1.4873730870811999e+00 7.2127495355303356e-04  5.4732794529411972e+00 1.5628837641944706e+00 2.9906444254787334e-05  5.4692490865014616e+00 1.6352519374964252e+00 1.1101539130738016e-04  5.4679328699087462e+00 1.7105962880188830e+00 -8.9188820962802682e-04  5.4630457738483615e+00 1.7827639949108138e+00 1.4721027672624260e-03  5.4607773250760623e+00 1.8568345685124816e+00 -1.7285581795723442e-03  5.4567156913373305e+00 1.9320646447558307e+00 2.1618014291614959e-03  5.4538554269532211e+00 2.0029272126869428e+00 -2.6709471109739352e-03  5.4482884458148551e+00 2.0778404049490309e+00 2.9142293280851918e-03  5.4467815692881736e+00 2.1506462979494838e+00 -2.9062480993774283e-03  5.4403475850105751e+00 2.2249847910207445e+00 2.9608983556188026e-03  5.4372706133578372e+00 2.2947453885601763e+00 -3.0117671720418897e-03  5.4322748558965994e+00 2.3722294915960043e+00 2.8897464478955899e-03  5.4283700931460288e+00 2.4408639014005664e+00 -2.6476600154869928e-03  5.4216124288707395e+00 2.5158964233618102e+00 2.4631879857680934e-03  5.4191589678444787e+00 2.5874353891069832e+00 -2.2520902472822628e-03  5.4118322940893560e+00 2.6607308746319602e+00 1.9353497450177461e-03  5.4070821398820454e+00 2.7305782718530613e+00 -1.5911614020833616e-03  5.4016549031155954e+00 2.8057134296042960e+00 1.3084922079889909e-03  5.3960415147447760e+00 2.8757544737295411e+00 -9.9503232141313837e-04  5.3884808292883903e+00 2.9463299672298215e+00 5.9589717239695898e-04  5.3843456560841094e+00 3.0208022611432983e+00 -1.5912886709135932e-04  5.3766119507734338e+00 3.0895556682771907e+00 -2.9281653005503133e-04  5.3694388004254519e+00 3.1611125435113694e+00 7.7351119899179261e-04  5.3639135770563300e+00 3.2324056467183238e+00 -1.2741915413918600e-03  5.3559447500010178e+00 3.3042135091647138e+00 1.7738458961559964e-03  5.3479822630909126e+00 3.3701258770611608e+00 -2.2978962587019498e-03  5.3412460431545750e+00 3.4468503707907332e+00 2.8467449386443229e-03  5.3337191602312730e+00 3.5107714117883262e+00 -3.3732589442053507e-03  5.3231634552855116e+00 3.5841607109536797e+00 3.8169676581620311e-03  5.3179839665901616e+00 3.6505194140075403e+00 -4.1650514319759649e-03  5.3068893576739997e+00 3.7245739353641807e+00 4.4198449645520528e-03  5.2987618957126505e+00 3.7849090302023840e+00 -4.5885736259190946e-03  5.2889068096456375e+00 3.8634753089558305e+00 4.6582790294847163e-03  5.2813578476260412e+00 3.9228315163262248e+00 -4.5823226683201551e-03  5.2674961009000585e+00 3.9965498291674599e+00 4.3275757180404918e-03  5.2618281078901861e+00 4.0590984356644801e+00 -3.9206947010909550e-03  5.2481236046927613e+00 4.1329844310672028e+00 3.4234792538068207e-03  5.2386083175416740e+00 4.1898134844600721e+00 -2.8981321644015461e-03  5.2266032506165176e+00 4.2668411888652074e+00 2.3734656228133794e-03  5.2172517095229534e+00 4.3244893912229196e+00 -1.8813055685755070e-03  5.2014251502885749e+00 4.3944235770134741e+00 1.4316905583814567e-03  5.1935653612068862e+00 4.4568662024530843e+00 -1.0386465899717642e-03  5.1780207769595661e+00 4.5254327663705984e+00 6.4600090972004949e-04  5.1661435537974887e+00 4.5829934749748498e+00 -2.2031011138064273e-04  5.1522439910427149e+00 4.6541125648877726e+00 -2.6643577092508932e-04  5.1402998634375683e+00 4.7121823768950710e+00 7.3822138870447600e-04  5.1227457193213004e+00 4.7761892383724591e+00 -1.1489511093565137e-03  5.1119859103480119e+00 4.8396254712973041e+00 1.4613443429128549e-03  5.0947130346431093e+00 4.9004530638108568e+00 -1.7729736048452567e-03  5.0798262832262910e+00 4.9602917887529783e+00 2.1653508349367763e-03  5.0643610048819179e+00 5.0237883981766380e+00 -2.7083125619746704e-03  5.0487311436085118e+00 5.0818974948741777e+00 3.3093180239217829e-03  5.0304289843900101e+00 5.1403913430875079e+00 -3.8566331230491455e-03  5.0150863092559419e+00 5.2036891801220433e+00 4.2365479376019529e-03  4.9975913039369422e+00 5.2560174802314501e+00 -4.4820094169711784e-03  4.9776812060540552e+00 5.3196667966885345e+00 4.7118312307912746e-03  4.9624515487037177e+00 5.3725288253355021e+00 -5.0178656411640279e-03  4.9411377603889575e+00 5.4325174009192176e+00 5.3401134358932586e-03  4.9235539772436647e+00 5.4847597908594388e+00 -5.5064926864943674e-03  4.9025638713455191e+00 5.5467145637914328e+00 5.3663046864070802e-03  4.8853796483092253e+00 5.5911967152253350e+00 -4.9789530307961958e-03  4.8602772