<?xml version="1.0"?>
<VTKFile type="UnstructuredGrid"  version="0.1"  >
<UnstructuredGrid>
<Piece  NumberOfPoints="8241" NumberOfCells="16000">
<Points>
<DataArray  type="Float64"  NumberOfComponents="3"  format="ascii">-5 -1 0  -4.95 -1 0  -4.9 -1 0  -4.85 -1 0  -4.8 -1 0  -4.75 -1 0  -4.7 -1 0  -4.65 -1 0  -4.6 -1 0  -4.55 -1 0  -4.5 -1 0  -4.45 -1 0  -4.4 -1 0  -4.35 -1 0  -4.3 -1 0  -4.25 -1 0  -4.2 -1 0  -4.15 -1 0  -4.1 -1 0  -4.05 -1 0  -4 -1 0  -3.95 -1 0  -3.9 -1 0  -3.85 -1 0  -3.8 -1 0  -3.75 -1 0  -3.7 -1 0  -3.65 -1 0  -3.6 -1 0  -3.55 -1 0  -3.5 -1 0  -3.45 -1 0  -3.4 -1 0  -3.35 -1 0  -3.3 -1 0  -3.25 -1 0  -3.2 -1 0  -3.15 -1 0  -3.1 -1 0  -3.05 -1 0  -3 -1 0  -2.95 -1 0  -2.9 -1 0  -2.85 -1 0  -2.8 -1 0  -2.75 -1 0  -2.7 -1 0  -2.65 -1 0  -2.6 -1 0  -2.55 -1 0  -2.5 -1 0  -2.45 -1 0  -2.4 -1 0  -2.35 -1 0  -2.3 -1 0  -2.25 -1 0  -2.2 -1 0  -2.15 -1 0  -2.1 -1 0  -2.05 -1 0  -2 -1 0  -1.95 -1 0  -1.9 -1 0  -1.85 -1 0  -1.8 -1 0  -1.75 -1 0  -1.7 -1 0  -1.65 -1 0  -1.6 -1 0  -1.55 -1 0  -1.5 -1 0  -1.45 -1 0  -1.4 -1 0  -1.35 -1 0  -1.3 -1 0  -1.25 -1 0  -1.2 -1 0  -1.15 -1 0  -1.1 -1 0  -1.05 -1 0  -1 -1 0  -0.9500000000000002 -1 0  -0.9000000000000004 -1 0  -0.8499999999999996 -1 0  -0.7999999999999998 -1 0  -0.75 -1 0  -0.7000000000000002 -1 0  -0.6500000000000004 -1 0  -0.5999999999999996 -1 0  -0.5499999999999998 -1 0  -0.5 -1 0  -0.4500000000000002 -1 0  -0.4000000000000004 -1 0  -0.3499999999999996 -1 0  -0.2999999999999998 -1 0  -0.25 -1 0  -0.2000000000000002 -1 0  -0.1500000000000004 -1 0  -0.09999999999999964 -1 0  -0.04999999999999982 -1 0  0 -1 0  0.04999999999999982 -1 0  0.09999999999999964 -1 0  0.1500000000000004 -1 0  0.2000000000000002 -1 0  0.25 -1 0  0.2999999999999998 -1 0  0.3499999999999996 -1 0  0.4000000000000004 -1 0  0.4500000000000002 -1 0  0.5 -1 0  0.5499999999999998 -1 0  0.5999999999999996 -1 0  0.6500000000000004 -1 0  0.7000000000000002 -1 0  0.75 -1 0  0.7999999999999998 -1 0  0.8499999999999996 -1 0  0.9000000000000004 -1 0  0.9500000000000002 -1 0  1 -1 0  1.05 -1 0  1.1 -1 0  1.15 -1 0  1.2 -1 0  1.25 -1 0  1.3 -1 0  1.35 -1 0  1.4 -1 0  1.45 -1 0  1.5 -1 0  1.55 -1 0  1.6 -1 0  1.65 -1 0  1.7 -1 0  1.75 -1 0  1.8 -1 0  1.85 -1 0  1.9 -1 0  1.95 -1 0  2 -1 0  2.05 -1 0  2.1 -1 0  2.15 -1 0  2.2 -1 0  2.25 -1 0  2.3 -1 0  2.35 -1 0  2.4 -1 0  2.45 -1 0  2.5 -1 0  2.55 -1 0  2.6 -1 0  2.65 -1 0  2.7 -1 0  2.75 -1 0  2.8 -1 0  2.85 -1 0  2.9 -1 0  2.95 -1 0  3 -1 0  3.050000000000001 -1 0  3.1 -1 0  3.15 -1 0  3.199999999999999 -1 0  3.25 -1 0  3.300000000000001 -1 0  3.35 -1 0  3.4 -1 0  3.449999999999999 -1 0  3.5 -1 0  3.550000000000001 -1 0  3.6 -1 0  3.65 -1 0  3.699999999999999 -1 0  3.75 -1 0  3.800000000000001 -1 0  3.85 -1 0  3.9 -1 0  3.949999999999999 -1 0  4 -1 0  4.050000000000001 -1 0  4.1 -1 0  4.15 -1 0  4.199999999999999 -1 0  4.25 -1 0  4.300000000000001 -1 0  4.35 -1 0  4.4 -1 0  4.449999999999999 -1 0  4.5 -1 0  4.550000000000001 -1 0  4.6 -1 0  4.65 -1 0  4.699999999999999 -1 0  4.75 -1 0  4.800000000000001 -1 0  4.85 -1 0  4.9 -1 0  4.949999999999999 -1 0  5 -1 0  -5 -0.95 0  -4.95 -0.95 0  -4.9 -0.95 0  -4.85 -0.95 0  -4.8 -0.95 0  -4.75 -0.95 0  -4.7 -0.95 0  -4.65 -0.95 0  -4.6 -0.95 0  -4.55 -0.95 0  -4.5 -0.95 0  -4.45 -0.95 0  -4.4 -0.95 0  -4.35 -0.95 0  -4.3 -0.95 0  -4.25 -0.95 0  -4.2 -0.95 0  -4.15 -0.95 0  -4.1 -0.95 0  -4.05 -0.95 0  -4 -0.95 0  -3.95 -0.95 0  -3.9 -0.95 0  -3.85 -0.95 0  -3.8 -0.95 0  -3.75 -0.95 0  -3.7 -0.95 0  -3.65 -0.95 0  -3.6 -0.95 0  -3.55 -0.95 0  -3.5 -0.95 0  -3.45 -0.95 0  -3.4 -0.95 0  -3.35 -0.95 0  -3.3 -0.95 0  -3.25 -0.95 0  -3.2 -0.95 0  -3.15 -0.95 0  -3.1 -0.95 0  -3.05 -0.95 0  -3 -0.95 0  -2.95 -0.95 0  -2.9 -0.95 0  -2.85 -0.95 0  -2.8 -0.95 0  -2.75 -0.95 0  -2.7 -0.95 0  -2.65 -0.95 0  -2.6 -0.95 0  -2.55 -0.95 0  -2.5 -0.95 0  -2.45 -0.95 0  -2.4 -0.95 0  -2.35 -0.95 0  -2.3 -0.95 0  -2.25 -0.95 0  -2.2 -0.95 0  -2.15 -0.95 0  -2.1 -0.95 0  -2.05 -0.95 0  -2 -0.95 0  -1.95 -0.95 0  -1.9 -0.95 0  -1.85 -0.95 0  -1.8 -0.95 0  -1.75 -0.95 0  -1.7 -0.95 0  -1.65 -0.95 0  -1.6 -0.95 0  -1.55 -0.95 0  -1.5 -0.95 0  -1.45 -0.95 0  -1.4 -0.95 0  -1.35 -0.95 0  -1.3 -0.95 0  -1.25 -0.95 0  -1.2 -0.95 0  -1.15 -0.95 0  -1.1 -0.95 0  -1.05 -0.95 0  -1 -0.95 0  -0.9500000000000002 -0.95 0  -0.9000000000000004 -0.95 0  -0.8499999999999996 -0.95 0  -0.7999999999999998 -0.95 0  -0.75 -0.95 0  -0.7000000000000002 -0.95 0  -0.6500000000000004 -0.95 0  -0.5999999999999996 -0.95 0  -0.5499999999999998 -0.95 0  -0.5 -0.95 0  -0.4500000000000002 -0.95 0  -0.4000000000000004 -0.95 0  -0.3499999999999996 -0.95 0  -0.2999999999999998 -0.95 0  -0.25 -0.95 0  -0.2000000000000002 -0.95 0  -0.1500000000000004 -0.95 0  -0.09999999999999964 -0.95 0  -0.04999999999999982 -0.95 0  0 -0.95 0  0.04999999999999982 -0.95 0  0.09999999999999964 -0.95 0  0.1500000000000004 -0.95 0  0.2000000000000002 -0.95 0  0.25 -0.95 0  0.2999999999999998 -0.95 0  0.3499999999999996 -0.95 0  0.4000000000000004 -0.95 0  0.4500000000000002 -0.95 0  0.5 -0.95 0  0.5499999999999998 -0.95 0  0.5999999999999996 -0.95 0  0.6500000000000004 -0.95 0  0.7000000000000002 -0.95 0  0.75 -0.95 0  0.7999999999999998 -0.95 0  0.8499999999999996 -0.95 0  0.9000000000000004 -0.95 0  0.9500000000000002 -0.95 0  1 -0.95 0  1.05 -0.95 0  1.1 -0.95 0  1.15 -0.95 0  1.2 -0.95 0  1.25 -0.95 0  1.3 -0.95 0  1.35 -0.95 0  1.4 -0.95 0  1.45 -0.95 0  1.5 -0.95 0  1.55 -0.95 0  1.6 -0.95 0  1.65 -0.95 0  1.7 -0.95 0  1.75 -0.95 0  1.8 -0.95 0  1.85 -0.95 0  1.9 -0.95 0  1.95 -0.95 0  2 -0.95 0  2.05 -0.95 0  2.1 -0.95 0  2.15 -0.95 0  2.2 -0.95 0  2.25 -0.95 0  2.3 -0.95 0  2.35 -0.95 0  2.4 -0.95 0  2.45 -0.95 0  2.5 -0.95 0  2.55 -0.95 0  2.6 -0.95 0  2.65 -0.95 0  2.7 -0.95 0  2.75 -0.95 0  2.8 -0.95 0  2.85 -0.95 0  2.9 -0.95 0  2.95 -0.95 0  3 -0.95 0  3.050000000000001 -0.95 0  3.1 -0.95 0  3.15 -0.95 0  3.199999999999999 -0.95 0  3.25 -0.95 0  3.300000000000001 -0.95 0  3.35 -0.95 0  3.4 -0.95 0  3.449999999999999 -0.95 0  3.5 -0.95 0  3.550000000000001 -0.95 0  3.6 -0.95 0  3.65 -0.95 0  3.699999999999999 -0.95 0  3.75 -0.95 0  3.800000000000001 -0.95 0  3.85 -0.95 0  3.9 -0.95 0  3.949999999999999 -0.95 0  4 -0.95 0  4.050000000000001 -0.95 0  4.1 -0.95 0  4.15 -0.95 0  4.199999999999999 -0.95 0  4.25 -0.95 0  4.300000000000001 -0.95 0  4.35 -0.95 0  4.4 -0.95 0  4.449999999999999 -0.95 0  4.5 -0.95 0  4.550000000000001 -0.95 0  4.6 -0.95 0  4.65 -0.95 0  4.699999999999999 -0.95 0  4.75 -0.95 0  4.800000000000001 -0.95 0  4.85 -0.95 0  4.9 -0.95 0  4.949999999999999 -0.95 0  5 -0.95 0  -5 -0.9 0  -4.95 -0.9 0  -4.9 -0.9 0  -4.85 -0.9 0  -4.8 -0.9 0  -4.75 -0.9 0  -4.7 -0.9 0  -4.65 -0.9 0  -4.6 -0.9 0  -4.55 -0.9 0  -4.5 -0.9 0  -4.45 -0.9 0  -4.4 -0.9 0  -4.35 -0.9 0  -4.3 -0.9 0  -4.25 -0.9 0  -4.2 -0.9 0  -4.15 -0.9 0  -4.1 -0.9 0  -4.05 -0.9 0  -4 -0.9 0  -3.95 -0.9 0  -3.9 -0.9 0  -3.85 -0.9 0  -3.8 -0.9 0  -3.75 -0.9 0  -3.7 -0.9 0  -3.65 -0.9 0  -3.6 -0.9 0  -3.55 -0.9 0  -3.5 -0.9 0  -3.45 -0.9 0  -3.4 -0.9 0  -3.35 -0.9 0  -3.3 -0.9 0  -3.25 -0.9 0  -3.2 -0.9 0  -3.15 -0.9 0  -3.1 -0.9 0  -3.05 -0.9 0  -3 -0.9 0  -2.95 -0.9 0  -2.9 -0.9 0  -2.85 -0.9 0  -2.8 -0.9 0  -2.75 -0.9 0  -2.7 -0.9 0  -2.65 -0.9 0  -2.6 -0.9 0  -2.55 -0.9 0  -2.5 -0.9 0  -2.45 -0.9 0  -2.4 -0.9 0  -2.35 -0.9 0  -2.3 -0.9 0  -2.25 -0.9 0  -2.2 -0.9 0  -2.15 -0.9 0  -2.1 -0.9 0  -2.05 -0.9 0  -2 -0.9 0  -1.95 -0.9 0  -1.9 -0.9 0  -1.85 -0.9 0  -1.8 -0.9 0  -1.75 -0.9 0  -1.7 -0.9 0  -1.65 -0.9 0  -1.6 -0.9 0  -1.55 -0.9 0  -1.5 -0.9 0  -1.45 -0.9 0  -1.4 -0.9 0  -1.35 -0.9 0  -1.3 -0.9 0  -1.25 -0.9 0  -1.2 -0.9 0  -1.15 -0.9 0  -1.1 -0.9 0  -1.05 -0.9 0  -1 -0.9 0  -0.9500000000000002 -0.9 0  -0.9000000000000004 -0.9 0  -0.8499999999999996 -0.9 0  -0.7999999999999998 -0.9 0  -0.75 -0.9 0  -0.7000000000000002 -0.9 0  -0.6500000000000004 -0.9 0  -0.5999999999999996 -0.9 0  -0.5499999999999998 -0.9 0  -0.5 -0.9 0  -0.4500000000000002 -0.9 0  -0.4000000000000004 -0.9 0  -0.3499999999999996 -0.9 0  -0.2999999999999998 -0.9 0  -0.25 -0.9 0  -0.2000000000000002 -0.9 0  -0.1500000000000004 -0.9 0  -0.09999999999999964 -0.9 0  -0.04999999999999982 -0.9 0  0 -0.9 0  0.04999999999999982 -0.9 0  0.09999999999999964 -0.9 0  0.1500000000000004 -0.9 0  0.2000000000000002 -0.9 0  0.25 -0.9 0  0.2999999999999998 -0.9 0  0.3499999999999996 -0.9 0  0.4000000000000004 -0.9 0  0.4500000000000002 -0.9 0  0.5 -0.9 0  0.5499999999999998 -0.9 0  0.5999999999999996 -0.9 0  0.6500000000000004 -0.9 0  0.7000000000000002 -0.9 0  0.75 -0.9 0  0.7999999999999998 -0.9 0  0.8499999999999996 -0.9 0  0.9000000000000004 -0.9 0  0.9500000000000002 -0.9 0  1 -0.9 0  1.05 -0.9 0  1.1 -0.9 0  1.15 -0.9 0  1.2 -0.9 0  1.25 -0.9 0  1.3 -0.9 0  1.35 -0.9 0  1.4 -0.9 0  1.45 -0.9 0  1.5 -0.9 0  1.55 -0.9 0  1.6 -0.9 0  1.65 -0.9 0  1.7 -0.9 0  1.75 -0.9 0  1.8 -0.9 0  1.85 -0.9 0  1.9 -0.9 0  1.95 -0.9 0  2 -0.9 0  2.05 -0.9 0  2.1 -0.9 0  2.15 -0.9 0  2.2 -0.9 0  2.25 -0.9 0  2.3 -0.9 0  2.35 -0.9 0  2.4 -0.9 0  2.45 -0.9 0  2.5 -0.9 0  2.55 -0.9 0  2.6 -0.9 0  2.65 -0.9 0  2.7 -0.9 0  2.75 -0.9 0  2.8 -0.9 0  2.85 -0.9 0  2.9 -0.9 0  2.95 -0.9 0  3 -0.9 0  3.050000000000001 -0.9 0  3.1 -0.9 0  3.15 -0.9 0  3.199999999999999 -0.9 0  3.25 -0.9 0  3.300000000000001 -0.9 0  3.35 -0.9 0  3.4 -0.9 0  3.449999999999999 -0.9 0  3.5 -0.9 0  3.550000000000001 -0.9 0  3.6 -0.9 0  3.65 -0.9 0  3.699999999999999 -0.9 0  3.75 -0.9 0  3.800000000000001 -0.9 0  3.85 -0.9 0  3.9 -0.9 0  3.949999999999999 -0.9 0  4 -0.9 0  4.050000000000001 -0.9 0  4.1 -0.9 0  4.15 -0.9 0  4.199999999999999 -0.9 0  4.25 -0.9 0  4.300000000000001 -0.9 0  4.35 -0.9 0  4.4 -0.9 0  4.449999999999999 -0.9 0  4.5 -0.9 0  4.550000000000001 -0.9 0  4.6 -0.9 0  4.65 -0.9 0  4.699999999999999 -0.9 0  4.75 -0.9 0  4.800000000000001 -0.9 0  4.85 -0.9 0  4.9 -0.9 0  4.949999999999999 -0.9 0  5 -0.9 0  -5 -0.85 0  -4.95 -0.85 0  -4.9 -0.85 0  -4.85 -0.85 0  -4.8 -0.85 0  -4.75 -0.85 0  -4.7 -0.85 0  -4.65 -0.85 0  -4.6 -0.85 0  -4.55 -0.85 0  -4.5 -0.85 0  -
[...]
<PointData  Vectors="f_15"> 
<DataArray  type="Float64"  Name="f_15"  NumberOfComponents="3" format="ascii">3.0000902266676190e+00 0.0000000000000000e+00 0.0000000000000000e+00  2.9999162890549544e+00 -1.2812523779123685e-04 0.0000000000000000e+00  3.0000764662635371e+00 1.4743813873214083e-04 0.0000000000000000e+00  2.9999176146767517e+00 -1.6272852012529549e-04 0.0000000000000000e+00  3.0000923747284065e+00 1.6988176382427933e-04 0.0000000000000000e+00  2.9998958040124770e+00 -1.8173752586358817e-04 0.0000000000000000e+00  3.0001171863119294e+00 1.9836037821534762e-04 0.0000000000000000e+00  2.9998679199598710e+00 -2.1896089007452928e-04 0.0000000000000000e+00  3.0001508363820353e+00 2.4187118392522420e-04 0.0000000000000000e+00  2.9998254008954968e+00 -2.6837514663506282e-04 0.0000000000000000e+00  3.0002059996081574e+00 3.0065843160033141e-04 0.0000000000000000e+00  2.9997539542040075e+00 -3.4268904302943979e-04 0.0000000000000000e+00  3.0002977824499966e+00 3.9579076450832061e-04 0.0000000000000000e+00  2.9996386946995965e+00 -4.6206327719119683e-04 0.0000000000000000e+00  3.0004406165693469e+00 5.4119352118513350e-04 0.0000000000000000e+00  2.9994635233362521e+00 -6.3865681484060399e-04 0.0000000000000000e+00  3.0006560289450204e+00 7.5865447832099934e-04 0.0000000000000000e+00  2.9992006720381470e+00 -9.1153628479117882e-04 0.0000000000000000e+00  3.0009717208029567e+00 1.0959762213265931e-03 0.0000000000000000e+00  2.9988348817796999e+00 -1.3132402906871896e-03 0.0000000000000000e+00  3.0013804830803652e+00 1.5462263929218020e-03 0.0000000000000000e+00  2.9983946759466371e+00 -1.7968616157666103e-03 0.0000000000000000e+00  3.0018449745739311e+00 2.0499971607273924e-03 0.0000000000000000e+00  2.9979147306957596e+00 -2.3244864762116866e-03 0.0000000000000000e+00  3.0023278566125153e+00 2.5908186270029816e-03 0.0000000000000000e+00  2.9974594837793829e+00 -2.8512434531665441e-03 0.0000000000000000e+00  3.0027110455886636e+00 3.0257026924775561e-03 0.0000000000000000e+00  2.9972012155426575e+00 -3.1105825509678887e-03 0.0000000000000000e+00  3.0028036356778065e+00 3.0287243795880507e-03 0.0000000000000000e+00  2.9972953452539648e+00 -2.8380587270906148e-03 0.0000000000000000e+00  3.0025172273840823e+00 2.4864427373910186e-03 0.0000000000000000e+00  2.9977812709167111e+00 -2.0380986478866895e-03 0.0000000000000000e+00  3.0018039139128110e+00 1.3760408801081186e-03 0.0000000000000000e+00  2.9987639307285074e+00 -5.1774565737290157e-04 0.0000000000000000e+00  3.0005175194270408e+00 -6.5623917098051661e-04 0.0000000000000000e+00  3.0003382085069816e+00 2.0213549632452812e-03 0.0000000000000000e+00  2.9987353765136513e+00 -3.5640814153457554e-03 0.0000000000000000e+00  3.0022074548481696e+00 5.0580348463703526e-03 0.0000000000000000e+00  2.9968688137833923e+00 -6.5777995840098687e-03 0.0000000000000000e+00  3.0040717790046543e+00 8.0579739310720142e-03 0.0000000000000000e+00  2.9949246317125415e+00 -9.7777393789702412e-03 0.0000000000000000e+00  3.0061474361403575e+00 1.1572526560006046e-02 0.0000000000000000e+00  2.9928044173030686e+00 -1.3500601317685145e-02 0.0000000000000000e+00  3.0080600521997107e+00 1.5021222185770117e-02 0.0000000000000000e+00  2.9913137775269054e+00 -1.6269505588869790e-02 0.0000000000000000e+00  3.0091230061768006e+00 1.7032246676106148e-02 0.0000000000000000e+00  2.9903793742418250e+00 -1.8019172668047718e-02 0.0000000000000000e+00  3.0102199650363652e+00 1.9059580736967563e-02 0.0000000000000000e+00  2.9890781938517179e+00 -2.0478066820894682e-02 0.0000000000000000e+00  3.0113389747598673e+00 2.1393676114502738e-02 0.0000000000000000e+00  2.9884863780477664e+00 -2.1960908394258676e-02 0.0000000000000000e+00  3.0113334112855403e+00 2.1865944358084605e-02 0.0000000000000000e+00  2.9885609014399526e+00 -2.1877707956735916e-02 0.0000000000000000e+00  3.0115689049683749e+00 2.2160904994839047e-02 0.0000000000000000e+00  2.9878048604288052e+00 -2.2704068139526228e-02 0.0000000000000000e+00  3.0122654619116784e+00 2.3382863083024931e-02 0.0000000000000000e+00  2.9873847537654910e+00 -2.3364909726496547e-02 0.0000000000000000e+00  3.0121621382643862e+00 2.3436156400873251e-02 0.0000000000000000e+00  2.9874626559941015e+00 -2.2538158859136806e-02 0.0000000000000000e+00  3.0121767509266824e+00 2.2415178073858878e-02 0.0000000000000000e+00  2.9870815532775579e+00 -2.1294970539572328e-02 0.0000000000000000e+00  3.0123035003024654e+00 2.1982660608562028e-02 0.0000000000000000e+00  2.9864845801664290e+00 -2.0169130803556885e-02 0.0000000000000000e+00  3.0117060439461505e+00 2.2737720953003672e-02 0.0000000000000000e+00  2.9850615443802653e+00 -1.6295804816938660e-02 0.0000000000000000e+00  3.0092061950502305e+00 2.4690163599567369e-02 0.0000000000000000e+00  2.9813452356203340e+00 -6.2559394535335964e-03 0.0000000000000000e+00  3.0023623812482816e+00 3.3953080213878564e-02 0.0000000000000000e+00  2.9720738689949742e+00 1.2966189449027627e-02 0.0000000000000000e+00  2.9876712731890964e+00 5.8430964064019798e-02 0.0000000000000000e+00  2.9523567288551367e+00 5.1169525019006637e-02 0.0000000000000000e+00  2.9603537886729798e+00 1.0540996798981975e-01 0.0000000000000000e+00  2.9175960662943909e+00 1.1692081077376434e-01 0.0000000000000000e+00  2.9154351369363316e+00 1.8544806107573811e-01 0.0000000000000000e+00  2.8650837275001404e+00 2.1514203560766787e-01 0.0000000000000000e+00  2.8508254824169517e+00 3.0209942699207409e-01 0.0000000000000000e+00  2.7934784964557786e+00 3.5093135346680399e-01 0.0000000000000000e+00  2.7683143718582905e+00 4.5315848361077254e-01 0.0000000000000000e+00  2.7040488480919942e+00 5.1968071303724550e-01 0.0000000000000000e+00  2.6706305414085625e+00 6.4079355698953944e-01 0.0000000000000000e+00  2.6011456170538447e+00 7.1230266327117375e-01 0.0000000000000000e+00  2.5600486278795547e+00 8.5588217441101955e-01 0.0000000000000000e+00  2.4894598104794921e+00 9.3526504414965494e-01 0.0000000000000000e+00  2.4409982504224770e+00 1.0814518171816603e+00 0.0000000000000000e+00  2.3702879558637902e+00 1.1799877932611873e+00 0.0000000000000000e+00  2.3186888021828382e+00 1.3348769939081169e+00 0.0000000000000000e+00  2.2464052540009174e+00 1.4171951074466820e+00 0.0000000000000000e+00  2.1937267363574566e+00 1.6062461668443602e+00 0.0000000000000000e+00  2.1233546497693658e+00 1.6864064019512996e+00 0.0000000000000000e+00  2.0686253034320194e+00 1.8545192198004581e+00 0.0000000000000000e+00  2.0021319340047024e+00 1.9524065451483432e+00 0.0000000000000000e+00  1.9518850415084159e+00 2.1271894093388664e+00 0.0000000000000000e+00  1.8905329080422308e+00 2.1942571154160397e+00 0.0000000000000000e+00  1.8571662469543064e+00 2.3367087741671706e+00 0.0000000000000000e+00  1.8326455114758866e+00 2.3324951778801646e+00 0.0000000000000000e+00  1.8375327413118661e+00 2.3737077208311224e+00 0.0000000000000000e+00  1.8382901798060056e+00 2.3284273275997047e+00 0.0000000000000000e+00  1.8488848183932611e+00 2.3465224538036558e+00 0.0000000000000000e+00  1.8349753049748359e+00 2.3369226511438588e+00 0.0000000000000000e+00  1.8468912905973376e+00 2.3428255177575963e+00 0.0000000000000000e+00  1.8450519038774995e+00 2.3211078762163755e+00 0.0000000000000000e+00  1.8463543051602591e+00 2.3421133067995550e+00 0.0000000000000000e+00  1.8385064587912729e+00 2.3402913681870396e+00 0.0000000000000000e+00  1.8521348740237402e+00 2.3190813848761911e+00 0.0000000000000000e+00  1.8430101322060015e+00 2.3363635993748666e+00 0.0000000000000000e+00  1.8450302452663656e+00 2.3288033132761687e+00 0.0000000000000000e+00  1.8479420745774098e+00 2.3270069130420374e+00 0.0000000000000000e+00  1.8443959342555936e+00 2.3263323510119700e+00 0.0000000000000000e+00  1.8460240786192723e+00 2.3222789588341213e+00 0.0000000000000000e+00  1.8486318053437190e+00 2.3023354785470183e+00 0.0000000000000000e+00  1.8430909494513099e+00 2.3233742796344585e+00 0.0000000000000000e+00  1.8466619111100626e+00 2.2884906165614494e+00 0.0000000000000000e+00  1.8499555294378067e+00 2.3151555663182015e+00 0.0000000000000000e+00  1.8383532310432911e+00 2.2995865491827394e+00 0.0000000000000000e+00  1.8568979191389763e+00 2.3127408090805819e+00 0.0000000000000000e+00  1.8317930063363603e+00 2.3192861571808434e+00 0.0000000000000000e+00  1.8628903901283702e+00 2.3024019811387708e+00 0.0000000000000000e+00  1.8270832676286679e+00 2.3389647763137544e+00 0.0000000000000000e+00  1.8623570813475645e+00 2.2977166975820151e+00 0.0000000000000000e+00  1.8304952005344570e+00 2.3361970798595615e+00 0.0000000000000000e+00  1.8539814700015642e+00 2.2992129179732999e+00 0.0000000000000000e+00  1.8268805247902784e+00 2.3160687317513040e+00 0.0000000000000000e+00  1.8286792068764106e+00 2.2457535746483681e+00 0.0000000000000000e+00  1.7626227628310269e+00 2.1714674647906427e+00 0.0000000000000000e+00  1.6996394400360557e+00 1.9397897563148963e+00 0.0000000000000000e+00  1.4427074992354376e+00 1.3342657560041986e+00 0.0000000000000000e+00  1.1573960109505042e+00 4.6815425825039197e-01 0.0000000000000000e+00  1.0231307468062563e+00 9.9352280735408902e-02 0.0000000000000000e+00  1.0089257733540236e+00 2.1809820136013988e-03 0.0000000000000000e+00  9.9578825230466961e-01 1.3427726748672448e-02 0.0000000000000000e+00  1.0036314697954762e+00 -9.9636083585470225e-03 0.0000000000000000e+00  9.9765631936077970e-01 7.3980089268418240e-03 0.0000000000000000e+00  1.0019284535949087e+00 -5.8931788941951006e-03 0.0000000000000000e+00  9.9755195088077631e-01 7.2839711231043819e-03 0.0000000000000000e+00  1.0033569596890111e+00 -1.0224105769192896e-02 0.0000000000000000e+00  9.9611402984899189e-01 1.2470733368016206e-02 0.0000000000000000e+00  1.0037634154860962e+00 -1.2682248798292646e-02 0.0000000000000000e+00  9.9670280847605841e-01 1.1545908491080979e-02 0.0000000000000000e+00  1.0029746295238986e+00 -1.0362537937207671e-02 0.0000000000000000e+00  9.9699598676489787e-01 1.0106648286184955e-02 0.0000000000000000e+00  1.0032361984584737e+00 -1.0466045058508257e-02 0.0000000000000000e+00  9.9663490321029180e-01 1.0718362027613594e-02 0.0000000000000000e+00  1.0032227896186070e+00 -1.0194188925500986e-02 0.0000000000000000e+00  9.9715023167600703e-01 9.0167182737727492e-03 0.0000000000000000e+00  1.0024106736393670e+00 -7.5340965509443645e-03 0.0000000000000000e+00  9.9796727226496895e-01 6.2366202615790362e-03 0.0000000000000000e+00  1.0017495492183845e+00 -5.2206213469313013e-03 0.0000000000000000e+00  9.9848323010674578e-01 4.4369759799730230e-03 0.0000000000000000e+00  1.0012879681944082e+00 -3.7141336911603201e-03 0.0000000000000000e+00  9.9895186526288460e-01 3.0054195061907448e-03 0.0000000000000000e+00  1.0008165023706010e+00 -2.3259465661438338e-03 0.0000000000000000e+00  9.9938201629686574e-01 1.7473530915857788e-03 0.0000000000000000e+00  1.0004651751492681e+00 -1.2993306630101158e-03 0.0000000000000000e+00  9.9964648812505807e-01 9.7601605162695229e-04 0.0000000000000000e+00  1.0002707135494484e+00 -7.4074617724008711e-04 0.0000000000000000e+00  9.9979432458861306e-01 5.6079985983659077e-04 0.0000000000000000e+00  1.0001528140996692e+00 -4.1629905844853564e-04 0.0000000000000000e+00  9.9988939429800505e-01 3.0119744728481575e-04 0.0000000000000000e+00  1.0000786745090533e+00 -2.1366644918547977e-04 0.0000000000000000e+00  9.9994416599476776e-01 1.5090648301376762e-04 0.0000000000000000e+00  1.0000399854363129e+00 -1.0748797625322431e-04 0.0000000000000000e+00  9.9997111723568810e-01 7.7376801458272306e-05 0.0000000000000000e+00  1.0000208262650170e+00 -5.5752351881279937e-05 0.0000000000000000e+00  9.9998517709900425e-01 3.9721053595701067e-05 0.0000000000000000e+00  1.0000103704082060e+00 -2.7811648946754791e-05 0.0000000000000000e+00  9.9999283378205073e-01 1.9203666196997049e-05 0.0000000000000000e+00  1.0000049402477067e+00 -1.3205260872752880e-05 0.0000000000000000e+00  9.9999657499097083e-01 9.1268689453270633e-06 0.0000000000000000e+00  1.0000023894285148e+00 -6.3536880709673573e-06 0.0000000000000000e+00  9.9999833320133613e-01 4.4299176957088311e-06 0.0000000000000000e+00  1.0000011535697615e+00 -3.0677024461765704e-06 0.0000000000000000e+00  9.9999921084391230e-01 2.0997814304784897e-06 0.0000000000000000e+00  1.0000005348257328e+00 -1.4224834821819197e-06 0.0000000000000000e+00  9.9999963874142261e-01 9.5937953867617049e-07 0.0000000000000000e+00  1.0000002445422755e+00 -6.4811684546876677e-07 0.0000000000000000e+00  9.9999983390397773e-01 4.3951518744212808e-07 0.0000000000000000e+00  1.0000001128289489e+00 -2.9837018519920259e-07 0.0000000000000000e+00  9.9999992371352531e-01 2.0175329264520394e-07 0.0000000000000000e+00  1.0000000511904872e+00 -1.3540730082333050e-07 0.0000000000000000e+00  9.9999996588632245e-01 9.0208844895154253e-08 0.0000000000000000e+00  1.0000000226510315e+00 -5.9839793151099920e-08 0.0000000000000000e+00  9.9999998496312836e-01 3.9672042960955530e-08 0.0000000000000000e+00  1.0000000099932536e+00 -2.6334354590664340e-08 0.0000000000000000e+00  9.9999999336029777e-01 1.7484891835215474e-08 0.0000000000000000e+00  1.0000000043986812e+00 -1.1580534238482982e-08 0.0000000000000000e+00  9.9999999710025511e-01 7.6332803631046192e-09 0.0000000000000000e+00  1.0000000019019573e+00 -5.0049304438443470e-09 0.0000000000000000e+00  9.9999999875693191e-01 3.2686814825421728e-09 0.0000000000000000e+00  1.0000000008111005e+00 -2.1306147491754471e-09 0.0000000000000000e+00  9.9999999947113416e-01 1.3877407472969243e-09 0.0000000000000000e+00  1.0000000003444738e+00 -9.0295675530835874e-10 0.0000000000000000e+00  9.9999999977626641e-01 5.8591887038472233e-10 0.0000000000000000e+00  1.0000000001448730e+00 -3.7869477133874060e-10 0.0000000000000000e+00  9.9999999990678756e-01 2.4314382359936172e-10 0.0000000000000000e+00  1.0000000000601732e+00 -1.5553095341481604e-10 0.0000000000000000e+00  9.9999999996180200e-01 9.7932330469099895e-11 0.0000000000000000e+00  1.0000000000254687e+00 -6.1798829132696881e-11 0.0000000000000000e+00  9.9999999998451483e-01 3.5955182102369251e-11 0.0000000000000000e+00  1.0000000000126734e+00 -2.1633313566491431e-11 0.0000000000000000e+00  9.9999999999401179e-01 6.8337134711296029e-12 0.0000000000000000e+00  1.0000000000110338e+00 0.0000000000000000e+00 0.0000000000000000e+00  3.0000318032899687e+00 0.0000000000000000e+00 6.1035780718679837e-05  2.9999633428765082e+00 1.8953526554370858e-05 -1.3881411944705506e-05  3.0000248211576412e+00 -2.6642555518713177e-06 -4.8310134961622990e-06  2.9999808462869741e+00 -2.5539049731393212e-05 -1.1445144685457537e-05  3.0000146367470268e+00 3.8764143805879487e-05 2.1545997074055554e-05  2.9999853516079678e+00 -4.6070991083318513e-05 -3.2133772441515027e-05  3.0000151554221182e+00 5.0123583305631242e-05 4.3194543447395693e-05  2.9999842725927328e+00 -5.6552492589466311e-05 -5.7423232153258140e-05  3.0000146952087285e+00 6.6094438356374617e-05 7.6707052997940085e-05  2.9999875116781780e+00 -7.8265708520213200e-05 -1.0370769501151081e-04  3.0000083290265769e+00 9.2992526540990747e-05 1.4086868426301259e-04  2.9999966575049819e+00 -1.1107957875494746e-04 -1.9152169551589471e-04  2.9999968740138474e+00 1.3600259236729286e-04 2.5848606252027725e-04  3.0000094919876403e+00 -1.6983970706580204e-04 -3.4584620810457326e-04  2.9999820102112813e+00 2.1493459167371603e-04 4.5701916579632239e-04  3.0000278372988194e+00 -2.6941565145657706e-04 -5.9720654576158379e-04  2.9999574704418577e+00 3.3412050957023077e-04 7.6997117378868574e-04  3.0000583609245988e+00 -4.0937634508325638e-04 -9.7973183985988256e-04  2.9999238620447155e+00 5.0318854067007014e-04 1.2269464769721103e-03  3.0000884827128584e+00 -6.1960478488971068e-04 -1.5118616495707286e-03  2.9999008883427467e+00 7.6328164169917631e-04 1.8302318296436731e-03  3.0001047601153634e+00 -9.2394134516806531e-04 -2.1781771567488902e-03  2.9998848942344689e+00 1.0939408472085909e-03 2.5474021949788259e-03  3.0001238068619371e+00 -1.2597248282238411e-03 -2.9275728144112930e-03  2.9998668162175841e+00 1.4292912292717419e-03 3.3018613205938524e-03  3.0001266249372445e+00 -1.6043783720373044e-03 -3.6483168565515636e-03  2.9998928811282330e+00 1.7969223255107592e-03 3.9428576233195237e-03  3.0000696081269527e+00 -1.9803840868290803e-03 -4.1601815248592045e-03  2.9999656808878155e+00 2.1317412909150546e-03 4.2818342646936845e-03  3.0000046298208258e+00 -2.2008236378659920e-03 -4.2879881898955094e-03  3.0000110333455345e+00 2.1912249391192857e-03 4.1657059890692081e-03  2.9999682086438173e+00 -2.1061758624997960e-03 -3.8951426300886144e-03  3.0000715803031635e+00 2.0028113233962080e-03 3.4675305566995627e-03  2.9998584667375865e+00 -1.8776913379867565e-03 -2.8749377609674142e-03  3.0002262924729868e+00 1.7221178598763312e-03 2.1315345831297823e-03  2.9997098897390226e+00 -1.4487808372495030e-03 -1.2560654130792663e-03  3.0003081686786355e+00 1.0283055010383375e-03 2.8195635736178164e-04  2.9997221288622384e+00 -4.6942548351564092e-04 7.6758256406824637e-04  3.0002604013474228e+00 -9.9289213754774451e-05 -1.8631875041130986e-03  2.9996987352380606e+00 5.5702536204841409e-04 2.9891061276800480e-03  3.0004372620420852e+00 -8.6417363195518326e-04 -4.1085106442668769e-03  2.9994284620497016e+00 1.1333845679487920e-03 5.1986706299592365e-03  3.0006330499114342e+00 -1.5583243599757879e-03 -6.2018062603505075e-03  2.9994764572950547e+00 2.1925729493789872e-03 7.1025068125694342e-03  3.0003915302235749e+00 -2.8973033398710575e-03 -7.8560709330128299e-03  2.9996709162797384e+00 3.3415799969157855e-03 8.4869985256083771e-03  3.0005242764705025e+00 -3.3855810107237139e-03 -8.9778803273293135e-03  2.9992408036700668e+00 3.1636271755131080e-03 9.3735842766827036e-03  3.0009323775262757e+00 -3.0856283169706207e-03 -9.6292308539719356e-03  2.9992566329902686e+00 3.3873955301398102e-03 9.7574684463006458e-03  3.0005012543139262e+00 -3.9452746208024497e-03 -9.7145881685669379e-03  2.9997427597009723e+00 4.2802687422444337e-03 9.5339242450236394e-03  3.0004766513233267e+00 -4.1791601930843093e-03 -9.2487512906166188e-03  2.9993487569613473e+00 3.5963246997502804e-03 8.9400253596943220e-03  3.0009812766086243e+00 -3.2378376152398945e-03 -8.6017940919268648e-03  2.9993365799994423e+00 2.9533132282532301e-03 8.2298942206341652e-03  3.0006272121157567e+00 -3.3847936224454017e-03 -7.7750420147172971e-03  2.9998504876175018e+00 3.4052085558985410e-03 7.2417402645217985e-03  3.0004364424521390e+00 -3.7701632897786850e-03 -6.7057839393827104e-03  2.9997238765086012e+00 3.4887674099315659e-03 6.2650491881831132e-03  3.0004649072300644e+00 -3.0755210496479111e-03 -5.9410495828342126e-03  2.9994408440473799e+00 3.2308588479735374e-03 5.6892271310544484e-03  2.9999121102235611e+00 -1.5980198798584372e-03 -5.4670967668667214e-03  2.9986764249420612e+00 4.8026123904520920e-03 5.2446354227254069e-03  2.9982803668318132e+00 3.4359716967076714e-04 -5.1647676244089349e-03  2.9964056385253697e+00 1.0318306113993665e-02 5.2911050150992811e-03  2.9939490823522248e+00 7.2208994837073045e-03 -5.5984961394408813e-03  2.9901655768241389e+00 2.1646610045311526e-02 6.0013172435301422e-03  2.9842132924941116e+00 2.5299401140422780e-02 -6.3580956592013951e-03  2.9757775094377252e+00 4.7513004593056470e-02 6.6899864949944944e-03  2.9644322753396786e+00 6.0893181695205995e-02 -7.1185535272540587e-03  2.9486717196552892e+00 9.7203569578469193e-02 7.6674099549773889e-03  2.9291423043098166e+00 1.2495259595548552e-01 -8.2953612419731336e-03  2.9049499992882373e+00 1.7738258157944245e-01 8.7886956734093639e-03  2.8750840580758394e+00 2.2355710147706304e-01 -9.0088913446960579e-03  2.8418399265170100e+00 2.9463642732216211e-01 8.8862724859425368e-03  2.8025684006568623e+00 3.5762528398094773e-01 -8.6525598548935455e-03  2.7597254525475043e+00 4.4693104623950419e-01 8.4345201105889781e-03  2.7131374657911018e+00 5.2885404597842534e-01 -8.2862027655343749e-03  2.6624440760775623e+00 6.2803128704686650e-01 8.0187580145568912e-03  2.6090859259548527e+00 7.2935753156200034e-01 -7.2394337636492697e-03  2.55417798