<?xml version="1.0"?>
<VTKFile type="UnstructuredGrid"  version="0.1"  >
<UnstructuredGrid>
<Piece  NumberOfPoints="8241" NumberOfCells="16000">
<Points>
<DataArray  type="Float64"  NumberOfComponents="3"  format="ascii">-5 -1 0  -4.95 -1 0  -4.9 -1 0  -4.85 -1 0  -4.8 -1 0  -4.75 -1 0  -4.7 -1 0  -4.65 -1 0  -4.6 -1 0  -4.55 -1 0  -4.5 -1 0  -4.45 -1 0  -4.4 -1 0  -4.35 -1 0  -4.3 -1 0  -4.25 -1 0  -4.2 -1 0  -4.15 -1 0  -4.1 -1 0  -4.05 -1 0  -4 -1 0  -3.95 -1 0  -3.9 -1 0  -3.85 -1 0  -3.8 -1 0  -3.75 -1 0  -3.7 -1 0  -3.65 -1 0  -3.6 -1 0  -3.55 -1 0  -3.5 -1 0  -3.45 -1 0  -3.4 -1 0  -3.35 -1 0  -3.3 -1 0  -3.25 -1 0  -3.2 -1 0  -3.15 -1 0  -3.1 -1 0  -3.05 -1 0  -3 -1 0  -2.95 -1 0  -2.9 -1 0  -2.85 -1 0  -2.8 -1 0  -2.75 -1 0  -2.7 -1 0  -2.65 -1 0  -2.6 -1 0  -2.55 -1 0  -2.5 -1 0  -2.45 -1 0  -2.4 -1 0  -2.35 -1 0  -2.3 -1 0  -2.25 -1 0  -2.2 -1 0  -2.15 -1 0  -2.1 -1 0  -2.05 -1 0  -2 -1 0  -1.95 -1 0  -1.9 -1 0  -1.85 -1 0  -1.8 -1 0  -1.75 -1 0  -1.7 -1 0  -1.65 -1 0  -1.6 -1 0  -1.55 -1 0  -1.5 -1 0  -1.45 -1 0  -1.4 -1 0  -1.35 -1 0  -1.3 -1 0  -1.25 -1 0  -1.2 -1 0  -1.15 -1 0  -1.1 -1 0  -1.05 -1 0  -1 -1 0  -0.9500000000000002 -1 0  -0.9000000000000004 -1 0  -0.8499999999999996 -1 0  -0.7999999999999998 -1 0  -0.75 -1 0  -0.7000000000000002 -1 0  -0.6500000000000004 -1 0  -0.5999999999999996 -1 0  -0.5499999999999998 -1 0  -0.5 -1 0  -0.4500000000000002 -1 0  -0.4000000000000004 -1 0  -0.3499999999999996 -1 0  -0.2999999999999998 -1 0  -0.25 -1 0  -0.2000000000000002 -1 0  -0.1500000000000004 -1 0  -0.09999999999999964 -1 0  -0.04999999999999982 -1 0  0 -1 0  0.04999999999999982 -1 0  0.09999999999999964 -1 0  0.1500000000000004 -1 0  0.2000000000000002 -1 0  0.25 -1 0  0.2999999999999998 -1 0  0.3499999999999996 -1 0  0.4000000000000004 -1 0  0.4500000000000002 -1 0  0.5 -1 0  0.5499999999999998 -1 0  0.5999999999999996 -1 0  0.6500000000000004 -1 0  0.7000000000000002 -1 0  0.75 -1 0  0.7999999999999998 -1 0  0.8499999999999996 -1 0  0.9000000000000004 -1 0  0.9500000000000002 -1 0  1 -1 0  1.05 -1 0  1.1 -1 0  1.15 -1 0  1.2 -1 0  1.25 -1 0  1.3 -1 0  1.35 -1 0  1.4 -1 0  1.45 -1 0  1.5 -1 0  1.55 -1 0  1.6 -1 0  1.65 -1 0  1.7 -1 0  1.75 -1 0  1.8 -1 0  1.85 -1 0  1.9 -1 0  1.95 -1 0  2 -1 0  2.05 -1 0  2.1 -1 0  2.15 -1 0  2.2 -1 0  2.25 -1 0  2.3 -1 0  2.35 -1 0  2.4 -1 0  2.45 -1 0  2.5 -1 0  2.55 -1 0  2.6 -1 0  2.65 -1 0  2.7 -1 0  2.75 -1 0  2.8 -1 0  2.85 -1 0  2.9 -1 0  2.95 -1 0  3 -1 0  3.050000000000001 -1 0  3.1 -1 0  3.15 -1 0  3.199999999999999 -1 0  3.25 -1 0  3.300000000000001 -1 0  3.35 -1 0  3.4 -1 0  3.449999999999999 -1 0  3.5 -1 0  3.550000000000001 -1 0  3.6 -1 0  3.65 -1 0  3.699999999999999 -1 0  3.75 -1 0  3.800000000000001 -1 0  3.85 -1 0  3.9 -1 0  3.949999999999999 -1 0  4 -1 0  4.050000000000001 -1 0  4.1 -1 0  4.15 -1 0  4.199999999999999 -1 0  4.25 -1 0  4.300000000000001 -1 0  4.35 -1 0  4.4 -1 0  4.449999999999999 -1 0  4.5 -1 0  4.550000000000001 -1 0  4.6 -1 0  4.65 -1 0  4.699999999999999 -1 0  4.75 -1 0  4.800000000000001 -1 0  4.85 -1 0  4.9 -1 0  4.949999999999999 -1 0  5 -1 0  -5 -0.95 0  -4.95 -0.95 0  -4.9 -0.95 0  -4.85 -0.95 0  -4.8 -0.95 0  -4.75 -0.95 0  -4.7 -0.95 0  -4.65 -0.95 0  -4.6 -0.95 0  -4.55 -0.95 0  -4.5 -0.95 0  -4.45 -0.95 0  -4.4 -0.95 0  -4.35 -0.95 0  -4.3 -0.95 0  -4.25 -0.95 0  -4.2 -0.95 0  -4.15 -0.95 0  -4.1 -0.95 0  -4.05 -0.95 0  -4 -0.95 0  -3.95 -0.95 0  -3.9 -0.95 0  -3.85 -0.95 0  -3.8 -0.95 0  -3.75 -0.95 0  -3.7 -0.95 0  -3.65 -0.95 0  -3.6 -0.95 0  -3.55 -0.95 0  -3.5 -0.95 0  -3.45 -0.95 0  -3.4 -0.95 0  -3.35 -0.95 0  -3.3 -0.95 0  -3.25 -0.95 0  -3.2 -0.95 0  -3.15 -0.95 0  -3.1 -0.95 0  -3.05 -0.95 0  -3 -0.95 0  -2.95 -0.95 0  -2.9 -0.95 0  -2.85 -0.95 0  -2.8 -0.95 0  -2.75 -0.95 0  -2.7 -0.95 0  -2.65 -0.95 0  -2.6 -0.95 0  -2.55 -0.95 0  -2.5 -0.95 0  -2.45 -0.95 0  -2.4 -0.95 0  -2.35 -0.95 0  -2.3 -0.95 0  -2.25 -0.95 0  -2.2 -0.95 0  -2.15 -0.95 0  -2.1 -0.95 0  -2.05 -0.95 0  -2 -0.95 0  -1.95 -0.95 0  -1.9 -0.95 0  -1.85 -0.95 0  -1.8 -0.95 0  -1.75 -0.95 0  -1.7 -0.95 0  -1.65 -0.95 0  -1.6 -0.95 0  -1.55 -0.95 0  -1.5 -0.95 0  -1.45 -0.95 0  -1.4 -0.95 0  -1.35 -0.95 0  -1.3 -0.95 0  -1.25 -0.95 0  -1.2 -0.95 0  -1.15 -0.95 0  -1.1 -0.95 0  -1.05 -0.95 0  -1 -0.95 0  -0.9500000000000002 -0.95 0  -0.9000000000000004 -0.95 0  -0.8499999999999996 -0.95 0  -0.7999999999999998 -0.95 0  -0.75 -0.95 0  -0.7000000000000002 -0.95 0  -0.6500000000000004 -0.95 0  -0.5999999999999996 -0.95 0  -0.5499999999999998 -0.95 0  -0.5 -0.95 0  -0.4500000000000002 -0.95 0  -0.4000000000000004 -0.95 0  -0.3499999999999996 -0.95 0  -0.2999999999999998 -0.95 0  -0.25 -0.95 0  -0.2000000000000002 -0.95 0  -0.1500000000000004 -0.95 0  -0.09999999999999964 -0.95 0  -0.04999999999999982 -0.95 0  0 -0.95 0  0.04999999999999982 -0.95 0  0.09999999999999964 -0.95 0  0.1500000000000004 -0.95 0  0.2000000000000002 -0.95 0  0.25 -0.95 0  0.2999999999999998 -0.95 0  0.3499999999999996 -0.95 0  0.4000000000000004 -0.95 0  0.4500000000000002 -0.95 0  0.5 -0.95 0  0.5499999999999998 -0.95 0  0.5999999999999996 -0.95 0  0.6500000000000004 -0.95 0  0.7000000000000002 -0.95 0  0.75 -0.95 0  0.7999999999999998 -0.95 0  0.8499999999999996 -0.95 0  0.9000000000000004 -0.95 0  0.9500000000000002 -0.95 0  1 -0.95 0  1.05 -0.95 0  1.1 -0.95 0  1.15 -0.95 0  1.2 -0.95 0  1.25 -0.95 0  1.3 -0.95 0  1.35 -0.95 0  1.4 -0.95 0  1.45 -0.95 0  1.5 -0.95 0  1.55 -0.95 0  1.6 -0.95 0  1.65 -0.95 0  1.7 -0.95 0  1.75 -0.95 0  1.8 -0.95 0  1.85 -0.95 0  1.9 -0.95 0  1.95 -0.95 0  2 -0.95 0  2.05 -0.95 0  2.1 -0.95 0  2.15 -0.95 0  2.2 -0.95 0  2.25 -0.95 0  2.3 -0.95 0  2.35 -0.95 0  2.4 -0.95 0  2.45 -0.95 0  2.5 -0.95 0  2.55 -0.95 0  2.6 -0.95 0  2.65 -0.95 0  2.7 -0.95 0  2.75 -0.95 0  2.8 -0.95 0  2.85 -0.95 0  2.9 -0.95 0  2.95 -0.95 0  3 -0.95 0  3.050000000000001 -0.95 0  3.1 -0.95 0  3.15 -0.95 0  3.199999999999999 -0.95 0  3.25 -0.95 0  3.300000000000001 -0.95 0  3.35 -0.95 0  3.4 -0.95 0  3.449999999999999 -0.95 0  3.5 -0.95 0  3.550000000000001 -0.95 0  3.6 -0.95 0  3.65 -0.95 0  3.699999999999999 -0.95 0  3.75 -0.95 0  3.800000000000001 -0.95 0  3.85 -0.95 0  3.9 -0.95 0  3.949999999999999 -0.95 0  4 -0.95 0  4.050000000000001 -0.95 0  4.1 -0.95 0  4.15 -0.95 0  4.199999999999999 -0.95 0  4.25 -0.95 0  4.300000000000001 -0.95 0  4.35 -0.95 0  4.4 -0.95 0  4.449999999999999 -0.95 0  4.5 -0.95 0  4.550000000000001 -0.95 0  4.6 -0.95 0  4.65 -0.95 0  4.699999999999999 -0.95 0  4.75 -0.95 0  4.800000000000001 -0.95 0  4.85 -0.95 0  4.9 -0.95 0  4.949999999999999 -0.95 0  5 -0.95 0  -5 -0.9 0  -4.95 -0.9 0  -4.9 -0.9 0  -4.85 -0.9 0  -4.8 -0.9 0  -4.75 -0.9 0  -4.7 -0.9 0  -4.65 -0.9 0  -4.6 -0.9 0  -4.55 -0.9 0  -4.5 -0.9 0  -4.45 -0.9 0  -4.4 -0.9 0  -4.35 -0.9 0  -4.3 -0.9 0  -4.25 -0.9 0  -4.2 -0.9 0  -4.15 -0.9 0  -4.1 -0.9 0  -4.05 -0.9 0  -4 -0.9 0  -3.95 -0.9 0  -3.9 -0.9 0  -3.85 -0.9 0  -3.8 -0.9 0  -3.75 -0.9 0  -3.7 -0.9 0  -3.65 -0.9 0  -3.6 -0.9 0  -3.55 -0.9 0  -3.5 -0.9 0  -3.45 -0.9 0  -3.4 -0.9 0  -3.35 -0.9 0  -3.3 -0.9 0  -3.25 -0.9 0  -3.2 -0.9 0  -3.15 -0.9 0  -3.1 -0.9 0  -3.05 -0.9 0  -3 -0.9 0  -2.95 -0.9 0  -2.9 -0.9 0  -2.85 -0.9 0  -2.8 -0.9 0  -2.75 -0.9 0  -2.7 -0.9 0  -2.65 -0.9 0  -2.6 -0.9 0  -2.55 -0.9 0  -2.5 -0.9 0  -2.45 -0.9 0  -2.4 -0.9 0  -2.35 -0.9 0  -2.3 -0.9 0  -2.25 -0.9 0  -2.2 -0.9 0  -2.15 -0.9 0  -2.1 -0.9 0  -2.05 -0.9 0  -2 -0.9 0  -1.95 -0.9 0  -1.9 -0.9 0  -1.85 -0.9 0  -1.8 -0.9 0  -1.75 -0.9 0  -1.7 -0.9 0  -1.65 -0.9 0  -1.6 -0.9 0  -1.55 -0.9 0  -1.5 -0.9 0  -1.45 -0.9 0  -1.4 -0.9 0  -1.35 -0.9 0  -1.3 -0.9 0  -1.25 -0.9 0  -1.2 -0.9 0  -1.15 -0.9 0  -1.1 -0.9 0  -1.05 -0.9 0  -1 -0.9 0  -0.9500000000000002 -0.9 0  -0.9000000000000004 -0.9 0  -0.8499999999999996 -0.9 0  -0.7999999999999998 -0.9 0  -0.75 -0.9 0  -0.7000000000000002 -0.9 0  -0.6500000000000004 -0.9 0  -0.5999999999999996 -0.9 0  -0.5499999999999998 -0.9 0  -0.5 -0.9 0  -0.4500000000000002 -0.9 0  -0.4000000000000004 -0.9 0  -0.3499999999999996 -0.9 0  -0.2999999999999998 -0.9 0  -0.25 -0.9 0  -0.2000000000000002 -0.9 0  -0.1500000000000004 -0.9 0  -0.09999999999999964 -0.9 0  -0.04999999999999982 -0.9 0  0 -0.9 0  0.04999999999999982 -0.9 0  0.09999999999999964 -0.9 0  0.1500000000000004 -0.9 0  0.2000000000000002 -0.9 0  0.25 -0.9 0  0.2999999999999998 -0.9 0  0.3499999999999996 -0.9 0  0.4000000000000004 -0.9 0  0.4500000000000002 -0.9 0  0.5 -0.9 0  0.5499999999999998 -0.9 0  0.5999999999999996 -0.9 0  0.6500000000000004 -0.9 0  0.7000000000000002 -0.9 0  0.75 -0.9 0  0.7999999999999998 -0.9 0  0.8499999999999996 -0.9 0  0.9000000000000004 -0.9 0  0.9500000000000002 -0.9 0  1 -0.9 0  1.05 -0.9 0  1.1 -0.9 0  1.15 -0.9 0  1.2 -0.9 0  1.25 -0.9 0  1.3 -0.9 0  1.35 -0.9 0  1.4 -0.9 0  1.45 -0.9 0  1.5 -0.9 0  1.55 -0.9 0  1.6 -0.9 0  1.65 -0.9 0  1.7 -0.9 0  1.75 -0.9 0  1.8 -0.9 0  1.85 -0.9 0  1.9 -0.9 0  1.95 -0.9 0  2 -0.9 0  2.05 -0.9 0  2.1 -0.9 0  2.15 -0.9 0  2.2 -0.9 0  2.25 -0.9 0  2.3 -0.9 0  2.35 -0.9 0  2.4 -0.9 0  2.45 -0.9 0  2.5 -0.9 0  2.55 -0.9 0  2.6 -0.9 0  2.65 -0.9 0  2.7 -0.9 0  2.75 -0.9 0  2.8 -0.9 0  2.85 -0.9 0  2.9 -0.9 0  2.95 -0.9 0  3 -0.9 0  3.050000000000001 -0.9 0  3.1 -0.9 0  3.15 -0.9 0  3.199999999999999 -0.9 0  3.25 -0.9 0  3.300000000000001 -0.9 0  3.35 -0.9 0  3.4 -0.9 0  3.449999999999999 -0.9 0  3.5 -0.9 0  3.550000000000001 -0.9 0  3.6 -0.9 0  3.65 -0.9 0  3.699999999999999 -0.9 0  3.75 -0.9 0  3.800000000000001 -0.9 0  3.85 -0.9 0  3.9 -0.9 0  3.949999999999999 -0.9 0  4 -0.9 0  4.050000000000001 -0.9 0  4.1 -0.9 0  4.15 -0.9 0  4.199999999999999 -0.9 0  4.25 -0.9 0  4.300000000000001 -0.9 0  4.35 -0.9 0  4.4 -0.9 0  4.449999999999999 -0.9 0  4.5 -0.9 0  4.550000000000001 -0.9 0  4.6 -0.9 0  4.65 -0.9 0  4.699999999999999 -0.9 0  4.75 -0.9 0  4.800000000000001 -0.9 0  4.85 -0.9 0  4.9 -0.9 0  4.949999999999999 -0.9 0  5 -0.9 0  -5 -0.85 0  -4.95 -0.85 0  -4.9 -0.85 0  -4.85 -0.85 0  -4.8 -0.85 0  -4.75 -0.85 0  -4.7 -0.85 0  -4.65 -0.85 0  -4.6 -0.85 0  -4.55 -0.85 0  -4.5 -0.85 0  -
[...]
<PointData  Vectors="f_15"> 
<DataArray  type="Float64"  Name="f_15"  NumberOfComponents="3" format="ascii">1.3333215736653861e+00 0.0000000000000000e+00 0.0000000000000000e+00  1.3204269900748056e+00 -2.6082495589634592e-02 0.0000000000000000e+00  1.3338425150118811e+00 1.2414193491077448e-01 0.0000000000000000e+00  1.3175785350738036e+00 7.9965839064617086e-02 0.0000000000000000e+00  1.3367262201750012e+00 1.7284315886199955e-01 0.0000000000000000e+00  1.3169329635602760e+00 1.5274197731052253e-01 0.0000000000000000e+00  1.3352759546516344e+00 2.4220017116873391e-01 0.0000000000000000e+00  1.3184054812673938e+00 2.2177373070418932e-01 0.0000000000000000e+00  1.3360231447750490e+00 2.9784207973236804e-01 0.0000000000000000e+00  1.3157512411055348e+00 2.9893320874381657e-01 0.0000000000000000e+00  1.3385155492038199e+00 3.6337203855873362e-01 0.0000000000000000e+00  1.3155035657573995e+00 3.6080989686499265e-01 0.0000000000000000e+00  1.3367753464148813e+00 4.2992145394798287e-01 0.0000000000000000e+00  1.3170926973393169e+00 4.3650299680344834e-01 0.0000000000000000e+00  1.3372032767188726e+00 4.8551914076702418e-01 0.0000000000000000e+00  1.3149888295898546e+00 5.0770024920809609e-01 0.0000000000000000e+00  1.3389582621454308e+00 5.5813886809868796e-01 0.0000000000000000e+00  1.3153406810501529e+00 5.6412270316758917e-01 0.0000000000000000e+00  1.3370411007647804e+00 6.2834708565943909e-01 0.0000000000000000e+00  1.3172499828865905e+00 6.3539010075937252e-01 0.0000000000000000e+00  1.3372991827432477e+00 6.9094295906178504e-01 0.0000000000000000e+00  1.3160368701890279e+00 6.9242617292310460e-01 0.0000000000000000e+00  1.3389557562346894e+00 7.6742241413403478e-01 0.0000000000000000e+00  1.3170823852054696e+00 7.5574077621236069e-01 0.0000000000000000e+00  1.3378375480741418e+00 8.2477889266962134e-01 0.0000000000000000e+00  1.3195686845387731e+00 8.2097046326324041e-01 0.0000000000000000e+00  1.3392904083107080e+00 8.9228640297687456e-01 0.0000000000000000e+00  1.3197175845357816e+00 8.7764156329751419e-01 0.0000000000000000e+00  1.3423658296081211e+00 9.5423633996123736e-01 0.0000000000000000e+00  1.3228295920308961e+00 9.3722834578484171e-01 0.0000000000000000e+00  1.3441759994068456e+00 1.0064216499631087e+00 0.0000000000000000e+00  1.3278942454172118e+00 9.9698120819349223e-01 0.0000000000000000e+00  1.3497870476163685e+00 1.0570906571217558e+00 0.0000000000000000e+00  1.3327289978793742e+00 1.0417521293522365e+00 0.0000000000000000e+00  1.3580623687461610e+00 1.1029015634403312e+00 0.0000000000000000e+00  1.3418907300208061e+00 1.0886373580313817e+00 0.0000000000000000e+00  1.3667115592141919e+00 1.1330571077866805e+00 0.0000000000000000e+00  1.3532897501814769e+00 1.1301938669599292e+00 0.0000000000000000e+00  1.3789426032919476e+00 1.1646217356750930e+00 0.0000000000000000e+00  1.3642071288626543e+00 1.1609068338005553e+00 0.0000000000000000e+00  1.3917955961416622e+00 1.1951240702279056e+00 0.0000000000000000e+00  1.3773827352442922e+00 1.1973723384197978e+00 0.0000000000000000e+00  1.4031882310309352e+00 1.2174289835651417e+00 0.0000000000000000e+00  1.3903926680085221e+00 1.2342039330192383e+00 0.0000000000000000e+00  1.4161350546413667e+00 1.2470096411166325e+00 0.0000000000000000e+00  1.4021253815160524e+00 1.2636762766413818e+00 0.0000000000000000e+00  1.4285354255352802e+00 1.2782567667220182e+00 0.0000000000000000e+00  1.4154915185355381e+00 1.2989992076704251e+00 0.0000000000000000e+00  1.4396915507193229e+00 1.3032474971332655e+00 0.0000000000000000e+00  1.4284571004876028e+00 1.3346198726033582e+00 0.0000000000000000e+00  1.4523214262797874e+00 1.3348020988148199e+00 0.0000000000000000e+00  1.4404620093468807e+00 1.3639570830810495e+00 0.0000000000000000e+00  1.4645117418608162e+00 1.3674261825270839e+00 0.0000000000000000e+00  1.4539246603188249e+00 1.3976708925648100e+00 0.0000000000000000e+00  1.4757653117175351e+00 1.3959051678874042e+00 0.0000000000000000e+00  1.4670466910663182e+00 1.4306609888618109e+00 0.0000000000000000e+00  1.4883582848809864e+00 1.4298868316588267e+00 0.0000000000000000e+00  1.4792187862808213e+00 1.4591168118671545e+00 0.0000000000000000e+00  1.5008137023416237e+00 1.4633035591416239e+00 0.0000000000000000e+00  1.4924140163841229e+00 1.4919948247160366e+00 0.0000000000000000e+00  1.5124703693880841e+00 1.4936111979619240e+00 0.0000000000000000e+00  1.5055296990285045e+00 1.5231232955643510e+00 0.0000000000000000e+00  1.5249992635526926e+00 1.5289724548546122e+00 0.0000000000000000e+00  1.5179612492950239e+00 1.5504314894846427e+00 0.0000000000000000e+00  1.5375918235418695e+00 1.5627996114068679e+00 0.0000000000000000e+00  1.5309938607854525e+00 1.5824510709393416e+00 0.0000000000000000e+00  1.5496150147864052e+00 1.5930461265359996e+00 0.0000000000000000e+00  1.5441022902892221e+00 1.6133007655792124e+00 0.0000000000000000e+00  1.5620140711347323e+00 1.6271645034737197e+00 0.0000000000000000e+00  1.5568461754790437e+00 1.6409952410000497e+00 0.0000000000000000e+00  1.5744116707527287e+00 1.6598048415815414e+00 0.0000000000000000e+00  1.5699944654683480e+00 1.6726428406989344e+00 0.0000000000000000e+00  1.5862669384290959e+00 1.6889103147508129e+00 0.0000000000000000e+00  1.5834025417859647e+00 1.7040389602222761e+00 0.0000000000000000e+00  1.5981167556566811e+00 1.7205954444980915e+00 0.0000000000000000e+00  1.5965557011111684e+00 1.7330675035557337e+00 0.0000000000000000e+00  1.6101391325644259e+00 1.7518196112830000e+00 0.0000000000000000e+00  1.6096118240073802e+00 1.7645933612422322e+00 0.0000000000000000e+00  1.6219202416384180e+00 1.7810591304524914e+00 0.0000000000000000e+00  1.6228932292636602e+00 1.7958402791019967e+00 0.0000000000000000e+00  1.6334807899037112e+00 1.8124714970667781e+00 0.0000000000000000e+00  1.6358783486934114e+00 1.8252748276146780e+00 0.0000000000000000e+00  1.6455421434818469e+00 1.8435247886297113e+00 0.0000000000000000e+00  1.6481520018636109e+00 1.8564974465728943e+00 0.0000000000000000e+00  1.6577156507383248e+00 1.8725107285574925e+00 0.0000000000000000e+00  1.6606237228039853e+00 1.8879682973897842e+00 0.0000000000000000e+00  1.6693567243242904e+00 1.9012049059666454e+00 0.0000000000000000e+00  1.6729222668281316e+00 1.9198236099982484e+00 0.0000000000000000e+00  1.6815486955365602e+00 1.9270633423170844e+00 0.0000000000000000e+00  1.6841385207659685e+00 1.9535192376545889e+00 0.0000000000000000e+00  1.6940001612377571e+00 1.9519325735284438e+00 0.0000000000000000e+00  1.6955665436969876e+00 1.9844650967466275e+00 0.0000000000000000e+00  1.7054897165753500e+00 1.9782695295432824e+00 0.0000000000000000e+00  1.7070602762185487e+00 2.0157796957880580e+00 0.0000000000000000e+00  1.7172433377754790e+00 1.9991229260671119e+00 0.0000000000000000e+00  1.7174958707185859e+00 2.0512088107634847e+00 0.0000000000000000e+00  1.7290266487620247e+00 2.0192946091857227e+00 0.0000000000000000e+00  1.7281706969329378e+00 2.0789240321136568e+00 0.0000000000000000e+00  1.7396280569227809e+00 2.0488610449716487e+00 0.0000000000000000e+00  1.7389372379091013e+00 2.0990151541224904e+00 0.0000000000000000e+00  1.7502634682666174e+00 2.0766271365916742e+00 0.0000000000000000e+00  1.7486722605646781e+00 2.1241483892372033e+00 0.0000000000000000e+00  1.7606968111475494e+00 2.0991960932460598e+00 0.0000000000000000e+00  1.7586298719593931e+00 2.1445949635646602e+00 0.0000000000000000e+00  1.7696516709203705e+00 2.1312444534547939e+00 0.0000000000000000e+00  1.7688488046375372e+00 2.1535615596536037e+00 0.0000000000000000e+00  1.7783351563064251e+00 2.1637540687898138e+00 0.0000000000000000e+00  1.7777367941385702e+00 2.1698642998976561e+00 0.0000000000000000e+00  1.7870577688446059e+00 2.1823912811712867e+00 0.0000000000000000e+00  1.7865107301376393e+00 2.1918840492505316e+00 0.0000000000000000e+00  1.7940902658334401e+00 2.2018263005774759e+00 0.0000000000000000e+00  1.7956183040957050e+00 2.2053592870151757e+00 0.0000000000000000e+00  1.8006661239572370e+00 2.2234721712927987e+00 0.0000000000000000e+00  1.8030979992522336e+00 2.2213663374823427e+00 0.0000000000000000e+00  1.8076425368147027e+00 2.2354504494285101e+00 0.0000000000000000e+00  1.8100052064457643e+00 2.2402690671195411e+00 0.0000000000000000e+00  1.8131972594133081e+00 2.2487322971255339e+00 0.0000000000000000e+00  1.8175399815983022e+00 2.2494258164099836e+00 0.0000000000000000e+00  1.8185675373651364e+00 2.2646440217230719e+00 0.0000000000000000e+00  1.8249845756685326e+00 2.2552075642395124e+00 0.0000000000000000e+00  1.8262100386380113e+00 2.2710602631592289e+00 0.0000000000000000e+00  1.8353269278833497e+00 2.2552998105225992e+00 0.0000000000000000e+00  1.8385189748785316e+00 2.2672362007302076e+00 0.0000000000000000e+00  1.8542595465544935e+00 2.2363281082852664e+00 0.0000000000000000e+00  1.8600269618423517e+00 2.2461445370962929e+00 0.0000000000000000e+00  1.8834859304212215e+00 2.2004047336220633e+00 0.0000000000000000e+00  1.8905240585983798e+00 2.2068810502862983e+00 0.0000000000000000e+00  1.9144807173808940e+00 2.1611261678669358e+00 0.0000000000000000e+00  1.9154401880846323e+00 2.1773557791301883e+00 0.0000000000000000e+00  1.9320719087979832e+00 2.1424376340905753e+00 0.0000000000000000e+00  1.9186798743976523e+00 2.1800636430761400e+00 0.0000000000000000e+00  1.9270903395474834e+00 2.1639664598395969e+00 0.0000000000000000e+00  1.8947818281766438e+00 2.2269080408759825e+00 0.0000000000000000e+00  1.8833268201126740e+00 2.2533333624711660e+00 0.0000000000000000e+00  1.8164639769913193e+00 2.3663183990151966e+00 0.0000000000000000e+00  1.7701589221508962e+00 2.4354537070982869e+00 0.0000000000000000e+00  1.6962365687093153e+00 2.5700080161486070e+00 0.0000000000000000e+00  2.1104543008532040e+00 1.5968824676263198e+00 0.0000000000000000e+00  2.7780159690131625e+00 2.6555426012163991e-01 0.0000000000000000e+00  2.9787595042928210e+00 -7.1628013625091289e-02 0.0000000000000000e+00  2.9248503781810182e+00 -1.1905861843724615e-02 0.0000000000000000e+00  2.9615535052336410e+00 -6.3407456977707555e-02 0.0000000000000000e+00  2.9665939106822692e+00 -7.3834589799590969e-02 0.0000000000000000e+00  2.9719700541204661e+00 -7.6569298789627635e-02 0.0000000000000000e+00  2.9610045865352865e+00 -6.5966139493335033e-02 0.0000000000000000e+00  2.9762181376267156e+00 -7.3108440611641290e-02 0.0000000000000000e+00  2.9577120442956049e+00 -5.6659876969642614e-02 0.0000000000000000e+00  2.9782815244960008e+00 -6.9897436692512652e-02 0.0000000000000000e+00  2.9611718385183292e+00 -5.8349100884322457e-02 0.0000000000000000e+00  2.9783123956444508e+00 -6.2068993990055873e-02 0.0000000000000000e+00  2.9610885926033164e+00 -5.4166108230117381e-02 0.0000000000000000e+00  2.9793923307949330e+00 -5.6873034477625761e-02 0.0000000000000000e+00  2.9624112844845540e+00 -5.0788406800635344e-02 0.0000000000000000e+00  2.9803763279207951e+00 -5.2599379553794880e-02 0.0000000000000000e+00  2.9627778942667797e+00 -4.6353959197142233e-02 0.0000000000000000e+00  2.9816627150703576e+00 -4.8390863792402643e-02 0.0000000000000000e+00  2.9634522620993002e+00 -4.2704835942730522e-02 0.0000000000000000e+00  2.9818069018312654e+00 -4.4008630849945239e-02 0.0000000000000000e+00  2.9652255781792305e+00 -3.9354257438230678e-02 0.0000000000000000e+00  2.9816227519617380e+00 -4.1292240540480585e-02 0.0000000000000000e+00  2.9656065290807812e+00 -3.6474866958220845e-02 0.0000000000000000e+00  2.9825197708570399e+00 -4.3878666604285861e-02 0.0000000000000000e+00  2.9655954421353141e+00 -3.7559664557198454e-02 0.0000000000000000e+00  2.9821541908340836e+00 -5.1305193937130310e-02 0.0000000000000000e+00  2.9664689818980858e+00 -4.1194123972640231e-02 0.0000000000000000e+00  2.9812586216646526e+00 -5.5595700630500094e-02 0.0000000000000000e+00  2.9663128104339056e+00 -3.9531238324756302e-02 0.0000000000000000e+00  2.9812770335737828e+00 -5.1804282910653039e-02 0.0000000000000000e+00  2.9656384934421172e+00 -3.0179150213890567e-02 0.0000000000000000e+00  2.9804769915429556e+00 -4.3046919877014908e-02 0.0000000000000000e+00  2.9658911788877234e+00 -1.9169493667123991e-02 0.0000000000000000e+00  2.9793186065840449e+00 -3.2852953533662750e-02 0.0000000000000000e+00  2.9654380395935487e+00 -1.2853731389209009e-02 0.0000000000000000e+00  2.9792191701899733e+00 -2.5725550827182777e-02 0.0000000000000000e+00  2.9648137858695311e+00 -6.6820862729545022e-03 0.0000000000000000e+00  2.9784093573365906e+00 -2.5905443662186910e-02 0.0000000000000000e+00  2.9654344349931092e+00 -2.6420320203775489e-03 0.0000000000000000e+00  2.9774805215600120e+00 -2.6739595951511628e-02 0.0000000000000000e+00  2.9653919037160739e+00 -4.0966039279740586e-03 0.0000000000000000e+00  2.9777568253061730e+00 -2.7798049907199425e-02 0.0000000000000000e+00  2.9653203389672402e+00 -8.2623050530073218e-03 0.0000000000000000e+00  2.9772647973432078e+00 -2.7176972150417346e-02 0.0000000000000000e+00  2.9664919994565149e+00 -1.5770280485176032e-02 0.0000000000000000e+00  2.9766062545964873e+00 -2.4423108438299038e-02 0.0000000000000000e+00  2.9669918551246979e+00 -2.1598200710612723e-02 0.0000000000000000e+00  2.9769727656140827e+00 -2.0144012625291551e-02 0.0000000000000000e+00  2.9674559598824701e+00 -2.2772256358718670e-02 0.0000000000000000e+00  2.9764772176775938e+00 -1.4297789917579504e-02 0.0000000000000000e+00  2.9690260742796806e+00 -1.8005507969875108e-02 0.0000000000000000e+00  2.9757723811807621e+00 -1.2062650494417336e-02 0.0000000000000000e+00  2.9698634551926659e+00 -1.6922370617584278e-02 0.0000000000000000e+00  2.9758563044851218e+00 -2.8983905986344455e-02 0.0000000000000000e+00  2.9706443807854530e+00 -4.3951931971129017e-02 0.0000000000000000e+00  2.9748910912975095e+00 -6.4179000477077003e-02 0.0000000000000000e+00  2.9721049228083798e+00 -7.2158603172481045e-02 0.0000000000000000e+00  2.9738210435818844e+00 -7.5899040542170906e-02 0.0000000000000000e+00  2.9726612451398564e+00 -6.8091383041848932e-02 0.0000000000000000e+00  2.9734895607504610e+00 -5.4228463430904657e-02 0.0000000000000000e+00  2.9731282793532618e+00 -5.7663211897235798e-02 0.0000000000000000e+00  2.9721542856046286e+00 -2.9978333709839079e-02 0.0000000000000000e+00  2.9740657134283932e+00 0.0000000000000000e+00 0.0000000000000000e+00  1.3206282444135746e+00 0.0000000000000000e+00 4.9223392934220629e-02  1.3189542540359049e+00 4.6044569905915524e-02 2.9929194270739488e-03  1.3184507341618721e+00 3.9534210144233757e-02 -2.6882091438656140e-02  1.3213381272426468e+00 9.2800730938818174e-02 1.6340934732975694e-03  1.3184099470541559e+00 1.2393390029950445e-01 1.4923235368089212e-02  1.3191196386098012e+00 1.5149337740486254e-01 -2.3539413076926995e-02  1.3204305740005213e+00 2.0200010834708654e-01 2.5381202245682570e-02  1.3189863262048729e+00 2.0982933960085931e-01 -2.1396286873678335e-02  1.3181819775704118e+00 2.7426970242607834e-01 2.1124899838844191e-02  1.3208120344175533e+00 2.8242741011778744e-01 -2.2075420818954819e-02  1.3181889500079669e+00 3.3542454897139995e-01 2.4415497545087414e-02  1.3184650693705540e+00 3.5124863888105423e-01 -2.1799080663272009e-02  1.3200213217287193e+00 4.0817972086084903e-01 1.8884311366431109e-02  1.3184802904871957e+00 4.1695490186616491e-01 -1.7986658066526429e-02  1.3177718010663457e+00 4.7148796207855342e-01 2.4603794448129067e-02  1.3202750272669901e+00 4.8661688860402691e-01 -3.2152069762446181e-02  1.3178438843230447e+00 5.4198543852829129e-01 3.5159644054919274e-02  1.3183073957541709e+00 5.4826487287386805e-01 -3.0581848396652112e-02  1.3195287196873140e+00 6.1070093914647627e-01 2.6880213842513618e-02  1.3186207622069575e+00 6.1544338142109190e-01 -2.8002485882244899e-02  1.3178108598215690e+00 6.7536712287644063e-01 3.1152287069163710e-02  1.3203605489029127e+00 6.8496730115637217e-01 -2.8404623499794165e-02  1.3184150156990264e+00 7.3812911330689668e-01 2.3991747073084900e-02  1.3190749181442314e+00 7.4787162063822465e-01 -2.2063426683500094e-02  1.3204970831552916e+00 8.0701902614076693e-01 2.2666815968390052e-02  1.3202083888664162e+00 8.1351055950317741e-01 -1.9873539897070951e-02  1.3201508564847717e+00 8.6206663985774346e-01 1.5986289682851183e-02  1.3228646269981896e+00 8.8148102921317761e-01 -1.4002582078681271e-02  1.3227266330493923e+00 9.2310085568629285e-01 1.2987715746569282e-02  1.3238852550797517e+00 9.3760935929912259e-01 -1.0641047439931496e-02  1.3272482348397703e+00 9.8113888577699204e-01 8.2122415994499223e-03  1.3285246034353420e+00 9.9509915817810279e-01 -7.3546624417404382e-03  1.3312861204077291e+00 1.0273238480151266e+00 6.3014457208386164e-03  1.3357980291785381e+00 1.0485637713205709e+00 -5.0554633062988149e-03  1.3396593179862513e+00 1.0735641260175497e+00 3.9322217787109747e-03  1.3435380736199038e+00 1.0859740139495997e+00 -4.0121058916018689e-03  1.3506615327135694e+00 1.1152444803835992e+00 3.5235501173498753e-03  1.3554887192508427e+00 1.1244325947533438e+00 -3.5560453054187292e-03  1.3615978197556386e+00 1.1448176582689780e+00 3.4773149677202742e-03  1.3688181123147107e+00 1.1602260720735034e+00 -4.0033895256041414e-03  1.3751690447109919e+00 1.1792030502946438e+00 4.3369876117016577e-03  1.3809971315191201e+00 1.1866925405511768e+00 -5.1925126264459366e-03  1.3886536092704385e+00 1.2149152681654132e+00 5.7307345132570240e-03  1.3949223663892474e+00 1.2203502513889153e+00 -6.4850675644054371e-03  1.4006455326801315e+00 1.2433481433448315e+00 7.0433343867726270e-03  1.4084107395086971e+00 1.2549237189825297e+00 -7.7306542634117447e-03  1.4142071587596599e+00 1.2781883438985711e+00 8.1979771389943373e-03  1.4206449605222420e+00 1.2828659961750042e+00 -8.7731872677227520e-03  1.4272997442613438e+00 1.3139636930232945e+00 9.2497136333285126e-03  1.4343950117993027e+00 1.3169842572895540e+00 -9.5957704663860565e-03  1.4392967744370935e+00 1.3430224113701972e+00 9.8806659027285918e-03  1.4476224439222558e+00 1.3516360979947708e+00 -1.0162831114582258e-02  1.4527253863548302e+00 1.3774854926744315e+00 1.0230183281305495e-02  1.4597818901376245e+00 1.3812341358484754e+00 -1.0192824164652387e-02  1.4657390394920127e+00 1.4116595662314382e+00 9.9987812983044870e-03  1.4732200325268245e+00 1.4159741802906940e+00 -9.7407600088756929e-03  1.4777813331904310e+00 1.4409588969508293e+00 9.3609320649062615e-03  1.4863393249175756e+00 1.4501323469593674e+00 -8.9794078011758028e-03  1.4909830554744361e+00 1.4751019238881242e+00 8.4693788661213774e-03  1.4985163452428749e+00 1.4804282319085367e+00 -7.7420461830465031e-03  1.5041192019291199e+00 1.5074874958787241e+00 6.9291339584343654e-03  1.5115544870290321e+00 1.5157586352684869e+00 -5.9362992398460119e-03  1.5165067751125654e+00 1.5358628876582865e+00 5.1016826193407486e-03  1.5245160011270737e+00 1.5496868949945704e+00 -4.1102602524763871e-03  1.5295383891323793e+00 1.5691203029566982e+00 3.4518977628862795e-03  1.5368073234633610e+00 1.5797920682735489e+00 -2.4527512970078332e-03  1.5426031782432406e+00 1.6009582241377180e+00 1.8341039789580346e-03  1.5495454409306082e+00 1.6142565279172336e+00 -7.4744424373029657e-04  1.5551835725400422e+00 1.6293294853296352e+00 2.6392414152494700e-04  1.5622825436675760e+00 1.6474746506340996e+00 8.2053353864692733e-04  1.5680983210781825e+00 1.6617441828124824e+00 -1.1415517045430558e-03  1.5745264250274207e+00 1.6773374992912713e+00 2.2560641167104129e-03  1.5811316932982729e+00 1.6932810906572677e+00 -2.5385795949357920e-03  1.5869444911064370e+00 1.7104868710343042e+00 3.6475313369955715e-03  1.5937540593459552e+00 1.7217887006920323e+00 -3.8201600546325706e-03  1.5995947725599631e+00 1.7429349500460409e+00 4.6336460272879670e-03  1.6062547540627046e+00 1.7530371341506423e+00 -4.5933574759782197e-03  1.6120509406543901e+00 1.7725098198608549e+00 4.9345203290576791e-03  1.6188953764639928e+00 1.7840146332990852e+00 -4.7125796048732493e-03  1.6244036904519215e+00 1.8037530787918670e+00 4.4889932496681205e-03  1.6312026063430607e+00 1.8131613843721273e+00 -4.0545657814989953e-03  1.6371991506624839e+00 1.8338496704042455e+00 3.243