<?xml version="1.0"?>
<VTKFile type="UnstructuredGrid"  version="0.1"  >
<UnstructuredGrid>
<Piece  NumberOfPoints="8241" NumberOfCells="16000">
<Points>
<DataArray  type="Float64"  NumberOfComponents="3"  format="ascii">-5 -1 0  -4.95 -1 0  -4.9 -1 0  -4.85 -1 0  -4.8 -1 0  -4.75 -1 0  -4.7 -1 0  -4.65 -1 0  -4.6 -1 0  -4.55 -1 0  -4.5 -1 0  -4.45 -1 0  -4.4 -1 0  -4.35 -1 0  -4.3 -1 0  -4.25 -1 0  -4.2 -1 0  -4.15 -1 0  -4.1 -1 0  -4.05 -1 0  -4 -1 0  -3.95 -1 0  -3.9 -1 0  -3.85 -1 0  -3.8 -1 0  -3.75 -1 0  -3.7 -1 0  -3.65 -1 0  -3.6 -1 0  -3.55 -1 0  -3.5 -1 0  -3.45 -1 0  -3.4 -1 0  -3.35 -1 0  -3.3 -1 0  -3.25 -1 0  -3.2 -1 0  -3.15 -1 0  -3.1 -1 0  -3.05 -1 0  -3 -1 0  -2.95 -1 0  -2.9 -1 0  -2.85 -1 0  -2.8 -1 0  -2.75 -1 0  -2.7 -1 0  -2.65 -1 0  -2.6 -1 0  -2.55 -1 0  -2.5 -1 0  -2.45 -1 0  -2.4 -1 0  -2.35 -1 0  -2.3 -1 0  -2.25 -1 0  -2.2 -1 0  -2.15 -1 0  -2.1 -1 0  -2.05 -1 0  -2 -1 0  -1.95 -1 0  -1.9 -1 0  -1.85 -1 0  -1.8 -1 0  -1.75 -1 0  -1.7 -1 0  -1.65 -1 0  -1.6 -1 0  -1.55 -1 0  -1.5 -1 0  -1.45 -1 0  -1.4 -1 0  -1.35 -1 0  -1.3 -1 0  -1.25 -1 0  -1.2 -1 0  -1.15 -1 0  -1.1 -1 0  -1.05 -1 0  -1 -1 0  -0.9500000000000002 -1 0  -0.9000000000000004 -1 0  -0.8499999999999996 -1 0  -0.7999999999999998 -1 0  -0.75 -1 0  -0.7000000000000002 -1 0  -0.6500000000000004 -1 0  -0.5999999999999996 -1 0  -0.5499999999999998 -1 0  -0.5 -1 0  -0.4500000000000002 -1 0  -0.4000000000000004 -1 0  -0.3499999999999996 -1 0  -0.2999999999999998 -1 0  -0.25 -1 0  -0.2000000000000002 -1 0  -0.1500000000000004 -1 0  -0.09999999999999964 -1 0  -0.04999999999999982 -1 0  0 -1 0  0.04999999999999982 -1 0  0.09999999999999964 -1 0  0.1500000000000004 -1 0  0.2000000000000002 -1 0  0.25 -1 0  0.2999999999999998 -1 0  0.3499999999999996 -1 0  0.4000000000000004 -1 0  0.4500000000000002 -1 0  0.5 -1 0  0.5499999999999998 -1 0  0.5999999999999996 -1 0  0.6500000000000004 -1 0  0.7000000000000002 -1 0  0.75 -1 0  0.7999999999999998 -1 0  0.8499999999999996 -1 0  0.9000000000000004 -1 0  0.9500000000000002 -1 0  1 -1 0  1.05 -1 0  1.1 -1 0  1.15 -1 0  1.2 -1 0  1.25 -1 0  1.3 -1 0  1.35 -1 0  1.4 -1 0  1.45 -1 0  1.5 -1 0  1.55 -1 0  1.6 -1 0  1.65 -1 0  1.7 -1 0  1.75 -1 0  1.8 -1 0  1.85 -1 0  1.9 -1 0  1.95 -1 0  2 -1 0  2.05 -1 0  2.1 -1 0  2.15 -1 0  2.2 -1 0  2.25 -1 0  2.3 -1 0  2.35 -1 0  2.4 -1 0  2.45 -1 0  2.5 -1 0  2.55 -1 0  2.6 -1 0  2.65 -1 0  2.7 -1 0  2.75 -1 0  2.8 -1 0  2.85 -1 0  2.9 -1 0  2.95 -1 0  3 -1 0  3.050000000000001 -1 0  3.1 -1 0  3.15 -1 0  3.199999999999999 -1 0  3.25 -1 0  3.300000000000001 -1 0  3.35 -1 0  3.4 -1 0  3.449999999999999 -1 0  3.5 -1 0  3.550000000000001 -1 0  3.6 -1 0  3.65 -1 0  3.699999999999999 -1 0  3.75 -1 0  3.800000000000001 -1 0  3.85 -1 0  3.9 -1 0  3.949999999999999 -1 0  4 -1 0  4.050000000000001 -1 0  4.1 -1 0  4.15 -1 0  4.199999999999999 -1 0  4.25 -1 0  4.300000000000001 -1 0  4.35 -1 0  4.4 -1 0  4.449999999999999 -1 0  4.5 -1 0  4.550000000000001 -1 0  4.6 -1 0  4.65 -1 0  4.699999999999999 -1 0  4.75 -1 0  4.800000000000001 -1 0  4.85 -1 0  4.9 -1 0  4.949999999999999 -1 0  5 -1 0  -5 -0.95 0  -4.95 -0.95 0  -4.9 -0.95 0  -4.85 -0.95 0  -4.8 -0.95 0  -4.75 -0.95 0  -4.7 -0.95 0  -4.65 -0.95 0  -4.6 -0.95 0  -4.55 -0.95 0  -4.5 -0.95 0  -4.45 -0.95 0  -4.4 -0.95 0  -4.35 -0.95 0  -4.3 -0.95 0  -4.25 -0.95 0  -4.2 -0.95 0  -4.15 -0.95 0  -4.1 -0.95 0  -4.05 -0.95 0  -4 -0.95 0  -3.95 -0.95 0  -3.9 -0.95 0  -3.85 -0.95 0  -3.8 -0.95 0  -3.75 -0.95 0  -3.7 -0.95 0  -3.65 -0.95 0  -3.6 -0.95 0  -3.55 -0.95 0  -3.5 -0.95 0  -3.45 -0.95 0  -3.4 -0.95 0  -3.35 -0.95 0  -3.3 -0.95 0  -3.25 -0.95 0  -3.2 -0.95 0  -3.15 -0.95 0  -3.1 -0.95 0  -3.05 -0.95 0  -3 -0.95 0  -2.95 -0.95 0  -2.9 -0.95 0  -2.85 -0.95 0  -2.8 -0.95 0  -2.75 -0.95 0  -2.7 -0.95 0  -2.65 -0.95 0  -2.6 -0.95 0  -2.55 -0.95 0  -2.5 -0.95 0  -2.45 -0.95 0  -2.4 -0.95 0  -2.35 -0.95 0  -2.3 -0.95 0  -2.25 -0.95 0  -2.2 -0.95 0  -2.15 -0.95 0  -2.1 -0.95 0  -2.05 -0.95 0  -2 -0.95 0  -1.95 -0.95 0  -1.9 -0.95 0  -1.85 -0.95 0  -1.8 -0.95 0  -1.75 -0.95 0  -1.7 -0.95 0  -1.65 -0.95 0  -1.6 -0.95 0  -1.55 -0.95 0  -1.5 -0.95 0  -1.45 -0.95 0  -1.4 -0.95 0  -1.35 -0.95 0  -1.3 -0.95 0  -1.25 -0.95 0  -1.2 -0.95 0  -1.15 -0.95 0  -1.1 -0.95 0  -1.05 -0.95 0  -1 -0.95 0  -0.9500000000000002 -0.95 0  -0.9000000000000004 -0.95 0  -0.8499999999999996 -0.95 0  -0.7999999999999998 -0.95 0  -0.75 -0.95 0  -0.7000000000000002 -0.95 0  -0.6500000000000004 -0.95 0  -0.5999999999999996 -0.95 0  -0.5499999999999998 -0.95 0  -0.5 -0.95 0  -0.4500000000000002 -0.95 0  -0.4000000000000004 -0.95 0  -0.3499999999999996 -0.95 0  -0.2999999999999998 -0.95 0  -0.25 -0.95 0  -0.2000000000000002 -0.95 0  -0.1500000000000004 -0.95 0  -0.09999999999999964 -0.95 0  -0.04999999999999982 -0.95 0  0 -0.95 0  0.04999999999999982 -0.95 0  0.09999999999999964 -0.95 0  0.1500000000000004 -0.95 0  0.2000000000000002 -0.95 0  0.25 -0.95 0  0.2999999999999998 -0.95 0  0.3499999999999996 -0.95 0  0.4000000000000004 -0.95 0  0.4500000000000002 -0.95 0  0.5 -0.95 0  0.5499999999999998 -0.95 0  0.5999999999999996 -0.95 0  0.6500000000000004 -0.95 0  0.7000000000000002 -0.95 0  0.75 -0.95 0  0.7999999999999998 -0.95 0  0.8499999999999996 -0.95 0  0.9000000000000004 -0.95 0  0.9500000000000002 -0.95 0  1 -0.95 0  1.05 -0.95 0  1.1 -0.95 0  1.15 -0.95 0  1.2 -0.95 0  1.25 -0.95 0  1.3 -0.95 0  1.35 -0.95 0  1.4 -0.95 0  1.45 -0.95 0  1.5 -0.95 0  1.55 -0.95 0  1.6 -0.95 0  1.65 -0.95 0  1.7 -0.95 0  1.75 -0.95 0  1.8 -0.95 0  1.85 -0.95 0  1.9 -0.95 0  1.95 -0.95 0  2 -0.95 0  2.05 -0.95 0  2.1 -0.95 0  2.15 -0.95 0  2.2 -0.95 0  2.25 -0.95 0  2.3 -0.95 0  2.35 -0.95 0  2.4 -0.95 0  2.45 -0.95 0  2.5 -0.95 0  2.55 -0.95 0  2.6 -0.95 0  2.65 -0.95 0  2.7 -0.95 0  2.75 -0.95 0  2.8 -0.95 0  2.85 -0.95 0  2.9 -0.95 0  2.95 -0.95 0  3 -0.95 0  3.050000000000001 -0.95 0  3.1 -0.95 0  3.15 -0.95 0  3.199999999999999 -0.95 0  3.25 -0.95 0  3.300000000000001 -0.95 0  3.35 -0.95 0  3.4 -0.95 0  3.449999999999999 -0.95 0  3.5 -0.95 0  3.550000000000001 -0.95 0  3.6 -0.95 0  3.65 -0.95 0  3.699999999999999 -0.95 0  3.75 -0.95 0  3.800000000000001 -0.95 0  3.85 -0.95 0  3.9 -0.95 0  3.949999999999999 -0.95 0  4 -0.95 0  4.050000000000001 -0.95 0  4.1 -0.95 0  4.15 -0.95 0  4.199999999999999 -0.95 0  4.25 -0.95 0  4.300000000000001 -0.95 0  4.35 -0.95 0  4.4 -0.95 0  4.449999999999999 -0.95 0  4.5 -0.95 0  4.550000000000001 -0.95 0  4.6 -0.95 0  4.65 -0.95 0  4.699999999999999 -0.95 0  4.75 -0.95 0  4.800000000000001 -0.95 0  4.85 -0.95 0  4.9 -0.95 0  4.949999999999999 -0.95 0  5 -0.95 0  -5 -0.9 0  -4.95 -0.9 0  -4.9 -0.9 0  -4.85 -0.9 0  -4.8 -0.9 0  -4.75 -0.9 0  -4.7 -0.9 0  -4.65 -0.9 0  -4.6 -0.9 0  -4.55 -0.9 0  -4.5 -0.9 0  -4.45 -0.9 0  -4.4 -0.9 0  -4.35 -0.9 0  -4.3 -0.9 0  -4.25 -0.9 0  -4.2 -0.9 0  -4.15 -0.9 0  -4.1 -0.9 0  -4.05 -0.9 0  -4 -0.9 0  -3.95 -0.9 0  -3.9 -0.9 0  -3.85 -0.9 0  -3.8 -0.9 0  -3.75 -0.9 0  -3.7 -0.9 0  -3.65 -0.9 0  -3.6 -0.9 0  -3.55 -0.9 0  -3.5 -0.9 0  -3.45 -0.9 0  -3.4 -0.9 0  -3.35 -0.9 0  -3.3 -0.9 0  -3.25 -0.9 0  -3.2 -0.9 0  -3.15 -0.9 0  -3.1 -0.9 0  -3.05 -0.9 0  -3 -0.9 0  -2.95 -0.9 0  -2.9 -0.9 0  -2.85 -0.9 0  -2.8 -0.9 0  -2.75 -0.9 0  -2.7 -0.9 0  -2.65 -0.9 0  -2.6 -0.9 0  -2.55 -0.9 0  -2.5 -0.9 0  -2.45 -0.9 0  -2.4 -0.9 0  -2.35 -0.9 0  -2.3 -0.9 0  -2.25 -0.9 0  -2.2 -0.9 0  -2.15 -0.9 0  -2.1 -0.9 0  -2.05 -0.9 0  -2 -0.9 0  -1.95 -0.9 0  -1.9 -0.9 0  -1.85 -0.9 0  -1.8 -0.9 0  -1.75 -0.9 0  -1.7 -0.9 0  -1.65 -0.9 0  -1.6 -0.9 0  -1.55 -0.9 0  -1.5 -0.9 0  -1.45 -0.9 0  -1.4 -0.9 0  -1.35 -0.9 0  -1.3 -0.9 0  -1.25 -0.9 0  -1.2 -0.9 0  -1.15 -0.9 0  -1.1 -0.9 0  -1.05 -0.9 0  -1 -0.9 0  -0.9500000000000002 -0.9 0  -0.9000000000000004 -0.9 0  -0.8499999999999996 -0.9 0  -0.7999999999999998 -0.9 0  -0.75 -0.9 0  -0.7000000000000002 -0.9 0  -0.6500000000000004 -0.9 0  -0.5999999999999996 -0.9 0  -0.5499999999999998 -0.9 0  -0.5 -0.9 0  -0.4500000000000002 -0.9 0  -0.4000000000000004 -0.9 0  -0.3499999999999996 -0.9 0  -0.2999999999999998 -0.9 0  -0.25 -0.9 0  -0.2000000000000002 -0.9 0  -0.1500000000000004 -0.9 0  -0.09999999999999964 -0.9 0  -0.04999999999999982 -0.9 0  0 -0.9 0  0.04999999999999982 -0.9 0  0.09999999999999964 -0.9 0  0.1500000000000004 -0.9 0  0.2000000000000002 -0.9 0  0.25 -0.9 0  0.2999999999999998 -0.9 0  0.3499999999999996 -0.9 0  0.4000000000000004 -0.9 0  0.4500000000000002 -0.9 0  0.5 -0.9 0  0.5499999999999998 -0.9 0  0.5999999999999996 -0.9 0  0.6500000000000004 -0.9 0  0.7000000000000002 -0.9 0  0.75 -0.9 0  0.7999999999999998 -0.9 0  0.8499999999999996 -0.9 0  0.9000000000000004 -0.9 0  0.9500000000000002 -0.9 0  1 -0.9 0  1.05 -0.9 0  1.1 -0.9 0  1.15 -0.9 0  1.2 -0.9 0  1.25 -0.9 0  1.3 -0.9 0  1.35 -0.9 0  1.4 -0.9 0  1.45 -0.9 0  1.5 -0.9 0  1.55 -0.9 0  1.6 -0.9 0  1.65 -0.9 0  1.7 -0.9 0  1.75 -0.9 0  1.8 -0.9 0  1.85 -0.9 0  1.9 -0.9 0  1.95 -0.9 0  2 -0.9 0  2.05 -0.9 0  2.1 -0.9 0  2.15 -0.9 0  2.2 -0.9 0  2.25 -0.9 0  2.3 -0.9 0  2.35 -0.9 0  2.4 -0.9 0  2.45 -0.9 0  2.5 -0.9 0  2.55 -0.9 0  2.6 -0.9 0  2.65 -0.9 0  2.7 -0.9 0  2.75 -0.9 0  2.8 -0.9 0  2.85 -0.9 0  2.9 -0.9 0  2.95 -0.9 0  3 -0.9 0  3.050000000000001 -0.9 0  3.1 -0.9 0  3.15 -0.9 0  3.199999999999999 -0.9 0  3.25 -0.9 0  3.300000000000001 -0.9 0  3.35 -0.9 0  3.4 -0.9 0  3.449999999999999 -0.9 0  3.5 -0.9 0  3.550000000000001 -0.9 0  3.6 -0.9 0  3.65 -0.9 0  3.699999999999999 -0.9 0  3.75 -0.9 0  3.800000000000001 -0.9 0  3.85 -0.9 0  3.9 -0.9 0  3.949999999999999 -0.9 0  4 -0.9 0  4.050000000000001 -0.9 0  4.1 -0.9 0  4.15 -0.9 0  4.199999999999999 -0.9 0  4.25 -0.9 0  4.300000000000001 -0.9 0  4.35 -0.9 0  4.4 -0.9 0  4.449999999999999 -0.9 0  4.5 -0.9 0  4.550000000000001 -0.9 0  4.6 -0.9 0  4.65 -0.9 0  4.699999999999999 -0.9 0  4.75 -0.9 0  4.800000000000001 -0.9 0  4.85 -0.9 0  4.9 -0.9 0  4.949999999999999 -0.9 0  5 -0.9 0  -5 -0.85 0  -4.95 -0.85 0  -4.9 -0.85 0  -4.85 -0.85 0  -4.8 -0.85 0  -4.75 -0.85 0  -4.7 -0.85 0  -4.65 -0.85 0  -4.6 -0.85 0  -4.55 -0.85 0  -4.5 -0.85 0  -
[...]
<PointData  Vectors="f_15"> 
<DataArray  type="Float64"  Name="f_15"  NumberOfComponents="3" format="ascii">2.9366982134044255e+00 0.0000000000000000e+00 0.0000000000000000e+00  2.9398080003700495e+00 2.3422735879541152e-02 0.0000000000000000e+00  2.9333116111988344e+00 2.9599686816294594e-02 0.0000000000000000e+00  2.9340352468162503e+00 5.9960066758601306e-02 0.0000000000000000e+00  2.9243668329862613e+00 7.3976792456534587e-02 0.0000000000000000e+00  2.9219417301082036e+00 9.7360464721922474e-02 0.0000000000000000e+00  2.9112205446653605e+00 1.1890785884634676e-01 0.0000000000000000e+00  2.9046995594458300e+00 1.3928371857037597e-01 0.0000000000000000e+00  2.8928358126441420e+00 1.6498246073652140e-01 0.0000000000000000e+00  2.8843065828501122e+00 1.8441949343353728e-01 0.0000000000000000e+00  2.8701759340804132e+00 2.1446571667362960e-01 0.0000000000000000e+00  2.8598679542430987e+00 2.3253166556420760e-01 0.0000000000000000e+00  2.8452986779104688e+00 2.6681888989122082e-01 0.0000000000000000e+00  2.8322522237168890e+00 2.8439190247847518e-01 0.0000000000000000e+00  2.8172043404293290e+00 3.2247177922304071e-01 0.0000000000000000e+00  2.8034306362162309e+00 3.3870403369335300e-01 0.0000000000000000e+00  2.7866087293198061e+00 3.8213880121276200e-01 0.0000000000000000e+00  2.7722652676493564e+00 3.9562710406995399e-01 0.0000000000000000e+00  2.7553380500044811e+00 4.4442572855050305e-01 0.0000000000000000e+00  2.7393400497066094e+00 4.5542506956343898e-01 0.0000000000000000e+00  2.7221729641376302e+00 5.0983762605884519e-01 0.0000000000000000e+00  2.7063166137131316e+00 5.1622653114830419e-01 0.0000000000000000e+00  2.6876228658756354e+00 5.7895612258054208e-01 0.0000000000000000e+00  2.6719203291032052e+00 5.7847956821599200e-01 0.0000000000000000e+00  2.6532305047650837e+00 6.4990738543631887e-01 0.0000000000000000e+00  2.6365622289555555e+00 6.4286110025735710e-01 0.0000000000000000e+00  2.6177227254980271e+00 7.2302842296530434e-01 0.0000000000000000e+00  2.6016733289639462e+00 7.0771456765961960e-01 0.0000000000000000e+00  2.5814028638634849e+00 7.9855644763215095e-01 0.0000000000000000e+00  2.5660004017119982e+00 7.7422610739383102e-01 0.0000000000000000e+00  2.5456244629107041e+00 8.7426175560171648e-01 0.0000000000000000e+00  2.5297294390666401e+00 8.4212677928442936e-01 0.0000000000000000e+00  2.5091889724929737e+00 9.5404321662885649e-01 0.0000000000000000e+00  2.4940963100008835e+00 9.0377442037881095e-01 0.0000000000000000e+00  2.4722665871062235e+00 1.0444427082933885e+00 0.0000000000000000e+00  2.4578508989654790e+00 9.5787644441030195e-01 0.0000000000000000e+00  2.4360109741525178e+00 1.1380509446501781e+00 0.0000000000000000e+00  2.4213106577929970e+00 1.0198942591822142e+00 0.0000000000000000e+00  2.3988662437633375e+00 1.2143845918291885e+00 0.0000000000000000e+00  2.3860594973311109e+00 1.1097167768958274e+00 0.0000000000000000e+00  2.3609143086331339e+00 1.2573575989059291e+00 0.0000000000000000e+00  2.3506805463808043e+00 1.2324249002303542e+00 0.0000000000000000e+00  2.3237041884808192e+00 1.2757147411723333e+00 0.0000000000000000e+00  2.3148379885921337e+00 1.3627646720662914e+00 0.0000000000000000e+00  2.2861702885201916e+00 1.3089522094033295e+00 0.0000000000000000e+00  2.2793103976593971e+00 1.4596766560633956e+00 0.0000000000000000e+00  2.2491399314630867e+00 1.3852051585606142e+00 0.0000000000000000e+00  2.2424106067362719e+00 1.5246342748929449e+00 0.0000000000000000e+00  2.2138619488265725e+00 1.4724927862633685e+00 0.0000000000000000e+00  2.2050647669001804e+00 1.6005955626246362e+00 0.0000000000000000e+00  2.1777808961297720e+00 1.5454670042142302e+00 0.0000000000000000e+00  2.1692937588225658e+00 1.6780449744353150e+00 0.0000000000000000e+00  2.1411104730007495e+00 1.6322093802550066e+00 0.0000000000000000e+00  2.1331313549045543e+00 1.7436466052889079e+00 0.0000000000000000e+00  2.1058502261371124e+00 1.7153861208839400e+00 0.0000000000000000e+00  2.0966431901132307e+00 1.8213480888338938e+00 0.0000000000000000e+00  2.0703228973602932e+00 1.7933195504539117e+00 0.0000000000000000e+00  2.0617285223416140e+00 1.8918819801416662e+00 0.0000000000000000e+00  2.0342285628661312e+00 1.8794472773478335e+00 0.0000000000000000e+00  2.0270815211970605e+00 1.9606089213630518e+00 0.0000000000000000e+00  1.9997553538198525e+00 1.9628652905494075e+00 0.0000000000000000e+00  1.9917093286627221e+00 2.0312311827890692e+00 0.0000000000000000e+00  1.9664048171870951e+00 2.0410788297282152e+00 0.0000000000000000e+00  1.9580114547508189e+00 2.1037583165187757e+00 0.0000000000000000e+00  1.9327648932655010e+00 2.1204447217069600e+00 0.0000000000000000e+00  1.9261293232251979e+00 2.1700687515199903e+00 0.0000000000000000e+00  1.9014134442787618e+00 2.1939173402880541e+00 0.0000000000000000e+00  1.8953854782560198e+00 2.2389068337432012e+00 0.0000000000000000e+00  1.8738118041475056e+00 2.2583386486943144e+00 0.0000000000000000e+00  1.8700924611498506e+00 2.2942588516203650e+00 0.0000000000000000e+00  1.8514696873603766e+00 2.3117012876904415e+00 0.0000000000000000e+00  1.8537593300022981e+00 2.3279479108642458e+00 0.0000000000000000e+00  1.8403515166136246e+00 2.3424918599491882e+00 0.0000000000000000e+00  1.8470126724783180e+00 2.3388336447902640e+00 0.0000000000000000e+00  1.8395234722676868e+00 2.3488816377069961e+00 0.0000000000000000e+00  1.8478349254271831e+00 2.3309426732270402e+00 0.0000000000000000e+00  1.8403573835028757e+00 2.3534076704962112e+00 0.0000000000000000e+00  1.8493241306834127e+00 2.3219952239516384e+00 0.0000000000000000e+00  1.8418326032294166e+00 2.3550026798887882e+00 0.0000000000000000e+00  1.8490197416077070e+00 2.3183394510211888e+00 0.0000000000000000e+00  1.8434792018419819e+00 2.3537946089242330e+00 0.0000000000000000e+00  1.8494148364351046e+00 2.3158689547479621e+00 0.0000000000000000e+00  1.8439215057525278e+00 2.3543363549615366e+00 0.0000000000000000e+00  1.8495422023160990e+00 2.3145143345057351e+00 0.0000000000000000e+00  1.8451530532975540e+00 2.3515091266911989e+00 0.0000000000000000e+00  1.8486455843831209e+00 2.3170014876768668e+00 0.0000000000000000e+00  1.8466754006685528e+00 2.3472905170755207e+00 0.0000000000000000e+00  1.8483509959238713e+00 2.3185710026830777e+00 0.0000000000000000e+00  1.8471831469782352e+00 2.3454649755737136e+00 0.0000000000000000e+00  1.8473219718819480e+00 2.3209925827090254e+00 0.0000000000000000e+00  1.8488628706529870e+00 2.3409243531909478e+00 0.0000000000000000e+00  1.8459893843498363e+00 2.3254953097339208e+00 0.0000000000000000e+00  1.8502923922998666e+00 2.3356092201304577e+00 0.0000000000000000e+00  1.8452745055251238e+00 2.3291364942514381e+00 0.0000000000000000e+00  1.8508022260419446e+00 2.3325507154471699e+00 0.0000000000000000e+00  1.8446425721141779e+00 2.3319023145451201e+00 0.0000000000000000e+00  1.8517172974350113e+00 2.3289354957024999e+00 0.0000000000000000e+00  1.8440925284091212e+00 2.3349647493839125e+00 0.0000000000000000e+00  1.8519502102361607e+00 2.3263443865200535e+00 0.0000000000000000e+00  1.8438876303431808e+00 2.3366308012089396e+00 0.0000000000000000e+00  1.8526503889346357e+00 2.3239927881273439e+00 0.0000000000000000e+00  1.8430803964639695e+00 2.3387881302473232e+00 0.0000000000000000e+00  1.8526894447764835e+00 2.3226464218065233e+00 0.0000000000000000e+00  1.8440593037056867e+00 2.3384662213520455e+00 0.0000000000000000e+00  1.8514044202823479e+00 2.3231784698187727e+00 0.0000000000000000e+00  1.8451114832199360e+00 2.3371473515083099e+00 0.0000000000000000e+00  1.8510281955350310e+00 2.3242079783437011e+00 0.0000000000000000e+00  1.8446288220738249e+00 2.3365902124826068e+00 0.0000000000000000e+00  1.8516260325921092e+00 2.3243128209577959e+00 0.0000000000000000e+00  1.8448870174876439e+00 2.3341508681740248e+00 0.0000000000000000e+00  1.8513548027633115e+00 2.3264580089933560e+00 0.0000000000000000e+00  1.8432592697866812e+00 2.3348623796824763e+00 0.0000000000000000e+00  1.8547801068267924e+00 2.3210068090860494e+00 0.0000000000000000e+00  1.8402936139911468e+00 2.3397682811894631e+00 0.0000000000000000e+00  1.8556043983212505e+00 2.3180834431435486e+00 0.0000000000000000e+00  1.8412389722897187e+00 2.3403375156818114e+00 0.0000000000000000e+00  1.8537624914305106e+00 2.3177845953544431e+00 0.0000000000000000e+00  1.8434409125070301e+00 2.3400872323907280e+00 0.0000000000000000e+00  1.8514379687101594e+00 2.3179068987085332e+00 0.0000000000000000e+00  1.8460922968987150e+00 2.3390234814699218e+00 0.0000000000000000e+00  1.8475771991587422e+00 2.3220130470664464e+00 0.0000000000000000e+00  1.8512223524213347e+00 2.3305760232299981e+00 0.0000000000000000e+00  1.8425655088657447e+00 2.3321681238580148e+00 0.0000000000000000e+00  1.8543350109068384e+00 2.3225711378673695e+00 0.0000000000000000e+00  1.8413137734867031e+00 2.3375362165247613e+00 0.0000000000000000e+00  1.8545851774750932e+00 2.3175438831156945e+00 0.0000000000000000e+00  1.8415521645345487e+00 2.3426906216076793e+00 0.0000000000000000e+00  1.8533242271194714e+00 2.3128245383091084e+00 0.0000000000000000e+00  1.8437466726205947e+00 2.3452469518062347e+00 0.0000000000000000e+00  1.8506810504084781e+00 2.3116317439760494e+00 0.0000000000000000e+00  1.8464181388052461e+00 2.3456744850663629e+00 0.0000000000000000e+00  1.8476280767994617e+00 2.3116842189276028e+00 0.0000000000000000e+00  1.8498281383624984e+00 2.3437373357245970e+00 0.0000000000000000e+00  1.8443601299576937e+00 2.3103652555448595e+00 0.0000000000000000e+00  1.8521817594347898e+00 2.3407464974060410e+00 0.0000000000000000e+00  1.8429155303392617e+00 2.3043960249967483e+00 0.0000000000000000e+00  1.8530965132204129e+00 2.3370956014488247e+00 0.0000000000000000e+00  1.8419772006348045e+00 2.2967743278460300e+00 0.0000000000000000e+00  1.8540887024585773e+00 2.3341331847373681e+00 0.0000000000000000e+00  1.8411226669390603e+00 2.2899604510859293e+00 0.0000000000000000e+00  1.8543397369007775e+00 2.3360901790205406e+00 0.0000000000000000e+00  1.8415391334985722e+00 2.2846714556696543e+00 0.0000000000000000e+00  1.8535828868072191e+00 2.3428182180641701e+00 0.0000000000000000e+00  1.8420748447769075e+00 2.2828633838357852e+00 0.0000000000000000e+00  1.8532774043917863e+00 2.3508108294376413e+00 0.0000000000000000e+00  1.8425222889550310e+00 2.2816549451167005e+00 0.0000000000000000e+00  1.8523779807132996e+00 2.3600280996138672e+00 0.0000000000000000e+00  1.8434623437066904e+00 2.2799751977943381e+00 0.0000000000000000e+00  1.8517031076246979e+00 2.3660494746454681e+00 0.0000000000000000e+00  1.8439984095515825e+00 2.2788560238229914e+00 0.0000000000000000e+00  1.8506133747454940e+00 2.3722837042484142e+00 0.0000000000000000e+00  1.8455574853421965e+00 2.2737110880712366e+00 0.0000000000000000e+00  1.8491107863665197e+00 2.3782835650269383e+00 0.0000000000000000e+00  1.8462796895155711e+00 2.2715488116680023e+00 0.0000000000000000e+00  1.8488061659143853e+00 2.3788999513862623e+00 0.0000000000000000e+00  1.8466669458331881e+00 2.2704748018974810e+00 0.0000000000000000e+00  1.8484246221649874e+00 2.3797723424238053e+00 0.0000000000000000e+00  1.8465167778022300e+00 2.2692493267069729e+00 0.0000000000000000e+00  1.8498312848242808e+00 2.3751908409277411e+00 0.0000000000000000e+00  1.8455197936270014e+00 2.2729557673966716e+00 0.0000000000000000e+00  1.8505554289990456e+00 2.3680934780494947e+00 0.0000000000000000e+00  1.8473194746602586e+00 2.2732411142906934e+00 0.0000000000000000e+00  1.8508051245738368e+00 2.3609527618879529e+00 0.0000000000000000e+00  1.8479638734781558e+00 2.2772990112377323e+00 0.0000000000000000e+00  1.8552602739136139e+00 2.3436031833236299e+00 0.0000000000000000e+00  1.8482954411110604e+00 2.2846509777584947e+00 0.0000000000000000e+00  1.8580609061877811e+00 2.3280332443785219e+00 0.0000000000000000e+00  1.8545663401451160e+00 2.2820870062713730e+00 0.0000000000000000e+00  1.8586670463303610e+00 2.3144191480027159e+00 0.0000000000000000e+00  1.8607461205475213e+00 2.2840113529414845e+00 0.0000000000000000e+00  1.8634006443282429e+00 2.2898836983841755e+00 0.0000000000000000e+00  1.8644947669407292e+00 2.2912296456279964e+00 0.0000000000000000e+00  1.8671952956711284e+00 2.2726328367899482e+00 0.0000000000000000e+00  1.8712349322327657e+00 2.2873212722952507e+00 0.0000000000000000e+00  1.8667075355993403e+00 2.2670377566186501e+00 0.0000000000000000e+00  1.8778656547230366e+00 2.2883980280529048e+00 0.0000000000000000e+00  1.8663069418159821e+00 2.2553000082533865e+00 0.0000000000000000e+00  1.8807778220312321e+00 2.3018107395802700e+00 0.0000000000000000e+00  1.8654013436297738e+00 2.2476758425667756e+00 0.0000000000000000e+00  1.8821739296245035e+00 2.3053270517590723e+00 0.0000000000000000e+00  1.8630172874823585e+00 2.2506954866240467e+00 0.0000000000000000e+00  1.8793188103925569e+00 2.2900965262310140e+00 0.0000000000000000e+00  1.8620554222396759e+00 2.2398080211814255e+00 0.0000000000000000e+00  1.8700479141489510e+00 2.2623703085780287e+00 0.0000000000000000e+00  1.8512904606261422e+00 2.1969490920689334e+00 0.0000000000000000e+00  1.8401446768701970e+00 2.1896116194992343e+00 0.0000000000000000e+00  1.7723050984034079e+00 2.0220900847852317e+00 0.0000000000000000e+00  1.7011323271039913e+00 1.8738418830450538e+00 0.0000000000000000e+00  1.4388827649051468e+00 1.1875401316301257e+00 0.0000000000000000e+00  1.1579804875716377e+00 4.5710547821255787e-01 0.0000000000000000e+00  1.0401242443199339e+00 1.5655890354245756e-02 0.0000000000000000e+00  1.0155316757295711e+00 4.1121065039886030e-02 0.0000000000000000e+00  1.0082593101349260e+00 -5.4395704109672385e-02 0.0000000000000000e+00  1.0161289876563071e+00 1.9100890620258961e-02 0.0000000000000000e+00  9.9929219337539821e-01 -3.4901324356698196e-02 0.0000000000000000e+00  1.0159759417029066e+00 3.2156890176381222e-03 0.0000000000000000e+00  9.9425379705268735e-01 -1.7872707762635970e-02 0.0000000000000000e+00  1.0143174309718019e+00 -4.1558662869766961e-03 0.0000000000000000e+00  9.8879579531484807e-01 -8.7007982456380022e-03 0.0000000000000000e+00  1.0096815721854291e+00 -3.2878333194859841e-03 0.0000000000000000e+00  9.9003163238381242e-01 0.0000000000000000e+00 0.0000000000000000e+00  2.9427440862994851e+00 0.0000000000000000e+00 -8.1561186248971795e-03  2.9419115373907108e+00 2.2174375923032352e-02 2.4741399352123310e-03  2.9405756018814295e+00 4.6356775179493631e-02 2.2905380881917603e-03  2.9364998007829715e+00 6.7095628883723349e-02 -1.2115484516317008e-03  2.9321138390328079e+00 8.6554870129951347e-02 1.0784847200852091e-03  2.9263267323576008e+00 1.1065101066940404e-01 -9.0893780557522704e-04  2.9182719374501982e+00 1.3140631281221643e-01 1.2823050210399721e-03  2.9104388862520345e+00 1.5436349977893810e-01 -1.4571532887040321e-03  2.9007735397379633e+00 1.7813933603166254e-01 1.8640422863264927e-03  2.8898649596189432e+00 2.0150890173491154e-01 -2.2049283603268422e-03  2.8786852541874821e+00 2.2707383921107441e-01 2.5276879412471243e-03  2.8666621570011799e+00 2.5133004863318797e-01 -2.8591660325073378e-03  2.8529248136838907e+00 2.7940115440690760e-01 3.1125142137214952e-03  2.8399003621171679e+00 3.0409860681743284e-01 -3.4716661901677192e-03  2.8255184971382503e+00 3.3416659602276344e-01 3.7176115658647604e-03  2.8103706769899328e+00 3.6042098725787802e-01 -4.1051241389693793e-03  2.7954000065700173e+00 3.9172441304280853e-01 4.2416801080519938e-03  2.7799598346526642e+00 4.1904301538047006e-01 -4.5311637363545871e-03  2.7632091001573471e+00 4.5240396520500764e-01 4.5109041287364595e-03  2.7474605402086314e+00 4.8041572517923653e-01 -4.6980037270193181e-03  2.7306594259849315e+00 5.1460285675343143e-01 4.5739297254460106e-03  2.7133779343626818e+00 5.4487084903381011e-01 -4.6208592278102990e-03  2.6964658181063093e+00 5.7875417929672324e-01 4.3051475587490206e-03  2.6792541031964157e+00 6.1064017255264136e-01 -4.1102732217828744e-03  2.6610517276856993e+00 6.4528796951037459e-01 3.5338260620374250e-03  2.6437658697483659e+00 6.7820370328999935e-01 -3.0330047584980796e-03  2.6258654838060171e+00 7.1234978264646209e-01 2.1676928923191601e-03  2.6072408213245599e+00 7.4813810244825119e-01 -1.3036471254827310e-03  2.5896250834579102e+00 7.8051300355678765e-01 2.0608681751458486e-04  2.5710704703862977e+00 8.1850981469441697e-01 7.8319741793791585e-04  2.5525675911934789e+00 8.5023445722272406e-01 -1.7121243429485773e-03  2.5340583601983000e+00 8.9088302435155409e-01 2.3883650637920254e-03  2.5160274873122050e+00 9.1802633269500267e-01 -2.9577409436971165e-03  2.4963600373388104e+00 9.6741071345510043e-01 3.9926059600649830e-03  2.4789371015945787e+00 9.8498468152360630e-01 -6.0573914281151133e-03  2.4590432405032745e+00 1.0432782438291088e+00 1.0425295366914202e-02  2.4417423676709680e+00 1.0565698643353576e+00 -1.7269806821775320e-02  2.4206533351116075e+00 1.1156108203892570e+00 2.6154274176006513e-02  2.4056690181405962e+00 1.1322973115488755e+00 -3.4860791014329824e-02  2.3819134663693919e+00 1.1865247052115082e+00 4.0279839342136012e-02  2.3685438047507064e+00 1.2120600833938906e+00 -3.8661433308858184e-02  2.3453907486901118e+00 1.2528106314378620e+00 2.9312901949237916e-02  2.3297439132521061e+00 1.2987182415213001e+00 -1.1644171666539497e-02  2.3099136250491279e+00 1.3149799401605125e+00 -8.5337978680965869e-03  2.2910927140160129e+00 1.3847055596913409e+00 2.7698761077762913e-02  2.2744578973098188e+00 1.3845803632537803e+00 -3.8992424974650969e-02  2.2527241398080511e+00 1.4613479587484315e+00 4.1080067986901933e-02  2.2388879224364433e+00 1.4611997647871831e+00 -3.4631565405558777e-02  2.2158201296961635e+00 1.5365273071693755e+00 2.3858163057171949e-02  2.2013122787805144e+00 1.5398279009827931e+00 -1.3761510528079687e-02  2.1810070975248177e+00 1.6045077679864621e+00 6.6023355121091649e-03  2.1633927989524908e+00 1.6314515182053166e+00 -2.6761249197438941e-03  2.1454799452471787e+00 1.6660238637565208e+00 -2.5141662112457736e-04  2.1274511127638154e+00 1.7148649588632234e+00 2.2716174435364798e-03  2.1092991579772002e+00 1.7455789958752239e+00 -3.5370401056438981e-03  2.0916308732737772e+00 1.7882465020808791e+00 3.3730034069301851e-03  2.0743694640659500e+00 1.8204097728596775e+00 -2.5859940925094084e-03  2.0557244968139958e+00 1.8704107727704140e+00 1.2681716627503711e-03  2.0392987136567258e+00 1.8955781199855493e+00 1.6044616817835835e-04  2.0216402491317651e+00 1.9440685367558570e+00 -2.0537680006844101e-03  2.0034606634325165e+00 1.9761708900557435e+00 3.0568921826149321e-03  1.9883187762332712e+00 2.0164204780402031e+00 -3.8342153491056265e-03  1.9691949597985861e+00 2.0554696050545003e+00 4.8554790412992923e-03  1.9544162093257587e+00 2.0900568400701305e+00 -6.5754800916200144e-03  1.9363903093635915e+00 2.1291233754671706e+00 7.6241686853010405e-03  1.9224444106892609e+00 2.1617147640719865e+00 -8.2688896511436717e-03  1.9042219170566261e+00 2.2048474400504858e+00 8.6412297922540248e-03  1.8932383410606386e+00 2.2255836953406898e+00 -9.1458217250566364e-03  1.8761217938738908e+00 2.2690680825768417e+00 8.9503798254310790e-03  1.8672135518082276e+00 2.2856052672327962e+00 -8.7738902949015853e-03  1.8547707097682105e+00 2.3178041861725487e+00 8.7814044870999312e-03  1.8503777601592544e+00 2.3256542932868371e+00 -8.8327347184800221e-03  1.8425794421085064e+00 2.3447422800160771e+00 8.6296170112161157e-03  1.8453678414456240e+00 2.3369546131579604e+00 -8.8024537204140340e-03  1.8413119961171340e+00 2.3479615605872328e+00 9.0418871503407348e-03  1.8454768594808941e+00 2.3375002105564078e+00 -9.1128412504864111e-03  1.8430195063664987e+00 2.3437737454346030e+00 8.9315778436290724e-03  1.8468174998124818e+00 2.3336323622376569e+00 -8.9161357711067795e-03  1.8433437215614155e+00 2.3437185092315560e+00 8.5844749301743975e-03  1.8481953897710630e+00 2.3296926264307523e+00 -8.0726987217072891e-03  1.8445301109781753e+00 2.3423223691148687e+00 7.5419628994642237e-03  1.8478189205174431e+00 2.3298449319658028e+00 -7.2069629544049378e-03  1.8455973439619775e+00 2.3397281025