<?xml version="1.0"?>
<VTKFile type="UnstructuredGrid"  version="0.1"  >
<UnstructuredGrid>
<Piece  NumberOfPoints="8241" NumberOfCells="16000">
<Points>
<DataArray  type="Float64"  NumberOfComponents="3"  format="ascii">-5 -1 0  -4.95 -1 0  -4.9 -1 0  -4.85 -1 0  -4.8 -1 0  -4.75 -1 0  -4.7 -1 0  -4.65 -1 0  -4.6 -1 0  -4.55 -1 0  -4.5 -1 0  -4.45 -1 0  -4.4 -1 0  -4.35 -1 0  -4.3 -1 0  -4.25 -1 0  -4.2 -1 0  -4.15 -1 0  -4.1 -1 0  -4.05 -1 0  -4 -1 0  -3.95 -1 0  -3.9 -1 0  -3.85 -1 0  -3.8 -1 0  -3.75 -1 0  -3.7 -1 0  -3.65 -1 0  -3.6 -1 0  -3.55 -1 0  -3.5 -1 0  -3.45 -1 0  -3.4 -1 0  -3.35 -1 0  -3.3 -1 0  -3.25 -1 0  -3.2 -1 0  -3.15 -1 0  -3.1 -1 0  -3.05 -1 0  -3 -1 0  -2.95 -1 0  -2.9 -1 0  -2.85 -1 0  -2.8 -1 0  -2.75 -1 0  -2.7 -1 0  -2.65 -1 0  -2.6 -1 0  -2.55 -1 0  -2.5 -1 0  -2.45 -1 0  -2.4 -1 0  -2.35 -1 0  -2.3 -1 0  -2.25 -1 0  -2.2 -1 0  -2.15 -1 0  -2.1 -1 0  -2.05 -1 0  -2 -1 0  -1.95 -1 0  -1.9 -1 0  -1.85 -1 0  -1.8 -1 0  -1.75 -1 0  -1.7 -1 0  -1.65 -1 0  -1.6 -1 0  -1.55 -1 0  -1.5 -1 0  -1.45 -1 0  -1.4 -1 0  -1.35 -1 0  -1.3 -1 0  -1.25 -1 0  -1.2 -1 0  -1.15 -1 0  -1.1 -1 0  -1.05 -1 0  -1 -1 0  -0.9500000000000002 -1 0  -0.9000000000000004 -1 0  -0.8499999999999996 -1 0  -0.7999999999999998 -1 0  -0.75 -1 0  -0.7000000000000002 -1 0  -0.6500000000000004 -1 0  -0.5999999999999996 -1 0  -0.5499999999999998 -1 0  -0.5 -1 0  -0.4500000000000002 -1 0  -0.4000000000000004 -1 0  -0.3499999999999996 -1 0  -0.2999999999999998 -1 0  -0.25 -1 0  -0.2000000000000002 -1 0  -0.1500000000000004 -1 0  -0.09999999999999964 -1 0  -0.04999999999999982 -1 0  0 -1 0  0.04999999999999982 -1 0  0.09999999999999964 -1 0  0.1500000000000004 -1 0  0.2000000000000002 -1 0  0.25 -1 0  0.2999999999999998 -1 0  0.3499999999999996 -1 0  0.4000000000000004 -1 0  0.4500000000000002 -1 0  0.5 -1 0  0.5499999999999998 -1 0  0.5999999999999996 -1 0  0.6500000000000004 -1 0  0.7000000000000002 -1 0  0.75 -1 0  0.7999999999999998 -1 0  0.8499999999999996 -1 0  0.9000000000000004 -1 0  0.9500000000000002 -1 0  1 -1 0  1.05 -1 0  1.1 -1 0  1.15 -1 0  1.2 -1 0  1.25 -1 0  1.3 -1 0  1.35 -1 0  1.4 -1 0  1.45 -1 0  1.5 -1 0  1.55 -1 0  1.6 -1 0  1.65 -1 0  1.7 -1 0  1.75 -1 0  1.8 -1 0  1.85 -1 0  1.9 -1 0  1.95 -1 0  2 -1 0  2.05 -1 0  2.1 -1 0  2.15 -1 0  2.2 -1 0  2.25 -1 0  2.3 -1 0  2.35 -1 0  2.4 -1 0  2.45 -1 0  2.5 -1 0  2.55 -1 0  2.6 -1 0  2.65 -1 0  2.7 -1 0  2.75 -1 0  2.8 -1 0  2.85 -1 0  2.9 -1 0  2.95 -1 0  3 -1 0  3.050000000000001 -1 0  3.1 -1 0  3.15 -1 0  3.199999999999999 -1 0  3.25 -1 0  3.300000000000001 -1 0  3.35 -1 0  3.4 -1 0  3.449999999999999 -1 0  3.5 -1 0  3.550000000000001 -1 0  3.6 -1 0  3.65 -1 0  3.699999999999999 -1 0  3.75 -1 0  3.800000000000001 -1 0  3.85 -1 0  3.9 -1 0  3.949999999999999 -1 0  4 -1 0  4.050000000000001 -1 0  4.1 -1 0  4.15 -1 0  4.199999999999999 -1 0  4.25 -1 0  4.300000000000001 -1 0  4.35 -1 0  4.4 -1 0  4.449999999999999 -1 0  4.5 -1 0  4.550000000000001 -1 0  4.6 -1 0  4.65 -1 0  4.699999999999999 -1 0  4.75 -1 0  4.800000000000001 -1 0  4.85 -1 0  4.9 -1 0  4.949999999999999 -1 0  5 -1 0  -5 -0.95 0  -4.95 -0.95 0  -4.9 -0.95 0  -4.85 -0.95 0  -4.8 -0.95 0  -4.75 -0.95 0  -4.7 -0.95 0  -4.65 -0.95 0  -4.6 -0.95 0  -4.55 -0.95 0  -4.5 -0.95 0  -4.45 -0.95 0  -4.4 -0.95 0  -4.35 -0.95 0  -4.3 -0.95 0  -4.25 -0.95 0  -4.2 -0.95 0  -4.15 -0.95 0  -4.1 -0.95 0  -4.05 -0.95 0  -4 -0.95 0  -3.95 -0.95 0  -3.9 -0.95 0  -3.85 -0.95 0  -3.8 -0.95 0  -3.75 -0.95 0  -3.7 -0.95 0  -3.65 -0.95 0  -3.6 -0.95 0  -3.55 -0.95 0  -3.5 -0.95 0  -3.45 -0.95 0  -3.4 -0.95 0  -3.35 -0.95 0  -3.3 -0.95 0  -3.25 -0.95 0  -3.2 -0.95 0  -3.15 -0.95 0  -3.1 -0.95 0  -3.05 -0.95 0  -3 -0.95 0  -2.95 -0.95 0  -2.9 -0.95 0  -2.85 -0.95 0  -2.8 -0.95 0  -2.75 -0.95 0  -2.7 -0.95 0  -2.65 -0.95 0  -2.6 -0.95 0  -2.55 -0.95 0  -2.5 -0.95 0  -2.45 -0.95 0  -2.4 -0.95 0  -2.35 -0.95 0  -2.3 -0.95 0  -2.25 -0.95 0  -2.2 -0.95 0  -2.15 -0.95 0  -2.1 -0.95 0  -2.05 -0.95 0  -2 -0.95 0  -1.95 -0.95 0  -1.9 -0.95 0  -1.85 -0.95 0  -1.8 -0.95 0  -1.75 -0.95 0  -1.7 -0.95 0  -1.65 -0.95 0  -1.6 -0.95 0  -1.55 -0.95 0  -1.5 -0.95 0  -1.45 -0.95 0  -1.4 -0.95 0  -1.35 -0.95 0  -1.3 -0.95 0  -1.25 -0.95 0  -1.2 -0.95 0  -1.15 -0.95 0  -1.1 -0.95 0  -1.05 -0.95 0  -1 -0.95 0  -0.9500000000000002 -0.95 0  -0.9000000000000004 -0.95 0  -0.8499999999999996 -0.95 0  -0.7999999999999998 -0.95 0  -0.75 -0.95 0  -0.7000000000000002 -0.95 0  -0.6500000000000004 -0.95 0  -0.5999999999999996 -0.95 0  -0.5499999999999998 -0.95 0  -0.5 -0.95 0  -0.4500000000000002 -0.95 0  -0.4000000000000004 -0.95 0  -0.3499999999999996 -0.95 0  -0.2999999999999998 -0.95 0  -0.25 -0.95 0  -0.2000000000000002 -0.95 0  -0.1500000000000004 -0.95 0  -0.09999999999999964 -0.95 0  -0.04999999999999982 -0.95 0  0 -0.95 0  0.04999999999999982 -0.95 0  0.09999999999999964 -0.95 0  0.1500000000000004 -0.95 0  0.2000000000000002 -0.95 0  0.25 -0.95 0  0.2999999999999998 -0.95 0  0.3499999999999996 -0.95 0  0.4000000000000004 -0.95 0  0.4500000000000002 -0.95 0  0.5 -0.95 0  0.5499999999999998 -0.95 0  0.5999999999999996 -0.95 0  0.6500000000000004 -0.95 0  0.7000000000000002 -0.95 0  0.75 -0.95 0  0.7999999999999998 -0.95 0  0.8499999999999996 -0.95 0  0.9000000000000004 -0.95 0  0.9500000000000002 -0.95 0  1 -0.95 0  1.05 -0.95 0  1.1 -0.95 0  1.15 -0.95 0  1.2 -0.95 0  1.25 -0.95 0  1.3 -0.95 0  1.35 -0.95 0  1.4 -0.95 0  1.45 -0.95 0  1.5 -0.95 0  1.55 -0.95 0  1.6 -0.95 0  1.65 -0.95 0  1.7 -0.95 0  1.75 -0.95 0  1.8 -0.95 0  1.85 -0.95 0  1.9 -0.95 0  1.95 -0.95 0  2 -0.95 0  2.05 -0.95 0  2.1 -0.95 0  2.15 -0.95 0  2.2 -0.95 0  2.25 -0.95 0  2.3 -0.95 0  2.35 -0.95 0  2.4 -0.95 0  2.45 -0.95 0  2.5 -0.95 0  2.55 -0.95 0  2.6 -0.95 0  2.65 -0.95 0  2.7 -0.95 0  2.75 -0.95 0  2.8 -0.95 0  2.85 -0.95 0  2.9 -0.95 0  2.95 -0.95 0  3 -0.95 0  3.050000000000001 -0.95 0  3.1 -0.95 0  3.15 -0.95 0  3.199999999999999 -0.95 0  3.25 -0.95 0  3.300000000000001 -0.95 0  3.35 -0.95 0  3.4 -0.95 0  3.449999999999999 -0.95 0  3.5 -0.95 0  3.550000000000001 -0.95 0  3.6 -0.95 0  3.65 -0.95 0  3.699999999999999 -0.95 0  3.75 -0.95 0  3.800000000000001 -0.95 0  3.85 -0.95 0  3.9 -0.95 0  3.949999999999999 -0.95 0  4 -0.95 0  4.050000000000001 -0.95 0  4.1 -0.95 0  4.15 -0.95 0  4.199999999999999 -0.95 0  4.25 -0.95 0  4.300000000000001 -0.95 0  4.35 -0.95 0  4.4 -0.95 0  4.449999999999999 -0.95 0  4.5 -0.95 0  4.550000000000001 -0.95 0  4.6 -0.95 0  4.65 -0.95 0  4.699999999999999 -0.95 0  4.75 -0.95 0  4.800000000000001 -0.95 0  4.85 -0.95 0  4.9 -0.95 0  4.949999999999999 -0.95 0  5 -0.95 0  -5 -0.9 0  -4.95 -0.9 0  -4.9 -0.9 0  -4.85 -0.9 0  -4.8 -0.9 0  -4.75 -0.9 0  -4.7 -0.9 0  -4.65 -0.9 0  -4.6 -0.9 0  -4.55 -0.9 0  -4.5 -0.9 0  -4.45 -0.9 0  -4.4 -0.9 0  -4.35 -0.9 0  -4.3 -0.9 0  -4.25 -0.9 0  -4.2 -0.9 0  -4.15 -0.9 0  -4.1 -0.9 0  -4.05 -0.9 0  -4 -0.9 0  -3.95 -0.9 0  -3.9 -0.9 0  -3.85 -0.9 0  -3.8 -0.9 0  -3.75 -0.9 0  -3.7 -0.9 0  -3.65 -0.9 0  -3.6 -0.9 0  -3.55 -0.9 0  -3.5 -0.9 0  -3.45 -0.9 0  -3.4 -0.9 0  -3.35 -0.9 0  -3.3 -0.9 0  -3.25 -0.9 0  -3.2 -0.9 0  -3.15 -0.9 0  -3.1 -0.9 0  -3.05 -0.9 0  -3 -0.9 0  -2.95 -0.9 0  -2.9 -0.9 0  -2.85 -0.9 0  -2.8 -0.9 0  -2.75 -0.9 0  -2.7 -0.9 0  -2.65 -0.9 0  -2.6 -0.9 0  -2.55 -0.9 0  -2.5 -0.9 0  -2.45 -0.9 0  -2.4 -0.9 0  -2.35 -0.9 0  -2.3 -0.9 0  -2.25 -0.9 0  -2.2 -0.9 0  -2.15 -0.9 0  -2.1 -0.9 0  -2.05 -0.9 0  -2 -0.9 0  -1.95 -0.9 0  -1.9 -0.9 0  -1.85 -0.9 0  -1.8 -0.9 0  -1.75 -0.9 0  -1.7 -0.9 0  -1.65 -0.9 0  -1.6 -0.9 0  -1.55 -0.9 0  -1.5 -0.9 0  -1.45 -0.9 0  -1.4 -0.9 0  -1.35 -0.9 0  -1.3 -0.9 0  -1.25 -0.9 0  -1.2 -0.9 0  -1.15 -0.9 0  -1.1 -0.9 0  -1.05 -0.9 0  -1 -0.9 0  -0.9500000000000002 -0.9 0  -0.9000000000000004 -0.9 0  -0.8499999999999996 -0.9 0  -0.7999999999999998 -0.9 0  -0.75 -0.9 0  -0.7000000000000002 -0.9 0  -0.6500000000000004 -0.9 0  -0.5999999999999996 -0.9 0  -0.5499999999999998 -0.9 0  -0.5 -0.9 0  -0.4500000000000002 -0.9 0  -0.4000000000000004 -0.9 0  -0.3499999999999996 -0.9 0  -0.2999999999999998 -0.9 0  -0.25 -0.9 0  -0.2000000000000002 -0.9 0  -0.1500000000000004 -0.9 0  -0.09999999999999964 -0.9 0  -0.04999999999999982 -0.9 0  0 -0.9 0  0.04999999999999982 -0.9 0  0.09999999999999964 -0.9 0  0.1500000000000004 -0.9 0  0.2000000000000002 -0.9 0  0.25 -0.9 0  0.2999999999999998 -0.9 0  0.3499999999999996 -0.9 0  0.4000000000000004 -0.9 0  0.4500000000000002 -0.9 0  0.5 -0.9 0  0.5499999999999998 -0.9 0  0.5999999999999996 -0.9 0  0.6500000000000004 -0.9 0  0.7000000000000002 -0.9 0  0.75 -0.9 0  0.7999999999999998 -0.9 0  0.8499999999999996 -0.9 0  0.9000000000000004 -0.9 0  0.9500000000000002 -0.9 0  1 -0.9 0  1.05 -0.9 0  1.1 -0.9 0  1.15 -0.9 0  1.2 -0.9 0  1.25 -0.9 0  1.3 -0.9 0  1.35 -0.9 0  1.4 -0.9 0  1.45 -0.9 0  1.5 -0.9 0  1.55 -0.9 0  1.6 -0.9 0  1.65 -0.9 0  1.7 -0.9 0  1.75 -0.9 0  1.8 -0.9 0  1.85 -0.9 0  1.9 -0.9 0  1.95 -0.9 0  2 -0.9 0  2.05 -0.9 0  2.1 -0.9 0  2.15 -0.9 0  2.2 -0.9 0  2.25 -0.9 0  2.3 -0.9 0  2.35 -0.9 0  2.4 -0.9 0  2.45 -0.9 0  2.5 -0.9 0  2.55 -0.9 0  2.6 -0.9 0  2.65 -0.9 0  2.7 -0.9 0  2.75 -0.9 0  2.8 -0.9 0  2.85 -0.9 0  2.9 -0.9 0  2.95 -0.9 0  3 -0.9 0  3.050000000000001 -0.9 0  3.1 -0.9 0  3.15 -0.9 0  3.199999999999999 -0.9 0  3.25 -0.9 0  3.300000000000001 -0.9 0  3.35 -0.9 0  3.4 -0.9 0  3.449999999999999 -0.9 0  3.5 -0.9 0  3.550000000000001 -0.9 0  3.6 -0.9 0  3.65 -0.9 0  3.699999999999999 -0.9 0  3.75 -0.9 0  3.800000000000001 -0.9 0  3.85 -0.9 0  3.9 -0.9 0  3.949999999999999 -0.9 0  4 -0.9 0  4.050000000000001 -0.9 0  4.1 -0.9 0  4.15 -0.9 0  4.199999999999999 -0.9 0  4.25 -0.9 0  4.300000000000001 -0.9 0  4.35 -0.9 0  4.4 -0.9 0  4.449999999999999 -0.9 0  4.5 -0.9 0  4.550000000000001 -0.9 0  4.6 -0.9 0  4.65 -0.9 0  4.699999999999999 -0.9 0  4.75 -0.9 0  4.800000000000001 -0.9 0  4.85 -0.9 0  4.9 -0.9 0  4.949999999999999 -0.9 0  5 -0.9 0  -5 -0.85 0  -4.95 -0.85 0  -4.9 -0.85 0  -4.85 -0.85 0  -4.8 -0.85 0  -4.75 -0.85 0  -4.7 -0.85 0  -4.65 -0.85 0  -4.6 -0.85 0  -4.55 -0.85 0  -4.5 -0.85 0  -
[...]
<PointData  Vectors="f_15"> 
<DataArray  type="Float64"  Name="f_15"  NumberOfComponents="3" format="ascii">2.2989613357126659e+00 0.0000000000000000e+00 0.0000000000000000e+00  2.2992994959705801e+00 5.7211344444244701e-02 0.0000000000000000e+00  2.2985803409408976e+00 9.7595066156745403e-02 0.0000000000000000e+00  2.2987063159537824e+00 1.5800818690261120e-01 0.0000000000000000e+00  2.2972958304127356e+00 2.0186741575799896e-01 0.0000000000000000e+00  2.2971404880160131e+00 2.5898837536411018e-01 0.0000000000000000e+00  2.2953992609788765e+00 3.0429492548097004e-01 0.0000000000000000e+00  2.2947268463310166e+00 3.6143100657928223e-01 0.0000000000000000e+00  2.2923689014555642e+00 4.0467563065791079e-01 0.0000000000000000e+00  2.2916796570629394e+00 4.6362164012311785e-01 0.0000000000000000e+00  2.2884381058188485e+00 5.0423824830667807e-01 0.0000000000000000e+00  2.2873947239279180e+00 5.6604574545054742e-01 0.0000000000000000e+00  2.2838208801956297e+00 6.0021126057035212e-01 0.0000000000000000e+00  2.2820897569916494e+00 6.7055505343031019e-01 0.0000000000000000e+00  2.2779271416305442e+00 6.9346320019961116e-01 0.0000000000000000e+00  2.2758356184970041e+00 7.7105414314454257e-01 0.0000000000000000e+00  2.2711863060487691e+00 7.9258516151237324e-01 0.0000000000000000e+00  2.2678150025751949e+00 8.5985945965455213e-01 0.0000000000000000e+00  2.2637755793649288e+00 8.9821963315284814e-01 0.0000000000000000e+00  2.2584636985248885e+00 9.4361193958887180e-01 0.0000000000000000e+00  2.2547339964223028e+00 9.9905927809581185e-01 0.0000000000000000e+00  2.2480653356811509e+00 1.0303198321472398e+00 0.0000000000000000e+00  2.2443290484467702e+00 1.0963027761216815e+00 0.0000000000000000e+00  2.2358883515485735e+00 1.1087480172802355e+00 0.0000000000000000e+00  2.2326688428437738e+00 1.2019920256758425e+00 0.0000000000000000e+00  2.2223291329232233e+00 1.1765765191773574e+00 0.0000000000000000e+00  2.2190623087128922e+00 1.3012389330709029e+00 0.0000000000000000e+00  2.2074783377804481e+00 1.2576604965796421e+00 0.0000000000000000e+00  2.2039063893121034e+00 1.3779548889397712e+00 0.0000000000000000e+00  2.1908239065791046e+00 1.3465302669455663e+00 0.0000000000000000e+00  2.1872867913780030e+00 1.4537258449187282e+00 0.0000000000000000e+00  2.1726564405477702e+00 1.4239014016340255e+00 0.0000000000000000e+00  2.1689330965616427e+00 1.5302883034623258e+00 0.0000000000000000e+00  2.1530979017240384e+00 1.5009062286398254e+00 0.0000000000000000e+00  2.1491043836813390e+00 1.6006523776241066e+00 0.0000000000000000e+00  2.1318469455556852e+00 1.5732164408339424e+00 0.0000000000000000e+00  2.1282980621224374e+00 1.6713813394652548e+00 0.0000000000000000e+00  2.1089127774651435e+00 1.6420518699454523e+00 0.0000000000000000e+00  2.1064624381653845e+00 1.7371873049912088e+00 0.0000000000000000e+00  2.0850986456878871e+00 1.7069792270338271e+00 0.0000000000000000e+00  2.0832748217789585e+00 1.8058334757431536e+00 0.0000000000000000e+00  2.0605655667451672e+00 1.7656066597723425e+00 0.0000000000000000e+00  2.0593424418731168e+00 1.8707742501113278e+00 0.0000000000000000e+00  2.0353975878150150e+00 1.8285275906404974e+00 0.0000000000000000e+00  2.0345720084155610e+00 1.9281905525389240e+00 0.0000000000000000e+00  2.0103198959602211e+00 1.8916520705649060e+00 0.0000000000000000e+00  2.0093111047889662e+00 1.9851753727251920e+00 0.0000000000000000e+00  1.9846070507573510e+00 1.9543930992484486e+00 0.0000000000000000e+00  1.9845928785362319e+00 2.0343768071166548e+00 0.0000000000000000e+00  1.9588737555168123e+00 2.0247969099696754e+00 0.0000000000000000e+00  1.9595069729037142e+00 2.0809991379296657e+00 0.0000000000000000e+00  1.9341412500300439e+00 2.0884222734056448e+00 0.0000000000000000e+00  1.9347341720034692e+00 2.1316454113065144e+00 0.0000000000000000e+00  1.9098307585233978e+00 2.1522882454421368e+00 0.0000000000000000e+00  1.9111010668833408e+00 2.1791967473037270e+00 0.0000000000000000e+00  1.8870223866369040e+00 2.2100618888047632e+00 0.0000000000000000e+00  1.8883170606154926e+00 2.2296916254268329e+00 0.0000000000000000e+00  1.8668970880873934e+00 2.2591013814526200e+00 0.0000000000000000e+00  1.8687950722706568e+00 2.2759862431447222e+00 0.0000000000000000e+00  1.8495974464369938e+00 2.2995178069430269e+00 0.0000000000000000e+00  1.8554269637596643e+00 2.3082122819873714e+00 0.0000000000000000e+00  1.8386197277116898e+00 2.3265477001167723e+00 0.0000000000000000e+00  1.8478521803425878e+00 2.3280523094730423e+00 0.0000000000000000e+00  1.8360690554342700e+00 2.3328423673136922e+00 0.0000000000000000e+00  1.8459450866179377e+00 2.3349695792433232e+00 0.0000000000000000e+00  1.8368737787202793e+00 2.3317514388982112e+00 0.0000000000000000e+00  1.8474872846257906e+00 2.3332970139474090e+00 0.0000000000000000e+00  1.8382945729287343e+00 2.3308196254322477e+00 0.0000000000000000e+00  1.8481074292163993e+00 2.3322869946140341e+00 0.0000000000000000e+00  1.8405305169141073e+00 2.3288724318779570e+00 0.0000000000000000e+00  1.8482763836014120e+00 2.3308913001999003e+00 0.0000000000000000e+00  1.8416682127414741e+00 2.3319115966576227e+00 0.0000000000000000e+00  1.8489623407984055e+00 2.3266277525015999e+00 0.0000000000000000e+00  1.8431601096128605e+00 2.3340651344364169e+00 0.0000000000000000e+00  1.8481702291635571e+00 2.3270365813252494e+00 0.0000000000000000e+00  1.8455189011496396e+00 2.3316494442693303e+00 0.0000000000000000e+00  1.8472328894105428e+00 2.3309294928785755e+00 0.0000000000000000e+00  1.8468988040573473e+00 2.3287306559315986e+00 0.0000000000000000e+00  1.8469671506670515e+00 2.3345529698563321e+00 0.0000000000000000e+00  1.8484990875942366e+00 2.3244671359740816e+00 0.0000000000000000e+00  1.8455549090144163e+00 2.3408033707783602e+00 0.0000000000000000e+00  1.8508220786350806e+00 2.3186682002082915e+00 0.0000000000000000e+00  1.8440348086074605e+00 2.3466399195773664e+00 0.0000000000000000e+00  1.8524246928567600e+00 2.3147034907320903e+00 0.0000000000000000e+00  1.8434237517165868e+00 2.3494300595161182e+00 0.0000000000000000e+00  1.8533346346506685e+00 2.3133349769183975e+00 0.0000000000000000e+00  1.8427925038019757e+00 2.3510006278098539e+00 0.0000000000000000e+00  1.8541276803071716e+00 2.3127128954149900e+00 0.0000000000000000e+00  1.8425069910316760e+00 2.3513141135756155e+00 0.0000000000000000e+00  1.8544268284655763e+00 2.3131171139976217e+00 0.0000000000000000e+00  1.8426909731269114e+00 2.3502677263581262e+00 0.0000000000000000e+00  1.8540133960468590e+00 2.3152195198038981e+00 0.0000000000000000e+00  1.8433559000545345e+00 2.3480643395743086e+00 0.0000000000000000e+00  1.8531402717595116e+00 2.3175364989661862e+00 0.0000000000000000e+00  1.8444773995792152e+00 2.3453796629715624e+00 0.0000000000000000e+00  1.8521875319349466e+00 2.3200944984029381e+00 0.0000000000000000e+00  1.8450163537361783e+00 2.3428136790618992e+00 0.0000000000000000e+00  1.8516950695287211e+00 2.3226691677436948e+00 0.0000000000000000e+00  1.8456706791000332e+00 2.3397376349538397e+00 0.0000000000000000e+00  1.8506879615244758e+00 2.3254630832805754e+00 0.0000000000000000e+00  1.8466695227853194e+00 2.3364256972908248e+00 0.0000000000000000e+00  1.8499425029556733e+00 2.3287701109832213e+00 0.0000000000000000e+00  1.8466789868960112e+00 2.3327803925755575e+00 0.0000000000000000e+00  1.8502306645705227e+00 2.3315954730030630e+00 0.0000000000000000e+00  1.8465365126551061e+00 2.3300877683382470e+00 0.0000000000000000e+00  1.8497383089790866e+00 2.3336531654902171e+00 0.0000000000000000e+00  1.8470769838157619e+00 2.3277535336082198e+00 0.0000000000000000e+00  1.8495968743989506e+00 2.3356781045003308e+00 0.0000000000000000e+00  1.8465804605732059e+00 2.3254287585206894e+00 0.0000000000000000e+00  1.8500327605175968e+00 2.3372299635814064e+00 0.0000000000000000e+00  1.8465499856506711e+00 2.3248155235787182e+00 0.0000000000000000e+00  1.8495650857766908e+00 2.3361601096204225e+00 0.0000000000000000e+00  1.8469450415012030e+00 2.3258945292084716e+00 0.0000000000000000e+00  1.8495445634996521e+00 2.3356489010525934e+00 0.0000000000000000e+00  1.8465654866416075e+00 2.3253171043666936e+00 0.0000000000000000e+00  1.8496218120630894e+00 2.3356848899221165e+00 0.0000000000000000e+00  1.8472126403890379e+00 2.3262561589682522e+00 0.0000000000000000e+00  1.8486564877397063e+00 2.3327372270215894e+00 0.0000000000000000e+00  1.8473953153022533e+00 2.3302044284563332e+00 0.0000000000000000e+00  1.8494083251877163e+00 2.3289004331028780e+00 0.0000000000000000e+00  1.8467622072057677e+00 2.3317201966408612e+00 0.0000000000000000e+00  1.8488435428180821e+00 2.3281473050450576e+00 0.0000000000000000e+00  1.8482866407298804e+00 2.3333455340376057e+00 0.0000000000000000e+00  1.8474209621117803e+00 2.3233230746415203e+00 0.0000000000000000e+00  1.8487936423145053e+00 2.3384696461773018e+00 0.0000000000000000e+00  1.8476399690285976e+00 2.3190784342167148e+00 0.0000000000000000e+00  1.8488266509576021e+00 2.3398702443715456e+00 0.0000000000000000e+00  1.8462049556893281e+00 2.3184376146519527e+00 0.0000000000000000e+00  1.8517302105328763e+00 2.3402999835209766e+00 0.0000000000000000e+00  1.8432913154509778e+00 2.3159313217021857e+00 0.0000000000000000e+00  1.8529707849509014e+00 2.3442086995148133e+00 0.0000000000000000e+00  1.8435187824455392e+00 2.3120901166158494e+00 0.0000000000000000e+00  1.8532301060382719e+00 2.3448617176748372e+00 0.0000000000000000e+00  1.8414470702921695e+00 2.3140603419976378e+00 0.0000000000000000e+00  1.8561705393651740e+00 2.3437102200465700e+00 0.0000000000000000e+00  1.8395084989458146e+00 2.3116748901688902e+00 0.0000000000000000e+00  1.8565406813709371e+00 2.3476290002130167e+00 0.0000000000000000e+00  1.8397664236025038e+00 2.3096741736388964e+00 0.0000000000000000e+00  1.8565415880907645e+00 2.3464328411405160e+00 0.0000000000000000e+00  1.8396218857774502e+00 2.3106648470946314e+00 0.0000000000000000e+00  1.8566828544219911e+00 2.3478931566440058e+00 0.0000000000000000e+00  1.8394004933191499e+00 2.3077171306954622e+00 0.0000000000000000e+00  1.8571343866540937e+00 2.3492286808435718e+00 0.0000000000000000e+00  1.8398301570341706e+00 2.3080579152455543e+00 0.0000000000000000e+00  1.8555975930423010e+00 2.3466469248950461e+00 0.0000000000000000e+00  1.8425901103938636e+00 2.3062686969465425e+00 0.0000000000000000e+00  1.8544445733115085e+00 2.3435765618109428e+00 0.0000000000000000e+00  1.8429682412059851e+00 2.3015642562243381e+00 0.0000000000000000e+00  1.8563044950018304e+00 2.3359859584879050e+00 0.0000000000000000e+00  1.8440601573276973e+00 2.2967707858718485e+00 0.0000000000000000e+00  1.8563267850203513e+00 2.3247527824263892e+00 0.0000000000000000e+00  1.8478342393018721e+00 2.2915966395315728e+00 0.0000000000000000e+00  1.8582197029053409e+00 2.3139801869730805e+00 0.0000000000000000e+00  1.8493068783127129e+00 2.2851847133901764e+00 0.0000000000000000e+00  1.8636349007857531e+00 2.3040773729847439e+00 0.0000000000000000e+00  1.8513984652909705e+00 2.2834999519689605e+00 0.0000000000000000e+00  1.8672377678291450e+00 2.2903188199001767e+00 0.0000000000000000e+00  1.8562968233743737e+00 2.2844509622781364e+00 0.0000000000000000e+00  1.8695916564587647e+00 2.2831118952889438e+00 0.0000000000000000e+00  1.8597839063070167e+00 2.2791629829166475e+00 0.0000000000000000e+00  1.8723641423366859e+00 2.2798903029853523e+00 0.0000000000000000e+00  1.8627586718713027e+00 2.2800064365292303e+00 0.0000000000000000e+00  1.8715338331156421e+00 2.2722700917471523e+00 0.0000000000000000e+00  1.8677589799716383e+00 2.2809326954388829e+00 0.0000000000000000e+00  1.8693230023019058e+00 2.2738170154739965e+00 0.0000000000000000e+00  1.8703178939336045e+00 2.2744500415849709e+00 0.0000000000000000e+00  1.8694259077410977e+00 2.2758858868233101e+00 0.0000000000000000e+00  1.8727686233901504e+00 2.2738561409977285e+00 0.0000000000000000e+00  1.8673576965098881e+00 2.2732558847155584e+00 0.0000000000000000e+00  1.8776906845697421e+00 2.2712352038975996e+00 0.0000000000000000e+00  1.8667589498888235e+00 2.2766142778942045e+00 0.0000000000000000e+00  1.8793305535025966e+00 2.2658123468900158e+00 0.0000000000000000e+00  1.8698683741340087e+00 2.2789662682009970e+00 0.0000000000000000e+00  1.8811880461669033e+00 2.2672886075018703e+00 0.0000000000000000e+00  1.8697261550238364e+00 2.2816748327340619e+00 0.0000000000000000e+00  1.8825546445097452e+00 2.2739110472024406e+00 0.0000000000000000e+00  1.8680093531000592e+00 2.2921371958169905e+00 0.0000000000000000e+00  1.8752468267432463e+00 2.2860446582847489e+00 0.0000000000000000e+00  1.8639272985220883e+00 2.3064330187531765e+00 0.0000000000000000e+00  1.8666014386131589e+00 2.3010209134066906e+00 0.0000000000000000e+00  1.8560297908473486e+00 2.3157682307854115e+00 0.0000000000000000e+00  1.8600307020379965e+00 2.3141234297460476e+00 0.0000000000000000e+00  1.8549441932568547e+00 2.3179861991374806e+00 0.0000000000000000e+00  1.8546626706257903e+00 2.3184742387517692e+00 0.0000000000000000e+00  1.8581713797488362e+00 2.3149699674577460e+00 0.0000000000000000e+00  1.8558578386122142e+00 2.3189491303937784e+00 0.0000000000000000e+00  1.8324575955724998e+00 2.3714947834583389e+00 0.0000000000000000e+00  2.0505751954549218e+00 1.8851626468189389e+00 0.0000000000000000e+00  2.6380824674254115e+00 5.9745927607035987e-01 0.0000000000000000e+00  2.9259724282830986e+00 9.0219987196450080e-02 0.0000000000000000e+00  2.9806920121482707e+00 1.0479374340545012e-03 0.0000000000000000e+00  2.9635986747710978e+00 -9.4774548904904849e-03 0.0000000000000000e+00  2.9799513941694995e+00 -4.0189665186707829e-02 0.0000000000000000e+00  2.9742577253076905e+00 -6.1158395974366196e-02 0.0000000000000000e+00  2.9831177804493141e+00 -7.2730593189805542e-02 0.0000000000000000e+00  2.9709211880116531e+00 -8.2698411392713819e-02 0.0000000000000000e+00  2.9861892796693748e+00 -7.1946977864087089e-02 0.0000000000000000e+00  2.9711640406347217e+00 -6.2505611256246055e-02 0.0000000000000000e+00  2.9831142512458606e+00 -5.8416922177774111e-02 0.0000000000000000e+00  2.9695906441759234e+00 -4.4244776572066040e-02 0.0000000000000000e+00  2.9868247791628648e+00 0.0000000000000000e+00 0.0000000000000000e+00  2.2986468867355172e+00 0.0000000000000000e+00 -1.2591186953537599e-03  2.2989254675567814e+00 4.8835608073605027e-02 -2.0714481966563744e-03  2.2984132626144431e+00 1.0495509459255935e-01 4.5248510772614532e-03  2.2978789329751232e+00 1.5268900666494642e-01 -3.6436904319645798e-03  2.2971398454983545e+00 2.0632104249319519e-01 3.1861576024746346e-03  2.2963541380379699e+00 2.5540898344694424e-01 -2.9847525547831923e-03  2.2949864452757436e+00 3.0908431563766292e-01 3.1254244866040707e-03  2.2938131877846044e+00 3.5648513512392405e-01 -3.4136272381149130e-03  2.2922207199488325e+00 4.1123169327151721e-01 4.1491189322604635e-03  2.2904741666989645e+00 4.5719589958609125e-01 -4.8943016627581480e-03  2.2882628907482321e+00 5.1280599146878469e-01 6.0008823143478688e-03  2.2865814804295050e+00 5.5580818098542950e-01 -7.3728548857393810e-03  2.2833014883588936e+00 6.1523705274937812e-01 9.4198445630310074e-03  2.2815991488798302e+00 6.5246333950582491e-01 -1.2464626401811296e-02  2.2774006977491941e+00 7.1566978914637047e-01 1.7029067168211700e-02  2.2759281315787661e+00 7.4991908641194194e-01 -2.3174952369107112e-02  2.2697974325251566e+00 8.1342792744188941e-01 3.0648273216789052e-02  2.2696682360956451e+00 8.4413153077246894e-01 -3.8301183401006564e-02  2.2610377676258082e+00 9.1485226673041409e-01 4.5415331461828606e-02  2.2617440238368265e+00 9.2957608649647916e-01 -5.0464987932191112e-02  2.2515729281851353e+00 1.0187861920437069e+00 5.3893800809271315e-02  2.2523334860280917e+00 1.0144068835932516e+00 -5.5241194582000934e-02  2.2406565726242413e+00 1.1125867986206968e+00 5.5385039737038982e-02  2.2415617751104344e+00 1.1078927679004296e+00 -5.3804565475629097e-02  2.2286592183353431e+00 1.1960512797306173e+00 5.0763658412409297e-02  2.2287182165346122e+00 1.1992810653709240e+00 -4.6222641186466670e-02  2.2155374104480634e+00 1.2833209936809635e+00 4.2292581201053787e-02  2.2144787440714300e+00 1.2794534188994011e+00 -4.0167378794403803e-02  2.2004156218130770e+00 1.3715469414870824e+00 4.0549057336727798e-02  2.1990336712194769e+00 1.3593558258981315e+00 -4.1310686764203096e-02  2.1838623136587167e+00 1.4506330044150637e+00 4.0242079380317083e-02  2.1816008143087191e+00 1.4409590781059201e+00 -3.6932573305118857e-02  2.1661523013922586e+00 1.5248724624133665e+00 3.3495690817520254e-02  2.1627049447867623e+00 1.5198349772351747e+00 -3.2871160676965223e-02  2.1465491856523515e+00 1.5967000564234353e+00 3.4402316158114545e-02  2.1429301549855633e+00 1.5928233759366976e+00 -3.6307795107522127e-02  2.1252325763027207e+00 1.6708439905835348e+00 3.6210300022288811e-02  2.1217733180394198e+00 1.6605407286031231e+00 -3.5093990903480504e-02  2.1029350945761758e+00 1.7390222489559457e+00 3.5137398599597837e-02  2.0992414843268610e+00 1.7316879962267100e+00 -3.6563370599194157e-02  2.0795810528133956e+00 1.8037728389338108e+00 3.8841832919304188e-02  2.0760850256456314e+00 1.7947003434154056e+00 -3.9824691523865086e-02  2.0552135273011807e+00 1.8727542068475400e+00 4.0928412770974872e-02  2.0521928043839055e+00 1.8536875186757773e+00 -4.1917513917897505e-02  2.0305224487656366e+00 1.9388650474397362e+00 4.4078058024722262e-02  2.0277033741561130e+00 1.9125898626826134e+00 -4.4540897895943753e-02  2.0051825427717644e+00 2.0021068694267474e+00 4.4635967396296931e-02  2.0034278693828669e+00 1.9707768154251479e+00 -4.3222721707333760e-02  1.9796576604319518e+00 2.0654879613967898e+00 4.3798187758349247e-02  1.9785722770271603e+00 2.0262799972651604e+00 -4.3787487059181375e-02  1.9549529650148565e+00 2.1238940636733776e+00 4.3284249993657500e-02  1.9535431317295620e+00 2.0873000314092969e+00 -4.0620031387398128e-02  1.9304687776581941e+00 2.1773851041194621e+00 3.8029498009749592e-02  1.9292742164498675e+00 2.1448272545742362e+00 -3.6423056641107329e-02  1.9069288574316539e+00 2.2290330379334407e+00 3.4493448044302891e-02  1.9055061617144677e+00 2.2025916770257217e+00 -3.2555536856494489e-02  1.8853514365961483e+00 2.2742663281816284e+00 2.9933554045758107e-02  1.8841821446975509e+00 2.2549395979240647e+00 -2.8666883794465466e-02  1.8655972804678471e+00 2.3155067147442079e+00 2.6864435589849796e-02  1.8675058193459344e+00 2.2948075684852771e+00 -2.5797356057553945e-02  1.8508808163819550e+00 2.3478750026588830e+00 2.4161842273573136e-02  1.8556498862468098e+00 2.3226738055327711e+00 -2.3200489964565280e-02  1.8444282697568111e+00 2.3596528904162319e+00 2.1572221565234976e-02  1.8506674278720114e+00 2.3351135990206697e+00 -2.0524207570565636e-02  1.8431420928529021e+00 2.3603207707031189e+00 1.9276064331085939e-02  1.8512677486622267e+00 2.3336797537740730e+00 -1.8457548633759147e-02  1.8436809740396187e+00 2.3573541818135637e+00 1.7428833855584046e-02  1.8515472779183217e+00 2.3318123515584568e+00 -1.6757782820798480e-02  1.8451491089734324e+00 2.3523959980254308e+00 1.5795313073715150e-02  1.8513619246329449e+00 2.3311975480431912e+00 -1.4840266855166914e-02  1.8454715592633590e+00 2.3503502490308672e+00 1.3736802284220613e-02  1.8517512312695545e+00 2.3284877579079319e+00 -1.2862076076001080e-02  1.8457023242516812e+00 2.3478318202845281e+00 1.1925583316436332e-02  1.8507933215073649e+00 2.3302797145531695e+00 -1.1123865979706963e-02  1.8465733957758390e+00 2.3425047553790375e+00 1.0424033157698579e-02  1.8501158103294071e+00 2.3324337030785434e+00 -9.8783578202866779e-03  1.8462991932100985e+00 2.3394252463653586e+00 9.3996302784339764e-03  1.8504228218247585e+00 2.3316640259798107e+00 -9.1535523661035092e-03  1.8460777785513858e+00 2.3377447833223464e+00 9.0611896972384205e-03  1.8497579431311624e+00 2.3321173765654564e+00 -9.1068132477409892e-03  1.8466277624430170e+00 2.3353034571059772e+00 9.1793330351886571e-03  1.8492704820119874e+00 2.3316460151669007e+00 -9.3226450292818955e-03  1.8464314723427731e+00 2.335131