<?xml version="1.0"?>
<VTKFile type="UnstructuredGrid"  version="0.1"  >
<UnstructuredGrid>
<Piece  NumberOfPoints="8241" NumberOfCells="16000">
<Points>
<DataArray  type="Float64"  NumberOfComponents="3"  format="ascii">-5 -1 0  -4.95 -1 0  -4.9 -1 0  -4.85 -1 0  -4.8 -1 0  -4.75 -1 0  -4.7 -1 0  -4.65 -1 0  -4.6 -1 0  -4.55 -1 0  -4.5 -1 0  -4.45 -1 0  -4.4 -1 0  -4.35 -1 0  -4.3 -1 0  -4.25 -1 0  -4.2 -1 0  -4.15 -1 0  -4.1 -1 0  -4.05 -1 0  -4 -1 0  -3.95 -1 0  -3.9 -1 0  -3.85 -1 0  -3.8 -1 0  -3.75 -1 0  -3.7 -1 0  -3.65 -1 0  -3.6 -1 0  -3.55 -1 0  -3.5 -1 0  -3.45 -1 0  -3.4 -1 0  -3.35 -1 0  -3.3 -1 0  -3.25 -1 0  -3.2 -1 0  -3.15 -1 0  -3.1 -1 0  -3.05 -1 0  -3 -1 0  -2.95 -1 0  -2.9 -1 0  -2.85 -1 0  -2.8 -1 0  -2.75 -1 0  -2.7 -1 0  -2.65 -1 0  -2.6 -1 0  -2.55 -1 0  -2.5 -1 0  -2.45 -1 0  -2.4 -1 0  -2.35 -1 0  -2.3 -1 0  -2.25 -1 0  -2.2 -1 0  -2.15 -1 0  -2.1 -1 0  -2.05 -1 0  -2 -1 0  -1.95 -1 0  -1.9 -1 0  -1.85 -1 0  -1.8 -1 0  -1.75 -1 0  -1.7 -1 0  -1.65 -1 0  -1.6 -1 0  -1.55 -1 0  -1.5 -1 0  -1.45 -1 0  -1.4 -1 0  -1.35 -1 0  -1.3 -1 0  -1.25 -1 0  -1.2 -1 0  -1.15 -1 0  -1.1 -1 0  -1.05 -1 0  -1 -1 0  -0.9500000000000002 -1 0  -0.9000000000000004 -1 0  -0.8499999999999996 -1 0  -0.7999999999999998 -1 0  -0.75 -1 0  -0.7000000000000002 -1 0  -0.6500000000000004 -1 0  -0.5999999999999996 -1 0  -0.5499999999999998 -1 0  -0.5 -1 0  -0.4500000000000002 -1 0  -0.4000000000000004 -1 0  -0.3499999999999996 -1 0  -0.2999999999999998 -1 0  -0.25 -1 0  -0.2000000000000002 -1 0  -0.1500000000000004 -1 0  -0.09999999999999964 -1 0  -0.04999999999999982 -1 0  0 -1 0  0.04999999999999982 -1 0  0.09999999999999964 -1 0  0.1500000000000004 -1 0  0.2000000000000002 -1 0  0.25 -1 0  0.2999999999999998 -1 0  0.3499999999999996 -1 0  0.4000000000000004 -1 0  0.4500000000000002 -1 0  0.5 -1 0  0.5499999999999998 -1 0  0.5999999999999996 -1 0  0.6500000000000004 -1 0  0.7000000000000002 -1 0  0.75 -1 0  0.7999999999999998 -1 0  0.8499999999999996 -1 0  0.9000000000000004 -1 0  0.9500000000000002 -1 0  1 -1 0  1.05 -1 0  1.1 -1 0  1.15 -1 0  1.2 -1 0  1.25 -1 0  1.3 -1 0  1.35 -1 0  1.4 -1 0  1.45 -1 0  1.5 -1 0  1.55 -1 0  1.6 -1 0  1.65 -1 0  1.7 -1 0  1.75 -1 0  1.8 -1 0  1.85 -1 0  1.9 -1 0  1.95 -1 0  2 -1 0  2.05 -1 0  2.1 -1 0  2.15 -1 0  2.2 -1 0  2.25 -1 0  2.3 -1 0  2.35 -1 0  2.4 -1 0  2.45 -1 0  2.5 -1 0  2.55 -1 0  2.6 -1 0  2.65 -1 0  2.7 -1 0  2.75 -1 0  2.8 -1 0  2.85 -1 0  2.9 -1 0  2.95 -1 0  3 -1 0  3.050000000000001 -1 0  3.1 -1 0  3.15 -1 0  3.199999999999999 -1 0  3.25 -1 0  3.300000000000001 -1 0  3.35 -1 0  3.4 -1 0  3.449999999999999 -1 0  3.5 -1 0  3.550000000000001 -1 0  3.6 -1 0  3.65 -1 0  3.699999999999999 -1 0  3.75 -1 0  3.800000000000001 -1 0  3.85 -1 0  3.9 -1 0  3.949999999999999 -1 0  4 -1 0  4.050000000000001 -1 0  4.1 -1 0  4.15 -1 0  4.199999999999999 -1 0  4.25 -1 0  4.300000000000001 -1 0  4.35 -1 0  4.4 -1 0  4.449999999999999 -1 0  4.5 -1 0  4.550000000000001 -1 0  4.6 -1 0  4.65 -1 0  4.699999999999999 -1 0  4.75 -1 0  4.800000000000001 -1 0  4.85 -1 0  4.9 -1 0  4.949999999999999 -1 0  5 -1 0  -5 -0.95 0  -4.95 -0.95 0  -4.9 -0.95 0  -4.85 -0.95 0  -4.8 -0.95 0  -4.75 -0.95 0  -4.7 -0.95 0  -4.65 -0.95 0  -4.6 -0.95 0  -4.55 -0.95 0  -4.5 -0.95 0  -4.45 -0.95 0  -4.4 -0.95 0  -4.35 -0.95 0  -4.3 -0.95 0  -4.25 -0.95 0  -4.2 -0.95 0  -4.15 -0.95 0  -4.1 -0.95 0  -4.05 -0.95 0  -4 -0.95 0  -3.95 -0.95 0  -3.9 -0.95 0  -3.85 -0.95 0  -3.8 -0.95 0  -3.75 -0.95 0  -3.7 -0.95 0  -3.65 -0.95 0  -3.6 -0.95 0  -3.55 -0.95 0  -3.5 -0.95 0  -3.45 -0.95 0  -3.4 -0.95 0  -3.35 -0.95 0  -3.3 -0.95 0  -3.25 -0.95 0  -3.2 -0.95 0  -3.15 -0.95 0  -3.1 -0.95 0  -3.05 -0.95 0  -3 -0.95 0  -2.95 -0.95 0  -2.9 -0.95 0  -2.85 -0.95 0  -2.8 -0.95 0  -2.75 -0.95 0  -2.7 -0.95 0  -2.65 -0.95 0  -2.6 -0.95 0  -2.55 -0.95 0  -2.5 -0.95 0  -2.45 -0.95 0  -2.4 -0.95 0  -2.35 -0.95 0  -2.3 -0.95 0  -2.25 -0.95 0  -2.2 -0.95 0  -2.15 -0.95 0  -2.1 -0.95 0  -2.05 -0.95 0  -2 -0.95 0  -1.95 -0.95 0  -1.9 -0.95 0  -1.85 -0.95 0  -1.8 -0.95 0  -1.75 -0.95 0  -1.7 -0.95 0  -1.65 -0.95 0  -1.6 -0.95 0  -1.55 -0.95 0  -1.5 -0.95 0  -1.45 -0.95 0  -1.4 -0.95 0  -1.35 -0.95 0  -1.3 -0.95 0  -1.25 -0.95 0  -1.2 -0.95 0  -1.15 -0.95 0  -1.1 -0.95 0  -1.05 -0.95 0  -1 -0.95 0  -0.9500000000000002 -0.95 0  -0.9000000000000004 -0.95 0  -0.8499999999999996 -0.95 0  -0.7999999999999998 -0.95 0  -0.75 -0.95 0  -0.7000000000000002 -0.95 0  -0.6500000000000004 -0.95 0  -0.5999999999999996 -0.95 0  -0.5499999999999998 -0.95 0  -0.5 -0.95 0  -0.4500000000000002 -0.95 0  -0.4000000000000004 -0.95 0  -0.3499999999999996 -0.95 0  -0.2999999999999998 -0.95 0  -0.25 -0.95 0  -0.2000000000000002 -0.95 0  -0.1500000000000004 -0.95 0  -0.09999999999999964 -0.95 0  -0.04999999999999982 -0.95 0  0 -0.95 0  0.04999999999999982 -0.95 0  0.09999999999999964 -0.95 0  0.1500000000000004 -0.95 0  0.2000000000000002 -0.95 0  0.25 -0.95 0  0.2999999999999998 -0.95 0  0.3499999999999996 -0.95 0  0.4000000000000004 -0.95 0  0.4500000000000002 -0.95 0  0.5 -0.95 0  0.5499999999999998 -0.95 0  0.5999999999999996 -0.95 0  0.6500000000000004 -0.95 0  0.7000000000000002 -0.95 0  0.75 -0.95 0  0.7999999999999998 -0.95 0  0.8499999999999996 -0.95 0  0.9000000000000004 -0.95 0  0.9500000000000002 -0.95 0  1 -0.95 0  1.05 -0.95 0  1.1 -0.95 0  1.15 -0.95 0  1.2 -0.95 0  1.25 -0.95 0  1.3 -0.95 0  1.35 -0.95 0  1.4 -0.95 0  1.45 -0.95 0  1.5 -0.95 0  1.55 -0.95 0  1.6 -0.95 0  1.65 -0.95 0  1.7 -0.95 0  1.75 -0.95 0  1.8 -0.95 0  1.85 -0.95 0  1.9 -0.95 0  1.95 -0.95 0  2 -0.95 0  2.05 -0.95 0  2.1 -0.95 0  2.15 -0.95 0  2.2 -0.95 0  2.25 -0.95 0  2.3 -0.95 0  2.35 -0.95 0  2.4 -0.95 0  2.45 -0.95 0  2.5 -0.95 0  2.55 -0.95 0  2.6 -0.95 0  2.65 -0.95 0  2.7 -0.95 0  2.75 -0.95 0  2.8 -0.95 0  2.85 -0.95 0  2.9 -0.95 0  2.95 -0.95 0  3 -0.95 0  3.050000000000001 -0.95 0  3.1 -0.95 0  3.15 -0.95 0  3.199999999999999 -0.95 0  3.25 -0.95 0  3.300000000000001 -0.95 0  3.35 -0.95 0  3.4 -0.95 0  3.449999999999999 -0.95 0  3.5 -0.95 0  3.550000000000001 -0.95 0  3.6 -0.95 0  3.65 -0.95 0  3.699999999999999 -0.95 0  3.75 -0.95 0  3.800000000000001 -0.95 0  3.85 -0.95 0  3.9 -0.95 0  3.949999999999999 -0.95 0  4 -0.95 0  4.050000000000001 -0.95 0  4.1 -0.95 0  4.15 -0.95 0  4.199999999999999 -0.95 0  4.25 -0.95 0  4.300000000000001 -0.95 0  4.35 -0.95 0  4.4 -0.95 0  4.449999999999999 -0.95 0  4.5 -0.95 0  4.550000000000001 -0.95 0  4.6 -0.95 0  4.65 -0.95 0  4.699999999999999 -0.95 0  4.75 -0.95 0  4.800000000000001 -0.95 0  4.85 -0.95 0  4.9 -0.95 0  4.949999999999999 -0.95 0  5 -0.95 0  -5 -0.9 0  -4.95 -0.9 0  -4.9 -0.9 0  -4.85 -0.9 0  -4.8 -0.9 0  -4.75 -0.9 0  -4.7 -0.9 0  -4.65 -0.9 0  -4.6 -0.9 0  -4.55 -0.9 0  -4.5 -0.9 0  -4.45 -0.9 0  -4.4 -0.9 0  -4.35 -0.9 0  -4.3 -0.9 0  -4.25 -0.9 0  -4.2 -0.9 0  -4.15 -0.9 0  -4.1 -0.9 0  -4.05 -0.9 0  -4 -0.9 0  -3.95 -0.9 0  -3.9 -0.9 0  -3.85 -0.9 0  -3.8 -0.9 0  -3.75 -0.9 0  -3.7 -0.9 0  -3.65 -0.9 0  -3.6 -0.9 0  -3.55 -0.9 0  -3.5 -0.9 0  -3.45 -0.9 0  -3.4 -0.9 0  -3.35 -0.9 0  -3.3 -0.9 0  -3.25 -0.9 0  -3.2 -0.9 0  -3.15 -0.9 0  -3.1 -0.9 0  -3.05 -0.9 0  -3 -0.9 0  -2.95 -0.9 0  -2.9 -0.9 0  -2.85 -0.9 0  -2.8 -0.9 0  -2.75 -0.9 0  -2.7 -0.9 0  -2.65 -0.9 0  -2.6 -0.9 0  -2.55 -0.9 0  -2.5 -0.9 0  -2.45 -0.9 0  -2.4 -0.9 0  -2.35 -0.9 0  -2.3 -0.9 0  -2.25 -0.9 0  -2.2 -0.9 0  -2.15 -0.9 0  -2.1 -0.9 0  -2.05 -0.9 0  -2 -0.9 0  -1.95 -0.9 0  -1.9 -0.9 0  -1.85 -0.9 0  -1.8 -0.9 0  -1.75 -0.9 0  -1.7 -0.9 0  -1.65 -0.9 0  -1.6 -0.9 0  -1.55 -0.9 0  -1.5 -0.9 0  -1.45 -0.9 0  -1.4 -0.9 0  -1.35 -0.9 0  -1.3 -0.9 0  -1.25 -0.9 0  -1.2 -0.9 0  -1.15 -0.9 0  -1.1 -0.9 0  -1.05 -0.9 0  -1 -0.9 0  -0.9500000000000002 -0.9 0  -0.9000000000000004 -0.9 0  -0.8499999999999996 -0.9 0  -0.7999999999999998 -0.9 0  -0.75 -0.9 0  -0.7000000000000002 -0.9 0  -0.6500000000000004 -0.9 0  -0.5999999999999996 -0.9 0  -0.5499999999999998 -0.9 0  -0.5 -0.9 0  -0.4500000000000002 -0.9 0  -0.4000000000000004 -0.9 0  -0.3499999999999996 -0.9 0  -0.2999999999999998 -0.9 0  -0.25 -0.9 0  -0.2000000000000002 -0.9 0  -0.1500000000000004 -0.9 0  -0.09999999999999964 -0.9 0  -0.04999999999999982 -0.9 0  0 -0.9 0  0.04999999999999982 -0.9 0  0.09999999999999964 -0.9 0  0.1500000000000004 -0.9 0  0.2000000000000002 -0.9 0  0.25 -0.9 0  0.2999999999999998 -0.9 0  0.3499999999999996 -0.9 0  0.4000000000000004 -0.9 0  0.4500000000000002 -0.9 0  0.5 -0.9 0  0.5499999999999998 -0.9 0  0.5999999999999996 -0.9 0  0.6500000000000004 -0.9 0  0.7000000000000002 -0.9 0  0.75 -0.9 0  0.7999999999999998 -0.9 0  0.8499999999999996 -0.9 0  0.9000000000000004 -0.9 0  0.9500000000000002 -0.9 0  1 -0.9 0  1.05 -0.9 0  1.1 -0.9 0  1.15 -0.9 0  1.2 -0.9 0  1.25 -0.9 0  1.3 -0.9 0  1.35 -0.9 0  1.4 -0.9 0  1.45 -0.9 0  1.5 -0.9 0  1.55 -0.9 0  1.6 -0.9 0  1.65 -0.9 0  1.7 -0.9 0  1.75 -0.9 0  1.8 -0.9 0  1.85 -0.9 0  1.9 -0.9 0  1.95 -0.9 0  2 -0.9 0  2.05 -0.9 0  2.1 -0.9 0  2.15 -0.9 0  2.2 -0.9 0  2.25 -0.9 0  2.3 -0.9 0  2.35 -0.9 0  2.4 -0.9 0  2.45 -0.9 0  2.5 -0.9 0  2.55 -0.9 0  2.6 -0.9 0  2.65 -0.9 0  2.7 -0.9 0  2.75 -0.9 0  2.8 -0.9 0  2.85 -0.9 0  2.9 -0.9 0  2.95 -0.9 0  3 -0.9 0  3.050000000000001 -0.9 0  3.1 -0.9 0  3.15 -0.9 0  3.199999999999999 -0.9 0  3.25 -0.9 0  3.300000000000001 -0.9 0  3.35 -0.9 0  3.4 -0.9 0  3.449999999999999 -0.9 0  3.5 -0.9 0  3.550000000000001 -0.9 0  3.6 -0.9 0  3.65 -0.9 0  3.699999999999999 -0.9 0  3.75 -0.9 0  3.800000000000001 -0.9 0  3.85 -0.9 0  3.9 -0.9 0  3.949999999999999 -0.9 0  4 -0.9 0  4.050000000000001 -0.9 0  4.1 -0.9 0  4.15 -0.9 0  4.199999999999999 -0.9 0  4.25 -0.9 0  4.300000000000001 -0.9 0  4.35 -0.9 0  4.4 -0.9 0  4.449999999999999 -0.9 0  4.5 -0.9 0  4.550000000000001 -0.9 0  4.6 -0.9 0  4.65 -0.9 0  4.699999999999999 -0.9 0  4.75 -0.9 0  4.800000000000001 -0.9 0  4.85 -0.9 0  4.9 -0.9 0  4.949999999999999 -0.9 0  5 -0.9 0  -5 -0.85 0  -4.95 -0.85 0  -4.9 -0.85 0  -4.85 -0.85 0  -4.8 -0.85 0  -4.75 -0.85 0  -4.7 -0.85 0  -4.65 -0.85 0  -4.6 -0.85 0  -4.55 -0.85 0  -4.5 -0.85 0  -
[...]
<PointData  Vectors="f_15"> 
<DataArray  type="Float64"  Name="f_15"  NumberOfComponents="3" format="ascii">1.9093159717815413e+00 0.0000000000000000e+00 0.0000000000000000e+00  1.8810472388398154e+00 1.2484159224537390e-02 0.0000000000000000e+00  1.9066176723482364e+00 1.3297908537789407e-01 0.0000000000000000e+00  1.8812614966439976e+00 1.0827169939176493e-01 0.0000000000000000e+00  1.9054547660339645e+00 2.1392867483082506e-01 0.0000000000000000e+00  1.8799873916448260e+00 2.0977733398627721e-01 0.0000000000000000e+00  1.9042614919677816e+00 2.9615302751878697e-01 0.0000000000000000e+00  1.8792435402756043e+00 3.0608663291408889e-01 0.0000000000000000e+00  1.9024822373985311e+00 3.8222578962046538e-01 0.0000000000000000e+00  1.8786137347984146e+00 4.0152525887312740e-01 0.0000000000000000e+00  1.9007416075665153e+00 4.6659662426851084e-01 0.0000000000000000e+00  1.8776800503182249e+00 5.0358289533308442e-01 0.0000000000000000e+00  1.8989524100287403e+00 5.3936210978390364e-01 0.0000000000000000e+00  1.8766707762129506e+00 6.1726919712209483e-01 0.0000000000000000e+00  1.8968470232432313e+00 6.1374565115848367e-01 0.0000000000000000e+00  1.8755941553381239e+00 7.0285432818344995e-01 0.0000000000000000e+00  1.8946845201951474e+00 7.4096114614264907e-01 0.0000000000000000e+00  1.8740335214735975e+00 7.3435618755377041e-01 0.0000000000000000e+00  1.8924655703414939e+00 8.8591843722507380e-01 0.0000000000000000e+00  1.8721238804790108e+00 7.9805788900073682e-01 0.0000000000000000e+00  1.8896041181449350e+00 9.6914061015862663e-01 0.0000000000000000e+00  1.8705788131280607e+00 9.0836591711518222e-01 0.0000000000000000e+00  1.8862308591604158e+00 1.0468601990772717e+00 0.0000000000000000e+00  1.8684261335242731e+00 9.9933921620922728e-01 0.0000000000000000e+00  1.8832655937440261e+00 1.1344986744939254e+00 0.0000000000000000e+00  1.8655091436305171e+00 1.0994791039813545e+00 0.0000000000000000e+00  1.8798120697939555e+00 1.2143896032192654e+00 0.0000000000000000e+00  1.8628339026422276e+00 1.1882784893309022e+00 0.0000000000000000e+00  1.8755139530274927e+00 1.3083045028017710e+00 0.0000000000000000e+00  1.8598468961416355e+00 1.2781601951902548e+00 0.0000000000000000e+00  1.8712618330159259e+00 1.3864252991597761e+00 0.0000000000000000e+00  1.8559403773193106e+00 1.3736086316529073e+00 0.0000000000000000e+00  1.8669499570476946e+00 1.4723158698866023e+00 0.0000000000000000e+00  1.8515532370898835e+00 1.4594749842477299e+00 0.0000000000000000e+00  1.8620347654486786e+00 1.5562388327195105e+00 0.0000000000000000e+00  1.8467592721108839e+00 1.5481157669598433e+00 0.0000000000000000e+00  1.8569414613319146e+00 1.6375272965536520e+00 0.0000000000000000e+00  1.8411397675074059e+00 1.6379506208314791e+00 0.0000000000000000e+00  1.8513726952357388e+00 1.7148309719534316e+00 0.0000000000000000e+00  1.8353064924881242e+00 1.7227167398367471e+00 0.0000000000000000e+00  1.8452033402321935e+00 1.7983618274122406e+00 0.0000000000000000e+00  1.8286813763091048e+00 1.8041297823827109e+00 0.0000000000000000e+00  1.8391680176456420e+00 1.8738952035028402e+00 0.0000000000000000e+00  1.8212701900629735e+00 1.8861347141630187e+00 0.0000000000000000e+00  1.8328194036832703e+00 1.9509440474685389e+00 0.0000000000000000e+00  1.8138627915110179e+00 1.9594950396232056e+00 0.0000000000000000e+00  1.8262051596467572e+00 2.0270514016871681e+00 0.0000000000000000e+00  1.8062983862141790e+00 2.0289386831308400e+00 0.0000000000000000e+00  1.8204108359970461e+00 2.0957860440142522e+00 0.0000000000000000e+00  1.7989866251766369e+00 2.0965040270270134e+00 0.0000000000000000e+00  1.8157142969422178e+00 2.1573434449600581e+00 0.0000000000000000e+00  1.7938320130064267e+00 2.1513946419013106e+00 0.0000000000000000e+00  1.8131673775198105e+00 2.2115100011939188e+00 0.0000000000000000e+00  1.7922457472540316e+00 2.1952709273078677e+00 0.0000000000000000e+00  1.8147057204593513e+00 2.2472737626704840e+00 0.0000000000000000e+00  1.7950351527590638e+00 2.2273401544500335e+00 0.0000000000000000e+00  1.8202133806281235e+00 2.2687520421402194e+00 0.0000000000000000e+00  1.8013737268308481e+00 2.2444803352304841e+00 0.0000000000000000e+00  1.8271781937996157e+00 2.2839584934868085e+00 0.0000000000000000e+00  1.8086415543228929e+00 2.2572016958196151e+00 0.0000000000000000e+00  1.8334931254618250e+00 2.2922273607242705e+00 0.0000000000000000e+00  1.8150719435451119e+00 2.2704087468113312e+00 0.0000000000000000e+00  1.8386012638455740e+00 2.3002654787520136e+00 0.0000000000000000e+00  1.8204565904027310e+00 2.2791738737284803e+00 0.0000000000000000e+00  1.8421756438755068e+00 2.3095974658977703e+00 0.0000000000000000e+00  1.8253812261042717e+00 2.2871868304034630e+00 0.0000000000000000e+00  1.8442191305678197e+00 2.3147411344151405e+00 0.0000000000000000e+00  1.8297759845043888e+00 2.2946479995974363e+00 0.0000000000000000e+00  1.8455119486133409e+00 2.3212175835273965e+00 0.0000000000000000e+00  1.8330330275161977e+00 2.2970131718965217e+00 0.0000000000000000e+00  1.8463250792415125e+00 2.3273090801355889e+00 0.0000000000000000e+00  1.8358235509457166e+00 2.3013542428007887e+00 0.0000000000000000e+00  1.8462896558496025e+00 2.3276190526833882e+00 0.0000000000000000e+00  1.8385835234084089e+00 2.3057629552977441e+00 0.0000000000000000e+00  1.8457767817738211e+00 2.3308687451426700e+00 0.0000000000000000e+00  1.8406806056343481e+00 2.3033873941206107e+00 0.0000000000000000e+00  1.8453911100668394e+00 2.3364507135242540e+00 0.0000000000000000e+00  1.8422290947145739e+00 2.3025321584991181e+00 0.0000000000000000e+00  1.8448347742736895e+00 2.3380813430512646e+00 0.0000000000000000e+00  1.8438210422743231e+00 2.3009051829446849e+00 0.0000000000000000e+00  1.8441199701363908e+00 2.3450440709854177e+00 0.0000000000000000e+00  1.8447562106646533e+00 2.2928546889110839e+00 0.0000000000000000e+00  1.8441285046429605e+00 2.3532984628925133e+00 0.0000000000000000e+00  1.8453366258461670e+00 2.2892039891113574e+00 0.0000000000000000e+00  1.8436155184677288e+00 2.3554277265530237e+00 0.0000000000000000e+00  1.8467289365778492e+00 2.2875973478615270e+00 0.0000000000000000e+00  1.8428443893482054e+00 2.3607292735672476e+00 0.0000000000000000e+00  1.8472111850040587e+00 2.2822979290471856e+00 0.0000000000000000e+00  1.8434644370754394e+00 2.3652635234131782e+00 0.0000000000000000e+00  1.8473602661523585e+00 2.2824209694942321e+00 0.0000000000000000e+00  1.8429361965581890e+00 2.3642756811158048e+00 0.0000000000000000e+00  1.8490720637008742e+00 2.2841041451770878e+00 0.0000000000000000e+00  1.8420036923442116e+00 2.3665778164870432e+00 0.0000000000000000e+00  1.8497146644534210e+00 2.2817934568058709e+00 0.0000000000000000e+00  1.8426636790691568e+00 2.3690226874916949e+00 0.0000000000000000e+00  1.8500166301578806e+00 2.2840040401022197e+00 0.0000000000000000e+00  1.8419393883476849e+00 2.3666418540320739e+00 0.0000000000000000e+00  1.8520050366742680e+00 2.2876770949316017e+00 0.0000000000000000e+00  1.8411066595297974e+00 2.3669846468004336e+00 0.0000000000000000e+00  1.8524537680078572e+00 2.2874039673800168e+00 0.0000000000000000e+00  1.8418439857805953e+00 2.3684848920158363e+00 0.0000000000000000e+00  1.8528119176248521e+00 2.2902989951888730e+00 0.0000000000000000e+00  1.8410888994781458e+00 2.3651769476039672e+00 0.0000000000000000e+00  1.8546344352936708e+00 2.2950314696321219e+00 0.0000000000000000e+00  1.8405459962601318e+00 2.3641571616164985e+00 0.0000000000000000e+00  1.8544613669986252e+00 2.2958450245683788e+00 0.0000000000000000e+00  1.8416909913226247e+00 2.3642690257776215e+00 0.0000000000000000e+00  1.8545288797165911e+00 2.2993388239344590e+00 0.0000000000000000e+00  1.8410096252587282e+00 2.3594820817454649e+00 0.0000000000000000e+00  1.8557553870017331e+00 2.3053387049393343e+00 0.0000000000000000e+00  1.8411061734363530e+00 2.3564886422833848e+00 0.0000000000000000e+00  1.8547085362410936e+00 2.3066988123017307e+00 0.0000000000000000e+00  1.8428513570768523e+00 2.3555490609776371e+00 0.0000000000000000e+00  1.8539832019479261e+00 2.3102638066260246e+00 0.0000000000000000e+00  1.8426445707480466e+00 2.3502582116887551e+00 0.0000000000000000e+00  1.8544834605618883e+00 2.3153579610746826e+00 0.0000000000000000e+00  1.8434230294317502e+00 2.3475566329339794e+00 0.0000000000000000e+00  1.8525070521809306e+00 2.3157338553781668e+00 0.0000000000000000e+00  1.8455399303304443e+00 2.3471602894805579e+00 0.0000000000000000e+00  1.8515262691850842e+00 2.3182057199376067e+00 0.0000000000000000e+00  1.8454395912897728e+00 2.3418353802195959e+00 0.0000000000000000e+00  1.8516096465131699e+00 2.3235240751873558e+00 0.0000000000000000e+00  1.8463556418490026e+00 2.3383740750012656e+00 0.0000000000000000e+00  1.8495110311401939e+00 2.3245679547791229e+00 0.0000000000000000e+00  1.8485750569565358e+00 2.3364576984904057e+00 0.0000000000000000e+00  1.8481848034011779e+00 2.3282083715070003e+00 0.0000000000000000e+00  1.8486758584731346e+00 2.3312841395106134e+00 0.0000000000000000e+00  1.8480445084174215e+00 2.3316414873628921e+00 0.0000000000000000e+00  1.8499395872101645e+00 2.3297435602956642e+00 0.0000000000000000e+00  1.8455736484703260e+00 2.3316708772517929e+00 0.0000000000000000e+00  1.8522198999120458e+00 2.3270778078899417e+00 0.0000000000000000e+00  1.8443938956474655e+00 2.3376739739179344e+00 0.0000000000000000e+00  1.8525216514783311e+00 2.3173266109657633e+00 0.0000000000000000e+00  1.8439749243197889e+00 2.3449808502442613e+00 0.0000000000000000e+00  1.8538381838799223e+00 2.3147786154732506e+00 0.0000000000000000e+00  1.8421897251050470e+00 2.3402573484694829e+00 0.0000000000000000e+00  1.8558448491666086e+00 2.3206427095344977e+00 0.0000000000000000e+00  1.8414951448987680e+00 2.3329459522361513e+00 0.0000000000000000e+00  1.8563904141225827e+00 2.3258513422983307e+00 0.0000000000000000e+00  1.8419441783713919e+00 2.3224126594160199e+00 0.0000000000000000e+00  1.8585496351925805e+00 2.3347211509017103e+00 0.0000000000000000e+00  1.8407055210090044e+00 2.3101112298404818e+00 0.0000000000000000e+00  1.8617744898876563e+00 2.3357278741662668e+00 0.0000000000000000e+00  1.8424486510707347e+00 2.3079599114462876e+00 0.0000000000000000e+00  1.8629465322812535e+00 2.3240496892070031e+00 0.0000000000000000e+00  1.8449120642801018e+00 2.3101034822566229e+00 0.0000000000000000e+00  1.8675460848687013e+00 2.3109494862813773e+00 0.0000000000000000e+00  1.8458931439919963e+00 2.3074148398967855e+00 0.0000000000000000e+00  1.8709895459521830e+00 2.2991933373171327e+00 0.0000000000000000e+00  1.8508235037678071e+00 2.3067724710223909e+00 0.0000000000000000e+00  1.8723094874661810e+00 2.2825437727047451e+00 0.0000000000000000e+00  1.8543315389361283e+00 2.3076560397418397e+00 0.0000000000000000e+00  1.8766232581963715e+00 2.2708000954312433e+00 0.0000000000000000e+00  1.8572338844128786e+00 2.2986875287763424e+00 0.0000000000000000e+00  1.8805733218483844e+00 2.2595202996240813e+00 0.0000000000000000e+00  1.8662075078671880e+00 2.2861550675198390e+00 0.0000000000000000e+00  1.8879202827847370e+00 2.2337935745008139e+00 0.0000000000000000e+00  1.8801781983806574e+00 2.2629987852846742e+00 0.0000000000000000e+00  1.9056653956744063e+00 2.2016864141750663e+00 0.0000000000000000e+00  1.8963786600138515e+00 2.2295237931567962e+00 0.0000000000000000e+00  1.9209740070293946e+00 2.1794828543138731e+00 0.0000000000000000e+00  1.9035153326699870e+00 2.2231669605372613e+00 0.0000000000000000e+00  1.9121816080237928e+00 2.1965342142419781e+00 0.0000000000000000e+00  1.8810778433794846e+00 2.2666311028646096e+00 0.0000000000000000e+00  1.8824375351012921e+00 2.2553583825809986e+00 0.0000000000000000e+00  1.8451861720456542e+00 2.3250275140712122e+00 0.0000000000000000e+00  1.8568823084483861e+00 2.3019971198847862e+00 0.0000000000000000e+00  1.8299023296876566e+00 2.3596846963283182e+00 0.0000000000000000e+00  1.8433143769033813e+00 2.3181744514934399e+00 0.0000000000000000e+00  1.8219092788787026e+00 2.3799569015916457e+00 0.0000000000000000e+00  1.8274157728262468e+00 2.3338975342810966e+00 0.0000000000000000e+00  1.8165602913231917e+00 2.3996127219013195e+00 0.0000000000000000e+00  2.2465160895979244e+00 1.4085020933125334e+00 0.0000000000000000e+00  2.7734310681261833e+00 3.3170350237037316e-01 0.0000000000000000e+00  2.9639127828593792e+00 7.3547251336839332e-03 0.0000000000000000e+00  2.9585560344885100e+00 1.2357173757476083e-02 0.0000000000000000e+00  2.9723529571805343e+00 -2.1040490295879996e-02 0.0000000000000000e+00  2.9635334562299409e+00 -1.1562283089436512e-02 0.0000000000000000e+00  2.9756044180853856e+00 -2.0372412919534739e-02 0.0000000000000000e+00  2.9632208379589295e+00 -1.7822929197496305e-02 0.0000000000000000e+00  2.9780642989486346e+00 -2.9690617985704482e-02 0.0000000000000000e+00  2.9615285518751624e+00 -1.7786115964418966e-02 0.0000000000000000e+00  2.9784750658606147e+00 -3.3987351046067753e-02 0.0000000000000000e+00  2.9593050920081869e+00 -1.9575362014007742e-02 0.0000000000000000e+00  2.9792445902544253e+00 -3.7462094056776959e-02 0.0000000000000000e+00  2.9584826155268300e+00 -1.6915597183479809e-02 0.0000000000000000e+00  2.9786122559939550e+00 -3.9393410290188426e-02 0.0000000000000000e+00  2.9585131212574614e+00 -1.0752485560521675e-02 0.0000000000000000e+00  2.9779353068265517e+00 -3.2738828474043503e-02 0.0000000000000000e+00  2.9575518091050754e+00 -9.5088521769173418e-03 0.0000000000000000e+00  2.9783150944543322e+00 -2.8892255364939275e-02 0.0000000000000000e+00  2.9578809841326672e+00 -2.3607827585636319e-02 0.0000000000000000e+00  2.9758849625862727e+00 -5.4377251083063870e-02 0.0000000000000000e+00  2.9609809098877040e+00 -6.0065018157345780e-02 0.0000000000000000e+00  2.9732386297010778e+00 -8.2604641428797643e-02 0.0000000000000000e+00  2.9626217603093425e+00 -7.7268316574273715e-02 0.0000000000000000e+00  2.9730127552138743e+00 -7.6133335478221861e-02 0.0000000000000000e+00  2.9649252899069967e+00 -5.5892793758970417e-02 0.0000000000000000e+00  2.9710230685602008e+00 -6.2603648189972494e-02 0.0000000000000000e+00  2.9703309414795775e+00 -3.5708653337882437e-02 0.0000000000000000e+00  2.9690078466754932e+00 0.0000000000000000e+00 0.0000000000000000e+00  1.8912812110250499e+00 0.0000000000000000e+00 3.6957952177910619e-02  1.8864376964507019e+00 5.0963078013089601e-02 -9.3367228447828344e-03  1.8910624969804717e+00 7.8737178337289132e-02 -5.1861618089269947e-03  1.8889093683850198e+00 1.3107458699901439e-01 -1.1614592397402375e-03  1.8901536752537964e+00 1.8554888525888372e-01 4.1533375605842865e-03  1.8899834452030109e+00 2.1960607697519033e-01 -6.9834182681019000e-03  1.8900816323485141e+00 2.8008176798247458e-01 8.3899562237934946e-03  1.8897935882347334e+00 3.1325679976086435e-01 -9.0951191996173422e-03  1.8897596674415316e+00 3.7273804502873481e-01 9.5637670969217718e-03  1.8894369771612167e+00 4.0529977499087483e-01 -9.7166450722093768e-03  1.8887963373377190e+00 4.6720085221033031e-01 9.7848116269847307e-03  1.8887547070223971e+00 4.9258226020118095e-01 -9.4168194055763328e-03  1.8876689495798744e+00 5.6559370710512213e-01 9.2784663120816912e-03  1.8874500033370256e+00 5.8031919459055714e-01 -9.2141480792470153e-03  1.8864680827733766e+00 6.5127239146122062e-01 8.6723207054882085e-03  1.8856494498616436e+00 6.9117225108344471e-01 -4.9371884055110617e-03  1.8851558737153944e+00 7.1315115042621868e-01 -4.7791225668118017e-03  1.8832438913538532e+00 8.0869119945826895e-01 2.0759906795354791e-02  1.8838283793459183e+00 7.9292301015599087e-01 -3.7394965457573662e-02  1.8802628625506277e+00 8.9464682160009934e-01 4.8386916797647013e-02  1.8821133667330392e+00 8.9423471537198540e-01 -4.7466531947980520e-02  1.8778260975838130e+00 9.7994727714656527e-01 3.7889845588050579e-02  1.8790534700221257e+00 9.8338234115275069e-01 -2.5481576902670881e-02  1.8761135605395247e+00 1.0649926795154028e+00 1.6316058454039935e-02  1.8752775865029685e+00 1.0872340974395980e+00 -1.1338033210741628e-02  1.8735733237703316e+00 1.1378742749014288e+00 8.6912170429977956e-03  1.8721423502172760e+00 1.1798324168268040e+00 -8.6207234900245455e-03  1.8698990968916092e+00 1.2347092650220555e+00 9.4511806561150893e-03  1.8687422219531076e+00 1.2612949277168115e+00 -9.7773460532555798e-03  1.8663846003629736e+00 1.3186459463557805e+00 7.1090653695818420e-03  1.8642982671061772e+00 1.3582559404772980e+00 -3.1897425717489678e-03  1.8628454821391929e+00 1.4017291190439682e+00 5.6221432932878593e-04  1.8596233593609948e+00 1.4431373722682985e+00 -1.7063168320072624e-04  1.8584899416460157e+00 1.4892805268690468e+00 -7.1327093212365930e-04  1.8547695894468132e+00 1.5314731520916369e+00 2.8666262397819223e-03  1.8539003761131811e+00 1.5707006478288899e+00 -4.9331260112774333e-03  1.8492210255271386e+00 1.6198619560346283e+00 5.8561061252583816e-03  1.8488593092892338e+00 1.6515200676971447e+00 -6.9024785351126114e-03  1.8436056862700714e+00 1.7046870043459479e+00 8.3447587166820287e-03  1.8431236064238476e+00 1.7360120510092152e+00 -9.3962805082375839e-03  1.8374544455646966e+00 1.7853488753849507e+00 9.3730489453907155e-03  1.8373765548720933e+00 1.8149290706190235e+00 -9.8809003356820479e-03  1.8306192592306865e+00 1.8692733056740305e+00 1.1183111028319342e-02  1.8311945029170260e+00 1.8930107684822006e+00 -1.2371930729709175e-02  1.8237808488805005e+00 1.9458468262978272e+00 1.3295636053228439e-02  1.8245903486555402e+00 1.9705169648790541e+00 -1.4320243506242889e-02  1.8166179798674806e+00 2.0216140361705084e+00 1.6240573960376724e-02  1.8185938572042857e+00 2.0400969008656604e+00 -1.7559106443014540e-02  1.8093724603619918e+00 2.0964914297375001e+00 1.9408108580707198e-02  1.8133055234682145e+00 2.1035324650705478e+00 -2.0867884211828960e-02  1.8036880769616694e+00 2.1612469858526060e+00 2.3214614692846910e-02  1.8094879839016771e+00 2.1618219809366210e+00 -2.4308800640335672e-02  1.8006398773404726e+00 2.2168431295363558e+00 2.6207728752076866e-02  1.8091254323118313e+00 2.2042594709447325e+00 -2.6813856365353640e-02  1.8015451593822482e+00 2.2606012300498914e+00 2.8406926577380157e-02  1.8130871941294340e+00 2.2332608269454326e+00 -2.8349684443923075e-02  1.8070522079148164e+00 2.2858065976283473e+00 2.9408806636917039e-02  1.8200770832686923e+00 2.2534258875820492e+00 -2.9059942817179989e-02  1.8148386392275593e+00 2.3014599197072685e+00 2.9485014988978920e-02  1.8275081575930971e+00 2.2646694768334243e+00 -2.8870627229935466e-02  1.8220849023878223e+00 2.3155260185032986e+00 2.8423451450510336e-02  1.8338469980323613e+00 2.2760986217036083e+00 -2.7607236629033700e-02  1.8281668171944474e+00 2.3237350928822638e+00 2.6537304455483024e-02  1.8387306303006412e+00 2.2887509418558296e+00 -2.5786063854202131e-02  1.8335042768646752e+00 2.3307335861825456e+00 2.4265789734751339e-02  1.8422757665032607e+00 2.2972510154125514e+00 -2.3473183228262529e-02  1.8379097478895474e+00 2.3377342586296121e+00 2.1847513445542831e-02  1.8452477427991651e+00 2.3060099360477264e+00 -2.1264187108591456e-02  1.8409699713376990e+00 2.3400092907842462e+00 1.9838668459676780e-02  1.8479133827379739e+00 2.3139587018989487e+00 -1.9559695341624800e-02  1.8434026654257440e+00 2.3442290200488700e+00 1.8514521362621526e-02  1.8496988873768334e+00 2.3161646319269114e+00 -1.8344789328915503e-02  1.8454888339199889e+00 2.3487639542027536e+00 1.7423729037675258e-02  1.8509487750034066e+00 2.3207610119733255e+00 -1.7324402788358718e-02  1.8467016878093752e+00 2.3475532331610944e+00 1.6781773751235213e-02  1.8522904349596574e+00 2.3261737231511246e+00 -1.6954268109496785e-02  1.8473053222444873e+00 2.3490401240182788e+00 1.6829993602964399e-02  1.8532565348378507e+00 2.3255295780495673e+00 -1.7241548152733009e-02  1.8478641358960726e+00 2.3516722212314232e+00 1.7344350694942137e-02  1.8538090413153565e+00 2.3279334429699277e+00 -1.7850387704280542e-02  1.8479387866665367e+00 2.3490126908274012e+00 1.8130574996784478e-02  1.8546854611448169e+00 2.3304683792557164e+00 -1.8626246971472894e-02  1.8477219341192