<?xml version="1.0"?>
<VTKFile type="UnstructuredGrid"  version="0.1"  >
<UnstructuredGrid>
<Piece  NumberOfPoints="8241" NumberOfCells="16000">
<Points>
<DataArray  type="Float64"  NumberOfComponents="3"  format="ascii">-5 -1 0  -4.95 -1 0  -4.9 -1 0  -4.85 -1 0  -4.8 -1 0  -4.75 -1 0  -4.7 -1 0  -4.65 -1 0  -4.6 -1 0  -4.55 -1 0  -4.5 -1 0  -4.45 -1 0  -4.4 -1 0  -4.35 -1 0  -4.3 -1 0  -4.25 -1 0  -4.2 -1 0  -4.15 -1 0  -4.1 -1 0  -4.05 -1 0  -4 -1 0  -3.95 -1 0  -3.9 -1 0  -3.85 -1 0  -3.8 -1 0  -3.75 -1 0  -3.7 -1 0  -3.65 -1 0  -3.6 -1 0  -3.55 -1 0  -3.5 -1 0  -3.45 -1 0  -3.4 -1 0  -3.35 -1 0  -3.3 -1 0  -3.25 -1 0  -3.2 -1 0  -3.15 -1 0  -3.1 -1 0  -3.05 -1 0  -3 -1 0  -2.95 -1 0  -2.9 -1 0  -2.85 -1 0  -2.8 -1 0  -2.75 -1 0  -2.7 -1 0  -2.65 -1 0  -2.6 -1 0  -2.55 -1 0  -2.5 -1 0  -2.45 -1 0  -2.4 -1 0  -2.35 -1 0  -2.3 -1 0  -2.25 -1 0  -2.2 -1 0  -2.15 -1 0  -2.1 -1 0  -2.05 -1 0  -2 -1 0  -1.95 -1 0  -1.9 -1 0  -1.85 -1 0  -1.8 -1 0  -1.75 -1 0  -1.7 -1 0  -1.65 -1 0  -1.6 -1 0  -1.55 -1 0  -1.5 -1 0  -1.45 -1 0  -1.4 -1 0  -1.35 -1 0  -1.3 -1 0  -1.25 -1 0  -1.2 -1 0  -1.15 -1 0  -1.1 -1 0  -1.05 -1 0  -1 -1 0  -0.9500000000000002 -1 0  -0.9000000000000004 -1 0  -0.8499999999999996 -1 0  -0.7999999999999998 -1 0  -0.75 -1 0  -0.7000000000000002 -1 0  -0.6500000000000004 -1 0  -0.5999999999999996 -1 0  -0.5499999999999998 -1 0  -0.5 -1 0  -0.4500000000000002 -1 0  -0.4000000000000004 -1 0  -0.3499999999999996 -1 0  -0.2999999999999998 -1 0  -0.25 -1 0  -0.2000000000000002 -1 0  -0.1500000000000004 -1 0  -0.09999999999999964 -1 0  -0.04999999999999982 -1 0  0 -1 0  0.04999999999999982 -1 0  0.09999999999999964 -1 0  0.1500000000000004 -1 0  0.2000000000000002 -1 0  0.25 -1 0  0.2999999999999998 -1 0  0.3499999999999996 -1 0  0.4000000000000004 -1 0  0.4500000000000002 -1 0  0.5 -1 0  0.5499999999999998 -1 0  0.5999999999999996 -1 0  0.6500000000000004 -1 0  0.7000000000000002 -1 0  0.75 -1 0  0.7999999999999998 -1 0  0.8499999999999996 -1 0  0.9000000000000004 -1 0  0.9500000000000002 -1 0  1 -1 0  1.05 -1 0  1.1 -1 0  1.15 -1 0  1.2 -1 0  1.25 -1 0  1.3 -1 0  1.35 -1 0  1.4 -1 0  1.45 -1 0  1.5 -1 0  1.55 -1 0  1.6 -1 0  1.65 -1 0  1.7 -1 0  1.75 -1 0  1.8 -1 0  1.85 -1 0  1.9 -1 0  1.95 -1 0  2 -1 0  2.05 -1 0  2.1 -1 0  2.15 -1 0  2.2 -1 0  2.25 -1 0  2.3 -1 0  2.35 -1 0  2.4 -1 0  2.45 -1 0  2.5 -1 0  2.55 -1 0  2.6 -1 0  2.65 -1 0  2.7 -1 0  2.75 -1 0  2.8 -1 0  2.85 -1 0  2.9 -1 0  2.95 -1 0  3 -1 0  3.050000000000001 -1 0  3.1 -1 0  3.15 -1 0  3.199999999999999 -1 0  3.25 -1 0  3.300000000000001 -1 0  3.35 -1 0  3.4 -1 0  3.449999999999999 -1 0  3.5 -1 0  3.550000000000001 -1 0  3.6 -1 0  3.65 -1 0  3.699999999999999 -1 0  3.75 -1 0  3.800000000000001 -1 0  3.85 -1 0  3.9 -1 0  3.949999999999999 -1 0  4 -1 0  4.050000000000001 -1 0  4.1 -1 0  4.15 -1 0  4.199999999999999 -1 0  4.25 -1 0  4.300000000000001 -1 0  4.35 -1 0  4.4 -1 0  4.449999999999999 -1 0  4.5 -1 0  4.550000000000001 -1 0  4.6 -1 0  4.65 -1 0  4.699999999999999 -1 0  4.75 -1 0  4.800000000000001 -1 0  4.85 -1 0  4.9 -1 0  4.949999999999999 -1 0  5 -1 0  -5 -0.95 0  -4.95 -0.95 0  -4.9 -0.95 0  -4.85 -0.95 0  -4.8 -0.95 0  -4.75 -0.95 0  -4.7 -0.95 0  -4.65 -0.95 0  -4.6 -0.95 0  -4.55 -0.95 0  -4.5 -0.95 0  -4.45 -0.95 0  -4.4 -0.95 0  -4.35 -0.95 0  -4.3 -0.95 0  -4.25 -0.95 0  -4.2 -0.95 0  -4.15 -0.95 0  -4.1 -0.95 0  -4.05 -0.95 0  -4 -0.95 0  -3.95 -0.95 0  -3.9 -0.95 0  -3.85 -0.95 0  -3.8 -0.95 0  -3.75 -0.95 0  -3.7 -0.95 0  -3.65 -0.95 0  -3.6 -0.95 0  -3.55 -0.95 0  -3.5 -0.95 0  -3.45 -0.95 0  -3.4 -0.95 0  -3.35 -0.95 0  -3.3 -0.95 0  -3.25 -0.95 0  -3.2 -0.95 0  -3.15 -0.95 0  -3.1 -0.95 0  -3.05 -0.95 0  -3 -0.95 0  -2.95 -0.95 0  -2.9 -0.95 0  -2.85 -0.95 0  -2.8 -0.95 0  -2.75 -0.95 0  -2.7 -0.95 0  -2.65 -0.95 0  -2.6 -0.95 0  -2.55 -0.95 0  -2.5 -0.95 0  -2.45 -0.95 0  -2.4 -0.95 0  -2.35 -0.95 0  -2.3 -0.95 0  -2.25 -0.95 0  -2.2 -0.95 0  -2.15 -0.95 0  -2.1 -0.95 0  -2.05 -0.95 0  -2 -0.95 0  -1.95 -0.95 0  -1.9 -0.95 0  -1.85 -0.95 0  -1.8 -0.95 0  -1.75 -0.95 0  -1.7 -0.95 0  -1.65 -0.95 0  -1.6 -0.95 0  -1.55 -0.95 0  -1.5 -0.95 0  -1.45 -0.95 0  -1.4 -0.95 0  -1.35 -0.95 0  -1.3 -0.95 0  -1.25 -0.95 0  -1.2 -0.95 0  -1.15 -0.95 0  -1.1 -0.95 0  -1.05 -0.95 0  -1 -0.95 0  -0.9500000000000002 -0.95 0  -0.9000000000000004 -0.95 0  -0.8499999999999996 -0.95 0  -0.7999999999999998 -0.95 0  -0.75 -0.95 0  -0.7000000000000002 -0.95 0  -0.6500000000000004 -0.95 0  -0.5999999999999996 -0.95 0  -0.5499999999999998 -0.95 0  -0.5 -0.95 0  -0.4500000000000002 -0.95 0  -0.4000000000000004 -0.95 0  -0.3499999999999996 -0.95 0  -0.2999999999999998 -0.95 0  -0.25 -0.95 0  -0.2000000000000002 -0.95 0  -0.1500000000000004 -0.95 0  -0.09999999999999964 -0.95 0  -0.04999999999999982 -0.95 0  0 -0.95 0  0.04999999999999982 -0.95 0  0.09999999999999964 -0.95 0  0.1500000000000004 -0.95 0  0.2000000000000002 -0.95 0  0.25 -0.95 0  0.2999999999999998 -0.95 0  0.3499999999999996 -0.95 0  0.4000000000000004 -0.95 0  0.4500000000000002 -0.95 0  0.5 -0.95 0  0.5499999999999998 -0.95 0  0.5999999999999996 -0.95 0  0.6500000000000004 -0.95 0  0.7000000000000002 -0.95 0  0.75 -0.95 0  0.7999999999999998 -0.95 0  0.8499999999999996 -0.95 0  0.9000000000000004 -0.95 0  0.9500000000000002 -0.95 0  1 -0.95 0  1.05 -0.95 0  1.1 -0.95 0  1.15 -0.95 0  1.2 -0.95 0  1.25 -0.95 0  1.3 -0.95 0  1.35 -0.95 0  1.4 -0.95 0  1.45 -0.95 0  1.5 -0.95 0  1.55 -0.95 0  1.6 -0.95 0  1.65 -0.95 0  1.7 -0.95 0  1.75 -0.95 0  1.8 -0.95 0  1.85 -0.95 0  1.9 -0.95 0  1.95 -0.95 0  2 -0.95 0  2.05 -0.95 0  2.1 -0.95 0  2.15 -0.95 0  2.2 -0.95 0  2.25 -0.95 0  2.3 -0.95 0  2.35 -0.95 0  2.4 -0.95 0  2.45 -0.95 0  2.5 -0.95 0  2.55 -0.95 0  2.6 -0.95 0  2.65 -0.95 0  2.7 -0.95 0  2.75 -0.95 0  2.8 -0.95 0  2.85 -0.95 0  2.9 -0.95 0  2.95 -0.95 0  3 -0.95 0  3.050000000000001 -0.95 0  3.1 -0.95 0  3.15 -0.95 0  3.199999999999999 -0.95 0  3.25 -0.95 0  3.300000000000001 -0.95 0  3.35 -0.95 0  3.4 -0.95 0  3.449999999999999 -0.95 0  3.5 -0.95 0  3.550000000000001 -0.95 0  3.6 -0.95 0  3.65 -0.95 0  3.699999999999999 -0.95 0  3.75 -0.95 0  3.800000000000001 -0.95 0  3.85 -0.95 0  3.9 -0.95 0  3.949999999999999 -0.95 0  4 -0.95 0  4.050000000000001 -0.95 0  4.1 -0.95 0  4.15 -0.95 0  4.199999999999999 -0.95 0  4.25 -0.95 0  4.300000000000001 -0.95 0  4.35 -0.95 0  4.4 -0.95 0  4.449999999999999 -0.95 0  4.5 -0.95 0  4.550000000000001 -0.95 0  4.6 -0.95 0  4.65 -0.95 0  4.699999999999999 -0.95 0  4.75 -0.95 0  4.800000000000001 -0.95 0  4.85 -0.95 0  4.9 -0.95 0  4.949999999999999 -0.95 0  5 -0.95 0  -5 -0.9 0  -4.95 -0.9 0  -4.9 -0.9 0  -4.85 -0.9 0  -4.8 -0.9 0  -4.75 -0.9 0  -4.7 -0.9 0  -4.65 -0.9 0  -4.6 -0.9 0  -4.55 -0.9 0  -4.5 -0.9 0  -4.45 -0.9 0  -4.4 -0.9 0  -4.35 -0.9 0  -4.3 -0.9 0  -4.25 -0.9 0  -4.2 -0.9 0  -4.15 -0.9 0  -4.1 -0.9 0  -4.05 -0.9 0  -4 -0.9 0  -3.95 -0.9 0  -3.9 -0.9 0  -3.85 -0.9 0  -3.8 -0.9 0  -3.75 -0.9 0  -3.7 -0.9 0  -3.65 -0.9 0  -3.6 -0.9 0  -3.55 -0.9 0  -3.5 -0.9 0  -3.45 -0.9 0  -3.4 -0.9 0  -3.35 -0.9 0  -3.3 -0.9 0  -3.25 -0.9 0  -3.2 -0.9 0  -3.15 -0.9 0  -3.1 -0.9 0  -3.05 -0.9 0  -3 -0.9 0  -2.95 -0.9 0  -2.9 -0.9 0  -2.85 -0.9 0  -2.8 -0.9 0  -2.75 -0.9 0  -2.7 -0.9 0  -2.65 -0.9 0  -2.6 -0.9 0  -2.55 -0.9 0  -2.5 -0.9 0  -2.45 -0.9 0  -2.4 -0.9 0  -2.35 -0.9 0  -2.3 -0.9 0  -2.25 -0.9 0  -2.2 -0.9 0  -2.15 -0.9 0  -2.1 -0.9 0  -2.05 -0.9 0  -2 -0.9 0  -1.95 -0.9 0  -1.9 -0.9 0  -1.85 -0.9 0  -1.8 -0.9 0  -1.75 -0.9 0  -1.7 -0.9 0  -1.65 -0.9 0  -1.6 -0.9 0  -1.55 -0.9 0  -1.5 -0.9 0  -1.45 -0.9 0  -1.4 -0.9 0  -1.35 -0.9 0  -1.3 -0.9 0  -1.25 -0.9 0  -1.2 -0.9 0  -1.15 -0.9 0  -1.1 -0.9 0  -1.05 -0.9 0  -1 -0.9 0  -0.9500000000000002 -0.9 0  -0.9000000000000004 -0.9 0  -0.8499999999999996 -0.9 0  -0.7999999999999998 -0.9 0  -0.75 -0.9 0  -0.7000000000000002 -0.9 0  -0.6500000000000004 -0.9 0  -0.5999999999999996 -0.9 0  -0.5499999999999998 -0.9 0  -0.5 -0.9 0  -0.4500000000000002 -0.9 0  -0.4000000000000004 -0.9 0  -0.3499999999999996 -0.9 0  -0.2999999999999998 -0.9 0  -0.25 -0.9 0  -0.2000000000000002 -0.9 0  -0.1500000000000004 -0.9 0  -0.09999999999999964 -0.9 0  -0.04999999999999982 -0.9 0  0 -0.9 0  0.04999999999999982 -0.9 0  0.09999999999999964 -0.9 0  0.1500000000000004 -0.9 0  0.2000000000000002 -0.9 0  0.25 -0.9 0  0.2999999999999998 -0.9 0  0.3499999999999996 -0.9 0  0.4000000000000004 -0.9 0  0.4500000000000002 -0.9 0  0.5 -0.9 0  0.5499999999999998 -0.9 0  0.5999999999999996 -0.9 0  0.6500000000000004 -0.9 0  0.7000000000000002 -0.9 0  0.75 -0.9 0  0.7999999999999998 -0.9 0  0.8499999999999996 -0.9 0  0.9000000000000004 -0.9 0  0.9500000000000002 -0.9 0  1 -0.9 0  1.05 -0.9 0  1.1 -0.9 0  1.15 -0.9 0  1.2 -0.9 0  1.25 -0.9 0  1.3 -0.9 0  1.35 -0.9 0  1.4 -0.9 0  1.45 -0.9 0  1.5 -0.9 0  1.55 -0.9 0  1.6 -0.9 0  1.65 -0.9 0  1.7 -0.9 0  1.75 -0.9 0  1.8 -0.9 0  1.85 -0.9 0  1.9 -0.9 0  1.95 -0.9 0  2 -0.9 0  2.05 -0.9 0  2.1 -0.9 0  2.15 -0.9 0  2.2 -0.9 0  2.25 -0.9 0  2.3 -0.9 0  2.35 -0.9 0  2.4 -0.9 0  2.45 -0.9 0  2.5 -0.9 0  2.55 -0.9 0  2.6 -0.9 0  2.65 -0.9 0  2.7 -0.9 0  2.75 -0.9 0  2.8 -0.9 0  2.85 -0.9 0  2.9 -0.9 0  2.95 -0.9 0  3 -0.9 0  3.050000000000001 -0.9 0  3.1 -0.9 0  3.15 -0.9 0  3.199999999999999 -0.9 0  3.25 -0.9 0  3.300000000000001 -0.9 0  3.35 -0.9 0  3.4 -0.9 0  3.449999999999999 -0.9 0  3.5 -0.9 0  3.550000000000001 -0.9 0  3.6 -0.9 0  3.65 -0.9 0  3.699999999999999 -0.9 0  3.75 -0.9 0  3.800000000000001 -0.9 0  3.85 -0.9 0  3.9 -0.9 0  3.949999999999999 -0.9 0  4 -0.9 0  4.050000000000001 -0.9 0  4.1 -0.9 0  4.15 -0.9 0  4.199999999999999 -0.9 0  4.25 -0.9 0  4.300000000000001 -0.9 0  4.35 -0.9 0  4.4 -0.9 0  4.449999999999999 -0.9 0  4.5 -0.9 0  4.550000000000001 -0.9 0  4.6 -0.9 0  4.65 -0.9 0  4.699999999999999 -0.9 0  4.75 -0.9 0  4.800000000000001 -0.9 0  4.85 -0.9 0  4.9 -0.9 0  4.949999999999999 -0.9 0  5 -0.9 0  -5 -0.85 0  -4.95 -0.85 0  -4.9 -0.85 0  -4.85 -0.85 0  -4.8 -0.85 0  -4.75 -0.85 0  -4.7 -0.85 0  -4.65 -0.85 0  -4.6 -0.85 0  -4.55 -0.85 0  -4.5 -0.85 0  -
[...]
<PointData  Vectors="f_15"> 
<DataArray  type="Float64"  Name="f_15"  NumberOfComponents="3" format="ascii">1.9598918043915898e+00 0.0000000000000000e+00 0.0000000000000000e+00  1.9348899934882284e+00 2.4771800128747273e-02 0.0000000000000000e+00  1.9572625077384005e+00 1.2157485640132240e-01 0.0000000000000000e+00  1.9351095257747597e+00 1.1819579916935280e-01 0.0000000000000000e+00  1.9565029658379951e+00 2.0976988338527239e-01 0.0000000000000000e+00  1.9336331904653814e+00 2.1703832647341140e-01 0.0000000000000000e+00  1.9557611532580657e+00 2.9772314388657456e-01 0.0000000000000000e+00  1.9325731293782855e+00 3.1364747673676746e-01 0.0000000000000000e+00  1.9544321709732628e+00 3.8737193530190872e-01 0.0000000000000000e+00  1.9315116880846446e+00 4.1010174865203075e-01 0.0000000000000000e+00  1.9530582502580651e+00 4.7511849635826925e-01 0.0000000000000000e+00  1.9300827858586604e+00 5.1275891439150711e-01 0.0000000000000000e+00  1.9515769020088383e+00 5.5149633987387048e-01 0.0000000000000000e+00  1.9284445306802258e+00 6.2742033776525463e-01 0.0000000000000000e+00  1.9497208343022958e+00 6.2623572018119589e-01 0.0000000000000000e+00  1.9266735470588616e+00 7.2040535213001133e-01 0.0000000000000000e+00  1.9476899661568881e+00 7.4707840051391794e-01 0.0000000000000000e+00  1.9243628922473963e+00 7.5925181138011244e-01 0.0000000000000000e+00  1.9456729694617116e+00 8.9687471544317210e-01 0.0000000000000000e+00  1.9215545130120333e+00 8.1131654959602517e-01 0.0000000000000000e+00  1.9429002692645760e+00 9.9782823686874322e-01 0.0000000000000000e+00  1.9191583691400884e+00 9.1252443924879367e-01 0.0000000000000000e+00  1.9392395651176171e+00 1.0781724548665945e+00 0.0000000000000000e+00  1.9163057599258260e+00 1.0085864502425137e+00 0.0000000000000000e+00  1.9357946624096016e+00 1.1636739874907529e+00 0.0000000000000000e+00  1.9126048414650600e+00 1.1126789560405737e+00 0.0000000000000000e+00  1.9318405497103981e+00 1.2409916801347640e+00 0.0000000000000000e+00  1.9089973177240369e+00 1.2047153039038092e+00 0.0000000000000000e+00  1.9269368409555589e+00 1.3384307718572983e+00 0.0000000000000000e+00  1.9049463973379626e+00 1.2900308338427269e+00 0.0000000000000000e+00  1.9218369120390422e+00 1.4187502711851219e+00 0.0000000000000000e+00  1.9002975426065463e+00 1.3897129079985893e+00 0.0000000000000000e+00  1.9160883800164494e+00 1.5023121888908502e+00 0.0000000000000000e+00  1.8952634108310136e+00 1.4741748750393084e+00 0.0000000000000000e+00  1.9097185925040794e+00 1.5884500990011727e+00 0.0000000000000000e+00  1.8893760285423655e+00 1.5644965924775225e+00 0.0000000000000000e+00  1.9032416259665428e+00 1.6671901302318406e+00 0.0000000000000000e+00  1.8825152458551409e+00 1.6543570309930378e+00 0.0000000000000000e+00  1.8959285902856375e+00 1.7440095123030226e+00 0.0000000000000000e+00  1.8755797848382603e+00 1.7411164519923132e+00 0.0000000000000000e+00  1.8875815330967776e+00 1.8249644410614287e+00 0.0000000000000000e+00  1.8676279876751651e+00 1.8207833558658773e+00 0.0000000000000000e+00  1.8793426200760077e+00 1.9006565375468771e+00 0.0000000000000000e+00  1.8585432893228131e+00 1.9029799072146976e+00 0.0000000000000000e+00  1.8703633274635227e+00 1.9752053593535059e+00 0.0000000000000000e+00  1.8494269308304774e+00 1.9754465046218042e+00 0.0000000000000000e+00  1.8606721969393316e+00 2.0497702194264296e+00 0.0000000000000000e+00  1.8396624176537881e+00 2.0454024910075570e+00 0.0000000000000000e+00  1.8515006914205945e+00 2.1169781403788615e+00 0.0000000000000000e+00  1.8295676983413167e+00 2.1131896240855554e+00 0.0000000000000000e+00  1.8426427359805555e+00 2.1769862372962812e+00 0.0000000000000000e+00  1.8209078216395886e+00 2.1719421235709220e+00 0.0000000000000000e+00  1.8350732645148946e+00 2.2305084294875948e+00 0.0000000000000000e+00  1.8146262021754425e+00 2.2209068633075022e+00 0.0000000000000000e+00  1.8310923220664563e+00 2.2677303549160319e+00 0.0000000000000000e+00  1.8124818287525359e+00 2.2578705225945037e+00 0.0000000000000000e+00  1.8313389989586180e+00 2.2900805367935031e+00 0.0000000000000000e+00  1.8152240317383037e+00 2.2774819518930975e+00 0.0000000000000000e+00  1.8348389269419205e+00 2.3025430914897291e+00 0.0000000000000000e+00  1.8202026229994073e+00 2.2883113795895498e+00 0.0000000000000000e+00  1.8391413615554724e+00 2.3066332018156985e+00 0.0000000000000000e+00  1.8251035006716452e+00 2.2975261473922206e+00 0.0000000000000000e+00  1.8424624533156486e+00 2.3106547025182187e+00 0.0000000000000000e+00  1.8291361157691624e+00 2.3025173771006582e+00 0.0000000000000000e+00  1.8447593765137658e+00 2.3158314266248881e+00 0.0000000000000000e+00  1.8323769823088285e+00 2.3067743192575336e+00 0.0000000000000000e+00  1.8457951459945579e+00 2.3187208291630985e+00 0.0000000000000000e+00  1.8355931103612722e+00 2.3100019013744246e+00 0.0000000000000000e+00  1.8458653602580548e+00 2.3236488952284988e+00 0.0000000000000000e+00  1.8380920915018060e+00 2.3084473436172233e+00 0.0000000000000000e+00  1.8459533784216908e+00 2.3287577384953493e+00 0.0000000000000000e+00  1.8397280188516507e+00 2.3097480397878756e+00 0.0000000000000000e+00  1.8456521292017130e+00 2.3287900118759417e+00 0.0000000000000000e+00  1.8416503978760672e+00 2.3111882561857926e+00 0.0000000000000000e+00  1.8448425147581513e+00 2.3322996996060987e+00 0.0000000000000000e+00  1.8431552273668064e+00 2.3063494769530579e+00 0.0000000000000000e+00  1.8446007388296404e+00 2.3385484267072232e+00 0.0000000000000000e+00  1.8438956177779684e+00 2.3034709367883397e+00 0.0000000000000000e+00  1.8443332047671979e+00 2.3412360050921173e+00 0.0000000000000000e+00  1.8450563531903998e+00 2.3000184925200631e+00 0.0000000000000000e+00  1.8439277377529533e+00 2.3489372851402197e+00 0.0000000000000000e+00  1.8454061182751744e+00 2.2914493717789681e+00 0.0000000000000000e+00  1.8446295249183493e+00 2.3570561107549017e+00 0.0000000000000000e+00  1.8453260974362009e+00 2.2879504347719708e+00 0.0000000000000000e+00  1.8446317740738023e+00 2.3592016333578867e+00 0.0000000000000000e+00  1.8465353526333543e+00 2.2862503594120498e+00 0.0000000000000000e+00  1.8441230908623460e+00 2.3644272925018783e+00 0.0000000000000000e+00  1.8468759567420621e+00 2.2816069257411495e+00 0.0000000000000000e+00  1.8448940849299427e+00 2.3684272804383495e+00 0.0000000000000000e+00  1.8471348492453674e+00 2.2821833802183704e+00 0.0000000000000000e+00  1.8443594842623572e+00 2.3674428869916464e+00 0.0000000000000000e+00  1.8489747163386485e+00 2.2838571504548608e+00 0.0000000000000000e+00  1.8433170898379774e+00 2.3698682061649090e+00 0.0000000000000000e+00  1.8498965759350872e+00 2.2819646107957223e+00 0.0000000000000000e+00  1.8435463566395394e+00 2.3720242475186826e+00 0.0000000000000000e+00  1.8507413806904498e+00 2.2841358567729655e+00 0.0000000000000000e+00  1.8425275195079729e+00 2.3700730856070482e+00 0.0000000000000000e+00  1.8526252906811900e+00 2.2874353083707133e+00 0.0000000000000000e+00  1.8418412642007511e+00 2.3705720524504117e+00 0.0000000000000000e+00  1.8530468462793197e+00 2.2870914081316425e+00 0.0000000000000000e+00  1.8423774199576095e+00 2.3718577824294891e+00 0.0000000000000000e+00  1.8534418102903985e+00 2.2897214667633192e+00 0.0000000000000000e+00  1.8417802278189548e+00 2.3688607880021899e+00 0.0000000000000000e+00  1.8545832656520311e+00 2.2940319265820541e+00 0.0000000000000000e+00  1.8419258210620855e+00 2.3672249073640228e+00 0.0000000000000000e+00  1.8538386005460576e+00 2.2954727719733543e+00 0.0000000000000000e+00  1.8431703533536130e+00 2.3663067991141302e+00 0.0000000000000000e+00  1.8536207699146565e+00 2.2993820836982510e+00 0.0000000000000000e+00  1.8428864683998276e+00 2.3606850611762380e+00 0.0000000000000000e+00  1.8541391457437670e+00 2.3058728984623542e+00 0.0000000000000000e+00  1.8433847156283321e+00 2.3564100487039576e+00 0.0000000000000000e+00  1.8528151196184024e+00 2.3083772555876179e+00 0.0000000000000000e+00  1.8449901991749251e+00 2.3539795074768777e+00 0.0000000000000000e+00  1.8521824236526125e+00 2.3125793758804702e+00 0.0000000000000000e+00  1.8446285845154780e+00 2.3478844907193799e+00 0.0000000000000000e+00  1.8526177171354161e+00 2.3184716195690567e+00 0.0000000000000000e+00  1.8452385883389093e+00 2.3437555916476809e+00 0.0000000000000000e+00  1.8509550128238177e+00 2.3198781606136678e+00 0.0000000000000000e+00  1.8468786384485572e+00 2.3424194350281096e+00 0.0000000000000000e+00  1.8502301681084199e+00 2.3228966378502069e+00 0.0000000000000000e+00  1.8464928700697072e+00 2.3366280560468153e+00 0.0000000000000000e+00  1.8507764018265087e+00 2.3281091117526294e+00 0.0000000000000000e+00  1.8467015027375184e+00 2.3335954465639968e+00 0.0000000000000000e+00  1.8492923579158007e+00 2.3283793974678342e+00 0.0000000000000000e+00  1.8484691996223384e+00 2.3327375507919288e+00 0.0000000000000000e+00  1.8483416931633163e+00 2.3307219641474313e+00 0.0000000000000000e+00  1.8481530017586885e+00 2.3285296493975762e+00 0.0000000000000000e+00  1.8486702692490171e+00 2.3338270687883917e+00 0.0000000000000000e+00  1.8488834579059987e+00 2.3272020248227268e+00 0.0000000000000000e+00  1.8467251086965677e+00 2.3327479130801416e+00 0.0000000000000000e+00  1.8508900168219240e+00 2.3265243278733228e+00 0.0000000000000000e+00  1.8454674350334810e+00 2.3366125308911907e+00 0.0000000000000000e+00  1.8512930081213717e+00 2.3185911076853682e+00 0.0000000000000000e+00  1.8452573082903474e+00 2.3427787666898876e+00 0.0000000000000000e+00  1.8521414548902762e+00 2.3165076008921304e+00 0.0000000000000000e+00  1.8436401578365653e+00 2.3391558716391230e+00 0.0000000000000000e+00  1.8541509121413384e+00 2.3207567802641766e+00 0.0000000000000000e+00  1.8428061277938290e+00 2.3342646096248161e+00 0.0000000000000000e+00  1.8543552197211026e+00 2.3241480941490824e+00 0.0000000000000000e+00  1.8431860380609781e+00 2.3273936096717995e+00 0.0000000000000000e+00  1.8563656499527597e+00 2.3301702995167637e+00 0.0000000000000000e+00  1.8415609775880388e+00 2.3179351988538079e+00 0.0000000000000000e+00  1.8590272095557434e+00 2.3328839659505212e+00 0.0000000000000000e+00  1.8431607439491176e+00 2.3137897775356802e+00 0.0000000000000000e+00  1.8598645357371246e+00 2.3248370795584279e+00 0.0000000000000000e+00  1.8450024216929135e+00 2.3155159352968444e+00 0.0000000000000000e+00  1.8639888853538551e+00 2.3134765023424184e+00 0.0000000000000000e+00  1.8464257677007159e+00 2.3118160165119916e+00 0.0000000000000000e+00  1.8665568285742269e+00 2.3044293719097126e+00 0.0000000000000000e+00  1.8517406647500980e+00 2.3091934436181107e+00 0.0000000000000000e+00  1.8676909590831501e+00 2.2888138855132723e+00 0.0000000000000000e+00  1.8557011410178623e+00 2.3085705456932430e+00 0.0000000000000000e+00  1.8710907258570564e+00 2.2774358471637335e+00 0.0000000000000000e+00  1.8582918156026520e+00 2.2993293176563943e+00 0.0000000000000000e+00  1.8729482100571304e+00 2.2684278149786290e+00 0.0000000000000000e+00  1.8639410478873533e+00 2.2912049970667332e+00 0.0000000000000000e+00  1.8743884246720213e+00 2.2513192032785128e+00 0.0000000000000000e+00  1.8707362639818506e+00 2.2794711959710514e+00 0.0000000000000000e+00  1.8837195991288616e+00 2.2311551592796568e+00 0.0000000000000000e+00  1.8803522307989944e+00 2.2554904137982845e+00 0.0000000000000000e+00  1.8991313663093956e+00 2.2052979881466417e+00 0.0000000000000000e+00  1.8975736286407068e+00 2.2313292011737391e+00 0.0000000000000000e+00  1.9111718756146163e+00 2.1850772058339381e+00 0.0000000000000000e+00  1.9037693162372951e+00 2.2305825158372601e+00 0.0000000000000000e+00  1.9071593033750236e+00 2.2066299662712683e+00 0.0000000000000000e+00  1.8804759100960287e+00 2.2708225717722113e+00 0.0000000000000000e+00  1.8795245201106210e+00 2.2659751589808081e+00 0.0000000000000000e+00  1.8474006603850979e+00 2.3301061870278534e+00 0.0000000000000000e+00  1.8552738201968992e+00 2.3068579185087756e+00 0.0000000000000000e+00  1.8313119102196742e+00 2.3573158920322075e+00 0.0000000000000000e+00  1.8513845334348886e+00 2.3230167735108962e+00 0.0000000000000000e+00  1.8211276969034202e+00 2.3613824718048795e+00 0.0000000000000000e+00  1.8476495049871724e+00 2.3308321579608315e+00 0.0000000000000000e+00  1.7918458377047666e+00 2.4242594692701656e+00 0.0000000000000000e+00  2.0721972058768094e+00 1.8256448058569688e+00 0.0000000000000000e+00  2.6403718651221584e+00 5.6964564357254677e-01 0.0000000000000000e+00  2.9434638743880002e+00 4.7911809335320188e-02 0.0000000000000000e+00  2.9584535689625393e+00 7.6903406158128438e-03 0.0000000000000000e+00  2.9735709443613709e+00 -1.9771424870354135e-02 0.0000000000000000e+00  2.9600808139989758e+00 -1.0887029046432632e-02 0.0000000000000000e+00  2.9782874484432162e+00 -3.2240082351769103e-02 0.0000000000000000e+00  2.9614903921546216e+00 -1.4008887156089703e-02 0.0000000000000000e+00  2.9795845509412908e+00 -3.9544570197336384e-02 0.0000000000000000e+00  2.9612808934048220e+00 -1.7983800433191085e-02 0.0000000000000000e+00  2.9794638840176533e+00 -4.2160872668128853e-02 0.0000000000000000e+00  2.9610113683348938e+00 -1.3817518471031491e-02 0.0000000000000000e+00  2.9773564776965356e+00 -4.3270699269648584e-02 0.0000000000000000e+00  2.9634149175746147e+00 -1.0401443818792336e-02 0.0000000000000000e+00  2.9757497417805339e+00 -3.4753366901762596e-02 0.0000000000000000e+00  2.9631484534611228e+00 -9.4160906646288834e-03 0.0000000000000000e+00  2.9761096977605468e+00 -3.0623457540345615e-02 0.0000000000000000e+00  2.9630603651932046e+00 -2.2174515635290805e-02 0.0000000000000000e+00  2.9743951905881607e+00 -5.6343345648347067e-02 0.0000000000000000e+00  2.9653656117939495e+00 -5.7361085139193392e-02 0.0000000000000000e+00  2.9726656215921543e+00 -8.4498067317996930e-02 0.0000000000000000e+00  2.9657404919907369e+00 -7.3017257339315439e-02 0.0000000000000000e+00  2.9732604460043994e+00 -7.7368970795700431e-02 0.0000000000000000e+00  2.9672149667322745e+00 -4.9829558213603277e-02 0.0000000000000000e+00  2.9718362191923853e+00 -6.3018730418362187e-02 0.0000000000000000e+00  2.9708401586030102e+00 -2.7848507566705812e-02 0.0000000000000000e+00  2.9714224586977447e+00 0.0000000000000000e+00 0.0000000000000000e+00  1.9456738636004016e+00 0.0000000000000000e+00 2.5783201967753466e-02  1.9404505211428087e+00 4.9328874762416715e-02 -8.4467704282819699e-03  1.9453584060324229e+00 8.6736181070965049e-02 1.5906920429343742e-05  1.9428471747714329e+00 1.3517272330713459e-01 -4.1925594734559665e-03  1.9441499924295988e+00 1.9109523840164630e-01 6.2849983598667076e-03  1.9436802288416741e+00 2.2615969452780385e-01 -8.4319728773464778e-03  1.9437921221777779e+00 2.8733543140010209e-01 9.6303360383264390e-03  1.9432024800811509e+00 3.2026512857496509e-01 -1.0464263173768867e-02  1.9431516356425320e+00 3.8195742502836599e-01 1.1174427346768717e-02  1.9425360595388035e+00 4.1340551450565816e-01 -1.1658980342699909e-02  1.9418663595909371e+00 4.7795062548481865e-01 1.2196767830846032e-02  1.9415666909209195e+00 5.0214615388189432e-01 -1.2539713958041510e-02  1.9403082076699205e+00 5.7805251502521648e-01 1.3499973105444468e-02  1.9400579387813734e+00 5.9028337915619211e-01 -1.5157224051977614e-02  1.9385753887200552e+00 6.6846833997479882e-01 1.7441538464474521e-02  1.9380964794554993e+00 6.9726695703256014e-01 -1.7998760982983988e-02  1.9366183048340513e+00 7.3794957418421603e-01 1.3501616854956100e-02  1.9355823473157281e+00 8.1253066565000243e-01 -1.7724345102511374e-03  1.9347628554122975e+00 8.1854352327721458e-01 -1.4625378791563778e-02  1.9320584728778785e+00 9.0389576024231733e-01 3.1085398790705827e-02  1.9329898859006855e+00 9.1659170236859810e-01 -3.9742034342501766e-02  1.9284725200888579e+00 9.9469684476550679e-01 3.9752821854616927e-02  1.9299836161906645e+00 1.0026158620250745e+00 -3.2998481639262549e-02  1.9258829883436688e+00 1.0869005904420681e+00 2.4587728738478819e-02  1.9256862491673976e+00 1.1032513216159410e+00 -1.7114438823374687e-02  1.9229193929764137e+00 1.1601872642725370e+00 1.0895265543669914e-02  1.9216636844792860e+00 1.2020743933526750e+00 -7.8348564778121486e-03  1.9187617610770147e+00 1.2543634641096981e+00 7.8095687825009957e-03  1.9174692926951473e+00 1.2829931805679269e+00 -9.7376315453897126e-03  1.9143826732464031e+00 1.3427427018411990e+00 9.7427880456125195e-03  1.9124401167205349e+00 1.3800601480924366e+00 -6.7576680455376107e-03  1.9096763209685574e+00 1.4246311826478328e+00 3.0173703810870063e-03  1.9070128943004563e+00 1.4656768221330982e+00 -1.4926848064920196e-03  1.9043183650524782e+00 1.5145268771255789e+00 1.1545350936763602e-03  1.9009137742796656e+00 1.5539384300728780e+00 2.0795231311920541e-04  1.8987988452503062e+00 1.5944049747421423e+00 -2.4552353656387598e-03  1.8940054923216898e+00 1.6433749097662422e+00 3.8624009227362062e-03  1.8924368755181356e+00 1.6762280871862751e+00 -4.5446510033737243e-03  1.8871029903665266e+00 1.7277030564428404e+00 5.6166942291405314e-03  1.8850724322860395e+00 1.7596743300686752e+00 -7.3350917149197564e-03  1.8793429680761566e+00 1.8079713634960108e+00 8.1886833589101139e-03  1.8777711594023179e+00 1.8392492090824284e+00 -8.5938613186366739e-03  1.8705058468828895e+00 1.8913226937544503e+00 9.8348034673884921e-03  1.8697287955284887e+00 1.9152044336429683e+00 -1.1712707652365434e-02  1.8615908878754011e+00 1.9680916416639620e+00 1.3687057498973995e-02  1.8609025040489660e+00 1.9913728855884620e+00 -1.5009484659727465e-02  1.8518753237083103e+00 2.0440018756597458e+00 1.7354037701177667e-02  1.8524791438417363e+00 2.0592227899823707e+00 -1.9353691822496574e-02  1.8415452632726776e+00 2.1190390966841930e+00 2.1919586142039999e-02  1.8440587845506069e+00 2.1215672604532196e+00 -2.3507310714394075e-02  1.8322519382304148e+00 2.1860660558839835e+00 2.6192157637252762e-02  1.8362960992552686e+00 2.1797258961680073e+00 -2.7610372760784482e-02  1.8245884656403182e+00 2.2443508516548469e+00 2.9749014232676917e-02  1.8311778276013506e+00 2.2248341395503175e+00 -3.0173433098638722e-02  1.8202545998929514e+00 2.2913240124804855e+00 3.1594535094422276e-02  1.8297203282159336e+00 2.2578401107129986e+00 -3.1387841672098210e-02  1.8211336001665774e+00 2.3188511844729294e+00 3.2052216234153316e-02  1.8324461090505790e+00 2.2787702992043086e+00 -3.1451828290469400e-02  1.8257918467476688e+00 2.3322014599311451e+00 3.1288244904395870e-02  1.8375557282748578e+00 2.2880147571434986e+00 -3.0599768398646782e-02  1.8313113677237032e+00 2.3410083904153174e+00 2.9764690683516819e-02  1.8421077948213289e+00 2.2955362796771106e+00 -2.8960750541964477e-02  1.8359875182164767e+00 2.3444025167448581e+00 2.7557212757035647e-02  1.8455738850444436e+00 2.3040570213139233e+00 -2.6865525210198162e-02  1.8396398297752647e+00 2.3474926014200435e+00 2.5294774365450183e-02  1.8478877499089283e+00 2.3096282706233437e+00 -2.4511089338777735e-02  1.8428290039903379e+00 2.3502778555669570e+00 2.2828630605896336e-02  1.8493393094990112e+00 2.3158891320667663e+00 -2.2278007858842503e-02  1.8449670941980774e+00 2.3495721133297627e+00 2.0943079278340004e-02  1.8509243895755367e+00 2.3215385092276741e+00 -2.0649896084816325e-02  1.8461524959303588e+00 2.3515572129740443e+00 1.9683887824222489e-02  1.8521066247785127e+00 2.3216946366272455e+00 -1.9524009046917382e-02  1.8474503463910459e+00 2.3539454840042233e+00 1.8731037689997048e-02  1.8525443264362780e+00 2.3247977733982794e+00 -1.8549421482442163e-02  1.8482041933379636e+00 2.3511233206315620e+00 1.7995763046855028e-02  1.8533192103545231e+00 2.3291334510811712e+00 -1.7975485716111753e-02  1.8482270277260189e+00 2.3510627162885389e+00 1.7672240178935806e-02  1.8538593483678811e+00 2.3279386132536670e+00 -1.7871979029803330e-02  1.8486060750109934e+00 2.3522392069923908e+00 1.7867877037172568e-02  1.8538893877843516e+00 2.3297470901828339e+00 -1.8245787490105400e-02  1.8483913176473643e+00 2.3490810785842937e+00 1.8425820206090935e-02  1.8546460724352010e+00 2.3311847410648769e+00 -1.8790880217694896e-02  1.8478182025417493e