<?xml version="1.0"?>
<VTKFile type="UnstructuredGrid"  version="0.1"  >
<UnstructuredGrid>
<Piece  NumberOfPoints="8241" NumberOfCells="16000">
<Points>
<DataArray  type="Float64"  NumberOfComponents="3"  format="ascii">-5 -1 0  -4.95 -1 0  -4.9 -1 0  -4.85 -1 0  -4.8 -1 0  -4.75 -1 0  -4.7 -1 0  -4.65 -1 0  -4.6 -1 0  -4.55 -1 0  -4.5 -1 0  -4.45 -1 0  -4.4 -1 0  -4.35 -1 0  -4.3 -1 0  -4.25 -1 0  -4.2 -1 0  -4.15 -1 0  -4.1 -1 0  -4.05 -1 0  -4 -1 0  -3.95 -1 0  -3.9 -1 0  -3.85 -1 0  -3.8 -1 0  -3.75 -1 0  -3.7 -1 0  -3.65 -1 0  -3.6 -1 0  -3.55 -1 0  -3.5 -1 0  -3.45 -1 0  -3.4 -1 0  -3.35 -1 0  -3.3 -1 0  -3.25 -1 0  -3.2 -1 0  -3.15 -1 0  -3.1 -1 0  -3.05 -1 0  -3 -1 0  -2.95 -1 0  -2.9 -1 0  -2.85 -1 0  -2.8 -1 0  -2.75 -1 0  -2.7 -1 0  -2.65 -1 0  -2.6 -1 0  -2.55 -1 0  -2.5 -1 0  -2.45 -1 0  -2.4 -1 0  -2.35 -1 0  -2.3 -1 0  -2.25 -1 0  -2.2 -1 0  -2.15 -1 0  -2.1 -1 0  -2.05 -1 0  -2 -1 0  -1.95 -1 0  -1.9 -1 0  -1.85 -1 0  -1.8 -1 0  -1.75 -1 0  -1.7 -1 0  -1.65 -1 0  -1.6 -1 0  -1.55 -1 0  -1.5 -1 0  -1.45 -1 0  -1.4 -1 0  -1.35 -1 0  -1.3 -1 0  -1.25 -1 0  -1.2 -1 0  -1.15 -1 0  -1.1 -1 0  -1.05 -1 0  -1 -1 0  -0.9500000000000002 -1 0  -0.9000000000000004 -1 0  -0.8499999999999996 -1 0  -0.7999999999999998 -1 0  -0.75 -1 0  -0.7000000000000002 -1 0  -0.6500000000000004 -1 0  -0.5999999999999996 -1 0  -0.5499999999999998 -1 0  -0.5 -1 0  -0.4500000000000002 -1 0  -0.4000000000000004 -1 0  -0.3499999999999996 -1 0  -0.2999999999999998 -1 0  -0.25 -1 0  -0.2000000000000002 -1 0  -0.1500000000000004 -1 0  -0.09999999999999964 -1 0  -0.04999999999999982 -1 0  0 -1 0  0.04999999999999982 -1 0  0.09999999999999964 -1 0  0.1500000000000004 -1 0  0.2000000000000002 -1 0  0.25 -1 0  0.2999999999999998 -1 0  0.3499999999999996 -1 0  0.4000000000000004 -1 0  0.4500000000000002 -1 0  0.5 -1 0  0.5499999999999998 -1 0  0.5999999999999996 -1 0  0.6500000000000004 -1 0  0.7000000000000002 -1 0  0.75 -1 0  0.7999999999999998 -1 0  0.8499999999999996 -1 0  0.9000000000000004 -1 0  0.9500000000000002 -1 0  1 -1 0  1.05 -1 0  1.1 -1 0  1.15 -1 0  1.2 -1 0  1.25 -1 0  1.3 -1 0  1.35 -1 0  1.4 -1 0  1.45 -1 0  1.5 -1 0  1.55 -1 0  1.6 -1 0  1.65 -1 0  1.7 -1 0  1.75 -1 0  1.8 -1 0  1.85 -1 0  1.9 -1 0  1.95 -1 0  2 -1 0  2.05 -1 0  2.1 -1 0  2.15 -1 0  2.2 -1 0  2.25 -1 0  2.3 -1 0  2.35 -1 0  2.4 -1 0  2.45 -1 0  2.5 -1 0  2.55 -1 0  2.6 -1 0  2.65 -1 0  2.7 -1 0  2.75 -1 0  2.8 -1 0  2.85 -1 0  2.9 -1 0  2.95 -1 0  3 -1 0  3.050000000000001 -1 0  3.1 -1 0  3.15 -1 0  3.199999999999999 -1 0  3.25 -1 0  3.300000000000001 -1 0  3.35 -1 0  3.4 -1 0  3.449999999999999 -1 0  3.5 -1 0  3.550000000000001 -1 0  3.6 -1 0  3.65 -1 0  3.699999999999999 -1 0  3.75 -1 0  3.800000000000001 -1 0  3.85 -1 0  3.9 -1 0  3.949999999999999 -1 0  4 -1 0  4.050000000000001 -1 0  4.1 -1 0  4.15 -1 0  4.199999999999999 -1 0  4.25 -1 0  4.300000000000001 -1 0  4.35 -1 0  4.4 -1 0  4.449999999999999 -1 0  4.5 -1 0  4.550000000000001 -1 0  4.6 -1 0  4.65 -1 0  4.699999999999999 -1 0  4.75 -1 0  4.800000000000001 -1 0  4.85 -1 0  4.9 -1 0  4.949999999999999 -1 0  5 -1 0  -5 -0.95 0  -4.95 -0.95 0  -4.9 -0.95 0  -4.85 -0.95 0  -4.8 -0.95 0  -4.75 -0.95 0  -4.7 -0.95 0  -4.65 -0.95 0  -4.6 -0.95 0  -4.55 -0.95 0  -4.5 -0.95 0  -4.45 -0.95 0  -4.4 -0.95 0  -4.35 -0.95 0  -4.3 -0.95 0  -4.25 -0.95 0  -4.2 -0.95 0  -4.15 -0.95 0  -4.1 -0.95 0  -4.05 -0.95 0  -4 -0.95 0  -3.95 -0.95 0  -3.9 -0.95 0  -3.85 -0.95 0  -3.8 -0.95 0  -3.75 -0.95 0  -3.7 -0.95 0  -3.65 -0.95 0  -3.6 -0.95 0  -3.55 -0.95 0  -3.5 -0.95 0  -3.45 -0.95 0  -3.4 -0.95 0  -3.35 -0.95 0  -3.3 -0.95 0  -3.25 -0.95 0  -3.2 -0.95 0  -3.15 -0.95 0  -3.1 -0.95 0  -3.05 -0.95 0  -3 -0.95 0  -2.95 -0.95 0  -2.9 -0.95 0  -2.85 -0.95 0  -2.8 -0.95 0  -2.75 -0.95 0  -2.7 -0.95 0  -2.65 -0.95 0  -2.6 -0.95 0  -2.55 -0.95 0  -2.5 -0.95 0  -2.45 -0.95 0  -2.4 -0.95 0  -2.35 -0.95 0  -2.3 -0.95 0  -2.25 -0.95 0  -2.2 -0.95 0  -2.15 -0.95 0  -2.1 -0.95 0  -2.05 -0.95 0  -2 -0.95 0  -1.95 -0.95 0  -1.9 -0.95 0  -1.85 -0.95 0  -1.8 -0.95 0  -1.75 -0.95 0  -1.7 -0.95 0  -1.65 -0.95 0  -1.6 -0.95 0  -1.55 -0.95 0  -1.5 -0.95 0  -1.45 -0.95 0  -1.4 -0.95 0  -1.35 -0.95 0  -1.3 -0.95 0  -1.25 -0.95 0  -1.2 -0.95 0  -1.15 -0.95 0  -1.1 -0.95 0  -1.05 -0.95 0  -1 -0.95 0  -0.9500000000000002 -0.95 0  -0.9000000000000004 -0.95 0  -0.8499999999999996 -0.95 0  -0.7999999999999998 -0.95 0  -0.75 -0.95 0  -0.7000000000000002 -0.95 0  -0.6500000000000004 -0.95 0  -0.5999999999999996 -0.95 0  -0.5499999999999998 -0.95 0  -0.5 -0.95 0  -0.4500000000000002 -0.95 0  -0.4000000000000004 -0.95 0  -0.3499999999999996 -0.95 0  -0.2999999999999998 -0.95 0  -0.25 -0.95 0  -0.2000000000000002 -0.95 0  -0.1500000000000004 -0.95 0  -0.09999999999999964 -0.95 0  -0.04999999999999982 -0.95 0  0 -0.95 0  0.04999999999999982 -0.95 0  0.09999999999999964 -0.95 0  0.1500000000000004 -0.95 0  0.2000000000000002 -0.95 0  0.25 -0.95 0  0.2999999999999998 -0.95 0  0.3499999999999996 -0.95 0  0.4000000000000004 -0.95 0  0.4500000000000002 -0.95 0  0.5 -0.95 0  0.5499999999999998 -0.95 0  0.5999999999999996 -0.95 0  0.6500000000000004 -0.95 0  0.7000000000000002 -0.95 0  0.75 -0.95 0  0.7999999999999998 -0.95 0  0.8499999999999996 -0.95 0  0.9000000000000004 -0.95 0  0.9500000000000002 -0.95 0  1 -0.95 0  1.05 -0.95 0  1.1 -0.95 0  1.15 -0.95 0  1.2 -0.95 0  1.25 -0.95 0  1.3 -0.95 0  1.35 -0.95 0  1.4 -0.95 0  1.45 -0.95 0  1.5 -0.95 0  1.55 -0.95 0  1.6 -0.95 0  1.65 -0.95 0  1.7 -0.95 0  1.75 -0.95 0  1.8 -0.95 0  1.85 -0.95 0  1.9 -0.95 0  1.95 -0.95 0  2 -0.95 0  2.05 -0.95 0  2.1 -0.95 0  2.15 -0.95 0  2.2 -0.95 0  2.25 -0.95 0  2.3 -0.95 0  2.35 -0.95 0  2.4 -0.95 0  2.45 -0.95 0  2.5 -0.95 0  2.55 -0.95 0  2.6 -0.95 0  2.65 -0.95 0  2.7 -0.95 0  2.75 -0.95 0  2.8 -0.95 0  2.85 -0.95 0  2.9 -0.95 0  2.95 -0.95 0  3 -0.95 0  3.050000000000001 -0.95 0  3.1 -0.95 0  3.15 -0.95 0  3.199999999999999 -0.95 0  3.25 -0.95 0  3.300000000000001 -0.95 0  3.35 -0.95 0  3.4 -0.95 0  3.449999999999999 -0.95 0  3.5 -0.95 0  3.550000000000001 -0.95 0  3.6 -0.95 0  3.65 -0.95 0  3.699999999999999 -0.95 0  3.75 -0.95 0  3.800000000000001 -0.95 0  3.85 -0.95 0  3.9 -0.95 0  3.949999999999999 -0.95 0  4 -0.95 0  4.050000000000001 -0.95 0  4.1 -0.95 0  4.15 -0.95 0  4.199999999999999 -0.95 0  4.25 -0.95 0  4.300000000000001 -0.95 0  4.35 -0.95 0  4.4 -0.95 0  4.449999999999999 -0.95 0  4.5 -0.95 0  4.550000000000001 -0.95 0  4.6 -0.95 0  4.65 -0.95 0  4.699999999999999 -0.95 0  4.75 -0.95 0  4.800000000000001 -0.95 0  4.85 -0.95 0  4.9 -0.95 0  4.949999999999999 -0.95 0  5 -0.95 0  -5 -0.9 0  -4.95 -0.9 0  -4.9 -0.9 0  -4.85 -0.9 0  -4.8 -0.9 0  -4.75 -0.9 0  -4.7 -0.9 0  -4.65 -0.9 0  -4.6 -0.9 0  -4.55 -0.9 0  -4.5 -0.9 0  -4.45 -0.9 0  -4.4 -0.9 0  -4.35 -0.9 0  -4.3 -0.9 0  -4.25 -0.9 0  -4.2 -0.9 0  -4.15 -0.9 0  -4.1 -0.9 0  -4.05 -0.9 0  -4 -0.9 0  -3.95 -0.9 0  -3.9 -0.9 0  -3.85 -0.9 0  -3.8 -0.9 0  -3.75 -0.9 0  -3.7 -0.9 0  -3.65 -0.9 0  -3.6 -0.9 0  -3.55 -0.9 0  -3.5 -0.9 0  -3.45 -0.9 0  -3.4 -0.9 0  -3.35 -0.9 0  -3.3 -0.9 0  -3.25 -0.9 0  -3.2 -0.9 0  -3.15 -0.9 0  -3.1 -0.9 0  -3.05 -0.9 0  -3 -0.9 0  -2.95 -0.9 0  -2.9 -0.9 0  -2.85 -0.9 0  -2.8 -0.9 0  -2.75 -0.9 0  -2.7 -0.9 0  -2.65 -0.9 0  -2.6 -0.9 0  -2.55 -0.9 0  -2.5 -0.9 0  -2.45 -0.9 0  -2.4 -0.9 0  -2.35 -0.9 0  -2.3 -0.9 0  -2.25 -0.9 0  -2.2 -0.9 0  -2.15 -0.9 0  -2.1 -0.9 0  -2.05 -0.9 0  -2 -0.9 0  -1.95 -0.9 0  -1.9 -0.9 0  -1.85 -0.9 0  -1.8 -0.9 0  -1.75 -0.9 0  -1.7 -0.9 0  -1.65 -0.9 0  -1.6 -0.9 0  -1.55 -0.9 0  -1.5 -0.9 0  -1.45 -0.9 0  -1.4 -0.9 0  -1.35 -0.9 0  -1.3 -0.9 0  -1.25 -0.9 0  -1.2 -0.9 0  -1.15 -0.9 0  -1.1 -0.9 0  -1.05 -0.9 0  -1 -0.9 0  -0.9500000000000002 -0.9 0  -0.9000000000000004 -0.9 0  -0.8499999999999996 -0.9 0  -0.7999999999999998 -0.9 0  -0.75 -0.9 0  -0.7000000000000002 -0.9 0  -0.6500000000000004 -0.9 0  -0.5999999999999996 -0.9 0  -0.5499999999999998 -0.9 0  -0.5 -0.9 0  -0.4500000000000002 -0.9 0  -0.4000000000000004 -0.9 0  -0.3499999999999996 -0.9 0  -0.2999999999999998 -0.9 0  -0.25 -0.9 0  -0.2000000000000002 -0.9 0  -0.1500000000000004 -0.9 0  -0.09999999999999964 -0.9 0  -0.04999999999999982 -0.9 0  0 -0.9 0  0.04999999999999982 -0.9 0  0.09999999999999964 -0.9 0  0.1500000000000004 -0.9 0  0.2000000000000002 -0.9 0  0.25 -0.9 0  0.2999999999999998 -0.9 0  0.3499999999999996 -0.9 0  0.4000000000000004 -0.9 0  0.4500000000000002 -0.9 0  0.5 -0.9 0  0.5499999999999998 -0.9 0  0.5999999999999996 -0.9 0  0.6500000000000004 -0.9 0  0.7000000000000002 -0.9 0  0.75 -0.9 0  0.7999999999999998 -0.9 0  0.8499999999999996 -0.9 0  0.9000000000000004 -0.9 0  0.9500000000000002 -0.9 0  1 -0.9 0  1.05 -0.9 0  1.1 -0.9 0  1.15 -0.9 0  1.2 -0.9 0  1.25 -0.9 0  1.3 -0.9 0  1.35 -0.9 0  1.4 -0.9 0  1.45 -0.9 0  1.5 -0.9 0  1.55 -0.9 0  1.6 -0.9 0  1.65 -0.9 0  1.7 -0.9 0  1.75 -0.9 0  1.8 -0.9 0  1.85 -0.9 0  1.9 -0.9 0  1.95 -0.9 0  2 -0.9 0  2.05 -0.9 0  2.1 -0.9 0  2.15 -0.9 0  2.2 -0.9 0  2.25 -0.9 0  2.3 -0.9 0  2.35 -0.9 0  2.4 -0.9 0  2.45 -0.9 0  2.5 -0.9 0  2.55 -0.9 0  2.6 -0.9 0  2.65 -0.9 0  2.7 -0.9 0  2.75 -0.9 0  2.8 -0.9 0  2.85 -0.9 0  2.9 -0.9 0  2.95 -0.9 0  3 -0.9 0  3.050000000000001 -0.9 0  3.1 -0.9 0  3.15 -0.9 0  3.199999999999999 -0.9 0  3.25 -0.9 0  3.300000000000001 -0.9 0  3.35 -0.9 0  3.4 -0.9 0  3.449999999999999 -0.9 0  3.5 -0.9 0  3.550000000000001 -0.9 0  3.6 -0.9 0  3.65 -0.9 0  3.699999999999999 -0.9 0  3.75 -0.9 0  3.800000000000001 -0.9 0  3.85 -0.9 0  3.9 -0.9 0  3.949999999999999 -0.9 0  4 -0.9 0  4.050000000000001 -0.9 0  4.1 -0.9 0  4.15 -0.9 0  4.199999999999999 -0.9 0  4.25 -0.9 0  4.300000000000001 -0.9 0  4.35 -0.9 0  4.4 -0.9 0  4.449999999999999 -0.9 0  4.5 -0.9 0  4.550000000000001 -0.9 0  4.6 -0.9 0  4.65 -0.9 0  4.699999999999999 -0.9 0  4.75 -0.9 0  4.800000000000001 -0.9 0  4.85 -0.9 0  4.9 -0.9 0  4.949999999999999 -0.9 0  5 -0.9 0  -5 -0.85 0  -4.95 -0.85 0  -4.9 -0.85 0  -4.85 -0.85 0  -4.8 -0.85 0  -4.75 -0.85 0  -4.7 -0.85 0  -4.65 -0.85 0  -4.6 -0.85 0  -4.55 -0.85 0  -4.5 -0.85 0  -
[...]
<PointData  Vectors="f_15"> 
<DataArray  type="Float64"  Name="f_15"  NumberOfComponents="3" format="ascii">1.5607708944164216e+00 0.0000000000000000e+00 0.0000000000000000e+00  1.5600565824897556e+00 3.5236842714057602e-02 0.0000000000000000e+00  1.5606779376253213e+00 7.4144360245007188e-02 0.0000000000000000e+00  1.5600518012687834e+00 1.0815312073940353e-01 0.0000000000000000e+00  1.5606052552396914e+00 1.4662180952715406e-01 0.0000000000000000e+00  1.5599877767288131e+00 1.8122324090205250e-01 0.0000000000000000e+00  1.5605158592032975e+00 2.1917022248289092e-01 0.0000000000000000e+00  1.5599236582783262e+00 2.5402871701369423e-01 0.0000000000000000e+00  1.5603865562503607e+00 2.9186328070893669e-01 0.0000000000000000e+00  1.5598505018424478e+00 3.2675438733597600e-01 0.0000000000000000e+00  1.5602417386651715e+00 3.6447123318306474e-01 0.0000000000000000e+00  1.5597444100272433e+00 3.9944446259276717e-01 0.0000000000000000e+00  1.5600893860791483e+00 4.3703438539426109e-01 0.0000000000000000e+00  1.5596202386430673e+00 4.7201576471746570e-01 0.0000000000000000e+00  1.5599066136382227e+00 5.0949447991715957e-01 0.0000000000000000e+00  1.5594963365181866e+00 5.4455250120863552e-01 0.0000000000000000e+00  1.5597075743217614e+00 5.8177029503413014e-01 0.0000000000000000e+00  1.5593442961845549e+00 6.1695849116304480e-01 0.0000000000000000e+00  1.5595252236152970e+00 6.5399418953178456e-01 0.0000000000000000e+00  1.5591749929433083e+00 6.8910617998813839e-01 0.0000000000000000e+00  1.5593280386652111e+00 7.2606608377155979e-01 0.0000000000000000e+00  1.5590351006589478e+00 7.6116124115125050e-01 0.0000000000000000e+00  1.5591248809290732e+00 7.9781403584958677e-01 0.0000000000000000e+00  1.5588912601939648e+00 8.3299944143987525e-01 0.0000000000000000e+00  1.5589778730212149e+00 8.6943704148125056e-01 0.0000000000000000e+00  1.5587502201308365e+00 9.0442453990457972e-01 0.0000000000000000e+00  1.5588564194130723e+00 9.4076083634924279e-01 0.0000000000000000e+00  1.5586916501650308e+00 9.7564060049657442e-01 0.0000000000000000e+00  1.5587659457717067e+00 1.0115804177432883e+00 0.0000000000000000e+00  1.5586964497332556e+00 1.0464343904904916e+00 0.0000000000000000e+00  1.5588052218509725e+00 1.0820586210610210e+00 0.0000000000000000e+00  1.5587753898265369e+00 1.1165623005303014e+00 0.0000000000000000e+00  1.5589762757843519e+00 1.1519558654740356e+00 0.0000000000000000e+00  1.5590541806246825e+00 1.1861292094421754e+00 0.0000000000000000e+00  1.5593051158948426e+00 1.2209359081456341e+00 0.0000000000000000e+00  1.5595737803557219e+00 1.2548394620735928e+00 0.0000000000000000e+00  1.5599576260725219e+00 1.2890038380481981e+00 0.0000000000000000e+00  1.5603977181325697e+00 1.3222218239752559e+00 0.0000000000000000e+00  1.5610425267083341e+00 1.3557402480012057e+00 0.0000000000000000e+00  1.5617607170886529e+00 1.3880875218297555e+00 0.0000000000000000e+00  1.5627025498895284e+00 1.4204508884242297e+00 0.0000000000000000e+00  1.5638830274846796e+00 1.4517829208433128e+00 0.0000000000000000e+00  1.5652877654478650e+00 1.4826360036022437e+00 0.0000000000000000e+00  1.5670342356636058e+00 1.5122806703645417e+00 0.0000000000000000e+00  1.5691679864864070e+00 1.5413198954812992e+00 0.0000000000000000e+00  1.5716907515933907e+00 1.5687282461070531e+00 0.0000000000000000e+00  1.5747164799296383e+00 1.5952336542837435e+00 0.0000000000000000e+00  1.5782710502956920e+00 1.6200705513611398e+00 0.0000000000000000e+00  1.5823370504704908e+00 1.6436847549046145e+00 0.0000000000000000e+00  1.5869364001428201e+00 1.6656085010302435e+00 0.0000000000000000e+00  1.5920593924353899e+00 1.6866111649229059e+00 0.0000000000000000e+00  1.5975256512053440e+00 1.7060338472699177e+00 0.0000000000000000e+00  1.6033913352673783e+00 1.7249747649813905e+00 0.0000000000000000e+00  1.6094276782548305e+00 1.7428657830872618e+00 0.0000000000000000e+00  1.6156702012346740e+00 1.7606320058672933e+00 0.0000000000000000e+00  1.6219214038451959e+00 1.7776371652909857e+00 0.0000000000000000e+00  1.6283260296905053e+00 1.7949259923376215e+00 0.0000000000000000e+00  1.6346095731232779e+00 1.8114688990108423e+00 0.0000000000000000e+00  1.6410372247817309e+00 1.8284077176446847e+00 0.0000000000000000e+00  1.6473141434932630e+00 1.8446802224958898e+00 0.0000000000000000e+00  1.6537244791671835e+00 1.8613513321208048e+00 0.0000000000000000e+00  1.6599523931998186e+00 1.8772662491994176e+00 0.0000000000000000e+00  1.6663421896678883e+00 1.8937025206400877e+00 0.0000000000000000e+00  1.6725115859560551e+00 1.9092952076632779e+00 0.0000000000000000e+00  1.6788484367740870e+00 1.9253810124185944e+00 0.0000000000000000e+00  1.6849469604128033e+00 1.9406596064866890e+00 0.0000000000000000e+00  1.6912254431212863e+00 1.9564342073416017e+00 0.0000000000000000e+00  1.6972216672235909e+00 1.9712843653943652e+00 0.0000000000000000e+00  1.7034172550975901e+00 1.9867283937603359e+00 0.0000000000000000e+00  1.7093134402172241e+00 2.0012040782113489e+00 0.0000000000000000e+00  1.7153895575340299e+00 2.0161859121941341e+00 0.0000000000000000e+00  1.7211529493020237e+00 2.0302601286574480e+00 0.0000000000000000e+00  1.7271168053976038e+00 2.0448375950351982e+00 0.0000000000000000e+00  1.7327058173865970e+00 2.0583715972543977e+00 0.0000000000000000e+00  1.7385172406055123e+00 2.0724877337008643e+00 0.0000000000000000e+00  1.7439489836194009e+00 2.0855690849712216e+00 0.0000000000000000e+00  1.7495527834099656e+00 2.0990504154498595e+00 0.0000000000000000e+00  1.7547879007704539e+00 2.1116245777775910e+00 0.0000000000000000e+00  1.7602034708989684e+00 2.1245673871023643e+00 0.0000000000000000e+00  1.7651799480813748e+00 2.1364436710607468e+00 0.0000000000000000e+00  1.7703642458885682e+00 2.1487824561677353e+00 0.0000000000000000e+00  1.7751135114194840e+00 2.1600794187915637e+00 0.0000000000000000e+00  1.7799866983374004e+00 2.1715990498661726e+00 0.0000000000000000e+00  1.7844790814493769e+00 2.1822545920403047e+00 0.0000000000000000e+00  1.7890723022246666e+00 2.1930879353910098e+00 0.0000000000000000e+00  1.7932235494938811e+00 2.2028661805262271e+00 0.0000000000000000e+00  1.7975147883538765e+00 2.2129775060432113e+00 0.0000000000000000e+00  1.8013629163751252e+00 2.2220066725749072e+00 0.0000000000000000e+00  1.8052585219163937e+00 2.2311694612487796e+00 0.0000000000000000e+00  1.8088037570174464e+00 2.2394311449739250e+00 0.0000000000000000e+00  1.8123395839404774e+00 2.2477835831832773e+00 0.0000000000000000e+00  1.8154919289372338e+00 2.2550454723347033e+00 0.0000000000000000e+00  1.8186864444035375e+00 2.2626445692545549e+00 0.0000000000000000e+00  1.8214821644797790e+00 2.2690015634202840e+00 0.0000000000000000e+00  1.8242549690910626e+00 2.2756659885687265e+00 0.0000000000000000e+00  1.8267381062744892e+00 2.2812165468602479e+00 0.0000000000000000e+00  1.8291171406527236e+00 2.2870260175776616e+00 0.0000000000000000e+00  1.8312295509314775e+00 2.2916320665168084e+00 0.0000000000000000e+00  1.8332766154932083e+00 2.2967598333691970e+00 0.0000000000000000e+00  1.8350429970547137e+00 2.3004236518112364e+00 0.0000000000000000e+00  1.8367236873723340e+00 2.3048611577534301e+00 0.0000000000000000e+00  1.8382232531972837e+00 2.3077419266505452e+00 0.0000000000000000e+00  1.8395526044077335e+00 2.3114569154777773e+00 0.0000000000000000e+00  1.8407748288922468e+00 2.3137090334721635e+00 0.0000000000000000e+00  1.8418477988931832e+00 2.3167378333222750e+00 0.0000000000000000e+00  1.8427942082565807e+00 2.3183747690588770e+00 0.0000000000000000e+00  1.8436237549432424e+00 2.3210125621103974e+00 0.0000000000000000e+00  1.8443889880362432e+00 2.3218663869881495e+00 0.0000000000000000e+00  1.8449707505247146e+00 2.3242806521419364e+00 0.0000000000000000e+00  1.8455807341054753e+00 2.3246979209340033e+00 0.0000000000000000e+00  1.8460049701387207e+00 2.3264450981982336e+00 0.0000000000000000e+00  1.8464462470323266e+00 2.3269610420271492e+00 0.0000000000000000e+00  1.8467466108240307e+00 2.3281205771327653e+00 0.0000000000000000e+00  1.8470960812259667e+00 2.3282658383548487e+00 0.0000000000000000e+00  1.8472566980670975e+00 2.3296552823474301e+00 0.0000000000000000e+00  1.8475504086895527e+00 2.3290757716333168e+00 0.0000000000000000e+00  1.8476214122549064e+00 2.3305110041885917e+00 0.0000000000000000e+00  1.8478558470885278e+00 2.3300252439606184e+00 0.0000000000000000e+00  1.8478625728003601e+00 2.3307863696171673e+00 0.0000000000000000e+00  1.8480685517576425e+00 2.3306712705945278e+00 0.0000000000000000e+00  1.8480164195038107e+00 2.3312511001403569e+00 0.0000000000000000e+00  1.8482056078551932e+00 2.3307309175597917e+00 0.0000000000000000e+00  1.8481148462252326e+00 2.3317290464818585e+00 0.0000000000000000e+00  1.8482976046289801e+00 2.3309071975799465e+00 0.0000000000000000e+00  1.8481702063422425e+00 2.3316574536096519e+00 0.0000000000000000e+00  1.8483546009613467e+00 2.3313826381115192e+00 0.0000000000000000e+00  1.8482131555287131e+00 2.3314671412484413e+00 0.0000000000000000e+00  1.8483809591728277e+00 2.3315254114170085e+00 0.0000000000000000e+00  1.8482350010672368e+00 2.3316646058159467e+00 0.0000000000000000e+00  1.8483754571737321e+00 2.3314179316869961e+00 0.0000000000000000e+00  1.8481871077563266e+00 2.3319034708381414e+00 0.0000000000000000e+00  1.8482500183011830e+00 2.3317482235384435e+00 0.0000000000000000e+00  1.8479645736621899e+00 2.3321254318515576e+00 0.0000000000000000e+00  1.8478957761918096e+00 2.3325128068316410e+00 0.0000000000000000e+00  1.8475627249080799e+00 2.3327196563915162e+00 0.0000000000000000e+00  1.8474801109356218e+00 2.3330087414793073e+00 0.0000000000000000e+00  1.8474056382490871e+00 2.3331492322149763e+00 0.0000000000000000e+00  1.8475187254915659e+00 2.3324852590233971e+00 0.0000000000000000e+00  1.8480092199926814e+00 2.3325650078493281e+00 0.0000000000000000e+00  1.8481181978772929e+00 2.3310398580628240e+00 0.0000000000000000e+00  1.8488813781399440e+00 2.3313675395434750e+00 0.0000000000000000e+00  1.8488956753475927e+00 2.3305389062318653e+00 0.0000000000000000e+00  1.8486938347872546e+00 2.3289380647725295e+00 0.0000000000000000e+00  1.8507293153850228e+00 2.3334500313812954e+00 0.0000000000000000e+00  1.8466472548945214e+00 2.3221316673620125e+00 0.0000000000000000e+00  1.8564102923148957e+00 2.3372007537323110e+00 0.0000000000000000e+00  1.8278029416230921e+00 2.3478681053129562e+00 0.0000000000000000e+00  1.9004267524475265e+00 2.2568277205834164e+00 0.0000000000000000e+00  2.4136255213357818e+00 1.0450538924918573e+00 0.0000000000000000e+00  2.8635786091580400e+00 1.8983061705745255e-01 0.0000000000000000e+00  2.9758178709239753e+00 1.2381182783786953e-02 0.0000000000000000e+00  2.9633672478799564e+00 1.3654576133867648e-02 0.0000000000000000e+00  2.9674791210416034e+00 2.5127754452510757e-03 0.0000000000000000e+00  2.9721447968978776e+00 -4.3401539705631540e-04 0.0000000000000000e+00  2.9709519707463086e+00 7.5046058086608927e-04 0.0000000000000000e+00  2.9718556169220660e+00 -2.5469519307669622e-03 0.0000000000000000e+00  2.9728997461261439e+00 -3.3171581153212449e-03 0.0000000000000000e+00  2.9717841823372431e+00 -1.6329378714799922e-03 0.0000000000000000e+00  2.9716513906888435e+00 -1.3584267691397847e-03 0.0000000000000000e+00  2.9718776077268352e+00 -2.0717184269343101e-03 0.0000000000000000e+00  2.9720731780027458e+00 -1.9753354858515078e-03 0.0000000000000000e+00  2.9719715145025107e+00 -2.4187701643453171e-03 0.0000000000000000e+00  2.9719808202905229e+00 -1.8820103412315796e-03 0.0000000000000000e+00  2.9718480127372247e+00 -2.4573208322134599e-03 0.0000000000000000e+00  2.9719814827235673e+00 -2.1671284309825178e-03 0.0000000000000000e+00  2.9718825742640864e+00 -3.0493083394553169e-03 0.0000000000000000e+00  2.9720219400149377e+00 -2.8575152443781203e-03 0.0000000000000000e+00  2.9718448741621328e+00 -3.9247868163866020e-03 0.0000000000000000e+00  2.9719989571392698e+00 -3.9274024915436634e-03 0.0000000000000000e+00  2.9718554967444817e+00 -5.1637859778859152e-03 0.0000000000000000e+00  2.9719933481214871e+00 -5.3604068369509077e-03 0.0000000000000000e+00  2.9718535034575497e+00 -6.4572371846092257e-03 0.0000000000000000e+00  2.9719929448768796e+00 -6.5576322077148721e-03 0.0000000000000000e+00  2.9718606538475072e+00 -7.5611504021585113e-03 0.0000000000000000e+00  2.9719679274138082e+00 -7.3539427479475247e-03 0.0000000000000000e+00  2.9718848157516682e+00 -8.1329889153323193e-03 0.0000000000000000e+00  2.9719685174728627e+00 -7.9583378603868948e-03 0.0000000000000000e+00  2.9718789440583366e+00 -8.3548228492653052e-03 0.0000000000000000e+00  2.9719831839241873e+00 -8.2124797475967414e-03 0.0000000000000000e+00  2.9718897331140619e+00 -8.5685040630779936e-03 0.0000000000000000e+00  2.9719795455351732e+00 -8.2924486549919001e-03 0.0000000000000000e+00  2.9719090667369974e+00 -8.6367263193599837e-03 0.0000000000000000e+00  2.9719894371652686e+00 -8.4478023223848089e-03 0.0000000000000000e+00  2.9719091983433801e+00 -8.6257538522675325e-03 0.0000000000000000e+00  2.9720053002489637e+00 -8.4872610777026944e-03 0.0000000000000000e+00  2.9719187067358801e+00 -8.8461668800306464e-03 0.0000000000000000e+00  2.9720000304311354e+00 -8.3210844458212682e-03 0.0000000000000000e+00  2.9719352573336226e+00 -9.0711314163064386e-03 0.0000000000000000e+00  2.9719975801665988e+00 -8.5106793730320325e-03 0.0000000000000000e+00  2.9719333309453564e+00 -8.7669141325595525e-03 0.0000000000000000e+00  2.9720010891381552e+00 -8.8120510680652926e-03 0.0000000000000000e+00  2.9719367009247195e+00 -8.8978764473187297e-03 0.0000000000000000e+00  2.9719847190029509e+00 -8.4992994829359257e-03 0.0000000000000000e+00  2.9719527416572964e+00 -9.8968957942888198e-03 0.0000000000000000e+00  2.9719727579285671e+00 -8.2806542858922146e-03 0.0000000000000000e+00  2.9719538639225433e+00 -9.8560998553324664e-03 0.0000000000000000e+00  2.9719743308660367e+00 -9.5798825404407022e-03 0.0000000000000000e+00  2.9719641467235332e+00 -8.8956836645047010e-03 0.0000000000000000e+00  2.9719555860350209e+00 -1.4701488294728084e-02 0.0000000000000000e+00  2.9719885227198057e+00 -1.0301945815993131e-02 0.0000000000000000e+00  2.9719555206993200e+00 0.0000000000000000e+00 0.0000000000000000e+00  1.5603473018898681e+00 0.0000000000000000e+00 1.1256304628232041e-03  1.5602091749369789e+00 3.6670738774539961e-02 -2.1451905052787633e-04  1.5603344480865540e+00 7.2381839571596940e-02 -2.7332982144520596e-04  1.5602576289243326e+00 1.0913206413784236e-01 8.9642751137411608e-05  1.5602756625955616e+00 1.4563978270604780e-01 -2.2228244480270082e-05  1.5602477548592870e+00 1.8184370103533531e-01 -2.9123286195763573e-05  1.5602193663243995e+00 2.1841002743996971e-01 3.7707978112451544e-05  1.5601766214850279e+00 2.5472613899197094e-01 -2.9789679237175391e-05  1.5601409239814188e+00 2.9110291244650438e-01 1.2674730275722453e-05  1.5600826830894452e+00 3.2745766109411717e-01 4.5175110039859317e-06  1.5600217258355717e+00 3.6378595484278003e-01 -2.3209369815030921e-05  1.5599715899728765e+00 4.0012606093853020e-01 4.1086452631226566e-05  1.5598833257289924e+00 4.3634193456297471e-01 -6.0108901970476343e-05  1.5598242045732358e+00 4.7271648783880060e-01 7.5291217533211247e-05  1.5597413974281651e+00 5.0884851966944655e-01 -8.7037689123173402e-05  1.5596572152076484e+00 5.4513828159336664e-01 9.3780183567761442e-05  1.5595710106929608e+00 5.8124937968652912e-01 -1.0050863887233883e-04  1.5594984401987015e+00 6.1749248435060644e-01 1.0698108889502212e-04  1.5593849753568112e+00 6.5343044681800155e-01 -1.1464599124987366e-04  1.5593182830098467e+00 6.8970401644288015e-01 1.2043683144363217e-04  1.5592241338459312e+00 7.2552603816191530e-01 -1.2495999781001659e-04  1.5591273074999261e+00 7.6161729864245231e-01 1.2484145948392060e-04  1.5590553173058153e+00 7.9743859587388721e-01 -1.2105740370274273e-04  1.5589818942631888e+00 8.3340254982508899e-01 1.1492447537714821e-04  1.5588863861598174e+00 8.6898156409309224e-01 -1.1216962528532557e-04  1.5588501162221298e+00 9.0491647849222856e-01 1.1122496302269290e-04  1.5587902299085556e+00 9.4034405977269486e-01 -1.1012472341383719e-04  1.5587384496978312e+00 9.7596342279194692e-01 1.0631213215292746e-04  1.5587427528637749e+00 1.0113284714352624e+00 -1.0433650165348774e-04  1.5587381763377772e+00 1.0467182137628184e+00 1.0423446720400840e-04  1.5587526848095925e+00 1.0817101857225402e+00 -1.0640195032107091e-04  1.5588423168277559e+00 1.1169550307636840e+00 1.0791631551214869e-04  1.5589346363009329e+00 1.1516137276500646e+00 -1.1006623599952103e-04  1.5590703857575356e+00 1.1863776071054355e+00 1.1116796067122630e-04  1.5593134397074830e+00 1.2207681837894984e+00 -1.1255990701058088e-04  1.5595718953009969e+00 1.2550293769449574e+00 1.1390979385695743e-04  1.5599377969495292e+00 1.2887601146618037e+00 -1.1690640013817075e-04  1.5604284699497750e+00 1.3225365884959084e+00 1.1914532371972599e-04  1.5610154568924388e+00 1.3554756532452976e+00 -1.2097153145944038e-04  1.5617519135961955e+00 1.3882938232242077e+00 1.2037819018298049e-04  1.5627232880428772e+00 1.4203528196380750e+00 -1.1942349634072348e-04  1.5638486865511350e+00 1.4519177275843447e+00 1.1631827853008976e-04  1.5652851207494602e+00 1.4824859489973798e+00 -1.1301703859696553e-04  1.5670385072563504e+00 1.5125326350992661e+00 1.0799401875820638e-04  1.5691427528210649e+00 1.5411266876571765e+00 -1.0253374260710064e-04  1.5716779517401094e+00 1.5689064729332833e+00 9.6198367000681259e-05  1.5747292958898367e+00 1.5951633505085099e+00 -8.7219053137334017e-05  1.5782423624796660e+00 1.6201796848194590e+00 7.9618567179685876e-05  1.5823349549960390e+00 1.6435570173133460e+00 -6.7844184309878269e-05  1.5869525728378093e+00 1.6658090645963519e+00 5.9464837255885063e-05  1.5920332010722225e+00 1.6864303451186065e+00 -4.5952295007154484e-05  1.5975442760187635e+00 1.7061758907582847e+00 3.4593677935170917e-05  1.6033879741244166e+00 1.7248750950235545e+00 -2.1885350080537206e-05  1.6094390594212407e+00 1.7429657637456888e+00 7.6934794696330141e-06  1.6156490748093251e+00 1.7604901373222033e+00 4.2829525862553610e-06  1.6219621873006502e+00 1.7778127731108548e+00 -1.9493229321126448e-05  1.6282785922836278e+00 1.7947736381361843e+00 3.3628592661720594e-05  1.6346505741945865e+00 1.8116023677472926e+00 -4.9707085768862299e-05  1.6409936528253661e+00 1.8283250830390119e+00 6.4504506388184143e-05  1.6473560779780423e+00 1.8448021926476792e+00 -7.8473334810747993e-05  1.6536647141882141e+00 1.8612314704106834e+00 9.1753450551003069e-05  1.6600123864336560e+00 1.8774301041145178e+00 -1.0544117163955178e-04  1.6662697208770272e+00 1.8935998901154203e+00 1.1982895123970303e-04  1.6725701688586967e+00 1.9094063771863026e+00 -1.3442488247621806e-04  1.6787687190702729e+00 1.9253368890665759e+00 1.4837132405885972e-04  1.6850160390969526e+00 1.9407808116750125e+00 -1.5939754905597883e-04  1.6911263104110554e+00 1.9563508169039263e+00 1.7032673041602025e-04  1.6973002251553473e+00 1.9714309903789629e+00 -1.7852928513784815e-04  1.7033216553198045e+00 1.9866787421466048e+00 1.8964753711196657e-04  1.7093877959822379e+00 2.0012758215909803e+00 -1.9789754411452131e-04  1.7152896691829600e+00 2.0161781839030937e+00 2.0918501560365221e-04  1.7212529558859393e+00 2.0303458621553916e+00 -2.1547514717807904e-04  1.7269960580715760e+00 2.0447663188923721e+00 2.2357658360684757e-04  1.7328171728671591e+00 2.0584672084821025e+00 -2.2708440094485954e-04  1.7384142144419319e+00 2.0724729391296068e+00 2.3384869106578027e-04  1.7440429552405146e+00 2.0855563373206176e+00 -2.3892678714859008e-04  1.7494521516059438e+00 2.0990906346543206e+00 2.4698683974395605e-04  1.7549082493046588e+00 2.1116442753000002e+00 -2.5327240493742200e-04  1.7600690873238345e+00 2.1245279961255674e+00 2.5957144257267246e-04  1.7653114052051200e+00 2.1364886724986265e+00 -2.6451996409557438e-04  1.7702502937820801e+00 2.1488277219172733e+00 2.7107796875871327e-04  1.7752072669688119e+00 2.1599903442705388e+00 -2.7898858336748407e