<?xml version="1.0"?>
<VTKFile type="UnstructuredGrid"  version="0.1"  >
<UnstructuredGrid>
<Piece  NumberOfPoints="8241" NumberOfCells="16000">
<Points>
<DataArray  type="Float64"  NumberOfComponents="3"  format="ascii">-5 -1 0  -4.95 -1 0  -4.9 -1 0  -4.85 -1 0  -4.8 -1 0  -4.75 -1 0  -4.7 -1 0  -4.65 -1 0  -4.6 -1 0  -4.55 -1 0  -4.5 -1 0  -4.45 -1 0  -4.4 -1 0  -4.35 -1 0  -4.3 -1 0  -4.25 -1 0  -4.2 -1 0  -4.15 -1 0  -4.1 -1 0  -4.05 -1 0  -4 -1 0  -3.95 -1 0  -3.9 -1 0  -3.85 -1 0  -3.8 -1 0  -3.75 -1 0  -3.7 -1 0  -3.65 -1 0  -3.6 -1 0  -3.55 -1 0  -3.5 -1 0  -3.45 -1 0  -3.4 -1 0  -3.35 -1 0  -3.3 -1 0  -3.25 -1 0  -3.2 -1 0  -3.15 -1 0  -3.1 -1 0  -3.05 -1 0  -3 -1 0  -2.95 -1 0  -2.9 -1 0  -2.85 -1 0  -2.8 -1 0  -2.75 -1 0  -2.7 -1 0  -2.65 -1 0  -2.6 -1 0  -2.55 -1 0  -2.5 -1 0  -2.45 -1 0  -2.4 -1 0  -2.35 -1 0  -2.3 -1 0  -2.25 -1 0  -2.2 -1 0  -2.15 -1 0  -2.1 -1 0  -2.05 -1 0  -2 -1 0  -1.95 -1 0  -1.9 -1 0  -1.85 -1 0  -1.8 -1 0  -1.75 -1 0  -1.7 -1 0  -1.65 -1 0  -1.6 -1 0  -1.55 -1 0  -1.5 -1 0  -1.45 -1 0  -1.4 -1 0  -1.35 -1 0  -1.3 -1 0  -1.25 -1 0  -1.2 -1 0  -1.15 -1 0  -1.1 -1 0  -1.05 -1 0  -1 -1 0  -0.9500000000000002 -1 0  -0.9000000000000004 -1 0  -0.8499999999999996 -1 0  -0.7999999999999998 -1 0  -0.75 -1 0  -0.7000000000000002 -1 0  -0.6500000000000004 -1 0  -0.5999999999999996 -1 0  -0.5499999999999998 -1 0  -0.5 -1 0  -0.4500000000000002 -1 0  -0.4000000000000004 -1 0  -0.3499999999999996 -1 0  -0.2999999999999998 -1 0  -0.25 -1 0  -0.2000000000000002 -1 0  -0.1500000000000004 -1 0  -0.09999999999999964 -1 0  -0.04999999999999982 -1 0  0 -1 0  0.04999999999999982 -1 0  0.09999999999999964 -1 0  0.1500000000000004 -1 0  0.2000000000000002 -1 0  0.25 -1 0  0.2999999999999998 -1 0  0.3499999999999996 -1 0  0.4000000000000004 -1 0  0.4500000000000002 -1 0  0.5 -1 0  0.5499999999999998 -1 0  0.5999999999999996 -1 0  0.6500000000000004 -1 0  0.7000000000000002 -1 0  0.75 -1 0  0.7999999999999998 -1 0  0.8499999999999996 -1 0  0.9000000000000004 -1 0  0.9500000000000002 -1 0  1 -1 0  1.05 -1 0  1.1 -1 0  1.15 -1 0  1.2 -1 0  1.25 -1 0  1.3 -1 0  1.35 -1 0  1.4 -1 0  1.45 -1 0  1.5 -1 0  1.55 -1 0  1.6 -1 0  1.65 -1 0  1.7 -1 0  1.75 -1 0  1.8 -1 0  1.85 -1 0  1.9 -1 0  1.95 -1 0  2 -1 0  2.05 -1 0  2.1 -1 0  2.15 -1 0  2.2 -1 0  2.25 -1 0  2.3 -1 0  2.35 -1 0  2.4 -1 0  2.45 -1 0  2.5 -1 0  2.55 -1 0  2.6 -1 0  2.65 -1 0  2.7 -1 0  2.75 -1 0  2.8 -1 0  2.85 -1 0  2.9 -1 0  2.95 -1 0  3 -1 0  3.050000000000001 -1 0  3.1 -1 0  3.15 -1 0  3.199999999999999 -1 0  3.25 -1 0  3.300000000000001 -1 0  3.35 -1 0  3.4 -1 0  3.449999999999999 -1 0  3.5 -1 0  3.550000000000001 -1 0  3.6 -1 0  3.65 -1 0  3.699999999999999 -1 0  3.75 -1 0  3.800000000000001 -1 0  3.85 -1 0  3.9 -1 0  3.949999999999999 -1 0  4 -1 0  4.050000000000001 -1 0  4.1 -1 0  4.15 -1 0  4.199999999999999 -1 0  4.25 -1 0  4.300000000000001 -1 0  4.35 -1 0  4.4 -1 0  4.449999999999999 -1 0  4.5 -1 0  4.550000000000001 -1 0  4.6 -1 0  4.65 -1 0  4.699999999999999 -1 0  4.75 -1 0  4.800000000000001 -1 0  4.85 -1 0  4.9 -1 0  4.949999999999999 -1 0  5 -1 0  -5 -0.95 0  -4.95 -0.95 0  -4.9 -0.95 0  -4.85 -0.95 0  -4.8 -0.95 0  -4.75 -0.95 0  -4.7 -0.95 0  -4.65 -0.95 0  -4.6 -0.95 0  -4.55 -0.95 0  -4.5 -0.95 0  -4.45 -0.95 0  -4.4 -0.95 0  -4.35 -0.95 0  -4.3 -0.95 0  -4.25 -0.95 0  -4.2 -0.95 0  -4.15 -0.95 0  -4.1 -0.95 0  -4.05 -0.95 0  -4 -0.95 0  -3.95 -0.95 0  -3.9 -0.95 0  -3.85 -0.95 0  -3.8 -0.95 0  -3.75 -0.95 0  -3.7 -0.95 0  -3.65 -0.95 0  -3.6 -0.95 0  -3.55 -0.95 0  -3.5 -0.95 0  -3.45 -0.95 0  -3.4 -0.95 0  -3.35 -0.95 0  -3.3 -0.95 0  -3.25 -0.95 0  -3.2 -0.95 0  -3.15 -0.95 0  -3.1 -0.95 0  -3.05 -0.95 0  -3 -0.95 0  -2.95 -0.95 0  -2.9 -0.95 0  -2.85 -0.95 0  -2.8 -0.95 0  -2.75 -0.95 0  -2.7 -0.95 0  -2.65 -0.95 0  -2.6 -0.95 0  -2.55 -0.95 0  -2.5 -0.95 0  -2.45 -0.95 0  -2.4 -0.95 0  -2.35 -0.95 0  -2.3 -0.95 0  -2.25 -0.95 0  -2.2 -0.95 0  -2.15 -0.95 0  -2.1 -0.95 0  -2.05 -0.95 0  -2 -0.95 0  -1.95 -0.95 0  -1.9 -0.95 0  -1.85 -0.95 0  -1.8 -0.95 0  -1.75 -0.95 0  -1.7 -0.95 0  -1.65 -0.95 0  -1.6 -0.95 0  -1.55 -0.95 0  -1.5 -0.95 0  -1.45 -0.95 0  -1.4 -0.95 0  -1.35 -0.95 0  -1.3 -0.95 0  -1.25 -0.95 0  -1.2 -0.95 0  -1.15 -0.95 0  -1.1 -0.95 0  -1.05 -0.95 0  -1 -0.95 0  -0.9500000000000002 -0.95 0  -0.9000000000000004 -0.95 0  -0.8499999999999996 -0.95 0  -0.7999999999999998 -0.95 0  -0.75 -0.95 0  -0.7000000000000002 -0.95 0  -0.6500000000000004 -0.95 0  -0.5999999999999996 -0.95 0  -0.5499999999999998 -0.95 0  -0.5 -0.95 0  -0.4500000000000002 -0.95 0  -0.4000000000000004 -0.95 0  -0.3499999999999996 -0.95 0  -0.2999999999999998 -0.95 0  -0.25 -0.95 0  -0.2000000000000002 -0.95 0  -0.1500000000000004 -0.95 0  -0.09999999999999964 -0.95 0  -0.04999999999999982 -0.95 0  0 -0.95 0  0.04999999999999982 -0.95 0  0.09999999999999964 -0.95 0  0.1500000000000004 -0.95 0  0.2000000000000002 -0.95 0  0.25 -0.95 0  0.2999999999999998 -0.95 0  0.3499999999999996 -0.95 0  0.4000000000000004 -0.95 0  0.4500000000000002 -0.95 0  0.5 -0.95 0  0.5499999999999998 -0.95 0  0.5999999999999996 -0.95 0  0.6500000000000004 -0.95 0  0.7000000000000002 -0.95 0  0.75 -0.95 0  0.7999999999999998 -0.95 0  0.8499999999999996 -0.95 0  0.9000000000000004 -0.95 0  0.9500000000000002 -0.95 0  1 -0.95 0  1.05 -0.95 0  1.1 -0.95 0  1.15 -0.95 0  1.2 -0.95 0  1.25 -0.95 0  1.3 -0.95 0  1.35 -0.95 0  1.4 -0.95 0  1.45 -0.95 0  1.5 -0.95 0  1.55 -0.95 0  1.6 -0.95 0  1.65 -0.95 0  1.7 -0.95 0  1.75 -0.95 0  1.8 -0.95 0  1.85 -0.95 0  1.9 -0.95 0  1.95 -0.95 0  2 -0.95 0  2.05 -0.95 0  2.1 -0.95 0  2.15 -0.95 0  2.2 -0.95 0  2.25 -0.95 0  2.3 -0.95 0  2.35 -0.95 0  2.4 -0.95 0  2.45 -0.95 0  2.5 -0.95 0  2.55 -0.95 0  2.6 -0.95 0  2.65 -0.95 0  2.7 -0.95 0  2.75 -0.95 0  2.8 -0.95 0  2.85 -0.95 0  2.9 -0.95 0  2.95 -0.95 0  3 -0.95 0  3.050000000000001 -0.95 0  3.1 -0.95 0  3.15 -0.95 0  3.199999999999999 -0.95 0  3.25 -0.95 0  3.300000000000001 -0.95 0  3.35 -0.95 0  3.4 -0.95 0  3.449999999999999 -0.95 0  3.5 -0.95 0  3.550000000000001 -0.95 0  3.6 -0.95 0  3.65 -0.95 0  3.699999999999999 -0.95 0  3.75 -0.95 0  3.800000000000001 -0.95 0  3.85 -0.95 0  3.9 -0.95 0  3.949999999999999 -0.95 0  4 -0.95 0  4.050000000000001 -0.95 0  4.1 -0.95 0  4.15 -0.95 0  4.199999999999999 -0.95 0  4.25 -0.95 0  4.300000000000001 -0.95 0  4.35 -0.95 0  4.4 -0.95 0  4.449999999999999 -0.95 0  4.5 -0.95 0  4.550000000000001 -0.95 0  4.6 -0.95 0  4.65 -0.95 0  4.699999999999999 -0.95 0  4.75 -0.95 0  4.800000000000001 -0.95 0  4.85 -0.95 0  4.9 -0.95 0  4.949999999999999 -0.95 0  5 -0.95 0  -5 -0.9 0  -4.95 -0.9 0  -4.9 -0.9 0  -4.85 -0.9 0  -4.8 -0.9 0  -4.75 -0.9 0  -4.7 -0.9 0  -4.65 -0.9 0  -4.6 -0.9 0  -4.55 -0.9 0  -4.5 -0.9 0  -4.45 -0.9 0  -4.4 -0.9 0  -4.35 -0.9 0  -4.3 -0.9 0  -4.25 -0.9 0  -4.2 -0.9 0  -4.15 -0.9 0  -4.1 -0.9 0  -4.05 -0.9 0  -4 -0.9 0  -3.95 -0.9 0  -3.9 -0.9 0  -3.85 -0.9 0  -3.8 -0.9 0  -3.75 -0.9 0  -3.7 -0.9 0  -3.65 -0.9 0  -3.6 -0.9 0  -3.55 -0.9 0  -3.5 -0.9 0  -3.45 -0.9 0  -3.4 -0.9 0  -3.35 -0.9 0  -3.3 -0.9 0  -3.25 -0.9 0  -3.2 -0.9 0  -3.15 -0.9 0  -3.1 -0.9 0  -3.05 -0.9 0  -3 -0.9 0  -2.95 -0.9 0  -2.9 -0.9 0  -2.85 -0.9 0  -2.8 -0.9 0  -2.75 -0.9 0  -2.7 -0.9 0  -2.65 -0.9 0  -2.6 -0.9 0  -2.55 -0.9 0  -2.5 -0.9 0  -2.45 -0.9 0  -2.4 -0.9 0  -2.35 -0.9 0  -2.3 -0.9 0  -2.25 -0.9 0  -2.2 -0.9 0  -2.15 -0.9 0  -2.1 -0.9 0  -2.05 -0.9 0  -2 -0.9 0  -1.95 -0.9 0  -1.9 -0.9 0  -1.85 -0.9 0  -1.8 -0.9 0  -1.75 -0.9 0  -1.7 -0.9 0  -1.65 -0.9 0  -1.6 -0.9 0  -1.55 -0.9 0  -1.5 -0.9 0  -1.45 -0.9 0  -1.4 -0.9 0  -1.35 -0.9 0  -1.3 -0.9 0  -1.25 -0.9 0  -1.2 -0.9 0  -1.15 -0.9 0  -1.1 -0.9 0  -1.05 -0.9 0  -1 -0.9 0  -0.9500000000000002 -0.9 0  -0.9000000000000004 -0.9 0  -0.8499999999999996 -0.9 0  -0.7999999999999998 -0.9 0  -0.75 -0.9 0  -0.7000000000000002 -0.9 0  -0.6500000000000004 -0.9 0  -0.5999999999999996 -0.9 0  -0.5499999999999998 -0.9 0  -0.5 -0.9 0  -0.4500000000000002 -0.9 0  -0.4000000000000004 -0.9 0  -0.3499999999999996 -0.9 0  -0.2999999999999998 -0.9 0  -0.25 -0.9 0  -0.2000000000000002 -0.9 0  -0.1500000000000004 -0.9 0  -0.09999999999999964 -0.9 0  -0.04999999999999982 -0.9 0  0 -0.9 0  0.04999999999999982 -0.9 0  0.09999999999999964 -0.9 0  0.1500000000000004 -0.9 0  0.2000000000000002 -0.9 0  0.25 -0.9 0  0.2999999999999998 -0.9 0  0.3499999999999996 -0.9 0  0.4000000000000004 -0.9 0  0.4500000000000002 -0.9 0  0.5 -0.9 0  0.5499999999999998 -0.9 0  0.5999999999999996 -0.9 0  0.6500000000000004 -0.9 0  0.7000000000000002 -0.9 0  0.75 -0.9 0  0.7999999999999998 -0.9 0  0.8499999999999996 -0.9 0  0.9000000000000004 -0.9 0  0.9500000000000002 -0.9 0  1 -0.9 0  1.05 -0.9 0  1.1 -0.9 0  1.15 -0.9 0  1.2 -0.9 0  1.25 -0.9 0  1.3 -0.9 0  1.35 -0.9 0  1.4 -0.9 0  1.45 -0.9 0  1.5 -0.9 0  1.55 -0.9 0  1.6 -0.9 0  1.65 -0.9 0  1.7 -0.9 0  1.75 -0.9 0  1.8 -0.9 0  1.85 -0.9 0  1.9 -0.9 0  1.95 -0.9 0  2 -0.9 0  2.05 -0.9 0  2.1 -0.9 0  2.15 -0.9 0  2.2 -0.9 0  2.25 -0.9 0  2.3 -0.9 0  2.35 -0.9 0  2.4 -0.9 0  2.45 -0.9 0  2.5 -0.9 0  2.55 -0.9 0  2.6 -0.9 0  2.65 -0.9 0  2.7 -0.9 0  2.75 -0.9 0  2.8 -0.9 0  2.85 -0.9 0  2.9 -0.9 0  2.95 -0.9 0  3 -0.9 0  3.050000000000001 -0.9 0  3.1 -0.9 0  3.15 -0.9 0  3.199999999999999 -0.9 0  3.25 -0.9 0  3.300000000000001 -0.9 0  3.35 -0.9 0  3.4 -0.9 0  3.449999999999999 -0.9 0  3.5 -0.9 0  3.550000000000001 -0.9 0  3.6 -0.9 0  3.65 -0.9 0  3.699999999999999 -0.9 0  3.75 -0.9 0  3.800000000000001 -0.9 0  3.85 -0.9 0  3.9 -0.9 0  3.949999999999999 -0.9 0  4 -0.9 0  4.050000000000001 -0.9 0  4.1 -0.9 0  4.15 -0.9 0  4.199999999999999 -0.9 0  4.25 -0.9 0  4.300000000000001 -0.9 0  4.35 -0.9 0  4.4 -0.9 0  4.449999999999999 -0.9 0  4.5 -0.9 0  4.550000000000001 -0.9 0  4.6 -0.9 0  4.65 -0.9 0  4.699999999999999 -0.9 0  4.75 -0.9 0  4.800000000000001 -0.9 0  4.85 -0.9 0  4.9 -0.9 0  4.949999999999999 -0.9 0  5 -0.9 0  -5 -0.85 0  -4.95 -0.85 0  -4.9 -0.85 0  -4.85 -0.85 0  -4.8 -0.85 0  -4.75 -0.85 0  -4.7 -0.85 0  -4.65 -0.85 0  -4.6 -0.85 0  -4.55 -0.85 0  -4.5 -0.85 0  -
[...]
<PointData  Vectors="f_15"> 
<DataArray  type="Float64"  Name="f_15"  NumberOfComponents="3" format="ascii">1.4595934410513736e+00 0.0000000000000000e+00 0.0000000000000000e+00  1.4597006836110296e+00 3.3144269411026293e-02 0.0000000000000000e+00  1.4596483551437986e+00 6.9472821810551019e-02 0.0000000000000000e+00  1.4596960766212717e+00 1.0181846948593321e-01 0.0000000000000000e+00  1.4596164911145939e+00 1.3723957843165632e-01 0.0000000000000000e+00  1.4596885346310855e+00 1.7046162477097088e-01 0.0000000000000000e+00  1.4596194991941536e+00 2.0512381536711183e-01 0.0000000000000000e+00  1.4596392078911318e+00 2.3871893950777967e-01 0.0000000000000000e+00  1.4596044063883926e+00 2.7316891922055575e-01 0.0000000000000000e+00  1.4596411566399561e+00 3.0690144581770862e-01 0.0000000000000000e+00  1.4595526607875979e+00 3.4107372069187580e-01 0.0000000000000000e+00  1.4596435408012935e+00 3.7504466069186032e-01 0.0000000000000000e+00  1.4595554398360349e+00 4.0899506206571412e-01 0.0000000000000000e+00  1.4596213865651007e+00 4.4295877779961851e-01 0.0000000000000000e+00  1.4595685152246516e+00 4.7688099956940172e-01 0.0000000000000000e+00  1.4596635540589968e+00 5.1082810075875307e-01 0.0000000000000000e+00  1.4595630592190736e+00 5.4450684968418395e-01 0.0000000000000000e+00  1.4597333666152335e+00 5.7859769805882810e-01 0.0000000000000000e+00  1.4596300413068826e+00 6.1207696106113785e-01 0.0000000000000000e+00  1.4597979640496752e+00 6.4599063015017855e-01 0.0000000000000000e+00  1.4597477114264921e+00 6.7952423248883864e-01 0.0000000000000000e+00  1.4599484009305062e+00 7.1324844286167910e-01 0.0000000000000000e+00  1.4598856876370276e+00 7.4652301850623681e-01 0.0000000000000000e+00  1.4601795449036490e+00 7.8027578735980263e-01 0.0000000000000000e+00  1.4601384361436665e+00 8.1329480559692868e-01 0.0000000000000000e+00  1.4604689372651718e+00 8.4675815315243075e-01 0.0000000000000000e+00  1.4605217728562725e+00 8.7969895376965268e-01 0.0000000000000000e+00  1.4609192252979875e+00 9.1283585321913063e-01 0.0000000000000000e+00  1.4610319077478404e+00 9.4540976516741393e-01 0.0000000000000000e+00  1.4615726839756549e+00 9.7834025492454380e-01 0.0000000000000000e+00  1.4617916747006892e+00 1.0104596458302020e+00 0.0000000000000000e+00  1.4624589494279978e+00 1.0428732925845399e+00 0.0000000000000000e+00  1.4628845817914706e+00 1.0745943494840713e+00 0.0000000000000000e+00  1.4637399791282728e+00 1.1063334618724479e+00 0.0000000000000000e+00  1.4644015686058993e+00 1.1372986366714906e+00 0.0000000000000000e+00  1.4655660397034453e+00 1.1682836508662220e+00 0.0000000000000000e+00  1.4665781799744817e+00 1.1982463499266884e+00 0.0000000000000000e+00  1.4681273957113743e+00 1.2280030710691003e+00 0.0000000000000000e+00  1.4696657160933733e+00 1.2567317942353373e+00 0.0000000000000000e+00  1.4717664379854050e+00 1.2848703223911355e+00 0.0000000000000000e+00  1.4739708234035416e+00 1.3117815492068363e+00 0.0000000000000000e+00  1.4768275857530386e+00 1.3379312433259007e+00 0.0000000000000000e+00  1.4798905484426257e+00 1.3626245013878751e+00 0.0000000000000000e+00  1.4836197045428079e+00 1.3862713897802419e+00 0.0000000000000000e+00  1.4876617743379990e+00 1.4085735874061920e+00 0.0000000000000000e+00  1.4923119270249530e+00 1.4297223989235632e+00 0.0000000000000000e+00  1.4972342260452922e+00 1.4496813280090852e+00 0.0000000000000000e+00  1.5026625507414519e+00 1.4688196247225067e+00 0.0000000000000000e+00  1.5082493690224090e+00 1.4871312549606481e+00 0.0000000000000000e+00  1.5141354798461020e+00 1.5048742035284277e+00 0.0000000000000000e+00  1.5201088636501949e+00 1.5223199570721124e+00 0.0000000000000000e+00  1.5262246168031544e+00 1.5394221410613145e+00 0.0000000000000000e+00  1.5323381501134774e+00 1.5563658151241901e+00 0.0000000000000000e+00  1.5385568921902075e+00 1.5732260431727261e+00 0.0000000000000000e+00  1.5447478357897870e+00 1.5899895450262111e+00 0.0000000000000000e+00  1.5509695718280616e+00 1.6065858182116384e+00 0.0000000000000000e+00  1.5572245928542352e+00 1.6232555761999912e+00 0.0000000000000000e+00  1.5634665120275875e+00 1.6397442316505013e+00 0.0000000000000000e+00  1.5697198530485952e+00 1.6561524702804058e+00 0.0000000000000000e+00  1.5759994447473162e+00 1.6725807205080530e+00 0.0000000000000000e+00  1.5822742963039618e+00 1.6888489750913573e+00 0.0000000000000000e+00  1.5885260456741790e+00 1.7050401337080843e+00 0.0000000000000000e+00  1.5948432039490512e+00 1.7212045533474176e+00 0.0000000000000000e+00  1.6010899465542530e+00 1.7372930108065701e+00 0.0000000000000000e+00  1.6073775142899767e+00 1.7531531988299849e+00 0.0000000000000000e+00  1.6136489447630418e+00 1.7691944584687873e+00 0.0000000000000000e+00  1.6199207371605331e+00 1.7848617595762881e+00 0.0000000000000000e+00  1.6261460505630636e+00 1.8006642216518092e+00 0.0000000000000000e+00  1.6324339451090213e+00 1.8161935596368233e+00 0.0000000000000000e+00  1.6386194808426335e+00 1.8318565028710867e+00 0.0000000000000000e+00  1.6448547102095172e+00 1.8470566810851576e+00 0.0000000000000000e+00  1.6510359260083884e+00 1.8626389148399574e+00 0.0000000000000000e+00  1.6572136827623247e+00 1.8775862058268948e+00 0.0000000000000000e+00  1.6633274509263947e+00 1.8929052549463101e+00 0.0000000000000000e+00  1.6694829143837604e+00 1.9076675918868062e+00 0.0000000000000000e+00  1.6755102395710557e+00 1.9227628442728466e+00 0.0000000000000000e+00  1.6815942717419672e+00 1.9371878576729824e+00 0.0000000000000000e+00  1.6875613065212074e+00 1.9520975895486372e+00 0.0000000000000000e+00  1.6935509448455452e+00 1.9662276460654113e+00 0.0000000000000000e+00  1.6994126639793459e+00 1.9807846932449393e+00 0.0000000000000000e+00  1.7053346404024237e+00 1.9946793351561840e+00 0.0000000000000000e+00  1.7110505228636781e+00 2.0088730196630751e+00 0.0000000000000000e+00  1.7168805708744441e+00 2.0224135187619527e+00 0.0000000000000000e+00  1.7224580084699543e+00 2.0362524487957976e+00 0.0000000000000000e+00  1.7281574645935160e+00 2.0494546760149044e+00 0.0000000000000000e+00  1.7335754752747363e+00 2.0627873776229162e+00 0.0000000000000000e+00  1.7391454219135289e+00 2.0756879320830008e+00 0.0000000000000000e+00  1.7443600374270707e+00 2.0884870573926548e+00 0.0000000000000000e+00  1.7497869525136591e+00 2.1009477827067560e+00 0.0000000000000000e+00  1.7547893300971547e+00 2.1132703210982187e+00 0.0000000000000000e+00  1.7600266158064490e+00 2.1252008103535029e+00 0.0000000000000000e+00  1.7648118858376098e+00 2.1369549531507745e+00 0.0000000000000000e+00  1.7698357240179037e+00 2.1484164137221011e+00 0.0000000000000000e+00  1.7743699444198842e+00 2.1594314654698668e+00 0.0000000000000000e+00  1.7791644261258301e+00 2.1704262270436772e+00 0.0000000000000000e+00  1.7834282691012426e+00 2.1807422715558760e+00 0.0000000000000000e+00  1.7879576642470727e+00 2.1910075609565731e+00 0.0000000000000000e+00  1.7919423832168928e+00 2.2007764432663595e+00 0.0000000000000000e+00  1.7961775774029181e+00 2.2102780028499835e+00 0.0000000000000000e+00  1.7998635140869470e+00 2.2191505716818969e+00 0.0000000000000000e+00  1.8037855726505914e+00 2.2283048655759723e+00 0.0000000000000000e+00  1.8071573157910903e+00 2.2359694530313110e+00 0.0000000000000000e+00  1.8107452702770304e+00 2.2445708593904108e+00 0.0000000000000000e+00  1.8137955512258943e+00 2.2515737714901749e+00 0.0000000000000000e+00  1.8170340162465897e+00 2.2590235035067634e+00 0.0000000000000000e+00  1.8197537230634193e+00 2.2654693451962693e+00 0.0000000000000000e+00  1.8226389041416966e+00 2.2722504357530697e+00 0.0000000000000000e+00  1.8250308403837221e+00 2.2773718665295597e+00 0.0000000000000000e+00  1.8275531529318556e+00 2.2839135232636725e+00 0.0000000000000000e+00  1.8296268275028840e+00 2.2880614867191085e+00 0.0000000000000000e+00  1.8318031970011790e+00 2.2934557628354337e+00 0.0000000000000000e+00  1.8335559871977540e+00 2.2975224121088162e+00 0.0000000000000000e+00  1.8354048014748741e+00 2.3016485131018065e+00 0.0000000000000000e+00  1.8368704072361643e+00 2.3050535764765092e+00 0.0000000000000000e+00  1.8383947956128159e+00 2.3088267891147258e+00 0.0000000000000000e+00  1.8395959786752132e+00 2.3112369115032410e+00 0.0000000000000000e+00  1.8408512748578321e+00 2.3143771158694477e+00 0.0000000000000000e+00  1.8417891980957282e+00 2.3165561697306192e+00 0.0000000000000000e+00  1.8428064598395204e+00 2.3187326394895220e+00 0.0000000000000000e+00  1.8435425217841603e+00 2.3205540003564731e+00 0.0000000000000000e+00  1.8443264260576506e+00 2.3223923382099154e+00 0.0000000000000000e+00  1.8448839068664147e+00 2.3235949355812098e+00 0.0000000000000000e+00  1.8454678864554417e+00 2.3250895059151291e+00 0.0000000000000000e+00  1.8458299828663098e+00 2.3262367968466036e+00 0.0000000000000000e+00  1.8461707950513353e+00 2.3272435370873503e+00 0.0000000000000000e+00  1.8463289769971813e+00 2.3284638501893689e+00 0.0000000000000000e+00  1.8464283055612019e+00 2.3293625321608791e+00 0.0000000000000000e+00  1.8464160556580280e+00 2.3303369785903820e+00 0.0000000000000000e+00  1.8465420561103014e+00 2.3310053822681098e+00 0.0000000000000000e+00  1.8465988734533130e+00 2.3313268996680043e+00 0.0000000000000000e+00  1.8470833181108324e+00 2.3314583247508116e+00 0.0000000000000000e+00  1.8473350304219416e+00 2.3309513896995302e+00 0.0000000000000000e+00  1.8481126089299142e+00 2.3308683311594400e+00 0.0000000000000000e+00  1.8481369274828714e+00 2.3299937298256892e+00 0.0000000000000000e+00  1.8490928543875260e+00 2.3308221348595159e+00 0.0000000000000000e+00  1.8482010368019002e+00 2.3281120266719286e+00 0.0000000000000000e+00  1.8505788009125486e+00 2.3328780395898558e+00 0.0000000000000000e+00  1.8477003145910045e+00 2.3228969664184991e+00 0.0000000000000000e+00  1.8540215226313033e+00 2.3335292011077966e+00 0.0000000000000000e+00  1.8215508838079431e+00 2.3797716435341560e+00 0.0000000000000000e+00  2.0011792535378738e+00 2.0072360121635375e+00 0.0000000000000000e+00  2.5814674789050214e+00 7.0210297307948188e-01 0.0000000000000000e+00  2.9194569407984554e+00 1.0067707482320817e-01 0.0000000000000000e+00  2.9765887879412629e+00 7.0360870077163734e-03 0.0000000000000000e+00  2.9614227015244055e+00 1.3390292554509390e-02 0.0000000000000000e+00  2.9701236343692012e+00 -2.1030002326036097e-04 0.0000000000000000e+00  2.9718341434446303e+00 6.4494122226346838e-04 0.0000000000000000e+00  2.9708962111281569e+00 1.9721744776489167e-04 0.0000000000000000e+00  2.9724413393753362e+00 -3.0794861965186011e-03 0.0000000000000000e+00  2.9726740567110701e+00 -2.7745680699403671e-03 0.0000000000000000e+00  2.9716469895630504e+00 -1.0952166359208119e-03 0.0000000000000000e+00  2.9717597551883310e+00 -1.5201840902634299e-03 0.0000000000000000e+00  2.9719948138381418e+00 -1.7974021755237483e-03 0.0000000000000000e+00  2.9721089341509144e+00 -2.0914795060569540e-03 0.0000000000000000e+00  2.9720257287571359e+00 -1.8472072883040844e-03 0.0000000000000000e+00  2.9719948704421904e+00 -1.9980315670644583e-03 0.0000000000000000e+00  2.9719345635739480e+00 -1.6738025075218497e-03 0.0000000000000000e+00  2.9720146545946919e+00 -2.0798266808897065e-03 0.0000000000000000e+00  2.9719958872242209e+00 -1.8276956102091016e-03 0.0000000000000000e+00  2.9720232568304268e+00 -2.1554759043907628e-03 0.0000000000000000e+00  2.9719640448481273e+00 -1.7731964816934251e-03 0.0000000000000000e+00  2.9720228420546535e+00 -2.3124230482760850e-03 0.0000000000000000e+00  2.9719682217200765e+00 -1.8253919476027938e-03 0.0000000000000000e+00  2.9720307993406787e+00 -2.5779426061501979e-03 0.0000000000000000e+00  2.9719752281182563e+00 -2.1411118618929084e-03 0.0000000000000000e+00  2.9720393650221086e+00 -3.0925351158658616e-03 0.0000000000000000e+00  2.9719798173758787e+00 -2.7801440411902409e-03 0.0000000000000000e+00  2.9720436577437566e+00 -4.0530510545878874e-03 0.0000000000000000e+00  2.9720027933509643e+00 -3.8967885582532054e-03 0.0000000000000000e+00  2.9720514812775409e+00 -5.3118750227827208e-03 0.0000000000000000e+00  2.9720155199816642e+00 -5.3523183355133654e-03 0.0000000000000000e+00  2.9720691381465314e+00 -6.6225465457255940e-03 0.0000000000000000e+00  2.9720298090227586e+00 -6.5747826859742882e-03 0.0000000000000000e+00  2.9720834566704761e+00 -7.7374692901947626e-03 0.0000000000000000e+00  2.9720456756339599e+00 -7.4184387533403721e-03 0.0000000000000000e+00  2.9720998156629288e+00 -8.2800228367786530e-03 0.0000000000000000e+00  2.9720552817963961e+00 -8.0488556335707329e-03 0.0000000000000000e+00  2.9721167061292175e+00 -8.4890347265961213e-03 0.0000000000000000e+00  2.9720619250752001e+00 -8.3071064959875113e-03 0.0000000000000000e+00  2.9721332546574257e+00 -8.6694968430217640e-03 0.0000000000000000e+00  2.9720641235926508e+00 -8.3960149905609703e-03 0.0000000000000000e+00  2.9721469286016053e+00 -8.6915342892638324e-03 0.0000000000000000e+00  2.9720703698670468e+00 -8.5443256548383799e-03 0.0000000000000000e+00  2.9721535365567604e+00 -8.6456608596921589e-03 0.0000000000000000e+00  2.9720778909897407e+00 -8.5735786072634098e-03 0.0000000000000000e+00  2.9721626606025731e+00 -8.8244999909435733e-03 0.0000000000000000e+00  2.9720832891581894e+00 -8.4092997635577035e-03 0.0000000000000000e+00  2.9721668268478698e+00 -9.0180248691703602e-03 0.0000000000000000e+00  2.9720995129570524e+00 -8.5948789545902491e-03 0.0000000000000000e+00  2.9721595034848014e+00 -8.6974747328093117e-03 0.0000000000000000e+00  2.9721170664192211e+00 -8.8995058919146379e-03 0.0000000000000000e+00  2.9721550286694569e+00 -8.8135285049951006e-03 0.0000000000000000e+00  2.9721280149456435e+00 -8.5909609248725882e-03 0.0000000000000000e+00  2.9721434394208672e+00 -9.8055931173892264e-03 0.0000000000000000e+00  2.9721460330739937e+00 -8.3644288630987992e-03 0.0000000000000000e+00  2.9721202696711675e+00 -9.7625781838893890e-03 0.0000000000000000e+00  2.9721596010935536e+00 -9.6504392750469889e-03 0.0000000000000000e+00  2.9721012795065902e+00 -8.8134131297923184e-03 0.0000000000000000e+00  2.9721609775597333e+00 -1.4722887853951948e-02 0.0000000000000000e+00  2.9720737046066841e+00 -1.0167442611129927e-02 0.0000000000000000e+00  2.9721769324376508e+00 0.0000000000000000e+00 0.0000000000000000e+00  1.4594631264513525e+00 0.0000000000000000e+00 8.8727227535403041e-04  1.4596127464820985e+00 3.4334800562436464e-02 -9.9595639133933631e-06  1.4594970806036671e+00 6.7701373368164744e-02 -5.2981594955479937e-04  1.4595342133339577e+00 1.0220134775792782e-01 3.7067115272875471e-04  1.4595224618092659e+00 1.3627297836483226e-01 -3.1997797215247787e-04  1.4595398311807175e+00 1.7040705910809970e-01 2.9338766434716337e-04  1.4595031222243062e+00 2.0442031511496669e-01 -2.7824793320349540e-04  1.4595465674001720e+00 2.3877228999055314e-01 2.8546541280694888e-04  1.4595355527079017e+00 2.7258617517882550e-01 -2.7953604598960079e-04  1.4595226913211410e+00 3.0691408512028878e-01 2.7356190645343327e-04  1.4595587034703557e+00 3.4077676712450544e-01 -2.5351420987332698e-04  1.4595525387133166e+00 3.7501294545076042e-01 2.2950969034620905e-04  1.4595460160250462e+00 4.0876756275432929e-01 -1.9663130520136069e-04  1.4595842691186756e+00 4.4303261087274859e-01 1.5722594457578303e-04  1.4595863849840480e+00 4.7673728503927076e-01 -1.1587589028050803e-04  1.4595891317031613e+00 5.1076357765233704e-01 7.8942101002832594e-05  1.4596412642756105e+00 5.4462255812516680e-01 -5.3124853728258858e-05  1.4596577372599444e+00 5.7843354820749482e-01 3.3740878032200710e-05  1.4596814698512552e+00 6.1214238209429639e-01 -1.9992515654565865e-05  1.4597637516773410e+00 6.4599894283363446e-01 7.5824723493476183e-06  1.4597998991731242e+00 6.7953800612240667e-01 1.4212742064110417e-06  1.4598773787537767e+00 7.1313557172986608e-01 -1.1550548172815880e-05  1.4599863106598765e+00 7.4673994816130951e-01 1.8691409468561276e-05  1.4600926542456185e+00 7.8008337707199671e-01 -2.1781403320444022e-05  1.4602162546199102e+00 8.1341825091449393e-01 1.8244654261370999e-05  1.4604177152674058e+00 8.4672287826706361e-01 -1.5700459285493401e-05  1.4605892008936607e+00 8.7975731712982697e-01 1.4377978358422544e-05  1.4608415672891941e+00 9.1272533837964520e-01 -1.4418287342471633e-05  1.4611370207810845e+00 9.4560508531450993e-01 1.2239300177579453e-05  1.4614784966364629e+00 9.7816805577187371e-01 -1.0866977376962216e-05  1.4618757545342096e+00 1.0105893615974477e+00 9.0775722194336422e-06  1.4623959260947943e+00 1.0428337622821553e+00 -8.7808717853594398e-06  1.4629514966825143e+00 1.0746669694705693e+00 9.7356908760517657e-06  1.4636609606452702e+00 1.1062441066414683e+00 -1.3912095833523586e-05  1.4644886565619857e+00 1.1374748801371017e+00 1.7903394495296413e-05  1.4654809843887640e+00 1.1681617266140647e+00 -2.2622721297777943e-05  1.4666396833086635e+00 1.1983638234657652e+00 2.7102852787756707e-05  1.4680709217062287e+00 1.2279837973468557e+00 -3.3762748801441913e-05  1.4697100192159525e+00 1.2568152127301588e+00 4.1066362452512315e-05  1.4717016378814507e+00 1.2848042934468518e+00 -4.9648041023582544e-05  1.4740230118801652e+00 1.3119356215061400e+00 5.7972731011662789e-05  1.4767710458475392e+00 1.3378572699078586e+00 -6.3902318212471956e-05  1.4799166165107196e+00 1.3627048592544790e+00 7.0040260010846092e-05  1.4835926083974880e+00 1.3862693460827298e+00 -7.2833294987288216e-05  1.4876823525196810e+00 1.4086320644926478e+00 7.9429497335601942e-05  1.4922795918106926e+00 1.4296554603560745e+00 -8.1684853781368235e-05  1.4972653190820520e+00 1.4497830205331608e+00 8.6605044637363753e-05  1.5026463500634850e+00 1.4687602998058493e+00 -8.7163338368393274e-05  1.5082532758977034e+00 1.4871476134633745e+00 8.7191710404573396e-05  1.5141451042344127e+00 1.5048742369825390e+00 -8.6618301444635031e-05  1.5201098840744951e+00 1.5223478556986207e+00 8.3357600364352289e-05  1.5262144373345672e+00 1.5393512891606393e+00 -8.0770579450359603e-05  1.5323492969321926e+00 1.5564553066092164e+00 7.5553230850114699e-05  1.5385536714257715e+00 1.5731938345670564e+00 -6.9108199108355118e-05  1.5447239648324396e+00 1.5899916642376855e+00 6.1123430681835970e-05  1.5509907772254075e+00 1.6066266349480953e+00 -5.1219437729400658e-05  1.5571997128716022e+00 1.6232883727125964e+00 4.1198300059451069e-05  1.5634592103379135e+00 1.6396930401507464e+00 -2.9332059663008830e-05  1.5697181523181125e+00 1.6562569715834257e+00 1.8447180498043681e-05  1.5759939265789800e+00 1.6725662161645529e+00 -5.2761743664850618e-06  1.5822389533648036e+00 1.6888506893062607e+00 -6.3594003848916972e-06  1.5885512053389992e+00 1.7051058833340740e+00 2.0786517252822009e-05  1.5948068137267832e+00 1.7212351367381169e+00 -3.1576072790240981e-05  1.6010858553029643e+00 1.7372476999066770e+00 4.5307077505549733e-05  1.6073780986354582e+00 1.7532663273938425e+00 -5.4213884653346357e-05  1.6136412230404831e+00 1.7691598294961401e+00 6.6339484887571870e-05  1.6198973683804991e+00 1.7848745747244001e+00 -7.3259891702290428e-05  1.6261758816517438e+00 1.8007008651032343e+00 8.2605833409445133e-05  1.6324042395201279e+00 1.8162235201678598e+00 -8.6438529670346931e-05  1.6386285434030778e+00 1.8317830879474262e+00 9.1578697987171028e-05  1.6448616814770327e+00 1.8471801086364907e+00 -9.2172711482178644e-05  1.6510317439619526e+00 1.8625530576567653e+00 9.3285964552488145e-05  1.6572027320296889e+00 1.8776459892167912e+00 -9.1089198969075260e-05  1.6633547119667602e+00 1.8928862123884465e+00 8.9117261025041094e-05  1.6694504299378152e+00 1.9077401336522322e+00 -8.5631495339059707e-05  1.6755298470147910e+00 1.9226685778485018e+00 8.2653355690869793e-05  1.6815808422336935e+00 1.9373433847144996e+00 -7.8620173932505310e-05  1.6875657474353127e+00 1.9519933915236578e+00 7.5175724151744182e-05  1.6935264768811016e+00 1.9663322200913438e+00 -7.1550919867210822e-05  1.6994415490515806e+00 1.9807507799772641e+00 7.1385876859005160e-05  1.7052812700144417e+00 1.9947643070364953e+00 -7.4030212613494716e-05  1.7110904685607029e+00 2.0088172892603935e+00 8.1930722312