<?xml version="1.0"?>
<VTKFile type="UnstructuredGrid"  version="0.1"  >
<UnstructuredGrid>
<Piece  NumberOfPoints="8241" NumberOfCells="16000">
<Points>
<DataArray  type="Float64"  NumberOfComponents="3"  format="ascii">-5 -1 0  -4.95 -1 0  -4.9 -1 0  -4.85 -1 0  -4.8 -1 0  -4.75 -1 0  -4.7 -1 0  -4.65 -1 0  -4.6 -1 0  -4.55 -1 0  -4.5 -1 0  -4.45 -1 0  -4.4 -1 0  -4.35 -1 0  -4.3 -1 0  -4.25 -1 0  -4.2 -1 0  -4.15 -1 0  -4.1 -1 0  -4.05 -1 0  -4 -1 0  -3.95 -1 0  -3.9 -1 0  -3.85 -1 0  -3.8 -1 0  -3.75 -1 0  -3.7 -1 0  -3.65 -1 0  -3.6 -1 0  -3.55 -1 0  -3.5 -1 0  -3.45 -1 0  -3.4 -1 0  -3.35 -1 0  -3.3 -1 0  -3.25 -1 0  -3.2 -1 0  -3.15 -1 0  -3.1 -1 0  -3.05 -1 0  -3 -1 0  -2.95 -1 0  -2.9 -1 0  -2.85 -1 0  -2.8 -1 0  -2.75 -1 0  -2.7 -1 0  -2.65 -1 0  -2.6 -1 0  -2.55 -1 0  -2.5 -1 0  -2.45 -1 0  -2.4 -1 0  -2.35 -1 0  -2.3 -1 0  -2.25 -1 0  -2.2 -1 0  -2.15 -1 0  -2.1 -1 0  -2.05 -1 0  -2 -1 0  -1.95 -1 0  -1.9 -1 0  -1.85 -1 0  -1.8 -1 0  -1.75 -1 0  -1.7 -1 0  -1.65 -1 0  -1.6 -1 0  -1.55 -1 0  -1.5 -1 0  -1.45 -1 0  -1.4 -1 0  -1.35 -1 0  -1.3 -1 0  -1.25 -1 0  -1.2 -1 0  -1.15 -1 0  -1.1 -1 0  -1.05 -1 0  -1 -1 0  -0.9500000000000002 -1 0  -0.9000000000000004 -1 0  -0.8499999999999996 -1 0  -0.7999999999999998 -1 0  -0.75 -1 0  -0.7000000000000002 -1 0  -0.6500000000000004 -1 0  -0.5999999999999996 -1 0  -0.5499999999999998 -1 0  -0.5 -1 0  -0.4500000000000002 -1 0  -0.4000000000000004 -1 0  -0.3499999999999996 -1 0  -0.2999999999999998 -1 0  -0.25 -1 0  -0.2000000000000002 -1 0  -0.1500000000000004 -1 0  -0.09999999999999964 -1 0  -0.04999999999999982 -1 0  0 -1 0  0.04999999999999982 -1 0  0.09999999999999964 -1 0  0.1500000000000004 -1 0  0.2000000000000002 -1 0  0.25 -1 0  0.2999999999999998 -1 0  0.3499999999999996 -1 0  0.4000000000000004 -1 0  0.4500000000000002 -1 0  0.5 -1 0  0.5499999999999998 -1 0  0.5999999999999996 -1 0  0.6500000000000004 -1 0  0.7000000000000002 -1 0  0.75 -1 0  0.7999999999999998 -1 0  0.8499999999999996 -1 0  0.9000000000000004 -1 0  0.9500000000000002 -1 0  1 -1 0  1.05 -1 0  1.1 -1 0  1.15 -1 0  1.2 -1 0  1.25 -1 0  1.3 -1 0  1.35 -1 0  1.4 -1 0  1.45 -1 0  1.5 -1 0  1.55 -1 0  1.6 -1 0  1.65 -1 0  1.7 -1 0  1.75 -1 0  1.8 -1 0  1.85 -1 0  1.9 -1 0  1.95 -1 0  2 -1 0  2.05 -1 0  2.1 -1 0  2.15 -1 0  2.2 -1 0  2.25 -1 0  2.3 -1 0  2.35 -1 0  2.4 -1 0  2.45 -1 0  2.5 -1 0  2.55 -1 0  2.6 -1 0  2.65 -1 0  2.7 -1 0  2.75 -1 0  2.8 -1 0  2.85 -1 0  2.9 -1 0  2.95 -1 0  3 -1 0  3.050000000000001 -1 0  3.1 -1 0  3.15 -1 0  3.199999999999999 -1 0  3.25 -1 0  3.300000000000001 -1 0  3.35 -1 0  3.4 -1 0  3.449999999999999 -1 0  3.5 -1 0  3.550000000000001 -1 0  3.6 -1 0  3.65 -1 0  3.699999999999999 -1 0  3.75 -1 0  3.800000000000001 -1 0  3.85 -1 0  3.9 -1 0  3.949999999999999 -1 0  4 -1 0  4.050000000000001 -1 0  4.1 -1 0  4.15 -1 0  4.199999999999999 -1 0  4.25 -1 0  4.300000000000001 -1 0  4.35 -1 0  4.4 -1 0  4.449999999999999 -1 0  4.5 -1 0  4.550000000000001 -1 0  4.6 -1 0  4.65 -1 0  4.699999999999999 -1 0  4.75 -1 0  4.800000000000001 -1 0  4.85 -1 0  4.9 -1 0  4.949999999999999 -1 0  5 -1 0  -5 -0.95 0  -4.95 -0.95 0  -4.9 -0.95 0  -4.85 -0.95 0  -4.8 -0.95 0  -4.75 -0.95 0  -4.7 -0.95 0  -4.65 -0.95 0  -4.6 -0.95 0  -4.55 -0.95 0  -4.5 -0.95 0  -4.45 -0.95 0  -4.4 -0.95 0  -4.35 -0.95 0  -4.3 -0.95 0  -4.25 -0.95 0  -4.2 -0.95 0  -4.15 -0.95 0  -4.1 -0.95 0  -4.05 -0.95 0  -4 -0.95 0  -3.95 -0.95 0  -3.9 -0.95 0  -3.85 -0.95 0  -3.8 -0.95 0  -3.75 -0.95 0  -3.7 -0.95 0  -3.65 -0.95 0  -3.6 -0.95 0  -3.55 -0.95 0  -3.5 -0.95 0  -3.45 -0.95 0  -3.4 -0.95 0  -3.35 -0.95 0  -3.3 -0.95 0  -3.25 -0.95 0  -3.2 -0.95 0  -3.15 -0.95 0  -3.1 -0.95 0  -3.05 -0.95 0  -3 -0.95 0  -2.95 -0.95 0  -2.9 -0.95 0  -2.85 -0.95 0  -2.8 -0.95 0  -2.75 -0.95 0  -2.7 -0.95 0  -2.65 -0.95 0  -2.6 -0.95 0  -2.55 -0.95 0  -2.5 -0.95 0  -2.45 -0.95 0  -2.4 -0.95 0  -2.35 -0.95 0  -2.3 -0.95 0  -2.25 -0.95 0  -2.2 -0.95 0  -2.15 -0.95 0  -2.1 -0.95 0  -2.05 -0.95 0  -2 -0.95 0  -1.95 -0.95 0  -1.9 -0.95 0  -1.85 -0.95 0  -1.8 -0.95 0  -1.75 -0.95 0  -1.7 -0.95 0  -1.65 -0.95 0  -1.6 -0.95 0  -1.55 -0.95 0  -1.5 -0.95 0  -1.45 -0.95 0  -1.4 -0.95 0  -1.35 -0.95 0  -1.3 -0.95 0  -1.25 -0.95 0  -1.2 -0.95 0  -1.15 -0.95 0  -1.1 -0.95 0  -1.05 -0.95 0  -1 -0.95 0  -0.9500000000000002 -0.95 0  -0.9000000000000004 -0.95 0  -0.8499999999999996 -0.95 0  -0.7999999999999998 -0.95 0  -0.75 -0.95 0  -0.7000000000000002 -0.95 0  -0.6500000000000004 -0.95 0  -0.5999999999999996 -0.95 0  -0.5499999999999998 -0.95 0  -0.5 -0.95 0  -0.4500000000000002 -0.95 0  -0.4000000000000004 -0.95 0  -0.3499999999999996 -0.95 0  -0.2999999999999998 -0.95 0  -0.25 -0.95 0  -0.2000000000000002 -0.95 0  -0.1500000000000004 -0.95 0  -0.09999999999999964 -0.95 0  -0.04999999999999982 -0.95 0  0 -0.95 0  0.04999999999999982 -0.95 0  0.09999999999999964 -0.95 0  0.1500000000000004 -0.95 0  0.2000000000000002 -0.95 0  0.25 -0.95 0  0.2999999999999998 -0.95 0  0.3499999999999996 -0.95 0  0.4000000000000004 -0.95 0  0.4500000000000002 -0.95 0  0.5 -0.95 0  0.5499999999999998 -0.95 0  0.5999999999999996 -0.95 0  0.6500000000000004 -0.95 0  0.7000000000000002 -0.95 0  0.75 -0.95 0  0.7999999999999998 -0.95 0  0.8499999999999996 -0.95 0  0.9000000000000004 -0.95 0  0.9500000000000002 -0.95 0  1 -0.95 0  1.05 -0.95 0  1.1 -0.95 0  1.15 -0.95 0  1.2 -0.95 0  1.25 -0.95 0  1.3 -0.95 0  1.35 -0.95 0  1.4 -0.95 0  1.45 -0.95 0  1.5 -0.95 0  1.55 -0.95 0  1.6 -0.95 0  1.65 -0.95 0  1.7 -0.95 0  1.75 -0.95 0  1.8 -0.95 0  1.85 -0.95 0  1.9 -0.95 0  1.95 -0.95 0  2 -0.95 0  2.05 -0.95 0  2.1 -0.95 0  2.15 -0.95 0  2.2 -0.95 0  2.25 -0.95 0  2.3 -0.95 0  2.35 -0.95 0  2.4 -0.95 0  2.45 -0.95 0  2.5 -0.95 0  2.55 -0.95 0  2.6 -0.95 0  2.65 -0.95 0  2.7 -0.95 0  2.75 -0.95 0  2.8 -0.95 0  2.85 -0.95 0  2.9 -0.95 0  2.95 -0.95 0  3 -0.95 0  3.050000000000001 -0.95 0  3.1 -0.95 0  3.15 -0.95 0  3.199999999999999 -0.95 0  3.25 -0.95 0  3.300000000000001 -0.95 0  3.35 -0.95 0  3.4 -0.95 0  3.449999999999999 -0.95 0  3.5 -0.95 0  3.550000000000001 -0.95 0  3.6 -0.95 0  3.65 -0.95 0  3.699999999999999 -0.95 0  3.75 -0.95 0  3.800000000000001 -0.95 0  3.85 -0.95 0  3.9 -0.95 0  3.949999999999999 -0.95 0  4 -0.95 0  4.050000000000001 -0.95 0  4.1 -0.95 0  4.15 -0.95 0  4.199999999999999 -0.95 0  4.25 -0.95 0  4.300000000000001 -0.95 0  4.35 -0.95 0  4.4 -0.95 0  4.449999999999999 -0.95 0  4.5 -0.95 0  4.550000000000001 -0.95 0  4.6 -0.95 0  4.65 -0.95 0  4.699999999999999 -0.95 0  4.75 -0.95 0  4.800000000000001 -0.95 0  4.85 -0.95 0  4.9 -0.95 0  4.949999999999999 -0.95 0  5 -0.95 0  -5 -0.9 0  -4.95 -0.9 0  -4.9 -0.9 0  -4.85 -0.9 0  -4.8 -0.9 0  -4.75 -0.9 0  -4.7 -0.9 0  -4.65 -0.9 0  -4.6 -0.9 0  -4.55 -0.9 0  -4.5 -0.9 0  -4.45 -0.9 0  -4.4 -0.9 0  -4.35 -0.9 0  -4.3 -0.9 0  -4.25 -0.9 0  -4.2 -0.9 0  -4.15 -0.9 0  -4.1 -0.9 0  -4.05 -0.9 0  -4 -0.9 0  -3.95 -0.9 0  -3.9 -0.9 0  -3.85 -0.9 0  -3.8 -0.9 0  -3.75 -0.9 0  -3.7 -0.9 0  -3.65 -0.9 0  -3.6 -0.9 0  -3.55 -0.9 0  -3.5 -0.9 0  -3.45 -0.9 0  -3.4 -0.9 0  -3.35 -0.9 0  -3.3 -0.9 0  -3.25 -0.9 0  -3.2 -0.9 0  -3.15 -0.9 0  -3.1 -0.9 0  -3.05 -0.9 0  -3 -0.9 0  -2.95 -0.9 0  -2.9 -0.9 0  -2.85 -0.9 0  -2.8 -0.9 0  -2.75 -0.9 0  -2.7 -0.9 0  -2.65 -0.9 0  -2.6 -0.9 0  -2.55 -0.9 0  -2.5 -0.9 0  -2.45 -0.9 0  -2.4 -0.9 0  -2.35 -0.9 0  -2.3 -0.9 0  -2.25 -0.9 0  -2.2 -0.9 0  -2.15 -0.9 0  -2.1 -0.9 0  -2.05 -0.9 0  -2 -0.9 0  -1.95 -0.9 0  -1.9 -0.9 0  -1.85 -0.9 0  -1.8 -0.9 0  -1.75 -0.9 0  -1.7 -0.9 0  -1.65 -0.9 0  -1.6 -0.9 0  -1.55 -0.9 0  -1.5 -0.9 0  -1.45 -0.9 0  -1.4 -0.9 0  -1.35 -0.9 0  -1.3 -0.9 0  -1.25 -0.9 0  -1.2 -0.9 0  -1.15 -0.9 0  -1.1 -0.9 0  -1.05 -0.9 0  -1 -0.9 0  -0.9500000000000002 -0.9 0  -0.9000000000000004 -0.9 0  -0.8499999999999996 -0.9 0  -0.7999999999999998 -0.9 0  -0.75 -0.9 0  -0.7000000000000002 -0.9 0  -0.6500000000000004 -0.9 0  -0.5999999999999996 -0.9 0  -0.5499999999999998 -0.9 0  -0.5 -0.9 0  -0.4500000000000002 -0.9 0  -0.4000000000000004 -0.9 0  -0.3499999999999996 -0.9 0  -0.2999999999999998 -0.9 0  -0.25 -0.9 0  -0.2000000000000002 -0.9 0  -0.1500000000000004 -0.9 0  -0.09999999999999964 -0.9 0  -0.04999999999999982 -0.9 0  0 -0.9 0  0.04999999999999982 -0.9 0  0.09999999999999964 -0.9 0  0.1500000000000004 -0.9 0  0.2000000000000002 -0.9 0  0.25 -0.9 0  0.2999999999999998 -0.9 0  0.3499999999999996 -0.9 0  0.4000000000000004 -0.9 0  0.4500000000000002 -0.9 0  0.5 -0.9 0  0.5499999999999998 -0.9 0  0.5999999999999996 -0.9 0  0.6500000000000004 -0.9 0  0.7000000000000002 -0.9 0  0.75 -0.9 0  0.7999999999999998 -0.9 0  0.8499999999999996 -0.9 0  0.9000000000000004 -0.9 0  0.9500000000000002 -0.9 0  1 -0.9 0  1.05 -0.9 0  1.1 -0.9 0  1.15 -0.9 0  1.2 -0.9 0  1.25 -0.9 0  1.3 -0.9 0  1.35 -0.9 0  1.4 -0.9 0  1.45 -0.9 0  1.5 -0.9 0  1.55 -0.9 0  1.6 -0.9 0  1.65 -0.9 0  1.7 -0.9 0  1.75 -0.9 0  1.8 -0.9 0  1.85 -0.9 0  1.9 -0.9 0  1.95 -0.9 0  2 -0.9 0  2.05 -0.9 0  2.1 -0.9 0  2.15 -0.9 0  2.2 -0.9 0  2.25 -0.9 0  2.3 -0.9 0  2.35 -0.9 0  2.4 -0.9 0  2.45 -0.9 0  2.5 -0.9 0  2.55 -0.9 0  2.6 -0.9 0  2.65 -0.9 0  2.7 -0.9 0  2.75 -0.9 0  2.8 -0.9 0  2.85 -0.9 0  2.9 -0.9 0  2.95 -0.9 0  3 -0.9 0  3.050000000000001 -0.9 0  3.1 -0.9 0  3.15 -0.9 0  3.199999999999999 -0.9 0  3.25 -0.9 0  3.300000000000001 -0.9 0  3.35 -0.9 0  3.4 -0.9 0  3.449999999999999 -0.9 0  3.5 -0.9 0  3.550000000000001 -0.9 0  3.6 -0.9 0  3.65 -0.9 0  3.699999999999999 -0.9 0  3.75 -0.9 0  3.800000000000001 -0.9 0  3.85 -0.9 0  3.9 -0.9 0  3.949999999999999 -0.9 0  4 -0.9 0  4.050000000000001 -0.9 0  4.1 -0.9 0  4.15 -0.9 0  4.199999999999999 -0.9 0  4.25 -0.9 0  4.300000000000001 -0.9 0  4.35 -0.9 0  4.4 -0.9 0  4.449999999999999 -0.9 0  4.5 -0.9 0  4.550000000000001 -0.9 0  4.6 -0.9 0  4.65 -0.9 0  4.699999999999999 -0.9 0  4.75 -0.9 0  4.800000000000001 -0.9 0  4.85 -0.9 0  4.9 -0.9 0  4.949999999999999 -0.9 0  5 -0.9 0  -5 -0.85 0  -4.95 -0.85 0  -4.9 -0.85 0  -4.85 -0.85 0  -4.8 -0.85 0  -4.75 -0.85 0  -4.7 -0.85 0  -4.65 -0.85 0  -4.6 -0.85 0  -4.55 -0.85 0  -4.5 -0.85 0  -
[...]
<PointData  Vectors="f_15"> 
<DataArray  type="Float64"  Name="f_15"  NumberOfComponents="3" format="ascii">1.5611879044581571e+00 0.0000000000000000e+00 0.0000000000000000e+00  1.5386897294297019e+00 3.2855455407722632e-02 0.0000000000000000e+00  1.5601322000589679e+00 8.6135650996614965e-02 0.0000000000000000e+00  1.5383465520084463e+00 1.2523056791606943e-01 0.0000000000000000e+00  1.5608139449669520e+00 1.6047944567691586e-01 0.0000000000000000e+00  1.5374748073856281e+00 2.0376868255848610e-01 0.0000000000000000e+00  1.5605755585200214e+00 2.4045890397501354e-01 0.0000000000000000e+00  1.5376177598267757e+00 2.8269169308581116e-01 0.0000000000000000e+00  1.5602732836178399e+00 3.1457580114469957e-01 0.0000000000000000e+00  1.5365977782617413e+00 3.6490319885887240e-01 0.0000000000000000e+00  1.5608929985513962e+00 3.8860046358595113e-01 0.0000000000000000e+00  1.5355333539104781e+00 4.4764451461572552e-01 0.0000000000000000e+00  1.5602826446894653e+00 4.5778003802982431e-01 0.0000000000000000e+00  1.5352890776985815e+00 5.2801589852525166e-01 0.0000000000000000e+00  1.5597231351574805e+00 5.4607348788335419e-01 0.0000000000000000e+00  1.5338082438932916e+00 5.8077079616151683e-01 0.0000000000000000e+00  1.5596899628718537e+00 6.4163867219049664e-01 0.0000000000000000e+00  1.5328275578406800e+00 6.6043367750913928e-01 0.0000000000000000e+00  1.5578995007529575e+00 7.0036874960147000e-01 0.0000000000000000e+00  1.5327039145623624e+00 7.4576730974877714e-01 0.0000000000000000e+00  1.5566468108215443e+00 7.8372215867076134e-01 0.0000000000000000e+00  1.5310930759860046e+00 8.1178127478402640e-01 0.0000000000000000e+00  1.5557935276829737e+00 8.5826035163087000e-01 0.0000000000000000e+00  1.5305764820773413e+00 8.9576005271785852e-01 0.0000000000000000e+00  1.5533489452108178e+00 9.2979087471081168e-01 0.0000000000000000e+00  1.5304217945598295e+00 9.7298808573053019e-01 0.0000000000000000e+00  1.5519849387144335e+00 1.0025489737281115e+00 0.0000000000000000e+00  1.5289889674692616e+00 1.0505328881228415e+00 0.0000000000000000e+00  1.5509372908418477e+00 1.0808691600667755e+00 0.0000000000000000e+00  1.5286593607014571e+00 1.1246659024520522e+00 0.0000000000000000e+00  1.5486235879558083e+00 1.1519140708108133e+00 0.0000000000000000e+00  1.5288882363448366e+00 1.2053017175300327e+00 0.0000000000000000e+00  1.5475261132944238e+00 1.2264810604750527e+00 0.0000000000000000e+00  1.5277806091843176e+00 1.2756845851078966e+00 0.0000000000000000e+00  1.5473871383758353e+00 1.3037466491026060e+00 0.0000000000000000e+00  1.5280675460324331e+00 1.3474050451950077e+00 0.0000000000000000e+00  1.5460522828050574e+00 1.3746535235878869e+00 0.0000000000000000e+00  1.5299249028396422e+00 1.4203677711004785e+00 0.0000000000000000e+00  1.5464575678067423e+00 1.4453759832153110e+00 0.0000000000000000e+00  1.5311190592981800e+00 1.4833219516909342e+00 0.0000000000000000e+00  1.5494285981339420e+00 1.5150976379540100e+00 0.0000000000000000e+00  1.5349713388448838e+00 1.5457788442490734e+00 0.0000000000000000e+00  1.5528598150052535e+00 1.5721814547500939e+00 0.0000000000000000e+00  1.5429682210867857e+00 1.6023450694658341e+00 0.0000000000000000e+00  1.5600712663225902e+00 1.6237654936089374e+00 0.0000000000000000e+00  1.5528382328181054e+00 1.6447011769038642e+00 0.0000000000000000e+00  1.5718002539346727e+00 1.6688459489539942e+00 0.0000000000000000e+00  1.5663748566138778e+00 1.6832848377023839e+00 0.0000000000000000e+00  1.5841432683997558e+00 1.7003843218622461e+00 0.0000000000000000e+00  1.5824848023838429e+00 1.7206543898612190e+00 0.0000000000000000e+00  1.5979503504273462e+00 1.7335258356575587e+00 0.0000000000000000e+00  1.5971379716740326e+00 1.7510163971729074e+00 0.0000000000000000e+00  1.6126863134363900e+00 1.7685933514699475e+00 0.0000000000000000e+00  1.6123688695192306e+00 1.7846919412433502e+00 0.0000000000000000e+00  1.6255018389447005e+00 1.7971846169795862e+00 0.0000000000000000e+00  1.6280831747767726e+00 1.8213487473371808e+00 0.0000000000000000e+00  1.6391706996149051e+00 1.8296058266829929e+00 0.0000000000000000e+00  1.6415177617715724e+00 1.8510923783474837e+00 0.0000000000000000e+00  1.6536876595716741e+00 1.8640940466033928e+00 0.0000000000000000e+00  1.6555709147580826e+00 1.8842967511292332e+00 0.0000000000000000e+00  1.6662852838724493e+00 1.8920511434584244e+00 0.0000000000000000e+00  1.6700724437942724e+00 1.9189091868289601e+00 0.0000000000000000e+00  1.6798347397010684e+00 1.9240184757182026e+00 0.0000000000000000e+00  1.6823856883693669e+00 1.9456959910992875e+00 0.0000000000000000e+00  1.6940456132981325e+00 1.9576749574481882e+00 0.0000000000000000e+00  1.6954105527317234e+00 1.9763395043044725e+00 0.0000000000000000e+00  1.7063001341173960e+00 1.9841749653966467e+00 0.0000000000000000e+00  1.7086012413642833e+00 2.0078038108244138e+00 0.0000000000000000e+00  1.7194574830324099e+00 2.0158906213915455e+00 0.0000000000000000e+00  1.7195976672417244e+00 2.0312825235043808e+00 0.0000000000000000e+00  1.7327727908511426e+00 2.0492594779649669e+00 0.0000000000000000e+00  1.7315467272299179e+00 2.0592375220001546e+00 0.0000000000000000e+00  1.7439020287431617e+00 2.0746994407373034e+00 0.0000000000000000e+00  1.7434560784315905e+00 2.0887159633847121e+00 0.0000000000000000e+00  1.7558702397682997e+00 2.1038111121689322e+00 0.0000000000000000e+00  1.7532977824529488e+00 2.1114786950061988e+00 0.0000000000000000e+00  1.7673884534463669e+00 2.1319510473043155e+00 0.0000000000000000e+00  1.7642738407137741e+00 2.1395083284140521e+00 0.0000000000000000e+00  1.7766087616566111e+00 2.1512123373691567e+00 0.0000000000000000e+00  1.7746584807520764e+00 2.1677170929141267e+00 0.0000000000000000e+00  1.7869057635750252e+00 2.1743081616820796e+00 0.0000000000000000e+00  1.7827987417193232e+00 2.1875282562029219e+00 0.0000000000000000e+00  1.7962557620576973e+00 2.1971239247169505e+00 0.0000000000000000e+00  1.7922789497692830e+00 2.2099252031428436e+00 0.0000000000000000e+00  1.8030334953561151e+00 2.2134493672970055e+00 0.0000000000000000e+00  1.8008425681156208e+00 2.2293362255944240e+00 0.0000000000000000e+00  1.8108999086321631e+00 2.2348807344785033e+00 0.0000000000000000e+00  1.8072280292511729e+00 2.2395175423423446e+00 0.0000000000000000e+00  1.8173414210296666e+00 2.2556422296840766e+00 0.0000000000000000e+00  1.8148690281729549e+00 2.2530374723379722e+00 0.0000000000000000e+00  1.8215979226153305e+00 2.2684597447249772e+00 0.0000000000000000e+00  1.8210679061326163e+00 2.2654303982009556e+00 0.0000000000000000e+00  1.8269472069628645e+00 2.2839832717291082e+00 0.0000000000000000e+00  1.8254924478111618e+00 2.2716322295361491e+00 0.0000000000000000e+00  1.8305547682065870e+00 2.2958344661319572e+00 0.0000000000000000e+00  1.8309516153245771e+00 2.2842478040466321e+00 0.0000000000000000e+00  1.8329048314250334e+00 2.2977389730901936e+00 0.0000000000000000e+00  1.8342719048049416e+00 2.2968545054966527e+00 0.0000000000000000e+00  1.8367627473512076e+00 2.3032978993986886e+00 0.0000000000000000e+00  1.8359968597968706e+00 2.3018282496789597e+00 0.0000000000000000e+00  1.8390227619155155e+00 2.3085949636457257e+00 0.0000000000000000e+00  1.8388665764615679e+00 2.3091948179279935e+00 0.0000000000000000e+00  1.8404088055031900e+00 2.3095376511504035e+00 0.0000000000000000e+00  1.8396074007226084e+00 2.3127793201061948e+00 0.0000000000000000e+00  1.8435682831968370e+00 2.3174200260356916e+00 0.0000000000000000e+00  1.8392295737075999e+00 2.3085454168164068e+00 0.0000000000000000e+00  1.8450713550342022e+00 2.3245728865792668e+00 0.0000000000000000e+00  1.8405290739331450e+00 2.3101993389080282e+00 0.0000000000000000e+00  1.8456354414350653e+00 2.3240308490026549e+00 0.0000000000000000e+00  1.8402331771323148e+00 2.3131496778799390e+00 0.0000000000000000e+00  1.8479709050926489e+00 2.3273583144317596e+00 0.0000000000000000e+00  1.8394072522454301e+00 2.3099162174428618e+00 0.0000000000000000e+00  1.8483665463117793e+00 2.3316293319695554e+00 0.0000000000000000e+00  1.8407531941402413e+00 2.3124017559518313e+00 0.0000000000000000e+00  1.8480255318580816e+00 2.3255420736360608e+00 0.0000000000000000e+00  1.8406837700015941e+00 2.3229985244146261e+00 0.0000000000000000e+00  1.8493552178523593e+00 2.3175613224769784e+00 0.0000000000000000e+00  1.8404276197757423e+00 2.3283406038117902e+00 0.0000000000000000e+00  1.8489036399530849e+00 2.3187004102330668e+00 0.0000000000000000e+00  1.8423564078832453e+00 2.3249615346537915e+00 0.0000000000000000e+00  1.8478057706039841e+00 2.3235405794919766e+00 0.0000000000000000e+00  1.8430535141058098e+00 2.3246784873251172e+00 0.0000000000000000e+00  1.8483712049347363e+00 2.3197535106193339e+00 0.0000000000000000e+00  1.8434047983805264e+00 2.3333392880022017e+00 0.0000000000000000e+00  1.8479950347601746e+00 2.3120384275082517e+00 0.0000000000000000e+00  1.8449738242988352e+00 2.3369853446287179e+00 0.0000000000000000e+00  1.8475448723489738e+00 2.3166105152885073e+00 0.0000000000000000e+00  1.8459833339251306e+00 2.3263751343802253e+00 0.0000000000000000e+00  1.8482526138624422e+00 2.3282340564088830e+00 0.0000000000000000e+00  1.8467334424025232e+00 2.3182076496168320e+00 0.0000000000000000e+00  1.8491771934630392e+00 2.3284244319610004e+00 0.0000000000000000e+00  1.8484030382369485e+00 2.3191260778458522e+00 0.0000000000000000e+00  1.8501800912828521e+00 2.3243148167130707e+00 0.0000000000000000e+00  1.8510735320803025e+00 2.3130572877212296e+00 0.0000000000000000e+00  1.8522978419279073e+00 2.3267046174567989e+00 0.0000000000000000e+00  1.8548732204235994e+00 2.2985300095060208e+00 0.0000000000000000e+00  1.8578651637392078e+00 2.3220297252295645e+00 0.0000000000000000e+00  1.8618219951895074e+00 2.2843359031560011e+00 0.0000000000000000e+00  1.8696321932555537e+00 2.2990917321037649e+00 0.0000000000000000e+00  1.8780531488378471e+00 2.2578070294688697e+00 0.0000000000000000e+00  1.8912655719108484e+00 2.2613247833520287e+00 0.0000000000000000e+00  1.9036136621294277e+00 2.2127717613018887e+00 0.0000000000000000e+00  1.9209187609443121e+00 2.2160305567762695e+00 0.0000000000000000e+00  1.9259190273907512e+00 2.1756691245616779e+00 0.0000000000000000e+00  1.9358442699381437e+00 2.1961039665271738e+00 0.0000000000000000e+00  1.9261433866296918e+00 2.1796356891534345e+00 0.0000000000000000e+00  1.9200904911367329e+00 2.2250897186207115e+00 0.0000000000000000e+00  1.9012604359342793e+00 2.2265111656791836e+00 0.0000000000000000e+00  1.8863073761618765e+00 2.2820048825195265e+00 0.0000000000000000e+00  1.8610013035603479e+00 2.3068807858677158e+00 0.0000000000000000e+00  1.8286569287169168e+00 2.3714203603695823e+00 0.0000000000000000e+00  1.7963322554023964e+00 2.4216304975296539e+00 0.0000000000000000e+00  1.7469753763742333e+00 2.4902368014976752e+00 0.0000000000000000e+00  1.8840158147843657e+00 2.1949841005313400e+00 0.0000000000000000e+00  2.5196507864459976e+00 8.1850220459225886e-01 0.0000000000000000e+00  2.9144327626630182e+00 6.7995124970807369e-02 0.0000000000000000e+00  2.9539421173353002e+00 1.9640622646766723e-02 0.0000000000000000e+00  2.9525494936798675e+00 -1.5548642871211889e-02 0.0000000000000000e+00  2.9780543833584296e+00 -2.5389439719701163e-02 0.0000000000000000e+00  2.9677160881957394e+00 -4.0459577040036943e-02 0.0000000000000000e+00  2.9712049988417522e+00 -1.3140693369934705e-02 0.0000000000000000e+00  2.9704814685525660e+00 -4.6074508432996035e-02 0.0000000000000000e+00  2.9707298500898958e+00 -1.5540551029572454e-02 0.0000000000000000e+00  2.9715793905609522e+00 -5.5370071778832630e-02 0.0000000000000000e+00  2.9712508524203378e+00 -2.2564258588933347e-02 0.0000000000000000e+00  2.9721409062865987e+00 -6.0176106210010738e-02 0.0000000000000000e+00  2.9702877725763934e+00 -2.3005958641566470e-02 0.0000000000000000e+00  2.9735628224887267e+00 -5.9506670320735325e-02 0.0000000000000000e+00  2.9705925662425550e+00 -1.6525603334819870e-02 0.0000000000000000e+00  2.9746623952908595e+00 -5.2662094141386506e-02 0.0000000000000000e+00  2.9699275777415934e+00 -8.0642232755663464e-03 0.0000000000000000e+00  2.9762837516659939e+00 -4.3081722295980659e-02 0.0000000000000000e+00  2.9698935370508175e+00 -4.9975378056061753e-03 0.0000000000000000e+00  2.9771886293619292e+00 -3.6624865163409653e-02 0.0000000000000000e+00  2.9702685984363280e+00 -9.5468407268063161e-04 0.0000000000000000e+00  2.9781455356047277e+00 -3.7376354204785592e-02 0.0000000000000000e+00  2.9700168708727244e+00 1.0693688808614812e-03 0.0000000000000000e+00  2.9795967861080541e+00 -3.8341358276294278e-02 0.0000000000000000e+00  2.9698925920235970e+00 -2.3680710199430648e-03 0.0000000000000000e+00  2.9802353336990484e+00 -3.8769254578546401e-02 0.0000000000000000e+00  2.9701234861710910e+00 -8.1751387218337301e-03 0.0000000000000000e+00  2.9808966306541911e+00 -3.8021596050058087e-02 0.0000000000000000e+00  2.9696608999875531e+00 -1.6008860400652972e-02 0.0000000000000000e+00  2.9815922906039987e+00 -3.5399599977813209e-02 0.0000000000000000e+00  2.9694098263809869e+00 -2.2454106825219530e-02 0.0000000000000000e+00  2.9811300241283472e+00 -2.9685661866440255e-02 0.0000000000000000e+00  2.9695747489223527e+00 -2.4526503798602869e-02 0.0000000000000000e+00  2.9804926556866191e+00 -2.2652726484657104e-02 0.0000000000000000e+00  2.9688789083027389e+00 -1.8767310381264873e-02 0.0000000000000000e+00  2.9799736360155560e+00 -1.9344746721312457e-02 0.0000000000000000e+00  2.9684176985457857e+00 -1.6664341123357011e-02 0.0000000000000000e+00  2.9784120881037159e+00 -3.3111022108835098e-02 0.0000000000000000e+00  2.9683468399388455e+00 -4.3152123995822730e-02 0.0000000000000000e+00  2.9770378246114215e+00 -6.7504658996487596e-02 0.0000000000000000e+00  2.9674147865304561e+00 -7.2021600460556542e-02 0.0000000000000000e+00  2.9760886688770167e+00 -8.0214062302328637e-02 0.0000000000000000e+00  2.9671601788891682e+00 -6.8027607086085393e-02 0.0000000000000000e+00  2.9745417049462390e+00 -5.7489777391762607e-02 0.0000000000000000e+00  2.9674354166907913e+00 -5.7896604667681387e-02 0.0000000000000000e+00  2.9736179261721554e+00 -3.4159685337755562e-02 0.0000000000000000e+00  2.9670224649821786e+00 0.0000000000000000e+00 0.0000000000000000e+00  1.5422625490048527e+00 0.0000000000000000e+00 6.2556515854121251e-03  1.5398544854844831e+00 3.3571269495774408e-02 -1.4162796754201433e-04  1.5416332888129038e+00 7.3491891437198670e-02 -4.4040995105772045e-03  1.5414286593280464e+00 1.0629678651743460e-01 -6.1627381848486712e-03  1.5407077355109235e+00 1.5248742953264816e-01 1.2850095113944519e-02  1.5414102109212144e+00 1.7934762013228567e-01 -2.0512963195753773e-02  1.5410120757602119e+00 2.3777398967488447e-01 2.3690535581262166e-02  1.5410474832643704e+00 2.4790494353035730e-01 -2.5137360876710837e-02  1.5402524923645382e+00 3.2027569773450049e-01 2.4297307052235713e-02  1.5416087932376219e+00 3.2575514013347212e-01 -2.4344165064464560e-02  1.5395340372299953e+00 3.9603424461857661e-01 2.4570446592251896e-02  1.5410098981580578e+00 4.0149151099257452e-01 -2.5179083455578309e-02  1.5398865471806964e+00 4.7892862214775578e-01 2.3406602998628980e-02  1.5403757410469903e+00 4.8119521065276433e-01 -1.6751094267227297e-02  1.5394080581196450e+00 5.3992398562450361e-01 5.1144469707012190e-03  1.5404076221653880e+00 5.8417432786220502e-01 5.9202593333022016e-03  1.5392719051190300e+00 6.0469587930050650e-01 -9.8813977206048814e-03  1.5394294051869652e+00 6.5424565017890812e-01 3.8506861959709247e-03  1.5396256381195841e+00 7.0076793218706357e-01 4.8073404237803175e-03  1.5393440889821546e+00 7.2626741121033078e-01 -7.1244082493874686e-03  1.5385067286181615e+00 7.7049747512713673e-01 4.0322119547512051e-03  1.5398146784105486e+00 8.1252811445441808e-01 -3.0837094995731437e-03  1.5381895971594819e+00 8.5308022037963205e-01 8.4795587915015482e-03  1.5389426767953371e+00 8.7915531930866220e-01 -1.4532838148527530e-02  1.5381334463580656e+00 9.3830257373703563e-01 1.5945584679274649e-02  1.5390772273306947e+00 9.5587709287253819e-01 -1.4993701990966078e-02  1.5366978841284122e+00 1.0143787025838797e+00 1.6434088116311897e-02  1.5394572020880728e+00 1.0344325104211014e+00 -1.9709598701940202e-02  1.5362346604921571e+00 1.0918903383691931e+00 2.1444573054462231e-02  1.5384682723180814e+00 1.1064230269725608e+00 -2.1975083778257937e-02  1.5361786571154756e+00 1.1744699158985061e+00 2.2619941790800496e-02  1.5384871902308224e+00 1.1804775896325317e+00 -2.3810961980062814e-02  1.5347576812498060e+00 1.2467659414009531e+00 2.4196119812778645e-02  1.5391210086052831e+00 1.2584682899393571e+00 -2.4288155729484572e-02  1.5346312762253886e+00 1.3220171297854626e+00 2.4085224554206995e-02  1.5383059107395234e+00 1.3295034383406039e+00 -2.3491253245260264e-02  1.5357643001557166e+00 1.3968733643900395e+00 2.2796471821535026e-02  1.5389523915085754e+00 1.4011580317335308e+00 -2.2387097003873133e-02  1.5359541951577218e+00 1.4638215157046397e+00 2.1829488306894820e-02  1.5416701973959479e+00 1.4730741371014799e+00 -2.0849630519206248e-02  1.5383952792486040e+00 1.5292906741236889e+00 2.0100443059196903e-02  1.5443535053516813e+00 1.5328950196862081e+00 -1.9428339704976587e-02  1.5443767725781969e+00 1.5905250063139904e+00 1.8603312642631046e-02  1.5504258641219080e+00 1.5896998222006360e+00 -1.7551249563898204e-02  1.5518402167424263e+00 1.6372903357941015e+00 1.6927466195571866e-02  1.5611186665261942e+00 1.6391509319656428e+00 -1.6265321090450719e-02  1.5633019309182474e+00 1.6784688707218116e+00 1.5551695620691827e-02  1.5731940477326143e+00 1.6740963806142879e+00 -1.5021008059988326e-02  1.5782106168492804e+00 1.7164280123137583e+00 1.4583309648950989e-02  1.5874517493963658e+00 1.7087979898183268e+00 -1.4012152332157198e-02  1.5921914921991027e+00 1.7452818119223847e+00 1.3401430743041209e-02  1.6028565717087562e+00 1.7452044751682019e+00 -1.2940540859924863e-02  1.6067632843559816e+00 1.7778645973956897e+00 1.2572202529431349e-02  1.6162873795241952e+00 1.7756147722424722e+00 -1.2063881428401436e-02  1.6218957616476850e+00 1.8135965127277445e+00 1.1935007921306319e-02  1.6304487714794875e+00 1.8093008918961297e+00 -1.1583765609892259e-02  1.6349521221510011e+00 1.8427236838310923e+00 1.1574134496488468e-02  1.6453656721049978e+00 1.8453673021179069e+00 -1.1172716990098698e-02  1.6487786168435281e+00 1.8756568961873674e+00 1.1491547474558141e-02  1.6582461156158719e+00 1.8745796760754814e+00 -1.1228334498116509e-02  1.6632480669617151e+00 1.9106399324231740e+00 1.1727189922620836e-02  1.6719521801391750e+00 1.9073386172449738e+00 -1.1427920937000265e-02  1.6756880855826337e+00 1.9387114810831105e+00 1.2015786312473025e-02  1.6861960215536080e+00 1.9419441450760786e+00 -1.1503349198442927e-02  1.6889433953200270e+00 1.9707727524276695e+00 1.2075570399659293e-02  1.6983485706853314e+00 1.9692938307826489e+00 -1.1583422429535972e-02  1.7025847753213872e+00 2.0041547296455096e+00 1.2190185109664409e-02  1.7113746243605685e+00 2.0009288987109719e+00 -1.1734362555532368e-02  1.7142288412669471e+00 2.0297433607586459e+00 1.2099936650143169e-02  1.7246303158894154e+00 2.0335352387143537e+00 -1.1686917055806365e-02  1.7268624168150521e+00 2.0595607498482944e+00 1.1647698814199886e-02  1.7356978117135944e+00 2.0581854819388856e+00 -1.1314984889683013e-02  1.7395842091612261e+00 2.0903907136760607e+00 1.0824532509766612e-02  1.7476565015555152e+00 2.0869744742470617e+00 -1.0395784370349085e-02  1.7503329884686516e+00 2.1131350192782663e+00 9.2236206253706529e-03  1.7593070808955078e+00 2.1164126980736793e+00 -8.4376220762980535e-03  1.7622276310370815e+00 2.1396250053770047e+00 6.6598505060989528e-03  1.7687002727821399e+00 2.1386545940836199e+00 -5.6002077719002905e-03  1.7736914362766876e+00 2.1654115306878454e+00 3.4929389808633373e-03  1.7791883647685269e+00 2.1658613191566416e+00 -2.2343098652442329e-03  1.7829677211375843e+00 2.1824632248005815e+00 -3.9077986847885051e-05  1.7889024028107927e+00 2.1934111304355479e+00 1.3682858303995626e-03 