<?xml version="1.0"?>
<VTKFile type="UnstructuredGrid"  version="0.1"  >
<UnstructuredGrid>
<Piece  NumberOfPoints="8241" NumberOfCells="16000">
<Points>
<DataArray  type="Float64"  NumberOfComponents="3"  format="ascii">-5 -1 0  -4.95 -1 0  -4.9 -1 0  -4.85 -1 0  -4.8 -1 0  -4.75 -1 0  -4.7 -1 0  -4.65 -1 0  -4.6 -1 0  -4.55 -1 0  -4.5 -1 0  -4.45 -1 0  -4.4 -1 0  -4.35 -1 0  -4.3 -1 0  -4.25 -1 0  -4.2 -1 0  -4.15 -1 0  -4.1 -1 0  -4.05 -1 0  -4 -1 0  -3.95 -1 0  -3.9 -1 0  -3.85 -1 0  -3.8 -1 0  -3.75 -1 0  -3.7 -1 0  -3.65 -1 0  -3.6 -1 0  -3.55 -1 0  -3.5 -1 0  -3.45 -1 0  -3.4 -1 0  -3.35 -1 0  -3.3 -1 0  -3.25 -1 0  -3.2 -1 0  -3.15 -1 0  -3.1 -1 0  -3.05 -1 0  -3 -1 0  -2.95 -1 0  -2.9 -1 0  -2.85 -1 0  -2.8 -1 0  -2.75 -1 0  -2.7 -1 0  -2.65 -1 0  -2.6 -1 0  -2.55 -1 0  -2.5 -1 0  -2.45 -1 0  -2.4 -1 0  -2.35 -1 0  -2.3 -1 0  -2.25 -1 0  -2.2 -1 0  -2.15 -1 0  -2.1 -1 0  -2.05 -1 0  -2 -1 0  -1.95 -1 0  -1.9 -1 0  -1.85 -1 0  -1.8 -1 0  -1.75 -1 0  -1.7 -1 0  -1.65 -1 0  -1.6 -1 0  -1.55 -1 0  -1.5 -1 0  -1.45 -1 0  -1.4 -1 0  -1.35 -1 0  -1.3 -1 0  -1.25 -1 0  -1.2 -1 0  -1.15 -1 0  -1.1 -1 0  -1.05 -1 0  -1 -1 0  -0.9500000000000002 -1 0  -0.9000000000000004 -1 0  -0.8499999999999996 -1 0  -0.7999999999999998 -1 0  -0.75 -1 0  -0.7000000000000002 -1 0  -0.6500000000000004 -1 0  -0.5999999999999996 -1 0  -0.5499999999999998 -1 0  -0.5 -1 0  -0.4500000000000002 -1 0  -0.4000000000000004 -1 0  -0.3499999999999996 -1 0  -0.2999999999999998 -1 0  -0.25 -1 0  -0.2000000000000002 -1 0  -0.1500000000000004 -1 0  -0.09999999999999964 -1 0  -0.04999999999999982 -1 0  0 -1 0  0.04999999999999982 -1 0  0.09999999999999964 -1 0  0.1500000000000004 -1 0  0.2000000000000002 -1 0  0.25 -1 0  0.2999999999999998 -1 0  0.3499999999999996 -1 0  0.4000000000000004 -1 0  0.4500000000000002 -1 0  0.5 -1 0  0.5499999999999998 -1 0  0.5999999999999996 -1 0  0.6500000000000004 -1 0  0.7000000000000002 -1 0  0.75 -1 0  0.7999999999999998 -1 0  0.8499999999999996 -1 0  0.9000000000000004 -1 0  0.9500000000000002 -1 0  1 -1 0  1.05 -1 0  1.1 -1 0  1.15 -1 0  1.2 -1 0  1.25 -1 0  1.3 -1 0  1.35 -1 0  1.4 -1 0  1.45 -1 0  1.5 -1 0  1.55 -1 0  1.6 -1 0  1.65 -1 0  1.7 -1 0  1.75 -1 0  1.8 -1 0  1.85 -1 0  1.9 -1 0  1.95 -1 0  2 -1 0  2.05 -1 0  2.1 -1 0  2.15 -1 0  2.2 -1 0  2.25 -1 0  2.3 -1 0  2.35 -1 0  2.4 -1 0  2.45 -1 0  2.5 -1 0  2.55 -1 0  2.6 -1 0  2.65 -1 0  2.7 -1 0  2.75 -1 0  2.8 -1 0  2.85 -1 0  2.9 -1 0  2.95 -1 0  3 -1 0  3.050000000000001 -1 0  3.1 -1 0  3.15 -1 0  3.199999999999999 -1 0  3.25 -1 0  3.300000000000001 -1 0  3.35 -1 0  3.4 -1 0  3.449999999999999 -1 0  3.5 -1 0  3.550000000000001 -1 0  3.6 -1 0  3.65 -1 0  3.699999999999999 -1 0  3.75 -1 0  3.800000000000001 -1 0  3.85 -1 0  3.9 -1 0  3.949999999999999 -1 0  4 -1 0  4.050000000000001 -1 0  4.1 -1 0  4.15 -1 0  4.199999999999999 -1 0  4.25 -1 0  4.300000000000001 -1 0  4.35 -1 0  4.4 -1 0  4.449999999999999 -1 0  4.5 -1 0  4.550000000000001 -1 0  4.6 -1 0  4.65 -1 0  4.699999999999999 -1 0  4.75 -1 0  4.800000000000001 -1 0  4.85 -1 0  4.9 -1 0  4.949999999999999 -1 0  5 -1 0  -5 -0.95 0  -4.95 -0.95 0  -4.9 -0.95 0  -4.85 -0.95 0  -4.8 -0.95 0  -4.75 -0.95 0  -4.7 -0.95 0  -4.65 -0.95 0  -4.6 -0.95 0  -4.55 -0.95 0  -4.5 -0.95 0  -4.45 -0.95 0  -4.4 -0.95 0  -4.35 -0.95 0  -4.3 -0.95 0  -4.25 -0.95 0  -4.2 -0.95 0  -4.15 -0.95 0  -4.1 -0.95 0  -4.05 -0.95 0  -4 -0.95 0  -3.95 -0.95 0  -3.9 -0.95 0  -3.85 -0.95 0  -3.8 -0.95 0  -3.75 -0.95 0  -3.7 -0.95 0  -3.65 -0.95 0  -3.6 -0.95 0  -3.55 -0.95 0  -3.5 -0.95 0  -3.45 -0.95 0  -3.4 -0.95 0  -3.35 -0.95 0  -3.3 -0.95 0  -3.25 -0.95 0  -3.2 -0.95 0  -3.15 -0.95 0  -3.1 -0.95 0  -3.05 -0.95 0  -3 -0.95 0  -2.95 -0.95 0  -2.9 -0.95 0  -2.85 -0.95 0  -2.8 -0.95 0  -2.75 -0.95 0  -2.7 -0.95 0  -2.65 -0.95 0  -2.6 -0.95 0  -2.55 -0.95 0  -2.5 -0.95 0  -2.45 -0.95 0  -2.4 -0.95 0  -2.35 -0.95 0  -2.3 -0.95 0  -2.25 -0.95 0  -2.2 -0.95 0  -2.15 -0.95 0  -2.1 -0.95 0  -2.05 -0.95 0  -2 -0.95 0  -1.95 -0.95 0  -1.9 -0.95 0  -1.85 -0.95 0  -1.8 -0.95 0  -1.75 -0.95 0  -1.7 -0.95 0  -1.65 -0.95 0  -1.6 -0.95 0  -1.55 -0.95 0  -1.5 -0.95 0  -1.45 -0.95 0  -1.4 -0.95 0  -1.35 -0.95 0  -1.3 -0.95 0  -1.25 -0.95 0  -1.2 -0.95 0  -1.15 -0.95 0  -1.1 -0.95 0  -1.05 -0.95 0  -1 -0.95 0  -0.9500000000000002 -0.95 0  -0.9000000000000004 -0.95 0  -0.8499999999999996 -0.95 0  -0.7999999999999998 -0.95 0  -0.75 -0.95 0  -0.7000000000000002 -0.95 0  -0.6500000000000004 -0.95 0  -0.5999999999999996 -0.95 0  -0.5499999999999998 -0.95 0  -0.5 -0.95 0  -0.4500000000000002 -0.95 0  -0.4000000000000004 -0.95 0  -0.3499999999999996 -0.95 0  -0.2999999999999998 -0.95 0  -0.25 -0.95 0  -0.2000000000000002 -0.95 0  -0.1500000000000004 -0.95 0  -0.09999999999999964 -0.95 0  -0.04999999999999982 -0.95 0  0 -0.95 0  0.04999999999999982 -0.95 0  0.09999999999999964 -0.95 0  0.1500000000000004 -0.95 0  0.2000000000000002 -0.95 0  0.25 -0.95 0  0.2999999999999998 -0.95 0  0.3499999999999996 -0.95 0  0.4000000000000004 -0.95 0  0.4500000000000002 -0.95 0  0.5 -0.95 0  0.5499999999999998 -0.95 0  0.5999999999999996 -0.95 0  0.6500000000000004 -0.95 0  0.7000000000000002 -0.95 0  0.75 -0.95 0  0.7999999999999998 -0.95 0  0.8499999999999996 -0.95 0  0.9000000000000004 -0.95 0  0.9500000000000002 -0.95 0  1 -0.95 0  1.05 -0.95 0  1.1 -0.95 0  1.15 -0.95 0  1.2 -0.95 0  1.25 -0.95 0  1.3 -0.95 0  1.35 -0.95 0  1.4 -0.95 0  1.45 -0.95 0  1.5 -0.95 0  1.55 -0.95 0  1.6 -0.95 0  1.65 -0.95 0  1.7 -0.95 0  1.75 -0.95 0  1.8 -0.95 0  1.85 -0.95 0  1.9 -0.95 0  1.95 -0.95 0  2 -0.95 0  2.05 -0.95 0  2.1 -0.95 0  2.15 -0.95 0  2.2 -0.95 0  2.25 -0.95 0  2.3 -0.95 0  2.35 -0.95 0  2.4 -0.95 0  2.45 -0.95 0  2.5 -0.95 0  2.55 -0.95 0  2.6 -0.95 0  2.65 -0.95 0  2.7 -0.95 0  2.75 -0.95 0  2.8 -0.95 0  2.85 -0.95 0  2.9 -0.95 0  2.95 -0.95 0  3 -0.95 0  3.050000000000001 -0.95 0  3.1 -0.95 0  3.15 -0.95 0  3.199999999999999 -0.95 0  3.25 -0.95 0  3.300000000000001 -0.95 0  3.35 -0.95 0  3.4 -0.95 0  3.449999999999999 -0.95 0  3.5 -0.95 0  3.550000000000001 -0.95 0  3.6 -0.95 0  3.65 -0.95 0  3.699999999999999 -0.95 0  3.75 -0.95 0  3.800000000000001 -0.95 0  3.85 -0.95 0  3.9 -0.95 0  3.949999999999999 -0.95 0  4 -0.95 0  4.050000000000001 -0.95 0  4.1 -0.95 0  4.15 -0.95 0  4.199999999999999 -0.95 0  4.25 -0.95 0  4.300000000000001 -0.95 0  4.35 -0.95 0  4.4 -0.95 0  4.449999999999999 -0.95 0  4.5 -0.95 0  4.550000000000001 -0.95 0  4.6 -0.95 0  4.65 -0.95 0  4.699999999999999 -0.95 0  4.75 -0.95 0  4.800000000000001 -0.95 0  4.85 -0.95 0  4.9 -0.95 0  4.949999999999999 -0.95 0  5 -0.95 0  -5 -0.9 0  -4.95 -0.9 0  -4.9 -0.9 0  -4.85 -0.9 0  -4.8 -0.9 0  -4.75 -0.9 0  -4.7 -0.9 0  -4.65 -0.9 0  -4.6 -0.9 0  -4.55 -0.9 0  -4.5 -0.9 0  -4.45 -0.9 0  -4.4 -0.9 0  -4.35 -0.9 0  -4.3 -0.9 0  -4.25 -0.9 0  -4.2 -0.9 0  -4.15 -0.9 0  -4.1 -0.9 0  -4.05 -0.9 0  -4 -0.9 0  -3.95 -0.9 0  -3.9 -0.9 0  -3.85 -0.9 0  -3.8 -0.9 0  -3.75 -0.9 0  -3.7 -0.9 0  -3.65 -0.9 0  -3.6 -0.9 0  -3.55 -0.9 0  -3.5 -0.9 0  -3.45 -0.9 0  -3.4 -0.9 0  -3.35 -0.9 0  -3.3 -0.9 0  -3.25 -0.9 0  -3.2 -0.9 0  -3.15 -0.9 0  -3.1 -0.9 0  -3.05 -0.9 0  -3 -0.9 0  -2.95 -0.9 0  -2.9 -0.9 0  -2.85 -0.9 0  -2.8 -0.9 0  -2.75 -0.9 0  -2.7 -0.9 0  -2.65 -0.9 0  -2.6 -0.9 0  -2.55 -0.9 0  -2.5 -0.9 0  -2.45 -0.9 0  -2.4 -0.9 0  -2.35 -0.9 0  -2.3 -0.9 0  -2.25 -0.9 0  -2.2 -0.9 0  -2.15 -0.9 0  -2.1 -0.9 0  -2.05 -0.9 0  -2 -0.9 0  -1.95 -0.9 0  -1.9 -0.9 0  -1.85 -0.9 0  -1.8 -0.9 0  -1.75 -0.9 0  -1.7 -0.9 0  -1.65 -0.9 0  -1.6 -0.9 0  -1.55 -0.9 0  -1.5 -0.9 0  -1.45 -0.9 0  -1.4 -0.9 0  -1.35 -0.9 0  -1.3 -0.9 0  -1.25 -0.9 0  -1.2 -0.9 0  -1.15 -0.9 0  -1.1 -0.9 0  -1.05 -0.9 0  -1 -0.9 0  -0.9500000000000002 -0.9 0  -0.9000000000000004 -0.9 0  -0.8499999999999996 -0.9 0  -0.7999999999999998 -0.9 0  -0.75 -0.9 0  -0.7000000000000002 -0.9 0  -0.6500000000000004 -0.9 0  -0.5999999999999996 -0.9 0  -0.5499999999999998 -0.9 0  -0.5 -0.9 0  -0.4500000000000002 -0.9 0  -0.4000000000000004 -0.9 0  -0.3499999999999996 -0.9 0  -0.2999999999999998 -0.9 0  -0.25 -0.9 0  -0.2000000000000002 -0.9 0  -0.1500000000000004 -0.9 0  -0.09999999999999964 -0.9 0  -0.04999999999999982 -0.9 0  0 -0.9 0  0.04999999999999982 -0.9 0  0.09999999999999964 -0.9 0  0.1500000000000004 -0.9 0  0.2000000000000002 -0.9 0  0.25 -0.9 0  0.2999999999999998 -0.9 0  0.3499999999999996 -0.9 0  0.4000000000000004 -0.9 0  0.4500000000000002 -0.9 0  0.5 -0.9 0  0.5499999999999998 -0.9 0  0.5999999999999996 -0.9 0  0.6500000000000004 -0.9 0  0.7000000000000002 -0.9 0  0.75 -0.9 0  0.7999999999999998 -0.9 0  0.8499999999999996 -0.9 0  0.9000000000000004 -0.9 0  0.9500000000000002 -0.9 0  1 -0.9 0  1.05 -0.9 0  1.1 -0.9 0  1.15 -0.9 0  1.2 -0.9 0  1.25 -0.9 0  1.3 -0.9 0  1.35 -0.9 0  1.4 -0.9 0  1.45 -0.9 0  1.5 -0.9 0  1.55 -0.9 0  1.6 -0.9 0  1.65 -0.9 0  1.7 -0.9 0  1.75 -0.9 0  1.8 -0.9 0  1.85 -0.9 0  1.9 -0.9 0  1.95 -0.9 0  2 -0.9 0  2.05 -0.9 0  2.1 -0.9 0  2.15 -0.9 0  2.2 -0.9 0  2.25 -0.9 0  2.3 -0.9 0  2.35 -0.9 0  2.4 -0.9 0  2.45 -0.9 0  2.5 -0.9 0  2.55 -0.9 0  2.6 -0.9 0  2.65 -0.9 0  2.7 -0.9 0  2.75 -0.9 0  2.8 -0.9 0  2.85 -0.9 0  2.9 -0.9 0  2.95 -0.9 0  3 -0.9 0  3.050000000000001 -0.9 0  3.1 -0.9 0  3.15 -0.9 0  3.199999999999999 -0.9 0  3.25 -0.9 0  3.300000000000001 -0.9 0  3.35 -0.9 0  3.4 -0.9 0  3.449999999999999 -0.9 0  3.5 -0.9 0  3.550000000000001 -0.9 0  3.6 -0.9 0  3.65 -0.9 0  3.699999999999999 -0.9 0  3.75 -0.9 0  3.800000000000001 -0.9 0  3.85 -0.9 0  3.9 -0.9 0  3.949999999999999 -0.9 0  4 -0.9 0  4.050000000000001 -0.9 0  4.1 -0.9 0  4.15 -0.9 0  4.199999999999999 -0.9 0  4.25 -0.9 0  4.300000000000001 -0.9 0  4.35 -0.9 0  4.4 -0.9 0  4.449999999999999 -0.9 0  4.5 -0.9 0  4.550000000000001 -0.9 0  4.6 -0.9 0  4.65 -0.9 0  4.699999999999999 -0.9 0  4.75 -0.9 0  4.800000000000001 -0.9 0  4.85 -0.9 0  4.9 -0.9 0  4.949999999999999 -0.9 0  5 -0.9 0  -5 -0.85 0  -4.95 -0.85 0  -4.9 -0.85 0  -4.85 -0.85 0  -4.8 -0.85 0  -4.75 -0.85 0  -4.7 -0.85 0  -4.65 -0.85 0  -4.6 -0.85 0  -4.55 -0.85 0  -4.5 -0.85 0  -
[...]
<PointData  Vectors="f_15"> 
<DataArray  type="Float64"  Name="f_15"  NumberOfComponents="3" format="ascii">2.6466628968596049e+00 0.0000000000000000e+00 0.0000000000000000e+00  2.6463616244937582e+00 4.6393269694811591e-02 0.0000000000000000e+00  2.6454346570199530e+00 9.2705462769671898e-02 0.0000000000000000e+00  2.6438978494512022e+00 1.3887256324748726e-01 0.0000000000000000e+00  2.6417365598200178e+00 1.8480036169744754e-01 0.0000000000000000e+00  2.6389570594119238e+00 2.3042594283994819e-01 0.0000000000000000e+00  2.6355398549848865e+00 2.7567450735207610e-01 0.0000000000000000e+00  2.6315034454014539e+00 3.2046865348600390e-01 0.0000000000000000e+00  2.6268164813511667e+00 3.6475510673269551e-01 0.0000000000000000e+00  2.6215000082695750e+00 4.0845753392392570e-01 0.0000000000000000e+00  2.6155325996978012e+00 4.5153189489944862e-01 0.0000000000000000e+00  2.6089322163181654e+00 4.9391541630247593e-01 0.0000000000000000e+00  2.6016772799830923e+00 5.3558071885310110e-01 0.0000000000000000e+00  2.5938057385519691e+00 5.7647192683372794e-01 0.0000000000000000e+00  2.5852901615663888e+00 6.1658794303823994e-01 0.0000000000000000e+00  2.5761771268391835e+00 6.5589171735541973e-01 0.0000000000000000e+00  2.5664572124851639e+00 6.9439167898440157e-01 0.0000000000000000e+00  2.5561775668319946e+00 7.3208898316858906e-01 0.0000000000000000e+00  2.5453344653112127e+00 7.6900022756680941e-01 0.0000000000000000e+00  2.5339972937192821e+00 8.0515127098930239e-01 0.0000000000000000e+00  2.5221584261927918e+00 8.4057859096319754e-01 0.0000000000000000e+00  2.5098932911542815e+00 8.7533296329321963e-01 0.0000000000000000e+00  2.4972123177684309e+00 9.0943957894588245e-01 0.0000000000000000e+00  2.4841822760213534e+00 9.4300260742369657e-01 0.0000000000000000e+00  2.4708162927830020e+00 9.7601137392147186e-01 0.0000000000000000e+00  2.4571921337667391e+00 1.0086026871652640e+00 0.0000000000000000e+00  2.4433102060242420e+00 1.0407568967212850e+00 0.0000000000000000e+00  2.4292443845141047e+00 1.0726114291160973e+00 0.0000000000000000e+00  2.4150040123697871e+00 1.1041225880610290e+00 0.0000000000000000e+00  2.4006414537287188e+00 1.1354629919035961e+00 0.0000000000000000e+00  2.3861659522906264e+00 1.1665243031904471e+00 0.0000000000000000e+00  2.3716300534334507e+00 1.1975063413259983e+00 0.0000000000000000e+00  2.3570249980315392e+00 1.2282904526288612e+00 0.0000000000000000e+00  2.3424008372983516e+00 1.2590356208781992e+00 0.0000000000000000e+00  2.3277516171530794e+00 1.2896341994973648e+00 0.0000000000000000e+00  2.3131062199300869e+00 1.3202534044545196e+00 0.0000000000000000e+00  2.2984641993475936e+00 1.3507347088047217e+00 0.0000000000000000e+00  2.2838535614004893e+00 1.3812421412207236e+00 0.0000000000000000e+00  2.2692561444231742e+00 1.4116954137837063e+00 0.0000000000000000e+00  2.2547097497991406e+00 1.4421046795173882e+00 0.0000000000000000e+00  2.2401940599868517e+00 1.4724874651749107e+00 0.0000000000000000e+00  2.2257319916513412e+00 1.5028965004169457e+00 0.0000000000000000e+00  2.2113152532063487e+00 1.5331610056790574e+00 0.0000000000000000e+00  2.1969654726192833e+00 1.5635150097603132e+00 0.0000000000000000e+00  2.1826601576288303e+00 1.5937492164401064e+00 0.0000000000000000e+00  2.1684338759692521e+00 1.6239731573267786e+00 0.0000000000000000e+00  2.1542661190467838e+00 1.6541191608196157e+00 0.0000000000000000e+00  2.1401739263652355e+00 1.6842639338410550e+00 0.0000000000000000e+00  2.1261539036921278e+00 1.7142706140277866e+00 0.0000000000000000e+00  2.1122249473218626e+00 1.7442427187541585e+00 0.0000000000000000e+00  2.0983642248727521e+00 1.7741421986622621e+00 0.0000000000000000e+00  2.0846149609423748e+00 1.8038864057239561e+00 0.0000000000000000e+00  2.0709464265491300e+00 1.8335797779849941e+00 0.0000000000000000e+00  2.0573971687263084e+00 1.8630849471002973e+00 0.0000000000000000e+00  2.0439480096072447e+00 1.8924908421507445e+00 0.0000000000000000e+00  2.0306414580308814e+00 1.9216511618653676e+00 0.0000000000000000e+00  2.0174504993146152e+00 1.9507020267033375e+00 0.0000000000000000e+00  2.0044309140513890e+00 1.9794025775798074e+00 0.0000000000000000e+00  1.9915644673282551e+00 2.0079144417173365e+00 0.0000000000000000e+00  1.9789038737931959e+00 2.0360363892397784e+00 0.0000000000000000e+00  1.9664415041045467e+00 2.0638034845480515e+00 0.0000000000000000e+00  1.9542576071915463e+00 2.0910399025225797e+00 0.0000000000000000e+00  1.9423402562443945e+00 2.1177699427188394e+00 0.0000000000000000e+00  1.9307913816816520e+00 2.1437398459293693e+00 0.0000000000000000e+00  1.9196461756930616e+00 2.1688760042279238e+00 0.0000000000000000e+00  1.9090100901034577e+00 2.1929622662579882e+00 0.0000000000000000e+00  1.8989594414094273e+00 2.2157198621905398e+00 0.0000000000000000e+00  1.8896653182185703e+00 2.2368981735231257e+00 0.0000000000000000e+00  1.8812196615440298e+00 2.2561129257192358e+00 0.0000000000000000e+00  1.8738190639971581e+00 2.2730522293317001e+00 0.0000000000000000e+00  1.8675708438567451e+00 2.2873008917102196e+00 0.0000000000000000e+00  1.8625864979381852e+00 2.2987745931956929e+00 0.0000000000000000e+00  1.8588314757622353e+00 2.3073203061591250e+00 0.0000000000000000e+00  1.8562233902264151e+00 2.3133650780998281e+00 0.0000000000000000e+00  1.8545135399265955e+00 2.3172291121301924e+00 0.0000000000000000e+00  1.8534546740022271e+00 2.3197100764827572e+00 0.0000000000000000e+00  1.8527638626835921e+00 2.3212379781186674e+00 0.0000000000000000e+00  1.8523125217343264e+00 2.3223295416155705e+00 0.0000000000000000e+00  1.8519355332745313e+00 2.3231267854299631e+00 0.0000000000000000e+00  1.8516212191219754e+00 2.3239054542586621e+00 0.0000000000000000e+00  1.8513366347708813e+00 2.3244838446795897e+00 0.0000000000000000e+00  1.8510750849403350e+00 2.3251476968357854e+00 0.0000000000000000e+00  1.8508070609522753e+00 2.3256798142967048e+00 0.0000000000000000e+00  1.8505969132398645e+00 2.3262298453488031e+00 0.0000000000000000e+00  1.8503671466127765e+00 2.3266730941753564e+00 0.0000000000000000e+00  1.8501718963942764e+00 2.3271823956617137e+00 0.0000000000000000e+00  1.8499933321904489e+00 2.3275107214427870e+00 0.0000000000000000e+00  1.8498270647911970e+00 2.3279560806984101e+00 0.0000000000000000e+00  1.8496605923881964e+00 2.3282517718183846e+00 0.0000000000000000e+00  1.8495356282129904e+00 2.3286001848074416e+00 0.0000000000000000e+00  1.8494000102330024e+00 2.3288346285424577e+00 0.0000000000000000e+00  1.8492898682884544e+00 2.3291381262312791e+00 0.0000000000000000e+00  1.8491914411808219e+00 2.3292939319399477e+00 0.0000000000000000e+00  1.8490990831721446e+00 2.3295599719648825e+00 0.0000000000000000e+00  1.8490097444531677e+00 2.3296893503237937e+00 0.0000000000000000e+00  1.8489412946000208e+00 2.3298963013452592e+00 0.0000000000000000e+00  1.8488717158141414e+00 2.3299934380594580e+00 0.0000000000000000e+00  1.8488102862770381e+00 2.3301722482977092e+00 0.0000000000000000e+00  1.8487561948577642e+00 2.3302364919068510e+00 0.0000000000000000e+00  1.8487098951474137e+00 2.3303854572776257e+00 0.0000000000000000e+00  1.8486595244206996e+00 2.3304360088513350e+00 0.0000000000000000e+00  1.8486220404013456e+00 2.3305572003504316e+00 0.0000000000000000e+00  1.8485866976329446e+00 2.3305908557756205e+00 0.0000000000000000e+00  1.8485511196702553e+00 2.3306945942899637e+00 0.0000000000000000e+00  1.8485196690356964e+00 2.3307174899955032e+00 0.0000000000000000e+00  1.8485011791578998e+00 2.3307902649187455e+00 0.0000000000000000e+00  1.8484648593678941e+00 2.3308208231234673e+00 0.0000000000000000e+00  1.8484454483151069e+00 2.3308847791170892e+00 0.0000000000000000e+00  1.8484292451816635e+00 2.3308887790210675e+00 0.0000000000000000e+00  1.8484078420445271e+00 2.3309449727529401e+00 0.0000000000000000e+00  1.8483841343683538e+00 2.3309595085388972e+00 0.0000000000000000e+00  1.8483794135194658e+00 2.3309893906982460e+00 0.0000000000000000e+00  1.8483523108796280e+00 2.3310071082724844e+00 0.0000000000000000e+00  1.8483433268895197e+00 2.3310383797097867e+00 0.0000000000000000e+00  1.8483365667323641e+00 2.3310215877739560e+00 0.0000000000000000e+00  1.8483148417586359e+00 2.3310784955992174e+00 0.0000000000000000e+00  1.8483000208683273e+00 2.3310633680190609e+00 0.0000000000000000e+00  1.8483058220320496e+00 2.3310772149444259e+00 0.0000000000000000e+00  1.8482795930048714e+00 2.3310777381005359e+00 0.0000000000000000e+00  1.8482759671612998e+00 2.3311141634069239e+00 0.0000000000000000e+00  1.8482641688266113e+00 2.3310805355966160e+00 0.0000000000000000e+00  1.8482616670030956e+00 2.3311206263116193e+00 0.0000000000000000e+00  1.8482407048047331e+00 2.3310882659864851e+00 0.0000000000000000e+00  1.8482508642381046e+00 2.3311188719595339e+00 0.0000000000000000e+00  1.8482205659216817e+00 2.3310909113795000e+00 0.0000000000000000e+00  1.8482333184167474e+00 2.3311356444031279e+00 0.0000000000000000e+00  1.8482111498808069e+00 2.3310633219673682e+00 0.0000000000000000e+00  1.8482192579495866e+00 2.3311459795227769e+00 0.0000000000000000e+00  1.8481894309314153e+00 2.3310568447679332e+00 0.0000000000000000e+00  1.8482110158242506e+00 2.3311330518130351e+00 0.0000000000000000e+00  1.8481756413275021e+00 2.3310280271074841e+00 0.0000000000000000e+00  1.8482033416321084e+00 2.3311318124796649e+00 0.0000000000000000e+00  1.8481483657182831e+00 2.3310299804868797e+00 0.0000000000000000e+00  1.8482013779146016e+00 2.3311071656690854e+00 0.0000000000000000e+00  1.8481410537278078e+00 2.3309974457659388e+00 0.0000000000000000e+00  1.8481785042146286e+00 2.3311161392135573e+00 0.0000000000000000e+00  1.8481243030112255e+00 2.3309516192022839e+00 0.0000000000000000e+00  1.8481892187663860e+00 2.3310590024904423e+00 0.0000000000000000e+00  1.8480924812321697e+00 2.3309392200049932e+00 0.0000000000000000e+00  1.8481768267002965e+00 2.3310381031152514e+00 0.0000000000000000e+00  1.8480950348364327e+00 2.3308683360324944e+00 0.0000000000000000e+00  1.8481587975832083e+00 2.3310459756371631e+00 0.0000000000000000e+00  1.8480716824262893e+00 2.3308120955081786e+00 0.0000000000000000e+00  1.8481661203115556e+00 2.3309822915776643e+00 0.0000000000000000e+00  1.8480495429979626e+00 2.3307139128864258e+00 0.0000000000000000e+00  1.8481523658504297e+00 2.3308714800862389e+00 0.0000000000000000e+00  1.8480441981815832e+00 2.3305106839474261e+00 0.0000000000000000e+00  1.8481372515526653e+00 2.3306848846123431e+00 0.0000000000000000e+00  1.8480319052813543e+00 2.3302140266928779e+00 0.0000000000000000e+00  1.8481250235084137e+00 2.3303638491023269e+00 0.0000000000000000e+00  1.8480237431817788e+00 2.3298625948726515e+00 0.0000000000000000e+00  1.8481005634772507e+00 2.3298529456046757e+00 0.0000000000000000e+00  1.8480343530248260e+00 2.3294244598408897e+00 0.0000000000000000e+00  1.8480503007950331e+00 2.3292324699666320e+00 0.0000000000000000e+00  1.8480693321132586e+00 2.3289013990374450e+00 0.0000000000000000e+00  1.8479755121050676e+00 2.3284850219285453e+00 0.0000000000000000e+00  1.8481336354140863e+00 2.3285149754931482e+00 0.0000000000000000e+00  1.8478523046816304e+00 2.3276011220816653e+00 0.0000000000000000e+00  1.8482559099369913e+00 2.3283276026652819e+00 0.0000000000000000e+00  1.8476769831774087e+00 2.3267367005958981e+00 0.0000000000000000e+00  1.8484083199150367e+00 2.3283247993460936e+00 0.0000000000000000e+00  1.8474760135157411e+00 2.3258950395373290e+00 0.0000000000000000e+00  1.8486102447886108e+00 2.3285879702261587e+00 0.0000000000000000e+00  1.8471899055710896e+00 2.3249619185787305e+00 0.0000000000000000e+00  1.8489096993724909e+00 2.3291756040562426e+00 0.0000000000000000e+00  1.8468427238546647e+00 2.3239084251964091e+00 0.0000000000000000e+00  1.8492071354446955e+00 2.3298891689907006e+00 0.0000000000000000e+00  1.8465657405499176e+00 2.3230622403878809e+00 0.0000000000000000e+00  1.8493986466522747e+00 2.3303141467880804e+00 0.0000000000000000e+00  1.8464027330396191e+00 2.3225635334003076e+00 0.0000000000000000e+00  1.8495137344973234e+00 2.3306644381564294e+00 0.0000000000000000e+00  1.8462697598126976e+00 2.3219248127349421e+00 0.0000000000000000e+00  1.8496267176342602e+00 2.3311845773570532e+00 0.0000000000000000e+00  1.8462308191715455e+00 2.3215852437157238e+00 0.0000000000000000e+00  1.8494394530190263e+00 2.3306648533315095e+00 0.0000000000000000e+00  1.8467268770647014e+00 2.3229282749570466e+00 0.0000000000000000e+00  1.8486549990388250e+00 2.3285701639033514e+00 0.0000000000000000e+00  1.8475492414308199e+00 2.3248836046690675e+00 0.0000000000000000e+00  1.8480182222454429e+00 2.3272818406491576e+00 0.0000000000000000e+00  1.8478200374653562e+00 2.3252070387375734e+00 0.0000000000000000e+00  1.8479549947231717e+00 2.3272097693997531e+00 0.0000000000000000e+00  1.8478834787345149e+00 2.3258380914687642e+00 0.0000000000000000e+00  1.8476298057192939e+00 2.3254160021340087e+00 0.0000000000000000e+00  1.8483957590007689e+00 2.3283593883390989e+00 0.0000000000000000e+00  1.8470671000773020e+00 2.3232426512258417e+00 0.0000000000000000e+00  1.8485522797921423e+00 2.3287746653136323e+00 0.0000000000000000e+00  1.8474940174709824e+00 2.3251512456104120e+00 0.0000000000000000e+00  1.8474307774540213e+00 2.3250510629858097e+00 0.0000000000000000e+00  1.8486110037522723e+00 2.3282709751681425e+00 0.0000000000000000e+00  1.8472375809402293e+00 2.3253680113693864e+00 0.0000000000000000e+00  1.8467728297968278e+00 2.3221257192038878e+00 0.0000000000000000e+00  1.8527416767554299e+00 2.3330517178264847e+00 0.0000000000000000e+00  1.8245957956983232e+00 2.3480561790303072e+00 0.0000000000000000e+00  1.9255434985947786e+00 2.1965878667440468e+00 0.0000000000000000e+00  2.4320597526066186e+00 9.8769538146876268e-01 0.0000000000000000e+00  2.8523523292618487e+00 2.2707540237041729e-01 0.0000000000000000e+00  2.9502292413909696e+00 3.2523895269620469e-02 0.0000000000000000e+00  2.9624741248783057e+00 2.6076929276599263e-02 0.0000000000000000e+00  2.9632454298185897e+00 -1.2247327059553411e-02 0.0000000000000000e+00  2.9758383052541721e+00 -4.4514575578012278e-03 0.0000000000000000e+00  2.9707859760375008e+00 0.0000000000000000e+00 0.0000000000000000e+00  2.6466663596023472e+00 0.0000000000000000e+00 -1.2640745543077763e-05  2.6463590651598894e+00 4.6398141505954039e-02 5.1775022050280218e-06  2.6454345566981998e+00 9.2713604162914742e-02 -4.2006877580364844e-06  2.6438971980968065e+00 1.3887803549571562e-01 4.2721610573790346e-06  2.6417368830674519e+00 1.8480223057960593e-01 -5.1465564347772875e-06  2.6389521011026189e+00 2.3043376119103101e-01 4.7696519081658633e-06  2.6355433708889766e+00 2.7567205097964742e-01 -4.7480496889153249e-06  2.6314982612140825e+00 3.2047481323614119e-01 4.1487182900335864e-06  2.6268167501293553e+00 3.6475252253867890e-01 -3.9014562784663702e-06  2.6214975108378531e+00 4.0846041262007210e-01 3.6941858961183595e-06  2.6155337486494838e+00 4.5152805634943805e-01 -3.3422470762927977e-06  2.6089256294546970e+00 4.9391877245007337e-01 3.4480518578952023e-06  2.6016821296437471e+00 5.3557379783773174e-01 -2.9365157219082437e-06  2.5937993543491737e+00 5.7647466002497105e-01 3.4063461673035412e-06  2.5852914607582713e+00 6.1658292928356340e-01 -2.8178285840424286e-06  2.5761739070921079e+00 6.5589006883855416e-01 3.5838891456440525e-06  2.5664592342599049e+00 6.9438911252799285e-01 -2.9899135849875567e-06  2.5561701250724154e+00 7.3208760848845367e-01 4.0593946852697399e-06  2.5453402361942086e+00 7.6899554913186219e-01 -3.6550456573021774e-06  2.5339901769234041e+00 8.0515128476774833e-01 4.8130669195195104e-06  2.5221601956895183e+00 8.4057791288856798e-01 -4.3753023365969273e-06  2.5098901793316295e+00 8.7532608127660705e-01 5.1986686034507372e-06  2.4972143018877997e+00 9.0944811494916722e-01 -4.8106462794244440e-06  2.4841755757987714e+00 9.4299296280107914e-01 5.5082386856410232e-06  2.4708224802209493e+00 9.7601933300596100e-01 -5.3356699936594756e-06  2.4571857595721744e+00 1.0085982162687730e+00 5.5818890229216956e-06  2.4433128773742059e+00 1.0407667491621149e+00 -5.2189681343277833e-06  2.4292430008192034e+00 1.0725999850524324e+00 5.3869728235840822e-06  2.4150059947881579e+00 1.1041459809361505e+00 -5.9843533438613077e-06  2.4006376618677847e+00 1.1354446692776232e+00 7.2893617347443924e-06  2.3861725515209598e+00 1.1665448170717334e+00 -8.7060230869100584e-06  2.3716250976638058e+00 1.1975010904496861e+00 1.0014767237558456e-05  2.3570296428777473e+00 1.2283003924349569e+00 -1.1136021913064233e-05  2.3424005542954314e+00 1.2590271970375491e+00 1.2624881041706427e-05  2.3277540064834521e+00 1.2896574115760084e+00 -1.4404297312953392e-05  2.3131046214623736e+00 1.3202355689334453e+00 1.7000644095078654e-05  2.2984715413245906e+00 1.3507394379802546e+00 -1.9839138939800529e-05  2.2838478997013136e+00 1.3812621989846785e+00 2.3587387192771436e-05  2.2692637472398545e+00 1.4116628571980054e+00 -2.6774034976632930e-05  2.2547080651195972e+00 1.4421186694684456e+00 2.9127649542405652e-05  2.2401972296413177e+00 1.4724972517235879e+00 -2.7945775160425819e-05  2.2257304986746900e+00 1.5028576370040909e+00 2.4140976679900234e-05  2.2113221987933787e+00 1.5331777002410771e+00 -1.8242703131255611e-05  2.1969590898024736e+00 1.5635107012477054e+00 1.5224198803834567e-05  2.1826660345639026e+00 1.5937223040935755e+00 -1.5645612744767045e-05  2.1684319583713831e+00 1.6239676619114185e+00 2.0151119185499463e-05  2.1542656030678211e+00 1.6541252966617599e+00 -2.4126724189281462e-05  2.1401702207746789e+00 1.6842382270418470e+00 2.7396115889560257e-05  2.1261583187470929e+00 1.7142457720114612e+00 -2.7712743122051262e-05  2.1122131434238920e+00 1.7442713201611371e+00 2.6134263722084187e-05  2.0983686733617208e+00 1.7740844288945314e+00 -2.1153424406099483e-05  2.0846062754985146e+00 1.8039035693208088e+00 1.6157788977618486e-05  2.0709451907122696e+00 1.8335456988035557e+00 -1.3057513757892185e-05  2.0573885214551062e+00 1.8630855143245004e+00 1.2941437110805546e-05  2.0439496042544842e+00 1.8924443126208426e+00 -1.2156585812558815e-05  2.0306290694536093e+00 1.9216733031747997e+00 1.0194153713465795e-05  2.0174494965670320e+00 1.9506396015677177e+00 -6.9074106016582013e-06  2.0044212289538179e+00 1.9794084714899178e+00 4.5990918803923168e-06  1.9915592067227621e+00 2.0078922092644111e+00 -2.1676816487209165e-06  1.9788881154090467e+00 2.0360239613510074e+00 1.6098558803298214e-06  1.9664404252075793e+00 2.0637667692129171e+00 -2.5344182804212753e-06  1.9542376003873558e+00 2.0910536599780483e+00 3.9466197662993774e-06  1.9423295032640386e+00 2.1177431221603045e+00 -3.8841677933447572e-06  1.9307754725524275e+00 2.1437344628757682e+00 3.5930055455978920e-06  1.9196278177100239e+00 2.1688868981777483e+00 -4.1320452695546755e-06  1.9089796220150670e+00 2.1929608667797256e+00 3.6143248163327794e-06  1.8989459341580632e+00 2.2157310955176390e+00 -4.1719684291135657e-06  1.8896325579611202e+00 2.2369127435419465e+00 5.4692856129019988e-06  1.8811983161280259e+00 2.2561279854252989e+00 -7.1722682205499508e-06  1.8737952866369958e+00 2.2730437741327232e+00 9.7271029811817200e-06  1.8675566524339997e+00 2.2873220055210783e+00 -5.9537006473652336e-06  1.8625655790772901e+00 2.2987554073363170e+00 1.2187757017896073e-05  1.8588336385448938e+00 2.3073165507558273e+00 -6.6929396988099140e-06  1.8562264275780702e+00 2.3133068954131213e+00 1.2975286544909269e-05  1.8545295361231044e+00 2.3171884678436321e+00 -1.2378201194832258e-05  1.8534535363501221e+00 2.3196669569472874e+00 9.8721389463041030e-06  1.8527802569428398e+00 2.3212010202988087e+00 -1.4725534564786981e-05  1.8522947106456626e+00 2.3223107851532081e+00 7.9396877041284947e-06  1.8519163528000269e+00 2.3231699171017306e+00 -1.2416998014252713e-05  1.8516002617062415e+00 2.3238913710559319e+00 1.0498224220631198e-05  1.8513115292335582e+00 2.3245458443247236e+00 -1.2397884013447605e-05  1.8510303033115196e+00 2.3251847405550898e+00 1.2120360431561475e-05  1.8507994867057174e+00 2.32570672970938