<?xml version="1.0"?>
<VTKFile type="UnstructuredGrid"  version="0.1"  >
<UnstructuredGrid>
<Piece  NumberOfPoints="8241" NumberOfCells="16000">
<Points>
<DataArray  type="Float64"  NumberOfComponents="3"  format="ascii">-5 -1 0  -4.95 -1 0  -4.9 -1 0  -4.85 -1 0  -4.8 -1 0  -4.75 -1 0  -4.7 -1 0  -4.65 -1 0  -4.6 -1 0  -4.55 -1 0  -4.5 -1 0  -4.45 -1 0  -4.4 -1 0  -4.35 -1 0  -4.3 -1 0  -4.25 -1 0  -4.2 -1 0  -4.15 -1 0  -4.1 -1 0  -4.05 -1 0  -4 -1 0  -3.95 -1 0  -3.9 -1 0  -3.85 -1 0  -3.8 -1 0  -3.75 -1 0  -3.7 -1 0  -3.65 -1 0  -3.6 -1 0  -3.55 -1 0  -3.5 -1 0  -3.45 -1 0  -3.4 -1 0  -3.35 -1 0  -3.3 -1 0  -3.25 -1 0  -3.2 -1 0  -3.15 -1 0  -3.1 -1 0  -3.05 -1 0  -3 -1 0  -2.95 -1 0  -2.9 -1 0  -2.85 -1 0  -2.8 -1 0  -2.75 -1 0  -2.7 -1 0  -2.65 -1 0  -2.6 -1 0  -2.55 -1 0  -2.5 -1 0  -2.45 -1 0  -2.4 -1 0  -2.35 -1 0  -2.3 -1 0  -2.25 -1 0  -2.2 -1 0  -2.15 -1 0  -2.1 -1 0  -2.05 -1 0  -2 -1 0  -1.95 -1 0  -1.9 -1 0  -1.85 -1 0  -1.8 -1 0  -1.75 -1 0  -1.7 -1 0  -1.65 -1 0  -1.6 -1 0  -1.55 -1 0  -1.5 -1 0  -1.45 -1 0  -1.4 -1 0  -1.35 -1 0  -1.3 -1 0  -1.25 -1 0  -1.2 -1 0  -1.15 -1 0  -1.1 -1 0  -1.05 -1 0  -1 -1 0  -0.9500000000000002 -1 0  -0.9000000000000004 -1 0  -0.8499999999999996 -1 0  -0.7999999999999998 -1 0  -0.75 -1 0  -0.7000000000000002 -1 0  -0.6500000000000004 -1 0  -0.5999999999999996 -1 0  -0.5499999999999998 -1 0  -0.5 -1 0  -0.4500000000000002 -1 0  -0.4000000000000004 -1 0  -0.3499999999999996 -1 0  -0.2999999999999998 -1 0  -0.25 -1 0  -0.2000000000000002 -1 0  -0.1500000000000004 -1 0  -0.09999999999999964 -1 0  -0.04999999999999982 -1 0  0 -1 0  0.04999999999999982 -1 0  0.09999999999999964 -1 0  0.1500000000000004 -1 0  0.2000000000000002 -1 0  0.25 -1 0  0.2999999999999998 -1 0  0.3499999999999996 -1 0  0.4000000000000004 -1 0  0.4500000000000002 -1 0  0.5 -1 0  0.5499999999999998 -1 0  0.5999999999999996 -1 0  0.6500000000000004 -1 0  0.7000000000000002 -1 0  0.75 -1 0  0.7999999999999998 -1 0  0.8499999999999996 -1 0  0.9000000000000004 -1 0  0.9500000000000002 -1 0  1 -1 0  1.05 -1 0  1.1 -1 0  1.15 -1 0  1.2 -1 0  1.25 -1 0  1.3 -1 0  1.35 -1 0  1.4 -1 0  1.45 -1 0  1.5 -1 0  1.55 -1 0  1.6 -1 0  1.65 -1 0  1.7 -1 0  1.75 -1 0  1.8 -1 0  1.85 -1 0  1.9 -1 0  1.95 -1 0  2 -1 0  2.05 -1 0  2.1 -1 0  2.15 -1 0  2.2 -1 0  2.25 -1 0  2.3 -1 0  2.35 -1 0  2.4 -1 0  2.45 -1 0  2.5 -1 0  2.55 -1 0  2.6 -1 0  2.65 -1 0  2.7 -1 0  2.75 -1 0  2.8 -1 0  2.85 -1 0  2.9 -1 0  2.95 -1 0  3 -1 0  3.050000000000001 -1 0  3.1 -1 0  3.15 -1 0  3.199999999999999 -1 0  3.25 -1 0  3.300000000000001 -1 0  3.35 -1 0  3.4 -1 0  3.449999999999999 -1 0  3.5 -1 0  3.550000000000001 -1 0  3.6 -1 0  3.65 -1 0  3.699999999999999 -1 0  3.75 -1 0  3.800000000000001 -1 0  3.85 -1 0  3.9 -1 0  3.949999999999999 -1 0  4 -1 0  4.050000000000001 -1 0  4.1 -1 0  4.15 -1 0  4.199999999999999 -1 0  4.25 -1 0  4.300000000000001 -1 0  4.35 -1 0  4.4 -1 0  4.449999999999999 -1 0  4.5 -1 0  4.550000000000001 -1 0  4.6 -1 0  4.65 -1 0  4.699999999999999 -1 0  4.75 -1 0  4.800000000000001 -1 0  4.85 -1 0  4.9 -1 0  4.949999999999999 -1 0  5 -1 0  -5 -0.95 0  -4.95 -0.95 0  -4.9 -0.95 0  -4.85 -0.95 0  -4.8 -0.95 0  -4.75 -0.95 0  -4.7 -0.95 0  -4.65 -0.95 0  -4.6 -0.95 0  -4.55 -0.95 0  -4.5 -0.95 0  -4.45 -0.95 0  -4.4 -0.95 0  -4.35 -0.95 0  -4.3 -0.95 0  -4.25 -0.95 0  -4.2 -0.95 0  -4.15 -0.95 0  -4.1 -0.95 0  -4.05 -0.95 0  -4 -0.95 0  -3.95 -0.95 0  -3.9 -0.95 0  -3.85 -0.95 0  -3.8 -0.95 0  -3.75 -0.95 0  -3.7 -0.95 0  -3.65 -0.95 0  -3.6 -0.95 0  -3.55 -0.95 0  -3.5 -0.95 0  -3.45 -0.95 0  -3.4 -0.95 0  -3.35 -0.95 0  -3.3 -0.95 0  -3.25 -0.95 0  -3.2 -0.95 0  -3.15 -0.95 0  -3.1 -0.95 0  -3.05 -0.95 0  -3 -0.95 0  -2.95 -0.95 0  -2.9 -0.95 0  -2.85 -0.95 0  -2.8 -0.95 0  -2.75 -0.95 0  -2.7 -0.95 0  -2.65 -0.95 0  -2.6 -0.95 0  -2.55 -0.95 0  -2.5 -0.95 0  -2.45 -0.95 0  -2.4 -0.95 0  -2.35 -0.95 0  -2.3 -0.95 0  -2.25 -0.95 0  -2.2 -0.95 0  -2.15 -0.95 0  -2.1 -0.95 0  -2.05 -0.95 0  -2 -0.95 0  -1.95 -0.95 0  -1.9 -0.95 0  -1.85 -0.95 0  -1.8 -0.95 0  -1.75 -0.95 0  -1.7 -0.95 0  -1.65 -0.95 0  -1.6 -0.95 0  -1.55 -0.95 0  -1.5 -0.95 0  -1.45 -0.95 0  -1.4 -0.95 0  -1.35 -0.95 0  -1.3 -0.95 0  -1.25 -0.95 0  -1.2 -0.95 0  -1.15 -0.95 0  -1.1 -0.95 0  -1.05 -0.95 0  -1 -0.95 0  -0.9500000000000002 -0.95 0  -0.9000000000000004 -0.95 0  -0.8499999999999996 -0.95 0  -0.7999999999999998 -0.95 0  -0.75 -0.95 0  -0.7000000000000002 -0.95 0  -0.6500000000000004 -0.95 0  -0.5999999999999996 -0.95 0  -0.5499999999999998 -0.95 0  -0.5 -0.95 0  -0.4500000000000002 -0.95 0  -0.4000000000000004 -0.95 0  -0.3499999999999996 -0.95 0  -0.2999999999999998 -0.95 0  -0.25 -0.95 0  -0.2000000000000002 -0.95 0  -0.1500000000000004 -0.95 0  -0.09999999999999964 -0.95 0  -0.04999999999999982 -0.95 0  0 -0.95 0  0.04999999999999982 -0.95 0  0.09999999999999964 -0.95 0  0.1500000000000004 -0.95 0  0.2000000000000002 -0.95 0  0.25 -0.95 0  0.2999999999999998 -0.95 0  0.3499999999999996 -0.95 0  0.4000000000000004 -0.95 0  0.4500000000000002 -0.95 0  0.5 -0.95 0  0.5499999999999998 -0.95 0  0.5999999999999996 -0.95 0  0.6500000000000004 -0.95 0  0.7000000000000002 -0.95 0  0.75 -0.95 0  0.7999999999999998 -0.95 0  0.8499999999999996 -0.95 0  0.9000000000000004 -0.95 0  0.9500000000000002 -0.95 0  1 -0.95 0  1.05 -0.95 0  1.1 -0.95 0  1.15 -0.95 0  1.2 -0.95 0  1.25 -0.95 0  1.3 -0.95 0  1.35 -0.95 0  1.4 -0.95 0  1.45 -0.95 0  1.5 -0.95 0  1.55 -0.95 0  1.6 -0.95 0  1.65 -0.95 0  1.7 -0.95 0  1.75 -0.95 0  1.8 -0.95 0  1.85 -0.95 0  1.9 -0.95 0  1.95 -0.95 0  2 -0.95 0  2.05 -0.95 0  2.1 -0.95 0  2.15 -0.95 0  2.2 -0.95 0  2.25 -0.95 0  2.3 -0.95 0  2.35 -0.95 0  2.4 -0.95 0  2.45 -0.95 0  2.5 -0.95 0  2.55 -0.95 0  2.6 -0.95 0  2.65 -0.95 0  2.7 -0.95 0  2.75 -0.95 0  2.8 -0.95 0  2.85 -0.95 0  2.9 -0.95 0  2.95 -0.95 0  3 -0.95 0  3.050000000000001 -0.95 0  3.1 -0.95 0  3.15 -0.95 0  3.199999999999999 -0.95 0  3.25 -0.95 0  3.300000000000001 -0.95 0  3.35 -0.95 0  3.4 -0.95 0  3.449999999999999 -0.95 0  3.5 -0.95 0  3.550000000000001 -0.95 0  3.6 -0.95 0  3.65 -0.95 0  3.699999999999999 -0.95 0  3.75 -0.95 0  3.800000000000001 -0.95 0  3.85 -0.95 0  3.9 -0.95 0  3.949999999999999 -0.95 0  4 -0.95 0  4.050000000000001 -0.95 0  4.1 -0.95 0  4.15 -0.95 0  4.199999999999999 -0.95 0  4.25 -0.95 0  4.300000000000001 -0.95 0  4.35 -0.95 0  4.4 -0.95 0  4.449999999999999 -0.95 0  4.5 -0.95 0  4.550000000000001 -0.95 0  4.6 -0.95 0  4.65 -0.95 0  4.699999999999999 -0.95 0  4.75 -0.95 0  4.800000000000001 -0.95 0  4.85 -0.95 0  4.9 -0.95 0  4.949999999999999 -0.95 0  5 -0.95 0  -5 -0.9 0  -4.95 -0.9 0  -4.9 -0.9 0  -4.85 -0.9 0  -4.8 -0.9 0  -4.75 -0.9 0  -4.7 -0.9 0  -4.65 -0.9 0  -4.6 -0.9 0  -4.55 -0.9 0  -4.5 -0.9 0  -4.45 -0.9 0  -4.4 -0.9 0  -4.35 -0.9 0  -4.3 -0.9 0  -4.25 -0.9 0  -4.2 -0.9 0  -4.15 -0.9 0  -4.1 -0.9 0  -4.05 -0.9 0  -4 -0.9 0  -3.95 -0.9 0  -3.9 -0.9 0  -3.85 -0.9 0  -3.8 -0.9 0  -3.75 -0.9 0  -3.7 -0.9 0  -3.65 -0.9 0  -3.6 -0.9 0  -3.55 -0.9 0  -3.5 -0.9 0  -3.45 -0.9 0  -3.4 -0.9 0  -3.35 -0.9 0  -3.3 -0.9 0  -3.25 -0.9 0  -3.2 -0.9 0  -3.15 -0.9 0  -3.1 -0.9 0  -3.05 -0.9 0  -3 -0.9 0  -2.95 -0.9 0  -2.9 -0.9 0  -2.85 -0.9 0  -2.8 -0.9 0  -2.75 -0.9 0  -2.7 -0.9 0  -2.65 -0.9 0  -2.6 -0.9 0  -2.55 -0.9 0  -2.5 -0.9 0  -2.45 -0.9 0  -2.4 -0.9 0  -2.35 -0.9 0  -2.3 -0.9 0  -2.25 -0.9 0  -2.2 -0.9 0  -2.15 -0.9 0  -2.1 -0.9 0  -2.05 -0.9 0  -2 -0.9 0  -1.95 -0.9 0  -1.9 -0.9 0  -1.85 -0.9 0  -1.8 -0.9 0  -1.75 -0.9 0  -1.7 -0.9 0  -1.65 -0.9 0  -1.6 -0.9 0  -1.55 -0.9 0  -1.5 -0.9 0  -1.45 -0.9 0  -1.4 -0.9 0  -1.35 -0.9 0  -1.3 -0.9 0  -1.25 -0.9 0  -1.2 -0.9 0  -1.15 -0.9 0  -1.1 -0.9 0  -1.05 -0.9 0  -1 -0.9 0  -0.9500000000000002 -0.9 0  -0.9000000000000004 -0.9 0  -0.8499999999999996 -0.9 0  -0.7999999999999998 -0.9 0  -0.75 -0.9 0  -0.7000000000000002 -0.9 0  -0.6500000000000004 -0.9 0  -0.5999999999999996 -0.9 0  -0.5499999999999998 -0.9 0  -0.5 -0.9 0  -0.4500000000000002 -0.9 0  -0.4000000000000004 -0.9 0  -0.3499999999999996 -0.9 0  -0.2999999999999998 -0.9 0  -0.25 -0.9 0  -0.2000000000000002 -0.9 0  -0.1500000000000004 -0.9 0  -0.09999999999999964 -0.9 0  -0.04999999999999982 -0.9 0  0 -0.9 0  0.04999999999999982 -0.9 0  0.09999999999999964 -0.9 0  0.1500000000000004 -0.9 0  0.2000000000000002 -0.9 0  0.25 -0.9 0  0.2999999999999998 -0.9 0  0.3499999999999996 -0.9 0  0.4000000000000004 -0.9 0  0.4500000000000002 -0.9 0  0.5 -0.9 0  0.5499999999999998 -0.9 0  0.5999999999999996 -0.9 0  0.6500000000000004 -0.9 0  0.7000000000000002 -0.9 0  0.75 -0.9 0  0.7999999999999998 -0.9 0  0.8499999999999996 -0.9 0  0.9000000000000004 -0.9 0  0.9500000000000002 -0.9 0  1 -0.9 0  1.05 -0.9 0  1.1 -0.9 0  1.15 -0.9 0  1.2 -0.9 0  1.25 -0.9 0  1.3 -0.9 0  1.35 -0.9 0  1.4 -0.9 0  1.45 -0.9 0  1.5 -0.9 0  1.55 -0.9 0  1.6 -0.9 0  1.65 -0.9 0  1.7 -0.9 0  1.75 -0.9 0  1.8 -0.9 0  1.85 -0.9 0  1.9 -0.9 0  1.95 -0.9 0  2 -0.9 0  2.05 -0.9 0  2.1 -0.9 0  2.15 -0.9 0  2.2 -0.9 0  2.25 -0.9 0  2.3 -0.9 0  2.35 -0.9 0  2.4 -0.9 0  2.45 -0.9 0  2.5 -0.9 0  2.55 -0.9 0  2.6 -0.9 0  2.65 -0.9 0  2.7 -0.9 0  2.75 -0.9 0  2.8 -0.9 0  2.85 -0.9 0  2.9 -0.9 0  2.95 -0.9 0  3 -0.9 0  3.050000000000001 -0.9 0  3.1 -0.9 0  3.15 -0.9 0  3.199999999999999 -0.9 0  3.25 -0.9 0  3.300000000000001 -0.9 0  3.35 -0.9 0  3.4 -0.9 0  3.449999999999999 -0.9 0  3.5 -0.9 0  3.550000000000001 -0.9 0  3.6 -0.9 0  3.65 -0.9 0  3.699999999999999 -0.9 0  3.75 -0.9 0  3.800000000000001 -0.9 0  3.85 -0.9 0  3.9 -0.9 0  3.949999999999999 -0.9 0  4 -0.9 0  4.050000000000001 -0.9 0  4.1 -0.9 0  4.15 -0.9 0  4.199999999999999 -0.9 0  4.25 -0.9 0  4.300000000000001 -0.9 0  4.35 -0.9 0  4.4 -0.9 0  4.449999999999999 -0.9 0  4.5 -0.9 0  4.550000000000001 -0.9 0  4.6 -0.9 0  4.65 -0.9 0  4.699999999999999 -0.9 0  4.75 -0.9 0  4.800000000000001 -0.9 0  4.85 -0.9 0  4.9 -0.9 0  4.949999999999999 -0.9 0  5 -0.9 0  -5 -0.85 0  -4.95 -0.85 0  -4.9 -0.85 0  -4.85 -0.85 0  -4.8 -0.85 0  -4.75 -0.85 0  -4.7 -0.85 0  -4.65 -0.85 0  -4.6 -0.85 0  -4.55 -0.85 0  -4.5 -0.85 0  -
[...]
<PointData  Vectors="f_15"> 
<DataArray  type="Float64"  Name="f_15"  NumberOfComponents="3" format="ascii">2.5724913086193029e+00 0.0000000000000000e+00 0.0000000000000000e+00  2.5722642620179546e+00 4.8113471396705867e-02 0.0000000000000000e+00  2.5715635770989009e+00 9.6157725465221902e-02 0.0000000000000000e+00  2.5704043027167591e+00 1.4409509027020428e-01 0.0000000000000000e+00  2.5687695253741123e+00 1.9183669147996285e-01 0.0000000000000000e+00  2.5666632595636401e+00 2.3934132724845003e-01 0.0000000000000000e+00  2.5640690944259221e+00 2.8653968664229590e-01 0.0000000000000000e+00  2.5609949735552746e+00 3.3337078476294024e-01 0.0000000000000000e+00  2.5574125337309752e+00 3.7978409793069162e-01 0.0000000000000000e+00  2.5533332750229571e+00 4.2571047499388620e-01 0.0000000000000000e+00  2.5487325048213103e+00 4.7110592551634178e-01 0.0000000000000000e+00  2.5436144578802287e+00 5.1590550248539813e-01 0.0000000000000000e+00  2.5379565273647100e+00 5.6007310675880106e-01 0.0000000000000000e+00  2.5317731433424111e+00 6.0354305116074869e-01 0.0000000000000000e+00  2.5250339614346076e+00 6.4629801216053806e-01 0.0000000000000000e+00  2.5177608076612121e+00 6.8827770136070376e-01 0.0000000000000000e+00  2.5099344079531516e+00 7.2947188232503712e-01 0.0000000000000000e+00  2.5015750290475043e+00 7.6984719423301617e-01 0.0000000000000000e+00  2.4926695361584201e+00 8.0939711783578583e-01 0.0000000000000000e+00  2.4832560981578271e+00 8.4810918631250320e-01 0.0000000000000000e+00  2.4733190602931225e+00 8.8599662371383348e-01 0.0000000000000000e+00  2.4629056575333981e+00 9.2306955099123122e-01 0.0000000000000000e+00  2.4520181231039380e+00 9.5933799171469925e-01 0.0000000000000000e+00  2.4407017979190035e+00 9.9486894832880335e-01 0.0000000000000000e+00  2.4289650358696568e+00 1.0296451962353563e+00 0.0000000000000000e+00  2.4168707083002805e+00 1.0637780288998684e+00 0.0000000000000000e+00  2.4044209290354517e+00 1.0972523596204982e+00 0.0000000000000000e+00  2.3916807070748467e+00 1.1301879673030097e+00 0.0000000000000000e+00  2.3786664097110437e+00 1.1625646871115221e+00 0.0000000000000000e+00  2.3654305649903682e+00 1.1945396567502855e+00 0.0000000000000000e+00  2.3519880607474204e+00 1.2260408715437314e+00 0.0000000000000000e+00  2.3384012262200273e+00 1.2572629128289541e+00 0.0000000000000000e+00  2.3246671123694043e+00 1.2881195538995991e+00 0.0000000000000000e+00  2.3108458223039365e+00 1.3187783404682405e+00 0.0000000000000000e+00  2.2969391164407496e+00 1.3491571899100274e+00 0.0000000000000000e+00  2.2829892348046030e+00 1.3794356018183600e+00 0.0000000000000000e+00  2.2689942068309805e+00 1.4094775629023564e+00 0.0000000000000000e+00  2.2550022164391210e+00 1.4394597492435093e+00 0.0000000000000000e+00  2.2409903154939208e+00 1.4693115879403869e+00 0.0000000000000000e+00  2.2270094948776205e+00 1.4990731991120652e+00 0.0000000000000000e+00  2.2130398059755882e+00 1.5287370498148887e+00 0.0000000000000000e+00  2.1991129134350968e+00 1.5584121884484969e+00 0.0000000000000000e+00  2.1852177791254195e+00 1.5878907936931255e+00 0.0000000000000000e+00  2.1713849533792646e+00 1.6174361139774327e+00 0.0000000000000000e+00  2.1575899978926416e+00 1.6468408065475379e+00 0.0000000000000000e+00  2.1438717902842583e+00 1.6762178434233217e+00 0.0000000000000000e+00  2.1302077407802269e+00 1.7054818154422360e+00 0.0000000000000000e+00  2.1166235452209250e+00 1.7347566848115918e+00 0.0000000000000000e+00  2.1031049676945432e+00 1.7638427102039143e+00 0.0000000000000000e+00  2.0896869408942580e+00 1.7929188669759550e+00 0.0000000000000000e+00  2.0763317485090242e+00 1.8218611822059483e+00 0.0000000000000000e+00  2.0630983441380053e+00 1.8506738480722242e+00 0.0000000000000000e+00  2.0499452068374082e+00 1.8793778255957023e+00 0.0000000000000000e+00  2.0369215765642705e+00 1.9079121784372104e+00 0.0000000000000000e+00  2.0240013578934812e+00 1.9362726282913068e+00 0.0000000000000000e+00  2.0112399902504463e+00 1.9644098207483143e+00 0.0000000000000000e+00  1.9985971786939267e+00 1.9923576927341835e+00 0.0000000000000000e+00  1.9861528442093004e+00 2.0199464225500470e+00 0.0000000000000000e+00  1.9738687514384479e+00 2.0472693556843113e+00 0.0000000000000000e+00  1.9618268407197412e+00 2.0741541288433001e+00 0.0000000000000000e+00  1.9500060780320851e+00 2.1005887061410280e+00 0.0000000000000000e+00  1.9385119287368116e+00 2.1264099376402137e+00 0.0000000000000000e+00  1.9273284082932753e+00 2.1515747361956801e+00 0.0000000000000000e+00  1.9165878143139654e+00 2.1758370127459088e+00 0.0000000000000000e+00  1.9063226473060861e+00 2.1990559276375770e+00 0.0000000000000000e+00  1.8966768269805279e+00 2.2209908251675472e+00 0.0000000000000000e+00  1.8877277692381933e+00 2.2413047236882777e+00 0.0000000000000000e+00  1.8796777684709471e+00 2.2597084909993130e+00 0.0000000000000000e+00  1.8726018041478087e+00 2.2758376287830120e+00 0.0000000000000000e+00  1.8666831805527078e+00 2.2894213637048435e+00 0.0000000000000000e+00  1.8619597458637591e+00 2.3001998081649480e+00 0.0000000000000000e+00  1.8584406710576507e+00 2.3083215178183503e+00 0.0000000000000000e+00  1.8559718474649054e+00 2.3139271771550214e+00 0.0000000000000000e+00  1.8543787019998932e+00 2.3176355533715793e+00 0.0000000000000000e+00  1.8533620049068880e+00 2.3199262823161266e+00 0.0000000000000000e+00  1.8527182828505842e+00 2.3214339804353346e+00 0.0000000000000000e+00  1.8522560934588999e+00 2.3224608519087262e+00 0.0000000000000000e+00  1.8519054885987964e+00 2.3232909128060424e+00 0.0000000000000000e+00  1.8515888776556730e+00 2.3239803595246307e+00 0.0000000000000000e+00  1.8513017311439330e+00 2.3246631543737299e+00 0.0000000000000000e+00  1.8510438249355179e+00 2.3252180983380786e+00 0.0000000000000000e+00  1.8507943717453021e+00 2.3258094798295654e+00 0.0000000000000000e+00  1.8505571774670768e+00 2.3263184266423593e+00 0.0000000000000000e+00  1.8503538504930452e+00 2.3268012856039566e+00 0.0000000000000000e+00  1.8501571514232023e+00 2.3272206837030933e+00 0.0000000000000000e+00  1.8499660193856784e+00 2.3276677792146510e+00 0.0000000000000000e+00  1.8498181664654443e+00 2.3279795291925720e+00 0.0000000000000000e+00  1.8496536524731226e+00 2.3283636068161888e+00 0.0000000000000000e+00  1.8495185246371275e+00 2.3286483510381362e+00 0.0000000000000000e+00  1.8493973030288404e+00 2.3289286483744873e+00 0.0000000000000000e+00  1.8492914612010931e+00 2.3291558615238186e+00 0.0000000000000000e+00  1.8491785598821806e+00 2.3294063703667782e+00 0.0000000000000000e+00  1.8491073470955752e+00 2.3295602497142012e+00 0.0000000000000000e+00  1.8490079829174129e+00 2.3297815106613080e+00 0.0000000000000000e+00  1.8489437484481563e+00 2.3299151322392180e+00 0.0000000000000000e+00  1.8488724179283775e+00 2.3300701135493864e+00 0.0000000000000000e+00  1.8488214699115559e+00 2.3301813157017146e+00 0.0000000000000000e+00  1.8487539917595550e+00 2.3303173760301159e+00 0.0000000000000000e+00  1.8487213449864595e+00 2.3303910745197340e+00 0.0000000000000000e+00  1.8486635120739159e+00 2.3305083987139610e+00 0.0000000000000000e+00  1.8486337761437457e+00 2.3305696923294836e+00 0.0000000000000000e+00  1.8485888263272925e+00 2.3306540063899761e+00 0.0000000000000000e+00  1.8485679178490064e+00 2.3307069567776559e+00 0.0000000000000000e+00  1.8485248687350897e+00 2.3307747896102704e+00 0.0000000000000000e+00  1.8485112128359296e+00 2.3308154284129805e+00 0.0000000000000000e+00  1.8484769869596929e+00 2.3308655629485733e+00 0.0000000000000000e+00  1.8484609385921178e+00 2.3309079126108991e+00 0.0000000000000000e+00  1.8484308660714364e+00 2.3309415975874894e+00 0.0000000000000000e+00  1.8484292295347584e+00 2.3309657836667297e+00 0.0000000000000000e+00  1.8483935391880293e+00 2.3310019351864493e+00 0.0000000000000000e+00  1.8483890743700937e+00 2.3310281535623916e+00 0.0000000000000000e+00  1.8483678549353106e+00 2.3310442315246926e+00 0.0000000000000000e+00  1.8483604473482382e+00 2.3310618833567385e+00 0.0000000000000000e+00  1.8483371178795183e+00 2.3310888191245946e+00 0.0000000000000000e+00  1.8483412031256803e+00 2.3310802434626718e+00 0.0000000000000000e+00  1.8483113253099712e+00 2.3311280309975300e+00 0.0000000000000000e+00  1.8483089889874320e+00 2.3311101818352662e+00 0.0000000000000000e+00  1.8483065822177682e+00 2.3311276326189105e+00 0.0000000000000000e+00  1.8482837004546158e+00 2.3311226634134248e+00 0.0000000000000000e+00  1.8482791208959848e+00 2.3311702425256731e+00 0.0000000000000000e+00  1.8482729260409849e+00 2.3311094519082247e+00 0.0000000000000000e+00  1.8482672539885621e+00 2.3311804296087844e+00 0.0000000000000000e+00  1.8482449248639450e+00 2.3311222302160606e+00 0.0000000000000000e+00  1.8482609485037891e+00 2.3311827177399760e+00 0.0000000000000000e+00  1.8482260253829819e+00 2.3311096601920256e+00 0.0000000000000000e+00  1.8482437092420696e+00 2.3312045149754934e+00 0.0000000000000000e+00  1.8482197058548719e+00 2.3310788615548672e+00 0.0000000000000000e+00  1.8482272254426646e+00 2.3312207536599114e+00 0.0000000000000000e+00  1.8481975074133543e+00 2.3310788010146037e+00 0.0000000000000000e+00  1.8482278566683228e+00 2.3311969227733282e+00 0.0000000000000000e+00  1.8481804155823465e+00 2.3310573884549166e+00 0.0000000000000000e+00  1.8482120770184527e+00 2.3312050299087175e+00 0.0000000000000000e+00  1.8481685015739915e+00 2.3310383666463728e+00 0.0000000000000000e+00  1.8482057733075445e+00 2.3311759766195066e+00 0.0000000000000000e+00  1.8481566285403508e+00 2.3310388327219487e+00 0.0000000000000000e+00  1.8481853586310031e+00 2.3311679394615159e+00 0.0000000000000000e+00  1.8481525564059942e+00 2.3310133216046709e+00 0.0000000000000000e+00  1.8481758938635198e+00 2.3310983272295864e+00 0.0000000000000000e+00  1.8481432029832952e+00 2.3310512079362851e+00 0.0000000000000000e+00  1.8481404750932526e+00 2.3309919316624903e+00 0.0000000000000000e+00  1.8481795279434488e+00 2.3310746972546634e+00 0.0000000000000000e+00  1.8480779108474656e+00 2.3308882301963858e+00 0.0000000000000000e+00  1.8482122905443681e+00 2.3311752892840931e+00 0.0000000000000000e+00  1.8480192140027694e+00 2.3306564985341560e+00 0.0000000000000000e+00  1.8482759185725539e+00 2.3313548440001077e+00 0.0000000000000000e+00  1.8478980009301862e+00 2.3303150091345310e+00 0.0000000000000000e+00  1.8483981658366848e+00 2.3315268714223061e+00 0.0000000000000000e+00  1.8477476870387586e+00 2.3298344416317684e+00 0.0000000000000000e+00  1.8485260028584545e+00 2.3316886548381088e+00 0.0000000000000000e+00  1.8475902486847329e+00 2.3291829447155088e+00 0.0000000000000000e+00  1.8486763528937535e+00 2.3318390896154675e+00 0.0000000000000000e+00  1.8473952075499114e+00 2.3283157924109958e+00 0.0000000000000000e+00  1.8488655767583018e+00 2.3319603762659149e+00 0.0000000000000000e+00  1.8471737626154010e+00 2.3272971958686060e+00 0.0000000000000000e+00  1.8490466736538964e+00 2.3319152770166363e+00 0.0000000000000000e+00  1.8470011637362611e+00 2.3262892812213853e+00 0.0000000000000000e+00  1.8491486307090479e+00 2.3316775112621064e+00 0.0000000000000000e+00  1.8468980742784824e+00 2.3253635667483143e+00 0.0000000000000000e+00  1.8492157938058866e+00 2.3313849724751181e+00 0.0000000000000000e+00  1.8467992033170442e+00 2.3245209278829488e+00 0.0000000000000000e+00  1.8492628685506241e+00 2.3311286527049888e+00 0.0000000000000000e+00  1.8467852574369386e+00 2.3239909678816209e+00 0.0000000000000000e+00  1.8491428613347667e+00 2.3305136767835650e+00 0.0000000000000000e+00  1.8469888010222000e+00 2.3242608073125726e+00 0.0000000000000000e+00  1.8488364590813906e+00 2.3294098295612553e+00 0.0000000000000000e+00  1.8472684919975995e+00 2.3247931221206044e+00 0.0000000000000000e+00  1.8486014081754010e+00 2.3287453247420586e+00 0.0000000000000000e+00  1.8474012643011075e+00 2.3248577444934120e+00 0.0000000000000000e+00  1.8484572223469649e+00 2.3282753121235595e+00 0.0000000000000000e+00  1.8476248018168864e+00 2.3255521446672969e+00 0.0000000000000000e+00  1.8480812729107303e+00 2.3267900195359852e+00 0.0000000000000000e+00  1.8480599696329552e+00 2.3270084431101075e+00 0.0000000000000000e+00  1.8477406376365726e+00 2.3255955528388967e+00 0.0000000000000000e+00  1.8481526432930127e+00 2.3271365470687262e+00 0.0000000000000000e+00  1.8479151365292308e+00 2.3262026269042408e+00 0.0000000000000000e+00  1.8477955467626392e+00 2.3260442926195020e+00 0.0000000000000000e+00  1.8482410302432131e+00 2.3269018646749031e+00 0.0000000000000000e+00  1.8476319560716279e+00 2.3260624752492394e+00 0.0000000000000000e+00  1.8481266366487190e+00 2.3259594713829665e+00 0.0000000000000000e+00  1.8479458511482905e+00 2.3272804078461253e+00 0.0000000000000000e+00  1.8477522399370170e+00 2.3251186756848661e+00 0.0000000000000000e+00  1.8481432207474080e+00 2.3270435320117260e+00 0.0000000000000000e+00  1.8477217406048352e+00 2.3263341026509772e+00 0.0000000000000000e+00  1.8479930646128531e+00 2.3255783041498601e+00 0.0000000000000000e+00  1.8478129845105333e+00 2.3270500752901815e+00 0.0000000000000000e+00  1.8480492025822011e+00 2.3261388127240612e+00 0.0000000000000000e+00  1.8473902085994807e+00 2.3249444637448842e+00 0.0000000000000000e+00  1.8489453157073463e+00 2.3297131227652503e+00 0.0000000000000000e+00  1.8462440413781696e+00 2.3195780038409688e+00 0.0000000000000000e+00  1.8513716182388147e+00 2.3315509950664772e+00 0.0000000000000000e+00  1.8210972774733456e+00 2.3763988009903483e+00 0.0000000000000000e+00  2.0250996650179434e+00 1.9429014680622938e+00 0.0000000000000000e+00  2.5950735379455834e+00 6.7148862383269026e-01 0.0000000000000000e+00  2.9100596754668997e+00 1.1152638160901988e-01 0.0000000000000000e+00  2.9657191693831604e+00 2.0635669736493070e-02 0.0000000000000000e+00  2.9589516996801390e+00 7.4973967092992512e-03 0.0000000000000000e+00  2.9714819214805206e+00 -5.1621399138546981e-03 0.0000000000000000e+00  2.9721301725260774e+00 -8.6964067476425454e-03 0.0000000000000000e+00  2.9731401472922370e+00 -1.3215931454155283e-02 0.0000000000000000e+00  2.9739912575981640e+00 -1.2934476288067823e-02 0.0000000000000000e+00  2.9729528533230627e+00 0.0000000000000000e+00 0.0000000000000000e+00  2.5724951305577490e+00 0.0000000000000000e+00 -1.4294105151190451e-05  2.5722620976127155e+00 4.8117562038262195e-02 6.1961988187875575e-06  2.5715658474242815e+00 9.6168656578814696e-02 -3.9771935889123992e-06  2.5704046694218938e+00 1.4410140276579950e-01 4.7232515919244242e-06  2.5687702782364394e+00 1.9184053197908821e-01 -5.7112457483339580e-06  2.5666614182672669e+00 2.3934996002035833e-01 5.6631449812016036e-06  2.5640727166235795e+00 2.8653873754639109e-01 -5.7709555202963987e-06  2.5609913244962064e+00 3.3337833912699177e-01 5.2889613489585284e-06  2.5574141077953612e+00 3.7978166477605207e-01 -5.2947242096687778e-06  2.5533321222588006e+00 4.2571488687071934e-01 5.2357638576785314e-06  2.5487329371726108e+00 4.7110223384447708e-01 -5.3875899152274002e-06  2.5436105449552691e+00 5.1590965564613522e-01 5.5687515054093470e-06  2.5379599765235361e+00 5.6006565194104463e-01 -5.4614430837235394e-06  2.5317679300812337e+00 6.0354759563966154e-01 5.7123585481525249e-06  2.5250347997708391e+00 6.4629079787845589e-01 -5.4646716809602628e-06  2.5177581756015019e+00 6.8827832323994664e-01 6.1644827259264481e-06  2.5099347639440110e+00 7.2946706535765982e-01 -6.0670632078331534e-06  2.5015688917473353e+00 7.6984756270007726e-01 7.1153390082517767e-06  2.4926730451087851e+00 8.0938973687018034e-01 -6.7566244509978711e-06  2.4832493533061961e+00 8.4811148599279784e-01 7.6902238286817185e-06  2.4733191033703155e+00 8.8599212512986381e-01 -7.2062537912895317e-06  2.4629019648374473e+00 9.2306499154297084e-01 8.5295882179286848e-06  2.4520182442586447e+00 9.5934238837621844e-01 -8.5860134193312984e-06  2.4406941860281224e+00 9.9486115818261989e-01 1.0065528794297994e-05  2.4289689715944993e+00 1.0296483145429582e+00 -9.8016253108186650e-06  2.4168633608091779e+00 1.0637759709076917e+00 1.0401866229868546e-05  2.4044212561505094e+00 1.0972554246305319e+00 -1.0155272855186296e-05  2.3916776464748297e+00 1.1301806582785026e+00 1.1599955327555182e-05  2.3786675810285538e+00 1.1625794277094885e+00 -1.3382273649527985e-05  2.3654238599956492e+00 1.1945260706449732e+00 1.5977591313463512e-05  2.3519946763129522e+00 1.2260531871499929e+00 -1.7824967510036603e-05  2.3383947013100337e+00 1.2572616100153848e+00 1.8943385196519001e-05  2.3246713226850146e+00 1.2881222612914813e+00 -1.9474999527398793e-05  2.3108443473917157e+00 1.3187739792746009e+00 1.9852674119901843e-05  2.2969437433037250e+00 1.3491738356432641e+00 -2.0401015794884169e-05  2.2829852797006440e+00 1.3794216418215342e+00 2.0720300616165893e-05  2.2690044440222539e+00 1.4094786531825585e+00 -2.0596102999005061e-05  2.2549972894146975e+00 1.4394792673202246e+00 1.9827794770619514e-05  2.2409987168749015e+00 1.4692856620182173e+00 -1.8180903314281755e-05  2.2270101572836611e+00 1.4990750925769598e+00 1.5911077286600321e-05  2.2130450603479503e+00 1.5287645980047440e+00 -1.2630934468556591e-05  2.1991130365404463e+00 1.5583616295208764e+00 1.0582356218807797e-05  2.1852270331238843e+00 1.5879164080326658e+00 -1.0961046369315086e-05  2.1713809133370785e+00 1.6174341324327868e+00 1.6287661660632370e-05  2.1575984541448965e+00 1.6468180626857931e+00 -2.2743179190494720e-05  2.1438704581062367e+00 1.6762139573067123e+00 2.8112030020964868e-05  2.1302119678913805e+00 1.7054961095027370e+00 -2.8449850435952967e-05  2.1166189651104776e+00 1.7347305535562059e+00 2.7407562874952828e-05  2.1031142926606079e+00 1.7638333041765870e+00 -2.5087128374369334e-05  2.0896750896904699e+00 1.7929369261495076e+00 2.3649165928648320e-05  2.0763401437336273e+00 1.8218206922869435e+00 -2.0901827643347887e-05  2.0630910448042767e+00 1.8506878035465628e+00 1.9357513040594560e-05  2.0499472165890857e+00 1.8793548665169788e+00 -1.7712422291594538e-05  2.0369138364187389e+00 1.9079050851095156e+00 1.6052105732585466e-05  2.0240073458841876e+00 1.9362429417351135e+00 -1.1886490766159327e-05  2.0112256980305019e+00 1.9644289142891498e+00 8.6511098120512680e-06  1.9986012561673701e+00 1.9923073054559977e+00 -6.0193826643060679e-06  1.9861402350970871e+00 2.0199536761374186e+00 4.9131947117110746e-06  1.9738667481637420e+00 2.0472546711556139e+00 -3.1347789690940523e-06  1.9618098912619715e+00 2.0741467740619215e+00 2.6647441574189116e-06  1.9500060875061029e+00 2.1005649649694811e+00 -2.8267915555483638e-06  1.9384889525183664e+00 2.1264232204193432e+00 3.1336784062535898e-06  1.9273186199328405e+00 2.1515604338859453e+00 -3.3994152864802497e-06  1.9165659224389344e+00 2.1758415478104634e+00 3.7506062492315160e-06  1.9063043990302377e+00 2.1990776774967808e+00 -4.4825883394831800e-06  1.8966427256120453e+00 2.2209942190135661e+00 3.3326499544075345e-06  1.8877169147796571e+00 2.2413107612075818e+00 -4.1616244471304714e-06  1.8796435471419473e+00 2.2597262533480516e+00 6.7825800638112961e-06  1.8725831864735458e+00 2.2758497089072947e+00 -6.7526363188551850e-06  1.8666634994027711e+00 2.2894036472116084e+00 1.0675810034453105e-05  1.8619502744744734e+00 2.3002075385217440e+00 -5.9805920755815789e-06  1.8584255047648557e+00 2.3082890721286229e+00 1.2575972090147993e-05  1.8559849934103925e+00 2.3138912357480552e+00 -8.8184444903301789e-06  1.8543791308139159e+00 2.3175837222568298e+00 1.0650224353957282e-05  1.8533697205696213e+00 2.3198816688078745e+00 -1.5302195068422092e-05  1.8527080620184020e+00 2.3214083640019849e+00 9.5145481197195942e-06  1.8522498255920641e+00 2.3224468313152178e+00 -1.4223734102946720e-05  1.8518744090680790e+00 2.3233045418166496e+00 9.6246326104952903e-06  1.8515582651280749e+00 2.3240222006245230e+00 -1.2439724918834908e-05  1.8512733029095512e+00 2.3246718753299076e+00 1.1496136566713131e-05  1.8510122678365921e+00 2.3252616383200970e+00 -1.2427290700686928e-05  1.8507556018598645e+00 2.3258482697990921e+00 1.2780506585845914e-05  1.8505442364020233e+00 2.326325049086