<?xml version="1.0"?>
<VTKFile type="UnstructuredGrid"  version="0.1"  >
<UnstructuredGrid>
<Piece  NumberOfPoints="8241" NumberOfCells="16000">
<Points>
<DataArray  type="Float64"  NumberOfComponents="3"  format="ascii">-5 -1 0  -4.95 -1 0  -4.9 -1 0  -4.85 -1 0  -4.8 -1 0  -4.75 -1 0  -4.7 -1 0  -4.65 -1 0  -4.6 -1 0  -4.55 -1 0  -4.5 -1 0  -4.45 -1 0  -4.4 -1 0  -4.35 -1 0  -4.3 -1 0  -4.25 -1 0  -4.2 -1 0  -4.15 -1 0  -4.1 -1 0  -4.05 -1 0  -4 -1 0  -3.95 -1 0  -3.9 -1 0  -3.85 -1 0  -3.8 -1 0  -3.75 -1 0  -3.7 -1 0  -3.65 -1 0  -3.6 -1 0  -3.55 -1 0  -3.5 -1 0  -3.45 -1 0  -3.4 -1 0  -3.35 -1 0  -3.3 -1 0  -3.25 -1 0  -3.2 -1 0  -3.15 -1 0  -3.1 -1 0  -3.05 -1 0  -3 -1 0  -2.95 -1 0  -2.9 -1 0  -2.85 -1 0  -2.8 -1 0  -2.75 -1 0  -2.7 -1 0  -2.65 -1 0  -2.6 -1 0  -2.55 -1 0  -2.5 -1 0  -2.45 -1 0  -2.4 -1 0  -2.35 -1 0  -2.3 -1 0  -2.25 -1 0  -2.2 -1 0  -2.15 -1 0  -2.1 -1 0  -2.05 -1 0  -2 -1 0  -1.95 -1 0  -1.9 -1 0  -1.85 -1 0  -1.8 -1 0  -1.75 -1 0  -1.7 -1 0  -1.65 -1 0  -1.6 -1 0  -1.55 -1 0  -1.5 -1 0  -1.45 -1 0  -1.4 -1 0  -1.35 -1 0  -1.3 -1 0  -1.25 -1 0  -1.2 -1 0  -1.15 -1 0  -1.1 -1 0  -1.05 -1 0  -1 -1 0  -0.9500000000000002 -1 0  -0.9000000000000004 -1 0  -0.8499999999999996 -1 0  -0.7999999999999998 -1 0  -0.75 -1 0  -0.7000000000000002 -1 0  -0.6500000000000004 -1 0  -0.5999999999999996 -1 0  -0.5499999999999998 -1 0  -0.5 -1 0  -0.4500000000000002 -1 0  -0.4000000000000004 -1 0  -0.3499999999999996 -1 0  -0.2999999999999998 -1 0  -0.25 -1 0  -0.2000000000000002 -1 0  -0.1500000000000004 -1 0  -0.09999999999999964 -1 0  -0.04999999999999982 -1 0  0 -1 0  0.04999999999999982 -1 0  0.09999999999999964 -1 0  0.1500000000000004 -1 0  0.2000000000000002 -1 0  0.25 -1 0  0.2999999999999998 -1 0  0.3499999999999996 -1 0  0.4000000000000004 -1 0  0.4500000000000002 -1 0  0.5 -1 0  0.5499999999999998 -1 0  0.5999999999999996 -1 0  0.6500000000000004 -1 0  0.7000000000000002 -1 0  0.75 -1 0  0.7999999999999998 -1 0  0.8499999999999996 -1 0  0.9000000000000004 -1 0  0.9500000000000002 -1 0  1 -1 0  1.05 -1 0  1.1 -1 0  1.15 -1 0  1.2 -1 0  1.25 -1 0  1.3 -1 0  1.35 -1 0  1.4 -1 0  1.45 -1 0  1.5 -1 0  1.55 -1 0  1.6 -1 0  1.65 -1 0  1.7 -1 0  1.75 -1 0  1.8 -1 0  1.85 -1 0  1.9 -1 0  1.95 -1 0  2 -1 0  2.05 -1 0  2.1 -1 0  2.15 -1 0  2.2 -1 0  2.25 -1 0  2.3 -1 0  2.35 -1 0  2.4 -1 0  2.45 -1 0  2.5 -1 0  2.55 -1 0  2.6 -1 0  2.65 -1 0  2.7 -1 0  2.75 -1 0  2.8 -1 0  2.85 -1 0  2.9 -1 0  2.95 -1 0  3 -1 0  3.050000000000001 -1 0  3.1 -1 0  3.15 -1 0  3.199999999999999 -1 0  3.25 -1 0  3.300000000000001 -1 0  3.35 -1 0  3.4 -1 0  3.449999999999999 -1 0  3.5 -1 0  3.550000000000001 -1 0  3.6 -1 0  3.65 -1 0  3.699999999999999 -1 0  3.75 -1 0  3.800000000000001 -1 0  3.85 -1 0  3.9 -1 0  3.949999999999999 -1 0  4 -1 0  4.050000000000001 -1 0  4.1 -1 0  4.15 -1 0  4.199999999999999 -1 0  4.25 -1 0  4.300000000000001 -1 0  4.35 -1 0  4.4 -1 0  4.449999999999999 -1 0  4.5 -1 0  4.550000000000001 -1 0  4.6 -1 0  4.65 -1 0  4.699999999999999 -1 0  4.75 -1 0  4.800000000000001 -1 0  4.85 -1 0  4.9 -1 0  4.949999999999999 -1 0  5 -1 0  -5 -0.95 0  -4.95 -0.95 0  -4.9 -0.95 0  -4.85 -0.95 0  -4.8 -0.95 0  -4.75 -0.95 0  -4.7 -0.95 0  -4.65 -0.95 0  -4.6 -0.95 0  -4.55 -0.95 0  -4.5 -0.95 0  -4.45 -0.95 0  -4.4 -0.95 0  -4.35 -0.95 0  -4.3 -0.95 0  -4.25 -0.95 0  -4.2 -0.95 0  -4.15 -0.95 0  -4.1 -0.95 0  -4.05 -0.95 0  -4 -0.95 0  -3.95 -0.95 0  -3.9 -0.95 0  -3.85 -0.95 0  -3.8 -0.95 0  -3.75 -0.95 0  -3.7 -0.95 0  -3.65 -0.95 0  -3.6 -0.95 0  -3.55 -0.95 0  -3.5 -0.95 0  -3.45 -0.95 0  -3.4 -0.95 0  -3.35 -0.95 0  -3.3 -0.95 0  -3.25 -0.95 0  -3.2 -0.95 0  -3.15 -0.95 0  -3.1 -0.95 0  -3.05 -0.95 0  -3 -0.95 0  -2.95 -0.95 0  -2.9 -0.95 0  -2.85 -0.95 0  -2.8 -0.95 0  -2.75 -0.95 0  -2.7 -0.95 0  -2.65 -0.95 0  -2.6 -0.95 0  -2.55 -0.95 0  -2.5 -0.95 0  -2.45 -0.95 0  -2.4 -0.95 0  -2.35 -0.95 0  -2.3 -0.95 0  -2.25 -0.95 0  -2.2 -0.95 0  -2.15 -0.95 0  -2.1 -0.95 0  -2.05 -0.95 0  -2 -0.95 0  -1.95 -0.95 0  -1.9 -0.95 0  -1.85 -0.95 0  -1.8 -0.95 0  -1.75 -0.95 0  -1.7 -0.95 0  -1.65 -0.95 0  -1.6 -0.95 0  -1.55 -0.95 0  -1.5 -0.95 0  -1.45 -0.95 0  -1.4 -0.95 0  -1.35 -0.95 0  -1.3 -0.95 0  -1.25 -0.95 0  -1.2 -0.95 0  -1.15 -0.95 0  -1.1 -0.95 0  -1.05 -0.95 0  -1 -0.95 0  -0.9500000000000002 -0.95 0  -0.9000000000000004 -0.95 0  -0.8499999999999996 -0.95 0  -0.7999999999999998 -0.95 0  -0.75 -0.95 0  -0.7000000000000002 -0.95 0  -0.6500000000000004 -0.95 0  -0.5999999999999996 -0.95 0  -0.5499999999999998 -0.95 0  -0.5 -0.95 0  -0.4500000000000002 -0.95 0  -0.4000000000000004 -0.95 0  -0.3499999999999996 -0.95 0  -0.2999999999999998 -0.95 0  -0.25 -0.95 0  -0.2000000000000002 -0.95 0  -0.1500000000000004 -0.95 0  -0.09999999999999964 -0.95 0  -0.04999999999999982 -0.95 0  0 -0.95 0  0.04999999999999982 -0.95 0  0.09999999999999964 -0.95 0  0.1500000000000004 -0.95 0  0.2000000000000002 -0.95 0  0.25 -0.95 0  0.2999999999999998 -0.95 0  0.3499999999999996 -0.95 0  0.4000000000000004 -0.95 0  0.4500000000000002 -0.95 0  0.5 -0.95 0  0.5499999999999998 -0.95 0  0.5999999999999996 -0.95 0  0.6500000000000004 -0.95 0  0.7000000000000002 -0.95 0  0.75 -0.95 0  0.7999999999999998 -0.95 0  0.8499999999999996 -0.95 0  0.9000000000000004 -0.95 0  0.9500000000000002 -0.95 0  1 -0.95 0  1.05 -0.95 0  1.1 -0.95 0  1.15 -0.95 0  1.2 -0.95 0  1.25 -0.95 0  1.3 -0.95 0  1.35 -0.95 0  1.4 -0.95 0  1.45 -0.95 0  1.5 -0.95 0  1.55 -0.95 0  1.6 -0.95 0  1.65 -0.95 0  1.7 -0.95 0  1.75 -0.95 0  1.8 -0.95 0  1.85 -0.95 0  1.9 -0.95 0  1.95 -0.95 0  2 -0.95 0  2.05 -0.95 0  2.1 -0.95 0  2.15 -0.95 0  2.2 -0.95 0  2.25 -0.95 0  2.3 -0.95 0  2.35 -0.95 0  2.4 -0.95 0  2.45 -0.95 0  2.5 -0.95 0  2.55 -0.95 0  2.6 -0.95 0  2.65 -0.95 0  2.7 -0.95 0  2.75 -0.95 0  2.8 -0.95 0  2.85 -0.95 0  2.9 -0.95 0  2.95 -0.95 0  3 -0.95 0  3.050000000000001 -0.95 0  3.1 -0.95 0  3.15 -0.95 0  3.199999999999999 -0.95 0  3.25 -0.95 0  3.300000000000001 -0.95 0  3.35 -0.95 0  3.4 -0.95 0  3.449999999999999 -0.95 0  3.5 -0.95 0  3.550000000000001 -0.95 0  3.6 -0.95 0  3.65 -0.95 0  3.699999999999999 -0.95 0  3.75 -0.95 0  3.800000000000001 -0.95 0  3.85 -0.95 0  3.9 -0.95 0  3.949999999999999 -0.95 0  4 -0.95 0  4.050000000000001 -0.95 0  4.1 -0.95 0  4.15 -0.95 0  4.199999999999999 -0.95 0  4.25 -0.95 0  4.300000000000001 -0.95 0  4.35 -0.95 0  4.4 -0.95 0  4.449999999999999 -0.95 0  4.5 -0.95 0  4.550000000000001 -0.95 0  4.6 -0.95 0  4.65 -0.95 0  4.699999999999999 -0.95 0  4.75 -0.95 0  4.800000000000001 -0.95 0  4.85 -0.95 0  4.9 -0.95 0  4.949999999999999 -0.95 0  5 -0.95 0  -5 -0.9 0  -4.95 -0.9 0  -4.9 -0.9 0  -4.85 -0.9 0  -4.8 -0.9 0  -4.75 -0.9 0  -4.7 -0.9 0  -4.65 -0.9 0  -4.6 -0.9 0  -4.55 -0.9 0  -4.5 -0.9 0  -4.45 -0.9 0  -4.4 -0.9 0  -4.35 -0.9 0  -4.3 -0.9 0  -4.25 -0.9 0  -4.2 -0.9 0  -4.15 -0.9 0  -4.1 -0.9 0  -4.05 -0.9 0  -4 -0.9 0  -3.95 -0.9 0  -3.9 -0.9 0  -3.85 -0.9 0  -3.8 -0.9 0  -3.75 -0.9 0  -3.7 -0.9 0  -3.65 -0.9 0  -3.6 -0.9 0  -3.55 -0.9 0  -3.5 -0.9 0  -3.45 -0.9 0  -3.4 -0.9 0  -3.35 -0.9 0  -3.3 -0.9 0  -3.25 -0.9 0  -3.2 -0.9 0  -3.15 -0.9 0  -3.1 -0.9 0  -3.05 -0.9 0  -3 -0.9 0  -2.95 -0.9 0  -2.9 -0.9 0  -2.85 -0.9 0  -2.8 -0.9 0  -2.75 -0.9 0  -2.7 -0.9 0  -2.65 -0.9 0  -2.6 -0.9 0  -2.55 -0.9 0  -2.5 -0.9 0  -2.45 -0.9 0  -2.4 -0.9 0  -2.35 -0.9 0  -2.3 -0.9 0  -2.25 -0.9 0  -2.2 -0.9 0  -2.15 -0.9 0  -2.1 -0.9 0  -2.05 -0.9 0  -2 -0.9 0  -1.95 -0.9 0  -1.9 -0.9 0  -1.85 -0.9 0  -1.8 -0.9 0  -1.75 -0.9 0  -1.7 -0.9 0  -1.65 -0.9 0  -1.6 -0.9 0  -1.55 -0.9 0  -1.5 -0.9 0  -1.45 -0.9 0  -1.4 -0.9 0  -1.35 -0.9 0  -1.3 -0.9 0  -1.25 -0.9 0  -1.2 -0.9 0  -1.15 -0.9 0  -1.1 -0.9 0  -1.05 -0.9 0  -1 -0.9 0  -0.9500000000000002 -0.9 0  -0.9000000000000004 -0.9 0  -0.8499999999999996 -0.9 0  -0.7999999999999998 -0.9 0  -0.75 -0.9 0  -0.7000000000000002 -0.9 0  -0.6500000000000004 -0.9 0  -0.5999999999999996 -0.9 0  -0.5499999999999998 -0.9 0  -0.5 -0.9 0  -0.4500000000000002 -0.9 0  -0.4000000000000004 -0.9 0  -0.3499999999999996 -0.9 0  -0.2999999999999998 -0.9 0  -0.25 -0.9 0  -0.2000000000000002 -0.9 0  -0.1500000000000004 -0.9 0  -0.09999999999999964 -0.9 0  -0.04999999999999982 -0.9 0  0 -0.9 0  0.04999999999999982 -0.9 0  0.09999999999999964 -0.9 0  0.1500000000000004 -0.9 0  0.2000000000000002 -0.9 0  0.25 -0.9 0  0.2999999999999998 -0.9 0  0.3499999999999996 -0.9 0  0.4000000000000004 -0.9 0  0.4500000000000002 -0.9 0  0.5 -0.9 0  0.5499999999999998 -0.9 0  0.5999999999999996 -0.9 0  0.6500000000000004 -0.9 0  0.7000000000000002 -0.9 0  0.75 -0.9 0  0.7999999999999998 -0.9 0  0.8499999999999996 -0.9 0  0.9000000000000004 -0.9 0  0.9500000000000002 -0.9 0  1 -0.9 0  1.05 -0.9 0  1.1 -0.9 0  1.15 -0.9 0  1.2 -0.9 0  1.25 -0.9 0  1.3 -0.9 0  1.35 -0.9 0  1.4 -0.9 0  1.45 -0.9 0  1.5 -0.9 0  1.55 -0.9 0  1.6 -0.9 0  1.65 -0.9 0  1.7 -0.9 0  1.75 -0.9 0  1.8 -0.9 0  1.85 -0.9 0  1.9 -0.9 0  1.95 -0.9 0  2 -0.9 0  2.05 -0.9 0  2.1 -0.9 0  2.15 -0.9 0  2.2 -0.9 0  2.25 -0.9 0  2.3 -0.9 0  2.35 -0.9 0  2.4 -0.9 0  2.45 -0.9 0  2.5 -0.9 0  2.55 -0.9 0  2.6 -0.9 0  2.65 -0.9 0  2.7 -0.9 0  2.75 -0.9 0  2.8 -0.9 0  2.85 -0.9 0  2.9 -0.9 0  2.95 -0.9 0  3 -0.9 0  3.050000000000001 -0.9 0  3.1 -0.9 0  3.15 -0.9 0  3.199999999999999 -0.9 0  3.25 -0.9 0  3.300000000000001 -0.9 0  3.35 -0.9 0  3.4 -0.9 0  3.449999999999999 -0.9 0  3.5 -0.9 0  3.550000000000001 -0.9 0  3.6 -0.9 0  3.65 -0.9 0  3.699999999999999 -0.9 0  3.75 -0.9 0  3.800000000000001 -0.9 0  3.85 -0.9 0  3.9 -0.9 0  3.949999999999999 -0.9 0  4 -0.9 0  4.050000000000001 -0.9 0  4.1 -0.9 0  4.15 -0.9 0  4.199999999999999 -0.9 0  4.25 -0.9 0  4.300000000000001 -0.9 0  4.35 -0.9 0  4.4 -0.9 0  4.449999999999999 -0.9 0  4.5 -0.9 0  4.550000000000001 -0.9 0  4.6 -0.9 0  4.65 -0.9 0  4.699999999999999 -0.9 0  4.75 -0.9 0  4.800000000000001 -0.9 0  4.85 -0.9 0  4.9 -0.9 0  4.949999999999999 -0.9 0  5 -0.9 0  -5 -0.85 0  -4.95 -0.85 0  -4.9 -0.85 0  -4.85 -0.85 0  -4.8 -0.85 0  -4.75 -0.85 0  -4.7 -0.85 0  -4.65 -0.85 0  -4.6 -0.85 0  -4.55 -0.85 0  -4.5 -0.85 0  -
[...]
<PointData  Vectors="f_15"> 
<DataArray  type="Float64"  Name="f_15"  NumberOfComponents="3" format="ascii">2.4620927078371437e+00 0.0000000000000000e+00 0.0000000000000000e+00  2.4619433723270143e+00 4.9218766574375392e-02 0.0000000000000000e+00  2.4614825235322710e+00 9.8389615945476586e-02 0.0000000000000000e+00  2.4607229482713580e+00 1.4749460656908389e-01 0.0000000000000000e+00  2.4596487932311533e+00 1.9646662696294431e-01 0.0000000000000000e+00  2.4582625864209775e+00 2.4528557248466692e-01 0.0000000000000000e+00  2.4565556910836426e+00 2.9389562765682992e-01 0.0000000000000000e+00  2.4545268709251262e+00 3.4226284065244833e-01 0.0000000000000000e+00  2.4521575925895953e+00 3.9034399693660554e-01 0.0000000000000000e+00  2.4494528167318390e+00 4.3809136111794672e-01 0.0000000000000000e+00  2.4463925361497125e+00 4.8546852087050651e-01 0.0000000000000000e+00  2.4429709826065014e+00 5.3242674531532208e-01 0.0000000000000000e+00  2.4391757368080005e+00 5.7892576604437751e-01 0.0000000000000000e+00  2.4349999919526399e+00 6.2491554959463247e-01 0.0000000000000000e+00  2.4304227599011208e+00 6.7036700444286490e-01 0.0000000000000000e+00  2.4254443490331927e+00 7.1521700001464217e-01 0.0000000000000000e+00  2.4200457574660206e+00 7.5944529091920421e-01 0.0000000000000000e+00  2.4142204804652101e+00 8.0300047813390407e-01 0.0000000000000000e+00  2.4079567635512045e+00 8.4585030060797817e-01 0.0000000000000000e+00  2.4012549148404574e+00 8.8795952803405187e-01 0.0000000000000000e+00  2.3940964983624444e+00 9.2930880810390337e-01 0.0000000000000000e+00  2.3864929572094820e+00 9.6986078527994346e-01 0.0000000000000000e+00  2.3784330877256847e+00 1.0096023348388863e+00 0.0000000000000000e+00  2.3699280970369170e+00 1.0485433160750439e+00 0.0000000000000000e+00  2.3609735247478145e+00 1.0866279312950151e+00 0.0000000000000000e+00  2.3515972068544930e+00 1.1239278832257389e+00 0.0000000000000000e+00  2.3417889624376875e+00 1.1603902385506775e+00 0.0000000000000000e+00  2.3315895440954919e+00 1.1960811612041515e+00 0.0000000000000000e+00  2.3210003593932074e+00 1.2309834937761679e+00 0.0000000000000000e+00  2.3100623193468484e+00 1.2651942975586081e+00 0.0000000000000000e+00  2.2987795949423586e+00 1.2986477846861797e+00 0.0000000000000000e+00  2.2872123947950689e+00 1.3315245513894260e+00 0.0000000000000000e+00  2.2753528641966470e+00 1.3637283227186310e+00 0.0000000000000000e+00  2.2632684710871844e+00 1.3954411038123398e+00 0.0000000000000000e+00  2.2509602032268132e+00 1.4265822313466952e+00 0.0000000000000000e+00  2.2384863784954185e+00 1.4573602605224241e+00 0.0000000000000000e+00  2.2258443575501214e+00 1.4876336226208522e+00 0.0000000000000000e+00  2.2131049251871460e+00 1.5176373987981313e+00 0.0000000000000000e+00  2.2002468471893737e+00 1.5472797211418008e+00 0.0000000000000000e+00  2.1873399388557355e+00 1.5766712663185347e+00 0.0000000000000000e+00  2.1743699079088556e+00 1.6057863511091128e+00 0.0000000000000000e+00  2.1613888580190470e+00 1.6347743927727667e+00 0.0000000000000000e+00  2.1483798302934041e+00 1.6634665877237438e+00 0.0000000000000000e+00  2.1354041672094914e+00 1.6920952923458956e+00 0.0000000000000000e+00  2.1224219107174589e+00 1.7205081637274218e+00 0.0000000000000000e+00  2.1095030576617160e+00 1.7488393714836030e+00 0.0000000000000000e+00  2.0966055824576113e+00 1.7769588676798631e+00 0.0000000000000000e+00  2.0837896472050459e+00 1.8050671034589119e+00 0.0000000000000000e+00  2.0710145213303237e+00 1.8329137028178035e+00 0.0000000000000000e+00  2.0583486198609569e+00 1.8607372265309199e+00 0.0000000000000000e+00  2.0457340027862214e+00 1.8883433373903133e+00 0.0000000000000000e+00  2.0332519514351142e+00 1.9158282455882949e+00 0.0000000000000000e+00  2.0208481928936441e+00 1.9431052051326341e+00 0.0000000000000000e+00  2.0085930141929991e+00 1.9702309229514070e+00 0.0000000000000000e+00  1.9964439007204606e+00 1.9970685441093992e+00 0.0000000000000000e+00  1.9844842939526728e+00 2.0236711803998255e+00 0.0000000000000000e+00  1.9726551921720012e+00 2.0499803704219954e+00 0.0000000000000000e+00  1.9610665490712782e+00 2.0758727151049876e+00 0.0000000000000000e+00  1.9496696795635113e+00 2.1013715912246766e+00 0.0000000000000000e+00  1.9385726638234313e+00 2.1263146269101303e+00 0.0000000000000000e+00  1.9277584136094823e+00 2.1506335424091496e+00 0.0000000000000000e+00  1.9173567529595077e+00 2.1741449634793537e+00 0.0000000000000000e+00  1.9073656738075151e+00 2.1967453189743131e+00 0.0000000000000000e+00  1.8979524590308308e+00 2.2181192809555346e+00 0.0000000000000000e+00  1.8891632056780772e+00 2.2380971302638413e+00 0.0000000000000000e+00  1.8811785146925124e+00 2.2563252061428054e+00 0.0000000000000000e+00  1.8740812422011019e+00 2.2725129547139118e+00 0.0000000000000000e+00  1.8680570789062263e+00 2.2863142595721633e+00 0.0000000000000000e+00  1.8631293679180085e+00 2.2975940671472257e+00 0.0000000000000000e+00  1.8593621093336032e+00 2.3062364375144027e+00 0.0000000000000000e+00  1.8566509159221536e+00 2.3124521181390869e+00 0.0000000000000000e+00  1.8548287530465801e+00 2.3166441313902713e+00 0.0000000000000000e+00  1.8536500694707876e+00 2.3193404948124794e+00 0.0000000000000000e+00  1.8529105048506971e+00 2.3210345733525530e+00 0.0000000000000000e+00  1.8523988836476539e+00 2.3222263449715013e+00 0.0000000000000000e+00  1.8520070911884756e+00 2.3230900621654618e+00 0.0000000000000000e+00  1.8516909589358830e+00 2.3238507215740873e+00 0.0000000000000000e+00  1.8513924443307614e+00 2.3244883071960842e+00 0.0000000000000000e+00  1.8511283170920125e+00 2.3251297879938728e+00 0.0000000000000000e+00  1.8508663102029523e+00 2.3256801016826669e+00 0.0000000000000000e+00  1.8506467099271873e+00 2.3262259839163004e+00 0.0000000000000000e+00  1.8504128622754830e+00 2.3267001800273781e+00 0.0000000000000000e+00  1.8502255362404363e+00 2.3271780402823574e+00 0.0000000000000000e+00  1.8500301031552304e+00 2.3275604228817697e+00 0.0000000000000000e+00  1.8498800537229534e+00 2.3279520922578403e+00 0.0000000000000000e+00  1.8496980650217538e+00 2.3283057351180001e+00 0.0000000000000000e+00  1.8495899972499676e+00 2.3286000745774178e+00 0.0000000000000000e+00  1.8494355631459449e+00 2.3288883919226073e+00 0.0000000000000000e+00  1.8493412858499643e+00 2.3291549260653874e+00 0.0000000000000000e+00  1.8492252411627914e+00 2.3293516253906374e+00 0.0000000000000000e+00  1.8491531567217947e+00 2.3295709608350075e+00 0.0000000000000000e+00  1.8490386880270420e+00 2.3297610939473641e+00 0.0000000000000000e+00  1.8489971281723829e+00 2.3299093424994353e+00 0.0000000000000000e+00  1.8488978289383859e+00 2.3300669271166594e+00 0.0000000000000000e+00  1.8488594934412848e+00 2.3302042784754793e+00 0.0000000000000000e+00  1.8487884622960853e+00 2.3303004532591136e+00 0.0000000000000000e+00  1.8487561662341987e+00 2.3304232685210744e+00 0.0000000000000000e+00  1.8486864668198646e+00 2.3305131560573260e+00 0.0000000000000000e+00  1.8486747864913338e+00 2.3305897611799105e+00 0.0000000000000000e+00  1.8486107276293657e+00 2.3306711113687597e+00 0.0000000000000000e+00  1.8485990231383547e+00 2.3307390649780344e+00 0.0000000000000000e+00  1.8485521801374687e+00 2.3307891845880455e+00 0.0000000000000000e+00  1.8485415454112399e+00 2.3308510339333948e+00 0.0000000000000000e+00  1.8484962188601106e+00 2.3308936264711058e+00 0.0000000000000000e+00  1.8484960126639949e+00 2.3309343558273539e+00 0.0000000000000000e+00  1.8484531214786353e+00 2.3309790456084123e+00 0.0000000000000000e+00  1.8484511898558584e+00 2.3310044008111270e+00 0.0000000000000000e+00  1.8484206011236644e+00 2.3310412208668811e+00 0.0000000000000000e+00  1.8484178990468194e+00 2.3310525138501217e+00 0.0000000000000000e+00  1.8483854681154257e+00 2.3311030570671734e+00 0.0000000000000000e+00  1.8483863356669432e+00 2.3310909908159583e+00 0.0000000000000000e+00  1.8483650843918680e+00 2.3311480948142123e+00 0.0000000000000000e+00  1.8483557238517476e+00 2.3311107645203388e+00 0.0000000000000000e+00  1.8483428930189811e+00 2.3311940717228095e+00 0.0000000000000000e+00  1.8483324569474511e+00 2.3311271449522528e+00 0.0000000000000000e+00  1.8483226400382122e+00 2.3312231232778373e+00 0.0000000000000000e+00  1.8483086847464951e+00 2.3311412022446576e+00 0.0000000000000000e+00  1.8483142401999293e+00 2.3312406864455979e+00 0.0000000000000000e+00  1.8482820860517299e+00 2.3311502843271650e+00 0.0000000000000000e+00  1.8482936448808214e+00 2.3312682548013819e+00 0.0000000000000000e+00  1.8482787353612191e+00 2.3311374444448525e+00 0.0000000000000000e+00  1.8482732107591866e+00 2.3312714176179909e+00 0.0000000000000000e+00  1.8482573676616307e+00 2.3311675782641315e+00 0.0000000000000000e+00  1.8482663317467385e+00 2.3312559663488779e+00 0.0000000000000000e+00  1.8482477116652172e+00 2.3311675244425349e+00 0.0000000000000000e+00  1.8482383057371494e+00 2.3312519988688822e+00 0.0000000000000000e+00  1.8482568446507572e+00 2.3311830521624302e+00 0.0000000000000000e+00  1.8482045339384501e+00 2.3312038853597321e+00 0.0000000000000000e+00  1.8482598147612621e+00 2.3312481545218398e+00 0.0000000000000000e+00  1.8481827896718956e+00 2.3311113783231758e+00 0.0000000000000000e+00  1.8482695595785759e+00 2.3313221221416356e+00 0.0000000000000000e+00  1.8481281921665209e+00 2.3310253871078883e+00 0.0000000000000000e+00  1.8483162128176485e+00 2.3313999309425464e+00 0.0000000000000000e+00  1.8480641071865682e+00 2.3308583010114097e+00 0.0000000000000000e+00  1.8483523464079719e+00 2.3315902295661051e+00 0.0000000000000000e+00  1.8480011165233121e+00 2.3306357744876118e+00 0.0000000000000000e+00  1.8484053121337745e+00 2.3317613719655941e+00 0.0000000000000000e+00  1.8479301871745266e+00 2.3304430798142515e+00 0.0000000000000000e+00  1.8484416657110925e+00 2.3319234739711714e+00 0.0000000000000000e+00  1.8478816041845463e+00 2.3302192481512680e+00 0.0000000000000000e+00  1.8484744823592172e+00 2.3320678078156432e+00 0.0000000000000000e+00  1.8478290675694007e+00 2.3300228993474983e+00 0.0000000000000000e+00  1.8484848104935927e+00 2.3321826952802138e+00 0.0000000000000000e+00  1.8478380889214596e+00 2.3298924292572782e+00 0.0000000000000000e+00  1.8484186296122596e+00 2.3321480209179604e+00 0.0000000000000000e+00  1.8479063814381580e+00 2.3299840438364092e+00 0.0000000000000000e+00  1.8483209748919931e+00 2.3318974222076627e+00 0.0000000000000000e+00  1.8479841051113717e+00 2.3300606290398500e+00 0.0000000000000000e+00  1.8482255144528887e+00 2.3317130037802736e+00 0.0000000000000000e+00  1.8480593253984889e+00 2.3299592030515353e+00 0.0000000000000000e+00  1.8481106786562953e+00 2.3313597064430645e+00 0.0000000000000000e+00  1.8481836479581220e+00 2.3300695196797623e+00 0.0000000000000000e+00  1.8479408385262357e+00 2.3305649623436273e+00 0.0000000000000000e+00  1.8483092930608904e+00 2.3301949135250992e+00 0.0000000000000000e+00  1.8478557339458033e+00 2.3298891584489199e+00 0.0000000000000000e+00  1.8482901080981902e+00 2.3297060622461343e+00 0.0000000000000000e+00  1.8478906384428393e+00 2.3295293215007526e+00 0.0000000000000000e+00  1.8482408523471949e+00 2.3290733207207097e+00 0.0000000000000000e+00  1.8478661753996060e+00 2.3287113488507609e+00 0.0000000000000000e+00  1.8482707073676554e+00 2.3289241429705343e+00 0.0000000000000000e+00  1.8478246246990524e+00 2.3277152262824807e+00 0.0000000000000000e+00  1.8482247719469371e+00 2.3284492509648103e+00 0.0000000000000000e+00  1.8479199364255716e+00 2.3275281979666476e+00 0.0000000000000000e+00  1.8480667692543884e+00 2.3274603735484254e+00 0.0000000000000000e+00  1.8480373860762984e+00 2.3275645045463378e+00 0.0000000000000000e+00  1.8480038550358626e+00 2.3269974417985426e+00 0.0000000000000000e+00  1.8480114383634507e+00 2.3270508686152724e+00 0.0000000000000000e+00  1.8480608601975781e+00 2.3271177672872847e+00 0.0000000000000000e+00  1.8479793190086535e+00 2.3265481160231078e+00 0.0000000000000000e+00  1.8480530756667557e+00 2.3269212121025746e+00 0.0000000000000000e+00  1.8480143398738040e+00 2.3267071233435819e+00 0.0000000000000000e+00  1.8480490570147043e+00 2.3263678824652909e+00 0.0000000000000000e+00  1.8479544477810639e+00 2.3269010027344268e+00 0.0000000000000000e+00  1.8480773080429671e+00 2.3263015334444286e+00 0.0000000000000000e+00  1.8479695801048359e+00 2.3265537247672174e+00 0.0000000000000000e+00  1.8479901777516465e+00 2.3265213386991652e+00 0.0000000000000000e+00  1.8481215940556655e+00 2.3262306643424955e+00 0.0000000000000000e+00  1.8479355787992984e+00 2.3263842166874054e+00 0.0000000000000000e+00  1.8481631600985045e+00 2.3266764267889730e+00 0.0000000000000000e+00  1.8478248724563380e+00 2.3256996506288319e+00 0.0000000000000000e+00  1.8481846997336122e+00 2.3273922350773821e+00 0.0000000000000000e+00  1.8478242575874901e+00 2.3256732002158977e+00 0.0000000000000000e+00  1.8478928701523991e+00 2.3261990524687044e+00 0.0000000000000000e+00  1.8486328000033541e+00 2.3281292567036735e+00 0.0000000000000000e+00  1.8462383838249588e+00 2.3221448609947872e+00 0.0000000000000000e+00  1.8527010345515853e+00 2.3311388561821738e+00 0.0000000000000000e+00  1.8362217792177014e+00 2.3280625533233961e+00 0.0000000000000000e+00  1.8521409322981315e+00 2.3562264138656599e+00 0.0000000000000000e+00  2.2607874246104283e+00 1.3744383893377183e+00 0.0000000000000000e+00  2.7879450977350420e+00 3.1496647917746606e-01 0.0000000000000000e+00  2.9594076558607845e+00 3.1764184832507918e-02 0.0000000000000000e+00  2.9650559061277155e+00 9.6265888731603255e-03 0.0000000000000000e+00  2.9641573827206535e+00 6.1883552284998133e-05 0.0000000000000000e+00  2.9726889504603462e+00 -1.0049207394412603e-02 0.0000000000000000e+00  2.9715688558432856e+00 -6.5705622930388782e-03 0.0000000000000000e+00  2.9724921615499200e+00 -1.0757248976708930e-02 0.0000000000000000e+00  2.9731543594944179e+00 -1.2468358527708528e-02 0.0000000000000000e+00  2.9729438580416310e+00 -9.2330703334440861e-03 0.0000000000000000e+00  2.9719315754588558e+00 -1.4728714981533820e-02 0.0000000000000000e+00  2.9724805142808344e+00 -1.1188356331958544e-02 0.0000000000000000e+00  2.9727292389422004e+00 0.0000000000000000e+00 0.0000000000000000e+00  2.4620964322546985e+00 0.0000000000000000e+00 -1.3865819501872993e-05  2.4619418926880656e+00 4.9223393263522985e-02 6.8808027288407149e-06  2.4614870326146665e+00 9.8400388872294686e-02 -4.1780146343941896e-06  2.4607244528471459e+00 1.4750214680314866e-01 5.2800624825405897e-06  2.4596499726849963e+00 1.9647279580732238e-01 -5.9519435844870061e-06  2.4582644556483322e+00 2.4529442453520234e-01 6.3024300547551891e-06  2.4565593513132549e+00 2.9389845361586603e-01 -6.2608042046505898e-06  2.4545254278901676e+00 3.4227250456564201e-01 6.0942246053314663e-06  2.4521608278441489e+00 3.9034413945133578e-01 -6.0804842219647111e-06  2.4494537706670214e+00 4.3809878318625628e-01 6.4066962342107771e-06  2.4463922060804677e+00 4.8546907160499947e-01 -6.8791250731723370e-06  2.4429711315649691e+00 5.3243222263322687e-01 7.3504371817159868e-06  2.4391775704137344e+00 5.7892227305539323e-01 -7.4685490304303282e-06  2.4349967646112773e+00 6.2492387573624397e-01 7.6322084665278900e-06  2.4304234163373168e+00 6.7036009457143075e-01 -7.8380888033603749e-06  2.4254431802803151e+00 7.1522202293452475e-01 8.7935537834604544e-06  2.4200436862489298e+00 7.5944187626729742e-01 -9.6673257706912668e-06  2.4142174162740004e+00 8.0300243986087561e-01 1.0887650384440725e-05  2.4079574326196700e+00 8.4584304287997836e-01 -1.1232074813460706e-05  2.4012490502598416e+00 8.8796672841400692e-01 1.2393311899547659e-05  2.3940957386192010e+00 9.2929865532318789e-01 -1.3385374286331791e-05  2.3864891556739449e+00 9.6986234579530850e-01 1.6285482708249746e-05  2.3784313233358576e+00 1.0096021877832047e+00 -1.8334003626138782e-05  2.3699212796710492e+00 1.0485373047391169e+00 2.1003075133399050e-05  2.3609755858864538e+00 1.0866254089842813e+00 -2.1069634503301467e-05  2.3515887360906893e+00 1.1239323383639677e+00 2.1939961900789216e-05  2.3417891605734424e+00 1.1603778486255591e+00 -2.1698965963606362e-05  2.3315840416101601e+00 1.1960846368816214e+00 2.4169734916496235e-05  2.3210012327918270e+00 1.2309839254936565e+00 -2.5774010176831035e-05  2.3100532136632790e+00 1.2651826731196492e+00 2.8215877177991389e-05  2.2987858393039025e+00 1.2986522260176083e+00 -2.7651615653884416e-05  2.2872031529032935e+00 1.3315222616005824e+00 2.6783609113309021e-05  2.2753568890532332e+00 1.3637216721713719e+00 -2.4360378913598361e-05  2.2632641942495701e+00 1.3954346734904337e+00 2.3245884067158298e-05  2.2509654650611681e+00 1.4265951337944853e+00 -2.1861216059249186e-05  2.2384792701111862e+00 1.4573370938897765e+00 2.0725029585441606e-05  2.2258553761007112e+00 1.4876371076252770e+00 -1.8376652414994426e-05  2.2130988729882830e+00 1.5176459887325553e+00 1.5797023796821652e-05  2.2002548302731131e+00 1.5472596949078039e+00 -1.3196758050660230e-05  2.1873397477557504e+00 1.5766640490350043e+00 1.1496576486406039e-05  2.1743779409202419e+00 1.6058128205772011e+00 -1.0952132824605084e-05  2.1613851989009523e+00 1.6347352786740883e+00 1.2914357516827827e-05  2.1483939008997774e+00 1.6634789129890311e+00 -1.7066339089801555e-05  2.1353973485607769e+00 1.6921007895261635e+00 2.1816389832900626e-05  2.1224346920864745e+00 1.7204982725956188e+00 -2.3277120103762741e-05  2.1094989483165185e+00 1.7488258998381701e+00 2.1751046078911664e-05  2.0966160006634813e+00 1.7769873173439892e+00 -1.9332751097435848e-05  2.0837828385611417e+00 1.8050381856938276e+00 1.9582704928709199e-05  2.0710290321032478e+00 1.8329235955472589e+00 -2.0700701513356118e-05  2.0583379371616677e+00 1.8607426990032674e+00 2.1301399631609063e-05  2.0457470440806742e+00 1.8883227812984182e+00 -2.0164488760005337e-05  2.0332458355004612e+00 1.9158330608379619e+00 1.8957980284893896e-05  2.0208566649953656e+00 1.9431071772548869e+00 -1.6255590613806850e-05  2.0085843012104241e+00 1.9702140769720937e+00 1.3135419487413553e-05  1.9964565048666874e+00 1.9970561796537654e+00 -9.9066982409104926e-06  1.9844682748530127e+00 2.0236959272030104e+00 8.8707945876835257e-06  1.9726639352457032e+00 2.0499469731133324e+00 -7.4762824673788532e-06  1.9610535219151120e+00 2.0758861068093641e+00 5.3624227065579445e-06  1.9496700321652400e+00 2.1013681555586197e+00 -3.3887282644969622e-06  1.9385557092534649e+00 2.1263177846591397e+00 2.4680255448437793e-06  1.9277584348611199e+00 2.1506293154159604e+00 -2.3165157024559567e-06  1.9173301923512582e+00 2.1741759835452585e+00 1.6901057512153710e-06  1.9073564214478527e+00 2.1967405636319781e+00 -2.8214611866427240e-06  1.8979262857338599e+00 2.2181448931287666e+00 2.2452117698459216e-06  1.8891471941901288e+00 2.2381184419333477e+00 -2.6800301026679544e-06  1.8811479028946083e+00 2.2563445625321044e+00 2.7608696991538123e-06  1.8740732314131101e+00 2.2725063398943814e+00 -3.5935675495231785e-06  1.8680291335468273e+00 2.2863399590978695e+00 7.3197117847620569e-06  1.8631176538306069e+00 2.2975848367216276e+00 -4.7262085531532577e-06  1.8593546208867717e+00 2.3062205790449513e+00 1.0528559810208834e-05  1.8566507331373470e+00 2.3124256540851502e+00 -7.3733844825433012e-06  1.8548226997704689e+00 2.3166161825338007e+00 8.8969757577130854e-06  1.8536625065925003e+00 2.3192741603580540e+00 -1.2052950817800147e-05  1.8528998838975057e+00 2.3210316218978608e+00 7.9471479420843511e-06  1.8523809049603062e+00 2.3221987771927757e+00 -1.4668393142035774e-05  1.8519862021610172e+00 2.3231134071440480e+00 9.2289961791924576e-06  1.8516577456999714e+00 2.3238514247592659e+00 -1.2098141277523300e-05  1.8513561115449262e+00 2.3245409673869379e+00 9.9619242884396731e-06  1.8510933146619972e+00 2.3251373268763813e+00 -1.1322938404969744e-05  1.8508412934964564e+00 2.3257133982485105e+00 1.1640133577020354e-05  1.8506132017382964e+00 2.3262245562348163e+00 -1.2093968099845166e-05  1.8503939764937958e+00 2.3267297834566967e+00 1.2129541667438983e-05  1.8502062230091045e+00 2.327150722