<?xml version="1.0"?>
<VTKFile type="UnstructuredGrid"  version="0.1"  >
<UnstructuredGrid>
<Piece  NumberOfPoints="8241" NumberOfCells="16000">
<Points>
<DataArray  type="Float64"  NumberOfComponents="3"  format="ascii">-5 -1 0  -4.95 -1 0  -4.9 -1 0  -4.85 -1 0  -4.8 -1 0  -4.75 -1 0  -4.7 -1 0  -4.65 -1 0  -4.6 -1 0  -4.55 -1 0  -4.5 -1 0  -4.45 -1 0  -4.4 -1 0  -4.35 -1 0  -4.3 -1 0  -4.25 -1 0  -4.2 -1 0  -4.15 -1 0  -4.1 -1 0  -4.05 -1 0  -4 -1 0  -3.95 -1 0  -3.9 -1 0  -3.85 -1 0  -3.8 -1 0  -3.75 -1 0  -3.7 -1 0  -3.65 -1 0  -3.6 -1 0  -3.55 -1 0  -3.5 -1 0  -3.45 -1 0  -3.4 -1 0  -3.35 -1 0  -3.3 -1 0  -3.25 -1 0  -3.2 -1 0  -3.15 -1 0  -3.1 -1 0  -3.05 -1 0  -3 -1 0  -2.95 -1 0  -2.9 -1 0  -2.85 -1 0  -2.8 -1 0  -2.75 -1 0  -2.7 -1 0  -2.65 -1 0  -2.6 -1 0  -2.55 -1 0  -2.5 -1 0  -2.45 -1 0  -2.4 -1 0  -2.35 -1 0  -2.3 -1 0  -2.25 -1 0  -2.2 -1 0  -2.15 -1 0  -2.1 -1 0  -2.05 -1 0  -2 -1 0  -1.95 -1 0  -1.9 -1 0  -1.85 -1 0  -1.8 -1 0  -1.75 -1 0  -1.7 -1 0  -1.65 -1 0  -1.6 -1 0  -1.55 -1 0  -1.5 -1 0  -1.45 -1 0  -1.4 -1 0  -1.35 -1 0  -1.3 -1 0  -1.25 -1 0  -1.2 -1 0  -1.15 -1 0  -1.1 -1 0  -1.05 -1 0  -1 -1 0  -0.9500000000000002 -1 0  -0.9000000000000004 -1 0  -0.8499999999999996 -1 0  -0.7999999999999998 -1 0  -0.75 -1 0  -0.7000000000000002 -1 0  -0.6500000000000004 -1 0  -0.5999999999999996 -1 0  -0.5499999999999998 -1 0  -0.5 -1 0  -0.4500000000000002 -1 0  -0.4000000000000004 -1 0  -0.3499999999999996 -1 0  -0.2999999999999998 -1 0  -0.25 -1 0  -0.2000000000000002 -1 0  -0.1500000000000004 -1 0  -0.09999999999999964 -1 0  -0.04999999999999982 -1 0  0 -1 0  0.04999999999999982 -1 0  0.09999999999999964 -1 0  0.1500000000000004 -1 0  0.2000000000000002 -1 0  0.25 -1 0  0.2999999999999998 -1 0  0.3499999999999996 -1 0  0.4000000000000004 -1 0  0.4500000000000002 -1 0  0.5 -1 0  0.5499999999999998 -1 0  0.5999999999999996 -1 0  0.6500000000000004 -1 0  0.7000000000000002 -1 0  0.75 -1 0  0.7999999999999998 -1 0  0.8499999999999996 -1 0  0.9000000000000004 -1 0  0.9500000000000002 -1 0  1 -1 0  1.05 -1 0  1.1 -1 0  1.15 -1 0  1.2 -1 0  1.25 -1 0  1.3 -1 0  1.35 -1 0  1.4 -1 0  1.45 -1 0  1.5 -1 0  1.55 -1 0  1.6 -1 0  1.65 -1 0  1.7 -1 0  1.75 -1 0  1.8 -1 0  1.85 -1 0  1.9 -1 0  1.95 -1 0  2 -1 0  2.05 -1 0  2.1 -1 0  2.15 -1 0  2.2 -1 0  2.25 -1 0  2.3 -1 0  2.35 -1 0  2.4 -1 0  2.45 -1 0  2.5 -1 0  2.55 -1 0  2.6 -1 0  2.65 -1 0  2.7 -1 0  2.75 -1 0  2.8 -1 0  2.85 -1 0  2.9 -1 0  2.95 -1 0  3 -1 0  3.050000000000001 -1 0  3.1 -1 0  3.15 -1 0  3.199999999999999 -1 0  3.25 -1 0  3.300000000000001 -1 0  3.35 -1 0  3.4 -1 0  3.449999999999999 -1 0  3.5 -1 0  3.550000000000001 -1 0  3.6 -1 0  3.65 -1 0  3.699999999999999 -1 0  3.75 -1 0  3.800000000000001 -1 0  3.85 -1 0  3.9 -1 0  3.949999999999999 -1 0  4 -1 0  4.050000000000001 -1 0  4.1 -1 0  4.15 -1 0  4.199999999999999 -1 0  4.25 -1 0  4.300000000000001 -1 0  4.35 -1 0  4.4 -1 0  4.449999999999999 -1 0  4.5 -1 0  4.550000000000001 -1 0  4.6 -1 0  4.65 -1 0  4.699999999999999 -1 0  4.75 -1 0  4.800000000000001 -1 0  4.85 -1 0  4.9 -1 0  4.949999999999999 -1 0  5 -1 0  -5 -0.95 0  -4.95 -0.95 0  -4.9 -0.95 0  -4.85 -0.95 0  -4.8 -0.95 0  -4.75 -0.95 0  -4.7 -0.95 0  -4.65 -0.95 0  -4.6 -0.95 0  -4.55 -0.95 0  -4.5 -0.95 0  -4.45 -0.95 0  -4.4 -0.95 0  -4.35 -0.95 0  -4.3 -0.95 0  -4.25 -0.95 0  -4.2 -0.95 0  -4.15 -0.95 0  -4.1 -0.95 0  -4.05 -0.95 0  -4 -0.95 0  -3.95 -0.95 0  -3.9 -0.95 0  -3.85 -0.95 0  -3.8 -0.95 0  -3.75 -0.95 0  -3.7 -0.95 0  -3.65 -0.95 0  -3.6 -0.95 0  -3.55 -0.95 0  -3.5 -0.95 0  -3.45 -0.95 0  -3.4 -0.95 0  -3.35 -0.95 0  -3.3 -0.95 0  -3.25 -0.95 0  -3.2 -0.95 0  -3.15 -0.95 0  -3.1 -0.95 0  -3.05 -0.95 0  -3 -0.95 0  -2.95 -0.95 0  -2.9 -0.95 0  -2.85 -0.95 0  -2.8 -0.95 0  -2.75 -0.95 0  -2.7 -0.95 0  -2.65 -0.95 0  -2.6 -0.95 0  -2.55 -0.95 0  -2.5 -0.95 0  -2.45 -0.95 0  -2.4 -0.95 0  -2.35 -0.95 0  -2.3 -0.95 0  -2.25 -0.95 0  -2.2 -0.95 0  -2.15 -0.95 0  -2.1 -0.95 0  -2.05 -0.95 0  -2 -0.95 0  -1.95 -0.95 0  -1.9 -0.95 0  -1.85 -0.95 0  -1.8 -0.95 0  -1.75 -0.95 0  -1.7 -0.95 0  -1.65 -0.95 0  -1.6 -0.95 0  -1.55 -0.95 0  -1.5 -0.95 0  -1.45 -0.95 0  -1.4 -0.95 0  -1.35 -0.95 0  -1.3 -0.95 0  -1.25 -0.95 0  -1.2 -0.95 0  -1.15 -0.95 0  -1.1 -0.95 0  -1.05 -0.95 0  -1 -0.95 0  -0.9500000000000002 -0.95 0  -0.9000000000000004 -0.95 0  -0.8499999999999996 -0.95 0  -0.7999999999999998 -0.95 0  -0.75 -0.95 0  -0.7000000000000002 -0.95 0  -0.6500000000000004 -0.95 0  -0.5999999999999996 -0.95 0  -0.5499999999999998 -0.95 0  -0.5 -0.95 0  -0.4500000000000002 -0.95 0  -0.4000000000000004 -0.95 0  -0.3499999999999996 -0.95 0  -0.2999999999999998 -0.95 0  -0.25 -0.95 0  -0.2000000000000002 -0.95 0  -0.1500000000000004 -0.95 0  -0.09999999999999964 -0.95 0  -0.04999999999999982 -0.95 0  0 -0.95 0  0.04999999999999982 -0.95 0  0.09999999999999964 -0.95 0  0.1500000000000004 -0.95 0  0.2000000000000002 -0.95 0  0.25 -0.95 0  0.2999999999999998 -0.95 0  0.3499999999999996 -0.95 0  0.4000000000000004 -0.95 0  0.4500000000000002 -0.95 0  0.5 -0.95 0  0.5499999999999998 -0.95 0  0.5999999999999996 -0.95 0  0.6500000000000004 -0.95 0  0.7000000000000002 -0.95 0  0.75 -0.95 0  0.7999999999999998 -0.95 0  0.8499999999999996 -0.95 0  0.9000000000000004 -0.95 0  0.9500000000000002 -0.95 0  1 -0.95 0  1.05 -0.95 0  1.1 -0.95 0  1.15 -0.95 0  1.2 -0.95 0  1.25 -0.95 0  1.3 -0.95 0  1.35 -0.95 0  1.4 -0.95 0  1.45 -0.95 0  1.5 -0.95 0  1.55 -0.95 0  1.6 -0.95 0  1.65 -0.95 0  1.7 -0.95 0  1.75 -0.95 0  1.8 -0.95 0  1.85 -0.95 0  1.9 -0.95 0  1.95 -0.95 0  2 -0.95 0  2.05 -0.95 0  2.1 -0.95 0  2.15 -0.95 0  2.2 -0.95 0  2.25 -0.95 0  2.3 -0.95 0  2.35 -0.95 0  2.4 -0.95 0  2.45 -0.95 0  2.5 -0.95 0  2.55 -0.95 0  2.6 -0.95 0  2.65 -0.95 0  2.7 -0.95 0  2.75 -0.95 0  2.8 -0.95 0  2.85 -0.95 0  2.9 -0.95 0  2.95 -0.95 0  3 -0.95 0  3.050000000000001 -0.95 0  3.1 -0.95 0  3.15 -0.95 0  3.199999999999999 -0.95 0  3.25 -0.95 0  3.300000000000001 -0.95 0  3.35 -0.95 0  3.4 -0.95 0  3.449999999999999 -0.95 0  3.5 -0.95 0  3.550000000000001 -0.95 0  3.6 -0.95 0  3.65 -0.95 0  3.699999999999999 -0.95 0  3.75 -0.95 0  3.800000000000001 -0.95 0  3.85 -0.95 0  3.9 -0.95 0  3.949999999999999 -0.95 0  4 -0.95 0  4.050000000000001 -0.95 0  4.1 -0.95 0  4.15 -0.95 0  4.199999999999999 -0.95 0  4.25 -0.95 0  4.300000000000001 -0.95 0  4.35 -0.95 0  4.4 -0.95 0  4.449999999999999 -0.95 0  4.5 -0.95 0  4.550000000000001 -0.95 0  4.6 -0.95 0  4.65 -0.95 0  4.699999999999999 -0.95 0  4.75 -0.95 0  4.800000000000001 -0.95 0  4.85 -0.95 0  4.9 -0.95 0  4.949999999999999 -0.95 0  5 -0.95 0  -5 -0.9 0  -4.95 -0.9 0  -4.9 -0.9 0  -4.85 -0.9 0  -4.8 -0.9 0  -4.75 -0.9 0  -4.7 -0.9 0  -4.65 -0.9 0  -4.6 -0.9 0  -4.55 -0.9 0  -4.5 -0.9 0  -4.45 -0.9 0  -4.4 -0.9 0  -4.35 -0.9 0  -4.3 -0.9 0  -4.25 -0.9 0  -4.2 -0.9 0  -4.15 -0.9 0  -4.1 -0.9 0  -4.05 -0.9 0  -4 -0.9 0  -3.95 -0.9 0  -3.9 -0.9 0  -3.85 -0.9 0  -3.8 -0.9 0  -3.75 -0.9 0  -3.7 -0.9 0  -3.65 -0.9 0  -3.6 -0.9 0  -3.55 -0.9 0  -3.5 -0.9 0  -3.45 -0.9 0  -3.4 -0.9 0  -3.35 -0.9 0  -3.3 -0.9 0  -3.25 -0.9 0  -3.2 -0.9 0  -3.15 -0.9 0  -3.1 -0.9 0  -3.05 -0.9 0  -3 -0.9 0  -2.95 -0.9 0  -2.9 -0.9 0  -2.85 -0.9 0  -2.8 -0.9 0  -2.75 -0.9 0  -2.7 -0.9 0  -2.65 -0.9 0  -2.6 -0.9 0  -2.55 -0.9 0  -2.5 -0.9 0  -2.45 -0.9 0  -2.4 -0.9 0  -2.35 -0.9 0  -2.3 -0.9 0  -2.25 -0.9 0  -2.2 -0.9 0  -2.15 -0.9 0  -2.1 -0.9 0  -2.05 -0.9 0  -2 -0.9 0  -1.95 -0.9 0  -1.9 -0.9 0  -1.85 -0.9 0  -1.8 -0.9 0  -1.75 -0.9 0  -1.7 -0.9 0  -1.65 -0.9 0  -1.6 -0.9 0  -1.55 -0.9 0  -1.5 -0.9 0  -1.45 -0.9 0  -1.4 -0.9 0  -1.35 -0.9 0  -1.3 -0.9 0  -1.25 -0.9 0  -1.2 -0.9 0  -1.15 -0.9 0  -1.1 -0.9 0  -1.05 -0.9 0  -1 -0.9 0  -0.9500000000000002 -0.9 0  -0.9000000000000004 -0.9 0  -0.8499999999999996 -0.9 0  -0.7999999999999998 -0.9 0  -0.75 -0.9 0  -0.7000000000000002 -0.9 0  -0.6500000000000004 -0.9 0  -0.5999999999999996 -0.9 0  -0.5499999999999998 -0.9 0  -0.5 -0.9 0  -0.4500000000000002 -0.9 0  -0.4000000000000004 -0.9 0  -0.3499999999999996 -0.9 0  -0.2999999999999998 -0.9 0  -0.25 -0.9 0  -0.2000000000000002 -0.9 0  -0.1500000000000004 -0.9 0  -0.09999999999999964 -0.9 0  -0.04999999999999982 -0.9 0  0 -0.9 0  0.04999999999999982 -0.9 0  0.09999999999999964 -0.9 0  0.1500000000000004 -0.9 0  0.2000000000000002 -0.9 0  0.25 -0.9 0  0.2999999999999998 -0.9 0  0.3499999999999996 -0.9 0  0.4000000000000004 -0.9 0  0.4500000000000002 -0.9 0  0.5 -0.9 0  0.5499999999999998 -0.9 0  0.5999999999999996 -0.9 0  0.6500000000000004 -0.9 0  0.7000000000000002 -0.9 0  0.75 -0.9 0  0.7999999999999998 -0.9 0  0.8499999999999996 -0.9 0  0.9000000000000004 -0.9 0  0.9500000000000002 -0.9 0  1 -0.9 0  1.05 -0.9 0  1.1 -0.9 0  1.15 -0.9 0  1.2 -0.9 0  1.25 -0.9 0  1.3 -0.9 0  1.35 -0.9 0  1.4 -0.9 0  1.45 -0.9 0  1.5 -0.9 0  1.55 -0.9 0  1.6 -0.9 0  1.65 -0.9 0  1.7 -0.9 0  1.75 -0.9 0  1.8 -0.9 0  1.85 -0.9 0  1.9 -0.9 0  1.95 -0.9 0  2 -0.9 0  2.05 -0.9 0  2.1 -0.9 0  2.15 -0.9 0  2.2 -0.9 0  2.25 -0.9 0  2.3 -0.9 0  2.35 -0.9 0  2.4 -0.9 0  2.45 -0.9 0  2.5 -0.9 0  2.55 -0.9 0  2.6 -0.9 0  2.65 -0.9 0  2.7 -0.9 0  2.75 -0.9 0  2.8 -0.9 0  2.85 -0.9 0  2.9 -0.9 0  2.95 -0.9 0  3 -0.9 0  3.050000000000001 -0.9 0  3.1 -0.9 0  3.15 -0.9 0  3.199999999999999 -0.9 0  3.25 -0.9 0  3.300000000000001 -0.9 0  3.35 -0.9 0  3.4 -0.9 0  3.449999999999999 -0.9 0  3.5 -0.9 0  3.550000000000001 -0.9 0  3.6 -0.9 0  3.65 -0.9 0  3.699999999999999 -0.9 0  3.75 -0.9 0  3.800000000000001 -0.9 0  3.85 -0.9 0  3.9 -0.9 0  3.949999999999999 -0.9 0  4 -0.9 0  4.050000000000001 -0.9 0  4.1 -0.9 0  4.15 -0.9 0  4.199999999999999 -0.9 0  4.25 -0.9 0  4.300000000000001 -0.9 0  4.35 -0.9 0  4.4 -0.9 0  4.449999999999999 -0.9 0  4.5 -0.9 0  4.550000000000001 -0.9 0  4.6 -0.9 0  4.65 -0.9 0  4.699999999999999 -0.9 0  4.75 -0.9 0  4.800000000000001 -0.9 0  4.85 -0.9 0  4.9 -0.9 0  4.949999999999999 -0.9 0  5 -0.9 0  -5 -0.85 0  -4.95 -0.85 0  -4.9 -0.85 0  -4.85 -0.85 0  -4.8 -0.85 0  -4.75 -0.85 0  -4.7 -0.85 0  -4.65 -0.85 0  -4.6 -0.85 0  -4.55 -0.85 0  -4.5 -0.85 0  -
[...]
<PointData  Vectors="f_15"> 
<DataArray  type="Float64"  Name="f_15"  NumberOfComponents="3" format="ascii">2.9998142912004067e+00 0.0000000000000000e+00 0.0000000000000000e+00  2.9998016453557423e+00 1.6678601261370800e-04 0.0000000000000000e+00  2.9997426780040088e+00 3.1753516762236084e-04 0.0000000000000000e+00  2.9996400372497112e+00 5.7833820051149474e-04 0.0000000000000000e+00  2.9994820556330879e+00 8.7856446078784243e-04 0.0000000000000000e+00  2.9992454015079062e+00 1.3381462363388633e-03 0.0000000000000000e+00  2.9989041815097877e+00 1.9555384199656882e-03 0.0000000000000000e+00  2.9984340829293221e+00 2.8251071677306999e-03 0.0000000000000000e+00  2.9977828023266846e+00 3.9965900752869186e-03 0.0000000000000000e+00  2.9969069077266659e+00 5.5905853124890419e-03 0.0000000000000000e+00  2.9957498362607335e+00 7.6838108057721765e-03 0.0000000000000000e+00  2.9942409150042626e+00 1.0415890056788319e-02 0.0000000000000000e+00  2.9923062979964321e+00 1.3916870881960565e-02 0.0000000000000000e+00  2.9898796451631480e+00 1.8318346054042572e-02 0.0000000000000000e+00  2.9868637415329569e+00 2.3774772391551059e-02 0.0000000000000000e+00  2.9831948761904314e+00 3.0430952374668772e-02 0.0000000000000000e+00  2.9787934456703327e+00 3.8413257748641273e-02 0.0000000000000000e+00  2.9735897433444154e+00 4.7857364971018980e-02 0.0000000000000000e+00  2.9675282439995829e+00 5.8866793035354338e-02 0.0000000000000000e+00  2.9605735710171017e+00 7.1519725970979026e-02 0.0000000000000000e+00  2.9526770728295051e+00 8.5887266513989854e-02 0.0000000000000000e+00  2.9438389419651765e+00 1.0200277651420009e-01 0.0000000000000000e+00  2.9340549072243811e+00 1.1986519098068503e-01 0.0000000000000000e+00  2.9233233667366618e+00 1.3948777665589757e-01 0.0000000000000000e+00  2.9116849279979404e+00 1.6080691457252627e-01 0.0000000000000000e+00  2.8991640469116779e+00 1.8379934566741821e-01 0.0000000000000000e+00  2.8857990541743708e+00 2.0837718820522810e-01 0.0000000000000000e+00  2.8716398661285849e+00 2.3449064544162210e-01 0.0000000000000000e+00  2.8567490810573464e+00 2.6201763563934094e-01 0.0000000000000000e+00  2.8411502117950542e+00 2.9092685398050966e-01 0.0000000000000000e+00  2.8249357864786431e+00 3.2105628576035838e-01 0.0000000000000000e+00  2.8081274399988558e+00 3.5239874284661027e-01 0.0000000000000000e+00  2.7908000749340904e+00 3.8477528771012426e-01 0.0000000000000000e+00  2.7729852508947372e+00 4.1819729246416887e-01 0.0000000000000000e+00  2.7547587838049368e+00 4.5248251502881237e-01 0.0000000000000000e+00  2.7361279501117166e+00 4.8765797898276547e-01 0.0000000000000000e+00  2.7171804003007090e+00 5.2353359234152286e-01 0.0000000000000000e+00  2.6979108569788006e+00 5.6018766195675285e-01 0.0000000000000000e+00  2.6784003618154508e+00 5.9737610673775166e-01 0.0000000000000000e+00  2.6586399285751137e+00 6.3523741014470636e-01 0.0000000000000000e+00  2.6387009419445069e+00 6.7353965598675625e-01 0.0000000000000000e+00  2.6185778016410075e+00 7.1237331501123036e-01 0.0000000000000000e+00  2.5983298467862124e+00 7.5156960482301149e-01 0.0000000000000000e+00  2.5779393828670338e+00 7.9123421535143390e-01 0.0000000000000000e+00  2.5574859935230907e+00 8.3114120411418235e-01 0.0000000000000000e+00  2.5369256080953813e+00 8.7143844791391911e-01 0.0000000000000000e+00  2.5163291381866433e+00 9.1198466363691699e-01 0.0000000000000000e+00  2.4956845408838988e+00 9.5274662879258565e-01 0.0000000000000000e+00  2.4750250794387934e+00 9.9377506099036350e-01 0.0000000000000000e+00  2.4543339877478605e+00 1.0349571891167446e+00 0.0000000000000000e+00  2.4336839254264278e+00 1.0763331347654064e+00 0.0000000000000000e+00  2.4130137325585745e+00 1.1177953246581092e+00 0.0000000000000000e+00  2.3923935894715256e+00 1.1594924288592747e+00 0.0000000000000000e+00  2.3718078316892717e+00 1.2011340585191346e+00 0.0000000000000000e+00  2.3512740793243410e+00 1.2430074995777971e+00 0.0000000000000000e+00  2.3307851296466775e+00 1.2848292346069976e+00 0.0000000000000000e+00  2.3103937648874218e+00 1.3267791948063765e+00 0.0000000000000000e+00  2.2900507982820786e+00 1.3686651400433216e+00 0.0000000000000000e+00  2.2698118677514012e+00 1.4106566367699156e+00 0.0000000000000000e+00  2.2496671503944761e+00 1.4525573203840578e+00 0.0000000000000000e+00  2.2296238581956822e+00 1.4944514194030829e+00 0.0000000000000000e+00  2.2096930750980572e+00 1.5363159320904873e+00 0.0000000000000000e+00  2.1898961211498298e+00 1.5780804841681464e+00 0.0000000000000000e+00  2.1702223228101829e+00 1.6197579461616416e+00 0.0000000000000000e+00  2.1506992939359595e+00 1.6613080495117512e+00 0.0000000000000000e+00  2.1313382660052489e+00 1.7027424174477750e+00 0.0000000000000000e+00  2.1121411966173924e+00 1.7439295426593111e+00 0.0000000000000000e+00  2.0931411061928902e+00 1.7849708615784226e+00 0.0000000000000000e+00  2.0743440106648081e+00 1.8256845611860619e+00 0.0000000000000000e+00  2.0557796358557163e+00 1.8661258255338409e+00 0.0000000000000000e+00  2.0374710185184508e+00 1.9061550167761170e+00 0.0000000000000000e+00  2.0194572020930153e+00 1.9457606573458568e+00 0.0000000000000000e+00  2.0017717341304975e+00 1.9847408740233565e+00 0.0000000000000000e+00  1.9844764137265458e+00 2.0231228201798368e+00 0.0000000000000000e+00  1.9676355336026516e+00 2.0605914334701194e+00 0.0000000000000000e+00  1.9513264370029992e+00 2.0970509649119577e+00 0.0000000000000000e+00  1.9356833822487298e+00 2.1321604154250489e+00 0.0000000000000000e+00  1.9208232654306261e+00 2.1656713851499156e+00 0.0000000000000000e+00  1.9069609631065496e+00 2.1970012090969750e+00 0.0000000000000000e+00  1.8942950476063161e+00 2.2257756297572531e+00 0.0000000000000000e+00  1.8831294371751712e+00 2.2511907048529807e+00 0.0000000000000000e+00  1.8736673018608074e+00 2.2727809558697372e+00 0.0000000000000000e+00  1.8661950885434326e+00 2.2898835463264335e+00 0.0000000000000000e+00  1.8606898638533311e+00 2.3024981902821984e+00 0.0000000000000000e+00  1.8570547902877956e+00 2.3108006645731693e+00 0.0000000000000000e+00  1.8548369260485895e+00 2.3158993201297351e+00 0.0000000000000000e+00  1.8536132448336140e+00 2.3186994089200428e+00 0.0000000000000000e+00  1.8528567230519553e+00 2.3204176946980137e+00 0.0000000000000000e+00  1.8524035591773738e+00 2.3214539684752351e+00 0.0000000000000000e+00  1.8520129365123847e+00 2.3223455914110520e+00 0.0000000000000000e+00  1.8516994347967539e+00 2.3230263502753754e+00 0.0000000000000000e+00  1.8513803605359815e+00 2.3237680749224512e+00 0.0000000000000000e+00  1.8511141123632511e+00 2.3243523776440140e+00 0.0000000000000000e+00  1.8508223165735274e+00 2.3250128442451365e+00 0.0000000000000000e+00  1.8505956186570698e+00 2.3254988788489697e+00 0.0000000000000000e+00  1.8503655427724151e+00 2.3260432836009985e+00 0.0000000000000000e+00  1.8501476430706223e+00 2.3264806795372053e+00 0.0000000000000000e+00  1.8499596316305575e+00 2.3269365361787675e+00 0.0000000000000000e+00  1.8497813711842597e+00 2.3273025446396201e+00 0.0000000000000000e+00  1.8496091204357994e+00 2.3276914994817997e+00 0.0000000000000000e+00  1.8494631236630152e+00 2.3279902411262521e+00 0.0000000000000000e+00  1.8493304363958429e+00 2.3282962266149565e+00 0.0000000000000000e+00  1.8491993088473140e+00 2.3285480553775417e+00 0.0000000000000000e+00  1.8491025013947202e+00 2.3287839687303977e+00 0.0000000000000000e+00  1.8489867962165827e+00 2.3289930785993378e+00 0.0000000000000000e+00  1.8489027727451108e+00 2.3292003676230926e+00 0.0000000000000000e+00  1.8488040465181705e+00 2.3293496206432271e+00 0.0000000000000000e+00  1.8487666427496088e+00 2.3294812732175818e+00 0.0000000000000000e+00  1.8486507041650779e+00 2.3296509801579783e+00 0.0000000000000000e+00  1.8486396233472258e+00 2.3297303030171181e+00 0.0000000000000000e+00  1.8485248525505147e+00 2.3298921450703998e+00 0.0000000000000000e+00  1.8485374996981074e+00 2.3298941076797703e+00 0.0000000000000000e+00  1.8484405659184866e+00 2.3300465606950520e+00 0.0000000000000000e+00  1.8484350018859044e+00 2.3300590806632111e+00 0.0000000000000000e+00  1.8483602540419954e+00 2.3302005631812488e+00 0.0000000000000000e+00  1.8483619693003501e+00 2.3301565261083828e+00 0.0000000000000000e+00  1.8483046467559066e+00 2.3302787160477525e+00 0.0000000000000000e+00  1.8482790864592189e+00 2.3302593536653724e+00 0.0000000000000000e+00  1.8482638857733513e+00 2.3303144938059921e+00 0.0000000000000000e+00  1.8482129799421014e+00 2.3303415827554441e+00 0.0000000000000000e+00  1.8482216092428831e+00 2.3303547261623319e+00 0.0000000000000000e+00  1.8481660714793386e+00 2.3303996331660133e+00 0.0000000000000000e+00  1.8481735934945041e+00 2.3303862770064483e+00 0.0000000000000000e+00  1.8481280845160089e+00 2.3303993308497049e+00 0.0000000000000000e+00  1.8481331086372317e+00 2.3303732522160856e+00 0.0000000000000000e+00  1.8480938808505081e+00 2.3303800776718968e+00 0.0000000000000000e+00  1.8480969085418626e+00 2.3303610631834544e+00 0.0000000000000000e+00  1.8480597362672666e+00 2.3303848453655309e+00 0.0000000000000000e+00  1.8480612953254376e+00 2.3303667617606045e+00 0.0000000000000000e+00  1.8480399410371753e+00 2.3303469105071568e+00 0.0000000000000000e+00  1.8480230038112362e+00 2.3303220445347885e+00 0.0000000000000000e+00  1.8480063143446450e+00 2.3302465181132419e+00 0.0000000000000000e+00  1.8480068068879441e+00 2.3301265887171616e+00 0.0000000000000000e+00  1.8479761650028788e+00 2.3300229241165877e+00 0.0000000000000000e+00  1.8479703957009110e+00 2.3298680823056594e+00 0.0000000000000000e+00  1.8479591857499131e+00 2.3296796832653217e+00 0.0000000000000000e+00  1.8479458240375264e+00 2.3294806279020861e+00 0.0000000000000000e+00  1.8479283634504045e+00 2.3292416233767259e+00 0.0000000000000000e+00  1.8479222826792716e+00 2.3289628777607754e+00 0.0000000000000000e+00  1.8479057517101622e+00 2.3286528428486020e+00 0.0000000000000000e+00  1.8479000515671367e+00 2.3283150867380877e+00 0.0000000000000000e+00  1.8478787009574555e+00 2.3280090193296368e+00 0.0000000000000000e+00  1.8478756710546618e+00 2.3276653329733961e+00 0.0000000000000000e+00  1.8478633877464776e+00 2.3273678029809650e+00 0.0000000000000000e+00  1.8478473726847400e+00 2.3271194670508022e+00 0.0000000000000000e+00  1.8478354333569285e+00 2.3268792476376268e+00 0.0000000000000000e+00  1.8478289134167378e+00 2.3266708708977570e+00 0.0000000000000000e+00  1.8478105614162408e+00 2.3265296643073534e+00 0.0000000000000000e+00  1.8478008940573651e+00 2.3263806850429192e+00 0.0000000000000000e+00  1.8477854289957556e+00 2.3262945675597448e+00 0.0000000000000000e+00  1.8477867664925753e+00 2.3261572857446660e+00 0.0000000000000000e+00  1.8477540191602682e+00 2.3261582605999145e+00 0.0000000000000000e+00  1.8477499608126460e+00 2.3260260066399288e+00 0.0000000000000000e+00  1.8477478512342462e+00 2.3259912095377677e+00 0.0000000000000000e+00  1.8477003942018162e+00 2.3259465647640942e+00 0.0000000000000000e+00  1.8477097670391134e+00 2.3258902916102726e+00 0.0000000000000000e+00  1.8476835535763483e+00 2.3257869750705282e+00 0.0000000000000000e+00  1.8476575267467339e+00 2.3258277940178376e+00 0.0000000000000000e+00  1.8476359868355858e+00 2.3256866069851609e+00 0.0000000000000000e+00  1.8476428549989461e+00 2.3256718467311348e+00 0.0000000000000000e+00  1.8475735632758352e+00 2.3256363661007309e+00 0.0000000000000000e+00  1.8476023669594352e+00 2.3255618254061523e+00 0.0000000000000000e+00  1.8475512164373260e+00 2.3254991583267377e+00 0.0000000000000000e+00  1.8475332900383308e+00 2.3255004610302694e+00 0.0000000000000000e+00  1.8475191542638050e+00 2.3253857349140179e+00 0.0000000000000000e+00  1.8474896455817480e+00 2.3253668334550106e+00 0.0000000000000000e+00  1.8474607077928882e+00 2.3253262114829654e+00 0.0000000000000000e+00  1.8474438067964307e+00 2.3252269136535326e+00 0.0000000000000000e+00  1.8472575136369933e+00 2.3248749673853597e+00 0.0000000000000000e+00  1.8473251597277660e+00 2.3249911409547446e+00 0.0000000000000000e+00  1.8464746936503653e+00 2.3230713702343277e+00 0.0000000000000000e+00  1.8463617248068531e+00 2.3231436461619475e+00 0.0000000000000000e+00  1.8429503335450770e+00 2.3153644226687407e+00 0.0000000000000000e+00  1.8370403329210561e+00 2.3013490103895857e+00 0.0000000000000000e+00  1.8174995404223708e+00 2.2585243537583590e+00 0.0000000000000000e+00  1.7677399124037239e+00 2.1456778482859789e+00 0.0000000000000000e+00  1.6858212018133354e+00 1.9380758979550599e+00 0.0000000000000000e+00  1.4373724113912736e+00 1.2924178803776412e+00 0.0000000000000000e+00  1.1458279722645088e+00 4.5706015380959936e-01 0.0000000000000000e+00  1.0267643731319054e+00 8.6707107663813371e-02 0.0000000000000000e+00  1.0035931086062666e+00 1.1954393135995859e-02 0.0000000000000000e+00  1.0004535226238593e+00 1.7840246435123050e-03 0.0000000000000000e+00  1.0000355604098845e+00 1.2710695122794094e-04 0.0000000000000000e+00  1.0000060938979767e+00 1.9584983007888993e-04 0.0000000000000000e+00  9.9997026439080661e-01 -6.4515278853630943e-05 0.0000000000000000e+00  9.9999044702482898e-01 1.4635853724007659e-04 0.0000000000000000e+00  9.9997914025554180e-01 -7.2155867962151780e-05 0.0000000000000000e+00  9.9997353224267937e-01 1.5812492793957614e-04 0.0000000000000000e+00  9.9999581182879183e-01 -8.5023147371003166e-05 0.0000000000000000e+00  9.9996573390122734e-01 1.4710063779033714e-04 0.0000000000000000e+00  1.0000040877115455e+00 -6.7917885794020023e-05 0.0000000000000000e+00  9.9996535591036873e-01 1.1624668061466357e-04 0.0000000000000000e+00  1.0000154665408048e+00 -6.2980778470271044e-05 0.0000000000000000e+00  9.9996268795398802e-01 1.0100841684522840e-04 0.0000000000000000e+00  1.0000272070800920e+00 -6.1984382197172018e-05 0.0000000000000000e+00  9.9996700476827816e-01 6.9260012940870026e-05 0.0000000000000000e+00  1.0000291986147358e+00 -4.1277660903808566e-05 0.0000000000000000e+00  9.9997797307881842e-01 3.7039122704417789e-05 0.0000000000000000e+00  1.0000289878786339e+00 -2.6009893492333524e-05 0.0000000000000000e+00  9.9998439961077723e-01 1.6220297201996768e-05 0.0000000000000000e+00  1.0000311599636880e+00 0.0000000000000000e+00 0.0000000000000000e+00  2.9998175219211407e+00 0.0000000000000000e+00 -1.5953086352458971e-05  2.9998013678357922e+00 1.5293908220719498e-04 4.7443760434980701e-06  2.9997420447409189e+00 3.3855120392075624e-04 2.3295928869368179e-06  2.9996457449135820e+00 5.6869274987317591e-04 3.6447982091907074e-07  2.9994851987867097e+00 8.8091321280016962e-04 -1.0548249419720120e-06  2.9992487442833498e+00 1.3333504906681889e-03 1.7505029732412063e-06  2.9989130747982444e+00 1.9498280863012494e-03 -1.1096185838078533e-06  2.9984400190379970e+00 2.8126064804521326e-03 9.7373642367291641e-07  2.9977884159253554e+00 3.9921269577897923e-03 6.9476081524723447e-08  2.9969165863167957e+00 5.5762094750384768e-03 -1.3418953378055053e-08  2.9957554845188450e+00 7.6716856091135991e-03 9.9391283917139734e-07  2.9942445055218023e+00 1.0406912116885559e-02 -8.9867868652336223e-07  2.9923144645590511e+00 1.3902228541467197e-02 1.7113009216228213e-06  2.9898794876569901e+00 1.8303217152245536e-02 -1.7752837649706614e-06  2.9868645670586185e+00 2.3765034951573099e-02 2.1354329272990387e-06  2.9831964819316772e+00 3.0410725546257140e-02 -2.4350590519550762e-06  2.9787884081616047e+00 3.8397840603531026e-02 2.1649878623522008e-06  2.9735837589696259e+00 4.7839636311771391e-02 -2.6916023130060665e-06  2.9675256788320663e+00 5.8844217133591038e-02 1.8814318328551098e-06  2.9605611023430458e+00 7.1497268458760713e-02 -2.5411478838558796e-06  2.9526669393953071e+00 8.5867046278215856e-02 1.4456801516838191e-06  2.9438317386098283e+00 1.0197127351124786e-01 -2.0771936591495172e-06  2.9340366460613638e+00 1.1984567579883568e-01 1.0440840170769780e-06  2.9233114472055401e+00 1.3945670083627135e-01 -1.5926882701069142e-06  2.9116723071923816e+00 1.6078202952335233e-01 7.8114559017011304e-07  2.8991456934745923e+00 1.8377047055726592e-01 -1.0286589294287738e-06  2.8857819049359947e+00 2.0835557823232942e-01 2.8698068341386992e-07  2.8716302765441699e+00 2.3445597692977532e-01 -3.0177502678204784e-07  2.8567244475902873e+00 2.6200361693278001e-01 -1.4651517416714756e-07  2.8411398619617354e+00 2.9089120703365967e-01 -1.2548741697206141e-07  2.8249186305207443e+00 3.2104458727126239e-01 1.1925435078752713e-07  2.8081127297127955e+00 3.5236462535204871e-01 -6.5488602113556358e-07  2.7907826252118193e+00 3.8476745594178363e-01 5.4376713570307132e-07  2.7729782863004013e+00 4.1816514299085356e-01 -8.2858932854040727e-07  2.7547383008464430e+00 4.5247780029966295e-01 5.3730286867039402e-07  2.7361231736357730e+00 4.8762331371924222e-01 -1.6148035375650936e-06  2.7171640495244898e+00 5.2354455905551323e-01 2.7677665464931426e-06  2.6979071459683817e+00 5.6014238437880848e-01 -5.2919614589835400e-06  2.6783862065807025e+00 5.9739146290373857e-01 6.5422789176437252e-06  2.6586367622123150e+00 6.3521011790654947e-01 -8.0518113430910966e-06  2.6386911518477869e+00 6.7354098712844179e-01 8.6229552846160372e-06  2.6185772326810808e+00 7.1234725521336995e-01 -1.1201021825611519e-05  2.5983151885227542e+00 7.5159825478096265e-01 1.4280895097842834e-05  2.5779476680994375e+00 7.9118769082836127e-01 -1.8357193111401155e-05  2.5574728479352662e+00 8.3116501977079027e-01 2.0447632276968720e-05  2.5369248840207623e+00 8.7143525282880641e-01 -2.1097662369257446e-05  2.5163282901628219e+00 9.1196758854763771e-01 2.0131853687060164e-05  2.4956847321247864e+00 9.5275419219517110e-01 -1.9196209024530263e-05  2.4750121668535332e+00 9.9378387035233551e-01 1.8210522787926248e-05  2.4543490839116848e+00 1.0349433186785562e+00 -1.5751605147487200e-05  2.4336720235354843e+00 1.0763244451898948e+00 1.0892065644420702e-05  2.4130144176069552e+00 1.1178321891043721e+00 -1.9358369988234955e-06  2.3923998317938420e+00 1.1594390370682879e+00 -8.1502093625076601e-06  2.3718067004433703e+00 1.2011705183942811e+00 1.9384128483848536e-05  2.3512691244784159e+00 1.2429824790210080e+00 -2.7089387373113347e-05  2.3307987151036507e+00 1.2848451194889514e+00 3.5114913089095778e-05  2.3103892420147067e+00 1.3267347616203302e+00 -4.0344442535194259e-05  2.2900514085914647e+00 1.3687117537924400e+00 4.8451882974303043e-05  2.2698230811644073e+00 1.4106081336728509e+00 -5.1780296821049126e-05  2.2496633846590441e+00 1.4525683379143890e+00 5.4696078155277388e-05  2.2296278300460086e+00 1.4944395537515687e+00 -4.9820335425922092e-05  2.2096986020399481e+00 1.5363272207362657e+00 4.7466941500850429e-05  2.1898977382586806e+00 1.5780425103538489e+00 -4.1951720102358566e-05  2.1702217994789050e+00 1.6197764767848795e+00 4.1709124892736713e-05  2.1507092045880962e+00 1.6612968326979887e+00 -3.7508172826686028e-05  2.1313342055908819e+00 1.7027275279720080e+00 3.8231817854325903e-05  2.1121494834809402e+00 1.7439225130156430e+00 -3.5116653499000039e-05  2.0931410046863310e+00 1.7849721930915337e+00 3.4788754325833255e-05  2.0743490223081826e+00 1.8256627870649533e+00 -2.7935406874699036e-05  2.0557784328460702e+00 1.8661352894652814e+00 2.5353293789362615e-05  2.0374766538646942e+00 1.9061424646677845e+00 -2.2207537427036931e-05  2.0194524898339328e+00 1.9457462784812292e+00 2.2350869677350291e-05  2.0017749119171051e+00 1.9847571481885242e+00 -1.7749019356417133e-05  1.9844714028158301e+00 2.0231270952192566e+00 1.5192787200811595e-05  1.9676277884351012e+00 2.0605843094918130e+00 -1.3954376814184824e-05  1.9513181306419920e+00 2.0970762432364838e+00 1.2696608378615479e-05  1.9356689484917806e+00 2.1321962707778055e+00 -1.1078135165479012e-05  1.9208051366036787e+00 2.1656853367881035e+00 7.7598935525864148e-06  1.9069387643403937e+00 2.1970520566882148e+00 -9.4699574593047861e-06  1.8942723967461066e+00 2.2258146276487971e+00 7.4386241665928477e-06  1.8830852892912340e+00 2.2512652277983598e+00 -5.5966237478473461e-06  1.8736400262102411e+00 2.2728526861841134e+00 1.0358323669419539e-05  1.8661593407836305e+00 2.28996348