<?xml version="1.0"?>
<VTKFile type="UnstructuredGrid"  version="0.1"  >
<UnstructuredGrid>
<Piece  NumberOfPoints="8241" NumberOfCells="16000">
<Points>
<DataArray  type="Float64"  NumberOfComponents="3"  format="ascii">-5 -1 0  -4.95 -1 0  -4.9 -1 0  -4.85 -1 0  -4.8 -1 0  -4.75 -1 0  -4.7 -1 0  -4.65 -1 0  -4.6 -1 0  -4.55 -1 0  -4.5 -1 0  -4.45 -1 0  -4.4 -1 0  -4.35 -1 0  -4.3 -1 0  -4.25 -1 0  -4.2 -1 0  -4.15 -1 0  -4.1 -1 0  -4.05 -1 0  -4 -1 0  -3.95 -1 0  -3.9 -1 0  -3.85 -1 0  -3.8 -1 0  -3.75 -1 0  -3.7 -1 0  -3.65 -1 0  -3.6 -1 0  -3.55 -1 0  -3.5 -1 0  -3.45 -1 0  -3.4 -1 0  -3.35 -1 0  -3.3 -1 0  -3.25 -1 0  -3.2 -1 0  -3.15 -1 0  -3.1 -1 0  -3.05 -1 0  -3 -1 0  -2.95 -1 0  -2.9 -1 0  -2.85 -1 0  -2.8 -1 0  -2.75 -1 0  -2.7 -1 0  -2.65 -1 0  -2.6 -1 0  -2.55 -1 0  -2.5 -1 0  -2.45 -1 0  -2.4 -1 0  -2.35 -1 0  -2.3 -1 0  -2.25 -1 0  -2.2 -1 0  -2.15 -1 0  -2.1 -1 0  -2.05 -1 0  -2 -1 0  -1.95 -1 0  -1.9 -1 0  -1.85 -1 0  -1.8 -1 0  -1.75 -1 0  -1.7 -1 0  -1.65 -1 0  -1.6 -1 0  -1.55 -1 0  -1.5 -1 0  -1.45 -1 0  -1.4 -1 0  -1.35 -1 0  -1.3 -1 0  -1.25 -1 0  -1.2 -1 0  -1.15 -1 0  -1.1 -1 0  -1.05 -1 0  -1 -1 0  -0.9500000000000002 -1 0  -0.9000000000000004 -1 0  -0.8499999999999996 -1 0  -0.7999999999999998 -1 0  -0.75 -1 0  -0.7000000000000002 -1 0  -0.6500000000000004 -1 0  -0.5999999999999996 -1 0  -0.5499999999999998 -1 0  -0.5 -1 0  -0.4500000000000002 -1 0  -0.4000000000000004 -1 0  -0.3499999999999996 -1 0  -0.2999999999999998 -1 0  -0.25 -1 0  -0.2000000000000002 -1 0  -0.1500000000000004 -1 0  -0.09999999999999964 -1 0  -0.04999999999999982 -1 0  0 -1 0  0.04999999999999982 -1 0  0.09999999999999964 -1 0  0.1500000000000004 -1 0  0.2000000000000002 -1 0  0.25 -1 0  0.2999999999999998 -1 0  0.3499999999999996 -1 0  0.4000000000000004 -1 0  0.4500000000000002 -1 0  0.5 -1 0  0.5499999999999998 -1 0  0.5999999999999996 -1 0  0.6500000000000004 -1 0  0.7000000000000002 -1 0  0.75 -1 0  0.7999999999999998 -1 0  0.8499999999999996 -1 0  0.9000000000000004 -1 0  0.9500000000000002 -1 0  1 -1 0  1.05 -1 0  1.1 -1 0  1.15 -1 0  1.2 -1 0  1.25 -1 0  1.3 -1 0  1.35 -1 0  1.4 -1 0  1.45 -1 0  1.5 -1 0  1.55 -1 0  1.6 -1 0  1.65 -1 0  1.7 -1 0  1.75 -1 0  1.8 -1 0  1.85 -1 0  1.9 -1 0  1.95 -1 0  2 -1 0  2.05 -1 0  2.1 -1 0  2.15 -1 0  2.2 -1 0  2.25 -1 0  2.3 -1 0  2.35 -1 0  2.4 -1 0  2.45 -1 0  2.5 -1 0  2.55 -1 0  2.6 -1 0  2.65 -1 0  2.7 -1 0  2.75 -1 0  2.8 -1 0  2.85 -1 0  2.9 -1 0  2.95 -1 0  3 -1 0  3.050000000000001 -1 0  3.1 -1 0  3.15 -1 0  3.199999999999999 -1 0  3.25 -1 0  3.300000000000001 -1 0  3.35 -1 0  3.4 -1 0  3.449999999999999 -1 0  3.5 -1 0  3.550000000000001 -1 0  3.6 -1 0  3.65 -1 0  3.699999999999999 -1 0  3.75 -1 0  3.800000000000001 -1 0  3.85 -1 0  3.9 -1 0  3.949999999999999 -1 0  4 -1 0  4.050000000000001 -1 0  4.1 -1 0  4.15 -1 0  4.199999999999999 -1 0  4.25 -1 0  4.300000000000001 -1 0  4.35 -1 0  4.4 -1 0  4.449999999999999 -1 0  4.5 -1 0  4.550000000000001 -1 0  4.6 -1 0  4.65 -1 0  4.699999999999999 -1 0  4.75 -1 0  4.800000000000001 -1 0  4.85 -1 0  4.9 -1 0  4.949999999999999 -1 0  5 -1 0  -5 -0.95 0  -4.95 -0.95 0  -4.9 -0.95 0  -4.85 -0.95 0  -4.8 -0.95 0  -4.75 -0.95 0  -4.7 -0.95 0  -4.65 -0.95 0  -4.6 -0.95 0  -4.55 -0.95 0  -4.5 -0.95 0  -4.45 -0.95 0  -4.4 -0.95 0  -4.35 -0.95 0  -4.3 -0.95 0  -4.25 -0.95 0  -4.2 -0.95 0  -4.15 -0.95 0  -4.1 -0.95 0  -4.05 -0.95 0  -4 -0.95 0  -3.95 -0.95 0  -3.9 -0.95 0  -3.85 -0.95 0  -3.8 -0.95 0  -3.75 -0.95 0  -3.7 -0.95 0  -3.65 -0.95 0  -3.6 -0.95 0  -3.55 -0.95 0  -3.5 -0.95 0  -3.45 -0.95 0  -3.4 -0.95 0  -3.35 -0.95 0  -3.3 -0.95 0  -3.25 -0.95 0  -3.2 -0.95 0  -3.15 -0.95 0  -3.1 -0.95 0  -3.05 -0.95 0  -3 -0.95 0  -2.95 -0.95 0  -2.9 -0.95 0  -2.85 -0.95 0  -2.8 -0.95 0  -2.75 -0.95 0  -2.7 -0.95 0  -2.65 -0.95 0  -2.6 -0.95 0  -2.55 -0.95 0  -2.5 -0.95 0  -2.45 -0.95 0  -2.4 -0.95 0  -2.35 -0.95 0  -2.3 -0.95 0  -2.25 -0.95 0  -2.2 -0.95 0  -2.15 -0.95 0  -2.1 -0.95 0  -2.05 -0.95 0  -2 -0.95 0  -1.95 -0.95 0  -1.9 -0.95 0  -1.85 -0.95 0  -1.8 -0.95 0  -1.75 -0.95 0  -1.7 -0.95 0  -1.65 -0.95 0  -1.6 -0.95 0  -1.55 -0.95 0  -1.5 -0.95 0  -1.45 -0.95 0  -1.4 -0.95 0  -1.35 -0.95 0  -1.3 -0.95 0  -1.25 -0.95 0  -1.2 -0.95 0  -1.15 -0.95 0  -1.1 -0.95 0  -1.05 -0.95 0  -1 -0.95 0  -0.9500000000000002 -0.95 0  -0.9000000000000004 -0.95 0  -0.8499999999999996 -0.95 0  -0.7999999999999998 -0.95 0  -0.75 -0.95 0  -0.7000000000000002 -0.95 0  -0.6500000000000004 -0.95 0  -0.5999999999999996 -0.95 0  -0.5499999999999998 -0.95 0  -0.5 -0.95 0  -0.4500000000000002 -0.95 0  -0.4000000000000004 -0.95 0  -0.3499999999999996 -0.95 0  -0.2999999999999998 -0.95 0  -0.25 -0.95 0  -0.2000000000000002 -0.95 0  -0.1500000000000004 -0.95 0  -0.09999999999999964 -0.95 0  -0.04999999999999982 -0.95 0  0 -0.95 0  0.04999999999999982 -0.95 0  0.09999999999999964 -0.95 0  0.1500000000000004 -0.95 0  0.2000000000000002 -0.95 0  0.25 -0.95 0  0.2999999999999998 -0.95 0  0.3499999999999996 -0.95 0  0.4000000000000004 -0.95 0  0.4500000000000002 -0.95 0  0.5 -0.95 0  0.5499999999999998 -0.95 0  0.5999999999999996 -0.95 0  0.6500000000000004 -0.95 0  0.7000000000000002 -0.95 0  0.75 -0.95 0  0.7999999999999998 -0.95 0  0.8499999999999996 -0.95 0  0.9000000000000004 -0.95 0  0.9500000000000002 -0.95 0  1 -0.95 0  1.05 -0.95 0  1.1 -0.95 0  1.15 -0.95 0  1.2 -0.95 0  1.25 -0.95 0  1.3 -0.95 0  1.35 -0.95 0  1.4 -0.95 0  1.45 -0.95 0  1.5 -0.95 0  1.55 -0.95 0  1.6 -0.95 0  1.65 -0.95 0  1.7 -0.95 0  1.75 -0.95 0  1.8 -0.95 0  1.85 -0.95 0  1.9 -0.95 0  1.95 -0.95 0  2 -0.95 0  2.05 -0.95 0  2.1 -0.95 0  2.15 -0.95 0  2.2 -0.95 0  2.25 -0.95 0  2.3 -0.95 0  2.35 -0.95 0  2.4 -0.95 0  2.45 -0.95 0  2.5 -0.95 0  2.55 -0.95 0  2.6 -0.95 0  2.65 -0.95 0  2.7 -0.95 0  2.75 -0.95 0  2.8 -0.95 0  2.85 -0.95 0  2.9 -0.95 0  2.95 -0.95 0  3 -0.95 0  3.050000000000001 -0.95 0  3.1 -0.95 0  3.15 -0.95 0  3.199999999999999 -0.95 0  3.25 -0.95 0  3.300000000000001 -0.95 0  3.35 -0.95 0  3.4 -0.95 0  3.449999999999999 -0.95 0  3.5 -0.95 0  3.550000000000001 -0.95 0  3.6 -0.95 0  3.65 -0.95 0  3.699999999999999 -0.95 0  3.75 -0.95 0  3.800000000000001 -0.95 0  3.85 -0.95 0  3.9 -0.95 0  3.949999999999999 -0.95 0  4 -0.95 0  4.050000000000001 -0.95 0  4.1 -0.95 0  4.15 -0.95 0  4.199999999999999 -0.95 0  4.25 -0.95 0  4.300000000000001 -0.95 0  4.35 -0.95 0  4.4 -0.95 0  4.449999999999999 -0.95 0  4.5 -0.95 0  4.550000000000001 -0.95 0  4.6 -0.95 0  4.65 -0.95 0  4.699999999999999 -0.95 0  4.75 -0.95 0  4.800000000000001 -0.95 0  4.85 -0.95 0  4.9 -0.95 0  4.949999999999999 -0.95 0  5 -0.95 0  -5 -0.9 0  -4.95 -0.9 0  -4.9 -0.9 0  -4.85 -0.9 0  -4.8 -0.9 0  -4.75 -0.9 0  -4.7 -0.9 0  -4.65 -0.9 0  -4.6 -0.9 0  -4.55 -0.9 0  -4.5 -0.9 0  -4.45 -0.9 0  -4.4 -0.9 0  -4.35 -0.9 0  -4.3 -0.9 0  -4.25 -0.9 0  -4.2 -0.9 0  -4.15 -0.9 0  -4.1 -0.9 0  -4.05 -0.9 0  -4 -0.9 0  -3.95 -0.9 0  -3.9 -0.9 0  -3.85 -0.9 0  -3.8 -0.9 0  -3.75 -0.9 0  -3.7 -0.9 0  -3.65 -0.9 0  -3.6 -0.9 0  -3.55 -0.9 0  -3.5 -0.9 0  -3.45 -0.9 0  -3.4 -0.9 0  -3.35 -0.9 0  -3.3 -0.9 0  -3.25 -0.9 0  -3.2 -0.9 0  -3.15 -0.9 0  -3.1 -0.9 0  -3.05 -0.9 0  -3 -0.9 0  -2.95 -0.9 0  -2.9 -0.9 0  -2.85 -0.9 0  -2.8 -0.9 0  -2.75 -0.9 0  -2.7 -0.9 0  -2.65 -0.9 0  -2.6 -0.9 0  -2.55 -0.9 0  -2.5 -0.9 0  -2.45 -0.9 0  -2.4 -0.9 0  -2.35 -0.9 0  -2.3 -0.9 0  -2.25 -0.9 0  -2.2 -0.9 0  -2.15 -0.9 0  -2.1 -0.9 0  -2.05 -0.9 0  -2 -0.9 0  -1.95 -0.9 0  -1.9 -0.9 0  -1.85 -0.9 0  -1.8 -0.9 0  -1.75 -0.9 0  -1.7 -0.9 0  -1.65 -0.9 0  -1.6 -0.9 0  -1.55 -0.9 0  -1.5 -0.9 0  -1.45 -0.9 0  -1.4 -0.9 0  -1.35 -0.9 0  -1.3 -0.9 0  -1.25 -0.9 0  -1.2 -0.9 0  -1.15 -0.9 0  -1.1 -0.9 0  -1.05 -0.9 0  -1 -0.9 0  -0.9500000000000002 -0.9 0  -0.9000000000000004 -0.9 0  -0.8499999999999996 -0.9 0  -0.7999999999999998 -0.9 0  -0.75 -0.9 0  -0.7000000000000002 -0.9 0  -0.6500000000000004 -0.9 0  -0.5999999999999996 -0.9 0  -0.5499999999999998 -0.9 0  -0.5 -0.9 0  -0.4500000000000002 -0.9 0  -0.4000000000000004 -0.9 0  -0.3499999999999996 -0.9 0  -0.2999999999999998 -0.9 0  -0.25 -0.9 0  -0.2000000000000002 -0.9 0  -0.1500000000000004 -0.9 0  -0.09999999999999964 -0.9 0  -0.04999999999999982 -0.9 0  0 -0.9 0  0.04999999999999982 -0.9 0  0.09999999999999964 -0.9 0  0.1500000000000004 -0.9 0  0.2000000000000002 -0.9 0  0.25 -0.9 0  0.2999999999999998 -0.9 0  0.3499999999999996 -0.9 0  0.4000000000000004 -0.9 0  0.4500000000000002 -0.9 0  0.5 -0.9 0  0.5499999999999998 -0.9 0  0.5999999999999996 -0.9 0  0.6500000000000004 -0.9 0  0.7000000000000002 -0.9 0  0.75 -0.9 0  0.7999999999999998 -0.9 0  0.8499999999999996 -0.9 0  0.9000000000000004 -0.9 0  0.9500000000000002 -0.9 0  1 -0.9 0  1.05 -0.9 0  1.1 -0.9 0  1.15 -0.9 0  1.2 -0.9 0  1.25 -0.9 0  1.3 -0.9 0  1.35 -0.9 0  1.4 -0.9 0  1.45 -0.9 0  1.5 -0.9 0  1.55 -0.9 0  1.6 -0.9 0  1.65 -0.9 0  1.7 -0.9 0  1.75 -0.9 0  1.8 -0.9 0  1.85 -0.9 0  1.9 -0.9 0  1.95 -0.9 0  2 -0.9 0  2.05 -0.9 0  2.1 -0.9 0  2.15 -0.9 0  2.2 -0.9 0  2.25 -0.9 0  2.3 -0.9 0  2.35 -0.9 0  2.4 -0.9 0  2.45 -0.9 0  2.5 -0.9 0  2.55 -0.9 0  2.6 -0.9 0  2.65 -0.9 0  2.7 -0.9 0  2.75 -0.9 0  2.8 -0.9 0  2.85 -0.9 0  2.9 -0.9 0  2.95 -0.9 0  3 -0.9 0  3.050000000000001 -0.9 0  3.1 -0.9 0  3.15 -0.9 0  3.199999999999999 -0.9 0  3.25 -0.9 0  3.300000000000001 -0.9 0  3.35 -0.9 0  3.4 -0.9 0  3.449999999999999 -0.9 0  3.5 -0.9 0  3.550000000000001 -0.9 0  3.6 -0.9 0  3.65 -0.9 0  3.699999999999999 -0.9 0  3.75 -0.9 0  3.800000000000001 -0.9 0  3.85 -0.9 0  3.9 -0.9 0  3.949999999999999 -0.9 0  4 -0.9 0  4.050000000000001 -0.9 0  4.1 -0.9 0  4.15 -0.9 0  4.199999999999999 -0.9 0  4.25 -0.9 0  4.300000000000001 -0.9 0  4.35 -0.9 0  4.4 -0.9 0  4.449999999999999 -0.9 0  4.5 -0.9 0  4.550000000000001 -0.9 0  4.6 -0.9 0  4.65 -0.9 0  4.699999999999999 -0.9 0  4.75 -0.9 0  4.800000000000001 -0.9 0  4.85 -0.9 0  4.9 -0.9 0  4.949999999999999 -0.9 0  5 -0.9 0  -5 -0.85 0  -4.95 -0.85 0  -4.9 -0.85 0  -4.85 -0.85 0  -4.8 -0.85 0  -4.75 -0.85 0  -4.7 -0.85 0  -4.65 -0.85 0  -4.6 -0.85 0  -4.55 -0.85 0  -4.5 -0.85 0  -
[...]
<PointData  Vectors="f_15"> 
<DataArray  type="Float64"  Name="f_15"  NumberOfComponents="3" format="ascii">3.0000025181134169e+00 0.0000000000000000e+00 0.0000000000000000e+00  2.9999904451421702e+00 -4.1231753920525705e-05 0.0000000000000000e+00  3.0000252659709847e+00 6.1234752780434657e-05 0.0000000000000000e+00  2.9999948752279555e+00 -2.9186567964586906e-05 0.0000000000000000e+00  3.0000007804294313e+00 4.1245651006094873e-05 0.0000000000000000e+00  3.0000144348411264e+00 -5.1322953193502748e-06 0.0000000000000000e+00  3.0000062662624609e+00 2.6916732241882449e-05 0.0000000000000000e+00  2.9999898662633324e+00 -6.8589554285668950e-06 0.0000000000000000e+00  3.0000229768592921e+00 2.9266626100748680e-05 0.0000000000000000e+00  2.9999935907191198e+00 -4.9871730653502196e-06 0.0000000000000000e+00  3.0000029557825454e+00 1.4484299874145601e-05 0.0000000000000000e+00  3.0000033789757499e+00 4.3548228419057971e-06 0.0000000000000000e+00  3.0000088441498844e+00 1.1344275132891598e-05 0.0000000000000000e+00  2.9999860295725171e+00 -2.1067430595917505e-06 0.0000000000000000e+00  3.0000151688183587e+00 1.0806551288694817e-05 0.0000000000000000e+00  2.9999911174457621e+00 3.9996918512829168e-06 0.0000000000000000e+00  3.0000042914781515e+00 1.5901327095586011e-06 0.0000000000000000e+00  2.9999927176698122e+00 4.7587679146644198e-06 0.0000000000000000e+00  3.0000097903703242e+00 3.0731724737922846e-06 0.0000000000000000e+00  2.9999881000102535e+00 4.4536637428745075e-06 0.0000000000000000e+00  3.0000084254133745e+00 -6.3192576500918032e-06 0.0000000000000000e+00  2.9999939645008542e+00 8.5773047513010220e-06 0.0000000000000000e+00  3.0000090149376670e+00 -7.9971689831404043e-06 0.0000000000000000e+00  2.9999920083920681e+00 -7.1643967679100412e-07 0.0000000000000000e+00  3.0000131304935782e+00 -1.0180571665106514e-05 0.0000000000000000e+00  2.9999966886592118e+00 4.4567086620192822e-06 0.0000000000000000e+00  3.0000080981579278e+00 -2.0904628837847224e-05 0.0000000000000000e+00  2.9999981036988084e+00 7.9724251454498687e-06 0.0000000000000000e+00  3.0000081889498467e+00 -8.8025296683907461e-06 0.0000000000000000e+00  2.9999862288047168e+00 1.4640186082877852e-05 0.0000000000000000e+00  2.9999954830135014e+00 1.4583430096370937e-05 0.0000000000000000e+00  2.9999673947341923e+00 6.3089936929842594e-05 0.0000000000000000e+00  2.9999504186744339e+00 7.8260861793136310e-05 0.0000000000000000e+00  2.9999049860058911e+00 1.8124467590478966e-04 0.0000000000000000e+00  2.9998469708520776e+00 2.7423104657523547e-04 0.0000000000000000e+00  2.9997255591014267e+00 4.8690230745458522e-04 0.0000000000000000e+00  2.9995726293739611e+00 7.8020507095668342e-04 0.0000000000000000e+00  2.9992886045127691e+00 1.2829569443583439e-03 0.0000000000000000e+00  2.9988827585723685e+00 2.0057517558097330e-03 0.0000000000000000e+00  2.9982553876868030e+00 3.1632991561928963e-03 0.0000000000000000e+00  2.9973434700908097e+00 4.7985195245599426e-03 0.0000000000000000e+00  2.9960032174918192e+00 7.2062572343822807e-03 0.0000000000000000e+00  2.9941687776374883e+00 1.0560109540706446e-02 0.0000000000000000e+00  2.9916018538872273e+00 1.5176008223796816e-02 0.0000000000000000e+00  2.9882079639157295e+00 2.1325479254955863e-02 0.0000000000000000e+00  2.9837555474072466e+00 2.9399568792572987e-02 0.0000000000000000e+00  2.9781002300997867e+00 3.9657984866896534e-02 0.0000000000000000e+00  2.9710206803246901e+00 5.2475579599078011e-02 0.0000000000000000e+00  2.9624426081231290e+00 6.8109062151539126e-02 0.0000000000000000e+00  2.9521565384242909e+00 8.6787589373135132e-02 0.0000000000000000e+00  2.9401583800003213e+00 1.0868467839698544e-01 0.0000000000000000e+00  2.9263490417035802e+00 1.3389597063836126e-01 0.0000000000000000e+00  2.9107686121976708e+00 1.6244693734397875e-01 0.0000000000000000e+00  2.8934073336784891e+00 1.9429238058976614e-01 0.0000000000000000e+00  2.8743877487070879e+00 2.2935923668526159e-01 0.0000000000000000e+00  2.8537441431233805e+00 2.6747075795112890e-01 0.0000000000000000e+00  2.8316378779391629e+00 3.0849849485385872e-01 0.0000000000000000e+00  2.8081583204437539e+00 3.5219363764126510e-01 0.0000000000000000e+00  2.7834608522825870e+00 3.9839885588454849e-01 0.0000000000000000e+00  2.7576533363281546e+00 4.4684831751529330e-01 0.0000000000000000e+00  2.7308919548447466e+00 4.9737494536088289e-01 0.0000000000000000e+00  2.7032770837215234e+00 5.4972877338090531e-01 0.0000000000000000e+00  2.6749443609031798e+00 6.0375943924306485e-01 0.0000000000000000e+00  2.6459932752205870e+00 6.5922718553842918e-01 0.0000000000000000e+00  2.6165356492295309e+00 7.1601638887417851e-01 0.0000000000000000e+00  2.5866520826660611e+00 7.7392063568675051e-01 0.0000000000000000e+00  2.5564438939508114e+00 8.3281888956473038e-01 0.0000000000000000e+00  2.5259760945950207e+00 8.9256171512814131e-01 0.0000000000000000e+00  2.4953262214041052e+00 9.5304741419056938e-01 0.0000000000000000e+00  2.4645574906881520e+00 1.0141119449368727e+00 0.0000000000000000e+00  2.4337302533810528e+00 1.0757141880094567e+00 0.0000000000000000e+00  2.4028927390590229e+00 1.1377063368731399e+00 0.0000000000000000e+00  2.3721038120160887e+00 1.2000045449341534e+00 0.0000000000000000e+00  2.3414022275908870e+00 1.2625321687986446e+00 0.0000000000000000e+00  2.3108320048343618e+00 1.3252233227752084e+00 0.0000000000000000e+00  2.2804426998426508e+00 1.3879175796799201e+00 0.0000000000000000e+00  2.2502633962105758e+00 1.4506183324502511e+00 0.0000000000000000e+00  2.2203456070955063e+00 1.5132274597132980e+00 0.0000000000000000e+00  2.1907275895796392e+00 1.5755499922790219e+00 0.0000000000000000e+00  2.1614594326755632e+00 1.6376267009731145e+00 0.0000000000000000e+00  2.1325821752506764e+00 1.6992492848203375e+00 0.0000000000000000e+00  2.1041860116997899e+00 1.7602933173879838e+00 0.0000000000000000e+00  2.0762920400671141e+00 1.8205895996689141e+00 0.0000000000000000e+00  2.0490534964212279e+00 1.8799629773064392e+00 0.0000000000000000e+00  2.0225170322201143e+00 1.9380858931377813e+00 0.0000000000000000e+00  1.9968865446088560e+00 1.9946965074611100e+00 0.0000000000000000e+00  1.9722904072024121e+00 2.0492631074410661e+00 0.0000000000000000e+00  1.9490655703420803e+00 2.1011676211220531e+00 0.0000000000000000e+00  1.9274422595596232e+00 2.1497529295980264e+00 0.0000000000000000e+00  1.9079558199005662e+00 2.1937788129129911e+00 0.0000000000000000e+00  1.8910500886841799e+00 2.2321588101300160e+00 0.0000000000000000e+00  1.8772564850980202e+00 2.2635382933551456e+00 0.0000000000000000e+00  1.8669987499034830e+00 2.2870305883269291e+00 0.0000000000000000e+00  1.8601603719036146e+00 2.3026104950350077e+00 0.0000000000000000e+00  1.8562443497458108e+00 2.3116437472774392e+00 0.0000000000000000e+00  1.8542054623398478e+00 2.3162341092721586e+00 0.0000000000000000e+00  1.8532548775245934e+00 2.3184628469397941e+00 0.0000000000000000e+00  1.8526157092836246e+00 2.3198389970407711e+00 0.0000000000000000e+00  1.8522483613470662e+00 2.3207098112498961e+00 0.0000000000000000e+00  1.8518401978838173e+00 2.3215607766213808e+00 0.0000000000000000e+00  1.8515323712099034e+00 2.3222662406994052e+00 0.0000000000000000e+00  1.8511802704342750e+00 2.3229935745125387e+00 0.0000000000000000e+00  1.8509123047344456e+00 2.3235761133793256e+00 0.0000000000000000e+00  1.8506049107389824e+00 2.3242189454661477e+00 0.0000000000000000e+00  1.8503780730652750e+00 2.3247182517253879e+00 0.0000000000000000e+00  1.8501216386576975e+00 2.3252468669498452e+00 0.0000000000000000e+00  1.8498936199937621e+00 2.3257354428347856e+00 0.0000000000000000e+00  1.8496650391258016e+00 2.3261611143363372e+00 0.0000000000000000e+00  1.8495248226412038e+00 2.3264456825780631e+00 0.0000000000000000e+00  1.8493231316253351e+00 2.3268620322998377e+00 0.0000000000000000e+00  1.8491580251094424e+00 2.3272038472926955e+00 0.0000000000000000e+00  1.8490138479991640e+00 2.3274844318872367e+00 0.0000000000000000e+00  1.8489160872913428e+00 2.3276487461058464e+00 0.0000000000000000e+00  1.8487432084664193e+00 2.3279383820936932e+00 0.0000000000000000e+00  1.8486746195112753e+00 2.3280095244231065e+00 0.0000000000000000e+00  1.8485663178106959e+00 2.3282204553153352e+00 0.0000000000000000e+00  1.8484620215169516e+00 2.3284082902297576e+00 0.0000000000000000e+00  1.8483908839498042e+00 2.3285374877709777e+00 0.0000000000000000e+00  1.8483233729943331e+00 2.3286318346189128e+00 0.0000000000000000e+00  1.8482282067794336e+00 2.3287086623402931e+00 0.0000000000000000e+00  1.8481802359467696e+00 2.3286362395898736e+00 0.0000000000000000e+00  1.8481136910910878e+00 2.3285834980319766e+00 0.0000000000000000e+00  1.8480666206984886e+00 2.3284453272719223e+00 0.0000000000000000e+00  1.8479973737658832e+00 2.3283770918053674e+00 0.0000000000000000e+00  1.8479537555691874e+00 2.3282053880274773e+00 0.0000000000000000e+00  1.8479250139412398e+00 2.3279785219253077e+00 0.0000000000000000e+00  1.8478511036114764e+00 2.3277880179935133e+00 0.0000000000000000e+00  1.8478143307023966e+00 2.3274593343323544e+00 0.0000000000000000e+00  1.8477891800826465e+00 2.3270892171908297e+00 0.0000000000000000e+00  1.8477315578964024e+00 2.3267600830114894e+00 0.0000000000000000e+00  1.8476765789387533e+00 2.3264543573815377e+00 0.0000000000000000e+00  1.8476746832334974e+00 2.3260738155113074e+00 0.0000000000000000e+00  1.8476006122045787e+00 2.3258538874033761e+00 0.0000000000000000e+00  1.8475762878898017e+00 2.3256235845909825e+00 0.0000000000000000e+00  1.8475283802437232e+00 2.3254141987740780e+00 0.0000000000000000e+00  1.8475212597061299e+00 2.3252158173970727e+00 0.0000000000000000e+00  1.8474158575799480e+00 2.3251578774600832e+00 0.0000000000000000e+00  1.8474592967948180e+00 2.3249375811053787e+00 0.0000000000000000e+00  1.8473454449986486e+00 2.3248791735952623e+00 0.0000000000000000e+00  1.8473540896084375e+00 2.3247705935210967e+00 0.0000000000000000e+00  1.8472791704108593e+00 2.3246753886696223e+00 0.0000000000000000e+00  1.8471119075412374e+00 2.3242025271611979e+00 0.0000000000000000e+00  1.8471135779484600e+00 2.3243563443038195e+00 0.0000000000000000e+00  1.8463250741732549e+00 2.3224038668851685e+00 0.0000000000000000e+00  1.8460520468457273e+00 2.3222193936973863e+00 0.0000000000000000e+00  1.8430949968870818e+00 2.3154621538405040e+00 0.0000000000000000e+00  1.8370869170773800e+00 2.3012751039936017e+00 0.0000000000000000e+00  1.8201261953675043e+00 2.2639154594419937e+00 0.0000000000000000e+00  1.7719155586239226e+00 2.1554500162641483e+00 0.0000000000000000e+00  1.6973910166668382e+00 1.9674187729563759e+00 0.0000000000000000e+00  1.4665153650933442e+00 1.3705416790413625e+00 0.0000000000000000e+00  1.1658911300275863e+00 5.1763977503787528e-01 0.0000000000000000e+00  1.0318092267677306e+00 1.0282354064332101e-01 0.0000000000000000e+00  1.0044163727161464e+00 1.4471130982236279e-02 0.0000000000000000e+00  1.0005346609034411e+00 2.0166788524411967e-03 0.0000000000000000e+00  1.0000866869702354e+00 2.3539361589767525e-04 0.0000000000000000e+00  1.0000120348712060e+00 5.5481533669032725e-05 0.0000000000000000e+00  9.9999876860491632e-01 1.2110165774422178e-05 0.0000000000000000e+00  1.0000054427768676e+00 2.4345584068529461e-06 0.0000000000000000e+00  9.9999667962282623e-01 -1.0793547510069493e-05 0.0000000000000000e+00  1.0000023777205358e+00 2.2021288280117041e-05 0.0000000000000000e+00  9.9999818196150347e-01 -2.7300569357243941e-05 0.0000000000000000e+00  1.0000005521527753e+00 3.1885103028906238e-05 0.0000000000000000e+00  1.0000032451731451e+00 -4.2152319595398634e-05 0.0000000000000000e+00  9.9999040175236187e-01 6.0095161285293795e-05 0.0000000000000000e+00  1.0000167778916988e+00 -8.0987321096865082e-05 0.0000000000000000e+00  9.9997714876214705e-01 9.8170650836258588e-05 0.0000000000000000e+00  1.0000272123949789e+00 -1.0873586358736093e-04 0.0000000000000000e+00  9.9996937673540742e-01 1.1478439708044694e-04 0.0000000000000000e+00  1.0000340421575487e+00 -1.2011172870215929e-04 0.0000000000000000e+00  9.9996243534783047e-01 1.2626971404136977e-04 0.0000000000000000e+00  1.0000404228025981e+00 -1.3164137436485397e-04 0.0000000000000000e+00  9.9995820114485301e-01 1.3361669553679870e-04 0.0000000000000000e+00  1.0000415569405241e+00 -1.3114702743938103e-04 0.0000000000000000e+00  9.9995974507404461e-01 1.2544989930623202e-04 0.0000000000000000e+00  1.0000386053115955e+00 -1.1863411690776575e-04 0.0000000000000000e+00  9.9996304799030511e-01 1.1204880934489058e-04 0.0000000000000000e+00  1.0000351944903396e+00 -1.0564577830217113e-04 0.0000000000000000e+00  9.9996692101106699e-01 9.8691810069881705e-05 0.0000000000000000e+00  1.0000305231690183e+00 -9.0725644789372580e-05 0.0000000000000000e+00  9.9997229904883878e-01 8.2044346671765773e-05 0.0000000000000000e+00  1.0000248893647814e+00 -7.3360276325603542e-05 0.0000000000000000e+00  9.9997771450378636e-01 6.5291747238644125e-05 0.0000000000000000e+00  1.0000199096406779e+00 -5.7984222379836177e-05 0.0000000000000000e+00  9.9998229605544353e-01 5.1294736803204353e-05 0.0000000000000000e+00  1.0000155781128552e+00 -4.4957642569520959e-05 0.0000000000000000e+00  9.9998642923721981e-01 3.8981287333784117e-05 0.0000000000000000e+00  1.0000116723146943e+00 -3.3365598971536476e-05 0.0000000000000000e+00  9.9998997093299113e-01 2.8400254865811411e-05 0.0000000000000000e+00  1.0000085156910128e+00 -2.3917153876083186e-05 0.0000000000000000e+00  9.9999267440226303e-01 2.0195132084693388e-05 0.0000000000000000e+00  1.0000061155654290e+00 -1.6674409602965833e-05 0.0000000000000000e+00  9.9999469037056454e-01 1.3917843295630841e-05 0.0000000000000000e+00  1.0000042627251391e+00 -1.0985316478819052e-05 0.0000000000000000e+00  9.9999613856414205e-01 9.0615932528215562e-06 0.0000000000000000e+00  1.0000028826013900e+00 -6.5083296088933460e-06 0.0000000000000000e+00  9.9999702753007991e-01 5.4041336383053036e-06 0.0000000000000000e+00  1.0000019032568566e+00 -2.9515899133652939e-06 0.0000000000000000e+00  9.9999742481873066e-01 2.6586056993595133e-06 0.0000000000000000e+00  1.0000011555120067e+00 -8.6255318763737027e-08 0.0000000000000000e+00  9.9999743767902005e-01 0.0000000000000000e+00 0.0000000000000000e+00  2.9999853960595164e+00 0.0000000000000000e+00 4.0148972209625809e-05  3.0000124533794774e+00 7.2005565555708470e-06 -5.0044268507128880e-06  2.9999886683434229e+00 -2.6036447255489280e-05 -1.6933764825073281e-05  2.9999857990609926e+00 -1.4080739321256783e-05 9.4481463176289283e-06  3.0000091367681261e+00 -5.2060150872620644e-06 -6.8704580340318846e-06  2.9999900897774965e+00 -2.0093957895369868e-05 5.1858012069510942e-06  2.9999849778476029e+00 -1.2040611784087687e-05 -3.8881433222678415e-06  3.0000086703459052e+00 -7.7009369899930246e-06 3.7655637377402438e-06  2.9999910614061078e+00 -1.2581912721953281e-05 -3.4198571015339981e-06  2.9999883732272257e+00 -1.3593434883803089e-05 4.0422375446652256e-06  3.0000062922094330e+00 -2.7301366076323281e-06 -3.7892938715242242e-06  2.9999958791845116e+00 -9.9637377945103506e-06 3.5054658286890900e-06  2.9999903998706494e+00 -9.4574193481916841e-06 -2.5896013572124671e-06  3.0000064204538566e+00 -3.2364517377642177e-06 2.4689500868536356e-06  2.9999983167894233e+00 -4.2461623569125089e-06 -2.5526083727532310e-06  2.9999951522298587e+00 -8.6859588181717764e-06 2.9163288211642407e-06  3.0000035989536467e+00 -2.4269362611769902e-06 -2.6478493721977270e-06  3.0000021214742048e+00 -2.7411906442261706e-06 2.2905819057325463e-06  2.9999969647043021e+00 -4.2706922061106059e-06 -2.0567553913743162e-06  3.0000020507479839e+00 -4.9605274040721580e-06 2.2897300601882023e-06  3.0000018300416205e+00 1.9266406963480032e-06 -2.6085078197630045e-06  2.9999990070946869e+00 -8.8109125304688164e-07 2.6299055392402070e-06  2.9999972889253956e+00 -2.3121313111344949e-06 -2.7402267255200709e-06  3.0000008524160400e+00 5.9584465450269240e-06 2.8894401975540280e-06  2.9999966501087418e+00 6.6256105452259869e-06 -3.6182337556007269e-06  2.9999934931533949e+00 2.9618450436923548e-06 3.9505318277159750e-06  2.9999959754599330e+00 1.1925607011684231e-05 -4.3273746101476949e-06  2.9999939705269916e+00 1.6245027999087171e-05 4.4169261862611063e-06  2.9999867709306338e+00 1.0897146346501375e-05 -4.9316712244394504e-06  2.9999896381802897e+00 2.6688996663921531e-05 5.7654253390822194e-06  2.9999813479030579e+00 3.4357235335125868e-05 -6.1751010076315608e-06  2.9999673091449508e+00 5.2078416598211682e-05 6.8142180401728762e-06  2.9999517879459585e+00 9.0384081598895495e-05 -6.3963838916831816e-06  2.9999151981455729e+00 1.5921011603596452e-04 7.1345175603432459e-06  2.9998481984868377e+00 2.6103146189072977e-04 -6.3676747321214131e-06  2.9997528696165854e+00 4.6099857084466977e-04 7.1497867942979386e-06  2.9995785053172184e+00 7.5805679502460128e-04 -5.6603497684463592e-06  2.9993088067584113e+00 1.2446016531827606e-03 6.7149069434351362e-06  2.9988997256148426e+00 1.9983343341123329e-03 -4.6907950167715451e-06  2.9982708755466305e+00 3.1303726713741709e-03 5.7830715714182565e-06  2.9973420346000204e+00 4.7916172175570659e-03 -2.2989990908628227e-06  2.9960271883681715e+00 7.2041288283954440e-03 3.1037774657501194e-06  2.9941576543444701e+00 1.0563471047080311e-02 8.8292926200888089e-09  2.9916069168438857e+00 1.5175386833212989e-02 1.3855304106735573e-06  2.9882062366353037e+00 2.1354141347034651e-02 3.2723449416088056e-07  2.9837565446816807e+00 2.9403803030163423e-02 -1.2418068351274925e-06  2.9780833906270665e+00 3.9676839189085295e-02 1.9091569306309681e-06  2.9710338253777664e+00 5.2494387217873771e-02 -4.9801783701491094e-06  2.9624254647260795e+00 6.8121552233181476e-02 1.9443283363753144e-06  2.9521581881036010e+00 8.6796716977526958e-02 -5.1576220086036429e-06  2.9401527570565422e+00 1.0869894162160051e-01 3.2065721045824991e-07  2.9263491858957189e+00 1.3390050496466988e-01 -4.8512953948555952e-06  2.9107564488234186e+00 1.6245098026290547e-01 1.2619080256831904e-06  2.8934140530732626e+00 1.9429911486137086e-01 -4.9225107973367032e-06  2.8743768893769457e+00 2.2935545517398290e-01 1.3178188009423410e-06  2.8537443649044625e+00 2.6747615784791368e-01 -1.9383923800506270e-06  2.8316343020763384e+00 3.0849156057054589e-01 -3.3735494942009371e-07  2.8081580450339914e+00 3.5219692762954730e-01 5.5718376636170604e-08  2.7834548687957765e+00 3.9839291349262040e-01 8.3983807477792399e-07  2.7576557233856196e+00 4.4684902303611618e-01 -8.3847002493475792e-07  2.7308880212231696e+00 4.9737019295888352e-01 2.2387100502809109e-06  2.7032757297053056e+00 5.4973403205761839e-01 -4.5037151800206181e-07  2.6749422535868375e+00 6.0375229503384609e-01 1.8035287867704120e-06  2.6459934262144968e+00 6.5923364383983130e-01 -4.1371719993514839e-07  2.6165306078875421e+00 7.1601875427948747e-01 3.4072544744492271e-06  2.5866530829591996e+00 7.7391790088527757e-01 -3.4689676905685862e-06  2.5564415189643275e+00 8.3282465206212719e-01 6.4823945565790285e-06  2.5259745138600502e+00 8.9256693311527835e-01 -5.3015981249616896e-06  2.4953258449899454e+00 9.5303892287016401e-01 5.5753896407967189e-06  2.4645588183549076e+00 1.0141184712769689e+00 -2.7079269488351074e-06  2.4337280487694777e+00 1.0757181358493402e+00 2.4379729652353607e-06  2.4028958752317120e+00 1.1376922351245444e+00 -1.2724663074165214e-06  2.3721042691786693e+00 1.2000086303282831e+00 2.3129199040778090e-06  2.3414014635059126e+00 1.2625468357929177e+00 -1.5285325654318290e-06  2.3108350162188294e+00 1.3251977444753942e+00 9.6917916615731561e-07  2.2804413614357189e+00 1.3879291294833811e+00 -3.9130427415018514e-07  2.2502629060524262e+00 1.4506483280177478e+00 2.9260621758268803e-06  2.2203470438780144e+00 1.5131897191403327e+00 -7.8142737321298212e-06  2.1907276033571312e+00 1.5755768887127459e+00 1.0637791342166786e-05  2.1614570674174667e+00 1.6376395233710985e+00 -1.0722107598099035e-05  2.1325917600751083e+00 1.6992455941712656e+00 9.8544989363097115e-06  2.1041787374306189e+00 1.7602844800779442e+00 -1.36695401597