<?xml version="1.0"?>
<VTKFile type="UnstructuredGrid"  version="0.1"  >
<UnstructuredGrid>
<Piece  NumberOfPoints="8241" NumberOfCells="16000">
<Points>
<DataArray  type="Float64"  NumberOfComponents="3"  format="ascii">-5 -1 0  -4.95 -1 0  -4.9 -1 0  -4.85 -1 0  -4.8 -1 0  -4.75 -1 0  -4.7 -1 0  -4.65 -1 0  -4.6 -1 0  -4.55 -1 0  -4.5 -1 0  -4.45 -1 0  -4.4 -1 0  -4.35 -1 0  -4.3 -1 0  -4.25 -1 0  -4.2 -1 0  -4.15 -1 0  -4.1 -1 0  -4.05 -1 0  -4 -1 0  -3.95 -1 0  -3.9 -1 0  -3.85 -1 0  -3.8 -1 0  -3.75 -1 0  -3.7 -1 0  -3.65 -1 0  -3.6 -1 0  -3.55 -1 0  -3.5 -1 0  -3.45 -1 0  -3.4 -1 0  -3.35 -1 0  -3.3 -1 0  -3.25 -1 0  -3.2 -1 0  -3.15 -1 0  -3.1 -1 0  -3.05 -1 0  -3 -1 0  -2.95 -1 0  -2.9 -1 0  -2.85 -1 0  -2.8 -1 0  -2.75 -1 0  -2.7 -1 0  -2.65 -1 0  -2.6 -1 0  -2.55 -1 0  -2.5 -1 0  -2.45 -1 0  -2.4 -1 0  -2.35 -1 0  -2.3 -1 0  -2.25 -1 0  -2.2 -1 0  -2.15 -1 0  -2.1 -1 0  -2.05 -1 0  -2 -1 0  -1.95 -1 0  -1.9 -1 0  -1.85 -1 0  -1.8 -1 0  -1.75 -1 0  -1.7 -1 0  -1.65 -1 0  -1.6 -1 0  -1.55 -1 0  -1.5 -1 0  -1.45 -1 0  -1.4 -1 0  -1.35 -1 0  -1.3 -1 0  -1.25 -1 0  -1.2 -1 0  -1.15 -1 0  -1.1 -1 0  -1.05 -1 0  -1 -1 0  -0.9500000000000002 -1 0  -0.9000000000000004 -1 0  -0.8499999999999996 -1 0  -0.7999999999999998 -1 0  -0.75 -1 0  -0.7000000000000002 -1 0  -0.6500000000000004 -1 0  -0.5999999999999996 -1 0  -0.5499999999999998 -1 0  -0.5 -1 0  -0.4500000000000002 -1 0  -0.4000000000000004 -1 0  -0.3499999999999996 -1 0  -0.2999999999999998 -1 0  -0.25 -1 0  -0.2000000000000002 -1 0  -0.1500000000000004 -1 0  -0.09999999999999964 -1 0  -0.04999999999999982 -1 0  0 -1 0  0.04999999999999982 -1 0  0.09999999999999964 -1 0  0.1500000000000004 -1 0  0.2000000000000002 -1 0  0.25 -1 0  0.2999999999999998 -1 0  0.3499999999999996 -1 0  0.4000000000000004 -1 0  0.4500000000000002 -1 0  0.5 -1 0  0.5499999999999998 -1 0  0.5999999999999996 -1 0  0.6500000000000004 -1 0  0.7000000000000002 -1 0  0.75 -1 0  0.7999999999999998 -1 0  0.8499999999999996 -1 0  0.9000000000000004 -1 0  0.9500000000000002 -1 0  1 -1 0  1.05 -1 0  1.1 -1 0  1.15 -1 0  1.2 -1 0  1.25 -1 0  1.3 -1 0  1.35 -1 0  1.4 -1 0  1.45 -1 0  1.5 -1 0  1.55 -1 0  1.6 -1 0  1.65 -1 0  1.7 -1 0  1.75 -1 0  1.8 -1 0  1.85 -1 0  1.9 -1 0  1.95 -1 0  2 -1 0  2.05 -1 0  2.1 -1 0  2.15 -1 0  2.2 -1 0  2.25 -1 0  2.3 -1 0  2.35 -1 0  2.4 -1 0  2.45 -1 0  2.5 -1 0  2.55 -1 0  2.6 -1 0  2.65 -1 0  2.7 -1 0  2.75 -1 0  2.8 -1 0  2.85 -1 0  2.9 -1 0  2.95 -1 0  3 -1 0  3.050000000000001 -1 0  3.1 -1 0  3.15 -1 0  3.199999999999999 -1 0  3.25 -1 0  3.300000000000001 -1 0  3.35 -1 0  3.4 -1 0  3.449999999999999 -1 0  3.5 -1 0  3.550000000000001 -1 0  3.6 -1 0  3.65 -1 0  3.699999999999999 -1 0  3.75 -1 0  3.800000000000001 -1 0  3.85 -1 0  3.9 -1 0  3.949999999999999 -1 0  4 -1 0  4.050000000000001 -1 0  4.1 -1 0  4.15 -1 0  4.199999999999999 -1 0  4.25 -1 0  4.300000000000001 -1 0  4.35 -1 0  4.4 -1 0  4.449999999999999 -1 0  4.5 -1 0  4.550000000000001 -1 0  4.6 -1 0  4.65 -1 0  4.699999999999999 -1 0  4.75 -1 0  4.800000000000001 -1 0  4.85 -1 0  4.9 -1 0  4.949999999999999 -1 0  5 -1 0  -5 -0.95 0  -4.95 -0.95 0  -4.9 -0.95 0  -4.85 -0.95 0  -4.8 -0.95 0  -4.75 -0.95 0  -4.7 -0.95 0  -4.65 -0.95 0  -4.6 -0.95 0  -4.55 -0.95 0  -4.5 -0.95 0  -4.45 -0.95 0  -4.4 -0.95 0  -4.35 -0.95 0  -4.3 -0.95 0  -4.25 -0.95 0  -4.2 -0.95 0  -4.15 -0.95 0  -4.1 -0.95 0  -4.05 -0.95 0  -4 -0.95 0  -3.95 -0.95 0  -3.9 -0.95 0  -3.85 -0.95 0  -3.8 -0.95 0  -3.75 -0.95 0  -3.7 -0.95 0  -3.65 -0.95 0  -3.6 -0.95 0  -3.55 -0.95 0  -3.5 -0.95 0  -3.45 -0.95 0  -3.4 -0.95 0  -3.35 -0.95 0  -3.3 -0.95 0  -3.25 -0.95 0  -3.2 -0.95 0  -3.15 -0.95 0  -3.1 -0.95 0  -3.05 -0.95 0  -3 -0.95 0  -2.95 -0.95 0  -2.9 -0.95 0  -2.85 -0.95 0  -2.8 -0.95 0  -2.75 -0.95 0  -2.7 -0.95 0  -2.65 -0.95 0  -2.6 -0.95 0  -2.55 -0.95 0  -2.5 -0.95 0  -2.45 -0.95 0  -2.4 -0.95 0  -2.35 -0.95 0  -2.3 -0.95 0  -2.25 -0.95 0  -2.2 -0.95 0  -2.15 -0.95 0  -2.1 -0.95 0  -2.05 -0.95 0  -2 -0.95 0  -1.95 -0.95 0  -1.9 -0.95 0  -1.85 -0.95 0  -1.8 -0.95 0  -1.75 -0.95 0  -1.7 -0.95 0  -1.65 -0.95 0  -1.6 -0.95 0  -1.55 -0.95 0  -1.5 -0.95 0  -1.45 -0.95 0  -1.4 -0.95 0  -1.35 -0.95 0  -1.3 -0.95 0  -1.25 -0.95 0  -1.2 -0.95 0  -1.15 -0.95 0  -1.1 -0.95 0  -1.05 -0.95 0  -1 -0.95 0  -0.9500000000000002 -0.95 0  -0.9000000000000004 -0.95 0  -0.8499999999999996 -0.95 0  -0.7999999999999998 -0.95 0  -0.75 -0.95 0  -0.7000000000000002 -0.95 0  -0.6500000000000004 -0.95 0  -0.5999999999999996 -0.95 0  -0.5499999999999998 -0.95 0  -0.5 -0.95 0  -0.4500000000000002 -0.95 0  -0.4000000000000004 -0.95 0  -0.3499999999999996 -0.95 0  -0.2999999999999998 -0.95 0  -0.25 -0.95 0  -0.2000000000000002 -0.95 0  -0.1500000000000004 -0.95 0  -0.09999999999999964 -0.95 0  -0.04999999999999982 -0.95 0  0 -0.95 0  0.04999999999999982 -0.95 0  0.09999999999999964 -0.95 0  0.1500000000000004 -0.95 0  0.2000000000000002 -0.95 0  0.25 -0.95 0  0.2999999999999998 -0.95 0  0.3499999999999996 -0.95 0  0.4000000000000004 -0.95 0  0.4500000000000002 -0.95 0  0.5 -0.95 0  0.5499999999999998 -0.95 0  0.5999999999999996 -0.95 0  0.6500000000000004 -0.95 0  0.7000000000000002 -0.95 0  0.75 -0.95 0  0.7999999999999998 -0.95 0  0.8499999999999996 -0.95 0  0.9000000000000004 -0.95 0  0.9500000000000002 -0.95 0  1 -0.95 0  1.05 -0.95 0  1.1 -0.95 0  1.15 -0.95 0  1.2 -0.95 0  1.25 -0.95 0  1.3 -0.95 0  1.35 -0.95 0  1.4 -0.95 0  1.45 -0.95 0  1.5 -0.95 0  1.55 -0.95 0  1.6 -0.95 0  1.65 -0.95 0  1.7 -0.95 0  1.75 -0.95 0  1.8 -0.95 0  1.85 -0.95 0  1.9 -0.95 0  1.95 -0.95 0  2 -0.95 0  2.05 -0.95 0  2.1 -0.95 0  2.15 -0.95 0  2.2 -0.95 0  2.25 -0.95 0  2.3 -0.95 0  2.35 -0.95 0  2.4 -0.95 0  2.45 -0.95 0  2.5 -0.95 0  2.55 -0.95 0  2.6 -0.95 0  2.65 -0.95 0  2.7 -0.95 0  2.75 -0.95 0  2.8 -0.95 0  2.85 -0.95 0  2.9 -0.95 0  2.95 -0.95 0  3 -0.95 0  3.050000000000001 -0.95 0  3.1 -0.95 0  3.15 -0.95 0  3.199999999999999 -0.95 0  3.25 -0.95 0  3.300000000000001 -0.95 0  3.35 -0.95 0  3.4 -0.95 0  3.449999999999999 -0.95 0  3.5 -0.95 0  3.550000000000001 -0.95 0  3.6 -0.95 0  3.65 -0.95 0  3.699999999999999 -0.95 0  3.75 -0.95 0  3.800000000000001 -0.95 0  3.85 -0.95 0  3.9 -0.95 0  3.949999999999999 -0.95 0  4 -0.95 0  4.050000000000001 -0.95 0  4.1 -0.95 0  4.15 -0.95 0  4.199999999999999 -0.95 0  4.25 -0.95 0  4.300000000000001 -0.95 0  4.35 -0.95 0  4.4 -0.95 0  4.449999999999999 -0.95 0  4.5 -0.95 0  4.550000000000001 -0.95 0  4.6 -0.95 0  4.65 -0.95 0  4.699999999999999 -0.95 0  4.75 -0.95 0  4.800000000000001 -0.95 0  4.85 -0.95 0  4.9 -0.95 0  4.949999999999999 -0.95 0  5 -0.95 0  -5 -0.9 0  -4.95 -0.9 0  -4.9 -0.9 0  -4.85 -0.9 0  -4.8 -0.9 0  -4.75 -0.9 0  -4.7 -0.9 0  -4.65 -0.9 0  -4.6 -0.9 0  -4.55 -0.9 0  -4.5 -0.9 0  -4.45 -0.9 0  -4.4 -0.9 0  -4.35 -0.9 0  -4.3 -0.9 0  -4.25 -0.9 0  -4.2 -0.9 0  -4.15 -0.9 0  -4.1 -0.9 0  -4.05 -0.9 0  -4 -0.9 0  -3.95 -0.9 0  -3.9 -0.9 0  -3.85 -0.9 0  -3.8 -0.9 0  -3.75 -0.9 0  -3.7 -0.9 0  -3.65 -0.9 0  -3.6 -0.9 0  -3.55 -0.9 0  -3.5 -0.9 0  -3.45 -0.9 0  -3.4 -0.9 0  -3.35 -0.9 0  -3.3 -0.9 0  -3.25 -0.9 0  -3.2 -0.9 0  -3.15 -0.9 0  -3.1 -0.9 0  -3.05 -0.9 0  -3 -0.9 0  -2.95 -0.9 0  -2.9 -0.9 0  -2.85 -0.9 0  -2.8 -0.9 0  -2.75 -0.9 0  -2.7 -0.9 0  -2.65 -0.9 0  -2.6 -0.9 0  -2.55 -0.9 0  -2.5 -0.9 0  -2.45 -0.9 0  -2.4 -0.9 0  -2.35 -0.9 0  -2.3 -0.9 0  -2.25 -0.9 0  -2.2 -0.9 0  -2.15 -0.9 0  -2.1 -0.9 0  -2.05 -0.9 0  -2 -0.9 0  -1.95 -0.9 0  -1.9 -0.9 0  -1.85 -0.9 0  -1.8 -0.9 0  -1.75 -0.9 0  -1.7 -0.9 0  -1.65 -0.9 0  -1.6 -0.9 0  -1.55 -0.9 0  -1.5 -0.9 0  -1.45 -0.9 0  -1.4 -0.9 0  -1.35 -0.9 0  -1.3 -0.9 0  -1.25 -0.9 0  -1.2 -0.9 0  -1.15 -0.9 0  -1.1 -0.9 0  -1.05 -0.9 0  -1 -0.9 0  -0.9500000000000002 -0.9 0  -0.9000000000000004 -0.9 0  -0.8499999999999996 -0.9 0  -0.7999999999999998 -0.9 0  -0.75 -0.9 0  -0.7000000000000002 -0.9 0  -0.6500000000000004 -0.9 0  -0.5999999999999996 -0.9 0  -0.5499999999999998 -0.9 0  -0.5 -0.9 0  -0.4500000000000002 -0.9 0  -0.4000000000000004 -0.9 0  -0.3499999999999996 -0.9 0  -0.2999999999999998 -0.9 0  -0.25 -0.9 0  -0.2000000000000002 -0.9 0  -0.1500000000000004 -0.9 0  -0.09999999999999964 -0.9 0  -0.04999999999999982 -0.9 0  0 -0.9 0  0.04999999999999982 -0.9 0  0.09999999999999964 -0.9 0  0.1500000000000004 -0.9 0  0.2000000000000002 -0.9 0  0.25 -0.9 0  0.2999999999999998 -0.9 0  0.3499999999999996 -0.9 0  0.4000000000000004 -0.9 0  0.4500000000000002 -0.9 0  0.5 -0.9 0  0.5499999999999998 -0.9 0  0.5999999999999996 -0.9 0  0.6500000000000004 -0.9 0  0.7000000000000002 -0.9 0  0.75 -0.9 0  0.7999999999999998 -0.9 0  0.8499999999999996 -0.9 0  0.9000000000000004 -0.9 0  0.9500000000000002 -0.9 0  1 -0.9 0  1.05 -0.9 0  1.1 -0.9 0  1.15 -0.9 0  1.2 -0.9 0  1.25 -0.9 0  1.3 -0.9 0  1.35 -0.9 0  1.4 -0.9 0  1.45 -0.9 0  1.5 -0.9 0  1.55 -0.9 0  1.6 -0.9 0  1.65 -0.9 0  1.7 -0.9 0  1.75 -0.9 0  1.8 -0.9 0  1.85 -0.9 0  1.9 -0.9 0  1.95 -0.9 0  2 -0.9 0  2.05 -0.9 0  2.1 -0.9 0  2.15 -0.9 0  2.2 -0.9 0  2.25 -0.9 0  2.3 -0.9 0  2.35 -0.9 0  2.4 -0.9 0  2.45 -0.9 0  2.5 -0.9 0  2.55 -0.9 0  2.6 -0.9 0  2.65 -0.9 0  2.7 -0.9 0  2.75 -0.9 0  2.8 -0.9 0  2.85 -0.9 0  2.9 -0.9 0  2.95 -0.9 0  3 -0.9 0  3.050000000000001 -0.9 0  3.1 -0.9 0  3.15 -0.9 0  3.199999999999999 -0.9 0  3.25 -0.9 0  3.300000000000001 -0.9 0  3.35 -0.9 0  3.4 -0.9 0  3.449999999999999 -0.9 0  3.5 -0.9 0  3.550000000000001 -0.9 0  3.6 -0.9 0  3.65 -0.9 0  3.699999999999999 -0.9 0  3.75 -0.9 0  3.800000000000001 -0.9 0  3.85 -0.9 0  3.9 -0.9 0  3.949999999999999 -0.9 0  4 -0.9 0  4.050000000000001 -0.9 0  4.1 -0.9 0  4.15 -0.9 0  4.199999999999999 -0.9 0  4.25 -0.9 0  4.300000000000001 -0.9 0  4.35 -0.9 0  4.4 -0.9 0  4.449999999999999 -0.9 0  4.5 -0.9 0  4.550000000000001 -0.9 0  4.6 -0.9 0  4.65 -0.9 0  4.699999999999999 -0.9 0  4.75 -0.9 0  4.800000000000001 -0.9 0  4.85 -0.9 0  4.9 -0.9 0  4.949999999999999 -0.9 0  5 -0.9 0  -5 -0.85 0  -4.95 -0.85 0  -4.9 -0.85 0  -4.85 -0.85 0  -4.8 -0.85 0  -4.75 -0.85 0  -4.7 -0.85 0  -4.65 -0.85 0  -4.6 -0.85 0  -4.55 -0.85 0  -4.5 -0.85 0  -
[...]
<PointData  Vectors="f_15"> 
<DataArray  type="Float64"  Name="f_15"  NumberOfComponents="3" format="ascii">2.2009241433946576e+00 0.0000000000000000e+00 0.0000000000000000e+00  2.2008726088365069e+00 4.7960395927496575e-02 0.0000000000000000e+00  2.2006940697786908e+00 9.5874228375116902e-02 0.0000000000000000e+00  2.2004154003180441e+00 1.4380795227656082e-01 0.0000000000000000e+00  2.2000084402722266e+00 1.9165627652503125e-01 0.0000000000000000e+00  2.1994920795661153e+00 2.3949641688277060e-01 0.0000000000000000e+00  2.1988527575677339e+00 2.8722353444436821e-01 0.0000000000000000e+00  2.1980979411292041e+00 3.3491336619258599e-01 0.0000000000000000e+00  2.1972094739365735e+00 3.8246781186166223e-01 0.0000000000000000e+00  2.1962084112148803e+00 4.2994512315669675e-01 0.0000000000000000e+00  2.1950648342879955e+00 4.7726291640001589e-01 0.0000000000000000e+00  2.1937958135197446e+00 5.2447425680239546e-01 0.0000000000000000e+00  2.1923839656328150e+00 5.7148735968829256e-01 0.0000000000000000e+00  2.1908361611754059e+00 6.1835559294905396e-01 0.0000000000000000e+00  2.1891284042351238e+00 6.6500968335798061e-01 0.0000000000000000e+00  2.1872835702693898e+00 7.1145630045144514e-01 0.0000000000000000e+00  2.1852630397874475e+00 7.5765858739633474e-01 0.0000000000000000e+00  2.1830882099210966e+00 8.0362884432398562e-01 0.0000000000000000e+00  2.1807303510378029e+00 8.4928414554413667e-01 0.0000000000000000e+00  2.1782033098363103e+00 8.9467375569297880e-01 0.0000000000000000e+00  2.1754691123211165e+00 9.3971583947482984e-01 0.0000000000000000e+00  2.1725596864034449e+00 9.8442852230480637e-01 0.0000000000000000e+00  2.1694214506905634e+00 1.0287137747026442e+00 0.0000000000000000e+00  2.1660857777051863e+00 1.0727085080239227e+00 0.0000000000000000e+00  2.1625082513453506e+00 1.1161014190451128e+00 0.0000000000000000e+00  2.1587148465812525e+00 1.1592257145801121e+00 0.0000000000000000e+00  2.1546512749462519e+00 1.2017026765552525e+00 0.0000000000000000e+00  2.1503619847694240e+00 1.2437742250424231e+00 0.0000000000000000e+00  2.1457806897688281e+00 1.2852091189163917e+00 0.0000000000000000e+00  2.1409491100195401e+00 1.3261833108448369e+00 0.0000000000000000e+00  2.1358143081528778e+00 1.3664050151512679e+00 0.0000000000000000e+00  2.1304131779661057e+00 1.4061490797461520e+00 0.0000000000000000e+00  2.1246856072361253e+00 1.4451269312521804e+00 0.0000000000000000e+00  2.1186882278513468e+00 1.4834883680351814e+00 0.0000000000000000e+00  2.1123525292480454e+00 1.5210954695080461e+00 0.0000000000000000e+00  2.1057354801064658e+00 1.5580716032179240e+00 0.0000000000000000e+00  2.0987824240528985e+00 1.5941921025346923e+00 0.0000000000000000e+00  2.0915513658099516e+00 1.6296856150543204e+00 0.0000000000000000e+00  2.0839823832072337e+00 1.6643499840281013e+00 0.0000000000000000e+00  2.0761538131091539e+00 1.6982968515289814e+00 0.0000000000000000e+00  2.0680041029869392e+00 1.7314677498790554e+00 0.0000000000000000e+00  2.0596103217436692e+00 1.7639286726694006e+00 0.0000000000000000e+00  2.0509286698331746e+00 1.7955982154408143e+00 0.0000000000000000e+00  2.0420369976749160e+00 1.8266067035426135e+00 0.0000000000000000e+00  2.0328903092532822e+00 1.8568633118997526e+00 0.0000000000000000e+00  2.0235806587754981e+00 1.8864613233913519e+00 0.0000000000000000e+00  2.0140675979292944e+00 1.9153705688053844e+00 0.0000000000000000e+00  2.0044384889685452e+00 1.9436735250890156e+00 0.0000000000000000e+00  1.9946657846860822e+00 1.9712967143876026e+00 0.0000000000000000e+00  1.9848424301104808e+00 1.9983542162607544e+00 0.0000000000000000e+00  1.9749351900292291e+00 2.0247833972574192e+00 0.0000000000000000e+00  1.9650482690372064e+00 2.0506313877789544e+00 0.0000000000000000e+00  1.9551575070841254e+00 2.0758564412272960e+00 0.0000000000000000e+00  1.9453615426094899e+00 2.1004753323914240e+00 0.0000000000000000e+00  1.9356531144281919e+00 2.1244269929880533e+00 0.0000000000000000e+00  1.9261437522515188e+00 2.1476473635986588e+00 0.0000000000000000e+00  1.9168293830337724e+00 2.1701154237029812e+00 0.0000000000000000e+00  1.9078462886397141e+00 2.1916161860515286e+00 0.0000000000000000e+00  1.8992146323041219e+00 2.2121284001909420e+00 0.0000000000000000e+00  1.8910849838655306e+00 2.2313615837949476e+00 0.0000000000000000e+00  1.8835101349312762e+00 2.2491992058351769e+00 0.0000000000000000e+00  1.8766714594253133e+00 2.2652652872319439e+00 0.0000000000000000e+00  1.8706149404971595e+00 2.2794769551866025e+00 0.0000000000000000e+00  1.8655172638458504e+00 2.2914107611896828e+00 0.0000000000000000e+00  1.8613678080196612e+00 2.3011387334679632e+00 0.0000000000000000e+00  1.8582230805562185e+00 2.3085122031749963e+00 0.0000000000000000e+00  1.8559336925424161e+00 2.3138813219558005e+00 0.0000000000000000e+00  1.8544110054138068e+00 2.3174667250278662e+00 0.0000000000000000e+00  1.8533801395338647e+00 2.3199059331895868e+00 0.0000000000000000e+00  1.8527318019058450e+00 2.3214376737311744e+00 0.0000000000000000e+00  1.8522486707854653e+00 2.3225806373413271e+00 0.0000000000000000e+00  1.8518983635642290e+00 2.3234176082734943e+00 0.0000000000000000e+00  1.8515710195698785e+00 2.3241752231597288e+00 0.0000000000000000e+00  1.8513059139169035e+00 2.3247922761490214e+00 0.0000000000000000e+00  1.8510343926730872e+00 2.3254385498303356e+00 0.0000000000000000e+00  1.8507949724109265e+00 2.3259636809725599e+00 0.0000000000000000e+00  1.8505707887603173e+00 2.3265053478239879e+00 0.0000000000000000e+00  1.8503639423399332e+00 2.3269528411703480e+00 0.0000000000000000e+00  1.8501683420904793e+00 2.3274352858448788e+00 0.0000000000000000e+00  1.8499939322015173e+00 2.3277746699849957e+00 0.0000000000000000e+00  1.8498468363943124e+00 2.3281937154031267e+00 0.0000000000000000e+00  1.8496766928262482e+00 2.3284765934062062e+00 0.0000000000000000e+00  1.8495732035354466e+00 2.3288213228429870e+00 0.0000000000000000e+00  1.8494276466473114e+00 2.3290328493795220e+00 0.0000000000000000e+00  1.8493449819144112e+00 2.3293558108781247e+00 0.0000000000000000e+00  1.8492126399435251e+00 2.3294808941222547e+00 0.0000000000000000e+00  1.8491763094863640e+00 2.3297734110967538e+00 0.0000000000000000e+00  1.8490343679109282e+00 2.3298447323969649e+00 0.0000000000000000e+00  1.8490262292606388e+00 2.3301299406208971e+00 0.0000000000000000e+00  1.8488965227197998e+00 2.3301258491073504e+00 0.0000000000000000e+00  1.8489121342038508e+00 2.3304137193359957e+00 0.0000000000000000e+00  1.8487694180595935e+00 2.3303553371984407e+00 0.0000000000000000e+00  1.8488304289148438e+00 2.3306403895766241e+00 0.0000000000000000e+00  1.8486709333974118e+00 2.3305206847077344e+00 0.0000000000000000e+00  1.8487478379462081e+00 2.3308518419461208e+00 0.0000000000000000e+00  1.8485925286753166e+00 2.3306476732012071e+00 0.0000000000000000e+00  1.8486956148589135e+00 2.3310009956478561e+00 0.0000000000000000e+00  1.8485085294070054e+00 2.3307632479113320e+00 0.0000000000000000e+00  1.8486603141911420e+00 2.3311318041288285e+00 0.0000000000000000e+00  1.8484437269012437e+00 2.3308238601017521e+00 0.0000000000000000e+00  1.8486205583290343e+00 2.3312718010025160e+00 0.0000000000000000e+00  1.8483904262878950e+00 2.3308571193768048e+00 0.0000000000000000e+00  1.8485996452711118e+00 2.3313712822686901e+00 0.0000000000000000e+00  1.8483289547991533e+00 2.3308998645808550e+00 0.0000000000000000e+00  1.8485913361895199e+00 2.3314586877190502e+00 0.0000000000000000e+00  1.8482760838034329e+00 2.3308947090319445e+00 0.0000000000000000e+00  1.8485834729956867e+00 2.3315763119614421e+00 0.0000000000000000e+00  1.8482278097352181e+00 2.3308594676462842e+00 0.0000000000000000e+00  1.8485816867483320e+00 2.3316689209308508e+00 0.0000000000000000e+00  1.8481844272045171e+00 2.3308523813250228e+00 0.0000000000000000e+00  1.8485810534978349e+00 2.3317236497610296e+00 0.0000000000000000e+00  1.8481430186365404e+00 2.3308330953867062e+00 0.0000000000000000e+00  1.8485875588114535e+00 2.3318173814756822e+00 0.0000000000000000e+00  1.8480988862482897e+00 2.3307594235411369e+00 0.0000000000000000e+00  1.8485962666568252e+00 2.3319026290297518e+00 0.0000000000000000e+00  1.8480708935704093e+00 2.3307524217972899e+00 0.0000000000000000e+00  1.8485795060177994e+00 2.3318867118256703e+00 0.0000000000000000e+00  1.8480650440788535e+00 2.3308038605735044e+00 0.0000000000000000e+00  1.8485672557571746e+00 2.3318781241878224e+00 0.0000000000000000e+00  1.8480417578611792e+00 2.3307747226220923e+00 0.0000000000000000e+00  1.8485657773476072e+00 2.3319327351424715e+00 0.0000000000000000e+00  1.8480364705859202e+00 2.3307887351268324e+00 0.0000000000000000e+00  1.8485221345784324e+00 2.3318201566968373e+00 0.0000000000000000e+00  1.8480785958289370e+00 2.3309622540640280e+00 0.0000000000000000e+00  1.8484668922523868e+00 2.3316722103730601e+00 0.0000000000000000e+00  1.8480810906125866e+00 2.3310186332886840e+00 0.0000000000000000e+00  1.8484699340055071e+00 2.3316830782233842e+00 0.0000000000000000e+00  1.8480726990120344e+00 2.3310082946739299e+00 0.0000000000000000e+00  1.8484172630115545e+00 2.3315947717284780e+00 0.0000000000000000e+00  1.8481384704260921e+00 2.3311815117812493e+00 0.0000000000000000e+00  1.8483431758786331e+00 2.3313939050186936e+00 0.0000000000000000e+00  1.8481542731248319e+00 2.3312734670301034e+00 0.0000000000000000e+00  1.8483480049324146e+00 2.3313965135741781e+00 0.0000000000000000e+00  1.8481297193728985e+00 2.3312234492425730e+00 0.0000000000000000e+00  1.8483207963479440e+00 2.3313680395239458e+00 0.0000000000000000e+00  1.8481834169764380e+00 2.3313108298880563e+00 0.0000000000000000e+00  1.8482397622261011e+00 2.3312077382499639e+00 0.0000000000000000e+00  1.8482164194343342e+00 2.3314347142000087e+00 0.0000000000000000e+00  1.8482353169071684e+00 2.3310990163652225e+00 0.0000000000000000e+00  1.8481858326981100e+00 2.3314376163100698e+00 0.0000000000000000e+00  1.8482336819289484e+00 2.3311343918240652e+00 0.0000000000000000e+00  1.8482014280812213e+00 2.3313691724555632e+00 0.0000000000000000e+00  1.8481802786327535e+00 2.3311022558203436e+00 0.0000000000000000e+00  1.8482401211298793e+00 2.3314221559701673e+00 0.0000000000000000e+00  1.8481465324089179e+00 2.3310180426400322e+00 0.0000000000000000e+00  1.8482151341327782e+00 2.3313484075829027e+00 0.0000000000000000e+00  1.8481884319537252e+00 2.3311175025870208e+00 0.0000000000000000e+00  1.8481621622073972e+00 2.3312022188877983e+00 0.0000000000000000e+00  1.8481693184176282e+00 2.3311317150032842e+00 0.0000000000000000e+00  1.8482126739610825e+00 2.3311935625997422e+00 0.0000000000000000e+00  1.8480997182430055e+00 2.3310943012857166e+00 0.0000000000000000e+00  1.8482141255067244e+00 2.3311076515140252e+00 0.0000000000000000e+00  1.8481100640300101e+00 2.3310624941694900e+00 0.0000000000000000e+00  1.8482009329416447e+00 2.3310083919971794e+00 0.0000000000000000e+00  1.8480650857226297e+00 2.3309163469291918e+00 0.0000000000000000e+00  1.8482237342583359e+00 2.3307812914008395e+00 0.0000000000000000e+00  1.8480763798898561e+00 2.3308001041715452e+00 0.0000000000000000e+00  1.8481579800302181e+00 2.3304055683082847e+00 0.0000000000000000e+00  1.8481174467681765e+00 2.3304222564085606e+00 0.0000000000000000e+00  1.8481768241313090e+00 2.3301369356517796e+00 0.0000000000000000e+00  1.8480608240754535e+00 2.3298196839846494e+00 0.0000000000000000e+00  1.8481999917307890e+00 2.3296321826953323e+00 0.0000000000000000e+00  1.8480535241564799e+00 2.3294354322761701e+00 0.0000000000000000e+00  1.8480731024941393e+00 2.3290047728656842e+00 0.0000000000000000e+00  1.8479431329343072e+00 2.3290132501969665e+00 0.0000000000000000e+00  1.8480439956088868e+00 2.3286904489264031e+00 0.0000000000000000e+00  1.8476307972968649e+00 2.3283201180484814e+00 0.0000000000000000e+00  1.8482969501415092e+00 2.3282282732235271e+00 0.0000000000000000e+00  1.8475826623007199e+00 2.3272980085479822e+00 0.0000000000000000e+00  1.8486853108176888e+00 2.3276020953161920e+00 0.0000000000000000e+00  1.8477056910980783e+00 2.3261791637073514e+00 0.0000000000000000e+00  1.8489836135656426e+00 2.3275453340597569e+00 0.0000000000000000e+00  1.8474175505063206e+00 2.3259278196560715e+00 0.0000000000000000e+00  1.8489490000042641e+00 2.3274820409209487e+00 0.0000000000000000e+00  1.8476178595626747e+00 2.3263652776737618e+00 0.0000000000000000e+00  1.8483030097344111e+00 2.3261906572189686e+00 0.0000000000000000e+00  1.8500248466085412e+00 2.3260749659107089e+00 0.0000000000000000e+00  1.8449675538700485e+00 2.3254653331647650e+00 0.0000000000000000e+00  1.8298309902397487e+00 2.3878380214797890e+00 0.0000000000000000e+00  2.1455311576969871e+00 1.6476008762932379e+00 0.0000000000000000e+00  2.7180787365969765e+00 4.3656619976301902e-01 0.0000000000000000e+00  2.9516500001473047e+00 4.4463116222033860e-02 0.0000000000000000e+00  2.9710283704211751e+00 2.4052477592939755e-03 0.0000000000000000e+00  2.9629925395420336e+00 2.1061216487540196e-03 0.0000000000000000e+00  2.9718254798881918e+00 -9.3061854140451625e-03 0.0000000000000000e+00  2.9717094618055220e+00 -6.9601133917040290e-03 0.0000000000000000e+00  2.9712003138986125e+00 -8.5017139445664105e-03 0.0000000000000000e+00  2.9729767135064713e+00 -1.1476154347492737e-02 0.0000000000000000e+00  2.9722524386204507e+00 -9.7951850902962649e-03 0.0000000000000000e+00  2.9716663180694973e+00 -8.6937755243897546e-03 0.0000000000000000e+00  2.9717068270143945e+00 -9.2707655235419462e-03 0.0000000000000000e+00  2.9719376120358438e+00 -9.4033251384581674e-03 0.0000000000000000e+00  2.9719169331240507e+00 -9.1394643531642755e-03 0.0000000000000000e+00  2.9718240488672856e+00 -1.0175037419435019e-02 0.0000000000000000e+00  2.9717079551695620e+00 -8.5809345826759822e-03 0.0000000000000000e+00  2.9716987556250349e+00 -9.8831177807321910e-03 0.0000000000000000e+00  2.9717656709794738e+00 -9.7991491810295213e-03 0.0000000000000000e+00  2.9716898835225041e+00 -8.9594308705343313e-03 0.0000000000000000e+00  2.9717436909767403e+00 -1.4850946365637984e-02 0.0000000000000000e+00  2.9716552946319736e+00 -1.0389262295150175e-02 0.0000000000000000e+00  2.9716650549979189e+00 0.0000000000000000e+00 0.0000000000000000e+00  2.2009251357579043e+00 0.0000000000000000e+00 -1.4329884812453164e-05  2.2008688130846923e+00 4.7950406738637506e-02 5.4098069588903056e-06  2.2006980589137397e+00 9.5890504675093871e-02 -8.1782147344084242e-07  2.2004130249030363e+00 1.4380209087185850e-01 3.3089961556913285e-06  2.2000083846244194e+00 1.9166939933935198e-01 -3.8349259396189105e-06  2.1994932580316444e+00 2.3949147834666154e-01 5.1539654500477311e-06  2.1988545169755556e+00 2.8723585891841547e-01 -4.7480681668934286e-06  2.1980947708773853e+00 3.3491295679726613e-01 5.1885121479966999e-06  2.1972153190256929e+00 3.8247643511441481e-01 -4.6971962172990186e-06  2.1962067782325154e+00 4.2994616599456159e-01 5.7668810695771763e-06  2.1950665485712642e+00 4.7727614260992984e-01 -6.0501101394290208e-06  2.1937978248040420e+00 5.2447276127844500e-01 7.4977754008245740e-06  2.1923876640219540e+00 5.7149723129091545e-01 -8.1400300613177387e-06  2.1908330825217428e+00 6.1836608921375336e-01 1.0650100508619014e-05  2.1891365442651369e+00 6.6500881865208628e-01 -1.3442751611841006e-05  2.1872811557794845e+00 7.1146767475691641e-01 1.8107714000924785e-05  2.1852672131353361e+00 7.5766688917936020e-01 -2.1912907899837043e-05  2.1830885034558545e+00 8.0363173631305385e-01 2.5757126230328932e-05  2.1807367131555773e+00 8.4928575696830433e-01 -2.7920066216153431e-05  2.1781977723609658e+00 8.9469357694699558e-01 3.0198176458799207e-05  2.1754796486488583e+00 9.3970466576649658e-01 -3.1465821126615227e-05  2.1725547462343573e+00 9.8443136166695133e-01 3.2294697623021497e-05  2.1694275634979494e+00 1.0287431270459841e+00 -3.0283257740500191e-05  2.1660835924040498e+00 1.0726651317940785e+00 2.5212837871416666e-05  2.1625160613105772e+00 1.1161424093521368e+00 -1.6623491066114113e-05  2.1587077967691810e+00 1.1592043769604805e+00 7.4653492008960534e-06  2.1546617702251654e+00 1.2017052264654611e+00 1.3952912652049297e-07  2.1503572357547194e+00 1.2437581031186760e+00 -4.2507222038007926e-06  2.1457859792840468e+00 1.2852421883802327e+00 6.2221461591455164e-06  2.1409473479564789e+00 1.3261209130176181e+00 -6.9791408938985671e-06  2.1358219983366169e+00 1.3664453975764426e+00 7.5549994478208629e-06  2.1304061648961414e+00 1.4061211398209412e+00 -6.5167968218425304e-06  2.1246966393159732e+00 1.4451188742949537e+00 4.2384308994993534e-06  2.1186827247863707e+00 1.4834684264328559e+00 -8.3317508669984018e-07  2.1123596604296035e+00 1.5211198741972731e+00 -1.3566446200763004e-06  2.1057313572250056e+00 1.5580161153719825e+00 3.0542944338891743e-06  2.0987923685672638e+00 1.5942111829349419e+00 -3.3477110036060283e-06  2.0915419857347057e+00 1.6296717726126690e+00 3.5137712103002801e-06  2.0839939189334480e+00 1.6643329562819695e+00 -1.9850833510642112e-06  2.0761464241124736e+00 1.6982886377648356e+00 1.0726034293316697e-06  2.0680106600815145e+00 1.7314739396397361e+00 -7.4854106623557226e-07  2.0596038532065242e+00 1.7639009324747501e+00 1.8899741597553474e-06  2.0509372914347268e+00 1.7956101444719448e+00 -1.7835208523554148e-06  2.0420266470887820e+00 1.8265947770795488e+00 4.8650677018319831e-07  2.0328994195750161e+00 1.8568572277851516e+00 2.7112805890664942e-07  2.0235736042015189e+00 1.8864530659240757e+00 5.5803496355054810e-07  2.0140744617687094e+00 1.9153813190933462e+00 -3.1770641744809528e-06  2.0044311526005161e+00 1.9436496004348489e+00 4.9971342100740478e-06  1.9946769348585911e+00 1.9712992564660872e+00 -7.5835619075248255e-06  1.9848320560123169e+00 1.9983567843687560e+00 8.2459161523813616e-06  1.9749446898324647e+00 2.0247769952853183e+00 -8.8112031551421272e-06  1.9650402570633074e+00 2.0506322459976678e+00 7.0352057445579309e-06  1.9551627865101966e+00 2.0758623496825410e+00 -8.7139011248657744e-06  1.9453506881163236e+00 2.1004879460854231e+00 9.1549716225740632e-06  1.9356601530381117e+00 2.1244207401556445e+00 -1.1496782948270287e-05  1.9261278161381159e+00 2.1476887655244097e+00 9.4571921428473967e-06  1.9168318945621101e+00 2.1701037619457249e+00 -1.0391357703094537e-05  1.9078298387992794e+00 2.1916624178172288e+00 7.3542034994875902e-06  1.8992095690607822e+00 2.2121449773301327e+00 -7.6919724289716371e-06  1.8910634312768633e+00 2.2314119847363125e+00 4.1311419584527036e-06  1.8835080918705283e+00 2.2492018498182267e+00 -5.4168971619466414e-06  1.8766477928304142e+00 2.2653319446374969e+00 3.2833365273253937e-06  1.8706140821271742e+00 2.2794699662675164e+00 -2.3817391076995794e-06  1.8655026415535987e+00 2.2914565360682411e+00 2.2827460708944780e-06  1.8613685837126832e+00 2.3011420792726320e+00 5.3782028259223892e-07  1.8582142090615537e+00 2.3085346270849225e+00 1.1078805743982733e-06  1.8559476350251938e+00 2.3138563215006811e+00 1.3018065120269099e-06  1.8544052814043122e+00 2.3174930817728376e+00 -1.7469558574195221e-06  1.8533922056761962e+00 2.3198737782470906e+00 -1.3932623347984853e-06  1.8527238065555292e+00 2.3214554505125147e+00 -3.4179339889656811e-06  1.8522433427480263e+00 2.3225940271889485e+00 -1.9916715218743073e-06  1.8518727306178222e+00 2.3234591918955902e+00 -1.1919315541162795e-06  1.8515590219770313e+00 2.3241923016407906e+00 -1.8016615257222800e-06  1.8512785681142834e+00 2.3248553342459211e+00 1.6817472626592676e-06  1.8510166639149275e+00 2.3254458012267776e+00 -3.6586179434379884e-06  1.8507838863938819e+00 2.3259897326113332e+00 4.6821169697771744e-06  1.8505623870385586e+00 2.3264996847352535e+00 -5.2091075125118425e-06  1.8503512619329761e+00 2.3269774811794957e+00 5.6388065043716730e-06  1.8501697680200953e+00 2.3273875043972558e+00 -6.6833771157566218e-06  1.8499939888317276e+00 2.3277989134198980e+00 6.8898445012175715e-06  1.8498288129545168e+00 2.3281597251166128e+00 -9.0060449706027200e-06  1.8496859841043456e+00 2.3284831360270277e+00 8.6233536016298054e-06  1.8495598663619530e+00 2.