<?xml version="1.0"?>
<VTKFile type="UnstructuredGrid"  version="0.1"  >
<UnstructuredGrid>
<Piece  NumberOfPoints="8241" NumberOfCells="16000">
<Points>
<DataArray  type="Float64"  NumberOfComponents="3"  format="ascii">-5 -1 0  -4.95 -1 0  -4.9 -1 0  -4.85 -1 0  -4.8 -1 0  -4.75 -1 0  -4.7 -1 0  -4.65 -1 0  -4.6 -1 0  -4.55 -1 0  -4.5 -1 0  -4.45 -1 0  -4.4 -1 0  -4.35 -1 0  -4.3 -1 0  -4.25 -1 0  -4.2 -1 0  -4.15 -1 0  -4.1 -1 0  -4.05 -1 0  -4 -1 0  -3.95 -1 0  -3.9 -1 0  -3.85 -1 0  -3.8 -1 0  -3.75 -1 0  -3.7 -1 0  -3.65 -1 0  -3.6 -1 0  -3.55 -1 0  -3.5 -1 0  -3.45 -1 0  -3.4 -1 0  -3.35 -1 0  -3.3 -1 0  -3.25 -1 0  -3.2 -1 0  -3.15 -1 0  -3.1 -1 0  -3.05 -1 0  -3 -1 0  -2.95 -1 0  -2.9 -1 0  -2.85 -1 0  -2.8 -1 0  -2.75 -1 0  -2.7 -1 0  -2.65 -1 0  -2.6 -1 0  -2.55 -1 0  -2.5 -1 0  -2.45 -1 0  -2.4 -1 0  -2.35 -1 0  -2.3 -1 0  -2.25 -1 0  -2.2 -1 0  -2.15 -1 0  -2.1 -1 0  -2.05 -1 0  -2 -1 0  -1.95 -1 0  -1.9 -1 0  -1.85 -1 0  -1.8 -1 0  -1.75 -1 0  -1.7 -1 0  -1.65 -1 0  -1.6 -1 0  -1.55 -1 0  -1.5 -1 0  -1.45 -1 0  -1.4 -1 0  -1.35 -1 0  -1.3 -1 0  -1.25 -1 0  -1.2 -1 0  -1.15 -1 0  -1.1 -1 0  -1.05 -1 0  -1 -1 0  -0.9500000000000002 -1 0  -0.9000000000000004 -1 0  -0.8499999999999996 -1 0  -0.7999999999999998 -1 0  -0.75 -1 0  -0.7000000000000002 -1 0  -0.6500000000000004 -1 0  -0.5999999999999996 -1 0  -0.5499999999999998 -1 0  -0.5 -1 0  -0.4500000000000002 -1 0  -0.4000000000000004 -1 0  -0.3499999999999996 -1 0  -0.2999999999999998 -1 0  -0.25 -1 0  -0.2000000000000002 -1 0  -0.1500000000000004 -1 0  -0.09999999999999964 -1 0  -0.04999999999999982 -1 0  0 -1 0  0.04999999999999982 -1 0  0.09999999999999964 -1 0  0.1500000000000004 -1 0  0.2000000000000002 -1 0  0.25 -1 0  0.2999999999999998 -1 0  0.3499999999999996 -1 0  0.4000000000000004 -1 0  0.4500000000000002 -1 0  0.5 -1 0  0.5499999999999998 -1 0  0.5999999999999996 -1 0  0.6500000000000004 -1 0  0.7000000000000002 -1 0  0.75 -1 0  0.7999999999999998 -1 0  0.8499999999999996 -1 0  0.9000000000000004 -1 0  0.9500000000000002 -1 0  1 -1 0  1.05 -1 0  1.1 -1 0  1.15 -1 0  1.2 -1 0  1.25 -1 0  1.3 -1 0  1.35 -1 0  1.4 -1 0  1.45 -1 0  1.5 -1 0  1.55 -1 0  1.6 -1 0  1.65 -1 0  1.7 -1 0  1.75 -1 0  1.8 -1 0  1.85 -1 0  1.9 -1 0  1.95 -1 0  2 -1 0  2.05 -1 0  2.1 -1 0  2.15 -1 0  2.2 -1 0  2.25 -1 0  2.3 -1 0  2.35 -1 0  2.4 -1 0  2.45 -1 0  2.5 -1 0  2.55 -1 0  2.6 -1 0  2.65 -1 0  2.7 -1 0  2.75 -1 0  2.8 -1 0  2.85 -1 0  2.9 -1 0  2.95 -1 0  3 -1 0  3.050000000000001 -1 0  3.1 -1 0  3.15 -1 0  3.199999999999999 -1 0  3.25 -1 0  3.300000000000001 -1 0  3.35 -1 0  3.4 -1 0  3.449999999999999 -1 0  3.5 -1 0  3.550000000000001 -1 0  3.6 -1 0  3.65 -1 0  3.699999999999999 -1 0  3.75 -1 0  3.800000000000001 -1 0  3.85 -1 0  3.9 -1 0  3.949999999999999 -1 0  4 -1 0  4.050000000000001 -1 0  4.1 -1 0  4.15 -1 0  4.199999999999999 -1 0  4.25 -1 0  4.300000000000001 -1 0  4.35 -1 0  4.4 -1 0  4.449999999999999 -1 0  4.5 -1 0  4.550000000000001 -1 0  4.6 -1 0  4.65 -1 0  4.699999999999999 -1 0  4.75 -1 0  4.800000000000001 -1 0  4.85 -1 0  4.9 -1 0  4.949999999999999 -1 0  5 -1 0  -5 -0.95 0  -4.95 -0.95 0  -4.9 -0.95 0  -4.85 -0.95 0  -4.8 -0.95 0  -4.75 -0.95 0  -4.7 -0.95 0  -4.65 -0.95 0  -4.6 -0.95 0  -4.55 -0.95 0  -4.5 -0.95 0  -4.45 -0.95 0  -4.4 -0.95 0  -4.35 -0.95 0  -4.3 -0.95 0  -4.25 -0.95 0  -4.2 -0.95 0  -4.15 -0.95 0  -4.1 -0.95 0  -4.05 -0.95 0  -4 -0.95 0  -3.95 -0.95 0  -3.9 -0.95 0  -3.85 -0.95 0  -3.8 -0.95 0  -3.75 -0.95 0  -3.7 -0.95 0  -3.65 -0.95 0  -3.6 -0.95 0  -3.55 -0.95 0  -3.5 -0.95 0  -3.45 -0.95 0  -3.4 -0.95 0  -3.35 -0.95 0  -3.3 -0.95 0  -3.25 -0.95 0  -3.2 -0.95 0  -3.15 -0.95 0  -3.1 -0.95 0  -3.05 -0.95 0  -3 -0.95 0  -2.95 -0.95 0  -2.9 -0.95 0  -2.85 -0.95 0  -2.8 -0.95 0  -2.75 -0.95 0  -2.7 -0.95 0  -2.65 -0.95 0  -2.6 -0.95 0  -2.55 -0.95 0  -2.5 -0.95 0  -2.45 -0.95 0  -2.4 -0.95 0  -2.35 -0.95 0  -2.3 -0.95 0  -2.25 -0.95 0  -2.2 -0.95 0  -2.15 -0.95 0  -2.1 -0.95 0  -2.05 -0.95 0  -2 -0.95 0  -1.95 -0.95 0  -1.9 -0.95 0  -1.85 -0.95 0  -1.8 -0.95 0  -1.75 -0.95 0  -1.7 -0.95 0  -1.65 -0.95 0  -1.6 -0.95 0  -1.55 -0.95 0  -1.5 -0.95 0  -1.45 -0.95 0  -1.4 -0.95 0  -1.35 -0.95 0  -1.3 -0.95 0  -1.25 -0.95 0  -1.2 -0.95 0  -1.15 -0.95 0  -1.1 -0.95 0  -1.05 -0.95 0  -1 -0.95 0  -0.9500000000000002 -0.95 0  -0.9000000000000004 -0.95 0  -0.8499999999999996 -0.95 0  -0.7999999999999998 -0.95 0  -0.75 -0.95 0  -0.7000000000000002 -0.95 0  -0.6500000000000004 -0.95 0  -0.5999999999999996 -0.95 0  -0.5499999999999998 -0.95 0  -0.5 -0.95 0  -0.4500000000000002 -0.95 0  -0.4000000000000004 -0.95 0  -0.3499999999999996 -0.95 0  -0.2999999999999998 -0.95 0  -0.25 -0.95 0  -0.2000000000000002 -0.95 0  -0.1500000000000004 -0.95 0  -0.09999999999999964 -0.95 0  -0.04999999999999982 -0.95 0  0 -0.95 0  0.04999999999999982 -0.95 0  0.09999999999999964 -0.95 0  0.1500000000000004 -0.95 0  0.2000000000000002 -0.95 0  0.25 -0.95 0  0.2999999999999998 -0.95 0  0.3499999999999996 -0.95 0  0.4000000000000004 -0.95 0  0.4500000000000002 -0.95 0  0.5 -0.95 0  0.5499999999999998 -0.95 0  0.5999999999999996 -0.95 0  0.6500000000000004 -0.95 0  0.7000000000000002 -0.95 0  0.75 -0.95 0  0.7999999999999998 -0.95 0  0.8499999999999996 -0.95 0  0.9000000000000004 -0.95 0  0.9500000000000002 -0.95 0  1 -0.95 0  1.05 -0.95 0  1.1 -0.95 0  1.15 -0.95 0  1.2 -0.95 0  1.25 -0.95 0  1.3 -0.95 0  1.35 -0.95 0  1.4 -0.95 0  1.45 -0.95 0  1.5 -0.95 0  1.55 -0.95 0  1.6 -0.95 0  1.65 -0.95 0  1.7 -0.95 0  1.75 -0.95 0  1.8 -0.95 0  1.85 -0.95 0  1.9 -0.95 0  1.95 -0.95 0  2 -0.95 0  2.05 -0.95 0  2.1 -0.95 0  2.15 -0.95 0  2.2 -0.95 0  2.25 -0.95 0  2.3 -0.95 0  2.35 -0.95 0  2.4 -0.95 0  2.45 -0.95 0  2.5 -0.95 0  2.55 -0.95 0  2.6 -0.95 0  2.65 -0.95 0  2.7 -0.95 0  2.75 -0.95 0  2.8 -0.95 0  2.85 -0.95 0  2.9 -0.95 0  2.95 -0.95 0  3 -0.95 0  3.050000000000001 -0.95 0  3.1 -0.95 0  3.15 -0.95 0  3.199999999999999 -0.95 0  3.25 -0.95 0  3.300000000000001 -0.95 0  3.35 -0.95 0  3.4 -0.95 0  3.449999999999999 -0.95 0  3.5 -0.95 0  3.550000000000001 -0.95 0  3.6 -0.95 0  3.65 -0.95 0  3.699999999999999 -0.95 0  3.75 -0.95 0  3.800000000000001 -0.95 0  3.85 -0.95 0  3.9 -0.95 0  3.949999999999999 -0.95 0  4 -0.95 0  4.050000000000001 -0.95 0  4.1 -0.95 0  4.15 -0.95 0  4.199999999999999 -0.95 0  4.25 -0.95 0  4.300000000000001 -0.95 0  4.35 -0.95 0  4.4 -0.95 0  4.449999999999999 -0.95 0  4.5 -0.95 0  4.550000000000001 -0.95 0  4.6 -0.95 0  4.65 -0.95 0  4.699999999999999 -0.95 0  4.75 -0.95 0  4.800000000000001 -0.95 0  4.85 -0.95 0  4.9 -0.95 0  4.949999999999999 -0.95 0  5 -0.95 0  -5 -0.9 0  -4.95 -0.9 0  -4.9 -0.9 0  -4.85 -0.9 0  -4.8 -0.9 0  -4.75 -0.9 0  -4.7 -0.9 0  -4.65 -0.9 0  -4.6 -0.9 0  -4.55 -0.9 0  -4.5 -0.9 0  -4.45 -0.9 0  -4.4 -0.9 0  -4.35 -0.9 0  -4.3 -0.9 0  -4.25 -0.9 0  -4.2 -0.9 0  -4.15 -0.9 0  -4.1 -0.9 0  -4.05 -0.9 0  -4 -0.9 0  -3.95 -0.9 0  -3.9 -0.9 0  -3.85 -0.9 0  -3.8 -0.9 0  -3.75 -0.9 0  -3.7 -0.9 0  -3.65 -0.9 0  -3.6 -0.9 0  -3.55 -0.9 0  -3.5 -0.9 0  -3.45 -0.9 0  -3.4 -0.9 0  -3.35 -0.9 0  -3.3 -0.9 0  -3.25 -0.9 0  -3.2 -0.9 0  -3.15 -0.9 0  -3.1 -0.9 0  -3.05 -0.9 0  -3 -0.9 0  -2.95 -0.9 0  -2.9 -0.9 0  -2.85 -0.9 0  -2.8 -0.9 0  -2.75 -0.9 0  -2.7 -0.9 0  -2.65 -0.9 0  -2.6 -0.9 0  -2.55 -0.9 0  -2.5 -0.9 0  -2.45 -0.9 0  -2.4 -0.9 0  -2.35 -0.9 0  -2.3 -0.9 0  -2.25 -0.9 0  -2.2 -0.9 0  -2.15 -0.9 0  -2.1 -0.9 0  -2.05 -0.9 0  -2 -0.9 0  -1.95 -0.9 0  -1.9 -0.9 0  -1.85 -0.9 0  -1.8 -0.9 0  -1.75 -0.9 0  -1.7 -0.9 0  -1.65 -0.9 0  -1.6 -0.9 0  -1.55 -0.9 0  -1.5 -0.9 0  -1.45 -0.9 0  -1.4 -0.9 0  -1.35 -0.9 0  -1.3 -0.9 0  -1.25 -0.9 0  -1.2 -0.9 0  -1.15 -0.9 0  -1.1 -0.9 0  -1.05 -0.9 0  -1 -0.9 0  -0.9500000000000002 -0.9 0  -0.9000000000000004 -0.9 0  -0.8499999999999996 -0.9 0  -0.7999999999999998 -0.9 0  -0.75 -0.9 0  -0.7000000000000002 -0.9 0  -0.6500000000000004 -0.9 0  -0.5999999999999996 -0.9 0  -0.5499999999999998 -0.9 0  -0.5 -0.9 0  -0.4500000000000002 -0.9 0  -0.4000000000000004 -0.9 0  -0.3499999999999996 -0.9 0  -0.2999999999999998 -0.9 0  -0.25 -0.9 0  -0.2000000000000002 -0.9 0  -0.1500000000000004 -0.9 0  -0.09999999999999964 -0.9 0  -0.04999999999999982 -0.9 0  0 -0.9 0  0.04999999999999982 -0.9 0  0.09999999999999964 -0.9 0  0.1500000000000004 -0.9 0  0.2000000000000002 -0.9 0  0.25 -0.9 0  0.2999999999999998 -0.9 0  0.3499999999999996 -0.9 0  0.4000000000000004 -0.9 0  0.4500000000000002 -0.9 0  0.5 -0.9 0  0.5499999999999998 -0.9 0  0.5999999999999996 -0.9 0  0.6500000000000004 -0.9 0  0.7000000000000002 -0.9 0  0.75 -0.9 0  0.7999999999999998 -0.9 0  0.8499999999999996 -0.9 0  0.9000000000000004 -0.9 0  0.9500000000000002 -0.9 0  1 -0.9 0  1.05 -0.9 0  1.1 -0.9 0  1.15 -0.9 0  1.2 -0.9 0  1.25 -0.9 0  1.3 -0.9 0  1.35 -0.9 0  1.4 -0.9 0  1.45 -0.9 0  1.5 -0.9 0  1.55 -0.9 0  1.6 -0.9 0  1.65 -0.9 0  1.7 -0.9 0  1.75 -0.9 0  1.8 -0.9 0  1.85 -0.9 0  1.9 -0.9 0  1.95 -0.9 0  2 -0.9 0  2.05 -0.9 0  2.1 -0.9 0  2.15 -0.9 0  2.2 -0.9 0  2.25 -0.9 0  2.3 -0.9 0  2.35 -0.9 0  2.4 -0.9 0  2.45 -0.9 0  2.5 -0.9 0  2.55 -0.9 0  2.6 -0.9 0  2.65 -0.9 0  2.7 -0.9 0  2.75 -0.9 0  2.8 -0.9 0  2.85 -0.9 0  2.9 -0.9 0  2.95 -0.9 0  3 -0.9 0  3.050000000000001 -0.9 0  3.1 -0.9 0  3.15 -0.9 0  3.199999999999999 -0.9 0  3.25 -0.9 0  3.300000000000001 -0.9 0  3.35 -0.9 0  3.4 -0.9 0  3.449999999999999 -0.9 0  3.5 -0.9 0  3.550000000000001 -0.9 0  3.6 -0.9 0  3.65 -0.9 0  3.699999999999999 -0.9 0  3.75 -0.9 0  3.800000000000001 -0.9 0  3.85 -0.9 0  3.9 -0.9 0  3.949999999999999 -0.9 0  4 -0.9 0  4.050000000000001 -0.9 0  4.1 -0.9 0  4.15 -0.9 0  4.199999999999999 -0.9 0  4.25 -0.9 0  4.300000000000001 -0.9 0  4.35 -0.9 0  4.4 -0.9 0  4.449999999999999 -0.9 0  4.5 -0.9 0  4.550000000000001 -0.9 0  4.6 -0.9 0  4.65 -0.9 0  4.699999999999999 -0.9 0  4.75 -0.9 0  4.800000000000001 -0.9 0  4.85 -0.9 0  4.9 -0.9 0  4.949999999999999 -0.9 0  5 -0.9 0  -5 -0.85 0  -4.95 -0.85 0  -4.9 -0.85 0  -4.85 -0.85 0  -4.8 -0.85 0  -4.75 -0.85 0  -4.7 -0.85 0  -4.65 -0.85 0  -4.6 -0.85 0  -4.55 -0.85 0  -4.5 -0.85 0  -
[...]
<PointData  Vectors="f_15"> 
<DataArray  type="Float64"  Name="f_15"  NumberOfComponents="3" format="ascii">9.3639454759125140e+00 0.0000000000000000e+00 0.0000000000000000e+00  9.3607778526325305e+00 6.0775167017098529e-02 0.0000000000000000e+00  9.3574282594204607e+00 1.2352950850285167e-01 0.0000000000000000e+00  9.3474972061475405e+00 1.8256932111686561e-01 0.0000000000000000e+00  9.3378782421246012e+00 2.4438468892714024e-01 0.0000000000000000e+00  9.3214780298935445e+00 3.0391421223437803e-01 0.0000000000000000e+00  9.3053884239312978e+00 3.6475250075494514e-01 0.0000000000000000e+00  9.2831367588863856e+00 4.2420348501654281e-01 0.0000000000000000e+00  9.2609794523541566e+00 4.8463898018952800e-01 0.0000000000000000e+00  9.2328426088854751e+00 5.4353433971302911e-01 0.0000000000000000e+00  9.2054483994152179e+00 6.0374016785007789e-01 0.0000000000000000e+00  9.1718887918931298e+00 6.6207984709339962e-01 0.0000000000000000e+00  9.1394441067847030e+00 7.2206595160948628e-01 0.0000000000000000e+00  9.1012972998780715e+00 7.7986294359555497e-01 0.0000000000000000e+00  9.0644410514092577e+00 8.3995457420870601e-01 0.0000000000000000e+00  9.0218819875392562e+00 8.9699270956482990e-01 0.0000000000000000e+00  8.9815643961850427e+00 9.5761981454086897e-01 0.0000000000000000e+00  8.9351637262208783e+00 1.0139391604029895e+00 0.0000000000000000e+00  8.8916712966497684e+00 1.0752197607917013e+00 0.0000000000000000e+00  8.8422495401587753e+00 1.1309670414061757e+00 0.0000000000000000e+00  8.7961929240856644e+00 1.1933236978959700e+00 0.0000000000000000e+00  8.7439480138078061e+00 1.2481380413141863e+00 0.0000000000000000e+00  8.6960996303163629e+00 1.3122450334726876e+00 0.0000000000000000e+00  8.6415345875680778e+00 1.3660207578299866e+00 0.0000000000000000e+00  8.5920481146562526e+00 1.4318263166807566e+00 0.0000000000000000e+00  8.5358356826497808e+00 1.4851638601916710e+00 0.0000000000000000e+00  8.4850554724290141e+00 1.5521084149990945e+00 0.0000000000000000e+00  8.4273979875558336e+00 1.6058186025150896e+00 0.0000000000000000e+00  8.3757327049626902e+00 1.6731925426112744e+00 0.0000000000000000e+00  8.3170265683804345e+00 1.7278094383361813e+00 0.0000000000000000e+00  8.2645057933190280e+00 1.7962352708408587e+00 0.0000000000000000e+00  8.2051325525257006e+00 1.8492475615256174e+00 0.0000000000000000e+00  8.1520182173317028e+00 1.9232275333581146e+00 0.0000000000000000e+00  8.0920249286885220e+00 1.9699887797781286e+00 0.0000000000000000e+00  8.0385171619598790e+00 2.0508219090077162e+00 0.0000000000000000e+00  7.9782651184848081e+00 2.0968844881828428e+00 0.0000000000000000e+00  7.9241427112588374e+00 2.1712181175583241e+00 0.0000000000000000e+00  7.8640853331497080e+00 2.2342155362448906e+00 0.0000000000000000e+00  7.8093071611671041e+00 2.2869429057419555e+00 0.0000000000000000e+00  7.7494979685815348e+00 2.3724778474691992e+00 0.0000000000000000e+00  7.6943428899126722e+00 2.4101664244901460e+00 0.0000000000000000e+00  7.6345969229529285e+00 2.5023407243736471e+00 0.0000000000000000e+00  7.5794508022724427e+00 2.5435418016763478e+00 0.0000000000000000e+00  7.5195797678558742e+00 2.6271508570198887e+00 0.0000000000000000e+00  7.4645888843481814e+00 2.6805544081931605e+00 0.0000000000000000e+00  7.4047995868659218e+00 2.7535721164671494e+00 0.0000000000000000e+00  7.3496892296273471e+00 2.8151894293733539e+00 0.0000000000000000e+00  7.2903555138403009e+00 2.8857104824961088e+00 0.0000000000000000e+00  7.2349591264070696e+00 2.9469432754208946e+00 0.0000000000000000e+00  7.1762071553797266e+00 3.0191245988637214e+00 0.0000000000000000e+00  7.1205396688907099e+00 3.0819332751346202e+00 0.0000000000000000e+00  7.0623488224553306e+00 3.1512615381782054e+00 0.0000000000000000e+00  7.0066358251106777e+00 3.2168619325677454e+00 0.0000000000000000e+00  6.9486896423228188e+00 3.2865874187186090e+00 0.0000000000000000e+00  6.8932480480034997e+00 3.3513414371394767e+00 0.0000000000000000e+00  6.8356250646688244e+00 3.4214796467232635e+00 0.0000000000000000e+00  6.7799970513872383e+00 3.4877955475068427e+00 0.0000000000000000e+00  6.7232319481978511e+00 3.5568065897270977e+00 0.0000000000000000e+00  6.6674992265486388e+00 3.6242088738234672e+00 0.0000000000000000e+00  6.6107899541183714e+00 3.6932374571833710e+00 0.0000000000000000e+00  6.5559121285169955e+00 3.7605579889033569e+00 0.0000000000000000e+00  6.4991457497527954e+00 3.8303527755895419e+00 0.0000000000000000e+00  6.4442572491672010e+00 3.8981243542417268e+00 0.0000000000000000e+00  6.3884473382641476e+00 3.9668699364758151e+00 0.0000000000000000e+00  6.3335902218248270e+00 4.0358425587277997e+00 0.0000000000000000e+00  6.2775430510280694e+00 4.1052081906132001e+00 0.0000000000000000e+00  6.2240732198273792e+00 4.1729937856885080e+00 0.0000000000000000e+00  6.1675699556513113e+00 4.2434833398472120e+00 0.0000000000000000e+00  6.1144578752800030e+00 4.3114811664877255e+00 0.0000000000000000e+00  6.0587551226079279e+00 4.3814800830456884e+00 0.0000000000000000e+00  6.0058308389574302e+00 4.4499880751109764e+00 0.0000000000000000e+00  5.9498927127265064e+00 4.5207186605538663e+00 0.0000000000000000e+00  5.8984100004834508e+00 4.5880045755205154e+00 0.0000000000000000e+00  5.8419954876264226e+00 4.6600607097570741e+00 0.0000000000000000e+00  5.7910608667180563e+00 4.7270934015973882e+00 0.0000000000000000e+00  5.7353799942831367e+00 4.7989079291973828e+00 0.0000000000000000e+00  5.6845125828449170e+00 4.8665064770041733e+00 0.0000000000000000e+00  5.6291971454977272e+00 4.9385197484953034e+00 0.0000000000000000e+00  5.5790305880544286e+00 5.0054458602636114e+00 0.0000000000000000e+00  5.5239960000676920e+00 5.0781795190702894e+00 0.0000000000000000e+00  5.4739227736943121e+00 5.1454398243401425e+00 0.0000000000000000e+00  5.4201228061718183e+00 5.2172372109529208e+00 0.0000000000000000e+00  5.3693453164855267e+00 5.2858448575030952e+00 0.0000000000000000e+00  5.3171220553969709e+00 5.3565837824974905e+00 0.0000000000000000e+00  5.2656664656001757e+00 5.4265591911255182e+00 0.0000000000000000e+00  5.2149373411478352e+00 5.4959424036118065e+00 0.0000000000000000e+00  5.1627744297444425e+00 5.5674190240521719e+00 0.0000000000000000e+00  5.1140728303285599e+00 5.6353276664303200e+00 0.0000000000000000e+00  5.0605652772433762e+00 5.7085558504330116e+00 0.0000000000000000e+00  5.0144533300363658e+00 5.7738525540620085e+00 0.0000000000000000e+00  4.9591870680226284e+00 5.8504428181178927e+00 0.0000000000000000e+00  4.9153756762941656e+00 5.9132449700955512e+00 0.0000000000000000e+00  4.8586496386594398e+00 5.9918221259429165e+00 0.0000000000000000e+00  4.8180944970172090e+00 6.0517293448221459e+00 0.0000000000000000e+00  4.7588553980477206e+00 6.1343134163451927e+00 0.0000000000000000e+00  4.7206233570632694e+00 6.1910065667253829e+00 0.0000000000000000e+00  4.6612381984487774e+00 6.2752687222980663e+00 0.0000000000000000e+00  4.6209875754355281e+00 6.3353483016934957e+00 0.0000000000000000e+00  4.5678867217659587e+00 6.4109947462764483e+00 0.0000000000000000e+00  4.5249034685925453e+00 6.4757883555482385e+00 0.0000000000000000e+00  4.4731332866783093e+00 6.5510535397483647e+00 0.0000000000000000e+00  4.4355502365419577e+00 6.6079075477891509e+00 0.0000000000000000e+00  4.3753585437797318e+00 6.6958151412995157e+00 0.0000000000000000e+00  4.3359081722186579e+00 6.7569846056360205e+00 0.0000000000000000e+00  4.2843197628019691e+00 6.8332671220071459e+00 0.0000000000000000e+00  4.2425522521369041e+00 6.8974330599322800e+00 0.0000000000000000e+00  4.1923549255536265e+00 6.9730776573586413e+00 0.0000000000000000e+00  4.1500364763249209e+00 7.0389763688833940e+00 0.0000000000000000e+00  4.1039502039833167e+00 7.1083705228940195e+00 0.0000000000000000e+00  4.0636777734937146e+00 7.1720398276180175e+00 0.0000000000000000e+00  4.0189038384564357e+00 7.2421293135651661e+00 0.0000000000000000e+00  3.9762667533111937e+00 7.3077196671447364e+00 0.0000000000000000e+00  3.9317633941700350e+00 7.3773717273577866e+00 0.0000000000000000e+00  3.8918683804692975e+00 7.4415447605714116e+00 0.0000000000000000e+00  3.8570706267369266e+00 7.4965642812033426e+00 0.0000000000000000e+00  3.8154860970168931e+00 7.5622213204526192e+00 0.0000000000000000e+00  3.7924554223310869e+00 7.6014689223273200e+00 0.0000000000000000e+00  3.8328438222591008e+00 7.5354785350041729e+00 0.0000000000000000e+00  3.8918080664260892e+00 7.4412668750502764e+00 0.0000000000000000e+00  3.9229811183707715e+00 7.3911541561563681e+00 0.0000000000000000e+00  3.9349075811256893e+00 7.3731769038545707e+00 0.0000000000000000e+00  3.9405095896306426e+00 7.3637487705093418e+00 0.0000000000000000e+00  3.9439697596474201e+00 7.3585129812385190e+00 0.0000000000000000e+00  3.9470900052650002e+00 7.3529597998539513e+00 0.0000000000000000e+00  3.9482662078659412e+00 7.3509756943589677e+00 0.0000000000000000e+00  3.9501379173528997e+00 7.3476394913495291e+00 0.0000000000000000e+00  3.9503097602232629e+00 7.3470512533686936e+00 0.0000000000000000e+00  3.9526935274600783e+00 7.3435030240582071e+00 0.0000000000000000e+00  3.9533305413396347e+00 7.3423465666378984e+00 0.0000000000000000e+00  3.9561749947785390e+00 7.3386046064075234e+00 0.0000000000000000e+00  3.9562426019611792e+00 7.3381606877877292e+00 0.0000000000000000e+00  3.9581661839380282e+00 7.3357514240268724e+00 0.0000000000000000e+00  3.9573361021788815e+00 7.3363241087063766e+00 0.0000000000000000e+00  3.9586497634203193e+00 7.3347067812901434e+00 0.0000000000000000e+00  3.9578065123181752e+00 7.3352649938919141e+00 0.0000000000000000e+00  3.9590031275199884e+00 7.3338298679403655e+00 0.0000000000000000e+00  3.9583959519611205e+00 7.3341670668293490e+00 0.0000000000000000e+00  3.9593547461995442e+00 7.3330285646688544e+00 0.0000000000000000e+00  3.9588789623637695e+00 7.3332775514175639e+00 0.0000000000000000e+00  3.9595406586089692e+00 7.3324651330475135e+00 0.0000000000000000e+00  3.9591960976230762e+00 7.3326129529336699e+00 0.0000000000000000e+00  3.9596429930986545e+00 7.3320230069093482e+00 0.0000000000000000e+00  3.9594276106858737e+00 7.3320712048419123e+00 0.0000000000000000e+00  3.9597195179149112e+00 7.3316395557201322e+00 0.0000000000000000e+00  3.9595887834955406e+00 7.3316278329262587e+00 0.0000000000000000e+00  3.9597619602714742e+00 7.3313183536693316e+00 0.0000000000000000e+00  3.9596749001930949e+00 7.3312755133203025e+00 0.0000000000000000e+00  3.9597711457423390e+00 7.3310430235263748e+00 0.0000000000000000e+00  3.9597048063023550e+00 7.3309862018170922e+00 0.0000000000000000e+00  3.9597569042135059e+00 7.3307924193077332e+00 0.0000000000000000e+00  3.9596981726552167e+00 7.3307281084612494e+00 0.0000000000000000e+00  3.9597232815282735e+00 7.3305516727916125e+00 0.0000000000000000e+00  3.9596627801765680e+00 7.3304751657589966e+00 0.0000000000000000e+00  3.9596726778472036e+00 7.3302925510727333e+00 0.0000000000000000e+00  3.9596046587552074e+00 7.3301885939667271e+00 0.0000000000000000e+00  3.9596068872696848e+00 7.3299658131102454e+00 0.0000000000000000e+00  3.9595302062536337e+00 7.3297973726706438e+00 0.0000000000000000e+00  3.9595283953001768e+00 7.3294885102912923e+00 0.0000000000000000e+00  3.9594424427142840e+00 7.3291929256097275e+00 0.0000000000000000e+00  3.9594409550364023e+00 7.3287314906927525e+00 0.0000000000000000e+00  3.9593428982719221e+00 7.3282276812579115e+00 0.0000000000000000e+00  3.9593462871946903e+00 7.3275340103639177e+00 0.0000000000000000e+00  3.9592325052598620e+00 7.3267313838382240e+00 0.0000000000000000e+00  3.9592452463309100e+00 7.3257372418281550e+00 0.0000000000000000e+00  3.9591094645923688e+00 7.3245594339753781e+00 0.0000000000000000e+00  3.9591401134094761e+00 7.3232331251704110e+00 0.0000000000000000e+00  3.9589712488156459e+00 7.3216492196732954e+00 0.0000000000000000e+00  3.9590327575141284e+00 7.3200215890858198e+00 0.0000000000000000e+00  3.9588160474260503e+00 7.3180591842121396e+00 0.0000000000000000e+00  3.9589267859892372e+00 7.3162418925527719e+00 0.0000000000000000e+00  3.9586376725460415e+00 7.3139731539633672e+00 0.0000000000000000e+00  3.9588306924058339e+00 7.3121538679021052e+00 0.0000000000000000e+00  3.9584277338078500e+00 7.3096661387197690e+00 0.0000000000000000e+00  3.9587497356849686e+00 7.3080687180427750e+00 0.0000000000000000e+00  3.9581810785966232e+00 7.3054356856703988e+00 0.0000000000000000e+00  3.9586935990845622e+00 7.3042899140844977e+00 0.0000000000000000e+00  3.9578719890279022e+00 7.3014874187652747e+00 0.0000000000000000e+00  3.9586997019043944e+00 7.3010856790103213e+00 0.0000000000000000e+00  3.9574589686336497e+00 7.2979059077636972e+00 0.0000000000000000e+00  3.9587850632683699e+00 7.2985683552145248e+00 0.0000000000000000e+00  3.9569384206467331e+00 7.2947395642334660e+00 0.0000000000000000e+00  3.9589525491525910e+00 7.2967366381418008e+00 0.0000000000000000e+00  3.9562087797519352e+00 7.2917586230704732e+00 0.0000000000000000e+00  3.9593598258194254e+00 7.2958184760944800e+00 0.0000000000000000e+00  3.9549912968978762e+00 7.2884199886839669e+00 0.0000000000000000e+00  3.9600174055236201e+00 7.2956848374163634e+00 0.0000000000000000e+00  3.9531914772246051e+00 7.2846271806802863e+00 0.0000000000000000e+00  3.9604133510316251e+00 7.2953815045132471e+00 0.0000000000000000e+00  3.9499809726620585e+00 7.2788771609560321e+00 0.0000000000000000e+00  3.9602341499852942e+00 7.2947950320390067e+00 0.0000000000000000e+00  3.9416716548435322e+00 7.2650583037113012e+00 0.0000000000000000e+00  3.9563227797456615e+00 7.2886456429121855e+00 0.0000000000000000e+00  3.9209734327123589e+00 7.2332114146322146e+00 0.0000000000000000e+00  3.9320685199060326e+00 7.2495201132496412e+00 0.0000000000000000e+00  3.8616016594880773e+00 7.1419536551747385e+00 0.0000000000000000e+00  3.8417999091113875e+00 7.1069974525242063e+00 0.0000000000000000e+00  3.6610321077105512e+00 6.8183044746957693e+00 0.0000000000000000e+00  3.5416640867475095e+00 6.6066288194142109e+00 0.0000000000000000e+00  3.0656804970490259e+00 5.7349241530363200e+00 0.0000000000000000e+00  2.6149987606313569e+00 4.8845356058344089e+00 0.0000000000000000e+00  2.8845008985992857e+00 0.0000000000000000e+00 0.0000000000000000e+00  9.3620354337236993e+00 0.0000000000000000e+00 2.9650464157795231e-03  9.3604365727114764e+00 5.9598283031538850e-02 -1.7059674873577291e-03  9.3552984198104365e+00 1.2070022988337280e-01 9.9517882595382833e-04  9.3473030491389686e+00 1.8038926726900256e-01 -1.3040822398079765e-03  9.3356309788247405e+00 2.4244102028445766e-01 1.4130420697789484e-03  9.3210607106554129e+00 3.0121116483224591e-01 -1.4706992585321432e-03  9.3033630864281349e+00 3.6308687639796117e-01 1.5153355561132590e-03  9.2825841703381862e+00 4.2168061051559080e-01 -1.4716854782788928e-03  9.2587931815467908e+00 4.8293979519447783e-01 1.4858014634770733e-03  9.2325617149900197e+00 5.4131541831436214e-01 -1.4375793600575298e-03  9.2031429283196093e+00 6.0211923688729019e-01 1.4461415005766834e-03  9.1715649498939058e+00 6.6013820820679403e-01 -1.3924750213743415e-03  9.1373811226353912e+00 7.2056281359820507e-01 1.3965787084921565e-03  9.1010287847975100e+00 7.7839995746283408e-01 -1.3426214147266254e-03  9.0622879113747441e+00 8.3837826256708825e-01 1.3461999888575017e-03  9.0220659378460315e+00 8.9625071167534587e-01 -1.2894700557887100e-03  8.9793941258978212e+00 9.5597431346793238e-01 1.2720716135042741e-03  8.9355398008650031e+00 1.0138663781621304e+00 -1.1995631348998190e-03  8.8898335794397081e+00 1.0736064685115081e+00 1.1529866630906726e-03  8.8429361455618789e+00 1.1317761497208423e+00 -1.0679774160766457e-03  8.7944451587662318e+00 1.1914064438431693e+00 9.9577694288910759e-04  8.7452859720854192e+00 1.2502796048188052e+00 -8.8445290913809237e-04  8.6945725975961956e+00 1.3099276680678691e+00 7.3809537558927607e-04  8.6432986721458676e+00 1.3693819820052493e+00 -5.1992245691642475e-04  8.5910932823923805e+00 1.4294841302968302e+00 2.0759920589275319e-04  8.5380836642222686e+00 1.4895429380574188e+00 1.6465476364424680e-04  8.4845661519882594e+00 1.5499669784610788e+00 -5.8661484889662666e-04  8.4303344995837239e+00 1.6110734337149779e+00 9.3100398465388720e-04  8.3758227704061863e+00 1.6715313614129426e+00 -1.1575112814937781e-03  8.3205210783434396e+00 1.7341282044612485e+00 1.1287201255415127e-03  8.2652999910656977e+00 1.7939322314349093e+00 -9.3126608058316724e-04  8.2093006743689809e+00 1.8590577155629546e+00 6.3789913100459914e-04  8.1533591588983558e+00 1.9175333097471325e+00 -5.9611984473981975e-04  8.0968718711144163e+00 1.9843396844179708e+00 9.3886887633491797e-04  8.0406003026180777e+00 2.0446613561923916e+00 -1.7184318149308794e-03  7.9834320218749903e+00 2.1080275928432366e+00 2.4144250028142991e-03  7.9270624407073829e+00 2.1751695515596241e+00 -2.4237493542879672e-03  7.8696705668156177e+00 2.2326700063027909e+00 1.0540663139533162e-03  7.8125384809083016e+00 2.3050481919892727e+00 1.6709470828612071e-03  7.7559050478799305e+00 2.3611021801022360e+00 -5.1266699125237600e-03  7.6974351530716332e+00 2.4339638026368120e+00 8.0793238775758430e-03  7.6417739588953770e+00 2.4912922110091409e+00 -9.5113839610814835e-03  7.5825049728478913e+00 2.5636664185567066e+00 9.0070154588387154e-03  7.5269344497047737e+00 2.6231983314477758e+00 -7.0906568066931071e-03  7.4680421223390638e+00 2.6928327591877812e+00 4.6769107038543579e-03  7.4116963246893146e+00 2.7566160847030030e+00 -2.7086060015422842e-03  7.3536565767904882e+00 2.8241032715751975e+00 1.5751226041788025e-03  7.2966989773386182e+00 2.8884182921147405e+00 -1.2324201358079659e-03  7.2391258487104784e+00 2.9572338067195241e+00 1.2614615447981261e-03  7.1820567105306621e+00 3.0222223964633850e+00 -1.2643203020561780e-03  7.1246801695265747e+00 3.0891635227598533e+00 1.0972386511611584e-03  7.0677641527652870e+00 3.1564581881746996e+00 -9.0341642719982053e-04  7.0103906709237007e+00 3.2240585080968276e+00 8.7470566121673548e-04  6.9538482174019318e+00 3.2896486745232716e+00 -9.4192046307994652e-04  6.8966009143482481e+00 3.3586342793410493e+00 9.2960516098389973e-04  6.8400367546591445e+00 3.4253903566233004e+00 -7.8911842709953684e-04  6.7834126930396259e+00 3.4931415675161039e+00 7.1524228586044962e-04  6.7268890072126641e+00 3.5606948378215906e+00 -7.5501457267418339e-04  6.6702386458847718e+00 3.6291520064136900e+00 8.0978633342847228e-04  6.6145601885292775e+00 3.6962020110193996e+00 -7.6799034992439379e-04  6.5578763087366996e+00 3.7654906638122752e+00 7.3604382267571111e-04  6.5021702922254514e+00 3.8327687607903851e+00 -7.4132365356722552e-04  6.4464981864311808e+00 3.9013823884524541e+00 7.3541261623143303e-04  6.3907169645503084e+00 3.9698819975292445e+00 -6.8221191960079574e-04  6.3350206872433459e+00 4.0388711555518260e+00 6.7382390548892943e-04  6.2803723790707204e+00 4.1063037426625888e+00 -6.9419494802165768e-04  6.2245602826845836e+00 4.1763772472817555e+00 6.8276141764112821e-04  6.1699180381141874e+00 4.2444075830231229e+00 -6.2999810094403101e-04  6.1153259485981728e+00 4.3135120248746599e+00 5.9539647783652381e-04  6.0604879796208859e+00 4.3825294294155883e+00 -5.6705665206663585e-04  6.0060516950474847e+00 4.4519397156724718e+00 5.4277818318520133e-04  5.9523352166785619e+00 4.5202415518676391e+00 -5.3345440629998632e-04  5.8977730328522391e+00 4.5905737652830290e+00 5.4375322707093888e-04  5.8442892252449248e+00 4.6590968616190294e+00 -5.3282652912447158e-04  5.7907557184042915e+00 4.7288328267078832e+00 5.2748100633714663e-04  5.7371979560558914e+00 4.7981803292404326e+00 -4.9041620091015909e-04  5.6839939603398983e+00 4.8680357386830782e+00 4.5869098161643531e-04  5.6313619901984104e+00 4.9368094226614927e+00 -4.2380013882361244e-04  5.5780524836626748e+00 5.0077021675750126e+00 4.6989546039939321e-04  5.5260321383812236e+00 5.0762887803746626e+00 -4.5868650161442386e-04  5.4732297399392404e+00 5.1469982477731291e+00 4.6067159938749158e-04  5.4215310038350193e+00 5.2159479870231840e+00 -4.1500034929691366e-04  5.3690330733221385e+00 5.2870638223596682e