<?xml version="1.0"?>
<VTKFile type="UnstructuredGrid"  version="0.1"  >
<UnstructuredGrid>
<Piece  NumberOfPoints="8241" NumberOfCells="16000">
<Points>
<DataArray  type="Float64"  NumberOfComponents="3"  format="ascii">-5 -1 0  -4.95 -1 0  -4.9 -1 0  -4.85 -1 0  -4.8 -1 0  -4.75 -1 0  -4.7 -1 0  -4.65 -1 0  -4.6 -1 0  -4.55 -1 0  -4.5 -1 0  -4.45 -1 0  -4.4 -1 0  -4.35 -1 0  -4.3 -1 0  -4.25 -1 0  -4.2 -1 0  -4.15 -1 0  -4.1 -1 0  -4.05 -1 0  -4 -1 0  -3.95 -1 0  -3.9 -1 0  -3.85 -1 0  -3.8 -1 0  -3.75 -1 0  -3.7 -1 0  -3.65 -1 0  -3.6 -1 0  -3.55 -1 0  -3.5 -1 0  -3.45 -1 0  -3.4 -1 0  -3.35 -1 0  -3.3 -1 0  -3.25 -1 0  -3.2 -1 0  -3.15 -1 0  -3.1 -1 0  -3.05 -1 0  -3 -1 0  -2.95 -1 0  -2.9 -1 0  -2.85 -1 0  -2.8 -1 0  -2.75 -1 0  -2.7 -1 0  -2.65 -1 0  -2.6 -1 0  -2.55 -1 0  -2.5 -1 0  -2.45 -1 0  -2.4 -1 0  -2.35 -1 0  -2.3 -1 0  -2.25 -1 0  -2.2 -1 0  -2.15 -1 0  -2.1 -1 0  -2.05 -1 0  -2 -1 0  -1.95 -1 0  -1.9 -1 0  -1.85 -1 0  -1.8 -1 0  -1.75 -1 0  -1.7 -1 0  -1.65 -1 0  -1.6 -1 0  -1.55 -1 0  -1.5 -1 0  -1.45 -1 0  -1.4 -1 0  -1.35 -1 0  -1.3 -1 0  -1.25 -1 0  -1.2 -1 0  -1.15 -1 0  -1.1 -1 0  -1.05 -1 0  -1 -1 0  -0.9500000000000002 -1 0  -0.9000000000000004 -1 0  -0.8499999999999996 -1 0  -0.7999999999999998 -1 0  -0.75 -1 0  -0.7000000000000002 -1 0  -0.6500000000000004 -1 0  -0.5999999999999996 -1 0  -0.5499999999999998 -1 0  -0.5 -1 0  -0.4500000000000002 -1 0  -0.4000000000000004 -1 0  -0.3499999999999996 -1 0  -0.2999999999999998 -1 0  -0.25 -1 0  -0.2000000000000002 -1 0  -0.1500000000000004 -1 0  -0.09999999999999964 -1 0  -0.04999999999999982 -1 0  0 -1 0  0.04999999999999982 -1 0  0.09999999999999964 -1 0  0.1500000000000004 -1 0  0.2000000000000002 -1 0  0.25 -1 0  0.2999999999999998 -1 0  0.3499999999999996 -1 0  0.4000000000000004 -1 0  0.4500000000000002 -1 0  0.5 -1 0  0.5499999999999998 -1 0  0.5999999999999996 -1 0  0.6500000000000004 -1 0  0.7000000000000002 -1 0  0.75 -1 0  0.7999999999999998 -1 0  0.8499999999999996 -1 0  0.9000000000000004 -1 0  0.9500000000000002 -1 0  1 -1 0  1.05 -1 0  1.1 -1 0  1.15 -1 0  1.2 -1 0  1.25 -1 0  1.3 -1 0  1.35 -1 0  1.4 -1 0  1.45 -1 0  1.5 -1 0  1.55 -1 0  1.6 -1 0  1.65 -1 0  1.7 -1 0  1.75 -1 0  1.8 -1 0  1.85 -1 0  1.9 -1 0  1.95 -1 0  2 -1 0  2.05 -1 0  2.1 -1 0  2.15 -1 0  2.2 -1 0  2.25 -1 0  2.3 -1 0  2.35 -1 0  2.4 -1 0  2.45 -1 0  2.5 -1 0  2.55 -1 0  2.6 -1 0  2.65 -1 0  2.7 -1 0  2.75 -1 0  2.8 -1 0  2.85 -1 0  2.9 -1 0  2.95 -1 0  3 -1 0  3.050000000000001 -1 0  3.1 -1 0  3.15 -1 0  3.199999999999999 -1 0  3.25 -1 0  3.300000000000001 -1 0  3.35 -1 0  3.4 -1 0  3.449999999999999 -1 0  3.5 -1 0  3.550000000000001 -1 0  3.6 -1 0  3.65 -1 0  3.699999999999999 -1 0  3.75 -1 0  3.800000000000001 -1 0  3.85 -1 0  3.9 -1 0  3.949999999999999 -1 0  4 -1 0  4.050000000000001 -1 0  4.1 -1 0  4.15 -1 0  4.199999999999999 -1 0  4.25 -1 0  4.300000000000001 -1 0  4.35 -1 0  4.4 -1 0  4.449999999999999 -1 0  4.5 -1 0  4.550000000000001 -1 0  4.6 -1 0  4.65 -1 0  4.699999999999999 -1 0  4.75 -1 0  4.800000000000001 -1 0  4.85 -1 0  4.9 -1 0  4.949999999999999 -1 0  5 -1 0  -5 -0.95 0  -4.95 -0.95 0  -4.9 -0.95 0  -4.85 -0.95 0  -4.8 -0.95 0  -4.75 -0.95 0  -4.7 -0.95 0  -4.65 -0.95 0  -4.6 -0.95 0  -4.55 -0.95 0  -4.5 -0.95 0  -4.45 -0.95 0  -4.4 -0.95 0  -4.35 -0.95 0  -4.3 -0.95 0  -4.25 -0.95 0  -4.2 -0.95 0  -4.15 -0.95 0  -4.1 -0.95 0  -4.05 -0.95 0  -4 -0.95 0  -3.95 -0.95 0  -3.9 -0.95 0  -3.85 -0.95 0  -3.8 -0.95 0  -3.75 -0.95 0  -3.7 -0.95 0  -3.65 -0.95 0  -3.6 -0.95 0  -3.55 -0.95 0  -3.5 -0.95 0  -3.45 -0.95 0  -3.4 -0.95 0  -3.35 -0.95 0  -3.3 -0.95 0  -3.25 -0.95 0  -3.2 -0.95 0  -3.15 -0.95 0  -3.1 -0.95 0  -3.05 -0.95 0  -3 -0.95 0  -2.95 -0.95 0  -2.9 -0.95 0  -2.85 -0.95 0  -2.8 -0.95 0  -2.75 -0.95 0  -2.7 -0.95 0  -2.65 -0.95 0  -2.6 -0.95 0  -2.55 -0.95 0  -2.5 -0.95 0  -2.45 -0.95 0  -2.4 -0.95 0  -2.35 -0.95 0  -2.3 -0.95 0  -2.25 -0.95 0  -2.2 -0.95 0  -2.15 -0.95 0  -2.1 -0.95 0  -2.05 -0.95 0  -2 -0.95 0  -1.95 -0.95 0  -1.9 -0.95 0  -1.85 -0.95 0  -1.8 -0.95 0  -1.75 -0.95 0  -1.7 -0.95 0  -1.65 -0.95 0  -1.6 -0.95 0  -1.55 -0.95 0  -1.5 -0.95 0  -1.45 -0.95 0  -1.4 -0.95 0  -1.35 -0.95 0  -1.3 -0.95 0  -1.25 -0.95 0  -1.2 -0.95 0  -1.15 -0.95 0  -1.1 -0.95 0  -1.05 -0.95 0  -1 -0.95 0  -0.9500000000000002 -0.95 0  -0.9000000000000004 -0.95 0  -0.8499999999999996 -0.95 0  -0.7999999999999998 -0.95 0  -0.75 -0.95 0  -0.7000000000000002 -0.95 0  -0.6500000000000004 -0.95 0  -0.5999999999999996 -0.95 0  -0.5499999999999998 -0.95 0  -0.5 -0.95 0  -0.4500000000000002 -0.95 0  -0.4000000000000004 -0.95 0  -0.3499999999999996 -0.95 0  -0.2999999999999998 -0.95 0  -0.25 -0.95 0  -0.2000000000000002 -0.95 0  -0.1500000000000004 -0.95 0  -0.09999999999999964 -0.95 0  -0.04999999999999982 -0.95 0  0 -0.95 0  0.04999999999999982 -0.95 0  0.09999999999999964 -0.95 0  0.1500000000000004 -0.95 0  0.2000000000000002 -0.95 0  0.25 -0.95 0  0.2999999999999998 -0.95 0  0.3499999999999996 -0.95 0  0.4000000000000004 -0.95 0  0.4500000000000002 -0.95 0  0.5 -0.95 0  0.5499999999999998 -0.95 0  0.5999999999999996 -0.95 0  0.6500000000000004 -0.95 0  0.7000000000000002 -0.95 0  0.75 -0.95 0  0.7999999999999998 -0.95 0  0.8499999999999996 -0.95 0  0.9000000000000004 -0.95 0  0.9500000000000002 -0.95 0  1 -0.95 0  1.05 -0.95 0  1.1 -0.95 0  1.15 -0.95 0  1.2 -0.95 0  1.25 -0.95 0  1.3 -0.95 0  1.35 -0.95 0  1.4 -0.95 0  1.45 -0.95 0  1.5 -0.95 0  1.55 -0.95 0  1.6 -0.95 0  1.65 -0.95 0  1.7 -0.95 0  1.75 -0.95 0  1.8 -0.95 0  1.85 -0.95 0  1.9 -0.95 0  1.95 -0.95 0  2 -0.95 0  2.05 -0.95 0  2.1 -0.95 0  2.15 -0.95 0  2.2 -0.95 0  2.25 -0.95 0  2.3 -0.95 0  2.35 -0.95 0  2.4 -0.95 0  2.45 -0.95 0  2.5 -0.95 0  2.55 -0.95 0  2.6 -0.95 0  2.65 -0.95 0  2.7 -0.95 0  2.75 -0.95 0  2.8 -0.95 0  2.85 -0.95 0  2.9 -0.95 0  2.95 -0.95 0  3 -0.95 0  3.050000000000001 -0.95 0  3.1 -0.95 0  3.15 -0.95 0  3.199999999999999 -0.95 0  3.25 -0.95 0  3.300000000000001 -0.95 0  3.35 -0.95 0  3.4 -0.95 0  3.449999999999999 -0.95 0  3.5 -0.95 0  3.550000000000001 -0.95 0  3.6 -0.95 0  3.65 -0.95 0  3.699999999999999 -0.95 0  3.75 -0.95 0  3.800000000000001 -0.95 0  3.85 -0.95 0  3.9 -0.95 0  3.949999999999999 -0.95 0  4 -0.95 0  4.050000000000001 -0.95 0  4.1 -0.95 0  4.15 -0.95 0  4.199999999999999 -0.95 0  4.25 -0.95 0  4.300000000000001 -0.95 0  4.35 -0.95 0  4.4 -0.95 0  4.449999999999999 -0.95 0  4.5 -0.95 0  4.550000000000001 -0.95 0  4.6 -0.95 0  4.65 -0.95 0  4.699999999999999 -0.95 0  4.75 -0.95 0  4.800000000000001 -0.95 0  4.85 -0.95 0  4.9 -0.95 0  4.949999999999999 -0.95 0  5 -0.95 0  -5 -0.9 0  -4.95 -0.9 0  -4.9 -0.9 0  -4.85 -0.9 0  -4.8 -0.9 0  -4.75 -0.9 0  -4.7 -0.9 0  -4.65 -0.9 0  -4.6 -0.9 0  -4.55 -0.9 0  -4.5 -0.9 0  -4.45 -0.9 0  -4.4 -0.9 0  -4.35 -0.9 0  -4.3 -0.9 0  -4.25 -0.9 0  -4.2 -0.9 0  -4.15 -0.9 0  -4.1 -0.9 0  -4.05 -0.9 0  -4 -0.9 0  -3.95 -0.9 0  -3.9 -0.9 0  -3.85 -0.9 0  -3.8 -0.9 0  -3.75 -0.9 0  -3.7 -0.9 0  -3.65 -0.9 0  -3.6 -0.9 0  -3.55 -0.9 0  -3.5 -0.9 0  -3.45 -0.9 0  -3.4 -0.9 0  -3.35 -0.9 0  -3.3 -0.9 0  -3.25 -0.9 0  -3.2 -0.9 0  -3.15 -0.9 0  -3.1 -0.9 0  -3.05 -0.9 0  -3 -0.9 0  -2.95 -0.9 0  -2.9 -0.9 0  -2.85 -0.9 0  -2.8 -0.9 0  -2.75 -0.9 0  -2.7 -0.9 0  -2.65 -0.9 0  -2.6 -0.9 0  -2.55 -0.9 0  -2.5 -0.9 0  -2.45 -0.9 0  -2.4 -0.9 0  -2.35 -0.9 0  -2.3 -0.9 0  -2.25 -0.9 0  -2.2 -0.9 0  -2.15 -0.9 0  -2.1 -0.9 0  -2.05 -0.9 0  -2 -0.9 0  -1.95 -0.9 0  -1.9 -0.9 0  -1.85 -0.9 0  -1.8 -0.9 0  -1.75 -0.9 0  -1.7 -0.9 0  -1.65 -0.9 0  -1.6 -0.9 0  -1.55 -0.9 0  -1.5 -0.9 0  -1.45 -0.9 0  -1.4 -0.9 0  -1.35 -0.9 0  -1.3 -0.9 0  -1.25 -0.9 0  -1.2 -0.9 0  -1.15 -0.9 0  -1.1 -0.9 0  -1.05 -0.9 0  -1 -0.9 0  -0.9500000000000002 -0.9 0  -0.9000000000000004 -0.9 0  -0.8499999999999996 -0.9 0  -0.7999999999999998 -0.9 0  -0.75 -0.9 0  -0.7000000000000002 -0.9 0  -0.6500000000000004 -0.9 0  -0.5999999999999996 -0.9 0  -0.5499999999999998 -0.9 0  -0.5 -0.9 0  -0.4500000000000002 -0.9 0  -0.4000000000000004 -0.9 0  -0.3499999999999996 -0.9 0  -0.2999999999999998 -0.9 0  -0.25 -0.9 0  -0.2000000000000002 -0.9 0  -0.1500000000000004 -0.9 0  -0.09999999999999964 -0.9 0  -0.04999999999999982 -0.9 0  0 -0.9 0  0.04999999999999982 -0.9 0  0.09999999999999964 -0.9 0  0.1500000000000004 -0.9 0  0.2000000000000002 -0.9 0  0.25 -0.9 0  0.2999999999999998 -0.9 0  0.3499999999999996 -0.9 0  0.4000000000000004 -0.9 0  0.4500000000000002 -0.9 0  0.5 -0.9 0  0.5499999999999998 -0.9 0  0.5999999999999996 -0.9 0  0.6500000000000004 -0.9 0  0.7000000000000002 -0.9 0  0.75 -0.9 0  0.7999999999999998 -0.9 0  0.8499999999999996 -0.9 0  0.9000000000000004 -0.9 0  0.9500000000000002 -0.9 0  1 -0.9 0  1.05 -0.9 0  1.1 -0.9 0  1.15 -0.9 0  1.2 -0.9 0  1.25 -0.9 0  1.3 -0.9 0  1.35 -0.9 0  1.4 -0.9 0  1.45 -0.9 0  1.5 -0.9 0  1.55 -0.9 0  1.6 -0.9 0  1.65 -0.9 0  1.7 -0.9 0  1.75 -0.9 0  1.8 -0.9 0  1.85 -0.9 0  1.9 -0.9 0  1.95 -0.9 0  2 -0.9 0  2.05 -0.9 0  2.1 -0.9 0  2.15 -0.9 0  2.2 -0.9 0  2.25 -0.9 0  2.3 -0.9 0  2.35 -0.9 0  2.4 -0.9 0  2.45 -0.9 0  2.5 -0.9 0  2.55 -0.9 0  2.6 -0.9 0  2.65 -0.9 0  2.7 -0.9 0  2.75 -0.9 0  2.8 -0.9 0  2.85 -0.9 0  2.9 -0.9 0  2.95 -0.9 0  3 -0.9 0  3.050000000000001 -0.9 0  3.1 -0.9 0  3.15 -0.9 0  3.199999999999999 -0.9 0  3.25 -0.9 0  3.300000000000001 -0.9 0  3.35 -0.9 0  3.4 -0.9 0  3.449999999999999 -0.9 0  3.5 -0.9 0  3.550000000000001 -0.9 0  3.6 -0.9 0  3.65 -0.9 0  3.699999999999999 -0.9 0  3.75 -0.9 0  3.800000000000001 -0.9 0  3.85 -0.9 0  3.9 -0.9 0  3.949999999999999 -0.9 0  4 -0.9 0  4.050000000000001 -0.9 0  4.1 -0.9 0  4.15 -0.9 0  4.199999999999999 -0.9 0  4.25 -0.9 0  4.300000000000001 -0.9 0  4.35 -0.9 0  4.4 -0.9 0  4.449999999999999 -0.9 0  4.5 -0.9 0  4.550000000000001 -0.9 0  4.6 -0.9 0  4.65 -0.9 0  4.699999999999999 -0.9 0  4.75 -0.9 0  4.800000000000001 -0.9 0  4.85 -0.9 0  4.9 -0.9 0  4.949999999999999 -0.9 0  5 -0.9 0  -5 -0.85 0  -4.95 -0.85 0  -4.9 -0.85 0  -4.85 -0.85 0  -4.8 -0.85 0  -4.75 -0.85 0  -4.7 -0.85 0  -4.65 -0.85 0  -4.6 -0.85 0  -4.55 -0.85 0  -4.5 -0.85 0  -
[...]
<PointData  Vectors="f_15"> 
<DataArray  type="Float64"  Name="f_15"  NumberOfComponents="3" format="ascii">1.4161374026982059e+00 0.0000000000000000e+00 0.0000000000000000e+00  1.4163596685874786e+00 3.2451123273759125e-02 0.0000000000000000e+00  1.4162106114047006e+00 6.7035317340501152e-02 0.0000000000000000e+00  1.4163897471404576e+00 9.9006577720418279e-02 0.0000000000000000e+00  1.4161978053510049e+00 1.3297532667308923e-01 0.0000000000000000e+00  1.4164215366689115e+00 1.6551288558542229e-01 0.0000000000000000e+00  1.4162607743034521e+00 1.9894934169303649e-01 0.0000000000000000e+00  1.4163939003604864e+00 2.3171046844337484e-01 0.0000000000000000e+00  1.4163158198990633e+00 2.6503044075977783e-01 0.0000000000000000e+00  1.4164378081693825e+00 2.9781848992228033e-01 0.0000000000000000e+00  1.4163229218835205e+00 3.3090837890058256e-01 0.0000000000000000e+00  1.4164943727843327e+00 3.6392782979227084e-01 0.0000000000000000e+00  1.4163986061239981e+00 3.9672159262296913e-01 0.0000000000000000e+00  1.4165257430010234e+00 4.2978546506885845e-01 0.0000000000000000e+00  1.4165012767456944e+00 4.6252207998867390e-01 0.0000000000000000e+00  1.4166410911998546e+00 4.9552739501313298e-01 0.0000000000000000e+00  1.4165887003414250e+00 5.2804095327179745e-01 0.0000000000000000e+00  1.4168153432258357e+00 5.6118424012606671e-01 0.0000000000000000e+00  1.4167643938752204e+00 5.9343010659326723e-01 0.0000000000000000e+00  1.4170049374321645e+00 6.2644653194033317e-01 0.0000000000000000e+00  1.4170227502582811e+00 6.5867369060507386e-01 0.0000000000000000e+00  1.4173058335821176e+00 6.9149173033312161e-01 0.0000000000000000e+00  1.4173333067048353e+00 7.2344889374293275e-01 0.0000000000000000e+00  1.4177271708023598e+00 7.5622744359564043e-01 0.0000000000000000e+00  1.4177959000474070e+00 7.8789511099651843e-01 0.0000000000000000e+00  1.4182569293574032e+00 8.2035751042240868e-01 0.0000000000000000e+00  1.4184429271631194e+00 8.5184965944626800e-01 0.0000000000000000e+00  1.4190052862964515e+00 8.8392461181698090e-01 0.0000000000000000e+00  1.4192973139460050e+00 9.1498200292261955e-01 0.0000000000000000e+00  1.4200348447561209e+00 9.4669945026629854e-01 0.0000000000000000e+00  1.4204997235989318e+00 9.7722200175311036e-01 0.0000000000000000e+00  1.4214220612497446e+00 1.0082474313656273e+00 0.0000000000000000e+00  1.4221636614147364e+00 1.0381831459728321e+00 0.0000000000000000e+00  1.4233683764718636e+00 1.0683312270834242e+00 0.0000000000000000e+00  1.4244478087608448e+00 1.0972644543224583e+00 0.0000000000000000e+00  1.4260708326519671e+00 1.1263256090093487e+00 0.0000000000000000e+00  1.4276469692782117e+00 1.1539687500379174e+00 0.0000000000000000e+00  1.4297951503909356e+00 1.1813924580156001e+00 0.0000000000000000e+00  1.4320494952697351e+00 1.2074148571287582e+00 0.0000000000000000e+00  1.4349172119161269e+00 1.2328424842054715e+00 0.0000000000000000e+00  1.4379649536391554e+00 1.2566803728704274e+00 0.0000000000000000e+00  1.4417005841211743e+00 1.2798542196598228e+00 0.0000000000000000e+00  1.4456587080769734e+00 1.3013888100218451e+00 0.0000000000000000e+00  1.4502308911432888e+00 1.3221252572747955e+00 0.0000000000000000e+00  1.4550478572773442e+00 1.3416184796202713e+00 0.0000000000000000e+00  1.4603410529321710e+00 1.3604376364741366e+00 0.0000000000000000e+00  1.4657432918900524e+00 1.3782989242059793e+00 0.0000000000000000e+00  1.4715157985666836e+00 1.3959702132648750e+00 0.0000000000000000e+00  1.4772766991952673e+00 1.4129858357860883e+00 0.0000000000000000e+00  1.4832385557789567e+00 1.4299443663077083e+00 0.0000000000000000e+00  1.4891931690505202e+00 1.4466605086188922e+00 0.0000000000000000e+00  1.4952496394425636e+00 1.4633554032531266e+00 0.0000000000000000e+00  1.5012528536328844e+00 1.4797896632755121e+00 0.0000000000000000e+00  1.5073789440842975e+00 1.4964317135029879e+00 0.0000000000000000e+00  1.5134347473383343e+00 1.5127408809951293e+00 0.0000000000000000e+00  1.5195571367080525e+00 1.5291856430395758e+00 0.0000000000000000e+00  1.5256842800500081e+00 1.5454506757868509e+00 0.0000000000000000e+00  1.5318251718582383e+00 1.5618079584066762e+00 0.0000000000000000e+00  1.5379613029898902e+00 1.5778449367155558e+00 0.0000000000000000e+00  1.5441484351788632e+00 1.5942022968213085e+00 0.0000000000000000e+00  1.5503054377725143e+00 1.6100893508330780e+00 0.0000000000000000e+00  1.5564853565262100e+00 1.6262939654790365e+00 0.0000000000000000e+00  1.5626899094567424e+00 1.6420941325108731e+00 0.0000000000000000e+00  1.5688672464179763e+00 1.6582228986366205e+00 0.0000000000000000e+00  1.5750725523752207e+00 1.6737909056341327e+00 0.0000000000000000e+00  1.5812746167813716e+00 1.6899071388834945e+00 0.0000000000000000e+00  1.5874728457223994e+00 1.7052979341001200e+00 0.0000000000000000e+00  1.5936646945461241e+00 1.7212850916847939e+00 0.0000000000000000e+00  1.5998789834497702e+00 1.7365415340850667e+00 0.0000000000000000e+00  1.6060440636927804e+00 1.7524403385775476e+00 0.0000000000000000e+00  1.6122521323351238e+00 1.7674745950220692e+00 0.0000000000000000e+00  1.6184049367289541e+00 1.7832958284867981e+00 0.0000000000000000e+00  1.6245856146362447e+00 1.7981626211410759e+00 0.0000000000000000e+00  1.6307106357556631e+00 1.8138086840317194e+00 0.0000000000000000e+00  1.6368753837243561e+00 1.8285312432087022e+00 0.0000000000000000e+00  1.6429415900969664e+00 1.8440156317727852e+00 0.0000000000000000e+00  1.6490922989392343e+00 1.8585420069818916e+00 0.0000000000000000e+00  1.6550942809065845e+00 1.8738309503119990e+00 0.0000000000000000e+00  1.6612053423366115e+00 1.8882196339459434e+00 0.0000000000000000e+00  1.6671443875323866e+00 1.9032101582477010e+00 0.0000000000000000e+00  1.6732089920561097e+00 1.9174686444349567e+00 0.0000000000000000e+00  1.6790518277802000e+00 1.9321800654675860e+00 0.0000000000000000e+00  1.6850803368879308e+00 1.9462121090830400e+00 0.0000000000000000e+00  1.6908103893618895e+00 1.9606594662623789e+00 0.0000000000000000e+00  1.6967689937828565e+00 1.9744638820420946e+00 0.0000000000000000e+00  1.7023993181205195e+00 1.9885385070983133e+00 0.0000000000000000e+00  1.7082649837436155e+00 2.0021605666889513e+00 0.0000000000000000e+00  1.7137625384011492e+00 2.0158235725722551e+00 0.0000000000000000e+00  1.7195426393299116e+00 2.0291323189002899e+00 0.0000000000000000e+00  1.7248887580386758e+00 2.0425210410875483e+00 0.0000000000000000e+00  1.7305405802184934e+00 2.0553231372053036e+00 0.0000000000000000e+00  1.7357462652040954e+00 2.0684207177616787e+00 0.0000000000000000e+00  1.7412475672487187e+00 2.0808426728114040e+00 0.0000000000000000e+00  1.7462671491133508e+00 2.0933289178842309e+00 0.0000000000000000e+00  1.7516242997472338e+00 2.1055242001650871e+00 0.0000000000000000e+00  1.7564400548567889e+00 2.1174286371927313e+00 0.0000000000000000e+00  1.7616015179960149e+00 2.1289953714879482e+00 0.0000000000000000e+00  1.7662174910188413e+00 2.1406687294402600e+00 0.0000000000000000e+00  1.7711680773396219e+00 2.1514804815652870e+00 0.0000000000000000e+00  1.7755276676786942e+00 2.1624620215561734e+00 0.0000000000000000e+00  1.7802722136128133e+00 2.1731684363361250e+00 0.0000000000000000e+00  1.7843641499064209e+00 2.1829292207028872e+00 0.0000000000000000e+00  1.7888392155978712e+00 2.1933472589369218e+00 0.0000000000000000e+00  1.7926763974053332e+00 2.2025428382828607e+00 0.0000000000000000e+00  1.7968673740042973e+00 2.2118971500201803e+00 0.0000000000000000e+00  1.8003891373379171e+00 2.2206600920611388e+00 0.0000000000000000e+00  1.8043155208700870e+00 2.2294456277975936e+00 0.0000000000000000e+00  1.8075106332859434e+00 2.2369523818186003e+00 0.0000000000000000e+00  1.8111071164573129e+00 2.2454942440530652e+00 0.0000000000000000e+00  1.8140153098625331e+00 2.2521537191192480e+00 0.0000000000000000e+00  1.8172644352759448e+00 2.2595004921299306e+00 0.0000000000000000e+00  1.8198352313215529e+00 2.2660187513323433e+00 0.0000000000000000e+00  1.8227787382819514e+00 2.2721723783806533e+00 0.0000000000000000e+00  1.8250094910827288e+00 2.2779082485282820e+00 0.0000000000000000e+00  1.8275991038675141e+00 2.2835339275605246e+00 0.0000000000000000e+00  1.8295493230096398e+00 2.2883706365288172e+00 0.0000000000000000e+00  1.8317840680277664e+00 2.2930682750312066e+00 0.0000000000000000e+00  1.8334163746754442e+00 2.2975337079936446e+00 0.0000000000000000e+00  1.8353474334389552e+00 2.3012983650220549e+00 0.0000000000000000e+00  1.8366417102589030e+00 2.3050819812175822e+00 0.0000000000000000e+00  1.8382076195660968e+00 2.3085057452712672e+00 0.0000000000000000e+00  1.8391561302430648e+00 2.3116568355016445e+00 0.0000000000000000e+00  1.8403281271108300e+00 2.3145993363832322e+00 0.0000000000000000e+00  1.8409337370626322e+00 2.3174899829096280e+00 0.0000000000000000e+00  1.8418399211096317e+00 2.3197132538808871e+00 0.0000000000000000e+00  1.8424394394733206e+00 2.3220186705859951e+00 0.0000000000000000e+00  1.8432221320228297e+00 2.3230138043738759e+00 0.0000000000000000e+00  1.8443172429901442e+00 2.3249715274730516e+00 0.0000000000000000e+00  1.8448090696596111e+00 2.3242179467070172e+00 0.0000000000000000e+00  1.8462879310494702e+00 2.3265407294880220e+00 0.0000000000000000e+00  1.8463604205661770e+00 2.3252885692141518e+00 0.0000000000000000e+00  1.8472423821187549e+00 2.3265967058877624e+00 0.0000000000000000e+00  1.8483881727726352e+00 2.3280777950890537e+00 0.0000000000000000e+00  1.8465921786493806e+00 2.3232994073800581e+00 0.0000000000000000e+00  1.8533747924242707e+00 2.3313930606606839e+00 0.0000000000000000e+00  1.8380081863772599e+00 2.3289345062389515e+00 0.0000000000000000e+00  1.8466729197126990e+00 2.3703704821292484e+00 0.0000000000000000e+00  2.2451797586513083e+00 1.4146511117524871e+00 0.0000000000000000e+00  2.7845077450715023e+00 3.2306369208679064e-01 0.0000000000000000e+00  2.9653572623348374e+00 2.8890885265378724e-02 0.0000000000000000e+00  2.9679082421593028e+00 1.0655682284990236e-02 0.0000000000000000e+00  2.9640642978690748e+00 6.7177257309186528e-03 0.0000000000000000e+00  2.9718928343045783e+00 -1.2260815699671654e-03 0.0000000000000000e+00  2.9710826426053942e+00 9.6246590081943209e-04 0.0000000000000000e+00  2.9712490477854021e+00 -1.4142766614869506e-03 0.0000000000000000e+00  2.9729246646290592e+00 -3.6455368900785725e-03 0.0000000000000000e+00  2.9720121322268565e+00 -1.7764358479562621e-03 0.0000000000000000e+00  2.9716380295234930e+00 -1.2279291093501346e-03 0.0000000000000000e+00  2.9717998181499916e+00 -1.6115136215440508e-03 0.0000000000000000e+00  2.9721348296134429e+00 -2.0230087832251486e-03 0.0000000000000000e+00  2.9720075565708690e+00 -1.8905449701667157e-03 0.0000000000000000e+00  2.9720915549257017e+00 -1.9632669860826031e-03 0.0000000000000000e+00  2.9718899316721155e+00 -1.7203080663878256e-03 0.0000000000000000e+00  2.9720626636293352e+00 -1.8917492172997247e-03 0.0000000000000000e+00  2.9719458214640171e+00 -1.8229153999567728e-03 0.0000000000000000e+00  2.9721119664708979e+00 -2.0252167803234394e-03 0.0000000000000000e+00  2.9719349880162498e+00 -1.8050422601617090e-03 0.0000000000000000e+00  2.9720943594876781e+00 -2.0294339344918396e-03 0.0000000000000000e+00  2.9719408399082385e+00 -1.8570391231997954e-03 0.0000000000000000e+00  2.9721094216474628e+00 -2.1078420325953357e-03 0.0000000000000000e+00  2.9719503560222882e+00 -1.8769618235534630e-03 0.0000000000000000e+00  2.9721152711428527e+00 -2.2726542375063781e-03 0.0000000000000000e+00  2.9719719456575668e+00 -1.9544264393553459e-03 0.0000000000000000e+00  2.9721080657662751e+00 -2.5148713365319123e-03 0.0000000000000000e+00  2.9719966488875253e+00 -2.2958645343942943e-03 0.0000000000000000e+00  2.9721227220328958e+00 -3.0383914204324880e-03 0.0000000000000000e+00  2.9720089281583615e+00 -2.9602782254079469e-03 0.0000000000000000e+00  2.9721334980899257e+00 -3.9930500884169540e-03 0.0000000000000000e+00  2.9720336467557216e+00 -4.0917453719710667e-03 0.0000000000000000e+00  2.9721369013927932e+00 -5.2484326930514564e-03 0.0000000000000000e+00  2.9720535275231419e+00 -5.5498009955520164e-03 0.0000000000000000e+00  2.9721515758290948e+00 -6.5592059909791237e-03 0.0000000000000000e+00  2.9720603591141921e+00 -6.7663728508644922e-03 0.0000000000000000e+00  2.9721641700230181e+00 -7.6663208754464175e-03 0.0000000000000000e+00  2.9720761424006259e+00 -7.5983923643036392e-03 0.0000000000000000e+00  2.9721646105614119e+00 -8.2092539807119037e-03 0.0000000000000000e+00  2.9720901962603907e+00 -8.2093884673637881e-03 0.0000000000000000e+00  2.9721751313779237e+00 -8.4207313534058262e-03 0.0000000000000000e+00  2.9720942182808261e+00 -8.4566791762241741e-03 0.0000000000000000e+00  2.9721820709056930e+00 -8.6023351156189962e-03 0.0000000000000000e+00  2.9721145226224830e+00 -8.5397772164318292e-03 0.0000000000000000e+00  2.9721761548545960e+00 -8.6320527286040220e-03 0.0000000000000000e+00  2.9721349011158544e+00 -8.6813839899579290e-03 0.0000000000000000e+00  2.9721842018600628e+00 -8.5982616533681975e-03 0.0000000000000000e+00  2.9721458775146661e+00 -8.7029791735595153e-03 0.0000000000000000e+00  2.9721879571564229e+00 -8.7852227595657962e-03 0.0000000000000000e+00  2.9721727586181199e+00 -8.5324698963378399e-03 0.0000000000000000e+00  2.9721786501363288e+00 -8.9789061781203831e-03 0.0000000000000000e+00  2.9721958771908454e+00 -8.7044531545309757e-03 0.0000000000000000e+00  2.9721807705584511e+00 -8.6593843943735191e-03 0.0000000000000000e+00  2.9722070466079216e+00 -8.9843923465875962e-03 0.0000000000000000e+00  2.9721758108165588e+00 -8.7717210597939178e-03 0.0000000000000000e+00  2.9722286802032460e+00 -8.6544922769135075e-03 0.0000000000000000e+00  2.9721573115772695e+00 -9.7490917646353408e-03 0.0000000000000000e+00  2.9722443294779008e+00 -8.4078324437346693e-03 0.0000000000000000e+00  2.9721458860049781e+00 -9.6951670684342628e-03 0.0000000000000000e+00  2.9722491076568218e+00 -9.6723261183547880e-03 0.0000000000000000e+00  2.9721281239865474e+00 -8.7406916760346138e-03 0.0000000000000000e+00  2.9722579255272810e+00 -1.4720416801684458e-02 0.0000000000000000e+00  2.9720954991529376e+00 -1.0058823258466760e-02 0.0000000000000000e+00  2.9722722452329546e+00 0.0000000000000000e+00 0.0000000000000000e+00  1.4161438802439688e+00 0.0000000000000000e+00 4.5623316144526829e-04  1.4162975506285203e+00 3.3248353516182674e-02 7.8807636501420004e-05  1.4161853728085536e+00 6.5860912151660761e-02 -4.2766422961428425e-04  1.4162044388578046e+00 9.9191026060504311e-02 3.1414019548241527e-04  1.4162164584042360e+00 1.3223392007325091e-01 -2.8309611969319859e-04  1.4162255114633528e+00 1.6533477146885556e-01 2.6577274745654479e-04  1.4161893814304731e+00 1.9832883601002668e-01 -2.4460143609231710e-04  1.4162577920904018e+00 2.3160166607815663e-01 2.4261028541401435e-04  1.4162499728512581e+00 2.6442594580265882e-01 -2.2444070881023223e-04  1.4162560746963226e+00 2.9766115483903643e-01 2.1423358526547766e-04  1.4163239621668080e+00 3.3058514556298413e-01 -1.8785304288466390e-04  1.4163373764438114e+00 3.6365663372039575e-01 1.6296731551361751e-04  1.4163673303629678e+00 3.9653065048509589e-01 -1.2449313648151201e-04  1.4164460958801952e+00 4.2962355445092926e-01 8.5187784127458097e-05  1.4164871267795682e+00 4.6240023276187375e-01 -4.6580422749145570e-05  1.4165358350917696e+00 4.9529144830997512e-01 2.0790396524131979e-05  1.4166492989448489e+00 5.2819872880509089e-01 -5.9036070333453803e-06  1.4167086549269625e+00 5.6084007779555844e-01 -4.5807574522379685e-06  1.4168099575592392e+00 5.9360317283247510e-01 1.4188525167048665e-05  1.4169503219777562e+00 6.2626812178451718e-01 -2.4120738222073833e-05  1.4170687041506143e+00 6.5881073983262828e-01 3.2427421090322631e-05  1.4172252125275726e+00 6.9123185647093188e-01 -4.2803492653542950e-05  1.4174304250019492e+00 7.2376697690195690e-01 5.0407952181994690e-05  1.4176321351342138e+00 7.5590700078287576e-01 -5.4480682076510784e-05  1.4178769926720329e+00 7.8815304507736550e-01 5.4623822510467452e-05  1.4181952718396300e+00 8.2016104547573077e-01 -5.8306481251120864e-05  1.4185146848630334e+00 8.5206515767743574e-01 6.3732899190543143e-05  1.4189244627643085e+00 8.8367101853351659e-01 -7.0180314739906252e-05  1.4193946159185096e+00 9.1530780343236295e-01 7.5255233975810091e-05  1.4199485492762072e+00 9.4641527412261306e-01 -8.1125084644671189e-05  1.4205724684084600e+00 9.7747952706022379e-01 8.5754120859834055e-05  1.4213620571650849e+00 1.0080747173245692e+00 -9.1850868561604946e-05  1.4222259364527075e+00 1.0384127435670780e+00 9.9448424360952601e-05  1.4232930398293788e+00 1.0681034880494058e+00 -1.0925618153545163e-04  1.4245210523418832e+00 1.0975741637065417e+00 1.1742028474584153e-04  1.4260027127246087e+00 1.1261002263723312e+00 -1.2500833962810441e-04  1.4276877854199306e+00 1.1541971958330102e+00 1.3112784534499545e-04  1.4297533581020736e+00 1.1812648943918369e+00 -1.3646076532882484e-04  1.4320851455436143e+00 1.2076276390248861e+00 1.4128550555051638e-04  1.4348590384966322e+00 1.2326497441948383e+00 -1.4415193923894692e-04  1.4380137254949577e+00 1.2569498847085003e+00 1.4703354321846966e-04  1.4416585569429390e+00 1.2796789548080378e+00 -1.4445078054675165e-04  1.4456755694630286e+00 1.3015453852030008e+00 1.4353233827342306e-04  1.4502212212170518e+00 1.3220401637405153e+00 -1.3690047879612072e-04  1.4550683067414001e+00 1.3417554422222233e+00 1.3239822468977578e-04  1.4603107016428640e+00 1.3602699865914598e+00 -1.2388698894523676e-04  1.4657840792164765e+00 1.3784922516547609e+00 1.1503508677654481e-04  1.4714978488028418e+00 1.3958268982154671e+00 -1.0514279242672555e-04  1.4772798295964131e+00 1.4130652107011432e+00 9.2593406779092099e-05  1.4832492984758301e+00 1.4299077441771875e+00 -7.9750894093902634e-05  1.4891934283791743e+00 1.4467380114068513e+00 6.4204428407916547e-05  1.4952280136785483e+00 1.4632453060043771e+00 -4.7671475288106870e-05  1.5012749437617394e+00 1.4799467759903151e+00 3.0689536694269481e-05  1.5073585548669479e+00 1.4963506820832173e+00 -1.2530139761926587e-05  1.5134220991290550e+00 1.5127945789570567e+00 -4.2814448824731087e-06  1.5195658072640068e+00 1.5292050003776296e+00 2.2497443676805525e-05  1.5256671616943898e+00 1.5455037647436829e+00 -3.9072514509146599e-05  1.5318065406031407e+00 1.5617463126866378e+00 5.7578856325610895e-05  1.5379717352372517e+00 1.5779791858254484e+00 -7.2828414816960256e-05  1.5441238870260607e+00 1.5941455494503036e+00 8.9554603906231111e-05  1.5502958437095664e+00 1.6101428853622792e+00 -1.0083688078692089e-04  1.5564890121515780e+00 1.6263038580407450e+00 1.1371106677210999e-04  1.5626739925793287e+00 1.6421511505308437e+00 -1.2101165962005221e-04  1.5688590282003225e+00 1.6581485049092728e+00 1.3071597445485876e-04  1.5750823864546131e+00 1.6739211623581878e+00 -1.3441969693552187e-04  1.5812571506403603e+00 1.6898111620926819e+00 1.3877189925585429e-04  1.5874773040809587e+00 1.7053880316332648e+00 -1.3706251573371119e-04  1.5936679056987646e+00 1.7212137806114156e+00 1.3565955239501403e-04  1.5998697528138031e+00 1.7366558718873581e+00 -1.3053597244563005e-04  1.6060495225851048e+00 1.7523010159003976e+00 1.2591025608120924e-04  1.6122498159263483e+00 1.7676508529614454e+00 -1.1840736536133616e-04  1.6184002041394983e+00 1.7831480128359878e+00 1.1016262956464441e-04  1.6245807817555544e+00 1.7983225683286674e+00 -1.0064565190918523e-04  1.6307151465160106e+00 1.8136793541183132e+00 9.2793605397655757e-05  1.6368501007972942e+00 1.8287140586121429e+00 -8.6943770874668838e-05  1.6429619340519293e+00 1.8438552710706693e+00 8.4555227151148727e-05  1.6490547390125128e+00 1.8587408282006515e+00 -8.3644444613180922e-05  1.6551139178934571e+00 1.8737076512676956e+00 8.5544722132389469e-05  1.6611686485565056e+00 1.8883566838920061e+00 -8.9390447366522675e-05  1.6671661379648830e+00 1.9031496890458701e+00 9.9512830762596430e-05  1.6731561919102873e+00 1.9175776223220284e+00 -1.1449898834970679e-04  1.6790947616235741e+00 1.9321267859854763e+00 1.365078