<?xml version="1.0"?>
<VTKFile type="UnstructuredGrid"  version="0.1"  >
<UnstructuredGrid>
<Piece  NumberOfPoints="8241" NumberOfCells="16000">
<Points>
<DataArray  type="Float64"  NumberOfComponents="3"  format="ascii">-5 -1 0  -4.95 -1 0  -4.9 -1 0  -4.85 -1 0  -4.8 -1 0  -4.75 -1 0  -4.7 -1 0  -4.65 -1 0  -4.6 -1 0  -4.55 -1 0  -4.5 -1 0  -4.45 -1 0  -4.4 -1 0  -4.35 -1 0  -4.3 -1 0  -4.25 -1 0  -4.2 -1 0  -4.15 -1 0  -4.1 -1 0  -4.05 -1 0  -4 -1 0  -3.95 -1 0  -3.9 -1 0  -3.85 -1 0  -3.8 -1 0  -3.75 -1 0  -3.7 -1 0  -3.65 -1 0  -3.6 -1 0  -3.55 -1 0  -3.5 -1 0  -3.45 -1 0  -3.4 -1 0  -3.35 -1 0  -3.3 -1 0  -3.25 -1 0  -3.2 -1 0  -3.15 -1 0  -3.1 -1 0  -3.05 -1 0  -3 -1 0  -2.95 -1 0  -2.9 -1 0  -2.85 -1 0  -2.8 -1 0  -2.75 -1 0  -2.7 -1 0  -2.65 -1 0  -2.6 -1 0  -2.55 -1 0  -2.5 -1 0  -2.45 -1 0  -2.4 -1 0  -2.35 -1 0  -2.3 -1 0  -2.25 -1 0  -2.2 -1 0  -2.15 -1 0  -2.1 -1 0  -2.05 -1 0  -2 -1 0  -1.95 -1 0  -1.9 -1 0  -1.85 -1 0  -1.8 -1 0  -1.75 -1 0  -1.7 -1 0  -1.65 -1 0  -1.6 -1 0  -1.55 -1 0  -1.5 -1 0  -1.45 -1 0  -1.4 -1 0  -1.35 -1 0  -1.3 -1 0  -1.25 -1 0  -1.2 -1 0  -1.15 -1 0  -1.1 -1 0  -1.05 -1 0  -1 -1 0  -0.9500000000000002 -1 0  -0.9000000000000004 -1 0  -0.8499999999999996 -1 0  -0.7999999999999998 -1 0  -0.75 -1 0  -0.7000000000000002 -1 0  -0.6500000000000004 -1 0  -0.5999999999999996 -1 0  -0.5499999999999998 -1 0  -0.5 -1 0  -0.4500000000000002 -1 0  -0.4000000000000004 -1 0  -0.3499999999999996 -1 0  -0.2999999999999998 -1 0  -0.25 -1 0  -0.2000000000000002 -1 0  -0.1500000000000004 -1 0  -0.09999999999999964 -1 0  -0.04999999999999982 -1 0  0 -1 0  0.04999999999999982 -1 0  0.09999999999999964 -1 0  0.1500000000000004 -1 0  0.2000000000000002 -1 0  0.25 -1 0  0.2999999999999998 -1 0  0.3499999999999996 -1 0  0.4000000000000004 -1 0  0.4500000000000002 -1 0  0.5 -1 0  0.5499999999999998 -1 0  0.5999999999999996 -1 0  0.6500000000000004 -1 0  0.7000000000000002 -1 0  0.75 -1 0  0.7999999999999998 -1 0  0.8499999999999996 -1 0  0.9000000000000004 -1 0  0.9500000000000002 -1 0  1 -1 0  1.05 -1 0  1.1 -1 0  1.15 -1 0  1.2 -1 0  1.25 -1 0  1.3 -1 0  1.35 -1 0  1.4 -1 0  1.45 -1 0  1.5 -1 0  1.55 -1 0  1.6 -1 0  1.65 -1 0  1.7 -1 0  1.75 -1 0  1.8 -1 0  1.85 -1 0  1.9 -1 0  1.95 -1 0  2 -1 0  2.05 -1 0  2.1 -1 0  2.15 -1 0  2.2 -1 0  2.25 -1 0  2.3 -1 0  2.35 -1 0  2.4 -1 0  2.45 -1 0  2.5 -1 0  2.55 -1 0  2.6 -1 0  2.65 -1 0  2.7 -1 0  2.75 -1 0  2.8 -1 0  2.85 -1 0  2.9 -1 0  2.95 -1 0  3 -1 0  3.050000000000001 -1 0  3.1 -1 0  3.15 -1 0  3.199999999999999 -1 0  3.25 -1 0  3.300000000000001 -1 0  3.35 -1 0  3.4 -1 0  3.449999999999999 -1 0  3.5 -1 0  3.550000000000001 -1 0  3.6 -1 0  3.65 -1 0  3.699999999999999 -1 0  3.75 -1 0  3.800000000000001 -1 0  3.85 -1 0  3.9 -1 0  3.949999999999999 -1 0  4 -1 0  4.050000000000001 -1 0  4.1 -1 0  4.15 -1 0  4.199999999999999 -1 0  4.25 -1 0  4.300000000000001 -1 0  4.35 -1 0  4.4 -1 0  4.449999999999999 -1 0  4.5 -1 0  4.550000000000001 -1 0  4.6 -1 0  4.65 -1 0  4.699999999999999 -1 0  4.75 -1 0  4.800000000000001 -1 0  4.85 -1 0  4.9 -1 0  4.949999999999999 -1 0  5 -1 0  -5 -0.95 0  -4.95 -0.95 0  -4.9 -0.95 0  -4.85 -0.95 0  -4.8 -0.95 0  -4.75 -0.95 0  -4.7 -0.95 0  -4.65 -0.95 0  -4.6 -0.95 0  -4.55 -0.95 0  -4.5 -0.95 0  -4.45 -0.95 0  -4.4 -0.95 0  -4.35 -0.95 0  -4.3 -0.95 0  -4.25 -0.95 0  -4.2 -0.95 0  -4.15 -0.95 0  -4.1 -0.95 0  -4.05 -0.95 0  -4 -0.95 0  -3.95 -0.95 0  -3.9 -0.95 0  -3.85 -0.95 0  -3.8 -0.95 0  -3.75 -0.95 0  -3.7 -0.95 0  -3.65 -0.95 0  -3.6 -0.95 0  -3.55 -0.95 0  -3.5 -0.95 0  -3.45 -0.95 0  -3.4 -0.95 0  -3.35 -0.95 0  -3.3 -0.95 0  -3.25 -0.95 0  -3.2 -0.95 0  -3.15 -0.95 0  -3.1 -0.95 0  -3.05 -0.95 0  -3 -0.95 0  -2.95 -0.95 0  -2.9 -0.95 0  -2.85 -0.95 0  -2.8 -0.95 0  -2.75 -0.95 0  -2.7 -0.95 0  -2.65 -0.95 0  -2.6 -0.95 0  -2.55 -0.95 0  -2.5 -0.95 0  -2.45 -0.95 0  -2.4 -0.95 0  -2.35 -0.95 0  -2.3 -0.95 0  -2.25 -0.95 0  -2.2 -0.95 0  -2.15 -0.95 0  -2.1 -0.95 0  -2.05 -0.95 0  -2 -0.95 0  -1.95 -0.95 0  -1.9 -0.95 0  -1.85 -0.95 0  -1.8 -0.95 0  -1.75 -0.95 0  -1.7 -0.95 0  -1.65 -0.95 0  -1.6 -0.95 0  -1.55 -0.95 0  -1.5 -0.95 0  -1.45 -0.95 0  -1.4 -0.95 0  -1.35 -0.95 0  -1.3 -0.95 0  -1.25 -0.95 0  -1.2 -0.95 0  -1.15 -0.95 0  -1.1 -0.95 0  -1.05 -0.95 0  -1 -0.95 0  -0.9500000000000002 -0.95 0  -0.9000000000000004 -0.95 0  -0.8499999999999996 -0.95 0  -0.7999999999999998 -0.95 0  -0.75 -0.95 0  -0.7000000000000002 -0.95 0  -0.6500000000000004 -0.95 0  -0.5999999999999996 -0.95 0  -0.5499999999999998 -0.95 0  -0.5 -0.95 0  -0.4500000000000002 -0.95 0  -0.4000000000000004 -0.95 0  -0.3499999999999996 -0.95 0  -0.2999999999999998 -0.95 0  -0.25 -0.95 0  -0.2000000000000002 -0.95 0  -0.1500000000000004 -0.95 0  -0.09999999999999964 -0.95 0  -0.04999999999999982 -0.95 0  0 -0.95 0  0.04999999999999982 -0.95 0  0.09999999999999964 -0.95 0  0.1500000000000004 -0.95 0  0.2000000000000002 -0.95 0  0.25 -0.95 0  0.2999999999999998 -0.95 0  0.3499999999999996 -0.95 0  0.4000000000000004 -0.95 0  0.4500000000000002 -0.95 0  0.5 -0.95 0  0.5499999999999998 -0.95 0  0.5999999999999996 -0.95 0  0.6500000000000004 -0.95 0  0.7000000000000002 -0.95 0  0.75 -0.95 0  0.7999999999999998 -0.95 0  0.8499999999999996 -0.95 0  0.9000000000000004 -0.95 0  0.9500000000000002 -0.95 0  1 -0.95 0  1.05 -0.95 0  1.1 -0.95 0  1.15 -0.95 0  1.2 -0.95 0  1.25 -0.95 0  1.3 -0.95 0  1.35 -0.95 0  1.4 -0.95 0  1.45 -0.95 0  1.5 -0.95 0  1.55 -0.95 0  1.6 -0.95 0  1.65 -0.95 0  1.7 -0.95 0  1.75 -0.95 0  1.8 -0.95 0  1.85 -0.95 0  1.9 -0.95 0  1.95 -0.95 0  2 -0.95 0  2.05 -0.95 0  2.1 -0.95 0  2.15 -0.95 0  2.2 -0.95 0  2.25 -0.95 0  2.3 -0.95 0  2.35 -0.95 0  2.4 -0.95 0  2.45 -0.95 0  2.5 -0.95 0  2.55 -0.95 0  2.6 -0.95 0  2.65 -0.95 0  2.7 -0.95 0  2.75 -0.95 0  2.8 -0.95 0  2.85 -0.95 0  2.9 -0.95 0  2.95 -0.95 0  3 -0.95 0  3.050000000000001 -0.95 0  3.1 -0.95 0  3.15 -0.95 0  3.199999999999999 -0.95 0  3.25 -0.95 0  3.300000000000001 -0.95 0  3.35 -0.95 0  3.4 -0.95 0  3.449999999999999 -0.95 0  3.5 -0.95 0  3.550000000000001 -0.95 0  3.6 -0.95 0  3.65 -0.95 0  3.699999999999999 -0.95 0  3.75 -0.95 0  3.800000000000001 -0.95 0  3.85 -0.95 0  3.9 -0.95 0  3.949999999999999 -0.95 0  4 -0.95 0  4.050000000000001 -0.95 0  4.1 -0.95 0  4.15 -0.95 0  4.199999999999999 -0.95 0  4.25 -0.95 0  4.300000000000001 -0.95 0  4.35 -0.95 0  4.4 -0.95 0  4.449999999999999 -0.95 0  4.5 -0.95 0  4.550000000000001 -0.95 0  4.6 -0.95 0  4.65 -0.95 0  4.699999999999999 -0.95 0  4.75 -0.95 0  4.800000000000001 -0.95 0  4.85 -0.95 0  4.9 -0.95 0  4.949999999999999 -0.95 0  5 -0.95 0  -5 -0.9 0  -4.95 -0.9 0  -4.9 -0.9 0  -4.85 -0.9 0  -4.8 -0.9 0  -4.75 -0.9 0  -4.7 -0.9 0  -4.65 -0.9 0  -4.6 -0.9 0  -4.55 -0.9 0  -4.5 -0.9 0  -4.45 -0.9 0  -4.4 -0.9 0  -4.35 -0.9 0  -4.3 -0.9 0  -4.25 -0.9 0  -4.2 -0.9 0  -4.15 -0.9 0  -4.1 -0.9 0  -4.05 -0.9 0  -4 -0.9 0  -3.95 -0.9 0  -3.9 -0.9 0  -3.85 -0.9 0  -3.8 -0.9 0  -3.75 -0.9 0  -3.7 -0.9 0  -3.65 -0.9 0  -3.6 -0.9 0  -3.55 -0.9 0  -3.5 -0.9 0  -3.45 -0.9 0  -3.4 -0.9 0  -3.35 -0.9 0  -3.3 -0.9 0  -3.25 -0.9 0  -3.2 -0.9 0  -3.15 -0.9 0  -3.1 -0.9 0  -3.05 -0.9 0  -3 -0.9 0  -2.95 -0.9 0  -2.9 -0.9 0  -2.85 -0.9 0  -2.8 -0.9 0  -2.75 -0.9 0  -2.7 -0.9 0  -2.65 -0.9 0  -2.6 -0.9 0  -2.55 -0.9 0  -2.5 -0.9 0  -2.45 -0.9 0  -2.4 -0.9 0  -2.35 -0.9 0  -2.3 -0.9 0  -2.25 -0.9 0  -2.2 -0.9 0  -2.15 -0.9 0  -2.1 -0.9 0  -2.05 -0.9 0  -2 -0.9 0  -1.95 -0.9 0  -1.9 -0.9 0  -1.85 -0.9 0  -1.8 -0.9 0  -1.75 -0.9 0  -1.7 -0.9 0  -1.65 -0.9 0  -1.6 -0.9 0  -1.55 -0.9 0  -1.5 -0.9 0  -1.45 -0.9 0  -1.4 -0.9 0  -1.35 -0.9 0  -1.3 -0.9 0  -1.25 -0.9 0  -1.2 -0.9 0  -1.15 -0.9 0  -1.1 -0.9 0  -1.05 -0.9 0  -1 -0.9 0  -0.9500000000000002 -0.9 0  -0.9000000000000004 -0.9 0  -0.8499999999999996 -0.9 0  -0.7999999999999998 -0.9 0  -0.75 -0.9 0  -0.7000000000000002 -0.9 0  -0.6500000000000004 -0.9 0  -0.5999999999999996 -0.9 0  -0.5499999999999998 -0.9 0  -0.5 -0.9 0  -0.4500000000000002 -0.9 0  -0.4000000000000004 -0.9 0  -0.3499999999999996 -0.9 0  -0.2999999999999998 -0.9 0  -0.25 -0.9 0  -0.2000000000000002 -0.9 0  -0.1500000000000004 -0.9 0  -0.09999999999999964 -0.9 0  -0.04999999999999982 -0.9 0  0 -0.9 0  0.04999999999999982 -0.9 0  0.09999999999999964 -0.9 0  0.1500000000000004 -0.9 0  0.2000000000000002 -0.9 0  0.25 -0.9 0  0.2999999999999998 -0.9 0  0.3499999999999996 -0.9 0  0.4000000000000004 -0.9 0  0.4500000000000002 -0.9 0  0.5 -0.9 0  0.5499999999999998 -0.9 0  0.5999999999999996 -0.9 0  0.6500000000000004 -0.9 0  0.7000000000000002 -0.9 0  0.75 -0.9 0  0.7999999999999998 -0.9 0  0.8499999999999996 -0.9 0  0.9000000000000004 -0.9 0  0.9500000000000002 -0.9 0  1 -0.9 0  1.05 -0.9 0  1.1 -0.9 0  1.15 -0.9 0  1.2 -0.9 0  1.25 -0.9 0  1.3 -0.9 0  1.35 -0.9 0  1.4 -0.9 0  1.45 -0.9 0  1.5 -0.9 0  1.55 -0.9 0  1.6 -0.9 0  1.65 -0.9 0  1.7 -0.9 0  1.75 -0.9 0  1.8 -0.9 0  1.85 -0.9 0  1.9 -0.9 0  1.95 -0.9 0  2 -0.9 0  2.05 -0.9 0  2.1 -0.9 0  2.15 -0.9 0  2.2 -0.9 0  2.25 -0.9 0  2.3 -0.9 0  2.35 -0.9 0  2.4 -0.9 0  2.45 -0.9 0  2.5 -0.9 0  2.55 -0.9 0  2.6 -0.9 0  2.65 -0.9 0  2.7 -0.9 0  2.75 -0.9 0  2.8 -0.9 0  2.85 -0.9 0  2.9 -0.9 0  2.95 -0.9 0  3 -0.9 0  3.050000000000001 -0.9 0  3.1 -0.9 0  3.15 -0.9 0  3.199999999999999 -0.9 0  3.25 -0.9 0  3.300000000000001 -0.9 0  3.35 -0.9 0  3.4 -0.9 0  3.449999999999999 -0.9 0  3.5 -0.9 0  3.550000000000001 -0.9 0  3.6 -0.9 0  3.65 -0.9 0  3.699999999999999 -0.9 0  3.75 -0.9 0  3.800000000000001 -0.9 0  3.85 -0.9 0  3.9 -0.9 0  3.949999999999999 -0.9 0  4 -0.9 0  4.050000000000001 -0.9 0  4.1 -0.9 0  4.15 -0.9 0  4.199999999999999 -0.9 0  4.25 -0.9 0  4.300000000000001 -0.9 0  4.35 -0.9 0  4.4 -0.9 0  4.449999999999999 -0.9 0  4.5 -0.9 0  4.550000000000001 -0.9 0  4.6 -0.9 0  4.65 -0.9 0  4.699999999999999 -0.9 0  4.75 -0.9 0  4.800000000000001 -0.9 0  4.85 -0.9 0  4.9 -0.9 0  4.949999999999999 -0.9 0  5 -0.9 0  -5 -0.85 0  -4.95 -0.85 0  -4.9 -0.85 0  -4.85 -0.85 0  -4.8 -0.85 0  -4.75 -0.85 0  -4.7 -0.85 0  -4.65 -0.85 0  -4.6 -0.85 0  -4.55 -0.85 0  -4.5 -0.85 0  -
[...]
<PointData  Vectors="f_15"> 
<DataArray  type="Float64"  Name="f_15"  NumberOfComponents="3" format="ascii">3.0000098390703820e+00 0.0000000000000000e+00 0.0000000000000000e+00  3.0000048338943746e+00 3.1209593683787256e-06 0.0000000000000000e+00  3.0000035334864168e+00 1.5583316061238806e-05 0.0000000000000000e+00  3.0000057493240448e+00 5.1956986748675821e-06 0.0000000000000000e+00  3.0000132909474631e+00 1.6857880151429916e-05 0.0000000000000000e+00  3.0000019373356155e+00 9.9888161375068276e-06 0.0000000000000000e+00  3.0000128741127972e+00 1.0595956865984284e-05 0.0000000000000000e+00  3.0000103497322153e+00 1.5119146685616990e-05 0.0000000000000000e+00  3.0000081372019589e+00 1.2219677092424557e-05 0.0000000000000000e+00  3.0000093969910093e+00 1.0358234893088421e-05 0.0000000000000000e+00  3.0000081002695991e+00 2.4029006240140196e-05 0.0000000000000000e+00  3.0000023458885567e+00 1.9226522886249129e-05 0.0000000000000000e+00  2.9999967360015130e+00 3.5086470379767786e-05 0.0000000000000000e+00  2.9999838852346019e+00 6.0688864922120991e-05 0.0000000000000000e+00  2.9999677357200314e+00 8.4673721962364045e-05 0.0000000000000000e+00  2.9999350846546209e+00 1.3949653634655638e-04 0.0000000000000000e+00  2.9998857181842964e+00 2.3712345796657352e-04 0.0000000000000000e+00  2.9998182707586882e+00 3.4992938350422227e-04 0.0000000000000000e+00  2.9996983558103740e+00 5.6595481618784563e-04 0.0000000000000000e+00  2.9995252330928031e+00 8.8002601884454692e-04 0.0000000000000000e+00  2.9992805724521960e+00 1.3231656142819659e-03 0.0000000000000000e+00  2.9988977489830462e+00 2.0025514184473523e-03 0.0000000000000000e+00  2.9983643468338363e+00 2.9778107438790218e-03 0.0000000000000000e+00  2.9976220943699836e+00 4.3123393918603212e-03 0.0000000000000000e+00  2.9965733580549663e+00 6.2044284858020554e-03 0.0000000000000000e+00  2.9951622871042480e+00 8.7575070282221792e-03 0.0000000000000000e+00  2.9933066690233594e+00 1.2119305029012397e-02 0.0000000000000000e+00  2.9908521653375000e+00 1.6546326586088705e-02 0.0000000000000000e+00  2.9877397036016142e+00 2.2193198635636235e-02 0.0000000000000000e+00  2.9838426681495722e+00 2.9250076300817888e-02 0.0000000000000000e+00  2.9790266384277588e+00 3.7974167028640898e-02 0.0000000000000000e+00  2.9732172055347981e+00 4.8521517073629700e-02 0.0000000000000000e+00  2.9663355737743542e+00 6.1019755521252758e-02 0.0000000000000000e+00  2.9582675411272050e+00 7.5685722981713735e-02 0.0000000000000000e+00  2.9490096950228968e+00 9.2547483410305595e-02 0.0000000000000000e+00  2.9385227967810863e+00 1.1167793662574671e-01 0.0000000000000000e+00  2.9267803239662822e+00 1.3312236686301138e-01 0.0000000000000000e+00  2.9138239583046972e+00 1.5685704349342114e-01 0.0000000000000000e+00  2.8996874711033174e+00 1.8278838505024902e-01 0.0000000000000000e+00  2.8843934650356049e+00 2.1092696273086683e-01 0.0000000000000000e+00  2.8680328844631386e+00 2.4110039485659548e-01 0.0000000000000000e+00  2.8506664859670940e+00 2.7323130954666780e-01 0.0000000000000000e+00  2.8323567317935230e+00 3.0719565684337830e-01 0.0000000000000000e+00  2.8131959856841435e+00 3.4287354038127799e-01 0.0000000000000000e+00  2.7932668616818064e+00 3.8009799276275263e-01 0.0000000000000000e+00  2.7726212713410066e+00 4.1879906791486438e-01 0.0000000000000000e+00  2.7513655398984795e+00 4.5880485082525474e-01 0.0000000000000000e+00  2.7295477441741864e+00 5.0001422810593055e-01 0.0000000000000000e+00  2.7072469745864565e+00 5.4232051466943576e-01 0.0000000000000000e+00  2.6845120964118538e+00 5.8560972380495002e-01 0.0000000000000000e+00  2.6614294493655728e+00 6.2978268748730482e-01 0.0000000000000000e+00  2.6380054805946265e+00 6.7475464355331027e-01 0.0000000000000000e+00  2.6143457030725008e+00 7.2044104325798852e-01 0.0000000000000000e+00  2.5904400587650733e+00 7.6675903160772585e-01 0.0000000000000000e+00  2.5663786063719565e+00 8.1363932514534942e-01 0.0000000000000000e+00  2.5421483385480812e+00 8.6103020523649187e-01 0.0000000000000000e+00  2.5178457940319685e+00 9.0884185501810044e-01 0.0000000000000000e+00  2.4934223439031538e+00 9.5706097532443757e-01 0.0000000000000000e+00  2.4689982769783985e+00 1.0055816233666002e+00 0.0000000000000000e+00  2.4445067086031811e+00 1.0544358032270571e+00 0.0000000000000000e+00  2.4200594141350456e+00 1.1034652788561032e+00 0.0000000000000000e+00  2.3955926096905094e+00 1.1527721165376721e+00 0.0000000000000000e+00  2.3712220393539361e+00 1.2021674087641747e+00 0.0000000000000000e+00  2.3468559936970794e+00 1.2517511999374531e+00 0.0000000000000000e+00  2.3226369485221245e+00 1.3013532453635039e+00 0.0000000000000000e+00  2.2984574668674358e+00 1.3511067183100203e+00 0.0000000000000000e+00  2.2744513254171186e+00 1.4007467928142914e+00 0.0000000000000000e+00  2.2505264496494917e+00 1.4505102836519987e+00 0.0000000000000000e+00  2.2268125294071024e+00 1.5001033863323274e+00 0.0000000000000000e+00  2.2032018323465850e+00 1.5496971706972573e+00 0.0000000000000000e+00  2.1798506107655133e+00 1.5990551611158896e+00 0.0000000000000000e+00  2.1566422908588248e+00 1.6483739771281896e+00 0.0000000000000000e+00  2.1337242060046622e+00 1.6973005154725704e+00 0.0000000000000000e+00  2.1110115541149499e+00 1.7460817480453890e+00 0.0000000000000000e+00  2.0886416221524811e+00 1.7943868739311379e+00 0.0000000000000000e+00  2.0665363002567489e+00 1.8423475855570020e+00 0.0000000000000000e+00  2.0448619514117525e+00 1.8896624233151553e+00 0.0000000000000000e+00  2.0235538684879288e+00 1.9363950272920607e+00 0.0000000000000000e+00  2.0027837827632275e+00 1.9821820808579198e+00 0.0000000000000000e+00  1.9825580286388340e+00 2.0270366718202606e+00 0.0000000000000000e+00  1.9630603279607453e+00 2.0704668740701688e+00 0.0000000000000000e+00  1.9443715664403793e+00 2.1122853400728450e+00 0.0000000000000000e+00  1.9267676909403959e+00 2.1518917204265136e+00 0.0000000000000000e+00  1.9104282155389849e+00 2.1888140402223342e+00 0.0000000000000000e+00  1.8957248038757182e+00 2.2221427360979655e+00 0.0000000000000000e+00  1.8829868763469799e+00 2.2511643892285398e+00 0.0000000000000000e+00  1.8725632234276317e+00 2.2749362946266274e+00 0.0000000000000000e+00  1.8646743080084494e+00 2.2929824559021355e+00 0.0000000000000000e+00  1.8592942396494676e+00 2.3053091851060059e+00 0.0000000000000000e+00  1.8559986456729225e+00 2.3128519026859431e+00 0.0000000000000000e+00  1.8541930159923687e+00 2.3169626379846027e+00 0.0000000000000000e+00  1.8532184229066884e+00 2.3192075316872023e+00 0.0000000000000000e+00  1.8526289767918722e+00 2.3205166348048691e+00 0.0000000000000000e+00  1.8522110948745378e+00 2.3214758190854692e+00 0.0000000000000000e+00  1.8518564983815393e+00 2.3222386978419078e+00 0.0000000000000000e+00  1.8515357012850662e+00 2.3229960976029620e+00 0.0000000000000000e+00  1.8512085071985953e+00 2.3236484388735823e+00 0.0000000000000000e+00  1.8509690941950201e+00 2.3242617080935375e+00 0.0000000000000000e+00  1.8506563275651429e+00 2.3248756655025193e+00 0.0000000000000000e+00  1.8504572630625007e+00 2.3253738197364688e+00 0.0000000000000000e+00  1.8501913517873945e+00 2.3259058426386026e+00 0.0000000000000000e+00  1.8500165705065297e+00 2.3263174911831372e+00 0.0000000000000000e+00  1.8497912956072176e+00 2.3267728043084679e+00 0.0000000000000000e+00  1.8496367550270179e+00 2.3271237871233472e+00 0.0000000000000000e+00  1.8494555878003951e+00 2.3275188128342683e+00 0.0000000000000000e+00  1.8493226116714194e+00 2.3277661706771493e+00 0.0000000000000000e+00  1.8491928293897673e+00 2.3280664333941421e+00 0.0000000000000000e+00  1.8490542196605868e+00 2.3283105735998895e+00 0.0000000000000000e+00  1.8489518474555584e+00 2.3285512523311271e+00 0.0000000000000000e+00  1.8488432950620775e+00 2.3287336008482900e+00 0.0000000000000000e+00  1.8487727875571456e+00 2.3289097485859758e+00 0.0000000000000000e+00  1.8486680258203225e+00 2.3290663274922578e+00 0.0000000000000000e+00  1.8485917189083469e+00 2.3292204103294063e+00 0.0000000000000000e+00  1.8485353961618176e+00 2.3292920791716307e+00 0.0000000000000000e+00  1.8484739220823152e+00 2.3294077636858379e+00 0.0000000000000000e+00  1.8483972382472862e+00 2.3295406825007952e+00 0.0000000000000000e+00  1.8483581022400308e+00 2.3296055595462546e+00 0.0000000000000000e+00  1.8483224192624008e+00 2.3296391990808414e+00 0.0000000000000000e+00  1.8482436145466299e+00 2.3297420361709529e+00 0.0000000000000000e+00  1.8482350646358765e+00 2.3297015370110348e+00 0.0000000000000000e+00  1.8481835909363999e+00 2.3297629640310347e+00 0.0000000000000000e+00  1.8481512620321212e+00 2.3297752388921951e+00 0.0000000000000000e+00  1.8481041305274444e+00 2.3298597360315236e+00 0.0000000000000000e+00  1.8481023892420840e+00 2.3298107812547864e+00 0.0000000000000000e+00  1.8480521447641665e+00 2.3298720727483055e+00 0.0000000000000000e+00  1.8480210761092244e+00 2.3298223601172912e+00 0.0000000000000000e+00  1.8480125241781642e+00 2.3297271887471966e+00 0.0000000000000000e+00  1.8479827178089705e+00 2.3296119340857113e+00 0.0000000000000000e+00  1.8479519488732108e+00 2.3295032522829269e+00 0.0000000000000000e+00  1.8479321689071480e+00 2.3293363320697664e+00 0.0000000000000000e+00  1.8479283003062585e+00 2.3291278952401169e+00 0.0000000000000000e+00  1.8478848693973926e+00 2.3289435161743177e+00 0.0000000000000000e+00  1.8478765769680650e+00 2.3286764175027410e+00 0.0000000000000000e+00  1.8478552260391694e+00 2.3283637525908745e+00 0.0000000000000000e+00  1.8478411912528621e+00 2.3280291936652544e+00 0.0000000000000000e+00  1.8478074872329531e+00 2.3277143817375179e+00 0.0000000000000000e+00  1.8478071472290432e+00 2.3273527511438235e+00 0.0000000000000000e+00  1.8477743631690524e+00 2.3270564080691876e+00 0.0000000000000000e+00  1.8477723053959767e+00 2.3267621571052235e+00 0.0000000000000000e+00  1.8477295914903791e+00 2.3265582492817725e+00 0.0000000000000000e+00  1.8477326214687779e+00 2.3263061120832531e+00 0.0000000000000000e+00  1.8477025633529576e+00 2.3261473009348621e+00 0.0000000000000000e+00  1.8476722851188272e+00 2.3260174036775538e+00 0.0000000000000000e+00  1.8476584900459345e+00 2.3258697578546239e+00 0.0000000000000000e+00  1.8476437593746617e+00 2.3257319735592850e+00 0.0000000000000000e+00  1.8475929491510525e+00 2.3257120474277913e+00 0.0000000000000000e+00  1.8475928619370861e+00 2.3255473240112776e+00 0.0000000000000000e+00  1.8475688881339478e+00 2.3254955131506851e+00 0.0000000000000000e+00  1.8475163389582174e+00 2.3254566277712332e+00 0.0000000000000000e+00  1.8475272655342583e+00 2.3253424694649496e+00 0.0000000000000000e+00  1.8474765743299966e+00 2.3252777649364900e+00 0.0000000000000000e+00  1.8474524811692921e+00 2.3252634665741621e+00 0.0000000000000000e+00  1.8474330139280890e+00 2.3251360727347712e+00 0.0000000000000000e+00  1.8473930145031110e+00 2.3250811821879562e+00 0.0000000000000000e+00  1.8473820397381724e+00 2.3251087781275923e+00 0.0000000000000000e+00  1.8472028728560628e+00 2.3246179609512150e+00 0.0000000000000000e+00  1.8472645639180576e+00 2.3248241127049543e+00 0.0000000000000000e+00  1.8466450971840345e+00 2.3233946750671670e+00 0.0000000000000000e+00  1.8462694836678897e+00 2.3227284361502654e+00 0.0000000000000000e+00  1.8444736094720167e+00 2.3188712617708469e+00 0.0000000000000000e+00  1.8387049008728051e+00 2.3052143262327411e+00 0.0000000000000000e+00  1.8269403673070408e+00 2.2790137921225146e+00 0.0000000000000000e+00  1.7840726605925195e+00 2.1838393112802823e+00 0.0000000000000000e+00  1.7213243823365048e+00 2.0288522345187090e+00 0.0000000000000000e+00  1.5329139624713062e+00 1.5456518811676321e+00 0.0000000000000000e+00  1.2195656605491099e+00 6.7795755047256856e-01 0.0000000000000000e+00  1.0470836642433654e+00 1.5117979295427719e-01 0.0000000000000000e+00  1.0068154659497062e+00 2.2273060692903114e-02 0.0000000000000000e+00  1.0008433139857125e+00 3.0190941904082932e-03 0.0000000000000000e+00  1.0001133991695583e+00 4.2265860025663982e-04 0.0000000000000000e+00  1.0000308023128379e+00 2.0486036878581684e-05 0.0000000000000000e+00  9.9998784715627287e-01 6.6172873463566398e-05 0.0000000000000000e+00  1.0000175327365661e+00 -5.1077492405498062e-05 0.0000000000000000e+00  9.9998125713890218e-01 6.0651622192795691e-05 0.0000000000000000e+00  1.0000232252282542e+00 -7.1151894797279156e-05 0.0000000000000000e+00  9.9997254402154667e-01 8.2860309272087232e-05 0.0000000000000000e+00  1.0000285930921067e+00 -8.5110524105927145e-05 0.0000000000000000e+00  9.9997271814594824e-01 8.0152896756804991e-05 0.0000000000000000e+00  1.0000233556877531e+00 -7.0104811340421136e-05 0.0000000000000000e+00  9.9997901705914594e-01 6.5539223233374396e-05 0.0000000000000000e+00  1.0000166264537533e+00 -5.9501108712322007e-05 0.0000000000000000e+00  9.9998556274088246e-01 5.7944784401787304e-05 0.0000000000000000e+00  1.0000064848646251e+00 -4.4041056578654326e-05 0.0000000000000000e+00  9.9999705841918307e-01 3.7118585854684080e-05 0.0000000000000000e+00  9.9999173005362174e-01 -1.6514305743283702e-05 0.0000000000000000e+00  1.0000089302478961e+00 1.6959108116771302e-05 0.0000000000000000e+00  9.9997821059286818e-01 2.5021633417598075e-06 0.0000000000000000e+00  1.0000181866010716e+00 7.6868856373191903e-06 0.0000000000000000e+00  9.9996477155843089e-01 1.7896439187573790e-05 0.0000000000000000e+00  1.0000268482963761e+00 -4.3690242913343895e-07 0.0000000000000000e+00  9.9995122762759781e-01 3.2589135355974288e-05 0.0000000000000000e+00  1.0000328327161185e+00 -1.7766304422889062e-06 0.0000000000000000e+00  9.9994007651294414e-01 3.8815402576937457e-05 0.0000000000000000e+00  1.0000354223601098e+00 5.1696684260057855e-06 0.0000000000000000e+00  9.9993077404219788e-01 3.9975395215857527e-05 0.0000000000000000e+00  1.0000360208654693e+00 1.5205658971901832e-05 0.0000000000000000e+00  9.9992372715003741e-01 3.5796806042930488e-05 0.0000000000000000e+00  1.0000338709490573e+00 2.9351515943449020e-05 0.0000000000000000e+00  9.9992099801007328e-01 2.4899551486939947e-05 0.0000000000000000e+00  1.0000290939761423e+00 4.1399795525948672e-05 0.0000000000000000e+00  9.9992182412067843e-01 0.0000000000000000e+00 0.0000000000000000e+00  2.9999990696200691e+00 0.0000000000000000e+00 1.8164824663361644e-05  2.9999907537898434e+00 -7.8579706062884108e-06 -9.5056454220106361e-06  2.9999970770155686e+00 -1.0207589972283286e-05 3.9387413391464090e-06  2.9999968039979734e+00 -1.1303421497630146e-05 -4.8782592014510078e-06  2.9999882622720380e+00 -8.5675412028900553e-06 5.0017363973333783e-06  2.9999928131268145e+00 -1.5706835305491522e-05 -4.1907255376288035e-06  2.9999934360932579e+00 -6.8297870509723689e-06 2.5874687863105154e-06  2.9999847214112498e+00 -1.0179578516049392e-05 -9.8940881924760819e-07  2.9999896818536067e+00 -1.1688991705516894e-05 -3.5029472618992166e-07  2.9999860481771043e+00 1.1871791314232476e-06 8.0371071873993606e-07  2.9999823682655382e+00 -4.1266568858878642e-06 -1.7532122287329017e-06  2.9999792932889124e+00 6.8895196874362904e-06 2.7089395900256675e-06  2.9999734460526710e+00 2.1757059835638430e-05 -4.5066438795297994e-06  2.9999632667643001e+00 3.7428125724193265e-05 5.5857231943015816e-06  2.9999463635013286e+00 6.3514189652211906e-05 -6.0902189098873412e-06  2.9999163133310267e+00 1.3154926405287327e-04 5.8861072107653755e-06  2.9998775334137435e+00 1.9161056417127682e-04 -5.7968226951088861e-06  2.9998010195820681e+00 3.3456947123110443e-04 6.7931941917762729e-06  2.9996897707443733e+00 5.3700708332024235e-04 -7.4891962087982778e-06  2.9995289768522380e+00 8.3449382415839144e-04 8.4006454673009232e-06  2.9992686532243935e+00 1.2925251675508021e-03 -6.9987971656777166e-06  2.9988968702933225e+00 1.9819724141072787e-03 6.6627136141548878e-06  2.9983751515607300e+00 2.9198236298867844e-03 -5.2192558296917455e-06  2.9976122663019384e+00 4.2988266764486796e-03 6.8365023498859580e-06  2.9965728641832001e+00 6.1831903613908668e-03 -6.4244243309481312e-06  2.9951762457590845e+00 8.7186106179854075e-03 7.2568638871441014e-06  2.9932920413555513e+00 1.2113647606237643e-02 -4.9550091640400602e-06  2.9908524379935901e+00 1.6545287866601588e-02 4.1938999886745459e-06  2.9877491249084138e+00 2.2163619590139145e-02 -3.4167537840912167e-06  2.9838283196667454e+00 2.9261425839659953e-02 3.8289743774214402e-06  2.9790232450049219e+00 3.7980404922778932e-02 -4.8697024382887610e-06  2.9732265801220481e+00 4.8502365266377821e-02 3.1081390241869936e-06  2.9663197399069294e+00 6.1037028484941684e-02 -2.9133096157551620e-06  2.9582654480176043e+00 7.5693101901546017e-02 -4.6188253720844898e-07  2.9490165091008955e+00 9.2534906548437962e-02 -8.1695234412157294e-07  2.9385092695364770e+00 1.1169110581161154e-01 -1.1091498751630054e-06  2.9267785453656767e+00 1.3313376412708475e-01 -2.8419496539636607e-07  2.9138292342130954e+00 1.5683932815812632e-01 -2.9931932457271477e-06  2.8996765763841643e+00 1.8280729428605957e-01 4.2116168907771584e-06  2.8843919486587972e+00 2.1092599930264166e-01 -7.5828078238649051e-06  2.8680375964511198e+00 2.4109534725656181e-01 8.3667776533692143e-06  2.8506578579087578e+00 2.7323414801662504e-01 -9.8857136439298335e-06  2.8323560363513054e+00 3.0720582674159763e-01 1.1265463365379034e-05  2.8132008016825605e+00 3.4285536329559230e-01 -1.3817433012094935e-05  2.7932592244027319e+00 3.8011285242116810e-01 1.6711660478974199e-05  2.7726234861381078e+00 4.1879137406634659e-01 -1.8657913441578176e-05  2.7513668037330876e+00 4.5880539637258905e-01 1.9791664117787890e-05  2.7295455484969766e+00 5.0001021600077200e-01 -1.9879387773282154e-05  2.7072442351331967e+00 5.4232898164499466e-01 2.0217425992641932e-05  2.6845187644372426e+00 5.8559823051522408e-01 -2.0502800141009623e-05  2.6614197351344790e+00 6.2979279650556674e-01 2.0325553094373449e-05  2.6380114407510287e+00 6.7475052183439066e-01 -1.9364695447317338e-05  2.6143405561830879e+00 7.2044818270419064e-01 1.6943070155288368e-05  2.5904417156395532e+00 7.6675436700724575e-01 -1.4882447687706048e-05  2.5663710864116789e+00 8.1365292031184122e-01 1.2030161961916936e-05  2.5421568367157019e+00 8.6102377316916978e-01 -1.0714597580455537e-05  2.5178316075790517e+00 9.0885419509273213e-01 7.6987703623325610e-06  2.4934328864385491e+00 9.5705388335713226e-01 -5.9193874409822988e-06  2.4689886888450694e+00 1.0055993998111272e+00 1.7673650448255537e-06  2.4445138605215111e+00 1.0544163787519369e+00 1.9357889996241995e-07  2.4200510622498990e+00 1.1034849445537476e+00 -3.8370151516440325e-06  2.3956073291254869e+00 1.1527578414477138e+00 5.0699040530614537e-06  2.3712079973836326e+00 1.2021707830010939e+00 -8.9289469733945973e-06  2.3468750423474396e+00 1.2517370088865316e+00 1.1743443729893079e-05  2.3226281987239927e+00 1.3013716455123658e+00 -1.6290849501762762e-05  2.2984715567332370e+00 1.3510665308786445e+00 1.7310606514649751e-05  2.2744456088115577e+00 1.4007687425393145e+00 -1.6664719796529521e-05  2.2505465041896922e+00 1.4504930126005728e+00 1.3229139597605024e-05  2.2267996049197878e+00 1.5000983280635412e+00 -1.0614898640416263e-05  2.2032269636453283e+00 1.5496690271417617e+00 8.3593319531964701e-06  2.1798423028050817e+00 1.5990914788516579e+00 -6.4708931613626955e-06  2.1566608441531940e+00 1.6483149128861467e+00 6.8209235205224889e-06  2.1337216247687016e+00 1.6973186071471738e+00 -8.7040443831352218e-06  2.1110337142346647e+00 1.7460568480541543e+00 1.1779141843748051e-05  2.0886331424160431e+00 1.7943899582035199e+00 -9.0642502990192039e-06  2.0665626886785926e+00 1.8423128751228921e+00 5.7722729014680539e-06  2.0448567091847534e+00 1.8896714861297508e+00 -2.7209063936398977e-06  2.0235691731567855e+00 1.9363574284562282e+00 5.0883202278372081e-06  2.0027823701083300e+00 1.9822135563330723e+00 -3.0018566461068482e-06  1.9825675483714653e+00 2.0270107960927808e+00 1.3467338080279618e-06  1.9630475290225331e+00 2.0704746404653571e+00 -2.3308740413056196e-07  1.9443820423309102e+00 2.1122777664667023e+00 -2.8016233277946754e-07  1.9267506773304335e+