<?xml version="1.0"?>
<VTKFile type="UnstructuredGrid"  version="0.1"  >
<UnstructuredGrid>
<Piece  NumberOfPoints="8241" NumberOfCells="16000">
<Points>
<DataArray  type="Float64"  NumberOfComponents="3"  format="ascii">-5 -1 0  -4.95 -1 0  -4.9 -1 0  -4.85 -1 0  -4.8 -1 0  -4.75 -1 0  -4.7 -1 0  -4.65 -1 0  -4.6 -1 0  -4.55 -1 0  -4.5 -1 0  -4.45 -1 0  -4.4 -1 0  -4.35 -1 0  -4.3 -1 0  -4.25 -1 0  -4.2 -1 0  -4.15 -1 0  -4.1 -1 0  -4.05 -1 0  -4 -1 0  -3.95 -1 0  -3.9 -1 0  -3.85 -1 0  -3.8 -1 0  -3.75 -1 0  -3.7 -1 0  -3.65 -1 0  -3.6 -1 0  -3.55 -1 0  -3.5 -1 0  -3.45 -1 0  -3.4 -1 0  -3.35 -1 0  -3.3 -1 0  -3.25 -1 0  -3.2 -1 0  -3.15 -1 0  -3.1 -1 0  -3.05 -1 0  -3 -1 0  -2.95 -1 0  -2.9 -1 0  -2.85 -1 0  -2.8 -1 0  -2.75 -1 0  -2.7 -1 0  -2.65 -1 0  -2.6 -1 0  -2.55 -1 0  -2.5 -1 0  -2.45 -1 0  -2.4 -1 0  -2.35 -1 0  -2.3 -1 0  -2.25 -1 0  -2.2 -1 0  -2.15 -1 0  -2.1 -1 0  -2.05 -1 0  -2 -1 0  -1.95 -1 0  -1.9 -1 0  -1.85 -1 0  -1.8 -1 0  -1.75 -1 0  -1.7 -1 0  -1.65 -1 0  -1.6 -1 0  -1.55 -1 0  -1.5 -1 0  -1.45 -1 0  -1.4 -1 0  -1.35 -1 0  -1.3 -1 0  -1.25 -1 0  -1.2 -1 0  -1.15 -1 0  -1.1 -1 0  -1.05 -1 0  -1 -1 0  -0.9500000000000002 -1 0  -0.9000000000000004 -1 0  -0.8499999999999996 -1 0  -0.7999999999999998 -1 0  -0.75 -1 0  -0.7000000000000002 -1 0  -0.6500000000000004 -1 0  -0.5999999999999996 -1 0  -0.5499999999999998 -1 0  -0.5 -1 0  -0.4500000000000002 -1 0  -0.4000000000000004 -1 0  -0.3499999999999996 -1 0  -0.2999999999999998 -1 0  -0.25 -1 0  -0.2000000000000002 -1 0  -0.1500000000000004 -1 0  -0.09999999999999964 -1 0  -0.04999999999999982 -1 0  0 -1 0  0.04999999999999982 -1 0  0.09999999999999964 -1 0  0.1500000000000004 -1 0  0.2000000000000002 -1 0  0.25 -1 0  0.2999999999999998 -1 0  0.3499999999999996 -1 0  0.4000000000000004 -1 0  0.4500000000000002 -1 0  0.5 -1 0  0.5499999999999998 -1 0  0.5999999999999996 -1 0  0.6500000000000004 -1 0  0.7000000000000002 -1 0  0.75 -1 0  0.7999999999999998 -1 0  0.8499999999999996 -1 0  0.9000000000000004 -1 0  0.9500000000000002 -1 0  1 -1 0  1.05 -1 0  1.1 -1 0  1.15 -1 0  1.2 -1 0  1.25 -1 0  1.3 -1 0  1.35 -1 0  1.4 -1 0  1.45 -1 0  1.5 -1 0  1.55 -1 0  1.6 -1 0  1.65 -1 0  1.7 -1 0  1.75 -1 0  1.8 -1 0  1.85 -1 0  1.9 -1 0  1.95 -1 0  2 -1 0  2.05 -1 0  2.1 -1 0  2.15 -1 0  2.2 -1 0  2.25 -1 0  2.3 -1 0  2.35 -1 0  2.4 -1 0  2.45 -1 0  2.5 -1 0  2.55 -1 0  2.6 -1 0  2.65 -1 0  2.7 -1 0  2.75 -1 0  2.8 -1 0  2.85 -1 0  2.9 -1 0  2.95 -1 0  3 -1 0  3.050000000000001 -1 0  3.1 -1 0  3.15 -1 0  3.199999999999999 -1 0  3.25 -1 0  3.300000000000001 -1 0  3.35 -1 0  3.4 -1 0  3.449999999999999 -1 0  3.5 -1 0  3.550000000000001 -1 0  3.6 -1 0  3.65 -1 0  3.699999999999999 -1 0  3.75 -1 0  3.800000000000001 -1 0  3.85 -1 0  3.9 -1 0  3.949999999999999 -1 0  4 -1 0  4.050000000000001 -1 0  4.1 -1 0  4.15 -1 0  4.199999999999999 -1 0  4.25 -1 0  4.300000000000001 -1 0  4.35 -1 0  4.4 -1 0  4.449999999999999 -1 0  4.5 -1 0  4.550000000000001 -1 0  4.6 -1 0  4.65 -1 0  4.699999999999999 -1 0  4.75 -1 0  4.800000000000001 -1 0  4.85 -1 0  4.9 -1 0  4.949999999999999 -1 0  5 -1 0  -5 -0.95 0  -4.95 -0.95 0  -4.9 -0.95 0  -4.85 -0.95 0  -4.8 -0.95 0  -4.75 -0.95 0  -4.7 -0.95 0  -4.65 -0.95 0  -4.6 -0.95 0  -4.55 -0.95 0  -4.5 -0.95 0  -4.45 -0.95 0  -4.4 -0.95 0  -4.35 -0.95 0  -4.3 -0.95 0  -4.25 -0.95 0  -4.2 -0.95 0  -4.15 -0.95 0  -4.1 -0.95 0  -4.05 -0.95 0  -4 -0.95 0  -3.95 -0.95 0  -3.9 -0.95 0  -3.85 -0.95 0  -3.8 -0.95 0  -3.75 -0.95 0  -3.7 -0.95 0  -3.65 -0.95 0  -3.6 -0.95 0  -3.55 -0.95 0  -3.5 -0.95 0  -3.45 -0.95 0  -3.4 -0.95 0  -3.35 -0.95 0  -3.3 -0.95 0  -3.25 -0.95 0  -3.2 -0.95 0  -3.15 -0.95 0  -3.1 -0.95 0  -3.05 -0.95 0  -3 -0.95 0  -2.95 -0.95 0  -2.9 -0.95 0  -2.85 -0.95 0  -2.8 -0.95 0  -2.75 -0.95 0  -2.7 -0.95 0  -2.65 -0.95 0  -2.6 -0.95 0  -2.55 -0.95 0  -2.5 -0.95 0  -2.45 -0.95 0  -2.4 -0.95 0  -2.35 -0.95 0  -2.3 -0.95 0  -2.25 -0.95 0  -2.2 -0.95 0  -2.15 -0.95 0  -2.1 -0.95 0  -2.05 -0.95 0  -2 -0.95 0  -1.95 -0.95 0  -1.9 -0.95 0  -1.85 -0.95 0  -1.8 -0.95 0  -1.75 -0.95 0  -1.7 -0.95 0  -1.65 -0.95 0  -1.6 -0.95 0  -1.55 -0.95 0  -1.5 -0.95 0  -1.45 -0.95 0  -1.4 -0.95 0  -1.35 -0.95 0  -1.3 -0.95 0  -1.25 -0.95 0  -1.2 -0.95 0  -1.15 -0.95 0  -1.1 -0.95 0  -1.05 -0.95 0  -1 -0.95 0  -0.9500000000000002 -0.95 0  -0.9000000000000004 -0.95 0  -0.8499999999999996 -0.95 0  -0.7999999999999998 -0.95 0  -0.75 -0.95 0  -0.7000000000000002 -0.95 0  -0.6500000000000004 -0.95 0  -0.5999999999999996 -0.95 0  -0.5499999999999998 -0.95 0  -0.5 -0.95 0  -0.4500000000000002 -0.95 0  -0.4000000000000004 -0.95 0  -0.3499999999999996 -0.95 0  -0.2999999999999998 -0.95 0  -0.25 -0.95 0  -0.2000000000000002 -0.95 0  -0.1500000000000004 -0.95 0  -0.09999999999999964 -0.95 0  -0.04999999999999982 -0.95 0  0 -0.95 0  0.04999999999999982 -0.95 0  0.09999999999999964 -0.95 0  0.1500000000000004 -0.95 0  0.2000000000000002 -0.95 0  0.25 -0.95 0  0.2999999999999998 -0.95 0  0.3499999999999996 -0.95 0  0.4000000000000004 -0.95 0  0.4500000000000002 -0.95 0  0.5 -0.95 0  0.5499999999999998 -0.95 0  0.5999999999999996 -0.95 0  0.6500000000000004 -0.95 0  0.7000000000000002 -0.95 0  0.75 -0.95 0  0.7999999999999998 -0.95 0  0.8499999999999996 -0.95 0  0.9000000000000004 -0.95 0  0.9500000000000002 -0.95 0  1 -0.95 0  1.05 -0.95 0  1.1 -0.95 0  1.15 -0.95 0  1.2 -0.95 0  1.25 -0.95 0  1.3 -0.95 0  1.35 -0.95 0  1.4 -0.95 0  1.45 -0.95 0  1.5 -0.95 0  1.55 -0.95 0  1.6 -0.95 0  1.65 -0.95 0  1.7 -0.95 0  1.75 -0.95 0  1.8 -0.95 0  1.85 -0.95 0  1.9 -0.95 0  1.95 -0.95 0  2 -0.95 0  2.05 -0.95 0  2.1 -0.95 0  2.15 -0.95 0  2.2 -0.95 0  2.25 -0.95 0  2.3 -0.95 0  2.35 -0.95 0  2.4 -0.95 0  2.45 -0.95 0  2.5 -0.95 0  2.55 -0.95 0  2.6 -0.95 0  2.65 -0.95 0  2.7 -0.95 0  2.75 -0.95 0  2.8 -0.95 0  2.85 -0.95 0  2.9 -0.95 0  2.95 -0.95 0  3 -0.95 0  3.050000000000001 -0.95 0  3.1 -0.95 0  3.15 -0.95 0  3.199999999999999 -0.95 0  3.25 -0.95 0  3.300000000000001 -0.95 0  3.35 -0.95 0  3.4 -0.95 0  3.449999999999999 -0.95 0  3.5 -0.95 0  3.550000000000001 -0.95 0  3.6 -0.95 0  3.65 -0.95 0  3.699999999999999 -0.95 0  3.75 -0.95 0  3.800000000000001 -0.95 0  3.85 -0.95 0  3.9 -0.95 0  3.949999999999999 -0.95 0  4 -0.95 0  4.050000000000001 -0.95 0  4.1 -0.95 0  4.15 -0.95 0  4.199999999999999 -0.95 0  4.25 -0.95 0  4.300000000000001 -0.95 0  4.35 -0.95 0  4.4 -0.95 0  4.449999999999999 -0.95 0  4.5 -0.95 0  4.550000000000001 -0.95 0  4.6 -0.95 0  4.65 -0.95 0  4.699999999999999 -0.95 0  4.75 -0.95 0  4.800000000000001 -0.95 0  4.85 -0.95 0  4.9 -0.95 0  4.949999999999999 -0.95 0  5 -0.95 0  -5 -0.9 0  -4.95 -0.9 0  -4.9 -0.9 0  -4.85 -0.9 0  -4.8 -0.9 0  -4.75 -0.9 0  -4.7 -0.9 0  -4.65 -0.9 0  -4.6 -0.9 0  -4.55 -0.9 0  -4.5 -0.9 0  -4.45 -0.9 0  -4.4 -0.9 0  -4.35 -0.9 0  -4.3 -0.9 0  -4.25 -0.9 0  -4.2 -0.9 0  -4.15 -0.9 0  -4.1 -0.9 0  -4.05 -0.9 0  -4 -0.9 0  -3.95 -0.9 0  -3.9 -0.9 0  -3.85 -0.9 0  -3.8 -0.9 0  -3.75 -0.9 0  -3.7 -0.9 0  -3.65 -0.9 0  -3.6 -0.9 0  -3.55 -0.9 0  -3.5 -0.9 0  -3.45 -0.9 0  -3.4 -0.9 0  -3.35 -0.9 0  -3.3 -0.9 0  -3.25 -0.9 0  -3.2 -0.9 0  -3.15 -0.9 0  -3.1 -0.9 0  -3.05 -0.9 0  -3 -0.9 0  -2.95 -0.9 0  -2.9 -0.9 0  -2.85 -0.9 0  -2.8 -0.9 0  -2.75 -0.9 0  -2.7 -0.9 0  -2.65 -0.9 0  -2.6 -0.9 0  -2.55 -0.9 0  -2.5 -0.9 0  -2.45 -0.9 0  -2.4 -0.9 0  -2.35 -0.9 0  -2.3 -0.9 0  -2.25 -0.9 0  -2.2 -0.9 0  -2.15 -0.9 0  -2.1 -0.9 0  -2.05 -0.9 0  -2 -0.9 0  -1.95 -0.9 0  -1.9 -0.9 0  -1.85 -0.9 0  -1.8 -0.9 0  -1.75 -0.9 0  -1.7 -0.9 0  -1.65 -0.9 0  -1.6 -0.9 0  -1.55 -0.9 0  -1.5 -0.9 0  -1.45 -0.9 0  -1.4 -0.9 0  -1.35 -0.9 0  -1.3 -0.9 0  -1.25 -0.9 0  -1.2 -0.9 0  -1.15 -0.9 0  -1.1 -0.9 0  -1.05 -0.9 0  -1 -0.9 0  -0.9500000000000002 -0.9 0  -0.9000000000000004 -0.9 0  -0.8499999999999996 -0.9 0  -0.7999999999999998 -0.9 0  -0.75 -0.9 0  -0.7000000000000002 -0.9 0  -0.6500000000000004 -0.9 0  -0.5999999999999996 -0.9 0  -0.5499999999999998 -0.9 0  -0.5 -0.9 0  -0.4500000000000002 -0.9 0  -0.4000000000000004 -0.9 0  -0.3499999999999996 -0.9 0  -0.2999999999999998 -0.9 0  -0.25 -0.9 0  -0.2000000000000002 -0.9 0  -0.1500000000000004 -0.9 0  -0.09999999999999964 -0.9 0  -0.04999999999999982 -0.9 0  0 -0.9 0  0.04999999999999982 -0.9 0  0.09999999999999964 -0.9 0  0.1500000000000004 -0.9 0  0.2000000000000002 -0.9 0  0.25 -0.9 0  0.2999999999999998 -0.9 0  0.3499999999999996 -0.9 0  0.4000000000000004 -0.9 0  0.4500000000000002 -0.9 0  0.5 -0.9 0  0.5499999999999998 -0.9 0  0.5999999999999996 -0.9 0  0.6500000000000004 -0.9 0  0.7000000000000002 -0.9 0  0.75 -0.9 0  0.7999999999999998 -0.9 0  0.8499999999999996 -0.9 0  0.9000000000000004 -0.9 0  0.9500000000000002 -0.9 0  1 -0.9 0  1.05 -0.9 0  1.1 -0.9 0  1.15 -0.9 0  1.2 -0.9 0  1.25 -0.9 0  1.3 -0.9 0  1.35 -0.9 0  1.4 -0.9 0  1.45 -0.9 0  1.5 -0.9 0  1.55 -0.9 0  1.6 -0.9 0  1.65 -0.9 0  1.7 -0.9 0  1.75 -0.9 0  1.8 -0.9 0  1.85 -0.9 0  1.9 -0.9 0  1.95 -0.9 0  2 -0.9 0  2.05 -0.9 0  2.1 -0.9 0  2.15 -0.9 0  2.2 -0.9 0  2.25 -0.9 0  2.3 -0.9 0  2.35 -0.9 0  2.4 -0.9 0  2.45 -0.9 0  2.5 -0.9 0  2.55 -0.9 0  2.6 -0.9 0  2.65 -0.9 0  2.7 -0.9 0  2.75 -0.9 0  2.8 -0.9 0  2.85 -0.9 0  2.9 -0.9 0  2.95 -0.9 0  3 -0.9 0  3.050000000000001 -0.9 0  3.1 -0.9 0  3.15 -0.9 0  3.199999999999999 -0.9 0  3.25 -0.9 0  3.300000000000001 -0.9 0  3.35 -0.9 0  3.4 -0.9 0  3.449999999999999 -0.9 0  3.5 -0.9 0  3.550000000000001 -0.9 0  3.6 -0.9 0  3.65 -0.9 0  3.699999999999999 -0.9 0  3.75 -0.9 0  3.800000000000001 -0.9 0  3.85 -0.9 0  3.9 -0.9 0  3.949999999999999 -0.9 0  4 -0.9 0  4.050000000000001 -0.9 0  4.1 -0.9 0  4.15 -0.9 0  4.199999999999999 -0.9 0  4.25 -0.9 0  4.300000000000001 -0.9 0  4.35 -0.9 0  4.4 -0.9 0  4.449999999999999 -0.9 0  4.5 -0.9 0  4.550000000000001 -0.9 0  4.6 -0.9 0  4.65 -0.9 0  4.699999999999999 -0.9 0  4.75 -0.9 0  4.800000000000001 -0.9 0  4.85 -0.9 0  4.9 -0.9 0  4.949999999999999 -0.9 0  5 -0.9 0  -5 -0.85 0  -4.95 -0.85 0  -4.9 -0.85 0  -4.85 -0.85 0  -4.8 -0.85 0  -4.75 -0.85 0  -4.7 -0.85 0  -4.65 -0.85 0  -4.6 -0.85 0  -4.55 -0.85 0  -4.5 -0.85 0  -
[...]
<PointData  Vectors="f_15"> 
<DataArray  type="Float64"  Name="f_15"  NumberOfComponents="3" format="ascii">8.6339714655284947e+00 0.0000000000000000e+00 0.0000000000000000e+00  8.6325008886531851e+00 8.3067108967795983e-02 0.0000000000000000e+00  8.6303094372546489e+00 1.6473033735796233e-01 0.0000000000000000e+00  8.6247432122651855e+00 2.4742282460890977e-01 0.0000000000000000e+00  8.6187155771851618e+00 3.2827573627958762e-01 0.0000000000000000e+00  8.6094846200927098e+00 4.1057606029555799e-01 0.0000000000000000e+00  8.5994031107504085e+00 4.9060960352532895e-01 0.0000000000000000e+00  8.5863972822577548e+00 5.7204245947958832e-01 0.0000000000000000e+00  8.5725900949493425e+00 6.5117167872512671e-01 0.0000000000000000e+00  8.5556278728042674e+00 7.3128729905053158e-01 0.0000000000000000e+00  8.5380797293137753e+00 8.0941724725910658e-01 0.0000000000000000e+00  8.5174353540469205e+00 8.8788936389131323e-01 0.0000000000000000e+00  8.4960468009743924e+00 9.6480133946015123e-01 0.0000000000000000e+00  8.4717158661170942e+00 1.0413843735948742e+00 0.0000000000000000e+00  8.4468482705809187e+00 1.1171896812160238e+00 0.0000000000000000e+00  8.4186917141993689e+00 1.1911615460288474e+00 0.0000000000000000e+00  8.3905118709823032e+00 1.2664344210938163e+00 0.0000000000000000e+00  8.3588437281485284e+00 1.3372421844108695e+00 0.0000000000000000e+00  8.3273349465887883e+00 1.4119862234316545e+00 0.0000000000000000e+00  8.2923598614683502e+00 1.4797710789333733e+00 0.0000000000000000e+00  8.2579256991731711e+00 1.5541139850770442e+00 0.0000000000000000e+00  8.2196395615303768e+00 1.6180089714949859e+00 0.0000000000000000e+00  8.1826190898202249e+00 1.6937410269041835e+00 0.0000000000000000e+00  8.1414248402066995e+00 1.7519304031357574e+00 0.0000000000000000e+00  8.1018811241472974e+00 1.8300840882662863e+00 0.0000000000000000e+00  8.0582129763979395e+00 1.8840999474052778e+00 0.0000000000000000e+00  8.0164896908620733e+00 1.9603882616278403e+00 0.0000000000000000e+00  7.9705784699508282e+00 2.0174092931567018e+00 0.0000000000000000e+00  7.9269815160723276e+00 2.0847643368285622e+00 0.0000000000000000e+00  7.8793278108871796e+00 2.1487554423224955e+00 0.0000000000000000e+00  7.8339837579770863e+00 2.2106064060262454e+00 0.0000000000000000e+00  7.7849249836587600e+00 2.2711113726873835e+00 0.0000000000000000e+00  7.7383740741029863e+00 2.3413241239173352e+00 0.0000000000000000e+00  7.6878711102229182e+00 2.3901624949103830e+00 0.0000000000000000e+00  7.6406038586731988e+00 2.4648930745221782e+00 0.0000000000000000e+00  7.5889889505260788e+00 2.5189869586497577e+00 0.0000000000000000e+00  7.5410291332317128e+00 2.5777173777999889e+00 0.0000000000000000e+00  7.4886818374364648e+00 2.6490994899916704e+00 0.0000000000000000e+00  7.4403723759696527e+00 2.6966460279968176e+00 0.0000000000000000e+00  7.3872016807345586e+00 2.7681176942467691e+00 0.0000000000000000e+00  7.3389099241336417e+00 2.8220194771556204e+00 0.0000000000000000e+00  7.2853186054655952e+00 2.8872700515118055e+00 0.0000000000000000e+00  7.2365476059819720e+00 2.9426141198553362e+00 0.0000000000000000e+00  7.1833804411813400e+00 3.0093428339180655e+00 0.0000000000000000e+00  7.1339207096042418e+00 3.0643357019708177e+00 0.0000000000000000e+00  7.0810739954004651e+00 3.1289078320355230e+00 0.0000000000000000e+00  7.0315557034786362e+00 3.1866882027284675e+00 0.0000000000000000e+00  6.9786797452087672e+00 3.2503830489598240e+00 0.0000000000000000e+00  6.9292625827257712e+00 3.3079350198261279e+00 0.0000000000000000e+00  6.8766771281395274e+00 3.3717201612421608e+00 0.0000000000000000e+00  6.8269967979566610e+00 3.4304370534469126e+00 0.0000000000000000e+00  6.7751795852660726e+00 3.4931065830128882e+00 0.0000000000000000e+00  6.7250226334205179e+00 3.5530523394038256e+00 0.0000000000000000e+00  6.6739617092072843e+00 3.6150643354995116e+00 0.0000000000000000e+00  6.6237127711106041e+00 3.6755435595254431e+00 0.0000000000000000e+00  6.5730463188321036e+00 3.7379868916708392e+00 0.0000000000000000e+00  6.5228531544930677e+00 3.7984685522077841e+00 0.0000000000000000e+00  6.4728323296756392e+00 3.8604644230911034e+00 0.0000000000000000e+00  6.4223911722342537e+00 3.9222072276809112e+00 0.0000000000000000e+00  6.3731201991464514e+00 3.9836777502148033e+00 0.0000000000000000e+00  6.3226740111336452e+00 4.0457899249160763e+00 0.0000000000000000e+00  6.2738988247110532e+00 4.1072126906316528e+00 0.0000000000000000e+00  6.2234479398725355e+00 4.1700041847394713e+00 0.0000000000000000e+00  6.1754194486186229e+00 4.2308218812696508e+00 0.0000000000000000e+00  6.1249324951396895e+00 4.2944868634368474e+00 0.0000000000000000e+00  6.0772098774897074e+00 4.3551810826376096e+00 0.0000000000000000e+00  6.0273054965224446e+00 4.4187072378272623e+00 0.0000000000000000e+00  5.9797939610386974e+00 4.4796808025667705e+00 0.0000000000000000e+00  5.9298486311225593e+00 4.5440150875029595e+00 0.0000000000000000e+00  5.8832627395021184e+00 4.6038517241687043e+00 0.0000000000000000e+00  5.8333987374991949e+00 4.6690490630447599e+00 0.0000000000000000e+00  5.7866626017619680e+00 4.7294765077067860e+00 0.0000000000000000e+00  5.7380029056692257e+00 4.7934739648276361e+00 0.0000000000000000e+00  5.6910366074510135e+00 4.8548481608072294e+00 0.0000000000000000e+00  5.6425964605071970e+00 4.9192435364251317e+00 0.0000000000000000e+00  5.5963913490648443e+00 4.9798055736564573e+00 0.0000000000000000e+00  5.5482854293405479e+00 5.0445413687675060e+00 0.0000000000000000e+00  5.5017058306939646e+00 5.1059199225984067e+00 0.0000000000000000e+00  5.4550315519015449e+00 5.1693966333809218e+00 0.0000000000000000e+00  5.4080161779059281e+00 5.2319571169065924e+00 0.0000000000000000e+00  5.3619190898382758e+00 5.2948734257636785e+00 0.0000000000000000e+00  5.3152898618431070e+00 5.3577007344326955e+00 0.0000000000000000e+00  5.2696626428818654e+00 5.4205607011157095e+00 0.0000000000000000e+00  5.2229665092227808e+00 5.4837613172740634e+00 0.0000000000000000e+00  5.1781620814831522e+00 5.5460607026141124e+00 0.0000000000000000e+00  5.1316118162708886e+00 5.6100217731994038e+00 0.0000000000000000e+00  5.0870805414684952e+00 5.6719102804529058e+00 0.0000000000000000e+00  5.0413299009921007e+00 5.7355581353626270e+00 0.0000000000000000e+00  4.9966441021642849e+00 5.7981895479877217e+00 0.0000000000000000e+00  4.9518988654749245e+00 5.8611427086993215e+00 0.0000000000000000e+00  4.9066937884483828e+00 5.9246163175500204e+00 0.0000000000000000e+00  4.8631186270618034e+00 5.9868832208499327e+00 0.0000000000000000e+00  4.8174548398826698e+00 6.0514034418968796e+00 0.0000000000000000e+00  4.7760772846068198e+00 6.1112469436947885e+00 0.0000000000000000e+00  4.7277912517964742e+00 6.1794454671527106e+00 0.0000000000000000e+00  4.6902850189998917e+00 6.2353705567224580e+00 0.0000000000000000e+00  4.6377674445609127e+00 6.3096097807987528e+00 0.0000000000000000e+00  4.6032430370053969e+00 6.3613515347233323e+00 0.0000000000000000e+00  4.5553569406324623e+00 6.4302895688287993e+00 0.0000000000000000e+00  4.5165932173779186e+00 6.4887815067297643e+00 0.0000000000000000e+00  4.4701078154364833e+00 6.5555991333866457e+00 0.0000000000000000e+00  4.4362458912536429e+00 6.6076691250968462e+00 0.0000000000000000e+00  4.3819655113114981e+00 6.6868381151386274e+00 0.0000000000000000e+00  4.3472910665075002e+00 6.7402626235698131e+00 0.0000000000000000e+00  4.3003904219090501e+00 6.8092258276586870e+00 0.0000000000000000e+00  4.2631733229981368e+00 6.8678284296563223e+00 0.0000000000000000e+00  4.2166975635698423e+00 6.9358044660723897e+00 0.0000000000000000e+00  4.1795228603409234e+00 6.9944236095839232e+00 0.0000000000000000e+00  4.1375120238675827e+00 7.0578882113604484e+00 0.0000000000000000e+00  4.1016369211050572e+00 7.1149352229223108e+00 0.0000000000000000e+00  4.0596318945422345e+00 7.1776790845608742e+00 0.0000000000000000e+00  4.0218313057780586e+00 7.2389805009718238e+00 0.0000000000000000e+00  3.9803211765736504e+00 7.3018246019584154e+00 0.0000000000000000e+00  3.9441709287340236e+00 7.3593768842682632e+00 0.0000000000000000e+00  3.9063039545557716e+00 7.4191813844637196e+00 0.0000000000000000e+00  3.8754612362168244e+00 7.4701044194164226e+00 0.0000000000000000e+00  3.8393686066380446e+00 7.5244448192921807e+00 0.0000000000000000e+00  3.7999867965524401e+00 7.5885196753624378e+00 0.0000000000000000e+00  3.8080839317576665e+00 7.5760686315956534e+00 0.0000000000000000e+00  3.8672412932795357e+00 7.4816104186041974e+00 0.0000000000000000e+00  3.9132689271339638e+00 7.4079311393724208e+00 0.0000000000000000e+00  3.9310269903579980e+00 7.3794586943455700e+00 0.0000000000000000e+00  3.9384566604875078e+00 7.3677544710690093e+00 0.0000000000000000e+00  3.9424335941486173e+00 7.3609939608880346e+00 0.0000000000000000e+00  3.9460404396927444e+00 7.3558725441435548e+00 0.0000000000000000e+00  3.9475276040253617e+00 7.3525251520289876e+00 0.0000000000000000e+00  3.9498819428015941e+00 7.3499298759746408e+00 0.0000000000000000e+00  3.9515191405464352e+00 7.3459633922042995e+00 0.0000000000000000e+00  3.9543662793542134e+00 7.3438503481648754e+00 0.0000000000000000e+00  3.9554255113963412e+00 7.3395418497517593e+00 0.0000000000000000e+00  3.9570697518614493e+00 7.3407250456610544e+00 0.0000000000000000e+00  3.9565695806170620e+00 7.3362095143320412e+00 0.0000000000000000e+00  3.9579560011574793e+00 7.3406076089407613e+00 0.0000000000000000e+00  3.9569785373473105e+00 7.3330731968055662e+00 0.0000000000000000e+00  3.9592393664194239e+00 7.3411910550426942e+00 0.0000000000000000e+00  3.9573295418942935e+00 7.3289121646427882e+00 0.0000000000000000e+00  3.9606605891439925e+00 7.3431391387154692e+00 0.0000000000000000e+00  3.9570028672232023e+00 7.3242285975345185e+00 0.0000000000000000e+00  3.9620785889238643e+00 7.3465056763743544e+00 0.0000000000000000e+00  3.9561805798744536e+00 7.3188433348409552e+00 0.0000000000000000e+00  3.9638555660372110e+00 7.3508889871351650e+00 0.0000000000000000e+00  3.9547958592772998e+00 7.3127322512732729e+00 0.0000000000000000e+00  3.9660661928864145e+00 7.3560502365925826e+00 0.0000000000000000e+00  3.9528191716220711e+00 7.3066573523328069e+00 0.0000000000000000e+00  3.9684401507627824e+00 7.3608732229009783e+00 0.0000000000000000e+00  3.9506345352926684e+00 7.3016881688680533e+00 0.0000000000000000e+00  3.9708550223429770e+00 7.3645700595273507e+00 0.0000000000000000e+00  3.9482710073467522e+00 7.2978924975873660e+00 0.0000000000000000e+00  3.9733271499292706e+00 7.3671048637085992e+00 0.0000000000000000e+00  3.9461437291097927e+00 7.2959973737801276e+00 0.0000000000000000e+00  3.9748146330395837e+00 7.3667420405747732e+00 0.0000000000000000e+00  3.9455969488880061e+00 7.2979890262283291e+00 0.0000000000000000e+00  3.9744186602896971e+00 7.3626717419017105e+00 0.0000000000000000e+00  3.9466269032065000e+00 7.3026473713791367e+00 0.0000000000000000e+00  3.9727607297796856e+00 7.3570707663886319e+00 0.0000000000000000e+00  3.9490794500873410e+00 7.3091927866373902e+00 0.0000000000000000e+00  3.9686359241283085e+00 7.3476070597509544e+00 0.0000000000000000e+00  3.9551916379206951e+00 7.3218927402285701e+00 0.0000000000000000e+00  3.9604624365113454e+00 7.3317604965530609e+00 0.0000000000000000e+00  3.9642616863517710e+00 7.3381973428583542e+00 0.0000000000000000e+00  3.9511753816213648e+00 7.3159929180071011e+00 0.0000000000000000e+00  3.9733804383754703e+00 7.3530427740503956e+00 0.0000000000000000e+00  3.9408735805294981e+00 7.2982932689736355e+00 0.0000000000000000e+00  3.9858486479398025e+00 7.3750684822052470e+00 0.0000000000000000e+00  3.9256535808404802e+00 7.2705087395138870e+00 0.0000000000000000e+00  4.0019840549231516e+00 7.4023757239302261e+00 0.0000000000000000e+00  3.9106348063926015e+00 7.2459696325859291e+00 0.0000000000000000e+00  4.0140183717979179e+00 7.4190908612135562e+00 0.0000000000000000e+00  3.9004536565251415e+00 7.2293398834448226e+00 0.0000000000000000e+00  4.0244699494339349e+00 7.4370050997249333e+00 0.0000000000000000e+00  3.8874075282583194e+00 7.2010960515763216e+00 0.0000000000000000e+00  4.0391836356520896e+00 7.4633880191121458e+00 0.0000000000000000e+00  3.8740542837027303e+00 7.1775647182315909e+00 0.0000000000000000e+00  4.0463933537468204e+00 7.4668360386760577e+00 0.0000000000000000e+00  3.8742627994574805e+00 7.1821540346289510e+00 0.0000000000000000e+00  4.0405000443457615e+00 7.4537489489401390e+00 0.0000000000000000e+00  3.8807063973394564e+00 7.1806070493874454e+00 0.0000000000000000e+00  4.0370006341425926e+00 7.4565221843240739e+00 0.0000000000000000e+00  3.8813804619672903e+00 7.1742741134837731e+00 0.0000000000000000e+00  4.0327642543376152e+00 7.4355075480515334e+00 0.0000000000000000e+00  3.8945620180477367e+00 7.2133757916847641e+00 0.0000000000000000e+00  4.0071582635735252e+00 7.3772801109946311e+00 0.0000000000000000e+00  3.9284138237115687e+00 7.2563225235323880e+00 0.0000000000000000e+00  3.9729365418740499e+00 7.3436850391155328e+00 0.0000000000000000e+00  3.9560218413995565e+00 7.2777612243723828e+00 0.0000000000000000e+00  3.9517524426270279e+00 7.2979531877028680e+00 0.0000000000000000e+00  3.9738126160283707e+00 7.3446326670560156e+00 0.0000000000000000e+00  3.9290399689292084e+00 7.2150155442140660e+00 0.0000000000000000e+00  4.0040575625346513e+00 7.4028092116906805e+00 0.0000000000000000e+00  3.8972127728765007e+00 7.1756091879349091e+00 0.0000000000000000e+00  4.0200258415711270e+00 7.4453893822944908e+00 0.0000000000000000e+00  3.9252588728119537e+00 7.0505599429926926e+00 0.0000000000000000e+00  3.9030935178802966e+00 7.7084034577857423e+00 0.0000000000000000e+00  4.2555612349469030e+00 6.5268473246336765e+00 0.0000000000000000e+00  3.3018449014988804e+00 8.5388952240066178e+00 0.0000000000000000e+00  7.8526432048824395e+00 1.6222418171584903e+00 0.0000000000000000e+00  9.3331378767836313e+00 1.1448240950327498e-01 0.0000000000000000e+00  9.4877690669464307e+00 9.1424929451808343e-02 0.0000000000000000e+00  9.3449488757781296e+00 -9.0130473149234239e-02 0.0000000000000000e+00  9.5385349919340463e+00 4.5944042102726665e-02 0.0000000000000000e+00  9.4378080644121596e+00 0.0000000000000000e+00 0.0000000000000000e+00  8.6328957833489088e+00 0.0000000000000000e+00 1.7578225026361610e-03  8.6322168128661509e+00 8.0924195121542405e-02 -1.3680097049070614e-03  8.6289653559444623e+00 1.6408484779472274e-01 1.2177153839781970e-03  8.6243364095291106e+00 2.4474230979680389e-01 -1.4327946077242997e-03  8.6174620710460736e+00 3.2785410550812799e-01 1.5336538489622907e-03  8.6087829896566390e+00 4.0775763166253048e-01 -1.6159007163914340e-03  8.5980755579187544e+00 4.9030407823383942e-01 1.7036944576158083e-03  8.5857179853740888e+00 5.6924955054026460e-01 -1.7411457254702441e-03  8.5709878894062683e+00 6.5085497603696363e-01 1.8276092764138161e-03  8.5549028287773830e+00 7.2864100691788936e-01 -1.8729255093117288e-03  8.5364423583603930e+00 8.0904880234893772e-01 1.9604371254082721e-03  8.5165046402655769e+00 8.8535968369768714e-01 -2.0163250799786546e-03  8.4943053784777440e+00 9.6442968030704279e-01 2.1245159644141288e-03  8.4708448286379951e+00 1.0391029497005226e+00 -2.2235926861214833e-03  8.4447913272637880e+00 1.1164782630695680e+00 2.3783140667255173e-03  8.4179057293979263e+00 1.1895571169678578e+00 -2.5064842996287864e-03  8.3883457306978109e+00 1.2651437449582958e+00 2.6362139355737080e-03  8.3579652892118848e+00 1.3362356573823888e+00 -2.7064208488924608e-03  8.3251066116465289e+00 1.4103510367095153e+00 2.7595922976075904e-03  8.2916002628279166e+00 1.4793712129045271e+00 -2.8119845982242748e-03  8.2554433566355563e+00 1.5515493040516455e+00 2.8906027541812473e-03  8.2191044018073232e+00 1.6193667584476639e+00 -2.9831053838076725e-03  8.1800767683004771e+00 1.6890238500812935e+00 2.9744930572937062e-03  8.1409023710260087e+00 1.7556490994545657e+00 -2.7665271200340881e-03  8.0995007542890960e+00 1.8239625717361720e+00 2.2033595975001446e-03  8.0577454070895325e+00 1.8878092801491222e+00 -1.3789042792748828e-03  8.0142478074146393e+00 1.9566355307857990e+00 4.3813337911281135e-04  7.9702545544486396e+00 2.0172216841263961e+00 1.3640258185897044e-04  7.9249834565141697e+00 2.0855405844861989e+00 -8.3851638002059936e-05  7.8792023882913398e+00 2.1464762346235831e+00 -7.9521541216022082e-04  7.8321207555571064e+00 2.2098126960090667e+00 2.1147114662162813e-03  7.7854206339034997e+00 2.2749544896450047e+00 -3.4920607297815928e-03  7.7363305868567132e+00 2.3340090958861364e+00 4.5047002331287892e-03  7.6892531594693274e+00 2.3970403164031797e+00 -5.3995916668014322e-03  7.6384835956686796e+00 2.4632930915876612e+00 6.5510557801746793e-03  7.5911655785559287e+00 2.5133977504523295e+00 -8.3463322066830003e-03  7.5389881921828374e+00 2.5914399481395507e+00 1.0292638527260617e-02  7.4917191652526363e+00 2.6344451451679842e+00 -1.1468516683486306e-02  7.4385165754794613e+00 2.7112563697676939e+00 1.0893357596543295e-02  7.3908219909092905e+00 2.7606282522403696e+00 -8.6650984848600458e-03  7.3379357923407600e+00 2.8297608980730451e+00 5.7778585689151453e-03  7.2887724464259813e+00 2.8841698631780424e+00 -3.6364838879039394e-03  7.2369799785130162e+00 2.9504803430144624e+00 2.7465508862449376e-03  7.1867207750582516e+00 3.0073729006940093e+00 -2.7665237160345805e-03  7.1352191710550272e+00 3.0706386872503146e+00 2.8104186781149156e-03  7.0849794240822739e+00 3.1298800880802302e+00 -2.5902192745616160e-03  7.0332646725004686e+00 3.1930771323355289e+00 2.1796004427280667e-03  6.9831426600871724e+00 3.2512089116452363e+00 -1.9226211768964957e-03  6.9316164351496274e+00 3.3149504088338073e+00 1.7507544532696573e-03  6.8812822349745426e+00 3.3742584018830777e+00 -1.6517363726492331e-03  6.8302358446045899e+00 3.4367108328386733e+00 1.5440671428848213e-03  6.7797242047000550e+00 3.4967638312577227e+00 -1.5072987663518518e-03  6.7289501376587824e+00 3.5593620957342984e+00 1.4334596753079448e-03  6.6787131442030736e+00 3.6193405606975833e+00 -1.3445984234652323e-03  6.6278759249093335e+00 3.6824369100343968e+00 1.2603010447133566e-03  6.5780055713796752e+00 3.7421441129924511e+00 -1.2484429426072843e-03  6.5274008970360677e+00 3.8051652583437852e+00 1.2123691236722895e-03  6.4775586307982698e+00 3.8657855761017621e+00 -1.1527988644047681e-03  6.4273296310460708e+00 3.9283708641355659e+00 1.1003459677185233e-03  6.3777362172195815e+00 3.9889182105172845e+00 -1.0864184991349996e-03  6.3276251031271240e+00 4.0519754107999697e+00 1.0412800971966042e-03  6.2783185242834776e+00 4.1126915999081923e+00 -9.7384596969098374e-04  6.2285898069810193e+00 4.1754375409268585e+00 9.3394913961607955e-04  6.1794283783365751e+00 4.2365958663980434e+00 -9.1286540886675459e-04  6.1298582930703018e+00 4.2994475457923533e+00 8.7284833267455713e-04  6.0812861048692621e+00 4.3603144856332641e+00 -8.1353128845794540e-04  6.0318451306658512e+00 4.4235780295876399e+00 7.7837396289125529e-04  5.9832892292105893e+00 4.4849010632131758e+00 -7.3798077656798012e-04  5.9346954447649889e+00 4.5472776303199449e+00 7.1052890976103364e-04  5.8861644368700841e+00 4.6093414174288867e+00 -6.7055996808014723e-04  5.8375654266572869e+00 4.6722080694684678e+00 6.5187348499827816e-04  5.7899913252565360e+00 4.7332683268897693e+00 -6.0668179722679931e-04  5.7414433950913493e+00 4.7968245284837465e+00 5.8231089181622292e-04  5.6937390556860965e+00 4.8586299462904607e+00 -5.1397877413069412e-04  5.6463576366989301e+00 4.9208604050286455e+00 4.7553822563420410e-04  5.5985262921892351e+00 4.9836242722856579e+00 -4.3448131317737289e-04  5.5512154155692617e+00 5.0462533361079869e+00 4.6397232721132514e-04  5.5043521205639472e+00 5.1082328766161966e+00 -4.4006969485903930e-04  5.4570843458036613e+00 5.1714599815220748e+00 4.4891910880976181e-04  5.4102384621273361e+00 5.2337600239013744e+00 -4.1103317853644051e-04  5.3639388069082905e+00 5.2964369114386143e+00 4.3405299235448075e-04  5.3171002214364442e+00 5.3593545968329970e+00 -4.1786206052663098e-04  5.2710498598146689e+00 5.421958113553863