<?xml version="1.0"?>
<VTKFile type="UnstructuredGrid"  version="0.1"  >
<UnstructuredGrid>
<Piece  NumberOfPoints="8241" NumberOfCells="16000">
<Points>
<DataArray  type="Float64"  NumberOfComponents="3"  format="ascii">-5 -1 0  -4.95 -1 0  -4.9 -1 0  -4.85 -1 0  -4.8 -1 0  -4.75 -1 0  -4.7 -1 0  -4.65 -1 0  -4.6 -1 0  -4.55 -1 0  -4.5 -1 0  -4.45 -1 0  -4.4 -1 0  -4.35 -1 0  -4.3 -1 0  -4.25 -1 0  -4.2 -1 0  -4.15 -1 0  -4.1 -1 0  -4.05 -1 0  -4 -1 0  -3.95 -1 0  -3.9 -1 0  -3.85 -1 0  -3.8 -1 0  -3.75 -1 0  -3.7 -1 0  -3.65 -1 0  -3.6 -1 0  -3.55 -1 0  -3.5 -1 0  -3.45 -1 0  -3.4 -1 0  -3.35 -1 0  -3.3 -1 0  -3.25 -1 0  -3.2 -1 0  -3.15 -1 0  -3.1 -1 0  -3.05 -1 0  -3 -1 0  -2.95 -1 0  -2.9 -1 0  -2.85 -1 0  -2.8 -1 0  -2.75 -1 0  -2.7 -1 0  -2.65 -1 0  -2.6 -1 0  -2.55 -1 0  -2.5 -1 0  -2.45 -1 0  -2.4 -1 0  -2.35 -1 0  -2.3 -1 0  -2.25 -1 0  -2.2 -1 0  -2.15 -1 0  -2.1 -1 0  -2.05 -1 0  -2 -1 0  -1.95 -1 0  -1.9 -1 0  -1.85 -1 0  -1.8 -1 0  -1.75 -1 0  -1.7 -1 0  -1.65 -1 0  -1.6 -1 0  -1.55 -1 0  -1.5 -1 0  -1.45 -1 0  -1.4 -1 0  -1.35 -1 0  -1.3 -1 0  -1.25 -1 0  -1.2 -1 0  -1.15 -1 0  -1.1 -1 0  -1.05 -1 0  -1 -1 0  -0.9500000000000002 -1 0  -0.9000000000000004 -1 0  -0.8499999999999996 -1 0  -0.7999999999999998 -1 0  -0.75 -1 0  -0.7000000000000002 -1 0  -0.6500000000000004 -1 0  -0.5999999999999996 -1 0  -0.5499999999999998 -1 0  -0.5 -1 0  -0.4500000000000002 -1 0  -0.4000000000000004 -1 0  -0.3499999999999996 -1 0  -0.2999999999999998 -1 0  -0.25 -1 0  -0.2000000000000002 -1 0  -0.1500000000000004 -1 0  -0.09999999999999964 -1 0  -0.04999999999999982 -1 0  0 -1 0  0.04999999999999982 -1 0  0.09999999999999964 -1 0  0.1500000000000004 -1 0  0.2000000000000002 -1 0  0.25 -1 0  0.2999999999999998 -1 0  0.3499999999999996 -1 0  0.4000000000000004 -1 0  0.4500000000000002 -1 0  0.5 -1 0  0.5499999999999998 -1 0  0.5999999999999996 -1 0  0.6500000000000004 -1 0  0.7000000000000002 -1 0  0.75 -1 0  0.7999999999999998 -1 0  0.8499999999999996 -1 0  0.9000000000000004 -1 0  0.9500000000000002 -1 0  1 -1 0  1.05 -1 0  1.1 -1 0  1.15 -1 0  1.2 -1 0  1.25 -1 0  1.3 -1 0  1.35 -1 0  1.4 -1 0  1.45 -1 0  1.5 -1 0  1.55 -1 0  1.6 -1 0  1.65 -1 0  1.7 -1 0  1.75 -1 0  1.8 -1 0  1.85 -1 0  1.9 -1 0  1.95 -1 0  2 -1 0  2.05 -1 0  2.1 -1 0  2.15 -1 0  2.2 -1 0  2.25 -1 0  2.3 -1 0  2.35 -1 0  2.4 -1 0  2.45 -1 0  2.5 -1 0  2.55 -1 0  2.6 -1 0  2.65 -1 0  2.7 -1 0  2.75 -1 0  2.8 -1 0  2.85 -1 0  2.9 -1 0  2.95 -1 0  3 -1 0  3.050000000000001 -1 0  3.1 -1 0  3.15 -1 0  3.199999999999999 -1 0  3.25 -1 0  3.300000000000001 -1 0  3.35 -1 0  3.4 -1 0  3.449999999999999 -1 0  3.5 -1 0  3.550000000000001 -1 0  3.6 -1 0  3.65 -1 0  3.699999999999999 -1 0  3.75 -1 0  3.800000000000001 -1 0  3.85 -1 0  3.9 -1 0  3.949999999999999 -1 0  4 -1 0  4.050000000000001 -1 0  4.1 -1 0  4.15 -1 0  4.199999999999999 -1 0  4.25 -1 0  4.300000000000001 -1 0  4.35 -1 0  4.4 -1 0  4.449999999999999 -1 0  4.5 -1 0  4.550000000000001 -1 0  4.6 -1 0  4.65 -1 0  4.699999999999999 -1 0  4.75 -1 0  4.800000000000001 -1 0  4.85 -1 0  4.9 -1 0  4.949999999999999 -1 0  5 -1 0  -5 -0.95 0  -4.95 -0.95 0  -4.9 -0.95 0  -4.85 -0.95 0  -4.8 -0.95 0  -4.75 -0.95 0  -4.7 -0.95 0  -4.65 -0.95 0  -4.6 -0.95 0  -4.55 -0.95 0  -4.5 -0.95 0  -4.45 -0.95 0  -4.4 -0.95 0  -4.35 -0.95 0  -4.3 -0.95 0  -4.25 -0.95 0  -4.2 -0.95 0  -4.15 -0.95 0  -4.1 -0.95 0  -4.05 -0.95 0  -4 -0.95 0  -3.95 -0.95 0  -3.9 -0.95 0  -3.85 -0.95 0  -3.8 -0.95 0  -3.75 -0.95 0  -3.7 -0.95 0  -3.65 -0.95 0  -3.6 -0.95 0  -3.55 -0.95 0  -3.5 -0.95 0  -3.45 -0.95 0  -3.4 -0.95 0  -3.35 -0.95 0  -3.3 -0.95 0  -3.25 -0.95 0  -3.2 -0.95 0  -3.15 -0.95 0  -3.1 -0.95 0  -3.05 -0.95 0  -3 -0.95 0  -2.95 -0.95 0  -2.9 -0.95 0  -2.85 -0.95 0  -2.8 -0.95 0  -2.75 -0.95 0  -2.7 -0.95 0  -2.65 -0.95 0  -2.6 -0.95 0  -2.55 -0.95 0  -2.5 -0.95 0  -2.45 -0.95 0  -2.4 -0.95 0  -2.35 -0.95 0  -2.3 -0.95 0  -2.25 -0.95 0  -2.2 -0.95 0  -2.15 -0.95 0  -2.1 -0.95 0  -2.05 -0.95 0  -2 -0.95 0  -1.95 -0.95 0  -1.9 -0.95 0  -1.85 -0.95 0  -1.8 -0.95 0  -1.75 -0.95 0  -1.7 -0.95 0  -1.65 -0.95 0  -1.6 -0.95 0  -1.55 -0.95 0  -1.5 -0.95 0  -1.45 -0.95 0  -1.4 -0.95 0  -1.35 -0.95 0  -1.3 -0.95 0  -1.25 -0.95 0  -1.2 -0.95 0  -1.15 -0.95 0  -1.1 -0.95 0  -1.05 -0.95 0  -1 -0.95 0  -0.9500000000000002 -0.95 0  -0.9000000000000004 -0.95 0  -0.8499999999999996 -0.95 0  -0.7999999999999998 -0.95 0  -0.75 -0.95 0  -0.7000000000000002 -0.95 0  -0.6500000000000004 -0.95 0  -0.5999999999999996 -0.95 0  -0.5499999999999998 -0.95 0  -0.5 -0.95 0  -0.4500000000000002 -0.95 0  -0.4000000000000004 -0.95 0  -0.3499999999999996 -0.95 0  -0.2999999999999998 -0.95 0  -0.25 -0.95 0  -0.2000000000000002 -0.95 0  -0.1500000000000004 -0.95 0  -0.09999999999999964 -0.95 0  -0.04999999999999982 -0.95 0  0 -0.95 0  0.04999999999999982 -0.95 0  0.09999999999999964 -0.95 0  0.1500000000000004 -0.95 0  0.2000000000000002 -0.95 0  0.25 -0.95 0  0.2999999999999998 -0.95 0  0.3499999999999996 -0.95 0  0.4000000000000004 -0.95 0  0.4500000000000002 -0.95 0  0.5 -0.95 0  0.5499999999999998 -0.95 0  0.5999999999999996 -0.95 0  0.6500000000000004 -0.95 0  0.7000000000000002 -0.95 0  0.75 -0.95 0  0.7999999999999998 -0.95 0  0.8499999999999996 -0.95 0  0.9000000000000004 -0.95 0  0.9500000000000002 -0.95 0  1 -0.95 0  1.05 -0.95 0  1.1 -0.95 0  1.15 -0.95 0  1.2 -0.95 0  1.25 -0.95 0  1.3 -0.95 0  1.35 -0.95 0  1.4 -0.95 0  1.45 -0.95 0  1.5 -0.95 0  1.55 -0.95 0  1.6 -0.95 0  1.65 -0.95 0  1.7 -0.95 0  1.75 -0.95 0  1.8 -0.95 0  1.85 -0.95 0  1.9 -0.95 0  1.95 -0.95 0  2 -0.95 0  2.05 -0.95 0  2.1 -0.95 0  2.15 -0.95 0  2.2 -0.95 0  2.25 -0.95 0  2.3 -0.95 0  2.35 -0.95 0  2.4 -0.95 0  2.45 -0.95 0  2.5 -0.95 0  2.55 -0.95 0  2.6 -0.95 0  2.65 -0.95 0  2.7 -0.95 0  2.75 -0.95 0  2.8 -0.95 0  2.85 -0.95 0  2.9 -0.95 0  2.95 -0.95 0  3 -0.95 0  3.050000000000001 -0.95 0  3.1 -0.95 0  3.15 -0.95 0  3.199999999999999 -0.95 0  3.25 -0.95 0  3.300000000000001 -0.95 0  3.35 -0.95 0  3.4 -0.95 0  3.449999999999999 -0.95 0  3.5 -0.95 0  3.550000000000001 -0.95 0  3.6 -0.95 0  3.65 -0.95 0  3.699999999999999 -0.95 0  3.75 -0.95 0  3.800000000000001 -0.95 0  3.85 -0.95 0  3.9 -0.95 0  3.949999999999999 -0.95 0  4 -0.95 0  4.050000000000001 -0.95 0  4.1 -0.95 0  4.15 -0.95 0  4.199999999999999 -0.95 0  4.25 -0.95 0  4.300000000000001 -0.95 0  4.35 -0.95 0  4.4 -0.95 0  4.449999999999999 -0.95 0  4.5 -0.95 0  4.550000000000001 -0.95 0  4.6 -0.95 0  4.65 -0.95 0  4.699999999999999 -0.95 0  4.75 -0.95 0  4.800000000000001 -0.95 0  4.85 -0.95 0  4.9 -0.95 0  4.949999999999999 -0.95 0  5 -0.95 0  -5 -0.9 0  -4.95 -0.9 0  -4.9 -0.9 0  -4.85 -0.9 0  -4.8 -0.9 0  -4.75 -0.9 0  -4.7 -0.9 0  -4.65 -0.9 0  -4.6 -0.9 0  -4.55 -0.9 0  -4.5 -0.9 0  -4.45 -0.9 0  -4.4 -0.9 0  -4.35 -0.9 0  -4.3 -0.9 0  -4.25 -0.9 0  -4.2 -0.9 0  -4.15 -0.9 0  -4.1 -0.9 0  -4.05 -0.9 0  -4 -0.9 0  -3.95 -0.9 0  -3.9 -0.9 0  -3.85 -0.9 0  -3.8 -0.9 0  -3.75 -0.9 0  -3.7 -0.9 0  -3.65 -0.9 0  -3.6 -0.9 0  -3.55 -0.9 0  -3.5 -0.9 0  -3.45 -0.9 0  -3.4 -0.9 0  -3.35 -0.9 0  -3.3 -0.9 0  -3.25 -0.9 0  -3.2 -0.9 0  -3.15 -0.9 0  -3.1 -0.9 0  -3.05 -0.9 0  -3 -0.9 0  -2.95 -0.9 0  -2.9 -0.9 0  -2.85 -0.9 0  -2.8 -0.9 0  -2.75 -0.9 0  -2.7 -0.9 0  -2.65 -0.9 0  -2.6 -0.9 0  -2.55 -0.9 0  -2.5 -0.9 0  -2.45 -0.9 0  -2.4 -0.9 0  -2.35 -0.9 0  -2.3 -0.9 0  -2.25 -0.9 0  -2.2 -0.9 0  -2.15 -0.9 0  -2.1 -0.9 0  -2.05 -0.9 0  -2 -0.9 0  -1.95 -0.9 0  -1.9 -0.9 0  -1.85 -0.9 0  -1.8 -0.9 0  -1.75 -0.9 0  -1.7 -0.9 0  -1.65 -0.9 0  -1.6 -0.9 0  -1.55 -0.9 0  -1.5 -0.9 0  -1.45 -0.9 0  -1.4 -0.9 0  -1.35 -0.9 0  -1.3 -0.9 0  -1.25 -0.9 0  -1.2 -0.9 0  -1.15 -0.9 0  -1.1 -0.9 0  -1.05 -0.9 0  -1 -0.9 0  -0.9500000000000002 -0.9 0  -0.9000000000000004 -0.9 0  -0.8499999999999996 -0.9 0  -0.7999999999999998 -0.9 0  -0.75 -0.9 0  -0.7000000000000002 -0.9 0  -0.6500000000000004 -0.9 0  -0.5999999999999996 -0.9 0  -0.5499999999999998 -0.9 0  -0.5 -0.9 0  -0.4500000000000002 -0.9 0  -0.4000000000000004 -0.9 0  -0.3499999999999996 -0.9 0  -0.2999999999999998 -0.9 0  -0.25 -0.9 0  -0.2000000000000002 -0.9 0  -0.1500000000000004 -0.9 0  -0.09999999999999964 -0.9 0  -0.04999999999999982 -0.9 0  0 -0.9 0  0.04999999999999982 -0.9 0  0.09999999999999964 -0.9 0  0.1500000000000004 -0.9 0  0.2000000000000002 -0.9 0  0.25 -0.9 0  0.2999999999999998 -0.9 0  0.3499999999999996 -0.9 0  0.4000000000000004 -0.9 0  0.4500000000000002 -0.9 0  0.5 -0.9 0  0.5499999999999998 -0.9 0  0.5999999999999996 -0.9 0  0.6500000000000004 -0.9 0  0.7000000000000002 -0.9 0  0.75 -0.9 0  0.7999999999999998 -0.9 0  0.8499999999999996 -0.9 0  0.9000000000000004 -0.9 0  0.9500000000000002 -0.9 0  1 -0.9 0  1.05 -0.9 0  1.1 -0.9 0  1.15 -0.9 0  1.2 -0.9 0  1.25 -0.9 0  1.3 -0.9 0  1.35 -0.9 0  1.4 -0.9 0  1.45 -0.9 0  1.5 -0.9 0  1.55 -0.9 0  1.6 -0.9 0  1.65 -0.9 0  1.7 -0.9 0  1.75 -0.9 0  1.8 -0.9 0  1.85 -0.9 0  1.9 -0.9 0  1.95 -0.9 0  2 -0.9 0  2.05 -0.9 0  2.1 -0.9 0  2.15 -0.9 0  2.2 -0.9 0  2.25 -0.9 0  2.3 -0.9 0  2.35 -0.9 0  2.4 -0.9 0  2.45 -0.9 0  2.5 -0.9 0  2.55 -0.9 0  2.6 -0.9 0  2.65 -0.9 0  2.7 -0.9 0  2.75 -0.9 0  2.8 -0.9 0  2.85 -0.9 0  2.9 -0.9 0  2.95 -0.9 0  3 -0.9 0  3.050000000000001 -0.9 0  3.1 -0.9 0  3.15 -0.9 0  3.199999999999999 -0.9 0  3.25 -0.9 0  3.300000000000001 -0.9 0  3.35 -0.9 0  3.4 -0.9 0  3.449999999999999 -0.9 0  3.5 -0.9 0  3.550000000000001 -0.9 0  3.6 -0.9 0  3.65 -0.9 0  3.699999999999999 -0.9 0  3.75 -0.9 0  3.800000000000001 -0.9 0  3.85 -0.9 0  3.9 -0.9 0  3.949999999999999 -0.9 0  4 -0.9 0  4.050000000000001 -0.9 0  4.1 -0.9 0  4.15 -0.9 0  4.199999999999999 -0.9 0  4.25 -0.9 0  4.300000000000001 -0.9 0  4.35 -0.9 0  4.4 -0.9 0  4.449999999999999 -0.9 0  4.5 -0.9 0  4.550000000000001 -0.9 0  4.6 -0.9 0  4.65 -0.9 0  4.699999999999999 -0.9 0  4.75 -0.9 0  4.800000000000001 -0.9 0  4.85 -0.9 0  4.9 -0.9 0  4.949999999999999 -0.9 0  5 -0.9 0  -5 -0.85 0  -4.95 -0.85 0  -4.9 -0.85 0  -4.85 -0.85 0  -4.8 -0.85 0  -4.75 -0.85 0  -4.7 -0.85 0  -4.65 -0.85 0  -4.6 -0.85 0  -4.55 -0.85 0  -4.5 -0.85 0  -
[...]
<PointData  Vectors="f_15"> 
<DataArray  type="Float64"  Name="f_15"  NumberOfComponents="3" format="ascii">9.9957493693145913e+00 0.0000000000000000e+00 0.0000000000000000e+00  9.9987117726194565e+00 1.1332916608182593e-02 0.0000000000000000e+00  9.9939487198838783e+00 -1.7205125078402588e-02 0.0000000000000000e+00  1.0000493127651714e+01 7.4268853625128117e-03 0.0000000000000000e+00  9.9935418392475910e+00 -1.1657626786468889e-02 0.0000000000000000e+00  1.0000163028892739e+01 1.9950394130659357e-03 0.0000000000000000e+00  9.9946259413443475e+00 -7.0824836189827337e-03 0.0000000000000000e+00  1.0000342847698285e+01 1.5895477886208547e-04 0.0000000000000000e+00  9.9942804019556544e+00 -5.2048331265621790e-03 0.0000000000000000e+00  1.0001687298410218e+01 -4.0045427575142691e-04 0.0000000000000000e+00  9.9943930775298906e+00 -3.2465370123730690e-03 0.0000000000000000e+00  1.0001618711623752e+01 -1.4711977594927975e-03 0.0000000000000000e+00  9.9954800488041986e+00 -1.2795343705011184e-03 0.0000000000000000e+00  1.0001871810466771e+01 -1.9526822359295234e-03 0.0000000000000000e+00  9.9953195904995393e+00 -2.2208941516045709e-04 0.0000000000000000e+00  1.0002739159419681e+01 -2.0593862100125120e-03 0.0000000000000000e+00  9.9955162043062717e+00 1.0100617508671591e-03 0.0000000000000000e+00  1.0002416634749853e+01 -2.5973834022012280e-03 0.0000000000000000e+00  9.9960675337207920e+00 2.2578541967137912e-03 0.0000000000000000e+00  1.0002346243784213e+01 -2.5655439390629697e-03 0.0000000000000000e+00  9.9955577153017288e+00 3.0322699813235608e-03 0.0000000000000000e+00  1.0002210041904846e+01 -2.2259917947248025e-03 0.0000000000000000e+00  9.9951466130876021e+00 4.4339413102436713e-03 0.0000000000000000e+00  1.0000917168677299e+01 -1.7676692246567038e-03 0.0000000000000000e+00  9.9941309475268341e+00 6.2466633196226707e-03 0.0000000000000000e+00  9.9992222333878953e+00 1.0065970985192025e-05 0.0000000000000000e+00  9.9915614068065626e+00 8.7569425913997887e-03 0.0000000000000000e+00  9.9959687454602939e+00 3.0594796903532272e-03 0.0000000000000000e+00  9.9876045443184598e+00 1.3425890840140293e-02 0.0000000000000000e+00  9.9901260862404566e+00 8.2615248031998965e-03 0.0000000000000000e+00  9.9805293080637245e+00 2.0603769073744820e-02 0.0000000000000000e+00  9.9811364120474479e+00 1.7481280670966246e-02 0.0000000000000000e+00  9.9689782751599125e+00 3.1870277394697298e-02 0.0000000000000000e+00  9.9666537944045253e+00 3.1637557995013915e-02 0.0000000000000000e+00  9.9516307290920949e+00 4.9550581923548068e-02 0.0000000000000000e+00  9.9449301141245776e+00 5.2988167010967070e-02 0.0000000000000000e+00  9.9256415249873999e+00 7.5046652899291175e-02 0.0000000000000000e+00  9.9141280434369392e+00 8.4220119677849620e-02 0.0000000000000000e+00  9.8890629803061607e+00 1.1092991277558284e-01 0.0000000000000000e+00  9.8713153359642742e+00 1.2693910368366534e-01 0.0000000000000000e+00  9.8400317086682794e+00 1.5979147105071295e-01 0.0000000000000000e+00  9.8148126784136540e+00 1.8355322794894549e-01 0.0000000000000000e+00  9.7760890720616551e+00 2.2289849040799517e-01 0.0000000000000000e+00  9.7433087767891262e+00 2.5605652866208001e-01 0.0000000000000000e+00  9.6963216982761384e+00 3.0202847118864184e-01 0.0000000000000000e+00  9.6552554383790081e+00 3.4485435522015090e-01 0.0000000000000000e+00  9.6003879266487395e+00 3.9836249016775166e-01 0.0000000000000000e+00  9.5507036659785207e+00 4.5068768376580293e-01 0.0000000000000000e+00  9.4878366888268104e+00 5.1146748846253398e-01 0.0000000000000000e+00  9.4302763074666700e+00 5.7371184404049058e-01 0.0000000000000000e+00  9.3596239139049882e+00 6.4131953042428202e-01 0.0000000000000000e+00  9.2944152981218640e+00 7.1260112029470479e-01 0.0000000000000000e+00  9.2171164721200771e+00 7.8742954544241028e-01 0.0000000000000000e+00  9.1446521422963176e+00 8.6673603325141257e-01 0.0000000000000000e+00  9.0613255882506891e+00 9.4792510397544960e-01 0.0000000000000000e+00  8.9827483869633689e+00 1.0352610586735009e+00 0.0000000000000000e+00  8.8940100239389306e+00 1.1219673708489337e+00 0.0000000000000000e+00  8.8099634832882323e+00 1.2159946960204306e+00 0.0000000000000000e+00  8.7170165521520939e+00 1.3085947792014350e+00 0.0000000000000000e+00  8.6280328499229810e+00 1.4082106198823878e+00 0.0000000000000000e+00  8.5316048268575599e+00 1.5054024017047802e+00 0.0000000000000000e+00  8.4387089099407557e+00 1.6110636089804131e+00 0.0000000000000000e+00  8.3393223128149518e+00 1.7120168691620912e+00 0.0000000000000000e+00  8.2431355768368242e+00 1.8219141634867175e+00 0.0000000000000000e+00  8.1417229065213235e+00 1.9277614777328487e+00 0.0000000000000000e+00  8.0426214183659859e+00 2.0411606135860105e+00 0.0000000000000000e+00  7.9397647328701000e+00 2.1492552576255437e+00 0.0000000000000000e+00  7.8385273075492181e+00 2.2685791112390397e+00 0.0000000000000000e+00  7.7344737859437558e+00 2.3781491930497420e+00 0.0000000000000000e+00  7.6316398351877774e+00 2.4991957262389191e+00 0.0000000000000000e+00  7.5270333492934212e+00 2.6149177173111036e+00 0.0000000000000000e+00  7.4227133459966792e+00 2.7366369687322960e+00 0.0000000000000000e+00  7.3180612229043867e+00 2.8526311014631678e+00 0.0000000000000000e+00  7.2127878361354192e+00 2.9806208736499178e+00 0.0000000000000000e+00  7.1081041853711522e+00 3.0984945836267808e+00 0.0000000000000000e+00  7.0023283363137656e+00 3.2235258700238214e+00 0.0000000000000000e+00  6.8980724027433293e+00 3.3484955107181373e+00 0.0000000000000000e+00  6.7917624710287514e+00 3.4750965430997107e+00 0.0000000000000000e+00  6.6884763316768199e+00 3.5986476688781281e+00 0.0000000000000000e+00  6.5817742785743993e+00 3.7280754009822501e+00 0.0000000000000000e+00  6.4797008706397223e+00 3.8543365471317461e+00 0.0000000000000000e+00  6.3729890543605050e+00 3.9836271138533905e+00 0.0000000000000000e+00  6.2723379267442771e+00 4.1119626689181139e+00 0.0000000000000000e+00  6.1654432090490561e+00 4.2418690234698175e+00 0.0000000000000000e+00  6.0667799544425129e+00 4.3701593372549761e+00 0.0000000000000000e+00  5.9599404914025218e+00 4.5034102354271379e+00 0.0000000000000000e+00  5.8627110506753128e+00 4.6318321392830519e+00 0.0000000000000000e+00  5.7568571280877059e+00 4.7654168566858806e+00 0.0000000000000000e+00  5.6607787785214656e+00 4.8942016851038730e+00 0.0000000000000000e+00  5.5559632548548414e+00 5.0297599035910459e+00 0.0000000000000000e+00  5.4607613248631139e+00 5.1598465107061395e+00 0.0000000000000000e+00  5.3580590799457966e+00 5.2949648480316220e+00 0.0000000000000000e+00  5.2626872899906498e+00 5.4264344745642514e+00 0.0000000000000000e+00  5.1629947169450450e+00 5.5615474790140560e+00 0.0000000000000000e+00  5.0681726402157183e+00 5.6942241984829378e+00 0.0000000000000000e+00  4.9704788628272683e+00 5.8283905402385132e+00 0.0000000000000000e+00  4.8761639270837582e+00 5.9635261450360249e+00 0.0000000000000000e+00  4.7816458446504333e+00 6.0970090039364733e+00 0.0000000000000000e+00  4.6875659209037268e+00 6.2324010604528057e+00 0.0000000000000000e+00  4.5965907740875078e+00 6.3638827385390435e+00 0.0000000000000000e+00  4.5024166811491160e+00 6.5035058853138690e+00 0.0000000000000000e+00  4.4231831791527343e+00 6.6193014715609584e+00 0.0000000000000000e+00  4.3160380298999632e+00 6.7796402079160076e+00 0.0000000000000000e+00  4.2381235821164198e+00 6.8988762661615901e+00 0.0000000000000000e+00  4.1450870848495640e+00 7.0399765133966090e+00 0.0000000000000000e+00  4.0694241634029424e+00 7.1559904031644592e+00 0.0000000000000000e+00  3.9835214920341997e+00 7.2910288029934094e+00 0.0000000000000000e+00  3.9134781782303518e+00 7.4020026210561403e+00 0.0000000000000000e+00  3.8355006059211054e+00 7.5225942852559511e+00 0.0000000000000000e+00  3.7713427104789239e+00 7.6278561490378483e+00 0.0000000000000000e+00  3.7762689396973328e+00 7.6202030302595869e+00 0.0000000000000000e+00  3.8502076899119952e+00 7.5011790802658833e+00 0.0000000000000000e+00  3.8978839984910274e+00 7.4242202034057527e+00 0.0000000000000000e+00  3.9204561465515271e+00 7.3888551813880898e+00 0.0000000000000000e+00  3.9274094568156941e+00 7.3771271098950111e+00 0.0000000000000000e+00  3.9354464519601748e+00 7.3647697624590247e+00 0.0000000000000000e+00  3.9382298815572065e+00 7.3595777121975336e+00 0.0000000000000000e+00  3.9434259262910021e+00 7.3517500378342211e+00 0.0000000000000000e+00  3.9445096779102236e+00 7.3492647080735063e+00 0.0000000000000000e+00  3.9479977168802374e+00 7.3440083364366835e+00 0.0000000000000000e+00  3.9484343492700953e+00 7.3426157979532913e+00 0.0000000000000000e+00  3.9508649149460595e+00 7.3389569926309921e+00 0.0000000000000000e+00  3.9510862358618599e+00 7.3379666034140731e+00 0.0000000000000000e+00  3.9527021367327895e+00 7.3354193442802558e+00 0.0000000000000000e+00  3.9528094518187840e+00 7.3346650510859357e+00 0.0000000000000000e+00  3.9538727898253834e+00 7.3327687487259832e+00 0.0000000000000000e+00  3.9539857251752815e+00 7.3320005280356249e+00 0.0000000000000000e+00  3.9546546381727476e+00 7.3305104155773799e+00 0.0000000000000000e+00  3.9547683467392285e+00 7.3295617422657759e+00 0.0000000000000000e+00  3.9551577019108066e+00 7.3281498295450858e+00 0.0000000000000000e+00  3.9552206530728449e+00 7.3269105883325043e+00 0.0000000000000000e+00  3.9554337791102117e+00 7.3251856618298081e+00 0.0000000000000000e+00  3.9554452472551040e+00 7.3234090804734118e+00 0.0000000000000000e+00  3.9555240996848293e+00 7.3211624890714919e+00 0.0000000000000000e+00  3.9554895387930507e+00 7.3186829086819003e+00 0.0000000000000000e+00  3.9554725754633573e+00 7.3158493940090503e+00 0.0000000000000000e+00  3.9553799298341996e+00 7.3128249605456261e+00 0.0000000000000000e+00  3.9552889309102728e+00 7.3095710334025430e+00 0.0000000000000000e+00  3.9551370182065306e+00 7.3063183183088221e+00 0.0000000000000000e+00  3.9549453172231952e+00 7.3030219839714832e+00 0.0000000000000000e+00  3.9546883347402098e+00 7.2998317265639221e+00 0.0000000000000000e+00  3.9542898094135626e+00 7.2966632947162307e+00 0.0000000000000000e+00  3.9537104820334257e+00 7.2935349440058515e+00 0.0000000000000000e+00  3.9526696944007211e+00 7.2899467769818616e+00 0.0000000000000000e+00  3.9509988090382921e+00 7.2857803693797640e+00 0.0000000000000000e+00  3.9477234348380708e+00 7.2793016504295718e+00 0.0000000000000000e+00  3.9421912893766713e+00 7.2697057528171571e+00 0.0000000000000000e+00  3.9311266428078087e+00 7.2515395575927384e+00 0.0000000000000000e+00  3.9119313318283302e+00 7.2211198908600931e+00 0.0000000000000000e+00  3.8738407675393116e+00 7.1606213616863492e+00 0.0000000000000000e+00  3.8077400148215248e+00 7.0554938281376227e+00 0.0000000000000000e+00  3.6798339367020398e+00 6.8460450625788321e+00 0.0000000000000000e+00  3.4652600739399135e+00 6.4791924478969047e+00 0.0000000000000000e+00  3.0817002981148898e+00 5.7639869202236502e+00 0.0000000000000000e+00  2.5225291798060328e+00 4.5630980982044163e+00 0.0000000000000000e+00  1.7063500788629100e+00 2.3081985264085896e+00 0.0000000000000000e+00  1.1227806833075469e+00 3.8431868286603776e-01 0.0000000000000000e+00  1.0081056054401540e+00 2.5325641099818816e-02 0.0000000000000000e+00  1.0001751344900938e+00 2.0750120871105386e-03 0.0000000000000000e+00  1.0001620788679071e+00 -2.4513772766624874e-04 0.0000000000000000e+00  9.9992772729299295e-01 2.2576349889309640e-04 0.0000000000000000e+00  1.0000551847468913e+00 -1.5246153255816874e-04 0.0000000000000000e+00  9.9995612083633123e-01 1.2173809932430793e-04 0.0000000000000000e+00  1.0000349676904887e+00 -9.6275844331303355e-05 0.0000000000000000e+00  9.9997304055744163e-01 7.4065617503386820e-05 0.0000000000000000e+00  1.0000202933658724e+00 -5.5575649887204146e-05 0.0000000000000000e+00  9.9998487974039396e-01 4.1242811554429469e-05 0.0000000000000000e+00  1.0000112577517304e+00 -3.0582221826013964e-05 0.0000000000000000e+00  9.9999161312125606e-01 2.2718799787764575e-05 0.0000000000000000e+00  1.0000062225836328e+00 -1.6836083355515842e-05 0.0000000000000000e+00  9.9999542705419120e-01 1.2371747597062663e-05 0.0000000000000000e+00  1.0000033229309753e+00 -8.9890721918317242e-06 0.0000000000000000e+00  9.9999760513874869e-01 6.4723788218244589e-06 0.0000000000000000e+00  1.0000017214676358e+00 -4.6435900072515618e-06 0.0000000000000000e+00  9.9999876072028748e-01 3.3354965311031134e-06 0.0000000000000000e+00  1.0000008934311420e+00 -2.4005812640776913e-06 0.0000000000000000e+00  9.9999935739025980e-01 1.7253066921590533e-06 0.0000000000000000e+00  1.0000004591463831e+00 -1.2325634553016491e-06 0.0000000000000000e+00  9.9999967471396345e-01 8.7307979510573399e-07 0.0000000000000000e+00  1.0000002288610488e+00 -6.1382459267618048e-07 0.0000000000000000e+00  9.9999983951461202e-01 4.2983952023271166e-07 0.0000000000000000e+00  1.0000001125055633e+00 -3.0083054951193439e-07 0.0000000000000000e+00  9.9999992111341451e-01 2.1063942122503733e-07 0.0000000000000000e+00  1.0000000552132005e+00 -1.4730159513704420e-07 0.0000000000000000e+00  9.9999996153371573e-01 1.0258000763467157e-07 0.0000000000000000e+00  1.0000000266339504e+00 -7.1000327441771988e-08 0.0000000000000000e+00  9.9999998166236082e-01 4.8851376272732617e-08 0.0000000000000000e+00  1.0000000125796207e+00 -3.3475479742125499e-08 0.0000000000000000e+00  9.9999999138445461e-01 2.2895072184298276e-08 0.0000000000000000e+00  1.0000000058939948e+00 -1.5641425774514934e-08 0.0000000000000000e+00  9.9999999597470490e-01 1.0667121581687625e-08 0.0000000000000000e+00  1.0000000027373914e+00 -7.2449366850478743e-09 0.0000000000000000e+00  9.9999999814381979e-01 4.8975570506670538e-09 0.0000000000000000e+00  1.0000000012475905e+00 -3.2821792533136918e-09 0.0000000000000000e+00  9.9999999915409876e-01 2.1940154521806218e-09 0.0000000000000000e+00  1.0000000005589009e+00 -1.4351884148541424e-09 0.0000000000000000e+00  9.9999999960332198e-01 9.4667807438653545e-10 0.0000000000000000e+00  1.0000000002477654e+00 -5.6257280768950087e-10 0.0000000000000000e+00  9.9999999977924647e-01 3.5571279225825412e-10 0.0000000000000000e+00  1.0000000001043230e+00 -1.0482857189749595e-10 0.0000000000000000e+00  9.9999999979998211e-01 0.0000000000000000e+00 0.0000000000000000e+00  1.0004160473191893e+01 0.0000000000000000e+00 -1.3743867970192543e-02  1.0001299232649107e+01 -9.2834792119022734e-04 2.8579026703341153e-03  1.0004687600306362e+01 7.2641315819423190e-03 3.9157283962185895e-03  1.0001876096757355e+01 4.4723831829302707e-03 -1.6173659859716387e-03  1.0003410016812047e+01 1.9288416653418560e-03 7.5888266878887942e-04  1.0002981445626302e+01 5.7127949253804790e-03 -2.5058726567642094e-04  1.0002772328291829e+01 2.1036434303643883e-03 1.2578582436275027e-04  1.0002135712365270e+01 3.7038992035092087e-03 -3.0004289235729481e-04  1.0003238688228677e+01 2.6008102305841853e-03 3.6674746601804051e-04  1.0001544975875076e+01 2.8459379492501114e-03 -5.2922459096636982e-04  1.0002196757723512e+01 1.8507540472467788e-03 5.5722135566237791e-04  1.0001917102450289e+01 2.4640886728010776e-03 -6.7261465033413982e-04  1.0001527914544770e+01 1.5594769029143858e-03 6.9716565010248359e-04  1.0000985668241981e+01 1.5149835434943254e-03 -7.7460507012081404e-04  1.0001701885556699e+01 1.5264750240156870e-03 7.8632992659486019e-04  1.0000480152346672e+01 1.1279884080062838e-03 -8.3821446004974385e-04  1.0000787135300694e+01 1.0069277935536912e-03 8.4717733591497537e-04  1.0000563739218817e+01 1.0621641018498398e-03 -8.7127316402676612e-04  1.0000316640476575e+01 1.0419531885530076e-03 8.5499286344912888e-04  9.9996702660232355e+00 7.4530580927358665e-04 -8.4663431123961760e-04  1.0000100918682364e+01 1.3477748011671725e-03 8.3002348759958738e-04  9.9990750769792349e+00 1.1871981155702205e-03 -8.3115858125271168e-04  9.9988988283677820e+00 1.6533148584842706e-03 8.2505265110300989e-04  9.9982131971500436e+00 2.0747005985778805e-03 -8.1246745335114545e-04  9.9976127551372844e+00 3.0631749767903232e-03 7.8665848638929546e-04  9.9960554863594027e+00 3.5299544931582140e-03 -7.6437732309401812e-04  9.9952379695474054e+00 5.4120956116497547e-03 7.5394818682006978e-04  9.9929820634891318e+00 6.8480171726145117e-03 -7.5141780244288275e-04  9.9907464144204123e+00 9.3875212019523535e-03 7.4418308965504710e-04  9.9874511641194736e+00 1.2208893569960874e-02 -7.2281458608831341e-04  9.9838301828442120e+00 1.6646207055632873e-02 6.9318676380011423e-04  9.9781930651006263e+00 2.0991899030940262e-02 -6.6779829648170653e-04  9.9723279177594328e+00 2.7906411784456547e-02 6.5017112509214720e-04  9.9641293440833447e+00 3.5330289650058182e-02 -6.3341525460631218e-04  9.9545832097518439e+00 4.5247386188033797e-02 5.9956279329379208e-04  9.9425373438471301e+00 5.6517960539159258e-02 -5.5022423949349013e-04  9.9288842127673114e+00 7.1206032801132219e-02 4.8782775676744074e-04  9.9114802610924926e+00 8.7119542213223850e-02 -4.3743090233698252e-04  9.8922593543705926e+00 1.0739248293901643e-01 3.9364149402576102e-04  9.8690397316788587e+00 1.2975549463255404e-01 -3.6072150281941571e-04  9.8428789127609697e+00 1.5637389278191954e-01 3.1748059993895342e-04  9.8125333939787840e+00 1.8587461381379297e-01 -2.7644371700880581e-04  9.7791972819088375e+00 2.2035635344380741e-01 2.4618688903387713e-04  9.7407508308599393e+00 2.5750175897463451e-01 -2.5299267315504902e-04  9.6993337177630625e+00 3.0014008550063459e-01 2.9784399520732242e-04  9.6530045559362705e+00 3.4599918859025014e-01 -3.6774412744401967e-04  9.6030238463036142e+00 3.9687891092734923e-01 4.5008876400843466e-04  9.5484794008854976e+00 4.5122415532656557e-01 -5.3160950136032321e-04  9.4905889045341745e+00 5.1100546914538980e-01 6.4113700864584387e-04  9.4278633300378569e+00 5.7338545173780708e-01 -7.7237534837698032e-04  9.3622018813312486e+00 6.4152350267062364e-01 9.4320040172118284e-04  9.2923135136935695e+00 7.1211472914217244e-01 -1.0995826753694882e-03  9.2192461219779904e+00 7.8795174337367258e-01 1.2491417203659987e-03  9.1426882556178182e+00 8.6579620027112869e-01 -1.3539318418497716e-03  9.0633859379187918e+00 9.4942434082743687e-01 1.4743847931737459e-03  8.9807128512361896e+00 1.0336196324597697e+00 -1.5831701219945998e-03  8.8958241194277274e+00 1.1239268277988950e+00 1.7114985077356761e-03  8.8082306975031930e+00 1.2145869711262172e+00 -1.7827867591739995e-03  8.7183357341959784e+00 1.3105748738895842e+00 1.8145287283042786e-03  8.6265120996850531e+00 1.4065223724906135e+00 -1.7711549169926732e-03  8.5327225011387977e+00 1.5083936433266707e+00 1.7243957359073759e-03  8.4371838851984045e+00 1.6088114897714516e+00 -1.6586391097549291e-03  8.3401714172188814e+00 1.7149734961268028e+00 1.6039613328640437e-03  8.2418714449472361e+00 1.8207231876454506e+00 -1.4973220979774382e-03  8.1420852358137168e+00 1.9301800445009460e+00 1.3453669725220190e-03  8.0415963305711475e+00 2.0394164907424437e+00 -1.1646191841077392e-03  7.9398782065599462e+00 2.1536869173585718e+00 1.0720452624899820e-03  7.8375212586890752e+00 2.2655268558979538e+00 -1.1439324385226102e-03  7.7343746255607098e+00 2.3817674348985620e+00 1.3322807385375854e-03  7.6308898685007494e+00 2.4991561934999815e+00 -1.4478619285049428e-03  7.5264892020981957e+00 2.6166168338571838e+00 1.3317616123249961e-03  7.4223447450928273e+00 2.7347588257121331e+00 -1.0982154716436361e-03  7.3173622457474821e+00 2.8584174386079111e+00 8.9853584286767377e-04  7.2125271286851715e+00 2.9775367947050073e+00 -7.3650724635669022e-04  7.1075555237126471e+00 3.0993713548305726e+00 3.3982010781359508e-04  7.0024195390410053e+00 3.2260502199644905e+00 1.2886139827046308e-04  6.8974995113168696e+00 3.3483839448826425e+00 -3.6145043522117423e-04  6.7925513325240336e+00 3.4732026363721555e+00 2.4423992793388901e-04  6.6879175771476795e+00 3.6001048255446486e+00 -3.7631180130710823e-04  6.5831266332173826e+00 3.7278351855486132e+00 8.6922267911477755e-04  6.4793560039117031e+00 3.8530409043050615e+00 -1.2843153457772329e-03  6.3746219101600747e+00 3.9839037145576475e+00 1.3843469131236985e-03  6.271