<?xml version="1.0"?>
<VTKFile type="UnstructuredGrid"  version="0.1"  >
<UnstructuredGrid>
<Piece  NumberOfPoints="8241" NumberOfCells="16000">
<Points>
<DataArray  type="Float64"  NumberOfComponents="3"  format="ascii">-5 -1 0  -4.95 -1 0  -4.9 -1 0  -4.85 -1 0  -4.8 -1 0  -4.75 -1 0  -4.7 -1 0  -4.65 -1 0  -4.6 -1 0  -4.55 -1 0  -4.5 -1 0  -4.45 -1 0  -4.4 -1 0  -4.35 -1 0  -4.3 -1 0  -4.25 -1 0  -4.2 -1 0  -4.15 -1 0  -4.1 -1 0  -4.05 -1 0  -4 -1 0  -3.95 -1 0  -3.9 -1 0  -3.85 -1 0  -3.8 -1 0  -3.75 -1 0  -3.7 -1 0  -3.65 -1 0  -3.6 -1 0  -3.55 -1 0  -3.5 -1 0  -3.45 -1 0  -3.4 -1 0  -3.35 -1 0  -3.3 -1 0  -3.25 -1 0  -3.2 -1 0  -3.15 -1 0  -3.1 -1 0  -3.05 -1 0  -3 -1 0  -2.95 -1 0  -2.9 -1 0  -2.85 -1 0  -2.8 -1 0  -2.75 -1 0  -2.7 -1 0  -2.65 -1 0  -2.6 -1 0  -2.55 -1 0  -2.5 -1 0  -2.45 -1 0  -2.4 -1 0  -2.35 -1 0  -2.3 -1 0  -2.25 -1 0  -2.2 -1 0  -2.15 -1 0  -2.1 -1 0  -2.05 -1 0  -2 -1 0  -1.95 -1 0  -1.9 -1 0  -1.85 -1 0  -1.8 -1 0  -1.75 -1 0  -1.7 -1 0  -1.65 -1 0  -1.6 -1 0  -1.55 -1 0  -1.5 -1 0  -1.45 -1 0  -1.4 -1 0  -1.35 -1 0  -1.3 -1 0  -1.25 -1 0  -1.2 -1 0  -1.15 -1 0  -1.1 -1 0  -1.05 -1 0  -1 -1 0  -0.9500000000000002 -1 0  -0.9000000000000004 -1 0  -0.8499999999999996 -1 0  -0.7999999999999998 -1 0  -0.75 -1 0  -0.7000000000000002 -1 0  -0.6500000000000004 -1 0  -0.5999999999999996 -1 0  -0.5499999999999998 -1 0  -0.5 -1 0  -0.4500000000000002 -1 0  -0.4000000000000004 -1 0  -0.3499999999999996 -1 0  -0.2999999999999998 -1 0  -0.25 -1 0  -0.2000000000000002 -1 0  -0.1500000000000004 -1 0  -0.09999999999999964 -1 0  -0.04999999999999982 -1 0  0 -1 0  0.04999999999999982 -1 0  0.09999999999999964 -1 0  0.1500000000000004 -1 0  0.2000000000000002 -1 0  0.25 -1 0  0.2999999999999998 -1 0  0.3499999999999996 -1 0  0.4000000000000004 -1 0  0.4500000000000002 -1 0  0.5 -1 0  0.5499999999999998 -1 0  0.5999999999999996 -1 0  0.6500000000000004 -1 0  0.7000000000000002 -1 0  0.75 -1 0  0.7999999999999998 -1 0  0.8499999999999996 -1 0  0.9000000000000004 -1 0  0.9500000000000002 -1 0  1 -1 0  1.05 -1 0  1.1 -1 0  1.15 -1 0  1.2 -1 0  1.25 -1 0  1.3 -1 0  1.35 -1 0  1.4 -1 0  1.45 -1 0  1.5 -1 0  1.55 -1 0  1.6 -1 0  1.65 -1 0  1.7 -1 0  1.75 -1 0  1.8 -1 0  1.85 -1 0  1.9 -1 0  1.95 -1 0  2 -1 0  2.05 -1 0  2.1 -1 0  2.15 -1 0  2.2 -1 0  2.25 -1 0  2.3 -1 0  2.35 -1 0  2.4 -1 0  2.45 -1 0  2.5 -1 0  2.55 -1 0  2.6 -1 0  2.65 -1 0  2.7 -1 0  2.75 -1 0  2.8 -1 0  2.85 -1 0  2.9 -1 0  2.95 -1 0  3 -1 0  3.050000000000001 -1 0  3.1 -1 0  3.15 -1 0  3.199999999999999 -1 0  3.25 -1 0  3.300000000000001 -1 0  3.35 -1 0  3.4 -1 0  3.449999999999999 -1 0  3.5 -1 0  3.550000000000001 -1 0  3.6 -1 0  3.65 -1 0  3.699999999999999 -1 0  3.75 -1 0  3.800000000000001 -1 0  3.85 -1 0  3.9 -1 0  3.949999999999999 -1 0  4 -1 0  4.050000000000001 -1 0  4.1 -1 0  4.15 -1 0  4.199999999999999 -1 0  4.25 -1 0  4.300000000000001 -1 0  4.35 -1 0  4.4 -1 0  4.449999999999999 -1 0  4.5 -1 0  4.550000000000001 -1 0  4.6 -1 0  4.65 -1 0  4.699999999999999 -1 0  4.75 -1 0  4.800000000000001 -1 0  4.85 -1 0  4.9 -1 0  4.949999999999999 -1 0  5 -1 0  -5 -0.95 0  -4.95 -0.95 0  -4.9 -0.95 0  -4.85 -0.95 0  -4.8 -0.95 0  -4.75 -0.95 0  -4.7 -0.95 0  -4.65 -0.95 0  -4.6 -0.95 0  -4.55 -0.95 0  -4.5 -0.95 0  -4.45 -0.95 0  -4.4 -0.95 0  -4.35 -0.95 0  -4.3 -0.95 0  -4.25 -0.95 0  -4.2 -0.95 0  -4.15 -0.95 0  -4.1 -0.95 0  -4.05 -0.95 0  -4 -0.95 0  -3.95 -0.95 0  -3.9 -0.95 0  -3.85 -0.95 0  -3.8 -0.95 0  -3.75 -0.95 0  -3.7 -0.95 0  -3.65 -0.95 0  -3.6 -0.95 0  -3.55 -0.95 0  -3.5 -0.95 0  -3.45 -0.95 0  -3.4 -0.95 0  -3.35 -0.95 0  -3.3 -0.95 0  -3.25 -0.95 0  -3.2 -0.95 0  -3.15 -0.95 0  -3.1 -0.95 0  -3.05 -0.95 0  -3 -0.95 0  -2.95 -0.95 0  -2.9 -0.95 0  -2.85 -0.95 0  -2.8 -0.95 0  -2.75 -0.95 0  -2.7 -0.95 0  -2.65 -0.95 0  -2.6 -0.95 0  -2.55 -0.95 0  -2.5 -0.95 0  -2.45 -0.95 0  -2.4 -0.95 0  -2.35 -0.95 0  -2.3 -0.95 0  -2.25 -0.95 0  -2.2 -0.95 0  -2.15 -0.95 0  -2.1 -0.95 0  -2.05 -0.95 0  -2 -0.95 0  -1.95 -0.95 0  -1.9 -0.95 0  -1.85 -0.95 0  -1.8 -0.95 0  -1.75 -0.95 0  -1.7 -0.95 0  -1.65 -0.95 0  -1.6 -0.95 0  -1.55 -0.95 0  -1.5 -0.95 0  -1.45 -0.95 0  -1.4 -0.95 0  -1.35 -0.95 0  -1.3 -0.95 0  -1.25 -0.95 0  -1.2 -0.95 0  -1.15 -0.95 0  -1.1 -0.95 0  -1.05 -0.95 0  -1 -0.95 0  -0.9500000000000002 -0.95 0  -0.9000000000000004 -0.95 0  -0.8499999999999996 -0.95 0  -0.7999999999999998 -0.95 0  -0.75 -0.95 0  -0.7000000000000002 -0.95 0  -0.6500000000000004 -0.95 0  -0.5999999999999996 -0.95 0  -0.5499999999999998 -0.95 0  -0.5 -0.95 0  -0.4500000000000002 -0.95 0  -0.4000000000000004 -0.95 0  -0.3499999999999996 -0.95 0  -0.2999999999999998 -0.95 0  -0.25 -0.95 0  -0.2000000000000002 -0.95 0  -0.1500000000000004 -0.95 0  -0.09999999999999964 -0.95 0  -0.04999999999999982 -0.95 0  0 -0.95 0  0.04999999999999982 -0.95 0  0.09999999999999964 -0.95 0  0.1500000000000004 -0.95 0  0.2000000000000002 -0.95 0  0.25 -0.95 0  0.2999999999999998 -0.95 0  0.3499999999999996 -0.95 0  0.4000000000000004 -0.95 0  0.4500000000000002 -0.95 0  0.5 -0.95 0  0.5499999999999998 -0.95 0  0.5999999999999996 -0.95 0  0.6500000000000004 -0.95 0  0.7000000000000002 -0.95 0  0.75 -0.95 0  0.7999999999999998 -0.95 0  0.8499999999999996 -0.95 0  0.9000000000000004 -0.95 0  0.9500000000000002 -0.95 0  1 -0.95 0  1.05 -0.95 0  1.1 -0.95 0  1.15 -0.95 0  1.2 -0.95 0  1.25 -0.95 0  1.3 -0.95 0  1.35 -0.95 0  1.4 -0.95 0  1.45 -0.95 0  1.5 -0.95 0  1.55 -0.95 0  1.6 -0.95 0  1.65 -0.95 0  1.7 -0.95 0  1.75 -0.95 0  1.8 -0.95 0  1.85 -0.95 0  1.9 -0.95 0  1.95 -0.95 0  2 -0.95 0  2.05 -0.95 0  2.1 -0.95 0  2.15 -0.95 0  2.2 -0.95 0  2.25 -0.95 0  2.3 -0.95 0  2.35 -0.95 0  2.4 -0.95 0  2.45 -0.95 0  2.5 -0.95 0  2.55 -0.95 0  2.6 -0.95 0  2.65 -0.95 0  2.7 -0.95 0  2.75 -0.95 0  2.8 -0.95 0  2.85 -0.95 0  2.9 -0.95 0  2.95 -0.95 0  3 -0.95 0  3.050000000000001 -0.95 0  3.1 -0.95 0  3.15 -0.95 0  3.199999999999999 -0.95 0  3.25 -0.95 0  3.300000000000001 -0.95 0  3.35 -0.95 0  3.4 -0.95 0  3.449999999999999 -0.95 0  3.5 -0.95 0  3.550000000000001 -0.95 0  3.6 -0.95 0  3.65 -0.95 0  3.699999999999999 -0.95 0  3.75 -0.95 0  3.800000000000001 -0.95 0  3.85 -0.95 0  3.9 -0.95 0  3.949999999999999 -0.95 0  4 -0.95 0  4.050000000000001 -0.95 0  4.1 -0.95 0  4.15 -0.95 0  4.199999999999999 -0.95 0  4.25 -0.95 0  4.300000000000001 -0.95 0  4.35 -0.95 0  4.4 -0.95 0  4.449999999999999 -0.95 0  4.5 -0.95 0  4.550000000000001 -0.95 0  4.6 -0.95 0  4.65 -0.95 0  4.699999999999999 -0.95 0  4.75 -0.95 0  4.800000000000001 -0.95 0  4.85 -0.95 0  4.9 -0.95 0  4.949999999999999 -0.95 0  5 -0.95 0  -5 -0.9 0  -4.95 -0.9 0  -4.9 -0.9 0  -4.85 -0.9 0  -4.8 -0.9 0  -4.75 -0.9 0  -4.7 -0.9 0  -4.65 -0.9 0  -4.6 -0.9 0  -4.55 -0.9 0  -4.5 -0.9 0  -4.45 -0.9 0  -4.4 -0.9 0  -4.35 -0.9 0  -4.3 -0.9 0  -4.25 -0.9 0  -4.2 -0.9 0  -4.15 -0.9 0  -4.1 -0.9 0  -4.05 -0.9 0  -4 -0.9 0  -3.95 -0.9 0  -3.9 -0.9 0  -3.85 -0.9 0  -3.8 -0.9 0  -3.75 -0.9 0  -3.7 -0.9 0  -3.65 -0.9 0  -3.6 -0.9 0  -3.55 -0.9 0  -3.5 -0.9 0  -3.45 -0.9 0  -3.4 -0.9 0  -3.35 -0.9 0  -3.3 -0.9 0  -3.25 -0.9 0  -3.2 -0.9 0  -3.15 -0.9 0  -3.1 -0.9 0  -3.05 -0.9 0  -3 -0.9 0  -2.95 -0.9 0  -2.9 -0.9 0  -2.85 -0.9 0  -2.8 -0.9 0  -2.75 -0.9 0  -2.7 -0.9 0  -2.65 -0.9 0  -2.6 -0.9 0  -2.55 -0.9 0  -2.5 -0.9 0  -2.45 -0.9 0  -2.4 -0.9 0  -2.35 -0.9 0  -2.3 -0.9 0  -2.25 -0.9 0  -2.2 -0.9 0  -2.15 -0.9 0  -2.1 -0.9 0  -2.05 -0.9 0  -2 -0.9 0  -1.95 -0.9 0  -1.9 -0.9 0  -1.85 -0.9 0  -1.8 -0.9 0  -1.75 -0.9 0  -1.7 -0.9 0  -1.65 -0.9 0  -1.6 -0.9 0  -1.55 -0.9 0  -1.5 -0.9 0  -1.45 -0.9 0  -1.4 -0.9 0  -1.35 -0.9 0  -1.3 -0.9 0  -1.25 -0.9 0  -1.2 -0.9 0  -1.15 -0.9 0  -1.1 -0.9 0  -1.05 -0.9 0  -1 -0.9 0  -0.9500000000000002 -0.9 0  -0.9000000000000004 -0.9 0  -0.8499999999999996 -0.9 0  -0.7999999999999998 -0.9 0  -0.75 -0.9 0  -0.7000000000000002 -0.9 0  -0.6500000000000004 -0.9 0  -0.5999999999999996 -0.9 0  -0.5499999999999998 -0.9 0  -0.5 -0.9 0  -0.4500000000000002 -0.9 0  -0.4000000000000004 -0.9 0  -0.3499999999999996 -0.9 0  -0.2999999999999998 -0.9 0  -0.25 -0.9 0  -0.2000000000000002 -0.9 0  -0.1500000000000004 -0.9 0  -0.09999999999999964 -0.9 0  -0.04999999999999982 -0.9 0  0 -0.9 0  0.04999999999999982 -0.9 0  0.09999999999999964 -0.9 0  0.1500000000000004 -0.9 0  0.2000000000000002 -0.9 0  0.25 -0.9 0  0.2999999999999998 -0.9 0  0.3499999999999996 -0.9 0  0.4000000000000004 -0.9 0  0.4500000000000002 -0.9 0  0.5 -0.9 0  0.5499999999999998 -0.9 0  0.5999999999999996 -0.9 0  0.6500000000000004 -0.9 0  0.7000000000000002 -0.9 0  0.75 -0.9 0  0.7999999999999998 -0.9 0  0.8499999999999996 -0.9 0  0.9000000000000004 -0.9 0  0.9500000000000002 -0.9 0  1 -0.9 0  1.05 -0.9 0  1.1 -0.9 0  1.15 -0.9 0  1.2 -0.9 0  1.25 -0.9 0  1.3 -0.9 0  1.35 -0.9 0  1.4 -0.9 0  1.45 -0.9 0  1.5 -0.9 0  1.55 -0.9 0  1.6 -0.9 0  1.65 -0.9 0  1.7 -0.9 0  1.75 -0.9 0  1.8 -0.9 0  1.85 -0.9 0  1.9 -0.9 0  1.95 -0.9 0  2 -0.9 0  2.05 -0.9 0  2.1 -0.9 0  2.15 -0.9 0  2.2 -0.9 0  2.25 -0.9 0  2.3 -0.9 0  2.35 -0.9 0  2.4 -0.9 0  2.45 -0.9 0  2.5 -0.9 0  2.55 -0.9 0  2.6 -0.9 0  2.65 -0.9 0  2.7 -0.9 0  2.75 -0.9 0  2.8 -0.9 0  2.85 -0.9 0  2.9 -0.9 0  2.95 -0.9 0  3 -0.9 0  3.050000000000001 -0.9 0  3.1 -0.9 0  3.15 -0.9 0  3.199999999999999 -0.9 0  3.25 -0.9 0  3.300000000000001 -0.9 0  3.35 -0.9 0  3.4 -0.9 0  3.449999999999999 -0.9 0  3.5 -0.9 0  3.550000000000001 -0.9 0  3.6 -0.9 0  3.65 -0.9 0  3.699999999999999 -0.9 0  3.75 -0.9 0  3.800000000000001 -0.9 0  3.85 -0.9 0  3.9 -0.9 0  3.949999999999999 -0.9 0  4 -0.9 0  4.050000000000001 -0.9 0  4.1 -0.9 0  4.15 -0.9 0  4.199999999999999 -0.9 0  4.25 -0.9 0  4.300000000000001 -0.9 0  4.35 -0.9 0  4.4 -0.9 0  4.449999999999999 -0.9 0  4.5 -0.9 0  4.550000000000001 -0.9 0  4.6 -0.9 0  4.65 -0.9 0  4.699999999999999 -0.9 0  4.75 -0.9 0  4.800000000000001 -0.9 0  4.85 -0.9 0  4.9 -0.9 0  4.949999999999999 -0.9 0  5 -0.9 0  -5 -0.85 0  -4.95 -0.85 0  -4.9 -0.85 0  -4.85 -0.85 0  -4.8 -0.85 0  -4.75 -0.85 0  -4.7 -0.85 0  -4.65 -0.85 0  -4.6 -0.85 0  -4.55 -0.85 0  -4.5 -0.85 0  -
[...]
<PointData  Vectors="f_15"> 
<DataArray  type="Float64"  Name="f_15"  NumberOfComponents="3" format="ascii">1.1767686023699007e+00 0.0000000000000000e+00 0.0000000000000000e+00  1.1658123068937976e+00 1.0110314173534304e-02 0.0000000000000000e+00  1.1785100888390334e+00 6.2496493157036065e-02 0.0000000000000000e+00  1.1629699227908192e+00 1.1570478745308600e-01 0.0000000000000000e+00  1.1801993705098366e+00 1.1931232230790441e-01 0.0000000000000000e+00  1.1647694912886359e+00 1.5483556442859048e-01 0.0000000000000000e+00  1.1769413433052809e+00 1.9594437288238353e-01 0.0000000000000000e+00  1.1671876070519134e+00 2.1592829946947870e-01 0.0000000000000000e+00  1.1778116168978336e+00 2.3792678221849345e-01 0.0000000000000000e+00  1.1648887240047607e+00 2.8100184532205619e-01 0.0000000000000000e+00  1.1795836044847110e+00 3.0362164255879293e-01 0.0000000000000000e+00  1.1664475872192246e+00 3.3095517135595576e-01 0.0000000000000000e+00  1.1772047629736366e+00 3.5505846662996443e-01 0.0000000000000000e+00  1.1688537066589053e+00 3.9445256256130973e-01 0.0000000000000000e+00  1.1789649760981542e+00 4.1781417779233676e-01 0.0000000000000000e+00  1.1672257362424225e+00 4.3259537040643242e-01 0.0000000000000000e+00  1.1821358336579924e+00 4.8274109485647826e-01 0.0000000000000000e+00  1.1697866522090365e+00 4.8719838649691910e-01 0.0000000000000000e+00  1.1819821791246596e+00 5.3388129617515789e-01 0.0000000000000000e+00  1.1739974531650639e+00 5.2998870762665606e-01 0.0000000000000000e+00  1.1864076775210923e+00 5.9134850170106434e-01 0.0000000000000000e+00  1.1756658334849737e+00 5.7592956071956780e-01 0.0000000000000000e+00  1.1929166665222963e+00 6.3235846792799144e-01 0.0000000000000000e+00  1.1823804129655950e+00 6.1635413285160667e-01 0.0000000000000000e+00  1.1975874180986139e+00 6.7340901380260476e-01 0.0000000000000000e+00  1.1915464960062372e+00 6.5314897872117905e-01 0.0000000000000000e+00  1.2069041323141096e+00 7.0699818733199005e-01 0.0000000000000000e+00  1.1991217570250636e+00 6.8428140488656919e-01 0.0000000000000000e+00  1.2179265007396460e+00 7.3442473494692728e-01 0.0000000000000000e+00  1.2105300948032118e+00 7.1876065729594540e-01 0.0000000000000000e+00  1.2264621719886759e+00 7.6153384390759782e-01 0.0000000000000000e+00  1.2229384146010780e+00 7.4684820620801018e-01 0.0000000000000000e+00  1.2375506358223731e+00 7.8905081034692193e-01 0.0000000000000000e+00  1.2327622090332009e+00 7.7900126891998123e-01 0.0000000000000000e+00  1.2490904010247770e+00 8.1388464743519373e-01 0.0000000000000000e+00  1.2447092014972985e+00 8.1238803885366118e-01 0.0000000000000000e+00  1.2581795161226945e+00 8.4037626296977641e-01 0.0000000000000000e+00  1.2571355369162871e+00 8.4302995130234892e-01 0.0000000000000000e+00  1.2689916593436092e+00 8.6952340619487012e-01 0.0000000000000000e+00  1.2674453998885118e+00 8.7522582079463740e-01 0.0000000000000000e+00  1.2803593041279684e+00 8.9598998008812336e-01 0.0000000000000000e+00  1.2790309874217867e+00 9.0829103899988961e-01 0.0000000000000000e+00  1.2901195784017210e+00 9.2405380636887324e-01 0.0000000000000000e+00  1.2910713525611832e+00 9.3914875370171413e-01 0.0000000000000000e+00  1.3008628458272098e+00 9.5354278684458593e-01 0.0000000000000000e+00  1.3018016826079386e+00 9.7001725121279170e-01 0.0000000000000000e+00  1.3120844575737647e+00 9.8168039730741186e-01 0.0000000000000000e+00  1.3130924139489537e+00 1.0018330957953112e+00 0.0000000000000000e+00  1.3224256649669197e+00 1.0099949195384870e+00 0.0000000000000000e+00  1.3247469974225252e+00 1.0325139246918325e+00 0.0000000000000000e+00  1.3330181222451996e+00 1.0394161910724005e+00 0.0000000000000000e+00  1.3359383415671784e+00 1.0621357693934064e+00 0.0000000000000000e+00  1.3437833168202644e+00 1.0688658726586127e+00 0.0000000000000000e+00  1.3472346876889354e+00 1.0920894874860638e+00 0.0000000000000000e+00  1.3544084537249874e+00 1.0976270916802622e+00 0.0000000000000000e+00  1.3585745233686439e+00 1.1220100473245773e+00 0.0000000000000000e+00  1.3649854870888982e+00 1.1271046069831319e+00 0.0000000000000000e+00  1.3700727699431299e+00 1.1502927892717834e+00 0.0000000000000000e+00  1.3754549063270458e+00 1.1578962732215858e+00 0.0000000000000000e+00  1.3813244967392242e+00 1.1783657126949332e+00 0.0000000000000000e+00  1.3865088664208121e+00 1.1876851265977879e+00 0.0000000000000000e+00  1.3921169405199603e+00 1.2074613427630636e+00 0.0000000000000000e+00  1.3974983484672159e+00 1.2173695308572254e+00 0.0000000000000000e+00  1.4035077411713970e+00 1.2351501389041071e+00 0.0000000000000000e+00  1.4081014590561507e+00 1.2486437074079624e+00 0.0000000000000000e+00  1.4145570508206613e+00 1.2624399579937451e+00 0.0000000000000000e+00  1.4197453650984253e+00 1.2783250922406348e+00 0.0000000000000000e+00  1.4248111713660319e+00 1.2922978277744259e+00 0.0000000000000000e+00  1.4313473742095011e+00 1.3059332202258314e+00 0.0000000000000000e+00  1.4360105533124568e+00 1.3222000394010336e+00 0.0000000000000000e+00  1.4421864013162335e+00 1.3350988415111742e+00 0.0000000000000000e+00  1.4471675679107328e+00 1.3501368917968666e+00 0.0000000000000000e+00  1.4539647401494551e+00 1.3646465236828049e+00 0.0000000000000000e+00  1.4576071017446985e+00 1.3797996151961238e+00 0.0000000000000000e+00  1.4656200702998401e+00 1.3907759675667362e+00 0.0000000000000000e+00  1.4691333040169154e+00 1.4122152890064688e+00 0.0000000000000000e+00  1.4763743677898273e+00 1.4162485145521473e+00 0.0000000000000000e+00  1.4807444821465119e+00 1.4425013464930816e+00 0.0000000000000000e+00  1.4879467162758566e+00 1.4445083376748589e+00 0.0000000000000000e+00  1.4917416216499650e+00 1.4720101634942688e+00 0.0000000000000000e+00  1.4993187946854782e+00 1.4697022681427323e+00 0.0000000000000000e+00  1.5037412716856435e+00 1.5072313893332767e+00 0.0000000000000000e+00  1.5099523664207724e+00 1.4905640649798322e+00 0.0000000000000000e+00  1.5155882111795413e+00 1.5421713016089851e+00 0.0000000000000000e+00  1.5215231751521143e+00 1.5171470852092470e+00 0.0000000000000000e+00  1.5267553109712952e+00 1.5707859953995111e+00 0.0000000000000000e+00  1.5329223125682316e+00 1.5463644280050397e+00 0.0000000000000000e+00  1.5387497258053646e+00 1.6031957277630149e+00 0.0000000000000000e+00  1.5438172411010567e+00 1.5694222411279539e+00 0.0000000000000000e+00  1.5503673199519117e+00 1.6384351011386411e+00 0.0000000000000000e+00  1.5556611898590043e+00 1.5967829461910634e+00 0.0000000000000000e+00  1.5614693539247357e+00 1.6651397118626641e+00 0.0000000000000000e+00  1.5671133177441485e+00 1.6307881113319038e+00 0.0000000000000000e+00  1.5734340777801832e+00 1.6917425593215571e+00 0.0000000000000000e+00  1.5782117473693480e+00 1.6595010137892761e+00 0.0000000000000000e+00  1.5848279063586583e+00 1.7222529959043529e+00 0.0000000000000000e+00  1.5901835629953016e+00 1.6896654539425888e+00 0.0000000000000000e+00  1.5960193340679165e+00 1.7458648741869931e+00 0.0000000000000000e+00  1.6013703532559975e+00 1.7257107145764334e+00 0.0000000000000000e+00  1.6081714904996811e+00 1.7684863886035342e+00 0.0000000000000000e+00  1.6125475348667588e+00 1.7570070829837563e+00 0.0000000000000000e+00  1.6193844093221057e+00 1.7953455688065632e+00 0.0000000000000000e+00  1.6250840517549814e+00 1.7865202604685051e+00 0.0000000000000000e+00  1.6312677670867550e+00 1.8177534189767390e+00 0.0000000000000000e+00  1.6375610188756786e+00 1.8163446585482603e+00 0.0000000000000000e+00  1.6464914182124699e+00 1.8358733922078410e+00 0.0000000000000000e+00  1.6538901949970795e+00 1.8359183402096164e+00 0.0000000000000000e+00  1.6658099609361683e+00 1.8465352791019092e+00 0.0000000000000000e+00  1.6791800284586689e+00 1.8409870267164552e+00 0.0000000000000000e+00  1.6948154215160522e+00 1.8392703731936146e+00 0.0000000000000000e+00  1.7124602450407211e+00 1.8309773347332774e+00 0.0000000000000000e+00  1.7328537822596979e+00 1.8203936472111948e+00 0.0000000000000000e+00  1.7490790395121683e+00 1.8147928051527338e+00 0.0000000000000000e+00  1.7664529857838855e+00 1.8096278319487189e+00 0.0000000000000000e+00  1.7775071733929084e+00 1.8135987912601665e+00 0.0000000000000000e+00  1.7867209945026530e+00 1.8243620400834908e+00 0.0000000000000000e+00  1.7848736686364552e+00 1.8450935638692709e+00 0.0000000000000000e+00  1.7807323421459460e+00 1.8920476560594157e+00 0.0000000000000000e+00  1.7458071504499737e+00 1.9596964984851410e+00 0.0000000000000000e+00  1.7010647871057065e+00 2.0791518161221760e+00 0.0000000000000000e+00  1.6114157565273086e+00 2.2343970558901725e+00 0.0000000000000000e+00  1.7163081890856144e+00 1.9844572612679947e+00 0.0000000000000000e+00  2.3452405250311332e+00 5.5251574280327720e-01 0.0000000000000000e+00  2.8072008456463577e+00 -2.5036475059304308e-01 0.0000000000000000e+00  2.8358010594783774e+00 -2.9594030742159783e-01 0.0000000000000000e+00  2.8131982149113157e+00 -2.5085243355780240e-01 0.0000000000000000e+00  2.8499422039325495e+00 -2.8021650406716414e-01 0.0000000000000000e+00  2.8622235449570779e+00 -2.7941193093021743e-01 0.0000000000000000e+00  2.8619221445283487e+00 -2.5998356477304602e-01 0.0000000000000000e+00  2.8770304255982753e+00 -2.6018854426573457e-01 0.0000000000000000e+00  2.8738614036302872e+00 -2.3356537003935657e-01 0.0000000000000000e+00  2.8841905764496367e+00 -2.3316710395021467e-01 0.0000000000000000e+00  2.8891324611389204e+00 -2.1719439951119390e-01 0.0000000000000000e+00  2.8978014097401088e+00 -2.1798179616694480e-01 0.0000000000000000e+00  2.8989173954324174e+00 -1.9640485414584238e-01 0.0000000000000000e+00  2.9087225296101842e+00 -2.0026931544789836e-01 0.0000000000000000e+00  2.9089036826867889e+00 -1.7791058956003178e-01 0.0000000000000000e+00  2.9182586975173233e+00 -1.8381065553452092e-01 0.0000000000000000e+00  2.9190623212646569e+00 -1.6259528963569664e-01 0.0000000000000000e+00  2.9269636348251287e+00 -1.6691204923090661e-01 0.0000000000000000e+00  2.9265521941136128e+00 -1.4639049355107195e-01 0.0000000000000000e+00  2.9351121095884212e+00 -1.5136718516590161e-01 0.0000000000000000e+00  2.9338177660962330e+00 -1.3045855610166129e-01 0.0000000000000000e+00  2.9410865461533322e+00 -1.3488367132729343e-01 0.0000000000000000e+00  2.9404434559168564e+00 -1.1559340849365908e-01 0.0000000000000000e+00  2.9465025330338999e+00 -1.1856346714560310e-01 0.0000000000000000e+00  2.9448791164888428e+00 -1.0092223670912928e-01 0.0000000000000000e+00  2.9515785492289415e+00 -1.0345982342885376e-01 0.0000000000000000e+00  2.9489706490849277e+00 -8.8315882463188458e-02 0.0000000000000000e+00  2.9545352987564391e+00 -8.8315604994144495e-02 0.0000000000000000e+00  2.9528771704430392e+00 -7.7776025370254756e-02 0.0000000000000000e+00  2.9572546075888431e+00 -7.4973368632927639e-02 0.0000000000000000e+00  2.9549635943098411e+00 -6.7373953649965290e-02 0.0000000000000000e+00  2.9600116044014344e+00 -6.3967561096810746e-02 0.0000000000000000e+00  2.9568673953449309e+00 -5.8509936572110378e-02 0.0000000000000000e+00  2.9613403937216600e+00 -5.3838295191327358e-02 0.0000000000000000e+00  2.9587734382283002e+00 -5.1843601715835776e-02 0.0000000000000000e+00  2.9628172589635704e+00 -4.5307924119263251e-02 0.0000000000000000e+00  2.9594003586128408e+00 -4.5245970904621617e-02 0.0000000000000000e+00  2.9643685842024916e+00 -4.0554254229887107e-02 0.0000000000000000e+00  2.9603756253476119e+00 -4.1167794752755192e-02 0.0000000000000000e+00  2.9648197053364633e+00 -4.0570667582925608e-02 0.0000000000000000e+00  2.9613691477388588e+00 -4.2814934136795525e-02 0.0000000000000000e+00  2.9658873758100617e+00 -4.6592557496855112e-02 0.0000000000000000e+00  2.9612846147204825e+00 -4.5806010006851909e-02 0.0000000000000000e+00  2.9670116882151989e+00 -5.0821263303095429e-02 0.0000000000000000e+00  2.9619575458620897e+00 -4.3756007545700699e-02 0.0000000000000000e+00  2.9671514740908269e+00 -4.5944001826456173e-02 0.0000000000000000e+00  2.9626739449291652e+00 -3.5928782852585057e-02 0.0000000000000000e+00  2.9681227120354352e+00 -3.6743915412944160e-02 0.0000000000000000e+00  2.9623875558482395e+00 -2.5574865774494939e-02 0.0000000000000000e+00  2.9691673247184918e+00 -2.7983978097789956e-02 0.0000000000000000e+00  2.9628329805212594e+00 -1.9435231377792371e-02 0.0000000000000000e+00  2.9692934279123744e+00 -2.1235431859386221e-02 0.0000000000000000e+00  2.9632984284313291e+00 -1.4546781688796889e-02 0.0000000000000000e+00  2.9701174404448740e+00 -2.1144985213171087e-02 0.0000000000000000e+00  2.9628557738610426e+00 -1.0418233563312959e-02 0.0000000000000000e+00  2.9709498604642834e+00 -2.2991959459717493e-02 0.0000000000000000e+00  2.9630440591423794e+00 -1.0884129779737840e-02 0.0000000000000000e+00  2.9709526220207803e+00 -2.4146233273895007e-02 0.0000000000000000e+00  2.9631458748529962e+00 -1.5151877004370250e-02 0.0000000000000000e+00  2.9716357670731255e+00 -2.3040373841777560e-02 0.0000000000000000e+00  2.9624254091006650e+00 -2.1812179328416646e-02 0.0000000000000000e+00  2.9722279029086436e+00 -2.1127038822303570e-02 0.0000000000000000e+00  2.9623810600885117e+00 -2.6210896686995042e-02 0.0000000000000000e+00  2.9720962269700908e+00 -1.7161422595524035e-02 0.0000000000000000e+00  2.9622121277425051e+00 -2.7157383672391538e-02 0.0000000000000000e+00  2.9727074387839409e+00 -1.1341365595344622e-02 0.0000000000000000e+00  2.9613445829364737e+00 -2.1839225612284609e-02 0.0000000000000000e+00  2.9732863495981228e+00 -1.0477558229827698e-02 0.0000000000000000e+00  2.9611857926160847e+00 -2.0368939847017872e-02 0.0000000000000000e+00  2.9732621428081281e+00 -2.8961823311640277e-02 0.0000000000000000e+00  2.9609814168499473e+00 -4.7813607634582048e-02 0.0000000000000000e+00  2.9739036928069695e+00 -6.3829278436487127e-02 0.0000000000000000e+00  2.9600931479766901e+00 -7.3843213466125102e-02 0.0000000000000000e+00  2.9746842593331406e+00 -7.5312301969891110e-02 0.0000000000000000e+00  2.9599558129249348e+00 -6.8908323352678727e-02 0.0000000000000000e+00  2.9750379650980685e+00 -5.5071056616655865e-02 0.0000000000000000e+00  2.9599908841849674e+00 -5.8302318046247810e-02 0.0000000000000000e+00  2.9761011048849157e+00 -3.0987808965570209e-02 0.0000000000000000e+00  2.9594260953909273e+00 0.0000000000000000e+00 0.0000000000000000e+00  1.1621446154783392e+00 0.0000000000000000e+00 1.2584010591864715e-02  1.1616980030155601e+00 2.6638852387463399e-02 8.7154904365131618e-03  1.1590320167379571e+00 4.9693244492919932e-02 -1.3355319950280489e-02  1.1630197402297846e+00 7.5017126512957624e-02 -1.7433999608240880e-02  1.1602963777156754e+00 1.1014735343506359e-01 3.2354054363292480e-02  1.1600238485951946e+00 1.2982715509892606e-01 -3.6782419188169380e-02  1.1622119078088771e+00 1.8153035495907041e-01 3.3951947380953133e-02  1.1615500699960799e+00 1.7278326166122898e-01 -3.4103241022469151e-02  1.1594715329147061e+00 2.4897023705547833e-01 3.8700391174435703e-02  1.1640225815537544e+00 2.3577322476816645e-01 -4.3919712248936885e-02  1.1609179752736125e+00 3.0257951590547916e-01 4.3180015120001726e-02  1.1621167164750859e+00 2.9114634348175145e-01 -4.0351042985833405e-02  1.1635036379976704e+00 3.6811058092861776e-01 3.8884400462722547e-02  1.1642127189129128e+00 3.4775351463695925e-01 -3.7767461398059247e-02  1.1622473291189839e+00 4.1629805134090614e-01 2.9156981154637933e-02  1.1673018845323742e+00 4.1665093812865450e-01 -1.5553247213868922e-02  1.1653602644914709e+00 4.6059705894412689e-01 4.3547563064229933e-03  1.1667004205900096e+00 4.7710209421168348e-01 -1.2458108956259540e-03  1.1699335300278655e+00 5.0899566502678684e-01 -2.3246198533705981e-03  1.1705219914748939e+00 5.3602226899592709e-01 9.4381460690355079e-03  1.1716056121857314e+00 5.4960124475420180e-01 -1.7213815437258070e-02  1.1763043439756138e+00 5.8879805650204764e-01 1.8335088798193015e-02  1.1780350968065327e+00 5.9495530483900261e-01 -1.8224417439802628e-02  1.1800897403566197e+00 6.3203099299324239e-01 2.0957682228589399e-02  1.1867348710778212e+00 6.3074688802617873e-01 -2.4060407705849201e-02  1.1888110049799820e+00 6.7301403581247110e-01 2.3569752717563234e-02  1.1936953552934388e+00 6.6528714478168127e-01 -2.3050063898490514e-02  1.1996197747783135e+00 7.0440847327024958e-01 2.4268581668468160e-02  1.2047187119005338e+00 6.9748879043106637e-01 -2.4369785806621361e-02  1.2082461628663013e+00 7.3370479245256315e-01 2.2893396452271744e-02  1.2168335545204085e+00 7.2579934585975470e-01 -2.2606967256406898e-02  1.2197948256340088e+00 7.6416246211211103e-01 2.2583841594460755e-02  1.2261749618190536e+00 7.5486611397104830e-01 -2.1548238183357358e-02  1.2318723086239127e+00 7.8983749538545556e-01 2.0035891689296995e-02  1.2376523968362727e+00 7.8635403069870213e-01 -1.9158627712722840e-02  1.2413255735426918e+00 8.1779567789725660e-01 1.7865623172015972e-02  1.2495129639220572e+00 8.1495742962624096e-01 -1.6527963298414512e-02  1.2525935341715084e+00 8.4691080533423468e-01 1.5348232195659655e-02  1.2590910525925447e+00 8.4470103482678982e-01 -1.4593699561753321e-02  1.2643388164275351e+00 8.7366141503868311e-01 1.3341160601729607e-02  1.2701342772608737e+00 8.7623477310373343e-01 -1.2354948741446792e-02  1.2742231618028685e+00 9.0184069317100013e-01 1.1468315299240209e-02  1.2816969955612096e+00 9.0523644168334405e-01 -1.0908999717717846e-02  1.2851763682278503e+00 9.3167317611534384e-01 1.0407123760723452e-02  1.2918737390925812e+00 9.3459358227946210e-01 -1.0101226082643454e-02  1.2966175966649902e+00 9.6040772878370595e-01 9.8601733195891640e-03  1.3028548813962251e+00 9.6521550242417264e-01 -9.7290139619738668e-03  1.3070593415594760e+00 9.8960154451496163e-01 9.7860328393153395e-03  1.3143543745970410e+00 9.9437239719813464e-01 -1.0013563834180072e-02  1.3179495727700230e+00 1.0202740466917599e+00 1.0466413683315868e-02  1.3253384359084270e+00 1.0228850790375459e+00 -1.0960315257856805e-02  1.3291874098861269e+00 1.0511033233510778e+00 1.1603263007454455e-02  1.3365823474921976e+00 1.0522220939496794e+00 -1.2157531974478502e-02  1.3402438951514244e+00 1.0813866201257005e+00 1.2853125561842395e-02  1.3479983812011516e+00 1.0817030698522565e+00 -1.3377802175044848e-02  1.3513852308613210e+00 1.1124080033871730e+00 1.3927815858545902e-02  1.3595096160667179e+00 1.1105356433228313e+00 -1.4303271893252733e-02  1.3625661340567849e+00 1.1440706174627111e+00 1.4631324390923553e-02  1.3709054898148854e+00 1.1400618693074853e+00 -1.4792813158101445e-02  1.3742530587902602e+00 1.1742495228287033e+00 1.4823779364994287e-02  1.3820207096979444e+00 1.1711256652348256e+00 -1.4662203578769175e-02  1.3858692626464582e+00 1.2040765616566411e+00 1.4264124895203349e-02  1.3937327753443856e+00 1.2016633933504539e+00 -1.3674533374889438e-02  1.3971199431620436e+00 1.2347580777718927e+00 1.2937973886686972e-02  1.4052057846394255e+00 1.2324810684896514e+00 -1.2095639559436386e-02  1.4092753512214984e+00 1.2637065180876279e+00 1.1253973330686406e-02  1.4160460517527977e+00 1.2654067722625124e+00 -1.0337998092140924e-02  1.4212730859961968e+00 1.2915004928439500e+00 9.4514511953843958e-03  1.4278504186287688e+00 1.2976122622630601e+00 -8.3688761939133393e-03  1.4324874587600172e+00 1.3210952979587243e+00 7.3820444099330198e-03  1.4395631488493819e+00 1.3280537326296582e+00 -6.1589279880519838e-03  1.4446398906540914e+00 1.3507501228837222e+00 5.2479820771823499e-03  1.4504924214386494e+00 1.3598675824985753e+00 -4.1333374587723916e-03  1.4566766894737773e+00 1.3781905276374322e+00 3.4398095589005698e-03  1.4623824539449348e+00 1.3927545759721962e+00 -2.2658266214029030e-03  1.4678814829972968e+00 1.4062633720914133e+00 1.4098923110420125e-03  1.4741610862646155e+00 1.4231649739677004e+00 2.4618349241084628e-04  1.4800341374229800e+00 1.4365184688528712e+00 -1.4409271160728114e-03  1.4851094933231128e+00 1.4531836147790100e+00 3.3168849323361631e-03  1.4920713346131180e+00 1.4641069383023260e+00 -4.3934745329797633e-03  1.4969530485869620e+00 1.4869955685508860e+00 6.0361741531398880e-03  1.5033438592296875e+00 1.4892327076