<?xml version="1.0"?>
<VTKFile type="UnstructuredGrid"  version="0.1"  >
<UnstructuredGrid>
<Piece  NumberOfPoints="8241" NumberOfCells="16000">
<Points>
<DataArray  type="Float64"  NumberOfComponents="3"  format="ascii">-5 -1 0  -4.95 -1 0  -4.9 -1 0  -4.85 -1 0  -4.8 -1 0  -4.75 -1 0  -4.7 -1 0  -4.65 -1 0  -4.6 -1 0  -4.55 -1 0  -4.5 -1 0  -4.45 -1 0  -4.4 -1 0  -4.35 -1 0  -4.3 -1 0  -4.25 -1 0  -4.2 -1 0  -4.15 -1 0  -4.1 -1 0  -4.05 -1 0  -4 -1 0  -3.95 -1 0  -3.9 -1 0  -3.85 -1 0  -3.8 -1 0  -3.75 -1 0  -3.7 -1 0  -3.65 -1 0  -3.6 -1 0  -3.55 -1 0  -3.5 -1 0  -3.45 -1 0  -3.4 -1 0  -3.35 -1 0  -3.3 -1 0  -3.25 -1 0  -3.2 -1 0  -3.15 -1 0  -3.1 -1 0  -3.05 -1 0  -3 -1 0  -2.95 -1 0  -2.9 -1 0  -2.85 -1 0  -2.8 -1 0  -2.75 -1 0  -2.7 -1 0  -2.65 -1 0  -2.6 -1 0  -2.55 -1 0  -2.5 -1 0  -2.45 -1 0  -2.4 -1 0  -2.35 -1 0  -2.3 -1 0  -2.25 -1 0  -2.2 -1 0  -2.15 -1 0  -2.1 -1 0  -2.05 -1 0  -2 -1 0  -1.95 -1 0  -1.9 -1 0  -1.85 -1 0  -1.8 -1 0  -1.75 -1 0  -1.7 -1 0  -1.65 -1 0  -1.6 -1 0  -1.55 -1 0  -1.5 -1 0  -1.45 -1 0  -1.4 -1 0  -1.35 -1 0  -1.3 -1 0  -1.25 -1 0  -1.2 -1 0  -1.15 -1 0  -1.1 -1 0  -1.05 -1 0  -1 -1 0  -0.9500000000000002 -1 0  -0.9000000000000004 -1 0  -0.8499999999999996 -1 0  -0.7999999999999998 -1 0  -0.75 -1 0  -0.7000000000000002 -1 0  -0.6500000000000004 -1 0  -0.5999999999999996 -1 0  -0.5499999999999998 -1 0  -0.5 -1 0  -0.4500000000000002 -1 0  -0.4000000000000004 -1 0  -0.3499999999999996 -1 0  -0.2999999999999998 -1 0  -0.25 -1 0  -0.2000000000000002 -1 0  -0.1500000000000004 -1 0  -0.09999999999999964 -1 0  -0.04999999999999982 -1 0  0 -1 0  0.04999999999999982 -1 0  0.09999999999999964 -1 0  0.1500000000000004 -1 0  0.2000000000000002 -1 0  0.25 -1 0  0.2999999999999998 -1 0  0.3499999999999996 -1 0  0.4000000000000004 -1 0  0.4500000000000002 -1 0  0.5 -1 0  0.5499999999999998 -1 0  0.5999999999999996 -1 0  0.6500000000000004 -1 0  0.7000000000000002 -1 0  0.75 -1 0  0.7999999999999998 -1 0  0.8499999999999996 -1 0  0.9000000000000004 -1 0  0.9500000000000002 -1 0  1 -1 0  1.05 -1 0  1.1 -1 0  1.15 -1 0  1.2 -1 0  1.25 -1 0  1.3 -1 0  1.35 -1 0  1.4 -1 0  1.45 -1 0  1.5 -1 0  1.55 -1 0  1.6 -1 0  1.65 -1 0  1.7 -1 0  1.75 -1 0  1.8 -1 0  1.85 -1 0  1.9 -1 0  1.95 -1 0  2 -1 0  2.05 -1 0  2.1 -1 0  2.15 -1 0  2.2 -1 0  2.25 -1 0  2.3 -1 0  2.35 -1 0  2.4 -1 0  2.45 -1 0  2.5 -1 0  2.55 -1 0  2.6 -1 0  2.65 -1 0  2.7 -1 0  2.75 -1 0  2.8 -1 0  2.85 -1 0  2.9 -1 0  2.95 -1 0  3 -1 0  3.050000000000001 -1 0  3.1 -1 0  3.15 -1 0  3.199999999999999 -1 0  3.25 -1 0  3.300000000000001 -1 0  3.35 -1 0  3.4 -1 0  3.449999999999999 -1 0  3.5 -1 0  3.550000000000001 -1 0  3.6 -1 0  3.65 -1 0  3.699999999999999 -1 0  3.75 -1 0  3.800000000000001 -1 0  3.85 -1 0  3.9 -1 0  3.949999999999999 -1 0  4 -1 0  4.050000000000001 -1 0  4.1 -1 0  4.15 -1 0  4.199999999999999 -1 0  4.25 -1 0  4.300000000000001 -1 0  4.35 -1 0  4.4 -1 0  4.449999999999999 -1 0  4.5 -1 0  4.550000000000001 -1 0  4.6 -1 0  4.65 -1 0  4.699999999999999 -1 0  4.75 -1 0  4.800000000000001 -1 0  4.85 -1 0  4.9 -1 0  4.949999999999999 -1 0  5 -1 0  -5 -0.95 0  -4.95 -0.95 0  -4.9 -0.95 0  -4.85 -0.95 0  -4.8 -0.95 0  -4.75 -0.95 0  -4.7 -0.95 0  -4.65 -0.95 0  -4.6 -0.95 0  -4.55 -0.95 0  -4.5 -0.95 0  -4.45 -0.95 0  -4.4 -0.95 0  -4.35 -0.95 0  -4.3 -0.95 0  -4.25 -0.95 0  -4.2 -0.95 0  -4.15 -0.95 0  -4.1 -0.95 0  -4.05 -0.95 0  -4 -0.95 0  -3.95 -0.95 0  -3.9 -0.95 0  -3.85 -0.95 0  -3.8 -0.95 0  -3.75 -0.95 0  -3.7 -0.95 0  -3.65 -0.95 0  -3.6 -0.95 0  -3.55 -0.95 0  -3.5 -0.95 0  -3.45 -0.95 0  -3.4 -0.95 0  -3.35 -0.95 0  -3.3 -0.95 0  -3.25 -0.95 0  -3.2 -0.95 0  -3.15 -0.95 0  -3.1 -0.95 0  -3.05 -0.95 0  -3 -0.95 0  -2.95 -0.95 0  -2.9 -0.95 0  -2.85 -0.95 0  -2.8 -0.95 0  -2.75 -0.95 0  -2.7 -0.95 0  -2.65 -0.95 0  -2.6 -0.95 0  -2.55 -0.95 0  -2.5 -0.95 0  -2.45 -0.95 0  -2.4 -0.95 0  -2.35 -0.95 0  -2.3 -0.95 0  -2.25 -0.95 0  -2.2 -0.95 0  -2.15 -0.95 0  -2.1 -0.95 0  -2.05 -0.95 0  -2 -0.95 0  -1.95 -0.95 0  -1.9 -0.95 0  -1.85 -0.95 0  -1.8 -0.95 0  -1.75 -0.95 0  -1.7 -0.95 0  -1.65 -0.95 0  -1.6 -0.95 0  -1.55 -0.95 0  -1.5 -0.95 0  -1.45 -0.95 0  -1.4 -0.95 0  -1.35 -0.95 0  -1.3 -0.95 0  -1.25 -0.95 0  -1.2 -0.95 0  -1.15 -0.95 0  -1.1 -0.95 0  -1.05 -0.95 0  -1 -0.95 0  -0.9500000000000002 -0.95 0  -0.9000000000000004 -0.95 0  -0.8499999999999996 -0.95 0  -0.7999999999999998 -0.95 0  -0.75 -0.95 0  -0.7000000000000002 -0.95 0  -0.6500000000000004 -0.95 0  -0.5999999999999996 -0.95 0  -0.5499999999999998 -0.95 0  -0.5 -0.95 0  -0.4500000000000002 -0.95 0  -0.4000000000000004 -0.95 0  -0.3499999999999996 -0.95 0  -0.2999999999999998 -0.95 0  -0.25 -0.95 0  -0.2000000000000002 -0.95 0  -0.1500000000000004 -0.95 0  -0.09999999999999964 -0.95 0  -0.04999999999999982 -0.95 0  0 -0.95 0  0.04999999999999982 -0.95 0  0.09999999999999964 -0.95 0  0.1500000000000004 -0.95 0  0.2000000000000002 -0.95 0  0.25 -0.95 0  0.2999999999999998 -0.95 0  0.3499999999999996 -0.95 0  0.4000000000000004 -0.95 0  0.4500000000000002 -0.95 0  0.5 -0.95 0  0.5499999999999998 -0.95 0  0.5999999999999996 -0.95 0  0.6500000000000004 -0.95 0  0.7000000000000002 -0.95 0  0.75 -0.95 0  0.7999999999999998 -0.95 0  0.8499999999999996 -0.95 0  0.9000000000000004 -0.95 0  0.9500000000000002 -0.95 0  1 -0.95 0  1.05 -0.95 0  1.1 -0.95 0  1.15 -0.95 0  1.2 -0.95 0  1.25 -0.95 0  1.3 -0.95 0  1.35 -0.95 0  1.4 -0.95 0  1.45 -0.95 0  1.5 -0.95 0  1.55 -0.95 0  1.6 -0.95 0  1.65 -0.95 0  1.7 -0.95 0  1.75 -0.95 0  1.8 -0.95 0  1.85 -0.95 0  1.9 -0.95 0  1.95 -0.95 0  2 -0.95 0  2.05 -0.95 0  2.1 -0.95 0  2.15 -0.95 0  2.2 -0.95 0  2.25 -0.95 0  2.3 -0.95 0  2.35 -0.95 0  2.4 -0.95 0  2.45 -0.95 0  2.5 -0.95 0  2.55 -0.95 0  2.6 -0.95 0  2.65 -0.95 0  2.7 -0.95 0  2.75 -0.95 0  2.8 -0.95 0  2.85 -0.95 0  2.9 -0.95 0  2.95 -0.95 0  3 -0.95 0  3.050000000000001 -0.95 0  3.1 -0.95 0  3.15 -0.95 0  3.199999999999999 -0.95 0  3.25 -0.95 0  3.300000000000001 -0.95 0  3.35 -0.95 0  3.4 -0.95 0  3.449999999999999 -0.95 0  3.5 -0.95 0  3.550000000000001 -0.95 0  3.6 -0.95 0  3.65 -0.95 0  3.699999999999999 -0.95 0  3.75 -0.95 0  3.800000000000001 -0.95 0  3.85 -0.95 0  3.9 -0.95 0  3.949999999999999 -0.95 0  4 -0.95 0  4.050000000000001 -0.95 0  4.1 -0.95 0  4.15 -0.95 0  4.199999999999999 -0.95 0  4.25 -0.95 0  4.300000000000001 -0.95 0  4.35 -0.95 0  4.4 -0.95 0  4.449999999999999 -0.95 0  4.5 -0.95 0  4.550000000000001 -0.95 0  4.6 -0.95 0  4.65 -0.95 0  4.699999999999999 -0.95 0  4.75 -0.95 0  4.800000000000001 -0.95 0  4.85 -0.95 0  4.9 -0.95 0  4.949999999999999 -0.95 0  5 -0.95 0  -5 -0.9 0  -4.95 -0.9 0  -4.9 -0.9 0  -4.85 -0.9 0  -4.8 -0.9 0  -4.75 -0.9 0  -4.7 -0.9 0  -4.65 -0.9 0  -4.6 -0.9 0  -4.55 -0.9 0  -4.5 -0.9 0  -4.45 -0.9 0  -4.4 -0.9 0  -4.35 -0.9 0  -4.3 -0.9 0  -4.25 -0.9 0  -4.2 -0.9 0  -4.15 -0.9 0  -4.1 -0.9 0  -4.05 -0.9 0  -4 -0.9 0  -3.95 -0.9 0  -3.9 -0.9 0  -3.85 -0.9 0  -3.8 -0.9 0  -3.75 -0.9 0  -3.7 -0.9 0  -3.65 -0.9 0  -3.6 -0.9 0  -3.55 -0.9 0  -3.5 -0.9 0  -3.45 -0.9 0  -3.4 -0.9 0  -3.35 -0.9 0  -3.3 -0.9 0  -3.25 -0.9 0  -3.2 -0.9 0  -3.15 -0.9 0  -3.1 -0.9 0  -3.05 -0.9 0  -3 -0.9 0  -2.95 -0.9 0  -2.9 -0.9 0  -2.85 -0.9 0  -2.8 -0.9 0  -2.75 -0.9 0  -2.7 -0.9 0  -2.65 -0.9 0  -2.6 -0.9 0  -2.55 -0.9 0  -2.5 -0.9 0  -2.45 -0.9 0  -2.4 -0.9 0  -2.35 -0.9 0  -2.3 -0.9 0  -2.25 -0.9 0  -2.2 -0.9 0  -2.15 -0.9 0  -2.1 -0.9 0  -2.05 -0.9 0  -2 -0.9 0  -1.95 -0.9 0  -1.9 -0.9 0  -1.85 -0.9 0  -1.8 -0.9 0  -1.75 -0.9 0  -1.7 -0.9 0  -1.65 -0.9 0  -1.6 -0.9 0  -1.55 -0.9 0  -1.5 -0.9 0  -1.45 -0.9 0  -1.4 -0.9 0  -1.35 -0.9 0  -1.3 -0.9 0  -1.25 -0.9 0  -1.2 -0.9 0  -1.15 -0.9 0  -1.1 -0.9 0  -1.05 -0.9 0  -1 -0.9 0  -0.9500000000000002 -0.9 0  -0.9000000000000004 -0.9 0  -0.8499999999999996 -0.9 0  -0.7999999999999998 -0.9 0  -0.75 -0.9 0  -0.7000000000000002 -0.9 0  -0.6500000000000004 -0.9 0  -0.5999999999999996 -0.9 0  -0.5499999999999998 -0.9 0  -0.5 -0.9 0  -0.4500000000000002 -0.9 0  -0.4000000000000004 -0.9 0  -0.3499999999999996 -0.9 0  -0.2999999999999998 -0.9 0  -0.25 -0.9 0  -0.2000000000000002 -0.9 0  -0.1500000000000004 -0.9 0  -0.09999999999999964 -0.9 0  -0.04999999999999982 -0.9 0  0 -0.9 0  0.04999999999999982 -0.9 0  0.09999999999999964 -0.9 0  0.1500000000000004 -0.9 0  0.2000000000000002 -0.9 0  0.25 -0.9 0  0.2999999999999998 -0.9 0  0.3499999999999996 -0.9 0  0.4000000000000004 -0.9 0  0.4500000000000002 -0.9 0  0.5 -0.9 0  0.5499999999999998 -0.9 0  0.5999999999999996 -0.9 0  0.6500000000000004 -0.9 0  0.7000000000000002 -0.9 0  0.75 -0.9 0  0.7999999999999998 -0.9 0  0.8499999999999996 -0.9 0  0.9000000000000004 -0.9 0  0.9500000000000002 -0.9 0  1 -0.9 0  1.05 -0.9 0  1.1 -0.9 0  1.15 -0.9 0  1.2 -0.9 0  1.25 -0.9 0  1.3 -0.9 0  1.35 -0.9 0  1.4 -0.9 0  1.45 -0.9 0  1.5 -0.9 0  1.55 -0.9 0  1.6 -0.9 0  1.65 -0.9 0  1.7 -0.9 0  1.75 -0.9 0  1.8 -0.9 0  1.85 -0.9 0  1.9 -0.9 0  1.95 -0.9 0  2 -0.9 0  2.05 -0.9 0  2.1 -0.9 0  2.15 -0.9 0  2.2 -0.9 0  2.25 -0.9 0  2.3 -0.9 0  2.35 -0.9 0  2.4 -0.9 0  2.45 -0.9 0  2.5 -0.9 0  2.55 -0.9 0  2.6 -0.9 0  2.65 -0.9 0  2.7 -0.9 0  2.75 -0.9 0  2.8 -0.9 0  2.85 -0.9 0  2.9 -0.9 0  2.95 -0.9 0  3 -0.9 0  3.050000000000001 -0.9 0  3.1 -0.9 0  3.15 -0.9 0  3.199999999999999 -0.9 0  3.25 -0.9 0  3.300000000000001 -0.9 0  3.35 -0.9 0  3.4 -0.9 0  3.449999999999999 -0.9 0  3.5 -0.9 0  3.550000000000001 -0.9 0  3.6 -0.9 0  3.65 -0.9 0  3.699999999999999 -0.9 0  3.75 -0.9 0  3.800000000000001 -0.9 0  3.85 -0.9 0  3.9 -0.9 0  3.949999999999999 -0.9 0  4 -0.9 0  4.050000000000001 -0.9 0  4.1 -0.9 0  4.15 -0.9 0  4.199999999999999 -0.9 0  4.25 -0.9 0  4.300000000000001 -0.9 0  4.35 -0.9 0  4.4 -0.9 0  4.449999999999999 -0.9 0  4.5 -0.9 0  4.550000000000001 -0.9 0  4.6 -0.9 0  4.65 -0.9 0  4.699999999999999 -0.9 0  4.75 -0.9 0  4.800000000000001 -0.9 0  4.85 -0.9 0  4.9 -0.9 0  4.949999999999999 -0.9 0  5 -0.9 0  -5 -0.85 0  -4.95 -0.85 0  -4.9 -0.85 0  -4.85 -0.85 0  -4.8 -0.85 0  -4.75 -0.85 0  -4.7 -0.85 0  -4.65 -0.85 0  -4.6 -0.85 0  -4.55 -0.85 0  -4.5 -0.85 0  -
[...]
<PointData  Vectors="f_15"> 
<DataArray  type="Float64"  Name="f_15"  NumberOfComponents="3" format="ascii">3.0001820260550076e+00 0.0000000000000000e+00 0.0000000000000000e+00  2.9998330984080153e+00 -2.5949297182345640e-04 0.0000000000000000e+00  3.0001520716667667e+00 2.9573120955269386e-04 0.0000000000000000e+00  2.9998382019700758e+00 -3.2204535072471378e-04 0.0000000000000000e+00  3.0001800859399723e+00 3.3176314758646394e-04 0.0000000000000000e+00  2.9997988463655325e+00 -3.5047402163660427e-04 0.0000000000000000e+00  3.0002240464287326e+00 3.7892134234280249e-04 0.0000000000000000e+00  2.9997505257736865e+00 -4.1494128382683069e-04 0.0000000000000000e+00  3.0002812111053832e+00 4.5415881388463598e-04 0.0000000000000000e+00  2.9996797418322556e+00 -4.9807661424071826e-04 0.0000000000000000e+00  3.0003709328301786e+00 5.4937196209622289e-04 0.0000000000000000e+00  2.9995667348508741e+00 -6.1483606240242069e-04 0.0000000000000000e+00  3.0005119712209898e+00 6.9522064309896468e-04 0.0000000000000000e+00  2.9993953265625937e+00 -7.9314714706047677e-04 0.0000000000000000e+00  3.0007167214744515e+00 9.0433656116437901e-04 0.0000000000000000e+00  2.9991547921764781e+00 -1.0348463180889951e-03 0.0000000000000000e+00  3.0009995146118045e+00 1.1857003468411550e-03 0.0000000000000000e+00  2.9988248988694153e+00 -1.3708651135005945e-03 0.0000000000000000e+00  3.0013789141498566e+00 1.5834874824102859e-03 0.0000000000000000e+00  2.9984056097355403e+00 -1.8247482515935604e-03 0.0000000000000000e+00  3.0018212922142036e+00 2.0625571808507151e-03 0.0000000000000000e+00  2.9979638323121747e+00 -2.2959348830796427e-03 0.0000000000000000e+00  3.0022446323704393e+00 2.4943993089078685e-03 0.0000000000000000e+00  2.9975745619263794e+00 -2.6842120612843201e-03 0.0000000000000000e+00  3.0025846509211487e+00 2.8286667229377692e-03 0.0000000000000000e+00  2.9973137488882240e+00 -2.9419805247756885e-03 0.0000000000000000e+00  3.0027199474653781e+00 2.9317070821885277e-03 0.0000000000000000e+00  2.9973595850440051e+00 -2.7942819442027538e-03 0.0000000000000000e+00  3.0024480738892487e+00 2.4405030135827887e-03 0.0000000000000000e+00  2.9978705630967903e+00 -1.9403352859535352e-03 0.0000000000000000e+00  3.0017160876112250e+00 1.2691837402001810e-03 0.0000000000000000e+00  2.9987895090301508e+00 -5.3072118840847659e-04 0.0000000000000000e+00  3.0006217671980711e+00 -3.5901864282581624e-04 0.0000000000000000e+00  3.0000833001643255e+00 1.3845263293256864e-03 0.0000000000000000e+00  2.9990856241444472e+00 -2.6877335499455785e-03 0.0000000000000000e+00  3.0018603509966040e+00 4.1567840424252944e-03 0.0000000000000000e+00  2.9971637595999407e+00 -5.7605536410825749e-03 0.0000000000000000e+00  3.0037533204915210e+00 7.1962745947577065e-03 0.0000000000000000e+00  2.9954425224640664e+00 -8.5133910934643842e-03 0.0000000000000000e+00  3.0053040526945867e+00 9.6418292022621629e-03 0.0000000000000000e+00  2.9939040639059611e+00 -1.0979025740336299e-02 0.0000000000000000e+00  3.0069702111991794e+00 1.2412190800835237e-02 0.0000000000000000e+00  2.9921613323389491e+00 -1.4044224552240366e-02 0.0000000000000000e+00  3.0084848667351896e+00 1.5240386077412642e-02 0.0000000000000000e+00  2.9911427697624471e+00 -1.6110719447368846e-02 0.0000000000000000e+00  3.0090127265776423e+00 1.6444077115617396e-02 0.0000000000000000e+00  2.9907094207422591e+00 -1.7044099734351927e-02 0.0000000000000000e+00  3.0097195390963374e+00 1.7807053627439593e-02 0.0000000000000000e+00  2.9896812805557191e+00 -1.9035868139461367e-02 0.0000000000000000e+00  3.0106157014213317e+00 1.9865599112222604e-02 0.0000000000000000e+00  2.9892636820062677e+00 -2.0353856221993802e-02 0.0000000000000000e+00  3.0104992827232837e+00 2.0330438503541683e-02 0.0000000000000000e+00  2.9893397023790946e+00 -2.0321710862691668e-02 0.0000000000000000e+00  3.0107371059671366e+00 2.0681862951197529e-02 0.0000000000000000e+00  2.9886381836846310e+00 -2.1066641137628829e-02 0.0000000000000000e+00  3.0113317470517522e+00 2.1807866338086585e-02 0.0000000000000000e+00  2.9882034334955332e+00 -2.1819027250333189e-02 0.0000000000000000e+00  3.0114641905576671e+00 2.2275500096094150e-02 0.0000000000000000e+00  2.9879035345585598e+00 -2.1508261463299524e-02 0.0000000000000000e+00  3.0116614327284372e+00 2.1749625457759984e-02 0.0000000000000000e+00  2.9873837440019928e+00 -2.0073648300317548e-02 0.0000000000000000e+00  3.0114034098324689e+00 2.1693008275904549e-02 0.0000000000000000e+00  2.9862726511202382e+00 -1.7979704642954893e-02 0.0000000000000000e+00  3.0102072169406764e+00 2.4078789442977967e-02 0.0000000000000000e+00  2.9831660721289399e+00 -1.1955427997192377e-02 0.0000000000000000e+00  3.0059565704363855e+00 2.9990670278980149e-02 0.0000000000000000e+00  2.9764830066398154e+00 3.0312995411151968e-03 0.0000000000000000e+00  2.9950868040358891e+00 4.6549387114836527e-02 0.0000000000000000e+00  2.9621907137319021e+00 3.1716080403050621e-02 0.0000000000000000e+00  2.9739568733972415e+00 8.2275522016735186e-02 0.0000000000000000e+00  2.9351206071975282e+00 8.3856245237833818e-02 0.0000000000000000e+00  2.9382281883018586e+00 1.4432019683273137e-01 0.0000000000000000e+00  2.8918264141700991e+00 1.6567806520639813e-01 0.0000000000000000e+00  2.8843864150725294e+00 2.4117720620410513e-01 0.0000000000000000e+00  2.8310354149341492e+00 2.7927541752473101e-01 0.0000000000000000e+00  2.8121571768470384e+00 3.7278520943314852e-01 0.0000000000000000e+00  2.7532129855195486e+00 4.2825159137798463e-01 0.0000000000000000e+00  2.7240007497655250e+00 5.3415871274519644e-01 0.0000000000000000e+00  2.6604020905674903e+00 6.0593971772032884e-01 0.0000000000000000e+00  2.6236317775071170e+00 7.2839622389103464e-01 0.0000000000000000e+00  2.5561697268883483e+00 8.0173961155557461e-01 0.0000000000000000e+00  2.5134365642352923e+00 9.4600770359522923e-01 0.0000000000000000e+00  2.4452282776138619e+00 1.0249414193830957e+00 0.0000000000000000e+00  2.3964196636629036e+00 1.1685025311885280e+00 0.0000000000000000e+00  2.3290963571919270e+00 1.2670509376070136e+00 0.0000000000000000e+00  2.2773710363904334e+00 1.4182341748061100e+00 0.0000000000000000e+00  2.2090435127658163e+00 1.4963972416383864e+00 0.0000000000000000e+00  2.1575397483897851e+00 1.6820486224055746e+00 0.0000000000000000e+00  2.0904515287537055e+00 1.7586926989576741e+00 0.0000000000000000e+00  2.0383326901841694e+00 1.9207036807332081e+00 0.0000000000000000e+00  1.9753921977433777e+00 2.0121860835710179e+00 0.0000000000000000e+00  1.9283440791462054e+00 2.1776507839042565e+00 0.0000000000000000e+00  1.8730858097805163e+00 2.2367376645877068e+00 0.0000000000000000e+00  1.8478483120162688e+00 2.3576071552997955e+00 0.0000000000000000e+00  1.8318191560835797e+00 2.3362226308524234e+00 0.0000000000000000e+00  1.8400536568574415e+00 2.3642092758352669e+00 0.0000000000000000e+00  1.8391772346554305e+00 2.3285460934653517e+00 0.0000000000000000e+00  1.8480911280364207e+00 2.3479488737907079e+00 0.0000000000000000e+00  1.8351533789763319e+00 2.3368113604448650e+00 0.0000000000000000e+00  1.8483377765647693e+00 2.3379135966125530e+00 0.0000000000000000e+00  1.8449445173880799e+00 2.3236002491973347e+00 0.0000000000000000e+00  1.8447527406507755e+00 2.3430819035162727e+00 0.0000000000000000e+00  1.8405975557345651e+00 2.3359728825157955e+00 0.0000000000000000e+00  1.8519137321225378e+00 2.3222374004006947e+00 0.0000000000000000e+00  1.8423204278134295e+00 2.3360925760550293e+00 0.0000000000000000e+00  1.8459544334572993e+00 2.3273067303596604e+00 0.0000000000000000e+00  1.8478522858084592e+00 2.3290165926456856e+00 0.0000000000000000e+00  1.8443845808365185e+00 2.3272550564113135e+00 0.0000000000000000e+00  1.8465902787293027e+00 2.3236433492412205e+00 0.0000000000000000e+00  1.8485582269792062e+00 2.3073723337779537e+00 0.0000000000000000e+00  1.8428545532977756e+00 2.3238040825023232e+00 0.0000000000000000e+00  1.8480294620257596e+00 2.2902563426940623e+00 0.0000000000000000e+00  1.8483522670127122e+00 2.3159791512951022e+00 0.0000000000000000e+00  1.8407121035454863e+00 2.2960669969645133e+00 0.0000000000000000e+00  1.8546408879308285e+00 2.3144191485346965e+00 0.0000000000000000e+00  1.8345485838043620e+00 2.3132672000516790e+00 0.0000000000000000e+00  1.8611558945788165e+00 2.3061228362614044e+00 0.0000000000000000e+00  1.8283180795609704e+00 2.3343414521866412e+00 0.0000000000000000e+00  1.8631293805360269e+00 2.3012887418982104e+00 0.0000000000000000e+00  1.8298320557429197e+00 2.3341431795745788e+00 0.0000000000000000e+00  1.8580744921104619e+00 2.3058084914962920e+00 0.0000000000000000e+00  1.8306528861637492e+00 2.3287262643093962e+00 0.0000000000000000e+00  1.8479621529765116e+00 2.2832223741080706e+00 0.0000000000000000e+00  1.8099601118234234e+00 2.2826923431370973e+00 0.0000000000000000e+00  1.7796921733731876e+00 2.1383295243706582e+00 0.0000000000000000e+00  1.6879587638841493e+00 1.9729542114150120e+00 0.0000000000000000e+00  1.4597706666025172e+00 1.3265408781865744e+00 0.0000000000000000e+00  1.1499473328802692e+00 4.9883350011869376e-01 0.0000000000000000e+00  1.0354663598072158e+00 8.0581012358740045e-02 0.0000000000000000e+00  9.9787858763819159e-01 2.8345216985739160e-02 0.0000000000000000e+00  1.0055270784012487e+00 -1.2253138811996961e-02 0.0000000000000000e+00  9.9623399684531444e-01 1.1647258609192083e-02 0.0000000000000000e+00  1.0034367369571440e+00 -1.0136413147726071e-02 0.0000000000000000e+00  9.9600738701194791e-01 1.2039574530855180e-02 0.0000000000000000e+00  1.0049760186620245e+00 -1.5501019181935612e-02 0.0000000000000000e+00  9.9446525245773920e-01 1.8157725456378792e-02 0.0000000000000000e+00  1.0053901805043335e+00 -1.8422495543935522e-02 0.0000000000000000e+00  9.9510042304342716e-01 1.7253702115398128e-02 0.0000000000000000e+00  1.0046181182190583e+00 -1.6068889378389725e-02 0.0000000000000000e+00  9.9525302835163298e-01 1.6053267096953365e-02 0.0000000000000000e+00  1.0050771463371579e+00 -1.6620430034344384e-02 0.0000000000000000e+00  9.9477968538098305e-01 1.6930630964365246e-02 0.0000000000000000e+00  1.0049937267523170e+00 -1.6073988984437348e-02 0.0000000000000000e+00  9.9552718865783962e-01 1.4397854086872797e-02 0.0000000000000000e+00  1.0038854615718764e+00 -1.2302525528658393e-02 0.0000000000000000e+00  9.9661750552491635e-01 1.0509846887607590e-02 0.0000000000000000e+00  1.0029930436532652e+00 -9.0365983578315472e-03 0.0000000000000000e+00  9.9735815045209264e-01 7.8367445729417094e-03 0.0000000000000000e+00  1.0022714051397050e+00 -6.6370595024811980e-03 0.0000000000000000e+00  9.9812793885612905e-01 5.4381924177944064e-03 0.0000000000000000e+00  1.0014853441296876e+00 -4.2749121009829187e-03 0.0000000000000000e+00  9.9884767859062917e-01 3.2873091358938942e-03 0.0000000000000000e+00  1.0008920640303933e+00 -2.5099867403510492e-03 0.0000000000000000e+00  9.9930493164250300e-01 1.9340753765602946e-03 0.0000000000000000e+00  1.0005421469796978e+00 -1.4953309161702670e-03 0.0000000000000000e+00  9.9958277752785707e-01 1.1469494110657404e-03 0.0000000000000000e+00  1.0003136908427348e+00 -8.6068294296663000e-04 0.0000000000000000e+00  9.9976954075268964e-01 6.3133748074495843e-04 0.0000000000000000e+00  1.0001671809533568e+00 -4.5615982612404768e-04 0.0000000000000000e+00  9.9987867405411213e-01 3.2932520395283080e-04 0.0000000000000000e+00  1.0000887151146149e+00 -2.3957150654046539e-04 0.0000000000000000e+00  9.9993487829898042e-01 1.7536935039326172e-04 0.0000000000000000e+00  1.0000475121233776e+00 -1.2787579369409778e-04 0.0000000000000000e+00  9.9996582966797098e-01 9.2026401294821377e-05 0.0000000000000000e+00  1.0000242038131435e+00 -6.5184931587032496e-05 0.0000000000000000e+00  9.9998300721214783e-01 4.5696480288719153e-05 0.0000000000000000e+00  1.0000119308395399e+00 -3.1994220147006899e-05 0.0000000000000000e+00  9.9999157945909456e-01 2.2517508490810054e-05 0.0000000000000000e+00  1.0000059629585838e+00 -1.5919116052150235e-05 0.0000000000000000e+00  9.9999579124324534e-01 1.1233281222348901e-05 0.0000000000000000e+00  1.0000029430892563e+00 -7.8586423668829694e-06 0.0000000000000000e+00  9.9999796389358098e-01 5.4373829032854079e-06 0.0000000000000000e+00  1.0000013986215710e+00 -3.7316833642404074e-06 0.0000000000000000e+00  9.9999904066563661e-01 2.5551311077218387e-06 0.0000000000000000e+00  1.0000006595436941e+00 -1.7533218006985825e-06 0.0000000000000000e+00  9.9999954573939032e-01 1.2060460528845351e-06 0.0000000000000000e+00  1.0000003122530638e+00 -8.2865592929877236e-07 0.0000000000000000e+00  9.9999978663469125e-01 5.6625657692177292e-07 0.0000000000000000e+00  1.0000001447201783e+00 -3.8405088536742530e-07 0.0000000000000000e+00  9.9999990239921077e-01 2.5884924637091825e-07 0.0000000000000000e+00  1.0000000656650996e+00 -1.7395113018800872e-07 0.0000000000000000e+00  9.9999995581383627e-01 1.1689793180158188e-07 0.0000000000000000e+00  1.0000000297445635e+00 -7.8609817870003116e-08 0.0000000000000000e+00  9.9999998000701029e-01 5.2807995795637212e-08 0.0000000000000000e+00  1.0000000133862368e+00 -3.5348608645120471e-08 0.0000000000000000e+00  9.9999999108303295e-01 2.3540572610606479e-08 0.0000000000000000e+00  1.0000000059127987e+00 -1.5601025090228871e-08 0.0000000000000000e+00  9.9999999609055290e-01 1.0305907618186972e-08 0.0000000000000000e+00  1.0000000025814084e+00 -6.7975431773858547e-09 0.0000000000000000e+00  9.9999999829722874e-01 4.4790789712208747e-09 0.0000000000000000e+00  1.0000000011212311e+00 -2.9462791136835013e-09 0.0000000000000000e+00  9.9999999926434047e-01 1.9311517228506150e-09 0.0000000000000000e+00  1.0000000004811169e+00 -1.2602520339185481e-09 0.0000000000000000e+00  9.9999999968740860e-01 8.1679484434600433e-10 0.0000000000000000e+00  1.0000000002039864e+00 -5.2761019158370606e-10 0.0000000000000000e+00  9.9999999986924260e-01 3.3517517927669441e-10 0.0000000000000000e+00  1.0000000000883233e+00 -2.1354952550800486e-10 0.0000000000000000e+00  9.9999999994588784e-01 1.2480913176460409e-10 0.0000000000000000e+00  1.0000000000450007e+00 -7.5816963736517082e-11 0.0000000000000000e+00  9.9999999997868194e-01 2.3431242777634148e-11 0.0000000000000000e+00  1.0000000000394798e+00 0.0000000000000000e+00 0.0000000000000000e+00  3.0000610732117514e+00 0.0000000000000000e+00 1.3062260830256237e-04  2.9999274256426154e+00 4.1960870578240131e-05 -2.8774530105495273e-05  3.0000474404374149e+00 -1.2142467007513359e-05 -1.3018042227642711e-05  2.9999636547052608e+00 -4.6607530987038833e-05 -2.1068273406222947e-05  3.0000261717696919e+00 7.2280047383428933e-05 4.1639015671372266e-05  2.9999739760751489e+00 -8.6205220946995799e-05 -6.2699224235878025e-05  3.0000265597189570e+00 9.2011015966664809e-05 8.3416811594965226e-05  2.9999721970756847e+00 -1.0250031225763160e-04 -1.0890015814316468e-04  3.0000259831239307e+00 1.1883978358552246e-04 1.4200803769892436e-04  2.9999772790766439e+00 -1.3990781774641498e-04 -1.8690544799424615e-04  3.0000162675411293e+00 1.6476861786218731e-04 2.4666939808567042e-04  2.9999906674257804e+00 -1.9364443866912018e-04 -3.2574497962280458e-04  3.0000002270102790e+00 2.3220213477805814e-04 4.2681129548122285e-04  3.0000072435365919e+00 -2.8312262215763039e-04 -5.5434152722850453e-04  2.9999828488207245e+00 3.5043831890393728e-04 7.1061222489980690e-04  3.0000267438482182e+00 -4.2954407808202253e-04 -9.0043312285905568e-04  2.9999573231902250e+00 5.2035544468132531e-04 1.1250966825154098e-03  3.0000583238858023e+00 -6.1960565215296896e-04 -1.3870716121614796e-03  2.9999233285249045e+00 7.3717705184147316e-04 1.6822946058470251e-03  3.0000851507859601e+00 -8.7643151357564490e-04 -2.0062566923086510e-03  2.9999102211516893e+00 1.0445948798818822e-03 2.3480744464963051e-03  3.0000837701481209e+00 -1.2259341738624203e-03 -2.6977016432607735e-03  2.9999174707582825e+00 1.4081286221497959e-03 3.0408992540314496e-03  3.0000787907885882e+00 -1.5667287821184014e-03 -3.3622097068707691e-03  2.9999203923707638e+00 1.7071818885901161e-03 3.6411947065348046e-03  3.0000641919942304e+00 -1.8303722496666645e-03 -3.8524515498645820e-03  2.9999658142038887e+00 1.9578527110736504e-03 3.9714148815484327e-03  2.9999799732888945e+00 -2.0680651063255725e-03 -3.9734606918104681e-03  3.0000760531235113e+00 2.1385749790181672e-03 3.8460635235644772e-03  2.9998771450295503e+00 -2.1073896150121192e-03 -3.5782739493190564e-03  3.0001437301149552e+00 1.9652412533982221e-03 3.1704704005012093e-03  2.9998467514854665e+00 -1.7171158790843888e-03 -2.6172484383513890e-03  3.0001776811328202e+00 1.4422971276721508e-03 1.9234843462108439e-03  2.9997577671276487e+00 -1.1786956980791164e-03 -1.0924756639456954e-03  3.0003440911420292e+00 9.3652916103600904e-04 1.4759118989308070e-04  2.9995685727015968e+00 -6.2020564434387164e-04 8.8452831136220619e-04  3.0004569198933475e+00 1.4902031830004819e-04 -1.9594901876545242e-03  2.9996043122210843e+00 4.9020875235046666e-04 3.0485930007915561e-03  3.0003311496937588e+00 -1.1565988069014693e-03 -4.1166996012581758e-03  2.9996604267168485e+00 1.6513925342191108e-03 5.1598947296012006e-03  3.0004951861712295e+00 -1.8965841196477129e-03 -6.1501816474430950e-03  2.9993315445251505e+00 2.0160029607800070e-03 7.0868197600890085e-03  3.0007566348077979e+00 -2.3006774789257581e-03 -7.9125344305568650e-03  2.9993913115013613e+00 2.8648121870880135e-03 8.6222809645479879e-03  3.0004193071686851e+00 -3.5686924722630724e-03 -9.1699980214068454e-03  2.9996951804763321e+00 4.0006019135654675e-03 9.5957964760520278e-03  3.0005090741368354e+00 -3.9706066161771109e-03 -9.8983630445992881e-03  2.9992446189295006e+00 3.6248511447461093e-03 1.0135025202638127e-02  3.0009413966309486e+00 -3.4364462615533980e-03 -1.0262566344885860e-02  2.9992810987776650e+00 3.6488046619460313e-03 1.0282898067583575e-02  3.0004866799814374e+00 -4.1716384418289476e-03 -1.0156416916461252e-02  2.9997739636591061e+00 4.4491575103388402e-03 9.9117433661860283e-03  3.0004698812264556e+00 -4.4241104079413623e-03 -9.5959843159235600e-03  2.9994507418237180e+00 3.8767538777030050e-03 9.2757746009787499e-03  3.0008637680838612e+00 -3.6479623494104748e-03 -8.9359438903037110e-03  2.9994731531989198e+00 3.2501423206930356e-03 8.5532314950778655e-03  3.0006308852068924e+00 -3.5304592002492435e-03 -8.0960300187672470e-03  2.9997123094926441e+00 3.4465457242063547e-03 7.5663316500724186e-03  3.0004927973051783e+00 -3.6825809085558828e-03 -7.0570968270683727e-03  2.9995903271982756e+00 3.9383409263308109e-03 6.6213934370281712e-03  3.0000927916280875e+00 -2.9814204102288013e-03 -6.2697061129253938e-03  2.9991062974418723e+00 4.3928599316675424e-03 5.9375654356568514e-03  2.9991501029293075e+00 -4.4455363177684328e-04 -5.6145972886033398e-03  2.9972828991139631e+00 7.1607258645954696e-03 5.3046229599833317e-03  2.9963406109865609e+00 4.1372708682386678e-03 -5.1381589951057464e-03  2.9931169845527350e+00 1.6055516438443183e-02 5.1661321626008290e-03  2.9889614545458136e+00 1.6234771961775397e-02 -5.3197143943685800e-03  2.9831426357102107e+00 3.4566498221528880e-02 5.5315114233319990e-03  2.9740034429555098e+00 4.3479664637320621e-02 -5.6987328831861637e-03  2.9624338705541544e+00 7.2019303799347359e-02 5.8533643922369302e-03  2.9467635214253747e+00 9.2871484831032608e-02 -6.1470829471276462e-03  2.9270809909413886e+00 1.3651215320661689e-01 6.5587595551729180e-03  2.9027263494179407e+00 1.7364950795612388e-01 -7.0694160201040775e-03  2.8745180850573928e+00 2.3267035672983394e-01 7.4536132542204012e-03  2.8404241420321954e+00 2.8829183689471877e-01 -7.5789679959175392e-03  2.8038875629086291e+00 3.6484806080540250e-01 7.3886060755371866e-03  2.7612521527410712e+00 4.3483222999159188e-01 -7.1138279737369128e-03  2.7167858987850311e+00 5.2821806053061027e-01 6.9156339946460348e-03  2.6680297512138504e+00 6.1497079320049841e-01 -6.8364036778346153e-03  2.6167001205417542e+00 7.1488263896483795e-01 6.6868433628513952e-03  2.5632382149585160e+00 8.1997595626610253e-01 -6.0450888531048000e-03  2.5081211702