<?xml version="1.0"?>
<VTKFile type="UnstructuredGrid"  version="0.1"  >
<UnstructuredGrid>
<Piece  NumberOfPoints="8241" NumberOfCells="16000">
<Points>
<DataArray  type="Float64"  NumberOfComponents="3"  format="ascii">-5 -1 0  -4.95 -1 0  -4.9 -1 0  -4.85 -1 0  -4.8 -1 0  -4.75 -1 0  -4.7 -1 0  -4.65 -1 0  -4.6 -1 0  -4.55 -1 0  -4.5 -1 0  -4.45 -1 0  -4.4 -1 0  -4.35 -1 0  -4.3 -1 0  -4.25 -1 0  -4.2 -1 0  -4.15 -1 0  -4.1 -1 0  -4.05 -1 0  -4 -1 0  -3.95 -1 0  -3.9 -1 0  -3.85 -1 0  -3.8 -1 0  -3.75 -1 0  -3.7 -1 0  -3.65 -1 0  -3.6 -1 0  -3.55 -1 0  -3.5 -1 0  -3.45 -1 0  -3.4 -1 0  -3.35 -1 0  -3.3 -1 0  -3.25 -1 0  -3.2 -1 0  -3.15 -1 0  -3.1 -1 0  -3.05 -1 0  -3 -1 0  -2.95 -1 0  -2.9 -1 0  -2.85 -1 0  -2.8 -1 0  -2.75 -1 0  -2.7 -1 0  -2.65 -1 0  -2.6 -1 0  -2.55 -1 0  -2.5 -1 0  -2.45 -1 0  -2.4 -1 0  -2.35 -1 0  -2.3 -1 0  -2.25 -1 0  -2.2 -1 0  -2.15 -1 0  -2.1 -1 0  -2.05 -1 0  -2 -1 0  -1.95 -1 0  -1.9 -1 0  -1.85 -1 0  -1.8 -1 0  -1.75 -1 0  -1.7 -1 0  -1.65 -1 0  -1.6 -1 0  -1.55 -1 0  -1.5 -1 0  -1.45 -1 0  -1.4 -1 0  -1.35 -1 0  -1.3 -1 0  -1.25 -1 0  -1.2 -1 0  -1.15 -1 0  -1.1 -1 0  -1.05 -1 0  -1 -1 0  -0.9500000000000002 -1 0  -0.9000000000000004 -1 0  -0.8499999999999996 -1 0  -0.7999999999999998 -1 0  -0.75 -1 0  -0.7000000000000002 -1 0  -0.6500000000000004 -1 0  -0.5999999999999996 -1 0  -0.5499999999999998 -1 0  -0.5 -1 0  -0.4500000000000002 -1 0  -0.4000000000000004 -1 0  -0.3499999999999996 -1 0  -0.2999999999999998 -1 0  -0.25 -1 0  -0.2000000000000002 -1 0  -0.1500000000000004 -1 0  -0.09999999999999964 -1 0  -0.04999999999999982 -1 0  0 -1 0  0.04999999999999982 -1 0  0.09999999999999964 -1 0  0.1500000000000004 -1 0  0.2000000000000002 -1 0  0.25 -1 0  0.2999999999999998 -1 0  0.3499999999999996 -1 0  0.4000000000000004 -1 0  0.4500000000000002 -1 0  0.5 -1 0  0.5499999999999998 -1 0  0.5999999999999996 -1 0  0.6500000000000004 -1 0  0.7000000000000002 -1 0  0.75 -1 0  0.7999999999999998 -1 0  0.8499999999999996 -1 0  0.9000000000000004 -1 0  0.9500000000000002 -1 0  1 -1 0  1.05 -1 0  1.1 -1 0  1.15 -1 0  1.2 -1 0  1.25 -1 0  1.3 -1 0  1.35 -1 0  1.4 -1 0  1.45 -1 0  1.5 -1 0  1.55 -1 0  1.6 -1 0  1.65 -1 0  1.7 -1 0  1.75 -1 0  1.8 -1 0  1.85 -1 0  1.9 -1 0  1.95 -1 0  2 -1 0  2.05 -1 0  2.1 -1 0  2.15 -1 0  2.2 -1 0  2.25 -1 0  2.3 -1 0  2.35 -1 0  2.4 -1 0  2.45 -1 0  2.5 -1 0  2.55 -1 0  2.6 -1 0  2.65 -1 0  2.7 -1 0  2.75 -1 0  2.8 -1 0  2.85 -1 0  2.9 -1 0  2.95 -1 0  3 -1 0  3.050000000000001 -1 0  3.1 -1 0  3.15 -1 0  3.199999999999999 -1 0  3.25 -1 0  3.300000000000001 -1 0  3.35 -1 0  3.4 -1 0  3.449999999999999 -1 0  3.5 -1 0  3.550000000000001 -1 0  3.6 -1 0  3.65 -1 0  3.699999999999999 -1 0  3.75 -1 0  3.800000000000001 -1 0  3.85 -1 0  3.9 -1 0  3.949999999999999 -1 0  4 -1 0  4.050000000000001 -1 0  4.1 -1 0  4.15 -1 0  4.199999999999999 -1 0  4.25 -1 0  4.300000000000001 -1 0  4.35 -1 0  4.4 -1 0  4.449999999999999 -1 0  4.5 -1 0  4.550000000000001 -1 0  4.6 -1 0  4.65 -1 0  4.699999999999999 -1 0  4.75 -1 0  4.800000000000001 -1 0  4.85 -1 0  4.9 -1 0  4.949999999999999 -1 0  5 -1 0  -5 -0.95 0  -4.95 -0.95 0  -4.9 -0.95 0  -4.85 -0.95 0  -4.8 -0.95 0  -4.75 -0.95 0  -4.7 -0.95 0  -4.65 -0.95 0  -4.6 -0.95 0  -4.55 -0.95 0  -4.5 -0.95 0  -4.45 -0.95 0  -4.4 -0.95 0  -4.35 -0.95 0  -4.3 -0.95 0  -4.25 -0.95 0  -4.2 -0.95 0  -4.15 -0.95 0  -4.1 -0.95 0  -4.05 -0.95 0  -4 -0.95 0  -3.95 -0.95 0  -3.9 -0.95 0  -3.85 -0.95 0  -3.8 -0.95 0  -3.75 -0.95 0  -3.7 -0.95 0  -3.65 -0.95 0  -3.6 -0.95 0  -3.55 -0.95 0  -3.5 -0.95 0  -3.45 -0.95 0  -3.4 -0.95 0  -3.35 -0.95 0  -3.3 -0.95 0  -3.25 -0.95 0  -3.2 -0.95 0  -3.15 -0.95 0  -3.1 -0.95 0  -3.05 -0.95 0  -3 -0.95 0  -2.95 -0.95 0  -2.9 -0.95 0  -2.85 -0.95 0  -2.8 -0.95 0  -2.75 -0.95 0  -2.7 -0.95 0  -2.65 -0.95 0  -2.6 -0.95 0  -2.55 -0.95 0  -2.5 -0.95 0  -2.45 -0.95 0  -2.4 -0.95 0  -2.35 -0.95 0  -2.3 -0.95 0  -2.25 -0.95 0  -2.2 -0.95 0  -2.15 -0.95 0  -2.1 -0.95 0  -2.05 -0.95 0  -2 -0.95 0  -1.95 -0.95 0  -1.9 -0.95 0  -1.85 -0.95 0  -1.8 -0.95 0  -1.75 -0.95 0  -1.7 -0.95 0  -1.65 -0.95 0  -1.6 -0.95 0  -1.55 -0.95 0  -1.5 -0.95 0  -1.45 -0.95 0  -1.4 -0.95 0  -1.35 -0.95 0  -1.3 -0.95 0  -1.25 -0.95 0  -1.2 -0.95 0  -1.15 -0.95 0  -1.1 -0.95 0  -1.05 -0.95 0  -1 -0.95 0  -0.9500000000000002 -0.95 0  -0.9000000000000004 -0.95 0  -0.8499999999999996 -0.95 0  -0.7999999999999998 -0.95 0  -0.75 -0.95 0  -0.7000000000000002 -0.95 0  -0.6500000000000004 -0.95 0  -0.5999999999999996 -0.95 0  -0.5499999999999998 -0.95 0  -0.5 -0.95 0  -0.4500000000000002 -0.95 0  -0.4000000000000004 -0.95 0  -0.3499999999999996 -0.95 0  -0.2999999999999998 -0.95 0  -0.25 -0.95 0  -0.2000000000000002 -0.95 0  -0.1500000000000004 -0.95 0  -0.09999999999999964 -0.95 0  -0.04999999999999982 -0.95 0  0 -0.95 0  0.04999999999999982 -0.95 0  0.09999999999999964 -0.95 0  0.1500000000000004 -0.95 0  0.2000000000000002 -0.95 0  0.25 -0.95 0  0.2999999999999998 -0.95 0  0.3499999999999996 -0.95 0  0.4000000000000004 -0.95 0  0.4500000000000002 -0.95 0  0.5 -0.95 0  0.5499999999999998 -0.95 0  0.5999999999999996 -0.95 0  0.6500000000000004 -0.95 0  0.7000000000000002 -0.95 0  0.75 -0.95 0  0.7999999999999998 -0.95 0  0.8499999999999996 -0.95 0  0.9000000000000004 -0.95 0  0.9500000000000002 -0.95 0  1 -0.95 0  1.05 -0.95 0  1.1 -0.95 0  1.15 -0.95 0  1.2 -0.95 0  1.25 -0.95 0  1.3 -0.95 0  1.35 -0.95 0  1.4 -0.95 0  1.45 -0.95 0  1.5 -0.95 0  1.55 -0.95 0  1.6 -0.95 0  1.65 -0.95 0  1.7 -0.95 0  1.75 -0.95 0  1.8 -0.95 0  1.85 -0.95 0  1.9 -0.95 0  1.95 -0.95 0  2 -0.95 0  2.05 -0.95 0  2.1 -0.95 0  2.15 -0.95 0  2.2 -0.95 0  2.25 -0.95 0  2.3 -0.95 0  2.35 -0.95 0  2.4 -0.95 0  2.45 -0.95 0  2.5 -0.95 0  2.55 -0.95 0  2.6 -0.95 0  2.65 -0.95 0  2.7 -0.95 0  2.75 -0.95 0  2.8 -0.95 0  2.85 -0.95 0  2.9 -0.95 0  2.95 -0.95 0  3 -0.95 0  3.050000000000001 -0.95 0  3.1 -0.95 0  3.15 -0.95 0  3.199999999999999 -0.95 0  3.25 -0.95 0  3.300000000000001 -0.95 0  3.35 -0.95 0  3.4 -0.95 0  3.449999999999999 -0.95 0  3.5 -0.95 0  3.550000000000001 -0.95 0  3.6 -0.95 0  3.65 -0.95 0  3.699999999999999 -0.95 0  3.75 -0.95 0  3.800000000000001 -0.95 0  3.85 -0.95 0  3.9 -0.95 0  3.949999999999999 -0.95 0  4 -0.95 0  4.050000000000001 -0.95 0  4.1 -0.95 0  4.15 -0.95 0  4.199999999999999 -0.95 0  4.25 -0.95 0  4.300000000000001 -0.95 0  4.35 -0.95 0  4.4 -0.95 0  4.449999999999999 -0.95 0  4.5 -0.95 0  4.550000000000001 -0.95 0  4.6 -0.95 0  4.65 -0.95 0  4.699999999999999 -0.95 0  4.75 -0.95 0  4.800000000000001 -0.95 0  4.85 -0.95 0  4.9 -0.95 0  4.949999999999999 -0.95 0  5 -0.95 0  -5 -0.9 0  -4.95 -0.9 0  -4.9 -0.9 0  -4.85 -0.9 0  -4.8 -0.9 0  -4.75 -0.9 0  -4.7 -0.9 0  -4.65 -0.9 0  -4.6 -0.9 0  -4.55 -0.9 0  -4.5 -0.9 0  -4.45 -0.9 0  -4.4 -0.9 0  -4.35 -0.9 0  -4.3 -0.9 0  -4.25 -0.9 0  -4.2 -0.9 0  -4.15 -0.9 0  -4.1 -0.9 0  -4.05 -0.9 0  -4 -0.9 0  -3.95 -0.9 0  -3.9 -0.9 0  -3.85 -0.9 0  -3.8 -0.9 0  -3.75 -0.9 0  -3.7 -0.9 0  -3.65 -0.9 0  -3.6 -0.9 0  -3.55 -0.9 0  -3.5 -0.9 0  -3.45 -0.9 0  -3.4 -0.9 0  -3.35 -0.9 0  -3.3 -0.9 0  -3.25 -0.9 0  -3.2 -0.9 0  -3.15 -0.9 0  -3.1 -0.9 0  -3.05 -0.9 0  -3 -0.9 0  -2.95 -0.9 0  -2.9 -0.9 0  -2.85 -0.9 0  -2.8 -0.9 0  -2.75 -0.9 0  -2.7 -0.9 0  -2.65 -0.9 0  -2.6 -0.9 0  -2.55 -0.9 0  -2.5 -0.9 0  -2.45 -0.9 0  -2.4 -0.9 0  -2.35 -0.9 0  -2.3 -0.9 0  -2.25 -0.9 0  -2.2 -0.9 0  -2.15 -0.9 0  -2.1 -0.9 0  -2.05 -0.9 0  -2 -0.9 0  -1.95 -0.9 0  -1.9 -0.9 0  -1.85 -0.9 0  -1.8 -0.9 0  -1.75 -0.9 0  -1.7 -0.9 0  -1.65 -0.9 0  -1.6 -0.9 0  -1.55 -0.9 0  -1.5 -0.9 0  -1.45 -0.9 0  -1.4 -0.9 0  -1.35 -0.9 0  -1.3 -0.9 0  -1.25 -0.9 0  -1.2 -0.9 0  -1.15 -0.9 0  -1.1 -0.9 0  -1.05 -0.9 0  -1 -0.9 0  -0.9500000000000002 -0.9 0  -0.9000000000000004 -0.9 0  -0.8499999999999996 -0.9 0  -0.7999999999999998 -0.9 0  -0.75 -0.9 0  -0.7000000000000002 -0.9 0  -0.6500000000000004 -0.9 0  -0.5999999999999996 -0.9 0  -0.5499999999999998 -0.9 0  -0.5 -0.9 0  -0.4500000000000002 -0.9 0  -0.4000000000000004 -0.9 0  -0.3499999999999996 -0.9 0  -0.2999999999999998 -0.9 0  -0.25 -0.9 0  -0.2000000000000002 -0.9 0  -0.1500000000000004 -0.9 0  -0.09999999999999964 -0.9 0  -0.04999999999999982 -0.9 0  0 -0.9 0  0.04999999999999982 -0.9 0  0.09999999999999964 -0.9 0  0.1500000000000004 -0.9 0  0.2000000000000002 -0.9 0  0.25 -0.9 0  0.2999999999999998 -0.9 0  0.3499999999999996 -0.9 0  0.4000000000000004 -0.9 0  0.4500000000000002 -0.9 0  0.5 -0.9 0  0.5499999999999998 -0.9 0  0.5999999999999996 -0.9 0  0.6500000000000004 -0.9 0  0.7000000000000002 -0.9 0  0.75 -0.9 0  0.7999999999999998 -0.9 0  0.8499999999999996 -0.9 0  0.9000000000000004 -0.9 0  0.9500000000000002 -0.9 0  1 -0.9 0  1.05 -0.9 0  1.1 -0.9 0  1.15 -0.9 0  1.2 -0.9 0  1.25 -0.9 0  1.3 -0.9 0  1.35 -0.9 0  1.4 -0.9 0  1.45 -0.9 0  1.5 -0.9 0  1.55 -0.9 0  1.6 -0.9 0  1.65 -0.9 0  1.7 -0.9 0  1.75 -0.9 0  1.8 -0.9 0  1.85 -0.9 0  1.9 -0.9 0  1.95 -0.9 0  2 -0.9 0  2.05 -0.9 0  2.1 -0.9 0  2.15 -0.9 0  2.2 -0.9 0  2.25 -0.9 0  2.3 -0.9 0  2.35 -0.9 0  2.4 -0.9 0  2.45 -0.9 0  2.5 -0.9 0  2.55 -0.9 0  2.6 -0.9 0  2.65 -0.9 0  2.7 -0.9 0  2.75 -0.9 0  2.8 -0.9 0  2.85 -0.9 0  2.9 -0.9 0  2.95 -0.9 0  3 -0.9 0  3.050000000000001 -0.9 0  3.1 -0.9 0  3.15 -0.9 0  3.199999999999999 -0.9 0  3.25 -0.9 0  3.300000000000001 -0.9 0  3.35 -0.9 0  3.4 -0.9 0  3.449999999999999 -0.9 0  3.5 -0.9 0  3.550000000000001 -0.9 0  3.6 -0.9 0  3.65 -0.9 0  3.699999999999999 -0.9 0  3.75 -0.9 0  3.800000000000001 -0.9 0  3.85 -0.9 0  3.9 -0.9 0  3.949999999999999 -0.9 0  4 -0.9 0  4.050000000000001 -0.9 0  4.1 -0.9 0  4.15 -0.9 0  4.199999999999999 -0.9 0  4.25 -0.9 0  4.300000000000001 -0.9 0  4.35 -0.9 0  4.4 -0.9 0  4.449999999999999 -0.9 0  4.5 -0.9 0  4.550000000000001 -0.9 0  4.6 -0.9 0  4.65 -0.9 0  4.699999999999999 -0.9 0  4.75 -0.9 0  4.800000000000001 -0.9 0  4.85 -0.9 0  4.9 -0.9 0  4.949999999999999 -0.9 0  5 -0.9 0  -5 -0.85 0  -4.95 -0.85 0  -4.9 -0.85 0  -4.85 -0.85 0  -4.8 -0.85 0  -4.75 -0.85 0  -4.7 -0.85 0  -4.65 -0.85 0  -4.6 -0.85 0  -4.55 -0.85 0  -4.5 -0.85 0  -
[...]
<PointData  Vectors="f_15"> 
<DataArray  type="Float64"  Name="f_15"  NumberOfComponents="3" format="ascii">1.2092067735527516e+00 0.0000000000000000e+00 0.0000000000000000e+00  1.2029523489710110e+00 1.4790554108539140e-03 0.0000000000000000e+00  1.2109455570935885e+00 7.9240013544249935e-02 0.0000000000000000e+00  1.1995943277547096e+00 1.0589357093558036e-01 0.0000000000000000e+00  1.2130818127171927e+00 1.3416965095547723e-01 0.0000000000000000e+00  1.2005380218542645e+00 1.5237685695442985e-01 0.0000000000000000e+00  1.2099911094399507e+00 2.1000922613161505e-01 0.0000000000000000e+00  1.2026356889556284e+00 2.1376162423467279e-01 0.0000000000000000e+00  1.2107212809374217e+00 2.5559273722821940e-01 0.0000000000000000e+00  1.1997912280207736e+00 2.8227716557183041e-01 0.0000000000000000e+00  1.2127292922428636e+00 3.2087485403886884e-01 0.0000000000000000e+00  1.2006363190232385e+00 3.3537524123677748e-01 0.0000000000000000e+00  1.2102544420408654e+00 3.7450143408127384e-01 0.0000000000000000e+00  1.2026363140441778e+00 4.0622154586707876e-01 0.0000000000000000e+00  1.2116318312433685e+00 4.3339086592884557e-01 0.0000000000000000e+00  1.2003460881970092e+00 4.5012450360984563e-01 0.0000000000000000e+00  1.2143353582956580e+00 5.0679843340013719e-01 0.0000000000000000e+00  1.2020168396710758e+00 5.0478429107076916e-01 0.0000000000000000e+00  1.2132812137847446e+00 5.6061511172244149e-01 0.0000000000000000e+00  1.2051018798611024e+00 5.5710514331170125e-01 0.0000000000000000e+00  1.2163998399395470e+00 6.2647687310622868e-01 0.0000000000000000e+00  1.2050610948285176e+00 6.0384466961227601e-01 0.0000000000000000e+00  1.2211755000813802e+00 6.7661561621909627e-01 0.0000000000000000e+00  1.2097428698445800e+00 6.5431054555758250e-01 0.0000000000000000e+00  1.2236999155612718e+00 7.2682488955961189e-01 0.0000000000000000e+00  1.2166124926771604e+00 6.9739154851984653e-01 0.0000000000000000e+00  1.2311645751675775e+00 7.6876110089638106e-01 0.0000000000000000e+00  1.2222611789721451e+00 7.3522661846483750e-01 0.0000000000000000e+00  1.2408477781021479e+00 8.0511222986046582e-01 0.0000000000000000e+00  1.2327116448208046e+00 7.7407479736645912e-01 0.0000000000000000e+00  1.2490642770311853e+00 8.3358429265991363e-01 0.0000000000000000e+00  1.2447987592452963e+00 8.0545749190361560e-01 0.0000000000000000e+00  1.2606494522635565e+00 8.6416358049790454e-01 0.0000000000000000e+00  1.2549132386020667e+00 8.3729098770757171e-01 0.0000000000000000e+00  1.2726734166111899e+00 8.8976264444938102e-01 0.0000000000000000e+00  1.2673974709224960e+00 8.7231883162456014e-01 0.0000000000000000e+00  1.2825161256422322e+00 9.1448511556538381e-01 0.0000000000000000e+00  1.2799728123002045e+00 9.0569593806076820e-01 0.0000000000000000e+00  1.2941497510296636e+00 9.4354877332831288e-01 0.0000000000000000e+00  1.2906497222500730e+00 9.3755423173582086e-01 0.0000000000000000e+00  1.3058694527439405e+00 9.7007096799584658e-01 0.0000000000000000e+00  1.3026501245005706e+00 9.7318559830365869e-01 0.0000000000000000e+00  1.3162294004940140e+00 9.9557610949687692e-01 0.0000000000000000e+00  1.3145625371773195e+00 1.0067239837762652e+00 0.0000000000000000e+00  1.3277379589871481e+00 1.0246175293530151e+00 0.0000000000000000e+00  1.3253656536253740e+00 1.0376439554897785e+00 0.0000000000000000e+00  1.3392583701715446e+00 1.0530189512142305e+00 0.0000000000000000e+00  1.3369160422952129e+00 1.0711320424444748e+00 0.0000000000000000e+00  1.3500923717776634e+00 1.0794986192888008e+00 0.0000000000000000e+00  1.3483761052192185e+00 1.1038069116291276e+00 0.0000000000000000e+00  1.3614245095704940e+00 1.1087336273033128e+00 0.0000000000000000e+00  1.3595068214460861e+00 1.1331215197757480e+00 0.0000000000000000e+00  1.3725192532029920e+00 1.1392588660278919e+00 0.0000000000000000e+00  1.3710824153963344e+00 1.1634904920623983e+00 0.0000000000000000e+00  1.3833770737437565e+00 1.1677278367653265e+00 0.0000000000000000e+00  1.3826101035370306e+00 1.1945692808814172e+00 0.0000000000000000e+00  1.3942761064257587e+00 1.1976929252899158e+00 0.0000000000000000e+00  1.3944407878110303e+00 1.2224697288130346e+00 0.0000000000000000e+00  1.4048108132747190e+00 1.2300842694135889e+00 0.0000000000000000e+00  1.4064326670329528e+00 1.2503305930796007e+00 0.0000000000000000e+00  1.4156135418361802e+00 1.2604033585140753e+00 0.0000000000000000e+00  1.4181648553941715e+00 1.2802531902592218e+00 0.0000000000000000e+00  1.4263574937915628e+00 1.2905019509992504e+00 0.0000000000000000e+00  1.4304065617103965e+00 1.3083465164990500e+00 0.0000000000000000e+00  1.4367920234204363e+00 1.3226019019474060e+00 0.0000000000000000e+00  1.4425006333751307e+00 1.3361265215587967e+00 0.0000000000000000e+00  1.4479333465893205e+00 1.3527164284157407e+00 0.0000000000000000e+00  1.4540651257030559e+00 1.3666881140839100e+00 0.0000000000000000e+00  1.4591345831097990e+00 1.3810635347654598e+00 0.0000000000000000e+00  1.4660684670955348e+00 1.3970149051929694e+00 0.0000000000000000e+00  1.4702035654580048e+00 1.4107694291225343e+00 0.0000000000000000e+00  1.4776867801391060e+00 1.4261182343521734e+00 0.0000000000000000e+00  1.4821385770606557e+00 1.4401433271886510e+00 0.0000000000000000e+00  1.4888439361074182e+00 1.4567765496604954e+00 0.0000000000000000e+00  1.4939086621232007e+00 1.4672715333342705e+00 0.0000000000000000e+00  1.5006478806307941e+00 1.4888011464620230e+00 0.0000000000000000e+00  1.5055054041566702e+00 1.4941741440222316e+00 0.0000000000000000e+00  1.5119580940624990e+00 1.5196499190018795e+00 0.0000000000000000e+00  1.5180188117876234e+00 1.5222749529147370e+00 0.0000000000000000e+00  1.5229127905566457e+00 1.5506842193188530e+00 0.0000000000000000e+00  1.5300999642166111e+00 1.5478777392995609e+00 0.0000000000000000e+00  1.5347371551960007e+00 1.5858354882915402e+00 0.0000000000000000e+00  1.5418481026639619e+00 1.5706044525705463e+00 0.0000000000000000e+00  1.5460632160403500e+00 1.6206329017911525e+00 0.0000000000000000e+00  1.5544560321331962e+00 1.5978270708202538e+00 0.0000000000000000e+00  1.5571010574103759e+00 1.6506048549400232e+00 0.0000000000000000e+00  1.5664438327335679e+00 1.6266867237500313e+00 0.0000000000000000e+00  1.5691018467982949e+00 1.6843596578904834e+00 0.0000000000000000e+00  1.5780179625379651e+00 1.6495574283329062e+00 0.0000000000000000e+00  1.5805656765255487e+00 1.7207306242438187e+00 0.0000000000000000e+00  1.5903834280794966e+00 1.6769147848561159e+00 0.0000000000000000e+00  1.5918828530638358e+00 1.7475960187730744e+00 0.0000000000000000e+00  1.6019216080972538e+00 1.7117215685547693e+00 0.0000000000000000e+00  1.6041858159026203e+00 1.7742587831292551e+00 0.0000000000000000e+00  1.6131804508425116e+00 1.7393404332585616e+00 0.0000000000000000e+00  1.6156910149030843e+00 1.8073130178129670e+00 0.0000000000000000e+00  1.6253053298053961e+00 1.7672580609842363e+00 0.0000000000000000e+00  1.6271756205882320e+00 1.8313173443220008e+00 0.0000000000000000e+00  1.6363119463129614e+00 1.8052456045443512e+00 0.0000000000000000e+00  1.6396712653248293e+00 1.8512087783130229e+00 0.0000000000000000e+00  1.6473024282804924e+00 1.8380172509396475e+00 0.0000000000000000e+00  1.6508982268214796e+00 1.8787250701782061e+00 0.0000000000000000e+00  1.6593408313219264e+00 1.8669978644950953e+00 0.0000000000000000e+00  1.6621851729904207e+00 1.9020293487669073e+00 0.0000000000000000e+00  1.6700431614815523e+00 1.9017669235205097e+00 0.0000000000000000e+00  1.6746769978933407e+00 1.9224602310477630e+00 0.0000000000000000e+00  1.6811415307402329e+00 1.9311507005780695e+00 0.0000000000000000e+00  1.6864988706318043e+00 1.9474117540191360e+00 0.0000000000000000e+00  1.6944606215640690e+00 1.9546810035371895e+00 0.0000000000000000e+00  1.7010246926254324e+00 1.9649058238011856e+00 0.0000000000000000e+00  1.7102874306911420e+00 1.9742264027478464e+00 0.0000000000000000e+00  1.7227081925100476e+00 1.9696220225843217e+00 0.0000000000000000e+00  1.7344844921383751e+00 1.9764502905816030e+00 0.0000000000000000e+00  1.7530204481887826e+00 1.9603405780635481e+00 0.0000000000000000e+00  1.7691460468866127e+00 1.9609541993666333e+00 0.0000000000000000e+00  1.7909172121333141e+00 1.9387242731905665e+00 0.0000000000000000e+00  1.8039751084171909e+00 1.9443486372994980e+00 0.0000000000000000e+00  1.8249296914727691e+00 1.9266443850853747e+00 0.0000000000000000e+00  1.8276051541849374e+00 1.9440516913934656e+00 0.0000000000000000e+00  1.8419041340652587e+00 1.9444343188240718e+00 0.0000000000000000e+00  1.8310687125704137e+00 1.9771244239081089e+00 0.0000000000000000e+00  1.8298643745284684e+00 2.0175035818554110e+00 0.0000000000000000e+00  1.7832825812300874e+00 2.0975104762446426e+00 0.0000000000000000e+00  1.7447461798613606e+00 2.2072466569677500e+00 0.0000000000000000e+00  1.6425226445425973e+00 2.3726756252191947e+00 0.0000000000000000e+00  1.7834969553087203e+00 2.0507319158698354e+00 0.0000000000000000e+00  2.4437056503609109e+00 5.7886601476016375e-01 0.0000000000000000e+00  2.8825657617930291e+00 -1.6759960625383080e-01 0.0000000000000000e+00  2.8843653645334908e+00 -1.7909818322142934e-01 0.0000000000000000e+00  2.8720118436359567e+00 -1.4899654858107583e-01 0.0000000000000000e+00  2.9045703591493242e+00 -1.8314228533613999e-01 0.0000000000000000e+00  2.9162477667519138e+00 -1.8244685316774148e-01 0.0000000000000000e+00  2.9114730036740522e+00 -1.6746507983726136e-01 0.0000000000000000e+00  2.9276657918501492e+00 -1.6925151403511210e-01 0.0000000000000000e+00  2.9184049462178945e+00 -1.4764363122453594e-01 0.0000000000000000e+00  2.9327855212814034e+00 -1.5126659085241098e-01 0.0000000000000000e+00  2.9302563126378773e+00 -1.3974591935936859e-01 0.0000000000000000e+00  2.9412835374345696e+00 -1.4157707950458703e-01 0.0000000000000000e+00  2.9371233671158339e+00 -1.2687079509418633e-01 0.0000000000000000e+00  2.9474762451839864e+00 -1.2890625280294613e-01 0.0000000000000000e+00  2.9429054483539061e+00 -1.1646577591302501e-01 0.0000000000000000e+00  2.9540714326719666e+00 -1.1905429283388667e-01 0.0000000000000000e+00  2.9482559568852191e+00 -1.0590598887950214e-01 0.0000000000000000e+00  2.9582606152409272e+00 -1.0807414772028688e-01 0.0000000000000000e+00  2.9528270486867725e+00 -9.5121207450105799e-02 0.0000000000000000e+00  2.9618460157764446e+00 -9.7480588305389110e-02 0.0000000000000000e+00  2.9558158403151520e+00 -8.5102975803199948e-02 0.0000000000000000e+00  2.9651079705882224e+00 -8.6848640737533830e-02 0.0000000000000000e+00  2.9579595934964065e+00 -7.6408900677942301e-02 0.0000000000000000e+00  2.9668219282635784e+00 -7.6252263450751118e-02 0.0000000000000000e+00  2.9597666365768021e+00 -6.8166636106042497e-02 0.0000000000000000e+00  2.9682543287638312e+00 -6.7374602962659111e-02 0.0000000000000000e+00  2.9602297155293864e+00 -5.9497036293313550e-02 0.0000000000000000e+00  2.9694494122837058e+00 -5.9247805304217548e-02 0.0000000000000000e+00  2.9607331785611000e+00 -5.2357706248023168e-02 0.0000000000000000e+00  2.9694533439940898e+00 -5.1099958545091084e-02 0.0000000000000000e+00  2.9613670638306435e+00 -4.6561487017801557e-02 0.0000000000000000e+00  2.9696877859954518e+00 -4.4274786145776394e-02 0.0000000000000000e+00  2.9609855028020071e+00 -4.0109396584591714e-02 0.0000000000000000e+00  2.9703205810590290e+00 -4.0661655141682504e-02 0.0000000000000000e+00  2.9609178677204002e+00 -3.6043492924141489e-02 0.0000000000000000e+00  2.9700664930824070e+00 -4.1192766417878265e-02 0.0000000000000000e+00  2.9614961816766572e+00 -3.7547198402176477e-02 0.0000000000000000e+00  2.9699777408186185e+00 -4.7613862453780242e-02 0.0000000000000000e+00  2.9614108714284675e+00 -4.0405764666914576e-02 0.0000000000000000e+00  2.9705066363626247e+00 -5.2039009521337297e-02 0.0000000000000000e+00  2.9615344538116144e+00 -3.8430007712365467e-02 0.0000000000000000e+00  2.9703953549015814e+00 -4.7536194167811970e-02 0.0000000000000000e+00  2.9623043488705396e+00 -3.0173452925852107e-02 0.0000000000000000e+00  2.9704123074258564e+00 -3.8763554679345683e-02 0.0000000000000000e+00  2.9625022118158957e+00 -1.9887065462515272e-02 0.0000000000000000e+00  2.9708797854937514e+00 -2.9590167297802360e-02 0.0000000000000000e+00  2.9628954757325685e+00 -1.4324444321193969e-02 0.0000000000000000e+00  2.9707645444455850e+00 -2.2849038305736646e-02 0.0000000000000000e+00  2.9635430362354440e+00 -9.5524804595046500e-03 0.0000000000000000e+00  2.9709812642657289e+00 -2.3057191512520114e-02 0.0000000000000000e+00  2.9634867679187749e+00 -6.1102516208650500e-03 0.0000000000000000e+00  2.9714507842535869e+00 -2.4655791102896164e-02 0.0000000000000000e+00  2.9636331272710903e+00 -7.6422959634967315e-03 0.0000000000000000e+00  2.9714042075303180e+00 -2.5718861576355438e-02 0.0000000000000000e+00  2.9637614334573055e+00 -1.2746278550194931e-02 0.0000000000000000e+00  2.9717513594778486e+00 -2.4527474886912759e-02 0.0000000000000000e+00  2.9632105268895867e+00 -2.0405223728370947e-02 0.0000000000000000e+00  2.9722771316090464e+00 -2.2224825412521618e-02 0.0000000000000000e+00  2.9628288399568814e+00 -2.5692903491787898e-02 0.0000000000000000e+00  2.9724097766591435e+00 -1.7929571220744730e-02 0.0000000000000000e+00  2.9624678657085921e+00 -2.7216480437801963e-02 0.0000000000000000e+00  2.9728831464140262e+00 -1.1544199263401507e-02 0.0000000000000000e+00  2.9616820612622825e+00 -2.2457152900042559e-02 0.0000000000000000e+00  2.9735035291901024e+00 -9.8773590935296984e-03 0.0000000000000000e+00  2.9611792960626384e+00 -2.1050318196822248e-02 0.0000000000000000e+00  2.9738355663026446e+00 -2.7604889305113532e-02 0.0000000000000000e+00  2.9607414534437915e+00 -4.8349550063220476e-02 0.0000000000000000e+00  2.9743911531358065e+00 -6.2041478353910336e-02 0.0000000000000000e+00  2.9600086071532203e+00 -7.4798770210122767e-02 0.0000000000000000e+00  2.9750213291500551e+00 -7.3280731685136796e-02 0.0000000000000000e+00  2.9597116144707734e+00 -6.9633581119502144e-02 0.0000000000000000e+00  2.9755111803397174e+00 -5.2462012102031136e-02 0.0000000000000000e+00  2.9595806832732494e+00 -5.8606289485313698e-02 0.0000000000000000e+00  2.9762950370822780e+00 -2.8262058315725355e-02 0.0000000000000000e+00  2.9593204235676631e+00 0.0000000000000000e+00 0.0000000000000000e+00  1.1979123265152940e+00 0.0000000000000000e+00 2.3409242667254967e-02  1.1982745093235316e+00 2.9103688720500037e-02 4.9184652505402850e-03  1.1950214626523203e+00 4.8038046310755485e-02 -1.4802733692812353e-02  1.1998404805521232e+00 7.7070490160208921e-02 -1.5433460807329493e-02  1.1961196490553936e+00 1.1523509443960862e-01 3.0551887121188646e-02  1.1969360851437889e+00 1.3308017511952977e-01 -3.6514557604514691e-02  1.1983374162328899e+00 1.8840845565611519e-01 3.3644774753019288e-02  1.1981779258084966e+00 1.8107621971004406e-01 -3.2207623015044200e-02  1.1956184326940531e+00 2.5664486766678640e-01 3.4638657545956568e-02  1.2007784081601567e+00 2.4748267720590214e-01 -3.9545545799077299e-02  1.1967117440514592e+00 3.1236502754047912e-01 3.9654273118156856e-02  1.1986406062635220e+00 3.0657186497641398e-01 -3.7645713450550858e-02  1.1991187452468084e+00 3.8118730159091702e-01 3.6922775737289866e-02  1.2002203687671951e+00 3.6405593370260630e-01 -3.9132534238085333e-02  1.1972328868051469e+00 4.3609945447520776e-01 3.6351316657648479e-02  1.2028040524493839e+00 4.3311899668287984e-01 -2.6141536030688108e-02  1.1994554367144541e+00 4.8570670364083363e-01 1.3758958037995195e-02  1.2011777504119003e+00 4.9771323079684693e-01 -8.2641196981958886e-03  1.2029391962274381e+00 5.3955453860762947e-01 6.1548146204624555e-03  1.2035671718293459e+00 5.5988017540976542e-01 -1.4363211706685309e-03  1.2029808920797960e+00 5.8624358769199725e-01 -7.3879990810301836e-03  1.2074320992789052e+00 6.2194294143216322e-01 1.2136203659587834e-02  1.2073963285330485e+00 6.3691734098966657e-01 -1.2216900994913939e-02  1.2087700433044337e+00 6.7177942772675137e-01 1.3542231224904938e-02  1.2136917694185272e+00 6.8226617441589010e-01 -1.7192324007441556e-02  1.2150538106384603e+00 7.2213628892108572e-01 1.8693877520764634e-02  1.2182930672768253e+00 7.2280853660409117e-01 -1.7585891242839349e-02  1.2237122858023508e+00 7.6110535110940036e-01 1.8094480125460895e-02  1.2277360672633941e+00 7.6142917839293145e-01 -1.8711741088059185e-02  1.2311121960181493e+00 7.9393646256352735e-01 1.7710311283487098e-02  1.2390030826944287e+00 7.9427296797006774e-01 -1.6505877286853345e-02  1.2424643482840707e+00 8.2642005420874287e-01 1.6544671364744391e-02  1.2483402693173227e+00 8.2288492563876192e-01 -1.5993956585384269e-02  1.2546115222326131e+00 8.5374010933910660e-01 1.4662939997241662e-02  1.2602774352252823e+00 8.5562576904778243e-01 -1.3572714694853223e-02  1.2645040753491130e+00 8.8020033756121918e-01 1.2823825205296983e-02  1.2723403911134674e+00 8.8501992163569121e-01 -1.1876928997988943e-02  1.2763314135954633e+00 9.1049715987869217e-01 1.0913295739705821e-02  1.2823971363815745e+00 9.1329923341216590e-01 -1.0429771516711411e-02  1.2882290517277570e+00 9.3915942134654495e-01 9.8049984335751763e-03  1.2940643339008424e+00 9.4570124335019301e-01 -9.1950515499479770e-03  1.2985781133118852e+00 9.6664729335276445e-01 8.7346309006987224e-03  1.3058432892944500e+00 9.7582389540006975e-01 -8.5678827072627160e-03  1.3101902554754126e+00 9.9829627231427154e-01 8.5035755422628902e-03  1.3165354822648292e+00 1.0039991220459141e+00 -8.5030681349776132e-03  1.3218387924821289e+00 1.0293401449121236e+00 8.5385193804915493e-03  1.3282450534405745e+00 1.0355800347395914e+00 -8.5685840232800573e-03  1.3327234043814880e+00 1.0582830640906260e+00 8.7478568255713370e-03  1.3400198861821004e+00 1.0664295618049446e+00 -8.9921333442275226e-03  1.3443211322076891e+00 1.0903449428109213e+00 9.4052382302792503e-03  1.3514291568722503e+00 1.0947935836617915e+00 -9.7813576223122426e-03  1.3558729144646406e+00 1.1231044223790432e+00 1.0305612758373760e-02  1.3633867582122909e+00 1.1251166043764620e+00 -1.0722022730111804e-02  1.3672773325479843e+00 1.1533319343894557e+00 1.1313033740888259e-02  1.3752748292330625e+00 1.1563445045370515e+00 -1.1837714089531815e-02  1.3789775822334946e+00 1.1852160873939839e+00 1.2364268155381757e-02  1.3872501258202681e+00 1.1851778360388499e+00 -1.2758986696728248e-02  1.3904997606367726e+00 1.2186078099442506e+00 1.3094706919568601e-02  1.3993018144630902e+00 1.2150468437272239e+00 -1.3371369179127448e-02  1.4023482245298937e+00 1.2493283996513060e+00 1.3568248936625242e-02  1.4110286364681193e+00 1.2472250941361400e+00 -1.3690967985051695e-02  1.4142553247539251e+00 1.2799423143871282e+00 1.3620016407958183e-02  1.4231395711952100e+00 1.2777284361074075e+00 -1.3348218889706982e-02  1.4258690995887724e+00 1.3120855293072540e+00 1.2979061768814358e-02  1.4350902582720442e+00 1.3084093993103849e+00 -1.2491643004084526e-02  1.4380724545769370e+00 1.3420623391494115e+00 1.2085158080639260e-02  1.4465698837460050e+00 1.3414718348186165e+00 -1.1486721871852127e-02  1.4502132581722127e+00 1.3709359910989798e+00 1.0940053953308226e-02  1.4585563927091205e+00 1.3735092954494652e+00 -9.9335148319857625e-03  1.4620329919757906e+00 1.4012905501001061e+00 9.0385097468865579e-03  1.4702736621127843e+00 1.4045624637765437e+00 -7.6959743578992549e-03  1.4744931355413153e+00 1.4308960587683237e+00 6.7838073411270001e-03  1.4816287784305100e+00 1.4371043525899250e+00 -5.4921444623714276e-03  1.4866272993376044e+00 1.4589184426039437e+00 4.8035508559204571e-03  1.4936915825621886e+00 1.4698320142305688e+00 -3.4936042961899610e-03  1.4984186711403724e+00 1.4876492880966896e+00 2.7742218334314765e-03  1.5053332883285548e+00 1.5009236842986455e+00 -1.2875776011308392e-03  1.5109718907378189e+00 1.5174170130162876e+00 5.7573709270095075e-04  1.5166586195369911e+00 1.5318455892859744e+00 7.1376153356571628e-04  1.5229909716239998e+00 1.5455738242935493e+00 -1.0851802681309550e-03  1.5288617023731159e+00 1.5646424728375306e+00 1.9717049087217106e-03  1.5346134152773199e+00 1.57261502577994