<?xml version="1.0"?>
<VTKFile type="UnstructuredGrid"  version="0.1"  >
<UnstructuredGrid>
<Piece  NumberOfPoints="8241" NumberOfCells="16000">
<Points>
<DataArray  type="Float64"  NumberOfComponents="3"  format="ascii">-5 -1 0  -4.95 -1 0  -4.9 -1 0  -4.85 -1 0  -4.8 -1 0  -4.75 -1 0  -4.7 -1 0  -4.65 -1 0  -4.6 -1 0  -4.55 -1 0  -4.5 -1 0  -4.45 -1 0  -4.4 -1 0  -4.35 -1 0  -4.3 -1 0  -4.25 -1 0  -4.2 -1 0  -4.15 -1 0  -4.1 -1 0  -4.05 -1 0  -4 -1 0  -3.95 -1 0  -3.9 -1 0  -3.85 -1 0  -3.8 -1 0  -3.75 -1 0  -3.7 -1 0  -3.65 -1 0  -3.6 -1 0  -3.55 -1 0  -3.5 -1 0  -3.45 -1 0  -3.4 -1 0  -3.35 -1 0  -3.3 -1 0  -3.25 -1 0  -3.2 -1 0  -3.15 -1 0  -3.1 -1 0  -3.05 -1 0  -3 -1 0  -2.95 -1 0  -2.9 -1 0  -2.85 -1 0  -2.8 -1 0  -2.75 -1 0  -2.7 -1 0  -2.65 -1 0  -2.6 -1 0  -2.55 -1 0  -2.5 -1 0  -2.45 -1 0  -2.4 -1 0  -2.35 -1 0  -2.3 -1 0  -2.25 -1 0  -2.2 -1 0  -2.15 -1 0  -2.1 -1 0  -2.05 -1 0  -2 -1 0  -1.95 -1 0  -1.9 -1 0  -1.85 -1 0  -1.8 -1 0  -1.75 -1 0  -1.7 -1 0  -1.65 -1 0  -1.6 -1 0  -1.55 -1 0  -1.5 -1 0  -1.45 -1 0  -1.4 -1 0  -1.35 -1 0  -1.3 -1 0  -1.25 -1 0  -1.2 -1 0  -1.15 -1 0  -1.1 -1 0  -1.05 -1 0  -1 -1 0  -0.9500000000000002 -1 0  -0.9000000000000004 -1 0  -0.8499999999999996 -1 0  -0.7999999999999998 -1 0  -0.75 -1 0  -0.7000000000000002 -1 0  -0.6500000000000004 -1 0  -0.5999999999999996 -1 0  -0.5499999999999998 -1 0  -0.5 -1 0  -0.4500000000000002 -1 0  -0.4000000000000004 -1 0  -0.3499999999999996 -1 0  -0.2999999999999998 -1 0  -0.25 -1 0  -0.2000000000000002 -1 0  -0.1500000000000004 -1 0  -0.09999999999999964 -1 0  -0.04999999999999982 -1 0  0 -1 0  0.04999999999999982 -1 0  0.09999999999999964 -1 0  0.1500000000000004 -1 0  0.2000000000000002 -1 0  0.25 -1 0  0.2999999999999998 -1 0  0.3499999999999996 -1 0  0.4000000000000004 -1 0  0.4500000000000002 -1 0  0.5 -1 0  0.5499999999999998 -1 0  0.5999999999999996 -1 0  0.6500000000000004 -1 0  0.7000000000000002 -1 0  0.75 -1 0  0.7999999999999998 -1 0  0.8499999999999996 -1 0  0.9000000000000004 -1 0  0.9500000000000002 -1 0  1 -1 0  1.05 -1 0  1.1 -1 0  1.15 -1 0  1.2 -1 0  1.25 -1 0  1.3 -1 0  1.35 -1 0  1.4 -1 0  1.45 -1 0  1.5 -1 0  1.55 -1 0  1.6 -1 0  1.65 -1 0  1.7 -1 0  1.75 -1 0  1.8 -1 0  1.85 -1 0  1.9 -1 0  1.95 -1 0  2 -1 0  2.05 -1 0  2.1 -1 0  2.15 -1 0  2.2 -1 0  2.25 -1 0  2.3 -1 0  2.35 -1 0  2.4 -1 0  2.45 -1 0  2.5 -1 0  2.55 -1 0  2.6 -1 0  2.65 -1 0  2.7 -1 0  2.75 -1 0  2.8 -1 0  2.85 -1 0  2.9 -1 0  2.95 -1 0  3 -1 0  3.050000000000001 -1 0  3.1 -1 0  3.15 -1 0  3.199999999999999 -1 0  3.25 -1 0  3.300000000000001 -1 0  3.35 -1 0  3.4 -1 0  3.449999999999999 -1 0  3.5 -1 0  3.550000000000001 -1 0  3.6 -1 0  3.65 -1 0  3.699999999999999 -1 0  3.75 -1 0  3.800000000000001 -1 0  3.85 -1 0  3.9 -1 0  3.949999999999999 -1 0  4 -1 0  4.050000000000001 -1 0  4.1 -1 0  4.15 -1 0  4.199999999999999 -1 0  4.25 -1 0  4.300000000000001 -1 0  4.35 -1 0  4.4 -1 0  4.449999999999999 -1 0  4.5 -1 0  4.550000000000001 -1 0  4.6 -1 0  4.65 -1 0  4.699999999999999 -1 0  4.75 -1 0  4.800000000000001 -1 0  4.85 -1 0  4.9 -1 0  4.949999999999999 -1 0  5 -1 0  -5 -0.95 0  -4.95 -0.95 0  -4.9 -0.95 0  -4.85 -0.95 0  -4.8 -0.95 0  -4.75 -0.95 0  -4.7 -0.95 0  -4.65 -0.95 0  -4.6 -0.95 0  -4.55 -0.95 0  -4.5 -0.95 0  -4.45 -0.95 0  -4.4 -0.95 0  -4.35 -0.95 0  -4.3 -0.95 0  -4.25 -0.95 0  -4.2 -0.95 0  -4.15 -0.95 0  -4.1 -0.95 0  -4.05 -0.95 0  -4 -0.95 0  -3.95 -0.95 0  -3.9 -0.95 0  -3.85 -0.95 0  -3.8 -0.95 0  -3.75 -0.95 0  -3.7 -0.95 0  -3.65 -0.95 0  -3.6 -0.95 0  -3.55 -0.95 0  -3.5 -0.95 0  -3.45 -0.95 0  -3.4 -0.95 0  -3.35 -0.95 0  -3.3 -0.95 0  -3.25 -0.95 0  -3.2 -0.95 0  -3.15 -0.95 0  -3.1 -0.95 0  -3.05 -0.95 0  -3 -0.95 0  -2.95 -0.95 0  -2.9 -0.95 0  -2.85 -0.95 0  -2.8 -0.95 0  -2.75 -0.95 0  -2.7 -0.95 0  -2.65 -0.95 0  -2.6 -0.95 0  -2.55 -0.95 0  -2.5 -0.95 0  -2.45 -0.95 0  -2.4 -0.95 0  -2.35 -0.95 0  -2.3 -0.95 0  -2.25 -0.95 0  -2.2 -0.95 0  -2.15 -0.95 0  -2.1 -0.95 0  -2.05 -0.95 0  -2 -0.95 0  -1.95 -0.95 0  -1.9 -0.95 0  -1.85 -0.95 0  -1.8 -0.95 0  -1.75 -0.95 0  -1.7 -0.95 0  -1.65 -0.95 0  -1.6 -0.95 0  -1.55 -0.95 0  -1.5 -0.95 0  -1.45 -0.95 0  -1.4 -0.95 0  -1.35 -0.95 0  -1.3 -0.95 0  -1.25 -0.95 0  -1.2 -0.95 0  -1.15 -0.95 0  -1.1 -0.95 0  -1.05 -0.95 0  -1 -0.95 0  -0.9500000000000002 -0.95 0  -0.9000000000000004 -0.95 0  -0.8499999999999996 -0.95 0  -0.7999999999999998 -0.95 0  -0.75 -0.95 0  -0.7000000000000002 -0.95 0  -0.6500000000000004 -0.95 0  -0.5999999999999996 -0.95 0  -0.5499999999999998 -0.95 0  -0.5 -0.95 0  -0.4500000000000002 -0.95 0  -0.4000000000000004 -0.95 0  -0.3499999999999996 -0.95 0  -0.2999999999999998 -0.95 0  -0.25 -0.95 0  -0.2000000000000002 -0.95 0  -0.1500000000000004 -0.95 0  -0.09999999999999964 -0.95 0  -0.04999999999999982 -0.95 0  0 -0.95 0  0.04999999999999982 -0.95 0  0.09999999999999964 -0.95 0  0.1500000000000004 -0.95 0  0.2000000000000002 -0.95 0  0.25 -0.95 0  0.2999999999999998 -0.95 0  0.3499999999999996 -0.95 0  0.4000000000000004 -0.95 0  0.4500000000000002 -0.95 0  0.5 -0.95 0  0.5499999999999998 -0.95 0  0.5999999999999996 -0.95 0  0.6500000000000004 -0.95 0  0.7000000000000002 -0.95 0  0.75 -0.95 0  0.7999999999999998 -0.95 0  0.8499999999999996 -0.95 0  0.9000000000000004 -0.95 0  0.9500000000000002 -0.95 0  1 -0.95 0  1.05 -0.95 0  1.1 -0.95 0  1.15 -0.95 0  1.2 -0.95 0  1.25 -0.95 0  1.3 -0.95 0  1.35 -0.95 0  1.4 -0.95 0  1.45 -0.95 0  1.5 -0.95 0  1.55 -0.95 0  1.6 -0.95 0  1.65 -0.95 0  1.7 -0.95 0  1.75 -0.95 0  1.8 -0.95 0  1.85 -0.95 0  1.9 -0.95 0  1.95 -0.95 0  2 -0.95 0  2.05 -0.95 0  2.1 -0.95 0  2.15 -0.95 0  2.2 -0.95 0  2.25 -0.95 0  2.3 -0.95 0  2.35 -0.95 0  2.4 -0.95 0  2.45 -0.95 0  2.5 -0.95 0  2.55 -0.95 0  2.6 -0.95 0  2.65 -0.95 0  2.7 -0.95 0  2.75 -0.95 0  2.8 -0.95 0  2.85 -0.95 0  2.9 -0.95 0  2.95 -0.95 0  3 -0.95 0  3.050000000000001 -0.95 0  3.1 -0.95 0  3.15 -0.95 0  3.199999999999999 -0.95 0  3.25 -0.95 0  3.300000000000001 -0.95 0  3.35 -0.95 0  3.4 -0.95 0  3.449999999999999 -0.95 0  3.5 -0.95 0  3.550000000000001 -0.95 0  3.6 -0.95 0  3.65 -0.95 0  3.699999999999999 -0.95 0  3.75 -0.95 0  3.800000000000001 -0.95 0  3.85 -0.95 0  3.9 -0.95 0  3.949999999999999 -0.95 0  4 -0.95 0  4.050000000000001 -0.95 0  4.1 -0.95 0  4.15 -0.95 0  4.199999999999999 -0.95 0  4.25 -0.95 0  4.300000000000001 -0.95 0  4.35 -0.95 0  4.4 -0.95 0  4.449999999999999 -0.95 0  4.5 -0.95 0  4.550000000000001 -0.95 0  4.6 -0.95 0  4.65 -0.95 0  4.699999999999999 -0.95 0  4.75 -0.95 0  4.800000000000001 -0.95 0  4.85 -0.95 0  4.9 -0.95 0  4.949999999999999 -0.95 0  5 -0.95 0  -5 -0.9 0  -4.95 -0.9 0  -4.9 -0.9 0  -4.85 -0.9 0  -4.8 -0.9 0  -4.75 -0.9 0  -4.7 -0.9 0  -4.65 -0.9 0  -4.6 -0.9 0  -4.55 -0.9 0  -4.5 -0.9 0  -4.45 -0.9 0  -4.4 -0.9 0  -4.35 -0.9 0  -4.3 -0.9 0  -4.25 -0.9 0  -4.2 -0.9 0  -4.15 -0.9 0  -4.1 -0.9 0  -4.05 -0.9 0  -4 -0.9 0  -3.95 -0.9 0  -3.9 -0.9 0  -3.85 -0.9 0  -3.8 -0.9 0  -3.75 -0.9 0  -3.7 -0.9 0  -3.65 -0.9 0  -3.6 -0.9 0  -3.55 -0.9 0  -3.5 -0.9 0  -3.45 -0.9 0  -3.4 -0.9 0  -3.35 -0.9 0  -3.3 -0.9 0  -3.25 -0.9 0  -3.2 -0.9 0  -3.15 -0.9 0  -3.1 -0.9 0  -3.05 -0.9 0  -3 -0.9 0  -2.95 -0.9 0  -2.9 -0.9 0  -2.85 -0.9 0  -2.8 -0.9 0  -2.75 -0.9 0  -2.7 -0.9 0  -2.65 -0.9 0  -2.6 -0.9 0  -2.55 -0.9 0  -2.5 -0.9 0  -2.45 -0.9 0  -2.4 -0.9 0  -2.35 -0.9 0  -2.3 -0.9 0  -2.25 -0.9 0  -2.2 -0.9 0  -2.15 -0.9 0  -2.1 -0.9 0  -2.05 -0.9 0  -2 -0.9 0  -1.95 -0.9 0  -1.9 -0.9 0  -1.85 -0.9 0  -1.8 -0.9 0  -1.75 -0.9 0  -1.7 -0.9 0  -1.65 -0.9 0  -1.6 -0.9 0  -1.55 -0.9 0  -1.5 -0.9 0  -1.45 -0.9 0  -1.4 -0.9 0  -1.35 -0.9 0  -1.3 -0.9 0  -1.25 -0.9 0  -1.2 -0.9 0  -1.15 -0.9 0  -1.1 -0.9 0  -1.05 -0.9 0  -1 -0.9 0  -0.9500000000000002 -0.9 0  -0.9000000000000004 -0.9 0  -0.8499999999999996 -0.9 0  -0.7999999999999998 -0.9 0  -0.75 -0.9 0  -0.7000000000000002 -0.9 0  -0.6500000000000004 -0.9 0  -0.5999999999999996 -0.9 0  -0.5499999999999998 -0.9 0  -0.5 -0.9 0  -0.4500000000000002 -0.9 0  -0.4000000000000004 -0.9 0  -0.3499999999999996 -0.9 0  -0.2999999999999998 -0.9 0  -0.25 -0.9 0  -0.2000000000000002 -0.9 0  -0.1500000000000004 -0.9 0  -0.09999999999999964 -0.9 0  -0.04999999999999982 -0.9 0  0 -0.9 0  0.04999999999999982 -0.9 0  0.09999999999999964 -0.9 0  0.1500000000000004 -0.9 0  0.2000000000000002 -0.9 0  0.25 -0.9 0  0.2999999999999998 -0.9 0  0.3499999999999996 -0.9 0  0.4000000000000004 -0.9 0  0.4500000000000002 -0.9 0  0.5 -0.9 0  0.5499999999999998 -0.9 0  0.5999999999999996 -0.9 0  0.6500000000000004 -0.9 0  0.7000000000000002 -0.9 0  0.75 -0.9 0  0.7999999999999998 -0.9 0  0.8499999999999996 -0.9 0  0.9000000000000004 -0.9 0  0.9500000000000002 -0.9 0  1 -0.9 0  1.05 -0.9 0  1.1 -0.9 0  1.15 -0.9 0  1.2 -0.9 0  1.25 -0.9 0  1.3 -0.9 0  1.35 -0.9 0  1.4 -0.9 0  1.45 -0.9 0  1.5 -0.9 0  1.55 -0.9 0  1.6 -0.9 0  1.65 -0.9 0  1.7 -0.9 0  1.75 -0.9 0  1.8 -0.9 0  1.85 -0.9 0  1.9 -0.9 0  1.95 -0.9 0  2 -0.9 0  2.05 -0.9 0  2.1 -0.9 0  2.15 -0.9 0  2.2 -0.9 0  2.25 -0.9 0  2.3 -0.9 0  2.35 -0.9 0  2.4 -0.9 0  2.45 -0.9 0  2.5 -0.9 0  2.55 -0.9 0  2.6 -0.9 0  2.65 -0.9 0  2.7 -0.9 0  2.75 -0.9 0  2.8 -0.9 0  2.85 -0.9 0  2.9 -0.9 0  2.95 -0.9 0  3 -0.9 0  3.050000000000001 -0.9 0  3.1 -0.9 0  3.15 -0.9 0  3.199999999999999 -0.9 0  3.25 -0.9 0  3.300000000000001 -0.9 0  3.35 -0.9 0  3.4 -0.9 0  3.449999999999999 -0.9 0  3.5 -0.9 0  3.550000000000001 -0.9 0  3.6 -0.9 0  3.65 -0.9 0  3.699999999999999 -0.9 0  3.75 -0.9 0  3.800000000000001 -0.9 0  3.85 -0.9 0  3.9 -0.9 0  3.949999999999999 -0.9 0  4 -0.9 0  4.050000000000001 -0.9 0  4.1 -0.9 0  4.15 -0.9 0  4.199999999999999 -0.9 0  4.25 -0.9 0  4.300000000000001 -0.9 0  4.35 -0.9 0  4.4 -0.9 0  4.449999999999999 -0.9 0  4.5 -0.9 0  4.550000000000001 -0.9 0  4.6 -0.9 0  4.65 -0.9 0  4.699999999999999 -0.9 0  4.75 -0.9 0  4.800000000000001 -0.9 0  4.85 -0.9 0  4.9 -0.9 0  4.949999999999999 -0.9 0  5 -0.9 0  -5 -0.85 0  -4.95 -0.85 0  -4.9 -0.85 0  -4.85 -0.85 0  -4.8 -0.85 0  -4.75 -0.85 0  -4.7 -0.85 0  -4.65 -0.85 0  -4.6 -0.85 0  -4.55 -0.85 0  -4.5 -0.85 0  -
[...]
<PointData  Vectors="f_15"> 
<DataArray  type="Float64"  Name="f_15"  NumberOfComponents="3" format="ascii">9.7085319982395557e+00 0.0000000000000000e+00 0.0000000000000000e+00  9.7042325282016222e+00 3.8239555552628063e-02 0.0000000000000000e+00  9.7015322790828051e+00 8.0214305002104899e-02 0.0000000000000000e+00  9.6898051312570512e+00 1.1653825199696230e-01 0.0000000000000000e+00  9.6804498299424875e+00 1.5805915125550862e-01 0.0000000000000000e+00  9.6616833317232711e+00 1.9624566153929343e-01 0.0000000000000000e+00  9.6456501371486834e+00 2.3764747504459244e-01 0.0000000000000000e+00  9.6205257314696286e+00 2.7754165676161685e-01 0.0000000000000000e+00  9.5982773613448877e+00 3.1999493861504186e-01 0.0000000000000000e+00  9.5670473533421365e+00 3.6136688630404667e-01 0.0000000000000000e+00  9.5394370311041978e+00 4.0544533789573300e-01 0.0000000000000000e+00  9.5026607966821270e+00 4.4854033537407539e-01 0.0000000000000000e+00  9.4700741312142327e+00 4.9437764990391375e-01 0.0000000000000000e+00  9.4286441838554609e+00 5.3944716999156561e-01 0.0000000000000000e+00  9.3916743613799945e+00 5.8735296522932312e-01 0.0000000000000000e+00  9.3459788699340773e+00 6.3418144221603345e-01 0.0000000000000000e+00  9.3055004068820288e+00 6.8460118694525951e-01 0.0000000000000000e+00  9.2560645502862808e+00 7.3310558314158558e-01 0.0000000000000000e+00  9.2124354410744260e+00 7.8594669640180237e-01 0.0000000000000000e+00  9.1600355611349844e+00 8.3625349611984723e-01 0.0000000000000000e+00  9.1137012159309645e+00 8.9162736304459733e-01 0.0000000000000000e+00  9.0586256143679176e+00 9.4320353289112047e-01 0.0000000000000000e+00  9.0102430071785040e+00 1.0015564856988055e+00 0.0000000000000000e+00  8.9528748999894852e+00 1.0541276491210099e+00 0.0000000000000000e+00  8.9026153931529777e+00 1.1151002296635817e+00 0.0000000000000000e+00  8.8435664485239212e+00 1.1689450855440233e+00 0.0000000000000000e+00  8.7916618408216554e+00 1.2322582909494217e+00 0.0000000000000000e+00  8.7311277352376493e+00 1.2870702143420503e+00 0.0000000000000000e+00  8.6779973594357109e+00 1.3528306043624627e+00 0.0000000000000000e+00  8.6162526624688436e+00 1.4084358190327519e+00 0.0000000000000000e+00  8.5619458614529993e+00 1.4765349487083781e+00 0.0000000000000000e+00  8.4994069523870923e+00 1.5322051577719382e+00 0.0000000000000000e+00  8.4440997581764403e+00 1.6040842577129568e+00 0.0000000000000000e+00  8.3808137645401626e+00 1.6575843952847245e+00 0.0000000000000000e+00  8.3248136105033517e+00 1.7343395619591737e+00 0.0000000000000000e+00  8.2610072015349747e+00 1.7869492269314373e+00 0.0000000000000000e+00  8.2041629415041619e+00 1.8635082233162235e+00 0.0000000000000000e+00  8.1403673596829709e+00 1.9230565970083238e+00 0.0000000000000000e+00  8.0825164384051416e+00 1.9903139956652975e+00 0.0000000000000000e+00  8.0189190252807840e+00 2.0643315410540088e+00 0.0000000000000000e+00  7.9602896858863197e+00 2.1178966464277926e+00 0.0000000000000000e+00  7.8968017505822257e+00 2.2060988694863934e+00 0.0000000000000000e+00  7.8376070603956789e+00 2.2510258089064861e+00 0.0000000000000000e+00  7.7743210127821927e+00 2.3435375032392813e+00 0.0000000000000000e+00  7.7146003508886727e+00 2.3925051292984185e+00 0.0000000000000000e+00  7.6514831074746841e+00 2.4770163025120082e+00 0.0000000000000000e+00  7.5916820786046122e+00 2.5371307552846285e+00 0.0000000000000000e+00  7.5282823063388458e+00 2.6142327111005943e+00 0.0000000000000000e+00  7.4687249664070352e+00 2.6785495438690501e+00 0.0000000000000000e+00  7.4053982549719626e+00 2.7554880886619482e+00 0.0000000000000000e+00  7.3454087265726518e+00 2.8217164197755493e+00 0.0000000000000000e+00  7.2827574322892135e+00 2.8955179433350722e+00 0.0000000000000000e+00  7.2225780922699725e+00 2.9661713626908237e+00 0.0000000000000000e+00  7.1597757610857045e+00 3.0394028127308865e+00 0.0000000000000000e+00  7.1002447517908092e+00 3.1084132681614798e+00 0.0000000000000000e+00  7.0373693060106346e+00 3.1839929048496973e+00 0.0000000000000000e+00  6.9776790942526068e+00 3.2543601743880721e+00 0.0000000000000000e+00  6.9155764182722361e+00 3.3275564168266087e+00 0.0000000000000000e+00  6.8558867335076847e+00 3.3998001251303482e+00 0.0000000000000000e+00  6.7934897656429669e+00 3.4741273706385289e+00 0.0000000000000000e+00  6.7350049052983678e+00 3.5451554574311031e+00 0.0000000000000000e+00  6.6721582181260297e+00 3.6206214641957790e+00 0.0000000000000000e+00  6.6139593164770440e+00 3.6919816762789366e+00 0.0000000000000000e+00  6.5518369930110429e+00 3.7671468468394216e+00 0.0000000000000000e+00  6.4937651969385373e+00 3.8395073509484758e+00 0.0000000000000000e+00  6.4314553734314455e+00 3.9150236069026731e+00 0.0000000000000000e+00  6.3746418812244832e+00 3.9862913924476806e+00 0.0000000000000000e+00  6.3119932349752679e+00 4.0635086809423857e+00 0.0000000000000000e+00  6.2555996129395055e+00 4.1348215772084416e+00 0.0000000000000000e+00  6.1936984424159709e+00 4.2113737943383578e+00 0.0000000000000000e+00  6.1373661965077968e+00 4.2836365617423198e+00 0.0000000000000000e+00  6.0758414075391114e+00 4.3604146289319941e+00 0.0000000000000000e+00  6.0201222422625928e+00 4.4322999149096365e+00 0.0000000000000000e+00  5.9590015900253936e+00 4.5097757311936020e+00 0.0000000000000000e+00  5.9032615600461096e+00 4.5820053237911154e+00 0.0000000000000000e+00  5.8434257277497634e+00 4.6586589816616257e+00 0.0000000000000000e+00  5.7870961428420280e+00 4.7324130338637103e+00 0.0000000000000000e+00  5.7287539622836139e+00 4.8078067253028172e+00 0.0000000000000000e+00  5.6718561107237031e+00 4.8829877938661168e+00 0.0000000000000000e+00  5.6151145743169968e+00 4.9574302856710251e+00 0.0000000000000000e+00  5.5573520956233109e+00 5.0338927032713841e+00 0.0000000000000000e+00  5.5026609472580601e+00 5.1066140259418944e+00 0.0000000000000000e+00  5.4436391748369370e+00 5.1857120592468240e+00 0.0000000000000000e+00  5.3911738125478514e+00 5.2562159248243407e+00 0.0000000000000000e+00  5.3309169024332421e+00 5.3372980302725530e+00 0.0000000000000000e+00  5.2805313115993062e+00 5.4063702957316515e+00 0.0000000000000000e+00  5.2191855578823452e+00 5.4894871914684824e+00 0.0000000000000000e+00  5.1710476594295951e+00 5.5561850968342474e+00 0.0000000000000000e+00  5.1085019323613201e+00 5.6417091593493387e+00 0.0000000000000000e+00  5.0629261849675675e+00 5.7061095871460354e+00 0.0000000000000000e+00  4.9991057789893656e+00 5.7938180102096259e+00 0.0000000000000000e+00  4.9553210241789198e+00 5.8565011890810501e+00 0.0000000000000000e+00  4.8907033574919883e+00 5.9463405755396330e+00 0.0000000000000000e+00  4.8490606269364207e+00 6.0068865503452162e+00 0.0000000000000000e+00  4.7842599390832632e+00 6.0976530497637969e+00 0.0000000000000000e+00  4.7420238547151987e+00 6.1595174401656037e+00 0.0000000000000000e+00  4.6804659174711212e+00 6.2477057362615680e+00 0.0000000000000000e+00  4.6340718405453840e+00 6.3150172767135100e+00 0.0000000000000000e+00  4.5784045693717923e+00 6.3957240193886067e+00 0.0000000000000000e+00  4.5305787117841581e+00 6.4667988315721292e+00 0.0000000000000000e+00  4.4759157075802261e+00 6.5466436399913963e+00 0.0000000000000000e+00  4.4342749993328612e+00 6.6084752260675907e+00 0.0000000000000000e+00  4.3709951119528316e+00 6.7031394174530092e+00 0.0000000000000000e+00  4.3266594068536399e+00 6.7694403490153272e+00 0.0000000000000000e+00  4.2724763659957237e+00 6.8509547336136132e+00 0.0000000000000000e+00  4.2266013938165212e+00 6.9210111059887645e+00 0.0000000000000000e+00  4.1741620057241136e+00 7.0013788688904741e+00 0.0000000000000000e+00  4.1277653888686059e+00 7.0712842674347831e+00 0.0000000000000000e+00  4.0794596780396599e+00 7.1467438437706621e+00 0.0000000000000000e+00  4.0348821239458177e+00 7.2161796551131880e+00 0.0000000000000000e+00  3.9881000569353433e+00 7.2892538774100597e+00 0.0000000000000000e+00  3.9423218500742072e+00 7.3600562362361224e+00 0.0000000000000000e+00  3.8969103372275922e+00 7.4335960923767628e+00 0.0000000000000000e+00  3.8572065684130954e+00 7.4944653209679029e+00 0.0000000000000000e+00  3.8125659240994874e+00 7.5659149620686623e+00 0.0000000000000000e+00  3.7881038702117231e+00 7.6068718335726313e+00 0.0000000000000000e+00  3.8299177055031701e+00 7.5406758503594888e+00 0.0000000000000000e+00  3.8899702947994181e+00 7.4433695832006537e+00 0.0000000000000000e+00  3.9205601635163467e+00 7.3947423384194435e+00 0.0000000000000000e+00  3.9334468733113370e+00 7.3741814578963440e+00 0.0000000000000000e+00  3.9383971436356857e+00 7.3664914416345910e+00 0.0000000000000000e+00  3.9442340984134643e+00 7.3575630544819326e+00 0.0000000000000000e+00  3.9461574906779564e+00 7.3541704403344772e+00 0.0000000000000000e+00  3.9499353452495161e+00 7.3484849751541752e+00 0.0000000000000000e+00  3.9497424781802057e+00 7.3478597761715179e+00 0.0000000000000000e+00  3.9520272235874274e+00 7.3444627938019043e+00 0.0000000000000000e+00  3.9510753653893391e+00 7.3448476340468778e+00 0.0000000000000000e+00  3.9532982179759522e+00 7.3418021610409783e+00 0.0000000000000000e+00  3.9530484209377348e+00 7.3414527153584705e+00 0.0000000000000000e+00  3.9556527418882665e+00 7.3381829348168441e+00 0.0000000000000000e+00  3.9557464323967588e+00 7.3376215415874597e+00 0.0000000000000000e+00  3.9577389596646535e+00 7.3352141708419616e+00 0.0000000000000000e+00  3.9574268884084574e+00 7.3352391559790489e+00 0.0000000000000000e+00  3.9585535681112800e+00 7.3338357732816393e+00 0.0000000000000000e+00  3.9580782031162367e+00 7.3340729700316611e+00 0.0000000000000000e+00  3.9588060409439234e+00 7.3330931271338162e+00 0.0000000000000000e+00  3.9584868468250938e+00 7.3331917660796613e+00 0.0000000000000000e+00  3.9590273496516328e+00 7.3324210608842000e+00 0.0000000000000000e+00  3.9588490883430647e+00 7.3324093198221778e+00 0.0000000000000000e+00  3.9592127706791818e+00 7.3318471343711265e+00 0.0000000000000000e+00  3.9591004652423600e+00 7.3317890977557250e+00 0.0000000000000000e+00  3.9593233082570736e+00 7.3313873290651195e+00 0.0000000000000000e+00  3.9592479117082156e+00 7.3313054613743889e+00 0.0000000000000000e+00  3.9593816800432373e+00 7.3309991043223954e+00 0.0000000000000000e+00  3.9593324060929302e+00 7.3309001146062256e+00 0.0000000000000000e+00  3.9594090239273734e+00 7.3306533983260813e+00 0.0000000000000000e+00  3.9593702982663879e+00 7.3305436359215799e+00 0.0000000000000000e+00  3.9594086029991291e+00 7.3303272102100516e+00 0.0000000000000000e+00  3.9593672201997143e+00 7.3302094317008928e+00 0.0000000000000000e+00  3.9593801836352305e+00 7.3299869367738921e+00 0.0000000000000000e+00  3.9593335543135546e+00 7.3298396121612868e+00 0.0000000000000000e+00  3.9593286178750859e+00 7.3295694834889806e+00 0.0000000000000000e+00  3.9592764834580509e+00 7.3293449253424727e+00 0.0000000000000000e+00  3.9592592708213319e+00 7.3289633497045363e+00 0.0000000000000000e+00  3.9592000742147953e+00 7.3285925484014056e+00 0.0000000000000000e+00  3.9591735923668501e+00 7.3280110580151145e+00 0.0000000000000000e+00  3.9591083178168422e+00 7.3274010372919394e+00 0.0000000000000000e+00  3.9590726581976439e+00 7.3265252499801132e+00 0.0000000000000000e+00  3.9590024618416488e+00 7.3255825588435437e+00 0.0000000000000000e+00  3.9589587535243047e+00 7.3243325455747117e+00 0.0000000000000000e+00  3.9588826291974093e+00 7.3230046602918843e+00 0.0000000000000000e+00  3.9588324218234523e+00 7.3213510570939553e+00 0.0000000000000000e+00  3.9587497472618991e+00 7.3196502763037525e+00 0.0000000000000000e+00  3.9586935598820299e+00 7.3176457224368123e+00 0.0000000000000000e+00  3.9586035095168972e+00 7.3156612285124201e+00 0.0000000000000000e+00  3.9585428432498602e+00 7.3134296512248564e+00 0.0000000000000000e+00  3.9584431085010228e+00 7.3113185460533545e+00 0.0000000000000000e+00  3.9583798675780582e+00 7.3090221350038833e+00 0.0000000000000000e+00  3.9582680940398309e+00 7.3069621476098643e+00 0.0000000000000000e+00  3.9582038746299673e+00 7.3047639108752760e+00 0.0000000000000000e+00  3.9580766672436662e+00 7.3029039636106248e+00 0.0000000000000000e+00  3.9580136995467483e+00 7.3009222737033275e+00 0.0000000000000000e+00  3.9578662834004241e+00 7.2993572896228169e+00 0.0000000000000000e+00  3.9578039491687989e+00 7.2976395131851310e+00 0.0000000000000000e+00  3.9576299737469589e+00 7.2963954732734422e+00 0.0000000000000000e+00  3.9575603631207299e+00 7.2949204541794606e+00 0.0000000000000000e+00  3.9573397042861012e+00 7.2939502233720743e+00 0.0000000000000000e+00  3.9572351762984312e+00 7.2926193113119178e+00 0.0000000000000000e+00  3.9569031921374291e+00 7.2917904303442356e+00 0.0000000000000000e+00  3.9566533819821745e+00 7.2903522288717113e+00 0.0000000000000000e+00  3.9560075828901788e+00 7.2893190454064438e+00 0.0000000000000000e+00  3.9552106441268986e+00 7.2870803829718200e+00 0.0000000000000000e+00  3.9535594074300309e+00 7.2847443925022155e+00 0.0000000000000000e+00  3.9508296857673231e+00 7.2795121915028691e+00 0.0000000000000000e+00  3.9457445603199721e+00 7.2721059907375283e+00 0.0000000000000000e+00  3.9362893987200995e+00 7.2564169542949681e+00 0.0000000000000000e+00  3.9192426651030838e+00 7.2306973901207696e+00 0.0000000000000000e+00  3.8864125402323704e+00 7.1783298563843667e+00 0.0000000000000000e+00  3.8282581957481483e+00 7.0875996513636910e+00 0.0000000000000000e+00  3.7171447832483038e+00 6.9066024356961933e+00 0.0000000000000000e+00  3.5266318449370639e+00 6.5871565606821907e+00 0.0000000000000000e+00  3.1865276678093317e+00 5.9665209358540299e+00 0.0000000000000000e+00  2.6700596034454267e+00 4.9057205023500305e+00 0.0000000000000000e+00  1.9033887657086712e+00 2.9081788071406875e+00 0.0000000000000000e+00  1.2023234077675569e+00 6.4874310543558245e-01 0.0000000000000000e+00  1.0157620688381883e+00 4.9400177709287618e-02 0.0000000000000000e+00  1.0005622170331108e+00 2.8163704119045733e-03 0.0000000000000000e+00  1.0001811618404288e+00 1.3911820618855986e-04 0.0000000000000000e+00  9.9981767698237400e-01 1.7101692401640627e-04 0.0000000000000000e+00  1.0000874500492263e+00 1.3890558274786852e-05 0.0000000000000000e+00  9.9980574592220184e-01 0.0000000000000000e+00 0.0000000000000000e+00  9.7055028862679062e+00 0.0000000000000000e+00 3.4209375402439544e-03  9.7039893648027054e+00 3.7635102349642152e-02 -1.7828459563070628e-03  9.6983462330069621e+00 7.6500934167430978e-02 8.6183181873556239e-04  9.6898040757237940e+00 1.1473699834074597e-01 -1.2073430555340993e-03  9.6772302612810215e+00 1.5570084447531327e-01 1.3539891884610726e-03  9.6616860481252260e+00 1.9375390156301514e-01 -1.3955138794809012e-03  9.6426890661731015e+00 2.3585658750175140e-01 1.4525309690605216e-03  9.6206033488666911e+00 2.7530910130862862e-01 -1.3622833162328972e-03  9.5953625425787035e+00 3.1836941459942508e-01 1.3668297797790178e-03  9.5675483105570578e+00 3.5960675415508819e-01 -1.2638818939319180e-03  9.5366123226522905e+00 4.0414282466628115e-01 1.2603690628732029e-03  9.5034247766465043e+00 4.4720356653672044e-01 -1.1572831529296139e-03  9.4676943713901487e+00 4.9356709550392619e-01 1.1452211892720781e-03  9.4297280904525209e+00 5.3872495870155757e-01 -1.0412003625041846e-03  9.3896073957873956e+00 5.8685758344293260e-01 1.0158654339661006e-03  9.3477492159061537e+00 6.3443062430176123e-01 -9.1319590732722529e-04  9.3037990847261902e+00 6.8442403300908672e-01 8.6331000920277260e-04  9.2584149804860711e+00 7.3424514503575755e-01 -7.6002655219390087e-04  9.2114481153812697e+00 7.8633887375446887e-01 6.8303798846827040e-04  9.1630038824278550e+00 8.3841763702531003e-01 -5.7893904457475469e-04  9.1133235656592539e+00 8.9225679790804113e-01 4.7247594211258888e-04  9.0625043101338782e+00 9.4686866405932335e-01 -3.5767053015312847e-04  9.0104988750909261e+00 1.0023158559363801e+00 2.0312989432132384e-04  8.9574978212577854e+00 1.0590439630761965e+00 -5.3995248402992681e-05  8.9037703905777636e+00 1.1163461240875725e+00 -1.6852224718158114e-04  8.8488562799304908e+00 1.1750284839366505e+00 3.6003361727072737e-04  8.7935573711460702e+00 1.2336588126902097e+00 -6.1374707676428188e-04  8.7372106267991008e+00 1.2946173266648193e+00 7.8502040213767233e-04  8.6805568272943017e+00 1.3542886630190165e+00 -9.9229561890807976e-04  8.6228704368381610e+00 1.4171583517144302e+00 1.1017079710010640e-03  8.5652560880571809e+00 1.4778617743091598e+00 -1.2830858858419668e-03  8.5064005495113797e+00 1.5428620448799861e+00 1.4592275694841105e-03  8.4479132122100644e+00 1.6037141517139510e+00 -1.8871083263504171e-03  8.3881176612892325e+00 1.6711126376908154e+00 2.5910082190095350e-03  8.3291015781374682e+00 1.7325944223233982e+00 -3.8038179490668860e-03  8.2681114645922076e+00 1.8007077095913295e+00 5.3647143709404195e-03  8.2091365323867169e+00 1.8642562355261065e+00 -7.0827918698782430e-03  8.1469231258172865e+00 1.9325193432017695e+00 8.3745488812641440e-03  8.0878695373576175e+00 1.9970556696584243e+00 -8.7745979962020951e-03  8.0251767345695928e+00 2.0669473810389118e+00 7.8926489578012467e-03  7.9653633648044666e+00 2.1314774224336972e+00 -5.7765251791890336e-03  7.9030274419492246e+00 2.2024431773184796e+00 2.8220075860075299e-03  7.8420788564459691e+00 2.2682131005357062e+00 2.6096121173172301e-04  7.7803819206777414e+00 2.3391301887624381e+00 -2.7650211352997457e-03  7.7184248731565459e+00 2.4063288946834831e+00 4.1759304835875932e-03  7.6573258975049274e+00 2.4768936817853353e+00 -4.4102800832059074e-03  7.5946675081625532e+00 2.5468174472850569e+00 3.7892618691592233e-03  7.5338030151326567e+00 2.6147236420761422e+00 -2.8404762522547594e-03  7.4712636820904672e+00 2.6882203377497689e+00 2.0541552220853382e-03  7.4098548985549382e+00 2.7561235591028201e+00 -1.5594073495764011e-03  7.3479860837352184e+00 2.8276518277409077e+00 1.2769228815425649e-03  7.2863674021594136e+00 2.8994225838848746e+00 -1.0224129765182719e-03  7.2243638234258167e+00 2.9704878567460691e+00 8.4447237481932757e-04  7.1633450979683859e+00 3.0405019761233865e+00 -7.8398673587108008e-04  7.1013084199435745e+00 3.1145994241067436e+00 8.3553100282905842e-04  7.0401081795454692e+00 3.1853108573631852e+00 -7.9899867838322783e-04  6.9789028408162235e+00 3.2570508324203580e+00 6.9418932989825715e-04  6.9176262501911712e+00 3.3301049465867014e+00 -6.3318574310847588e-04  6.8562919964618310e+00 3.4031186169396772e+00 7.1755707900520804e-04  6.7960316282506152e+00 3.4743249819166269e+00 -7.7044331078039100e-04  6.7345280856353238e+00 3.5487184375874277e+00 7.0446438892392239e-04  6.6742727997131643e+00 3.6208756431637807e+00 -6.0594945510027685e-04  6.6138336782535916e+00 3.6944570187687855e+00 6.0372731877167342e-04  6.5534083153273386e+00 3.7677263769054758e+00 -6.1019042147268546e-04  6.4930816600416135e+00 3.8415015383769360e+00 5.4731181391153157e-04  6.4336856818416850e+00 3.9142158748883635e+00 -4.9426819503239569e-04  6.3732605691507844e+00 3.9894076475457836e+00 4.9544552942219116e-04  6.3140660760342939e+00 4.0622453299660259e+00 -4.8280250913758789e-04  6.2545872285908857e+00 4.1365764636862119e+00 4.0654839420206906e-04  6.1953857878907161e+00 4.2106910666689119e+00 -3.6446819541610317e-04  6.1361894356646642e+00 4.2853252037693421e+00 3.4991128623203211e-04  6.0778662331544764e+00 4.3587848588982840e+00 -3.3255789979111600e-04  6.0186906818183239e+00 4.4344540422067684e+00 2.9284733100075013e-04  5.9608328412909737e+00 4.5078743494139637e+00 -2.6703588554850626e-04  5.9023079589653245e+00 4.5833449615338022e+00 2.2345957003119389e-04  5.8447068437838077e+00 4.6574944672428851e+00 -1.8385733061366725e-04  5.7865579699087748e+00 4.7330094009965604e+00 1.7456535251933074e-04  5.7297073642828567e+00 4.8070031458579381e+00 -1.3354966956024390e-04  5.6716405730541686e+00 4.8832941468897788e+00 1.0022934770779851e-04  5.6155315899491374e+00 4.9567864547965961e+00 -6.5698853670917234e-05  5.5577798250526405e+00 5.0335817741203259e+00 8.2743014058126832e-05  5.5022121158888897e+00 5.1074412373439353e+00 -1.9003282774078453e-06  5.4448755428361322e+00 5.1840895845700592