<?xml version="1.0"?>
<VTKFile type="UnstructuredGrid"  version="0.1"  >
<UnstructuredGrid>
<Piece  NumberOfPoints="8241" NumberOfCells="16000">
<Points>
<DataArray  type="Float64"  NumberOfComponents="3"  format="ascii">-5 -1 0  -4.95 -1 0  -4.9 -1 0  -4.85 -1 0  -4.8 -1 0  -4.75 -1 0  -4.7 -1 0  -4.65 -1 0  -4.6 -1 0  -4.55 -1 0  -4.5 -1 0  -4.45 -1 0  -4.4 -1 0  -4.35 -1 0  -4.3 -1 0  -4.25 -1 0  -4.2 -1 0  -4.15 -1 0  -4.1 -1 0  -4.05 -1 0  -4 -1 0  -3.95 -1 0  -3.9 -1 0  -3.85 -1 0  -3.8 -1 0  -3.75 -1 0  -3.7 -1 0  -3.65 -1 0  -3.6 -1 0  -3.55 -1 0  -3.5 -1 0  -3.45 -1 0  -3.4 -1 0  -3.35 -1 0  -3.3 -1 0  -3.25 -1 0  -3.2 -1 0  -3.15 -1 0  -3.1 -1 0  -3.05 -1 0  -3 -1 0  -2.95 -1 0  -2.9 -1 0  -2.85 -1 0  -2.8 -1 0  -2.75 -1 0  -2.7 -1 0  -2.65 -1 0  -2.6 -1 0  -2.55 -1 0  -2.5 -1 0  -2.45 -1 0  -2.4 -1 0  -2.35 -1 0  -2.3 -1 0  -2.25 -1 0  -2.2 -1 0  -2.15 -1 0  -2.1 -1 0  -2.05 -1 0  -2 -1 0  -1.95 -1 0  -1.9 -1 0  -1.85 -1 0  -1.8 -1 0  -1.75 -1 0  -1.7 -1 0  -1.65 -1 0  -1.6 -1 0  -1.55 -1 0  -1.5 -1 0  -1.45 -1 0  -1.4 -1 0  -1.35 -1 0  -1.3 -1 0  -1.25 -1 0  -1.2 -1 0  -1.15 -1 0  -1.1 -1 0  -1.05 -1 0  -1 -1 0  -0.9500000000000002 -1 0  -0.9000000000000004 -1 0  -0.8499999999999996 -1 0  -0.7999999999999998 -1 0  -0.75 -1 0  -0.7000000000000002 -1 0  -0.6500000000000004 -1 0  -0.5999999999999996 -1 0  -0.5499999999999998 -1 0  -0.5 -1 0  -0.4500000000000002 -1 0  -0.4000000000000004 -1 0  -0.3499999999999996 -1 0  -0.2999999999999998 -1 0  -0.25 -1 0  -0.2000000000000002 -1 0  -0.1500000000000004 -1 0  -0.09999999999999964 -1 0  -0.04999999999999982 -1 0  0 -1 0  0.04999999999999982 -1 0  0.09999999999999964 -1 0  0.1500000000000004 -1 0  0.2000000000000002 -1 0  0.25 -1 0  0.2999999999999998 -1 0  0.3499999999999996 -1 0  0.4000000000000004 -1 0  0.4500000000000002 -1 0  0.5 -1 0  0.5499999999999998 -1 0  0.5999999999999996 -1 0  0.6500000000000004 -1 0  0.7000000000000002 -1 0  0.75 -1 0  0.7999999999999998 -1 0  0.8499999999999996 -1 0  0.9000000000000004 -1 0  0.9500000000000002 -1 0  1 -1 0  1.05 -1 0  1.1 -1 0  1.15 -1 0  1.2 -1 0  1.25 -1 0  1.3 -1 0  1.35 -1 0  1.4 -1 0  1.45 -1 0  1.5 -1 0  1.55 -1 0  1.6 -1 0  1.65 -1 0  1.7 -1 0  1.75 -1 0  1.8 -1 0  1.85 -1 0  1.9 -1 0  1.95 -1 0  2 -1 0  2.05 -1 0  2.1 -1 0  2.15 -1 0  2.2 -1 0  2.25 -1 0  2.3 -1 0  2.35 -1 0  2.4 -1 0  2.45 -1 0  2.5 -1 0  2.55 -1 0  2.6 -1 0  2.65 -1 0  2.7 -1 0  2.75 -1 0  2.8 -1 0  2.85 -1 0  2.9 -1 0  2.95 -1 0  3 -1 0  3.050000000000001 -1 0  3.1 -1 0  3.15 -1 0  3.199999999999999 -1 0  3.25 -1 0  3.300000000000001 -1 0  3.35 -1 0  3.4 -1 0  3.449999999999999 -1 0  3.5 -1 0  3.550000000000001 -1 0  3.6 -1 0  3.65 -1 0  3.699999999999999 -1 0  3.75 -1 0  3.800000000000001 -1 0  3.85 -1 0  3.9 -1 0  3.949999999999999 -1 0  4 -1 0  4.050000000000001 -1 0  4.1 -1 0  4.15 -1 0  4.199999999999999 -1 0  4.25 -1 0  4.300000000000001 -1 0  4.35 -1 0  4.4 -1 0  4.449999999999999 -1 0  4.5 -1 0  4.550000000000001 -1 0  4.6 -1 0  4.65 -1 0  4.699999999999999 -1 0  4.75 -1 0  4.800000000000001 -1 0  4.85 -1 0  4.9 -1 0  4.949999999999999 -1 0  5 -1 0  -5 -0.95 0  -4.95 -0.95 0  -4.9 -0.95 0  -4.85 -0.95 0  -4.8 -0.95 0  -4.75 -0.95 0  -4.7 -0.95 0  -4.65 -0.95 0  -4.6 -0.95 0  -4.55 -0.95 0  -4.5 -0.95 0  -4.45 -0.95 0  -4.4 -0.95 0  -4.35 -0.95 0  -4.3 -0.95 0  -4.25 -0.95 0  -4.2 -0.95 0  -4.15 -0.95 0  -4.1 -0.95 0  -4.05 -0.95 0  -4 -0.95 0  -3.95 -0.95 0  -3.9 -0.95 0  -3.85 -0.95 0  -3.8 -0.95 0  -3.75 -0.95 0  -3.7 -0.95 0  -3.65 -0.95 0  -3.6 -0.95 0  -3.55 -0.95 0  -3.5 -0.95 0  -3.45 -0.95 0  -3.4 -0.95 0  -3.35 -0.95 0  -3.3 -0.95 0  -3.25 -0.95 0  -3.2 -0.95 0  -3.15 -0.95 0  -3.1 -0.95 0  -3.05 -0.95 0  -3 -0.95 0  -2.95 -0.95 0  -2.9 -0.95 0  -2.85 -0.95 0  -2.8 -0.95 0  -2.75 -0.95 0  -2.7 -0.95 0  -2.65 -0.95 0  -2.6 -0.95 0  -2.55 -0.95 0  -2.5 -0.95 0  -2.45 -0.95 0  -2.4 -0.95 0  -2.35 -0.95 0  -2.3 -0.95 0  -2.25 -0.95 0  -2.2 -0.95 0  -2.15 -0.95 0  -2.1 -0.95 0  -2.05 -0.95 0  -2 -0.95 0  -1.95 -0.95 0  -1.9 -0.95 0  -1.85 -0.95 0  -1.8 -0.95 0  -1.75 -0.95 0  -1.7 -0.95 0  -1.65 -0.95 0  -1.6 -0.95 0  -1.55 -0.95 0  -1.5 -0.95 0  -1.45 -0.95 0  -1.4 -0.95 0  -1.35 -0.95 0  -1.3 -0.95 0  -1.25 -0.95 0  -1.2 -0.95 0  -1.15 -0.95 0  -1.1 -0.95 0  -1.05 -0.95 0  -1 -0.95 0  -0.9500000000000002 -0.95 0  -0.9000000000000004 -0.95 0  -0.8499999999999996 -0.95 0  -0.7999999999999998 -0.95 0  -0.75 -0.95 0  -0.7000000000000002 -0.95 0  -0.6500000000000004 -0.95 0  -0.5999999999999996 -0.95 0  -0.5499999999999998 -0.95 0  -0.5 -0.95 0  -0.4500000000000002 -0.95 0  -0.4000000000000004 -0.95 0  -0.3499999999999996 -0.95 0  -0.2999999999999998 -0.95 0  -0.25 -0.95 0  -0.2000000000000002 -0.95 0  -0.1500000000000004 -0.95 0  -0.09999999999999964 -0.95 0  -0.04999999999999982 -0.95 0  0 -0.95 0  0.04999999999999982 -0.95 0  0.09999999999999964 -0.95 0  0.1500000000000004 -0.95 0  0.2000000000000002 -0.95 0  0.25 -0.95 0  0.2999999999999998 -0.95 0  0.3499999999999996 -0.95 0  0.4000000000000004 -0.95 0  0.4500000000000002 -0.95 0  0.5 -0.95 0  0.5499999999999998 -0.95 0  0.5999999999999996 -0.95 0  0.6500000000000004 -0.95 0  0.7000000000000002 -0.95 0  0.75 -0.95 0  0.7999999999999998 -0.95 0  0.8499999999999996 -0.95 0  0.9000000000000004 -0.95 0  0.9500000000000002 -0.95 0  1 -0.95 0  1.05 -0.95 0  1.1 -0.95 0  1.15 -0.95 0  1.2 -0.95 0  1.25 -0.95 0  1.3 -0.95 0  1.35 -0.95 0  1.4 -0.95 0  1.45 -0.95 0  1.5 -0.95 0  1.55 -0.95 0  1.6 -0.95 0  1.65 -0.95 0  1.7 -0.95 0  1.75 -0.95 0  1.8 -0.95 0  1.85 -0.95 0  1.9 -0.95 0  1.95 -0.95 0  2 -0.95 0  2.05 -0.95 0  2.1 -0.95 0  2.15 -0.95 0  2.2 -0.95 0  2.25 -0.95 0  2.3 -0.95 0  2.35 -0.95 0  2.4 -0.95 0  2.45 -0.95 0  2.5 -0.95 0  2.55 -0.95 0  2.6 -0.95 0  2.65 -0.95 0  2.7 -0.95 0  2.75 -0.95 0  2.8 -0.95 0  2.85 -0.95 0  2.9 -0.95 0  2.95 -0.95 0  3 -0.95 0  3.050000000000001 -0.95 0  3.1 -0.95 0  3.15 -0.95 0  3.199999999999999 -0.95 0  3.25 -0.95 0  3.300000000000001 -0.95 0  3.35 -0.95 0  3.4 -0.95 0  3.449999999999999 -0.95 0  3.5 -0.95 0  3.550000000000001 -0.95 0  3.6 -0.95 0  3.65 -0.95 0  3.699999999999999 -0.95 0  3.75 -0.95 0  3.800000000000001 -0.95 0  3.85 -0.95 0  3.9 -0.95 0  3.949999999999999 -0.95 0  4 -0.95 0  4.050000000000001 -0.95 0  4.1 -0.95 0  4.15 -0.95 0  4.199999999999999 -0.95 0  4.25 -0.95 0  4.300000000000001 -0.95 0  4.35 -0.95 0  4.4 -0.95 0  4.449999999999999 -0.95 0  4.5 -0.95 0  4.550000000000001 -0.95 0  4.6 -0.95 0  4.65 -0.95 0  4.699999999999999 -0.95 0  4.75 -0.95 0  4.800000000000001 -0.95 0  4.85 -0.95 0  4.9 -0.95 0  4.949999999999999 -0.95 0  5 -0.95 0  -5 -0.9 0  -4.95 -0.9 0  -4.9 -0.9 0  -4.85 -0.9 0  -4.8 -0.9 0  -4.75 -0.9 0  -4.7 -0.9 0  -4.65 -0.9 0  -4.6 -0.9 0  -4.55 -0.9 0  -4.5 -0.9 0  -4.45 -0.9 0  -4.4 -0.9 0  -4.35 -0.9 0  -4.3 -0.9 0  -4.25 -0.9 0  -4.2 -0.9 0  -4.15 -0.9 0  -4.1 -0.9 0  -4.05 -0.9 0  -4 -0.9 0  -3.95 -0.9 0  -3.9 -0.9 0  -3.85 -0.9 0  -3.8 -0.9 0  -3.75 -0.9 0  -3.7 -0.9 0  -3.65 -0.9 0  -3.6 -0.9 0  -3.55 -0.9 0  -3.5 -0.9 0  -3.45 -0.9 0  -3.4 -0.9 0  -3.35 -0.9 0  -3.3 -0.9 0  -3.25 -0.9 0  -3.2 -0.9 0  -3.15 -0.9 0  -3.1 -0.9 0  -3.05 -0.9 0  -3 -0.9 0  -2.95 -0.9 0  -2.9 -0.9 0  -2.85 -0.9 0  -2.8 -0.9 0  -2.75 -0.9 0  -2.7 -0.9 0  -2.65 -0.9 0  -2.6 -0.9 0  -2.55 -0.9 0  -2.5 -0.9 0  -2.45 -0.9 0  -2.4 -0.9 0  -2.35 -0.9 0  -2.3 -0.9 0  -2.25 -0.9 0  -2.2 -0.9 0  -2.15 -0.9 0  -2.1 -0.9 0  -2.05 -0.9 0  -2 -0.9 0  -1.95 -0.9 0  -1.9 -0.9 0  -1.85 -0.9 0  -1.8 -0.9 0  -1.75 -0.9 0  -1.7 -0.9 0  -1.65 -0.9 0  -1.6 -0.9 0  -1.55 -0.9 0  -1.5 -0.9 0  -1.45 -0.9 0  -1.4 -0.9 0  -1.35 -0.9 0  -1.3 -0.9 0  -1.25 -0.9 0  -1.2 -0.9 0  -1.15 -0.9 0  -1.1 -0.9 0  -1.05 -0.9 0  -1 -0.9 0  -0.9500000000000002 -0.9 0  -0.9000000000000004 -0.9 0  -0.8499999999999996 -0.9 0  -0.7999999999999998 -0.9 0  -0.75 -0.9 0  -0.7000000000000002 -0.9 0  -0.6500000000000004 -0.9 0  -0.5999999999999996 -0.9 0  -0.5499999999999998 -0.9 0  -0.5 -0.9 0  -0.4500000000000002 -0.9 0  -0.4000000000000004 -0.9 0  -0.3499999999999996 -0.9 0  -0.2999999999999998 -0.9 0  -0.25 -0.9 0  -0.2000000000000002 -0.9 0  -0.1500000000000004 -0.9 0  -0.09999999999999964 -0.9 0  -0.04999999999999982 -0.9 0  0 -0.9 0  0.04999999999999982 -0.9 0  0.09999999999999964 -0.9 0  0.1500000000000004 -0.9 0  0.2000000000000002 -0.9 0  0.25 -0.9 0  0.2999999999999998 -0.9 0  0.3499999999999996 -0.9 0  0.4000000000000004 -0.9 0  0.4500000000000002 -0.9 0  0.5 -0.9 0  0.5499999999999998 -0.9 0  0.5999999999999996 -0.9 0  0.6500000000000004 -0.9 0  0.7000000000000002 -0.9 0  0.75 -0.9 0  0.7999999999999998 -0.9 0  0.8499999999999996 -0.9 0  0.9000000000000004 -0.9 0  0.9500000000000002 -0.9 0  1 -0.9 0  1.05 -0.9 0  1.1 -0.9 0  1.15 -0.9 0  1.2 -0.9 0  1.25 -0.9 0  1.3 -0.9 0  1.35 -0.9 0  1.4 -0.9 0  1.45 -0.9 0  1.5 -0.9 0  1.55 -0.9 0  1.6 -0.9 0  1.65 -0.9 0  1.7 -0.9 0  1.75 -0.9 0  1.8 -0.9 0  1.85 -0.9 0  1.9 -0.9 0  1.95 -0.9 0  2 -0.9 0  2.05 -0.9 0  2.1 -0.9 0  2.15 -0.9 0  2.2 -0.9 0  2.25 -0.9 0  2.3 -0.9 0  2.35 -0.9 0  2.4 -0.9 0  2.45 -0.9 0  2.5 -0.9 0  2.55 -0.9 0  2.6 -0.9 0  2.65 -0.9 0  2.7 -0.9 0  2.75 -0.9 0  2.8 -0.9 0  2.85 -0.9 0  2.9 -0.9 0  2.95 -0.9 0  3 -0.9 0  3.050000000000001 -0.9 0  3.1 -0.9 0  3.15 -0.9 0  3.199999999999999 -0.9 0  3.25 -0.9 0  3.300000000000001 -0.9 0  3.35 -0.9 0  3.4 -0.9 0  3.449999999999999 -0.9 0  3.5 -0.9 0  3.550000000000001 -0.9 0  3.6 -0.9 0  3.65 -0.9 0  3.699999999999999 -0.9 0  3.75 -0.9 0  3.800000000000001 -0.9 0  3.85 -0.9 0  3.9 -0.9 0  3.949999999999999 -0.9 0  4 -0.9 0  4.050000000000001 -0.9 0  4.1 -0.9 0  4.15 -0.9 0  4.199999999999999 -0.9 0  4.25 -0.9 0  4.300000000000001 -0.9 0  4.35 -0.9 0  4.4 -0.9 0  4.449999999999999 -0.9 0  4.5 -0.9 0  4.550000000000001 -0.9 0  4.6 -0.9 0  4.65 -0.9 0  4.699999999999999 -0.9 0  4.75 -0.9 0  4.800000000000001 -0.9 0  4.85 -0.9 0  4.9 -0.9 0  4.949999999999999 -0.9 0  5 -0.9 0  -5 -0.85 0  -4.95 -0.85 0  -4.9 -0.85 0  -4.85 -0.85 0  -4.8 -0.85 0  -4.75 -0.85 0  -4.7 -0.85 0  -4.65 -0.85 0  -4.6 -0.85 0  -4.55 -0.85 0  -4.5 -0.85 0  -
[...]
<PointData  Vectors="f_15"> 
<DataArray  type="Float64"  Name="f_15"  NumberOfComponents="3" format="ascii">2.1093741471195857e+00 0.0000000000000000e+00 0.0000000000000000e+00  2.1093455356959105e+00 4.6800545637970543e-02 0.0000000000000000e+00  2.1092107843016077e+00 9.3520559756646554e-02 0.0000000000000000e+00  2.1090195855654770e+00 1.4031815660163330e-01 0.0000000000000000e+00  2.1087222333531774e+00 1.8699995584425530e-01 0.0000000000000000e+00  2.1083621045238226e+00 2.3372810702202454e-01 0.0000000000000000e+00  2.1078997609662111e+00 2.8033399113179064e-01 0.0000000000000000e+00  2.1073707421013186e+00 3.2695702155843781e-01 0.0000000000000000e+00  2.1067324043316198e+00 3.7345135602722279e-01 0.0000000000000000e+00  2.1060301883455752e+00 4.1992741077682627e-01 0.0000000000000000e+00  2.1052131231195004e+00 4.6626672545047071e-01 0.0000000000000000e+00  2.1043230914943116e+00 5.1256205567929958e-01 0.0000000000000000e+00  2.1033201200586356e+00 5.5870141835495601e-01 0.0000000000000000e+00  2.1022364913810150e+00 6.0475969978443755e-01 0.0000000000000000e+00  2.1010290938829037e+00 6.5066833951884340e-01 0.0000000000000000e+00  2.0997415509410344e+00 6.9643924968391158e-01 0.0000000000000000e+00  2.0983202702843169e+00 7.4204165375862263e-01 0.0000000000000000e+00  2.0968064107788362e+00 7.8750599591818438e-01 0.0000000000000000e+00  2.0951568667730167e+00 8.3272918880357216e-01 0.0000000000000000e+00  2.0934037037332813e+00 8.7780958471744563e-01 0.0000000000000000e+00  2.0914987940923129e+00 9.2262085105186642e-01 0.0000000000000000e+00  2.0894877357938699e+00 9.6724990427306756e-01 0.0000000000000000e+00  2.0873106076915016e+00 1.0115290747071395e+00 0.0000000000000000e+00  2.0850095280182113e+00 1.0557031861298052e+00 0.0000000000000000e+00  2.0825373294581024e+00 1.0993491238005073e+00 0.0000000000000000e+00  2.0799252694152570e+00 1.1429221693394813e+00 0.0000000000000000e+00  2.0771213484526299e+00 1.1859674538340161e+00 0.0000000000000000e+00  2.0741709973977467e+00 1.2287695856908571e+00 0.0000000000000000e+00  2.0710113780885901e+00 1.2710978624482767e+00 0.0000000000000000e+00  2.0676820236749367e+00 1.3131284979380156e+00 0.0000000000000000e+00  2.0641363549086371e+00 1.3545686951061577e+00 0.0000000000000000e+00  2.0604026713111812e+00 1.3956981619791531e+00 0.0000000000000000e+00  2.0564279017932177e+00 1.4362314492004291e+00 0.0000000000000000e+00  2.0522598974071786e+00 1.4763008247517020e+00 0.0000000000000000e+00  2.0478316119657136e+00 1.5157734329310406e+00 0.0000000000000000e+00  2.0431886594075022e+00 1.5547631245887346e+00 0.0000000000000000e+00  2.0382813297023463e+00 1.5930189151148777e+00 0.0000000000000000e+00  2.0331453259790040e+00 1.6307797847001066e+00 0.0000000000000000e+00  2.0277271133849841e+00 1.6677951465768071e+00 0.0000000000000000e+00  2.0220833993364900e+00 1.7041752846676272e+00 0.0000000000000000e+00  2.0161504423998431e+00 1.7398322622825511e+00 0.0000000000000000e+00  2.0099842801517105e+00 1.7748081968871621e+00 0.0000000000000000e+00  2.0035415119611835e+00 1.8089717427369048e+00 0.0000000000000000e+00  1.9968727646451379e+00 1.8424543098226780e+00 0.0000000000000000e+00  1.9899328883033363e+00 1.8751197912624549e+00 0.0000000000000000e+00  1.9827962749465262e+00 1.9070058689813143e+00 0.0000000000000000e+00  1.9754127539717548e+00 1.9380956508126994e+00 0.0000000000000000e+00  1.9678597709912351e+00 1.9683988115350584e+00 0.0000000000000000e+00  1.9601072517144300e+00 1.9978381038121864e+00 0.0000000000000000e+00  1.9522351786625713e+00 2.0264899266836149e+00 0.0000000000000000e+00  1.9442156505695833e+00 2.0542643429093110e+00 0.0000000000000000e+00  1.9361513252316489e+00 2.0811783441490479e+00 0.0000000000000000e+00  1.9280220911977528e+00 2.1071860439758807e+00 0.0000000000000000e+00  1.9199369353202067e+00 2.1322502336492497e+00 0.0000000000000000e+00  1.9119034346987211e+00 2.1562981986849539e+00 0.0000000000000000e+00  1.9040448575464579e+00 2.1792378959057475e+00 0.0000000000000000e+00  1.8963866816806079e+00 2.2010084884501011e+00 0.0000000000000000e+00  1.8890803382713497e+00 2.2213646615211160e+00 0.0000000000000000e+00  1.8821838063958267e+00 2.2402576848698921e+00 0.0000000000000000e+00  1.8758543846869364e+00 2.2573363853190074e+00 0.0000000000000000e+00  1.8701862088247301e+00 2.2725486639741277e+00 0.0000000000000000e+00  1.8653098367786904e+00 2.2854745498534386e+00 0.0000000000000000e+00  1.8612922985347462e+00 2.2962715211361826e+00 0.0000000000000000e+00  1.8581558508718359e+00 2.3045691547034388e+00 0.0000000000000000e+00  1.8558743935053195e+00 2.3109234013251174e+00 0.0000000000000000e+00  1.8542764665767606e+00 2.3152217901489864e+00 0.0000000000000000e+00  1.8532693964739728e+00 2.3183561163439825e+00 0.0000000000000000e+00  1.8525722613359412e+00 2.3202078962987929e+00 0.0000000000000000e+00  1.8521645277971583e+00 2.3218279287560391e+00 0.0000000000000000e+00  1.8517772600729254e+00 2.3226683368944019e+00 0.0000000000000000e+00  1.8515642842790021e+00 2.3237839799995972e+00 0.0000000000000000e+00  1.8512290046818278e+00 2.3242783331000991e+00 0.0000000000000000e+00  1.8510853326161167e+00 2.3252616282152885e+00 0.0000000000000000e+00  1.8507484930676013e+00 2.3255204275749399e+00 0.0000000000000000e+00  1.8506642537633633e+00 2.3264999180392496e+00 0.0000000000000000e+00  1.8503114214785903e+00 2.3265526784837318e+00 0.0000000000000000e+00  1.8503002657355199e+00 2.3275191909803850e+00 0.0000000000000000e+00  1.8499327732902424e+00 2.3273908519147866e+00 0.0000000000000000e+00  1.8499895739675190e+00 2.3283925681333941e+00 0.0000000000000000e+00  1.8496043063047773e+00 2.3280424273525817e+00 0.0000000000000000e+00  1.8497446604765342e+00 2.3291171194689655e+00 0.0000000000000000e+00  1.8493163824355030e+00 2.3285842984021312e+00 0.0000000000000000e+00  1.8495409952157393e+00 2.3297089222332983e+00 0.0000000000000000e+00  1.8490884776813206e+00 2.3289968500793652e+00 0.0000000000000000e+00  1.8493724982060851e+00 2.3302167228421027e+00 0.0000000000000000e+00  1.8488894928383615e+00 2.3293149566997320e+00 0.0000000000000000e+00  1.8492555317852375e+00 2.3306200669370871e+00 0.0000000000000000e+00  1.8487148578850889e+00 2.3295777455357349e+00 0.0000000000000000e+00  1.8491529416145935e+00 2.3309622394750926e+00 0.0000000000000000e+00  1.8485862242199451e+00 2.3297623893705670e+00 0.0000000000000000e+00  1.8490699520262546e+00 2.3312376390747760e+00 0.0000000000000000e+00  1.8484677691793472e+00 2.3299308124699998e+00 0.0000000000000000e+00  1.8490139728237702e+00 2.3314453492957146e+00 0.0000000000000000e+00  1.8483676409764960e+00 2.3300552114674131e+00 0.0000000000000000e+00  1.8489592988719314e+00 2.3316494488938702e+00 0.0000000000000000e+00  1.8482914013209346e+00 2.3301275765839669e+00 0.0000000000000000e+00  1.8489208041176819e+00 2.3317943721097167e+00 0.0000000000000000e+00  1.8482168458157280e+00 2.3302359470902738e+00 0.0000000000000000e+00  1.8488885212421768e+00 2.3318779500189915e+00 0.0000000000000000e+00  1.8481650942328456e+00 2.3303067153046775e+00 0.0000000000000000e+00  1.8488545117180692e+00 2.3319979656224188e+00 0.0000000000000000e+00  1.8481163288815876e+00 2.3303126749138507e+00 0.0000000000000000e+00  1.8488394707110805e+00 2.3320954596086789e+00 0.0000000000000000e+00  1.8480695893630175e+00 2.3303720001766601e+00 0.0000000000000000e+00  1.8488136356845413e+00 2.3320980359247381e+00 0.0000000000000000e+00  1.8480527519054466e+00 2.3304540768727056e+00 0.0000000000000000e+00  1.8487827136087673e+00 2.3321338941410010e+00 0.0000000000000000e+00  1.8480215044208634e+00 2.3304406438541547e+00 0.0000000000000000e+00  1.8487821290271602e+00 2.3322163066895398e+00 0.0000000000000000e+00  1.8479908845865980e+00 2.3304535210887076e+00 0.0000000000000000e+00  1.8487506766431447e+00 2.3321762394378158e+00 0.0000000000000000e+00  1.8480055029863627e+00 2.3305833698429890e+00 0.0000000000000000e+00  1.8487081903429341e+00 2.3321016363554028e+00 0.0000000000000000e+00  1.8479924236776064e+00 2.3306138793479367e+00 0.0000000000000000e+00  1.8487132630907757e+00 2.3321524850864153e+00 0.0000000000000000e+00  1.8479646394556619e+00 2.3306043414828777e+00 0.0000000000000000e+00  1.8486826641812359e+00 2.3320995222988361e+00 0.0000000000000000e+00  1.8480004779540342e+00 2.3307494518886980e+00 0.0000000000000000e+00  1.8486244975724038e+00 2.3319576557811015e+00 0.0000000000000000e+00  1.8480034440715167e+00 2.3308327817587693e+00 0.0000000000000000e+00  1.8486323040784458e+00 2.3319679556472956e+00 0.0000000000000000e+00  1.8479683875522996e+00 2.3307975891855750e+00 0.0000000000000000e+00  1.8486243092735326e+00 2.3319524469312141e+00 0.0000000000000000e+00  1.8479905295413672e+00 2.3308958959330957e+00 0.0000000000000000e+00  1.8485640803852748e+00 2.3318127822825043e+00 0.0000000000000000e+00  1.8480198640168193e+00 2.3310040911332566e+00 0.0000000000000000e+00  1.8485541616237871e+00 2.3317593039217739e+00 0.0000000000000000e+00  1.8479808665243729e+00 2.3309918347386898e+00 0.0000000000000000e+00  1.8485743426360723e+00 2.3317814700686159e+00 0.0000000000000000e+00  1.8479791945043798e+00 2.3310009287756950e+00 0.0000000000000000e+00  1.8485184672347426e+00 2.3316799433381732e+00 0.0000000000000000e+00  1.8480341836375702e+00 2.3311365762637966e+00 0.0000000000000000e+00  1.8484730351921015e+00 2.3315542067513291e+00 0.0000000000000000e+00  1.8480174656228108e+00 2.3311732577477007e+00 0.0000000000000000e+00  1.8484973513360716e+00 2.3315281693204430e+00 0.0000000000000000e+00  1.8480093122965786e+00 2.3312379928407174e+00 0.0000000000000000e+00  1.8484292978479007e+00 2.3313517879192602e+00 0.0000000000000000e+00  1.8480895215865707e+00 2.3314234244693668e+00 0.0000000000000000e+00  1.8483710653615688e+00 2.3311995562096715e+00 0.0000000000000000e+00  1.8480762500669510e+00 2.3314427405451186e+00 0.0000000000000000e+00  1.8483760790707295e+00 2.3311994978244890e+00 0.0000000000000000e+00  1.8481053748548419e+00 2.3314481993373710e+00 0.0000000000000000e+00  1.8482895789089080e+00 2.3311212346068588e+00 0.0000000000000000e+00  1.8481565088301946e+00 2.3314610937864408e+00 0.0000000000000000e+00  1.8482779754995373e+00 2.3311945708094144e+00 0.0000000000000000e+00  1.8481283963942983e+00 2.3312648180582087e+00 0.0000000000000000e+00  1.8482494721488938e+00 2.3312926593154164e+00 0.0000000000000000e+00  1.8481942739435984e+00 2.3312532590039816e+00 0.0000000000000000e+00  1.8481563500096145e+00 2.3311794787862858e+00 0.0000000000000000e+00  1.8482170650602237e+00 2.3312428339912246e+00 0.0000000000000000e+00  1.8481785959983867e+00 2.3312763235058007e+00 0.0000000000000000e+00  1.8481529480872638e+00 2.3310508321548169e+00 0.0000000000000000e+00  1.8481923463506582e+00 2.3313133943532987e+00 0.0000000000000000e+00  1.8481818195085697e+00 2.3310575899195869e+00 0.0000000000000000e+00  1.8481166862026146e+00 2.3311128519540643e+00 0.0000000000000000e+00  1.8482366064882070e+00 2.3310265441126150e+00 0.0000000000000000e+00  1.8481110114210655e+00 2.3309680497789111e+00 0.0000000000000000e+00  1.8481805636006232e+00 2.3307969857041884e+00 0.0000000000000000e+00  1.8481289390873035e+00 2.3308479966815923e+00 0.0000000000000000e+00  1.8481111898640030e+00 2.3305958496887502e+00 0.0000000000000000e+00  1.8479332112264606e+00 2.3306809406182878e+00 0.0000000000000000e+00  1.8480211017700947e+00 2.3305147926785850e+00 0.0000000000000000e+00  1.8476932478064032e+00 2.3303897628364698e+00 0.0000000000000000e+00  1.8478560192473019e+00 2.3301222823190977e+00 0.0000000000000000e+00  1.8478469240917583e+00 2.3297127032398817e+00 0.0000000000000000e+00  1.8479438231243595e+00 2.3288466553094125e+00 0.0000000000000000e+00  1.8483344012538223e+00 2.3287508745497325e+00 0.0000000000000000e+00  1.8482900712319790e+00 2.3273508155278551e+00 0.0000000000000000e+00  1.8484604925423758e+00 2.3279480869308236e+00 0.0000000000000000e+00  1.8485875224160517e+00 2.3275222198332819e+00 0.0000000000000000e+00  1.8476302368815014e+00 2.3259037936934166e+00 0.0000000000000000e+00  1.8500269759830084e+00 2.3308774800091348e+00 0.0000000000000000e+00  1.8452360816014428e+00 2.3193327997980711e+00 0.0000000000000000e+00  1.8557297055326092e+00 2.3341350690958471e+00 0.0000000000000000e+00  1.8264262521445118e+00 2.3450030206368386e+00 0.0000000000000000e+00  1.9055300818761980e+00 2.2407856602568725e+00 0.0000000000000000e+00  2.4224734471504590e+00 1.0203257108510213e+00 0.0000000000000000e+00  2.8662228398751206e+00 1.7952287319655993e-01 0.0000000000000000e+00  2.9746364044968474e+00 6.3361878844268426e-03 0.0000000000000000e+00  2.9636068474105310e+00 6.4080987792055170e-03 0.0000000000000000e+00  2.9675664016285395e+00 -5.3107325967010942e-03 0.0000000000000000e+00  2.9725761238860287e+00 -7.9787550238131846e-03 0.0000000000000000e+00  2.9707775702017440e+00 -7.0313467294104625e-03 0.0000000000000000e+00  2.9722087393052972e+00 -9.7353885150352759e-03 0.0000000000000000e+00  2.9726598707514862e+00 -1.0872519553738299e-02 0.0000000000000000e+00  2.9719514896311088e+00 -8.9066620277750471e-03 0.0000000000000000e+00  2.9714478840623615e+00 -8.5561574047839338e-03 0.0000000000000000e+00  2.9719309592961327e+00 -9.2962253001008816e-03 0.0000000000000000e+00  2.9717753823802973e+00 -9.2806800024863162e-03 0.0000000000000000e+00  2.9719645340573058e+00 -8.9737850247250343e-03 0.0000000000000000e+00  2.9716772450406159e+00 -9.3342711757750836e-03 0.0000000000000000e+00  2.9717302859130781e+00 -8.8679237873774287e-03 0.0000000000000000e+00  2.9716873177851371e+00 -8.8038473187569809e-03 0.0000000000000000e+00  2.9717470287105918e+00 -9.9845135138104512e-03 0.0000000000000000e+00  2.9716712066507682e+00 -8.5355144658671271e-03 0.0000000000000000e+00  2.9717223960806867e+00 -9.8001659787220283e-03 0.0000000000000000e+00  2.9716309761124453e+00 -9.7237727256794266e-03 0.0000000000000000e+00  2.9716587779029209e+00 -8.7097352956356840e-03 0.0000000000000000e+00  2.9716821387199595e+00 -1.4805197256804566e-02 0.0000000000000000e+00  2.9715869057497324e+00 -1.0330700153820434e-02 0.0000000000000000e+00  2.9717104310565339e+00 0.0000000000000000e+00 0.0000000000000000e+00  2.1093792179071467e+00 0.0000000000000000e+00 -2.3120291785916493e-05  2.1093405814903718e+00 4.6773884138697465e-02 5.7606562397416840e-06  2.1092172841184671e+00 9.3553491028948874e-02 3.9543640818958833e-06  2.1090144944315514e+00 1.4030075158787106e-01 7.1313982698206413e-07  2.1087257305144074e+00 1.8702158516611520e-01 -1.7367455764941241e-06  2.1083587950689342e+00 2.3371516743295367e-01 3.7982524214127966e-06  2.1079042135542454e+00 2.8035159196182929e-01 -3.4802413262057718e-06  2.1073639587144926e+00 3.2694878179267084e-01 4.1203195978627107e-06  2.1067398040818461e+00 3.7346359578497357e-01 -3.4726791535175180e-06  2.1060244369087568e+00 4.1992156355762705e-01 4.5092178923785188e-06  2.1052173359998658e+00 4.6628166660403891e-01 -4.7278021894685050e-06  2.1043205425767040e+00 5.1255569846729521e-01 6.6354443709270240e-06  2.1033258185612937e+00 5.5870994809391172e-01 -8.2926207775844166e-06  2.1022303071729826e+00 6.0476918396078017e-01 1.2268467249036210e-05  2.1010388136165878e+00 6.5066401882786595e-01 -1.6427455567890402e-05  2.0997362401342534e+00 6.9644913980648504e-01 2.1715256771941222e-05  2.0983269771418755e+00 7.4205113995768013e-01 -2.5246437904910641e-05  2.0968044236558856e+00 7.8750286794764646e-01 2.7495859757392948e-05  2.0951652999953780e+00 8.3273597894867291e-01 -2.6894892604425805e-05  2.0933977437722806e+00 8.7782188351191870e-01 2.4782000066809345e-05  2.0915110584092433e+00 9.2262025820692062e-01 -2.0889956483887759e-05  2.0894834314641226e+00 9.6723444867115971e-01 1.5984774688671917e-05  2.0873183148305334e+00 1.0115859376573411e+00 -9.4735142644869085e-06  2.0850095770901782e+00 1.0556295767339219e+00 1.6932197087760961e-06  2.0825460727497345e+00 1.0994170047885081e+00 5.6715174922028010e-06  2.0799211174778489e+00 1.1428867218496817e+00 -1.0391719654179714e-05  2.0771336363540693e+00 1.1859772884877486e+00 1.0483261499785477e-05  2.0741686716011656e+00 1.2287516527465292e+00 -7.6409800877595866e-06  2.0710184627212787e+00 1.2711365489806923e+00 3.6694637516293375e-06  2.0676834025899704e+00 1.3130652859067342e+00 -1.5012414460536359e-06  2.0641454402730250e+00 1.3546073235600735e+00 -3.7495750246653726e-09  2.0603977907976390e+00 1.3956804425661007e+00 5.6761242598368408e-07  2.0564413289535968e+00 1.4362175110822526e+00 -1.8038484840684243e-06  2.0522560390887730e+00 1.4762856405143818e+00 2.0307030827848170e-06  2.0478389078069981e+00 1.5158015682153427e+00 -2.5617274290975043e-06  2.0431884170102537e+00 1.5547053556650150e+00 2.3290351082955886e-06  2.0382895801317020e+00 1.5930465244165024e+00 -2.5177058636060904e-06  2.0331383699313301e+00 1.6307625275730024e+00 1.4858385528881281e-06  2.0277386996732925e+00 1.6677810743535559e+00 -1.1786918097857487e-06  2.0220772481229483e+00 1.7041713870806869e+00 1.3663247249669820e-06  2.0161554512610023e+00 1.7398414414029530e+00 -2.9140138949801461e-06  2.0099812812642672e+00 1.7747728753185552e+00 2.3834685059753323e-06  2.0035482282114105e+00 1.8089890236029420e+00 -8.6435334218532179e-07  1.9968638975297592e+00 1.8424464788827082e+00 -1.0643720877507530e-06  1.9899433726396396e+00 1.8751009137464905e+00 -2.3443172581888591e-07  1.9827893861445751e+00 1.9070028240791836e+00 1.9525519566959256e-06  1.9754188505235162e+00 1.9381021850129287e+00 -4.0992680275068315e-06  1.9678545379318213e+00 1.9683744873325746e+00 4.6627497589554215e-06  1.9601152025579278e+00 1.9978436132472637e+00 -5.9064727919492514e-06  1.9522238207201523e+00 2.0264893856467427e+00 5.6090313862961965e-06  1.9442235271082906e+00 2.0542596154977253e+00 -6.6373529111265494e-06  1.9361400504694799e+00 2.0811875223933400e+00 7.2869268172556496e-06  1.9280246139541726e+00 2.1071918709766853e+00 -1.0666764800619024e-05  1.9199237079816307e+00 2.1322625185773925e+00 1.1019974639975604e-05  1.9119057252139702e+00 2.1563004481871730e+00 -1.2677941608520068e-05  1.9040248031812019e+00 2.1792841901119240e+00 1.1005417348858805e-05  1.8963843032029268e+00 2.2010057605431856e+00 -1.1811093364528242e-05  1.8890600046628498e+00 2.2214179855323741e+00 8.1295842898499808e-06  1.8821750797463837e+00 2.2402670922866648e+00 -8.2782656099954230e-06  1.8758368220677120e+00 2.2573947452954037e+00 6.0066893382238239e-06  1.8701799700772257e+00 2.2725353760382303e+00 -5.2938216504822451e-06  1.8652969755028181e+00 2.2855495938355799e+00 3.6262587003213372e-06  1.8612868720329847e+00 2.2962361027394311e+00 2.6791912290766375e-07  1.8581569437206644e+00 2.3046318394295962e+00 -1.3069118864994417e-07  1.8558685210954087e+00 2.3108849728738643e+00 4.8035009012501293e-06  1.8542904197223773e+00 2.3152783579891394e+00 -6.6887777879437559e-06  1.8532628639973774e+00 2.3182786292608442e+00 7.1722361312480930e-06  1.8525884244200108e+00 2.3203082724175634e+00 -1.3388045547782373e-05  1.8521383603734769e+00 2.3217431934965513e+00 1.1748363883520999e-05  1.8517948471451284e+00 2.3228001580819710e+00 -1.7278368543698055e-05  1.8515133574295290e+00 2.3237193355745251e+00 1.6785882487308445e-05  1.8512550502104415e+00 2.3244380316444748e+00 -1.9396273737479768e-05  1.8510261137123480e+00 2.3251390371086478e+00 2.0718663629349123e-05  1.8507962505539248e+00 2.3257295299041525e+00 -2.1293657463090722e-05  1.8505937534160302e+00 2.3263065224896633e+00 2.2153455945156836e-05  1.8503892688929116e+00 2.3267734986304909e+00 -2.1730450775993623e-05  1.8502158792615455e+00 2.3272816412302011e+00 2.1092259699882900e-05  1.8500268958215247e+00 2.3276613222811946e+00 -2.0330008677191476e-05  1.8498877070168587e+00 2.3280715650173991e+00 1.8207182923808445e-05  1.8497232756478796e+00 2.3283944182543879e+00 -1.6268702820644874e-05  1.8496036661271062e+00 2.3287412661138394e+00 1.1204235414040414e-05  1.8494635318548642e+00 2.3289796252042794e+00 -7.3095601366186293e-06  1.8493818795988606e+0