<?xml version="1.0"?>
<VTKFile type="UnstructuredGrid"  version="0.1"  >
<UnstructuredGrid>
<Piece  NumberOfPoints="8241" NumberOfCells="16000">
<Points>
<DataArray  type="Float64"  NumberOfComponents="3"  format="ascii">-5 -1 0  -4.95 -1 0  -4.9 -1 0  -4.85 -1 0  -4.8 -1 0  -4.75 -1 0  -4.7 -1 0  -4.65 -1 0  -4.6 -1 0  -4.55 -1 0  -4.5 -1 0  -4.45 -1 0  -4.4 -1 0  -4.35 -1 0  -4.3 -1 0  -4.25 -1 0  -4.2 -1 0  -4.15 -1 0  -4.1 -1 0  -4.05 -1 0  -4 -1 0  -3.95 -1 0  -3.9 -1 0  -3.85 -1 0  -3.8 -1 0  -3.75 -1 0  -3.7 -1 0  -3.65 -1 0  -3.6 -1 0  -3.55 -1 0  -3.5 -1 0  -3.45 -1 0  -3.4 -1 0  -3.35 -1 0  -3.3 -1 0  -3.25 -1 0  -3.2 -1 0  -3.15 -1 0  -3.1 -1 0  -3.05 -1 0  -3 -1 0  -2.95 -1 0  -2.9 -1 0  -2.85 -1 0  -2.8 -1 0  -2.75 -1 0  -2.7 -1 0  -2.65 -1 0  -2.6 -1 0  -2.55 -1 0  -2.5 -1 0  -2.45 -1 0  -2.4 -1 0  -2.35 -1 0  -2.3 -1 0  -2.25 -1 0  -2.2 -1 0  -2.15 -1 0  -2.1 -1 0  -2.05 -1 0  -2 -1 0  -1.95 -1 0  -1.9 -1 0  -1.85 -1 0  -1.8 -1 0  -1.75 -1 0  -1.7 -1 0  -1.65 -1 0  -1.6 -1 0  -1.55 -1 0  -1.5 -1 0  -1.45 -1 0  -1.4 -1 0  -1.35 -1 0  -1.3 -1 0  -1.25 -1 0  -1.2 -1 0  -1.15 -1 0  -1.1 -1 0  -1.05 -1 0  -1 -1 0  -0.9500000000000002 -1 0  -0.9000000000000004 -1 0  -0.8499999999999996 -1 0  -0.7999999999999998 -1 0  -0.75 -1 0  -0.7000000000000002 -1 0  -0.6500000000000004 -1 0  -0.5999999999999996 -1 0  -0.5499999999999998 -1 0  -0.5 -1 0  -0.4500000000000002 -1 0  -0.4000000000000004 -1 0  -0.3499999999999996 -1 0  -0.2999999999999998 -1 0  -0.25 -1 0  -0.2000000000000002 -1 0  -0.1500000000000004 -1 0  -0.09999999999999964 -1 0  -0.04999999999999982 -1 0  0 -1 0  0.04999999999999982 -1 0  0.09999999999999964 -1 0  0.1500000000000004 -1 0  0.2000000000000002 -1 0  0.25 -1 0  0.2999999999999998 -1 0  0.3499999999999996 -1 0  0.4000000000000004 -1 0  0.4500000000000002 -1 0  0.5 -1 0  0.5499999999999998 -1 0  0.5999999999999996 -1 0  0.6500000000000004 -1 0  0.7000000000000002 -1 0  0.75 -1 0  0.7999999999999998 -1 0  0.8499999999999996 -1 0  0.9000000000000004 -1 0  0.9500000000000002 -1 0  1 -1 0  1.05 -1 0  1.1 -1 0  1.15 -1 0  1.2 -1 0  1.25 -1 0  1.3 -1 0  1.35 -1 0  1.4 -1 0  1.45 -1 0  1.5 -1 0  1.55 -1 0  1.6 -1 0  1.65 -1 0  1.7 -1 0  1.75 -1 0  1.8 -1 0  1.85 -1 0  1.9 -1 0  1.95 -1 0  2 -1 0  2.05 -1 0  2.1 -1 0  2.15 -1 0  2.2 -1 0  2.25 -1 0  2.3 -1 0  2.35 -1 0  2.4 -1 0  2.45 -1 0  2.5 -1 0  2.55 -1 0  2.6 -1 0  2.65 -1 0  2.7 -1 0  2.75 -1 0  2.8 -1 0  2.85 -1 0  2.9 -1 0  2.95 -1 0  3 -1 0  3.050000000000001 -1 0  3.1 -1 0  3.15 -1 0  3.199999999999999 -1 0  3.25 -1 0  3.300000000000001 -1 0  3.35 -1 0  3.4 -1 0  3.449999999999999 -1 0  3.5 -1 0  3.550000000000001 -1 0  3.6 -1 0  3.65 -1 0  3.699999999999999 -1 0  3.75 -1 0  3.800000000000001 -1 0  3.85 -1 0  3.9 -1 0  3.949999999999999 -1 0  4 -1 0  4.050000000000001 -1 0  4.1 -1 0  4.15 -1 0  4.199999999999999 -1 0  4.25 -1 0  4.300000000000001 -1 0  4.35 -1 0  4.4 -1 0  4.449999999999999 -1 0  4.5 -1 0  4.550000000000001 -1 0  4.6 -1 0  4.65 -1 0  4.699999999999999 -1 0  4.75 -1 0  4.800000000000001 -1 0  4.85 -1 0  4.9 -1 0  4.949999999999999 -1 0  5 -1 0  -5 -0.95 0  -4.95 -0.95 0  -4.9 -0.95 0  -4.85 -0.95 0  -4.8 -0.95 0  -4.75 -0.95 0  -4.7 -0.95 0  -4.65 -0.95 0  -4.6 -0.95 0  -4.55 -0.95 0  -4.5 -0.95 0  -4.45 -0.95 0  -4.4 -0.95 0  -4.35 -0.95 0  -4.3 -0.95 0  -4.25 -0.95 0  -4.2 -0.95 0  -4.15 -0.95 0  -4.1 -0.95 0  -4.05 -0.95 0  -4 -0.95 0  -3.95 -0.95 0  -3.9 -0.95 0  -3.85 -0.95 0  -3.8 -0.95 0  -3.75 -0.95 0  -3.7 -0.95 0  -3.65 -0.95 0  -3.6 -0.95 0  -3.55 -0.95 0  -3.5 -0.95 0  -3.45 -0.95 0  -3.4 -0.95 0  -3.35 -0.95 0  -3.3 -0.95 0  -3.25 -0.95 0  -3.2 -0.95 0  -3.15 -0.95 0  -3.1 -0.95 0  -3.05 -0.95 0  -3 -0.95 0  -2.95 -0.95 0  -2.9 -0.95 0  -2.85 -0.95 0  -2.8 -0.95 0  -2.75 -0.95 0  -2.7 -0.95 0  -2.65 -0.95 0  -2.6 -0.95 0  -2.55 -0.95 0  -2.5 -0.95 0  -2.45 -0.95 0  -2.4 -0.95 0  -2.35 -0.95 0  -2.3 -0.95 0  -2.25 -0.95 0  -2.2 -0.95 0  -2.15 -0.95 0  -2.1 -0.95 0  -2.05 -0.95 0  -2 -0.95 0  -1.95 -0.95 0  -1.9 -0.95 0  -1.85 -0.95 0  -1.8 -0.95 0  -1.75 -0.95 0  -1.7 -0.95 0  -1.65 -0.95 0  -1.6 -0.95 0  -1.55 -0.95 0  -1.5 -0.95 0  -1.45 -0.95 0  -1.4 -0.95 0  -1.35 -0.95 0  -1.3 -0.95 0  -1.25 -0.95 0  -1.2 -0.95 0  -1.15 -0.95 0  -1.1 -0.95 0  -1.05 -0.95 0  -1 -0.95 0  -0.9500000000000002 -0.95 0  -0.9000000000000004 -0.95 0  -0.8499999999999996 -0.95 0  -0.7999999999999998 -0.95 0  -0.75 -0.95 0  -0.7000000000000002 -0.95 0  -0.6500000000000004 -0.95 0  -0.5999999999999996 -0.95 0  -0.5499999999999998 -0.95 0  -0.5 -0.95 0  -0.4500000000000002 -0.95 0  -0.4000000000000004 -0.95 0  -0.3499999999999996 -0.95 0  -0.2999999999999998 -0.95 0  -0.25 -0.95 0  -0.2000000000000002 -0.95 0  -0.1500000000000004 -0.95 0  -0.09999999999999964 -0.95 0  -0.04999999999999982 -0.95 0  0 -0.95 0  0.04999999999999982 -0.95 0  0.09999999999999964 -0.95 0  0.1500000000000004 -0.95 0  0.2000000000000002 -0.95 0  0.25 -0.95 0  0.2999999999999998 -0.95 0  0.3499999999999996 -0.95 0  0.4000000000000004 -0.95 0  0.4500000000000002 -0.95 0  0.5 -0.95 0  0.5499999999999998 -0.95 0  0.5999999999999996 -0.95 0  0.6500000000000004 -0.95 0  0.7000000000000002 -0.95 0  0.75 -0.95 0  0.7999999999999998 -0.95 0  0.8499999999999996 -0.95 0  0.9000000000000004 -0.95 0  0.9500000000000002 -0.95 0  1 -0.95 0  1.05 -0.95 0  1.1 -0.95 0  1.15 -0.95 0  1.2 -0.95 0  1.25 -0.95 0  1.3 -0.95 0  1.35 -0.95 0  1.4 -0.95 0  1.45 -0.95 0  1.5 -0.95 0  1.55 -0.95 0  1.6 -0.95 0  1.65 -0.95 0  1.7 -0.95 0  1.75 -0.95 0  1.8 -0.95 0  1.85 -0.95 0  1.9 -0.95 0  1.95 -0.95 0  2 -0.95 0  2.05 -0.95 0  2.1 -0.95 0  2.15 -0.95 0  2.2 -0.95 0  2.25 -0.95 0  2.3 -0.95 0  2.35 -0.95 0  2.4 -0.95 0  2.45 -0.95 0  2.5 -0.95 0  2.55 -0.95 0  2.6 -0.95 0  2.65 -0.95 0  2.7 -0.95 0  2.75 -0.95 0  2.8 -0.95 0  2.85 -0.95 0  2.9 -0.95 0  2.95 -0.95 0  3 -0.95 0  3.050000000000001 -0.95 0  3.1 -0.95 0  3.15 -0.95 0  3.199999999999999 -0.95 0  3.25 -0.95 0  3.300000000000001 -0.95 0  3.35 -0.95 0  3.4 -0.95 0  3.449999999999999 -0.95 0  3.5 -0.95 0  3.550000000000001 -0.95 0  3.6 -0.95 0  3.65 -0.95 0  3.699999999999999 -0.95 0  3.75 -0.95 0  3.800000000000001 -0.95 0  3.85 -0.95 0  3.9 -0.95 0  3.949999999999999 -0.95 0  4 -0.95 0  4.050000000000001 -0.95 0  4.1 -0.95 0  4.15 -0.95 0  4.199999999999999 -0.95 0  4.25 -0.95 0  4.300000000000001 -0.95 0  4.35 -0.95 0  4.4 -0.95 0  4.449999999999999 -0.95 0  4.5 -0.95 0  4.550000000000001 -0.95 0  4.6 -0.95 0  4.65 -0.95 0  4.699999999999999 -0.95 0  4.75 -0.95 0  4.800000000000001 -0.95 0  4.85 -0.95 0  4.9 -0.95 0  4.949999999999999 -0.95 0  5 -0.95 0  -5 -0.9 0  -4.95 -0.9 0  -4.9 -0.9 0  -4.85 -0.9 0  -4.8 -0.9 0  -4.75 -0.9 0  -4.7 -0.9 0  -4.65 -0.9 0  -4.6 -0.9 0  -4.55 -0.9 0  -4.5 -0.9 0  -4.45 -0.9 0  -4.4 -0.9 0  -4.35 -0.9 0  -4.3 -0.9 0  -4.25 -0.9 0  -4.2 -0.9 0  -4.15 -0.9 0  -4.1 -0.9 0  -4.05 -0.9 0  -4 -0.9 0  -3.95 -0.9 0  -3.9 -0.9 0  -3.85 -0.9 0  -3.8 -0.9 0  -3.75 -0.9 0  -3.7 -0.9 0  -3.65 -0.9 0  -3.6 -0.9 0  -3.55 -0.9 0  -3.5 -0.9 0  -3.45 -0.9 0  -3.4 -0.9 0  -3.35 -0.9 0  -3.3 -0.9 0  -3.25 -0.9 0  -3.2 -0.9 0  -3.15 -0.9 0  -3.1 -0.9 0  -3.05 -0.9 0  -3 -0.9 0  -2.95 -0.9 0  -2.9 -0.9 0  -2.85 -0.9 0  -2.8 -0.9 0  -2.75 -0.9 0  -2.7 -0.9 0  -2.65 -0.9 0  -2.6 -0.9 0  -2.55 -0.9 0  -2.5 -0.9 0  -2.45 -0.9 0  -2.4 -0.9 0  -2.35 -0.9 0  -2.3 -0.9 0  -2.25 -0.9 0  -2.2 -0.9 0  -2.15 -0.9 0  -2.1 -0.9 0  -2.05 -0.9 0  -2 -0.9 0  -1.95 -0.9 0  -1.9 -0.9 0  -1.85 -0.9 0  -1.8 -0.9 0  -1.75 -0.9 0  -1.7 -0.9 0  -1.65 -0.9 0  -1.6 -0.9 0  -1.55 -0.9 0  -1.5 -0.9 0  -1.45 -0.9 0  -1.4 -0.9 0  -1.35 -0.9 0  -1.3 -0.9 0  -1.25 -0.9 0  -1.2 -0.9 0  -1.15 -0.9 0  -1.1 -0.9 0  -1.05 -0.9 0  -1 -0.9 0  -0.9500000000000002 -0.9 0  -0.9000000000000004 -0.9 0  -0.8499999999999996 -0.9 0  -0.7999999999999998 -0.9 0  -0.75 -0.9 0  -0.7000000000000002 -0.9 0  -0.6500000000000004 -0.9 0  -0.5999999999999996 -0.9 0  -0.5499999999999998 -0.9 0  -0.5 -0.9 0  -0.4500000000000002 -0.9 0  -0.4000000000000004 -0.9 0  -0.3499999999999996 -0.9 0  -0.2999999999999998 -0.9 0  -0.25 -0.9 0  -0.2000000000000002 -0.9 0  -0.1500000000000004 -0.9 0  -0.09999999999999964 -0.9 0  -0.04999999999999982 -0.9 0  0 -0.9 0  0.04999999999999982 -0.9 0  0.09999999999999964 -0.9 0  0.1500000000000004 -0.9 0  0.2000000000000002 -0.9 0  0.25 -0.9 0  0.2999999999999998 -0.9 0  0.3499999999999996 -0.9 0  0.4000000000000004 -0.9 0  0.4500000000000002 -0.9 0  0.5 -0.9 0  0.5499999999999998 -0.9 0  0.5999999999999996 -0.9 0  0.6500000000000004 -0.9 0  0.7000000000000002 -0.9 0  0.75 -0.9 0  0.7999999999999998 -0.9 0  0.8499999999999996 -0.9 0  0.9000000000000004 -0.9 0  0.9500000000000002 -0.9 0  1 -0.9 0  1.05 -0.9 0  1.1 -0.9 0  1.15 -0.9 0  1.2 -0.9 0  1.25 -0.9 0  1.3 -0.9 0  1.35 -0.9 0  1.4 -0.9 0  1.45 -0.9 0  1.5 -0.9 0  1.55 -0.9 0  1.6 -0.9 0  1.65 -0.9 0  1.7 -0.9 0  1.75 -0.9 0  1.8 -0.9 0  1.85 -0.9 0  1.9 -0.9 0  1.95 -0.9 0  2 -0.9 0  2.05 -0.9 0  2.1 -0.9 0  2.15 -0.9 0  2.2 -0.9 0  2.25 -0.9 0  2.3 -0.9 0  2.35 -0.9 0  2.4 -0.9 0  2.45 -0.9 0  2.5 -0.9 0  2.55 -0.9 0  2.6 -0.9 0  2.65 -0.9 0  2.7 -0.9 0  2.75 -0.9 0  2.8 -0.9 0  2.85 -0.9 0  2.9 -0.9 0  2.95 -0.9 0  3 -0.9 0  3.050000000000001 -0.9 0  3.1 -0.9 0  3.15 -0.9 0  3.199999999999999 -0.9 0  3.25 -0.9 0  3.300000000000001 -0.9 0  3.35 -0.9 0  3.4 -0.9 0  3.449999999999999 -0.9 0  3.5 -0.9 0  3.550000000000001 -0.9 0  3.6 -0.9 0  3.65 -0.9 0  3.699999999999999 -0.9 0  3.75 -0.9 0  3.800000000000001 -0.9 0  3.85 -0.9 0  3.9 -0.9 0  3.949999999999999 -0.9 0  4 -0.9 0  4.050000000000001 -0.9 0  4.1 -0.9 0  4.15 -0.9 0  4.199999999999999 -0.9 0  4.25 -0.9 0  4.300000000000001 -0.9 0  4.35 -0.9 0  4.4 -0.9 0  4.449999999999999 -0.9 0  4.5 -0.9 0  4.550000000000001 -0.9 0  4.6 -0.9 0  4.65 -0.9 0  4.699999999999999 -0.9 0  4.75 -0.9 0  4.800000000000001 -0.9 0  4.85 -0.9 0  4.9 -0.9 0  4.949999999999999 -0.9 0  5 -0.9 0  -5 -0.85 0  -4.95 -0.85 0  -4.9 -0.85 0  -4.85 -0.85 0  -4.8 -0.85 0  -4.75 -0.85 0  -4.7 -0.85 0  -4.65 -0.85 0  -4.6 -0.85 0  -4.55 -0.85 0  -4.5 -0.85 0  -
[...]
<PointData  Vectors="f_15"> 
<DataArray  type="Float64"  Name="f_15"  NumberOfComponents="3" format="ascii">3.0000268183655638e+00 0.0000000000000000e+00 0.0000000000000000e+00  2.9999827384423234e+00 -4.8838629448157417e-05 0.0000000000000000e+00  3.0000250956163681e+00 6.2788789651353999e-05 0.0000000000000000e+00  2.9999841300764198e+00 -4.2509495494768278e-05 0.0000000000000000e+00  3.0000190581210213e+00 3.9846624184715102e-05 0.0000000000000000e+00  2.9999861261464753e+00 -2.1426476829340929e-05 0.0000000000000000e+00  3.0000179238352032e+00 2.4949457072185067e-05 0.0000000000000000e+00  2.9999825500257291e+00 -2.4021584241604571e-05 0.0000000000000000e+00  3.0000186443850461e+00 2.8999997823164482e-05 0.0000000000000000e+00  2.9999863208007009e+00 -2.1640852776290910e-05 0.0000000000000000e+00  3.0000084518303378e+00 1.1829105950055507e-05 0.0000000000000000e+00  2.9999955807791485e+00 -2.6342803693367297e-06 0.0000000000000000e+00  3.0000061921411900e+00 5.1729749443002884e-06 0.0000000000000000e+00  2.9999893463039622e+00 -1.4657011546012510e-05 0.0000000000000000e+00  3.0000125406267548e+00 2.1594034647719166e-05 0.0000000000000000e+00  2.9999920565264495e+00 -1.5269463354697366e-05 0.0000000000000000e+00  2.9999996039081811e+00 4.0842192398363987e-07 0.0000000000000000e+00  3.0000042277599479e+00 1.0303740367611771e-05 0.0000000000000000e+00  3.0000000033532435e+00 -3.8307153328365337e-06 0.0000000000000000e+00  2.9999902370899889e+00 -1.2110223422707722e-05 0.0000000000000000e+00  3.0000134188960677e+00 2.4344909285398295e-05 0.0000000000000000e+00  2.9999907090645861e+00 -1.5676316697055682e-05 0.0000000000000000e+00  2.9999983702253767e+00 1.5146687598790801e-07 0.0000000000000000e+00  3.0000033226150111e+00 1.3019305586850590e-05 0.0000000000000000e+00  3.0000009554307137e+00 -9.0417309461094822e-07 0.0000000000000000e+00  2.9999864024391991e+00 -1.2308368072930002e-05 0.0000000000000000e+00  3.0000134358427482e+00 2.5594799537868725e-05 0.0000000000000000e+00  2.9999896092098788e+00 -1.1006904068386925e-05 0.0000000000000000e+00  2.9999987000953738e+00 9.8499419749322211e-07 0.0000000000000000e+00  2.9999995873402674e+00 9.0648627718977804e-06 0.0000000000000000e+00  3.0000038017112991e+00 2.1623065496293192e-06 0.0000000000000000e+00  2.9999901347436335e+00 -1.1169883664135996e-05 0.0000000000000000e+00  3.0000099808285396e+00 9.0059619727683050e-06 0.0000000000000000e+00  2.9999984053359610e+00 -8.4584646408800376e-06 0.0000000000000000e+00  3.0000052073317409e+00 -8.0566075066865820e-06 0.0000000000000000e+00  3.0000026862226403e+00 -8.9510162502880494e-06 0.0000000000000000e+00  3.0000097824449821e+00 -7.4204579684311960e-06 0.0000000000000000e+00  3.0000037826323438e+00 -1.1099331793104005e-05 0.0000000000000000e+00  3.0000044769218728e+00 -9.4538755620875615e-06 0.0000000000000000e+00  3.0000018848734786e+00 -2.1505784391203648e-07 0.0000000000000000e+00  2.9999973335742891e+00 1.1136741703366041e-05 0.0000000000000000e+00  2.9999844218566003e+00 2.3308784179115233e-05 0.0000000000000000e+00  2.9999671173807112e+00 5.3940745109553554e-05 0.0000000000000000e+00  2.9999476949102286e+00 1.1153974934772202e-04 0.0000000000000000e+00  2.9998904218233040e+00 1.8242586451805437e-04 0.0000000000000000e+00  2.9998200859307698e+00 3.2676772391832345e-04 0.0000000000000000e+00  2.9996848283594177e+00 5.6989277773510094e-04 0.0000000000000000e+00  2.9994700557716962e+00 9.6028943904270694e-04 0.0000000000000000e+00  2.9991027089846631e+00 1.6024461298595296e-03 0.0000000000000000e+00  2.9985457774323949e+00 2.6410914955124955e-03 0.0000000000000000e+00  2.9976504875383116e+00 4.2320131473208731e-03 0.0000000000000000e+00  2.9963256804731517e+00 6.6393211161498893e-03 0.0000000000000000e+00  2.9943664244457624e+00 1.0178374243685697e-02 0.0000000000000000e+00  2.9915890244969994e+00 1.5205239705121647e-02 0.0000000000000000e+00  2.9877388034740080e+00 2.2172888006198752e-02 0.0000000000000000e+00  2.9825708755535860e+00 3.1541579961149903e-02 0.0000000000000000e+00  2.9758080817212682e+00 4.3793900344359704e-02 0.0000000000000000e+00  2.9672211688099122e+00 5.9398508586791979e-02 0.0000000000000000e+00  2.9565707469431137e+00 7.8760851494066794e-02 0.0000000000000000e+00  2.9436987774667696e+00 1.0219780186318431e-01 0.0000000000000000e+00  2.9285040642198639e+00 1.2995984170000091e-01 0.0000000000000000e+00  2.9109216506640250e+00 1.6213496888998746e-01 0.0000000000000000e+00  2.8909810337407444e+00 1.9874192624529644e-01 0.0000000000000000e+00  2.8687700460521990e+00 2.3968725994902701e-01 0.0000000000000000e+00  2.8443791867283026e+00 2.8479186743683510e-01 0.0000000000000000e+00  2.8179963774308767e+00 3.3380834483393274e-01 0.0000000000000000e+00  2.7897907159009279e+00 3.8647385751801316e-01 0.0000000000000000e+00  2.7599510640647305e+00 4.4245262583003214e-01 0.0000000000000000e+00  2.7286755850931428e+00 5.0145297281901191e-01 0.0000000000000000e+00  2.6961861596876755e+00 5.6312629627728006e-01 0.0000000000000000e+00  2.6626151633661497e+00 6.2719703824095452e-01 0.0000000000000000e+00  2.6282019586847252e+00 6.9333310456904995e-01 0.0000000000000000e+00  2.5930667410856683e+00 7.6128931723506488e-01 0.0000000000000000e+00  2.5573816059184806e+00 8.3078025876139450e-01 0.0000000000000000e+00  2.5212695074001084e+00 9.0160495589564704e-01 0.0000000000000000e+00  2.4848895744314921e+00 9.7347202971113433e-01 0.0000000000000000e+00  2.4482993756130842e+00 1.0462808249533602e+00 0.0000000000000000e+00  2.4116645879060981e+00 1.1197393955947474e+00 0.0000000000000000e+00  2.3750389464749526e+00 1.1937403566717542e+00 0.0000000000000000e+00  2.3385218131494216e+00 1.2680698315450567e+00 0.0000000000000000e+00  2.3022002303520455e+00 1.3426488116027544e+00 0.0000000000000000e+00  2.2661533169097274e+00 1.4171615139662550e+00 0.0000000000000000e+00  2.2304498203460379e+00 1.4916284143576055e+00 0.0000000000000000e+00  2.1951749518550052e+00 1.5657573870152652e+00 0.0000000000000000e+00  2.1604405574857521e+00 1.6393688922564977e+00 0.0000000000000000e+00  2.1262858744152626e+00 1.7122573018185496e+00 0.0000000000000000e+00  2.0929042079981346e+00 1.7841910281539555e+00 0.0000000000000000e+00  2.0603601738604360e+00 1.8547597706435801e+00 0.0000000000000000e+00  2.0288979267245248e+00 1.9236172592020351e+00 0.0000000000000000e+00  1.9986798447622731e+00 1.9901536175714181e+00 0.0000000000000000e+00  1.9701035110228462e+00 2.0536441840710560e+00 0.0000000000000000e+00  1.9434826184694374e+00 2.1131533060153647e+00 0.0000000000000000e+00  1.9194356192891546e+00 2.1672920887514389e+00 0.0000000000000000e+00  1.8985721657641406e+00 2.2144729719099812e+00 0.0000000000000000e+00  1.8816239664091992e+00 2.2530479387509486e+00 0.0000000000000000e+00  1.8690685192188969e+00 2.2816726343842024e+00 0.0000000000000000e+00  1.8609436800774990e+00 2.3002474271925948e+00 0.0000000000000000e+00  1.8564097462138209e+00 2.3106067885127550e+00 0.0000000000000000e+00  1.8542125301173182e+00 2.3156022905765354e+00 0.0000000000000000e+00  1.8531772291658282e+00 2.3179339677186412e+00 0.0000000000000000e+00  1.8525916218043874e+00 2.3192629494442252e+00 0.0000000000000000e+00  1.8521417730366121e+00 2.3202260014003135e+00 0.0000000000000000e+00  1.8518176221987677e+00 2.3209403108449052e+00 0.0000000000000000e+00  1.8514388330870495e+00 2.3217661574265307e+00 0.0000000000000000e+00  1.8511049770447905e+00 2.3224347119864901e+00 0.0000000000000000e+00  1.8508278604856065e+00 2.3230143139035033e+00 0.0000000000000000e+00  1.8505670583659615e+00 2.3235896148241557e+00 0.0000000000000000e+00  1.8502561583310073e+00 2.3242613407599237e+00 0.0000000000000000e+00  1.8500201132594947e+00 2.3247344639287655e+00 0.0000000000000000e+00  1.8497912048100895e+00 2.3251710835034425e+00 0.0000000000000000e+00  1.8495741108080797e+00 2.3255318554495141e+00 0.0000000000000000e+00  1.8493710296833281e+00 2.3258678165425710e+00 0.0000000000000000e+00  1.8491889063826064e+00 2.3262527766005809e+00 0.0000000000000000e+00  1.8490130260203117e+00 2.3265934413977343e+00 0.0000000000000000e+00  1.8488717001768857e+00 2.3268677682407288e+00 0.0000000000000000e+00  1.8487047841239428e+00 2.3271243316083035e+00 0.0000000000000000e+00  1.8486163309273880e+00 2.3271261943849897e+00 0.0000000000000000e+00  1.8484390820742640e+00 2.3272646292147265e+00 0.0000000000000000e+00  1.8483665159733533e+00 2.3271590680576897e+00 0.0000000000000000e+00  1.8482596863683360e+00 2.3271246069543312e+00 0.0000000000000000e+00  1.8481516101259785e+00 2.3270956802237630e+00 0.0000000000000000e+00  1.8480407493633806e+00 2.3270074385113100e+00 0.0000000000000000e+00  1.8480211113160014e+00 2.3267088375105733e+00 0.0000000000000000e+00  1.8478621419186290e+00 2.3265894172524657e+00 0.0000000000000000e+00  1.8478417324789582e+00 2.3261765669609704e+00 0.0000000000000000e+00  1.8477419850398931e+00 2.3259120552166759e+00 0.0000000000000000e+00  1.8477002805241987e+00 2.3255062497118777e+00 0.0000000000000000e+00  1.8475919983610976e+00 2.3253371756676007e+00 0.0000000000000000e+00  1.8475674668582076e+00 2.3249542929791667e+00 0.0000000000000000e+00  1.8474938764784281e+00 2.3248215715898448e+00 0.0000000000000000e+00  1.8474009065631143e+00 2.3245804713853659e+00 0.0000000000000000e+00  1.8474104921792964e+00 2.3245240029273320e+00 0.0000000000000000e+00  1.8471695383269597e+00 2.3239884298964433e+00 0.0000000000000000e+00  1.8471689260562889e+00 2.3240470183349258e+00 0.0000000000000000e+00  1.8466525748111857e+00 2.3228130807435918e+00 0.0000000000000000e+00  1.8459836223842709e+00 2.3214877408169579e+00 0.0000000000000000e+00  1.8446937968947124e+00 2.3188972447821152e+00 0.0000000000000000e+00  1.8389225808775966e+00 2.3052632672504694e+00 0.0000000000000000e+00  1.8294088700574573e+00 2.2838442882943033e+00 0.0000000000000000e+00  1.7911994946517760e+00 2.1994345953050516e+00 0.0000000000000000e+00  1.7330115416646183e+00 2.0587303917092608e+00 0.0000000000000000e+00  1.5758922957498829e+00 1.6567513444627158e+00 0.0000000000000000e+00  1.2648385857467765e+00 8.1027885932887189e-01 0.0000000000000000e+00  1.0625538807541957e+00 1.9970979354356944e-01 0.0000000000000000e+00  1.0094610993235946e+00 3.0951495758339803e-02 0.0000000000000000e+00  1.0012104572076392e+00 4.1726699927213647e-03 0.0000000000000000e+00  1.0001513947913347e+00 6.0412760619823428e-04 0.0000000000000000e+00  1.0000413653892788e+00 2.7243167145673309e-05 0.0000000000000000e+00  9.9998842710167546e-01 8.5991131398118823e-05 0.0000000000000000e+00  1.0000143802786368e+00 -5.8343986044058003e-05 0.0000000000000000e+00  9.9998985074405589e-01 5.5243725809435062e-05 0.0000000000000000e+00  1.0000111788423296e+00 -5.5034378711390646e-05 0.0000000000000000e+00  9.9998496059805353e-01 6.8020842376026588e-05 0.0000000000000000e+00  1.0000197801587052e+00 -8.4476309160672183e-05 0.0000000000000000e+00  9.9997724423495948e-01 9.5662097818591423e-05 0.0000000000000000e+00  1.0000237500824565e+00 -9.8480328200616023e-05 0.0000000000000000e+00  9.9997563680361445e-01 9.7233512226350429e-05 0.0000000000000000e+00  1.0000261200234946e+00 -9.7669845337790655e-05 0.0000000000000000e+00  9.9997103644453345e-01 1.0146485938953354e-04 0.0000000000000000e+00  1.0000315033402809e+00 -1.0555066748423572e-04 0.0000000000000000e+00  9.9996761683356894e-01 1.0580378388330583e-04 0.0000000000000000e+00  1.0000313501120417e+00 -1.0073897211194572e-04 0.0000000000000000e+00  9.9997080574732777e-01 9.2186172415088582e-05 0.0000000000000000e+00  1.0000269104982642e+00 -8.3137033104450090e-05 0.0000000000000000e+00  9.9997504161647544e-01 7.5382890116860052e-05 0.0000000000000000e+00  1.0000231723796245e+00 -6.8774091243843782e-05 0.0000000000000000e+00  9.9997882484907785e-01 6.2218571946922203e-05 0.0000000000000000e+00  1.0000188116874997e+00 -5.5000326436444941e-05 0.0000000000000000e+00  9.9998374361857023e-01 4.7348654897370364e-05 0.0000000000000000e+00  1.0000138253484949e+00 -4.0042141350838011e-05 0.0000000000000000e+00  9.9998826591480772e-01 3.3726593951621957e-05 0.0000000000000000e+00  1.0000100029629471e+00 -2.8532984888874642e-05 0.0000000000000000e+00  9.9999147409327793e-01 2.4192753902570697e-05 0.0000000000000000e+00  1.0000071952957659e+00 -2.0368315502750853e-05 0.0000000000000000e+00  9.9999402657434389e-01 1.6895579684174828e-05 0.0000000000000000e+00  1.0000048834439061e+00 -1.3796882917253758e-05 0.0000000000000000e+00  9.9999604071259773e-01 1.1157290451873795e-05 0.0000000000000000e+00  1.0000032076502563e+00 -9.0051522206835942e-06 0.0000000000000000e+00  9.9999739615019156e-01 7.2828172261478017e-06 0.0000000000000000e+00  1.0000021108679269e+00 -5.8887410304790751e-06 0.0000000000000000e+00  9.9999830103057896e-01 4.7336926195990426e-06 0.0000000000000000e+00  1.0000013526981535e+00 -3.7664058193685886e-06 0.0000000000000000e+00  9.9999893376319271e-01 2.9657954501618488e-06 0.0000000000000000e+00  1.0000008354683472e+00 -2.3195603426035818e-06 0.0000000000000000e+00  9.9999934646188537e-01 1.8098559714658331e-06 0.0000000000000000e+00  1.0000005110418333e+00 -1.4116402356583645e-06 0.0000000000000000e+00  9.9999960125373555e-01 1.0991567642004290e-06 0.0000000000000000e+00  1.0000003093270535e+00 -8.5138379360176639e-07 0.0000000000000000e+00  9.9999976178141159e-01 6.5452309215670380e-07 0.0000000000000000e+00  1.0000001819337339e+00 -4.9883503700876354e-07 0.0000000000000000e+00  9.9999986146357212e-01 3.7811602629879567e-07 0.0000000000000000e+00  1.0000001047591061e+00 -2.8463067802769284e-07 0.0000000000000000e+00  9.9999992014555994e-01 2.1430144265074428e-07 0.0000000000000000e+00  1.0000000596551430e+00 -1.5881053424097876e-07 0.0000000000000000e+00  9.9999995376268691e-01 1.1844613754072609e-07 0.0000000000000000e+00  1.0000000332943393e+00 -8.3611982181563943e-08 0.0000000000000000e+00  9.9999997208154368e-01 6.1249075798962189e-08 0.0000000000000000e+00  1.0000000181459907e+00 -3.6594007244634678e-08 0.0000000000000000e+00  9.9999998018821068e-01 2.6499698099298647e-08 0.0000000000000000e+00  1.0000000092301060e+00 -5.2783635665111688e-09 0.0000000000000000e+00  9.9999998083514774e-01 0.0000000000000000e+00 0.0000000000000000e+00  2.9999942346903490e+00 0.0000000000000000e+00 5.5108658590818113e-05  2.9999935804315241e+00 8.0582173187809395e-06 -1.3469972096916746e-05  2.9999970654041106e+00 -2.1715551687275437e-05 -8.9187629514820685e-06  2.9999934244195279e+00 -1.1088953017974147e-05 -4.1762535490606357e-09  2.9999997430321845e+00 5.2511899479899967e-06 3.7548513353830596e-06  2.9999970372557052e+00 -1.4817203436908098e-05 -6.4241877364032824e-06  2.9999967152075429e+00 4.1675761003929925e-07 7.4206172541920256e-06  3.0000011487174554e+00 -1.3445757243498183e-06 -7.2284879538329969e-06  2.9999990987300293e+00 -7.5398735238950479e-07 6.2080465874958940e-06  2.9999957675842617e+00 -8.7871382383222877e-06 -4.3795465199750425e-06  3.0000048813674667e+00 1.0714089951823303e-05 2.4844113724881854e-06  2.9999972479203705e+00 -7.1811423521711685e-06 -1.0962185267320373e-06  2.9999970534276588e+00 -4.5759660911380603e-06 3.9794968570579461e-07  3.0000053581290609e+00 1.0931060261853419e-05 2.6231016734661752e-07  2.9999978620344496e+00 -6.9444721112361607e-06 -1.5732011723484220e-06  2.9999953213627792e+00 -5.6381878544875969e-06 3.4940394935788898e-06  3.0000080912720759e+00 1.2576482400014445e-05 -5.0081757249981532e-06  2.9999964792996452e+00 -6.3567318645752887e-06 5.1337533014192362e-06  2.9999951988399651e+00 -9.7750219411398793e-06 -3.9311252157867446e-06  3.0000093911163956e+00 1.7923933898198680e-05 2.7062607630151088e-06  2.9999963435373189e+00 -1.1253192341021852e-05 -2.5695400773631316e-06  2.9999949353307858e+00 -7.7533925334481576e-06 3.4409818065570987e-06  3.0000103671809155e+00 1.5279969722240655e-05 -3.8090657322463171e-06  2.9999971132238530e+00 -9.5411422805437181e-06 2.7874731004961240e-06  2.9999950390184651e+00 -1.0937661908516650e-05 -7.1575601969500462e-07  3.0000107503034026e+00 1.4533635773682984e-05 -5.1735163814952558e-07  2.9999985991427374e+00 -9.4966752732008142e-06 2.4991239274283735e-07  2.9999956292419840e+00 -1.1826326704755160e-05 9.9601200196987675e-07  3.0000098484489954e+00 1.1850050075002870e-05 -1.3146347659424632e-06  2.9999996103673974e+00 -7.8234797146902290e-06 3.3039554625478405e-07  2.9999965529551758e+00 -8.3356013194192835e-06 9.7307238446562506e-07  3.0000053336742196e+00 7.7338035261836857e-06 -1.3033565610936970e-06  3.0000000692357562e+00 5.8778734700449696e-07 2.0439225406512150e-07  2.9999942016291965e+00 -3.1403473725646560e-06 4.7072103660523783e-07  2.9999998317257064e+00 1.0614455779101298e-05 -7.5801205371113178e-07  2.9999954184082118e+00 7.9657704696946081e-06 -2.8509263839699355e-07  2.9999934897864970e+00 9.5478383888343226e-06 2.0613870219502277e-07  2.9999909196678503e+00 1.1105144937287218e-05 -1.7526635204945352e-07  2.9999935070340018e+00 1.6666544672871800e-05 -5.0028737122619394e-07  2.9999901200077574e+00 1.7423787043966026e-05 5.0370647093893254e-07  2.9999871113776129e+00 1.7249487895714563e-05 -2.5349281118724469e-07  2.9999827570286639e+00 2.8174379997217542e-05 1.0075016076038253e-06  2.9999774665966954e+00 5.1465432875303761e-05 -8.0419299604161808e-07  2.9999493572189322e+00 8.1188731144709713e-05 1.6259282290084288e-06  2.9999122604659987e+00 1.5660213246382505e-04 2.9011612440109665e-07  2.9998403939862239e+00 2.9878542946562564e-04 2.8728574426917473e-07  2.9997067864755005e+00 5.2740495535988569e-04 1.1216245948764276e-06  2.9994849789681362e+00 9.2460466049779663e-04 1.2047557593293203e-06  2.9991288309074435e+00 1.5871483126013517e-03 1.2564991143497582e-06  2.9985502677544797e+00 2.6199885464500148e-03 -8.7404149262567883e-08  2.9976605912844390e+00 4.2279451737250598e-03 5.2942722155565963e-06  2.9963256320415415e+00 6.6514928334034688e-03 -2.9345287629051114e-06  2.9943652718745253e+00 1.0193604008088920e-02 6.9495564859661969e-06  2.9915835988977313e+00 1.5225406796850147e-02 -3.8545554531492451e-06  2.9877344788383478e+00 2.2203263781917188e-02 7.3432561919526940e-06  2.9825627820585514e+00 3.1559561314674328e-02 -8.4471595081599311e-06  2.9758086113764763e+00 4.3823723146252290e-02 9.1568683970347656e-06  2.9672153455704464e+00 5.9413483550758768e-02 -1.3138132506552931e-05  2.9565652969663248e+00 7.8775214317288747e-02 7.6789414216626158e-06  2.9437035442530828e+00 1.0220922951905610e-01 -1.3435967188806666e-05  2.9284980554366764e+00 1.2996972561781753e-01 6.1378776609991533e-06  2.9109168966728824e+00 1.6212964236691904e-01 -1.3998429733584359e-05  2.8909874017576835e+00 1.9875054959934429e-01 8.1020206755278924e-06  2.8687606533557650e+00 2.3968097223982132e-01 -1.2977363138487609e-05  2.8443778427561739e+00 2.8478860687781155e-01 6.9914169774897957e-06  2.8179988937460090e+00 3.3380626566311256e-01 -7.5031305707299619e-06  2.7897838977085807e+00 3.8646922062079253e-01 5.0460202375013606e-06  2.7599447503001997e+00 4.4244988134331720e-01 -5.5872378285063301e-06  2.7286843046928690e+00 5.0144993057201992e-01 6.9155005045260797e-06  2.6961698662632672e+00 5.6312746470011643e-01 -5.3053405842792165e-06  2.6626185822781347e+00 6.2719468468440442e-01 5.7879961411549500e-06  2.6282006399283677e+00 6.9333211146471529e-01 -2.2534891830214676e-06  2.5930610308632454e+00 7.6128921900784430e-01 4.4868530249068496e-06  2.5573773021756274e+00 8.3078483365024003e-01 -3.0399486280761255e-06  2.5212786372768310e+00 9.0158784450390161e-01 6.4902734028237830e-06  2.4848772746587238e+00 9.7348556954992005e-01 -3.2854568209343182e-06  2.4483047736205665e+00 1.0462731897183242e+00 4.2272803396729720e-06  2.4116674554829975e+00 1.1197331803049526e+00 -2.4725491325010969e-07  2.3750310674508439e+00 1.1937415019211028e+00 2.8624652703226773e-06  2.3385231896102807e+00 1.2680998438101747e+00 -1.3021615924184946e-06  2.3022002566246700e+00 1.3426159823460200e+00 3.4096258988544488e-06  2.2661467315449206e+00 1.4171967809530532e+00