<?xml version="1.0"?>
<VTKFile type="UnstructuredGrid"  version="0.1"  >
<UnstructuredGrid>
<Piece  NumberOfPoints="8241" NumberOfCells="16000">
<Points>
<DataArray  type="Float64"  NumberOfComponents="3"  format="ascii">-5 -1 0  -4.95 -1 0  -4.9 -1 0  -4.85 -1 0  -4.8 -1 0  -4.75 -1 0  -4.7 -1 0  -4.65 -1 0  -4.6 -1 0  -4.55 -1 0  -4.5 -1 0  -4.45 -1 0  -4.4 -1 0  -4.35 -1 0  -4.3 -1 0  -4.25 -1 0  -4.2 -1 0  -4.15 -1 0  -4.1 -1 0  -4.05 -1 0  -4 -1 0  -3.95 -1 0  -3.9 -1 0  -3.85 -1 0  -3.8 -1 0  -3.75 -1 0  -3.7 -1 0  -3.65 -1 0  -3.6 -1 0  -3.55 -1 0  -3.5 -1 0  -3.45 -1 0  -3.4 -1 0  -3.35 -1 0  -3.3 -1 0  -3.25 -1 0  -3.2 -1 0  -3.15 -1 0  -3.1 -1 0  -3.05 -1 0  -3 -1 0  -2.95 -1 0  -2.9 -1 0  -2.85 -1 0  -2.8 -1 0  -2.75 -1 0  -2.7 -1 0  -2.65 -1 0  -2.6 -1 0  -2.55 -1 0  -2.5 -1 0  -2.45 -1 0  -2.4 -1 0  -2.35 -1 0  -2.3 -1 0  -2.25 -1 0  -2.2 -1 0  -2.15 -1 0  -2.1 -1 0  -2.05 -1 0  -2 -1 0  -1.95 -1 0  -1.9 -1 0  -1.85 -1 0  -1.8 -1 0  -1.75 -1 0  -1.7 -1 0  -1.65 -1 0  -1.6 -1 0  -1.55 -1 0  -1.5 -1 0  -1.45 -1 0  -1.4 -1 0  -1.35 -1 0  -1.3 -1 0  -1.25 -1 0  -1.2 -1 0  -1.15 -1 0  -1.1 -1 0  -1.05 -1 0  -1 -1 0  -0.9500000000000002 -1 0  -0.9000000000000004 -1 0  -0.8499999999999996 -1 0  -0.7999999999999998 -1 0  -0.75 -1 0  -0.7000000000000002 -1 0  -0.6500000000000004 -1 0  -0.5999999999999996 -1 0  -0.5499999999999998 -1 0  -0.5 -1 0  -0.4500000000000002 -1 0  -0.4000000000000004 -1 0  -0.3499999999999996 -1 0  -0.2999999999999998 -1 0  -0.25 -1 0  -0.2000000000000002 -1 0  -0.1500000000000004 -1 0  -0.09999999999999964 -1 0  -0.04999999999999982 -1 0  0 -1 0  0.04999999999999982 -1 0  0.09999999999999964 -1 0  0.1500000000000004 -1 0  0.2000000000000002 -1 0  0.25 -1 0  0.2999999999999998 -1 0  0.3499999999999996 -1 0  0.4000000000000004 -1 0  0.4500000000000002 -1 0  0.5 -1 0  0.5499999999999998 -1 0  0.5999999999999996 -1 0  0.6500000000000004 -1 0  0.7000000000000002 -1 0  0.75 -1 0  0.7999999999999998 -1 0  0.8499999999999996 -1 0  0.9000000000000004 -1 0  0.9500000000000002 -1 0  1 -1 0  1.05 -1 0  1.1 -1 0  1.15 -1 0  1.2 -1 0  1.25 -1 0  1.3 -1 0  1.35 -1 0  1.4 -1 0  1.45 -1 0  1.5 -1 0  1.55 -1 0  1.6 -1 0  1.65 -1 0  1.7 -1 0  1.75 -1 0  1.8 -1 0  1.85 -1 0  1.9 -1 0  1.95 -1 0  2 -1 0  2.05 -1 0  2.1 -1 0  2.15 -1 0  2.2 -1 0  2.25 -1 0  2.3 -1 0  2.35 -1 0  2.4 -1 0  2.45 -1 0  2.5 -1 0  2.55 -1 0  2.6 -1 0  2.65 -1 0  2.7 -1 0  2.75 -1 0  2.8 -1 0  2.85 -1 0  2.9 -1 0  2.95 -1 0  3 -1 0  3.050000000000001 -1 0  3.1 -1 0  3.15 -1 0  3.199999999999999 -1 0  3.25 -1 0  3.300000000000001 -1 0  3.35 -1 0  3.4 -1 0  3.449999999999999 -1 0  3.5 -1 0  3.550000000000001 -1 0  3.6 -1 0  3.65 -1 0  3.699999999999999 -1 0  3.75 -1 0  3.800000000000001 -1 0  3.85 -1 0  3.9 -1 0  3.949999999999999 -1 0  4 -1 0  4.050000000000001 -1 0  4.1 -1 0  4.15 -1 0  4.199999999999999 -1 0  4.25 -1 0  4.300000000000001 -1 0  4.35 -1 0  4.4 -1 0  4.449999999999999 -1 0  4.5 -1 0  4.550000000000001 -1 0  4.6 -1 0  4.65 -1 0  4.699999999999999 -1 0  4.75 -1 0  4.800000000000001 -1 0  4.85 -1 0  4.9 -1 0  4.949999999999999 -1 0  5 -1 0  -5 -0.95 0  -4.95 -0.95 0  -4.9 -0.95 0  -4.85 -0.95 0  -4.8 -0.95 0  -4.75 -0.95 0  -4.7 -0.95 0  -4.65 -0.95 0  -4.6 -0.95 0  -4.55 -0.95 0  -4.5 -0.95 0  -4.45 -0.95 0  -4.4 -0.95 0  -4.35 -0.95 0  -4.3 -0.95 0  -4.25 -0.95 0  -4.2 -0.95 0  -4.15 -0.95 0  -4.1 -0.95 0  -4.05 -0.95 0  -4 -0.95 0  -3.95 -0.95 0  -3.9 -0.95 0  -3.85 -0.95 0  -3.8 -0.95 0  -3.75 -0.95 0  -3.7 -0.95 0  -3.65 -0.95 0  -3.6 -0.95 0  -3.55 -0.95 0  -3.5 -0.95 0  -3.45 -0.95 0  -3.4 -0.95 0  -3.35 -0.95 0  -3.3 -0.95 0  -3.25 -0.95 0  -3.2 -0.95 0  -3.15 -0.95 0  -3.1 -0.95 0  -3.05 -0.95 0  -3 -0.95 0  -2.95 -0.95 0  -2.9 -0.95 0  -2.85 -0.95 0  -2.8 -0.95 0  -2.75 -0.95 0  -2.7 -0.95 0  -2.65 -0.95 0  -2.6 -0.95 0  -2.55 -0.95 0  -2.5 -0.95 0  -2.45 -0.95 0  -2.4 -0.95 0  -2.35 -0.95 0  -2.3 -0.95 0  -2.25 -0.95 0  -2.2 -0.95 0  -2.15 -0.95 0  -2.1 -0.95 0  -2.05 -0.95 0  -2 -0.95 0  -1.95 -0.95 0  -1.9 -0.95 0  -1.85 -0.95 0  -1.8 -0.95 0  -1.75 -0.95 0  -1.7 -0.95 0  -1.65 -0.95 0  -1.6 -0.95 0  -1.55 -0.95 0  -1.5 -0.95 0  -1.45 -0.95 0  -1.4 -0.95 0  -1.35 -0.95 0  -1.3 -0.95 0  -1.25 -0.95 0  -1.2 -0.95 0  -1.15 -0.95 0  -1.1 -0.95 0  -1.05 -0.95 0  -1 -0.95 0  -0.9500000000000002 -0.95 0  -0.9000000000000004 -0.95 0  -0.8499999999999996 -0.95 0  -0.7999999999999998 -0.95 0  -0.75 -0.95 0  -0.7000000000000002 -0.95 0  -0.6500000000000004 -0.95 0  -0.5999999999999996 -0.95 0  -0.5499999999999998 -0.95 0  -0.5 -0.95 0  -0.4500000000000002 -0.95 0  -0.4000000000000004 -0.95 0  -0.3499999999999996 -0.95 0  -0.2999999999999998 -0.95 0  -0.25 -0.95 0  -0.2000000000000002 -0.95 0  -0.1500000000000004 -0.95 0  -0.09999999999999964 -0.95 0  -0.04999999999999982 -0.95 0  0 -0.95 0  0.04999999999999982 -0.95 0  0.09999999999999964 -0.95 0  0.1500000000000004 -0.95 0  0.2000000000000002 -0.95 0  0.25 -0.95 0  0.2999999999999998 -0.95 0  0.3499999999999996 -0.95 0  0.4000000000000004 -0.95 0  0.4500000000000002 -0.95 0  0.5 -0.95 0  0.5499999999999998 -0.95 0  0.5999999999999996 -0.95 0  0.6500000000000004 -0.95 0  0.7000000000000002 -0.95 0  0.75 -0.95 0  0.7999999999999998 -0.95 0  0.8499999999999996 -0.95 0  0.9000000000000004 -0.95 0  0.9500000000000002 -0.95 0  1 -0.95 0  1.05 -0.95 0  1.1 -0.95 0  1.15 -0.95 0  1.2 -0.95 0  1.25 -0.95 0  1.3 -0.95 0  1.35 -0.95 0  1.4 -0.95 0  1.45 -0.95 0  1.5 -0.95 0  1.55 -0.95 0  1.6 -0.95 0  1.65 -0.95 0  1.7 -0.95 0  1.75 -0.95 0  1.8 -0.95 0  1.85 -0.95 0  1.9 -0.95 0  1.95 -0.95 0  2 -0.95 0  2.05 -0.95 0  2.1 -0.95 0  2.15 -0.95 0  2.2 -0.95 0  2.25 -0.95 0  2.3 -0.95 0  2.35 -0.95 0  2.4 -0.95 0  2.45 -0.95 0  2.5 -0.95 0  2.55 -0.95 0  2.6 -0.95 0  2.65 -0.95 0  2.7 -0.95 0  2.75 -0.95 0  2.8 -0.95 0  2.85 -0.95 0  2.9 -0.95 0  2.95 -0.95 0  3 -0.95 0  3.050000000000001 -0.95 0  3.1 -0.95 0  3.15 -0.95 0  3.199999999999999 -0.95 0  3.25 -0.95 0  3.300000000000001 -0.95 0  3.35 -0.95 0  3.4 -0.95 0  3.449999999999999 -0.95 0  3.5 -0.95 0  3.550000000000001 -0.95 0  3.6 -0.95 0  3.65 -0.95 0  3.699999999999999 -0.95 0  3.75 -0.95 0  3.800000000000001 -0.95 0  3.85 -0.95 0  3.9 -0.95 0  3.949999999999999 -0.95 0  4 -0.95 0  4.050000000000001 -0.95 0  4.1 -0.95 0  4.15 -0.95 0  4.199999999999999 -0.95 0  4.25 -0.95 0  4.300000000000001 -0.95 0  4.35 -0.95 0  4.4 -0.95 0  4.449999999999999 -0.95 0  4.5 -0.95 0  4.550000000000001 -0.95 0  4.6 -0.95 0  4.65 -0.95 0  4.699999999999999 -0.95 0  4.75 -0.95 0  4.800000000000001 -0.95 0  4.85 -0.95 0  4.9 -0.95 0  4.949999999999999 -0.95 0  5 -0.95 0  -5 -0.9 0  -4.95 -0.9 0  -4.9 -0.9 0  -4.85 -0.9 0  -4.8 -0.9 0  -4.75 -0.9 0  -4.7 -0.9 0  -4.65 -0.9 0  -4.6 -0.9 0  -4.55 -0.9 0  -4.5 -0.9 0  -4.45 -0.9 0  -4.4 -0.9 0  -4.35 -0.9 0  -4.3 -0.9 0  -4.25 -0.9 0  -4.2 -0.9 0  -4.15 -0.9 0  -4.1 -0.9 0  -4.05 -0.9 0  -4 -0.9 0  -3.95 -0.9 0  -3.9 -0.9 0  -3.85 -0.9 0  -3.8 -0.9 0  -3.75 -0.9 0  -3.7 -0.9 0  -3.65 -0.9 0  -3.6 -0.9 0  -3.55 -0.9 0  -3.5 -0.9 0  -3.45 -0.9 0  -3.4 -0.9 0  -3.35 -0.9 0  -3.3 -0.9 0  -3.25 -0.9 0  -3.2 -0.9 0  -3.15 -0.9 0  -3.1 -0.9 0  -3.05 -0.9 0  -3 -0.9 0  -2.95 -0.9 0  -2.9 -0.9 0  -2.85 -0.9 0  -2.8 -0.9 0  -2.75 -0.9 0  -2.7 -0.9 0  -2.65 -0.9 0  -2.6 -0.9 0  -2.55 -0.9 0  -2.5 -0.9 0  -2.45 -0.9 0  -2.4 -0.9 0  -2.35 -0.9 0  -2.3 -0.9 0  -2.25 -0.9 0  -2.2 -0.9 0  -2.15 -0.9 0  -2.1 -0.9 0  -2.05 -0.9 0  -2 -0.9 0  -1.95 -0.9 0  -1.9 -0.9 0  -1.85 -0.9 0  -1.8 -0.9 0  -1.75 -0.9 0  -1.7 -0.9 0  -1.65 -0.9 0  -1.6 -0.9 0  -1.55 -0.9 0  -1.5 -0.9 0  -1.45 -0.9 0  -1.4 -0.9 0  -1.35 -0.9 0  -1.3 -0.9 0  -1.25 -0.9 0  -1.2 -0.9 0  -1.15 -0.9 0  -1.1 -0.9 0  -1.05 -0.9 0  -1 -0.9 0  -0.9500000000000002 -0.9 0  -0.9000000000000004 -0.9 0  -0.8499999999999996 -0.9 0  -0.7999999999999998 -0.9 0  -0.75 -0.9 0  -0.7000000000000002 -0.9 0  -0.6500000000000004 -0.9 0  -0.5999999999999996 -0.9 0  -0.5499999999999998 -0.9 0  -0.5 -0.9 0  -0.4500000000000002 -0.9 0  -0.4000000000000004 -0.9 0  -0.3499999999999996 -0.9 0  -0.2999999999999998 -0.9 0  -0.25 -0.9 0  -0.2000000000000002 -0.9 0  -0.1500000000000004 -0.9 0  -0.09999999999999964 -0.9 0  -0.04999999999999982 -0.9 0  0 -0.9 0  0.04999999999999982 -0.9 0  0.09999999999999964 -0.9 0  0.1500000000000004 -0.9 0  0.2000000000000002 -0.9 0  0.25 -0.9 0  0.2999999999999998 -0.9 0  0.3499999999999996 -0.9 0  0.4000000000000004 -0.9 0  0.4500000000000002 -0.9 0  0.5 -0.9 0  0.5499999999999998 -0.9 0  0.5999999999999996 -0.9 0  0.6500000000000004 -0.9 0  0.7000000000000002 -0.9 0  0.75 -0.9 0  0.7999999999999998 -0.9 0  0.8499999999999996 -0.9 0  0.9000000000000004 -0.9 0  0.9500000000000002 -0.9 0  1 -0.9 0  1.05 -0.9 0  1.1 -0.9 0  1.15 -0.9 0  1.2 -0.9 0  1.25 -0.9 0  1.3 -0.9 0  1.35 -0.9 0  1.4 -0.9 0  1.45 -0.9 0  1.5 -0.9 0  1.55 -0.9 0  1.6 -0.9 0  1.65 -0.9 0  1.7 -0.9 0  1.75 -0.9 0  1.8 -0.9 0  1.85 -0.9 0  1.9 -0.9 0  1.95 -0.9 0  2 -0.9 0  2.05 -0.9 0  2.1 -0.9 0  2.15 -0.9 0  2.2 -0.9 0  2.25 -0.9 0  2.3 -0.9 0  2.35 -0.9 0  2.4 -0.9 0  2.45 -0.9 0  2.5 -0.9 0  2.55 -0.9 0  2.6 -0.9 0  2.65 -0.9 0  2.7 -0.9 0  2.75 -0.9 0  2.8 -0.9 0  2.85 -0.9 0  2.9 -0.9 0  2.95 -0.9 0  3 -0.9 0  3.050000000000001 -0.9 0  3.1 -0.9 0  3.15 -0.9 0  3.199999999999999 -0.9 0  3.25 -0.9 0  3.300000000000001 -0.9 0  3.35 -0.9 0  3.4 -0.9 0  3.449999999999999 -0.9 0  3.5 -0.9 0  3.550000000000001 -0.9 0  3.6 -0.9 0  3.65 -0.9 0  3.699999999999999 -0.9 0  3.75 -0.9 0  3.800000000000001 -0.9 0  3.85 -0.9 0  3.9 -0.9 0  3.949999999999999 -0.9 0  4 -0.9 0  4.050000000000001 -0.9 0  4.1 -0.9 0  4.15 -0.9 0  4.199999999999999 -0.9 0  4.25 -0.9 0  4.300000000000001 -0.9 0  4.35 -0.9 0  4.4 -0.9 0  4.449999999999999 -0.9 0  4.5 -0.9 0  4.550000000000001 -0.9 0  4.6 -0.9 0  4.65 -0.9 0  4.699999999999999 -0.9 0  4.75 -0.9 0  4.800000000000001 -0.9 0  4.85 -0.9 0  4.9 -0.9 0  4.949999999999999 -0.9 0  5 -0.9 0  -5 -0.85 0  -4.95 -0.85 0  -4.9 -0.85 0  -4.85 -0.85 0  -4.8 -0.85 0  -4.75 -0.85 0  -4.7 -0.85 0  -4.65 -0.85 0  -4.6 -0.85 0  -4.55 -0.85 0  -4.5 -0.85 0  -
[...]
<PointData  Vectors="f_15"> 
<DataArray  type="Float64"  Name="f_15"  NumberOfComponents="3" format="ascii">9.0501308312252835e+00 0.0000000000000000e+00 0.0000000000000000e+00  9.0478882925637514e+00 7.3135385695190874e-02 0.0000000000000000e+00  9.0449174101219221e+00 1.4691082902065797e-01 0.0000000000000000e+00  9.0370734029135367e+00 2.1879532844857444e-01 0.0000000000000000e+00  9.0289136550251285e+00 2.9155588130965782e-01 0.0000000000000000e+00  9.0158493909880217e+00 3.6340616311444346e-01 0.0000000000000000e+00  9.0022338523254923e+00 4.3505161173116230e-01 0.0000000000000000e+00  8.9841881953554559e+00 5.0621509868260950e-01 0.0000000000000000e+00  8.9654831596695921e+00 5.7699489962630346e-01 0.0000000000000000e+00  8.9422867423451002e+00 6.4692713513895861e-01 0.0000000000000000e+00  8.9188937633961576e+00 7.1680011819605594e-01 0.0000000000000000e+00  8.8909078866718882e+00 7.8532378045611706e-01 0.0000000000000000e+00  8.8628379142310649e+00 8.5418064128154647e-01 0.0000000000000000e+00  8.8304770742531797e+00 9.2109865572659788e-01 0.0000000000000000e+00  8.7982539672803561e+00 9.8917741700914630e-01 0.0000000000000000e+00  8.7615239907686977e+00 1.0541022561841435e+00 0.0000000000000000e+00  8.7257480735945592e+00 1.1217869726750116e+00 0.0000000000000000e+00  8.6851259175228002e+00 1.1845949639661675e+00 0.0000000000000000e+00  8.6459734383139963e+00 1.2520293281661936e+00 0.0000000000000000e+00  8.6020239089351396e+00 1.3127770841219899e+00 0.0000000000000000e+00  8.5600784675014001e+00 1.3804142198857854e+00 0.0000000000000000e+00  8.5129415375841386e+00 1.4386410313533875e+00 0.0000000000000000e+00  8.4688506903916849e+00 1.5074732460803759e+00 0.0000000000000000e+00  8.4190422279081893e+00 1.5627247218338467e+00 0.0000000000000000e+00  8.3729698841578450e+00 1.6330545971718493e+00 0.0000000000000000e+00  8.3211358682326289e+00 1.6862778516503536e+00 0.0000000000000000e+00  8.2734618172866696e+00 1.7565717533842973e+00 0.0000000000000000e+00  8.2198783367382742e+00 1.8105383897825968e+00 0.0000000000000000e+00  8.1710072540439480e+00 1.8781654648126038e+00 0.0000000000000000e+00  8.1161697359526439e+00 1.9347806693547593e+00 0.0000000000000000e+00  8.0661613499858458e+00 2.0010217525927336e+00 0.0000000000000000e+00  8.0105200091323532e+00 2.0553077564798787e+00 0.0000000000000000e+00  7.9597103120384078e+00 2.1283579391291330e+00 0.0000000000000000e+00  7.9033205713483810e+00 2.1735716335434447e+00 0.0000000000000000e+00  7.8520324818410927e+00 2.2533313196557159e+00 0.0000000000000000e+00  7.7952318400713985e+00 2.3006909873213854e+00 0.0000000000000000e+00  7.7433595413308982e+00 2.3672077397316165e+00 0.0000000000000000e+00  7.6865298577204877e+00 2.4370589433002023e+00 0.0000000000000000e+00  7.6342444655802240e+00 2.4806938187704408e+00 0.0000000000000000e+00  7.5772248038246159e+00 2.5662725397423354e+00 0.0000000000000000e+00  7.5250559238378152e+00 2.6066871474560989e+00 0.0000000000000000e+00  7.4676399102878879e+00 2.6865451356812642e+00 0.0000000000000000e+00  7.4157357053156687e+00 2.7368512497567421e+00 0.0000000000000000e+00  7.3582731439925881e+00 2.8088587637790852e+00 0.0000000000000000e+00  7.3061774735122285e+00 2.8650870730744944e+00 0.0000000000000000e+00  7.2493171031556507e+00 2.9335180654849755e+00 0.0000000000000000e+00  7.1966947426602967e+00 2.9926882387853855e+00 0.0000000000000000e+00  7.1405140093142023e+00 3.0605822335219046e+00 0.0000000000000000e+00  7.0877286603589038e+00 3.1196114970321198e+00 0.0000000000000000e+00  7.0318425573170842e+00 3.1878503571824544e+00 0.0000000000000000e+00  6.9791636902075416e+00 3.2486489642811622e+00 0.0000000000000000e+00  6.9237119340766711e+00 3.3151509624341666e+00 0.0000000000000000e+00  6.8708587158025978e+00 3.3773509621794426e+00 0.0000000000000000e+00  6.8160700069986806e+00 3.4439999243587334e+00 0.0000000000000000e+00  6.7631289750979109e+00 3.5065766448246407e+00 0.0000000000000000e+00  6.7088666187188917e+00 3.5730554105821049e+00 0.0000000000000000e+00  6.6558263324257014e+00 3.6363853905751613e+00 0.0000000000000000e+00  6.6023012357000752e+00 3.7024146941343434e+00 0.0000000000000000e+00  6.5491804945406669e+00 3.7669831026988079e+00 0.0000000000000000e+00  6.4959805115108820e+00 3.8325323548406889e+00 0.0000000000000000e+00  6.4433193489046463e+00 3.8971700424325317e+00 0.0000000000000000e+00  6.3904206400186627e+00 3.9631928570494104e+00 0.0000000000000000e+00  6.3376192404374816e+00 4.0286219559587204e+00 0.0000000000000000e+00  6.2856881295573377e+00 4.0935871286464405e+00 0.0000000000000000e+00  6.2328699875716698e+00 4.1599713612619347e+00 0.0000000000000000e+00  6.1808991200160559e+00 4.2252686767768637e+00 0.0000000000000000e+00  6.1291510795128321e+00 4.2910843394753462e+00 0.0000000000000000e+00  6.0770580947644985e+00 4.3570211580501290e+00 0.0000000000000000e+00  6.0253691925372239e+00 4.4232872489450035e+00 0.0000000000000000e+00  5.9742308597098770e+00 4.4884323465237852e+00 0.0000000000000000e+00  5.9226949622784950e+00 4.5553317798238497e+00 0.0000000000000000e+00  5.8712134002191849e+00 4.6212735428573186e+00 0.0000000000000000e+00  5.8211771944697368e+00 4.6867730207837335e+00 0.0000000000000000e+00  5.7692232450732650e+00 4.7540319775485731e+00 0.0000000000000000e+00  5.7196129086986769e+00 4.8194936141467446e+00 0.0000000000000000e+00  5.6683486508215362e+00 4.8861789418232124e+00 0.0000000000000000e+00  5.6190682854776544e+00 4.9520190715715886e+00 0.0000000000000000e+00  5.5675997912526167e+00 5.0195939740940378e+00 0.0000000000000000e+00  5.5195893070875623e+00 5.0840513019238633e+00 0.0000000000000000e+00  5.4678631817202028e+00 5.1527408164719457e+00 0.0000000000000000e+00  5.4203397832584930e+00 5.2169457595597812e+00 0.0000000000000000e+00  5.3692962491824980e+00 5.2856185027825555e+00 0.0000000000000000e+00  5.3217399529922567e+00 5.3501307125129962e+00 0.0000000000000000e+00  5.2714051213656026e+00 5.4185263343406467e+00 0.0000000000000000e+00  5.2239455163417778e+00 5.4836781904247980e+00 0.0000000000000000e+00  5.1744285098030582e+00 5.5515551067609925e+00 0.0000000000000000e+00  5.1267592499166126e+00 5.6171168200794055e+00 0.0000000000000000e+00  5.0786768852491413e+00 5.6843289326268600e+00 0.0000000000000000e+00  5.0301913738567414e+00 5.7512822952335458e+00 0.0000000000000000e+00  4.9840139069056244e+00 5.8163449279600057e+00 0.0000000000000000e+00  4.9342163596743704e+00 5.8858147129035627e+00 0.0000000000000000e+00  4.8900250511724659e+00 5.9492203851964272e+00 0.0000000000000000e+00  4.8389654992670348e+00 6.0202544280149661e+00 0.0000000000000000e+00  4.7978887361341327e+00 6.0803881269971045e+00 0.0000000000000000e+00  4.7437700066075505e+00 6.1564273698695153e+00 0.0000000000000000e+00  4.7062904120654139e+00 6.2120410528052759e+00 0.0000000000000000e+00  4.6497397963267950e+00 6.2919957814852969e+00 0.0000000000000000e+00  4.6124739753685358e+00 6.3479574633735583e+00 0.0000000000000000e+00  4.5618034100485811e+00 6.4205769947267930e+00 0.0000000000000000e+00  4.5209627136521764e+00 6.4817062648874693e+00 0.0000000000000000e+00  4.4717194054835883e+00 6.5533524854106515e+00 0.0000000000000000e+00  4.4359688092101672e+00 6.6078518476511565e+00 0.0000000000000000e+00  4.3784835117938927e+00 6.6914940284275781e+00 0.0000000000000000e+00  4.3414204834307588e+00 6.7487431248048564e+00 0.0000000000000000e+00  4.2920806854028344e+00 6.8220095165831323e+00 0.0000000000000000e+00  4.2524570367597381e+00 6.8831054511478333e+00 0.0000000000000000e+00  4.2040141791745924e+00 6.9550100317211196e+00 0.0000000000000000e+00  4.1641611355308870e+00 7.0177968612202068e+00 0.0000000000000000e+00  4.1199474873346258e+00 7.0844913402456626e+00 0.0000000000000000e+00  4.0818740598118932e+00 7.1441591983413364e+00 0.0000000000000000e+00  4.0385142528825693e+00 7.2113049784889354e+00 0.0000000000000000e+00  3.9980164237587270e+00 7.2751982808723978e+00 0.0000000000000000e+00  3.9549851538854415e+00 7.3407222513967243e+00 0.0000000000000000e+00  3.9161344029424088e+00 7.4031469981455631e+00 0.0000000000000000e+00  3.8802592015512962e+00 7.4611247815187989e+00 0.0000000000000000e+00  3.8471281857987001e+00 7.5127541741318300e+00 0.0000000000000000e+00  3.8046735367218409e+00 7.5806583749125300e+00 0.0000000000000000e+00  3.7990818883738875e+00 7.5903036214619668e+00 0.0000000000000000e+00  3.8541487265708883e+00 7.5018778733035330e+00 0.0000000000000000e+00  3.9058517111941948e+00 7.4189600981206780e+00 0.0000000000000000e+00  3.9293917868154642e+00 7.3822816538278575e+00 0.0000000000000000e+00  3.9371198252230868e+00 7.3694000242770121e+00 0.0000000000000000e+00  3.9418051858308676e+00 7.3622719201619304e+00 0.0000000000000000e+00  3.9449085788003910e+00 7.3565942716240968e+00 0.0000000000000000e+00  3.9473391990080708e+00 7.3530574324567883e+00 0.0000000000000000e+00  3.9488832336948891e+00 7.3499630232855857e+00 0.0000000000000000e+00  3.9501427879178372e+00 7.3482184632739731e+00 0.0000000000000000e+00  3.9522206973306577e+00 7.3447781607286613e+00 0.0000000000000000e+00  3.9538085755509744e+00 7.3426892313494516e+00 0.0000000000000000e+00  3.9561424137263530e+00 7.3392567699193858e+00 0.0000000000000000e+00  3.9565503187117477e+00 7.3386191322252809e+00 0.0000000000000000e+00  3.9578938418378833e+00 7.3366208482141220e+00 0.0000000000000000e+00  3.9572358806572390e+00 7.3371649457929644e+00 0.0000000000000000e+00  3.9584297450674351e+00 7.3354851912145378e+00 0.0000000000000000e+00  3.9577539792141008e+00 7.3360046650276729e+00 0.0000000000000000e+00  3.9590798957408366e+00 7.3342721686139143e+00 0.0000000000000000e+00  3.9584298901571127e+00 7.3348336802519416e+00 0.0000000000000000e+00  3.9595290994619439e+00 7.3333277583938097e+00 0.0000000000000000e+00  3.9589195235812924e+00 7.3340282169931807e+00 0.0000000000000000e+00  3.9597014652499167e+00 7.3326540451296038e+00 0.0000000000000000e+00  3.9593362400854586e+00 7.3334487783849625e+00 0.0000000000000000e+00  3.9597614431791235e+00 7.3320227833309648e+00 0.0000000000000000e+00  3.9597523271842960e+00 7.3330462224786164e+00 0.0000000000000000e+00  3.9597059344529955e+00 7.3313999504556691e+00 0.0000000000000000e+00  3.9601394679292707e+00 7.3328743071127143e+00 0.0000000000000000e+00  3.9595122599854213e+00 7.3307508822373659e+00 0.0000000000000000e+00  3.9605237943943123e+00 7.3329373939865521e+00 0.0000000000000000e+00  3.9591943516767274e+00 7.3299947504300027e+00 0.0000000000000000e+00  3.9609590508160943e+00 7.3332383356598374e+00 0.0000000000000000e+00  3.9587377433943391e+00 7.3290651703375671e+00 0.0000000000000000e+00  3.9614940300156603e+00 7.3338200069051576e+00 0.0000000000000000e+00  3.9580966314883819e+00 7.3278811853938839e+00 0.0000000000000000e+00  3.9621899506571965e+00 7.3347573471363576e+00 0.0000000000000000e+00  3.9572143510293643e+00 7.3263295452997497e+00 0.0000000000000000e+00  3.9631205664667282e+00 7.3361368420696076e+00 0.0000000000000000e+00  3.9560205426854331e+00 7.3242750300704298e+00 0.0000000000000000e+00  3.9643794200764040e+00 7.3380728259516879e+00 0.0000000000000000e+00  3.9544067851595992e+00 7.3215017592915386e+00 0.0000000000000000e+00  3.9661047253963524e+00 7.3407425604020444e+00 0.0000000000000000e+00  3.9522325106948482e+00 7.3177130839812170e+00 0.0000000000000000e+00  3.9684306545662080e+00 7.3442777780730983e+00 0.0000000000000000e+00  3.9493910884700809e+00 7.3126509085690596e+00 0.0000000000000000e+00  3.9714657978559722e+00 7.3487356342858412e+00 0.0000000000000000e+00  3.9457211119426696e+00 7.3059012023318495e+00 0.0000000000000000e+00  3.9754658287814939e+00 7.3544221941496648e+00 0.0000000000000000e+00  3.9409165577146097e+00 7.2967695141474813e+00 0.0000000000000000e+00  3.9806567812280047e+00 7.3615317941861420e+00 0.0000000000000000e+00  3.9349765574226714e+00 7.2851759315456333e+00 0.0000000000000000e+00  3.9868453572045266e+00 7.3695556429760591e+00 0.0000000000000000e+00  3.9280329606136415e+00 7.2712158559884399e+00 0.0000000000000000e+00  3.9942945628554876e+00 7.3790798259718828e+00 0.0000000000000000e+00  3.9194239882603585e+00 7.2535705375614707e+00 0.0000000000000000e+00  4.0034920909396901e+00 7.3910259650276950e+00 0.0000000000000000e+00  3.9096864909832210e+00 7.2336334407911282e+00 0.0000000000000000e+00  4.0125566793924623e+00 7.4019586710398899e+00 0.0000000000000000e+00  3.9011137236356110e+00 7.2156272659052210e+00 0.0000000000000000e+00  4.0205662759350922e+00 7.4113863955846320e+00 0.0000000000000000e+00  3.8923542511119891e+00 7.1960944537817495e+00 0.0000000000000000e+00  4.0295364173856250e+00 7.4237445945627050e+00 0.0000000000000000e+00  3.8843967408443429e+00 7.1783330289368594e+00 0.0000000000000000e+00  4.0326625118703134e+00 7.4249597398112295e+00 0.0000000000000000e+00  3.8879512342456426e+00 7.1829530606907817e+00 0.0000000000000000e+00  4.0220331586669991e+00 7.4041075318845353e+00 0.0000000000000000e+00  3.9020681599280556e+00 7.2009656701612057e+00 0.0000000000000000e+00  4.0063459943581075e+00 7.3823081959226959e+00 0.0000000000000000e+00  3.9204757414321860e+00 7.2245041166990100e+00 0.0000000000000000e+00  3.9764017531588056e+00 7.3298264725899269e+00 0.0000000000000000e+00  3.9709752656253774e+00 7.3164806650620804e+00 0.0000000000000000e+00  3.8989202697555063e+00 7.1891598592326762e+00 0.0000000000000000e+00  4.0701393085558477e+00 7.4745782105403453e+00 0.0000000000000000e+00  3.7925568216365262e+00 7.0266819105354772e+00 0.0000000000000000e+00  4.1638252626887633e+00 7.6045248032828772e+00 0.0000000000000000e+00  3.7180224547088172e+00 6.8862629010941747e+00 0.0000000000000000e+00  4.2264506368647359e+00 7.7770203204445947e+00 0.0000000000000000e+00  3.6450682933997305e+00 6.5579044765905961e+00 0.0000000000000000e+00  4.2864049205567278e+00 8.2310496128248829e+00 0.0000000000000000e+00  3.7189120457130245e+00 5.7978026931197997e+00 0.0000000000000000e+00  3.8631585906481649e+00 9.0078850404448207e+00 0.0000000000000000e+00  7.3078381583639871e+00 1.0845126588481637e+00 0.0000000000000000e+00  9.1141097492201819e+00 8.1587700252013307e-01 0.0000000000000000e+00  8.8041251078305862e+00 0.0000000000000000e+00 0.0000000000000000e+00  9.0487045714750387e+00 0.0000000000000000e+00 2.4564726710589028e-03  9.0475439057080091e+00 7.1612717077426807e-02 -1.5454224702632522e-03  9.0432129618384973e+00 1.4495697358959239e-01 1.0484662488640596e-03  9.0367383919837501e+00 2.1644290801437571e-01 -1.3271148252788317e-03  9.0271879871216338e+00 2.9020513560160555e-01 1.4245718615465200e-03  9.0152155067343518e+00 3.6067682796924899e-01 -1.4986545826112683e-03  9.0005786025984147e+00 4.3387300511272214e-01 1.5527865074726407e-03  8.9834816859512703e+00 5.0360490075025943e-01 -1.5514501327356018e-03  8.9635703185637166e+00 5.7575020340734184e-01 1.5887384119647704e-03  8.9416902485755259e+00 6.4451960916305739e-01 -1.5902055822665496e-03  8.9168810065512538e+00 7.1555802084428499e-01 1.6234397059972979e-03  8.8901606711560675e+00 7.8310686003600671e-01 -1.6243851060728052e-03  8.8608812742059513e+00 8.5292529401043427e-01 1.6586407704165911e-03  8.8297793789795893e+00 9.1927516949107357e-01 -1.6704415342770715e-03  8.7960610140293678e+00 9.8768848160654166e-01 1.7158769499247811e-03  8.7610999928435778e+00 1.0529093804587653e+00 -1.7330325753048337e-03  8.7234658983927584e+00 1.1200131149077777e+00 1.7578873177118560e-03  8.6847471860342242e+00 1.1840067869167841e+00 -1.7472971373013934e-03  8.6438044567599324e+00 1.2500162936968626e+00 1.7276673992009598e-03  8.6018634446957076e+00 1.3129986625700685e+00 -1.6939671854841688e-03  8.5577915494350538e+00 1.3777518495180274e+00 1.6501442397303979e-03  8.5132332635167369e+00 1.4402604676633100e+00 -1.5845563301573355e-03  8.4666102359747022e+00 1.5037801778005755e+00 1.4325362102639461e-03  8.4195543182369192e+00 1.5658368139778294e+00 -1.1612634222400782e-03  8.3710866229062955e+00 1.6287549550506217e+00 6.8769139171079763e-04  8.3219124148214192e+00 1.6901304071608834e+00 -7.9367616560803973e-05  8.2718719205615923e+00 1.7528653242239880e+00 -6.2055740702416577e-04  8.2210908778340794e+00 1.8139064219521190e+00 1.1450932382339502e-03  8.1698332574230168e+00 1.8760064024455989e+00 -1.3311482981701332e-03  8.1177703043214624e+00 1.9381657482764303e+00 9.4468874869385014e-04  8.0654664642447838e+00 1.9979207932442344e+00 -1.0931677932969528e-04  8.0127782433314660e+00 2.0631227826051992e+00 -9.7446584967237401e-04  7.9592672241254077e+00 2.1204910420611718e+00 1.8589404693393611e-03  7.9064268508019699e+00 2.1856631384520218e+00 -2.4638396625750606e-03  7.8519724341743347e+00 2.2478595819996503e+00 2.9569135474344496e-03  7.7990350828403203e+00 2.3038983452224326e+00 -4.0086380560971141e-03  7.7437218970332058e+00 2.3781299847545077e+00 6.0042862352621277e-03  7.6912860287453215e+00 2.4241334790180802e+00 -8.8671592692674030e-03  7.6346567597624091e+00 2.5040647302548455e+00 1.1581490258350811e-02  7.5831116176080240e+00 2.5506580062390962e+00 -1.2916861142720408e-02  7.5256969315322157e+00 2.6268230300339557e+00 1.2069257284353766e-02  7.4740171582973094e+00 2.6787669013795044e+00 -9.4096304483402837e-03  7.4173295741854472e+00 2.7504651299979668e+00 6.1139038681302634e-03  7.3643793772234236e+00 2.8076749782072734e+00 -3.5169764222515955e-03  7.3090244542175435e+00 2.8740623836957613e+00 2.1346738493815227e-03  7.2550751992976092e+00 2.9364622099676714e+00 -1.8184390264477026e-03  7.2003272905130622e+00 3.0010455745576468e+00 1.9208838843786055e-03  7.1463777499613981e+00 3.0626712256614717e+00 -2.0401145620127328e-03  7.0915473375170546e+00 3.1293094376707908e+00 1.9188025971048118e-03  7.0378883170055433e+00 3.1911690139415687e+00 -1.6409023862976452e-03  6.9832162296892006e+00 3.2563444921377518e+00 1.3547568371789767e-03  6.9294974662318314e+00 3.3197567369398331e+00 -1.2544775609134816e-03  6.8752128307615621e+00 3.3853408430942413e+00 1.2806924115727411e-03  6.8215897996409787e+00 3.4482110913561721e+00 -1.2680678445846976e-03  6.7674692069246190e+00 3.5141260395970684e+00 1.1387166018187401e-03  6.7140371507974539e+00 3.5776132792670938e+00 -1.0265469612246534e-03  6.6602546314522764e+00 3.6432934324825683e+00 1.0124175711252359e-03  6.6069752309799101e+00 3.7073396807616685e+00 -1.0100165923124572e-03  6.5532932527814740e+00 3.7729540023885737e+00 9.5045388965934064e-04  6.5005657937162011e+00 3.8368860277891539e+00 -8.8690478690014736e-04  6.4470132509580669e+00 3.9032480956252069e+00 8.7729463738560917e-04  6.3942994321692064e+00 3.9674220712229951e+00 -8.4937289094914013e-04  6.3415239294388721e+00 4.0330184041287378e+00 7.9729796554954676e-04  6.2888729239711649e+00 4.0980550957055977e+00 -7.6631285911983094e-04  6.2360646823085126e+00 4.1641254749657728e+00 7.8058100711888732e-04  6.1843823299516441e+00 4.2284158033783221e+00 -7.6158524331105637e-04  6.1315804018176694e+00 4.2951263790389556e+00 7.2686539080922096e-04  6.0798134098095042e+00 4.3599522643872257e+00 -6.8607261308099247e-04  6.0281720486158337e+00 4.4257879338399944e+00 6.5732322060161859e-04  5.9762961640952330e+00 4.4915140374201359e+00 -6.0451758893634939e-04  5.9246656238615687e+00 4.5577240711126965e+00 5.7951948122096674e-04  5.8739201991222805e+00 4.6225758471258622e+00 -5.5530064945558545e-04  5.8222584806608504e+00 4.6895881852205825e+00 5.5617801843396621e-04  5.7714847568913914e+00 4.7549726322524295e+00 -5.3631844197599956e-04  5.7210213272912780e+00 4.8209174128959118e+00 5.2686646140429169e-04  5.6701289021219532e+00 4.8873206310931101e+00 -4.7284748280602615e-04  5.6198317580395187e+00 4.9536096735831885e+00 4.8203295038490556e-04  5.5699341256086061e+00 5.0190892864860954e+00 -4.9275932795599000e-04  5.5196099870352970e+00 5.0862580014528049e+00 5.3806532924535278e-04  5.4699978694917286e+00 5.1519623662998946e+00 -4.9935265354370917e-04  5.4204497055677399e+00 5.2187353301095296e+00 5.0741267260858412e-04  5.3709950311118702e+00 5.2847729492076310e+00 -4.8966562668641763e-04  5.3217011389161115e+00 5.351810308565506