<?xml version="1.0"?>
<VTKFile type="UnstructuredGrid"  version="0.1"  >
<UnstructuredGrid>
<Piece  NumberOfPoints="8241" NumberOfCells="16000">
<Points>
<DataArray  type="Float64"  NumberOfComponents="3"  format="ascii">-5 -1 0  -4.95 -1 0  -4.9 -1 0  -4.85 -1 0  -4.8 -1 0  -4.75 -1 0  -4.7 -1 0  -4.65 -1 0  -4.6 -1 0  -4.55 -1 0  -4.5 -1 0  -4.45 -1 0  -4.4 -1 0  -4.35 -1 0  -4.3 -1 0  -4.25 -1 0  -4.2 -1 0  -4.15 -1 0  -4.1 -1 0  -4.05 -1 0  -4 -1 0  -3.95 -1 0  -3.9 -1 0  -3.85 -1 0  -3.8 -1 0  -3.75 -1 0  -3.7 -1 0  -3.65 -1 0  -3.6 -1 0  -3.55 -1 0  -3.5 -1 0  -3.45 -1 0  -3.4 -1 0  -3.35 -1 0  -3.3 -1 0  -3.25 -1 0  -3.2 -1 0  -3.15 -1 0  -3.1 -1 0  -3.05 -1 0  -3 -1 0  -2.95 -1 0  -2.9 -1 0  -2.85 -1 0  -2.8 -1 0  -2.75 -1 0  -2.7 -1 0  -2.65 -1 0  -2.6 -1 0  -2.55 -1 0  -2.5 -1 0  -2.45 -1 0  -2.4 -1 0  -2.35 -1 0  -2.3 -1 0  -2.25 -1 0  -2.2 -1 0  -2.15 -1 0  -2.1 -1 0  -2.05 -1 0  -2 -1 0  -1.95 -1 0  -1.9 -1 0  -1.85 -1 0  -1.8 -1 0  -1.75 -1 0  -1.7 -1 0  -1.65 -1 0  -1.6 -1 0  -1.55 -1 0  -1.5 -1 0  -1.45 -1 0  -1.4 -1 0  -1.35 -1 0  -1.3 -1 0  -1.25 -1 0  -1.2 -1 0  -1.15 -1 0  -1.1 -1 0  -1.05 -1 0  -1 -1 0  -0.9500000000000002 -1 0  -0.9000000000000004 -1 0  -0.8499999999999996 -1 0  -0.7999999999999998 -1 0  -0.75 -1 0  -0.7000000000000002 -1 0  -0.6500000000000004 -1 0  -0.5999999999999996 -1 0  -0.5499999999999998 -1 0  -0.5 -1 0  -0.4500000000000002 -1 0  -0.4000000000000004 -1 0  -0.3499999999999996 -1 0  -0.2999999999999998 -1 0  -0.25 -1 0  -0.2000000000000002 -1 0  -0.1500000000000004 -1 0  -0.09999999999999964 -1 0  -0.04999999999999982 -1 0  0 -1 0  0.04999999999999982 -1 0  0.09999999999999964 -1 0  0.1500000000000004 -1 0  0.2000000000000002 -1 0  0.25 -1 0  0.2999999999999998 -1 0  0.3499999999999996 -1 0  0.4000000000000004 -1 0  0.4500000000000002 -1 0  0.5 -1 0  0.5499999999999998 -1 0  0.5999999999999996 -1 0  0.6500000000000004 -1 0  0.7000000000000002 -1 0  0.75 -1 0  0.7999999999999998 -1 0  0.8499999999999996 -1 0  0.9000000000000004 -1 0  0.9500000000000002 -1 0  1 -1 0  1.05 -1 0  1.1 -1 0  1.15 -1 0  1.2 -1 0  1.25 -1 0  1.3 -1 0  1.35 -1 0  1.4 -1 0  1.45 -1 0  1.5 -1 0  1.55 -1 0  1.6 -1 0  1.65 -1 0  1.7 -1 0  1.75 -1 0  1.8 -1 0  1.85 -1 0  1.9 -1 0  1.95 -1 0  2 -1 0  2.05 -1 0  2.1 -1 0  2.15 -1 0  2.2 -1 0  2.25 -1 0  2.3 -1 0  2.35 -1 0  2.4 -1 0  2.45 -1 0  2.5 -1 0  2.55 -1 0  2.6 -1 0  2.65 -1 0  2.7 -1 0  2.75 -1 0  2.8 -1 0  2.85 -1 0  2.9 -1 0  2.95 -1 0  3 -1 0  3.050000000000001 -1 0  3.1 -1 0  3.15 -1 0  3.199999999999999 -1 0  3.25 -1 0  3.300000000000001 -1 0  3.35 -1 0  3.4 -1 0  3.449999999999999 -1 0  3.5 -1 0  3.550000000000001 -1 0  3.6 -1 0  3.65 -1 0  3.699999999999999 -1 0  3.75 -1 0  3.800000000000001 -1 0  3.85 -1 0  3.9 -1 0  3.949999999999999 -1 0  4 -1 0  4.050000000000001 -1 0  4.1 -1 0  4.15 -1 0  4.199999999999999 -1 0  4.25 -1 0  4.300000000000001 -1 0  4.35 -1 0  4.4 -1 0  4.449999999999999 -1 0  4.5 -1 0  4.550000000000001 -1 0  4.6 -1 0  4.65 -1 0  4.699999999999999 -1 0  4.75 -1 0  4.800000000000001 -1 0  4.85 -1 0  4.9 -1 0  4.949999999999999 -1 0  5 -1 0  -5 -0.95 0  -4.95 -0.95 0  -4.9 -0.95 0  -4.85 -0.95 0  -4.8 -0.95 0  -4.75 -0.95 0  -4.7 -0.95 0  -4.65 -0.95 0  -4.6 -0.95 0  -4.55 -0.95 0  -4.5 -0.95 0  -4.45 -0.95 0  -4.4 -0.95 0  -4.35 -0.95 0  -4.3 -0.95 0  -4.25 -0.95 0  -4.2 -0.95 0  -4.15 -0.95 0  -4.1 -0.95 0  -4.05 -0.95 0  -4 -0.95 0  -3.95 -0.95 0  -3.9 -0.95 0  -3.85 -0.95 0  -3.8 -0.95 0  -3.75 -0.95 0  -3.7 -0.95 0  -3.65 -0.95 0  -3.6 -0.95 0  -3.55 -0.95 0  -3.5 -0.95 0  -3.45 -0.95 0  -3.4 -0.95 0  -3.35 -0.95 0  -3.3 -0.95 0  -3.25 -0.95 0  -3.2 -0.95 0  -3.15 -0.95 0  -3.1 -0.95 0  -3.05 -0.95 0  -3 -0.95 0  -2.95 -0.95 0  -2.9 -0.95 0  -2.85 -0.95 0  -2.8 -0.95 0  -2.75 -0.95 0  -2.7 -0.95 0  -2.65 -0.95 0  -2.6 -0.95 0  -2.55 -0.95 0  -2.5 -0.95 0  -2.45 -0.95 0  -2.4 -0.95 0  -2.35 -0.95 0  -2.3 -0.95 0  -2.25 -0.95 0  -2.2 -0.95 0  -2.15 -0.95 0  -2.1 -0.95 0  -2.05 -0.95 0  -2 -0.95 0  -1.95 -0.95 0  -1.9 -0.95 0  -1.85 -0.95 0  -1.8 -0.95 0  -1.75 -0.95 0  -1.7 -0.95 0  -1.65 -0.95 0  -1.6 -0.95 0  -1.55 -0.95 0  -1.5 -0.95 0  -1.45 -0.95 0  -1.4 -0.95 0  -1.35 -0.95 0  -1.3 -0.95 0  -1.25 -0.95 0  -1.2 -0.95 0  -1.15 -0.95 0  -1.1 -0.95 0  -1.05 -0.95 0  -1 -0.95 0  -0.9500000000000002 -0.95 0  -0.9000000000000004 -0.95 0  -0.8499999999999996 -0.95 0  -0.7999999999999998 -0.95 0  -0.75 -0.95 0  -0.7000000000000002 -0.95 0  -0.6500000000000004 -0.95 0  -0.5999999999999996 -0.95 0  -0.5499999999999998 -0.95 0  -0.5 -0.95 0  -0.4500000000000002 -0.95 0  -0.4000000000000004 -0.95 0  -0.3499999999999996 -0.95 0  -0.2999999999999998 -0.95 0  -0.25 -0.95 0  -0.2000000000000002 -0.95 0  -0.1500000000000004 -0.95 0  -0.09999999999999964 -0.95 0  -0.04999999999999982 -0.95 0  0 -0.95 0  0.04999999999999982 -0.95 0  0.09999999999999964 -0.95 0  0.1500000000000004 -0.95 0  0.2000000000000002 -0.95 0  0.25 -0.95 0  0.2999999999999998 -0.95 0  0.3499999999999996 -0.95 0  0.4000000000000004 -0.95 0  0.4500000000000002 -0.95 0  0.5 -0.95 0  0.5499999999999998 -0.95 0  0.5999999999999996 -0.95 0  0.6500000000000004 -0.95 0  0.7000000000000002 -0.95 0  0.75 -0.95 0  0.7999999999999998 -0.95 0  0.8499999999999996 -0.95 0  0.9000000000000004 -0.95 0  0.9500000000000002 -0.95 0  1 -0.95 0  1.05 -0.95 0  1.1 -0.95 0  1.15 -0.95 0  1.2 -0.95 0  1.25 -0.95 0  1.3 -0.95 0  1.35 -0.95 0  1.4 -0.95 0  1.45 -0.95 0  1.5 -0.95 0  1.55 -0.95 0  1.6 -0.95 0  1.65 -0.95 0  1.7 -0.95 0  1.75 -0.95 0  1.8 -0.95 0  1.85 -0.95 0  1.9 -0.95 0  1.95 -0.95 0  2 -0.95 0  2.05 -0.95 0  2.1 -0.95 0  2.15 -0.95 0  2.2 -0.95 0  2.25 -0.95 0  2.3 -0.95 0  2.35 -0.95 0  2.4 -0.95 0  2.45 -0.95 0  2.5 -0.95 0  2.55 -0.95 0  2.6 -0.95 0  2.65 -0.95 0  2.7 -0.95 0  2.75 -0.95 0  2.8 -0.95 0  2.85 -0.95 0  2.9 -0.95 0  2.95 -0.95 0  3 -0.95 0  3.050000000000001 -0.95 0  3.1 -0.95 0  3.15 -0.95 0  3.199999999999999 -0.95 0  3.25 -0.95 0  3.300000000000001 -0.95 0  3.35 -0.95 0  3.4 -0.95 0  3.449999999999999 -0.95 0  3.5 -0.95 0  3.550000000000001 -0.95 0  3.6 -0.95 0  3.65 -0.95 0  3.699999999999999 -0.95 0  3.75 -0.95 0  3.800000000000001 -0.95 0  3.85 -0.95 0  3.9 -0.95 0  3.949999999999999 -0.95 0  4 -0.95 0  4.050000000000001 -0.95 0  4.1 -0.95 0  4.15 -0.95 0  4.199999999999999 -0.95 0  4.25 -0.95 0  4.300000000000001 -0.95 0  4.35 -0.95 0  4.4 -0.95 0  4.449999999999999 -0.95 0  4.5 -0.95 0  4.550000000000001 -0.95 0  4.6 -0.95 0  4.65 -0.95 0  4.699999999999999 -0.95 0  4.75 -0.95 0  4.800000000000001 -0.95 0  4.85 -0.95 0  4.9 -0.95 0  4.949999999999999 -0.95 0  5 -0.95 0  -5 -0.9 0  -4.95 -0.9 0  -4.9 -0.9 0  -4.85 -0.9 0  -4.8 -0.9 0  -4.75 -0.9 0  -4.7 -0.9 0  -4.65 -0.9 0  -4.6 -0.9 0  -4.55 -0.9 0  -4.5 -0.9 0  -4.45 -0.9 0  -4.4 -0.9 0  -4.35 -0.9 0  -4.3 -0.9 0  -4.25 -0.9 0  -4.2 -0.9 0  -4.15 -0.9 0  -4.1 -0.9 0  -4.05 -0.9 0  -4 -0.9 0  -3.95 -0.9 0  -3.9 -0.9 0  -3.85 -0.9 0  -3.8 -0.9 0  -3.75 -0.9 0  -3.7 -0.9 0  -3.65 -0.9 0  -3.6 -0.9 0  -3.55 -0.9 0  -3.5 -0.9 0  -3.45 -0.9 0  -3.4 -0.9 0  -3.35 -0.9 0  -3.3 -0.9 0  -3.25 -0.9 0  -3.2 -0.9 0  -3.15 -0.9 0  -3.1 -0.9 0  -3.05 -0.9 0  -3 -0.9 0  -2.95 -0.9 0  -2.9 -0.9 0  -2.85 -0.9 0  -2.8 -0.9 0  -2.75 -0.9 0  -2.7 -0.9 0  -2.65 -0.9 0  -2.6 -0.9 0  -2.55 -0.9 0  -2.5 -0.9 0  -2.45 -0.9 0  -2.4 -0.9 0  -2.35 -0.9 0  -2.3 -0.9 0  -2.25 -0.9 0  -2.2 -0.9 0  -2.15 -0.9 0  -2.1 -0.9 0  -2.05 -0.9 0  -2 -0.9 0  -1.95 -0.9 0  -1.9 -0.9 0  -1.85 -0.9 0  -1.8 -0.9 0  -1.75 -0.9 0  -1.7 -0.9 0  -1.65 -0.9 0  -1.6 -0.9 0  -1.55 -0.9 0  -1.5 -0.9 0  -1.45 -0.9 0  -1.4 -0.9 0  -1.35 -0.9 0  -1.3 -0.9 0  -1.25 -0.9 0  -1.2 -0.9 0  -1.15 -0.9 0  -1.1 -0.9 0  -1.05 -0.9 0  -1 -0.9 0  -0.9500000000000002 -0.9 0  -0.9000000000000004 -0.9 0  -0.8499999999999996 -0.9 0  -0.7999999999999998 -0.9 0  -0.75 -0.9 0  -0.7000000000000002 -0.9 0  -0.6500000000000004 -0.9 0  -0.5999999999999996 -0.9 0  -0.5499999999999998 -0.9 0  -0.5 -0.9 0  -0.4500000000000002 -0.9 0  -0.4000000000000004 -0.9 0  -0.3499999999999996 -0.9 0  -0.2999999999999998 -0.9 0  -0.25 -0.9 0  -0.2000000000000002 -0.9 0  -0.1500000000000004 -0.9 0  -0.09999999999999964 -0.9 0  -0.04999999999999982 -0.9 0  0 -0.9 0  0.04999999999999982 -0.9 0  0.09999999999999964 -0.9 0  0.1500000000000004 -0.9 0  0.2000000000000002 -0.9 0  0.25 -0.9 0  0.2999999999999998 -0.9 0  0.3499999999999996 -0.9 0  0.4000000000000004 -0.9 0  0.4500000000000002 -0.9 0  0.5 -0.9 0  0.5499999999999998 -0.9 0  0.5999999999999996 -0.9 0  0.6500000000000004 -0.9 0  0.7000000000000002 -0.9 0  0.75 -0.9 0  0.7999999999999998 -0.9 0  0.8499999999999996 -0.9 0  0.9000000000000004 -0.9 0  0.9500000000000002 -0.9 0  1 -0.9 0  1.05 -0.9 0  1.1 -0.9 0  1.15 -0.9 0  1.2 -0.9 0  1.25 -0.9 0  1.3 -0.9 0  1.35 -0.9 0  1.4 -0.9 0  1.45 -0.9 0  1.5 -0.9 0  1.55 -0.9 0  1.6 -0.9 0  1.65 -0.9 0  1.7 -0.9 0  1.75 -0.9 0  1.8 -0.9 0  1.85 -0.9 0  1.9 -0.9 0  1.95 -0.9 0  2 -0.9 0  2.05 -0.9 0  2.1 -0.9 0  2.15 -0.9 0  2.2 -0.9 0  2.25 -0.9 0  2.3 -0.9 0  2.35 -0.9 0  2.4 -0.9 0  2.45 -0.9 0  2.5 -0.9 0  2.55 -0.9 0  2.6 -0.9 0  2.65 -0.9 0  2.7 -0.9 0  2.75 -0.9 0  2.8 -0.9 0  2.85 -0.9 0  2.9 -0.9 0  2.95 -0.9 0  3 -0.9 0  3.050000000000001 -0.9 0  3.1 -0.9 0  3.15 -0.9 0  3.199999999999999 -0.9 0  3.25 -0.9 0  3.300000000000001 -0.9 0  3.35 -0.9 0  3.4 -0.9 0  3.449999999999999 -0.9 0  3.5 -0.9 0  3.550000000000001 -0.9 0  3.6 -0.9 0  3.65 -0.9 0  3.699999999999999 -0.9 0  3.75 -0.9 0  3.800000000000001 -0.9 0  3.85 -0.9 0  3.9 -0.9 0  3.949999999999999 -0.9 0  4 -0.9 0  4.050000000000001 -0.9 0  4.1 -0.9 0  4.15 -0.9 0  4.199999999999999 -0.9 0  4.25 -0.9 0  4.300000000000001 -0.9 0  4.35 -0.9 0  4.4 -0.9 0  4.449999999999999 -0.9 0  4.5 -0.9 0  4.550000000000001 -0.9 0  4.6 -0.9 0  4.65 -0.9 0  4.699999999999999 -0.9 0  4.75 -0.9 0  4.800000000000001 -0.9 0  4.85 -0.9 0  4.9 -0.9 0  4.949999999999999 -0.9 0  5 -0.9 0  -5 -0.85 0  -4.95 -0.85 0  -4.9 -0.85 0  -4.85 -0.85 0  -4.8 -0.85 0  -4.75 -0.85 0  -4.7 -0.85 0  -4.65 -0.85 0  -4.6 -0.85 0  -4.55 -0.85 0  -4.5 -0.85 0  -
[...]
<PointData  Vectors="f_15"> 
<DataArray  type="Float64"  Name="f_15"  NumberOfComponents="3" format="ascii">2.9932162932922521e+00 0.0000000000000000e+00 0.0000000000000000e+00  3.0027785465980625e+00 3.6897000473324393e-02 0.0000000000000000e+00  2.9932941742769801e+00 -4.3983010214548354e-02 0.0000000000000000e+00  3.0043723161391056e+00 2.9299019140422811e-02 0.0000000000000000e+00  2.9927354900892897e+00 -3.0265668198969174e-02 0.0000000000000000e+00  3.0050162015344646e+00 1.6724208133556889e-02 0.0000000000000000e+00  2.9936394900453296e+00 -1.9821415443532102e-02 0.0000000000000000e+00  3.0050376016712579e+00 1.2865944564353925e-02 0.0000000000000000e+00  2.9935241332799345e+00 -1.5958126081645416e-02 0.0000000000000000e+00  3.0063770458397294e+00 1.1078762984673203e-02 0.0000000000000000e+00  2.9929086890435670e+00 -1.1574042062357320e-02 0.0000000000000000e+00  3.0067619687750748e+00 8.2179219983014948e-03 0.0000000000000000e+00  2.9935310162504716e+00 -7.6140574219538569e-03 0.0000000000000000e+00  3.0066363375314005e+00 6.6419658610063197e-03 0.0000000000000000e+00  2.9934030746488922e+00 -5.0058923104847686e-03 0.0000000000000000e+00  3.0073941000975148e+00 5.4891548168936287e-03 0.0000000000000000e+00  2.9928599488410184e+00 -1.8629094458212376e-03 0.0000000000000000e+00  3.0073062547370779e+00 3.8009447007330255e-03 0.0000000000000000e+00  2.9928987935994624e+00 1.6920667805898845e-03 0.0000000000000000e+00  3.0064880762451014e+00 3.1129801628487258e-03 0.0000000000000000e+00  2.9920674182524851e+00 4.9489334929626108e-03 0.0000000000000000e+00  3.0053961779277438e+00 4.0082303011907232e-03 0.0000000000000000e+00  2.9902049054699482e+00 9.9003890346194140e-03 0.0000000000000000e+00  3.0027439851419966e+00 6.0080368726258670e-03 0.0000000000000000e+00  2.9871485107244022e+00 1.8022135921763223e-02 0.0000000000000000e+00  2.9980297375443357e+00 1.1711920114331136e-02 0.0000000000000000e+00  2.9816591994240484e+00 2.9157428628655092e-02 0.0000000000000000e+00  2.9905792770919066e+00 2.3316628454060566e-02 0.0000000000000000e+00  2.9729434250153308e+00 4.6414347687628789e-02 0.0000000000000000e+00  2.9793466900030934e+00 4.0637136635846394e-02 0.0000000000000000e+00  2.9600763375561203e+00 7.2047138235275657e-02 0.0000000000000000e+00  2.9636863099143986e+00 6.6721012575106639e-02 0.0000000000000000e+00  2.9423481065451655e+00 1.0513969524597419e-01 0.0000000000000000e+00  2.9429783362540012e+00 1.0329033036863219e-01 0.0000000000000000e+00  2.9195378773580551e+00 1.4790726387322195e-01 0.0000000000000000e+00  2.9170686238977850e+00 1.4857719473297484e-01 0.0000000000000000e+00  2.8915117332377198e+00 2.0077996342515342e-01 0.0000000000000000e+00  2.8863332929169276e+00 2.0450313548869825e-01 0.0000000000000000e+00  2.8584876478681434e+00 2.6039158737256751e-01 0.0000000000000000e+00  2.8511345658646032e+00 2.7153404788509850e-01 0.0000000000000000e+00  2.8212160294309050e+00 3.2713744179851706e-01 0.0000000000000000e+00  2.8118368306825414e+00 3.4690286031219753e-01 0.0000000000000000e+00  2.7803271584965135e+00 4.0000027487094314e-01 0.0000000000000000e+00  2.7693201095732172e+00 4.3189512479055125e-01 0.0000000000000000e+00  2.7361761787894681e+00 4.7547739525299793e-01 0.0000000000000000e+00  2.7241841568575444e+00 5.2553788940622870e-01 0.0000000000000000e+00  2.6897724324056651e+00 5.5542722429946922e-01 0.0000000000000000e+00  2.6764656683579964e+00 6.2346825492885483e-01 0.0000000000000000e+00  2.6418118067303662e+00 6.4039191076554347e-01 0.0000000000000000e+00  2.6269812068771921e+00 7.2591992337871292e-01 0.0000000000000000e+00  2.5922782922859402e+00 7.2855631163466728e-01 0.0000000000000000e+00  2.5762075833406874e+00 8.3060901308721802e-01 0.0000000000000000e+00  2.5420062049120187e+00 8.2356349599890399e-01 0.0000000000000000e+00  2.5239653324862128e+00 9.3327195228980153e-01 0.0000000000000000e+00  2.4913003840764154e+00 9.2453319663357159e-01 0.0000000000000000e+00  2.4711566450628109e+00 1.0375618378214280e+00 0.0000000000000000e+00  2.4397639175459225e+00 1.0269466874159812e+00 0.0000000000000000e+00  2.4180683911435250e+00 1.1425068852206233e+00 0.0000000000000000e+00  2.3882339515056343e+00 1.1357531479847895e+00 0.0000000000000000e+00  2.3643146086194449e+00 1.2432105250462828e+00 0.0000000000000000e+00  2.3367806418500692e+00 1.2479818306778223e+00 0.0000000000000000e+00  2.3108687456397807e+00 1.3494894685352556e+00 0.0000000000000000e+00  2.2847559158034834e+00 1.3541494517836903e+00 0.0000000000000000e+00  2.2578533365357463e+00 1.4585990397884130e+00 0.0000000000000000e+00  2.2331004646710406e+00 1.4690818860030317e+00 0.0000000000000000e+00  2.2045560119730605e+00 1.5586040796129721e+00 0.0000000000000000e+00  2.1818497509608679e+00 1.5835179395377417e+00 0.0000000000000000e+00  2.1520751364427642e+00 1.6746205626029671e+00 0.0000000000000000e+00  2.1300241974503815e+00 1.6846014843507227e+00 0.0000000000000000e+00  2.1006018168256895e+00 1.7865811330937726e+00 0.0000000000000000e+00  2.0789729436063458e+00 1.8031143792140081e+00 0.0000000000000000e+00  2.0492011314853755e+00 1.8903825307193018e+00 0.0000000000000000e+00  2.0289940147301615e+00 1.9122506034038198e+00 0.0000000000000000e+00  1.9992674017138783e+00 2.0035121956899626e+00 0.0000000000000000e+00  1.9794248967838335e+00 2.0203406284397456e+00 0.0000000000000000e+00  1.9511946294069160e+00 2.1110073685080017e+00 0.0000000000000000e+00  1.9323072257168870e+00 2.1265607458698104e+00 0.0000000000000000e+00  1.9051736036782576e+00 2.2097226608075835e+00 0.0000000000000000e+00  1.8906782349940274e+00 2.2256791168527825e+00 0.0000000000000000e+00  1.8664376652738903e+00 2.2994315696091352e+00 0.0000000000000000e+00  1.8576517777842729e+00 2.2962375009337852e+00 0.0000000000000000e+00  1.8439165856621580e+00 2.3529734403845541e+00 0.0000000000000000e+00  1.8430366300347558e+00 2.3299459629911254e+00 0.0000000000000000e+00  1.8408504282870968e+00 2.3595688506222450e+00 0.0000000000000000e+00  1.8439737398840834e+00 2.3295719419495540e+00 0.0000000000000000e+00  1.8431178648360094e+00 2.3520316027655745e+00 0.0000000000000000e+00  1.8446087908562854e+00 2.3288471882124302e+00 0.0000000000000000e+00  1.8440885797231807e+00 2.3473060466979478e+00 0.0000000000000000e+00  1.8479881496559578e+00 2.3264481214228501e+00 0.0000000000000000e+00  1.8427649756143130e+00 2.3456738018263845e+00 0.0000000000000000e+00  1.8500530684019145e+00 2.3216952961761055e+00 0.0000000000000000e+00  1.8427064501949961e+00 2.3491884139502002e+00 0.0000000000000000e+00  1.8483956346189792e+00 2.3184084386725132e+00 0.0000000000000000e+00  1.8469332305617865e+00 2.3479821859811980e+00 0.0000000000000000e+00  1.8445078663080019e+00 2.3189503809712404e+00 0.0000000000000000e+00  1.8519174993644758e+00 2.3436219988121465e+00 0.0000000000000000e+00  1.8389984955909078e+00 2.3235462838794270e+00 0.0000000000000000e+00  1.8583207344971373e+00 2.3354701761118060e+00 0.0000000000000000e+00  1.8343072602163801e+00 2.3315450696113009e+00 0.0000000000000000e+00  1.8609379604215086e+00 2.3269832848259311e+00 0.0000000000000000e+00  1.8340120958467254e+00 2.3385158048109855e+00 0.0000000000000000e+00  1.8600721478026203e+00 2.3199923436866028e+00 0.0000000000000000e+00  1.8368436337338294e+00 2.3410103027553202e+00 0.0000000000000000e+00  1.8560760397213052e+00 2.3202090407875176e+00 0.0000000000000000e+00  1.8415798244191957e+00 2.3397753139507182e+00 0.0000000000000000e+00  1.8508199106011425e+00 2.3215189753975372e+00 0.0000000000000000e+00  1.8481303282857711e+00 2.3340683157245437e+00 0.0000000000000000e+00  1.8448499962919969e+00 2.3282276648114126e+00 0.0000000000000000e+00  1.8517620747322940e+00 2.3287879244224130e+00 0.0000000000000000e+00  1.8425634613968789e+00 2.3316797999169236e+00 0.0000000000000000e+00  1.8553801684678479e+00 2.3216501114777848e+00 0.0000000000000000e+00  1.8379845001864037e+00 2.3404574794619188e+00 0.0000000000000000e+00  1.8580112382788343e+00 2.3154766943555867e+00 0.0000000000000000e+00  1.8383293560645320e+00 2.3413423253196499e+00 0.0000000000000000e+00  1.8568669310379049e+00 2.3150900922012951e+00 0.0000000000000000e+00  1.8379099837639843e+00 2.3437655732905522e+00 0.0000000000000000e+00  1.8584441701137961e+00 2.3102238292324508e+00 0.0000000000000000e+00  1.8371194318303725e+00 2.3460096506451564e+00 0.0000000000000000e+00  1.8573189740309763e+00 2.3106541163940655e+00 0.0000000000000000e+00  1.8389034357618494e+00 2.3443567737791287e+00 0.0000000000000000e+00  1.8566226821494500e+00 2.3099261995131712e+00 0.0000000000000000e+00  1.8383516163236919e+00 2.3449356309629801e+00 0.0000000000000000e+00  1.8563858698877587e+00 2.3066901121568253e+00 0.0000000000000000e+00  1.8408409227652407e+00 2.3353581606263480e+00 0.0000000000000000e+00  1.8527721080734956e+00 2.3071176875218207e+00 0.0000000000000000e+00  1.8429831621661965e+00 2.3236340517934240e+00 0.0000000000000000e+00  1.8529308592110481e+00 2.3013137290269317e+00 0.0000000000000000e+00  1.8424517699494856e+00 2.3184569947913296e+00 0.0000000000000000e+00  1.8517977828980974e+00 2.3028661902968803e+00 0.0000000000000000e+00  1.8450673903118171e+00 2.3132436022925105e+00 0.0000000000000000e+00  1.8498248240554749e+00 2.3097773184765340e+00 0.0000000000000000e+00  1.8453682281202493e+00 2.3169510114741998e+00 0.0000000000000000e+00  1.8506766892743922e+00 2.3143248429433769e+00 0.0000000000000000e+00  1.8445410203314347e+00 2.3213864214592235e+00 0.0000000000000000e+00  1.8513840153214287e+00 2.3188236111737499e+00 0.0000000000000000e+00  1.8435236092258114e+00 2.3257011732576820e+00 0.0000000000000000e+00  1.8523455177893315e+00 2.3193844434387638e+00 0.0000000000000000e+00  1.8426654476114468e+00 2.3277751586706246e+00 0.0000000000000000e+00  1.8529682351615904e+00 2.3207632443972095e+00 0.0000000000000000e+00  1.8403126598334432e+00 2.3303118235471914e+00 0.0000000000000000e+00  1.8566808194074864e+00 2.3140970157251144e+00 0.0000000000000000e+00  1.8357408171543985e+00 2.3391837893331981e+00 0.0000000000000000e+00  1.8587809830996902e+00 2.3081561396058898e+00 0.0000000000000000e+00  1.8360820767954367e+00 2.3383187483246695e+00 0.0000000000000000e+00  1.8567757738800177e+00 2.3103590254960449e+00 0.0000000000000000e+00  1.8364674396744021e+00 2.3380613260039902e+00 0.0000000000000000e+00  1.8585488696783361e+00 2.3027684743996435e+00 0.0000000000000000e+00  1.8337421890708288e+00 2.3460880455865007e+00 0.0000000000000000e+00  1.8594311767933234e+00 2.2963056594395321e+00 0.0000000000000000e+00  1.8360018017172839e+00 2.3431689923902446e+00 0.0000000000000000e+00  1.8553075162429120e+00 2.3020727238854488e+00 0.0000000000000000e+00  1.8398137502466871e+00 2.3368616562333866e+00 0.0000000000000000e+00  1.8535229443430330e+00 2.3009396979168124e+00 0.0000000000000000e+00  1.8399351566335518e+00 2.3404122139850845e+00 0.0000000000000000e+00  1.8525890569997814e+00 2.2950729077056797e+00 0.0000000000000000e+00  1.8411629877574474e+00 2.3365134151075333e+00 0.0000000000000000e+00  1.8457562263150735e+00 2.2940311491511980e+00 0.0000000000000000e+00  1.8369408100081244e+00 2.3080428375930251e+00 0.0000000000000000e+00  1.8201207588665065e+00 2.2466672386691786e+00 0.0000000000000000e+00  1.7723095896161196e+00 2.1611855331771475e+00 0.0000000000000000e+00  1.6964334292845396e+00 1.9423059554857354e+00 0.0000000000000000e+00  1.4648799765335994e+00 1.3743033087936922e+00 0.0000000000000000e+00  1.1621566636547787e+00 4.8960042025899864e-01 0.0000000000000000e+00  1.0339696171924433e+00 1.0997775206453851e-01 0.0000000000000000e+00  1.0007481541507166e+00 -5.7649174941566943e-03 0.0000000000000000e+00  1.0036292029124061e+00 8.8462674006680713e-03 0.0000000000000000e+00  9.9610836686440007e-01 -1.9432024039955038e-02 0.0000000000000000e+00  1.0043805600563394e+00 5.2918261642953077e-03 0.0000000000000000e+00  9.9399829526708028e-01 -1.6996866206195439e-02 0.0000000000000000e+00  1.0055705503057826e+00 4.1559954984472765e-03 0.0000000000000000e+00  9.9513501785850711e-01 -2.2752228977573556e-02 0.0000000000000000e+00  1.0016964099449885e+00 1.5797943152823280e-02 0.0000000000000000e+00  1.0009251381695743e+00 -3.8038071772911880e-02 0.0000000000000000e+00  9.9514622997322111e-01 3.1646306867825977e-02 0.0000000000000000e+00  1.0081684983813159e+00 -5.3040500012840240e-02 0.0000000000000000e+00  9.8715705235861873e-01 4.8407026144411364e-02 0.0000000000000000e+00  1.0176060895822152e+00 -7.1776066779828299e-02 0.0000000000000000e+00  9.7726495974935701e-01 7.0030065051377155e-02 0.0000000000000000e+00  1.0276723384926718e+00 -9.0903014066759588e-02 0.0000000000000000e+00  9.6849844745302738e-01 8.8081386412825341e-02 0.0000000000000000e+00  1.0359197481513620e+00 -1.0352501509994627e-01 0.0000000000000000e+00  9.6143622292733955e-01 1.0040487268178223e-01 0.0000000000000000e+00  1.0433077136142366e+00 -1.1291572995369377e-01 0.0000000000000000e+00  9.5518203748369557e-01 1.0997832841035955e-01 0.0000000000000000e+00  1.0497980892899255e+00 -1.1864954695253546e-01 0.0000000000000000e+00  9.5075646596022689e-01 1.1295403805008065e-01 0.0000000000000000e+00  1.0546741484608335e+00 -1.1776510613076398e-01 0.0000000000000000e+00  9.4837555295846632e-01 1.0805481171167580e-01 0.0000000000000000e+00  1.0585608791424312e+00 -1.1187452291706029e-01 0.0000000000000000e+00  9.4765482140871060e-01 9.6803482905569005e-02 0.0000000000000000e+00  1.0617078750716178e+00 -1.0166638635124484e-01 0.0000000000000000e+00  9.4896207548582800e-01 7.8682370168592877e-02 0.0000000000000000e+00  1.0639955353332895e+00 -8.7222192542748475e-02 0.0000000000000000e+00  9.5237557363341707e-01 5.4679789663749867e-02 0.0000000000000000e+00  1.0657493351450988e+00 -7.0062997464213309e-02 0.0000000000000000e+00  9.5756646457569472e-01 2.6512101290741018e-02 0.0000000000000000e+00  1.0670806362918157e+00 -5.0616438351964319e-02 0.0000000000000000e+00  9.6444873762358607e-01 -4.2302139838210247e-03 0.0000000000000000e+00  1.0675539170910537e+00 -3.0519345870258927e-02 0.0000000000000000e+00  9.7292931260153581e-01 -3.0998605784415857e-02 0.0000000000000000e+00  1.0668231503813961e+00 0.0000000000000000e+00 0.0000000000000000e+00  3.0016002411157912e+00 0.0000000000000000e+00 -3.1003372762394593e-02  3.0022651125226623e+00 -8.4223019030308446e-03 2.9153829962056447e-03  3.0022350516021126e+00 1.6299243300214355e-02 1.3695252405747373e-02  3.0008256737354828e+00 4.9335468450844560e-03 -7.4472882502993653e-03  3.0017595300574511e+00 1.2965348572510993e-03 4.7447092200584061e-03  3.0011280620313547e+00 8.1779571895583617e-03 -2.8944712614630027e-03  3.0006853088802412e+00 1.1892307558921465e-03 2.0998565827488442e-03  3.0005609097922119e+00 3.7975943288821204e-03 -2.0028775453573857e-03  3.0011363073358677e+00 1.7111389756542064e-03 1.6803319340719153e-03  2.9995891403279100e+00 2.8270247598435236e-03 -1.6422972267458821e-03  3.0007254896701094e+00 -1.5302397007965754e-04 1.1991276053015460e-03  3.0000012325438372e+00 2.4793180087755518e-03 -1.1034671265666971e-03  2.9998939617902063e+00 -6.6293913165426310e-04 7.0440684343467625e-04  2.9996451918186087e+00 1.2662350855360638e-03 -5.8792346134641676e-04  3.0001710696067105e+00 -9.9852539968084582e-04 2.1038454288115944e-04  2.9988913034713582e+00 1.1929386761133475e-03 -4.8298242452450014e-05  2.9997319695648339e+00 -1.9039381873053450e-03 -3.1103329207305666e-04  2.9989311436690578e+00 1.7378883094302101e-03 5.0268726056679560e-04  2.9988178371870151e+00 -1.6568666224426041e-03 -8.4090281195666383e-04  2.9982277398604382e+00 2.2888948785514244e-03 1.0987821777791763e-03  2.9981419169803689e+00 -4.8864470257645797e-05 -1.4236140435467421e-03  2.9967441564322437e+00 4.6606480260646373e-03 1.6864481556488795e-03  2.9963439046184193e+00 2.4798248893060167e-03 -1.9600621497687684e-03  2.9945451652640709e+00 9.8166475241451730e-03 2.2242303944298137e-03  2.9930068718234586e+00 8.2601183942611466e-03 -2.5212743504610868e-03  2.9903104901191417e+00 1.7553988825842692e-02 2.8631650337708403e-03  2.9875710756011911e+00 1.8984734054161866e-02 -3.1900861532961175e-03  2.9832738234618033e+00 3.0773158577501018e-02 3.5312053298731981e-03  2.9788221389718337e+00 3.4547694320222491e-02 -3.8502381041953704e-03  2.9725203925535175e+00 5.1556519294167553e-02 4.2523005650452151e-03  2.9659756971591738e+00 5.7997407528173478e-02 -4.7145590333661702e-03  2.9571644029989419e+00 7.9448718493350473e-02 5.2978372323651884e-03  2.9482528647432251e+00 9.1013269006572764e-02 -5.9115598831142920e-03  2.9368044840129750e+00 1.1707877391083744e-01 6.6182665739989164e-03  2.9253096515058559e+00 1.3216187099530644e-01 -7.3863162104650703e-03  2.9111432818851561e+00 1.6530179608709034e-01 8.3777060261320691e-03  2.8973322286497281e+00 1.8324625501705055e-01 -9.5317393435616314e-03  2.8803212866431056e+00 2.2170085611473109e-01 1.0919743071869607e-02  2.8645445910157425e+00 2.4423846401092980e-01 -1.2361371472668732e-02  2.8449980933990808e+00 2.8742445962750490e-01 1.3916849823134042e-02  2.8273156488030917e+00 3.1210083367322289e-01 -1.5420333865704841e-02  2.8057455487511813e+00 3.6186327883054059e-01 1.7010678582149309e-02  2.7865081279791344e+00 3.8777584398191495e-01 -1.8404257653776263e-02  2.7629604407773614e+00 4.4167391533960371e-01 1.9582068530093939e-02  2.7427542680565651e+00 4.7064189060476724e-01 -2.0168235355183400e-02  2.7176147781213080e+00 5.2759395571082091e-01 2.0184255030681907e-02  2.6962231894150701e+00 5.5780227417808170e-01 -1.9514528635627203e-02  2.6703743272109897e+00 6.1855354568437870e-01 1.8280794106771799e-02  2.6477906200574775e+00 6.5076005065273390e-01 -1.6527269226722853e-02  2.6212547645496431e+00 7.1139146933891018e-01 1.4164100661674174e-02  2.5979923229324720e+00 7.4875216393309774e-01 -1.1397540360687937e-02  2.5710902502188611e+00 8.0794263107649544e-01 8.1408346840904002e-03  2.5466958736605996e+00 8.4859452269951785e-01 -5.0031539113157839e-03  2.5202460206073773e+00 9.0747226415525006e-01 1.8231658347858894e-03  2.4947788551412642e+00 9.5271602075545514e-01 8.1824305960895652e-04  2.4683946512205757e+00 1.0068389231018775e+00 -3.3532045816487568e-03  2.4425264025459623e+00 1.0596316142841535e+00 5.4621499940143269e-03  2.4163685027880746e+00 1.1104316224369133e+00 -7.4718738798529097e-03  2.3895569621932773e+00 1.1646571928224356e+00 8.8087472946744242e-03  2.3642251062827255e+00 1.2169151548302055e+00 -9.4698143525377854e-03  2.3368694358499318e+00 1.2741494106303162e+00 8.8256393567467412e-03  2.3113332925420171e+00 1.3202516023114157e+00 -7.3683858479177576e-03  2.2845692378457860e+00 1.3847994654089280e+00 5.3936112764438656e-03  2.2587174579505849e+00 1.4324197151963656e+00 -3.6437287388310538e-03  2.2319109557731851e+00 1.4860494243551472e+00 1.7587902712237449e-03  2.2065379189988201e+00 1.5474994989236148e+00 -1.0424341781603478e-04  2.1799018135853392e+00 1.5988333910425343e+00 -1.3079022143624788e-03  2.1540469161989573e+00 1.6496186151603023e+00 1.5132419821575240e-03  2.1286375891598204e+00 1.7119586195392478e+00 -1.3250631388445622e-03  2.1024409583349239e+00 1.7670081320751463e+00 1.7064593134524326e-03  2.0772132187506509e+00 1.8135592597701171e+00 -2.9962108625159588e-03  2.0518397156166994e+00 1.8779612862135342e+00 3.6072249149265490e-03  2.0268034852582364e+00 1.9297330580216445e+00 -3.1104380097599763e-03  2.0014816433899307e+00 1.9844692897814853e+00 2.9147105307513947e-03  1.9779304436138245e+00 2.0371634308011171e+00 -3.6690020148983662e-03  1.9529805430030180e+00 2.0941332457389503e+00 4.3995321475433658e-03  1.9305809591584124e+00 2.1405604259517710e+00 -4.3862585897452063e-03  1.9079707478255794e+00 2.1990710515292955e+00 4.9647258830504441e-03  1.8879532027967789e+00 2.2372761061063593e+00 -5.5777147726942915e-03  1.8683893354921965e+00 2.2838492674257220e+00 5.5673244888230968e-03  1.8564969503288116e+00 2.3127394194085555e+00 -4.9271523511908201e-03  1.8444294196702067e+00 2.3405835988881423e+00 5.1894329526327278e-03  1.8430