<?xml version="1.0"?>
<VTKFile type="UnstructuredGrid"  version="0.1"  >
<UnstructuredGrid>
<Piece  NumberOfPoints="8241" NumberOfCells="16000">
<Points>
<DataArray  type="Float64"  NumberOfComponents="3"  format="ascii">-5 -1 0  -4.95 -1 0  -4.9 -1 0  -4.85 -1 0  -4.8 -1 0  -4.75 -1 0  -4.7 -1 0  -4.65 -1 0  -4.6 -1 0  -4.55 -1 0  -4.5 -1 0  -4.45 -1 0  -4.4 -1 0  -4.35 -1 0  -4.3 -1 0  -4.25 -1 0  -4.2 -1 0  -4.15 -1 0  -4.1 -1 0  -4.05 -1 0  -4 -1 0  -3.95 -1 0  -3.9 -1 0  -3.85 -1 0  -3.8 -1 0  -3.75 -1 0  -3.7 -1 0  -3.65 -1 0  -3.6 -1 0  -3.55 -1 0  -3.5 -1 0  -3.45 -1 0  -3.4 -1 0  -3.35 -1 0  -3.3 -1 0  -3.25 -1 0  -3.2 -1 0  -3.15 -1 0  -3.1 -1 0  -3.05 -1 0  -3 -1 0  -2.95 -1 0  -2.9 -1 0  -2.85 -1 0  -2.8 -1 0  -2.75 -1 0  -2.7 -1 0  -2.65 -1 0  -2.6 -1 0  -2.55 -1 0  -2.5 -1 0  -2.45 -1 0  -2.4 -1 0  -2.35 -1 0  -2.3 -1 0  -2.25 -1 0  -2.2 -1 0  -2.15 -1 0  -2.1 -1 0  -2.05 -1 0  -2 -1 0  -1.95 -1 0  -1.9 -1 0  -1.85 -1 0  -1.8 -1 0  -1.75 -1 0  -1.7 -1 0  -1.65 -1 0  -1.6 -1 0  -1.55 -1 0  -1.5 -1 0  -1.45 -1 0  -1.4 -1 0  -1.35 -1 0  -1.3 -1 0  -1.25 -1 0  -1.2 -1 0  -1.15 -1 0  -1.1 -1 0  -1.05 -1 0  -1 -1 0  -0.9500000000000002 -1 0  -0.9000000000000004 -1 0  -0.8499999999999996 -1 0  -0.7999999999999998 -1 0  -0.75 -1 0  -0.7000000000000002 -1 0  -0.6500000000000004 -1 0  -0.5999999999999996 -1 0  -0.5499999999999998 -1 0  -0.5 -1 0  -0.4500000000000002 -1 0  -0.4000000000000004 -1 0  -0.3499999999999996 -1 0  -0.2999999999999998 -1 0  -0.25 -1 0  -0.2000000000000002 -1 0  -0.1500000000000004 -1 0  -0.09999999999999964 -1 0  -0.04999999999999982 -1 0  0 -1 0  0.04999999999999982 -1 0  0.09999999999999964 -1 0  0.1500000000000004 -1 0  0.2000000000000002 -1 0  0.25 -1 0  0.2999999999999998 -1 0  0.3499999999999996 -1 0  0.4000000000000004 -1 0  0.4500000000000002 -1 0  0.5 -1 0  0.5499999999999998 -1 0  0.5999999999999996 -1 0  0.6500000000000004 -1 0  0.7000000000000002 -1 0  0.75 -1 0  0.7999999999999998 -1 0  0.8499999999999996 -1 0  0.9000000000000004 -1 0  0.9500000000000002 -1 0  1 -1 0  1.05 -1 0  1.1 -1 0  1.15 -1 0  1.2 -1 0  1.25 -1 0  1.3 -1 0  1.35 -1 0  1.4 -1 0  1.45 -1 0  1.5 -1 0  1.55 -1 0  1.6 -1 0  1.65 -1 0  1.7 -1 0  1.75 -1 0  1.8 -1 0  1.85 -1 0  1.9 -1 0  1.95 -1 0  2 -1 0  2.05 -1 0  2.1 -1 0  2.15 -1 0  2.2 -1 0  2.25 -1 0  2.3 -1 0  2.35 -1 0  2.4 -1 0  2.45 -1 0  2.5 -1 0  2.55 -1 0  2.6 -1 0  2.65 -1 0  2.7 -1 0  2.75 -1 0  2.8 -1 0  2.85 -1 0  2.9 -1 0  2.95 -1 0  3 -1 0  3.050000000000001 -1 0  3.1 -1 0  3.15 -1 0  3.199999999999999 -1 0  3.25 -1 0  3.300000000000001 -1 0  3.35 -1 0  3.4 -1 0  3.449999999999999 -1 0  3.5 -1 0  3.550000000000001 -1 0  3.6 -1 0  3.65 -1 0  3.699999999999999 -1 0  3.75 -1 0  3.800000000000001 -1 0  3.85 -1 0  3.9 -1 0  3.949999999999999 -1 0  4 -1 0  4.050000000000001 -1 0  4.1 -1 0  4.15 -1 0  4.199999999999999 -1 0  4.25 -1 0  4.300000000000001 -1 0  4.35 -1 0  4.4 -1 0  4.449999999999999 -1 0  4.5 -1 0  4.550000000000001 -1 0  4.6 -1 0  4.65 -1 0  4.699999999999999 -1 0  4.75 -1 0  4.800000000000001 -1 0  4.85 -1 0  4.9 -1 0  4.949999999999999 -1 0  5 -1 0  -5 -0.95 0  -4.95 -0.95 0  -4.9 -0.95 0  -4.85 -0.95 0  -4.8 -0.95 0  -4.75 -0.95 0  -4.7 -0.95 0  -4.65 -0.95 0  -4.6 -0.95 0  -4.55 -0.95 0  -4.5 -0.95 0  -4.45 -0.95 0  -4.4 -0.95 0  -4.35 -0.95 0  -4.3 -0.95 0  -4.25 -0.95 0  -4.2 -0.95 0  -4.15 -0.95 0  -4.1 -0.95 0  -4.05 -0.95 0  -4 -0.95 0  -3.95 -0.95 0  -3.9 -0.95 0  -3.85 -0.95 0  -3.8 -0.95 0  -3.75 -0.95 0  -3.7 -0.95 0  -3.65 -0.95 0  -3.6 -0.95 0  -3.55 -0.95 0  -3.5 -0.95 0  -3.45 -0.95 0  -3.4 -0.95 0  -3.35 -0.95 0  -3.3 -0.95 0  -3.25 -0.95 0  -3.2 -0.95 0  -3.15 -0.95 0  -3.1 -0.95 0  -3.05 -0.95 0  -3 -0.95 0  -2.95 -0.95 0  -2.9 -0.95 0  -2.85 -0.95 0  -2.8 -0.95 0  -2.75 -0.95 0  -2.7 -0.95 0  -2.65 -0.95 0  -2.6 -0.95 0  -2.55 -0.95 0  -2.5 -0.95 0  -2.45 -0.95 0  -2.4 -0.95 0  -2.35 -0.95 0  -2.3 -0.95 0  -2.25 -0.95 0  -2.2 -0.95 0  -2.15 -0.95 0  -2.1 -0.95 0  -2.05 -0.95 0  -2 -0.95 0  -1.95 -0.95 0  -1.9 -0.95 0  -1.85 -0.95 0  -1.8 -0.95 0  -1.75 -0.95 0  -1.7 -0.95 0  -1.65 -0.95 0  -1.6 -0.95 0  -1.55 -0.95 0  -1.5 -0.95 0  -1.45 -0.95 0  -1.4 -0.95 0  -1.35 -0.95 0  -1.3 -0.95 0  -1.25 -0.95 0  -1.2 -0.95 0  -1.15 -0.95 0  -1.1 -0.95 0  -1.05 -0.95 0  -1 -0.95 0  -0.9500000000000002 -0.95 0  -0.9000000000000004 -0.95 0  -0.8499999999999996 -0.95 0  -0.7999999999999998 -0.95 0  -0.75 -0.95 0  -0.7000000000000002 -0.95 0  -0.6500000000000004 -0.95 0  -0.5999999999999996 -0.95 0  -0.5499999999999998 -0.95 0  -0.5 -0.95 0  -0.4500000000000002 -0.95 0  -0.4000000000000004 -0.95 0  -0.3499999999999996 -0.95 0  -0.2999999999999998 -0.95 0  -0.25 -0.95 0  -0.2000000000000002 -0.95 0  -0.1500000000000004 -0.95 0  -0.09999999999999964 -0.95 0  -0.04999999999999982 -0.95 0  0 -0.95 0  0.04999999999999982 -0.95 0  0.09999999999999964 -0.95 0  0.1500000000000004 -0.95 0  0.2000000000000002 -0.95 0  0.25 -0.95 0  0.2999999999999998 -0.95 0  0.3499999999999996 -0.95 0  0.4000000000000004 -0.95 0  0.4500000000000002 -0.95 0  0.5 -0.95 0  0.5499999999999998 -0.95 0  0.5999999999999996 -0.95 0  0.6500000000000004 -0.95 0  0.7000000000000002 -0.95 0  0.75 -0.95 0  0.7999999999999998 -0.95 0  0.8499999999999996 -0.95 0  0.9000000000000004 -0.95 0  0.9500000000000002 -0.95 0  1 -0.95 0  1.05 -0.95 0  1.1 -0.95 0  1.15 -0.95 0  1.2 -0.95 0  1.25 -0.95 0  1.3 -0.95 0  1.35 -0.95 0  1.4 -0.95 0  1.45 -0.95 0  1.5 -0.95 0  1.55 -0.95 0  1.6 -0.95 0  1.65 -0.95 0  1.7 -0.95 0  1.75 -0.95 0  1.8 -0.95 0  1.85 -0.95 0  1.9 -0.95 0  1.95 -0.95 0  2 -0.95 0  2.05 -0.95 0  2.1 -0.95 0  2.15 -0.95 0  2.2 -0.95 0  2.25 -0.95 0  2.3 -0.95 0  2.35 -0.95 0  2.4 -0.95 0  2.45 -0.95 0  2.5 -0.95 0  2.55 -0.95 0  2.6 -0.95 0  2.65 -0.95 0  2.7 -0.95 0  2.75 -0.95 0  2.8 -0.95 0  2.85 -0.95 0  2.9 -0.95 0  2.95 -0.95 0  3 -0.95 0  3.050000000000001 -0.95 0  3.1 -0.95 0  3.15 -0.95 0  3.199999999999999 -0.95 0  3.25 -0.95 0  3.300000000000001 -0.95 0  3.35 -0.95 0  3.4 -0.95 0  3.449999999999999 -0.95 0  3.5 -0.95 0  3.550000000000001 -0.95 0  3.6 -0.95 0  3.65 -0.95 0  3.699999999999999 -0.95 0  3.75 -0.95 0  3.800000000000001 -0.95 0  3.85 -0.95 0  3.9 -0.95 0  3.949999999999999 -0.95 0  4 -0.95 0  4.050000000000001 -0.95 0  4.1 -0.95 0  4.15 -0.95 0  4.199999999999999 -0.95 0  4.25 -0.95 0  4.300000000000001 -0.95 0  4.35 -0.95 0  4.4 -0.95 0  4.449999999999999 -0.95 0  4.5 -0.95 0  4.550000000000001 -0.95 0  4.6 -0.95 0  4.65 -0.95 0  4.699999999999999 -0.95 0  4.75 -0.95 0  4.800000000000001 -0.95 0  4.85 -0.95 0  4.9 -0.95 0  4.949999999999999 -0.95 0  5 -0.95 0  -5 -0.9 0  -4.95 -0.9 0  -4.9 -0.9 0  -4.85 -0.9 0  -4.8 -0.9 0  -4.75 -0.9 0  -4.7 -0.9 0  -4.65 -0.9 0  -4.6 -0.9 0  -4.55 -0.9 0  -4.5 -0.9 0  -4.45 -0.9 0  -4.4 -0.9 0  -4.35 -0.9 0  -4.3 -0.9 0  -4.25 -0.9 0  -4.2 -0.9 0  -4.15 -0.9 0  -4.1 -0.9 0  -4.05 -0.9 0  -4 -0.9 0  -3.95 -0.9 0  -3.9 -0.9 0  -3.85 -0.9 0  -3.8 -0.9 0  -3.75 -0.9 0  -3.7 -0.9 0  -3.65 -0.9 0  -3.6 -0.9 0  -3.55 -0.9 0  -3.5 -0.9 0  -3.45 -0.9 0  -3.4 -0.9 0  -3.35 -0.9 0  -3.3 -0.9 0  -3.25 -0.9 0  -3.2 -0.9 0  -3.15 -0.9 0  -3.1 -0.9 0  -3.05 -0.9 0  -3 -0.9 0  -2.95 -0.9 0  -2.9 -0.9 0  -2.85 -0.9 0  -2.8 -0.9 0  -2.75 -0.9 0  -2.7 -0.9 0  -2.65 -0.9 0  -2.6 -0.9 0  -2.55 -0.9 0  -2.5 -0.9 0  -2.45 -0.9 0  -2.4 -0.9 0  -2.35 -0.9 0  -2.3 -0.9 0  -2.25 -0.9 0  -2.2 -0.9 0  -2.15 -0.9 0  -2.1 -0.9 0  -2.05 -0.9 0  -2 -0.9 0  -1.95 -0.9 0  -1.9 -0.9 0  -1.85 -0.9 0  -1.8 -0.9 0  -1.75 -0.9 0  -1.7 -0.9 0  -1.65 -0.9 0  -1.6 -0.9 0  -1.55 -0.9 0  -1.5 -0.9 0  -1.45 -0.9 0  -1.4 -0.9 0  -1.35 -0.9 0  -1.3 -0.9 0  -1.25 -0.9 0  -1.2 -0.9 0  -1.15 -0.9 0  -1.1 -0.9 0  -1.05 -0.9 0  -1 -0.9 0  -0.9500000000000002 -0.9 0  -0.9000000000000004 -0.9 0  -0.8499999999999996 -0.9 0  -0.7999999999999998 -0.9 0  -0.75 -0.9 0  -0.7000000000000002 -0.9 0  -0.6500000000000004 -0.9 0  -0.5999999999999996 -0.9 0  -0.5499999999999998 -0.9 0  -0.5 -0.9 0  -0.4500000000000002 -0.9 0  -0.4000000000000004 -0.9 0  -0.3499999999999996 -0.9 0  -0.2999999999999998 -0.9 0  -0.25 -0.9 0  -0.2000000000000002 -0.9 0  -0.1500000000000004 -0.9 0  -0.09999999999999964 -0.9 0  -0.04999999999999982 -0.9 0  0 -0.9 0  0.04999999999999982 -0.9 0  0.09999999999999964 -0.9 0  0.1500000000000004 -0.9 0  0.2000000000000002 -0.9 0  0.25 -0.9 0  0.2999999999999998 -0.9 0  0.3499999999999996 -0.9 0  0.4000000000000004 -0.9 0  0.4500000000000002 -0.9 0  0.5 -0.9 0  0.5499999999999998 -0.9 0  0.5999999999999996 -0.9 0  0.6500000000000004 -0.9 0  0.7000000000000002 -0.9 0  0.75 -0.9 0  0.7999999999999998 -0.9 0  0.8499999999999996 -0.9 0  0.9000000000000004 -0.9 0  0.9500000000000002 -0.9 0  1 -0.9 0  1.05 -0.9 0  1.1 -0.9 0  1.15 -0.9 0  1.2 -0.9 0  1.25 -0.9 0  1.3 -0.9 0  1.35 -0.9 0  1.4 -0.9 0  1.45 -0.9 0  1.5 -0.9 0  1.55 -0.9 0  1.6 -0.9 0  1.65 -0.9 0  1.7 -0.9 0  1.75 -0.9 0  1.8 -0.9 0  1.85 -0.9 0  1.9 -0.9 0  1.95 -0.9 0  2 -0.9 0  2.05 -0.9 0  2.1 -0.9 0  2.15 -0.9 0  2.2 -0.9 0  2.25 -0.9 0  2.3 -0.9 0  2.35 -0.9 0  2.4 -0.9 0  2.45 -0.9 0  2.5 -0.9 0  2.55 -0.9 0  2.6 -0.9 0  2.65 -0.9 0  2.7 -0.9 0  2.75 -0.9 0  2.8 -0.9 0  2.85 -0.9 0  2.9 -0.9 0  2.95 -0.9 0  3 -0.9 0  3.050000000000001 -0.9 0  3.1 -0.9 0  3.15 -0.9 0  3.199999999999999 -0.9 0  3.25 -0.9 0  3.300000000000001 -0.9 0  3.35 -0.9 0  3.4 -0.9 0  3.449999999999999 -0.9 0  3.5 -0.9 0  3.550000000000001 -0.9 0  3.6 -0.9 0  3.65 -0.9 0  3.699999999999999 -0.9 0  3.75 -0.9 0  3.800000000000001 -0.9 0  3.85 -0.9 0  3.9 -0.9 0  3.949999999999999 -0.9 0  4 -0.9 0  4.050000000000001 -0.9 0  4.1 -0.9 0  4.15 -0.9 0  4.199999999999999 -0.9 0  4.25 -0.9 0  4.300000000000001 -0.9 0  4.35 -0.9 0  4.4 -0.9 0  4.449999999999999 -0.9 0  4.5 -0.9 0  4.550000000000001 -0.9 0  4.6 -0.9 0  4.65 -0.9 0  4.699999999999999 -0.9 0  4.75 -0.9 0  4.800000000000001 -0.9 0  4.85 -0.9 0  4.9 -0.9 0  4.949999999999999 -0.9 0  5 -0.9 0  -5 -0.85 0  -4.95 -0.85 0  -4.9 -0.85 0  -4.85 -0.85 0  -4.8 -0.85 0  -4.75 -0.85 0  -4.7 -0.85 0  -4.65 -0.85 0  -4.6 -0.85 0  -4.55 -0.85 0  -4.5 -0.85 0  -
[...]
<PointData  Vectors="f_15"> 
<DataArray  type="Float64"  Name="f_15"  NumberOfComponents="3" format="ascii">9.9999996154939783e+00 0.0000000000000000e+00 0.0000000000000000e+00  1.0000000370805777e+01 3.0876080982528335e-07 0.0000000000000000e+00  9.9999996604049493e+00 -3.6744106074155855e-07 0.0000000000000000e+00  1.0000000372670039e+01 4.2191006488988330e-07 0.0000000000000000e+00  9.9999995863590119e+00 -4.5234086766673336e-07 0.0000000000000000e+00  1.0000000460255098e+01 4.9054232334233441e-07 0.0000000000000000e+00  9.9999994920497475e+00 -5.3620403429167915e-07 0.0000000000000000e+00  1.0000000564766673e+01 5.9184308141597014e-07 0.0000000000000000e+00  9.9999993649060688e+00 -6.5341476754226240e-07 0.0000000000000000e+00  1.0000000723594267e+01 7.1734060610532729e-07 0.0000000000000000e+00  9.9999991605906491e+00 -7.8307483785503387e-07 0.0000000000000000e+00  1.0000001006945574e+01 8.6169290332562057e-07 0.0000000000000000e+00  9.9999987299891089e+00 -9.7976535469959439e-07 0.0000000000000000e+00  1.0000001690663629e+01 1.1756308927972393e-06 0.0000000000000000e+00  9.9999976549267657e+00 -1.4911555569274661e-06 0.0000000000000000e+00  1.0000003332704591e+01 1.9717628979857273e-06 0.0000000000000000e+00  9.9999951981735542e+00 -2.6880190664742909e-06 0.0000000000000000e+00  1.0000006989831805e+01 3.7727162893193098e-06 0.0000000000000000e+00  9.9999897495249019e+00 -5.4540236284433289e-06 0.0000000000000000e+00  1.0000015065598287e+01 8.0594209188845101e-06 0.0000000000000000e+00  9.9999779590744708e+00 -1.2002535489533774e-05 0.0000000000000000e+00  1.0000031940719866e+01 1.7786168688169389e-05 0.0000000000000000e+00  9.9999542381120055e+00 -2.6074430957385573e-05 0.0000000000000000e+00  1.0000064860801690e+01 3.7812669366152841e-05 0.0000000000000000e+00  9.9999089733152342e+00 -5.4355815612154058e-05 0.0000000000000000e+00  1.0000126519342690e+01 7.7488808809418475e-05 0.0000000000000000e+00  9.9998259937820926e+00 -1.0941367951996553e-04 0.0000000000000000e+00  1.0000236617963763e+01 1.5267169984758299e-04 0.0000000000000000e+00  9.9996820147227616e+00 -2.1033962544629193e-04 0.0000000000000000e+00  1.0000422500513263e+01 2.8609392030274115e-04 0.0000000000000000e+00  9.9994447935222777e+00 -3.8467727912832916e-04 0.0000000000000000e+00  1.0000721912478470e+01 5.1139263610017172e-04 0.0000000000000000e+00  9.9990714392252116e+00 -6.7263026208707884e-04 0.0000000000000000e+00  1.0001181607173589e+01 8.7429999162389361e-04 0.0000000000000000e+00  9.9985128426528789e+00 -1.1238281728106580e-03 0.0000000000000000e+00  1.0001852068754694e+01 1.4269865368961984e-03 0.0000000000000000e+00  9.9977179724738185e+00 -1.7928464313663678e-03 0.0000000000000000e+00  1.0002783110127046e+01 2.2257175821701124e-03 0.0000000000000000e+00  9.9966413430832652e+00 -2.7357010347577554e-03 0.0000000000000000e+00  1.0004012529683523e+01 3.3219921134689584e-03 0.0000000000000000e+00  9.9952542637092154e+00 -3.9961124293133388e-03 0.0000000000000000e+00  1.0005559560019284e+01 4.7496468999873925e-03 0.0000000000000000e+00  9.9935484138482558e+00 -5.5974073100539421e-03 0.0000000000000000e+00  1.0007414698558817e+01 6.5167648684297886e-03 0.0000000000000000e+00  9.9915588928185617e+00 -7.5244288154206387e-03 0.0000000000000000e+00  1.0009514279458921e+01 8.5775974383081148e-03 0.0000000000000000e+00  9.9893670618749564e+00 -9.7051754009048578e-03 0.0000000000000000e+00  1.0011774779430958e+01 1.0848774018829398e-02 0.0000000000000000e+00  9.9870538954347818e+00 -1.2058633900121803e-02 0.0000000000000000e+00  1.0014097650332880e+01 1.3239330749632386e-02 0.0000000000000000e+00  9.9847705799245308e+00 -1.4449829915404786e-02 0.0000000000000000e+00  1.0016271411930902e+01 1.5537012564306089e-02 0.0000000000000000e+00  9.9827528444497879e+00 -1.6615647936745109e-02 0.0000000000000000e+00  1.0018117909049511e+01 1.7506120296475917e-02 0.0000000000000000e+00  9.9810892982239565e+00 -1.8435679273989061e-02 0.0000000000000000e+00  1.0019592600882016e+01 1.9118317070651175e-02 0.0000000000000000e+00  9.9799165159379424e+00 -1.9829697041446208e-02 0.0000000000000000e+00  1.0020384749931502e+01 2.0087206664257042e-02 0.0000000000000000e+00  9.9796251120551407e+00 -2.0307147951753469e-02 0.0000000000000000e+00  1.0020235036100580e+01 2.0031958540979947e-02 0.0000000000000000e+00  9.9800940753742218e+00 -1.9865376510269175e-02 0.0000000000000000e+00  1.0019456235190765e+01 1.9449078773075470e-02 0.0000000000000000e+00  9.9810421919225956e+00 -1.8900015220863698e-02 0.0000000000000000e+00  1.0017712470366371e+01 1.8280677929843982e-02 0.0000000000000000e+00  9.9829684398011587e+00 -1.6492700999890589e-02 0.0000000000000000e+00  1.0014421727411969e+01 1.5964782238972356e-02 0.0000000000000000e+00  9.9851638000421090e+00 -1.2658959726345823e-02 0.0000000000000000e+00  1.0010277928165598e+01 1.4368947873242255e-02 0.0000000000000000e+00  9.9859771320973376e+00 -8.2272435607015620e-03 0.0000000000000000e+00  1.0004122707631319e+01 1.4669580516238555e-02 0.0000000000000000e+00  9.9848009698725146e+00 -1.8598399001853468e-04 0.0000000000000000e+00  9.9928119671531590e+00 1.7906601540883124e-02 0.0000000000000000e+00  9.9774626552069474e+00 1.4376749457591978e-02 0.0000000000000000e+00  9.9732127777518969e+00 3.1418400937093201e-02 0.0000000000000000e+00  9.9559627377314150e+00 3.9929398530454518e-02 0.0000000000000000e+00  9.9363786120749271e+00 6.3651082110592963e-02 0.0000000000000000e+00  9.9106337846585912e+00 8.9568573495961035e-02 0.0000000000000000e+00  9.8684898825509642e+00 1.2639148020971297e-01 0.0000000000000000e+00  9.8255141736722322e+00 1.7746137056703720e-01 0.0000000000000000e+00  9.7538757174847444e+00 2.3912538710897974e-01 0.0000000000000000e+00  9.6829329400243438e+00 3.2078603728645300e-01 0.0000000000000000e+00  9.5745495713915147e+00 4.1829142999854951e-01 0.0000000000000000e+00  9.4670614428961066e+00 5.3901934918970429e-01 0.0000000000000000e+00  9.3174547752998791e+00 6.7964347842450656e-01 0.0000000000000000e+00  9.1673599699857409e+00 8.4280055035171886e-01 0.0000000000000000e+00  8.9749163583596676e+00 1.0349628335855958e+00 0.0000000000000000e+00  8.7829092776344257e+00 1.2403192513249328e+00 0.0000000000000000e+00  8.5488310954108240e+00 1.4829335010740927e+00 0.0000000000000000e+00  8.3179286947837401e+00 1.7357767111068281e+00 0.0000000000000000e+00  8.0492181703554024e+00 2.0228647788592613e+00 0.0000000000000000e+00  7.7847578893695655e+00 2.3148366625405954e+00 0.0000000000000000e+00  7.4885874568124757e+00 2.6559395019599830e+00 0.0000000000000000e+00  7.1995441120231307e+00 2.9785451424496774e+00 0.0000000000000000e+00  6.8831405910937349e+00 3.3482989142195332e+00 0.0000000000000000e+00  6.5784806845089800e+00 3.7275862922010270e+00 0.0000000000000000e+00  6.2511498367714626e+00 4.1158580829496110e+00 0.0000000000000000e+00  5.9366474824187421e+00 4.5178614572170881e+00 0.0000000000000000e+00  5.6080649165337793e+00 4.9448068322668446e+00 0.0000000000000000e+00  5.2918811601536344e+00 5.3709246645972257e+00 0.0000000000000000e+00  4.9655501221716412e+00 5.8107735305629191e+00 0.0000000000000000e+00  4.6559374421810213e+00 6.2621477590798520e+00 0.0000000000000000e+00  4.3605152781824810e+00 6.6919677592604625e+00 0.0000000000000000e+00  4.0571390267691747e+00 7.1510536943683984e+00 0.0000000000000000e+00  3.8357232650091899e+00 7.5008210874273455e+00 0.0000000000000000e+00  3.6946570284352118e+00 7.7285586490625331e+00 0.0000000000000000e+00  3.7710768006107904e+00 7.6031687856882533e+00 0.0000000000000000e+00  3.8445500941666024e+00 7.4802019533918305e+00 0.0000000000000000e+00  3.8913359651384467e+00 7.4050533916074182e+00 0.0000000000000000e+00  3.9002978938890580e+00 7.3866128522580476e+00 0.0000000000000000e+00  3.9146919874570805e+00 7.3598848241966062e+00 0.0000000000000000e+00  3.9162981314230958e+00 7.3461936656332760e+00 0.0000000000000000e+00  3.9203136804656395e+00 7.3242403432437202e+00 0.0000000000000000e+00  3.9136656079323582e+00 7.3009259779902989e+00 0.0000000000000000e+00  3.8994506748708275e+00 7.2591399329966446e+00 0.0000000000000000e+00  3.8605859998231620e+00 7.1886509968922789e+00 0.0000000000000000e+00  3.7850018211727434e+00 7.0566235545078468e+00 0.0000000000000000e+00  3.6350363781848256e+00 6.8027351526203050e+00 0.0000000000000000e+00  3.3738521730015214e+00 6.3394098543904933e+00 0.0000000000000000e+00  2.9259573888282957e+00 5.4719896013098408e+00 0.0000000000000000e+00  2.2809696889140483e+00 3.9702883061307914e+00 0.0000000000000000e+00  1.4493419143646751e+00 1.4804655248685490e+00 0.0000000000000000e+00  1.0537255061276878e+00 1.6457684096697639e-01 0.0000000000000000e+00  1.0030875934645473e+00 8.7527170454345278e-03 0.0000000000000000e+00  9.9997524312164920e-01 1.3021012531522476e-03 0.0000000000000000e+00  1.0000650467530861e+00 -1.4807556274318000e-04 0.0000000000000000e+00  1.0000160965653178e+00 -1.4423243117503001e-05 0.0000000000000000e+00  9.9997745946046146e-01 5.9951649564656799e-05 0.0000000000000000e+00  1.0000116582046268e+00 -3.4979971352408581e-05 0.0000000000000000e+00  9.9999884080547152e-01 6.2484457307609251e-06 0.0000000000000000e+00  9.9999686060750836e-01 7.5009818639646644e-06 0.0000000000000000e+00  1.0000027840137380e+00 -7.9440558589742917e-06 0.0000000000000000e+00  9.9999904062785316e-01 3.3075665887701641e-06 0.0000000000000000e+00  9.9999968908609060e-01 4.2608255854937422e-07 0.0000000000000000e+00  1.0000006104456503e+00 -1.5824989644201863e-06 0.0000000000000000e+00  9.9999963188428398e-01 1.0897002320202194e-06 0.0000000000000000e+00  1.0000000681591972e+00 -2.8103654606405157e-07 0.0000000000000000e+00  1.0000000772766240e+00 -1.6719108111841654e-07 0.0000000000000000e+00  9.9999991686808543e-01 2.2572782777121397e-07 0.0000000000000000e+00  1.0000000370479212e+00 -1.1480218731776944e-07 0.0000000000000000e+00  9.9999999994745625e-01 1.0804524548043263e-08 0.0000000000000000e+00  9.9999998763954479e-01 3.0219632067765538e-08 0.0000000000000000e+00  1.0000000094155925e+00 -2.6509189105563711e-08 0.0000000000000000e+00  9.9999999683769714e-01 1.0350034695438567e-08 0.0000000000000000e+00  9.9999999945779838e-01 4.6402311503113667e-10 0.0000000000000000e+00  1.0000000013114017e+00 -3.3643702834254910e-09 0.0000000000000000e+00  9.9999999926174299e-01 2.1683106480654497e-09 0.0000000000000000e+00  1.0000000001013598e+00 -4.5368098378157730e-10 0.0000000000000000e+00  1.0000000001721927e+00 -3.8656153468092110e-10 0.0000000000000000e+00  9.9999999983134413e-01 4.5131844153597201e-10 0.0000000000000000e+00  1.0000000000790248e+00 -2.3254537212950418e-10 0.0000000000000000e+00  9.9999999998738709e-01 4.8283316613446010e-11 0.0000000000000000e+00  9.9999999998942335e-01 2.4360163919967964e-11 0.0000000000000000e+00  1.0000000000091276e+00 -2.5954877359024206e-11 0.0000000000000000e+00  9.9999999999771605e-01 8.4078482405401753e-12 0.0000000000000000e+00  9.9999999999838129e-01 3.0862787097661948e-12 0.0000000000000000e+00  1.0000000000021396e+00 -5.4518966631310737e-12 0.0000000000000000e+00  9.9999999999874756e-01 3.4788624849933917e-12 0.0000000000000000e+00  1.0000000000004028e+00 -1.2248608895144364e-12 0.0000000000000000e+00  9.9999999999999312e-01 7.6885144075576817e-14 0.0000000000000000e+00  9.9999999999993638e-01 1.7537807577558323e-13 0.0000000000000000e+00  1.0000000000000233e+00 -8.2902931917527339e-14 0.0000000000000000e+00  1.0000000000000147e+00 -2.3629515952568405e-14 0.0000000000000000e+00  9.9999999999997702e-01 5.6387169575348720e-14 0.0000000000000000e+00  1.0000000000000167e+00 -4.2818689039427846e-14 0.0000000000000000e+00  9.9999999999999278e-01 2.0007420403373815e-14 0.0000000000000000e+00  1.0000000000000022e+00 -6.7742206480293581e-15 0.0000000000000000e+00  1.0000000000000000e+00 5.1350597191765585e-16 0.0000000000000000e+00  1.0000000000000004e+00 -5.6007387281590669e-16 0.0000000000000000e+00  1.0000000000000000e+00 2.0132200797743057e-15 0.0000000000000000e+00  1.0000000000000004e+00 -6.4023103158320633e-16 0.0000000000000000e+00  1.0000000000000000e+00 1.2151400182435178e-15 0.0000000000000000e+00  1.0000000000000007e+00 -9.0876745075782006e-16 0.0000000000000000e+00  1.0000000000000002e+00 1.8450986662659664e-16 0.0000000000000000e+00  1.0000000000000004e+00 -8.6052497703858926e-16 0.0000000000000000e+00  1.0000000000000002e+00 4.5392512901345001e-16 0.0000000000000000e+00  1.0000000000000004e+00 -8.7727259179380687e-16 0.0000000000000000e+00  1.0000000000000004e+00 1.9567207675262646e-15 0.0000000000000000e+00  1.0000000000000004e+00 -1.6165799461425861e-15 0.0000000000000000e+00  1.0000000000000002e+00 6.6768605436862347e-16 0.0000000000000000e+00  1.0000000000000009e+00 -1.2750885721518972e-15 0.0000000000000000e+00  1.0000000000000000e+00 4.7637560871769888e-17 0.0000000000000000e+00  1.0000000000000009e+00 -7.5440361220955624e-16 0.0000000000000000e+00  1.0000000000000004e+00 6.8135355571095435e-16 0.0000000000000000e+00  1.0000000000000007e+00 -3.0424791539014989e-16 0.0000000000000000e+00  1.0000000000000002e+00 1.5137783951123900e-15 0.0000000000000000e+00  1.0000000000000004e+00 -2.2281776360902986e-16 0.0000000000000000e+00  1.0000000000000002e+00 1.3162734363858832e-15 0.0000000000000000e+00  1.0000000000000004e+00 -2.1606828557028911e-16 0.0000000000000000e+00  1.0000000000000002e+00 1.9795267553646204e-15 0.0000000000000000e+00  1.0000000000000004e+00 -8.3740686671110449e-16 0.0000000000000000e+00  1.0000000000000000e+00 1.3857883682102682e-15 0.0000000000000000e+00  1.0000000000000002e+00 -1.4113114017241981e-15 0.0000000000000000e+00  1.0000000000000000e+00 8.9394663695349183e-16 0.0000000000000000e+00  1.0000000000000002e+00 -1.6358005152839057e-15 0.0000000000000000e+00  1.0000000000000002e+00 7.6223913826324205e-16 0.0000000000000000e+00  1.0000000000000002e+00 -1.3338034852981313e-15 0.0000000000000000e+00  1.0000000000000002e+00 7.7853172509693566e-16 0.0000000000000000e+00  1.0000000000000004e+00 -5.0156817216386816e-16 0.0000000000000000e+00  1.0000000000000000e+00 4.0569731883362345e-16 0.0000000000000000e+00  1.0000000000000004e+00 -3.4195735955344243e-16 0.0000000000000000e+00  1.0000000000000000e+00 0.0000000000000000e+00 0.0000000000000000e+00  9.9999998412301476e+00 0.0000000000000000e+00 -1.1990896126532053e-07  1.0000000167539106e+01 -3.7083810278329212e-08 2.5532143684405476e-08  9.9999998704124842e+00 -1.2290860182162519e-08 1.2664359641192449e-08  1.0000000110025280e+01 7.2805302230226592e-08 1.1906807045712699e-08  9.9999998935554082e+00 -1.0832062957583368e-07 -1.9761668072776451e-08  1.0000000116164069e+01 1.2542729139064490e-07 2.3689192739089834e-08  9.9999998718603536e+00 -1.3363238477740343e-07 -2.4657277997083993e-08  1.0000000136570439e+01 1.4139343787443944e-07 2.8115972246273462e-08  9.9999998579570395e+00 -1.5630968020957340e-07 -3.9129531630849148e-08  1.0000000144795347e+01 1.8257891823133799e-07 6.5318916642976639e-08  9.9999998604100977e+00 -2.2084060634383345e-07 -1.1911562472607704e-07  1.0000000112897400e+01 2.6796956344237448e-07 2.2086939492856764e-07  9.9999999503951376e+00 -3.2450240916504440e-07 -4.0178274783627420e-07  9.9999999396749200e+00 4.0430835847453207e-07 7.0674470186052946e-07  1.0000000220716482e+01 -5.3911325555838558e-07 -1.1990828868432438e-06  9.9999995575413081e+00 7.7107521461387781e-07 1.9688887951573410e-06  1.0000000759400114e+01 -1.1382879293288624e-06 -3.1466952162024611e-06  9.9999987641436512e+00 1.6719484069617880e-06 4.9196087822374997e-06  1.0000001948674173e+01 -2.4170657705772380e-06 -7.5484386029734709e-06  9.9999970358344754e+00 3.4720722600412458e-06 1.1382951950911916e-05  1.0000004326705971e+01 -5.0133784299415344e-06 -1.6882082553181991e-05  9.9999939069214641e+00 7.2832018504811568e-06 2.4642130963518441e-05  1.0000008375382134e+01 -1.0545066413265964e-05 -3.5439746212213640e-05  9.9999886315542383e+00 1.5065283892659263e-05 5.0276830651452750e-05  1.0000015296309636e+01 -2.1159419820099056e-05 -7.0420259969250818e-05  9.9999796579476641e+00 2.9301682770486040e-05 9.7420891321632413e-05  1.0000026589829076e+01 -4.0200955303021612e-05 -1.3312606376133685e-04  9.9999659078260414e+00 5.4778370021505281e-05 1.7969639432260790e-04  1.0000042950847901e+01 -7.4036549160112560e-05 -2.3963338435862549e-04  9.9999466169514406e+00 9.8974798095445910e-05 3.1580634590087052e-04  1.0000065592870918e+01 -1.3062885121832422e-04 -4.1140775544903137e-04  9.9999203608175673e+00 1.7027634816977187e-04 5.2988624437582570e-04  1.0000095324273277e+01 -2.1953123383166017e-04 -6.7474370159532665e-04  9.9998876663416212e+00 2.8028399916420839e-04 8.4950397774699170e-04  1.0000130383406335e+01 -3.5435343964416289e-04 -1.0574421647051562e-03  9.9998508014183791e+00 4.4332852968129166e-04 1.3017592308428485e-03  1.0000168479502230e+01 -5.4854947573480784e-04 -1.5849496002598407e-03  9.9998125477390953e+00 6.7130411198603531e-04 1.9091875882978099e-03  1.0000205847487191e+01 -8.1287873560427373e-04 -2.2750287874515294e-03  9.9997771407277121e+00 9.7385000228751833e-04 2.6827704658419498e-03  1.0000239789355202e+01 -1.1544776687354263e-03 -3.1303481916399329e-03  9.9997452287839277e+00 1.3534101742778339e-03 3.6163725093375800e-03  1.0000269625486462e+01 -1.5711225529428596e-03 -4.1357611090302856e-03  9.9997220720903286e+00 1.8055160276688783e-03 4.6850915128121987e-03  1.0000286153059845e+01 -2.0580754278728482e-03 -5.2549733411051828e-03  9.9997133812916061e+00 2.3207201913400203e-03 5.8405933142638465e-03  1.0000299189200177e+01 -2.5913818314325082e-03 -6.4296827875489548e-03  9.9996932726952501e+00 2.8552384882639423e-03 7.0191915732721747e-03  1.0000333513665428e+01 -3.1176722597336844e-03 -7.5938674634772677e-03  9.9996639393921463e+00 3.3728266907016194e-03 8.1503906716655569e-03  1.0000351985740247e+01 -3.6326413885842783e-03 -8.6668745086407473e-03  9.9996630499251111e+00 3.8858836934585693e-03 9.1417823324997701e-03  1.0000365315007333e+01 -4.1067855839529571e-03 -9.5551876956627042e-03  9.9996032799849761e+00 4.2892211696072425e-03 9.9157076410340706e-03  1.0000474849571603e+01 -4.3820943398304090e-03 -1.0205271727932721e-02  9.9994621385556304e+00 4.4924930466373747e-03 1.0426965285398790e-02  1.0000551542936558e+01 -4.5246903071681499e-03 -1.0552629014572958e-02  9.9994304998505505e+00 4.6902880432096918e-03 1.0580252078698622e-02  1.0000517060659812e+01 -4.6491489642618523e-03 -1.0504601586466955e-02  9.9993294298511657e+00 4.7155163088994975e-03 1.0341717689495079e-02  1.0000702340100020e+01 -4.3381584457398772e-03 -1.0105507366811513e-02  9.9989785271392009e+00 4.2610803403582203e-03 9.7840452656556658e-03  1.0000838766040626e+01 -3.7621819700428129e-03 -9.3626085272911254e-03  9.9989123865525151e+00 4.0422863386398574e-03 8.8212013104492087e-03  1.0000455109656368e+01 -3.4228109467401716e-03 -8.1810998581638757e-03  9.9987130826478321e+00 4.0302652523380817e-03 7.4994503392700213e-03  1.0000096247762745e+01 -2.0494876284548203e-03 -6.7764786788145027e-03  9.9973068086566901e+00 3.7968474447843243e-03 6.0672252519746164e-03  9.9986942947417976e+00 8.1928279640888064e-04 -5.2292950578144591e-03  9.9947057007781659e+00 5.9836475330541363e-03 4.3925902999565752e-03  9.9935998876740317e+00 5.5274652378248116e-03 -3.4206991098869734e-03  9.9880478663607253e+00 1.2845196691106080e-02 2.6178384833943462e-03  9.9826232214895576e+00 1.7476080147287996e-02 -1.7497632290954216e-03  9.9712741851001567e+00 2.7733550496125827e-02 1.0708477437784663e-03  9.9586857973169547e+00 4.2750945371538000e-02 -2.0720469271705657e-04  9.9371880951397316e+00 6.1515204274142241e-02 -5.2529121034852288e-04  9.9099566586126144e+00 9.0547347261429434e-02 1.3169226404335852e-03  9.8721181893765984e+00 1.2647009838167339e-01 -1.8490449514350874e-03  9.8225573660818402e+00 1.7835836712188194e-01 2.3419852560691381e-03  9.7588731288840691e+00 2.3844917382393263e-01 -2.7803993213846869e-03  9.6784182331814890e+00 3.2278594308776565e-01 3.2833161219410624e-03  9.5806