<?xml version="1.0"?>
<VTKFile type="UnstructuredGrid"  version="0.1"  >
<UnstructuredGrid>
<Piece  NumberOfPoints="8241" NumberOfCells="16000">
<Points>
<DataArray  type="Float64"  NumberOfComponents="3"  format="ascii">-5 -1 0  -4.95 -1 0  -4.9 -1 0  -4.85 -1 0  -4.8 -1 0  -4.75 -1 0  -4.7 -1 0  -4.65 -1 0  -4.6 -1 0  -4.55 -1 0  -4.5 -1 0  -4.45 -1 0  -4.4 -1 0  -4.35 -1 0  -4.3 -1 0  -4.25 -1 0  -4.2 -1 0  -4.15 -1 0  -4.1 -1 0  -4.05 -1 0  -4 -1 0  -3.95 -1 0  -3.9 -1 0  -3.85 -1 0  -3.8 -1 0  -3.75 -1 0  -3.7 -1 0  -3.65 -1 0  -3.6 -1 0  -3.55 -1 0  -3.5 -1 0  -3.45 -1 0  -3.4 -1 0  -3.35 -1 0  -3.3 -1 0  -3.25 -1 0  -3.2 -1 0  -3.15 -1 0  -3.1 -1 0  -3.05 -1 0  -3 -1 0  -2.95 -1 0  -2.9 -1 0  -2.85 -1 0  -2.8 -1 0  -2.75 -1 0  -2.7 -1 0  -2.65 -1 0  -2.6 -1 0  -2.55 -1 0  -2.5 -1 0  -2.45 -1 0  -2.4 -1 0  -2.35 -1 0  -2.3 -1 0  -2.25 -1 0  -2.2 -1 0  -2.15 -1 0  -2.1 -1 0  -2.05 -1 0  -2 -1 0  -1.95 -1 0  -1.9 -1 0  -1.85 -1 0  -1.8 -1 0  -1.75 -1 0  -1.7 -1 0  -1.65 -1 0  -1.6 -1 0  -1.55 -1 0  -1.5 -1 0  -1.45 -1 0  -1.4 -1 0  -1.35 -1 0  -1.3 -1 0  -1.25 -1 0  -1.2 -1 0  -1.15 -1 0  -1.1 -1 0  -1.05 -1 0  -1 -1 0  -0.9500000000000002 -1 0  -0.9000000000000004 -1 0  -0.8499999999999996 -1 0  -0.7999999999999998 -1 0  -0.75 -1 0  -0.7000000000000002 -1 0  -0.6500000000000004 -1 0  -0.5999999999999996 -1 0  -0.5499999999999998 -1 0  -0.5 -1 0  -0.4500000000000002 -1 0  -0.4000000000000004 -1 0  -0.3499999999999996 -1 0  -0.2999999999999998 -1 0  -0.25 -1 0  -0.2000000000000002 -1 0  -0.1500000000000004 -1 0  -0.09999999999999964 -1 0  -0.04999999999999982 -1 0  0 -1 0  0.04999999999999982 -1 0  0.09999999999999964 -1 0  0.1500000000000004 -1 0  0.2000000000000002 -1 0  0.25 -1 0  0.2999999999999998 -1 0  0.3499999999999996 -1 0  0.4000000000000004 -1 0  0.4500000000000002 -1 0  0.5 -1 0  0.5499999999999998 -1 0  0.5999999999999996 -1 0  0.6500000000000004 -1 0  0.7000000000000002 -1 0  0.75 -1 0  0.7999999999999998 -1 0  0.8499999999999996 -1 0  0.9000000000000004 -1 0  0.9500000000000002 -1 0  1 -1 0  1.05 -1 0  1.1 -1 0  1.15 -1 0  1.2 -1 0  1.25 -1 0  1.3 -1 0  1.35 -1 0  1.4 -1 0  1.45 -1 0  1.5 -1 0  1.55 -1 0  1.6 -1 0  1.65 -1 0  1.7 -1 0  1.75 -1 0  1.8 -1 0  1.85 -1 0  1.9 -1 0  1.95 -1 0  2 -1 0  2.05 -1 0  2.1 -1 0  2.15 -1 0  2.2 -1 0  2.25 -1 0  2.3 -1 0  2.35 -1 0  2.4 -1 0  2.45 -1 0  2.5 -1 0  2.55 -1 0  2.6 -1 0  2.65 -1 0  2.7 -1 0  2.75 -1 0  2.8 -1 0  2.85 -1 0  2.9 -1 0  2.95 -1 0  3 -1 0  3.050000000000001 -1 0  3.1 -1 0  3.15 -1 0  3.199999999999999 -1 0  3.25 -1 0  3.300000000000001 -1 0  3.35 -1 0  3.4 -1 0  3.449999999999999 -1 0  3.5 -1 0  3.550000000000001 -1 0  3.6 -1 0  3.65 -1 0  3.699999999999999 -1 0  3.75 -1 0  3.800000000000001 -1 0  3.85 -1 0  3.9 -1 0  3.949999999999999 -1 0  4 -1 0  4.050000000000001 -1 0  4.1 -1 0  4.15 -1 0  4.199999999999999 -1 0  4.25 -1 0  4.300000000000001 -1 0  4.35 -1 0  4.4 -1 0  4.449999999999999 -1 0  4.5 -1 0  4.550000000000001 -1 0  4.6 -1 0  4.65 -1 0  4.699999999999999 -1 0  4.75 -1 0  4.800000000000001 -1 0  4.85 -1 0  4.9 -1 0  4.949999999999999 -1 0  5 -1 0  -5 -0.95 0  -4.95 -0.95 0  -4.9 -0.95 0  -4.85 -0.95 0  -4.8 -0.95 0  -4.75 -0.95 0  -4.7 -0.95 0  -4.65 -0.95 0  -4.6 -0.95 0  -4.55 -0.95 0  -4.5 -0.95 0  -4.45 -0.95 0  -4.4 -0.95 0  -4.35 -0.95 0  -4.3 -0.95 0  -4.25 -0.95 0  -4.2 -0.95 0  -4.15 -0.95 0  -4.1 -0.95 0  -4.05 -0.95 0  -4 -0.95 0  -3.95 -0.95 0  -3.9 -0.95 0  -3.85 -0.95 0  -3.8 -0.95 0  -3.75 -0.95 0  -3.7 -0.95 0  -3.65 -0.95 0  -3.6 -0.95 0  -3.55 -0.95 0  -3.5 -0.95 0  -3.45 -0.95 0  -3.4 -0.95 0  -3.35 -0.95 0  -3.3 -0.95 0  -3.25 -0.95 0  -3.2 -0.95 0  -3.15 -0.95 0  -3.1 -0.95 0  -3.05 -0.95 0  -3 -0.95 0  -2.95 -0.95 0  -2.9 -0.95 0  -2.85 -0.95 0  -2.8 -0.95 0  -2.75 -0.95 0  -2.7 -0.95 0  -2.65 -0.95 0  -2.6 -0.95 0  -2.55 -0.95 0  -2.5 -0.95 0  -2.45 -0.95 0  -2.4 -0.95 0  -2.35 -0.95 0  -2.3 -0.95 0  -2.25 -0.95 0  -2.2 -0.95 0  -2.15 -0.95 0  -2.1 -0.95 0  -2.05 -0.95 0  -2 -0.95 0  -1.95 -0.95 0  -1.9 -0.95 0  -1.85 -0.95 0  -1.8 -0.95 0  -1.75 -0.95 0  -1.7 -0.95 0  -1.65 -0.95 0  -1.6 -0.95 0  -1.55 -0.95 0  -1.5 -0.95 0  -1.45 -0.95 0  -1.4 -0.95 0  -1.35 -0.95 0  -1.3 -0.95 0  -1.25 -0.95 0  -1.2 -0.95 0  -1.15 -0.95 0  -1.1 -0.95 0  -1.05 -0.95 0  -1 -0.95 0  -0.9500000000000002 -0.95 0  -0.9000000000000004 -0.95 0  -0.8499999999999996 -0.95 0  -0.7999999999999998 -0.95 0  -0.75 -0.95 0  -0.7000000000000002 -0.95 0  -0.6500000000000004 -0.95 0  -0.5999999999999996 -0.95 0  -0.5499999999999998 -0.95 0  -0.5 -0.95 0  -0.4500000000000002 -0.95 0  -0.4000000000000004 -0.95 0  -0.3499999999999996 -0.95 0  -0.2999999999999998 -0.95 0  -0.25 -0.95 0  -0.2000000000000002 -0.95 0  -0.1500000000000004 -0.95 0  -0.09999999999999964 -0.95 0  -0.04999999999999982 -0.95 0  0 -0.95 0  0.04999999999999982 -0.95 0  0.09999999999999964 -0.95 0  0.1500000000000004 -0.95 0  0.2000000000000002 -0.95 0  0.25 -0.95 0  0.2999999999999998 -0.95 0  0.3499999999999996 -0.95 0  0.4000000000000004 -0.95 0  0.4500000000000002 -0.95 0  0.5 -0.95 0  0.5499999999999998 -0.95 0  0.5999999999999996 -0.95 0  0.6500000000000004 -0.95 0  0.7000000000000002 -0.95 0  0.75 -0.95 0  0.7999999999999998 -0.95 0  0.8499999999999996 -0.95 0  0.9000000000000004 -0.95 0  0.9500000000000002 -0.95 0  1 -0.95 0  1.05 -0.95 0  1.1 -0.95 0  1.15 -0.95 0  1.2 -0.95 0  1.25 -0.95 0  1.3 -0.95 0  1.35 -0.95 0  1.4 -0.95 0  1.45 -0.95 0  1.5 -0.95 0  1.55 -0.95 0  1.6 -0.95 0  1.65 -0.95 0  1.7 -0.95 0  1.75 -0.95 0  1.8 -0.95 0  1.85 -0.95 0  1.9 -0.95 0  1.95 -0.95 0  2 -0.95 0  2.05 -0.95 0  2.1 -0.95 0  2.15 -0.95 0  2.2 -0.95 0  2.25 -0.95 0  2.3 -0.95 0  2.35 -0.95 0  2.4 -0.95 0  2.45 -0.95 0  2.5 -0.95 0  2.55 -0.95 0  2.6 -0.95 0  2.65 -0.95 0  2.7 -0.95 0  2.75 -0.95 0  2.8 -0.95 0  2.85 -0.95 0  2.9 -0.95 0  2.95 -0.95 0  3 -0.95 0  3.050000000000001 -0.95 0  3.1 -0.95 0  3.15 -0.95 0  3.199999999999999 -0.95 0  3.25 -0.95 0  3.300000000000001 -0.95 0  3.35 -0.95 0  3.4 -0.95 0  3.449999999999999 -0.95 0  3.5 -0.95 0  3.550000000000001 -0.95 0  3.6 -0.95 0  3.65 -0.95 0  3.699999999999999 -0.95 0  3.75 -0.95 0  3.800000000000001 -0.95 0  3.85 -0.95 0  3.9 -0.95 0  3.949999999999999 -0.95 0  4 -0.95 0  4.050000000000001 -0.95 0  4.1 -0.95 0  4.15 -0.95 0  4.199999999999999 -0.95 0  4.25 -0.95 0  4.300000000000001 -0.95 0  4.35 -0.95 0  4.4 -0.95 0  4.449999999999999 -0.95 0  4.5 -0.95 0  4.550000000000001 -0.95 0  4.6 -0.95 0  4.65 -0.95 0  4.699999999999999 -0.95 0  4.75 -0.95 0  4.800000000000001 -0.95 0  4.85 -0.95 0  4.9 -0.95 0  4.949999999999999 -0.95 0  5 -0.95 0  -5 -0.9 0  -4.95 -0.9 0  -4.9 -0.9 0  -4.85 -0.9 0  -4.8 -0.9 0  -4.75 -0.9 0  -4.7 -0.9 0  -4.65 -0.9 0  -4.6 -0.9 0  -4.55 -0.9 0  -4.5 -0.9 0  -4.45 -0.9 0  -4.4 -0.9 0  -4.35 -0.9 0  -4.3 -0.9 0  -4.25 -0.9 0  -4.2 -0.9 0  -4.15 -0.9 0  -4.1 -0.9 0  -4.05 -0.9 0  -4 -0.9 0  -3.95 -0.9 0  -3.9 -0.9 0  -3.85 -0.9 0  -3.8 -0.9 0  -3.75 -0.9 0  -3.7 -0.9 0  -3.65 -0.9 0  -3.6 -0.9 0  -3.55 -0.9 0  -3.5 -0.9 0  -3.45 -0.9 0  -3.4 -0.9 0  -3.35 -0.9 0  -3.3 -0.9 0  -3.25 -0.9 0  -3.2 -0.9 0  -3.15 -0.9 0  -3.1 -0.9 0  -3.05 -0.9 0  -3 -0.9 0  -2.95 -0.9 0  -2.9 -0.9 0  -2.85 -0.9 0  -2.8 -0.9 0  -2.75 -0.9 0  -2.7 -0.9 0  -2.65 -0.9 0  -2.6 -0.9 0  -2.55 -0.9 0  -2.5 -0.9 0  -2.45 -0.9 0  -2.4 -0.9 0  -2.35 -0.9 0  -2.3 -0.9 0  -2.25 -0.9 0  -2.2 -0.9 0  -2.15 -0.9 0  -2.1 -0.9 0  -2.05 -0.9 0  -2 -0.9 0  -1.95 -0.9 0  -1.9 -0.9 0  -1.85 -0.9 0  -1.8 -0.9 0  -1.75 -0.9 0  -1.7 -0.9 0  -1.65 -0.9 0  -1.6 -0.9 0  -1.55 -0.9 0  -1.5 -0.9 0  -1.45 -0.9 0  -1.4 -0.9 0  -1.35 -0.9 0  -1.3 -0.9 0  -1.25 -0.9 0  -1.2 -0.9 0  -1.15 -0.9 0  -1.1 -0.9 0  -1.05 -0.9 0  -1 -0.9 0  -0.9500000000000002 -0.9 0  -0.9000000000000004 -0.9 0  -0.8499999999999996 -0.9 0  -0.7999999999999998 -0.9 0  -0.75 -0.9 0  -0.7000000000000002 -0.9 0  -0.6500000000000004 -0.9 0  -0.5999999999999996 -0.9 0  -0.5499999999999998 -0.9 0  -0.5 -0.9 0  -0.4500000000000002 -0.9 0  -0.4000000000000004 -0.9 0  -0.3499999999999996 -0.9 0  -0.2999999999999998 -0.9 0  -0.25 -0.9 0  -0.2000000000000002 -0.9 0  -0.1500000000000004 -0.9 0  -0.09999999999999964 -0.9 0  -0.04999999999999982 -0.9 0  0 -0.9 0  0.04999999999999982 -0.9 0  0.09999999999999964 -0.9 0  0.1500000000000004 -0.9 0  0.2000000000000002 -0.9 0  0.25 -0.9 0  0.2999999999999998 -0.9 0  0.3499999999999996 -0.9 0  0.4000000000000004 -0.9 0  0.4500000000000002 -0.9 0  0.5 -0.9 0  0.5499999999999998 -0.9 0  0.5999999999999996 -0.9 0  0.6500000000000004 -0.9 0  0.7000000000000002 -0.9 0  0.75 -0.9 0  0.7999999999999998 -0.9 0  0.8499999999999996 -0.9 0  0.9000000000000004 -0.9 0  0.9500000000000002 -0.9 0  1 -0.9 0  1.05 -0.9 0  1.1 -0.9 0  1.15 -0.9 0  1.2 -0.9 0  1.25 -0.9 0  1.3 -0.9 0  1.35 -0.9 0  1.4 -0.9 0  1.45 -0.9 0  1.5 -0.9 0  1.55 -0.9 0  1.6 -0.9 0  1.65 -0.9 0  1.7 -0.9 0  1.75 -0.9 0  1.8 -0.9 0  1.85 -0.9 0  1.9 -0.9 0  1.95 -0.9 0  2 -0.9 0  2.05 -0.9 0  2.1 -0.9 0  2.15 -0.9 0  2.2 -0.9 0  2.25 -0.9 0  2.3 -0.9 0  2.35 -0.9 0  2.4 -0.9 0  2.45 -0.9 0  2.5 -0.9 0  2.55 -0.9 0  2.6 -0.9 0  2.65 -0.9 0  2.7 -0.9 0  2.75 -0.9 0  2.8 -0.9 0  2.85 -0.9 0  2.9 -0.9 0  2.95 -0.9 0  3 -0.9 0  3.050000000000001 -0.9 0  3.1 -0.9 0  3.15 -0.9 0  3.199999999999999 -0.9 0  3.25 -0.9 0  3.300000000000001 -0.9 0  3.35 -0.9 0  3.4 -0.9 0  3.449999999999999 -0.9 0  3.5 -0.9 0  3.550000000000001 -0.9 0  3.6 -0.9 0  3.65 -0.9 0  3.699999999999999 -0.9 0  3.75 -0.9 0  3.800000000000001 -0.9 0  3.85 -0.9 0  3.9 -0.9 0  3.949999999999999 -0.9 0  4 -0.9 0  4.050000000000001 -0.9 0  4.1 -0.9 0  4.15 -0.9 0  4.199999999999999 -0.9 0  4.25 -0.9 0  4.300000000000001 -0.9 0  4.35 -0.9 0  4.4 -0.9 0  4.449999999999999 -0.9 0  4.5 -0.9 0  4.550000000000001 -0.9 0  4.6 -0.9 0  4.65 -0.9 0  4.699999999999999 -0.9 0  4.75 -0.9 0  4.800000000000001 -0.9 0  4.85 -0.9 0  4.9 -0.9 0  4.949999999999999 -0.9 0  5 -0.9 0  -5 -0.85 0  -4.95 -0.85 0  -4.9 -0.85 0  -4.85 -0.85 0  -4.8 -0.85 0  -4.75 -0.85 0  -4.7 -0.85 0  -4.65 -0.85 0  -4.6 -0.85 0  -4.55 -0.85 0  -4.5 -0.85 0  -
[...]
<PointData  Vectors="f_15"> 
<DataArray  type="Float64"  Name="f_15"  NumberOfComponents="3" format="ascii">2.8484901313663973e+00 0.0000000000000000e+00 0.0000000000000000e+00  2.8492273171717368e+00 3.6017122855381334e-02 0.0000000000000000e+00  2.8452753223577796e+00 6.4610851769373118e-02 0.0000000000000000e+00  2.8439148270360972e+00 1.0169336315656541e-01 0.0000000000000000e+00  2.8369253150752525e+00 1.3533974048661299e-01 0.0000000000000000e+00  2.8328049829030446e+00 1.6703747185228141e-01 0.0000000000000000e+00  2.8241867480293017e+00 2.0416007887552370e-01 0.0000000000000000e+00  2.8167697495398034e+00 2.3271287762911866e-01 0.0000000000000000e+00  2.8064135899044200e+00 2.7137778718205008e-01 0.0000000000000000e+00  2.7971003061032915e+00 2.9746172547454081e-01 0.0000000000000000e+00  2.7843762387565754e+00 3.3798894919039441e-01 0.0000000000000000e+00  2.7733897578399684e+00 3.6137150593100154e-01 0.0000000000000000e+00  2.7595705647574542e+00 4.0341108367399559e-01 0.0000000000000000e+00  2.7464234465033277e+00 4.2514192349940078e-01 0.0000000000000000e+00  2.7316719683200441e+00 4.6871917051395817e-01 0.0000000000000000e+00  2.7177416255533999e+00 4.8774473670895185e-01 0.0000000000000000e+00  2.7013940582115294e+00 5.3520638868635440e-01 0.0000000000000000e+00  2.6869132251058190e+00 5.5004744960435414e-01 0.0000000000000000e+00  2.6702399489394639e+00 6.0187548781936917e-01 0.0000000000000000e+00  2.6544748479581863e+00 6.1299467268860042e-01 0.0000000000000000e+00  2.6375937087351935e+00 6.6991899609987970e-01 0.0000000000000000e+00  2.6218329418615931e+00 6.7480925314722251e-01 0.0000000000000000e+00  2.6038313801833342e+00 7.4066137575715663e-01 0.0000000000000000e+00  2.5881642737874091e+00 7.3630591027873282e-01 0.0000000000000000e+00  2.5702684676430056e+00 8.1236840200769722e-01 0.0000000000000000e+00  2.5537732433118245e+00 7.9861502534661577e-01 0.0000000000000000e+00  2.5358556844674180e+00 8.8554051328751027e-01 0.0000000000000000e+00  2.5199982448445750e+00 8.6080331290113643e-01 0.0000000000000000e+00  2.5007548186725006e+00 9.5919336898146623e-01 0.0000000000000000e+00  2.4857904764595706e+00 9.2631659727294013e-01 0.0000000000000000e+00  2.4661530348875869e+00 1.0298103558366456e+00 0.0000000000000000e+00  2.4513826061693389e+00 9.9415476072262876e-01 0.0000000000000000e+00  2.4308978158911292e+00 1.1056040362457324e+00 0.0000000000000000e+00  2.4178761251276857e+00 1.0506020897347763e+00 0.0000000000000000e+00  2.3952275102323157e+00 1.1978715547475065e+00 0.0000000000000000e+00  2.3840309485779194e+00 1.0967074711072382e+00 0.0000000000000000e+00  2.3602122311800136e+00 1.2876011960550429e+00 0.0000000000000000e+00  2.3501856375791670e+00 1.1669706636547041e+00 0.0000000000000000e+00  2.3247579795115181e+00 1.3388582252857135e+00 0.0000000000000000e+00  2.3174307503082914e+00 1.2789155332924111e+00 0.0000000000000000e+00  2.2894126207852166e+00 1.3607994270521000e+00 0.0000000000000000e+00  2.2837138354486850e+00 1.3951351006912072e+00 0.0000000000000000e+00  2.2556839394017927e+00 1.3992295548407534e+00 0.0000000000000000e+00  2.2484367202017879e+00 1.4828093638621602e+00 0.0000000000000000e+00  2.2223140404718897e+00 1.4670376160090237e+00 0.0000000000000000e+00  2.2138632896544910e+00 1.5511564730398875e+00 0.0000000000000000e+00  2.1885059226239543e+00 1.5445234381694646e+00 0.0000000000000000e+00  2.1802090930615772e+00 1.6254738085087523e+00 0.0000000000000000e+00  2.1544927366735060e+00 1.6064594519826665e+00 0.0000000000000000e+00  2.1473017710572351e+00 1.7152851931888899e+00 0.0000000000000000e+00  2.1198843285218283e+00 1.6687215924578929e+00 0.0000000000000000e+00  2.1149151817715852e+00 1.7874758652996283e+00 0.0000000000000000e+00  2.0861378644899045e+00 1.7507603318720761e+00 0.0000000000000000e+00  2.0814037541304589e+00 1.8554368861375081e+00 0.0000000000000000e+00  2.0537083286098130e+00 1.8229791453888708e+00 0.0000000000000000e+00  2.0479521543688910e+00 1.9306058550575367e+00 0.0000000000000000e+00  2.0207460409962490e+00 1.8975845680265069e+00 0.0000000000000000e+00  2.0158035765144526e+00 1.9982956068412827e+00 0.0000000000000000e+00  1.9879082826471652e+00 1.9757182865045380e+00 0.0000000000000000e+00  1.9834728266253889e+00 2.0633540732513733e+00 0.0000000000000000e+00  1.9568188850390491e+00 2.0521993886979919e+00 0.0000000000000000e+00  1.9512664879226267e+00 2.1313757403545437e+00 0.0000000000000000e+00  1.9263957437339378e+00 2.1233529244752805e+00 0.0000000000000000e+00  1.9211600463580527e+00 2.1938175579475776e+00 0.0000000000000000e+00  1.8968563404085284e+00 2.1970231415460755e+00 0.0000000000000000e+00  1.8932035124769369e+00 2.2513992847408120e+00 0.0000000000000000e+00  1.8713244625883187e+00 2.2597796022015233e+00 0.0000000000000000e+00  1.8685980209539106e+00 2.3024153292452927e+00 0.0000000000000000e+00  1.8524720537313488e+00 2.3069840860677857e+00 0.0000000000000000e+00  1.8523451094067784e+00 2.3360595820180023e+00 0.0000000000000000e+00  1.8420649396600535e+00 2.3355303686000406e+00 0.0000000000000000e+00  1.8465507102374168e+00 2.3432732046774540e+00 0.0000000000000000e+00  1.8411395448857497e+00 2.3433257934873253e+00 0.0000000000000000e+00  1.8456937693934845e+00 2.3382270916492129e+00 0.0000000000000000e+00  1.8438401676615053e+00 2.3455774040889739e+00 0.0000000000000000e+00  1.8460288176452739e+00 2.3285397683201579e+00 0.0000000000000000e+00  1.8449530533477374e+00 2.3508934861724562e+00 0.0000000000000000e+00  1.8466806738110055e+00 2.3192480443479715e+00 0.0000000000000000e+00  1.8463378207629009e+00 2.3545599184117676e+00 0.0000000000000000e+00  1.8459933262937305e+00 2.3153115022316175e+00 0.0000000000000000e+00  1.8481131168462148e+00 2.3546732696225150e+00 0.0000000000000000e+00  1.8459456783835988e+00 2.3122186676990495e+00 0.0000000000000000e+00  1.8481659690875485e+00 2.3559572002160438e+00 0.0000000000000000e+00  1.8463429685831596e+00 2.3111671454407481e+00 0.0000000000000000e+00  1.8491952892719461e+00 2.3534598894690673e+00 0.0000000000000000e+00  1.8452965150052878e+00 2.3136815311544465e+00 0.0000000000000000e+00  1.8504977775555989e+00 2.3496468206804644e+00 0.0000000000000000e+00  1.8449651064328558e+00 2.3157748541764009e+00 0.0000000000000000e+00  1.8500822880999990e+00 2.3486733009110381e+00 0.0000000000000000e+00  1.8456140740722196e+00 2.3162809773960769e+00 0.0000000000000000e+00  1.8506818265312057e+00 2.3457471858016548e+00 0.0000000000000000e+00  1.8447485880777701e+00 2.3189110754084497e+00 0.0000000000000000e+00  1.8513784991789115e+00 2.3435304056925763e+00 0.0000000000000000e+00  1.8447588489525601e+00 2.3197832738523165e+00 0.0000000000000000e+00  1.8508112571745632e+00 2.3435426069192178e+00 0.0000000000000000e+00  1.8454441514114965e+00 2.3191692039021548e+00 0.0000000000000000e+00  1.8508964879554697e+00 2.3427784602066324e+00 0.0000000000000000e+00  1.8448665854990736e+00 2.3204335414578492e+00 0.0000000000000000e+00  1.8512422076739150e+00 2.3419314840440655e+00 0.0000000000000000e+00  1.8452854703237298e+00 2.3196313504647552e+00 0.0000000000000000e+00  1.8504790511752480e+00 2.3434057797029650e+00 0.0000000000000000e+00  1.8456056693546472e+00 2.3183058103636602e+00 0.0000000000000000e+00  1.8510036466795057e+00 2.3432934535285552e+00 0.0000000000000000e+00  1.8447242947515208e+00 2.3186805845324594e+00 0.0000000000000000e+00  1.8519013846211727e+00 2.3423341463108924e+00 0.0000000000000000e+00  1.8438097172278811e+00 2.3198755378093079e+00 0.0000000000000000e+00  1.8527778820290497e+00 2.3406820265162578e+00 0.0000000000000000e+00  1.8430014657677583e+00 2.3210287901267939e+00 0.0000000000000000e+00  1.8537509100801717e+00 2.3387604254113170e+00 0.0000000000000000e+00  1.8420728859203475e+00 2.3229610004115995e+00 0.0000000000000000e+00  1.8540621482049879e+00 2.3373692465789464e+00 0.0000000000000000e+00  1.8419051644799587e+00 2.3234391959761473e+00 0.0000000000000000e+00  1.8552895587550922e+00 2.3347175159607816e+00 0.0000000000000000e+00  1.8396268555050919e+00 2.3270162673701380e+00 0.0000000000000000e+00  1.8570752143732541e+00 2.3315924246371966e+00 0.0000000000000000e+00  1.8389757780580658e+00 2.3274512401479135e+00 0.0000000000000000e+00  1.8575114961907999e+00 2.3303295390924141e+00 0.0000000000000000e+00  1.8377358202361747e+00 2.3302056005361962e+00 0.0000000000000000e+00  1.8591508979611322e+00 2.3261151719525364e+00 0.0000000000000000e+00  1.8366679979234943e+00 2.3332401547783403e+00 0.0000000000000000e+00  1.8585446912311840e+00 2.3253542892291845e+00 0.0000000000000000e+00  1.8393712770255672e+00 2.3302247040438342e+00 0.0000000000000000e+00  1.8543841623132897e+00 2.3308645884836858e+00 0.0000000000000000e+00  1.8431357964015993e+00 2.3250900680673352e+00 0.0000000000000000e+00  1.8520111647373692e+00 2.3334465394443926e+00 0.0000000000000000e+00  1.8450601459060609e+00 2.3228514672255351e+00 0.0000000000000000e+00  1.8487661677636376e+00 2.3390483959829380e+00 0.0000000000000000e+00  1.8494014459362897e+00 2.3136581111946062e+00 0.0000000000000000e+00  1.8451093245199939e+00 2.3473883391510917e+00 0.0000000000000000e+00  1.8509464077890319e+00 2.3086135775483427e+00 0.0000000000000000e+00  1.8450575179740161e+00 2.3494440572393454e+00 0.0000000000000000e+00  1.8505811834481911e+00 2.3065965193895286e+00 0.0000000000000000e+00  1.8453425017967777e+00 2.3522380300244579e+00 0.0000000000000000e+00  1.8500863563849386e+00 2.3039694510198232e+00 0.0000000000000000e+00  1.8460381427039123e+00 2.3528928704033181e+00 0.0000000000000000e+00  1.8493819486203935e+00 2.3022197467581980e+00 0.0000000000000000e+00  1.8467097888202684e+00 2.3496396768770311e+00 0.0000000000000000e+00  1.8485305370561780e+00 2.2993808668410454e+00 0.0000000000000000e+00  1.8476686515626461e+00 2.3432649403299752e+00 0.0000000000000000e+00  1.8479789317015656e+00 2.2950183529837922e+00 0.0000000000000000e+00  1.8473176583240825e+00 2.3376389466721217e+00 0.0000000000000000e+00  1.8491825999736466e+00 2.2902995410470917e+00 0.0000000000000000e+00  1.8458318797308164e+00 2.3349429865942399e+00 0.0000000000000000e+00  1.8503968926521550e+00 2.2895023709499123e+00 0.0000000000000000e+00  1.8448580363770406e+00 2.3347451125492369e+00 0.0000000000000000e+00  1.8516549692077240e+00 2.2918187319226773e+00 0.0000000000000000e+00  1.8429090272300050e+00 2.3386591492810367e+00 0.0000000000000000e+00  1.8540636874884311e+00 2.2940719782025432e+00 0.0000000000000000e+00  1.8406669130303199e+00 2.3430722693574935e+00 0.0000000000000000e+00  1.8558947329424786e+00 2.2976061559810113e+00 0.0000000000000000e+00  1.8388317592999817e+00 2.3459319868743398e+00 0.0000000000000000e+00  1.8581894959795746e+00 2.2991649109048709e+00 0.0000000000000000e+00  1.8365120154509538e+00 2.3484494056157490e+00 0.0000000000000000e+00  1.8598718648071499e+00 2.3010334248065329e+00 0.0000000000000000e+00  1.8360942930676218e+00 2.3467527929862273e+00 0.0000000000000000e+00  1.8603161445175416e+00 2.3037045151760376e+00 0.0000000000000000e+00  1.8357364589286522e+00 2.3447926827487668e+00 0.0000000000000000e+00  1.8618560001848672e+00 2.3041571211075471e+00 0.0000000000000000e+00  1.8360559434292960e+00 2.3397022074143878e+00 0.0000000000000000e+00  1.8622789729003342e+00 2.3064476632692696e+00 0.0000000000000000e+00  1.8387268676610564e+00 2.3308753186754436e+00 0.0000000000000000e+00  1.8631975805022511e+00 2.3049932319286603e+00 0.0000000000000000e+00  1.8421398444996626e+00 2.3215621381165952e+00 0.0000000000000000e+00  1.8643841559648509e+00 2.3032560946914700e+00 0.0000000000000000e+00  1.8486892337801004e+00 2.3050213445357737e+00 0.0000000000000000e+00  1.8651253381941111e+00 2.3025575804861478e+00 0.0000000000000000e+00  1.8550111737482211e+00 2.2903290241467253e+00 0.0000000000000000e+00  1.8691942094581957e+00 2.2953786743281817e+00 0.0000000000000000e+00  1.8597506566055988e+00 2.2772615292870952e+00 0.0000000000000000e+00  1.8713064846905199e+00 2.2947690716306832e+00 0.0000000000000000e+00  1.8675131722762792e+00 2.2584641753847530e+00 0.0000000000000000e+00  1.8702659902776377e+00 2.2972109642470278e+00 0.0000000000000000e+00  1.8713412092481982e+00 2.2510020553079579e+00 0.0000000000000000e+00  1.8735800269587828e+00 2.2919746805522032e+00 0.0000000000000000e+00  1.8685715876920086e+00 2.2519849019596969e+00 0.0000000000000000e+00  1.8752651886020040e+00 2.2943036745509566e+00 0.0000000000000000e+00  1.8685901307507617e+00 2.2495163795187012e+00 0.0000000000000000e+00  1.8708701581488889e+00 2.3017743639965724e+00 0.0000000000000000e+00  1.8679277409294923e+00 2.2559347467791073e+00 0.0000000000000000e+00  1.8696353775013583e+00 2.3029878836722366e+00 0.0000000000000000e+00  1.8612905382987071e+00 2.2710342736656282e+00 0.0000000000000000e+00  1.8700739724598610e+00 2.3021341464705256e+00 0.0000000000000000e+00  1.8568208153302292e+00 2.2807866535333359e+00 0.0000000000000000e+00  1.8659852300418305e+00 2.2946103022572917e+00 0.0000000000000000e+00  1.8559033229737925e+00 2.2762989820187300e+00 0.0000000000000000e+00  1.8616625245208391e+00 2.2726217401319211e+00 0.0000000000000000e+00  1.8543207278216776e+00 2.2602137289436186e+00 0.0000000000000000e+00  1.8568760123547365e+00 2.2478466042367375e+00 0.0000000000000000e+00  1.8540738935333285e+00 2.2515715196740449e+00 0.0000000000000000e+00  1.8466538067781906e+00 2.2317776091389927e+00 0.0000000000000000e+00  1.8389965017442471e+00 2.2285882292429400e+00 0.0000000000000000e+00  1.8024586357075325e+00 2.1475102760381635e+00 0.0000000000000000e+00  1.7392461992254717e+00 2.0411944137278679e+00 0.0000000000000000e+00  1.6114890173223022e+00 1.6913748741817833e+00 0.0000000000000000e+00  1.3021066308481568e+00 8.9777597822602351e-01 0.0000000000000000e+00  1.0749150295892160e+00 2.4848230604808341e-01 0.0000000000000000e+00  1.0280851118251595e+00 2.6826900823565307e-02 0.0000000000000000e+00  9.9352481012818739e-01 2.3548746221799460e-02 0.0000000000000000e+00  1.0204404724866207e+00 -1.3451333047531995e-02 0.0000000000000000e+00  9.9305891490270282e-01 1.0538406976045481e-02 0.0000000000000000e+00  1.0211431372165545e+00 0.0000000000000000e+00 0.0000000000000000e+00  2.8519916407817063e+00 0.0000000000000000e+00 -1.6490601348829997e-03  2.8509229196222909e+00 3.5391849877895315e-02 -5.5132588214593266e-04  2.8497919281338708e+00 7.2928800820989459e-02 3.2685264736391877e-03  2.8460265781985443e+00 1.0692122110701828e-01 -2.7970780336415849e-03  2.8419189911768035e+00 1.4241733920613936e-01 2.8797989555689497e-03  2.8363800118832168e+00 1.7641318087499328e-01 -2.7748149322340096e-03  2.8290468599969616e+00 2.1210919360303809e-01 3.1050060071058597e-03  2.8214121745381453e+00 2.4421419043274653e-01 -3.0376666041485164e-03  2.8122315702463512e+00 2.8007406583627525e-01 3.3106179176021168e-03  2.8019086263835926e+00 3.1147553148738627e-01 -3.3513586384865896e-03  2.7909728856773741e+00 3.4677875909181255e-01 3.5430927423392676e-03  2.7792803274467324e+00 3.7740491171191698e-01 -3.5862399401105334e-03  2.7660382892841682e+00 4.1292063785249050e-01 3.7520313493030963e-03  2.7531631187808228e+00 4.4269698100660310e-01 -3.8413197107516829e-03  2.7389358736385541e+00 4.7779021478509243e-01 4.0544769778524279e-03  2.7242864371878128e+00 5.0817986037223140e-01 -4.2197698888536599e-03  2.7092733543349743e+00 5.4243480419091106e-01 4.4474340952774779e-03  2.6941569923994915e+00 5.7290725791156627e-01 -4.6537284065343949e-03  2.6776563612789492e+00 6.0788966603993844e-01 4.8819301273352253e-03  2.6622369649554711e+00 6.3796968225847428e-01 -5.1193722538255600e-03  2.6455312629264829e+00 6.7285418041726508e-01 5.3628554306747360e-03  2.6289705057940118e+00 7.0447552343290276e-01 -5.5982799644944820e-03  2.6121649022257327e+00 7.3834121367415073e-01 5.7980575031394734e-03  2.5957094154235185e+00 7.7073446139280422e-01 -5.9226477470092128e-03  2.5778966709133804e+00 8.0547599492788990e-01 5.8184381957542049e-03  2.5614758312003527e+00 8.3766009087318072e-01 -5.4289601345703401e-03  2.5440632114170323e+00 8.7238060880207047e-01 4.5325296275088587e-03  2.5264689066818296e+00 9.0619572088036648e-01 -3.2057025015882969e-03  2.5095721958386088e+00 9.4006931274508243e-01 1.5079160575564756e-03  2.4919799258392064e+00 9.7448091644910839e-01 7.7997986915902712e-05  2.4745070798477014e+00 1.0083400697017237e+00 -1.0842589754993012e-03  2.4570061390521687e+00 1.0458506839675983e+00 9.1022702629356010e-04  2.4398693465556089e+00 1.0721219925198660e+00 6.0773669642286035e-04  2.4218480231434012e+00 1.1222699846058495e+00 -2.8889423117500366e-03  2.4044376273920176e+00 1.1360068659578932e+00 5.4262166655768378e-03  2.3875305810221810e+00 1.1918301638607376e+00 -7.3772419717779564e-03  2.3684440955644299e+00 1.2141462891196462e+00 9.7872192294180555e-03  2.3530705254896063e+00 1.2447006844584683e+00 -1.5152173690872387e-02  2.3325040705878739e+00 1.3069464910662898e+00 2.5748076719597588e-02  2.3194470911107130e+00 1.2903401101729373e+00 -4.3178687007958141e-02  2.2949018826871477e+00 1.4018516704721913e+00 6.5160813456477909e-02  2.2873943189596795e+00 1.3402405496864778e+00 -8.3784239311076272e-02  2.2570835744502640e+00 1.4907992258974501e+00 9.5267662560771668e-02  2.2535730245164505e+00 1.4031760636443660e+00 -9.0897649412757991e-02  2.2227793703591825e+00 1.5585476746570697e+00 7.7179337991742675e-02  2.2169848911426873e+00 1.4921486068959051e+00 -5.5999308802767198e-02  2.1905324552494787e+00 1.6052616559941169e+00 3.7827486241913559e-02  2.1803249448325333e+00 1.5841303381903404e+00 -2.5904422206119812e-02  2.1578631402325295e+00 1.6660239114481210e+00 2.1134517192293135e-02  2.1446464722282967e+00 1.6601755612048925e+00 -2.0635274942403498e-02  2.1247328093328908e+00 1.7307417470314859e+00 1.9706205514956863e-02  2.1102457802546279e+00 1.7429519142390684e+00 -1.7365331595629939e-02  2.0907779538010534e+00 1.7934540544348252e+00 1.2995970973788851e-02  2.0769689950589973e+00 1.8164038928279251e+00 -1.0487279377263322e-02  2.0572596960462834e+00 1.8670965208871750e+00 8.6104338517980095e-03  2.0432054389105718e+00 1.8892650225124412e+00 -7.9452164721366264e-03  2.0251058442583014e+00 1.9338440366741487e+00 6.3659803403415685e-03  2.0097553832585739e+00 1.9657741336326744e+00 -5.6253085210482088e-03  1.9926149689713029e+00 2.0023456627339451e+00 5.1564586959807297e-03  1.9781058199711481e+00 2.0380954673238523e+00 -5.4044863856133043e-03  1.9600675781422761e+00 2.0745697500992741e+00 5.4209887036344448e-03  1.9469646719783706e+00 2.1052236533273554e+00 -6.1747941860746721e-03  1.9293209035826582e+00 2.1449173090892297e+00 6.9570545127725534e-03  1.9165462310477179e+00 2.1753855890747826e+00 -7.6480759816351680e-03  1.9000785095218740e+00 2.2099561949067472e+00 8.2069559063953704e-03  1.8894048237881627e+00 2.2359234315748275e+00 -9.3535329754991983e-03  1.8730398216361910e+00 2.2735256342236858e+00 1.0375198197244221e-02  1.8668765105864917e+00 2.2865453845666233e+00 -1.0977203866921406e-02  1.8525802620901486e+00 2.3219455180868955e+00 1.1358136124553560e-02  1.8509595853993419e+00 2.3225091109311440e+00 -1.1985397856074335e-02  1.8423120524726824e+00 2.3451936884598328e+00 1.2384995714457982e-02  1.8458045271101056e+00 2.3352399023446462e+00 -1.2732681358037106e-02  1.8400949169642338e+00 2.3506515020151664e+00 1.3267014013258577e-02  1.8472804875901672e+00 2.3324220420919373e+00 -1.3748141357187441e-02  1.8411856733321759e+00 2.3473494353379660e+00 1.3773023382361291e-02  1.8478459928696336e+00 2.3312043059712022e+00 -1.3809257723339956e-02  1.8428669369003352e+00 2.3445254782852696e+00 1.3832432364014552e-02  1.8487872208830689e+00 2.3284287619607826e+00 -1.3744816462605128e-02  1.8431323692381629e+00 2.3449797777430703e+00 1.3443831881261152e-02  1.8498966816838105e+00 2.3245376056974827e+00 -1.3237154960739884e-02  1.8437892202547985e+00 2.3448914257582767e+00 1.2766110958697539e-02  1.8494020552110200e+00 2.3245524832879845e+00 -1.2168955843673532e-02  1.8450152353368048e+00 2.343534909810616