<?xml version="1.0"?>
<VTKFile type="UnstructuredGrid"  version="0.1"  >
<UnstructuredGrid>
<Piece  NumberOfPoints="8241" NumberOfCells="16000">
<Points>
<DataArray  type="Float64"  NumberOfComponents="3"  format="ascii">-5 -1 0  -4.95 -1 0  -4.9 -1 0  -4.85 -1 0  -4.8 -1 0  -4.75 -1 0  -4.7 -1 0  -4.65 -1 0  -4.6 -1 0  -4.55 -1 0  -4.5 -1 0  -4.45 -1 0  -4.4 -1 0  -4.35 -1 0  -4.3 -1 0  -4.25 -1 0  -4.2 -1 0  -4.15 -1 0  -4.1 -1 0  -4.05 -1 0  -4 -1 0  -3.95 -1 0  -3.9 -1 0  -3.85 -1 0  -3.8 -1 0  -3.75 -1 0  -3.7 -1 0  -3.65 -1 0  -3.6 -1 0  -3.55 -1 0  -3.5 -1 0  -3.45 -1 0  -3.4 -1 0  -3.35 -1 0  -3.3 -1 0  -3.25 -1 0  -3.2 -1 0  -3.15 -1 0  -3.1 -1 0  -3.05 -1 0  -3 -1 0  -2.95 -1 0  -2.9 -1 0  -2.85 -1 0  -2.8 -1 0  -2.75 -1 0  -2.7 -1 0  -2.65 -1 0  -2.6 -1 0  -2.55 -1 0  -2.5 -1 0  -2.45 -1 0  -2.4 -1 0  -2.35 -1 0  -2.3 -1 0  -2.25 -1 0  -2.2 -1 0  -2.15 -1 0  -2.1 -1 0  -2.05 -1 0  -2 -1 0  -1.95 -1 0  -1.9 -1 0  -1.85 -1 0  -1.8 -1 0  -1.75 -1 0  -1.7 -1 0  -1.65 -1 0  -1.6 -1 0  -1.55 -1 0  -1.5 -1 0  -1.45 -1 0  -1.4 -1 0  -1.35 -1 0  -1.3 -1 0  -1.25 -1 0  -1.2 -1 0  -1.15 -1 0  -1.1 -1 0  -1.05 -1 0  -1 -1 0  -0.9500000000000002 -1 0  -0.9000000000000004 -1 0  -0.8499999999999996 -1 0  -0.7999999999999998 -1 0  -0.75 -1 0  -0.7000000000000002 -1 0  -0.6500000000000004 -1 0  -0.5999999999999996 -1 0  -0.5499999999999998 -1 0  -0.5 -1 0  -0.4500000000000002 -1 0  -0.4000000000000004 -1 0  -0.3499999999999996 -1 0  -0.2999999999999998 -1 0  -0.25 -1 0  -0.2000000000000002 -1 0  -0.1500000000000004 -1 0  -0.09999999999999964 -1 0  -0.04999999999999982 -1 0  0 -1 0  0.04999999999999982 -1 0  0.09999999999999964 -1 0  0.1500000000000004 -1 0  0.2000000000000002 -1 0  0.25 -1 0  0.2999999999999998 -1 0  0.3499999999999996 -1 0  0.4000000000000004 -1 0  0.4500000000000002 -1 0  0.5 -1 0  0.5499999999999998 -1 0  0.5999999999999996 -1 0  0.6500000000000004 -1 0  0.7000000000000002 -1 0  0.75 -1 0  0.7999999999999998 -1 0  0.8499999999999996 -1 0  0.9000000000000004 -1 0  0.9500000000000002 -1 0  1 -1 0  1.05 -1 0  1.1 -1 0  1.15 -1 0  1.2 -1 0  1.25 -1 0  1.3 -1 0  1.35 -1 0  1.4 -1 0  1.45 -1 0  1.5 -1 0  1.55 -1 0  1.6 -1 0  1.65 -1 0  1.7 -1 0  1.75 -1 0  1.8 -1 0  1.85 -1 0  1.9 -1 0  1.95 -1 0  2 -1 0  2.05 -1 0  2.1 -1 0  2.15 -1 0  2.2 -1 0  2.25 -1 0  2.3 -1 0  2.35 -1 0  2.4 -1 0  2.45 -1 0  2.5 -1 0  2.55 -1 0  2.6 -1 0  2.65 -1 0  2.7 -1 0  2.75 -1 0  2.8 -1 0  2.85 -1 0  2.9 -1 0  2.95 -1 0  3 -1 0  3.050000000000001 -1 0  3.1 -1 0  3.15 -1 0  3.199999999999999 -1 0  3.25 -1 0  3.300000000000001 -1 0  3.35 -1 0  3.4 -1 0  3.449999999999999 -1 0  3.5 -1 0  3.550000000000001 -1 0  3.6 -1 0  3.65 -1 0  3.699999999999999 -1 0  3.75 -1 0  3.800000000000001 -1 0  3.85 -1 0  3.9 -1 0  3.949999999999999 -1 0  4 -1 0  4.050000000000001 -1 0  4.1 -1 0  4.15 -1 0  4.199999999999999 -1 0  4.25 -1 0  4.300000000000001 -1 0  4.35 -1 0  4.4 -1 0  4.449999999999999 -1 0  4.5 -1 0  4.550000000000001 -1 0  4.6 -1 0  4.65 -1 0  4.699999999999999 -1 0  4.75 -1 0  4.800000000000001 -1 0  4.85 -1 0  4.9 -1 0  4.949999999999999 -1 0  5 -1 0  -5 -0.95 0  -4.95 -0.95 0  -4.9 -0.95 0  -4.85 -0.95 0  -4.8 -0.95 0  -4.75 -0.95 0  -4.7 -0.95 0  -4.65 -0.95 0  -4.6 -0.95 0  -4.55 -0.95 0  -4.5 -0.95 0  -4.45 -0.95 0  -4.4 -0.95 0  -4.35 -0.95 0  -4.3 -0.95 0  -4.25 -0.95 0  -4.2 -0.95 0  -4.15 -0.95 0  -4.1 -0.95 0  -4.05 -0.95 0  -4 -0.95 0  -3.95 -0.95 0  -3.9 -0.95 0  -3.85 -0.95 0  -3.8 -0.95 0  -3.75 -0.95 0  -3.7 -0.95 0  -3.65 -0.95 0  -3.6 -0.95 0  -3.55 -0.95 0  -3.5 -0.95 0  -3.45 -0.95 0  -3.4 -0.95 0  -3.35 -0.95 0  -3.3 -0.95 0  -3.25 -0.95 0  -3.2 -0.95 0  -3.15 -0.95 0  -3.1 -0.95 0  -3.05 -0.95 0  -3 -0.95 0  -2.95 -0.95 0  -2.9 -0.95 0  -2.85 -0.95 0  -2.8 -0.95 0  -2.75 -0.95 0  -2.7 -0.95 0  -2.65 -0.95 0  -2.6 -0.95 0  -2.55 -0.95 0  -2.5 -0.95 0  -2.45 -0.95 0  -2.4 -0.95 0  -2.35 -0.95 0  -2.3 -0.95 0  -2.25 -0.95 0  -2.2 -0.95 0  -2.15 -0.95 0  -2.1 -0.95 0  -2.05 -0.95 0  -2 -0.95 0  -1.95 -0.95 0  -1.9 -0.95 0  -1.85 -0.95 0  -1.8 -0.95 0  -1.75 -0.95 0  -1.7 -0.95 0  -1.65 -0.95 0  -1.6 -0.95 0  -1.55 -0.95 0  -1.5 -0.95 0  -1.45 -0.95 0  -1.4 -0.95 0  -1.35 -0.95 0  -1.3 -0.95 0  -1.25 -0.95 0  -1.2 -0.95 0  -1.15 -0.95 0  -1.1 -0.95 0  -1.05 -0.95 0  -1 -0.95 0  -0.9500000000000002 -0.95 0  -0.9000000000000004 -0.95 0  -0.8499999999999996 -0.95 0  -0.7999999999999998 -0.95 0  -0.75 -0.95 0  -0.7000000000000002 -0.95 0  -0.6500000000000004 -0.95 0  -0.5999999999999996 -0.95 0  -0.5499999999999998 -0.95 0  -0.5 -0.95 0  -0.4500000000000002 -0.95 0  -0.4000000000000004 -0.95 0  -0.3499999999999996 -0.95 0  -0.2999999999999998 -0.95 0  -0.25 -0.95 0  -0.2000000000000002 -0.95 0  -0.1500000000000004 -0.95 0  -0.09999999999999964 -0.95 0  -0.04999999999999982 -0.95 0  0 -0.95 0  0.04999999999999982 -0.95 0  0.09999999999999964 -0.95 0  0.1500000000000004 -0.95 0  0.2000000000000002 -0.95 0  0.25 -0.95 0  0.2999999999999998 -0.95 0  0.3499999999999996 -0.95 0  0.4000000000000004 -0.95 0  0.4500000000000002 -0.95 0  0.5 -0.95 0  0.5499999999999998 -0.95 0  0.5999999999999996 -0.95 0  0.6500000000000004 -0.95 0  0.7000000000000002 -0.95 0  0.75 -0.95 0  0.7999999999999998 -0.95 0  0.8499999999999996 -0.95 0  0.9000000000000004 -0.95 0  0.9500000000000002 -0.95 0  1 -0.95 0  1.05 -0.95 0  1.1 -0.95 0  1.15 -0.95 0  1.2 -0.95 0  1.25 -0.95 0  1.3 -0.95 0  1.35 -0.95 0  1.4 -0.95 0  1.45 -0.95 0  1.5 -0.95 0  1.55 -0.95 0  1.6 -0.95 0  1.65 -0.95 0  1.7 -0.95 0  1.75 -0.95 0  1.8 -0.95 0  1.85 -0.95 0  1.9 -0.95 0  1.95 -0.95 0  2 -0.95 0  2.05 -0.95 0  2.1 -0.95 0  2.15 -0.95 0  2.2 -0.95 0  2.25 -0.95 0  2.3 -0.95 0  2.35 -0.95 0  2.4 -0.95 0  2.45 -0.95 0  2.5 -0.95 0  2.55 -0.95 0  2.6 -0.95 0  2.65 -0.95 0  2.7 -0.95 0  2.75 -0.95 0  2.8 -0.95 0  2.85 -0.95 0  2.9 -0.95 0  2.95 -0.95 0  3 -0.95 0  3.050000000000001 -0.95 0  3.1 -0.95 0  3.15 -0.95 0  3.199999999999999 -0.95 0  3.25 -0.95 0  3.300000000000001 -0.95 0  3.35 -0.95 0  3.4 -0.95 0  3.449999999999999 -0.95 0  3.5 -0.95 0  3.550000000000001 -0.95 0  3.6 -0.95 0  3.65 -0.95 0  3.699999999999999 -0.95 0  3.75 -0.95 0  3.800000000000001 -0.95 0  3.85 -0.95 0  3.9 -0.95 0  3.949999999999999 -0.95 0  4 -0.95 0  4.050000000000001 -0.95 0  4.1 -0.95 0  4.15 -0.95 0  4.199999999999999 -0.95 0  4.25 -0.95 0  4.300000000000001 -0.95 0  4.35 -0.95 0  4.4 -0.95 0  4.449999999999999 -0.95 0  4.5 -0.95 0  4.550000000000001 -0.95 0  4.6 -0.95 0  4.65 -0.95 0  4.699999999999999 -0.95 0  4.75 -0.95 0  4.800000000000001 -0.95 0  4.85 -0.95 0  4.9 -0.95 0  4.949999999999999 -0.95 0  5 -0.95 0  -5 -0.9 0  -4.95 -0.9 0  -4.9 -0.9 0  -4.85 -0.9 0  -4.8 -0.9 0  -4.75 -0.9 0  -4.7 -0.9 0  -4.65 -0.9 0  -4.6 -0.9 0  -4.55 -0.9 0  -4.5 -0.9 0  -4.45 -0.9 0  -4.4 -0.9 0  -4.35 -0.9 0  -4.3 -0.9 0  -4.25 -0.9 0  -4.2 -0.9 0  -4.15 -0.9 0  -4.1 -0.9 0  -4.05 -0.9 0  -4 -0.9 0  -3.95 -0.9 0  -3.9 -0.9 0  -3.85 -0.9 0  -3.8 -0.9 0  -3.75 -0.9 0  -3.7 -0.9 0  -3.65 -0.9 0  -3.6 -0.9 0  -3.55 -0.9 0  -3.5 -0.9 0  -3.45 -0.9 0  -3.4 -0.9 0  -3.35 -0.9 0  -3.3 -0.9 0  -3.25 -0.9 0  -3.2 -0.9 0  -3.15 -0.9 0  -3.1 -0.9 0  -3.05 -0.9 0  -3 -0.9 0  -2.95 -0.9 0  -2.9 -0.9 0  -2.85 -0.9 0  -2.8 -0.9 0  -2.75 -0.9 0  -2.7 -0.9 0  -2.65 -0.9 0  -2.6 -0.9 0  -2.55 -0.9 0  -2.5 -0.9 0  -2.45 -0.9 0  -2.4 -0.9 0  -2.35 -0.9 0  -2.3 -0.9 0  -2.25 -0.9 0  -2.2 -0.9 0  -2.15 -0.9 0  -2.1 -0.9 0  -2.05 -0.9 0  -2 -0.9 0  -1.95 -0.9 0  -1.9 -0.9 0  -1.85 -0.9 0  -1.8 -0.9 0  -1.75 -0.9 0  -1.7 -0.9 0  -1.65 -0.9 0  -1.6 -0.9 0  -1.55 -0.9 0  -1.5 -0.9 0  -1.45 -0.9 0  -1.4 -0.9 0  -1.35 -0.9 0  -1.3 -0.9 0  -1.25 -0.9 0  -1.2 -0.9 0  -1.15 -0.9 0  -1.1 -0.9 0  -1.05 -0.9 0  -1 -0.9 0  -0.9500000000000002 -0.9 0  -0.9000000000000004 -0.9 0  -0.8499999999999996 -0.9 0  -0.7999999999999998 -0.9 0  -0.75 -0.9 0  -0.7000000000000002 -0.9 0  -0.6500000000000004 -0.9 0  -0.5999999999999996 -0.9 0  -0.5499999999999998 -0.9 0  -0.5 -0.9 0  -0.4500000000000002 -0.9 0  -0.4000000000000004 -0.9 0  -0.3499999999999996 -0.9 0  -0.2999999999999998 -0.9 0  -0.25 -0.9 0  -0.2000000000000002 -0.9 0  -0.1500000000000004 -0.9 0  -0.09999999999999964 -0.9 0  -0.04999999999999982 -0.9 0  0 -0.9 0  0.04999999999999982 -0.9 0  0.09999999999999964 -0.9 0  0.1500000000000004 -0.9 0  0.2000000000000002 -0.9 0  0.25 -0.9 0  0.2999999999999998 -0.9 0  0.3499999999999996 -0.9 0  0.4000000000000004 -0.9 0  0.4500000000000002 -0.9 0  0.5 -0.9 0  0.5499999999999998 -0.9 0  0.5999999999999996 -0.9 0  0.6500000000000004 -0.9 0  0.7000000000000002 -0.9 0  0.75 -0.9 0  0.7999999999999998 -0.9 0  0.8499999999999996 -0.9 0  0.9000000000000004 -0.9 0  0.9500000000000002 -0.9 0  1 -0.9 0  1.05 -0.9 0  1.1 -0.9 0  1.15 -0.9 0  1.2 -0.9 0  1.25 -0.9 0  1.3 -0.9 0  1.35 -0.9 0  1.4 -0.9 0  1.45 -0.9 0  1.5 -0.9 0  1.55 -0.9 0  1.6 -0.9 0  1.65 -0.9 0  1.7 -0.9 0  1.75 -0.9 0  1.8 -0.9 0  1.85 -0.9 0  1.9 -0.9 0  1.95 -0.9 0  2 -0.9 0  2.05 -0.9 0  2.1 -0.9 0  2.15 -0.9 0  2.2 -0.9 0  2.25 -0.9 0  2.3 -0.9 0  2.35 -0.9 0  2.4 -0.9 0  2.45 -0.9 0  2.5 -0.9 0  2.55 -0.9 0  2.6 -0.9 0  2.65 -0.9 0  2.7 -0.9 0  2.75 -0.9 0  2.8 -0.9 0  2.85 -0.9 0  2.9 -0.9 0  2.95 -0.9 0  3 -0.9 0  3.050000000000001 -0.9 0  3.1 -0.9 0  3.15 -0.9 0  3.199999999999999 -0.9 0  3.25 -0.9 0  3.300000000000001 -0.9 0  3.35 -0.9 0  3.4 -0.9 0  3.449999999999999 -0.9 0  3.5 -0.9 0  3.550000000000001 -0.9 0  3.6 -0.9 0  3.65 -0.9 0  3.699999999999999 -0.9 0  3.75 -0.9 0  3.800000000000001 -0.9 0  3.85 -0.9 0  3.9 -0.9 0  3.949999999999999 -0.9 0  4 -0.9 0  4.050000000000001 -0.9 0  4.1 -0.9 0  4.15 -0.9 0  4.199999999999999 -0.9 0  4.25 -0.9 0  4.300000000000001 -0.9 0  4.35 -0.9 0  4.4 -0.9 0  4.449999999999999 -0.9 0  4.5 -0.9 0  4.550000000000001 -0.9 0  4.6 -0.9 0  4.65 -0.9 0  4.699999999999999 -0.9 0  4.75 -0.9 0  4.800000000000001 -0.9 0  4.85 -0.9 0  4.9 -0.9 0  4.949999999999999 -0.9 0  5 -0.9 0  -5 -0.85 0  -4.95 -0.85 0  -4.9 -0.85 0  -4.85 -0.85 0  -4.8 -0.85 0  -4.75 -0.85 0  -4.7 -0.85 0  -4.65 -0.85 0  -4.6 -0.85 0  -4.55 -0.85 0  -4.5 -0.85 0  -
[...]
<PointData  Vectors="f_15"> 
<DataArray  type="Float64"  Name="f_15"  NumberOfComponents="3" format="ascii">1.0000000000000439e+01 0.0000000000000000e+00 0.0000000000000000e+00  9.9999999999995755e+00 -3.3882571616102877e-13 0.0000000000000000e+00  1.0000000000000409e+01 4.0703952240164084e-13 0.0000000000000000e+00  9.9999999999995364e+00 -4.7016974402072692e-13 0.0000000000000000e+00  1.0000000000000561e+01 5.2176785104201319e-13 0.0000000000000000e+00  9.9999999999993125e+00 -5.9849409004265177e-13 0.0000000000000000e+00  1.0000000000000879e+01 7.0779406409163735e-13 0.0000000000000000e+00  9.9999999999988400e+00 -8.6712694158427456e-13 0.0000000000000000e+00  1.0000000000001622e+01 1.1077926785629133e-12 0.0000000000000000e+00  9.9999999999976232e+00 -1.4977188844244114e-12 0.0000000000000000e+00  1.0000000000003656e+01 2.1496751216549997e-12 0.0000000000000000e+00  9.9999999999942091e+00 -3.2618876291778395e-12 0.0000000000000000e+00  1.0000000000009386e+01 5.1630634590441650e-12 0.0000000000000000e+00  9.9999999999846114e+00 -8.4262212268394113e-12 0.0000000000000000e+00  1.0000000000025455e+01 1.4036835226690017e-11 0.0000000000000000e+00  9.9999999999577671e+00 -2.3656391864421951e-11 0.0000000000000000e+00  1.0000000000070056e+01 3.9993737793206813e-11 0.0000000000000000e+00  9.9999999998842419e+00 -6.7446951974634399e-11 0.0000000000000000e+00  1.0000000000190317e+01 1.1322566391618213e-10 0.0000000000000000e+00  9.9999999996887308e+00 -1.8929267645025410e-10 0.0000000000000000e+00  1.0000000000506613e+01 3.1533443765579637e-10 0.0000000000000000e+00  9.9999999991798436e+00 -5.2308625043096259e-10 0.0000000000000000e+00  1.0000000001319211e+01 8.6241508184317265e-10 0.0000000000000000e+00  9.9999999978943261e+00 -1.4104890875264382e-09 0.0000000000000000e+00  1.0000000003332945e+01 2.2862872697078328e-09 0.0000000000000000e+00  9.9999999947689489e+00 -3.6732392135313317e-09 0.0000000000000000e+00  1.0000000008141983e+01 5.8520226864893843e-09 0.0000000000000000e+00  9.9999999874348759e+00 -9.2440389494670326e-09 0.0000000000000000e+00  1.0000000019213461e+01 1.4466280982480024e-08 0.0000000000000000e+00  9.9999999709162068e+00 -2.2402122781541581e-08 0.0000000000000000e+00  1.0000000043550067e+01 3.4298387642081859e-08 0.0000000000000000e+00  9.9999999355123315e+00 -5.1898803538225679e-08 0.0000000000000000e+00  1.0000000094424445e+01 7.7610480526210615e-08 0.0000000000000000e+00  9.9999998633069342e+00 -1.1467497076755824e-07 0.0000000000000000e+00  1.0000000195549354e+01 1.6730464331760189e-07 0.0000000000000000e+00  9.9999997237501592e+00 -2.4076719735379550e-07 0.0000000000000000e+00  1.0000000385127644e+01 3.4146906537381046e-07 0.0000000000000000e+00  9.9999994702511579e+00 -4.7710777535126942e-07 0.0000000000000000e+00  1.0000000719122804e+01 6.5692028126428200e-07 0.0000000000000000e+00  9.9999990361523441e+00 -8.9180594981092241e-07 0.0000000000000000e+00  1.0000001275821598e+01 1.1940941805742295e-06 0.0000000000000000e+00  9.9999983323786434e+00 -1.5766584343319902e-06 0.0000000000000000e+00  1.0000002151551282e+01 2.0521058845853179e-06 0.0000000000000000e+00  9.9999972601288487e+00 -2.6323071340402493e-06 0.0000000000000000e+00  1.0000003445098022e+01 3.3299735230145585e-06 0.0000000000000000e+00  9.9999957178448984e+00 -4.1589832459228767e-06 0.0000000000000000e+00  1.0000005264729941e+01 5.1351310460649602e-06 0.0000000000000000e+00  9.9999935956962727e+00 -6.2672022620603425e-06 0.0000000000000000e+00  1.0000007695141173e+01 7.5551565729684785e-06 0.0000000000000000e+00  9.9999908741923047e+00 -8.9751156424241116e-06 0.0000000000000000e+00  1.0000010658697525e+01 1.0506148993711616e-05 0.0000000000000000e+00  9.9999877134178305e+00 -1.2107672141708740e-05 0.0000000000000000e+00  1.0000013945975747e+01 1.3780282860519348e-05 0.0000000000000000e+00  9.9999843726126514e+00 -1.5426831279365297e-05 0.0000000000000000e+00  1.0000017072097753e+01 1.6963199442385164e-05 0.0000000000000000e+00  9.9999818496339774e+00 -1.7984999030274976e-05 0.0000000000000000e+00  1.0000018203050832e+01 1.8258290530833858e-05 0.0000000000000000e+00  9.9999827592189305e+00 -1.7100591319911065e-05 0.0000000000000000e+00  1.0000014202199633e+01 1.4545856912631975e-05 0.0000000000000000e+00  9.9999904574323129e+00 -9.5489200836398829e-06 0.0000000000000000e+00  1.0000000710671811e+01 1.9296427612042058e-06 0.0000000000000000e+00  1.0000012036560214e+01 1.1248444328412027e-05 0.0000000000000000e+00  9.9999657665694954e+00 -3.1348462910786294e-05 0.0000000000000000e+00  1.0000064640062527e+01 6.2661619887462259e-05 0.0000000000000000e+00  9.9998895918188939e+00 -1.0576549539247504e-04 0.0000000000000000e+00  1.0000168084898336e+01 1.6375643105349136e-04 0.0000000000000000e+00  9.9997518140708159e+00 -2.4001675641554165e-04 0.0000000000000000e+00  1.0000353349717850e+01 3.4159761042143797e-04 0.0000000000000000e+00  9.9995003456080926e+00 -4.8492772517335622e-04 0.0000000000000000e+00  1.0000699510109120e+01 6.7682403617808269e-04 0.0000000000000000e+00  9.9990441415266798e+00 -9.3607711910661574e-04 0.0000000000000000e+00  1.0001287695018272e+01 1.2529784088066002e-03 0.0000000000000000e+00  9.9983169263312544e+00 -1.6492795267691630e-03 0.0000000000000000e+00  1.0002198635805270e+01 2.1371432491860995e-03 0.0000000000000000e+00  9.9971582179432943e+00 -2.7693195720530049e-03 0.0000000000000000e+00  1.0003688996747830e+01 3.5976372332725617e-03 0.0000000000000000e+00  9.9952595936893545e+00 -4.6301463304693237e-03 0.0000000000000000e+00  1.0005992175782088e+01 5.8916377654462957e-03 0.0000000000000000e+00  9.9925064559190346e+00 -7.3170318039736965e-03 0.0000000000000000e+00  1.0009174436742191e+01 9.0482590304864444e-03 0.0000000000000000e+00  9.9886229279159995e+00 -1.0984652314292874e-02 0.0000000000000000e+00  1.0013641949931207e+01 1.3660738636498099e-02 0.0000000000000000e+00  9.9829214074843833e+00 -1.6095133049202959e-02 0.0000000000000000e+00  1.0019255276983891e+01 2.0397736056325336e-02 0.0000000000000000e+00  9.9748654572749569e+00 -2.1769256384805220e-02 0.0000000000000000e+00  1.0024337952069665e+01 3.0255988556022590e-02 0.0000000000000000e+00  9.9618729969436028e+00 -2.5166187103367571e-02 0.0000000000000000e+00  1.0023368055638016e+01 4.8004601979592630e-02 0.0000000000000000e+00  9.9362305785880789e+00 -1.5955762290834331e-02 0.0000000000000000e+00  9.9976611107730200e+00 8.7521716457034535e-02 0.0000000000000000e+00  9.8725054831471297e+00 3.3935130272670012e-02 0.0000000000000000e+00  9.9045310788976462e+00 1.9311819570523397e-01 0.0000000000000000e+00  9.7050381970526622e+00 1.8808998667817697e-01 0.0000000000000000e+00  9.6462705469610235e+00 4.5357324755901751e-01 0.0000000000000000e+00  9.3227289720614213e+00 5.8501457295296211e-01 0.0000000000000000e+00  9.0618327954173097e+00 1.0211065909907679e+00 0.0000000000000000e+00  8.5457772480316248e+00 1.4047109865775160e+00 0.0000000000000000e+00  7.9903482505221834e+00 2.1492019220933245e+00 0.0000000000000000e+00  7.1979257328758290e+00 2.8948948403534214e+00 0.0000000000000000e+00  6.3069446262915347e+00 4.0450100774497502e+00 0.0000000000000000e+00  5.2630339021337980e+00 5.3643711782211696e+00 0.0000000000000000e+00  4.1347390810090943e+00 6.9582109894442068e+00 0.0000000000000000e+00  3.5702244838334649e+00 7.8502507976529676e+00 0.0000000000000000e+00  3.6883529413715048e+00 7.5578018175827468e+00 0.0000000000000000e+00  3.6619513993927688e+00 7.1989097667469819e+00 0.0000000000000000e+00  3.4438905391966150e+00 6.6670911129327308e+00 0.0000000000000000e+00  2.9676925474856866e+00 5.7067250056741781e+00 0.0000000000000000e+00  2.2890990652976773e+00 4.0577373460833561e+00 0.0000000000000000e+00  1.4390674585112508e+00 1.4589292740954745e+00 0.0000000000000000e+00  1.0502177591516930e+00 1.5256313062812765e-01 0.0000000000000000e+00  1.0030625263818218e+00 6.7792635150309951e-03 0.0000000000000000e+00  9.9975059033008307e-01 1.9042877550324673e-03 0.0000000000000000e+00  1.0000983197610929e+00 -3.3281460027514075e-04 0.0000000000000000e+00  1.0000559371744033e+00 -1.0135210157237628e-04 0.0000000000000000e+00  9.9993912837120424e-01 1.6679650883748444e-04 0.0000000000000000e+00  1.0000265853098196e+00 -8.2389886483421785e-05 0.0000000000000000e+00  9.9999842174297748e-01 1.0715439748858504e-05 0.0000000000000000e+00  9.9999401528992160e-01 1.4655594901106644e-05 0.0000000000000000e+00  1.0000043994158943e+00 -1.2526990499674446e-05 0.0000000000000000e+00  9.9999863684066959e-01 4.4938309336903864e-06 0.0000000000000000e+00  9.9999977162843967e-01 2.3820049411026894e-07 0.0000000000000000e+00  1.0000004961511493e+00 -1.2891629103786837e-06 0.0000000000000000e+00  9.9999973100632666e-01 7.8443360155536316e-07 0.0000000000000000e+00  1.0000000539919696e+00 -1.9552292450029669e-07 0.0000000000000000e+00  1.0000000299070519e+00 -6.2309105558860814e-08 0.0000000000000000e+00  9.9999996786358802e-01 8.6495048456920260e-08 0.0000000000000000e+00  1.0000000135784060e+00 -4.0730981405135448e-08 0.0000000000000000e+00  9.9999999880047730e-01 5.8892091091869949e-09 0.0000000000000000e+00  9.9999999764417635e-01 5.6009259185888415e-09 0.0000000000000000e+00  1.0000000017602784e+00 -4.8665109275949415e-09 0.0000000000000000e+00  9.9999999942326989e-01 1.7969895970281383e-09 0.0000000000000000e+00  9.9999999996866906e-01 -4.0270915194627299e-11 0.0000000000000000e+00  1.0000000001470000e+00 -3.7150134407433041e-10 0.0000000000000000e+00  9.9999999991555977e-01 2.3929653904199626e-10 0.0000000000000000e+00  1.0000000000202756e+00 -6.7200691459759291e-11 0.0000000000000000e+00  1.0000000000057399e+00 -1.0238427958074395e-11 0.0000000000000000e+00  9.9999999999211897e-01 2.0698964075676647e-11 0.0000000000000000e+00  1.0000000000036078e+00 -1.0497129831211289e-11 0.0000000000000000e+00  9.9999999999946598e-01 2.0264826494446286e-12 0.0000000000000000e+00  9.9999999999956568e-01 9.7680839041652861e-13 0.0000000000000000e+00  1.0000000000003768e+00 -1.0170157649104510e-12 0.0000000000000000e+00  9.9999999999986300e-01 4.1220810494856493e-13 0.0000000000000000e+00  1.0000000000000056e+00 -3.8600801634569742e-14 0.0000000000000000e+00  1.0000000000000258e+00 -6.2272465847614938e-14 0.0000000000000000e+00  9.9999999999998368e-01 4.5919038418565316e-14 0.0000000000000000e+00  1.0000000000000053e+00 -1.4763967377284429e-14 0.0000000000000000e+00  1.0000000000000009e+00 -6.4569248793198082e-16 0.0000000000000000e+00  9.9999999999999911e-01 4.0944185948063664e-15 0.0000000000000000e+00  1.0000000000000004e+00 -1.8982988724425527e-15 0.0000000000000000e+00  1.0000000000000004e+00 1.5105923396055299e-16 0.0000000000000000e+00  1.0000000000000000e+00 -1.0836614252610676e-16 0.0000000000000000e+00  1.0000000000000007e+00 -7.7972616672535974e-16 0.0000000000000000e+00  9.9999999999999967e-01 1.3507747648557672e-15 0.0000000000000000e+00  1.0000000000000004e+00 -3.2809802707633664e-16 0.0000000000000000e+00  9.9999999999999989e-01 -5.8438640003953926e-16 0.0000000000000000e+00  1.0000000000000004e+00 9.8873554095799069e-16 0.0000000000000000e+00  1.0000000000000002e+00 -6.8102211745074765e-16 0.0000000000000000e+00  1.0000000000000002e+00 7.6087947594150110e-16 0.0000000000000000e+00  1.0000000000000000e+00 -8.6106326950063540e-16 0.0000000000000000e+00  1.0000000000000000e+00 3.7268640552709684e-16 0.0000000000000000e+00  9.9999999999999967e-01 1.3037236842824349e-15 0.0000000000000000e+00  1.0000000000000004e+00 1.4411857487655739e-16 0.0000000000000000e+00  1.0000000000000002e+00 -5.9082843134856444e-17 0.0000000000000000e+00  1.0000000000000002e+00 -6.2089970838398377e-16 0.0000000000000000e+00  1.0000000000000004e+00 -8.2634158801262819e-16 0.0000000000000000e+00  1.0000000000000004e+00 -7.5477440020392294e-16 0.0000000000000000e+00  1.0000000000000004e+00 -7.4926997372050868e-17 0.0000000000000000e+00  1.0000000000000004e+00 1.4856120584716074e-15 0.0000000000000000e+00  1.0000000000000002e+00 -7.5695072147411121e-16 0.0000000000000000e+00  1.0000000000000007e+00 6.4564610451053938e-16 0.0000000000000000e+00  1.0000000000000002e+00 -6.0995191640173733e-16 0.0000000000000000e+00  1.0000000000000002e+00 9.3051939576879454e-16 0.0000000000000000e+00  1.0000000000000000e+00 2.4382703623296652e-16 0.0000000000000000e+00  1.0000000000000004e+00 -2.3350455407419557e-16 0.0000000000000000e+00  1.0000000000000002e+00 1.7477546954961848e-16 0.0000000000000000e+00  1.0000000000000007e+00 -1.7577988712189497e-15 0.0000000000000000e+00  1.0000000000000002e+00 -1.2585053761117757e-15 0.0000000000000000e+00  1.0000000000000004e+00 1.1226300129609733e-15 0.0000000000000000e+00  1.0000000000000002e+00 5.1629412598852219e-16 0.0000000000000000e+00  1.0000000000000004e+00 1.2734697590353643e-15 0.0000000000000000e+00  1.0000000000000004e+00 -7.9121431241379427e-16 0.0000000000000000e+00  1.0000000000000004e+00 1.2651750642483925e-15 0.0000000000000000e+00  1.0000000000000002e+00 -1.6037362972181995e-16 0.0000000000000000e+00  1.0000000000000004e+00 -1.2487604376621665e-15 0.0000000000000000e+00  1.0000000000000002e+00 7.9669417957858673e-16 0.0000000000000000e+00  1.0000000000000004e+00 -1.2606061701836934e-15 0.0000000000000000e+00  1.0000000000000002e+00 1.1767924656389469e-15 0.0000000000000000e+00  1.0000000000000004e+00 6.9627119991575010e-16 0.0000000000000000e+00  1.0000000000000000e+00 8.3049931573383057e-16 0.0000000000000000e+00  1.0000000000000002e+00 -4.1201822451754663e-16 0.0000000000000000e+00  1.0000000000000002e+00 -9.9750345661507586e-16 0.0000000000000000e+00  9.9999999999999989e-01 4.8196531891554796e-16 0.0000000000000000e+00  1.0000000000000004e+00 -4.0960071344657245e-16 0.0000000000000000e+00  1.0000000000000002e+00 1.2303844944329884e-16 0.0000000000000000e+00  1.0000000000000002e+00 -6.7980998799596932e-18 0.0000000000000000e+00  1.0000000000000002e+00 -3.7885193873870083e-16 0.0000000000000000e+00  1.0000000000000004e+00 6.6921293961864812e-16 0.0000000000000000e+00  1.0000000000000000e+00 -1.9145824836733583e-16 0.0000000000000000e+00  1.0000000000000004e+00 3.2612677644350307e-16 0.0000000000000000e+00  1.0000000000000002e+00 -1.1025432256698452e-15 0.0000000000000000e+00  1.0000000000000000e+00 0.0000000000000000e+00 0.0000000000000000e+00  1.0000000000000199e+01 0.0000000000000000e+00 1.0890712818036745e-13  9.9999999999998010e+00 1.9127316312502972e-14 -2.6616166360551506e-14  1.0000000000000156e+01 4.6554234708453363e-14 2.7360018116401629e-15  9.9999999999998757e+00 -1.1857584461531052e-13 -4.6787077536010700e-14  1.0000000000000112e+01 1.6476128450197940e-13 8.9856054591250200e-14  9.9999999999999041e+00 -1.9917192240578080e-13 -1.5776181169987362e-13  1.0000000000000078e+01 2.4161103036731635e-13 2.6891071292084280e-13  9.9999999999999805e+00 -3.0553415348635770e-13 -4.6160868367691615e-13  9.9999999999999183e+00 4.0612346852541140e-13 7.9228441804500176e-13  1.0000000000000286e+01 -5.6104134381840221e-13 -1.3622809236113690e-12  9.9999999999993694e+00 8.0587553174208728e-13 2.3365153602936031e-12  1.0000000000001222e+01 -1.2049834909439935e-12 -3.9949120551669029e-12  9.9999999999978098e+00 1.8659392878376327e-12 6.7942423298732478e-12  1.0000000000003798e+01 -2.9496065488391679e-12 -1.1483283287110727e-11  9.9999999999935643e+00 4.7052856776399267e-12 1.9276366810810982e-11  1.0000000000010738e+01 -7.5668015181979925e-12 -3.2129090974769436e-11  9.9999999999824016e+00 1.2266561669142333e-11 5.3191848985102303e-11  1.0000000000028422e+01 -1.9977915033527123e-11 -8.7500258042708216e-11  9.9999999999546052e+00 3.2455844540552089e-11 1.4304643910177509e-10  1.0000000000072035e+01 -5.2289033296487263e-11 -2.3238334616666390e-10  9.9999999998864126e+00 8.3443126695224877e-11 3.7497106654316368e-10  1.0000000000177506e+01 -1.3234871622248090e-10 -6.0061448634618307e-10  9.9999999997261551e+00 2.0946167730074940e-10 9.5443166604363109e-10  1.0000000000416396e+01 -3.3104768059311147e-10 -1.5039971426335905e-09  9.9999999993753885e+00 5.2095629265517526e-10 2.3493782810833475e-09  1.0000000000926136e+01 -8.1313356199120758e-10 -3.6367901181222234e-09  9.9999999986421084e+00 1.2567400507970199e-09 5.5764892395574447e-09  1.0000000001964153e+01 -1.9259041073002418e-09 -8.4654386985470615e-09  9.9999999972084641e+00 2.9338864884297915e-09 1.2715236294670238e-08  1.0000000003884487e+01 -4.4483348937209981e-09 -1.8885537563579009e-08  9.9999999947159157e+00 6.7039138761986660e-09 2.7722225870898889e-08  1.0000000007026628e+01 -1.0015765673002226e-08 -4.0197348158139295e-08  9.9999999908731603e+00 1.4807469636328202e-08 5.7545159866868584e-08  1.0000000011530375e+01 -2.1669778455870849e-08 -8.1287405145296980e-08  9.9999999859613986e+00 3.1444711097031428e-08 1.1324374140211969e-07  1.0000000016247974e+01 -4.5295618857930782e-08 -1.5552898509695911e-07  9.9999999824463170e+00 6.4702877184032239e-08 2.1054360015319900e-07  1.0000000017230791e+01 -9.1384233866955789e-08 -2.8095853578366708e-07  9.9999999855204234e+00 1.2722250384221751e-07 3.6968469007450145e-07  1.0000000008320649e+01 -1.7438576616793893e-07 -4.7980540675662072e-07  1.0000000002744795e+01 2.3561390832280105e-07 6.1447819684026050e-07  9.9999999791078409e+00 -3.1450591257734546e-07 -7.7684158876331528e-07  1.0000000048728261e+01 4.1508319132948736e-07 9.7003873170522378e-07  9.9999999120392093e+00 -5.4085789039842790e-07 -1.1973506581835981e-06  1.0000000138689703e+01 6.9325057881722477e-07 1.4624372979437987e-06  9.9999998012034403e+00 -8.7243169199642021e-07 -1.7692157606103405e-06  1.0000000267873173e+01 1.0783762436842032e-06 2.1215567464630544e-06  9.9999996530251192e+00 -1.3162465249663977e-06 -2.5221294087170294e-06  1.0000000443408819e+01 1.5912546425062224e-06 2.9725293047062399e-06  9.9999994467660631e+00 -1.9094508239673012e-06 -3.4722257126341025e-06  1.0000000670421036e+01 2.2522659670902068e-06 4.0215659298998092e-06  9.9999992486681535e+00 -2.5997626946378942e-06 -4.6161718450325220e-06  1.0000000791432372e+01 2.9001497256725423e-06 5.2505245002944366e-06  9.9999992553952648e+00 -3.1749365884601092e-06 -5.8941905084438293e-06  1.0000000714107752e+01 3.3937360124270388e-06 6.5116048310245715e-06  9.9999994028397889e+00 -3.6525340836150207e-06 -7.0123782779301394e-06  1.0000000533044217e+01 3.7291324983005285e-06 7.3411006066586602e-06  9.9999999992608064e+00 -3.6058542831507040e-06 -7.3340715967640827e-06  9.9999992926151844e+00 2.6541909443061403e-06 6.9366159643583971e-06  1.0000002481877811e+01 -1.1800960897248722e-06 -5.7588583652206450e-06  9.9999960927541345e+00 -1.4105740529039059e-06 3.6473410053572444e-06  1.0000006487905525e+01 4.0122133323053240e-06 3.0021218052898540e-07  9.9999921599253128e+00 -8.1287832008505219e-06 -6.2132050126930593e-06  1.0000012372869405e+01 1.3548472346034022e-05 1.5532707468557573e-05  9.9999828733307741e+00 -2.3822892386084485e-05 -2.8072964312591185e-05  1.0000028369052142e+01 3.8857558383048896e-05 4.6298573868357202e-05  9.9999610753406518e+00 -5.9237153246380262e-05 -7.0585641032997262e-05  1.0000052801038098e+01 8.3407451239763948e-05 1.0527242763708567e-04  9.9999360045535042e+00 -1.0907044844972523e-04 -1.5204928996953812e-04  1.0000078780798887e+01 1.4606667331980676e-04 2.1490956979709183e-04  9.9998928998332328e+00 -1.9576219004119468e-04 -2.9704436424353247e-04  1.0000145206772448e+01 2.7829968539780901e-04 4.0031299612861243e-04  9.9997922761774483e+00 -3.7828339099382812e-04 -5.3558038221159919e-04  1.0000254159499304e+01 4.9929723378740957e-04 7.0570314727262250e-04  9.9996884956696821e+00 -6.2096946090199872e-04 -9.3108020767408879e-04  1.0000346896314628e+01 7.6286446263622710e-04 1.2114847381966970e-03  9.9995660185730539e+00 -9.5931644414923875e-04 -1.5622208133470664e-03  1.0000550872898954e+01 1.2482268965741878e-03 1.9850304456983021e-03  9.9992539425372708e+00 -1.6038652475791758e-03 -2.4927369011812648e-03  1.0000872534058605e+01 2.0643163517910677e-03 3.1139154354179167e-03  9.9988893028692996e+00 -2.3624378051890433e-03 -3.860