<?xml version="1.0"?>
<VTKFile type="UnstructuredGrid"  version="0.1"  >
<UnstructuredGrid>
<Piece  NumberOfPoints="8241" NumberOfCells="16000">
<Points>
<DataArray  type="Float64"  NumberOfComponents="3"  format="ascii">-5 -1 0  -4.95 -1 0  -4.9 -1 0  -4.85 -1 0  -4.8 -1 0  -4.75 -1 0  -4.7 -1 0  -4.65 -1 0  -4.6 -1 0  -4.55 -1 0  -4.5 -1 0  -4.45 -1 0  -4.4 -1 0  -4.35 -1 0  -4.3 -1 0  -4.25 -1 0  -4.2 -1 0  -4.15 -1 0  -4.1 -1 0  -4.05 -1 0  -4 -1 0  -3.95 -1 0  -3.9 -1 0  -3.85 -1 0  -3.8 -1 0  -3.75 -1 0  -3.7 -1 0  -3.65 -1 0  -3.6 -1 0  -3.55 -1 0  -3.5 -1 0  -3.45 -1 0  -3.4 -1 0  -3.35 -1 0  -3.3 -1 0  -3.25 -1 0  -3.2 -1 0  -3.15 -1 0  -3.1 -1 0  -3.05 -1 0  -3 -1 0  -2.95 -1 0  -2.9 -1 0  -2.85 -1 0  -2.8 -1 0  -2.75 -1 0  -2.7 -1 0  -2.65 -1 0  -2.6 -1 0  -2.55 -1 0  -2.5 -1 0  -2.45 -1 0  -2.4 -1 0  -2.35 -1 0  -2.3 -1 0  -2.25 -1 0  -2.2 -1 0  -2.15 -1 0  -2.1 -1 0  -2.05 -1 0  -2 -1 0  -1.95 -1 0  -1.9 -1 0  -1.85 -1 0  -1.8 -1 0  -1.75 -1 0  -1.7 -1 0  -1.65 -1 0  -1.6 -1 0  -1.55 -1 0  -1.5 -1 0  -1.45 -1 0  -1.4 -1 0  -1.35 -1 0  -1.3 -1 0  -1.25 -1 0  -1.2 -1 0  -1.15 -1 0  -1.1 -1 0  -1.05 -1 0  -1 -1 0  -0.9500000000000002 -1 0  -0.9000000000000004 -1 0  -0.8499999999999996 -1 0  -0.7999999999999998 -1 0  -0.75 -1 0  -0.7000000000000002 -1 0  -0.6500000000000004 -1 0  -0.5999999999999996 -1 0  -0.5499999999999998 -1 0  -0.5 -1 0  -0.4500000000000002 -1 0  -0.4000000000000004 -1 0  -0.3499999999999996 -1 0  -0.2999999999999998 -1 0  -0.25 -1 0  -0.2000000000000002 -1 0  -0.1500000000000004 -1 0  -0.09999999999999964 -1 0  -0.04999999999999982 -1 0  0 -1 0  0.04999999999999982 -1 0  0.09999999999999964 -1 0  0.1500000000000004 -1 0  0.2000000000000002 -1 0  0.25 -1 0  0.2999999999999998 -1 0  0.3499999999999996 -1 0  0.4000000000000004 -1 0  0.4500000000000002 -1 0  0.5 -1 0  0.5499999999999998 -1 0  0.5999999999999996 -1 0  0.6500000000000004 -1 0  0.7000000000000002 -1 0  0.75 -1 0  0.7999999999999998 -1 0  0.8499999999999996 -1 0  0.9000000000000004 -1 0  0.9500000000000002 -1 0  1 -1 0  1.05 -1 0  1.1 -1 0  1.15 -1 0  1.2 -1 0  1.25 -1 0  1.3 -1 0  1.35 -1 0  1.4 -1 0  1.45 -1 0  1.5 -1 0  1.55 -1 0  1.6 -1 0  1.65 -1 0  1.7 -1 0  1.75 -1 0  1.8 -1 0  1.85 -1 0  1.9 -1 0  1.95 -1 0  2 -1 0  2.05 -1 0  2.1 -1 0  2.15 -1 0  2.2 -1 0  2.25 -1 0  2.3 -1 0  2.35 -1 0  2.4 -1 0  2.45 -1 0  2.5 -1 0  2.55 -1 0  2.6 -1 0  2.65 -1 0  2.7 -1 0  2.75 -1 0  2.8 -1 0  2.85 -1 0  2.9 -1 0  2.95 -1 0  3 -1 0  3.050000000000001 -1 0  3.1 -1 0  3.15 -1 0  3.199999999999999 -1 0  3.25 -1 0  3.300000000000001 -1 0  3.35 -1 0  3.4 -1 0  3.449999999999999 -1 0  3.5 -1 0  3.550000000000001 -1 0  3.6 -1 0  3.65 -1 0  3.699999999999999 -1 0  3.75 -1 0  3.800000000000001 -1 0  3.85 -1 0  3.9 -1 0  3.949999999999999 -1 0  4 -1 0  4.050000000000001 -1 0  4.1 -1 0  4.15 -1 0  4.199999999999999 -1 0  4.25 -1 0  4.300000000000001 -1 0  4.35 -1 0  4.4 -1 0  4.449999999999999 -1 0  4.5 -1 0  4.550000000000001 -1 0  4.6 -1 0  4.65 -1 0  4.699999999999999 -1 0  4.75 -1 0  4.800000000000001 -1 0  4.85 -1 0  4.9 -1 0  4.949999999999999 -1 0  5 -1 0  -5 -0.95 0  -4.95 -0.95 0  -4.9 -0.95 0  -4.85 -0.95 0  -4.8 -0.95 0  -4.75 -0.95 0  -4.7 -0.95 0  -4.65 -0.95 0  -4.6 -0.95 0  -4.55 -0.95 0  -4.5 -0.95 0  -4.45 -0.95 0  -4.4 -0.95 0  -4.35 -0.95 0  -4.3 -0.95 0  -4.25 -0.95 0  -4.2 -0.95 0  -4.15 -0.95 0  -4.1 -0.95 0  -4.05 -0.95 0  -4 -0.95 0  -3.95 -0.95 0  -3.9 -0.95 0  -3.85 -0.95 0  -3.8 -0.95 0  -3.75 -0.95 0  -3.7 -0.95 0  -3.65 -0.95 0  -3.6 -0.95 0  -3.55 -0.95 0  -3.5 -0.95 0  -3.45 -0.95 0  -3.4 -0.95 0  -3.35 -0.95 0  -3.3 -0.95 0  -3.25 -0.95 0  -3.2 -0.95 0  -3.15 -0.95 0  -3.1 -0.95 0  -3.05 -0.95 0  -3 -0.95 0  -2.95 -0.95 0  -2.9 -0.95 0  -2.85 -0.95 0  -2.8 -0.95 0  -2.75 -0.95 0  -2.7 -0.95 0  -2.65 -0.95 0  -2.6 -0.95 0  -2.55 -0.95 0  -2.5 -0.95 0  -2.45 -0.95 0  -2.4 -0.95 0  -2.35 -0.95 0  -2.3 -0.95 0  -2.25 -0.95 0  -2.2 -0.95 0  -2.15 -0.95 0  -2.1 -0.95 0  -2.05 -0.95 0  -2 -0.95 0  -1.95 -0.95 0  -1.9 -0.95 0  -1.85 -0.95 0  -1.8 -0.95 0  -1.75 -0.95 0  -1.7 -0.95 0  -1.65 -0.95 0  -1.6 -0.95 0  -1.55 -0.95 0  -1.5 -0.95 0  -1.45 -0.95 0  -1.4 -0.95 0  -1.35 -0.95 0  -1.3 -0.95 0  -1.25 -0.95 0  -1.2 -0.95 0  -1.15 -0.95 0  -1.1 -0.95 0  -1.05 -0.95 0  -1 -0.95 0  -0.9500000000000002 -0.95 0  -0.9000000000000004 -0.95 0  -0.8499999999999996 -0.95 0  -0.7999999999999998 -0.95 0  -0.75 -0.95 0  -0.7000000000000002 -0.95 0  -0.6500000000000004 -0.95 0  -0.5999999999999996 -0.95 0  -0.5499999999999998 -0.95 0  -0.5 -0.95 0  -0.4500000000000002 -0.95 0  -0.4000000000000004 -0.95 0  -0.3499999999999996 -0.95 0  -0.2999999999999998 -0.95 0  -0.25 -0.95 0  -0.2000000000000002 -0.95 0  -0.1500000000000004 -0.95 0  -0.09999999999999964 -0.95 0  -0.04999999999999982 -0.95 0  0 -0.95 0  0.04999999999999982 -0.95 0  0.09999999999999964 -0.95 0  0.1500000000000004 -0.95 0  0.2000000000000002 -0.95 0  0.25 -0.95 0  0.2999999999999998 -0.95 0  0.3499999999999996 -0.95 0  0.4000000000000004 -0.95 0  0.4500000000000002 -0.95 0  0.5 -0.95 0  0.5499999999999998 -0.95 0  0.5999999999999996 -0.95 0  0.6500000000000004 -0.95 0  0.7000000000000002 -0.95 0  0.75 -0.95 0  0.7999999999999998 -0.95 0  0.8499999999999996 -0.95 0  0.9000000000000004 -0.95 0  0.9500000000000002 -0.95 0  1 -0.95 0  1.05 -0.95 0  1.1 -0.95 0  1.15 -0.95 0  1.2 -0.95 0  1.25 -0.95 0  1.3 -0.95 0  1.35 -0.95 0  1.4 -0.95 0  1.45 -0.95 0  1.5 -0.95 0  1.55 -0.95 0  1.6 -0.95 0  1.65 -0.95 0  1.7 -0.95 0  1.75 -0.95 0  1.8 -0.95 0  1.85 -0.95 0  1.9 -0.95 0  1.95 -0.95 0  2 -0.95 0  2.05 -0.95 0  2.1 -0.95 0  2.15 -0.95 0  2.2 -0.95 0  2.25 -0.95 0  2.3 -0.95 0  2.35 -0.95 0  2.4 -0.95 0  2.45 -0.95 0  2.5 -0.95 0  2.55 -0.95 0  2.6 -0.95 0  2.65 -0.95 0  2.7 -0.95 0  2.75 -0.95 0  2.8 -0.95 0  2.85 -0.95 0  2.9 -0.95 0  2.95 -0.95 0  3 -0.95 0  3.050000000000001 -0.95 0  3.1 -0.95 0  3.15 -0.95 0  3.199999999999999 -0.95 0  3.25 -0.95 0  3.300000000000001 -0.95 0  3.35 -0.95 0  3.4 -0.95 0  3.449999999999999 -0.95 0  3.5 -0.95 0  3.550000000000001 -0.95 0  3.6 -0.95 0  3.65 -0.95 0  3.699999999999999 -0.95 0  3.75 -0.95 0  3.800000000000001 -0.95 0  3.85 -0.95 0  3.9 -0.95 0  3.949999999999999 -0.95 0  4 -0.95 0  4.050000000000001 -0.95 0  4.1 -0.95 0  4.15 -0.95 0  4.199999999999999 -0.95 0  4.25 -0.95 0  4.300000000000001 -0.95 0  4.35 -0.95 0  4.4 -0.95 0  4.449999999999999 -0.95 0  4.5 -0.95 0  4.550000000000001 -0.95 0  4.6 -0.95 0  4.65 -0.95 0  4.699999999999999 -0.95 0  4.75 -0.95 0  4.800000000000001 -0.95 0  4.85 -0.95 0  4.9 -0.95 0  4.949999999999999 -0.95 0  5 -0.95 0  -5 -0.9 0  -4.95 -0.9 0  -4.9 -0.9 0  -4.85 -0.9 0  -4.8 -0.9 0  -4.75 -0.9 0  -4.7 -0.9 0  -4.65 -0.9 0  -4.6 -0.9 0  -4.55 -0.9 0  -4.5 -0.9 0  -4.45 -0.9 0  -4.4 -0.9 0  -4.35 -0.9 0  -4.3 -0.9 0  -4.25 -0.9 0  -4.2 -0.9 0  -4.15 -0.9 0  -4.1 -0.9 0  -4.05 -0.9 0  -4 -0.9 0  -3.95 -0.9 0  -3.9 -0.9 0  -3.85 -0.9 0  -3.8 -0.9 0  -3.75 -0.9 0  -3.7 -0.9 0  -3.65 -0.9 0  -3.6 -0.9 0  -3.55 -0.9 0  -3.5 -0.9 0  -3.45 -0.9 0  -3.4 -0.9 0  -3.35 -0.9 0  -3.3 -0.9 0  -3.25 -0.9 0  -3.2 -0.9 0  -3.15 -0.9 0  -3.1 -0.9 0  -3.05 -0.9 0  -3 -0.9 0  -2.95 -0.9 0  -2.9 -0.9 0  -2.85 -0.9 0  -2.8 -0.9 0  -2.75 -0.9 0  -2.7 -0.9 0  -2.65 -0.9 0  -2.6 -0.9 0  -2.55 -0.9 0  -2.5 -0.9 0  -2.45 -0.9 0  -2.4 -0.9 0  -2.35 -0.9 0  -2.3 -0.9 0  -2.25 -0.9 0  -2.2 -0.9 0  -2.15 -0.9 0  -2.1 -0.9 0  -2.05 -0.9 0  -2 -0.9 0  -1.95 -0.9 0  -1.9 -0.9 0  -1.85 -0.9 0  -1.8 -0.9 0  -1.75 -0.9 0  -1.7 -0.9 0  -1.65 -0.9 0  -1.6 -0.9 0  -1.55 -0.9 0  -1.5 -0.9 0  -1.45 -0.9 0  -1.4 -0.9 0  -1.35 -0.9 0  -1.3 -0.9 0  -1.25 -0.9 0  -1.2 -0.9 0  -1.15 -0.9 0  -1.1 -0.9 0  -1.05 -0.9 0  -1 -0.9 0  -0.9500000000000002 -0.9 0  -0.9000000000000004 -0.9 0  -0.8499999999999996 -0.9 0  -0.7999999999999998 -0.9 0  -0.75 -0.9 0  -0.7000000000000002 -0.9 0  -0.6500000000000004 -0.9 0  -0.5999999999999996 -0.9 0  -0.5499999999999998 -0.9 0  -0.5 -0.9 0  -0.4500000000000002 -0.9 0  -0.4000000000000004 -0.9 0  -0.3499999999999996 -0.9 0  -0.2999999999999998 -0.9 0  -0.25 -0.9 0  -0.2000000000000002 -0.9 0  -0.1500000000000004 -0.9 0  -0.09999999999999964 -0.9 0  -0.04999999999999982 -0.9 0  0 -0.9 0  0.04999999999999982 -0.9 0  0.09999999999999964 -0.9 0  0.1500000000000004 -0.9 0  0.2000000000000002 -0.9 0  0.25 -0.9 0  0.2999999999999998 -0.9 0  0.3499999999999996 -0.9 0  0.4000000000000004 -0.9 0  0.4500000000000002 -0.9 0  0.5 -0.9 0  0.5499999999999998 -0.9 0  0.5999999999999996 -0.9 0  0.6500000000000004 -0.9 0  0.7000000000000002 -0.9 0  0.75 -0.9 0  0.7999999999999998 -0.9 0  0.8499999999999996 -0.9 0  0.9000000000000004 -0.9 0  0.9500000000000002 -0.9 0  1 -0.9 0  1.05 -0.9 0  1.1 -0.9 0  1.15 -0.9 0  1.2 -0.9 0  1.25 -0.9 0  1.3 -0.9 0  1.35 -0.9 0  1.4 -0.9 0  1.45 -0.9 0  1.5 -0.9 0  1.55 -0.9 0  1.6 -0.9 0  1.65 -0.9 0  1.7 -0.9 0  1.75 -0.9 0  1.8 -0.9 0  1.85 -0.9 0  1.9 -0.9 0  1.95 -0.9 0  2 -0.9 0  2.05 -0.9 0  2.1 -0.9 0  2.15 -0.9 0  2.2 -0.9 0  2.25 -0.9 0  2.3 -0.9 0  2.35 -0.9 0  2.4 -0.9 0  2.45 -0.9 0  2.5 -0.9 0  2.55 -0.9 0  2.6 -0.9 0  2.65 -0.9 0  2.7 -0.9 0  2.75 -0.9 0  2.8 -0.9 0  2.85 -0.9 0  2.9 -0.9 0  2.95 -0.9 0  3 -0.9 0  3.050000000000001 -0.9 0  3.1 -0.9 0  3.15 -0.9 0  3.199999999999999 -0.9 0  3.25 -0.9 0  3.300000000000001 -0.9 0  3.35 -0.9 0  3.4 -0.9 0  3.449999999999999 -0.9 0  3.5 -0.9 0  3.550000000000001 -0.9 0  3.6 -0.9 0  3.65 -0.9 0  3.699999999999999 -0.9 0  3.75 -0.9 0  3.800000000000001 -0.9 0  3.85 -0.9 0  3.9 -0.9 0  3.949999999999999 -0.9 0  4 -0.9 0  4.050000000000001 -0.9 0  4.1 -0.9 0  4.15 -0.9 0  4.199999999999999 -0.9 0  4.25 -0.9 0  4.300000000000001 -0.9 0  4.35 -0.9 0  4.4 -0.9 0  4.449999999999999 -0.9 0  4.5 -0.9 0  4.550000000000001 -0.9 0  4.6 -0.9 0  4.65 -0.9 0  4.699999999999999 -0.9 0  4.75 -0.9 0  4.800000000000001 -0.9 0  4.85 -0.9 0  4.9 -0.9 0  4.949999999999999 -0.9 0  5 -0.9 0  -5 -0.85 0  -4.95 -0.85 0  -4.9 -0.85 0  -4.85 -0.85 0  -4.8 -0.85 0  -4.75 -0.85 0  -4.7 -0.85 0  -4.65 -0.85 0  -4.6 -0.85 0  -4.55 -0.85 0  -4.5 -0.85 0  -
[...]
<PointData  Vectors="f_15"> 
<DataArray  type="Float64"  Name="f_15"  NumberOfComponents="3" format="ascii">5.9398819904305196e+00 0.0000000000000000e+00 0.0000000000000000e+00  5.9370523486059490e+00 8.0067471381401745e-02 0.0000000000000000e+00  5.9394042236013549e+00 1.5782750053246788e-01 0.0000000000000000e+00  5.9362851167797475e+00 2.3782622561278827e-01 0.0000000000000000e+00  5.9382597334108977e+00 3.1586651820645312e-01 0.0000000000000000e+00  5.9347424615064037e+00 3.9539784846669246e-01 0.0000000000000000e+00  5.9364056195575845e+00 4.7385010098922498e-01 0.0000000000000000e+00  5.9324198705865783e+00 5.5235712591155539e-01 0.0000000000000000e+00  5.9338201592667668e+00 6.3260464363097224e-01 0.0000000000000000e+00  5.9293900049763035e+00 7.0903710206110493e-01 0.0000000000000000e+00  5.9303812586966727e+00 7.8884865273649529e-01 0.0000000000000000e+00  5.9256871627328556e+00 8.7046396293860628e-01 0.0000000000000000e+00  5.9261147259744291e+00 9.4059061889527606e-01 0.0000000000000000e+00  5.9212388145288131e+00 1.0297369447457216e+00 0.0000000000000000e+00  5.9210366663770140e+00 1.1030651945975685e+00 0.0000000000000000e+00  5.9160019215468065e+00 1.1735248033466559e+00 0.0000000000000000e+00  5.9151818739392699e+00 1.2733089820964929e+00 0.0000000000000000e+00  5.9099230827236005e+00 1.3241524066208885e+00 0.0000000000000000e+00  5.9084209551136064e+00 1.4249659822545868e+00 0.0000000000000000e+00  5.9032296787192093e+00 1.4893532344593272e+00 0.0000000000000000e+00  5.9006000573973774e+00 1.5751156424546282e+00 0.0000000000000000e+00  5.8956990721938229e+00 1.6448510742241729e+00 0.0000000000000000e+00  5.8920595254712751e+00 1.7323261329687607e+00 0.0000000000000000e+00  5.8871276370547001e+00 1.8001216356527174e+00 0.0000000000000000e+00  5.8825192119090159e+00 1.8854441904447636e+00 0.0000000000000000e+00  5.8779554032589605e+00 1.9555964703741648e+00 0.0000000000000000e+00  5.8716822585781259e+00 2.0392045833042696e+00 0.0000000000000000e+00  5.8679289445583152e+00 2.1110178144013148e+00 0.0000000000000000e+00  5.8600673427077430e+00 2.1902347778626594e+00 0.0000000000000000e+00  5.8565335523735360e+00 2.2659665272291214e+00 0.0000000000000000e+00  5.8475766808710032e+00 2.3420543675694061e+00 0.0000000000000000e+00  5.8443647355184414e+00 2.4198939953918379e+00 0.0000000000000000e+00  5.8334551501866825e+00 2.4912769343823071e+00 0.0000000000000000e+00  5.8313779653745490e+00 2.5739741297867504e+00 0.0000000000000000e+00  5.8185333717433672e+00 2.6406425648175169e+00 0.0000000000000000e+00  5.8165244500872388e+00 2.7255840782912757e+00 0.0000000000000000e+00  5.8027998328210355e+00 2.7892629554166399e+00 0.0000000000000000e+00  5.8008023170603469e+00 2.8766960487125037e+00 0.0000000000000000e+00  5.7850861916588237e+00 2.9362366702513634e+00 0.0000000000000000e+00  5.7840618073038570e+00 3.0266082283014502e+00 0.0000000000000000e+00  5.7666961768310374e+00 3.0830296378635165e+00 0.0000000000000000e+00  5.7648711427649664e+00 3.1732482750333020e+00 0.0000000000000000e+00  5.7474685674533887e+00 3.2298438448779430e+00 0.0000000000000000e+00  5.7447806939992239e+00 3.3191814357052567e+00 0.0000000000000000e+00  5.7257525984361468e+00 3.3731836521789185e+00 0.0000000000000000e+00  5.7235184927472584e+00 3.4645610722659121e+00 0.0000000000000000e+00  5.7034571479225855e+00 3.5162179234204514e+00 0.0000000000000000e+00  5.6991795457875760e+00 3.6058125769154334e+00 0.0000000000000000e+00  5.6801917864673008e+00 3.6589460407490382e+00 0.0000000000000000e+00  5.6740249717448394e+00 3.7462194936148743e+00 0.0000000000000000e+00  5.6538288297807782e+00 3.7975296181965308e+00 0.0000000000000000e+00  5.6475245771834022e+00 3.8857890731035063e+00 0.0000000000000000e+00  5.6269805634747936e+00 3.9357019451681068e+00 0.0000000000000000e+00  5.6173780394889787e+00 4.0204782158518393e+00 0.0000000000000000e+00  5.5989299229934772e+00 4.0729925548916963e+00 0.0000000000000000e+00  5.5865566671695337e+00 4.1547191895581239e+00 0.0000000000000000e+00  5.5672457854103499e+00 4.2050302485445572e+00 0.0000000000000000e+00  5.5541346202144748e+00 4.2878511651097542e+00 0.0000000000000000e+00  5.5352361262996173e+00 4.3367249756138460e+00 0.0000000000000000e+00  5.5176481073626054e+00 4.4153986356346460e+00 0.0000000000000000e+00  5.5016702865270801e+00 4.4668464303420219e+00 0.0000000000000000e+00  5.4807833596451623e+00 4.5430470096503628e+00 0.0000000000000000e+00  5.4640844102009423e+00 4.5909425962913888e+00 0.0000000000000000e+00  5.4420113003967678e+00 4.6686714540511041e+00 0.0000000000000000e+00  5.4264446736889163e+00 4.7156317873827636e+00 0.0000000000000000e+00  5.3990858875664403e+00 4.7878805756521068e+00 0.0000000000000000e+00  5.3867096137787547e+00 4.8379337198337966e+00 0.0000000000000000e+00  5.3563643769449572e+00 4.9082066996612665e+00 0.0000000000000000e+00  5.3428184011892617e+00 4.9533301346536085e+00 0.0000000000000000e+00  5.3114544843184293e+00 5.0262675303555087e+00 0.0000000000000000e+00  5.2991986457169942e+00 5.0698030700997787e+00 0.0000000000000000e+00  5.2628600731573707e+00 5.1375685904309139e+00 0.0000000000000000e+00  5.2527671606661785e+00 5.1837904112903210e+00 0.0000000000000000e+00  5.2153828689523580e+00 5.2503551924454843e+00 0.0000000000000000e+00  5.2022634137759818e+00 5.2907294570166057e+00 0.0000000000000000e+00  5.1656572377472330e+00 5.3611750138875403e+00 0.0000000000000000e+00  5.1525647182760137e+00 5.3987392980761664e+00 0.0000000000000000e+00  5.1127208967825437e+00 5.4655955008018973e+00 0.0000000000000000e+00  5.0999775058166792e+00 5.5048005383209109e+00 0.0000000000000000e+00  5.0616214031987665e+00 5.5710143199178992e+00 0.0000000000000000e+00  5.0436674785894802e+00 5.6050008436572547e+00 0.0000000000000000e+00  5.0083650876657169e+00 5.6752729874935905e+00 0.0000000000000000e+00  4.9889363246385976e+00 5.7049697252232301e+00 0.0000000000000000e+00  4.9521472653850935e+00 5.7755678305033022e+00 0.0000000000000000e+00  4.9316329635101717e+00 5.8038634115479999e+00 0.0000000000000000e+00  4.8985839227348738e+00 5.8737737449151775e+00 0.0000000000000000e+00  4.8708896913530495e+00 5.9021397630759722e+00 0.0000000000000000e+00  4.8431192337151217e+00 5.9697964789284867e+00 0.0000000000000000e+00  4.8128786448565313e+00 5.9968603757203915e+00 0.0000000000000000e+00  4.7845997361054335e+00 6.0691245766844828e+00 0.0000000000000000e+00  4.7527962816659732e+00 6.0877832652372472e+00 0.0000000000000000e+00  4.7294251133785314e+00 6.1631140139561982e+00 0.0000000000000000e+00  4.6906097584787796e+00 6.1866009781247788e+00 0.0000000000000000e+00  4.6721209675575537e+00 6.2478107590011822e+00 0.0000000000000000e+00  4.6307335698045327e+00 6.2856695069796196e+00 0.0000000000000000e+00  4.6113279240150247e+00 6.3438119840811193e+00 0.0000000000000000e+00  4.5724435026488539e+00 6.3668051772642000e+00 0.0000000000000000e+00  4.5566782828414700e+00 6.4388023326520623e+00 0.0000000000000000e+00  4.5077413159632496e+00 6.4623268786915267e+00 0.0000000000000000e+00  4.4970877047000428e+00 6.5234880454649931e+00 0.0000000000000000e+00  4.4506081745251835e+00 6.5607372108165931e+00 0.0000000000000000e+00  4.4424407466542117e+00 6.5999464867011124e+00 0.0000000000000000e+00  4.3896699373191872e+00 6.6534790375630406e+00 0.0000000000000000e+00  4.3807151696609434e+00 6.6982991515558350e+00 0.0000000000000000e+00  4.3298493037583485e+00 6.7435819306426339e+00 0.0000000000000000e+00  4.3206241189417351e+00 6.7827977868783753e+00 0.0000000000000000e+00  4.2730574792915137e+00 6.8425376825559399e+00 0.0000000000000000e+00  4.2597923936897226e+00 6.8675880792694075e+00 0.0000000000000000e+00  4.2185496473644166e+00 6.9226835726692917e+00 0.0000000000000000e+00  4.2010687025527380e+00 6.9748074145581773e+00 0.0000000000000000e+00  4.1576598720764721e+00 6.9925552660700934e+00 0.0000000000000000e+00  4.1458677730055227e+00 7.0764451913037503e+00 0.0000000000000000e+00  4.1011764583168357e+00 7.0783378244624968e+00 0.0000000000000000e+00  4.0882819174590663e+00 7.1540566824230538e+00 0.0000000000000000e+00  4.0425765021123814e+00 7.1847601062343518e+00 0.0000000000000000e+00  4.0345650749777544e+00 7.2273251666208109e+00 0.0000000000000000e+00  3.9847098365742011e+00 7.2773323003540771e+00 0.0000000000000000e+00  3.9810178389173281e+00 7.3130137682259280e+00 0.0000000000000000e+00  3.9311099179746685e+00 7.3625028917006157e+00 0.0000000000000000e+00  3.9256769008114589e+00 7.3944795261291194e+00 0.0000000000000000e+00  3.8788005382949402e+00 7.4533598220813770e+00 0.0000000000000000e+00  3.8789062548021649e+00 7.4653074556724501e+00 0.0000000000000000e+00  3.8276441959332383e+00 7.5345564543466876e+00 0.0000000000000000e+00  3.8293510186476647e+00 7.5450322149821947e+00 0.0000000000000000e+00  3.8045776327302581e+00 7.5742972212891102e+00 0.0000000000000000e+00  3.8943683270357412e+00 7.4365772443060720e+00 0.0000000000000000e+00  3.9007732233416559e+00 7.4270281320458915e+00 0.0000000000000000e+00  3.9546959161684456e+00 7.3377160180768799e+00 0.0000000000000000e+00  3.9196744677101414e+00 7.3946578327503332e+00 0.0000000000000000e+00  3.9672497676849070e+00 7.3224504302015578e+00 0.0000000000000000e+00  3.9254928734696986e+00 7.3845890965019283e+00 0.0000000000000000e+00  3.9723333489379429e+00 7.3116393744085082e+00 0.0000000000000000e+00  3.9316116604098741e+00 7.3803954812132551e+00 0.0000000000000000e+00  3.9759812563757606e+00 7.3041560452200684e+00 0.0000000000000000e+00  3.9309185693766953e+00 7.3792494096350740e+00 0.0000000000000000e+00  3.9809259159048631e+00 7.3007911199573856e+00 0.0000000000000000e+00  3.9316569706871074e+00 7.3763926855986135e+00 0.0000000000000000e+00  3.9796766574406117e+00 7.3010146294517506e+00 0.0000000000000000e+00  3.9363230877273621e+00 7.3726546345846646e+00 0.0000000000000000e+00  3.9784361466875877e+00 7.3016156195045605e+00 0.0000000000000000e+00  3.9379406792108829e+00 7.3693290108384559e+00 0.0000000000000000e+00  3.9794736029328615e+00 7.3026374166241306e+00 0.0000000000000000e+00  3.9395888741267249e+00 7.3658345700424892e+00 0.0000000000000000e+00  3.9775137907053235e+00 7.3052485534295153e+00 0.0000000000000000e+00  3.9426000406199559e+00 7.3623817840596129e+00 0.0000000000000000e+00  3.9769122614140624e+00 7.3066026481351711e+00 0.0000000000000000e+00  3.9426977192775001e+00 7.3608050451261740e+00 0.0000000000000000e+00  3.9774464025227694e+00 7.3073968782318248e+00 0.0000000000000000e+00  3.9442799666939958e+00 7.3588528638994770e+00 0.0000000000000000e+00  3.9747005364529588e+00 7.3093883510355857e+00 0.0000000000000000e+00  3.9478447338943288e+00 7.3563247546689245e+00 0.0000000000000000e+00  3.9728922833604603e+00 7.3111282983621750e+00 0.0000000000000000e+00  3.9483827914384175e+00 7.3543542022044148e+00 0.0000000000000000e+00  3.9730678101963188e+00 7.3137455351505274e+00 0.0000000000000000e+00  3.9494513755270098e+00 7.3502556261694645e+00 0.0000000000000000e+00  3.9712876921326941e+00 7.3183509998875316e+00 0.0000000000000000e+00  3.9524184986874040e+00 7.3444285719890141e+00 0.0000000000000000e+00  3.9707640416379184e+00 7.3231232582716643e+00 0.0000000000000000e+00  3.9507689128269559e+00 7.3386312375844609e+00 0.0000000000000000e+00  3.9760750445115125e+00 7.3315899721056814e+00 0.0000000000000000e+00  3.9426781339714236e+00 7.3237009388448886e+00 0.0000000000000000e+00  3.9857826483301175e+00 7.3568731590918643e+00 0.0000000000000000e+00  3.9286582751829617e+00 7.2905613023700973e+00 0.0000000000000000e+00  3.9969938075623581e+00 7.3987040345436625e+00 0.0000000000000000e+00  3.9099557099563542e+00 7.2569677493071767e+00 0.0000000000000000e+00  4.0003121015666379e+00 7.4328766223703857e+00 0.0000000000000000e+00  3.9024410088698165e+00 7.2360811236957021e+00 0.0000000000000000e+00  3.9848132122074689e+00 7.4787590381221110e+00 0.0000000000000000e+00  3.9309021378162261e+00 7.1357722196194944e+00 0.0000000000000000e+00  3.8957334246451962e+00 7.6994200067522174e+00 0.0000000000000000e+00  4.1922779377651178e+00 6.6829375159834887e+00 0.0000000000000000e+00  3.4386360300874643e+00 8.3508138023171590e+00 0.0000000000000000e+00  8.0519415683941169e+00 1.3586489016854932e+00 0.0000000000000000e+00  9.4751594390158296e+00 1.2880857805148219e-01 0.0000000000000000e+00  9.4950835294633791e+00 -2.5702547372671726e-02 0.0000000000000000e+00  9.4417012909827243e+00 -6.5079774045977085e-03 0.0000000000000000e+00  9.4862833308148353e+00 -1.1303445692905822e-02 0.0000000000000000e+00  9.4929796817423373e+00 -4.3298418300560942e-02 0.0000000000000000e+00  9.4982211015777267e+00 -4.6787028650651721e-02 0.0000000000000000e+00  9.4961658648927845e+00 -5.0940782982712325e-02 0.0000000000000000e+00  9.4868782735476920e+00 -3.9698045888749124e-02 0.0000000000000000e+00  9.4953038784148003e+00 -6.0613340495350124e-02 0.0000000000000000e+00  9.4958367860200248e+00 -5.5235357730768292e-02 0.0000000000000000e+00  9.4947714278730224e+00 -6.5267657217150582e-02 0.0000000000000000e+00  9.4920665493761813e+00 -5.5624375401712098e-02 0.0000000000000000e+00  9.4955387897927768e+00 -7.7086686404919377e-02 0.0000000000000000e+00  9.4940920140852132e+00 -7.3379864169376696e-02 0.0000000000000000e+00  9.4950113991100160e+00 -9.5183696625893419e-02 0.0000000000000000e+00  9.4938620984818165e+00 -9.3440230753594380e-02 0.0000000000000000e+00  9.4948150936162552e+00 -1.1413237490281226e-01 0.0000000000000000e+00  9.4944086152201983e+00 -1.0687040539530841e-01 0.0000000000000000e+00  9.4948697024742774e+00 -1.2545510243604840e-01 0.0000000000000000e+00  9.4946080520709550e+00 -1.0551769595377805e-01 0.0000000000000000e+00  9.4945980606192073e+00 -1.1253685838023447e-01 0.0000000000000000e+00  9.4951916083186365e+00 -1.0043703502143329e-01 0.0000000000000000e+00  9.4948743929754862e+00 -9.4543078306214431e-02 0.0000000000000000e+00  9.4950426858557098e+00 -9.3575239616914704e-02 0.0000000000000000e+00  9.4950430640945882e+00 -7.3333199771249316e-02 0.0000000000000000e+00  9.4955385677739148e+00 -1.0922980558606971e-01 0.0000000000000000e+00  9.4947102262627521e+00 -2.8431851730723146e-02 0.0000000000000000e+00  9.4960687723368817e+00 0.0000000000000000e+00 0.0000000000000000e+00  5.9378029784160677e+00 0.0000000000000000e+00 2.3586483327764909e-03  5.9374894672365830e+00 7.7450907003089736e-02 -2.1476903113039881e-03  5.9374145551230244e+00 1.5831791459328415e-01 2.6292427774497118e-03  5.9369242684073651e+00 2.3501942270965576e-01 -3.0859138886706037e-03  5.9362797358351216e+00 3.1679264235126725e-01 3.2660953393013835e-03  5.9355462107937731e+00 3.9266210796379797e-01 -3.3923596161093963e-03  5.9343849606396128e+00 4.7463984812950705e-01 3.5748971787029410e-03  5.9334126515651731e+00 5.5076052310110402e-01 -3.7750269910807798e-03  5.9317635321929449e+00 6.3223336457481527e-01 3.8254451638885141e-03  5.9304281158321874e+00 7.0766099508967750e-01 -3.4577634359193466e-03  5.9284686526840868e+00 7.9177659928205746e-01 2.7106210905496939e-03  5.9266109563880152e+00 8.6275681709011776e-01 -1.7404586261406492e-03  5.9244237368955872e+00 9.4940998036691748e-01 8.2229087984391446e-04  5.9219734473466916e+00 1.0240104632397589e+00 3.0519431218374474e-04  5.9196378390895905e+00 1.0982375106930058e+00 -2.1233858994112098e-03  5.9164911471443382e+00 1.1894074562702666e+00 4.8534626366324397e-03  5.9140203458464038e+00 1.2514276740401375e+00 -7.4594362800950338e-03  5.9102661197607000e+00 1.3425707103870945e+00 8.3696855627387809e-03  5.9074421630610816e+00 1.4147005614824832e+00 -6.6909951917939201e-03  5.9033717904999161e+00 1.4939947736132717e+00 3.5598976578498226e-03  5.8997964426923364e+00 1.5708037612788937e+00 -9.1377484353093749e-04  5.8957953168223627e+00 1.6513238048198668e+00 -1.7792223190648177e-04  5.8911942070115684e+00 1.7264512194594324e+00 4.1234397816309346e-04  5.8871700014932324e+00 1.8042405690707053e+00 -6.2050796407070810e-04  5.8819952227463821e+00 1.8829911212517287e+00 9.1396047867170938e-04  5.8773019619184925e+00 1.9589220393592670e+00 -8.1748334968916232e-04  5.8719190053942967e+00 2.0368000292221375e+00 5.4135730901520591e-04  5.8666790851863704e+00 2.1123165689496450e+00 -5.0103624621188449e-04  5.8605206976035866e+00 2.1910396221536828e+00 6.7696875109161351e-04  5.8551479148366576e+00 2.2657051286910668e+00 -5.2439369051334220e-04  5.8484002464494900e+00 2.3432123277045021e+00 6.5789916106985996e-06  5.8420139413578713e+00 2.4180072897075355e+00 4.8175770893428105e-04  5.8354849672445424e+00 2.4954816188020437e+00 -7.0829358529850641e-04  5.8280488474001695e+00 2.5698220806367984e+00 9.5086838613034276e-04  5.8208293785911662e+00 2.6453397846002957e+00 -1.3242982672847642e-03  5.8132190440609550e+00 2.7211657871039741e+00 1.6760087822509731e-03  5.8053684735607378e+00 2.7950621237889179e+00 -1.8943779895395610e-03  5.7964131603801965e+00 2.8703488964186814e+00 2.1226344366382086e-03  5.7890092590115323e+00 2.9438478166693063e+00 -2.4139733846922145e-03  5.7787960542068602e+00 3.0190449556793797e+00 2.6611174674486715e-03  5.7704358339021402e+00 3.0901997686778673e+00 -2.8389880757206973e-03  5.7602198724524980e+00 3.1671177111688875e+00 3.0289888356997800e-03  5.7510843882236458e+00 3.2360209593089300e+00 -3.2623343791405744e-03  5.7391286086849709e+00 3.3118059098255963e+00 3.4586596763933313e-03  5.7307293509350226e+00 3.3815133354552760e+00 -3.6269049920243908e-03  5.7172807503408736e+00 3.4559232556083148e+00 3.7982273315006103e-03  5.7075727680715902e+00 3.5232227863826777e+00 -3.9968408835257792e-03  5.6943340131080262e+00 3.5995450033247782e+00 4.1875551053062506e-03  5.6837294113732879e+00 3.6642449322532178e+00 -4.4109733558751630e-03  5.6682470584746500e+00 3.7390821617075516e+00 4.6574567868840249e-03  5.6587406582618875e+00 3.8045864135074465e+00 -4.9412049132917012e-03  5.6414734399595732e+00 3.8780459010589903e+00 5.2321847916435432e-03  5.6303775889628316e+00 3.9402360161200929e+00 -5.5479126071107847e-03  5.6133889663100378e+00 4.0162429244201165e+00 5.8497443152551697e-03  5.6014455709633459e+00 4.0753038673413222e+00 -6.1721084940252625e-03  5.5816216782936028e+00 4.1494374196968105e+00 6.4881303505458883e-03  5.5711128544816129e+00 4.2092733726963578e+00 -6.8214975139237449e-03  5.5493327989010170e+00 4.2822375464762592e+00 7.1278571077022668e-03  5.5369313822166886e+00 4.3377243831724943e+00 -7.4455277394661354e-03  5.5154271387920897e+00 4.4137707002446600e+00 7.7466760686148092e-03  5.5024223459634607e+00 4.4659258131953781e+00 -8.0667723738845291e-03  5.4774471150876112e+00 4.5395181235885032e+00 8.3431298152537876e-03  5.4661717648425086e+00 4.5923298329264526e+00 -8.6031973868817037e-03  5.4392715555712314e+00 4.6655511617868664e+00 8.8149306906500392e-03  5.4258108629155908e+00 4.7124965281060849e+00 -9.0250944552607518e-03  5.3991106133625859e+00 4.7894349626489756e+00 9.1865029506920763e-03  5.3854994283310251e+00 4.8334665649100623e+00 -9.3141563155578495e-03  5.3548685392743023e+00 4.9066449271250514e+00 9.3576076008855796e-03  5.3429363406812387e+00 4.9522517459097299e+00 -9.3423020212757540e-03  5.3110265218057924e+00 5.0247571324083156e+00 9.2381743701136741e-03  5.2963286358743709e+00 5.0644773557702072e+00 -9.0631711183259602e-03  5.2648168039717156e+00 5.1403173321630762e+00 8.8028331651951990e-03  5.2503302941699150e+00 5.1782063362990369e+00 -8.5014057372842147e-03  5.2148566849076854e+00 5.2489167357627613e+00 8.1801747103812539e-03  5.2016979871302951e+00 5.2898914287422505e+00 -7.8537321045182573e-03  5.1660356599183759e+00 5.3587120757719591e+00 7.4850574121323359e-03  5.1492574610656305e+00 5.3952498242852513e+00 -7.0308778787942488e-03  5.1148503990332923e+00 5.4662900683825484e+00 6.4789044120603352e-03  5.0980223433853142e+00 5.5021116723279775e+00 -5.8652248932741131e-03  5.0602723100181528e+00 5.5677187385397708e+00 5.2825354608657081e-03  5.0443847498868664e+00 5.6073633311551587e+00 -4.7956657234545152e-03  5.0074624922393447e+00 5.6697622559673926e+00 4.3749201611033269e-03  4.98741610214212