<?xml version="1.0"?>
<VTKFile type="UnstructuredGrid"  version="0.1"  >
<UnstructuredGrid>
<Piece  NumberOfPoints="8241" NumberOfCells="16000">
<Points>
<DataArray  type="Float64"  NumberOfComponents="3"  format="ascii">-5 -1 0  -4.95 -1 0  -4.9 -1 0  -4.85 -1 0  -4.8 -1 0  -4.75 -1 0  -4.7 -1 0  -4.65 -1 0  -4.6 -1 0  -4.55 -1 0  -4.5 -1 0  -4.45 -1 0  -4.4 -1 0  -4.35 -1 0  -4.3 -1 0  -4.25 -1 0  -4.2 -1 0  -4.15 -1 0  -4.1 -1 0  -4.05 -1 0  -4 -1 0  -3.95 -1 0  -3.9 -1 0  -3.85 -1 0  -3.8 -1 0  -3.75 -1 0  -3.7 -1 0  -3.65 -1 0  -3.6 -1 0  -3.55 -1 0  -3.5 -1 0  -3.45 -1 0  -3.4 -1 0  -3.35 -1 0  -3.3 -1 0  -3.25 -1 0  -3.2 -1 0  -3.15 -1 0  -3.1 -1 0  -3.05 -1 0  -3 -1 0  -2.95 -1 0  -2.9 -1 0  -2.85 -1 0  -2.8 -1 0  -2.75 -1 0  -2.7 -1 0  -2.65 -1 0  -2.6 -1 0  -2.55 -1 0  -2.5 -1 0  -2.45 -1 0  -2.4 -1 0  -2.35 -1 0  -2.3 -1 0  -2.25 -1 0  -2.2 -1 0  -2.15 -1 0  -2.1 -1 0  -2.05 -1 0  -2 -1 0  -1.95 -1 0  -1.9 -1 0  -1.85 -1 0  -1.8 -1 0  -1.75 -1 0  -1.7 -1 0  -1.65 -1 0  -1.6 -1 0  -1.55 -1 0  -1.5 -1 0  -1.45 -1 0  -1.4 -1 0  -1.35 -1 0  -1.3 -1 0  -1.25 -1 0  -1.2 -1 0  -1.15 -1 0  -1.1 -1 0  -1.05 -1 0  -1 -1 0  -0.9500000000000002 -1 0  -0.9000000000000004 -1 0  -0.8499999999999996 -1 0  -0.7999999999999998 -1 0  -0.75 -1 0  -0.7000000000000002 -1 0  -0.6500000000000004 -1 0  -0.5999999999999996 -1 0  -0.5499999999999998 -1 0  -0.5 -1 0  -0.4500000000000002 -1 0  -0.4000000000000004 -1 0  -0.3499999999999996 -1 0  -0.2999999999999998 -1 0  -0.25 -1 0  -0.2000000000000002 -1 0  -0.1500000000000004 -1 0  -0.09999999999999964 -1 0  -0.04999999999999982 -1 0  0 -1 0  0.04999999999999982 -1 0  0.09999999999999964 -1 0  0.1500000000000004 -1 0  0.2000000000000002 -1 0  0.25 -1 0  0.2999999999999998 -1 0  0.3499999999999996 -1 0  0.4000000000000004 -1 0  0.4500000000000002 -1 0  0.5 -1 0  0.5499999999999998 -1 0  0.5999999999999996 -1 0  0.6500000000000004 -1 0  0.7000000000000002 -1 0  0.75 -1 0  0.7999999999999998 -1 0  0.8499999999999996 -1 0  0.9000000000000004 -1 0  0.9500000000000002 -1 0  1 -1 0  1.05 -1 0  1.1 -1 0  1.15 -1 0  1.2 -1 0  1.25 -1 0  1.3 -1 0  1.35 -1 0  1.4 -1 0  1.45 -1 0  1.5 -1 0  1.55 -1 0  1.6 -1 0  1.65 -1 0  1.7 -1 0  1.75 -1 0  1.8 -1 0  1.85 -1 0  1.9 -1 0  1.95 -1 0  2 -1 0  2.05 -1 0  2.1 -1 0  2.15 -1 0  2.2 -1 0  2.25 -1 0  2.3 -1 0  2.35 -1 0  2.4 -1 0  2.45 -1 0  2.5 -1 0  2.55 -1 0  2.6 -1 0  2.65 -1 0  2.7 -1 0  2.75 -1 0  2.8 -1 0  2.85 -1 0  2.9 -1 0  2.95 -1 0  3 -1 0  3.050000000000001 -1 0  3.1 -1 0  3.15 -1 0  3.199999999999999 -1 0  3.25 -1 0  3.300000000000001 -1 0  3.35 -1 0  3.4 -1 0  3.449999999999999 -1 0  3.5 -1 0  3.550000000000001 -1 0  3.6 -1 0  3.65 -1 0  3.699999999999999 -1 0  3.75 -1 0  3.800000000000001 -1 0  3.85 -1 0  3.9 -1 0  3.949999999999999 -1 0  4 -1 0  4.050000000000001 -1 0  4.1 -1 0  4.15 -1 0  4.199999999999999 -1 0  4.25 -1 0  4.300000000000001 -1 0  4.35 -1 0  4.4 -1 0  4.449999999999999 -1 0  4.5 -1 0  4.550000000000001 -1 0  4.6 -1 0  4.65 -1 0  4.699999999999999 -1 0  4.75 -1 0  4.800000000000001 -1 0  4.85 -1 0  4.9 -1 0  4.949999999999999 -1 0  5 -1 0  -5 -0.95 0  -4.95 -0.95 0  -4.9 -0.95 0  -4.85 -0.95 0  -4.8 -0.95 0  -4.75 -0.95 0  -4.7 -0.95 0  -4.65 -0.95 0  -4.6 -0.95 0  -4.55 -0.95 0  -4.5 -0.95 0  -4.45 -0.95 0  -4.4 -0.95 0  -4.35 -0.95 0  -4.3 -0.95 0  -4.25 -0.95 0  -4.2 -0.95 0  -4.15 -0.95 0  -4.1 -0.95 0  -4.05 -0.95 0  -4 -0.95 0  -3.95 -0.95 0  -3.9 -0.95 0  -3.85 -0.95 0  -3.8 -0.95 0  -3.75 -0.95 0  -3.7 -0.95 0  -3.65 -0.95 0  -3.6 -0.95 0  -3.55 -0.95 0  -3.5 -0.95 0  -3.45 -0.95 0  -3.4 -0.95 0  -3.35 -0.95 0  -3.3 -0.95 0  -3.25 -0.95 0  -3.2 -0.95 0  -3.15 -0.95 0  -3.1 -0.95 0  -3.05 -0.95 0  -3 -0.95 0  -2.95 -0.95 0  -2.9 -0.95 0  -2.85 -0.95 0  -2.8 -0.95 0  -2.75 -0.95 0  -2.7 -0.95 0  -2.65 -0.95 0  -2.6 -0.95 0  -2.55 -0.95 0  -2.5 -0.95 0  -2.45 -0.95 0  -2.4 -0.95 0  -2.35 -0.95 0  -2.3 -0.95 0  -2.25 -0.95 0  -2.2 -0.95 0  -2.15 -0.95 0  -2.1 -0.95 0  -2.05 -0.95 0  -2 -0.95 0  -1.95 -0.95 0  -1.9 -0.95 0  -1.85 -0.95 0  -1.8 -0.95 0  -1.75 -0.95 0  -1.7 -0.95 0  -1.65 -0.95 0  -1.6 -0.95 0  -1.55 -0.95 0  -1.5 -0.95 0  -1.45 -0.95 0  -1.4 -0.95 0  -1.35 -0.95 0  -1.3 -0.95 0  -1.25 -0.95 0  -1.2 -0.95 0  -1.15 -0.95 0  -1.1 -0.95 0  -1.05 -0.95 0  -1 -0.95 0  -0.9500000000000002 -0.95 0  -0.9000000000000004 -0.95 0  -0.8499999999999996 -0.95 0  -0.7999999999999998 -0.95 0  -0.75 -0.95 0  -0.7000000000000002 -0.95 0  -0.6500000000000004 -0.95 0  -0.5999999999999996 -0.95 0  -0.5499999999999998 -0.95 0  -0.5 -0.95 0  -0.4500000000000002 -0.95 0  -0.4000000000000004 -0.95 0  -0.3499999999999996 -0.95 0  -0.2999999999999998 -0.95 0  -0.25 -0.95 0  -0.2000000000000002 -0.95 0  -0.1500000000000004 -0.95 0  -0.09999999999999964 -0.95 0  -0.04999999999999982 -0.95 0  0 -0.95 0  0.04999999999999982 -0.95 0  0.09999999999999964 -0.95 0  0.1500000000000004 -0.95 0  0.2000000000000002 -0.95 0  0.25 -0.95 0  0.2999999999999998 -0.95 0  0.3499999999999996 -0.95 0  0.4000000000000004 -0.95 0  0.4500000000000002 -0.95 0  0.5 -0.95 0  0.5499999999999998 -0.95 0  0.5999999999999996 -0.95 0  0.6500000000000004 -0.95 0  0.7000000000000002 -0.95 0  0.75 -0.95 0  0.7999999999999998 -0.95 0  0.8499999999999996 -0.95 0  0.9000000000000004 -0.95 0  0.9500000000000002 -0.95 0  1 -0.95 0  1.05 -0.95 0  1.1 -0.95 0  1.15 -0.95 0  1.2 -0.95 0  1.25 -0.95 0  1.3 -0.95 0  1.35 -0.95 0  1.4 -0.95 0  1.45 -0.95 0  1.5 -0.95 0  1.55 -0.95 0  1.6 -0.95 0  1.65 -0.95 0  1.7 -0.95 0  1.75 -0.95 0  1.8 -0.95 0  1.85 -0.95 0  1.9 -0.95 0  1.95 -0.95 0  2 -0.95 0  2.05 -0.95 0  2.1 -0.95 0  2.15 -0.95 0  2.2 -0.95 0  2.25 -0.95 0  2.3 -0.95 0  2.35 -0.95 0  2.4 -0.95 0  2.45 -0.95 0  2.5 -0.95 0  2.55 -0.95 0  2.6 -0.95 0  2.65 -0.95 0  2.7 -0.95 0  2.75 -0.95 0  2.8 -0.95 0  2.85 -0.95 0  2.9 -0.95 0  2.95 -0.95 0  3 -0.95 0  3.050000000000001 -0.95 0  3.1 -0.95 0  3.15 -0.95 0  3.199999999999999 -0.95 0  3.25 -0.95 0  3.300000000000001 -0.95 0  3.35 -0.95 0  3.4 -0.95 0  3.449999999999999 -0.95 0  3.5 -0.95 0  3.550000000000001 -0.95 0  3.6 -0.95 0  3.65 -0.95 0  3.699999999999999 -0.95 0  3.75 -0.95 0  3.800000000000001 -0.95 0  3.85 -0.95 0  3.9 -0.95 0  3.949999999999999 -0.95 0  4 -0.95 0  4.050000000000001 -0.95 0  4.1 -0.95 0  4.15 -0.95 0  4.199999999999999 -0.95 0  4.25 -0.95 0  4.300000000000001 -0.95 0  4.35 -0.95 0  4.4 -0.95 0  4.449999999999999 -0.95 0  4.5 -0.95 0  4.550000000000001 -0.95 0  4.6 -0.95 0  4.65 -0.95 0  4.699999999999999 -0.95 0  4.75 -0.95 0  4.800000000000001 -0.95 0  4.85 -0.95 0  4.9 -0.95 0  4.949999999999999 -0.95 0  5 -0.95 0  -5 -0.9 0  -4.95 -0.9 0  -4.9 -0.9 0  -4.85 -0.9 0  -4.8 -0.9 0  -4.75 -0.9 0  -4.7 -0.9 0  -4.65 -0.9 0  -4.6 -0.9 0  -4.55 -0.9 0  -4.5 -0.9 0  -4.45 -0.9 0  -4.4 -0.9 0  -4.35 -0.9 0  -4.3 -0.9 0  -4.25 -0.9 0  -4.2 -0.9 0  -4.15 -0.9 0  -4.1 -0.9 0  -4.05 -0.9 0  -4 -0.9 0  -3.95 -0.9 0  -3.9 -0.9 0  -3.85 -0.9 0  -3.8 -0.9 0  -3.75 -0.9 0  -3.7 -0.9 0  -3.65 -0.9 0  -3.6 -0.9 0  -3.55 -0.9 0  -3.5 -0.9 0  -3.45 -0.9 0  -3.4 -0.9 0  -3.35 -0.9 0  -3.3 -0.9 0  -3.25 -0.9 0  -3.2 -0.9 0  -3.15 -0.9 0  -3.1 -0.9 0  -3.05 -0.9 0  -3 -0.9 0  -2.95 -0.9 0  -2.9 -0.9 0  -2.85 -0.9 0  -2.8 -0.9 0  -2.75 -0.9 0  -2.7 -0.9 0  -2.65 -0.9 0  -2.6 -0.9 0  -2.55 -0.9 0  -2.5 -0.9 0  -2.45 -0.9 0  -2.4 -0.9 0  -2.35 -0.9 0  -2.3 -0.9 0  -2.25 -0.9 0  -2.2 -0.9 0  -2.15 -0.9 0  -2.1 -0.9 0  -2.05 -0.9 0  -2 -0.9 0  -1.95 -0.9 0  -1.9 -0.9 0  -1.85 -0.9 0  -1.8 -0.9 0  -1.75 -0.9 0  -1.7 -0.9 0  -1.65 -0.9 0  -1.6 -0.9 0  -1.55 -0.9 0  -1.5 -0.9 0  -1.45 -0.9 0  -1.4 -0.9 0  -1.35 -0.9 0  -1.3 -0.9 0  -1.25 -0.9 0  -1.2 -0.9 0  -1.15 -0.9 0  -1.1 -0.9 0  -1.05 -0.9 0  -1 -0.9 0  -0.9500000000000002 -0.9 0  -0.9000000000000004 -0.9 0  -0.8499999999999996 -0.9 0  -0.7999999999999998 -0.9 0  -0.75 -0.9 0  -0.7000000000000002 -0.9 0  -0.6500000000000004 -0.9 0  -0.5999999999999996 -0.9 0  -0.5499999999999998 -0.9 0  -0.5 -0.9 0  -0.4500000000000002 -0.9 0  -0.4000000000000004 -0.9 0  -0.3499999999999996 -0.9 0  -0.2999999999999998 -0.9 0  -0.25 -0.9 0  -0.2000000000000002 -0.9 0  -0.1500000000000004 -0.9 0  -0.09999999999999964 -0.9 0  -0.04999999999999982 -0.9 0  0 -0.9 0  0.04999999999999982 -0.9 0  0.09999999999999964 -0.9 0  0.1500000000000004 -0.9 0  0.2000000000000002 -0.9 0  0.25 -0.9 0  0.2999999999999998 -0.9 0  0.3499999999999996 -0.9 0  0.4000000000000004 -0.9 0  0.4500000000000002 -0.9 0  0.5 -0.9 0  0.5499999999999998 -0.9 0  0.5999999999999996 -0.9 0  0.6500000000000004 -0.9 0  0.7000000000000002 -0.9 0  0.75 -0.9 0  0.7999999999999998 -0.9 0  0.8499999999999996 -0.9 0  0.9000000000000004 -0.9 0  0.9500000000000002 -0.9 0  1 -0.9 0  1.05 -0.9 0  1.1 -0.9 0  1.15 -0.9 0  1.2 -0.9 0  1.25 -0.9 0  1.3 -0.9 0  1.35 -0.9 0  1.4 -0.9 0  1.45 -0.9 0  1.5 -0.9 0  1.55 -0.9 0  1.6 -0.9 0  1.65 -0.9 0  1.7 -0.9 0  1.75 -0.9 0  1.8 -0.9 0  1.85 -0.9 0  1.9 -0.9 0  1.95 -0.9 0  2 -0.9 0  2.05 -0.9 0  2.1 -0.9 0  2.15 -0.9 0  2.2 -0.9 0  2.25 -0.9 0  2.3 -0.9 0  2.35 -0.9 0  2.4 -0.9 0  2.45 -0.9 0  2.5 -0.9 0  2.55 -0.9 0  2.6 -0.9 0  2.65 -0.9 0  2.7 -0.9 0  2.75 -0.9 0  2.8 -0.9 0  2.85 -0.9 0  2.9 -0.9 0  2.95 -0.9 0  3 -0.9 0  3.050000000000001 -0.9 0  3.1 -0.9 0  3.15 -0.9 0  3.199999999999999 -0.9 0  3.25 -0.9 0  3.300000000000001 -0.9 0  3.35 -0.9 0  3.4 -0.9 0  3.449999999999999 -0.9 0  3.5 -0.9 0  3.550000000000001 -0.9 0  3.6 -0.9 0  3.65 -0.9 0  3.699999999999999 -0.9 0  3.75 -0.9 0  3.800000000000001 -0.9 0  3.85 -0.9 0  3.9 -0.9 0  3.949999999999999 -0.9 0  4 -0.9 0  4.050000000000001 -0.9 0  4.1 -0.9 0  4.15 -0.9 0  4.199999999999999 -0.9 0  4.25 -0.9 0  4.300000000000001 -0.9 0  4.35 -0.9 0  4.4 -0.9 0  4.449999999999999 -0.9 0  4.5 -0.9 0  4.550000000000001 -0.9 0  4.6 -0.9 0  4.65 -0.9 0  4.699999999999999 -0.9 0  4.75 -0.9 0  4.800000000000001 -0.9 0  4.85 -0.9 0  4.9 -0.9 0  4.949999999999999 -0.9 0  5 -0.9 0  -5 -0.85 0  -4.95 -0.85 0  -4.9 -0.85 0  -4.85 -0.85 0  -4.8 -0.85 0  -4.75 -0.85 0  -4.7 -0.85 0  -4.65 -0.85 0  -4.6 -0.85 0  -4.55 -0.85 0  -4.5 -0.85 0  -
[...]
<PointData  Vectors="f_15"> 
<DataArray  type="Float64"  Name="f_15"  NumberOfComponents="3" format="ascii">2.5601199727008241e+00 0.0000000000000000e+00 0.0000000000000000e+00  2.5599034106775269e+00 4.8312894204512610e-02 0.0000000000000000e+00  2.5592348273121983e+00 9.6558855845759475e-02 0.0000000000000000e+00  2.5581291663812205e+00 1.4470357739663522e-01 0.0000000000000000e+00  2.5565693452717544e+00 1.9265998112073973e-01 0.0000000000000000e+00  2.5545592272441904e+00 2.4038997964139269e-01 0.0000000000000000e+00  2.5520831222370295e+00 2.8782556577747453e-01 0.0000000000000000e+00  2.5491477061623633e+00 3.3490886487045124e-01 0.0000000000000000e+00  2.5457254617752367e+00 3.8159009199729160e-01 0.0000000000000000e+00  2.5418269018152881e+00 4.2780214659805316e-01 0.0000000000000000e+00  2.5374273988784841e+00 4.7350160036657729e-01 0.0000000000000000e+00  2.5325295992168528e+00 5.1862454501759536e-01 0.0000000000000000e+00  2.5271115530492279e+00 5.6313395727136006e-01 0.0000000000000000e+00  2.5211845598147629e+00 6.0696456292366163e-01 0.0000000000000000e+00  2.5147187127685560e+00 6.5009699718388803e-01 0.0000000000000000e+00  2.5077325375498281e+00 6.9246903348399258e-01 0.0000000000000000e+00  2.5002060466204963e+00 7.3406825200279713e-01 0.0000000000000000e+00  2.4921555573716208e+00 7.7485731488576415e-01 0.0000000000000000e+00  2.4835673072450479e+00 8.1482602755660805e-01 0.0000000000000000e+00  2.4744743344989422e+00 8.5395717628058343e-01 0.0000000000000000e+00  2.4648601161059611e+00 8.9225967251131344e-01 0.0000000000000000e+00  2.4547670579853276e+00 9.2973699019196310e-01 0.0000000000000000e+00  2.4441957922224091e+00 9.6639609002024351e-01 0.0000000000000000e+00  2.4331874344960447e+00 1.0022967070656981e+00 0.0000000000000000e+00  2.4217490955426202e+00 1.0374186529517753e+00 0.0000000000000000e+00  2.4099399455543620e+00 1.0718678169840454e+00 0.0000000000000000e+00  2.3977615086207993e+00 1.1056274400978447e+00 0.0000000000000000e+00  2.3852763964947212e+00 1.1388119007477393e+00 0.0000000000000000e+00  2.3725007974970409e+00 1.1714037688005525e+00 0.0000000000000000e+00  2.3594865436791306e+00 1.2035547347278241e+00 0.0000000000000000e+00  2.3462485881276542e+00 1.2351973071417632e+00 0.0000000000000000e+00  2.3328501296784254e+00 1.2665243935749830e+00 0.0000000000000000e+00  2.3192886878903187e+00 1.2974530089391454e+00 0.0000000000000000e+00  2.3056258901475899e+00 1.3281524896370545e+00 0.0000000000000000e+00  2.2918643926560520e+00 1.3585434817771391e+00 0.0000000000000000e+00  2.2780487471649846e+00 1.3888089954255649e+00 0.0000000000000000e+00  2.2641769760342343e+00 1.4188145381386779e+00 0.0000000000000000e+00  2.2503005219600398e+00 1.4487423382451989e+00 0.0000000000000000e+00  2.2363962457173208e+00 1.4785205805187509e+00 0.0000000000000000e+00  2.2225172998363592e+00 1.5081975109817922e+00 0.0000000000000000e+00  2.2086443738639407e+00 1.5377612719634184e+00 0.0000000000000000e+00  2.1948107668388381e+00 1.5673286132148156e+00 0.0000000000000000e+00  2.1810050902606140e+00 1.5966913028816307e+00 0.0000000000000000e+00  2.1672601949037587e+00 1.6261115390668937e+00 0.0000000000000000e+00  2.1535506236250561e+00 1.6553872631975319e+00 0.0000000000000000e+00  2.1399173675551069e+00 1.6846315611790452e+00 0.0000000000000000e+00  2.1263362535117940e+00 1.7137545049001517e+00 0.0000000000000000e+00  2.1128360492892795e+00 1.7428898595909943e+00 0.0000000000000000e+00  2.0993994750613800e+00 1.7718279506483559e+00 0.0000000000000000e+00  2.0860651727625839e+00 1.8007582472234294e+00 0.0000000000000000e+00  2.0727926482105299e+00 1.8295453920856628e+00 0.0000000000000000e+00  2.0596435044271977e+00 1.8582058500477359e+00 0.0000000000000000e+00  2.0465745994332414e+00 1.8867472003045593e+00 0.0000000000000000e+00  2.0336371672179756e+00 1.9151227435569145e+00 0.0000000000000000e+00  2.0208034903521304e+00 1.9433106802679974e+00 0.0000000000000000e+00  2.0081319480052260e+00 1.9712778481120825e+00 0.0000000000000000e+00  1.9955795393678066e+00 1.9990431011764143e+00 0.0000000000000000e+00  1.9832304303968482e+00 2.0264455953131182e+00 0.0000000000000000e+00  1.9710435899637317e+00 2.0535689178633145e+00 0.0000000000000000e+00  1.9591051980181897e+00 2.0802441881379012e+00 0.0000000000000000e+00  1.9473930459136144e+00 2.1064515109565245e+00 0.0000000000000000e+00  1.9360162072683880e+00 2.1320289267590740e+00 0.0000000000000000e+00  1.9249589360489330e+00 2.1569231515018763e+00 0.0000000000000000e+00  1.9143582361102349e+00 2.1808858077531923e+00 0.0000000000000000e+00  1.9042469575589640e+00 2.2037679131731727e+00 0.0000000000000000e+00  1.8947748245925584e+00 2.2253205993026524e+00 0.0000000000000000e+00  1.8860198815088651e+00 2.2452029350414082e+00 0.0000000000000000e+00  1.8781868786229927e+00 2.2631181333158015e+00 0.0000000000000000e+00  1.8713471898381082e+00 2.2787142032301202e+00 0.0000000000000000e+00  1.8656765779439053e+00 2.2917322178747996e+00 0.0000000000000000e+00  1.8611986732208003e+00 2.3019526247463440e+00 0.0000000000000000e+00  1.8579023255416975e+00 2.3095617279879086e+00 0.0000000000000000e+00  1.8556162414259114e+00 2.3147519666667189e+00 0.0000000000000000e+00  1.8541551875266395e+00 2.3181530700453847e+00 0.0000000000000000e+00  1.8532215731521555e+00 2.3202584385059359e+00 0.0000000000000000e+00  1.8526227541162428e+00 2.3216571277279354e+00 0.0000000000000000e+00  1.8521851527398223e+00 2.3226340736404341e+00 0.0000000000000000e+00  1.8518440798891453e+00 2.3234348156245201e+00 0.0000000000000000e+00  1.8515348275343857e+00 2.3241148388255657e+00 0.0000000000000000e+00  1.8512508399116483e+00 2.3247825459897729e+00 0.0000000000000000e+00  1.8509972994315682e+00 2.3253359960295525e+00 0.0000000000000000e+00  1.8507494977716272e+00 2.3259142542289659e+00 0.0000000000000000e+00  1.8505179003455352e+00 2.3264200724590900e+00 0.0000000000000000e+00  1.8503152922700334e+00 2.3268911366946834e+00 0.0000000000000000e+00  1.8501243024883807e+00 2.3273074912488356e+00 0.0000000000000000e+00  1.8499336663062473e+00 2.3277437427000960e+00 0.0000000000000000e+00  1.8497908708124957e+00 2.3280538022233954e+00 0.0000000000000000e+00  1.8496268138157443e+00 2.3284266501590909e+00 0.0000000000000000e+00  1.8494969618191064e+00 2.3287100144957389e+00 0.0000000000000000e+00  1.8493761191863518e+00 2.3289790465878344e+00 0.0000000000000000e+00  1.8492749787091720e+00 2.3292059527548581e+00 0.0000000000000000e+00  1.8491613720980116e+00 2.3294480915035192e+00 0.0000000000000000e+00  1.8490943392117283e+00 2.3296022994949501e+00 0.0000000000000000e+00  1.8489940785468553e+00 2.3298155454569005e+00 0.0000000000000000e+00  1.8489337220659063e+00 2.3299503828132933e+00 0.0000000000000000e+00  1.8488618957116683e+00 2.3300970024910437e+00 0.0000000000000000e+00  1.8488137806838540e+00 2.3302107990797785e+00 0.0000000000000000e+00  1.8487453942227596e+00 2.3303400337459008e+00 0.0000000000000000e+00  1.8487159825740647e+00 2.3304153511806724e+00 0.0000000000000000e+00  1.8486565383746092e+00 2.3305273722029085e+00 0.0000000000000000e+00  1.8486298693283707e+00 2.3305906205956339e+00 0.0000000000000000e+00  1.8485838895314124e+00 2.3306691770307895e+00 0.0000000000000000e+00  1.8485650720769395e+00 2.3307249984208283e+00 0.0000000000000000e+00  1.8485209239125646e+00 2.3307875938103813e+00 0.0000000000000000e+00  1.8485098855016020e+00 2.3308306788365374e+00 0.0000000000000000e+00  1.8484733828297442e+00 2.3308776903246970e+00 0.0000000000000000e+00  1.8484603756619113e+00 2.3309210842719099e+00 0.0000000000000000e+00  1.8484288856699522e+00 2.3309510778974625e+00 0.0000000000000000e+00  1.8484288836696197e+00 2.3309777116287229e+00 0.0000000000000000e+00  1.8483915451796273e+00 2.3310116680940407e+00 0.0000000000000000e+00  1.8483897113074801e+00 2.3310380627150864e+00 0.0000000000000000e+00  1.8483664188872948e+00 2.3310538284185878e+00 0.0000000000000000e+00  1.8483612278382511e+00 2.3310697999245784e+00 0.0000000000000000e+00  1.8483366087274988e+00 2.3310983186150374e+00 0.0000000000000000e+00  1.8483412683693390e+00 2.3310883521367205e+00 0.0000000000000000e+00  1.8483115353326127e+00 2.3311369546569449e+00 0.0000000000000000e+00  1.8483098709665284e+00 2.3311159701284749e+00 0.0000000000000000e+00  1.8483069920499600e+00 2.3311382655047397e+00 0.0000000000000000e+00  1.8482838420905823e+00 2.3311277886591482e+00 0.0000000000000000e+00  1.8482803475590739e+00 2.3311809371292740e+00 0.0000000000000000e+00  1.8482737867149710e+00 2.3311122292867990e+00 0.0000000000000000e+00  1.8482683684757222e+00 2.3311919244807071e+00 0.0000000000000000e+00  1.8482454281210581e+00 2.3311259895496561e+00 0.0000000000000000e+00  1.8482627176735704e+00 2.3311942791142255e+00 0.0000000000000000e+00  1.8482269360769394e+00 2.3311118528899999e+00 0.0000000000000000e+00  1.8482452438909787e+00 2.3312158951150335e+00 0.0000000000000000e+00  1.8482211734651608e+00 2.3310823137187504e+00 0.0000000000000000e+00  1.8482282490322532e+00 2.3312305717118291e+00 0.0000000000000000e+00  1.8481995865329157e+00 2.3310842515950378e+00 0.0000000000000000e+00  1.8482293444922273e+00 2.3312045809743758e+00 0.0000000000000000e+00  1.8481826963901344e+00 2.3310665295569231e+00 0.0000000000000000e+00  1.8482114124412725e+00 2.3312106485327115e+00 0.0000000000000000e+00  1.8481750369522920e+00 2.3310483904153405e+00 0.0000000000000000e+00  1.8482016965731387e+00 2.3311754693168587e+00 0.0000000000000000e+00  1.8481654121167879e+00 2.3310610115019590e+00 0.0000000000000000e+00  1.8481784275890121e+00 2.3311537639336550e+00 0.0000000000000000e+00  1.8481678346454973e+00 2.3310517100116166e+00 0.0000000000000000e+00  1.8481594292894510e+00 2.3310676393383272e+00 0.0000000000000000e+00  1.8481698070578121e+00 2.3311172685947930e+00 0.0000000000000000e+00  1.8481118446842033e+00 2.3309232469905115e+00 0.0000000000000000e+00  1.8482207190378548e+00 2.3311855712511727e+00 0.0000000000000000e+00  1.8480320837397204e+00 2.3307691638810892e+00 0.0000000000000000e+00  1.8482729081504274e+00 2.3313410677300688e+00 0.0000000000000000e+00  1.8479531226990074e+00 2.3304792519272475e+00 0.0000000000000000e+00  1.8483584277665297e+00 2.3315923862426513e+00 0.0000000000000000e+00  1.8478080355951461e+00 2.3300716441019111e+00 0.0000000000000000e+00  1.8485063191948492e+00 2.3318492821607664e+00 0.0000000000000000e+00  1.8476334173263462e+00 2.3295248611329296e+00 0.0000000000000000e+00  1.8486540717445665e+00 2.3320883713731213e+00 0.0000000000000000e+00  1.8474634825570080e+00 2.3288390351447497e+00 0.0000000000000000e+00  1.8488087087802507e+00 2.3322706746781288e+00 0.0000000000000000e+00  1.8472723883467681e+00 2.3279910717758514e+00 0.0000000000000000e+00  1.8489873282102112e+00 2.3323863622594470e+00 0.0000000000000000e+00  1.8470676434271620e+00 2.3270171944925493e+00 0.0000000000000000e+00  1.8491438977327359e+00 2.3323042343093610e+00 0.0000000000000000e+00  1.8469334117340244e+00 2.3261093628882996e+00 0.0000000000000000e+00  1.8491869666746770e+00 2.3319170118640944e+00 0.0000000000000000e+00  1.8469119442182818e+00 2.3254059172628065e+00 0.0000000000000000e+00  1.8491579524977537e+00 2.3313542192834777e+00 0.0000000000000000e+00  1.8469087091250693e+00 2.3248143562135164e+00 0.0000000000000000e+00  1.8491254286129253e+00 2.3308742462841496e+00 0.0000000000000000e+00  1.8469549449854550e+00 2.3244260374152019e+00 0.0000000000000000e+00  1.8489569545103433e+00 2.3301077007862379e+00 0.0000000000000000e+00  1.8472107312117552e+00 2.3248592006699811e+00 0.0000000000000000e+00  1.8485891596799142e+00 2.3287508493357731e+00 0.0000000000000000e+00  1.8475527495189323e+00 2.3256398112855470e+00 0.0000000000000000e+00  1.8483172721417211e+00 2.3279025420063695e+00 0.0000000000000000e+00  1.8476713089860692e+00 2.3256813928153139e+00 0.0000000000000000e+00  1.8482562698696723e+00 2.3276660551791974e+00 0.0000000000000000e+00  1.8477556744780117e+00 2.3259680637563656e+00 0.0000000000000000e+00  1.8480439078457718e+00 2.3265918961802625e+00 0.0000000000000000e+00  1.8480576044544343e+00 2.3271451982719875e+00 0.0000000000000000e+00  1.8477700919835196e+00 2.3254503311868335e+00 0.0000000000000000e+00  1.8481566468700175e+00 2.3273752241238306e+00 0.0000000000000000e+00  1.8479026383132124e+00 2.3259824728291179e+00 0.0000000000000000e+00  1.8478162373379852e+00 2.3261346448545646e+00 0.0000000000000000e+00  1.8482698325721265e+00 2.3271050866112359e+00 0.0000000000000000e+00  1.8475696983500123e+00 2.3256089313436545e+00 0.0000000000000000e+00  1.8482328277947913e+00 2.3265126159928031e+00 0.0000000000000000e+00  1.8478923896399146e+00 2.3269320316694850e+00 0.0000000000000000e+00  1.8477180077801063e+00 2.3250368332985878e+00 0.0000000000000000e+00  1.8483715462017509e+00 2.3277364829596920e+00 0.0000000000000000e+00  1.8473090349458166e+00 2.3251734728449556e+00 0.0000000000000000e+00  1.8485361518153687e+00 2.3268667264548850e+00 0.0000000000000000e+00  1.8474079243742647e+00 2.3263529093210376e+00 0.0000000000000000e+00  1.8479632174001397e+00 2.3253775680978226e+00 0.0000000000000000e+00  1.8485336682741440e+00 2.3282446197726001e+00 0.0000000000000000e+00  1.8461734619059476e+00 2.3227856377313967e+00 0.0000000000000000e+00  1.8519735024899926e+00 2.3294659059615479e+00 0.0000000000000000e+00  1.8382396651720372e+00 2.3287712761937880e+00 0.0000000000000000e+00  1.8451892957574734e+00 2.3634695012096456e+00 0.0000000000000000e+00  2.2307710300697283e+00 1.4485247412746898e+00 0.0000000000000000e+00  2.7617939673449197e+00 3.5839811544829231e-01 0.0000000000000000e+00  2.9516686334146174e+00 4.9406798559995919e-02 0.0000000000000000e+00  2.9612615226402577e+00 1.5081675977237223e-02 0.0000000000000000e+00  2.9643674641913171e+00 1.4941270430675693e-03 0.0000000000000000e+00  2.9721488733935191e+00 -8.4399708762630549e-03 0.0000000000000000e+00  2.9726069248800266e+00 -7.3837110970311256e-03 0.0000000000000000e+00  2.9726911872271624e+00 -1.5386371616981021e-02 0.0000000000000000e+00  2.9743338054416122e+00 -1.1937741600766374e-02 0.0000000000000000e+00  2.9721544134160371e+00 0.0000000000000000e+00 0.0000000000000000e+00  2.5601238535631561e+00 0.0000000000000000e+00 -1.4394339447352738e-05  2.5599013214673403e+00 4.8316955076526981e-02 6.3181727366661593e-06  2.5592374630614718e+00 9.6570013639202743e-02 -3.9647193544929639e-06  2.5581296929725856e+00 1.4471003740683797e-01 4.7891361208346808e-06  2.5565701820712885e+00 1.9266414787442854e-01 -5.7630548189081194e-06  2.5545578701665144e+00 2.4039869706040343e-01 5.7700184683169524e-06  2.5520867787585484e+00 2.8782499215557400e-01 -5.8809516273821695e-06  2.5491443062532371e+00 3.3491667497580396e-01 5.4343936029979881e-06  2.5457272549778822e+00 3.8158784251684169e-01 -5.4617300385888891e-06  2.5418259805009611e+00 4.2780686805802876e-01 5.4403109584270431e-06  2.5374277117761568e+00 4.7349819857779840e-01 -5.6550380357729159e-06  2.5325261433074844e+00 5.1862882724620951e-01 5.8607087568992776e-06  2.5271147707422719e+00 5.6312670151547961e-01 -5.8061774048590153e-06  2.5211795411566524e+00 6.0696947812754443e-01 6.0287983991489190e-06  2.5147194770081525e+00 6.5008959966935242e-01 -5.8387289093375192e-06  2.5077300349009328e+00 6.9247009726276565e-01 6.5334758236033757e-06  2.5002060760742375e+00 7.3406332258031670e-01 -6.5357863246447574e-06  2.4921497190212185e+00 7.7485789742650468e-01 7.5719991684447991e-06  2.4835704255807625e+00 8.1481843608178606e-01 -7.2529030340220934e-06  2.4744676763770035e+00 8.5395992784332142e-01 8.1531596351759494e-06  2.4648599441200063e+00 8.9225452957933304e-01 -7.7424469497349329e-06  2.4547633254973888e+00 9.2973297840250635e-01 9.1879707962160107e-06  2.4441956128271185e+00 9.6639985113560656e-01 -9.4024209897238699e-06  2.4331798126676745e+00 1.0022891984309770e+00 1.1029876680772511e-05  2.4217526994707264e+00 1.0374209944857233e+00 -1.0787860662687251e-05  2.4099324500692245e+00 1.0718663607008001e+00 1.1471775688030686e-05  2.3977616000207673e+00 1.1056289605639686e+00 -1.1271373664302409e-05  2.3852730312335328e+00 1.1388056460121934e+00 1.2962001676540870e-05  2.3725018527692510e+00 1.1714167565659461e+00 -1.4890613446719415e-05  2.3594794047177050e+00 1.2035418370564481e+00 1.7657262817048669e-05  2.3462551633894235e+00 1.2352082288005271e+00 -1.9431509551179223e-05  2.3328432571597264e+00 1.2665235068861962e+00 2.0442115018369346e-05  2.3192928229747976e+00 1.2974543999174151e+00 -2.0739736104891396e-05  2.3056241034805596e+00 1.3281484194926649e+00 2.0899328983412880e-05  2.2918692381321448e+00 1.3585592488948710e+00 -2.1172354560622480e-05  2.2780443555837948e+00 1.3887948329191326e+00 2.1126245052582678e-05  2.2641874986989294e+00 1.4188155343269664e+00 -2.0534139704106817e-05  2.2502956066287543e+00 1.4487609396040448e+00 1.9185649025310089e-05  2.2364046330910043e+00 1.4784958582943442e+00 -1.7049167476573695e-05  2.2225181738705411e+00 1.5081976110530029e+00 1.4474134334603499e-05  2.2086499491370595e+00 1.5377903036709744e+00 -1.1354863630493641e-05  2.1948108229091035e+00 1.5672780540866100e+00 9.9438287206811233e-06  2.1810148664734221e+00 1.5967162758859066e+00 -1.1329541197423847e-05  2.1672561755328932e+00 1.6261109557404556e+00 1.7409268384426993e-05  2.1535596439044502e+00 1.6553651841820833e+00 -2.3868575792807774e-05  2.1399158567949450e+00 1.6846272945310703e+00 2.8459330424424102e-05  2.1263413637751678e+00 1.7137706529613674e+00 -2.7912852962939703e-05  2.1128312228278210e+00 1.7428632259081922e+00 2.6470441209394261e-05  2.0994095537655584e+00 1.7718212550099337e+00 -2.4326219755150990e-05  2.0860534320112092e+00 1.8007746224227188e+00 2.3328934287707737e-05  2.0728016186425320e+00 1.8295074609959983e+00 -2.1041219241395967e-05  2.0596364536745617e+00 1.8582190853567080e+00 1.9781637573757637e-05  2.0465772670028621e+00 1.8867268358230644e+00 -1.7997972252123568e-05  2.0336294269137540e+00 1.9151139603777374e+00 1.5929730678139358e-05  2.0208103223868981e+00 1.9432837361379589e+00 -1.1493015525905409e-05  2.0081173101510492e+00 1.9712970046128655e+00 8.4373489968109569e-06  1.9955843730994420e+00 1.9989946437123232e+00 -6.0890123809890356e-06  1.9832175211508056e+00 2.0264532932949946e+00 5.0432123861580005e-06  1.9710420041068433e+00 2.0535555567285662e+00 -3.2178581194662065e-06  1.9590881667578433e+00 2.0802376114694745e+00 2.6721460892441894e-06  1.9473931667532125e+00 2.1064302604330361e+00 -2.7560399027045409e-06  1.9359927404384256e+00 2.1320429957101927e+00 2.9837353676453785e-06  1.9249492623033371e+00 2.1569104885942552e+00 -3.3957804643170792e-06  1.9143354774157586e+00 2.1808924722000640e+00 3.7413223876361104e-06  1.9042288565707546e+00 2.2037907574612361e+00 -4.4316059636871620e-06  1.8947405843213023e+00 2.2253252802221191e+00 3.2964977014054409e-06  1.8860094239680485e+00 2.2452077052224220e+00 -4.2201107841816096e-06  1.8781528714074933e+00 2.2631365376695372e+00 7.0195922508252923e-06  1.8713291425237610e+00 2.2787250171542790e+00 -6.6317691415309418e-06  1.8656579261099122e+00 2.2917139607721841e+00 1.0817738411619996e-05  1.8611902362500585e+00 2.3019569932850716e+00 -6.0821664871166399e-06  1.8578883422040147e+00 2.3095280766882169e+00 1.2412982336534877e-05  1.8556304425379040e+00 2.3147110249799394e+00 -9.2414402795187588e-06  1.8541547618782259e+00 2.3181047057457969e+00 1.0239241156005724e-05  1.8532269127982113e+00 2.3202146274130433e+00 -1.5504596779500890e-05  1.8526109921919425e+00 2.3216362577219858e+00 9.4710575442344274e-06  1.8521751465769256e+00 2.3226230295091854e+00 -1.4000157843903368e-05  1.8518115382285747e+00 2.3234537706218474e+00 9.7723613200995646e-06  1.8515029060003672e+00 2.3241544748750216e+00 -1.2361431596867294e-05  1.8512219972543451e+00 2.3247948306774515e+00 1.1567670414950496e-05  1.8509650555863311e+00 2.3253749689923646e+00 -1.2408663295663963e-05  1.8507125252190808e+00 2.3259526946961921e+00 1.2805259540088087e-05  1.8505040736867968e+00 2.326422674900