<?xml version="1.0"?>
<VTKFile type="UnstructuredGrid"  version="0.1"  >
<UnstructuredGrid>
<Piece  NumberOfPoints="8241" NumberOfCells="16000">
<Points>
<DataArray  type="Float64"  NumberOfComponents="3"  format="ascii">-5 -1 0  -4.95 -1 0  -4.9 -1 0  -4.85 -1 0  -4.8 -1 0  -4.75 -1 0  -4.7 -1 0  -4.65 -1 0  -4.6 -1 0  -4.55 -1 0  -4.5 -1 0  -4.45 -1 0  -4.4 -1 0  -4.35 -1 0  -4.3 -1 0  -4.25 -1 0  -4.2 -1 0  -4.15 -1 0  -4.1 -1 0  -4.05 -1 0  -4 -1 0  -3.95 -1 0  -3.9 -1 0  -3.85 -1 0  -3.8 -1 0  -3.75 -1 0  -3.7 -1 0  -3.65 -1 0  -3.6 -1 0  -3.55 -1 0  -3.5 -1 0  -3.45 -1 0  -3.4 -1 0  -3.35 -1 0  -3.3 -1 0  -3.25 -1 0  -3.2 -1 0  -3.15 -1 0  -3.1 -1 0  -3.05 -1 0  -3 -1 0  -2.95 -1 0  -2.9 -1 0  -2.85 -1 0  -2.8 -1 0  -2.75 -1 0  -2.7 -1 0  -2.65 -1 0  -2.6 -1 0  -2.55 -1 0  -2.5 -1 0  -2.45 -1 0  -2.4 -1 0  -2.35 -1 0  -2.3 -1 0  -2.25 -1 0  -2.2 -1 0  -2.15 -1 0  -2.1 -1 0  -2.05 -1 0  -2 -1 0  -1.95 -1 0  -1.9 -1 0  -1.85 -1 0  -1.8 -1 0  -1.75 -1 0  -1.7 -1 0  -1.65 -1 0  -1.6 -1 0  -1.55 -1 0  -1.5 -1 0  -1.45 -1 0  -1.4 -1 0  -1.35 -1 0  -1.3 -1 0  -1.25 -1 0  -1.2 -1 0  -1.15 -1 0  -1.1 -1 0  -1.05 -1 0  -1 -1 0  -0.9500000000000002 -1 0  -0.9000000000000004 -1 0  -0.8499999999999996 -1 0  -0.7999999999999998 -1 0  -0.75 -1 0  -0.7000000000000002 -1 0  -0.6500000000000004 -1 0  -0.5999999999999996 -1 0  -0.5499999999999998 -1 0  -0.5 -1 0  -0.4500000000000002 -1 0  -0.4000000000000004 -1 0  -0.3499999999999996 -1 0  -0.2999999999999998 -1 0  -0.25 -1 0  -0.2000000000000002 -1 0  -0.1500000000000004 -1 0  -0.09999999999999964 -1 0  -0.04999999999999982 -1 0  0 -1 0  0.04999999999999982 -1 0  0.09999999999999964 -1 0  0.1500000000000004 -1 0  0.2000000000000002 -1 0  0.25 -1 0  0.2999999999999998 -1 0  0.3499999999999996 -1 0  0.4000000000000004 -1 0  0.4500000000000002 -1 0  0.5 -1 0  0.5499999999999998 -1 0  0.5999999999999996 -1 0  0.6500000000000004 -1 0  0.7000000000000002 -1 0  0.75 -1 0  0.7999999999999998 -1 0  0.8499999999999996 -1 0  0.9000000000000004 -1 0  0.9500000000000002 -1 0  1 -1 0  1.05 -1 0  1.1 -1 0  1.15 -1 0  1.2 -1 0  1.25 -1 0  1.3 -1 0  1.35 -1 0  1.4 -1 0  1.45 -1 0  1.5 -1 0  1.55 -1 0  1.6 -1 0  1.65 -1 0  1.7 -1 0  1.75 -1 0  1.8 -1 0  1.85 -1 0  1.9 -1 0  1.95 -1 0  2 -1 0  2.05 -1 0  2.1 -1 0  2.15 -1 0  2.2 -1 0  2.25 -1 0  2.3 -1 0  2.35 -1 0  2.4 -1 0  2.45 -1 0  2.5 -1 0  2.55 -1 0  2.6 -1 0  2.65 -1 0  2.7 -1 0  2.75 -1 0  2.8 -1 0  2.85 -1 0  2.9 -1 0  2.95 -1 0  3 -1 0  3.050000000000001 -1 0  3.1 -1 0  3.15 -1 0  3.199999999999999 -1 0  3.25 -1 0  3.300000000000001 -1 0  3.35 -1 0  3.4 -1 0  3.449999999999999 -1 0  3.5 -1 0  3.550000000000001 -1 0  3.6 -1 0  3.65 -1 0  3.699999999999999 -1 0  3.75 -1 0  3.800000000000001 -1 0  3.85 -1 0  3.9 -1 0  3.949999999999999 -1 0  4 -1 0  4.050000000000001 -1 0  4.1 -1 0  4.15 -1 0  4.199999999999999 -1 0  4.25 -1 0  4.300000000000001 -1 0  4.35 -1 0  4.4 -1 0  4.449999999999999 -1 0  4.5 -1 0  4.550000000000001 -1 0  4.6 -1 0  4.65 -1 0  4.699999999999999 -1 0  4.75 -1 0  4.800000000000001 -1 0  4.85 -1 0  4.9 -1 0  4.949999999999999 -1 0  5 -1 0  -5 -0.95 0  -4.95 -0.95 0  -4.9 -0.95 0  -4.85 -0.95 0  -4.8 -0.95 0  -4.75 -0.95 0  -4.7 -0.95 0  -4.65 -0.95 0  -4.6 -0.95 0  -4.55 -0.95 0  -4.5 -0.95 0  -4.45 -0.95 0  -4.4 -0.95 0  -4.35 -0.95 0  -4.3 -0.95 0  -4.25 -0.95 0  -4.2 -0.95 0  -4.15 -0.95 0  -4.1 -0.95 0  -4.05 -0.95 0  -4 -0.95 0  -3.95 -0.95 0  -3.9 -0.95 0  -3.85 -0.95 0  -3.8 -0.95 0  -3.75 -0.95 0  -3.7 -0.95 0  -3.65 -0.95 0  -3.6 -0.95 0  -3.55 -0.95 0  -3.5 -0.95 0  -3.45 -0.95 0  -3.4 -0.95 0  -3.35 -0.95 0  -3.3 -0.95 0  -3.25 -0.95 0  -3.2 -0.95 0  -3.15 -0.95 0  -3.1 -0.95 0  -3.05 -0.95 0  -3 -0.95 0  -2.95 -0.95 0  -2.9 -0.95 0  -2.85 -0.95 0  -2.8 -0.95 0  -2.75 -0.95 0  -2.7 -0.95 0  -2.65 -0.95 0  -2.6 -0.95 0  -2.55 -0.95 0  -2.5 -0.95 0  -2.45 -0.95 0  -2.4 -0.95 0  -2.35 -0.95 0  -2.3 -0.95 0  -2.25 -0.95 0  -2.2 -0.95 0  -2.15 -0.95 0  -2.1 -0.95 0  -2.05 -0.95 0  -2 -0.95 0  -1.95 -0.95 0  -1.9 -0.95 0  -1.85 -0.95 0  -1.8 -0.95 0  -1.75 -0.95 0  -1.7 -0.95 0  -1.65 -0.95 0  -1.6 -0.95 0  -1.55 -0.95 0  -1.5 -0.95 0  -1.45 -0.95 0  -1.4 -0.95 0  -1.35 -0.95 0  -1.3 -0.95 0  -1.25 -0.95 0  -1.2 -0.95 0  -1.15 -0.95 0  -1.1 -0.95 0  -1.05 -0.95 0  -1 -0.95 0  -0.9500000000000002 -0.95 0  -0.9000000000000004 -0.95 0  -0.8499999999999996 -0.95 0  -0.7999999999999998 -0.95 0  -0.75 -0.95 0  -0.7000000000000002 -0.95 0  -0.6500000000000004 -0.95 0  -0.5999999999999996 -0.95 0  -0.5499999999999998 -0.95 0  -0.5 -0.95 0  -0.4500000000000002 -0.95 0  -0.4000000000000004 -0.95 0  -0.3499999999999996 -0.95 0  -0.2999999999999998 -0.95 0  -0.25 -0.95 0  -0.2000000000000002 -0.95 0  -0.1500000000000004 -0.95 0  -0.09999999999999964 -0.95 0  -0.04999999999999982 -0.95 0  0 -0.95 0  0.04999999999999982 -0.95 0  0.09999999999999964 -0.95 0  0.1500000000000004 -0.95 0  0.2000000000000002 -0.95 0  0.25 -0.95 0  0.2999999999999998 -0.95 0  0.3499999999999996 -0.95 0  0.4000000000000004 -0.95 0  0.4500000000000002 -0.95 0  0.5 -0.95 0  0.5499999999999998 -0.95 0  0.5999999999999996 -0.95 0  0.6500000000000004 -0.95 0  0.7000000000000002 -0.95 0  0.75 -0.95 0  0.7999999999999998 -0.95 0  0.8499999999999996 -0.95 0  0.9000000000000004 -0.95 0  0.9500000000000002 -0.95 0  1 -0.95 0  1.05 -0.95 0  1.1 -0.95 0  1.15 -0.95 0  1.2 -0.95 0  1.25 -0.95 0  1.3 -0.95 0  1.35 -0.95 0  1.4 -0.95 0  1.45 -0.95 0  1.5 -0.95 0  1.55 -0.95 0  1.6 -0.95 0  1.65 -0.95 0  1.7 -0.95 0  1.75 -0.95 0  1.8 -0.95 0  1.85 -0.95 0  1.9 -0.95 0  1.95 -0.95 0  2 -0.95 0  2.05 -0.95 0  2.1 -0.95 0  2.15 -0.95 0  2.2 -0.95 0  2.25 -0.95 0  2.3 -0.95 0  2.35 -0.95 0  2.4 -0.95 0  2.45 -0.95 0  2.5 -0.95 0  2.55 -0.95 0  2.6 -0.95 0  2.65 -0.95 0  2.7 -0.95 0  2.75 -0.95 0  2.8 -0.95 0  2.85 -0.95 0  2.9 -0.95 0  2.95 -0.95 0  3 -0.95 0  3.050000000000001 -0.95 0  3.1 -0.95 0  3.15 -0.95 0  3.199999999999999 -0.95 0  3.25 -0.95 0  3.300000000000001 -0.95 0  3.35 -0.95 0  3.4 -0.95 0  3.449999999999999 -0.95 0  3.5 -0.95 0  3.550000000000001 -0.95 0  3.6 -0.95 0  3.65 -0.95 0  3.699999999999999 -0.95 0  3.75 -0.95 0  3.800000000000001 -0.95 0  3.85 -0.95 0  3.9 -0.95 0  3.949999999999999 -0.95 0  4 -0.95 0  4.050000000000001 -0.95 0  4.1 -0.95 0  4.15 -0.95 0  4.199999999999999 -0.95 0  4.25 -0.95 0  4.300000000000001 -0.95 0  4.35 -0.95 0  4.4 -0.95 0  4.449999999999999 -0.95 0  4.5 -0.95 0  4.550000000000001 -0.95 0  4.6 -0.95 0  4.65 -0.95 0  4.699999999999999 -0.95 0  4.75 -0.95 0  4.800000000000001 -0.95 0  4.85 -0.95 0  4.9 -0.95 0  4.949999999999999 -0.95 0  5 -0.95 0  -5 -0.9 0  -4.95 -0.9 0  -4.9 -0.9 0  -4.85 -0.9 0  -4.8 -0.9 0  -4.75 -0.9 0  -4.7 -0.9 0  -4.65 -0.9 0  -4.6 -0.9 0  -4.55 -0.9 0  -4.5 -0.9 0  -4.45 -0.9 0  -4.4 -0.9 0  -4.35 -0.9 0  -4.3 -0.9 0  -4.25 -0.9 0  -4.2 -0.9 0  -4.15 -0.9 0  -4.1 -0.9 0  -4.05 -0.9 0  -4 -0.9 0  -3.95 -0.9 0  -3.9 -0.9 0  -3.85 -0.9 0  -3.8 -0.9 0  -3.75 -0.9 0  -3.7 -0.9 0  -3.65 -0.9 0  -3.6 -0.9 0  -3.55 -0.9 0  -3.5 -0.9 0  -3.45 -0.9 0  -3.4 -0.9 0  -3.35 -0.9 0  -3.3 -0.9 0  -3.25 -0.9 0  -3.2 -0.9 0  -3.15 -0.9 0  -3.1 -0.9 0  -3.05 -0.9 0  -3 -0.9 0  -2.95 -0.9 0  -2.9 -0.9 0  -2.85 -0.9 0  -2.8 -0.9 0  -2.75 -0.9 0  -2.7 -0.9 0  -2.65 -0.9 0  -2.6 -0.9 0  -2.55 -0.9 0  -2.5 -0.9 0  -2.45 -0.9 0  -2.4 -0.9 0  -2.35 -0.9 0  -2.3 -0.9 0  -2.25 -0.9 0  -2.2 -0.9 0  -2.15 -0.9 0  -2.1 -0.9 0  -2.05 -0.9 0  -2 -0.9 0  -1.95 -0.9 0  -1.9 -0.9 0  -1.85 -0.9 0  -1.8 -0.9 0  -1.75 -0.9 0  -1.7 -0.9 0  -1.65 -0.9 0  -1.6 -0.9 0  -1.55 -0.9 0  -1.5 -0.9 0  -1.45 -0.9 0  -1.4 -0.9 0  -1.35 -0.9 0  -1.3 -0.9 0  -1.25 -0.9 0  -1.2 -0.9 0  -1.15 -0.9 0  -1.1 -0.9 0  -1.05 -0.9 0  -1 -0.9 0  -0.9500000000000002 -0.9 0  -0.9000000000000004 -0.9 0  -0.8499999999999996 -0.9 0  -0.7999999999999998 -0.9 0  -0.75 -0.9 0  -0.7000000000000002 -0.9 0  -0.6500000000000004 -0.9 0  -0.5999999999999996 -0.9 0  -0.5499999999999998 -0.9 0  -0.5 -0.9 0  -0.4500000000000002 -0.9 0  -0.4000000000000004 -0.9 0  -0.3499999999999996 -0.9 0  -0.2999999999999998 -0.9 0  -0.25 -0.9 0  -0.2000000000000002 -0.9 0  -0.1500000000000004 -0.9 0  -0.09999999999999964 -0.9 0  -0.04999999999999982 -0.9 0  0 -0.9 0  0.04999999999999982 -0.9 0  0.09999999999999964 -0.9 0  0.1500000000000004 -0.9 0  0.2000000000000002 -0.9 0  0.25 -0.9 0  0.2999999999999998 -0.9 0  0.3499999999999996 -0.9 0  0.4000000000000004 -0.9 0  0.4500000000000002 -0.9 0  0.5 -0.9 0  0.5499999999999998 -0.9 0  0.5999999999999996 -0.9 0  0.6500000000000004 -0.9 0  0.7000000000000002 -0.9 0  0.75 -0.9 0  0.7999999999999998 -0.9 0  0.8499999999999996 -0.9 0  0.9000000000000004 -0.9 0  0.9500000000000002 -0.9 0  1 -0.9 0  1.05 -0.9 0  1.1 -0.9 0  1.15 -0.9 0  1.2 -0.9 0  1.25 -0.9 0  1.3 -0.9 0  1.35 -0.9 0  1.4 -0.9 0  1.45 -0.9 0  1.5 -0.9 0  1.55 -0.9 0  1.6 -0.9 0  1.65 -0.9 0  1.7 -0.9 0  1.75 -0.9 0  1.8 -0.9 0  1.85 -0.9 0  1.9 -0.9 0  1.95 -0.9 0  2 -0.9 0  2.05 -0.9 0  2.1 -0.9 0  2.15 -0.9 0  2.2 -0.9 0  2.25 -0.9 0  2.3 -0.9 0  2.35 -0.9 0  2.4 -0.9 0  2.45 -0.9 0  2.5 -0.9 0  2.55 -0.9 0  2.6 -0.9 0  2.65 -0.9 0  2.7 -0.9 0  2.75 -0.9 0  2.8 -0.9 0  2.85 -0.9 0  2.9 -0.9 0  2.95 -0.9 0  3 -0.9 0  3.050000000000001 -0.9 0  3.1 -0.9 0  3.15 -0.9 0  3.199999999999999 -0.9 0  3.25 -0.9 0  3.300000000000001 -0.9 0  3.35 -0.9 0  3.4 -0.9 0  3.449999999999999 -0.9 0  3.5 -0.9 0  3.550000000000001 -0.9 0  3.6 -0.9 0  3.65 -0.9 0  3.699999999999999 -0.9 0  3.75 -0.9 0  3.800000000000001 -0.9 0  3.85 -0.9 0  3.9 -0.9 0  3.949999999999999 -0.9 0  4 -0.9 0  4.050000000000001 -0.9 0  4.1 -0.9 0  4.15 -0.9 0  4.199999999999999 -0.9 0  4.25 -0.9 0  4.300000000000001 -0.9 0  4.35 -0.9 0  4.4 -0.9 0  4.449999999999999 -0.9 0  4.5 -0.9 0  4.550000000000001 -0.9 0  4.6 -0.9 0  4.65 -0.9 0  4.699999999999999 -0.9 0  4.75 -0.9 0  4.800000000000001 -0.9 0  4.85 -0.9 0  4.9 -0.9 0  4.949999999999999 -0.9 0  5 -0.9 0  -5 -0.85 0  -4.95 -0.85 0  -4.9 -0.85 0  -4.85 -0.85 0  -4.8 -0.85 0  -4.75 -0.85 0  -4.7 -0.85 0  -4.65 -0.85 0  -4.6 -0.85 0  -4.55 -0.85 0  -4.5 -0.85 0  -
[...]
<PointData  Vectors="f_15"> 
<DataArray  type="Float64"  Name="f_15"  NumberOfComponents="3" format="ascii">2.9903165972540360e+00 0.0000000000000000e+00 0.0000000000000000e+00  3.0063815920543835e+00 2.3688314988758133e-02 0.0000000000000000e+00  2.9923720584270175e+00 -2.5378534728431438e-02 0.0000000000000000e+00  3.0059673025665656e+00 2.0805965941385580e-02 0.0000000000000000e+00  2.9928610532560382e+00 -1.8330260447795996e-02 0.0000000000000000e+00  3.0067262988410026e+00 1.4768673068771441e-02 0.0000000000000000e+00  2.9935493596931937e+00 -1.2194056370106687e-02 0.0000000000000000e+00  3.0064518579644637e+00 1.2537827707496544e-02 0.0000000000000000e+00  2.9946814860248891e+00 -1.0429016028516242e-02 0.0000000000000000e+00  3.0062902906829261e+00 1.2906779179667916e-02 0.0000000000000000e+00  2.9949375622217764e+00 -9.9607847784537965e-03 0.0000000000000000e+00  3.0062068899876331e+00 1.1839688873538062e-02 0.0000000000000000e+00  2.9955619166131422e+00 -8.0088922614270329e-03 0.0000000000000000e+00  3.0052699250935402e+00 9.9907362558952929e-03 0.0000000000000000e+00  2.9961309121607167e+00 -7.7492914961869658e-03 0.0000000000000000e+00  3.0049934096717514e+00 1.0249317254248732e-02 0.0000000000000000e+00  2.9958828766599588e+00 -8.3958676685411491e-03 0.0000000000000000e+00  3.0046819189954439e+00 9.1527285643326541e-03 0.0000000000000000e+00  2.9963675402496186e+00 -6.9182020038793986e-03 0.0000000000000000e+00  3.0038088112260231e+00 7.3597941644779202e-03 0.0000000000000000e+00  2.9965742801034976e+00 -6.6399575706916156e-03 0.0000000000000000e+00  3.0039116172093325e+00 7.4931107209035746e-03 0.0000000000000000e+00  2.9961404426018192e+00 -6.7788689853560654e-03 0.0000000000000000e+00  3.0037916227079444e+00 6.4008005673912892e-03 0.0000000000000000e+00  2.9965479830812716e+00 -5.0325365762281188e-03 0.0000000000000000e+00  3.0031847155199514e+00 4.8206366415524454e-03 0.0000000000000000e+00  2.9965345143638391e+00 -4.2357301919816242e-03 0.0000000000000000e+00  3.0034525511019661e+00 4.9092330874546553e-03 0.0000000000000000e+00  2.9959120432390649e+00 -3.7423835198346408e-03 0.0000000000000000e+00  3.0032040211246649e+00 4.3240072115060986e-03 0.0000000000000000e+00  2.9959527680031171e+00 -1.3806971161233722e-03 0.0000000000000000e+00  3.0021170717653529e+00 3.8630367728945607e-03 0.0000000000000000e+00  2.9950877895191557e+00 9.6084639457393874e-04 0.0000000000000000e+00  3.0011605916097910e+00 6.3336594356655836e-03 0.0000000000000000e+00  2.9927309302121250e+00 4.3327841418416765e-03 0.0000000000000000e+00  2.9983450079851317e+00 1.0890492283676872e-02 0.0000000000000000e+00  2.9893835755187919e+00 1.2126669005485454e-02 0.0000000000000000e+00  2.9926435645504510e+00 1.9635424384322236e-02 0.0000000000000000e+00  2.9826154168908334e+00 2.4185206807444827e-02 0.0000000000000000e+00  2.9840593000015918e+00 3.6967459039845732e-02 0.0000000000000000e+00  2.9710977664830076e+00 4.2793116637789883e-02 0.0000000000000000e+00  2.9701441876527208e+00 6.3634292272204268e-02 0.0000000000000000e+00  2.9546565529792832e+00 7.1721982043890159e-02 0.0000000000000000e+00  2.9498703880918873e+00 1.0194138816278446e-01 0.0000000000000000e+00  2.9314411595216012e+00 1.1105211948939946e-01 0.0000000000000000e+00  2.9234711779117442e+00 1.5424824757814973e-01 0.0000000000000000e+00  2.9012051670377907e+00 1.6210834173232064e-01 0.0000000000000000e+00  2.8900762057786027e+00 2.1909939529736736e-01 0.0000000000000000e+00  2.8647993623785668e+00 2.2599832044812582e-01 0.0000000000000000e+00  2.8502135038843455e+00 2.9605490650593635e-01 0.0000000000000000e+00  2.8222300450929541e+00 3.0105284652486808e-01 0.0000000000000000e+00  2.8050015680823424e+00 3.8386715561897694e-01 0.0000000000000000e+00  2.7745969470991145e+00 3.8754108966722134e-01 0.0000000000000000e+00  2.7547666443929457e+00 4.7923033516140306e-01 0.0000000000000000e+00  2.7230304218974606e+00 4.8439737131724814e-01 0.0000000000000000e+00  2.7007866334560720e+00 5.8217290364133922e-01 0.0000000000000000e+00  2.6678463953887448e+00 5.8842226497455907e-01 0.0000000000000000e+00  2.6440074828080276e+00 6.9125861832166524e-01 0.0000000000000000e+00  2.6102878590935106e+00 7.0063074256128455e-01 0.0000000000000000e+00  2.5846105435778322e+00 8.0318482012192172e-01 0.0000000000000000e+00  2.5510293177882035e+00 8.1890835066441847e-01 0.0000000000000000e+00  2.5238207411902356e+00 9.2107333958710658e-01 0.0000000000000000e+00  2.4899683546823299e+00 9.3843272115019427e-01 0.0000000000000000e+00  2.4622014489532691e+00 1.0433677149310920e+00 0.0000000000000000e+00  2.4281984554254494e+00 1.0642717800826760e+00 0.0000000000000000e+00  2.3994542112550774e+00 1.1637836640879924e+00 0.0000000000000000e+00  2.3662065890568491e+00 1.1943652168739309e+00 0.0000000000000000e+00  2.3365150379559587e+00 1.2912365937027324e+00 0.0000000000000000e+00  2.3035019535131824e+00 1.3185894745647604e+00 0.0000000000000000e+00  2.2739407634357720e+00 1.4232498091890353e+00 0.0000000000000000e+00  2.2407079495099782e+00 1.4524262275445086e+00 0.0000000000000000e+00  2.2113101006690385e+00 1.5453657273056680e+00 0.0000000000000000e+00  2.1783232613501133e+00 1.5879597628288440e+00 0.0000000000000000e+00  2.1491682065434783e+00 1.6839503697873817e+00 0.0000000000000000e+00  2.1161014242142766e+00 1.7094451568286677e+00 0.0000000000000000e+00  2.0879408021095318e+00 1.8174340727037577e+00 0.0000000000000000e+00  2.0549477965655183e+00 1.8507960341240779e+00 0.0000000000000000e+00  2.0273199745305317e+00 1.9418639826207149e+00 0.0000000000000000e+00  1.9956429811104981e+00 1.9810135653993177e+00 0.0000000000000000e+00  1.9677943970885565e+00 2.0758089438656904e+00 0.0000000000000000e+00  1.9394869363416001e+00 2.1055939918771025e+00 0.0000000000000000e+00  1.9123503987470234e+00 2.2030206735205660e+00 0.0000000000000000e+00  1.8877890175243988e+00 2.2183507993392579e+00 0.0000000000000000e+00  1.8682366594708308e+00 2.3048505539948234e+00 0.0000000000000000e+00  1.8477549938853499e+00 2.3065874856222170e+00 0.0000000000000000e+00  1.8469915713255391e+00 2.3626906341441147e+00 0.0000000000000000e+00  1.8338829001752088e+00 2.3289986130686322e+00 0.0000000000000000e+00  1.8510658048447057e+00 2.3575404129952013e+00 0.0000000000000000e+00  1.8317999772485969e+00 2.3312451098471190e+00 0.0000000000000000e+00  1.8562534839056639e+00 2.3460648195398526e+00 0.0000000000000000e+00  1.8302223078439392e+00 2.3387077315147375e+00 0.0000000000000000e+00  1.8594684654079405e+00 2.3323001607257048e+00 0.0000000000000000e+00  1.8332775299132025e+00 2.3384159498688213e+00 0.0000000000000000e+00  1.8563921341140193e+00 2.3300387697058458e+00 0.0000000000000000e+00  1.8365788536960408e+00 2.3412209187248147e+00 0.0000000000000000e+00  1.8547977785052838e+00 2.3252944642281110e+00 0.0000000000000000e+00  1.8400746548949742e+00 2.3394795064309384e+00 0.0000000000000000e+00  1.8513172867867242e+00 2.3272473920212500e+00 0.0000000000000000e+00  1.8439611309558035e+00 2.3345554450578536e+00 0.0000000000000000e+00  1.8488248402169467e+00 2.3295244715526495e+00 0.0000000000000000e+00  1.8463970327323649e+00 2.3318262703505690e+00 0.0000000000000000e+00  1.8472252681671493e+00 2.3315054062542688e+00 0.0000000000000000e+00  1.8470881926357625e+00 2.3295827131641489e+00 0.0000000000000000e+00  1.8474595680618808e+00 2.3310864878398783e+00 0.0000000000000000e+00  1.8484192320206274e+00 2.3261816945965301e+00 0.0000000000000000e+00  1.8457855554117955e+00 2.3343067882591413e+00 0.0000000000000000e+00  1.8483390666104023e+00 2.3271922308411885e+00 0.0000000000000000e+00  1.8471851307497602e+00 2.3288384841692626e+00 0.0000000000000000e+00  1.8493842437305781e+00 2.3272365357825682e+00 0.0000000000000000e+00  1.8439649547472416e+00 2.3332933974865080e+00 0.0000000000000000e+00  1.8513453338348798e+00 2.3244335490080275e+00 0.0000000000000000e+00  1.8450976061650215e+00 2.3291754734277741e+00 0.0000000000000000e+00  1.8502684708302917e+00 2.3283921829594645e+00 0.0000000000000000e+00  1.8430945665395646e+00 2.3299429582941675e+00 0.0000000000000000e+00  1.8551684470764735e+00 2.3208799700811755e+00 0.0000000000000000e+00  1.8385236703010766e+00 2.3377824896623536e+00 0.0000000000000000e+00  1.8570757805255065e+00 2.3166083937756596e+00 0.0000000000000000e+00  1.8391660458469161e+00 2.3350446492946633e+00 0.0000000000000000e+00  1.8564331936226148e+00 2.3144688364782082e+00 0.0000000000000000e+00  1.8375470832852490e+00 2.3308480128813329e+00 0.0000000000000000e+00  1.8600831648791556e+00 2.3006059529774037e+00 0.0000000000000000e+00  1.8339568729334266e+00 2.3297305166336026e+00 0.0000000000000000e+00  1.8617979685834509e+00 2.2897244277790931e+00 0.0000000000000000e+00  1.8330298533829792e+00 2.3290128596088411e+00 0.0000000000000000e+00  1.8626950840865666e+00 2.2848192188058154e+00 0.0000000000000000e+00  1.8316901802215619e+00 2.3352529233510628e+00 0.0000000000000000e+00  1.8626398258240882e+00 2.2874445815437809e+00 0.0000000000000000e+00  1.8319492266431689e+00 2.3395371617311369e+00 0.0000000000000000e+00  1.8630631061872505e+00 2.2914396256266221e+00 0.0000000000000000e+00  1.8291089812931951e+00 2.3478815223752165e+00 0.0000000000000000e+00  1.8658052637945772e+00 2.2903690212831425e+00 0.0000000000000000e+00  1.8281321171006983e+00 2.3502162140405716e+00 0.0000000000000000e+00  1.8645320584709169e+00 2.2955954990960805e+00 0.0000000000000000e+00  1.8288517236405435e+00 2.3504571421615434e+00 0.0000000000000000e+00  1.8665296124935777e+00 2.2905718100773469e+00 0.0000000000000000e+00  1.8250236928895895e+00 2.3617172942048099e+00 0.0000000000000000e+00  1.8691825774299022e+00 2.2835002024228941e+00 0.0000000000000000e+00  1.8260306362449978e+00 2.3617336728549523e+00 0.0000000000000000e+00  1.8655990007111354e+00 2.2894572567913141e+00 0.0000000000000000e+00  1.8295284798005049e+00 2.3573152730829228e+00 0.0000000000000000e+00  1.8644223044481907e+00 2.2871273937085301e+00 0.0000000000000000e+00  1.8289039311133202e+00 2.3627134115963986e+00 0.0000000000000000e+00  1.8643164840542275e+00 2.2813415099408316e+00 0.0000000000000000e+00  1.8309013769568478e+00 2.3604702835854909e+00 0.0000000000000000e+00  1.8594980357724411e+00 2.2839722705147727e+00 0.0000000000000000e+00  1.8341719955254707e+00 2.3517947914160366e+00 0.0000000000000000e+00  1.8527404969174046e+00 2.2775251360396940e+00 0.0000000000000000e+00  1.8260853457332848e+00 2.3306149420606932e+00 0.0000000000000000e+00  1.8242098697939944e+00 2.2109257102943030e+00 0.0000000000000000e+00  1.7550293068811942e+00 2.1713621453853134e+00 0.0000000000000000e+00  1.6826561986546487e+00 1.8639673757458359e+00 0.0000000000000000e+00  1.4064073537130093e+00 1.2741378350521875e+00 0.0000000000000000e+00  1.1411193524454679e+00 3.5279928955666973e-01 0.0000000000000000e+00  1.0116874715148667e+00 1.3783264094375181e-01 0.0000000000000000e+00  1.0161135537530392e+00 -6.3846787328305191e-02 0.0000000000000000e+00  9.8639173020007420e-01 7.0458042685576747e-02 0.0000000000000000e+00  1.0138131451125516e+00 -7.8611376414843157e-02 0.0000000000000000e+00  9.8529249116006645e-01 7.4776297764352517e-02 0.0000000000000000e+00  1.0160053226039012e+00 -9.1216324476985328e-02 0.0000000000000000e+00  9.8111061363456376e-01 9.2616997504509191e-02 0.0000000000000000e+00  1.0216975414490816e+00 -1.1187830077210335e-01 0.0000000000000000e+00  9.7453951414597062e-01 1.1470659489250472e-01 0.0000000000000000e+00  1.0294999472415858e+00 -1.3357784432394199e-01 0.0000000000000000e+00  9.6548334110000944e-01 1.3975892232982240e-01 0.0000000000000000e+00  1.0401269507292670e+00 -1.5934238734163542e-01 0.0000000000000000e+00  9.5467390260027474e-01 1.6807903198627056e-01 0.0000000000000000e+00  1.0504378529720160e+00 -1.8123542044764246e-01 0.0000000000000000e+00  9.4617999494460170e-01 1.8793383893893409e-01 0.0000000000000000e+00  1.0575667882265001e+00 -1.9244925808413488e-01 0.0000000000000000e+00  9.4071254217234390e-01 1.9802369077212914e-01 0.0000000000000000e+00  1.0618867912110856e+00 -1.9671656947876298e-01 0.0000000000000000e+00  9.3806441853893174e-01 2.0098414637471501e-01 0.0000000000000000e+00  1.0627702198813531e+00 -1.9324187085252253e-01 0.0000000000000000e+00  9.3903257443368282e-01 1.9402815418290800e-01 0.0000000000000000e+00  1.0602236719398113e+00 -1.8136799183186209e-01 0.0000000000000000e+00  9.4264051165437812e-01 1.7942113963028938e-01 0.0000000000000000e+00  1.0556685769641228e+00 -1.6501469567163490e-01 0.0000000000000000e+00  9.4778269022498940e-01 1.6099372784667629e-01 0.0000000000000000e+00  1.0496936250224334e+00 -1.4577752779112005e-01 0.0000000000000000e+00  9.5418819060928572e-01 1.3949144487287449e-01 0.0000000000000000e+00  1.0427640758399428e+00 -1.2439832345091049e-01 0.0000000000000000e+00  9.6112059217199775e-01 1.1679892393904570e-01 0.0000000000000000e+00  1.0357475896129478e+00 -1.0309506849721835e-01 0.0000000000000000e+00  9.6788349515504812e-01 9.5118708646612787e-02 0.0000000000000000e+00  1.0290739244355929e+00 -8.3095338059998664e-02 0.0000000000000000e+00  9.7424820398532508e-01 7.5117168446531823e-02 0.0000000000000000e+00  1.0229568521501433e+00 -6.4830670085445519e-02 0.0000000000000000e+00  9.7995012870863374e-01 5.7356571582961424e-02 0.0000000000000000e+00  1.0176929501399807e+00 -4.8982480667579910e-02 0.0000000000000000e+00  9.8476822745643722e-01 4.2358465409473911e-02 0.0000000000000000e+00  1.0134013423806048e+00 -3.5807231721481342e-02 0.0000000000000000e+00  9.8870946361650258e-01 2.9993962998889713e-02 0.0000000000000000e+00  1.0100560046217568e+00 -2.5097645661699995e-02 0.0000000000000000e+00  9.9184276707898800e-01 1.9928079760296504e-02 0.0000000000000000e+00  1.0076442450489840e+00 -1.6625109195269838e-02 0.0000000000000000e+00  9.9424425401506289e-01 1.1783861557009192e-02 0.0000000000000000e+00  1.0061350922569490e+00 -1.0021117651839309e-02 0.0000000000000000e+00  9.9606424960914142e-01 5.0219696672800986e-03 0.0000000000000000e+00  1.0054209350101768e+00 -4.9402072323881394e-03 0.0000000000000000e+00  9.9756735038506938e-01 -4.7007440712714034e-04 0.0000000000000000e+00  1.0053429280709054e+00 0.0000000000000000e+00 0.0000000000000000e+00  2.9996957733703224e+00 0.0000000000000000e+00 -1.8458384978738258e-02  3.0034324606322871e+00 -6.7652654106936426e-03 1.2922094013314612e-03  2.9997524829827227e+00 8.9013248740093028e-03 7.8602495706601855e-03  3.0015690376552975e+00 1.8367773177853827e-04 -4.1911141964416677e-03  3.0002604072628021e+00 -2.7985506701359381e-04 2.3591422719482780e-03  3.0005985964207249e+00 2.2838003999605095e-03 -1.1335011776365666e-03  2.9995108154413739e+00 -1.4703261506288821e-03 5.2033940228399754e-04  3.0004815076085647e+00 -1.1545574338215390e-04 -2.6744705032276308e-04  2.9991328853167123e+00 -6.5612328703200905e-04 -1.1132249378648944e-05  2.9997610429877208e+00 -1.4354555726092920e-03 2.9439349447820339e-04  2.9992827150554828e+00 -1.5442563009648016e-03 -5.4781153462798375e-04  2.9996631007018850e+00 -3.4874585935948046e-04 7.8864212007386512e-04  2.9988645788894459e+00 -2.6002095526454533e-03 -9.6772534649270032e-04  2.9998714557097967e+00 -4.1540715691711354e-04 1.2274845101370858e-03  2.9991990452757253e+00 -1.4419579138125408e-03 -1.4506240403384637e-03  2.9994469452790571e+00 -8.9971226438942181e-04 1.6991947816073611e-03  2.9995849739413178e+00 -1.6389686918573381e-03 -1.8488843233321734e-03  2.9998244384874986e+00 7.0880204007220274e-04 2.0074630975722564e-03  2.9993011195857582e+00 -2.4141982390254802e-03 -2.1686167859246369e-03  3.0000334061660601e+00 8.9271899225187802e-04 2.4115883362743852e-03  2.9998450105212027e+00 -1.3559185859446548e-03 -2.6630436015021505e-03  2.9996044341091119e+00 5.7380997996554274e-04 2.9161802497113085e-03  3.0000691215121678e+00 -1.7385498236167239e-03 -3.1309021830839522e-03  3.0000351678369923e+00 1.9477157801331554e-03 3.3649566707525816e-03  2.9996861931675971e+00 -2.5854202427570716e-03 -3.6569544376601169e-03  3.0000851045419457e+00 2.1256677176270692e-03 4.0415311918236387e-03  3.0001230295594006e+00 -1.9253266965526695e-03 -4.4747354813482734e-03  2.9995536100290865e+00 2.0677522243272486e-03 4.9407291180546785e-03  3.0000507021538412e+00 -2.2618716115154524e-03 -5.4013282944856082e-03  2.9997532973033647e+00 3.7645485627213668e-03 5.9042309991459057e-03  2.9992206934578474e+00 -2.6416275323912367e-03 -6.4638998031630790e-03  2.9991895601648038e+00 5.2077689116984986e-03 7.1382323018541541e-03  2.9987330914180137e+00 -7.3128312529542529e-04 -7.8694414928853068e-03  2.9973890495921873e+00 7.5867382904950941e-03 8.6683481879183313e-03  2.9967628322997162e+00 2.1942176835413173e-03 -9.4461718092243175e-03  2.9950414921058508e+00 1.3937327281323689e-02 1.0292563210592135e-02  2.9924385153766200e+00 7.9972137922363889e-03 -1.1162166360640453e-02  2.9898588204815377e+00 2.3926151589240469e-02 1.2170576401181887e-02  2.9859212975483862e+00 2.0548020424848535e-02 -1.3194387597603529e-02  2.9805789864224854e+00 4.0094139618144273e-02 1.4277747689425102e-02  2.9746896927292830e+00 4.0308979682736709e-02 -1.5249603200406596e-02  2.9670439570749911e+00 6.6426543892430967e-02 1.6228183215406141e-02  2.9575402291286412e+00 6.9867088612281497e-02 -1.7086127488478473e-02  2.9471169815558431e+00 1.0322755039948608e-01 1.7923311832112494e-02  2.9345446060411646e+00 1.1220087978786694e-01 -1.8559707756654647e-02  2.9202470368111970e+00 1.5205614679213530e-01 1.8998580489504681e-02  2.9044950227987489e+00 1.6671177844582749e-01 -1.9086599304627052e-02  2.8870943894077494e+00 2.1394707002887950e-01 1.8883611928353885e-02  2.8676977681120017e+00 2.3391132275121679e-01 -1.8363666561306214e-02  2.8473960076591287e+00 2.8694224305664595e-01 1.7538818061081572e-02  2.8252514496203092e+00 3.1348144431134539e-01 -1.6413735987031830e-02  2.8020974654299642e+00 3.7066568643405406e-01 1.4921239416579671e-02  2.7774135271629281e+00 4.0293887582072252e-01 -1.3215893249548725e-02  2.7523859206007550e+00 4.6376338427798397e-01 1.1278222049373786e-02  2.7254143314944099e+00 5.0213774068307881e-01 -9.3710562286922743e-03  2.6986183356486784e+00 5.6344156237151122e-01 7.3944517842133347e-03  2.6702807842630780e+00 6.0929327733158600e-01 -5.5340242188644077e-03  2.6420552288663730e+00 6.7046756538187036e-01 3.6866302794475430e-03  2.6122481344587389e+00 7.2105772569886428e-01 -2.1635221964879645e-03  2.5834592069601934e+00 7.8350520355396625e-01 8.7972201323243304e-04  2.5525335642677924e+00 8.3891038410311125e-01 -2.4848702939940539e-05  2.5228123495079471e+00 8.9920320277078614e-01 -6.4932684231995520e-04  2.4917087779117262e+00 9.6110340162599794e-01 1.2111658212524046e-03  2.4612256979216807e+00 1.0210861338479076e+00 -1.7567402432895783e-03  2.4295345571801299e+00 1.0827863854725241e+00 2.0912462343171396e-03  2.3991483350313341e+00 1.1475258985168328e+00 -2.0628956742472920e-03  2.3670468109029987e+00 1.2102382105836724e+00 1.4070497719141342e-03  2.3361272423452228e+00 1.2711385617968871e+00 -3.9689534516011146e-04  2.3047356790993119e+00 1.3412919316350609e+00 -4.3495265425175120e-04  2.2730509248643185e+00 1.4031095381588288e+00 7.0337228014659219e-04  2.2420475039684322e+00 1.4641942973524911e+00 -6.7143064929025143e-04  2.2105787741752350e+00 1.5383387871578875e+00 6.7218328060822906e-04  2.1795543485380957e+00 1.6001645525295263e+00 -7.7479616052532937e-04  2.1483567225380598e+00 1.6595343841165315e+00 2.9347478250814737e-04  2.1177780706510165e+00 1.7364491230258090e+00 2.4752523004466004e-04  2.0868005166427293e+00 1.7995914094999630e+00 3.6360581505809748e-04  2.0566378946090027e+00 1.8582825126411375e+00 -1.9439176848915210e-03  2.0263977404935751e+00 1.9326721564744076e+00 2.5044553774412328e-03  1.9967816796341191e+00 1.9957014862099551e+00 -1.8116743547085140e-03  1.9678592351867801e+00 2.0587294817350053e+00 1.6003429675986620e-03  1.9398812623835606e+00 2.1229028771861054e+00 -2.6129394421711637e-03  1.9119379037316102e+00 2.1829247618646699e+00 2.960