<?xml version="1.0"?>
<VTKFile type="UnstructuredGrid"  version="0.1"  >
<UnstructuredGrid>
<Piece  NumberOfPoints="8241" NumberOfCells="16000">
<Points>
<DataArray  type="Float64"  NumberOfComponents="3"  format="ascii">-5 -1 0  -4.95 -1 0  -4.9 -1 0  -4.85 -1 0  -4.8 -1 0  -4.75 -1 0  -4.7 -1 0  -4.65 -1 0  -4.6 -1 0  -4.55 -1 0  -4.5 -1 0  -4.45 -1 0  -4.4 -1 0  -4.35 -1 0  -4.3 -1 0  -4.25 -1 0  -4.2 -1 0  -4.15 -1 0  -4.1 -1 0  -4.05 -1 0  -4 -1 0  -3.95 -1 0  -3.9 -1 0  -3.85 -1 0  -3.8 -1 0  -3.75 -1 0  -3.7 -1 0  -3.65 -1 0  -3.6 -1 0  -3.55 -1 0  -3.5 -1 0  -3.45 -1 0  -3.4 -1 0  -3.35 -1 0  -3.3 -1 0  -3.25 -1 0  -3.2 -1 0  -3.15 -1 0  -3.1 -1 0  -3.05 -1 0  -3 -1 0  -2.95 -1 0  -2.9 -1 0  -2.85 -1 0  -2.8 -1 0  -2.75 -1 0  -2.7 -1 0  -2.65 -1 0  -2.6 -1 0  -2.55 -1 0  -2.5 -1 0  -2.45 -1 0  -2.4 -1 0  -2.35 -1 0  -2.3 -1 0  -2.25 -1 0  -2.2 -1 0  -2.15 -1 0  -2.1 -1 0  -2.05 -1 0  -2 -1 0  -1.95 -1 0  -1.9 -1 0  -1.85 -1 0  -1.8 -1 0  -1.75 -1 0  -1.7 -1 0  -1.65 -1 0  -1.6 -1 0  -1.55 -1 0  -1.5 -1 0  -1.45 -1 0  -1.4 -1 0  -1.35 -1 0  -1.3 -1 0  -1.25 -1 0  -1.2 -1 0  -1.15 -1 0  -1.1 -1 0  -1.05 -1 0  -1 -1 0  -0.9500000000000002 -1 0  -0.9000000000000004 -1 0  -0.8499999999999996 -1 0  -0.7999999999999998 -1 0  -0.75 -1 0  -0.7000000000000002 -1 0  -0.6500000000000004 -1 0  -0.5999999999999996 -1 0  -0.5499999999999998 -1 0  -0.5 -1 0  -0.4500000000000002 -1 0  -0.4000000000000004 -1 0  -0.3499999999999996 -1 0  -0.2999999999999998 -1 0  -0.25 -1 0  -0.2000000000000002 -1 0  -0.1500000000000004 -1 0  -0.09999999999999964 -1 0  -0.04999999999999982 -1 0  0 -1 0  0.04999999999999982 -1 0  0.09999999999999964 -1 0  0.1500000000000004 -1 0  0.2000000000000002 -1 0  0.25 -1 0  0.2999999999999998 -1 0  0.3499999999999996 -1 0  0.4000000000000004 -1 0  0.4500000000000002 -1 0  0.5 -1 0  0.5499999999999998 -1 0  0.5999999999999996 -1 0  0.6500000000000004 -1 0  0.7000000000000002 -1 0  0.75 -1 0  0.7999999999999998 -1 0  0.8499999999999996 -1 0  0.9000000000000004 -1 0  0.9500000000000002 -1 0  1 -1 0  1.05 -1 0  1.1 -1 0  1.15 -1 0  1.2 -1 0  1.25 -1 0  1.3 -1 0  1.35 -1 0  1.4 -1 0  1.45 -1 0  1.5 -1 0  1.55 -1 0  1.6 -1 0  1.65 -1 0  1.7 -1 0  1.75 -1 0  1.8 -1 0  1.85 -1 0  1.9 -1 0  1.95 -1 0  2 -1 0  2.05 -1 0  2.1 -1 0  2.15 -1 0  2.2 -1 0  2.25 -1 0  2.3 -1 0  2.35 -1 0  2.4 -1 0  2.45 -1 0  2.5 -1 0  2.55 -1 0  2.6 -1 0  2.65 -1 0  2.7 -1 0  2.75 -1 0  2.8 -1 0  2.85 -1 0  2.9 -1 0  2.95 -1 0  3 -1 0  3.050000000000001 -1 0  3.1 -1 0  3.15 -1 0  3.199999999999999 -1 0  3.25 -1 0  3.300000000000001 -1 0  3.35 -1 0  3.4 -1 0  3.449999999999999 -1 0  3.5 -1 0  3.550000000000001 -1 0  3.6 -1 0  3.65 -1 0  3.699999999999999 -1 0  3.75 -1 0  3.800000000000001 -1 0  3.85 -1 0  3.9 -1 0  3.949999999999999 -1 0  4 -1 0  4.050000000000001 -1 0  4.1 -1 0  4.15 -1 0  4.199999999999999 -1 0  4.25 -1 0  4.300000000000001 -1 0  4.35 -1 0  4.4 -1 0  4.449999999999999 -1 0  4.5 -1 0  4.550000000000001 -1 0  4.6 -1 0  4.65 -1 0  4.699999999999999 -1 0  4.75 -1 0  4.800000000000001 -1 0  4.85 -1 0  4.9 -1 0  4.949999999999999 -1 0  5 -1 0  -5 -0.95 0  -4.95 -0.95 0  -4.9 -0.95 0  -4.85 -0.95 0  -4.8 -0.95 0  -4.75 -0.95 0  -4.7 -0.95 0  -4.65 -0.95 0  -4.6 -0.95 0  -4.55 -0.95 0  -4.5 -0.95 0  -4.45 -0.95 0  -4.4 -0.95 0  -4.35 -0.95 0  -4.3 -0.95 0  -4.25 -0.95 0  -4.2 -0.95 0  -4.15 -0.95 0  -4.1 -0.95 0  -4.05 -0.95 0  -4 -0.95 0  -3.95 -0.95 0  -3.9 -0.95 0  -3.85 -0.95 0  -3.8 -0.95 0  -3.75 -0.95 0  -3.7 -0.95 0  -3.65 -0.95 0  -3.6 -0.95 0  -3.55 -0.95 0  -3.5 -0.95 0  -3.45 -0.95 0  -3.4 -0.95 0  -3.35 -0.95 0  -3.3 -0.95 0  -3.25 -0.95 0  -3.2 -0.95 0  -3.15 -0.95 0  -3.1 -0.95 0  -3.05 -0.95 0  -3 -0.95 0  -2.95 -0.95 0  -2.9 -0.95 0  -2.85 -0.95 0  -2.8 -0.95 0  -2.75 -0.95 0  -2.7 -0.95 0  -2.65 -0.95 0  -2.6 -0.95 0  -2.55 -0.95 0  -2.5 -0.95 0  -2.45 -0.95 0  -2.4 -0.95 0  -2.35 -0.95 0  -2.3 -0.95 0  -2.25 -0.95 0  -2.2 -0.95 0  -2.15 -0.95 0  -2.1 -0.95 0  -2.05 -0.95 0  -2 -0.95 0  -1.95 -0.95 0  -1.9 -0.95 0  -1.85 -0.95 0  -1.8 -0.95 0  -1.75 -0.95 0  -1.7 -0.95 0  -1.65 -0.95 0  -1.6 -0.95 0  -1.55 -0.95 0  -1.5 -0.95 0  -1.45 -0.95 0  -1.4 -0.95 0  -1.35 -0.95 0  -1.3 -0.95 0  -1.25 -0.95 0  -1.2 -0.95 0  -1.15 -0.95 0  -1.1 -0.95 0  -1.05 -0.95 0  -1 -0.95 0  -0.9500000000000002 -0.95 0  -0.9000000000000004 -0.95 0  -0.8499999999999996 -0.95 0  -0.7999999999999998 -0.95 0  -0.75 -0.95 0  -0.7000000000000002 -0.95 0  -0.6500000000000004 -0.95 0  -0.5999999999999996 -0.95 0  -0.5499999999999998 -0.95 0  -0.5 -0.95 0  -0.4500000000000002 -0.95 0  -0.4000000000000004 -0.95 0  -0.3499999999999996 -0.95 0  -0.2999999999999998 -0.95 0  -0.25 -0.95 0  -0.2000000000000002 -0.95 0  -0.1500000000000004 -0.95 0  -0.09999999999999964 -0.95 0  -0.04999999999999982 -0.95 0  0 -0.95 0  0.04999999999999982 -0.95 0  0.09999999999999964 -0.95 0  0.1500000000000004 -0.95 0  0.2000000000000002 -0.95 0  0.25 -0.95 0  0.2999999999999998 -0.95 0  0.3499999999999996 -0.95 0  0.4000000000000004 -0.95 0  0.4500000000000002 -0.95 0  0.5 -0.95 0  0.5499999999999998 -0.95 0  0.5999999999999996 -0.95 0  0.6500000000000004 -0.95 0  0.7000000000000002 -0.95 0  0.75 -0.95 0  0.7999999999999998 -0.95 0  0.8499999999999996 -0.95 0  0.9000000000000004 -0.95 0  0.9500000000000002 -0.95 0  1 -0.95 0  1.05 -0.95 0  1.1 -0.95 0  1.15 -0.95 0  1.2 -0.95 0  1.25 -0.95 0  1.3 -0.95 0  1.35 -0.95 0  1.4 -0.95 0  1.45 -0.95 0  1.5 -0.95 0  1.55 -0.95 0  1.6 -0.95 0  1.65 -0.95 0  1.7 -0.95 0  1.75 -0.95 0  1.8 -0.95 0  1.85 -0.95 0  1.9 -0.95 0  1.95 -0.95 0  2 -0.95 0  2.05 -0.95 0  2.1 -0.95 0  2.15 -0.95 0  2.2 -0.95 0  2.25 -0.95 0  2.3 -0.95 0  2.35 -0.95 0  2.4 -0.95 0  2.45 -0.95 0  2.5 -0.95 0  2.55 -0.95 0  2.6 -0.95 0  2.65 -0.95 0  2.7 -0.95 0  2.75 -0.95 0  2.8 -0.95 0  2.85 -0.95 0  2.9 -0.95 0  2.95 -0.95 0  3 -0.95 0  3.050000000000001 -0.95 0  3.1 -0.95 0  3.15 -0.95 0  3.199999999999999 -0.95 0  3.25 -0.95 0  3.300000000000001 -0.95 0  3.35 -0.95 0  3.4 -0.95 0  3.449999999999999 -0.95 0  3.5 -0.95 0  3.550000000000001 -0.95 0  3.6 -0.95 0  3.65 -0.95 0  3.699999999999999 -0.95 0  3.75 -0.95 0  3.800000000000001 -0.95 0  3.85 -0.95 0  3.9 -0.95 0  3.949999999999999 -0.95 0  4 -0.95 0  4.050000000000001 -0.95 0  4.1 -0.95 0  4.15 -0.95 0  4.199999999999999 -0.95 0  4.25 -0.95 0  4.300000000000001 -0.95 0  4.35 -0.95 0  4.4 -0.95 0  4.449999999999999 -0.95 0  4.5 -0.95 0  4.550000000000001 -0.95 0  4.6 -0.95 0  4.65 -0.95 0  4.699999999999999 -0.95 0  4.75 -0.95 0  4.800000000000001 -0.95 0  4.85 -0.95 0  4.9 -0.95 0  4.949999999999999 -0.95 0  5 -0.95 0  -5 -0.9 0  -4.95 -0.9 0  -4.9 -0.9 0  -4.85 -0.9 0  -4.8 -0.9 0  -4.75 -0.9 0  -4.7 -0.9 0  -4.65 -0.9 0  -4.6 -0.9 0  -4.55 -0.9 0  -4.5 -0.9 0  -4.45 -0.9 0  -4.4 -0.9 0  -4.35 -0.9 0  -4.3 -0.9 0  -4.25 -0.9 0  -4.2 -0.9 0  -4.15 -0.9 0  -4.1 -0.9 0  -4.05 -0.9 0  -4 -0.9 0  -3.95 -0.9 0  -3.9 -0.9 0  -3.85 -0.9 0  -3.8 -0.9 0  -3.75 -0.9 0  -3.7 -0.9 0  -3.65 -0.9 0  -3.6 -0.9 0  -3.55 -0.9 0  -3.5 -0.9 0  -3.45 -0.9 0  -3.4 -0.9 0  -3.35 -0.9 0  -3.3 -0.9 0  -3.25 -0.9 0  -3.2 -0.9 0  -3.15 -0.9 0  -3.1 -0.9 0  -3.05 -0.9 0  -3 -0.9 0  -2.95 -0.9 0  -2.9 -0.9 0  -2.85 -0.9 0  -2.8 -0.9 0  -2.75 -0.9 0  -2.7 -0.9 0  -2.65 -0.9 0  -2.6 -0.9 0  -2.55 -0.9 0  -2.5 -0.9 0  -2.45 -0.9 0  -2.4 -0.9 0  -2.35 -0.9 0  -2.3 -0.9 0  -2.25 -0.9 0  -2.2 -0.9 0  -2.15 -0.9 0  -2.1 -0.9 0  -2.05 -0.9 0  -2 -0.9 0  -1.95 -0.9 0  -1.9 -0.9 0  -1.85 -0.9 0  -1.8 -0.9 0  -1.75 -0.9 0  -1.7 -0.9 0  -1.65 -0.9 0  -1.6 -0.9 0  -1.55 -0.9 0  -1.5 -0.9 0  -1.45 -0.9 0  -1.4 -0.9 0  -1.35 -0.9 0  -1.3 -0.9 0  -1.25 -0.9 0  -1.2 -0.9 0  -1.15 -0.9 0  -1.1 -0.9 0  -1.05 -0.9 0  -1 -0.9 0  -0.9500000000000002 -0.9 0  -0.9000000000000004 -0.9 0  -0.8499999999999996 -0.9 0  -0.7999999999999998 -0.9 0  -0.75 -0.9 0  -0.7000000000000002 -0.9 0  -0.6500000000000004 -0.9 0  -0.5999999999999996 -0.9 0  -0.5499999999999998 -0.9 0  -0.5 -0.9 0  -0.4500000000000002 -0.9 0  -0.4000000000000004 -0.9 0  -0.3499999999999996 -0.9 0  -0.2999999999999998 -0.9 0  -0.25 -0.9 0  -0.2000000000000002 -0.9 0  -0.1500000000000004 -0.9 0  -0.09999999999999964 -0.9 0  -0.04999999999999982 -0.9 0  0 -0.9 0  0.04999999999999982 -0.9 0  0.09999999999999964 -0.9 0  0.1500000000000004 -0.9 0  0.2000000000000002 -0.9 0  0.25 -0.9 0  0.2999999999999998 -0.9 0  0.3499999999999996 -0.9 0  0.4000000000000004 -0.9 0  0.4500000000000002 -0.9 0  0.5 -0.9 0  0.5499999999999998 -0.9 0  0.5999999999999996 -0.9 0  0.6500000000000004 -0.9 0  0.7000000000000002 -0.9 0  0.75 -0.9 0  0.7999999999999998 -0.9 0  0.8499999999999996 -0.9 0  0.9000000000000004 -0.9 0  0.9500000000000002 -0.9 0  1 -0.9 0  1.05 -0.9 0  1.1 -0.9 0  1.15 -0.9 0  1.2 -0.9 0  1.25 -0.9 0  1.3 -0.9 0  1.35 -0.9 0  1.4 -0.9 0  1.45 -0.9 0  1.5 -0.9 0  1.55 -0.9 0  1.6 -0.9 0  1.65 -0.9 0  1.7 -0.9 0  1.75 -0.9 0  1.8 -0.9 0  1.85 -0.9 0  1.9 -0.9 0  1.95 -0.9 0  2 -0.9 0  2.05 -0.9 0  2.1 -0.9 0  2.15 -0.9 0  2.2 -0.9 0  2.25 -0.9 0  2.3 -0.9 0  2.35 -0.9 0  2.4 -0.9 0  2.45 -0.9 0  2.5 -0.9 0  2.55 -0.9 0  2.6 -0.9 0  2.65 -0.9 0  2.7 -0.9 0  2.75 -0.9 0  2.8 -0.9 0  2.85 -0.9 0  2.9 -0.9 0  2.95 -0.9 0  3 -0.9 0  3.050000000000001 -0.9 0  3.1 -0.9 0  3.15 -0.9 0  3.199999999999999 -0.9 0  3.25 -0.9 0  3.300000000000001 -0.9 0  3.35 -0.9 0  3.4 -0.9 0  3.449999999999999 -0.9 0  3.5 -0.9 0  3.550000000000001 -0.9 0  3.6 -0.9 0  3.65 -0.9 0  3.699999999999999 -0.9 0  3.75 -0.9 0  3.800000000000001 -0.9 0  3.85 -0.9 0  3.9 -0.9 0  3.949999999999999 -0.9 0  4 -0.9 0  4.050000000000001 -0.9 0  4.1 -0.9 0  4.15 -0.9 0  4.199999999999999 -0.9 0  4.25 -0.9 0  4.300000000000001 -0.9 0  4.35 -0.9 0  4.4 -0.9 0  4.449999999999999 -0.9 0  4.5 -0.9 0  4.550000000000001 -0.9 0  4.6 -0.9 0  4.65 -0.9 0  4.699999999999999 -0.9 0  4.75 -0.9 0  4.800000000000001 -0.9 0  4.85 -0.9 0  4.9 -0.9 0  4.949999999999999 -0.9 0  5 -0.9 0  -5 -0.85 0  -4.95 -0.85 0  -4.9 -0.85 0  -4.85 -0.85 0  -4.8 -0.85 0  -4.75 -0.85 0  -4.7 -0.85 0  -4.65 -0.85 0  -4.6 -0.85 0  -4.55 -0.85 0  -4.5 -0.85 0  -
[...]
<PointData  Vectors="f_15"> 
<DataArray  type="Float64"  Name="f_15"  NumberOfComponents="3" format="ascii">1.9967154033120189e+00 0.0000000000000000e+00 0.0000000000000000e+00  1.9967006876781759e+00 4.5064264729084938e-02 0.0000000000000000e+00  1.9966086149886224e+00 9.0018755473607465e-02 0.0000000000000000e+00  1.9964858300217345e+00 1.3509588796793007e-01 0.0000000000000000e+00  1.9962865271979549e+00 1.8004257839524165e-01 0.0000000000000000e+00  1.9960542903212599e+00 2.2506158950756902e-01 0.0000000000000000e+00  1.9957455422803181e+00 2.6997409902506420e-01 0.0000000000000000e+00  1.9954024096491341e+00 3.1491838188645965e-01 0.0000000000000000e+00  1.9949814610763086e+00 3.5977086545570131e-01 0.0000000000000000e+00  1.9945236005710532e+00 4.0461510116486538e-01 0.0000000000000000e+00  1.9939883014571596e+00 4.4938107958824475e-01 0.0000000000000000e+00  1.9934106172722748e+00 4.9410503861474742e-01 0.0000000000000000e+00  1.9927560064758569e+00 5.3875838720464420e-01 0.0000000000000000e+00  1.9920548900340913e+00 5.8332459062830999e-01 0.0000000000000000e+00  1.9912736878364172e+00 6.2784644405480616e-01 0.0000000000000000e+00  1.9904428041824556e+00 6.7223667905088225e-01 0.0000000000000000e+00  1.9895295539128799e+00 7.1655593330218581e-01 0.0000000000000000e+00  1.9885596620632284e+00 7.6078586021320826e-01 0.0000000000000000e+00  1.9875056922655914e+00 8.0484761900000135e-01 0.0000000000000000e+00  1.9863902027791174e+00 8.4885666735776655e-01 0.0000000000000000e+00  1.9851830703513225e+00 8.9266766018602306e-01 0.0000000000000000e+00  1.9839114406823923e+00 9.3640031725251571e-01 0.0000000000000000e+00  1.9825428233859361e+00 9.7987734835048834e-01 0.0000000000000000e+00  1.9810991515139842e+00 1.0233498823435794e+00 0.0000000000000000e+00  1.9795564330843705e+00 1.0664344817456892e+00 0.0000000000000000e+00  1.9779305083112222e+00 1.1095189481746861e+00 0.0000000000000000e+00  1.9761938116676445e+00 1.1522719200884726e+00 0.0000000000000000e+00  1.9743711394546084e+00 1.1948574507102077e+00 0.0000000000000000e+00  1.9724279273352632e+00 1.2371588968612464e+00 0.0000000000000000e+00  1.9703847872572466e+00 1.2792953521815167e+00 0.0000000000000000e+00  1.9682186126584553e+00 1.3210179865656018e+00 0.0000000000000000e+00  1.9659402799232801e+00 1.3625810340781341e+00 0.0000000000000000e+00  1.9635242844272396e+00 1.4037491935007202e+00 0.0000000000000000e+00  1.9609918039400269e+00 1.4446115365276277e+00 0.0000000000000000e+00  1.9583115626983834e+00 1.4850840021248424e+00 0.0000000000000000e+00  1.9554936973556152e+00 1.5252481880277415e+00 0.0000000000000000e+00  1.9525318054986192e+00 1.5648900002662851e+00 0.0000000000000000e+00  1.9494129165781351e+00 1.6041966784328878e+00 0.0000000000000000e+00  1.9461401498067989e+00 1.6430009274295518e+00 0.0000000000000000e+00  1.9427028672281856e+00 1.6812843001929811e+00 0.0000000000000000e+00  1.9391107201622746e+00 1.7190903669053359e+00 0.0000000000000000e+00  1.9353273581462556e+00 1.7563090402792070e+00 0.0000000000000000e+00  1.9314110509846956e+00 1.7929545767876598e+00 0.0000000000000000e+00  1.9272785201233087e+00 1.8289039774103315e+00 0.0000000000000000e+00  1.9230304957972491e+00 1.8643342562544307e+00 0.0000000000000000e+00  1.9185557084178386e+00 1.8988229933925123e+00 0.0000000000000000e+00  1.9140020933463489e+00 1.9328262061324173e+00 0.0000000000000000e+00  1.9091982371310900e+00 1.9657294139463370e+00 0.0000000000000000e+00  1.9043894260876149e+00 1.9980951003142227e+00 0.0000000000000000e+00  1.8993164054375971e+00 2.0291422045159133e+00 0.0000000000000000e+00  1.8943296978447557e+00 2.0596913479373486e+00 0.0000000000000000e+00  1.8890942367937313e+00 2.0885487380076997e+00 0.0000000000000000e+00  1.8840807116597047e+00 2.1169288213000006e+00 0.0000000000000000e+00  1.8788490085541665e+00 2.1432309961455815e+00 0.0000000000000000e+00  1.8740425416854767e+00 2.1689605585794092e+00 0.0000000000000000e+00  1.8690881531704286e+00 2.1920954958841516e+00 0.0000000000000000e+00  1.8648193273698710e+00 2.2145659915919107e+00 0.0000000000000000e+00  1.8605209324091587e+00 2.2337441906265396e+00 0.0000000000000000e+00  1.8572170978856026e+00 2.2521388274277556e+00 0.0000000000000000e+00  1.8539844475132228e+00 2.2665750804245115e+00 0.0000000000000000e+00  1.8520182330210764e+00 2.2802500253656293e+00 0.0000000000000000e+00  1.8500828131443421e+00 2.2895831145089689e+00 0.0000000000000000e+00  1.8494853639894768e+00 2.2987359517138102e+00 0.0000000000000000e+00  1.8486313308181828e+00 2.3036929139978830e+00 0.0000000000000000e+00  1.8489703410602085e+00 2.3095677066079650e+00 0.0000000000000000e+00  1.8486212443557200e+00 2.3117412013384584e+00 0.0000000000000000e+00  1.8493216466230915e+00 2.3159275098489611e+00 0.0000000000000000e+00  1.8490056624563413e+00 2.3166447825930221e+00 0.0000000000000000e+00  1.8497396197162859e+00 2.3201434447374027e+00 0.0000000000000000e+00  1.8492855014604108e+00 2.3200571235736298e+00 0.0000000000000000e+00  1.8499814720223557e+00 2.3232086859445333e+00 0.0000000000000000e+00  1.8493810570904596e+00 2.3225937093049822e+00 0.0000000000000000e+00  1.8500502036283046e+00 2.3255159987429090e+00 0.0000000000000000e+00  1.8493525726037534e+00 2.3244786523108498e+00 0.0000000000000000e+00  1.8500019920920554e+00 2.3272425805273280e+00 0.0000000000000000e+00  1.8492486976272702e+00 2.3258970969714619e+00 0.0000000000000000e+00  1.8498966792816696e+00 2.3285039347934737e+00 0.0000000000000000e+00  1.8491079849701673e+00 2.3269687615320129e+00 0.0000000000000000e+00  1.8497542914167469e+00 2.3294357059662052e+00 0.0000000000000000e+00  1.8489715063992473e+00 2.3277858143712447e+00 0.0000000000000000e+00  1.8495933441408106e+00 2.3300929364352392e+00 0.0000000000000000e+00  1.8488420065119973e+00 2.3284532773348467e+00 0.0000000000000000e+00  1.8494441182942580e+00 2.3305496377483914e+00 0.0000000000000000e+00  1.8487253138761126e+00 2.3289590548703938e+00 0.0000000000000000e+00  1.8493020167576351e+00 2.3309037940762090e+00 0.0000000000000000e+00  1.8486325294689658e+00 2.3293767649755299e+00 0.0000000000000000e+00  1.8491670121613313e+00 2.3311029950390076e+00 0.0000000000000000e+00  1.8485604995616614e+00 2.3297758723538986e+00 0.0000000000000000e+00  1.8490491853646256e+00 2.3312382567742285e+00 0.0000000000000000e+00  1.8484966879420837e+00 2.3300363864522202e+00 0.0000000000000000e+00  1.8489565249719619e+00 2.3314045262383472e+00 0.0000000000000000e+00  1.8484369960782618e+00 2.3302531511498774e+00 0.0000000000000000e+00  1.8488692078303928e+00 2.3314532981632987e+00 0.0000000000000000e+00  1.8484102640661897e+00 2.3305107804466871e+00 0.0000000000000000e+00  1.8487829662839490e+00 2.3314753828038213e+00 0.0000000000000000e+00  1.8483749584107032e+00 2.3306435268164818e+00 0.0000000000000000e+00  1.8487444887181075e+00 2.3315871381530142e+00 0.0000000000000000e+00  1.8483212531276665e+00 2.3307242176511083e+00 0.0000000000000000e+00  1.8486997114971055e+00 2.3316073446147318e+00 0.0000000000000000e+00  1.8483228151423852e+00 2.3308842143891475e+00 0.0000000000000000e+00  1.8486261613924961e+00 2.3315820716606495e+00 0.0000000000000000e+00  1.8483111569820057e+00 2.3309646578983481e+00 0.0000000000000000e+00  1.8486183499229685e+00 2.3316548639223669e+00 0.0000000000000000e+00  1.8482553580462844e+00 2.3309712844959760e+00 0.0000000000000000e+00  1.8486050229652602e+00 2.3316807893343339e+00 0.0000000000000000e+00  1.8482651223170763e+00 2.3310706624465807e+00 0.0000000000000000e+00  1.8485335301998282e+00 2.3316222936625279e+00 0.0000000000000000e+00  1.8482814442091613e+00 2.3311521467881184e+00 0.0000000000000000e+00  1.8485250050903195e+00 2.3316437069457341e+00 0.0000000000000000e+00  1.8482264256547649e+00 2.3311365256640957e+00 0.0000000000000000e+00  1.8485391089584622e+00 2.3316841989053247e+00 0.0000000000000000e+00  1.8482248214777024e+00 2.3311808220309631e+00 0.0000000000000000e+00  1.8484754606010154e+00 2.3316137561522181e+00 0.0000000000000000e+00  1.8482618599879053e+00 2.3312789712951609e+00 0.0000000000000000e+00  1.8484526009702924e+00 2.3315920760318010e+00 0.0000000000000000e+00  1.8482152601502353e+00 2.3312484825418678e+00 0.0000000000000000e+00  1.8484859701663956e+00 2.3316513967596646e+00 0.0000000000000000e+00  1.8481977625702279e+00 2.3312532680111095e+00 0.0000000000000000e+00  1.8484333868452298e+00 2.3315809246515662e+00 0.0000000000000000e+00  1.8482397911333037e+00 2.3313507817419730e+00 0.0000000000000000e+00  1.8484126801041805e+00 2.3315476181777250e+00 0.0000000000000000e+00  1.8481925443891274e+00 2.3313011984239900e+00 0.0000000000000000e+00  1.8484498486229781e+00 2.3316082926749386e+00 0.0000000000000000e+00  1.8481762842081846e+00 2.3313219322681960e+00 0.0000000000000000e+00  1.8484061528840929e+00 2.3314971484139946e+00 0.0000000000000000e+00  1.8482049518903434e+00 2.3314135931790818e+00 0.0000000000000000e+00  1.8484029220234524e+00 2.3315081232884105e+00 0.0000000000000000e+00  1.8481524293649321e+00 2.3313028206730237e+00 0.0000000000000000e+00  1.8484344702810225e+00 2.3315950020802347e+00 0.0000000000000000e+00  1.8481483314329918e+00 2.3312875156427291e+00 0.0000000000000000e+00  1.8483957358807963e+00 2.3315480846110641e+00 0.0000000000000000e+00  1.8481522683131035e+00 2.3312908192622470e+00 0.0000000000000000e+00  1.8484215472886198e+00 2.3315871587527890e+00 0.0000000000000000e+00  1.8480924794643827e+00 2.3312507359370827e+00 0.0000000000000000e+00  1.8484470643214592e+00 2.3314866078388863e+00 0.0000000000000000e+00  1.8480850553883028e+00 2.3314853327632576e+00 0.0000000000000000e+00  1.8484274410042734e+00 2.3311660055476415e+00 0.0000000000000000e+00  1.8480798657432100e+00 2.3317246341723536e+00 0.0000000000000000e+00  1.8484388399230043e+00 2.3310430878170552e+00 0.0000000000000000e+00  1.8480386112340594e+00 2.3317037184708398e+00 0.0000000000000000e+00  1.8484666615920990e+00 2.3311144481073032e+00 0.0000000000000000e+00  1.8480132944943219e+00 2.3315627469790963e+00 0.0000000000000000e+00  1.8484483401813756e+00 2.3312483627975800e+00 0.0000000000000000e+00  1.8480360900252402e+00 2.3314128088569710e+00 0.0000000000000000e+00  1.8484116543971638e+00 2.3313539681943158e+00 0.0000000000000000e+00  1.8480352804633688e+00 2.3312872357406826e+00 0.0000000000000000e+00  1.8484163630611199e+00 2.3314755154494873e+00 0.0000000000000000e+00  1.8480103949882192e+00 2.3311358464457475e+00 0.0000000000000000e+00  1.8484068611982682e+00 2.3315207602061792e+00 0.0000000000000000e+00  1.8480426139028752e+00 2.3311403082371651e+00 0.0000000000000000e+00  1.8483316673654271e+00 2.3313823520628749e+00 0.0000000000000000e+00  1.8481143321883964e+00 2.3312170351263597e+00 0.0000000000000000e+00  1.8482762103022872e+00 2.3313162954782567e+00 0.0000000000000000e+00  1.8480775030173220e+00 2.3312149502344317e+00 0.0000000000000000e+00  1.8482292762895280e+00 2.3314588811999064e+00 0.0000000000000000e+00  1.8479427333392318e+00 2.3313427240258111e+00 0.0000000000000000e+00  1.8479516388944119e+00 2.3316862855257137e+00 0.0000000000000000e+00  1.8477837324863935e+00 2.3317612901364662e+00 0.0000000000000000e+00  1.8476139719157232e+00 2.3316739396886832e+00 0.0000000000000000e+00  1.8477446003727964e+00 2.3318436149340229e+00 0.0000000000000000e+00  1.8476808825812834e+00 2.3309423452765192e+00 0.0000000000000000e+00  1.8482558920876444e+00 2.3311510405870952e+00 0.0000000000000000e+00  1.8479902543068905e+00 2.3293319983738718e+00 0.0000000000000000e+00  1.8490373569375598e+00 2.3304618338386152e+00 0.0000000000000000e+00  1.8481049678488479e+00 2.3282570650159009e+00 0.0000000000000000e+00  1.8490213034023795e+00 2.3296309837155333e+00 0.0000000000000000e+00  1.8485857413593363e+00 2.3289403216836586e+00 0.0000000000000000e+00  1.8479478067616422e+00 2.3271386657739757e+00 0.0000000000000000e+00  1.8513098836414061e+00 2.3295871566735507e+00 0.0000000000000000e+00  1.8430769641457987e+00 2.3270019659317973e+00 0.0000000000000000e+00  1.8338698055042140e+00 2.3867580777752995e+00 0.0000000000000000e+00  2.1744668779802834e+00 1.5795321165160652e+00 0.0000000000000000e+00  2.7398468240678047e+00 3.9892426985514928e-01 0.0000000000000000e+00  2.9566292278211539e+00 3.7492833675530815e-02 0.0000000000000000e+00  2.9705781998866594e+00 3.5353380033141240e-03 0.0000000000000000e+00  2.9633960236210162e+00 1.7850925313427719e-03 0.0000000000000000e+00  2.9719522981162494e+00 -8.5550431180380724e-03 0.0000000000000000e+00  2.9714832136301572e+00 -5.9794053744098522e-03 0.0000000000000000e+00  2.9711396215389172e+00 -8.3065392752454253e-03 0.0000000000000000e+00  2.9728979163453704e+00 -1.0628316956133343e-02 0.0000000000000000e+00  2.9721183818771144e+00 -9.2667425509714678e-03 0.0000000000000000e+00  2.9716336005273747e+00 -8.3117183261067155e-03 0.0000000000000000e+00  2.9716049512079228e+00 -8.8663092703957346e-03 0.0000000000000000e+00  2.9720264631777833e+00 -8.8172761116213725e-03 0.0000000000000000e+00  2.9717604112760689e+00 -9.2361028114616456e-03 0.0000000000000000e+00  2.9719677715927046e+00 -8.8788889898309444e-03 0.0000000000000000e+00  2.9715983160701356e+00 -8.7647500516968742e-03 0.0000000000000000e+00  2.9718632925547772e+00 -8.9535685480153226e-03 0.0000000000000000e+00  2.9716327136150045e+00 -8.9638675813975034e-03 0.0000000000000000e+00  2.9718774968732262e+00 -8.6544230708625134e-03 0.0000000000000000e+00  2.9715911359733989e+00 -9.2211027071425478e-03 0.0000000000000000e+00  2.9718395501192116e+00 -8.6849119043980148e-03 0.0000000000000000e+00  2.9715738395927729e+00 -8.8330788260969524e-03 0.0000000000000000e+00  2.9717971749123655e+00 -9.6711479459834077e-03 0.0000000000000000e+00  2.9716053640629250e+00 -8.5558421936853223e-03 0.0000000000000000e+00  2.9717424309444587e+00 -9.6065803677710532e-03 0.0000000000000000e+00  2.9716252816400290e+00 -9.7656220946076601e-03 0.0000000000000000e+00  2.9717073410999459e+00 -8.5714461371433556e-03 0.0000000000000000e+00  2.9716237624673214e+00 -1.4853946473656779e-02 0.0000000000000000e+00  2.9716811801014638e+00 -1.0114277749440919e-02 0.0000000000000000e+00  2.9716307286167520e+00 0.0000000000000000e+00 0.0000000000000000e+00  1.9967249714025483e+00 0.0000000000000000e+00 -3.3479525062960859e-05  1.9966985637883894e+00 4.5025275078572624e-02 5.8178322860375626e-06  1.9966172929982997e+00 9.0070411254610488e-02 1.0536646592600480e-05  1.9964828290795835e+00 1.3507617474007605e-01 -3.6054282588948755e-06  1.9962939073801600e+00 1.8007172991045070e-01 1.9122493586277668e-06  1.9960500996254069e+00 2.2505164618171322e-01 5.3632954756264077e-07  1.9957523435789053e+00 2.6999367386618878e-01 -2.4844945885482123e-07  1.9953971556703607e+00 3.1491331024601732e-01 6.3417325495050561e-07  1.9949873085511720e+00 3.5978093235624520e-01 1.2260240524082530e-07  1.9945188230608863e+00 4.0461421295216404e-01 7.6504796710053172e-07  1.9939926642096852e+00 4.4938766158084997e-01 -1.2934215532861514e-06  1.9934062336052800e+00 4.9410748032055785e-01 3.7683337362092726e-06  1.9927607078736447e+00 5.3875231451710393e-01 -6.6527290636268839e-06  1.9920497451842847e+00 5.8334462418756550e-01 1.1467837222006007e-05  1.9912790076002875e+00 6.2782839291625525e-01 -1.5959236699754517e-05  1.9904387139634574e+00 6.7224878727151227e-01 1.9821554297792923e-05  1.9895339837122459e+00 7.1656304931713366e-01 -2.0733504010535062e-05  1.9885569223487165e+00 7.6077229846250694e-01 1.8359797238314568e-05  1.9875112840916389e+00 8.0486084507085931e-01 -1.2556857993685185e-05  1.9863868873397521e+00 8.4885387972339754e-01 4.6794800688257216e-06  1.9851897713441820e+00 8.9267635811685497e-01 3.0572397162027248e-06  1.9839105562999459e+00 9.3636757962550010e-01 -9.5930364312077526e-06  1.9825474117416060e+00 9.7994389714542940e-01 1.2976732174938573e-05  1.9811008344095680e+00 1.0232691235457838e+00 -1.3288048095364089e-05  1.9795629384869329e+00 1.0664920471679802e+00 8.4693533838748204e-06  1.9779294450430687e+00 1.1095012775224775e+00 -9.7593785886604942e-07  1.9762037729934627e+00 1.1522594737730074e+00 -8.0267446341974295e-06  1.9743710437355859e+00 1.1948553361433301e+00 1.2986670385858905e-05  1.9724350790260532e+00 1.2371871186389252e+00 -1.4651495544758708e-05  1.9703877405916967e+00 1.2792447607583717e+00 1.2163304890813860e-05  1.9682267896586714e+00 1.3210438991027196e+00 -1.0792896879031027e-05  1.9659392319643734e+00 1.3625803766832567e+00 9.4945330877380060e-06  1.9635352359833698e+00 1.4037281116059803e+00 -1.0725632952985133e-05  1.9609922554436792e+00 1.4446074329313752e+00 1.0511659151632046e-05  1.9583158253166941e+00 1.4851097029253262e+00 -1.0893527242969657e-05  1.9554988657475851e+00 1.5252039847741461e+00 8.7117060440207085e-06  1.9525350203262859e+00 1.5649093452007206e+00 -7.8918406457075736e-06  1.9494131658722578e+00 1.6042046804589927e+00 6.6561640826523956e-06  1.9461452999450883e+00 1.6429669938882554e+00 -8.7222208084736771e-06  1.9427061091665185e+00 1.6813034978494275e+00 8.6038734493246885e-06  1.9391063944160107e+00 1.7190873577649315e+00 -7.6438490784052323e-06  1.9353393256096774e+00 1.7562993597827075e+00 2.7135294857934980e-06  1.9314027495756074e+00 1.7929281215299322e+00 -6.6135903283482537e-07  1.9272905981367758e+00 1.8289550346603907e+00 -1.1756494284734403e-06  1.9230201888187661e+00 1.8642542320644053e+00 1.0798761269100012e-06  1.9185752112827406e+00 1.8988873878743437e+00 -4.0261627215308756e-06  1.9139765879359252e+00 1.9327599110996432e+00 6.0214522710461201e-06  1.9092301723130465e+00 1.9657974028529202e+00 -9.4520571147706989e-06  1.9043510342260852e+00 1.9980013315790721e+00 1.1512271786434230e-05  1.8993532334024545e+00 2.0292767784515333e+00 -1.5048609003432459e-05  1.8942796153099206e+00 2.0595374970242957e+00 1.5854105253895813e-05  1.8891431469515214e+00 2.0887314189088748e+00 -1.7871697674964617e-05  1.8840073860462669e+00 2.1167614905492131e+00 1.8812149238805012e-05  1.8789147638085484e+00 2.1434530997376204e+00 -2.2396190286000749e-05  1.8739458018827118e+00 2.1687427074283749e+00 2.4525305372315454e-05  1.8691682636214553e+00 2.1924049465473212e+00 -2.9535617632327007e-05  1.8647009089145012e+00 2.2142748225488322e+00 3.3145302809760775e-05  1.8606259847757123e+00 2.2341177003331540e+00 -3.7056009290237435e-05  1.8570734009958978e+00 2.2517860645921677e+00 4.0552614157492312e-05  1.8541227531895434e+00 2.2670057875309215e+00 -4.2279064725953648e-05  1.8518508066263419e+00 2.2798061496265549e+00 4.8570282729484672e-05  1.8502549408406301e+00 2.2901041223401286e+00 -4.9287949103433009e-05  1.8492957040535956e+00 2.2981895306515780e+00 5.5832611018400728e-05  1.8488410766810974e+00 2.3042789614954535e+00 -5.8519531103666817e-05  1.8487492015854312e+00 2.3089470549441189e+00 5.9743282865967527e-05  1.8488621339061790e+00 2.3124123474207248e+00 -6.3169577811893632e-05  1.8490613879496824e+00 2.3152284267641132e+00 6.0438723357191277e-05  1.8492662890062233e+00 2.3174384737802356e+00 -6.2034560354228739e-05  1.8494438128692103e+00 2.3193687278310420e+00 5.9439659113314815e-05  1.8495759848160280e+00 2.3209252706510410e+00 -5.6499341247622644e-05  1.8496592574876922e+00 2.3223689349417116e+00 5.2137375556734622e-05  1.8497063030845646e+00 2.3235094715695417e+00 -4.4317051808284099e-05  1.8497178039499018e+00 2.3245857778412811e+00 3.5906769374025126e-05  1.8496946296070103e+00 2.3254574911839168e+00 -2.5121383395272485e-05  1.8496624795308887e+00 2.3262485975553733e+00 1.3221341436035990e-05  1.8496044626656758e+00 2.3269108080784324e+00 1.5570684630528629e-07  1.8495397752941758e+00 2.3274916319316028e+00 -1.5799631497172607e-05  1.8494670398203836e+00 2.3280141347576606e+00 3.1649278410657763e-05  1.8494002033186581e+00 2.3284029271740208e+00 -5.0219742486506226e-05  1.8493091705721032e+00 2.3288415882258060e+00 6.8393477163936951e-05  1.8492534391492290e+00 2.3290929999993812e+00 -8.8368176920135936e-05  1.8491644487841270e+00 2.3294640448229589e+00 1.0680847073266185e-04  1.8491078901434406e