<?xml version="1.0"?>
<VTKFile type="UnstructuredGrid"  version="0.1"  >
<UnstructuredGrid>
<Piece  NumberOfPoints="8241" NumberOfCells="16000">
<Points>
<DataArray  type="Float64"  NumberOfComponents="3"  format="ascii">-5 -1 0  -4.95 -1 0  -4.9 -1 0  -4.85 -1 0  -4.8 -1 0  -4.75 -1 0  -4.7 -1 0  -4.65 -1 0  -4.6 -1 0  -4.55 -1 0  -4.5 -1 0  -4.45 -1 0  -4.4 -1 0  -4.35 -1 0  -4.3 -1 0  -4.25 -1 0  -4.2 -1 0  -4.15 -1 0  -4.1 -1 0  -4.05 -1 0  -4 -1 0  -3.95 -1 0  -3.9 -1 0  -3.85 -1 0  -3.8 -1 0  -3.75 -1 0  -3.7 -1 0  -3.65 -1 0  -3.6 -1 0  -3.55 -1 0  -3.5 -1 0  -3.45 -1 0  -3.4 -1 0  -3.35 -1 0  -3.3 -1 0  -3.25 -1 0  -3.2 -1 0  -3.15 -1 0  -3.1 -1 0  -3.05 -1 0  -3 -1 0  -2.95 -1 0  -2.9 -1 0  -2.85 -1 0  -2.8 -1 0  -2.75 -1 0  -2.7 -1 0  -2.65 -1 0  -2.6 -1 0  -2.55 -1 0  -2.5 -1 0  -2.45 -1 0  -2.4 -1 0  -2.35 -1 0  -2.3 -1 0  -2.25 -1 0  -2.2 -1 0  -2.15 -1 0  -2.1 -1 0  -2.05 -1 0  -2 -1 0  -1.95 -1 0  -1.9 -1 0  -1.85 -1 0  -1.8 -1 0  -1.75 -1 0  -1.7 -1 0  -1.65 -1 0  -1.6 -1 0  -1.55 -1 0  -1.5 -1 0  -1.45 -1 0  -1.4 -1 0  -1.35 -1 0  -1.3 -1 0  -1.25 -1 0  -1.2 -1 0  -1.15 -1 0  -1.1 -1 0  -1.05 -1 0  -1 -1 0  -0.9500000000000002 -1 0  -0.9000000000000004 -1 0  -0.8499999999999996 -1 0  -0.7999999999999998 -1 0  -0.75 -1 0  -0.7000000000000002 -1 0  -0.6500000000000004 -1 0  -0.5999999999999996 -1 0  -0.5499999999999998 -1 0  -0.5 -1 0  -0.4500000000000002 -1 0  -0.4000000000000004 -1 0  -0.3499999999999996 -1 0  -0.2999999999999998 -1 0  -0.25 -1 0  -0.2000000000000002 -1 0  -0.1500000000000004 -1 0  -0.09999999999999964 -1 0  -0.04999999999999982 -1 0  0 -1 0  0.04999999999999982 -1 0  0.09999999999999964 -1 0  0.1500000000000004 -1 0  0.2000000000000002 -1 0  0.25 -1 0  0.2999999999999998 -1 0  0.3499999999999996 -1 0  0.4000000000000004 -1 0  0.4500000000000002 -1 0  0.5 -1 0  0.5499999999999998 -1 0  0.5999999999999996 -1 0  0.6500000000000004 -1 0  0.7000000000000002 -1 0  0.75 -1 0  0.7999999999999998 -1 0  0.8499999999999996 -1 0  0.9000000000000004 -1 0  0.9500000000000002 -1 0  1 -1 0  1.05 -1 0  1.1 -1 0  1.15 -1 0  1.2 -1 0  1.25 -1 0  1.3 -1 0  1.35 -1 0  1.4 -1 0  1.45 -1 0  1.5 -1 0  1.55 -1 0  1.6 -1 0  1.65 -1 0  1.7 -1 0  1.75 -1 0  1.8 -1 0  1.85 -1 0  1.9 -1 0  1.95 -1 0  2 -1 0  2.05 -1 0  2.1 -1 0  2.15 -1 0  2.2 -1 0  2.25 -1 0  2.3 -1 0  2.35 -1 0  2.4 -1 0  2.45 -1 0  2.5 -1 0  2.55 -1 0  2.6 -1 0  2.65 -1 0  2.7 -1 0  2.75 -1 0  2.8 -1 0  2.85 -1 0  2.9 -1 0  2.95 -1 0  3 -1 0  3.050000000000001 -1 0  3.1 -1 0  3.15 -1 0  3.199999999999999 -1 0  3.25 -1 0  3.300000000000001 -1 0  3.35 -1 0  3.4 -1 0  3.449999999999999 -1 0  3.5 -1 0  3.550000000000001 -1 0  3.6 -1 0  3.65 -1 0  3.699999999999999 -1 0  3.75 -1 0  3.800000000000001 -1 0  3.85 -1 0  3.9 -1 0  3.949999999999999 -1 0  4 -1 0  4.050000000000001 -1 0  4.1 -1 0  4.15 -1 0  4.199999999999999 -1 0  4.25 -1 0  4.300000000000001 -1 0  4.35 -1 0  4.4 -1 0  4.449999999999999 -1 0  4.5 -1 0  4.550000000000001 -1 0  4.6 -1 0  4.65 -1 0  4.699999999999999 -1 0  4.75 -1 0  4.800000000000001 -1 0  4.85 -1 0  4.9 -1 0  4.949999999999999 -1 0  5 -1 0  -5 -0.95 0  -4.95 -0.95 0  -4.9 -0.95 0  -4.85 -0.95 0  -4.8 -0.95 0  -4.75 -0.95 0  -4.7 -0.95 0  -4.65 -0.95 0  -4.6 -0.95 0  -4.55 -0.95 0  -4.5 -0.95 0  -4.45 -0.95 0  -4.4 -0.95 0  -4.35 -0.95 0  -4.3 -0.95 0  -4.25 -0.95 0  -4.2 -0.95 0  -4.15 -0.95 0  -4.1 -0.95 0  -4.05 -0.95 0  -4 -0.95 0  -3.95 -0.95 0  -3.9 -0.95 0  -3.85 -0.95 0  -3.8 -0.95 0  -3.75 -0.95 0  -3.7 -0.95 0  -3.65 -0.95 0  -3.6 -0.95 0  -3.55 -0.95 0  -3.5 -0.95 0  -3.45 -0.95 0  -3.4 -0.95 0  -3.35 -0.95 0  -3.3 -0.95 0  -3.25 -0.95 0  -3.2 -0.95 0  -3.15 -0.95 0  -3.1 -0.95 0  -3.05 -0.95 0  -3 -0.95 0  -2.95 -0.95 0  -2.9 -0.95 0  -2.85 -0.95 0  -2.8 -0.95 0  -2.75 -0.95 0  -2.7 -0.95 0  -2.65 -0.95 0  -2.6 -0.95 0  -2.55 -0.95 0  -2.5 -0.95 0  -2.45 -0.95 0  -2.4 -0.95 0  -2.35 -0.95 0  -2.3 -0.95 0  -2.25 -0.95 0  -2.2 -0.95 0  -2.15 -0.95 0  -2.1 -0.95 0  -2.05 -0.95 0  -2 -0.95 0  -1.95 -0.95 0  -1.9 -0.95 0  -1.85 -0.95 0  -1.8 -0.95 0  -1.75 -0.95 0  -1.7 -0.95 0  -1.65 -0.95 0  -1.6 -0.95 0  -1.55 -0.95 0  -1.5 -0.95 0  -1.45 -0.95 0  -1.4 -0.95 0  -1.35 -0.95 0  -1.3 -0.95 0  -1.25 -0.95 0  -1.2 -0.95 0  -1.15 -0.95 0  -1.1 -0.95 0  -1.05 -0.95 0  -1 -0.95 0  -0.9500000000000002 -0.95 0  -0.9000000000000004 -0.95 0  -0.8499999999999996 -0.95 0  -0.7999999999999998 -0.95 0  -0.75 -0.95 0  -0.7000000000000002 -0.95 0  -0.6500000000000004 -0.95 0  -0.5999999999999996 -0.95 0  -0.5499999999999998 -0.95 0  -0.5 -0.95 0  -0.4500000000000002 -0.95 0  -0.4000000000000004 -0.95 0  -0.3499999999999996 -0.95 0  -0.2999999999999998 -0.95 0  -0.25 -0.95 0  -0.2000000000000002 -0.95 0  -0.1500000000000004 -0.95 0  -0.09999999999999964 -0.95 0  -0.04999999999999982 -0.95 0  0 -0.95 0  0.04999999999999982 -0.95 0  0.09999999999999964 -0.95 0  0.1500000000000004 -0.95 0  0.2000000000000002 -0.95 0  0.25 -0.95 0  0.2999999999999998 -0.95 0  0.3499999999999996 -0.95 0  0.4000000000000004 -0.95 0  0.4500000000000002 -0.95 0  0.5 -0.95 0  0.5499999999999998 -0.95 0  0.5999999999999996 -0.95 0  0.6500000000000004 -0.95 0  0.7000000000000002 -0.95 0  0.75 -0.95 0  0.7999999999999998 -0.95 0  0.8499999999999996 -0.95 0  0.9000000000000004 -0.95 0  0.9500000000000002 -0.95 0  1 -0.95 0  1.05 -0.95 0  1.1 -0.95 0  1.15 -0.95 0  1.2 -0.95 0  1.25 -0.95 0  1.3 -0.95 0  1.35 -0.95 0  1.4 -0.95 0  1.45 -0.95 0  1.5 -0.95 0  1.55 -0.95 0  1.6 -0.95 0  1.65 -0.95 0  1.7 -0.95 0  1.75 -0.95 0  1.8 -0.95 0  1.85 -0.95 0  1.9 -0.95 0  1.95 -0.95 0  2 -0.95 0  2.05 -0.95 0  2.1 -0.95 0  2.15 -0.95 0  2.2 -0.95 0  2.25 -0.95 0  2.3 -0.95 0  2.35 -0.95 0  2.4 -0.95 0  2.45 -0.95 0  2.5 -0.95 0  2.55 -0.95 0  2.6 -0.95 0  2.65 -0.95 0  2.7 -0.95 0  2.75 -0.95 0  2.8 -0.95 0  2.85 -0.95 0  2.9 -0.95 0  2.95 -0.95 0  3 -0.95 0  3.050000000000001 -0.95 0  3.1 -0.95 0  3.15 -0.95 0  3.199999999999999 -0.95 0  3.25 -0.95 0  3.300000000000001 -0.95 0  3.35 -0.95 0  3.4 -0.95 0  3.449999999999999 -0.95 0  3.5 -0.95 0  3.550000000000001 -0.95 0  3.6 -0.95 0  3.65 -0.95 0  3.699999999999999 -0.95 0  3.75 -0.95 0  3.800000000000001 -0.95 0  3.85 -0.95 0  3.9 -0.95 0  3.949999999999999 -0.95 0  4 -0.95 0  4.050000000000001 -0.95 0  4.1 -0.95 0  4.15 -0.95 0  4.199999999999999 -0.95 0  4.25 -0.95 0  4.300000000000001 -0.95 0  4.35 -0.95 0  4.4 -0.95 0  4.449999999999999 -0.95 0  4.5 -0.95 0  4.550000000000001 -0.95 0  4.6 -0.95 0  4.65 -0.95 0  4.699999999999999 -0.95 0  4.75 -0.95 0  4.800000000000001 -0.95 0  4.85 -0.95 0  4.9 -0.95 0  4.949999999999999 -0.95 0  5 -0.95 0  -5 -0.9 0  -4.95 -0.9 0  -4.9 -0.9 0  -4.85 -0.9 0  -4.8 -0.9 0  -4.75 -0.9 0  -4.7 -0.9 0  -4.65 -0.9 0  -4.6 -0.9 0  -4.55 -0.9 0  -4.5 -0.9 0  -4.45 -0.9 0  -4.4 -0.9 0  -4.35 -0.9 0  -4.3 -0.9 0  -4.25 -0.9 0  -4.2 -0.9 0  -4.15 -0.9 0  -4.1 -0.9 0  -4.05 -0.9 0  -4 -0.9 0  -3.95 -0.9 0  -3.9 -0.9 0  -3.85 -0.9 0  -3.8 -0.9 0  -3.75 -0.9 0  -3.7 -0.9 0  -3.65 -0.9 0  -3.6 -0.9 0  -3.55 -0.9 0  -3.5 -0.9 0  -3.45 -0.9 0  -3.4 -0.9 0  -3.35 -0.9 0  -3.3 -0.9 0  -3.25 -0.9 0  -3.2 -0.9 0  -3.15 -0.9 0  -3.1 -0.9 0  -3.05 -0.9 0  -3 -0.9 0  -2.95 -0.9 0  -2.9 -0.9 0  -2.85 -0.9 0  -2.8 -0.9 0  -2.75 -0.9 0  -2.7 -0.9 0  -2.65 -0.9 0  -2.6 -0.9 0  -2.55 -0.9 0  -2.5 -0.9 0  -2.45 -0.9 0  -2.4 -0.9 0  -2.35 -0.9 0  -2.3 -0.9 0  -2.25 -0.9 0  -2.2 -0.9 0  -2.15 -0.9 0  -2.1 -0.9 0  -2.05 -0.9 0  -2 -0.9 0  -1.95 -0.9 0  -1.9 -0.9 0  -1.85 -0.9 0  -1.8 -0.9 0  -1.75 -0.9 0  -1.7 -0.9 0  -1.65 -0.9 0  -1.6 -0.9 0  -1.55 -0.9 0  -1.5 -0.9 0  -1.45 -0.9 0  -1.4 -0.9 0  -1.35 -0.9 0  -1.3 -0.9 0  -1.25 -0.9 0  -1.2 -0.9 0  -1.15 -0.9 0  -1.1 -0.9 0  -1.05 -0.9 0  -1 -0.9 0  -0.9500000000000002 -0.9 0  -0.9000000000000004 -0.9 0  -0.8499999999999996 -0.9 0  -0.7999999999999998 -0.9 0  -0.75 -0.9 0  -0.7000000000000002 -0.9 0  -0.6500000000000004 -0.9 0  -0.5999999999999996 -0.9 0  -0.5499999999999998 -0.9 0  -0.5 -0.9 0  -0.4500000000000002 -0.9 0  -0.4000000000000004 -0.9 0  -0.3499999999999996 -0.9 0  -0.2999999999999998 -0.9 0  -0.25 -0.9 0  -0.2000000000000002 -0.9 0  -0.1500000000000004 -0.9 0  -0.09999999999999964 -0.9 0  -0.04999999999999982 -0.9 0  0 -0.9 0  0.04999999999999982 -0.9 0  0.09999999999999964 -0.9 0  0.1500000000000004 -0.9 0  0.2000000000000002 -0.9 0  0.25 -0.9 0  0.2999999999999998 -0.9 0  0.3499999999999996 -0.9 0  0.4000000000000004 -0.9 0  0.4500000000000002 -0.9 0  0.5 -0.9 0  0.5499999999999998 -0.9 0  0.5999999999999996 -0.9 0  0.6500000000000004 -0.9 0  0.7000000000000002 -0.9 0  0.75 -0.9 0  0.7999999999999998 -0.9 0  0.8499999999999996 -0.9 0  0.9000000000000004 -0.9 0  0.9500000000000002 -0.9 0  1 -0.9 0  1.05 -0.9 0  1.1 -0.9 0  1.15 -0.9 0  1.2 -0.9 0  1.25 -0.9 0  1.3 -0.9 0  1.35 -0.9 0  1.4 -0.9 0  1.45 -0.9 0  1.5 -0.9 0  1.55 -0.9 0  1.6 -0.9 0  1.65 -0.9 0  1.7 -0.9 0  1.75 -0.9 0  1.8 -0.9 0  1.85 -0.9 0  1.9 -0.9 0  1.95 -0.9 0  2 -0.9 0  2.05 -0.9 0  2.1 -0.9 0  2.15 -0.9 0  2.2 -0.9 0  2.25 -0.9 0  2.3 -0.9 0  2.35 -0.9 0  2.4 -0.9 0  2.45 -0.9 0  2.5 -0.9 0  2.55 -0.9 0  2.6 -0.9 0  2.65 -0.9 0  2.7 -0.9 0  2.75 -0.9 0  2.8 -0.9 0  2.85 -0.9 0  2.9 -0.9 0  2.95 -0.9 0  3 -0.9 0  3.050000000000001 -0.9 0  3.1 -0.9 0  3.15 -0.9 0  3.199999999999999 -0.9 0  3.25 -0.9 0  3.300000000000001 -0.9 0  3.35 -0.9 0  3.4 -0.9 0  3.449999999999999 -0.9 0  3.5 -0.9 0  3.550000000000001 -0.9 0  3.6 -0.9 0  3.65 -0.9 0  3.699999999999999 -0.9 0  3.75 -0.9 0  3.800000000000001 -0.9 0  3.85 -0.9 0  3.9 -0.9 0  3.949999999999999 -0.9 0  4 -0.9 0  4.050000000000001 -0.9 0  4.1 -0.9 0  4.15 -0.9 0  4.199999999999999 -0.9 0  4.25 -0.9 0  4.300000000000001 -0.9 0  4.35 -0.9 0  4.4 -0.9 0  4.449999999999999 -0.9 0  4.5 -0.9 0  4.550000000000001 -0.9 0  4.6 -0.9 0  4.65 -0.9 0  4.699999999999999 -0.9 0  4.75 -0.9 0  4.800000000000001 -0.9 0  4.85 -0.9 0  4.9 -0.9 0  4.949999999999999 -0.9 0  5 -0.9 0  -5 -0.85 0  -4.95 -0.85 0  -4.9 -0.85 0  -4.85 -0.85 0  -4.8 -0.85 0  -4.75 -0.85 0  -4.7 -0.85 0  -4.65 -0.85 0  -4.6 -0.85 0  -4.55 -0.85 0  -4.5 -0.85 0  -
[...]
<PointData  Vectors="f_15"> 
<DataArray  type="Float64"  Name="f_15"  NumberOfComponents="3" format="ascii">7.7152773189800499e+00 0.0000000000000000e+00 0.0000000000000000e+00  7.7141624381089615e+00 9.0132802841728116e-02 0.0000000000000000e+00  7.7135329416036651e+00 1.7686489957093324e-01 0.0000000000000000e+00  7.7107090708496333e+00 2.6772465202567258e-01 0.0000000000000000e+00  7.7082790429322401e+00 3.5407079382210471e-01 0.0000000000000000e+00  7.7038634835306841e+00 4.4448923187545630e-01 0.0000000000000000e+00  7.6994224919557812e+00 5.3061943664882483e-01 0.0000000000000000e+00  7.6934547384289651e+00 6.2051265395997746e-01 0.0000000000000000e+00  7.6870885824498343e+00 7.0613487229002814e-01 0.0000000000000000e+00  7.6793863354366652e+00 7.9540653724700339e-01 0.0000000000000000e+00  7.6710592197148362e+00 8.8023622705147253e-01 0.0000000000000000e+00  7.6617615507619421e+00 9.6919693622508463e-01 0.0000000000000000e+00  7.6512277458201838e+00 1.0522764235813893e+00 0.0000000000000000e+00  7.6403077995965827e+00 1.1412607010822664e+00 0.0000000000000000e+00  7.6277265571143138e+00 1.2231454206902395e+00 0.0000000000000000e+00  7.6148472666911688e+00 1.3096381327185416e+00 0.0000000000000000e+00  7.6003129203414135e+00 1.3934060109246458e+00 0.0000000000000000e+00  7.5854915544599359e+00 1.4749142687154215e+00 0.0000000000000000e+00  7.5687785572311510e+00 1.5602384441548758e+00 0.0000000000000000e+00  7.5520446605227542e+00 1.6392369632440924e+00 0.0000000000000000e+00  7.5331914456703570e+00 1.7232515693331054e+00 0.0000000000000000e+00  7.5143446992804428e+00 1.7990324365191592e+00 0.0000000000000000e+00  7.4933601475182749e+00 1.8871591802340479e+00 0.0000000000000000e+00  7.4724696184788577e+00 1.9513951921541868e+00 0.0000000000000000e+00  7.4491889860343212e+00 2.0482523996842374e+00 0.0000000000000000e+00  7.4262285853401035e+00 2.1055919400039032e+00 0.0000000000000000e+00  7.4008015686344084e+00 2.1961877700393604e+00 0.0000000000000000e+00  7.3756312742063601e+00 2.2645759106045720e+00 0.0000000000000000e+00  7.3480099782057202e+00 2.3385146008274518e+00 0.0000000000000000e+00  7.3208603265263612e+00 2.4138328930843258e+00 0.0000000000000000e+00  7.2909711812692128e+00 2.4863065835908835e+00 0.0000000000000000e+00  7.2617372051709079e+00 2.5529866761856916e+00 0.0000000000000000e+00  7.2299342849255916e+00 2.6300646153916127e+00 0.0000000000000000e+00  7.1985942221341732e+00 2.6928864494461964e+00 0.0000000000000000e+00  7.1647436579087582e+00 2.7655230951142640e+00 0.0000000000000000e+00  7.1317255535471098e+00 2.8303869469354699e+00 0.0000000000000000e+00  7.0959441411967745e+00 2.8985635903008822e+00 0.0000000000000000e+00  7.0609728124484974e+00 2.9624746054718964e+00 0.0000000000000000e+00  7.0239221739757394e+00 3.0288270316599055e+00 0.0000000000000000e+00  6.9869848626811812e+00 3.0914062988630819e+00 0.0000000000000000e+00  6.9485959749424788e+00 3.1555108635425104e+00 0.0000000000000000e+00  6.9101853002619897e+00 3.2169307042220630e+00 0.0000000000000000e+00  6.8706497685084074e+00 3.2797778824407775e+00 0.0000000000000000e+00  6.8306371227875564e+00 3.3396408111165208e+00 0.0000000000000000e+00  6.7904261901321874e+00 3.4007923892343523e+00 0.0000000000000000e+00  6.7491047157770341e+00 3.4602264841606125e+00 0.0000000000000000e+00  6.7079923730495938e+00 3.5201355764017248e+00 0.0000000000000000e+00  6.6659617400115652e+00 3.5778994594297946e+00 0.0000000000000000e+00  6.6240357717746923e+00 3.6375788122082877e+00 0.0000000000000000e+00  6.5812645094454920e+00 3.6943886207380774e+00 0.0000000000000000e+00  6.5390237913517044e+00 3.7532818164718247e+00 0.0000000000000000e+00  6.4955014287673301e+00 3.8091427923995766e+00 0.0000000000000000e+00  6.4529909981426083e+00 3.8678693406712212e+00 0.0000000000000000e+00  6.4092534752377697e+00 3.9229533969266974e+00 0.0000000000000000e+00  6.3661541124032501e+00 3.9814471745806026e+00 0.0000000000000000e+00  6.3226270169591530e+00 4.0358051040517706e+00 0.0000000000000000e+00  6.2790293553698220e+00 4.0942541173634517e+00 0.0000000000000000e+00  6.2356830210969267e+00 4.1481874362235072e+00 0.0000000000000000e+00  6.1918278151469437e+00 4.2065196216921281e+00 0.0000000000000000e+00  6.1487104696124009e+00 4.2601505019926833e+00 0.0000000000000000e+00  6.1046297039250979e+00 4.3183882097475914e+00 0.0000000000000000e+00  6.0619309564458241e+00 4.3717383530655480e+00 0.0000000000000000e+00  6.0175082565604106e+00 4.4303669460553019e+00 0.0000000000000000e+00  5.9755105445843286e+00 4.4829015518606203e+00 0.0000000000000000e+00  5.9306687941101570e+00 4.5423159704814626e+00 0.0000000000000000e+00  5.8892722448143608e+00 4.5941061240665064e+00 0.0000000000000000e+00  5.8444572269156492e+00 4.6540452777719814e+00 0.0000000000000000e+00  5.8033536968527129e+00 4.7054710640574120e+00 0.0000000000000000e+00  5.7585313265338858e+00 4.7658730174176931e+00 0.0000000000000000e+00  5.7181411321881361e+00 4.8166707176584138e+00 0.0000000000000000e+00  5.6731599761928857e+00 4.8778777235216610e+00 0.0000000000000000e+00  5.6330389394711720e+00 4.9281550985855453e+00 0.0000000000000000e+00  5.5887174439697525e+00 4.9896642698382419e+00 0.0000000000000000e+00  5.5485882282881747e+00 5.0396564256739307e+00 0.0000000000000000e+00  5.5043223567473172e+00 5.1021908005617842e+00 0.0000000000000000e+00  5.4650656346933690e+00 5.1507097039769327e+00 0.0000000000000000e+00  5.4209033729393568e+00 5.2144281246126205e+00 0.0000000000000000e+00  5.3812689492190007e+00 5.2629818073234631e+00 0.0000000000000000e+00  5.3386687958106709e+00 5.3260487919043769e+00 0.0000000000000000e+00  5.2983956553646268e+00 5.3747805656266330e+00 0.0000000000000000e+00  5.2562155373290507e+00 5.4390357777705249e+00 0.0000000000000000e+00  5.2165847562161556e+00 5.4860969594558266e+00 0.0000000000000000e+00  5.1748296490126560e+00 5.5513916904812088e+00 0.0000000000000000e+00  5.1344089981670624e+00 5.5987868483427183e+00 0.0000000000000000e+00  5.0946014984721293e+00 5.6634130944822054e+00 0.0000000000000000e+00  5.0530335692531434e+00 5.7110823905092030e+00 0.0000000000000000e+00  5.0145005933118929e+00 5.7759763576647352e+00 0.0000000000000000e+00  4.9726916316721859e+00 5.8232550028401109e+00 0.0000000000000000e+00  4.9350568923129057e+00 5.8884681667655885e+00 0.0000000000000000e+00  4.8926136072585216e+00 5.9355833800279507e+00 0.0000000000000000e+00  4.8562012712317877e+00 6.0014144641953804e+00 0.0000000000000000e+00  4.8131782923866435e+00 6.0480910344423648e+00 0.0000000000000000e+00  4.7780280707890421e+00 6.1137480608377182e+00 0.0000000000000000e+00  4.7349305345359536e+00 6.1600171353299960e+00 0.0000000000000000e+00  4.6999726780678612e+00 6.2271363143805107e+00 0.0000000000000000e+00  4.6570304666900020e+00 6.2721736980364398e+00 0.0000000000000000e+00  4.6196772484394533e+00 6.3443377978137896e+00 0.0000000000000000e+00  4.5827162130791219e+00 6.3805441722763092e+00 0.0000000000000000e+00  4.5461757885730840e+00 6.4525150540705374e+00 0.0000000000000000e+00  4.5040282108283609e+00 6.4958122926087967e+00 0.0000000000000000e+00  4.4703522592151197e+00 6.5653424170033849e+00 0.0000000000000000e+00  4.4321127940169314e+00 6.6018715617024997e+00 0.0000000000000000e+00  4.3922444844366195e+00 6.6815888919681727e+00 0.0000000000000000e+00  4.3536816079572658e+00 6.7195663064304814e+00 0.0000000000000000e+00  4.3193547773996173e+00 6.7913686095576606e+00 0.0000000000000000e+00  4.2780522450392198e+00 6.8333697621071288e+00 0.0000000000000000e+00  4.2446291759986767e+00 6.9046923633707769e+00 0.0000000000000000e+00  4.2033769199707143e+00 6.9469873511886924e+00 0.0000000000000000e+00  4.1738313814937982e+00 7.0131520353614816e+00 0.0000000000000000e+00  4.1331068521330945e+00 7.0551347368768091e+00 0.0000000000000000e+00  4.1036766868558692e+00 7.1212666024614588e+00 0.0000000000000000e+00  4.0606852400604110e+00 7.1677647301464269e+00 0.0000000000000000e+00  4.0319490957205364e+00 7.2316481331627216e+00 0.0000000000000000e+00  3.9904042739547738e+00 7.2771150798349913e+00 0.0000000000000000e+00  3.9647142037798244e+00 7.3383707725128788e+00 0.0000000000000000e+00  3.9230389239312959e+00 7.3828657277459637e+00 0.0000000000000000e+00  3.8975337325123123e+00 7.4426290775546420e+00 0.0000000000000000e+00  3.8613911404397161e+00 7.4838485519551119e+00 0.0000000000000000e+00  3.8350110200464509e+00 7.5393511304341079e+00 0.0000000000000000e+00  3.7979613160267962e+00 7.5843657549596939e+00 0.0000000000000000e+00  3.8275488656982408e+00 7.5539878709856483e+00 0.0000000000000000e+00  3.8775302958901889e+00 7.4586986899742280e+00 0.0000000000000000e+00  3.9220037325025259e+00 7.3961913749195078e+00 0.0000000000000000e+00  3.9336603094146700e+00 7.3782732725455933e+00 0.0000000000000000e+00  3.9423516277787525e+00 7.3572552395508275e+00 0.0000000000000000e+00  3.9437185904721219e+00 7.3661000474567571e+00 0.0000000000000000e+00  3.9483649447456473e+00 7.3466074830232477e+00 0.0000000000000000e+00  3.9500323923010527e+00 7.3587502118450647e+00 0.0000000000000000e+00  3.9523392607700787e+00 7.3347706196787499e+00 0.0000000000000000e+00  3.9550760609426150e+00 7.3594806371906660e+00 0.0000000000000000e+00  3.9543517648344730e+00 7.3227470246833697e+00 0.0000000000000000e+00  3.9553270437806449e+00 7.3656227828421823e+00 0.0000000000000000e+00  3.9577612374630680e+00 7.3096729090265695e+00 0.0000000000000000e+00  3.9563334347378896e+00 7.3754843550239189e+00 0.0000000000000000e+00  3.9579953398379479e+00 7.2940438335414548e+00 0.0000000000000000e+00  3.9594120506248300e+00 7.3838887549531060e+00 0.0000000000000000e+00  3.9577746884473544e+00 7.2907040486271280e+00 0.0000000000000000e+00  3.9586954846214994e+00 7.3752328826327220e+00 0.0000000000000000e+00  3.9616878800221826e+00 7.3029697336335593e+00 0.0000000000000000e+00  3.9556158713247442e+00 7.3615489588641312e+00 0.0000000000000000e+00  3.9654048361999510e+00 7.3094386869889139e+00 0.0000000000000000e+00  3.9521358849696262e+00 7.3593892025158061e+00 0.0000000000000000e+00  3.9709958069933875e+00 7.3079440455397844e+00 0.0000000000000000e+00  3.9453673541800782e+00 7.3600319320568683e+00 0.0000000000000000e+00  3.9779893362545495e+00 7.3055386142361609e+00 0.0000000000000000e+00  3.9408128115365040e+00 7.3645939164873084e+00 0.0000000000000000e+00  3.9808225297434747e+00 7.2970740248068031e+00 0.0000000000000000e+00  3.9384149103462693e+00 7.3720563894694662e+00 0.0000000000000000e+00  3.9849084527985656e+00 7.2937363631109529e+00 0.0000000000000000e+00  3.9335651035750807e+00 7.3694478171538602e+00 0.0000000000000000e+00  3.9881279984617657e+00 7.2978073681896696e+00 0.0000000000000000e+00  3.9341506224381750e+00 7.3675013315281648e+00 0.0000000000000000e+00  3.9848493928664754e+00 7.2964383635350041e+00 0.0000000000000000e+00  3.9371362177028582e+00 7.3673893800101649e+00 0.0000000000000000e+00  3.9840355389840836e+00 7.3018096330167221e+00 0.0000000000000000e+00  3.9371035875036848e+00 7.3570087727214935e+00 0.0000000000000000e+00  3.9812867885112744e+00 7.3109496448403499e+00 0.0000000000000000e+00  3.9441945936063298e+00 7.3538035395473189e+00 0.0000000000000000e+00  3.9721698356548956e+00 7.3081961891301050e+00 0.0000000000000000e+00  3.9507085326900504e+00 7.3556540913987556e+00 0.0000000000000000e+00  3.9701553206385394e+00 7.3125355546900206e+00 0.0000000000000000e+00  3.9502783930150751e+00 7.3452913084655833e+00 0.0000000000000000e+00  3.9683029255472357e+00 7.3220065979047666e+00 0.0000000000000000e+00  3.9561382778912133e+00 7.3420183292186314e+00 0.0000000000000000e+00  3.9608621865253002e+00 7.3186685156586666e+00 0.0000000000000000e+00  3.9605847836787560e+00 7.3454787060733215e+00 0.0000000000000000e+00  3.9607752646189098e+00 7.3202712090722075e+00 0.0000000000000000e+00  3.9585923364063689e+00 7.3379987595651039e+00 0.0000000000000000e+00  3.9607883118060090e+00 7.3286101027159543e+00 0.0000000000000000e+00  3.9616544359512593e+00 7.3325004225154142e+00 0.0000000000000000e+00  3.9570022949149890e+00 7.3295172413610423e+00 0.0000000000000000e+00  3.9626623294964629e+00 7.3329477639796634e+00 0.0000000000000000e+00  3.9590864372406291e+00 7.3291251500081662e+00 0.0000000000000000e+00  3.9595802383756094e+00 7.3316034856341910e+00 0.0000000000000000e+00  3.9595453366653381e+00 7.3298673357739625e+00 0.0000000000000000e+00  3.9632218607794725e+00 7.3304746838094452e+00 0.0000000000000000e+00  3.9521161047869753e+00 7.3263973686718655e+00 0.0000000000000000e+00  3.9722820140323574e+00 7.3396559557069363e+00 0.0000000000000000e+00  3.9390200607222261e+00 7.3066025915198329e+00 0.0000000000000000e+00  3.9850916295173078e+00 7.3667764366278865e+00 0.0000000000000000e+00  3.9190238539327393e+00 7.2768570658169356e+00 0.0000000000000000e+00  4.0018357157798965e+00 7.3975667219065269e+00 0.0000000000000000e+00  3.8915544933435147e+00 7.2303079435829805e+00 0.0000000000000000e+00  4.0275319867968458e+00 7.4915913170389219e+00 0.0000000000000000e+00  3.8512989271293385e+00 7.0362098148485046e+00 0.0000000000000000e+00  4.0291080488665063e+00 7.8368131750982721e+00 0.0000000000000000e+00  4.0639581976163770e+00 6.3148250126187655e+00 0.0000000000000000e+00  3.3412074427841336e+00 9.1553163632220276e+00 0.0000000000000000e+00  6.7799143075685251e+00 2.6093294251534704e+00 0.0000000000000000e+00  9.3644685642681615e+00 1.1853483696906635e-01 0.0000000000000000e+00  9.5482141455629232e+00 -9.1055974262122558e-02 0.0000000000000000e+00  9.3922596454379494e+00 -6.4951925096995711e-02 0.0000000000000000e+00  9.5007957429549066e+00 -1.0297677408687834e-01 0.0000000000000000e+00  9.4837182659746855e+00 -9.7452560356428450e-02 0.0000000000000000e+00  9.4968690306781749e+00 -1.1484386193685164e-01 0.0000000000000000e+00  9.4971815938323196e+00 -9.6962850918109578e-02 0.0000000000000000e+00  9.4866256067159611e+00 -8.7910145784455468e-02 0.0000000000000000e+00  9.4901316713057131e+00 -6.8267552709106172e-02 0.0000000000000000e+00  9.4967292567161987e+00 -1.1424737929726454e-01 0.0000000000000000e+00  9.4925073462587459e+00 -2.1643364789557185e-02 0.0000000000000000e+00  9.4914620940478844e+00 0.0000000000000000e+00 0.0000000000000000e+00  7.7146437734992928e+00 0.0000000000000000e+00 9.5892105165211352e-04  7.7140997478611819e+00 8.7554301976413770e-02 -1.1346994570361085e-03  7.7128176118973970e+00 1.7775530351502708e-01 1.4303999005149473e-03  7.7106324742684729e+00 2.6491796944876833e-01 -1.6110311296230805e-03  7.7075917995640326e+00 3.5489149555840349e-01 1.7447510727662825e-03  7.7035812162477137e+00 4.4171968810867146e-01 -1.8510593914450220e-03  7.6988114741029996e+00 5.3159696587452199e-01 1.9796309667665748e-03  7.6930896741833914e+00 6.1765448299934400e-01 -2.0573143843553481e-03  7.6863789907423259e+00 7.0726842883826568e-01 2.1904728360666844e-03  7.6789598041390130e+00 7.9250791959431055e-01 -2.2669475510041321e-03  7.6703964482091740e+00 8.8173916923230211e-01 2.4346045327512354e-03  7.6610968070380956e+00 9.6572257537826889e-01 -2.6399361537600492e-03  7.6505965713531907e+00 1.0546620798909163e+00 3.0834537257271896e-03  7.6396295854105105e+00 1.1373988367896255e+00 -3.7004733663864578e-03  7.6268219496002132e+00 1.2251985576536388e+00 4.5854611260899821e-03  7.6142918735735252e+00 1.3071524242090804e+00 -5.4807933927199411e-03  7.5992147008880684e+00 1.3940086273281609e+00 6.3237488799945804e-03  7.5848485805053949e+00 1.4731864547633784e+00 -6.8308575268688828e-03  7.5675934063354351e+00 1.5615368698466994e+00 7.1198569251700056e-03  7.5513706305872184e+00 1.6362594063248903e+00 -7.2048067570535139e-03  7.5317615270260454e+00 1.7246246240167042e+00 7.3707009289197658e-03  7.5136919204556625e+00 1.7990856351401485e+00 -7.5391242076869478e-03  7.4917914462111961e+00 1.8822824840202610e+00 7.6182806322462448e-03  7.4716508245100881e+00 1.9583941783101859e+00 -7.2737545212814220e-03  7.4475598610370000e+00 2.0398355306285803e+00 6.5840317119633968e-03  7.4253300765179588e+00 2.1094152120563643e+00 -5.8270487330917891e-03  7.3989957201308245e+00 2.1968043941450248e+00 5.4896423474995841e-03  7.3746210739261864e+00 2.2579793362681508e+00 -5.5839919524946595e-03  7.3462642399607789e+00 2.3446994743414646e+00 5.6211811802516255e-03  7.3195125912385013e+00 2.4090322713662937e+00 -4.9616401569296505e-03  7.2893451592185761e+00 2.4852140047259517e+00 3.5594719272832274e-03  7.2602219625277291e+00 2.5552729548525792e+00 -2.1262520566917458e-03  7.2283059905397833e+00 2.6259023871265490e+00 1.5163803806658325e-03  7.1969126117064341e+00 2.6934183014967217e+00 -1.9335384490893250e-03  7.1632443612189052e+00 2.7650147241557157e+00 2.7126429760693936e-03  7.1299872299866474e+00 2.8280083516213561e+00 -3.0923162339092790e-03  7.0942694308779686e+00 2.8987241804091544e+00 2.8570726983139188e-03  7.0595962100706524e+00 2.9607813899238038e+00 -2.4875565550160537e-03  7.0220351370871565e+00 3.0283204402438280e+00 2.3954920691573647e-03  6.9857406802984707e+00 3.0894862745238463e+00 -2.5850896954988959e-03  6.9468880466296268e+00 3.1557249415014228e+00 2.6346732195705342e-03  6.9090741368088358e+00 3.2149638426681086e+00 -2.3621722407502358e-03  6.8689265282001006e+00 3.2795363662169472e+00 1.8803455694077196e-03  6.8299539215130585e+00 3.3381975293762522e+00 -1.5538214112869612e-03  6.7888357342869465e+00 3.4009248782910650e+00 1.4100177361495523e-03  6.7485319202665632e+00 3.4589231810112144e+00 -1.3319908725079425e-03  6.7069455948269603e+00 3.5197682286960164e+00 1.0961282471809090e-03  6.6655235790882434e+00 3.5778154547971708e+00 -8.5879151274682777e-04  6.6233205961285311e+00 3.6372099669600733e+00 7.0107959874924968e-04  6.5813782360185646e+00 3.6944932132008175e+00 -7.0167999046464116e-04  6.5385026049372161e+00 3.7531239931176459e+00 6.5300913107382591e-04  6.4961297543874439e+00 3.8100659120670910e+00 -6.1371274652087006e-04  6.4530384356679207e+00 3.8679207870455730e+00 5.6570474759599866e-04  6.4100779501135534e+00 3.9243636846977838e+00 -5.9831867300797685e-04  6.3669939013820747e+00 3.9817932940169025e+00 5.7195561249914664e-04  6.3237523409332290e+00 4.0379118150055513e+00 -5.5801085708361519e-04  6.2804728918046662e+00 4.0950889218746571e+00 5.3288035792029074e-04  6.2373075624475742e+00 4.1507775583580360e+00 -5.7016458788117306e-04  6.1938351751132243e+00 4.2078685685558073e+00 5.9350223452472536e-04  6.1507866047899507e+00 4.2631861759412875e+00 -6.6248561875226935e-04  6.1072950945315201e+00 4.3203519740049519e+00 7.1425426044735411e-04  6.0643109431314297e+00 4.3754516875195399e+00 -7.6513864467136247e-04  6.0209781213167570e+00 4.4323911998324279e+00 7.6895852565091205e-04  5.9780584814286692e+00 4.4875380196292349e+00 -7.9565954078469414e-04  5.9347997288114058e+00 4.5444807058035739e+00 8.1157133119251002e-04  5.8922782660869713e+00 4.5993104257304580e+00 -8.3206464444296328e-04  5.8489087426423687e+00 4.6565586112745176e+00 8.2363430963417752e-04  5.8066733867340279e+00 4.7111450512704360e+00 -8.1624682644132658e-04  5.7636698195722564e+00 4.7683394494177982e+00 7.9788894480460257e-04  5.7214310188347781e+00 4.8230991081067485e+00 -7.8616803334409730e-04  5.6785802317165555e+00 4.8802343937635637e+00 7.6229417806556712e-04  5.6369267156165792e+00 4.9348070597726768e+00 -7.3088380136253567e-04  5.5940377909630508e+00 4.9921344361148989e+00 7.0881112079546624e-04  5.5523895617040226e+00 5.0469671861226590e+00 -6.9432795741508635e-04  5.5103531299717332e+00 5.1035997545806948e+00 6.7794180469789127e-04  5.4685613577849219e+00 5.1589677990412950e+00 -6.3367643509365859e-04  5.4264497918703452e+00 5.2159996458775630e+00 6.0598450577565210e-04  5.3856609911682085e+00 5.2704017657600790e+00 -5.7355223857464199e-04  5.3434260989664182e+00 5.3279528458499046e+00 5.6857647079596547e-04  5.3023502117574814e+00 5.3831744725016364e+00 -5.2501154669615214e-04  5.2614659300563051e+00 5.4392471018540531e+00 4.8610257627422580e-04  5.2199309523401514e+00 5.4953807953568585e+00 -4.2860546421950001e-04  5.1791557923463998e+00 5.551842