<?xml version="1.0"?>
<VTKFile type="UnstructuredGrid"  version="0.1"  >
<UnstructuredGrid>
<Piece  NumberOfPoints="8241" NumberOfCells="16000">
<Points>
<DataArray  type="Float64"  NumberOfComponents="3"  format="ascii">-5 -1 0  -4.95 -1 0  -4.9 -1 0  -4.85 -1 0  -4.8 -1 0  -4.75 -1 0  -4.7 -1 0  -4.65 -1 0  -4.6 -1 0  -4.55 -1 0  -4.5 -1 0  -4.45 -1 0  -4.4 -1 0  -4.35 -1 0  -4.3 -1 0  -4.25 -1 0  -4.2 -1 0  -4.15 -1 0  -4.1 -1 0  -4.05 -1 0  -4 -1 0  -3.95 -1 0  -3.9 -1 0  -3.85 -1 0  -3.8 -1 0  -3.75 -1 0  -3.7 -1 0  -3.65 -1 0  -3.6 -1 0  -3.55 -1 0  -3.5 -1 0  -3.45 -1 0  -3.4 -1 0  -3.35 -1 0  -3.3 -1 0  -3.25 -1 0  -3.2 -1 0  -3.15 -1 0  -3.1 -1 0  -3.05 -1 0  -3 -1 0  -2.95 -1 0  -2.9 -1 0  -2.85 -1 0  -2.8 -1 0  -2.75 -1 0  -2.7 -1 0  -2.65 -1 0  -2.6 -1 0  -2.55 -1 0  -2.5 -1 0  -2.45 -1 0  -2.4 -1 0  -2.35 -1 0  -2.3 -1 0  -2.25 -1 0  -2.2 -1 0  -2.15 -1 0  -2.1 -1 0  -2.05 -1 0  -2 -1 0  -1.95 -1 0  -1.9 -1 0  -1.85 -1 0  -1.8 -1 0  -1.75 -1 0  -1.7 -1 0  -1.65 -1 0  -1.6 -1 0  -1.55 -1 0  -1.5 -1 0  -1.45 -1 0  -1.4 -1 0  -1.35 -1 0  -1.3 -1 0  -1.25 -1 0  -1.2 -1 0  -1.15 -1 0  -1.1 -1 0  -1.05 -1 0  -1 -1 0  -0.9500000000000002 -1 0  -0.9000000000000004 -1 0  -0.8499999999999996 -1 0  -0.7999999999999998 -1 0  -0.75 -1 0  -0.7000000000000002 -1 0  -0.6500000000000004 -1 0  -0.5999999999999996 -1 0  -0.5499999999999998 -1 0  -0.5 -1 0  -0.4500000000000002 -1 0  -0.4000000000000004 -1 0  -0.3499999999999996 -1 0  -0.2999999999999998 -1 0  -0.25 -1 0  -0.2000000000000002 -1 0  -0.1500000000000004 -1 0  -0.09999999999999964 -1 0  -0.04999999999999982 -1 0  0 -1 0  0.04999999999999982 -1 0  0.09999999999999964 -1 0  0.1500000000000004 -1 0  0.2000000000000002 -1 0  0.25 -1 0  0.2999999999999998 -1 0  0.3499999999999996 -1 0  0.4000000000000004 -1 0  0.4500000000000002 -1 0  0.5 -1 0  0.5499999999999998 -1 0  0.5999999999999996 -1 0  0.6500000000000004 -1 0  0.7000000000000002 -1 0  0.75 -1 0  0.7999999999999998 -1 0  0.8499999999999996 -1 0  0.9000000000000004 -1 0  0.9500000000000002 -1 0  1 -1 0  1.05 -1 0  1.1 -1 0  1.15 -1 0  1.2 -1 0  1.25 -1 0  1.3 -1 0  1.35 -1 0  1.4 -1 0  1.45 -1 0  1.5 -1 0  1.55 -1 0  1.6 -1 0  1.65 -1 0  1.7 -1 0  1.75 -1 0  1.8 -1 0  1.85 -1 0  1.9 -1 0  1.95 -1 0  2 -1 0  2.05 -1 0  2.1 -1 0  2.15 -1 0  2.2 -1 0  2.25 -1 0  2.3 -1 0  2.35 -1 0  2.4 -1 0  2.45 -1 0  2.5 -1 0  2.55 -1 0  2.6 -1 0  2.65 -1 0  2.7 -1 0  2.75 -1 0  2.8 -1 0  2.85 -1 0  2.9 -1 0  2.95 -1 0  3 -1 0  3.050000000000001 -1 0  3.1 -1 0  3.15 -1 0  3.199999999999999 -1 0  3.25 -1 0  3.300000000000001 -1 0  3.35 -1 0  3.4 -1 0  3.449999999999999 -1 0  3.5 -1 0  3.550000000000001 -1 0  3.6 -1 0  3.65 -1 0  3.699999999999999 -1 0  3.75 -1 0  3.800000000000001 -1 0  3.85 -1 0  3.9 -1 0  3.949999999999999 -1 0  4 -1 0  4.050000000000001 -1 0  4.1 -1 0  4.15 -1 0  4.199999999999999 -1 0  4.25 -1 0  4.300000000000001 -1 0  4.35 -1 0  4.4 -1 0  4.449999999999999 -1 0  4.5 -1 0  4.550000000000001 -1 0  4.6 -1 0  4.65 -1 0  4.699999999999999 -1 0  4.75 -1 0  4.800000000000001 -1 0  4.85 -1 0  4.9 -1 0  4.949999999999999 -1 0  5 -1 0  -5 -0.95 0  -4.95 -0.95 0  -4.9 -0.95 0  -4.85 -0.95 0  -4.8 -0.95 0  -4.75 -0.95 0  -4.7 -0.95 0  -4.65 -0.95 0  -4.6 -0.95 0  -4.55 -0.95 0  -4.5 -0.95 0  -4.45 -0.95 0  -4.4 -0.95 0  -4.35 -0.95 0  -4.3 -0.95 0  -4.25 -0.95 0  -4.2 -0.95 0  -4.15 -0.95 0  -4.1 -0.95 0  -4.05 -0.95 0  -4 -0.95 0  -3.95 -0.95 0  -3.9 -0.95 0  -3.85 -0.95 0  -3.8 -0.95 0  -3.75 -0.95 0  -3.7 -0.95 0  -3.65 -0.95 0  -3.6 -0.95 0  -3.55 -0.95 0  -3.5 -0.95 0  -3.45 -0.95 0  -3.4 -0.95 0  -3.35 -0.95 0  -3.3 -0.95 0  -3.25 -0.95 0  -3.2 -0.95 0  -3.15 -0.95 0  -3.1 -0.95 0  -3.05 -0.95 0  -3 -0.95 0  -2.95 -0.95 0  -2.9 -0.95 0  -2.85 -0.95 0  -2.8 -0.95 0  -2.75 -0.95 0  -2.7 -0.95 0  -2.65 -0.95 0  -2.6 -0.95 0  -2.55 -0.95 0  -2.5 -0.95 0  -2.45 -0.95 0  -2.4 -0.95 0  -2.35 -0.95 0  -2.3 -0.95 0  -2.25 -0.95 0  -2.2 -0.95 0  -2.15 -0.95 0  -2.1 -0.95 0  -2.05 -0.95 0  -2 -0.95 0  -1.95 -0.95 0  -1.9 -0.95 0  -1.85 -0.95 0  -1.8 -0.95 0  -1.75 -0.95 0  -1.7 -0.95 0  -1.65 -0.95 0  -1.6 -0.95 0  -1.55 -0.95 0  -1.5 -0.95 0  -1.45 -0.95 0  -1.4 -0.95 0  -1.35 -0.95 0  -1.3 -0.95 0  -1.25 -0.95 0  -1.2 -0.95 0  -1.15 -0.95 0  -1.1 -0.95 0  -1.05 -0.95 0  -1 -0.95 0  -0.9500000000000002 -0.95 0  -0.9000000000000004 -0.95 0  -0.8499999999999996 -0.95 0  -0.7999999999999998 -0.95 0  -0.75 -0.95 0  -0.7000000000000002 -0.95 0  -0.6500000000000004 -0.95 0  -0.5999999999999996 -0.95 0  -0.5499999999999998 -0.95 0  -0.5 -0.95 0  -0.4500000000000002 -0.95 0  -0.4000000000000004 -0.95 0  -0.3499999999999996 -0.95 0  -0.2999999999999998 -0.95 0  -0.25 -0.95 0  -0.2000000000000002 -0.95 0  -0.1500000000000004 -0.95 0  -0.09999999999999964 -0.95 0  -0.04999999999999982 -0.95 0  0 -0.95 0  0.04999999999999982 -0.95 0  0.09999999999999964 -0.95 0  0.1500000000000004 -0.95 0  0.2000000000000002 -0.95 0  0.25 -0.95 0  0.2999999999999998 -0.95 0  0.3499999999999996 -0.95 0  0.4000000000000004 -0.95 0  0.4500000000000002 -0.95 0  0.5 -0.95 0  0.5499999999999998 -0.95 0  0.5999999999999996 -0.95 0  0.6500000000000004 -0.95 0  0.7000000000000002 -0.95 0  0.75 -0.95 0  0.7999999999999998 -0.95 0  0.8499999999999996 -0.95 0  0.9000000000000004 -0.95 0  0.9500000000000002 -0.95 0  1 -0.95 0  1.05 -0.95 0  1.1 -0.95 0  1.15 -0.95 0  1.2 -0.95 0  1.25 -0.95 0  1.3 -0.95 0  1.35 -0.95 0  1.4 -0.95 0  1.45 -0.95 0  1.5 -0.95 0  1.55 -0.95 0  1.6 -0.95 0  1.65 -0.95 0  1.7 -0.95 0  1.75 -0.95 0  1.8 -0.95 0  1.85 -0.95 0  1.9 -0.95 0  1.95 -0.95 0  2 -0.95 0  2.05 -0.95 0  2.1 -0.95 0  2.15 -0.95 0  2.2 -0.95 0  2.25 -0.95 0  2.3 -0.95 0  2.35 -0.95 0  2.4 -0.95 0  2.45 -0.95 0  2.5 -0.95 0  2.55 -0.95 0  2.6 -0.95 0  2.65 -0.95 0  2.7 -0.95 0  2.75 -0.95 0  2.8 -0.95 0  2.85 -0.95 0  2.9 -0.95 0  2.95 -0.95 0  3 -0.95 0  3.050000000000001 -0.95 0  3.1 -0.95 0  3.15 -0.95 0  3.199999999999999 -0.95 0  3.25 -0.95 0  3.300000000000001 -0.95 0  3.35 -0.95 0  3.4 -0.95 0  3.449999999999999 -0.95 0  3.5 -0.95 0  3.550000000000001 -0.95 0  3.6 -0.95 0  3.65 -0.95 0  3.699999999999999 -0.95 0  3.75 -0.95 0  3.800000000000001 -0.95 0  3.85 -0.95 0  3.9 -0.95 0  3.949999999999999 -0.95 0  4 -0.95 0  4.050000000000001 -0.95 0  4.1 -0.95 0  4.15 -0.95 0  4.199999999999999 -0.95 0  4.25 -0.95 0  4.300000000000001 -0.95 0  4.35 -0.95 0  4.4 -0.95 0  4.449999999999999 -0.95 0  4.5 -0.95 0  4.550000000000001 -0.95 0  4.6 -0.95 0  4.65 -0.95 0  4.699999999999999 -0.95 0  4.75 -0.95 0  4.800000000000001 -0.95 0  4.85 -0.95 0  4.9 -0.95 0  4.949999999999999 -0.95 0  5 -0.95 0  -5 -0.9 0  -4.95 -0.9 0  -4.9 -0.9 0  -4.85 -0.9 0  -4.8 -0.9 0  -4.75 -0.9 0  -4.7 -0.9 0  -4.65 -0.9 0  -4.6 -0.9 0  -4.55 -0.9 0  -4.5 -0.9 0  -4.45 -0.9 0  -4.4 -0.9 0  -4.35 -0.9 0  -4.3 -0.9 0  -4.25 -0.9 0  -4.2 -0.9 0  -4.15 -0.9 0  -4.1 -0.9 0  -4.05 -0.9 0  -4 -0.9 0  -3.95 -0.9 0  -3.9 -0.9 0  -3.85 -0.9 0  -3.8 -0.9 0  -3.75 -0.9 0  -3.7 -0.9 0  -3.65 -0.9 0  -3.6 -0.9 0  -3.55 -0.9 0  -3.5 -0.9 0  -3.45 -0.9 0  -3.4 -0.9 0  -3.35 -0.9 0  -3.3 -0.9 0  -3.25 -0.9 0  -3.2 -0.9 0  -3.15 -0.9 0  -3.1 -0.9 0  -3.05 -0.9 0  -3 -0.9 0  -2.95 -0.9 0  -2.9 -0.9 0  -2.85 -0.9 0  -2.8 -0.9 0  -2.75 -0.9 0  -2.7 -0.9 0  -2.65 -0.9 0  -2.6 -0.9 0  -2.55 -0.9 0  -2.5 -0.9 0  -2.45 -0.9 0  -2.4 -0.9 0  -2.35 -0.9 0  -2.3 -0.9 0  -2.25 -0.9 0  -2.2 -0.9 0  -2.15 -0.9 0  -2.1 -0.9 0  -2.05 -0.9 0  -2 -0.9 0  -1.95 -0.9 0  -1.9 -0.9 0  -1.85 -0.9 0  -1.8 -0.9 0  -1.75 -0.9 0  -1.7 -0.9 0  -1.65 -0.9 0  -1.6 -0.9 0  -1.55 -0.9 0  -1.5 -0.9 0  -1.45 -0.9 0  -1.4 -0.9 0  -1.35 -0.9 0  -1.3 -0.9 0  -1.25 -0.9 0  -1.2 -0.9 0  -1.15 -0.9 0  -1.1 -0.9 0  -1.05 -0.9 0  -1 -0.9 0  -0.9500000000000002 -0.9 0  -0.9000000000000004 -0.9 0  -0.8499999999999996 -0.9 0  -0.7999999999999998 -0.9 0  -0.75 -0.9 0  -0.7000000000000002 -0.9 0  -0.6500000000000004 -0.9 0  -0.5999999999999996 -0.9 0  -0.5499999999999998 -0.9 0  -0.5 -0.9 0  -0.4500000000000002 -0.9 0  -0.4000000000000004 -0.9 0  -0.3499999999999996 -0.9 0  -0.2999999999999998 -0.9 0  -0.25 -0.9 0  -0.2000000000000002 -0.9 0  -0.1500000000000004 -0.9 0  -0.09999999999999964 -0.9 0  -0.04999999999999982 -0.9 0  0 -0.9 0  0.04999999999999982 -0.9 0  0.09999999999999964 -0.9 0  0.1500000000000004 -0.9 0  0.2000000000000002 -0.9 0  0.25 -0.9 0  0.2999999999999998 -0.9 0  0.3499999999999996 -0.9 0  0.4000000000000004 -0.9 0  0.4500000000000002 -0.9 0  0.5 -0.9 0  0.5499999999999998 -0.9 0  0.5999999999999996 -0.9 0  0.6500000000000004 -0.9 0  0.7000000000000002 -0.9 0  0.75 -0.9 0  0.7999999999999998 -0.9 0  0.8499999999999996 -0.9 0  0.9000000000000004 -0.9 0  0.9500000000000002 -0.9 0  1 -0.9 0  1.05 -0.9 0  1.1 -0.9 0  1.15 -0.9 0  1.2 -0.9 0  1.25 -0.9 0  1.3 -0.9 0  1.35 -0.9 0  1.4 -0.9 0  1.45 -0.9 0  1.5 -0.9 0  1.55 -0.9 0  1.6 -0.9 0  1.65 -0.9 0  1.7 -0.9 0  1.75 -0.9 0  1.8 -0.9 0  1.85 -0.9 0  1.9 -0.9 0  1.95 -0.9 0  2 -0.9 0  2.05 -0.9 0  2.1 -0.9 0  2.15 -0.9 0  2.2 -0.9 0  2.25 -0.9 0  2.3 -0.9 0  2.35 -0.9 0  2.4 -0.9 0  2.45 -0.9 0  2.5 -0.9 0  2.55 -0.9 0  2.6 -0.9 0  2.65 -0.9 0  2.7 -0.9 0  2.75 -0.9 0  2.8 -0.9 0  2.85 -0.9 0  2.9 -0.9 0  2.95 -0.9 0  3 -0.9 0  3.050000000000001 -0.9 0  3.1 -0.9 0  3.15 -0.9 0  3.199999999999999 -0.9 0  3.25 -0.9 0  3.300000000000001 -0.9 0  3.35 -0.9 0  3.4 -0.9 0  3.449999999999999 -0.9 0  3.5 -0.9 0  3.550000000000001 -0.9 0  3.6 -0.9 0  3.65 -0.9 0  3.699999999999999 -0.9 0  3.75 -0.9 0  3.800000000000001 -0.9 0  3.85 -0.9 0  3.9 -0.9 0  3.949999999999999 -0.9 0  4 -0.9 0  4.050000000000001 -0.9 0  4.1 -0.9 0  4.15 -0.9 0  4.199999999999999 -0.9 0  4.25 -0.9 0  4.300000000000001 -0.9 0  4.35 -0.9 0  4.4 -0.9 0  4.449999999999999 -0.9 0  4.5 -0.9 0  4.550000000000001 -0.9 0  4.6 -0.9 0  4.65 -0.9 0  4.699999999999999 -0.9 0  4.75 -0.9 0  4.800000000000001 -0.9 0  4.85 -0.9 0  4.9 -0.9 0  4.949999999999999 -0.9 0  5 -0.9 0  -5 -0.85 0  -4.95 -0.85 0  -4.9 -0.85 0  -4.85 -0.85 0  -4.8 -0.85 0  -4.75 -0.85 0  -4.7 -0.85 0  -4.65 -0.85 0  -4.6 -0.85 0  -4.55 -0.85 0  -4.5 -0.85 0  -
[...]
<PointData  Vectors="f_15"> 
<DataArray  type="Float64"  Name="f_15"  NumberOfComponents="3" format="ascii">2.8210159416414453e+00 0.0000000000000000e+00 0.0000000000000000e+00  2.8204547976115419e+00 3.6684887450171379e-02 0.0000000000000000e+00  2.8187411448421624e+00 7.3305557954485928e-02 0.0000000000000000e+00  2.8159115920566729e+00 1.0974363401418134e-01 0.0000000000000000e+00  2.8119635680331898e+00 1.4595786293364835e-01 0.0000000000000000e+00  2.8069362434596279e+00 1.8186323654490560e-01 0.0000000000000000e+00  2.8008377737448504e+00 2.1741496237483462e-01 0.0000000000000000e+00  2.7937366581096899e+00 2.5256526366943088e-01 0.0000000000000000e+00  2.7856375917280034e+00 2.8728931641427935e-01 0.0000000000000000e+00  2.7766268710665645e+00 3.2157113248151875e-01 0.0000000000000000e+00  2.7667299769888141e+00 3.5540522142759129e-01 0.0000000000000000e+00  2.7560311511672295e+00 3.8881990649000964e-01 0.0000000000000000e+00  2.7445673423277195e+00 4.2181618021126444e-01 0.0000000000000000e+00  2.7324398088815482e+00 4.5445594537174927e-01 0.0000000000000000e+00  2.7196733406172959e+00 4.8675831768322614e-01 0.0000000000000000e+00  2.7063774580728626e+00 5.1879234908308269e-01 0.0000000000000000e+00  2.6925823988657038e+00 5.5058299584165005e-01 0.0000000000000000e+00  2.6783779167753234e+00 5.8222050915100720e-01 0.0000000000000000e+00  2.6637973398110426e+00 6.1369971201650841e-01 0.0000000000000000e+00  2.6489266879872537e+00 6.4512719332157575e-01 0.0000000000000000e+00  2.6337747533031637e+00 6.7648720106530991e-01 0.0000000000000000e+00  2.6184288045673463e+00 7.0786427767082427e-01 0.0000000000000000e+00  2.6028900523200940e+00 7.3923468709936846e-01 0.0000000000000000e+00  2.5872192215063499e+00 7.7069417888225311e-01 0.0000000000000000e+00  2.5714239037902460e+00 8.0216264574313656e-01 0.0000000000000000e+00  2.5555534101377644e+00 8.3376451454900291e-01 0.0000000000000000e+00  2.5395946540095382e+00 8.6540085508050357e-01 0.0000000000000000e+00  2.5236045455548561e+00 8.9717129022125608e-01 0.0000000000000000e+00  2.5075633708281360e+00 9.2897968756844096e-01 0.0000000000000000e+00  2.4915059994654900e+00 9.6094764973625302e-01 0.0000000000000000e+00  2.4754298169222881e+00 9.9291485215038944e-01 0.0000000000000000e+00  2.4593586359900756e+00 1.0250528263650718e+00 0.0000000000000000e+00  2.4432758679484774e+00 1.0571879071083772e+00 0.0000000000000000e+00  2.4272195758450446e+00 1.0894648910239226e+00 0.0000000000000000e+00  2.4111685691867062e+00 1.1217241361578345e+00 0.0000000000000000e+00  2.3951433850410173e+00 1.1541456307083937e+00 0.0000000000000000e+00  2.3791425183989823e+00 1.1864916089134554e+00 0.0000000000000000e+00  2.3631791894661638e+00 1.2190031531971199e+00 0.0000000000000000e+00  2.3472387996495123e+00 1.2514555893645165e+00 0.0000000000000000e+00  2.3313506980346244e+00 1.2839983413076774e+00 0.0000000000000000e+00  2.3154965427307799e+00 1.3165235371663069e+00 0.0000000000000000e+00  2.2996930621089735e+00 1.3490981243543232e+00 0.0000000000000000e+00  2.2839345779855420e+00 1.3816572313404702e+00 0.0000000000000000e+00  2.2682400589888716e+00 1.4142099907935806e+00 0.0000000000000000e+00  2.2525857696031317e+00 1.4468154284746835e+00 0.0000000000000000e+00  2.2370095230644518e+00 1.4793153373313299e+00 0.0000000000000000e+00  2.2214819287227034e+00 1.5118791279626900e+00 0.0000000000000000e+00  2.2060340583523406e+00 1.5443765215750300e+00 0.0000000000000000e+00  2.1906438266413777e+00 1.5768444204270693e+00 0.0000000000000000e+00  2.1753452417025616e+00 1.6092364009637135e+00 0.0000000000000000e+00  2.1601084345076518e+00 1.6416772880545687e+00 0.0000000000000000e+00  2.1449685010306263e+00 1.6738895941205219e+00 0.0000000000000000e+00  2.1299113772879901e+00 1.7061944554580708e+00 0.0000000000000000e+00  2.1149509989008819e+00 1.7382789977542197e+00 0.0000000000000000e+00  2.1000857849274084e+00 1.7703653830615085e+00 0.0000000000000000e+00  2.0853404296598939e+00 1.8022135927573331e+00 0.0000000000000000e+00  2.0706969833393778e+00 1.8340748752106228e+00 0.0000000000000000e+00  2.0561873220649001e+00 1.8656023782565601e+00 0.0000000000000000e+00  2.0418168862539607e+00 1.8970988450835462e+00 0.0000000000000000e+00  2.0275895501515930e+00 1.9282591948759267e+00 0.0000000000000000e+00  2.0135333717311794e+00 1.9592375506367381e+00 0.0000000000000000e+00  1.9996646378041225e+00 1.9898474521861089e+00 0.0000000000000000e+00  1.9860043443462445e+00 2.0201784419294473e+00 0.0000000000000000e+00  1.9725814183860428e+00 2.0499831547500915e+00 0.0000000000000000e+00  1.9594438948674224e+00 2.0793511873997876e+00 0.0000000000000000e+00  1.9466248752227608e+00 2.1080312823944136e+00 0.0000000000000000e+00  1.9341983734435901e+00 2.1359652397637490e+00 0.0000000000000000e+00  1.9222229031911398e+00 2.1629490907034046e+00 0.0000000000000000e+00  1.9108204949461916e+00 2.1887329988605013e+00 0.0000000000000000e+00  1.9000828300552177e+00 2.2130702034908576e+00 0.0000000000000000e+00  1.8901678078566539e+00 2.2356164375944179e+00 0.0000000000000000e+00  1.8812513968302689e+00 2.2559412043867759e+00 0.0000000000000000e+00  1.8734914467955774e+00 2.2736538111662190e+00 0.0000000000000000e+00  1.8670288337316305e+00 2.2884478876034238e+00 0.0000000000000000e+00  1.8619843444823789e+00 2.2999904812431291e+00 0.0000000000000000e+00  1.8582881646463110e+00 2.3084834211687304e+00 0.0000000000000000e+00  1.8557792840609733e+00 2.3142076201872350e+00 0.0000000000000000e+00  1.8542239362557329e+00 2.3178103587870700e+00 0.0000000000000000e+00  1.8532546758379937e+00 2.3199871960803544e+00 0.0000000000000000e+00  1.8526432320236348e+00 2.3214396057450757e+00 0.0000000000000000e+00  1.8522129052494687e+00 2.3223603199682521e+00 0.0000000000000000e+00  1.8518701184537667e+00 2.3232159846249911e+00 0.0000000000000000e+00  1.8515440995582642e+00 2.3238693702351880e+00 0.0000000000000000e+00  1.8512831361019695e+00 2.3245531686104877e+00 0.0000000000000000e+00  1.8510003503743757e+00 2.3251026735740186e+00 0.0000000000000000e+00  1.8507643431342851e+00 2.3257297739617173e+00 0.0000000000000000e+00  1.8505229292171324e+00 2.3261783068139219e+00 0.0000000000000000e+00  1.8503313553912124e+00 2.3267111694212281e+00 0.0000000000000000e+00  1.8501141053888572e+00 2.3270957183289771e+00 0.0000000000000000e+00  1.8499562106559007e+00 2.3275482090575226e+00 0.0000000000000000e+00  1.8497716616637085e+00 2.3278682159981305e+00 0.0000000000000000e+00  1.8496324778750426e+00 2.3282653103939124e+00 0.0000000000000000e+00  1.8494753840786395e+00 2.3285205152048052e+00 0.0000000000000000e+00  1.8493757425730475e+00 2.3288336921003032e+00 0.0000000000000000e+00  1.8492396528301553e+00 2.3290383498233300e+00 0.0000000000000000e+00  1.8491548766669685e+00 2.3293093239928524e+00 0.0000000000000000e+00  1.8490512953759184e+00 2.3294540265471002e+00 0.0000000000000000e+00  1.8489787598800973e+00 2.3296863295633163e+00 0.0000000000000000e+00  1.8488862958554233e+00 2.3298010639894389e+00 0.0000000000000000e+00  1.8488439694029426e+00 2.3299766546550931e+00 0.0000000000000000e+00  1.8487601262786930e+00 2.3300676437988161e+00 0.0000000000000000e+00  1.8487212792565841e+00 2.3302263432630914e+00 0.0000000000000000e+00  1.8486644012070721e+00 2.3302661997416720e+00 0.0000000000000000e+00  1.8486280952548986e+00 2.3304149921096236e+00 0.0000000000000000e+00  1.8485679120855756e+00 2.3304526683335607e+00 0.0000000000000000e+00  1.8485591253128832e+00 2.3305531022173156e+00 0.0000000000000000e+00  1.8485017444354130e+00 2.3305793892095181e+00 0.0000000000000000e+00  1.8484885233948651e+00 2.3306800330356992e+00 0.0000000000000000e+00  1.8484472393432780e+00 2.3306775094113581e+00 0.0000000000000000e+00  1.8484348819672936e+00 2.3307758761506809e+00 0.0000000000000000e+00  1.8483928563438865e+00 2.3307667923888702e+00 0.0000000000000000e+00  1.8484008116167385e+00 2.3308273755231004e+00 0.0000000000000000e+00  1.8483504092879155e+00 2.3308372164258686e+00 0.0000000000000000e+00  1.8483538599717406e+00 2.3308949344150252e+00 0.0000000000000000e+00  1.8483200519882164e+00 2.3308744956739034e+00 0.0000000000000000e+00  1.8483267101369396e+00 2.3309256286498585e+00 0.0000000000000000e+00  1.8482888186564401e+00 2.3309139307325717e+00 0.0000000000000000e+00  1.8482918657398577e+00 2.3309690657531346e+00 0.0000000000000000e+00  1.8482662327158201e+00 2.3309347233708246e+00 0.0000000000000000e+00  1.8482706622042864e+00 2.3309784810912872e+00 0.0000000000000000e+00  1.8482409687441610e+00 2.3309487164076788e+00 0.0000000000000000e+00  1.8482460574198689e+00 2.3310020186036602e+00 0.0000000000000000e+00  1.8482221982909868e+00 2.3309549277643620e+00 0.0000000000000000e+00  1.8482253524436758e+00 2.3310083041471366e+00 0.0000000000000000e+00  1.8482022134945084e+00 2.3309629296641199e+00 0.0000000000000000e+00  1.8482152774717959e+00 2.3309896388205793e+00 0.0000000000000000e+00  1.8481677655073416e+00 2.3309858160628520e+00 0.0000000000000000e+00  1.8482084075581091e+00 2.3309581891184616e+00 0.0000000000000000e+00  1.8481603024232676e+00 2.3309667594901451e+00 0.0000000000000000e+00  1.8481753706581814e+00 2.3309812495992039e+00 0.0000000000000000e+00  1.8481452889896841e+00 2.3309621269098977e+00 0.0000000000000000e+00  1.8481792635573029e+00 2.3309240484568243e+00 0.0000000000000000e+00  1.8481131362497238e+00 2.3309784515301759e+00 0.0000000000000000e+00  1.8481602020777428e+00 2.3308907257821292e+00 0.0000000000000000e+00  1.8481182007216452e+00 2.3309117449224872e+00 0.0000000000000000e+00  1.8481308777502654e+00 2.3308746717256073e+00 0.0000000000000000e+00  1.8481047933106309e+00 2.3308898023534756e+00 0.0000000000000000e+00  1.8481225291146137e+00 2.3308278844234414e+00 0.0000000000000000e+00  1.8480899780080555e+00 2.3308668004243773e+00 0.0000000000000000e+00  1.8481015032952242e+00 2.3307914020017546e+00 0.0000000000000000e+00  1.8480866923110115e+00 2.3307815411126125e+00 0.0000000000000000e+00  1.8480777369268966e+00 2.3306970384974273e+00 0.0000000000000000e+00  1.8480805466748678e+00 2.3306192328009359e+00 0.0000000000000000e+00  1.8480593364194029e+00 2.3305125972281355e+00 0.0000000000000000e+00  1.8480662603585758e+00 2.3303728186672772e+00 0.0000000000000000e+00  1.8480491940867756e+00 2.3302060437579222e+00 0.0000000000000000e+00  1.8480501721293372e+00 2.3300292421443971e+00 0.0000000000000000e+00  1.8480304802334748e+00 2.3297978619316284e+00 0.0000000000000000e+00  1.8480443563330557e+00 2.3295258181396763e+00 0.0000000000000000e+00  1.8480107545217430e+00 2.3292787931237169e+00 0.0000000000000000e+00  1.8480276754202476e+00 2.3289340987788933e+00 0.0000000000000000e+00  1.8480010155188422e+00 2.3286446078361100e+00 0.0000000000000000e+00  1.8480101868843306e+00 2.3283140113093497e+00 0.0000000000000000e+00  1.8479854438423258e+00 2.3280318251628045e+00 0.0000000000000000e+00  1.8479924004297668e+00 2.3277335909645425e+00 0.0000000000000000e+00  1.8479747575638852e+00 2.3275021011595953e+00 0.0000000000000000e+00  1.8479738564090094e+00 2.3272746897198644e+00 0.0000000000000000e+00  1.8479519333804475e+00 2.3271087425676891e+00 0.0000000000000000e+00  1.8479654792566258e+00 2.3269213910654609e+00 0.0000000000000000e+00  1.8479331303967645e+00 2.3268382391607876e+00 0.0000000000000000e+00  1.8479375322308420e+00 2.3266990253965978e+00 0.0000000000000000e+00  1.8479247356117845e+00 2.3266392076320273e+00 0.0000000000000000e+00  1.8479194796968339e+00 2.3265480327522465e+00 0.0000000000000000e+00  1.8478952335604681e+00 2.3265293660420312e+00 0.0000000000000000e+00  1.8479066821168044e+00 2.3264395113124610e+00 0.0000000000000000e+00  1.8478847996902454e+00 2.3264418772223237e+00 0.0000000000000000e+00  1.8478750053493946e+00 2.3263808175354139e+00 0.0000000000000000e+00  1.8478719984412009e+00 2.3263857687576466e+00 0.0000000000000000e+00  1.8478665622900456e+00 2.3263034736719685e+00 0.0000000000000000e+00  1.8478454031810259e+00 2.3263442944994055e+00 0.0000000000000000e+00  1.8478449247058437e+00 2.3262637677893485e+00 0.0000000000000000e+00  1.8478518431077289e+00 2.3262654667455642e+00 0.0000000000000000e+00  1.8478140740988322e+00 2.3262315271539622e+00 0.0000000000000000e+00  1.8478398665366027e+00 2.3262456976563088e+00 0.0000000000000000e+00  1.8478172672921225e+00 2.3261425426752709e+00 0.0000000000000000e+00  1.8478187302547726e+00 2.3262333389705829e+00 0.0000000000000000e+00  1.8477859462511343e+00 2.3260924789146133e+00 0.0000000000000000e+00  1.8478383194007391e+00 2.3261589159058658e+00 0.0000000000000000e+00  1.8477279550347290e+00 2.3260235535482798e+00 0.0000000000000000e+00  1.8478327010619298e+00 2.3261418091117796e+00 0.0000000000000000e+00  1.8476982589367466e+00 2.3258516843603787e+00 0.0000000000000000e+00  1.8478171750007759e+00 2.3261830370596419e+00 0.0000000000000000e+00  1.8476140322071790e+00 2.3256218428534998e+00 0.0000000000000000e+00  1.8478923682227733e+00 2.3263002076047914e+00 0.0000000000000000e+00  1.8474361226143940e+00 2.3252669252554958e+00 0.0000000000000000e+00  1.8480083094357633e+00 2.3265471681722096e+00 0.0000000000000000e+00  1.8472694845750095e+00 2.3248711301575016e+00 0.0000000000000000e+00  1.8480989090397082e+00 2.3268346816089709e+00 0.0000000000000000e+00  1.8470203796665723e+00 2.3242575192317925e+00 0.0000000000000000e+00  1.8484552809231549e+00 2.3278304617295342e+00 0.0000000000000000e+00  1.8463475624926424e+00 2.3225518190387864e+00 0.0000000000000000e+00  1.8490783989627018e+00 2.3294873814934367e+00 0.0000000000000000e+00  1.8455709165941914e+00 2.3208184145596920e+00 0.0000000000000000e+00  1.8488553348220118e+00 2.3287268807257471e+00 0.0000000000000000e+00  1.8448511504557976e+00 2.3196189955508943e+00 0.0000000000000000e+00  1.8464740949979215e+00 2.3241326893749510e+00 0.0000000000000000e+00  1.8377227515797576e+00 2.3011501588533960e+00 0.0000000000000000e+00  1.8292615505841356e+00 2.2972745264678709e+00 0.0000000000000000e+00  1.7932941943993790e+00 2.1536352388234081e+00 0.0000000000000000e+00  1.9859394554677408e+00 1.4874176674758308e+00 0.0000000000000000e+00  2.1557805796746088e+00 0.0000000000000000e+00 0.0000000000000000e+00  2.8210211042348843e+00 0.0000000000000000e+00 -9.8279899490209738e-08  2.8204506544513519e+00 3.6693069607240045e-02 4.2874723313352833e-07  2.8187409287742642e+00 7.3299142424637573e-02 -4.0597122060990316e-06  2.8159094335663313e+00 1.0974637590428712e-01 2.1949101163612462e-06  2.8119628520584952e+00 1.4595713346314479e-01 -1.4210392090998405e-06  2.8069283420217324e+00 1.8186492743567717e-01 1.0097147518249511e-06  2.8008410696738775e+00 2.1741548431946650e-01 -4.4435352268302180e-07  2.7937271135496093e+00 2.5256861158222926e-01 8.0121039751516403e-07  2.7856371961048807e+00 2.8729185468396967e-01 -2.4397380996700697e-08  2.7766214220463930e+00 3.2157177064355541e-01 4.8039719485528112e-08  2.7667286410514369e+00 3.5541259921798490e-01 1.0652966418541071e-06  2.7560227139480076e+00 3.8881843829467716e-01 -1.0584550133730764e-06  2.7445713961270961e+00 4.2182270755970397e-01 1.5827474838204737e-06  2.7324300476480219e+00 4.5445729459109391e-01 -1.3009423633902382e-06  2.7196758826213872e+00 4.8676386571597563e-01 1.4806813890308528e-06  2.7063735953389236e+00 5.1878977456202191e-01 -1.6419333787244786e-06  2.6925832056195635e+00 5.5059511828140961e-01 1.9381925358438803e-06  2.6783736198810333e+00 5.8221252827234138e-01 -2.2720523814932359e-06  2.6638040031055255e+00 6.1371078823171565e-01 2.1161760847351465e-06  2.6489198148754434e+00 6.4512411873960529e-01 -1.9102814385350359e-06  2.6337813814697486e+00 6.7649415211920061e-01 1.3841946062656648e-06  2.6184275052250117e+00 7.0785705347647221e-01 -1.0507740294836040e-06  2.6028923042793317e+00 7.3925148658450124e-01 9.9948902290130861e-07  2.5872185554734961e+00 7.7067726365171918e-01 -8.1176229259059839e-07  2.5714303504061906e+00 8.0217913336016056e-01 9.8937556783451295e-07  2.5555474193380991e+00 8.3375532188357782e-01 -2.1356488718355139e-07  2.5396011634731646e+00 8.6540965440557271e-01 2.0945809917082742e-07  2.5236027404996477e+00 8.9715761004598804e-01 7.7533247429560473e-07  2.5075625767520564e+00 9.2900241992080768e-01 -1.3011023552243634e-07  2.4915051798132319e+00 9.6091988100529879e-01 6.3575752843229375e-07  2.4754320768132989e+00 9.9293749518028473e-01 4.1781321015866140e-07  2.4593507203440401e+00 1.0250358183243102e+00 3.3503292215240644e-07  2.4432785017184395e+00 1.0572001061394110e+00 1.6171598879245406e-07  2.4272154769771985e+00 1.0894408346245508e+00 1.3105073558049624e-06  2.4111636814571353e+00 1.1217553132006586e+00 -1.5171184103342431e-06  2.3951400198741535e+00 1.1541026832162118e+00 3.4427006260471044e-06  2.3791417254596539e+00 1.1865184995718525e+00 -4.8311174733364986e-06  2.3631686559965006e+00 1.2189817907270599e+00 9.6796179737001527e-06  2.3472394191775989e+00 1.2514509179569127e+00 -1.7157263169643001e-05  2.3313430540674367e+00 1.2839920132009155e+00 2.9568644769335581e-05  2.3154932961770984e+00 1.3165098178434791e+00 -4.3287398732812780e-05  2.2996834507948321e+00 1.3491002457360597e+00 5.6716280088563945e-05  2.2839377792931170e+00 1.3816046389975662e+00 -6.5452000067967844e-05  2.2682240329068897e+00 1.4142622362585824e+00 6.8425659347323359e-05  2.2525895352061429e+00 1.4467190341833507e+00 -6.3720083396564400e-05  2.2369974928254548e+00 1.4793574907133835e+00 5.2447510534000601e-05  2.2214807112048063e+00 1.5118317847581124e+00 -3.6212079953049787e-05  2.2060225223443339e+00 1.5443626087768170e+00 1.9878778577608741e-05  2.1906437294263905e+00 1.5768005649769721e+00 -7.9951869976854033e-06  2.1753326077866633e+00 1.6092652945296186e+00 3.6268243122166476e-06  2.1601032573571133e+00 1.6415883631877912e+00 -4.4021782397401623e-06  2.1449615020599522e+00 1.6739140535338393e+00 5.2723747785299041e-06  2.1299017644189142e+00 1.7061477540061027e+00 -2.8372131625255389e-06  2.1149404868464341e+00 1.7382716741684223e+00 -2.0673258129713081e-06  2.1000821206416496e+00 1.7703083088958715e+00 5.5714962021408738e-06  2.0853273297307959e+00 1.8022349574516778e+00 -6.7608267109217017e-06  2.0706882828513593e+00 1.8340018361301540e+00 4.9802780163338558e-06  2.0561838253373121e+00 1.8656095867737303e+00 -2.5770105742839437e-06  2.0418038717255387e+00 1.8970574887232867e+00 5.5303626070489052e-07  2.0275819213320569e+00 1.9282391938155852e+00 -1.3954273834040020e-06  2.0135269994308564e+00 1.9592049085761034e+00 2.6601785556760443e-06  1.9996544065366550e+00 1.9898535155608907e+00 -2.0720769437264624e-06  1.9859926306583859e+00 2.0201297731153089e+00 -1.4258087001076208e-06  1.9725751498078159e+00 2.0499877471529073e+00 2.9200325030564533e-06  1.9594317881827576e+00 2.0793330269922472e+00 -3.0803580300644005e-06  1.9466140817165127e+00 2.1080266507251468e+00 2.9768093725005903e-06  1.9341806016616487e+00 2.1359738444258509e+00 -5.2699768455899365e-06  1.9222113215992973e+00 2.1629506331899471e+00 5.7493007962496995e-06  1.9107992324035028e+00 2.1887478069618957e+00 -7.3378131891069300e-06  1.9000575076852593e+00 2.2131127382163625e+00 6.8531182317955963e-06  1.8901552201306173e+00 2.2356234025509334e+00 -6.9280408365639180e-06  1.8812311432092561e+00 2.2559628478050198e+00 6.1804499173188552e-06  1.8734637906038780e+00 2.2737052084432330e+00 -3.8246358059127627e-06  1.8670270206973127e+00 2.2884420137987784e+00 9.8586379684053811e-06  1.8619784328726006e+00 2.3000092194538211e+00 -3.3594046929126310e-06  1.8582836564671827e+00 2.3084850513803787e+00 1.1203986093579742e-05  1.8558155408566928e+00 2.3141513905670283e+00 -5.7763661533647220e-06  1.8542415678773745e+00 2.3177604986424241e+00 7.4009234122539163e-06  1.8532733690579082e+00 2.3199791544540944e+00 -1.2582689817997082e-05  1.8526638141211276e+00 2.3213700135693278e+00 7.3466932543720734e-06  1.8522206227763229e+00 2.3223808614021353e+00 -1.5743591775538926e-05  1.8518491596023410e+00 2.3232202165025240e+00 1.2997766607140098e-05  1.8515508615935292e+00 2.3238978630978044e+