<?xml version="1.0"?>
<VTKFile type="UnstructuredGrid"  version="0.1"  >
<UnstructuredGrid>
<Piece  NumberOfPoints="8241" NumberOfCells="16000">
<Points>
<DataArray  type="Float64"  NumberOfComponents="3"  format="ascii">-5 -1 0  -4.95 -1 0  -4.9 -1 0  -4.85 -1 0  -4.8 -1 0  -4.75 -1 0  -4.7 -1 0  -4.65 -1 0  -4.6 -1 0  -4.55 -1 0  -4.5 -1 0  -4.45 -1 0  -4.4 -1 0  -4.35 -1 0  -4.3 -1 0  -4.25 -1 0  -4.2 -1 0  -4.15 -1 0  -4.1 -1 0  -4.05 -1 0  -4 -1 0  -3.95 -1 0  -3.9 -1 0  -3.85 -1 0  -3.8 -1 0  -3.75 -1 0  -3.7 -1 0  -3.65 -1 0  -3.6 -1 0  -3.55 -1 0  -3.5 -1 0  -3.45 -1 0  -3.4 -1 0  -3.35 -1 0  -3.3 -1 0  -3.25 -1 0  -3.2 -1 0  -3.15 -1 0  -3.1 -1 0  -3.05 -1 0  -3 -1 0  -2.95 -1 0  -2.9 -1 0  -2.85 -1 0  -2.8 -1 0  -2.75 -1 0  -2.7 -1 0  -2.65 -1 0  -2.6 -1 0  -2.55 -1 0  -2.5 -1 0  -2.45 -1 0  -2.4 -1 0  -2.35 -1 0  -2.3 -1 0  -2.25 -1 0  -2.2 -1 0  -2.15 -1 0  -2.1 -1 0  -2.05 -1 0  -2 -1 0  -1.95 -1 0  -1.9 -1 0  -1.85 -1 0  -1.8 -1 0  -1.75 -1 0  -1.7 -1 0  -1.65 -1 0  -1.6 -1 0  -1.55 -1 0  -1.5 -1 0  -1.45 -1 0  -1.4 -1 0  -1.35 -1 0  -1.3 -1 0  -1.25 -1 0  -1.2 -1 0  -1.15 -1 0  -1.1 -1 0  -1.05 -1 0  -1 -1 0  -0.9500000000000002 -1 0  -0.9000000000000004 -1 0  -0.8499999999999996 -1 0  -0.7999999999999998 -1 0  -0.75 -1 0  -0.7000000000000002 -1 0  -0.6500000000000004 -1 0  -0.5999999999999996 -1 0  -0.5499999999999998 -1 0  -0.5 -1 0  -0.4500000000000002 -1 0  -0.4000000000000004 -1 0  -0.3499999999999996 -1 0  -0.2999999999999998 -1 0  -0.25 -1 0  -0.2000000000000002 -1 0  -0.1500000000000004 -1 0  -0.09999999999999964 -1 0  -0.04999999999999982 -1 0  0 -1 0  0.04999999999999982 -1 0  0.09999999999999964 -1 0  0.1500000000000004 -1 0  0.2000000000000002 -1 0  0.25 -1 0  0.2999999999999998 -1 0  0.3499999999999996 -1 0  0.4000000000000004 -1 0  0.4500000000000002 -1 0  0.5 -1 0  0.5499999999999998 -1 0  0.5999999999999996 -1 0  0.6500000000000004 -1 0  0.7000000000000002 -1 0  0.75 -1 0  0.7999999999999998 -1 0  0.8499999999999996 -1 0  0.9000000000000004 -1 0  0.9500000000000002 -1 0  1 -1 0  1.05 -1 0  1.1 -1 0  1.15 -1 0  1.2 -1 0  1.25 -1 0  1.3 -1 0  1.35 -1 0  1.4 -1 0  1.45 -1 0  1.5 -1 0  1.55 -1 0  1.6 -1 0  1.65 -1 0  1.7 -1 0  1.75 -1 0  1.8 -1 0  1.85 -1 0  1.9 -1 0  1.95 -1 0  2 -1 0  2.05 -1 0  2.1 -1 0  2.15 -1 0  2.2 -1 0  2.25 -1 0  2.3 -1 0  2.35 -1 0  2.4 -1 0  2.45 -1 0  2.5 -1 0  2.55 -1 0  2.6 -1 0  2.65 -1 0  2.7 -1 0  2.75 -1 0  2.8 -1 0  2.85 -1 0  2.9 -1 0  2.95 -1 0  3 -1 0  3.050000000000001 -1 0  3.1 -1 0  3.15 -1 0  3.199999999999999 -1 0  3.25 -1 0  3.300000000000001 -1 0  3.35 -1 0  3.4 -1 0  3.449999999999999 -1 0  3.5 -1 0  3.550000000000001 -1 0  3.6 -1 0  3.65 -1 0  3.699999999999999 -1 0  3.75 -1 0  3.800000000000001 -1 0  3.85 -1 0  3.9 -1 0  3.949999999999999 -1 0  4 -1 0  4.050000000000001 -1 0  4.1 -1 0  4.15 -1 0  4.199999999999999 -1 0  4.25 -1 0  4.300000000000001 -1 0  4.35 -1 0  4.4 -1 0  4.449999999999999 -1 0  4.5 -1 0  4.550000000000001 -1 0  4.6 -1 0  4.65 -1 0  4.699999999999999 -1 0  4.75 -1 0  4.800000000000001 -1 0  4.85 -1 0  4.9 -1 0  4.949999999999999 -1 0  5 -1 0  -5 -0.95 0  -4.95 -0.95 0  -4.9 -0.95 0  -4.85 -0.95 0  -4.8 -0.95 0  -4.75 -0.95 0  -4.7 -0.95 0  -4.65 -0.95 0  -4.6 -0.95 0  -4.55 -0.95 0  -4.5 -0.95 0  -4.45 -0.95 0  -4.4 -0.95 0  -4.35 -0.95 0  -4.3 -0.95 0  -4.25 -0.95 0  -4.2 -0.95 0  -4.15 -0.95 0  -4.1 -0.95 0  -4.05 -0.95 0  -4 -0.95 0  -3.95 -0.95 0  -3.9 -0.95 0  -3.85 -0.95 0  -3.8 -0.95 0  -3.75 -0.95 0  -3.7 -0.95 0  -3.65 -0.95 0  -3.6 -0.95 0  -3.55 -0.95 0  -3.5 -0.95 0  -3.45 -0.95 0  -3.4 -0.95 0  -3.35 -0.95 0  -3.3 -0.95 0  -3.25 -0.95 0  -3.2 -0.95 0  -3.15 -0.95 0  -3.1 -0.95 0  -3.05 -0.95 0  -3 -0.95 0  -2.95 -0.95 0  -2.9 -0.95 0  -2.85 -0.95 0  -2.8 -0.95 0  -2.75 -0.95 0  -2.7 -0.95 0  -2.65 -0.95 0  -2.6 -0.95 0  -2.55 -0.95 0  -2.5 -0.95 0  -2.45 -0.95 0  -2.4 -0.95 0  -2.35 -0.95 0  -2.3 -0.95 0  -2.25 -0.95 0  -2.2 -0.95 0  -2.15 -0.95 0  -2.1 -0.95 0  -2.05 -0.95 0  -2 -0.95 0  -1.95 -0.95 0  -1.9 -0.95 0  -1.85 -0.95 0  -1.8 -0.95 0  -1.75 -0.95 0  -1.7 -0.95 0  -1.65 -0.95 0  -1.6 -0.95 0  -1.55 -0.95 0  -1.5 -0.95 0  -1.45 -0.95 0  -1.4 -0.95 0  -1.35 -0.95 0  -1.3 -0.95 0  -1.25 -0.95 0  -1.2 -0.95 0  -1.15 -0.95 0  -1.1 -0.95 0  -1.05 -0.95 0  -1 -0.95 0  -0.9500000000000002 -0.95 0  -0.9000000000000004 -0.95 0  -0.8499999999999996 -0.95 0  -0.7999999999999998 -0.95 0  -0.75 -0.95 0  -0.7000000000000002 -0.95 0  -0.6500000000000004 -0.95 0  -0.5999999999999996 -0.95 0  -0.5499999999999998 -0.95 0  -0.5 -0.95 0  -0.4500000000000002 -0.95 0  -0.4000000000000004 -0.95 0  -0.3499999999999996 -0.95 0  -0.2999999999999998 -0.95 0  -0.25 -0.95 0  -0.2000000000000002 -0.95 0  -0.1500000000000004 -0.95 0  -0.09999999999999964 -0.95 0  -0.04999999999999982 -0.95 0  0 -0.95 0  0.04999999999999982 -0.95 0  0.09999999999999964 -0.95 0  0.1500000000000004 -0.95 0  0.2000000000000002 -0.95 0  0.25 -0.95 0  0.2999999999999998 -0.95 0  0.3499999999999996 -0.95 0  0.4000000000000004 -0.95 0  0.4500000000000002 -0.95 0  0.5 -0.95 0  0.5499999999999998 -0.95 0  0.5999999999999996 -0.95 0  0.6500000000000004 -0.95 0  0.7000000000000002 -0.95 0  0.75 -0.95 0  0.7999999999999998 -0.95 0  0.8499999999999996 -0.95 0  0.9000000000000004 -0.95 0  0.9500000000000002 -0.95 0  1 -0.95 0  1.05 -0.95 0  1.1 -0.95 0  1.15 -0.95 0  1.2 -0.95 0  1.25 -0.95 0  1.3 -0.95 0  1.35 -0.95 0  1.4 -0.95 0  1.45 -0.95 0  1.5 -0.95 0  1.55 -0.95 0  1.6 -0.95 0  1.65 -0.95 0  1.7 -0.95 0  1.75 -0.95 0  1.8 -0.95 0  1.85 -0.95 0  1.9 -0.95 0  1.95 -0.95 0  2 -0.95 0  2.05 -0.95 0  2.1 -0.95 0  2.15 -0.95 0  2.2 -0.95 0  2.25 -0.95 0  2.3 -0.95 0  2.35 -0.95 0  2.4 -0.95 0  2.45 -0.95 0  2.5 -0.95 0  2.55 -0.95 0  2.6 -0.95 0  2.65 -0.95 0  2.7 -0.95 0  2.75 -0.95 0  2.8 -0.95 0  2.85 -0.95 0  2.9 -0.95 0  2.95 -0.95 0  3 -0.95 0  3.050000000000001 -0.95 0  3.1 -0.95 0  3.15 -0.95 0  3.199999999999999 -0.95 0  3.25 -0.95 0  3.300000000000001 -0.95 0  3.35 -0.95 0  3.4 -0.95 0  3.449999999999999 -0.95 0  3.5 -0.95 0  3.550000000000001 -0.95 0  3.6 -0.95 0  3.65 -0.95 0  3.699999999999999 -0.95 0  3.75 -0.95 0  3.800000000000001 -0.95 0  3.85 -0.95 0  3.9 -0.95 0  3.949999999999999 -0.95 0  4 -0.95 0  4.050000000000001 -0.95 0  4.1 -0.95 0  4.15 -0.95 0  4.199999999999999 -0.95 0  4.25 -0.95 0  4.300000000000001 -0.95 0  4.35 -0.95 0  4.4 -0.95 0  4.449999999999999 -0.95 0  4.5 -0.95 0  4.550000000000001 -0.95 0  4.6 -0.95 0  4.65 -0.95 0  4.699999999999999 -0.95 0  4.75 -0.95 0  4.800000000000001 -0.95 0  4.85 -0.95 0  4.9 -0.95 0  4.949999999999999 -0.95 0  5 -0.95 0  -5 -0.9 0  -4.95 -0.9 0  -4.9 -0.9 0  -4.85 -0.9 0  -4.8 -0.9 0  -4.75 -0.9 0  -4.7 -0.9 0  -4.65 -0.9 0  -4.6 -0.9 0  -4.55 -0.9 0  -4.5 -0.9 0  -4.45 -0.9 0  -4.4 -0.9 0  -4.35 -0.9 0  -4.3 -0.9 0  -4.25 -0.9 0  -4.2 -0.9 0  -4.15 -0.9 0  -4.1 -0.9 0  -4.05 -0.9 0  -4 -0.9 0  -3.95 -0.9 0  -3.9 -0.9 0  -3.85 -0.9 0  -3.8 -0.9 0  -3.75 -0.9 0  -3.7 -0.9 0  -3.65 -0.9 0  -3.6 -0.9 0  -3.55 -0.9 0  -3.5 -0.9 0  -3.45 -0.9 0  -3.4 -0.9 0  -3.35 -0.9 0  -3.3 -0.9 0  -3.25 -0.9 0  -3.2 -0.9 0  -3.15 -0.9 0  -3.1 -0.9 0  -3.05 -0.9 0  -3 -0.9 0  -2.95 -0.9 0  -2.9 -0.9 0  -2.85 -0.9 0  -2.8 -0.9 0  -2.75 -0.9 0  -2.7 -0.9 0  -2.65 -0.9 0  -2.6 -0.9 0  -2.55 -0.9 0  -2.5 -0.9 0  -2.45 -0.9 0  -2.4 -0.9 0  -2.35 -0.9 0  -2.3 -0.9 0  -2.25 -0.9 0  -2.2 -0.9 0  -2.15 -0.9 0  -2.1 -0.9 0  -2.05 -0.9 0  -2 -0.9 0  -1.95 -0.9 0  -1.9 -0.9 0  -1.85 -0.9 0  -1.8 -0.9 0  -1.75 -0.9 0  -1.7 -0.9 0  -1.65 -0.9 0  -1.6 -0.9 0  -1.55 -0.9 0  -1.5 -0.9 0  -1.45 -0.9 0  -1.4 -0.9 0  -1.35 -0.9 0  -1.3 -0.9 0  -1.25 -0.9 0  -1.2 -0.9 0  -1.15 -0.9 0  -1.1 -0.9 0  -1.05 -0.9 0  -1 -0.9 0  -0.9500000000000002 -0.9 0  -0.9000000000000004 -0.9 0  -0.8499999999999996 -0.9 0  -0.7999999999999998 -0.9 0  -0.75 -0.9 0  -0.7000000000000002 -0.9 0  -0.6500000000000004 -0.9 0  -0.5999999999999996 -0.9 0  -0.5499999999999998 -0.9 0  -0.5 -0.9 0  -0.4500000000000002 -0.9 0  -0.4000000000000004 -0.9 0  -0.3499999999999996 -0.9 0  -0.2999999999999998 -0.9 0  -0.25 -0.9 0  -0.2000000000000002 -0.9 0  -0.1500000000000004 -0.9 0  -0.09999999999999964 -0.9 0  -0.04999999999999982 -0.9 0  0 -0.9 0  0.04999999999999982 -0.9 0  0.09999999999999964 -0.9 0  0.1500000000000004 -0.9 0  0.2000000000000002 -0.9 0  0.25 -0.9 0  0.2999999999999998 -0.9 0  0.3499999999999996 -0.9 0  0.4000000000000004 -0.9 0  0.4500000000000002 -0.9 0  0.5 -0.9 0  0.5499999999999998 -0.9 0  0.5999999999999996 -0.9 0  0.6500000000000004 -0.9 0  0.7000000000000002 -0.9 0  0.75 -0.9 0  0.7999999999999998 -0.9 0  0.8499999999999996 -0.9 0  0.9000000000000004 -0.9 0  0.9500000000000002 -0.9 0  1 -0.9 0  1.05 -0.9 0  1.1 -0.9 0  1.15 -0.9 0  1.2 -0.9 0  1.25 -0.9 0  1.3 -0.9 0  1.35 -0.9 0  1.4 -0.9 0  1.45 -0.9 0  1.5 -0.9 0  1.55 -0.9 0  1.6 -0.9 0  1.65 -0.9 0  1.7 -0.9 0  1.75 -0.9 0  1.8 -0.9 0  1.85 -0.9 0  1.9 -0.9 0  1.95 -0.9 0  2 -0.9 0  2.05 -0.9 0  2.1 -0.9 0  2.15 -0.9 0  2.2 -0.9 0  2.25 -0.9 0  2.3 -0.9 0  2.35 -0.9 0  2.4 -0.9 0  2.45 -0.9 0  2.5 -0.9 0  2.55 -0.9 0  2.6 -0.9 0  2.65 -0.9 0  2.7 -0.9 0  2.75 -0.9 0  2.8 -0.9 0  2.85 -0.9 0  2.9 -0.9 0  2.95 -0.9 0  3 -0.9 0  3.050000000000001 -0.9 0  3.1 -0.9 0  3.15 -0.9 0  3.199999999999999 -0.9 0  3.25 -0.9 0  3.300000000000001 -0.9 0  3.35 -0.9 0  3.4 -0.9 0  3.449999999999999 -0.9 0  3.5 -0.9 0  3.550000000000001 -0.9 0  3.6 -0.9 0  3.65 -0.9 0  3.699999999999999 -0.9 0  3.75 -0.9 0  3.800000000000001 -0.9 0  3.85 -0.9 0  3.9 -0.9 0  3.949999999999999 -0.9 0  4 -0.9 0  4.050000000000001 -0.9 0  4.1 -0.9 0  4.15 -0.9 0  4.199999999999999 -0.9 0  4.25 -0.9 0  4.300000000000001 -0.9 0  4.35 -0.9 0  4.4 -0.9 0  4.449999999999999 -0.9 0  4.5 -0.9 0  4.550000000000001 -0.9 0  4.6 -0.9 0  4.65 -0.9 0  4.699999999999999 -0.9 0  4.75 -0.9 0  4.800000000000001 -0.9 0  4.85 -0.9 0  4.9 -0.9 0  4.949999999999999 -0.9 0  5 -0.9 0  -5 -0.85 0  -4.95 -0.85 0  -4.9 -0.85 0  -4.85 -0.85 0  -4.8 -0.85 0  -4.75 -0.85 0  -4.7 -0.85 0  -4.65 -0.85 0  -4.6 -0.85 0  -4.55 -0.85 0  -4.5 -0.85 0  -
[...]
<PointData  Vectors="f_15"> 
<DataArray  type="Float64"  Name="f_15"  NumberOfComponents="3" format="ascii">1.3537393140734257e+00 0.0000000000000000e+00 0.0000000000000000e+00  1.3537212032814241e+00 3.1173221425546474e-02 0.0000000000000000e+00  1.3537987198239105e+00 6.3618243355164028e-02 0.0000000000000000e+00  1.3537703399564085e+00 9.4618993795044515e-02 0.0000000000000000e+00  1.3537840444085349e+00 1.2669590105469497e-01 0.0000000000000000e+00  1.3538595292401663e+00 1.5796824176073412e-01 0.0000000000000000e+00  1.3538797371687628e+00 1.8972483907514257e-01 0.0000000000000000e+00  1.3538902963363222e+00 2.2115365161386799e-01 0.0000000000000000e+00  1.3540108294013129e+00 2.5282232361141055e-01 0.0000000000000000e+00  1.3540249652829950e+00 2.8417083493622147e-01 0.0000000000000000e+00  1.3541047958808339e+00 3.1575500423710323e-01 0.0000000000000000e+00  1.3541916550169786e+00 3.4719659396547420e-01 0.0000000000000000e+00  1.3543058054820154e+00 3.7847684748327803e-01 0.0000000000000000e+00  1.3543429998069925e+00 4.0998268813213107e-01 0.0000000000000000e+00  1.3545528772897628e+00 4.4116117892804479e-01 0.0000000000000000e+00  1.3546098136221816e+00 4.7251402808906712e-01 0.0000000000000000e+00  1.3548175480740750e+00 5.0351792997204070e-01 0.0000000000000000e+00  1.3549505804095907e+00 5.3491660703927846e-01 0.0000000000000000e+00  1.3552189822587213e+00 5.6559420214136047e-01 0.0000000000000000e+00  1.3553558301128794e+00 5.9686847103345797e-01 0.0000000000000000e+00  1.3557339016100090e+00 6.2739600753453661e-01 0.0000000000000000e+00  1.3559448817723838e+00 6.5844340220648434e-01 0.0000000000000000e+00  1.3563713305049465e+00 6.8863043395390733e-01 0.0000000000000000e+00  1.3567175276049077e+00 7.1949515735239900e-01 0.0000000000000000e+00  1.3572641965579002e+00 7.4930445961286851e-01 0.0000000000000000e+00  1.3577094273005028e+00 7.7973409924074477e-01 0.0000000000000000e+00  1.3584475499757460e+00 8.0915997882700874e-01 0.0000000000000000e+00  1.3590842318729932e+00 8.3905321454693427e-01 0.0000000000000000e+00  1.3600039228788754e+00 8.6779217776341455e-01 0.0000000000000000e+00  1.3609317707259929e+00 8.9704291574800188e-01 0.0000000000000000e+00  1.3621550384103220e+00 9.2495318189313869e-01 0.0000000000000000e+00  1.3634083317513110e+00 9.5312081062593135e-01 0.0000000000000000e+00  1.3650719330447258e+00 9.7998843836382699e-01 0.0000000000000000e+00  1.3668172718603637e+00 1.0068298278987948e+00 0.0000000000000000e+00  1.3689978578360344e+00 1.0321076974253658e+00 0.0000000000000000e+00  1.3714058006940328e+00 1.0573204547005766e+00 0.0000000000000000e+00  1.3742831558114603e+00 1.0807379325696898e+00 0.0000000000000000e+00  1.3774276140658086e+00 1.1037935413426359e+00 0.0000000000000000e+00  1.3811201262795116e+00 1.1251897781824236e+00 0.0000000000000000e+00  1.3850874960350616e+00 1.1460782095599849e+00 0.0000000000000000e+00  1.3895275239747464e+00 1.1653210041798345e+00 0.0000000000000000e+00  1.3942516006280974e+00 1.1843803116875695e+00 0.0000000000000000e+00  1.3993165953314919e+00 1.2019903505093943e+00 0.0000000000000000e+00  1.4045452676167609e+00 1.2196099667787854e+00 0.0000000000000000e+00  1.4100231809740902e+00 1.2362916426888020e+00 0.0000000000000000e+00  1.4155573006418189e+00 1.2531581603791757e+00 0.0000000000000000e+00  1.4212142908872281e+00 1.2692745453653926e+00 0.0000000000000000e+00  1.4269150630209506e+00 1.2858751184205153e+00 0.0000000000000000e+00  1.4326624440263187e+00 1.3017668443105921e+00 0.0000000000000000e+00  1.4384295184744524e+00 1.3181590648359609e+00 0.0000000000000000e+00  1.4442389082617029e+00 1.3339980924126358e+00 0.0000000000000000e+00  1.4500575190410061e+00 1.3502853574369975e+00 0.0000000000000000e+00  1.4559003863416251e+00 1.3659960263589543e+00 0.0000000000000000e+00  1.4617702633179110e+00 1.3822545720055488e+00 0.0000000000000000e+00  1.4676457269889829e+00 1.3978584074709166e+00 0.0000000000000000e+00  1.4735559010538590e+00 1.4140334437620419e+00 0.0000000000000000e+00  1.4794666863327681e+00 1.4295658470081321e+00 0.0000000000000000e+00  1.4854058294301158e+00 1.4456791193753973e+00 0.0000000000000000e+00  1.4913564909439843e+00 1.4610945079353066e+00 0.0000000000000000e+00  1.4973188536003361e+00 1.4771779033347592e+00 0.0000000000000000e+00  1.5032962072528102e+00 1.4924773374964551e+00 0.0000000000000000e+00  1.5092908442227497e+00 1.5085165551014443e+00 0.0000000000000000e+00  1.5152907523614148e+00 1.5237090590102111e+00 0.0000000000000000e+00  1.5212922575880479e+00 1.5397072151507720e+00 0.0000000000000000e+00  1.5273372072904843e+00 1.5547921577921264e+00 0.0000000000000000e+00  1.5333324331900173e+00 1.5707378420126998e+00 0.0000000000000000e+00  1.5393997320595201e+00 1.5857317092784682e+00 0.0000000000000000e+00  1.5454084181149736e+00 1.6016090422801892e+00 0.0000000000000000e+00  1.5514929771582853e+00 1.6165174597468053e+00 0.0000000000000000e+00  1.5574783299591803e+00 1.6323144781830190e+00 0.0000000000000000e+00  1.5636112665069704e+00 1.6471576421781362e+00 0.0000000000000000e+00  1.5695616978705671e+00 1.6628314383248066e+00 0.0000000000000000e+00  1.5757090279138146e+00 1.6776501224954272e+00 0.0000000000000000e+00  1.5816518266567101e+00 1.6931549619056496e+00 0.0000000000000000e+00  1.5878105043965764e+00 1.7079595017265954e+00 0.0000000000000000e+00  1.5937018701385761e+00 1.7232980337708153e+00 0.0000000000000000e+00  1.5999024799641057e+00 1.7380504877825682e+00 0.0000000000000000e+00  1.6057426594569804e+00 1.7532372056132879e+00 0.0000000000000000e+00  1.6119318362884034e+00 1.7679398975998761e+00 0.0000000000000000e+00  1.6177601765632676e+00 1.7829073125866470e+00 0.0000000000000000e+00  1.6239314033754029e+00 1.7976073509191361e+00 0.0000000000000000e+00  1.6296978326290781e+00 1.8123547670593043e+00 0.0000000000000000e+00  1.6358841411404517e+00 1.8269053574347758e+00 0.0000000000000000e+00  1.6415913097218924e+00 1.8416291925477029e+00 0.0000000000000000e+00  1.6477273072676712e+00 1.8558579751021549e+00 0.0000000000000000e+00  1.6534216307157652e+00 1.8705100935188970e+00 0.0000000000000000e+00  1.6594983974499227e+00 1.8846234698490258e+00 0.0000000000000000e+00  1.6651162801151720e+00 1.8989386180493109e+00 0.0000000000000000e+00  1.6711817372599060e+00 1.9129457715691496e+00 0.0000000000000000e+00  1.6767091674623746e+00 1.9271928871583810e+00 0.0000000000000000e+00  1.6826983479226816e+00 1.9406235926044790e+00 0.0000000000000000e+00  1.6881846347493228e+00 1.9550422882800857e+00 0.0000000000000000e+00  1.6940777447821807e+00 1.9680499612997517e+00 0.0000000000000000e+00  1.6994576759825974e+00 1.9820694653032320e+00 0.0000000000000000e+00  1.7053058457932861e+00 1.9951335737972078e+00 0.0000000000000000e+00  1.7105519191967233e+00 2.0086829362298571e+00 0.0000000000000000e+00  1.7162914272970455e+00 2.0212665289492748e+00 0.0000000000000000e+00  1.7214537608132991e+00 2.0349838749668696e+00 0.0000000000000000e+00  1.7270497499385444e+00 2.0468044227997133e+00 0.0000000000000000e+00  1.7320704343867941e+00 2.0601778134557707e+00 0.0000000000000000e+00  1.7375680209358355e+00 2.0721274454229057e+00 0.0000000000000000e+00  1.7424035129164839e+00 2.0844118116053263e+00 0.0000000000000000e+00  1.7477551869493189e+00 2.0964149824119658e+00 0.0000000000000000e+00  1.7524407345773765e+00 2.1082734223057051e+00 0.0000000000000000e+00  1.7575989044961688e+00 2.1195372451246706e+00 0.0000000000000000e+00  1.7620964567677260e+00 2.1311052806508703e+00 0.0000000000000000e+00  1.7670856368789283e+00 2.1420579798302257e+00 0.0000000000000000e+00  1.7713456493109074e+00 2.1526912740607616e+00 0.0000000000000000e+00  1.7761358183707541e+00 2.1634035342975801e+00 0.0000000000000000e+00  1.7801787144903527e+00 2.1735609123503767e+00 0.0000000000000000e+00  1.7847153883340565e+00 2.1833095029206477e+00 0.0000000000000000e+00  1.7885163025699415e+00 2.1932295579871171e+00 0.0000000000000000e+00  1.7928118976050009e+00 2.2022917865178973e+00 0.0000000000000000e+00  1.7962921626713155e+00 2.2114187800065674e+00 0.0000000000000000e+00  1.8003013833521091e+00 2.2201166115584323e+00 0.0000000000000000e+00  1.8034180398595776e+00 2.2286454367064428e+00 0.0000000000000000e+00  1.8070174404987469e+00 2.2367030927535696e+00 0.0000000000000000e+00  1.8097402076092450e+00 2.2448240275256302e+00 0.0000000000000000e+00  1.8129517389747865e+00 2.2522700751696991e+00 0.0000000000000000e+00  1.8153980371877168e+00 2.2594282332338218e+00 0.0000000000000000e+00  1.8184855588079205e+00 2.2660259301298047e+00 0.0000000000000000e+00  1.8209047762580675e+00 2.2717468900645521e+00 0.0000000000000000e+00  1.8240803229410973e+00 2.2773150264137483e+00 0.0000000000000000e+00  1.8263544136125194e+00 2.2816703969459233e+00 0.0000000000000000e+00  1.8292772603481022e+00 2.2866193063368319e+00 0.0000000000000000e+00  1.8314040046479831e+00 2.2909850697935568e+00 0.0000000000000000e+00  1.8329503604972681e+00 2.2931256595693394e+00 0.0000000000000000e+00  1.8369321825758977e+00 2.3020006409134748e+00 0.0000000000000000e+00  1.8346335416917319e+00 2.2937647794745444e+00 0.0000000000000000e+00  1.8454810131034687e+00 2.3115705800108581e+00 0.0000000000000000e+00  1.8154114154786436e+00 2.3372063525422337e+00 0.0000000000000000e+00  1.9249285006967591e+00 2.1578573545863389e+00 0.0000000000000000e+00  2.4697294636621874e+00 8.9396249637745206e-01 0.0000000000000000e+00  2.8789696762087575e+00 1.3853816827099105e-01 0.0000000000000000e+00  2.9702223073677700e+00 -2.2568883511397912e-03 0.0000000000000000e+00  2.9569560940208790e+00 3.9571024856277894e-03 0.0000000000000000e+00  2.9637020816987656e+00 -6.5292870993450712e-03 0.0000000000000000e+00  2.9683578491584370e+00 -6.8527638045750511e-03 0.0000000000000000e+00  2.9676203990807113e+00 -4.7157340397504304e-03 0.0000000000000000e+00  2.9696170677266576e+00 -7.3256608916460533e-03 0.0000000000000000e+00  2.9706674805826592e+00 -6.6577158717632187e-03 0.0000000000000000e+00  2.9701614461611414e+00 -4.3455857357684027e-03 0.0000000000000000e+00  2.9702501007485584e+00 -3.5965005390111177e-03 0.0000000000000000e+00  2.9709906236774746e+00 -3.7656123338367493e-03 0.0000000000000000e+00  2.9711778139583429e+00 -3.3733826985022221e-03 0.0000000000000000e+00  2.9714743628283631e+00 -3.1543171546790003e-03 0.0000000000000000e+00  2.9714235120582022e+00 -2.7106573103416903e-03 0.0000000000000000e+00  2.9716419435155927e+00 -2.4727512335158009e-03 0.0000000000000000e+00  2.9716375129244121e+00 -2.3696617348941238e-03 0.0000000000000000e+00  2.9718885203803436e+00 -2.3162860283765566e-03 0.0000000000000000e+00  2.9718011240951681e+00 -2.2120607914653265e-03 0.0000000000000000e+00  2.9719672288792505e+00 -2.0839953330724038e-03 0.0000000000000000e+00  2.9718823008962660e+00 -2.1239576672921687e-03 0.0000000000000000e+00  2.9720531574985944e+00 -2.0045308649291908e-03 0.0000000000000000e+00  2.9719335604219461e+00 -2.0723971806866433e-03 0.0000000000000000e+00  2.9721111533001690e+00 -2.0064209036786602e-03 0.0000000000000000e+00  2.9719819941771699e+00 -2.0828354179145752e-03 0.0000000000000000e+00  2.9721334086050937e+00 -1.9897990902575319e-03 0.0000000000000000e+00  2.9720102164306468e+00 -2.1402275440077735e-03 0.0000000000000000e+00  2.9721780654679741e+00 -2.0525281952724610e-03 0.0000000000000000e+00  2.9720168274475287e+00 -2.1534465132144781e-03 0.0000000000000000e+00  2.9722081667319973e+00 -2.2041862318976980e-03 0.0000000000000000e+00  2.9720388070993291e+00 -2.2420869764838468e-03 0.0000000000000000e+00  2.9722191566417417e+00 -2.4432597552731996e-03 0.0000000000000000e+00  2.9720548285482518e+00 -2.5772069785725622e-03 0.0000000000000000e+00  2.9722428586990595e+00 -2.9547944192057519e-03 0.0000000000000000e+00  2.9720571450494391e+00 -3.2351364519840834e-03 0.0000000000000000e+00  2.9722546659208522e+00 -3.9045186351499509e-03 0.0000000000000000e+00  2.9720787009141096e+00 -4.3471164738575901e-03 0.0000000000000000e+00  2.9722487972599922e+00 -5.1558662256821347e-03 0.0000000000000000e+00  2.9720963108803673e+00 -5.7925312167577195e-03 0.0000000000000000e+00  2.9722546151321536e+00 -6.4551016391153149e-03 0.0000000000000000e+00  2.9721072899038545e+00 -6.9976482488820360e-03 0.0000000000000000e+00  2.9722492141543029e+00 -7.5655535037302615e-03 0.0000000000000000e+00  2.9721373409572753e+00 -7.8104850772414587e-03 0.0000000000000000e+00  2.9722341720664240e+00 -8.1171005474465971e-03 0.0000000000000000e+00  2.9721602022327973e+00 -8.4138620276184919e-03 0.0000000000000000e+00  2.9722342305078935e+00 -8.3350664416859208e-03 0.0000000000000000e+00  2.9721769215600480e+00 -8.6508265670764938e-03 0.0000000000000000e+00  2.9722236476238697e+00 -8.5357710586316197e-03 0.0000000000000000e+00  2.9722093718270268e+00 -8.7117510392506568e-03 0.0000000000000000e+00  2.9722051048084892e+00 -8.5832837451674110e-03 0.0000000000000000e+00  2.9722302216240091e+00 -8.8347690647761299e-03 0.0000000000000000e+00  2.9722019740464352e+00 -8.5562925865603247e-03 0.0000000000000000e+00  2.9722413142070598e+00 -8.8346402063897485e-03 0.0000000000000000e+00  2.9721880459385681e+00 -8.7521740368266630e-03 0.0000000000000000e+00  2.9722662720588611e+00 -8.6352005782483927e-03 0.0000000000000000e+00  2.9721668713605052e+00 -8.9528151752943826e-03 0.0000000000000000e+00  2.9722774972074486e+00 -8.7820278638660945e-03 0.0000000000000000e+00  2.9721650248342972e+00 -8.6353863636510157e-03 0.0000000000000000e+00  2.9722777706237027e+00 -9.0414698285407290e-03 0.0000000000000000e+00  2.9721549935766882e+00 -8.7481097626974525e-03 0.0000000000000000e+00  2.9722946642222112e+00 -8.6968282131455587e-03 0.0000000000000000e+00  2.9721393939136913e+00 -9.7236094576632626e-03 0.0000000000000000e+00  2.9722985869667315e+00 -8.4359972393953878e-03 0.0000000000000000e+00  2.9721484097439532e+00 -9.6701772040427639e-03 0.0000000000000000e+00  2.9722909665305894e+00 -9.6908050779548147e-03 0.0000000000000000e+00  2.9721500685076467e+00 -8.7210572893674666e-03 0.0000000000000000e+00  2.9723007881116508e+00 -1.4714122541026933e-02 0.0000000000000000e+00  2.9721409059922523e+00 -9.9929283535401797e-03 0.0000000000000000e+00  2.9723071217590307e+00 0.0000000000000000e+00 0.0000000000000000e+00  1.3536712169949294e+00 0.0000000000000000e+00 1.0269672063260374e-04  1.3537554228610478e+00 3.1700397834506316e-02 1.5661697699098900e-04  1.3537053782446573e+00 6.3023211612119129e-02 -3.7561936659913234e-04  1.3537090516925117e+00 9.4763073157472053e-02 2.5773267387682407e-04  1.3537728374208176e+00 1.2626084052485789e-01 -2.3978298022652830e-04  1.3537725368891533e+00 1.5785191552883179e-01 1.9027813219217512e-04  1.3537721303307826e+00 1.8938423779858748e-01 -1.6354927722538626e-04  1.3538708396254000e+00 2.2098021798110634e-01 1.2472361351252407e-04  1.3538791151383203e+00 2.5239943249117841e-01 -9.5954129032650772e-05  1.3539254933662819e+00 2.8396162966389032e-01 6.5528819671269593e-05  1.3540248120091496e+00 3.1545534400907604e-01 -4.3256556103967949e-05  1.3540932623520781e+00 3.4677714176952806e-01 2.2844480540676505e-05  1.3541550511335090e+00 3.7831388913303271e-01 -1.0982652369042672e-06  1.3543104809673112e+00 4.0959557125639151e-01 -1.6787672830840464e-05  1.3544068307202501e+00 4.4095993298021141e-01 2.4363066641164023e-05  1.3545409632402585e+00 4.7214337914443544e-01 -1.6959193455798871e-05  1.3547282534776404e+00 5.0350854354869334e-01 7.6026037374068225e-06  1.3549061397137363e+00 5.3445553581984073e-01 -5.2658264307053963e-06  1.3550987963661116e+00 5.6564723306279574e-01 1.0796438097913302e-05  1.3553722748452839e+00 5.9654374791114473e-01 -1.8583980955171782e-05  1.3556338300646724e+00 6.2746727909652500e-01 2.8164685347553394e-05  1.3559383112644905e+00 6.5808363485767696e-01 -4.1337665441478010e-05  1.3563215320549808e+00 6.8886203650517608e-01 5.3751083673030948e-05  1.3567291898289180e+00 7.1912865908934498e-01 -6.5217788198170695e-05  1.3571861162819423e+00 7.4953047639189907e-01 7.7840157837996660e-05  1.3577651049573127e+00 7.7945983767184590e-01 -9.4984269495638842e-05  1.3583788337203826e+00 8.0941437588044207e-01 1.1193386352403464e-04  1.3591105770831919e+00 8.3871591956776503e-01 -1.2859103321822873e-04  1.3599691233407174e+00 8.6816552641375422e-01 1.4411766338780021e-04  1.3609658260660344e+00 8.9670856797495435e-01 -1.5948561476528548e-04  1.3620868040342111e+00 9.2526037066813449e-01 1.7239967421220308e-04  1.3634730768606689e+00 9.5287589278312346e-01 -1.8542943991931902e-04  1.3650083620160331e+00 9.8031801743669211e-01 1.9691654769626738e-04  1.3668488992907257e+00 1.0064926052859724e+00 -2.0597570150589629e-04  1.3689626711002678e+00 1.0325356409588162e+00 2.1220218116104953e-04  1.3714409480473777e+00 1.0569933642725806e+00 -2.1520566224377043e-04  1.3742204200891477e+00 1.0810606725298111e+00 2.1622995539948651e-04  1.3774872001166059e+00 1.1035656624815131e+00 -2.1189885075038480e-04  1.3810686626839122e+00 1.1255019579276215e+00 2.0857659238739942e-04  1.3851176425616412e+00 1.1457605919343063e+00 -1.9988172316179608e-04  1.3895078478148146e+00 1.1657000205014585e+00 1.9280942129602856e-04  1.3942842415830385e+00 1.1840723861676345e+00 -1.8112658049192150e-04  1.3992800333903186e+00 1.2022550542895287e+00 1.7002135001391883e-04  1.4045948467877170e+00 1.2194015250064807e+00 -1.5704114061741644e-04  1.4099953192636698e+00 1.2365304070898910e+00 1.4276201852829608e-04  1.4155799434493277e+00 1.2528959829439092e+00 -1.2925882882245174e-04  1.4212067269812376e+00 1.2695710892914662e+00 1.1407438759444431e-04  1.4269294376156931e+00 1.2856330490052024e+00 -9.9654290379226881e-05  1.4326425816985289e+00 1.3019911269927948e+00 8.5360864260354590e-05  1.4384471939817096e+00 1.3180074485652526e+00 -7.1161712103347743e-05  1.4442196391524718e+00 1.3342014519249108e+00 5.8460358292096702e-05  1.4500608681275375e+00 1.3501106304924295e+00 -4.5260547899780535e-05  1.4558902621113090e+00 1.3662361740353679e+00 3.4642302310446178e-05  1.4617663020581333e+00 1.3820806161988919e+00 -2.4182459114975336e-05  1.4676371821160039e+00 1.3980651228715115e+00 1.8082546457360652e-05  1.4735510188763703e+00 1.4138923940604684e+00 -1.1496957794704610e-05  1.4794565840875613e+00 1.4297644149864690e+00 8.8457863209147621e-06  1.4854070282787100e+00 1.4455111945002215e+00 -4.3847297968572979e-06  1.4913445314344282e+00 1.4613154476374348e+00 4.6107449751718545e-06  1.4973192460031499e+00 1.4769871735262596e+00 -4.3046317584475261e-06  1.5032946043758166e+00 1.4927008665991315e+00 9.7297052669365716e-06  1.5092888456747284e+00 1.5083096079544929e+00 -1.4618106828272509e-05  1.5152805585263847e+00 1.5239503092427462e+00 2.2706298613688690e-05  1.5213114901785085e+00 1.5394722805906935e+00 -2.9631022647751772e-05  1.5273097416760162e+00 1.5550524495979106e+00 3.8402672238114549e-05  1.5333534783074816e+00 1.5704894748222262e+00 -4.6913448379874316e-05  1.5393790392376598e+00 1.5860057264457745e+00 5.5845209303145268e-05  1.5454265226648354e+00 1.6013503088803540e+00 -6.2997988506850586e-05  1.5514497568704604e+00 1.6168088750805516e+00 6.7152304239567387e-05  1.5575262216500476e+00 1.6320602924768803e+00 -6.7828588009259327e-05  1.5635410233389295e+00 1.6474358382613996e+00 6.5076721395161935e-05  1.5696096482612520e+00 1.6626181614772886e+00 -5.8686994039826160e-05  1.5756476073191574e+00 1.6778807574950390e+00 4.7813970020387891e-05  1.5816986569525491e+00 1.6929978747259831e+00 -2.9828602676876706e-05  1.5877238867220143e+00 1.7081427146905344e+00 4.9342948185738038e-06  1.5937822022561685e+00 1.7231867930726072e+00 2.7207997592029717e-05  1.5997975618193903e+00 1.7381871168134431e+00 -6.1106226659436860e-05  1.6058116428944087e+00 1.7531937615836681e+00 9.5803853662749177e-05  1.6118533494202250e+00 1.7679743939714279e+00 -1.2728255442145324e-04  1.6178196637060318e+00 1.7829853535852085e+00 1.6040942868390944e-04  1.6238364430665131e+00 1.7975365795854199e+00 -1.9470354207213814e-04  1.6297891127030564e+00 1.8124636670606735e+00 2