<?xml version="1.0"?>
<VTKFile type="UnstructuredGrid"  version="0.1"  >
<UnstructuredGrid>
<Piece  NumberOfPoints="8241" NumberOfCells="16000">
<Points>
<DataArray  type="Float64"  NumberOfComponents="3"  format="ascii">-5 -1 0  -4.95 -1 0  -4.9 -1 0  -4.85 -1 0  -4.8 -1 0  -4.75 -1 0  -4.7 -1 0  -4.65 -1 0  -4.6 -1 0  -4.55 -1 0  -4.5 -1 0  -4.45 -1 0  -4.4 -1 0  -4.35 -1 0  -4.3 -1 0  -4.25 -1 0  -4.2 -1 0  -4.15 -1 0  -4.1 -1 0  -4.05 -1 0  -4 -1 0  -3.95 -1 0  -3.9 -1 0  -3.85 -1 0  -3.8 -1 0  -3.75 -1 0  -3.7 -1 0  -3.65 -1 0  -3.6 -1 0  -3.55 -1 0  -3.5 -1 0  -3.45 -1 0  -3.4 -1 0  -3.35 -1 0  -3.3 -1 0  -3.25 -1 0  -3.2 -1 0  -3.15 -1 0  -3.1 -1 0  -3.05 -1 0  -3 -1 0  -2.95 -1 0  -2.9 -1 0  -2.85 -1 0  -2.8 -1 0  -2.75 -1 0  -2.7 -1 0  -2.65 -1 0  -2.6 -1 0  -2.55 -1 0  -2.5 -1 0  -2.45 -1 0  -2.4 -1 0  -2.35 -1 0  -2.3 -1 0  -2.25 -1 0  -2.2 -1 0  -2.15 -1 0  -2.1 -1 0  -2.05 -1 0  -2 -1 0  -1.95 -1 0  -1.9 -1 0  -1.85 -1 0  -1.8 -1 0  -1.75 -1 0  -1.7 -1 0  -1.65 -1 0  -1.6 -1 0  -1.55 -1 0  -1.5 -1 0  -1.45 -1 0  -1.4 -1 0  -1.35 -1 0  -1.3 -1 0  -1.25 -1 0  -1.2 -1 0  -1.15 -1 0  -1.1 -1 0  -1.05 -1 0  -1 -1 0  -0.9500000000000002 -1 0  -0.9000000000000004 -1 0  -0.8499999999999996 -1 0  -0.7999999999999998 -1 0  -0.75 -1 0  -0.7000000000000002 -1 0  -0.6500000000000004 -1 0  -0.5999999999999996 -1 0  -0.5499999999999998 -1 0  -0.5 -1 0  -0.4500000000000002 -1 0  -0.4000000000000004 -1 0  -0.3499999999999996 -1 0  -0.2999999999999998 -1 0  -0.25 -1 0  -0.2000000000000002 -1 0  -0.1500000000000004 -1 0  -0.09999999999999964 -1 0  -0.04999999999999982 -1 0  0 -1 0  0.04999999999999982 -1 0  0.09999999999999964 -1 0  0.1500000000000004 -1 0  0.2000000000000002 -1 0  0.25 -1 0  0.2999999999999998 -1 0  0.3499999999999996 -1 0  0.4000000000000004 -1 0  0.4500000000000002 -1 0  0.5 -1 0  0.5499999999999998 -1 0  0.5999999999999996 -1 0  0.6500000000000004 -1 0  0.7000000000000002 -1 0  0.75 -1 0  0.7999999999999998 -1 0  0.8499999999999996 -1 0  0.9000000000000004 -1 0  0.9500000000000002 -1 0  1 -1 0  1.05 -1 0  1.1 -1 0  1.15 -1 0  1.2 -1 0  1.25 -1 0  1.3 -1 0  1.35 -1 0  1.4 -1 0  1.45 -1 0  1.5 -1 0  1.55 -1 0  1.6 -1 0  1.65 -1 0  1.7 -1 0  1.75 -1 0  1.8 -1 0  1.85 -1 0  1.9 -1 0  1.95 -1 0  2 -1 0  2.05 -1 0  2.1 -1 0  2.15 -1 0  2.2 -1 0  2.25 -1 0  2.3 -1 0  2.35 -1 0  2.4 -1 0  2.45 -1 0  2.5 -1 0  2.55 -1 0  2.6 -1 0  2.65 -1 0  2.7 -1 0  2.75 -1 0  2.8 -1 0  2.85 -1 0  2.9 -1 0  2.95 -1 0  3 -1 0  3.050000000000001 -1 0  3.1 -1 0  3.15 -1 0  3.199999999999999 -1 0  3.25 -1 0  3.300000000000001 -1 0  3.35 -1 0  3.4 -1 0  3.449999999999999 -1 0  3.5 -1 0  3.550000000000001 -1 0  3.6 -1 0  3.65 -1 0  3.699999999999999 -1 0  3.75 -1 0  3.800000000000001 -1 0  3.85 -1 0  3.9 -1 0  3.949999999999999 -1 0  4 -1 0  4.050000000000001 -1 0  4.1 -1 0  4.15 -1 0  4.199999999999999 -1 0  4.25 -1 0  4.300000000000001 -1 0  4.35 -1 0  4.4 -1 0  4.449999999999999 -1 0  4.5 -1 0  4.550000000000001 -1 0  4.6 -1 0  4.65 -1 0  4.699999999999999 -1 0  4.75 -1 0  4.800000000000001 -1 0  4.85 -1 0  4.9 -1 0  4.949999999999999 -1 0  5 -1 0  -5 -0.95 0  -4.95 -0.95 0  -4.9 -0.95 0  -4.85 -0.95 0  -4.8 -0.95 0  -4.75 -0.95 0  -4.7 -0.95 0  -4.65 -0.95 0  -4.6 -0.95 0  -4.55 -0.95 0  -4.5 -0.95 0  -4.45 -0.95 0  -4.4 -0.95 0  -4.35 -0.95 0  -4.3 -0.95 0  -4.25 -0.95 0  -4.2 -0.95 0  -4.15 -0.95 0  -4.1 -0.95 0  -4.05 -0.95 0  -4 -0.95 0  -3.95 -0.95 0  -3.9 -0.95 0  -3.85 -0.95 0  -3.8 -0.95 0  -3.75 -0.95 0  -3.7 -0.95 0  -3.65 -0.95 0  -3.6 -0.95 0  -3.55 -0.95 0  -3.5 -0.95 0  -3.45 -0.95 0  -3.4 -0.95 0  -3.35 -0.95 0  -3.3 -0.95 0  -3.25 -0.95 0  -3.2 -0.95 0  -3.15 -0.95 0  -3.1 -0.95 0  -3.05 -0.95 0  -3 -0.95 0  -2.95 -0.95 0  -2.9 -0.95 0  -2.85 -0.95 0  -2.8 -0.95 0  -2.75 -0.95 0  -2.7 -0.95 0  -2.65 -0.95 0  -2.6 -0.95 0  -2.55 -0.95 0  -2.5 -0.95 0  -2.45 -0.95 0  -2.4 -0.95 0  -2.35 -0.95 0  -2.3 -0.95 0  -2.25 -0.95 0  -2.2 -0.95 0  -2.15 -0.95 0  -2.1 -0.95 0  -2.05 -0.95 0  -2 -0.95 0  -1.95 -0.95 0  -1.9 -0.95 0  -1.85 -0.95 0  -1.8 -0.95 0  -1.75 -0.95 0  -1.7 -0.95 0  -1.65 -0.95 0  -1.6 -0.95 0  -1.55 -0.95 0  -1.5 -0.95 0  -1.45 -0.95 0  -1.4 -0.95 0  -1.35 -0.95 0  -1.3 -0.95 0  -1.25 -0.95 0  -1.2 -0.95 0  -1.15 -0.95 0  -1.1 -0.95 0  -1.05 -0.95 0  -1 -0.95 0  -0.9500000000000002 -0.95 0  -0.9000000000000004 -0.95 0  -0.8499999999999996 -0.95 0  -0.7999999999999998 -0.95 0  -0.75 -0.95 0  -0.7000000000000002 -0.95 0  -0.6500000000000004 -0.95 0  -0.5999999999999996 -0.95 0  -0.5499999999999998 -0.95 0  -0.5 -0.95 0  -0.4500000000000002 -0.95 0  -0.4000000000000004 -0.95 0  -0.3499999999999996 -0.95 0  -0.2999999999999998 -0.95 0  -0.25 -0.95 0  -0.2000000000000002 -0.95 0  -0.1500000000000004 -0.95 0  -0.09999999999999964 -0.95 0  -0.04999999999999982 -0.95 0  0 -0.95 0  0.04999999999999982 -0.95 0  0.09999999999999964 -0.95 0  0.1500000000000004 -0.95 0  0.2000000000000002 -0.95 0  0.25 -0.95 0  0.2999999999999998 -0.95 0  0.3499999999999996 -0.95 0  0.4000000000000004 -0.95 0  0.4500000000000002 -0.95 0  0.5 -0.95 0  0.5499999999999998 -0.95 0  0.5999999999999996 -0.95 0  0.6500000000000004 -0.95 0  0.7000000000000002 -0.95 0  0.75 -0.95 0  0.7999999999999998 -0.95 0  0.8499999999999996 -0.95 0  0.9000000000000004 -0.95 0  0.9500000000000002 -0.95 0  1 -0.95 0  1.05 -0.95 0  1.1 -0.95 0  1.15 -0.95 0  1.2 -0.95 0  1.25 -0.95 0  1.3 -0.95 0  1.35 -0.95 0  1.4 -0.95 0  1.45 -0.95 0  1.5 -0.95 0  1.55 -0.95 0  1.6 -0.95 0  1.65 -0.95 0  1.7 -0.95 0  1.75 -0.95 0  1.8 -0.95 0  1.85 -0.95 0  1.9 -0.95 0  1.95 -0.95 0  2 -0.95 0  2.05 -0.95 0  2.1 -0.95 0  2.15 -0.95 0  2.2 -0.95 0  2.25 -0.95 0  2.3 -0.95 0  2.35 -0.95 0  2.4 -0.95 0  2.45 -0.95 0  2.5 -0.95 0  2.55 -0.95 0  2.6 -0.95 0  2.65 -0.95 0  2.7 -0.95 0  2.75 -0.95 0  2.8 -0.95 0  2.85 -0.95 0  2.9 -0.95 0  2.95 -0.95 0  3 -0.95 0  3.050000000000001 -0.95 0  3.1 -0.95 0  3.15 -0.95 0  3.199999999999999 -0.95 0  3.25 -0.95 0  3.300000000000001 -0.95 0  3.35 -0.95 0  3.4 -0.95 0  3.449999999999999 -0.95 0  3.5 -0.95 0  3.550000000000001 -0.95 0  3.6 -0.95 0  3.65 -0.95 0  3.699999999999999 -0.95 0  3.75 -0.95 0  3.800000000000001 -0.95 0  3.85 -0.95 0  3.9 -0.95 0  3.949999999999999 -0.95 0  4 -0.95 0  4.050000000000001 -0.95 0  4.1 -0.95 0  4.15 -0.95 0  4.199999999999999 -0.95 0  4.25 -0.95 0  4.300000000000001 -0.95 0  4.35 -0.95 0  4.4 -0.95 0  4.449999999999999 -0.95 0  4.5 -0.95 0  4.550000000000001 -0.95 0  4.6 -0.95 0  4.65 -0.95 0  4.699999999999999 -0.95 0  4.75 -0.95 0  4.800000000000001 -0.95 0  4.85 -0.95 0  4.9 -0.95 0  4.949999999999999 -0.95 0  5 -0.95 0  -5 -0.9 0  -4.95 -0.9 0  -4.9 -0.9 0  -4.85 -0.9 0  -4.8 -0.9 0  -4.75 -0.9 0  -4.7 -0.9 0  -4.65 -0.9 0  -4.6 -0.9 0  -4.55 -0.9 0  -4.5 -0.9 0  -4.45 -0.9 0  -4.4 -0.9 0  -4.35 -0.9 0  -4.3 -0.9 0  -4.25 -0.9 0  -4.2 -0.9 0  -4.15 -0.9 0  -4.1 -0.9 0  -4.05 -0.9 0  -4 -0.9 0  -3.95 -0.9 0  -3.9 -0.9 0  -3.85 -0.9 0  -3.8 -0.9 0  -3.75 -0.9 0  -3.7 -0.9 0  -3.65 -0.9 0  -3.6 -0.9 0  -3.55 -0.9 0  -3.5 -0.9 0  -3.45 -0.9 0  -3.4 -0.9 0  -3.35 -0.9 0  -3.3 -0.9 0  -3.25 -0.9 0  -3.2 -0.9 0  -3.15 -0.9 0  -3.1 -0.9 0  -3.05 -0.9 0  -3 -0.9 0  -2.95 -0.9 0  -2.9 -0.9 0  -2.85 -0.9 0  -2.8 -0.9 0  -2.75 -0.9 0  -2.7 -0.9 0  -2.65 -0.9 0  -2.6 -0.9 0  -2.55 -0.9 0  -2.5 -0.9 0  -2.45 -0.9 0  -2.4 -0.9 0  -2.35 -0.9 0  -2.3 -0.9 0  -2.25 -0.9 0  -2.2 -0.9 0  -2.15 -0.9 0  -2.1 -0.9 0  -2.05 -0.9 0  -2 -0.9 0  -1.95 -0.9 0  -1.9 -0.9 0  -1.85 -0.9 0  -1.8 -0.9 0  -1.75 -0.9 0  -1.7 -0.9 0  -1.65 -0.9 0  -1.6 -0.9 0  -1.55 -0.9 0  -1.5 -0.9 0  -1.45 -0.9 0  -1.4 -0.9 0  -1.35 -0.9 0  -1.3 -0.9 0  -1.25 -0.9 0  -1.2 -0.9 0  -1.15 -0.9 0  -1.1 -0.9 0  -1.05 -0.9 0  -1 -0.9 0  -0.9500000000000002 -0.9 0  -0.9000000000000004 -0.9 0  -0.8499999999999996 -0.9 0  -0.7999999999999998 -0.9 0  -0.75 -0.9 0  -0.7000000000000002 -0.9 0  -0.6500000000000004 -0.9 0  -0.5999999999999996 -0.9 0  -0.5499999999999998 -0.9 0  -0.5 -0.9 0  -0.4500000000000002 -0.9 0  -0.4000000000000004 -0.9 0  -0.3499999999999996 -0.9 0  -0.2999999999999998 -0.9 0  -0.25 -0.9 0  -0.2000000000000002 -0.9 0  -0.1500000000000004 -0.9 0  -0.09999999999999964 -0.9 0  -0.04999999999999982 -0.9 0  0 -0.9 0  0.04999999999999982 -0.9 0  0.09999999999999964 -0.9 0  0.1500000000000004 -0.9 0  0.2000000000000002 -0.9 0  0.25 -0.9 0  0.2999999999999998 -0.9 0  0.3499999999999996 -0.9 0  0.4000000000000004 -0.9 0  0.4500000000000002 -0.9 0  0.5 -0.9 0  0.5499999999999998 -0.9 0  0.5999999999999996 -0.9 0  0.6500000000000004 -0.9 0  0.7000000000000002 -0.9 0  0.75 -0.9 0  0.7999999999999998 -0.9 0  0.8499999999999996 -0.9 0  0.9000000000000004 -0.9 0  0.9500000000000002 -0.9 0  1 -0.9 0  1.05 -0.9 0  1.1 -0.9 0  1.15 -0.9 0  1.2 -0.9 0  1.25 -0.9 0  1.3 -0.9 0  1.35 -0.9 0  1.4 -0.9 0  1.45 -0.9 0  1.5 -0.9 0  1.55 -0.9 0  1.6 -0.9 0  1.65 -0.9 0  1.7 -0.9 0  1.75 -0.9 0  1.8 -0.9 0  1.85 -0.9 0  1.9 -0.9 0  1.95 -0.9 0  2 -0.9 0  2.05 -0.9 0  2.1 -0.9 0  2.15 -0.9 0  2.2 -0.9 0  2.25 -0.9 0  2.3 -0.9 0  2.35 -0.9 0  2.4 -0.9 0  2.45 -0.9 0  2.5 -0.9 0  2.55 -0.9 0  2.6 -0.9 0  2.65 -0.9 0  2.7 -0.9 0  2.75 -0.9 0  2.8 -0.9 0  2.85 -0.9 0  2.9 -0.9 0  2.95 -0.9 0  3 -0.9 0  3.050000000000001 -0.9 0  3.1 -0.9 0  3.15 -0.9 0  3.199999999999999 -0.9 0  3.25 -0.9 0  3.300000000000001 -0.9 0  3.35 -0.9 0  3.4 -0.9 0  3.449999999999999 -0.9 0  3.5 -0.9 0  3.550000000000001 -0.9 0  3.6 -0.9 0  3.65 -0.9 0  3.699999999999999 -0.9 0  3.75 -0.9 0  3.800000000000001 -0.9 0  3.85 -0.9 0  3.9 -0.9 0  3.949999999999999 -0.9 0  4 -0.9 0  4.050000000000001 -0.9 0  4.1 -0.9 0  4.15 -0.9 0  4.199999999999999 -0.9 0  4.25 -0.9 0  4.300000000000001 -0.9 0  4.35 -0.9 0  4.4 -0.9 0  4.449999999999999 -0.9 0  4.5 -0.9 0  4.550000000000001 -0.9 0  4.6 -0.9 0  4.65 -0.9 0  4.699999999999999 -0.9 0  4.75 -0.9 0  4.800000000000001 -0.9 0  4.85 -0.9 0  4.9 -0.9 0  4.949999999999999 -0.9 0  5 -0.9 0  -5 -0.85 0  -4.95 -0.85 0  -4.9 -0.85 0  -4.85 -0.85 0  -4.8 -0.85 0  -4.75 -0.85 0  -4.7 -0.85 0  -4.65 -0.85 0  -4.6 -0.85 0  -4.55 -0.85 0  -4.5 -0.85 0  -
[...]
<PointData  Vectors="f_15"> 
<DataArray  type="Float64"  Name="f_15"  NumberOfComponents="3" format="ascii">8.7755068502564715e+00 0.0000000000000000e+00 0.0000000000000000e+00  8.7738309510986454e+00 8.0323481905142866e-02 0.0000000000000000e+00  8.7713685732939251e+00 1.5993859497450630e-01 0.0000000000000000e+00  8.7651046700042343e+00 2.3958348264037399e-01 0.0000000000000000e+00  8.7583761626922225e+00 3.1829882673879623e-01 0.0000000000000000e+00  8.7479583056618750e+00 3.9764770169152480e-01 0.0000000000000000e+00  8.7367226584191560e+00 4.7541457361782374e-01 0.0000000000000000e+00  8.7221238414756534e+00 5.5391011048378302e-01 0.0000000000000000e+00  8.7067275413842680e+00 6.3074550292639142e-01 0.0000000000000000e+00  8.6877601775772142e+00 7.0789360488451314e-01 0.0000000000000000e+00  8.6682944033858202e+00 7.8369949477097212e-01 0.0000000000000000e+00  8.6452581036125196e+00 8.5920742594906907e-01 0.0000000000000000e+00  8.6216507772564182e+00 9.3380165062097287e-01 0.0000000000000000e+00  8.5946508983234278e+00 1.0074110402733356e+00 0.0000000000000000e+00  8.5673121395296281e+00 1.0809356032539921e+00 0.0000000000000000e+00  8.5362505494640928e+00 1.1520513065631981e+00 0.0000000000000000e+00  8.5054722504163305e+00 1.2249748364303679e+00 0.0000000000000000e+00  8.4707130456276847e+00 1.2932000896412743e+00 0.0000000000000000e+00  8.4365432880735209e+00 1.3655911525195294e+00 0.0000000000000000e+00  8.3984034937129195e+00 1.4309928837919736e+00 0.0000000000000000e+00  8.3613103221180634e+00 1.5031334142071409e+00 0.0000000000000000e+00  8.3198386164739180e+00 1.5649963214037392e+00 0.0000000000000000e+00  8.2802734744593334e+00 1.6383465385216138e+00 0.0000000000000000e+00  8.2359206394430764e+00 1.6954412119508064e+00 0.0000000000000000e+00  8.1939882424522654e+00 1.7707173237447105e+00 0.0000000000000000e+00  8.1472851809835394e+00 1.8243702208782961e+00 0.0000000000000000e+00  8.1033463052443029e+00 1.8984127394225505e+00 0.0000000000000000e+00  8.0545599539491857e+00 1.9540740556073621e+00 0.0000000000000000e+00  8.0089690218941954e+00 2.0214983499310457e+00 0.0000000000000000e+00  7.9586204905695643e+00 2.0825522420615559e+00 0.0000000000000000e+00  7.9114796424250740e+00 2.1457493628510571e+00 0.0000000000000000e+00  7.8599773683657244e+00 2.2039070417641313e+00 0.0000000000000000e+00  7.8117589033156598e+00 2.2748805275191999e+00 0.0000000000000000e+00  7.7590987490957515e+00 2.3220848193363981e+00 0.0000000000000000e+00  7.7102659136181595e+00 2.3985191715232004e+00 0.0000000000000000e+00  7.6567591171225473e+00 2.4502218523100776e+00 0.0000000000000000e+00  7.6073229983427115e+00 2.5106027113485978e+00 0.0000000000000000e+00  7.5533229462590912e+00 2.5827365935737392e+00 0.0000000000000000e+00  7.5035998694067167e+00 2.6272571657974946e+00 0.0000000000000000e+00  7.4489490713433772e+00 2.7040982976260621e+00 0.0000000000000000e+00  7.3994086529561471e+00 2.7537606151666236e+00 0.0000000000000000e+00  7.3442821143868944e+00 2.8224623904450534e+00 0.0000000000000000e+00  7.2945819565240697e+00 2.8773197460086233e+00 0.0000000000000000e+00  7.2398066979695859e+00 2.9450879012732152e+00 0.0000000000000000e+00  7.1894549027731394e+00 3.0002790012182210e+00 0.0000000000000000e+00  7.1352962687972816e+00 3.0664358441922919e+00 0.0000000000000000e+00  7.0846386398910726e+00 3.1243669682939803e+00 0.0000000000000000e+00  7.0306952763875863e+00 3.1894014945444686e+00 0.0000000000000000e+00  6.9801764842023344e+00 3.2474442466357116e+00 0.0000000000000000e+00  6.9264087683551558e+00 3.3126369304702967e+00 0.0000000000000000e+00  6.8758371171836279e+00 3.3719020155984505e+00 0.0000000000000000e+00  6.8227545923843831e+00 3.4359811326277483e+00 0.0000000000000000e+00  6.7717316877876756e+00 3.4964510942854967e+00 0.0000000000000000e+00  6.7194829581380180e+00 3.5600189888105942e+00 0.0000000000000000e+00  6.6683153580000623e+00 3.6211886235562258e+00 0.0000000000000000e+00  6.6165191649132105e+00 3.6849489373337181e+00 0.0000000000000000e+00  6.5653962144700300e+00 3.7462489874927671e+00 0.0000000000000000e+00  6.5142356240847485e+00 3.8096343315923615e+00 0.0000000000000000e+00  6.4629553114764526e+00 3.8722328943193425e+00 0.0000000000000000e+00  6.4124121155141740e+00 3.9351065015449729e+00 0.0000000000000000e+00  6.3612487968198668e+00 3.9979344689315921e+00 0.0000000000000000e+00  6.3111848105501620e+00 4.0608994412526007e+00 0.0000000000000000e+00  6.2599456991174778e+00 4.1245210400277212e+00 0.0000000000000000e+00  6.2107080377093009e+00 4.1867370795455665e+00 0.0000000000000000e+00  6.1594534698361390e+00 4.2512233368913668e+00 0.0000000000000000e+00  6.1103952196105098e+00 4.3134386889426493e+00 0.0000000000000000e+00  6.0598821837727392e+00 4.3776887065232861e+00 0.0000000000000000e+00  6.0109513979862026e+00 4.4402901733571065e+00 0.0000000000000000e+00  5.9603954275061906e+00 4.5052533387013618e+00 0.0000000000000000e+00  5.9124177172472097e+00 4.5667856611324344e+00 0.0000000000000000e+00  5.8619784988495427e+00 4.6325536414299373e+00 0.0000000000000000e+00  5.8137560344924113e+00 4.6947659087691145e+00 0.0000000000000000e+00  5.7646379960328540e+00 4.7592148975242239e+00 0.0000000000000000e+00  5.7161063140010757e+00 4.8225338705138165e+00 0.0000000000000000e+00  5.6672677505007947e+00 4.8872663251246085e+00 0.0000000000000000e+00  5.6194549564723388e+00 4.9497929759065951e+00 0.0000000000000000e+00  5.5709965863998860e+00 5.0148532387996267e+00 0.0000000000000000e+00  5.5228057920237763e+00 5.0782935202927018e+00 0.0000000000000000e+00  5.4757685325334435e+00 5.1420274955867447e+00 0.0000000000000000e+00  5.4271705569553097e+00 5.2066240974324289e+00 0.0000000000000000e+00  5.3807137139388557e+00 5.2698358447926070e+00 0.0000000000000000e+00  5.3325417749015713e+00 5.3347284904061247e+00 0.0000000000000000e+00  5.2864587031907107e+00 5.3979004408848743e+00 0.0000000000000000e+00  5.2384116163844263e+00 5.4629695616980927e+00 0.0000000000000000e+00  5.1929529248192541e+00 5.5259921074768359e+00 0.0000000000000000e+00  5.1452556432997509e+00 5.5914406304255149e+00 0.0000000000000000e+00  5.0999205270587211e+00 5.6542252889520190e+00 0.0000000000000000e+00  5.0532103842529885e+00 5.7192785734061564e+00 0.0000000000000000e+00  5.0075295834204754e+00 5.7830865121450223e+00 0.0000000000000000e+00  4.9620954262375312e+00 5.8469060881636512e+00 0.0000000000000000e+00  4.9156426287721198e+00 5.9120644293397211e+00 0.0000000000000000e+00  4.8716601458543245e+00 5.9749669265362098e+00 0.0000000000000000e+00  4.8244519764971585e+00 6.0413596300185741e+00 0.0000000000000000e+00  4.7830267081611444e+00 6.1013749345415151e+00 0.0000000000000000e+00  4.7329353944443957e+00 6.1721254819985454e+00 0.0000000000000000e+00  4.6954647767230711e+00 6.2278550343450840e+00 0.0000000000000000e+00  4.6415756865531064e+00 6.3040236866983941e+00 0.0000000000000000e+00  4.6061988523158579e+00 6.3570482906850083e+00 0.0000000000000000e+00  4.5574411404585744e+00 6.4272692639208513e+00 0.0000000000000000e+00  4.5180064602365118e+00 6.4864545452768887e+00 0.0000000000000000e+00  4.4706481994943941e+00 6.5548616706251970e+00 0.0000000000000000e+00  4.4361766485005454e+00 6.6077584461856711e+00 0.0000000000000000e+00  4.3808469697283501e+00 6.6883719250842031e+00 0.0000000000000000e+00  4.3454069617450699e+00 6.7429196717896787e+00 0.0000000000000000e+00  4.2977400244931090e+00 6.8133613723421558e+00 0.0000000000000000e+00  4.2597409453805657e+00 6.8727901970816294e+00 0.0000000000000000e+00  4.2126023416924658e+00 6.9419073112303797e+00 0.0000000000000000e+00  4.1745845373457762e+00 7.0019609494290087e+00 0.0000000000000000e+00  4.1318551542559749e+00 7.0665261410293256e+00 0.0000000000000000e+00  4.0952936613717128e+00 7.1242883122580274e+00 0.0000000000000000e+00  4.0528328835003604e+00 7.1883871815572142e+00 0.0000000000000000e+00  4.0141877055643356e+00 7.2507945487211458e+00 0.0000000000000000e+00  3.9721301592869125e+00 7.3143131725741357e+00 0.0000000000000000e+00  3.9351439128540386e+00 7.3733386014642130e+00 0.0000000000000000e+00  3.8975312252330765e+00 7.4334589715532120e+00 0.0000000000000000e+00  3.8670232326565182e+00 7.4828709672920013e+00 0.0000000000000000e+00  3.8277731216310431e+00 7.5428732379490997e+00 0.0000000000000000e+00  3.7943298609376028e+00 7.5978723355439213e+00 0.0000000000000000e+00  3.8211764264797692e+00 7.5549947947155047e+00 0.0000000000000000e+00  3.8822751578904109e+00 7.4572219664831252e+00 0.0000000000000000e+00  3.9203333118376928e+00 7.3966991683240346e+00 0.0000000000000000e+00  3.9335108898699636e+00 7.3754091253001439e+00 0.0000000000000000e+00  3.9396742732916308e+00 7.3657515616223286e+00 0.0000000000000000e+00  3.9432566129110871e+00 7.3595595419510511e+00 0.0000000000000000e+00  3.9464985593687794e+00 7.3548236726973650e+00 0.0000000000000000e+00  3.9479927529858272e+00 7.3517685430336037e+00 0.0000000000000000e+00  3.9499687910954497e+00 7.3491915627956965e+00 0.0000000000000000e+00  3.9518077081482157e+00 7.3457673040484393e+00 0.0000000000000000e+00  3.9541498450641224e+00 7.3431324661934898e+00 0.0000000000000000e+00  3.9558086362495417e+00 7.3398149966680668e+00 0.0000000000000000e+00  3.9568002954772936e+00 7.3394228274525153e+00 0.0000000000000000e+00  3.9572192812654978e+00 7.3370616802617681e+00 0.0000000000000000e+00  3.9574991198875114e+00 7.3385118919370358e+00 0.0000000000000000e+00  3.9577185009838156e+00 7.3350950013930767e+00 0.0000000000000000e+00  3.9584494171014195e+00 7.3379705942665137e+00 0.0000000000000000e+00  3.9582329235156197e+00 7.3325388050745408e+00 0.0000000000000000e+00  3.9596163966967119e+00 7.3381833282120636e+00 0.0000000000000000e+00  3.9581239580358254e+00 7.3297749353812591e+00 0.0000000000000000e+00  3.9608570821872404e+00 7.3395717272634169e+00 0.0000000000000000e+00  3.9573718795425843e+00 7.3264292820277097e+00 0.0000000000000000e+00  3.9625515596294418e+00 7.3420220515241592e+00 0.0000000000000000e+00  3.9559747411162069e+00 7.3222068072478184e+00 0.0000000000000000e+00  3.9648109216213552e+00 7.3455614723596137e+00 0.0000000000000000e+00  3.9538137253973877e+00 7.3172675248898766e+00 0.0000000000000000e+00  3.9676007523365109e+00 7.3499856623155209e+00 0.0000000000000000e+00  3.9509360714422082e+00 7.3117977576228226e+00 0.0000000000000000e+00  3.9709552336834175e+00 7.3550549489580730e+00 0.0000000000000000e+00  3.9474187733723505e+00 7.3058647001684873e+00 0.0000000000000000e+00  3.9747852639656300e+00 7.3605172900844833e+00 0.0000000000000000e+00  3.9435485168342757e+00 7.2999276005260141e+00 0.0000000000000000e+00  3.9786524925821345e+00 7.3657038861462656e+00 0.0000000000000000e+00  3.9397788281957462e+00 7.2945516419585488e+00 0.0000000000000000e+00  3.9822940488582703e+00 7.3704573020451587e+00 0.0000000000000000e+00  3.9361702155000278e+00 7.2894330010801704e+00 0.0000000000000000e+00  3.9856648124423208e+00 7.3749779110879210e+00 0.0000000000000000e+00  3.9331214443357716e+00 7.2851405160482967e+00 0.0000000000000000e+00  3.9878939552698855e+00 7.3777234784702248e+00 0.0000000000000000e+00  3.9316426319445772e+00 7.2833843316006082e+00 0.0000000000000000e+00  3.9884953862062944e+00 7.3780799748101993e+00 0.0000000000000000e+00  3.9313735231820708e+00 7.2830661479567800e+00 0.0000000000000000e+00  3.9882013502979694e+00 7.3775228805083843e+00 0.0000000000000000e+00  3.9323477318018831e+00 7.2845436574983262e+00 0.0000000000000000e+00  3.9854063426792519e+00 7.3723868424992851e+00 0.0000000000000000e+00  3.9371654350466812e+00 7.2929528215882957e+00 0.0000000000000000e+00  3.9783973117768943e+00 7.3598768812611768e+00 0.0000000000000000e+00  3.9450434614186256e+00 7.3053827273176504e+00 0.0000000000000000e+00  3.9700480622959051e+00 7.3461916698231651e+00 0.0000000000000000e+00  3.9537486588503592e+00 7.3180945043545540e+00 0.0000000000000000e+00  3.9590060287268418e+00 7.3263886199017012e+00 0.0000000000000000e+00  3.9683381198064818e+00 7.3425935385119052e+00 0.0000000000000000e+00  3.9402916715841112e+00 7.2912478878736771e+00 0.0000000000000000e+00  3.9887962881062702e+00 7.3748554246108569e+00 0.0000000000000000e+00  3.9205883302199549e+00 7.2578916390892712e+00 0.0000000000000000e+00  4.0057668514279889e+00 7.3968749448761857e+00 0.0000000000000000e+00  3.9045690942872882e+00 7.2288413956043387e+00 0.0000000000000000e+00  4.0238514573654429e+00 7.4269625465789515e+00 0.0000000000000000e+00  3.8814457245425666e+00 7.1790142726846424e+00 0.0000000000000000e+00  4.0506066348919632e+00 7.4718686281465825e+00 0.0000000000000000e+00  3.8558219516896091e+00 7.1346830132973169e+00 0.0000000000000000e+00  4.0678215531446762e+00 7.4867215482949119e+00 0.0000000000000000e+00  3.8496337665975999e+00 7.1292084825826967e+00 0.0000000000000000e+00  4.0656813014757232e+00 7.4819649247621030e+00 0.0000000000000000e+00  3.8513839435772943e+00 7.1113086157355525e+00 0.0000000000000000e+00  4.0720023410229302e+00 7.5080044799380596e+00 0.0000000000000000e+00  3.8363443799746273e+00 7.0785397530231746e+00 0.0000000000000000e+00  4.0844917178296249e+00 7.5068329498943109e+00 0.0000000000000000e+00  3.8381138580256553e+00 7.1139081216079880e+00 0.0000000000000000e+00  4.0596678956623311e+00 7.4459016040921604e+00 0.0000000000000000e+00  3.8789589797970541e+00 7.1600457919542375e+00 0.0000000000000000e+00  4.0207519793487476e+00 7.4295763472289673e+00 0.0000000000000000e+00  3.8982012205640943e+00 7.1439899765424570e+00 0.0000000000000000e+00  4.0197433503689268e+00 7.4533395240802616e+00 0.0000000000000000e+00  3.9058841341318629e+00 7.0883346023879472e+00 0.0000000000000000e+00  3.9313902880737022e+00 7.6194394177735401e+00 0.0000000000000000e+00  4.2428079673232242e+00 6.6094723722950945e+00 0.0000000000000000e+00  3.2655645222354059e+00 8.5310275302892773e+00 0.0000000000000000e+00  7.8176778932756106e+00 1.8114328416329242e+00 0.0000000000000000e+00  9.1948543276825543e+00 1.5221248141377358e-01 0.0000000000000000e+00  9.4878267177977520e+00 1.0242203995173825e-01 0.0000000000000000e+00  9.3509809890433839e+00 6.1315262646157462e-04 0.0000000000000000e+00  9.4791100765417617e+00 0.0000000000000000e+00 0.0000000000000000e+00  8.7743291443108991e+00 0.0000000000000000e+00 1.9890037281745823e-03  8.7735209916632932e+00 7.8397949511975970e-02 -1.4226258163042313e-03  8.7699070640523740e+00 1.5885140215421054e-01 1.1525303049299994e-03  8.7647038595466036e+00 2.3701943244546161e-01 -1.3895986591618878e-03  8.7569781446859452e+00 3.1756077530295584e-01 1.4872820330066280e-03  8.7472526769710299e+00 3.9486574094456028e-01 -1.5673079721463699e-03  8.7352828907142985e+00 4.7480300348788990e-01 1.6420574438158018e-03  8.7214180262711256e+00 5.5118625314993264e-01 -1.6677139455973215e-03  8.7050060595067045e+00 6.3009753253482936e-01 1.7361911845739223e-03  8.6870494113322057e+00 7.0532729074867462e-01 -1.7687680023701512e-03  8.6665153975220814e+00 7.8301075759760863e-01 1.8363890869140382e-03  8.6443541130832831e+00 8.5678328209005883e-01 -1.8752469269709149e-03  8.6198042881154375e+00 9.3308385485716050e-01 1.9542663265178901e-03  8.5938054661715277e+00 1.0052864934148229e+00 -2.0218471598940093e-03  8.5651660440747772e+00 1.0799056499575463e+00 2.1313311900146487e-03  8.5355443556932418e+00 1.1505675691794364e+00 -2.2180977273637864e-03  8.5032178459970442e+00 1.2234653854808295e+00 2.3044816388364288e-03  8.4699574422658568e+00 1.2923129889502987e+00 -2.3458514343950216e-03  8.4342736188334619e+00 1.3637368537943633e+00 2.3672115147303102e-03  8.3977986225649008e+00 1.4308069558702401e+00 -2.3856663536783325e-03  8.3588241178367593e+00 1.5004118179314063e+00 2.4063627167882590e-03  8.3195309303443654e+00 1.5664261201240013e+00 -2.4261865520735955e-03  8.2777567722946515e+00 1.6338889109767420e+00 2.3375469599778084e-03  8.2356867660739219e+00 1.6988702786389769e+00 -2.0785689108445606e-03  8.1917023905969160e+00 1.7651338757208426e+00 1.5114055404016099e-03  8.1471599448586360e+00 1.8281082275928993e+00 -7.2871283896176135e-04  8.1012555403340176e+00 1.8944107118521050e+00 -1.7196371465246261e-04  8.0546657735275762e+00 1.9552789805647033e+00 7.7001312718265119e-04  8.0071815879044159e+00 2.0208691893491575e+00 -8.2127324175284286e-04  7.9589798879152953e+00 2.0823464272711454e+00 7.1640759942857014e-05  7.9099428958733764e+00 2.1439176660206991e+00 1.2033319820049274e-03  7.8609810369605224e+00 2.2091020181742920e+00 -2.6744257550265008e-03  7.8101616307035844e+00 2.2671421227777113e+00 3.8594578078948961e-03  7.7610235930042855e+00 2.3307451402033350e+00 -4.8562855041905263e-03  7.7086968525595907e+00 2.3956599189936401e+00 5.9820220639921432e-03  7.6595235592800037e+00 2.4467950323536596e+00 -7.7778041490185763e-03  7.6058813214114886e+00 2.5247156191404527e+00 1.0062085672496786e-02  7.5570756619712283e+00 2.5668221527501935e+00 -1.2070793538920556e-02  7.5022527531553944e+00 2.6462429056214054e+00 1.2583694512510742e-02  7.4535152700337903e+00 2.6932485938575002e+00 -1.1091443148532066e-02  7.3987826330055260e+00 2.7652739933036488e+00 8.1059076223827797e-03  7.3488310991253716e+00 2.8186304943321119e+00 -5.0657154860095036e-03  7.2953874205601865e+00 2.8864249304633383e+00 3.0815594284089856e-03  7.2440536480648925e+00 2.9436767733814939e+00 -2.4475751491524682e-03  7.1914074588967276e+00 3.0075701090306102e+00 2.4706508387665809e-03  7.1398037357464528e+00 3.0680070471148073e+00 -2.5485900187947577e-03  7.0870865793569120e+00 3.1316059625890498e+00 2.3607869891283839e-03  7.0357649351919855e+00 3.1906582468076996e+00 -2.1078560275882446e-03  6.9830298825696344e+00 3.2555389829939827e+00 1.8361323732578960e-03  6.9317043660451754e+00 3.3155027488847413e+00 -1.6501363181483423e-03  6.8794172014601473e+00 3.3789187853379241e+00 1.5185934532903843e-03  6.8278551828182410e+00 3.4399457312524175e+00 -1.4988565609450983e-03  6.7759749806283756e+00 3.5035607973067298e+00 1.4589489814661816e-03  6.7246006516325947e+00 3.5644919926462779e+00 -1.3646131066448464e-03  6.6727112181405897e+00 3.6284568434566657e+00 1.2417923998898411e-03  6.6217059818518198e+00 3.6893225784912866e+00 -1.2021282837155760e-03  6.5700333797311554e+00 3.7532983168864074e+00 1.1808252653899500e-03  6.5191211051779598e+00 3.8149690869747026e+00 -1.1262431927217490e-03  6.4677512619965691e+00 3.8785367822290726e+00 1.0563593490483603e-03  6.4171457957108125e+00 3.9401409444317195e+00 -1.0317263924371617e-03  6.3659398779954621e+00 4.0042715643324840e+00 1.0044815058445175e-03  6.3155134330606693e+00 4.0661269657681647e+00 -9.3869223074892851e-04  6.2648100613851847e+00 4.1297613425100153e+00 8.8682012966892964e-04  6.2145264280180994e+00 4.1921437832691399e+00 -8.6806813462117504e-04  6.1638976331167026e+00 4.2560338061787242e+00 8.4785700860252541e-04  6.1143315210699791e+00 4.3180130419212839e+00 -7.9511655978085926e-04  6.0638093905411452e+00 4.3823667285498491e+00 7.6089797554518073e-04  6.0142014263908408e+00 4.4448143161554059e+00 -7.2381628990903423e-04  5.9646413484966345e+00 4.5082769416552075e+00 6.9522131637463069e-04  5.9150276675035620e+00 4.5715300884752228e+00 -6.4883987586614774e-04  5.8654455349101946e+00 4.6354641006492781e+00 6.2846673868300132e-04  5.8168543068460679e+00 4.6977247675508647e+00 -5.8680407364026025e-04  5.7673170635247333e+00 4.7623971896254327e+00 5.7133297550096464e-04  5.7185984161801890e+00 4.8253675910370655e+00 -5.1961554594583017e-04  5.6702544671606052e+00 4.8887222753072050e+00 4.8622129032554535e-04  5.6214241521693644e+00 4.9527097419225719e+00 -4.3897528762142123e-04  5.5731637631782407e+00 5.0164941215611183e+00 4.7369952045781856e-04  5.5253124216239478e+00 5.0796107904559094e+00 -4.6994340680500798e-04  5.4770950481726910e+00 5.1440558825402363e+00 4.8943315580816005e-04  5.4293235374126070e+00 5.2074890254928139e+00 -4.4790438355624449e-04  5.3820212099341793e+00 5.2714692654185349e+00 4.6683145780632666e-04  5.3343158321470181e+00 5.3353900438104747e+00 -4.5341936561870316e-04  5.2872556393630559e+00 5.3993840500340564