<?xml version="1.0"?>
<VTKFile type="UnstructuredGrid"  version="0.1"  >
<UnstructuredGrid>
<Piece  NumberOfPoints="8241" NumberOfCells="16000">
<Points>
<DataArray  type="Float64"  NumberOfComponents="3"  format="ascii">-5 -1 0  -4.95 -1 0  -4.9 -1 0  -4.85 -1 0  -4.8 -1 0  -4.75 -1 0  -4.7 -1 0  -4.65 -1 0  -4.6 -1 0  -4.55 -1 0  -4.5 -1 0  -4.45 -1 0  -4.4 -1 0  -4.35 -1 0  -4.3 -1 0  -4.25 -1 0  -4.2 -1 0  -4.15 -1 0  -4.1 -1 0  -4.05 -1 0  -4 -1 0  -3.95 -1 0  -3.9 -1 0  -3.85 -1 0  -3.8 -1 0  -3.75 -1 0  -3.7 -1 0  -3.65 -1 0  -3.6 -1 0  -3.55 -1 0  -3.5 -1 0  -3.45 -1 0  -3.4 -1 0  -3.35 -1 0  -3.3 -1 0  -3.25 -1 0  -3.2 -1 0  -3.15 -1 0  -3.1 -1 0  -3.05 -1 0  -3 -1 0  -2.95 -1 0  -2.9 -1 0  -2.85 -1 0  -2.8 -1 0  -2.75 -1 0  -2.7 -1 0  -2.65 -1 0  -2.6 -1 0  -2.55 -1 0  -2.5 -1 0  -2.45 -1 0  -2.4 -1 0  -2.35 -1 0  -2.3 -1 0  -2.25 -1 0  -2.2 -1 0  -2.15 -1 0  -2.1 -1 0  -2.05 -1 0  -2 -1 0  -1.95 -1 0  -1.9 -1 0  -1.85 -1 0  -1.8 -1 0  -1.75 -1 0  -1.7 -1 0  -1.65 -1 0  -1.6 -1 0  -1.55 -1 0  -1.5 -1 0  -1.45 -1 0  -1.4 -1 0  -1.35 -1 0  -1.3 -1 0  -1.25 -1 0  -1.2 -1 0  -1.15 -1 0  -1.1 -1 0  -1.05 -1 0  -1 -1 0  -0.9500000000000002 -1 0  -0.9000000000000004 -1 0  -0.8499999999999996 -1 0  -0.7999999999999998 -1 0  -0.75 -1 0  -0.7000000000000002 -1 0  -0.6500000000000004 -1 0  -0.5999999999999996 -1 0  -0.5499999999999998 -1 0  -0.5 -1 0  -0.4500000000000002 -1 0  -0.4000000000000004 -1 0  -0.3499999999999996 -1 0  -0.2999999999999998 -1 0  -0.25 -1 0  -0.2000000000000002 -1 0  -0.1500000000000004 -1 0  -0.09999999999999964 -1 0  -0.04999999999999982 -1 0  0 -1 0  0.04999999999999982 -1 0  0.09999999999999964 -1 0  0.1500000000000004 -1 0  0.2000000000000002 -1 0  0.25 -1 0  0.2999999999999998 -1 0  0.3499999999999996 -1 0  0.4000000000000004 -1 0  0.4500000000000002 -1 0  0.5 -1 0  0.5499999999999998 -1 0  0.5999999999999996 -1 0  0.6500000000000004 -1 0  0.7000000000000002 -1 0  0.75 -1 0  0.7999999999999998 -1 0  0.8499999999999996 -1 0  0.9000000000000004 -1 0  0.9500000000000002 -1 0  1 -1 0  1.05 -1 0  1.1 -1 0  1.15 -1 0  1.2 -1 0  1.25 -1 0  1.3 -1 0  1.35 -1 0  1.4 -1 0  1.45 -1 0  1.5 -1 0  1.55 -1 0  1.6 -1 0  1.65 -1 0  1.7 -1 0  1.75 -1 0  1.8 -1 0  1.85 -1 0  1.9 -1 0  1.95 -1 0  2 -1 0  2.05 -1 0  2.1 -1 0  2.15 -1 0  2.2 -1 0  2.25 -1 0  2.3 -1 0  2.35 -1 0  2.4 -1 0  2.45 -1 0  2.5 -1 0  2.55 -1 0  2.6 -1 0  2.65 -1 0  2.7 -1 0  2.75 -1 0  2.8 -1 0  2.85 -1 0  2.9 -1 0  2.95 -1 0  3 -1 0  3.050000000000001 -1 0  3.1 -1 0  3.15 -1 0  3.199999999999999 -1 0  3.25 -1 0  3.300000000000001 -1 0  3.35 -1 0  3.4 -1 0  3.449999999999999 -1 0  3.5 -1 0  3.550000000000001 -1 0  3.6 -1 0  3.65 -1 0  3.699999999999999 -1 0  3.75 -1 0  3.800000000000001 -1 0  3.85 -1 0  3.9 -1 0  3.949999999999999 -1 0  4 -1 0  4.050000000000001 -1 0  4.1 -1 0  4.15 -1 0  4.199999999999999 -1 0  4.25 -1 0  4.300000000000001 -1 0  4.35 -1 0  4.4 -1 0  4.449999999999999 -1 0  4.5 -1 0  4.550000000000001 -1 0  4.6 -1 0  4.65 -1 0  4.699999999999999 -1 0  4.75 -1 0  4.800000000000001 -1 0  4.85 -1 0  4.9 -1 0  4.949999999999999 -1 0  5 -1 0  -5 -0.95 0  -4.95 -0.95 0  -4.9 -0.95 0  -4.85 -0.95 0  -4.8 -0.95 0  -4.75 -0.95 0  -4.7 -0.95 0  -4.65 -0.95 0  -4.6 -0.95 0  -4.55 -0.95 0  -4.5 -0.95 0  -4.45 -0.95 0  -4.4 -0.95 0  -4.35 -0.95 0  -4.3 -0.95 0  -4.25 -0.95 0  -4.2 -0.95 0  -4.15 -0.95 0  -4.1 -0.95 0  -4.05 -0.95 0  -4 -0.95 0  -3.95 -0.95 0  -3.9 -0.95 0  -3.85 -0.95 0  -3.8 -0.95 0  -3.75 -0.95 0  -3.7 -0.95 0  -3.65 -0.95 0  -3.6 -0.95 0  -3.55 -0.95 0  -3.5 -0.95 0  -3.45 -0.95 0  -3.4 -0.95 0  -3.35 -0.95 0  -3.3 -0.95 0  -3.25 -0.95 0  -3.2 -0.95 0  -3.15 -0.95 0  -3.1 -0.95 0  -3.05 -0.95 0  -3 -0.95 0  -2.95 -0.95 0  -2.9 -0.95 0  -2.85 -0.95 0  -2.8 -0.95 0  -2.75 -0.95 0  -2.7 -0.95 0  -2.65 -0.95 0  -2.6 -0.95 0  -2.55 -0.95 0  -2.5 -0.95 0  -2.45 -0.95 0  -2.4 -0.95 0  -2.35 -0.95 0  -2.3 -0.95 0  -2.25 -0.95 0  -2.2 -0.95 0  -2.15 -0.95 0  -2.1 -0.95 0  -2.05 -0.95 0  -2 -0.95 0  -1.95 -0.95 0  -1.9 -0.95 0  -1.85 -0.95 0  -1.8 -0.95 0  -1.75 -0.95 0  -1.7 -0.95 0  -1.65 -0.95 0  -1.6 -0.95 0  -1.55 -0.95 0  -1.5 -0.95 0  -1.45 -0.95 0  -1.4 -0.95 0  -1.35 -0.95 0  -1.3 -0.95 0  -1.25 -0.95 0  -1.2 -0.95 0  -1.15 -0.95 0  -1.1 -0.95 0  -1.05 -0.95 0  -1 -0.95 0  -0.9500000000000002 -0.95 0  -0.9000000000000004 -0.95 0  -0.8499999999999996 -0.95 0  -0.7999999999999998 -0.95 0  -0.75 -0.95 0  -0.7000000000000002 -0.95 0  -0.6500000000000004 -0.95 0  -0.5999999999999996 -0.95 0  -0.5499999999999998 -0.95 0  -0.5 -0.95 0  -0.4500000000000002 -0.95 0  -0.4000000000000004 -0.95 0  -0.3499999999999996 -0.95 0  -0.2999999999999998 -0.95 0  -0.25 -0.95 0  -0.2000000000000002 -0.95 0  -0.1500000000000004 -0.95 0  -0.09999999999999964 -0.95 0  -0.04999999999999982 -0.95 0  0 -0.95 0  0.04999999999999982 -0.95 0  0.09999999999999964 -0.95 0  0.1500000000000004 -0.95 0  0.2000000000000002 -0.95 0  0.25 -0.95 0  0.2999999999999998 -0.95 0  0.3499999999999996 -0.95 0  0.4000000000000004 -0.95 0  0.4500000000000002 -0.95 0  0.5 -0.95 0  0.5499999999999998 -0.95 0  0.5999999999999996 -0.95 0  0.6500000000000004 -0.95 0  0.7000000000000002 -0.95 0  0.75 -0.95 0  0.7999999999999998 -0.95 0  0.8499999999999996 -0.95 0  0.9000000000000004 -0.95 0  0.9500000000000002 -0.95 0  1 -0.95 0  1.05 -0.95 0  1.1 -0.95 0  1.15 -0.95 0  1.2 -0.95 0  1.25 -0.95 0  1.3 -0.95 0  1.35 -0.95 0  1.4 -0.95 0  1.45 -0.95 0  1.5 -0.95 0  1.55 -0.95 0  1.6 -0.95 0  1.65 -0.95 0  1.7 -0.95 0  1.75 -0.95 0  1.8 -0.95 0  1.85 -0.95 0  1.9 -0.95 0  1.95 -0.95 0  2 -0.95 0  2.05 -0.95 0  2.1 -0.95 0  2.15 -0.95 0  2.2 -0.95 0  2.25 -0.95 0  2.3 -0.95 0  2.35 -0.95 0  2.4 -0.95 0  2.45 -0.95 0  2.5 -0.95 0  2.55 -0.95 0  2.6 -0.95 0  2.65 -0.95 0  2.7 -0.95 0  2.75 -0.95 0  2.8 -0.95 0  2.85 -0.95 0  2.9 -0.95 0  2.95 -0.95 0  3 -0.95 0  3.050000000000001 -0.95 0  3.1 -0.95 0  3.15 -0.95 0  3.199999999999999 -0.95 0  3.25 -0.95 0  3.300000000000001 -0.95 0  3.35 -0.95 0  3.4 -0.95 0  3.449999999999999 -0.95 0  3.5 -0.95 0  3.550000000000001 -0.95 0  3.6 -0.95 0  3.65 -0.95 0  3.699999999999999 -0.95 0  3.75 -0.95 0  3.800000000000001 -0.95 0  3.85 -0.95 0  3.9 -0.95 0  3.949999999999999 -0.95 0  4 -0.95 0  4.050000000000001 -0.95 0  4.1 -0.95 0  4.15 -0.95 0  4.199999999999999 -0.95 0  4.25 -0.95 0  4.300000000000001 -0.95 0  4.35 -0.95 0  4.4 -0.95 0  4.449999999999999 -0.95 0  4.5 -0.95 0  4.550000000000001 -0.95 0  4.6 -0.95 0  4.65 -0.95 0  4.699999999999999 -0.95 0  4.75 -0.95 0  4.800000000000001 -0.95 0  4.85 -0.95 0  4.9 -0.95 0  4.949999999999999 -0.95 0  5 -0.95 0  -5 -0.9 0  -4.95 -0.9 0  -4.9 -0.9 0  -4.85 -0.9 0  -4.8 -0.9 0  -4.75 -0.9 0  -4.7 -0.9 0  -4.65 -0.9 0  -4.6 -0.9 0  -4.55 -0.9 0  -4.5 -0.9 0  -4.45 -0.9 0  -4.4 -0.9 0  -4.35 -0.9 0  -4.3 -0.9 0  -4.25 -0.9 0  -4.2 -0.9 0  -4.15 -0.9 0  -4.1 -0.9 0  -4.05 -0.9 0  -4 -0.9 0  -3.95 -0.9 0  -3.9 -0.9 0  -3.85 -0.9 0  -3.8 -0.9 0  -3.75 -0.9 0  -3.7 -0.9 0  -3.65 -0.9 0  -3.6 -0.9 0  -3.55 -0.9 0  -3.5 -0.9 0  -3.45 -0.9 0  -3.4 -0.9 0  -3.35 -0.9 0  -3.3 -0.9 0  -3.25 -0.9 0  -3.2 -0.9 0  -3.15 -0.9 0  -3.1 -0.9 0  -3.05 -0.9 0  -3 -0.9 0  -2.95 -0.9 0  -2.9 -0.9 0  -2.85 -0.9 0  -2.8 -0.9 0  -2.75 -0.9 0  -2.7 -0.9 0  -2.65 -0.9 0  -2.6 -0.9 0  -2.55 -0.9 0  -2.5 -0.9 0  -2.45 -0.9 0  -2.4 -0.9 0  -2.35 -0.9 0  -2.3 -0.9 0  -2.25 -0.9 0  -2.2 -0.9 0  -2.15 -0.9 0  -2.1 -0.9 0  -2.05 -0.9 0  -2 -0.9 0  -1.95 -0.9 0  -1.9 -0.9 0  -1.85 -0.9 0  -1.8 -0.9 0  -1.75 -0.9 0  -1.7 -0.9 0  -1.65 -0.9 0  -1.6 -0.9 0  -1.55 -0.9 0  -1.5 -0.9 0  -1.45 -0.9 0  -1.4 -0.9 0  -1.35 -0.9 0  -1.3 -0.9 0  -1.25 -0.9 0  -1.2 -0.9 0  -1.15 -0.9 0  -1.1 -0.9 0  -1.05 -0.9 0  -1 -0.9 0  -0.9500000000000002 -0.9 0  -0.9000000000000004 -0.9 0  -0.8499999999999996 -0.9 0  -0.7999999999999998 -0.9 0  -0.75 -0.9 0  -0.7000000000000002 -0.9 0  -0.6500000000000004 -0.9 0  -0.5999999999999996 -0.9 0  -0.5499999999999998 -0.9 0  -0.5 -0.9 0  -0.4500000000000002 -0.9 0  -0.4000000000000004 -0.9 0  -0.3499999999999996 -0.9 0  -0.2999999999999998 -0.9 0  -0.25 -0.9 0  -0.2000000000000002 -0.9 0  -0.1500000000000004 -0.9 0  -0.09999999999999964 -0.9 0  -0.04999999999999982 -0.9 0  0 -0.9 0  0.04999999999999982 -0.9 0  0.09999999999999964 -0.9 0  0.1500000000000004 -0.9 0  0.2000000000000002 -0.9 0  0.25 -0.9 0  0.2999999999999998 -0.9 0  0.3499999999999996 -0.9 0  0.4000000000000004 -0.9 0  0.4500000000000002 -0.9 0  0.5 -0.9 0  0.5499999999999998 -0.9 0  0.5999999999999996 -0.9 0  0.6500000000000004 -0.9 0  0.7000000000000002 -0.9 0  0.75 -0.9 0  0.7999999999999998 -0.9 0  0.8499999999999996 -0.9 0  0.9000000000000004 -0.9 0  0.9500000000000002 -0.9 0  1 -0.9 0  1.05 -0.9 0  1.1 -0.9 0  1.15 -0.9 0  1.2 -0.9 0  1.25 -0.9 0  1.3 -0.9 0  1.35 -0.9 0  1.4 -0.9 0  1.45 -0.9 0  1.5 -0.9 0  1.55 -0.9 0  1.6 -0.9 0  1.65 -0.9 0  1.7 -0.9 0  1.75 -0.9 0  1.8 -0.9 0  1.85 -0.9 0  1.9 -0.9 0  1.95 -0.9 0  2 -0.9 0  2.05 -0.9 0  2.1 -0.9 0  2.15 -0.9 0  2.2 -0.9 0  2.25 -0.9 0  2.3 -0.9 0  2.35 -0.9 0  2.4 -0.9 0  2.45 -0.9 0  2.5 -0.9 0  2.55 -0.9 0  2.6 -0.9 0  2.65 -0.9 0  2.7 -0.9 0  2.75 -0.9 0  2.8 -0.9 0  2.85 -0.9 0  2.9 -0.9 0  2.95 -0.9 0  3 -0.9 0  3.050000000000001 -0.9 0  3.1 -0.9 0  3.15 -0.9 0  3.199999999999999 -0.9 0  3.25 -0.9 0  3.300000000000001 -0.9 0  3.35 -0.9 0  3.4 -0.9 0  3.449999999999999 -0.9 0  3.5 -0.9 0  3.550000000000001 -0.9 0  3.6 -0.9 0  3.65 -0.9 0  3.699999999999999 -0.9 0  3.75 -0.9 0  3.800000000000001 -0.9 0  3.85 -0.9 0  3.9 -0.9 0  3.949999999999999 -0.9 0  4 -0.9 0  4.050000000000001 -0.9 0  4.1 -0.9 0  4.15 -0.9 0  4.199999999999999 -0.9 0  4.25 -0.9 0  4.300000000000001 -0.9 0  4.35 -0.9 0  4.4 -0.9 0  4.449999999999999 -0.9 0  4.5 -0.9 0  4.550000000000001 -0.9 0  4.6 -0.9 0  4.65 -0.9 0  4.699999999999999 -0.9 0  4.75 -0.9 0  4.800000000000001 -0.9 0  4.85 -0.9 0  4.9 -0.9 0  4.949999999999999 -0.9 0  5 -0.9 0  -5 -0.85 0  -4.95 -0.85 0  -4.9 -0.85 0  -4.85 -0.85 0  -4.8 -0.85 0  -4.75 -0.85 0  -4.7 -0.85 0  -4.65 -0.85 0  -4.6 -0.85 0  -4.55 -0.85 0  -4.5 -0.85 0  -
[...]
<PointData  Vectors="f_15"> 
<DataArray  type="Float64"  Name="f_15"  NumberOfComponents="3" format="ascii">2.9872026466505557e+00 0.0000000000000000e+00 0.0000000000000000e+00  3.0013834974007962e+00 1.5052092616065087e-02 0.0000000000000000e+00  2.9857853737423539e+00 -2.8399454707993623e-02 0.0000000000000000e+00  3.0017621327639343e+00 9.8428025710506194e-03 0.0000000000000000e+00  2.9845868501521009e+00 -1.8460811129805129e-02 0.0000000000000000e+00  3.0003238601110875e+00 2.7639610812505680e-03 0.0000000000000000e+00  2.9835748817541621e+00 -9.2030056595352079e-03 0.0000000000000000e+00  2.9979990492216002e+00 3.1046728432007945e-03 0.0000000000000000e+00  2.9807806911603598e+00 -1.5258246272633461e-03 0.0000000000000000e+00  2.9951136683497230e+00 7.8333361115485584e-03 0.0000000000000000e+00  2.9763747945002952e+00 9.8684561978809923e-03 0.0000000000000000e+00  2.9895454610364247e+00 1.6072888623154528e-02 0.0000000000000000e+00  2.9706197481594256e+00 2.5663353784883759e-02 0.0000000000000000e+00  2.9812703929779714e+00 3.0129980980240535e-02 0.0000000000000000e+00  2.9613041349531573e+00 4.6682238581010768e-02 0.0000000000000000e+00  2.9706373754403619e+00 5.0268846157448935e-02 0.0000000000000000e+00  2.9484959918922096e+00 7.4635369762396236e-02 0.0000000000000000e+00  2.9555952546482533e+00 7.7090958590471714e-02 0.0000000000000000e+00  2.9327950581508162e+00 1.0939029046470126e-01 0.0000000000000000e+00  2.9365592185699310e+00 1.1126407471806626e-01 0.0000000000000000e+00  2.9124485613784303e+00 1.5144980579876000e-01 0.0000000000000000e+00  2.9144593097773264e+00 1.5183857438125836e-01 0.0000000000000000e+00  2.8882777489450175e+00 2.0096528347056583e-01 0.0000000000000000e+00  2.8878204609072275e+00 1.9902931872532989e-01 0.0000000000000000e+00  2.8614858658255939e+00 2.5640257823513940e-01 0.0000000000000000e+00  2.8577506419486518e+00 2.5259083643981445e-01 0.0000000000000000e+00  2.8307462775528869e+00 3.1792901272800494e-01 0.0000000000000000e+00  2.8255856012730085e+00 3.1056388485992875e-01 0.0000000000000000e+00  2.7972950112671735e+00 3.8529588862504610e-01 0.0000000000000000e+00  2.7900194310929223e+00 3.7322328031016205e-01 0.0000000000000000e+00  2.7624833229695032e+00 4.5621406809146453e-01 0.0000000000000000e+00  2.7523078897391660e+00 4.4055705836317754e-01 0.0000000000000000e+00  2.7249284654355765e+00 5.3113260843372168e-01 0.0000000000000000e+00  2.7137911845446610e+00 5.0982972594484677e-01 0.0000000000000000e+00  2.6857879553495811e+00 6.1076461895449208e-01 0.0000000000000000e+00  2.6730764678946133e+00 5.8142695983997938e-01 0.0000000000000000e+00  2.6462891374326829e+00 6.9173900176994074e-01 0.0000000000000000e+00  2.6313032806661392e+00 6.5812402031001327e-01 0.0000000000000000e+00  2.6049107933656757e+00 7.7177273441646299e-01 0.0000000000000000e+00  2.5897867241661867e+00 7.3990899865171211e-01 0.0000000000000000e+00  2.5624661057988058e+00 8.4982906539121394e-01 0.0000000000000000e+00  2.5472370207699617e+00 8.2923845801135965e-01 0.0000000000000000e+00  2.5200977820808359e+00 9.2066350481398040e-01 0.0000000000000000e+00  2.5042997837901431e+00 9.3030768210622927e-01 0.0000000000000000e+00  2.4767505871946787e+00 9.8417839145061392e-01 0.0000000000000000e+00  2.4618393664510290e+00 1.0365824828684844e+00 0.0000000000000000e+00  2.4329836248387955e+00 1.0508798938653690e+00 0.0000000000000000e+00  2.4188142944493554e+00 1.1387033399212410e+00 0.0000000000000000e+00  2.3896727491692631e+00 1.1251705453965415e+00 0.0000000000000000e+00  2.3754707776486743e+00 1.2363703349497395e+00 0.0000000000000000e+00  2.3461359736195537e+00 1.2074038022820663e+00 0.0000000000000000e+00  2.3325491163838716e+00 1.3239325970188722e+00 0.0000000000000000e+00  2.3024068918215335e+00 1.3048510939226703e+00 0.0000000000000000e+00  2.2896751995534204e+00 1.4001187086348237e+00 0.0000000000000000e+00  2.2589221524588416e+00 1.4043617903706807e+00 0.0000000000000000e+00  2.2469965484775951e+00 1.4875192369524077e+00 0.0000000000000000e+00  2.2152625721238683e+00 1.4902853194801351e+00 0.0000000000000000e+00  2.2050389259671856e+00 1.5786911136365722e+00 0.0000000000000000e+00  2.1716036349554892e+00 1.5874303729603749e+00 0.0000000000000000e+00  2.1631967729752262e+00 1.6578849886439886e+00 0.0000000000000000e+00  2.1287352175277756e+00 1.6830900403458751e+00 0.0000000000000000e+00  2.1212768445117973e+00 1.7517764439318018e+00 0.0000000000000000e+00  2.0864861255046958e+00 1.7699115356900532e+00 0.0000000000000000e+00  2.0795774171896553e+00 1.8388699625785303e+00 0.0000000000000000e+00  2.0449010479161456e+00 1.8682087017830273e+00 0.0000000000000000e+00  2.0382579187800292e+00 1.9243299645048952e+00 0.0000000000000000e+00  2.0039590227984516e+00 1.9589898652855868e+00 0.0000000000000000e+00  1.9977466909359676e+00 2.0134029241260940e+00 0.0000000000000000e+00  1.9640832575142619e+00 2.0482132041937011e+00 0.0000000000000000e+00  1.9578904210646313e+00 2.1015138726993139e+00 0.0000000000000000e+00  1.9262214327341700e+00 2.1368355348288173e+00 0.0000000000000000e+00  1.9192847372511039e+00 2.1817473429574519e+00 0.0000000000000000e+00  1.8912643267331317e+00 2.2198862064679243e+00 0.0000000000000000e+00  1.8848551093045269e+00 2.2604471118573706e+00 0.0000000000000000e+00  1.8620800358713037e+00 2.2866183213363476e+00 0.0000000000000000e+00  1.8582162479627222e+00 2.3183212234113459e+00 0.0000000000000000e+00  1.8446672544295737e+00 2.3302451895696352e+00 0.0000000000000000e+00  1.8448247823928068e+00 2.3456942980156210e+00 0.0000000000000000e+00  1.8411630560228442e+00 2.3413305618553051e+00 0.0000000000000000e+00  1.8438366734393723e+00 2.3469453080887144e+00 0.0000000000000000e+00  1.8438666165648416e+00 2.3347805015722147e+00 0.0000000000000000e+00  1.8436710361805033e+00 2.3454194522683700e+00 0.0000000000000000e+00  1.8467220377372640e+00 2.3320554776624101e+00 0.0000000000000000e+00  1.8433081239704057e+00 2.3435505160089383e+00 0.0000000000000000e+00  1.8482900640104059e+00 2.3292032554225912e+00 0.0000000000000000e+00  1.8438972979728936e+00 2.3414134481184044e+00 0.0000000000000000e+00  1.8492373895892122e+00 2.3281823809580966e+00 0.0000000000000000e+00  1.8425767503410508e+00 2.3417981699313648e+00 0.0000000000000000e+00  1.8516698831166798e+00 2.3267662323698564e+00 0.0000000000000000e+00  1.8412440719721832e+00 2.3411473536678509e+00 0.0000000000000000e+00  1.8534785454890914e+00 2.3236867338905411e+00 0.0000000000000000e+00  1.8413067165949077e+00 2.3415759192943355e+00 0.0000000000000000e+00  1.8534439250010339e+00 2.3230377561744846e+00 0.0000000000000000e+00  1.8412701860970515e+00 2.3417612151800644e+00 0.0000000000000000e+00  1.8540040411530165e+00 2.3220561975691663e+00 0.0000000000000000e+00  1.8413775740962364e+00 2.3404242921391143e+00 0.0000000000000000e+00  1.8540308227526359e+00 2.3228592513705477e+00 0.0000000000000000e+00  1.8410877611719507e+00 2.3394851776732888e+00 0.0000000000000000e+00  1.8555083952222180e+00 2.3219634273247398e+00 0.0000000000000000e+00  1.8388503600288728e+00 2.3409762817847231e+00 0.0000000000000000e+00  1.8584386814792075e+00 2.3179177277059333e+00 0.0000000000000000e+00  1.8356565886555640e+00 2.3468242238559935e+00 0.0000000000000000e+00  1.8609809486488034e+00 2.3104650146653363e+00 0.0000000000000000e+00  1.8352236574364975e+00 2.3519441496489248e+00 0.0000000000000000e+00  1.8594035594850427e+00 2.3065768512952971e+00 0.0000000000000000e+00  1.8383346982304445e+00 2.3539135088150336e+00 0.0000000000000000e+00  1.8545423594250254e+00 2.3063012509754235e+00 0.0000000000000000e+00  1.8449339633489381e+00 2.3495417551751370e+00 0.0000000000000000e+00  1.8477652392762063e+00 2.3118655618019739e+00 0.0000000000000000e+00  1.8510144009732277e+00 2.3430381070285486e+00 0.0000000000000000e+00  1.8415510331986082e+00 2.3203739536909422e+00 0.0000000000000000e+00  1.8574755188527405e+00 2.3314410931752345e+00 0.0000000000000000e+00  1.8366087351267595e+00 2.3310686091938102e+00 0.0000000000000000e+00  1.8593369227086201e+00 2.3246319074922162e+00 0.0000000000000000e+00  1.8370128547183167e+00 2.3352452307814344e+00 0.0000000000000000e+00  1.8581574611599845e+00 2.3206657913323117e+00 0.0000000000000000e+00  1.8383827943198379e+00 2.3387417448611476e+00 0.0000000000000000e+00  1.8563426502162246e+00 2.3186374512983488e+00 0.0000000000000000e+00  1.8407569977391238e+00 2.3389884051403813e+00 0.0000000000000000e+00  1.8533442190065119e+00 2.3195442291013340e+00 0.0000000000000000e+00  1.8441241272115194e+00 2.3363021215508537e+00 0.0000000000000000e+00  1.8501036625203564e+00 2.3223799954770050e+00 0.0000000000000000e+00  1.8466658586471887e+00 2.3327625137584951e+00 0.0000000000000000e+00  1.8480155990138085e+00 2.3254719739289804e+00 0.0000000000000000e+00  1.8485182073688116e+00 2.3291776977594281e+00 0.0000000000000000e+00  1.8464590428233476e+00 2.3286552088038470e+00 0.0000000000000000e+00  1.8493996594451863e+00 2.3262101828694384e+00 0.0000000000000000e+00  1.8457887372378334e+00 2.3287427699722145e+00 0.0000000000000000e+00  1.8501942229202832e+00 2.3210022853982819e+00 0.0000000000000000e+00  1.8450762999388468e+00 2.3259061785737640e+00 0.0000000000000000e+00  1.8499846483084215e+00 2.3147405309355471e+00 0.0000000000000000e+00  1.8459043510968549e+00 2.3185959720321283e+00 0.0000000000000000e+00  1.8493617229357189e+00 2.3096512818880468e+00 0.0000000000000000e+00  1.8457336427175759e+00 2.3140198333390787e+00 0.0000000000000000e+00  1.8495448121883249e+00 2.3076866624593508e+00 0.0000000000000000e+00  1.8459605286625307e+00 2.3124204978398826e+00 0.0000000000000000e+00  1.8490955405063363e+00 2.3107934753507897e+00 0.0000000000000000e+00  1.8458462656797650e+00 2.3155104437150742e+00 0.0000000000000000e+00  1.8495144355347126e+00 2.3150998312636366e+00 0.0000000000000000e+00  1.8455795102675205e+00 2.3179581221927901e+00 0.0000000000000000e+00  1.8494175801748665e+00 2.3219326591039513e+00 0.0000000000000000e+00  1.8453415315224082e+00 2.3193593948002382e+00 0.0000000000000000e+00  1.8502664595329434e+00 2.3245216027410600e+00 0.0000000000000000e+00  1.8441781280987208e+00 2.3219001237041481e+00 0.0000000000000000e+00  1.8513000346742092e+00 2.3269272021350069e+00 0.0000000000000000e+00  1.8431572803199203e+00 2.3209796629721655e+00 0.0000000000000000e+00  1.8527926438737541e+00 2.3290919968783901e+00 0.0000000000000000e+00  1.8415981450740448e+00 2.3211187558426740e+00 0.0000000000000000e+00  1.8538017409648166e+00 2.3308027383732415e+00 0.0000000000000000e+00  1.8414996237928458e+00 2.3174118320832546e+00 0.0000000000000000e+00  1.8543164685273186e+00 2.3346891325458978e+00 0.0000000000000000e+00  1.8393179898245149e+00 2.3160398522695633e+00 0.0000000000000000e+00  1.8580755606327350e+00 2.3304982685993032e+00 0.0000000000000000e+00  1.8360230419338539e+00 2.3184820418970484e+00 0.0000000000000000e+00  1.8586843720999786e+00 2.3305727355868169e+00 0.0000000000000000e+00  1.8378178222326758e+00 2.3097597894362463e+00 0.0000000000000000e+00  1.8565329811077100e+00 2.3379459186963452e+00 0.0000000000000000e+00  1.8374772874950571e+00 2.3038067715282105e+00 0.0000000000000000e+00  1.8590828641250967e+00 2.3354247473446930e+00 0.0000000000000000e+00  1.8345559470566173e+00 2.3051059527509477e+00 0.0000000000000000e+00  1.8593887940321980e+00 2.3363047196005704e+00 0.0000000000000000e+00  1.8371113686593714e+00 2.2942627300113312e+00 0.0000000000000000e+00  1.8555471445959215e+00 2.3486137084698369e+00 0.0000000000000000e+00  1.8396664278762218e+00 2.2813789118187477e+00 0.0000000000000000e+00  1.8555769839337042e+00 2.3534759032917205e+00 0.0000000000000000e+00  1.8380946792009927e+00 2.2779561731133979e+00 0.0000000000000000e+00  1.8573260266921083e+00 2.3541027102779037e+00 0.0000000000000000e+00  1.8378929246673956e+00 2.2703688357145255e+00 0.0000000000000000e+00  1.8561302448223478e+00 2.3599001698513420e+00 0.0000000000000000e+00  1.8381447015449004e+00 2.2566680326883746e+00 0.0000000000000000e+00  1.8531297191995446e+00 2.3553995194029453e+00 0.0000000000000000e+00  1.8253412782853309e+00 2.2258799769605750e+00 0.0000000000000000e+00  1.8267710070156478e+00 2.2802616050038931e+00 0.0000000000000000e+00  1.7382376405695033e+00 2.0412479461235158e+00 0.0000000000000000e+00  1.6821105170365842e+00 1.8814359463543107e+00 0.0000000000000000e+00  1.3385211617100048e+00 1.0098716109967449e+00 0.0000000000000000e+00  1.1478336814507313e+00 4.1724756063325630e-01 0.0000000000000000e+00  9.9179986473046944e-01 -9.8560366004528138e-02 0.0000000000000000e+00  1.0410843868698205e+00 1.3282986261881019e-01 0.0000000000000000e+00  9.8229914292984211e-01 -1.9207222667589496e-01 0.0000000000000000e+00  1.0373959822374110e+00 1.4373130655350666e-01 0.0000000000000000e+00  9.8830438036868806e-01 -2.1657322086589292e-01 0.0000000000000000e+00  1.0395077809260580e+00 1.4787290978422324e-01 0.0000000000000000e+00  9.9088299916391365e-01 -2.2403073774491208e-01 0.0000000000000000e+00  1.0444107108608145e+00 1.3808247403954135e-01 0.0000000000000000e+00  9.9302983582119719e-01 -2.2404518881652088e-01 0.0000000000000000e+00  1.0480127284334959e+00 1.2663090003610949e-01 0.0000000000000000e+00  9.9501065911017128e-01 -2.1919634821016359e-01 0.0000000000000000e+00  1.0521497754315785e+00 1.0851650836408293e-01 0.0000000000000000e+00  9.9433603477204857e-01 -2.0184328375305260e-01 0.0000000000000000e+00  1.0555859413757580e+00 8.5111341203128979e-02 0.0000000000000000e+00  9.9396104323075196e-01 -1.8170868533109708e-01 0.0000000000000000e+00  1.0551758050389193e+00 6.7827108920935159e-02 0.0000000000000000e+00  9.9392024235921417e-01 -1.6093368114444126e-01 0.0000000000000000e+00  1.0533398754795305e+00 5.0369073929288237e-02 0.0000000000000000e+00  9.9166652368989872e-01 -1.3462776569237248e-01 0.0000000000000000e+00  1.0518875796636693e+00 3.2120066530206118e-02 0.0000000000000000e+00  9.8855937646432068e-01 -1.1120394386833306e-01 0.0000000000000000e+00  1.0497266852803451e+00 1.3630626858351324e-02 0.0000000000000000e+00  9.8628114073014927e-01 -8.7074004625939422e-02 0.0000000000000000e+00  1.0484695847948187e+00 0.0000000000000000e+00 0.0000000000000000e+00  3.0052216344827576e+00 0.0000000000000000e+00 -2.5899144453891864e-02  3.0032738023023344e+00 2.9939310067741169e-03 8.3955666068655042e-03  3.0052582051011334e+00 1.3740565165298375e-02 2.8612963533458241e-03  3.0033752999482388e+00 1.3795712036133974e-02 6.2163667837177060e-04  3.0039617560578868e+00 7.7075391406031240e-03 -1.9260024597468300e-03  3.0031139997224288e+00 1.8579829299106877e-02 2.6647559501915166e-03  3.0020923209319665e+00 1.1876211554288120e-02 -2.5636027447250064e-03  3.0008349333882403e+00 1.9709537227192691e-02 2.1536271182928716e-03  2.9997036346727990e+00 1.8237727300413831e-02 -1.6720388147715747e-03  2.9968712417541328e+00 2.5069210608170359e-02 1.1055526971968793e-03  2.9946621731182330e+00 2.6068753913257043e-02 -6.4140768861953778e-04  2.9914647331754503e+00 3.4213851518997133e-02 1.2396773861360539e-04  2.9869627370514231e+00 3.8588725970871339e-02 3.9379984215764285e-04  2.9824488473697812e+00 4.7560522181815258e-02 -9.1626625658952773e-04  2.9769397574930436e+00 5.6219978179505671e-02 1.4947199231330039e-03  2.9699062673517562e+00 6.7146710131740880e-02 -1.9879608388741659e-03  2.9625667554200499e+00 7.9835117834790040e-02 2.5058792070642949e-03  2.9544489561559812e+00 9.3215372205635902e-02 -2.8721704122279894e-03  2.9442439345328300e+00 1.1060756621530408e-01 3.2911236318153170e-03  2.9343444151851799e+00 1.2652976043375472e-01 -3.5452867779502905e-03  2.9229132679985819e+00 1.4807992246859258e-01 3.8772821696062931e-03  2.9103774936374918e+00 1.6750780704861909e-01 -3.9818606962911682e-03  2.8971162955498269e+00 1.9264587309619299e-01 4.0820029220914262e-03  2.8837427898373331e+00 2.1505974638505138e-01 -3.9116638082906203e-03  2.8679340993957103e+00 2.4408923527251511e-01 3.7109861458841670e-03  2.8531186973651588e+00 2.6948337817512286e-01 -3.2634181567272355e-03  2.8367030725101383e+00 3.0065175912727671e-01 2.7667097942092283e-03  2.8197170926668016e+00 3.3045588047714258e-01 -1.9713772367330692e-03  2.8021337688689454e+00 3.6248392229780735e-01 1.0302150510959347e-03  2.7848883045335859e+00 3.9599993897683378e-01 2.2761513771672479e-04  2.7654810672404020e+00 4.2924621395521567e-01 -1.6283090340892634e-03  2.7472625610420334e+00 4.6649960771582316e-01 3.2754584141866791e-03  2.7280952744696663e+00 4.9859075954150756e-01 -5.0988078651903928e-03  2.7079998593187877e+00 5.4210351615487640e-01 7.3330124007332468e-03  2.6885807906737438e+00 5.7083279117356922e-01 -1.0002484197547491e-02  2.6683248972626230e+00 6.2028158762379138e-01 1.3379829293641158e-02  2.6480706919732628e+00 6.4683540662227512e-01 -1.7404588154258733e-02  2.6267024840516582e+00 7.0094264707399623e-01 2.2279225382920709e-02  2.6078207641580233e+00 7.2421065064972034e-01 -2.7885704138948628e-02  2.5840291925867094e+00 7.8558539112729231e-01 3.4467991093361294e-02  2.5663883036047253e+00 8.0231280074543121e-01 -4.1441654682197036e-02  2.5415141281886684e+00 8.7201603082444112e-01 4.8943899827913834e-02  2.5243877978847338e+00 8.8298671728762512e-01 -5.5544722519675231e-02  2.4980767500196785e+00 9.5942621934120798e-01 6.1428136121722668e-02  2.4826289843729605e+00 9.6352349494596279e-01 -6.4842727792414970e-02  2.4544531446736078e+00 1.0508123556702460e+00 6.6476265566409926e-02  2.4398762857324665e+00 1.0431312255827760e+00 -6.5182514331881353e-02  2.4115799536475899e+00 1.1416587301847050e+00 6.2097036877505028e-02  2.3964477003982867e+00 1.1289899395227057e+00 -5.7627325569891842e-02  2.3685036201682421e+00 1.2276233968056927e+00 5.2747528152366392e-02  2.3532794269113189e+00 1.2181575625415624e+00 -4.8630501356006460e-02  2.3251157051396807e+00 1.3173921437304137e+00 4.5637475584896933e-02  2.3101051357469728e+00 1.3035290134817188e+00 -4.4272877138829700e-02  2.2818734645252547e+00 1.4084047844178469e+00 4.4183817569238525e-02  2.2670541819306060e+00 1.3958198324492106e+00 -4.4172538553183628e-02  2.2386019396463768e+00 1.4915296067576729e+00 4.3286176846183556e-02  2.2243303023958996e+00 1.4904129720330930e+00 -4.0003029365706211e-02  2.1956958180093435e+00 1.5827011427321005e+00 3.5538031272611868e-02  2.1813569665936652e+00 1.5766877601484008e+00 -3.0693789054346922e-02  2.1536564984916864e+00 1.6712849192159498e+00 2.6919808391442295e-02  2.1384142437375142e+00 1.6777798719524726e+00 -2.4241677312807748e-02  2.1119171707655555e+00 1.7493228821221098e+00 2.2133942099139207e-02  2.0962030392728002e+00 1.7716122489001287e+00 -2.1445148471753231e-02  2.0702774193619851e+00 1.8452129534936810e+00 2.1331730839734202e-02  2.0546907854690719e+00 1.8567323904189617e+00 -2.1344114925887871e-02  2.0290131875251487e+00 1.9339271353573855e+00 1.9659441218411348e-02  2.0138157385477484e+00 1.9509688027092633e+00 -1.7681529146459752e-02  1.9884938849349927e+00 2.0206729344521985e+00 1.5968773693221673e-02  1.9735301476839389e+00 2.0415389504882246e+00 -1.4973074692212304e-02  1.9493284814589795e+00 2.1078616106174559e+00 1.3285726368450185e-02  1.9345173143626671e+00 2.1269752716730204e+00 -1.1753867548469809e-02  1.9120780580494072e+00 2.1929929096005298e+00 1.0535389073652254e-02  1.8986372715265369e+00 2.2114555644574660e+00 -9.2055687183119350e-03  1.8784411567758836e+00 2.2644635504795954e+00 7.4302565208960577e-03  1.8680331630158080e+00 2.2824465258200752e+00 -6.1490252154850515e-03  1.8533435952475015e+00 2.3234782098866247e+00 5.4656613661583208e-03  1.8484667965067902e+00 2.3270604363794436e+00 -4.6248251884541854e-03  1.8418532156631602e+00 2.3490195781346834e+00 3.9796770550026960e-03  1.8441953797619239e+00 2.3382556946444675e+00 -3.6804326550783362e-03  1.8415784125091181e+00 2.3473273627033473e+00 3.4842020726965810e-03  1.8451930789747706e+00 2.3371498101463950e+00 -3.1077275439874196e-03  1.8435507083884624e+00 2.3442310997906231e+00 3.0156162031391783e-03  1.8458210521966714e+00 2.33