<?xml version="1.0"?>
<VTKFile type="UnstructuredGrid"  version="0.1"  >
<UnstructuredGrid>
<Piece  NumberOfPoints="8241" NumberOfCells="16000">
<Points>
<DataArray  type="Float64"  NumberOfComponents="3"  format="ascii">-5 -1 0  -4.95 -1 0  -4.9 -1 0  -4.85 -1 0  -4.8 -1 0  -4.75 -1 0  -4.7 -1 0  -4.65 -1 0  -4.6 -1 0  -4.55 -1 0  -4.5 -1 0  -4.45 -1 0  -4.4 -1 0  -4.35 -1 0  -4.3 -1 0  -4.25 -1 0  -4.2 -1 0  -4.15 -1 0  -4.1 -1 0  -4.05 -1 0  -4 -1 0  -3.95 -1 0  -3.9 -1 0  -3.85 -1 0  -3.8 -1 0  -3.75 -1 0  -3.7 -1 0  -3.65 -1 0  -3.6 -1 0  -3.55 -1 0  -3.5 -1 0  -3.45 -1 0  -3.4 -1 0  -3.35 -1 0  -3.3 -1 0  -3.25 -1 0  -3.2 -1 0  -3.15 -1 0  -3.1 -1 0  -3.05 -1 0  -3 -1 0  -2.95 -1 0  -2.9 -1 0  -2.85 -1 0  -2.8 -1 0  -2.75 -1 0  -2.7 -1 0  -2.65 -1 0  -2.6 -1 0  -2.55 -1 0  -2.5 -1 0  -2.45 -1 0  -2.4 -1 0  -2.35 -1 0  -2.3 -1 0  -2.25 -1 0  -2.2 -1 0  -2.15 -1 0  -2.1 -1 0  -2.05 -1 0  -2 -1 0  -1.95 -1 0  -1.9 -1 0  -1.85 -1 0  -1.8 -1 0  -1.75 -1 0  -1.7 -1 0  -1.65 -1 0  -1.6 -1 0  -1.55 -1 0  -1.5 -1 0  -1.45 -1 0  -1.4 -1 0  -1.35 -1 0  -1.3 -1 0  -1.25 -1 0  -1.2 -1 0  -1.15 -1 0  -1.1 -1 0  -1.05 -1 0  -1 -1 0  -0.9500000000000002 -1 0  -0.9000000000000004 -1 0  -0.8499999999999996 -1 0  -0.7999999999999998 -1 0  -0.75 -1 0  -0.7000000000000002 -1 0  -0.6500000000000004 -1 0  -0.5999999999999996 -1 0  -0.5499999999999998 -1 0  -0.5 -1 0  -0.4500000000000002 -1 0  -0.4000000000000004 -1 0  -0.3499999999999996 -1 0  -0.2999999999999998 -1 0  -0.25 -1 0  -0.2000000000000002 -1 0  -0.1500000000000004 -1 0  -0.09999999999999964 -1 0  -0.04999999999999982 -1 0  0 -1 0  0.04999999999999982 -1 0  0.09999999999999964 -1 0  0.1500000000000004 -1 0  0.2000000000000002 -1 0  0.25 -1 0  0.2999999999999998 -1 0  0.3499999999999996 -1 0  0.4000000000000004 -1 0  0.4500000000000002 -1 0  0.5 -1 0  0.5499999999999998 -1 0  0.5999999999999996 -1 0  0.6500000000000004 -1 0  0.7000000000000002 -1 0  0.75 -1 0  0.7999999999999998 -1 0  0.8499999999999996 -1 0  0.9000000000000004 -1 0  0.9500000000000002 -1 0  1 -1 0  1.05 -1 0  1.1 -1 0  1.15 -1 0  1.2 -1 0  1.25 -1 0  1.3 -1 0  1.35 -1 0  1.4 -1 0  1.45 -1 0  1.5 -1 0  1.55 -1 0  1.6 -1 0  1.65 -1 0  1.7 -1 0  1.75 -1 0  1.8 -1 0  1.85 -1 0  1.9 -1 0  1.95 -1 0  2 -1 0  2.05 -1 0  2.1 -1 0  2.15 -1 0  2.2 -1 0  2.25 -1 0  2.3 -1 0  2.35 -1 0  2.4 -1 0  2.45 -1 0  2.5 -1 0  2.55 -1 0  2.6 -1 0  2.65 -1 0  2.7 -1 0  2.75 -1 0  2.8 -1 0  2.85 -1 0  2.9 -1 0  2.95 -1 0  3 -1 0  3.050000000000001 -1 0  3.1 -1 0  3.15 -1 0  3.199999999999999 -1 0  3.25 -1 0  3.300000000000001 -1 0  3.35 -1 0  3.4 -1 0  3.449999999999999 -1 0  3.5 -1 0  3.550000000000001 -1 0  3.6 -1 0  3.65 -1 0  3.699999999999999 -1 0  3.75 -1 0  3.800000000000001 -1 0  3.85 -1 0  3.9 -1 0  3.949999999999999 -1 0  4 -1 0  4.050000000000001 -1 0  4.1 -1 0  4.15 -1 0  4.199999999999999 -1 0  4.25 -1 0  4.300000000000001 -1 0  4.35 -1 0  4.4 -1 0  4.449999999999999 -1 0  4.5 -1 0  4.550000000000001 -1 0  4.6 -1 0  4.65 -1 0  4.699999999999999 -1 0  4.75 -1 0  4.800000000000001 -1 0  4.85 -1 0  4.9 -1 0  4.949999999999999 -1 0  5 -1 0  -5 -0.95 0  -4.95 -0.95 0  -4.9 -0.95 0  -4.85 -0.95 0  -4.8 -0.95 0  -4.75 -0.95 0  -4.7 -0.95 0  -4.65 -0.95 0  -4.6 -0.95 0  -4.55 -0.95 0  -4.5 -0.95 0  -4.45 -0.95 0  -4.4 -0.95 0  -4.35 -0.95 0  -4.3 -0.95 0  -4.25 -0.95 0  -4.2 -0.95 0  -4.15 -0.95 0  -4.1 -0.95 0  -4.05 -0.95 0  -4 -0.95 0  -3.95 -0.95 0  -3.9 -0.95 0  -3.85 -0.95 0  -3.8 -0.95 0  -3.75 -0.95 0  -3.7 -0.95 0  -3.65 -0.95 0  -3.6 -0.95 0  -3.55 -0.95 0  -3.5 -0.95 0  -3.45 -0.95 0  -3.4 -0.95 0  -3.35 -0.95 0  -3.3 -0.95 0  -3.25 -0.95 0  -3.2 -0.95 0  -3.15 -0.95 0  -3.1 -0.95 0  -3.05 -0.95 0  -3 -0.95 0  -2.95 -0.95 0  -2.9 -0.95 0  -2.85 -0.95 0  -2.8 -0.95 0  -2.75 -0.95 0  -2.7 -0.95 0  -2.65 -0.95 0  -2.6 -0.95 0  -2.55 -0.95 0  -2.5 -0.95 0  -2.45 -0.95 0  -2.4 -0.95 0  -2.35 -0.95 0  -2.3 -0.95 0  -2.25 -0.95 0  -2.2 -0.95 0  -2.15 -0.95 0  -2.1 -0.95 0  -2.05 -0.95 0  -2 -0.95 0  -1.95 -0.95 0  -1.9 -0.95 0  -1.85 -0.95 0  -1.8 -0.95 0  -1.75 -0.95 0  -1.7 -0.95 0  -1.65 -0.95 0  -1.6 -0.95 0  -1.55 -0.95 0  -1.5 -0.95 0  -1.45 -0.95 0  -1.4 -0.95 0  -1.35 -0.95 0  -1.3 -0.95 0  -1.25 -0.95 0  -1.2 -0.95 0  -1.15 -0.95 0  -1.1 -0.95 0  -1.05 -0.95 0  -1 -0.95 0  -0.9500000000000002 -0.95 0  -0.9000000000000004 -0.95 0  -0.8499999999999996 -0.95 0  -0.7999999999999998 -0.95 0  -0.75 -0.95 0  -0.7000000000000002 -0.95 0  -0.6500000000000004 -0.95 0  -0.5999999999999996 -0.95 0  -0.5499999999999998 -0.95 0  -0.5 -0.95 0  -0.4500000000000002 -0.95 0  -0.4000000000000004 -0.95 0  -0.3499999999999996 -0.95 0  -0.2999999999999998 -0.95 0  -0.25 -0.95 0  -0.2000000000000002 -0.95 0  -0.1500000000000004 -0.95 0  -0.09999999999999964 -0.95 0  -0.04999999999999982 -0.95 0  0 -0.95 0  0.04999999999999982 -0.95 0  0.09999999999999964 -0.95 0  0.1500000000000004 -0.95 0  0.2000000000000002 -0.95 0  0.25 -0.95 0  0.2999999999999998 -0.95 0  0.3499999999999996 -0.95 0  0.4000000000000004 -0.95 0  0.4500000000000002 -0.95 0  0.5 -0.95 0  0.5499999999999998 -0.95 0  0.5999999999999996 -0.95 0  0.6500000000000004 -0.95 0  0.7000000000000002 -0.95 0  0.75 -0.95 0  0.7999999999999998 -0.95 0  0.8499999999999996 -0.95 0  0.9000000000000004 -0.95 0  0.9500000000000002 -0.95 0  1 -0.95 0  1.05 -0.95 0  1.1 -0.95 0  1.15 -0.95 0  1.2 -0.95 0  1.25 -0.95 0  1.3 -0.95 0  1.35 -0.95 0  1.4 -0.95 0  1.45 -0.95 0  1.5 -0.95 0  1.55 -0.95 0  1.6 -0.95 0  1.65 -0.95 0  1.7 -0.95 0  1.75 -0.95 0  1.8 -0.95 0  1.85 -0.95 0  1.9 -0.95 0  1.95 -0.95 0  2 -0.95 0  2.05 -0.95 0  2.1 -0.95 0  2.15 -0.95 0  2.2 -0.95 0  2.25 -0.95 0  2.3 -0.95 0  2.35 -0.95 0  2.4 -0.95 0  2.45 -0.95 0  2.5 -0.95 0  2.55 -0.95 0  2.6 -0.95 0  2.65 -0.95 0  2.7 -0.95 0  2.75 -0.95 0  2.8 -0.95 0  2.85 -0.95 0  2.9 -0.95 0  2.95 -0.95 0  3 -0.95 0  3.050000000000001 -0.95 0  3.1 -0.95 0  3.15 -0.95 0  3.199999999999999 -0.95 0  3.25 -0.95 0  3.300000000000001 -0.95 0  3.35 -0.95 0  3.4 -0.95 0  3.449999999999999 -0.95 0  3.5 -0.95 0  3.550000000000001 -0.95 0  3.6 -0.95 0  3.65 -0.95 0  3.699999999999999 -0.95 0  3.75 -0.95 0  3.800000000000001 -0.95 0  3.85 -0.95 0  3.9 -0.95 0  3.949999999999999 -0.95 0  4 -0.95 0  4.050000000000001 -0.95 0  4.1 -0.95 0  4.15 -0.95 0  4.199999999999999 -0.95 0  4.25 -0.95 0  4.300000000000001 -0.95 0  4.35 -0.95 0  4.4 -0.95 0  4.449999999999999 -0.95 0  4.5 -0.95 0  4.550000000000001 -0.95 0  4.6 -0.95 0  4.65 -0.95 0  4.699999999999999 -0.95 0  4.75 -0.95 0  4.800000000000001 -0.95 0  4.85 -0.95 0  4.9 -0.95 0  4.949999999999999 -0.95 0  5 -0.95 0  -5 -0.9 0  -4.95 -0.9 0  -4.9 -0.9 0  -4.85 -0.9 0  -4.8 -0.9 0  -4.75 -0.9 0  -4.7 -0.9 0  -4.65 -0.9 0  -4.6 -0.9 0  -4.55 -0.9 0  -4.5 -0.9 0  -4.45 -0.9 0  -4.4 -0.9 0  -4.35 -0.9 0  -4.3 -0.9 0  -4.25 -0.9 0  -4.2 -0.9 0  -4.15 -0.9 0  -4.1 -0.9 0  -4.05 -0.9 0  -4 -0.9 0  -3.95 -0.9 0  -3.9 -0.9 0  -3.85 -0.9 0  -3.8 -0.9 0  -3.75 -0.9 0  -3.7 -0.9 0  -3.65 -0.9 0  -3.6 -0.9 0  -3.55 -0.9 0  -3.5 -0.9 0  -3.45 -0.9 0  -3.4 -0.9 0  -3.35 -0.9 0  -3.3 -0.9 0  -3.25 -0.9 0  -3.2 -0.9 0  -3.15 -0.9 0  -3.1 -0.9 0  -3.05 -0.9 0  -3 -0.9 0  -2.95 -0.9 0  -2.9 -0.9 0  -2.85 -0.9 0  -2.8 -0.9 0  -2.75 -0.9 0  -2.7 -0.9 0  -2.65 -0.9 0  -2.6 -0.9 0  -2.55 -0.9 0  -2.5 -0.9 0  -2.45 -0.9 0  -2.4 -0.9 0  -2.35 -0.9 0  -2.3 -0.9 0  -2.25 -0.9 0  -2.2 -0.9 0  -2.15 -0.9 0  -2.1 -0.9 0  -2.05 -0.9 0  -2 -0.9 0  -1.95 -0.9 0  -1.9 -0.9 0  -1.85 -0.9 0  -1.8 -0.9 0  -1.75 -0.9 0  -1.7 -0.9 0  -1.65 -0.9 0  -1.6 -0.9 0  -1.55 -0.9 0  -1.5 -0.9 0  -1.45 -0.9 0  -1.4 -0.9 0  -1.35 -0.9 0  -1.3 -0.9 0  -1.25 -0.9 0  -1.2 -0.9 0  -1.15 -0.9 0  -1.1 -0.9 0  -1.05 -0.9 0  -1 -0.9 0  -0.9500000000000002 -0.9 0  -0.9000000000000004 -0.9 0  -0.8499999999999996 -0.9 0  -0.7999999999999998 -0.9 0  -0.75 -0.9 0  -0.7000000000000002 -0.9 0  -0.6500000000000004 -0.9 0  -0.5999999999999996 -0.9 0  -0.5499999999999998 -0.9 0  -0.5 -0.9 0  -0.4500000000000002 -0.9 0  -0.4000000000000004 -0.9 0  -0.3499999999999996 -0.9 0  -0.2999999999999998 -0.9 0  -0.25 -0.9 0  -0.2000000000000002 -0.9 0  -0.1500000000000004 -0.9 0  -0.09999999999999964 -0.9 0  -0.04999999999999982 -0.9 0  0 -0.9 0  0.04999999999999982 -0.9 0  0.09999999999999964 -0.9 0  0.1500000000000004 -0.9 0  0.2000000000000002 -0.9 0  0.25 -0.9 0  0.2999999999999998 -0.9 0  0.3499999999999996 -0.9 0  0.4000000000000004 -0.9 0  0.4500000000000002 -0.9 0  0.5 -0.9 0  0.5499999999999998 -0.9 0  0.5999999999999996 -0.9 0  0.6500000000000004 -0.9 0  0.7000000000000002 -0.9 0  0.75 -0.9 0  0.7999999999999998 -0.9 0  0.8499999999999996 -0.9 0  0.9000000000000004 -0.9 0  0.9500000000000002 -0.9 0  1 -0.9 0  1.05 -0.9 0  1.1 -0.9 0  1.15 -0.9 0  1.2 -0.9 0  1.25 -0.9 0  1.3 -0.9 0  1.35 -0.9 0  1.4 -0.9 0  1.45 -0.9 0  1.5 -0.9 0  1.55 -0.9 0  1.6 -0.9 0  1.65 -0.9 0  1.7 -0.9 0  1.75 -0.9 0  1.8 -0.9 0  1.85 -0.9 0  1.9 -0.9 0  1.95 -0.9 0  2 -0.9 0  2.05 -0.9 0  2.1 -0.9 0  2.15 -0.9 0  2.2 -0.9 0  2.25 -0.9 0  2.3 -0.9 0  2.35 -0.9 0  2.4 -0.9 0  2.45 -0.9 0  2.5 -0.9 0  2.55 -0.9 0  2.6 -0.9 0  2.65 -0.9 0  2.7 -0.9 0  2.75 -0.9 0  2.8 -0.9 0  2.85 -0.9 0  2.9 -0.9 0  2.95 -0.9 0  3 -0.9 0  3.050000000000001 -0.9 0  3.1 -0.9 0  3.15 -0.9 0  3.199999999999999 -0.9 0  3.25 -0.9 0  3.300000000000001 -0.9 0  3.35 -0.9 0  3.4 -0.9 0  3.449999999999999 -0.9 0  3.5 -0.9 0  3.550000000000001 -0.9 0  3.6 -0.9 0  3.65 -0.9 0  3.699999999999999 -0.9 0  3.75 -0.9 0  3.800000000000001 -0.9 0  3.85 -0.9 0  3.9 -0.9 0  3.949999999999999 -0.9 0  4 -0.9 0  4.050000000000001 -0.9 0  4.1 -0.9 0  4.15 -0.9 0  4.199999999999999 -0.9 0  4.25 -0.9 0  4.300000000000001 -0.9 0  4.35 -0.9 0  4.4 -0.9 0  4.449999999999999 -0.9 0  4.5 -0.9 0  4.550000000000001 -0.9 0  4.6 -0.9 0  4.65 -0.9 0  4.699999999999999 -0.9 0  4.75 -0.9 0  4.800000000000001 -0.9 0  4.85 -0.9 0  4.9 -0.9 0  4.949999999999999 -0.9 0  5 -0.9 0  -5 -0.85 0  -4.95 -0.85 0  -4.9 -0.85 0  -4.85 -0.85 0  -4.8 -0.85 0  -4.75 -0.85 0  -4.7 -0.85 0  -4.65 -0.85 0  -4.6 -0.85 0  -4.55 -0.85 0  -4.5 -0.85 0  -
[...]
<PointData  Vectors="f_15"> 
<DataArray  type="Float64"  Name="f_15"  NumberOfComponents="3" format="ascii">9.9911465158531811e+00 0.0000000000000000e+00 0.0000000000000000e+00  1.0002728129802035e+01 1.6229230344361991e-02 0.0000000000000000e+00  9.9910009340221020e+00 -2.1157188383232467e-02 0.0000000000000000e+00  1.0003851594410595e+01 1.2225189767217809e-02 0.0000000000000000e+00  9.9911684926472528e+00 -1.4409364244342984e-02 0.0000000000000000e+00  1.0004010851241494e+01 6.0363085170773868e-03 0.0000000000000000e+00  9.9924456782837634e+00 -8.8580988429787268e-03 0.0000000000000000e+00  1.0003936292384909e+01 3.9026880094293341e-03 0.0000000000000000e+00  9.9929798687014930e+00 -6.8009534049321835e-03 0.0000000000000000e+00  1.0004618288627505e+01 3.4422442986258932e-03 0.0000000000000000e+00  9.9934562181778031e+00 -5.0332751955985185e-03 0.0000000000000000e+00  1.0004280300003206e+01 2.1837998062275224e-03 0.0000000000000000e+00  9.9948258968808084e+00 -2.9154723040088182e-03 0.0000000000000000e+00  1.0003776983041446e+01 1.1987505356188621e-03 0.0000000000000000e+00  9.9952237197790765e+00 -2.0191662574095661e-03 0.0000000000000000e+00  1.0004110755852384e+01 1.1138220819087098e-03 0.0000000000000000e+00  9.9955347068882521e+00 -1.3155471671175559e-03 0.0000000000000000e+00  1.0003497002409521e+01 2.5835287264650806e-04 0.0000000000000000e+00  9.9965869292382212e+00 -2.0728216955186457e-05 0.0000000000000000e+00  1.0002969469069225e+01 -4.3606751108366817e-04 0.0000000000000000e+00  9.9966130359732563e+00 3.0141657083216413e-04 0.0000000000000000e+00  1.0003183221252879e+01 -3.2463548525360291e-04 0.0000000000000000e+00  9.9966969220020179e+00 6.9135057755469436e-04 0.0000000000000000e+00  1.0002495623158410e+01 -8.8407445750175598e-04 0.0000000000000000e+00  9.9972173362467842e+00 1.6624214814434442e-03 0.0000000000000000e+00  1.0001973494123213e+01 -1.0198084879633278e-03 0.0000000000000000e+00  9.9967171436083770e+00 2.0147481696414873e-03 0.0000000000000000e+00  1.0001611442839392e+01 -3.9699189954168151e-04 0.0000000000000000e+00  9.9961615770485501e+00 2.9619638566316204e-03 0.0000000000000000e+00  1.0000083361109496e+01 1.9305241256286094e-04 0.0000000000000000e+00  9.9951068586323171e+00 4.7703123402534926e-03 0.0000000000000000e+00  9.9980202027490570e+00 2.1406999482663689e-03 0.0000000000000000e+00  9.9922864528053488e+00 7.2545947765867086e-03 0.0000000000000000e+00  9.9943605736467731e+00 5.8535739136581898e-03 0.0000000000000000e+00  9.9877864016902116e+00 1.2114242193406921e-02 0.0000000000000000e+00  9.9876459864752203e+00 1.1988474906730618e-02 0.0000000000000000e+00  9.9797895646066976e+00 2.0140084276784834e-02 0.0000000000000000e+00  9.9771616414690065e+00 2.2774111168573894e-02 0.0000000000000000e+00  9.9664206225174965e+00 3.2944330867812080e-02 0.0000000000000000e+00  9.9602495304139858e+00 3.9627601181797041e-02 0.0000000000000000e+00  9.9461005435171010e+00 5.3329461680061141e-02 0.0000000000000000e+00  9.9345641587515239e+00 6.5062010727295158e-02 0.0000000000000000e+00  9.9155169856973711e+00 8.3265849528359581e-02 0.0000000000000000e+00  9.8979542582466831e+00 1.0222481407289838e-01 0.0000000000000000e+00  9.8721666941482251e+00 1.2577652558023006e-01 0.0000000000000000e+00  9.8469995860329451e+00 1.5311313354724085e-01 0.0000000000000000e+00  9.8139858589486462e+00 1.8390963822984108e-01 0.0000000000000000e+00  9.7796575501617404e+00 2.2043326330278820e-01 0.0000000000000000e+00  9.7381785079657632e+00 2.5916602308482550e-01 0.0000000000000000e+00  9.6946879441619931e+00 3.0636196904390439e-01 0.0000000000000000e+00  9.6437528257211600e+00 3.5346218963702508e-01 0.0000000000000000e+00  9.5904626270279891e+00 4.1123021156498618e-01 0.0000000000000000e+00  9.5307121914410278e+00 4.6788236191615656e-01 0.0000000000000000e+00  9.4672696844198470e+00 5.3579456535172076e-01 0.0000000000000000e+00  9.3986823778150779e+00 6.0155619116180703e-01 0.0000000000000000e+00  9.3263241696463446e+00 6.8005361504348294e-01 0.0000000000000000e+00  9.2490059811742906e+00 7.5428318275061168e-01 0.0000000000000000e+00  9.1682307304068669e+00 8.4215555500078920e-01 0.0000000000000000e+00  9.0837274794708023e+00 9.2530697695858888e-01 0.0000000000000000e+00  8.9949521624354372e+00 1.0213704862587532e+00 0.0000000000000000e+00  8.9039877867729373e+00 1.1121066027583606e+00 0.0000000000000000e+00  8.8089197176630911e+00 1.2166382791648656e+00 0.0000000000000000e+00  8.7119401208150080e+00 1.3138409227301397e+00 0.0000000000000000e+00  8.6114188278688868e+00 1.4250527104673849e+00 0.0000000000000000e+00  8.5100712681180415e+00 1.5294376109265926e+00 0.0000000000000000e+00  8.4044774306290311e+00 1.6461109187712604e+00 0.0000000000000000e+00  8.2995839430609237e+00 1.7555434900425888e+00 0.0000000000000000e+00  8.1904185583716469e+00 1.8790714489280775e+00 0.0000000000000000e+00  8.0822448150704087e+00 1.9923031707335668e+00 0.0000000000000000e+00  7.9702239078511132e+00 2.1198661150890827e+00 0.0000000000000000e+00  7.8601605698012449e+00 2.2395228093383843e+00 0.0000000000000000e+00  7.7453047301100009e+00 2.3698713759608849e+00 0.0000000000000000e+00  7.6340903956198147e+00 2.4916819638350214e+00 0.0000000000000000e+00  7.5175151655741379e+00 2.6292358950857899e+00 0.0000000000000000e+00  7.4051178385989642e+00 2.7530467627326831e+00 0.0000000000000000e+00  7.2873611172000468e+00 2.8897186048839387e+00 0.0000000000000000e+00  7.1748961115620480e+00 3.0229743439746639e+00 0.0000000000000000e+00  7.0556708277501672e+00 3.1601325871955854e+00 0.0000000000000000e+00  6.9437322047090246e+00 3.2919718345172870e+00 0.0000000000000000e+00  6.8239175226990101e+00 3.4359423019879478e+00 0.0000000000000000e+00  6.7123455260557483e+00 3.5708252525902595e+00 0.0000000000000000e+00  6.5925228923244710e+00 3.7129095101622660e+00 0.0000000000000000e+00  6.4818451677676512e+00 3.8513896462909942e+00 0.0000000000000000e+00  6.3621372009933452e+00 3.9959525069487007e+00 0.0000000000000000e+00  6.2526604881216636e+00 4.1351137050065656e+00 0.0000000000000000e+00  6.1336709502736975e+00 4.2824510975809442e+00 0.0000000000000000e+00  6.0248397651756882e+00 4.4219329495370943e+00 0.0000000000000000e+00  5.9075033296395532e+00 4.5693124404298056e+00 0.0000000000000000e+00  5.7994097299359781e+00 4.7126619271439347e+00 0.0000000000000000e+00  5.6837458233030302e+00 4.8607100327324648e+00 0.0000000000000000e+00  5.5762724545108604e+00 5.0046138087748080e+00 0.0000000000000000e+00  5.4628275158025046e+00 5.1526921399967733e+00 0.0000000000000000e+00  5.3556933568374570e+00 5.2998854309391481e+00 0.0000000000000000e+00  5.2448068051932752e+00 5.4478646135999860e+00 0.0000000000000000e+00  5.1388086684224810e+00 5.5954259919245368e+00 0.0000000000000000e+00  5.0302901785317751e+00 5.7437219210959469e+00 0.0000000000000000e+00  4.9248223475092203e+00 5.8944349723790292e+00 0.0000000000000000e+00  4.8194455471205222e+00 6.0407104030119747e+00 0.0000000000000000e+00  4.7152952245154207e+00 6.1918905210873589e+00 0.0000000000000000e+00  4.6133817242695008e+00 6.3383726701348904e+00 0.0000000000000000e+00  4.5091914297472391e+00 6.4923489952939812e+00 0.0000000000000000e+00  4.4202453892144469e+00 6.6217165161802489e+00 0.0000000000000000e+00  4.3027248505026190e+00 6.7998936297960348e+00 0.0000000000000000e+00  4.2162674139309804e+00 6.9303753895789066e+00 0.0000000000000000e+00  4.1151261533636347e+00 7.0841621312762726e+00 0.0000000000000000e+00  4.0320998861927606e+00 7.2134269336952137e+00 0.0000000000000000e+00  3.9401028476091429e+00 7.3588664756366580e+00 0.0000000000000000e+00  3.8650109699815216e+00 7.4751854403254230e+00 0.0000000000000000e+00  3.7791850994291973e+00 7.6126135567692481e+00 0.0000000000000000e+00  3.7627820047292690e+00 7.6415849490295553e+00 0.0000000000000000e+00  3.8249288477370689e+00 7.5400133235761908e+00 0.0000000000000000e+00  3.8884438884481822e+00 7.4384332862956404e+00 0.0000000000000000e+00  3.9126026575612443e+00 7.3994495824435633e+00 0.0000000000000000e+00  3.9262078739697563e+00 7.3783814857395313e+00 0.0000000000000000e+00  3.9308492745786907e+00 7.3701651979825371e+00 0.0000000000000000e+00  3.9378717951495892e+00 7.3593980032205133e+00 0.0000000000000000e+00  3.9398284793647274e+00 7.3553629728500383e+00 0.0000000000000000e+00  3.9445088651259397e+00 7.3483144573945358e+00 0.0000000000000000e+00  3.9452835618219781e+00 7.3462464109046115e+00 0.0000000000000000e+00  3.9484000256406926e+00 7.3414517903557410e+00 0.0000000000000000e+00  3.9487000119554274e+00 7.3401843965319484e+00 0.0000000000000000e+00  3.9507557368190467e+00 7.3368932114124767e+00 0.0000000000000000e+00  3.9509967642307564e+00 7.3357485820814681e+00 0.0000000000000000e+00  3.9523235881268532e+00 7.3333559069994028e+00 0.0000000000000000e+00  3.9524863224765148e+00 7.3322860948514039e+00 0.0000000000000000e+00  3.9533045680367156e+00 7.3302856079337246e+00 0.0000000000000000e+00  3.9534225779702923e+00 7.3290067499674203e+00 0.0000000000000000e+00  3.9538918917121055e+00 7.3270331206217953e+00 0.0000000000000000e+00  3.9539850336890052e+00 7.3251917624284246e+00 0.0000000000000000e+00  3.9542305926730412e+00 7.3228109346123755e+00 0.0000000000000000e+00  3.9542491368976345e+00 7.3202987802794919e+00 0.0000000000000000e+00  3.9543502545907936e+00 7.3172504292548926e+00 0.0000000000000000e+00  3.9542927344246843e+00 7.3140811485235639e+00 0.0000000000000000e+00  3.9542644971902572e+00 7.3105683239262458e+00 0.0000000000000000e+00  3.9541178453044026e+00 7.3069865089558039e+00 0.0000000000000000e+00  3.9539487382480081e+00 7.3033478692180145e+00 0.0000000000000000e+00  3.9535945048746934e+00 7.2997210344424657e+00 0.0000000000000000e+00  3.9531188699714979e+00 7.2960539431303202e+00 0.0000000000000000e+00  3.9521607963165537e+00 7.2921111421399321e+00 0.0000000000000000e+00  3.9506604558223302e+00 7.2875869177873298e+00 0.0000000000000000e+00  3.9476254171027221e+00 7.2811027026829551e+00 0.0000000000000000e+00  3.9425213122690108e+00 7.2716949812613692e+00 0.0000000000000000e+00  3.9321626357066486e+00 7.2544788114951944e+00 0.0000000000000000e+00  3.9142767529551352e+00 7.2256403924519264e+00 0.0000000000000000e+00  3.8784502584722245e+00 7.1688898769970733e+00 0.0000000000000000e+00  3.8164308086797587e+00 7.0698742361083147e+00 0.0000000000000000e+00  3.6958050077592852e+00 6.8733586717155752e+00 0.0000000000000000e+00  3.4928357575632347e+00 6.5277689663141976e+00 0.0000000000000000e+00  3.1279997647234987e+00 5.8550572973262822e+00 0.0000000000000000e+00  2.5890891995378600e+00 4.7188916883153222e+00 0.0000000000000000e+00  1.7912159438428275e+00 2.5720110554140105e+00 0.0000000000000000e+00  1.1540939019045846e+00 4.8591263440076460e-01 0.0000000000000000e+00  1.0106118334515555e+00 3.4746553286914762e-02 0.0000000000000000e+00  1.0005313035663974e+00 1.7707938306038655e-03 0.0000000000000000e+00  1.0000001818863378e+00 3.0834406456373142e-04 0.0000000000000000e+00  1.0000577002085433e+00 -1.4545513636777318e-04 0.0000000000000000e+00  9.9995315451786715e-01 1.3629914347605904e-04 0.0000000000000000e+00  1.0000374219753034e+00 -1.0514057189790817e-04 0.0000000000000000e+00  9.9997160551903574e-01 7.9381828042330535e-05 0.0000000000000000e+00  1.0000212655233811e+00 -5.8850775147912424e-05 0.0000000000000000e+00  9.9998410297647833e-01 4.3565916720959126e-05 0.0000000000000000e+00  1.0000119295779368e+00 -3.2423297366708613e-05 0.0000000000000000e+00  9.9999105516175635e-01 2.4194613392330017e-05 0.0000000000000000e+00  1.0000066328020047e+00 -1.7915523960169841e-05 0.0000000000000000e+00  9.9999517415235439e-01 1.3038882850712852e-05 0.0000000000000000e+00  1.0000034457957281e+00 -9.3088307700194667e-06 0.0000000000000000e+00  9.9999756505108839e-01 6.5654939714650765e-06 0.0000000000000000e+00  1.0000017222813562e+00 -4.6278549622344597e-06 0.0000000000000000e+00  9.9999877255855407e-01 3.2868627455645128e-06 0.0000000000000000e+00  1.0000008792369699e+00 -2.3500464161029854e-06 0.0000000000000000e+00  9.9999937246580706e-01 1.6773484507343276e-06 0.0000000000000000e+00  1.0000004427448166e+00 -1.1845607503951495e-06 0.0000000000000000e+00  9.9999969179612891e-01 8.2500306086348394e-07 0.0000000000000000e+00  1.0000002126954728e+00 -5.6884017494858510e-07 0.0000000000000000e+00  9.9999985335359876e-01 3.9135309162565947e-07 0.0000000000000000e+00  1.0000001015438171e+00 -2.7033439161513397e-07 0.0000000000000000e+00  9.9999992943082860e-01 1.8757470739396467e-07 0.0000000000000000e+00  1.0000000489578897e+00 -1.3008190645399551e-07 0.0000000000000000e+00  9.9999996628668797e-01 8.9607164121044954e-08 0.0000000000000000e+00  1.0000000229934218e+00 -6.1126334793620289e-08 0.0000000000000000e+00  9.9999998443257565e-01 4.1360533605196162e-08 0.0000000000000000e+00  1.0000000105122693e+00 -2.7890593961612862e-08 0.0000000000000000e+00  9.9999999289274089e-01 1.8824881937238730e-08 0.0000000000000000e+00  1.0000000048133115e+00 -1.2732332671572404e-08 0.0000000000000000e+00  9.9999999674347650e-01 8.6090290116405443e-09 0.0000000000000000e+00  1.0000000021932707e+00 -5.7975734579659533e-09 0.0000000000000000e+00  9.9999999853234511e-01 3.8791746197319813e-09 0.0000000000000000e+00  1.0000000009764465e+00 -2.5795860609615797e-09 0.0000000000000000e+00  9.9999999935248196e-01 1.7088815549613175e-09 0.0000000000000000e+00  1.0000000004289911e+00 -1.1306784377486002e-09 0.0000000000000000e+00  9.9999999971577713e-01 7.4806569040784648e-10 0.0000000000000000e+00  1.0000000001879930e+00 -4.9422440266360132e-10 0.0000000000000000e+00  9.9999999987589883e-01 3.2555417312647636e-10 0.0000000000000000e+00  1.0000000000813076e+00 -2.1288967465985821e-10 0.0000000000000000e+00  9.9999999994646993e-01 1.3867154150550778e-10 0.0000000000000000e+00  1.0000000000344795e+00 -8.8644416533075531e-11 0.0000000000000000e+00  9.9999999997642386e-01 5.6938462443396929e-11 0.0000000000000000e+00  1.0000000000144498e+00 -3.3464355138947202e-11 0.0000000000000000e+00  9.9999999998769706e-01 2.0582150347223931e-11 0.0000000000000000e+00  1.0000000000057880e+00 -6.4646354872532567e-12 0.0000000000000000e+00  9.9999999998905964e-01 0.0000000000000000e+00 0.0000000000000000e+00  1.0003217150610832e+01 0.0000000000000000e+00 -1.6741617260269421e-02  1.0002860403154482e+01 -2.8838772856827461e-03 2.7348200681528083e-03  1.0003471418829532e+01 8.4467702510325447e-03 5.4419573192672566e-03  1.0002251533819589e+01 3.4241261999509928e-03 -2.4643474303253287e-03  1.0002703562990998e+01 1.2895723905254326e-03 1.1861349735221951e-03  1.0002403623675978e+01 4.9776630007313562e-03 -3.7405436409217451e-04  1.0001825970027426e+01 1.0498820330161023e-03 5.6507027086977368e-05  1.0001681401059496e+01 2.6538864164784839e-03 -1.0815595027816255e-04  1.0001895459868289e+01 1.6338376735344055e-03 7.0670874044262096e-05  1.0000905879534470e+01 1.6457261299155481e-03 -1.2284932144643657e-04  1.0001188576240089e+01 7.9234359968971188e-04 8.1724721512302641e-05  1.0001123898168187e+01 1.6216788020655397e-03 -1.3204126010938860e-04  1.0000515580064713e+01 3.2729146129430100e-04 1.3893597312480589e-04  1.0000536111479146e+01 8.0761243742859528e-04 -1.8041949696219735e-04  1.0000860549584417e+01 6.7321095901953299e-04 1.8229808453510915e-04  1.0000004069719152e+01 2.8347557817913645e-04 -2.1454670082319836e-04  1.0000377723945190e+01 2.2172943372547393e-04 2.4531616417953036e-04  1.0000410129731387e+01 5.9374038266711451e-04 -2.9371750132420863e-04  1.0000005531227304e+01 -2.8625710497412211e-05 3.1548505806659987e-04  9.9999382307647835e+00 1.4425664712829984e-04 -3.2013679218026751e-04  1.0000452019577491e+01 4.5697129967732216e-04 3.1461915967968671e-04  9.9996184649100499e+00 -4.2001127925983974e-05 -3.2671783302823772e-04  9.9999926825203307e+00 1.9000200834922757e-04 3.5295200482903921e-04  9.9999269676332059e+00 4.5174557741910860e-04 -3.7654190720061431e-04  9.9996915568941844e+00 2.7297519842885598e-04 3.7756472334127950e-04  9.9993040984062844e+00 3.4300784781853894e-04 -3.5952058854039838e-04  9.9997022483934170e+00 9.8880148250525416e-04 3.4496529151200114e-04  9.9987542138864800e+00 8.1357903798747030e-04 -3.4551258125552578e-04  9.9986357499804974e+00 1.4212634196385740e-03 3.5699348587307290e-04  9.9980123320607976e+00 2.0593736723163291e-03 -3.5647163938098926e-04  9.9972659871501577e+00 2.8931693519850979e-03 3.3875192497062677e-04  9.9957782576810441e+00 3.7047147633849590e-03 -3.0880728528561455e-04  9.9947752370713907e+00 5.6848178380637460e-03 2.8734986961932572e-04  9.9923548563402278e+00 7.3300754507002516e-03 -2.7316532611391172e-04  9.9897619452052506e+00 1.0178572540512413e-02 2.5931698649062654e-04  9.9861999828737424e+00 1.3557238601213368e-02 -2.3014829384330446e-04  9.9818013642831467e+00 1.8396814676508829e-02 1.8941443232087869e-04  9.9755601491813071e+00 2.3715965631742168e-02 -1.4953972749215294e-04  9.9685074530654969e+00 3.1542027215706397e-02 1.1862896466805258e-04  9.9591337816471981e+00 4.0406235312641252e-02 -9.8766109804974598e-05  9.9476465401183791e+00 5.1901843036767502e-02 7.4719800564895287e-05  9.9337768695305293e+00 6.5451382804833341e-02 -5.2604102969427330e-05  9.9172041869851082e+00 8.2541977934365685e-02 3.1679339203627066e-05  9.8969634672572493e+00 1.0178342947972201e-01 -3.8567758738092088e-05  9.8737190597769473e+00 1.2557095823892478e-01 6.3138005587437649e-05  9.8465198721546745e+00 1.5248057837156703e-01 -1.1152451788371222e-04  9.8149198840171632e+00 1.8393296120075628e-01 1.5817574242168647e-04  9.7793699648456442e+00 2.1928937001293139e-01 -2.1172150712135644e-04  9.7392307430616007e+00 2.6010608950019981e-01 2.7438597558093508e-04  9.6941312421291812e+00 3.0444992768143597e-01 -3.6083249783460894e-04  9.6446043390800824e+00 3.5489038955958885e-01 4.6774796172994445e-04  9.5903812675815452e+00 4.0935512737280266e-01 -5.7166980456929933e-04  9.5309105016792159e+00 4.6943567534861941e-01 6.6661618588446101e-04  9.4673506514541366e+00 5.3359455128145472e-01 -7.3292247027090089e-04  9.3989874888885279e+00 6.0397746441038669e-01 8.1403707815715012e-04  9.3260813849205082e+00 6.7726790550410165e-01 -8.9323692455843605e-04  9.2491584545180299e+00 7.5702085322820201e-01 1.0011559639681576e-03  9.1683883896776539e+00 8.3974744298273551e-01 -1.0704665699226444e-03  9.0832394327931389e+00 9.2793728527867592e-01 1.1260166419240732e-03  8.9952782286202932e+00 1.0188176447194899e+00 -1.1258907114390544e-03  8.9035754679161236e+00 1.1156289734318272e+00 1.1511095953059811e-03  8.8088868497344315e+00 1.2135776134345222e+00 -1.1651391280673262e-03  8.7114398365694345e+00 1.3174384230719209e+00 1.2027903970808617e-03  8.6117004440194744e+00 1.4228694362314558e+00 -1.1703507120207931e-03  8.5089426618183275e+00 1.5325532905529884e+00 1.0901135581654546e-03  8.4049582706792449e+00 1.6437503727839613e+00 -9.4315114418140427e-04  8.2984710866084459e+00 1.7600080923226571e+00 8.3562486035573965e-04  8.1905411820992580e+00 1.8758706587631371e+00 -7.9447385391131652e-04  8.0810778831990753e+00 1.9963941422647444e+00 8.3931335860335876e-04  7.9706257436455896e+00 2.1186823008011992e+00 -8.5685363766062523e-04  7.8583381051332388e+00 2.2422778771339411e+00 7.4932395010996096e-04  7.7460219773739567e+00 2.3676853084931411e+00 -5.2395159701625657e-04  7.6322221716187819e+00 2.4977224243590777e+00 3.0732626772682228e-04  7.5179602900088014e+00 2.6252840540994660e+00 -2.0333738732568327e-04  7.4033591818754241e+00 2.7559028139518618e+00 2.2785581399329084e-05  7.2881828502957084e+00 2.8919569677239982e+00 3.7026998995195499e-04  7.1727191283153200e+00 3.0225932270308808e+00 -8.7718485018265175e-04  7.0571385132757909e+00 3.1583103912857604e+00 1.0756846717000787e-03  6.9418190490688305e+00 3.2963632829860359e+00 -1.1046167951024937e-03  6.8255407425454147e+00 3.4343120125848459e+00 1.3990554932768035e-03  6.7109847600897936e+00 3.5693547418966753e+00 -1.9829011108543977e-03  6.5945391869498398e+00 3.7136349659855177e+00 2.2474247994984024e-03  6.