<?xml version="1.0"?>
<VTKFile type="UnstructuredGrid"  version="0.1"  >
<UnstructuredGrid>
<Piece  NumberOfPoints="8241" NumberOfCells="16000">
<Points>
<DataArray  type="Float64"  NumberOfComponents="3"  format="ascii">-5 -1 0  -4.95 -1 0  -4.9 -1 0  -4.85 -1 0  -4.8 -1 0  -4.75 -1 0  -4.7 -1 0  -4.65 -1 0  -4.6 -1 0  -4.55 -1 0  -4.5 -1 0  -4.45 -1 0  -4.4 -1 0  -4.35 -1 0  -4.3 -1 0  -4.25 -1 0  -4.2 -1 0  -4.15 -1 0  -4.1 -1 0  -4.05 -1 0  -4 -1 0  -3.95 -1 0  -3.9 -1 0  -3.85 -1 0  -3.8 -1 0  -3.75 -1 0  -3.7 -1 0  -3.65 -1 0  -3.6 -1 0  -3.55 -1 0  -3.5 -1 0  -3.45 -1 0  -3.4 -1 0  -3.35 -1 0  -3.3 -1 0  -3.25 -1 0  -3.2 -1 0  -3.15 -1 0  -3.1 -1 0  -3.05 -1 0  -3 -1 0  -2.95 -1 0  -2.9 -1 0  -2.85 -1 0  -2.8 -1 0  -2.75 -1 0  -2.7 -1 0  -2.65 -1 0  -2.6 -1 0  -2.55 -1 0  -2.5 -1 0  -2.45 -1 0  -2.4 -1 0  -2.35 -1 0  -2.3 -1 0  -2.25 -1 0  -2.2 -1 0  -2.15 -1 0  -2.1 -1 0  -2.05 -1 0  -2 -1 0  -1.95 -1 0  -1.9 -1 0  -1.85 -1 0  -1.8 -1 0  -1.75 -1 0  -1.7 -1 0  -1.65 -1 0  -1.6 -1 0  -1.55 -1 0  -1.5 -1 0  -1.45 -1 0  -1.4 -1 0  -1.35 -1 0  -1.3 -1 0  -1.25 -1 0  -1.2 -1 0  -1.15 -1 0  -1.1 -1 0  -1.05 -1 0  -1 -1 0  -0.9500000000000002 -1 0  -0.9000000000000004 -1 0  -0.8499999999999996 -1 0  -0.7999999999999998 -1 0  -0.75 -1 0  -0.7000000000000002 -1 0  -0.6500000000000004 -1 0  -0.5999999999999996 -1 0  -0.5499999999999998 -1 0  -0.5 -1 0  -0.4500000000000002 -1 0  -0.4000000000000004 -1 0  -0.3499999999999996 -1 0  -0.2999999999999998 -1 0  -0.25 -1 0  -0.2000000000000002 -1 0  -0.1500000000000004 -1 0  -0.09999999999999964 -1 0  -0.04999999999999982 -1 0  0 -1 0  0.04999999999999982 -1 0  0.09999999999999964 -1 0  0.1500000000000004 -1 0  0.2000000000000002 -1 0  0.25 -1 0  0.2999999999999998 -1 0  0.3499999999999996 -1 0  0.4000000000000004 -1 0  0.4500000000000002 -1 0  0.5 -1 0  0.5499999999999998 -1 0  0.5999999999999996 -1 0  0.6500000000000004 -1 0  0.7000000000000002 -1 0  0.75 -1 0  0.7999999999999998 -1 0  0.8499999999999996 -1 0  0.9000000000000004 -1 0  0.9500000000000002 -1 0  1 -1 0  1.05 -1 0  1.1 -1 0  1.15 -1 0  1.2 -1 0  1.25 -1 0  1.3 -1 0  1.35 -1 0  1.4 -1 0  1.45 -1 0  1.5 -1 0  1.55 -1 0  1.6 -1 0  1.65 -1 0  1.7 -1 0  1.75 -1 0  1.8 -1 0  1.85 -1 0  1.9 -1 0  1.95 -1 0  2 -1 0  2.05 -1 0  2.1 -1 0  2.15 -1 0  2.2 -1 0  2.25 -1 0  2.3 -1 0  2.35 -1 0  2.4 -1 0  2.45 -1 0  2.5 -1 0  2.55 -1 0  2.6 -1 0  2.65 -1 0  2.7 -1 0  2.75 -1 0  2.8 -1 0  2.85 -1 0  2.9 -1 0  2.95 -1 0  3 -1 0  3.050000000000001 -1 0  3.1 -1 0  3.15 -1 0  3.199999999999999 -1 0  3.25 -1 0  3.300000000000001 -1 0  3.35 -1 0  3.4 -1 0  3.449999999999999 -1 0  3.5 -1 0  3.550000000000001 -1 0  3.6 -1 0  3.65 -1 0  3.699999999999999 -1 0  3.75 -1 0  3.800000000000001 -1 0  3.85 -1 0  3.9 -1 0  3.949999999999999 -1 0  4 -1 0  4.050000000000001 -1 0  4.1 -1 0  4.15 -1 0  4.199999999999999 -1 0  4.25 -1 0  4.300000000000001 -1 0  4.35 -1 0  4.4 -1 0  4.449999999999999 -1 0  4.5 -1 0  4.550000000000001 -1 0  4.6 -1 0  4.65 -1 0  4.699999999999999 -1 0  4.75 -1 0  4.800000000000001 -1 0  4.85 -1 0  4.9 -1 0  4.949999999999999 -1 0  5 -1 0  -5 -0.95 0  -4.95 -0.95 0  -4.9 -0.95 0  -4.85 -0.95 0  -4.8 -0.95 0  -4.75 -0.95 0  -4.7 -0.95 0  -4.65 -0.95 0  -4.6 -0.95 0  -4.55 -0.95 0  -4.5 -0.95 0  -4.45 -0.95 0  -4.4 -0.95 0  -4.35 -0.95 0  -4.3 -0.95 0  -4.25 -0.95 0  -4.2 -0.95 0  -4.15 -0.95 0  -4.1 -0.95 0  -4.05 -0.95 0  -4 -0.95 0  -3.95 -0.95 0  -3.9 -0.95 0  -3.85 -0.95 0  -3.8 -0.95 0  -3.75 -0.95 0  -3.7 -0.95 0  -3.65 -0.95 0  -3.6 -0.95 0  -3.55 -0.95 0  -3.5 -0.95 0  -3.45 -0.95 0  -3.4 -0.95 0  -3.35 -0.95 0  -3.3 -0.95 0  -3.25 -0.95 0  -3.2 -0.95 0  -3.15 -0.95 0  -3.1 -0.95 0  -3.05 -0.95 0  -3 -0.95 0  -2.95 -0.95 0  -2.9 -0.95 0  -2.85 -0.95 0  -2.8 -0.95 0  -2.75 -0.95 0  -2.7 -0.95 0  -2.65 -0.95 0  -2.6 -0.95 0  -2.55 -0.95 0  -2.5 -0.95 0  -2.45 -0.95 0  -2.4 -0.95 0  -2.35 -0.95 0  -2.3 -0.95 0  -2.25 -0.95 0  -2.2 -0.95 0  -2.15 -0.95 0  -2.1 -0.95 0  -2.05 -0.95 0  -2 -0.95 0  -1.95 -0.95 0  -1.9 -0.95 0  -1.85 -0.95 0  -1.8 -0.95 0  -1.75 -0.95 0  -1.7 -0.95 0  -1.65 -0.95 0  -1.6 -0.95 0  -1.55 -0.95 0  -1.5 -0.95 0  -1.45 -0.95 0  -1.4 -0.95 0  -1.35 -0.95 0  -1.3 -0.95 0  -1.25 -0.95 0  -1.2 -0.95 0  -1.15 -0.95 0  -1.1 -0.95 0  -1.05 -0.95 0  -1 -0.95 0  -0.9500000000000002 -0.95 0  -0.9000000000000004 -0.95 0  -0.8499999999999996 -0.95 0  -0.7999999999999998 -0.95 0  -0.75 -0.95 0  -0.7000000000000002 -0.95 0  -0.6500000000000004 -0.95 0  -0.5999999999999996 -0.95 0  -0.5499999999999998 -0.95 0  -0.5 -0.95 0  -0.4500000000000002 -0.95 0  -0.4000000000000004 -0.95 0  -0.3499999999999996 -0.95 0  -0.2999999999999998 -0.95 0  -0.25 -0.95 0  -0.2000000000000002 -0.95 0  -0.1500000000000004 -0.95 0  -0.09999999999999964 -0.95 0  -0.04999999999999982 -0.95 0  0 -0.95 0  0.04999999999999982 -0.95 0  0.09999999999999964 -0.95 0  0.1500000000000004 -0.95 0  0.2000000000000002 -0.95 0  0.25 -0.95 0  0.2999999999999998 -0.95 0  0.3499999999999996 -0.95 0  0.4000000000000004 -0.95 0  0.4500000000000002 -0.95 0  0.5 -0.95 0  0.5499999999999998 -0.95 0  0.5999999999999996 -0.95 0  0.6500000000000004 -0.95 0  0.7000000000000002 -0.95 0  0.75 -0.95 0  0.7999999999999998 -0.95 0  0.8499999999999996 -0.95 0  0.9000000000000004 -0.95 0  0.9500000000000002 -0.95 0  1 -0.95 0  1.05 -0.95 0  1.1 -0.95 0  1.15 -0.95 0  1.2 -0.95 0  1.25 -0.95 0  1.3 -0.95 0  1.35 -0.95 0  1.4 -0.95 0  1.45 -0.95 0  1.5 -0.95 0  1.55 -0.95 0  1.6 -0.95 0  1.65 -0.95 0  1.7 -0.95 0  1.75 -0.95 0  1.8 -0.95 0  1.85 -0.95 0  1.9 -0.95 0  1.95 -0.95 0  2 -0.95 0  2.05 -0.95 0  2.1 -0.95 0  2.15 -0.95 0  2.2 -0.95 0  2.25 -0.95 0  2.3 -0.95 0  2.35 -0.95 0  2.4 -0.95 0  2.45 -0.95 0  2.5 -0.95 0  2.55 -0.95 0  2.6 -0.95 0  2.65 -0.95 0  2.7 -0.95 0  2.75 -0.95 0  2.8 -0.95 0  2.85 -0.95 0  2.9 -0.95 0  2.95 -0.95 0  3 -0.95 0  3.050000000000001 -0.95 0  3.1 -0.95 0  3.15 -0.95 0  3.199999999999999 -0.95 0  3.25 -0.95 0  3.300000000000001 -0.95 0  3.35 -0.95 0  3.4 -0.95 0  3.449999999999999 -0.95 0  3.5 -0.95 0  3.550000000000001 -0.95 0  3.6 -0.95 0  3.65 -0.95 0  3.699999999999999 -0.95 0  3.75 -0.95 0  3.800000000000001 -0.95 0  3.85 -0.95 0  3.9 -0.95 0  3.949999999999999 -0.95 0  4 -0.95 0  4.050000000000001 -0.95 0  4.1 -0.95 0  4.15 -0.95 0  4.199999999999999 -0.95 0  4.25 -0.95 0  4.300000000000001 -0.95 0  4.35 -0.95 0  4.4 -0.95 0  4.449999999999999 -0.95 0  4.5 -0.95 0  4.550000000000001 -0.95 0  4.6 -0.95 0  4.65 -0.95 0  4.699999999999999 -0.95 0  4.75 -0.95 0  4.800000000000001 -0.95 0  4.85 -0.95 0  4.9 -0.95 0  4.949999999999999 -0.95 0  5 -0.95 0  -5 -0.9 0  -4.95 -0.9 0  -4.9 -0.9 0  -4.85 -0.9 0  -4.8 -0.9 0  -4.75 -0.9 0  -4.7 -0.9 0  -4.65 -0.9 0  -4.6 -0.9 0  -4.55 -0.9 0  -4.5 -0.9 0  -4.45 -0.9 0  -4.4 -0.9 0  -4.35 -0.9 0  -4.3 -0.9 0  -4.25 -0.9 0  -4.2 -0.9 0  -4.15 -0.9 0  -4.1 -0.9 0  -4.05 -0.9 0  -4 -0.9 0  -3.95 -0.9 0  -3.9 -0.9 0  -3.85 -0.9 0  -3.8 -0.9 0  -3.75 -0.9 0  -3.7 -0.9 0  -3.65 -0.9 0  -3.6 -0.9 0  -3.55 -0.9 0  -3.5 -0.9 0  -3.45 -0.9 0  -3.4 -0.9 0  -3.35 -0.9 0  -3.3 -0.9 0  -3.25 -0.9 0  -3.2 -0.9 0  -3.15 -0.9 0  -3.1 -0.9 0  -3.05 -0.9 0  -3 -0.9 0  -2.95 -0.9 0  -2.9 -0.9 0  -2.85 -0.9 0  -2.8 -0.9 0  -2.75 -0.9 0  -2.7 -0.9 0  -2.65 -0.9 0  -2.6 -0.9 0  -2.55 -0.9 0  -2.5 -0.9 0  -2.45 -0.9 0  -2.4 -0.9 0  -2.35 -0.9 0  -2.3 -0.9 0  -2.25 -0.9 0  -2.2 -0.9 0  -2.15 -0.9 0  -2.1 -0.9 0  -2.05 -0.9 0  -2 -0.9 0  -1.95 -0.9 0  -1.9 -0.9 0  -1.85 -0.9 0  -1.8 -0.9 0  -1.75 -0.9 0  -1.7 -0.9 0  -1.65 -0.9 0  -1.6 -0.9 0  -1.55 -0.9 0  -1.5 -0.9 0  -1.45 -0.9 0  -1.4 -0.9 0  -1.35 -0.9 0  -1.3 -0.9 0  -1.25 -0.9 0  -1.2 -0.9 0  -1.15 -0.9 0  -1.1 -0.9 0  -1.05 -0.9 0  -1 -0.9 0  -0.9500000000000002 -0.9 0  -0.9000000000000004 -0.9 0  -0.8499999999999996 -0.9 0  -0.7999999999999998 -0.9 0  -0.75 -0.9 0  -0.7000000000000002 -0.9 0  -0.6500000000000004 -0.9 0  -0.5999999999999996 -0.9 0  -0.5499999999999998 -0.9 0  -0.5 -0.9 0  -0.4500000000000002 -0.9 0  -0.4000000000000004 -0.9 0  -0.3499999999999996 -0.9 0  -0.2999999999999998 -0.9 0  -0.25 -0.9 0  -0.2000000000000002 -0.9 0  -0.1500000000000004 -0.9 0  -0.09999999999999964 -0.9 0  -0.04999999999999982 -0.9 0  0 -0.9 0  0.04999999999999982 -0.9 0  0.09999999999999964 -0.9 0  0.1500000000000004 -0.9 0  0.2000000000000002 -0.9 0  0.25 -0.9 0  0.2999999999999998 -0.9 0  0.3499999999999996 -0.9 0  0.4000000000000004 -0.9 0  0.4500000000000002 -0.9 0  0.5 -0.9 0  0.5499999999999998 -0.9 0  0.5999999999999996 -0.9 0  0.6500000000000004 -0.9 0  0.7000000000000002 -0.9 0  0.75 -0.9 0  0.7999999999999998 -0.9 0  0.8499999999999996 -0.9 0  0.9000000000000004 -0.9 0  0.9500000000000002 -0.9 0  1 -0.9 0  1.05 -0.9 0  1.1 -0.9 0  1.15 -0.9 0  1.2 -0.9 0  1.25 -0.9 0  1.3 -0.9 0  1.35 -0.9 0  1.4 -0.9 0  1.45 -0.9 0  1.5 -0.9 0  1.55 -0.9 0  1.6 -0.9 0  1.65 -0.9 0  1.7 -0.9 0  1.75 -0.9 0  1.8 -0.9 0  1.85 -0.9 0  1.9 -0.9 0  1.95 -0.9 0  2 -0.9 0  2.05 -0.9 0  2.1 -0.9 0  2.15 -0.9 0  2.2 -0.9 0  2.25 -0.9 0  2.3 -0.9 0  2.35 -0.9 0  2.4 -0.9 0  2.45 -0.9 0  2.5 -0.9 0  2.55 -0.9 0  2.6 -0.9 0  2.65 -0.9 0  2.7 -0.9 0  2.75 -0.9 0  2.8 -0.9 0  2.85 -0.9 0  2.9 -0.9 0  2.95 -0.9 0  3 -0.9 0  3.050000000000001 -0.9 0  3.1 -0.9 0  3.15 -0.9 0  3.199999999999999 -0.9 0  3.25 -0.9 0  3.300000000000001 -0.9 0  3.35 -0.9 0  3.4 -0.9 0  3.449999999999999 -0.9 0  3.5 -0.9 0  3.550000000000001 -0.9 0  3.6 -0.9 0  3.65 -0.9 0  3.699999999999999 -0.9 0  3.75 -0.9 0  3.800000000000001 -0.9 0  3.85 -0.9 0  3.9 -0.9 0  3.949999999999999 -0.9 0  4 -0.9 0  4.050000000000001 -0.9 0  4.1 -0.9 0  4.15 -0.9 0  4.199999999999999 -0.9 0  4.25 -0.9 0  4.300000000000001 -0.9 0  4.35 -0.9 0  4.4 -0.9 0  4.449999999999999 -0.9 0  4.5 -0.9 0  4.550000000000001 -0.9 0  4.6 -0.9 0  4.65 -0.9 0  4.699999999999999 -0.9 0  4.75 -0.9 0  4.800000000000001 -0.9 0  4.85 -0.9 0  4.9 -0.9 0  4.949999999999999 -0.9 0  5 -0.9 0  -5 -0.85 0  -4.95 -0.85 0  -4.9 -0.85 0  -4.85 -0.85 0  -4.8 -0.85 0  -4.75 -0.85 0  -4.7 -0.85 0  -4.65 -0.85 0  -4.6 -0.85 0  -4.55 -0.85 0  -4.5 -0.85 0  -
[...]
<PointData  Vectors="f_15"> 
<DataArray  type="Float64"  Name="f_15"  NumberOfComponents="3" format="ascii">3.0000000000000009e+00 0.0000000000000000e+00 0.0000000000000000e+00  3.0000000000000004e+00 -4.3004433283064438e-16 0.0000000000000000e+00  3.0000000000000009e+00 5.9968390211644084e-16 0.0000000000000000e+00  3.0000000000000004e+00 -4.8526331095676839e-16 0.0000000000000000e+00  3.0000000000000004e+00 2.0221538700463891e-16 0.0000000000000000e+00  3.0000000000000004e+00 1.9111495166583418e-16 0.0000000000000000e+00  3.0000000000000013e+00 -1.3616061259533173e-15 0.0000000000000000e+00  3.0000000000000004e+00 3.4929790137304639e-18 0.0000000000000000e+00  3.0000000000000004e+00 -1.1583449711438871e-15 0.0000000000000000e+00  3.0000000000000018e+00 -5.2048499867053747e-16 0.0000000000000000e+00  3.0000000000000004e+00 2.4767331822787923e-16 0.0000000000000000e+00  3.0000000000000009e+00 -8.7306386726932635e-16 0.0000000000000000e+00  3.0000000000000009e+00 1.1874507234720209e-15 0.0000000000000000e+00  3.0000000000000000e+00 -6.3893460304715981e-16 0.0000000000000000e+00  3.0000000000000013e+00 5.6571763312311332e-16 0.0000000000000000e+00  3.0000000000000009e+00 -5.2868936746253959e-16 0.0000000000000000e+00  3.0000000000000009e+00 -1.4371027396749344e-16 0.0000000000000000e+00  3.0000000000000004e+00 -1.0718794979488580e-15 0.0000000000000000e+00  3.0000000000000004e+00 2.2741455019393953e-16 0.0000000000000000e+00  3.0000000000000004e+00 -5.2050479503782056e-16 0.0000000000000000e+00  3.0000000000000027e+00 2.1213679528722974e-15 0.0000000000000000e+00  3.0000000000000000e+00 -2.0631114164749465e-15 0.0000000000000000e+00  3.0000000000000036e+00 4.7819703901779542e-15 0.0000000000000000e+00  2.9999999999999969e+00 -6.8827855227381251e-15 0.0000000000000000e+00  3.0000000000000102e+00 1.3207008426207523e-14 0.0000000000000000e+00  2.9999999999999774e+00 -2.8172693743850650e-14 0.0000000000000000e+00  3.0000000000000542e+00 6.7161025987106257e-14 0.0000000000000000e+00  2.9999999999998779e+00 -1.6025140158480674e-13 0.0000000000000000e+00  3.0000000000002793e+00 3.7826382226119240e-13 0.0000000000000000e+00  2.9999999999993872e+00 -8.7755778883331709e-13 0.0000000000000000e+00  3.0000000000013141e+00 1.9541001931883103e-12 0.0000000000000000e+00  2.9999999999972888e+00 -4.1778584173063423e-12 0.0000000000000000e+00  3.0000000000054174e+00 8.5858677575103480e-12 0.0000000000000000e+00  2.9999999999895226e+00 -1.6995885220980456e-11 0.0000000000000000e+00  3.0000000000196674e+00 3.2509398921150405e-11 0.0000000000000000e+00  2.9999999999640958e+00 -6.0261589302513767e-11 0.0000000000000000e+00  3.0000000000639226e+00 1.0860736280018568e-10 0.0000000000000000e+00  2.9999999998887583e+00 -1.9086711043223874e-10 0.0000000000000000e+00  3.0000000001896878e+00 3.2801164544299422e-10 0.0000000000000000e+00  2.9999999996823639e+00 -5.5266513478202608e-10 0.0000000000000000e+00  3.0000000005234631e+00 9.1518123640701898e-10 0.0000000000000000e+00  2.9999999991492996e+00 -1.4928357456007661e-09 0.0000000000000000e+00  3.0000000013659003e+00 2.4036915187669398e-09 0.0000000000000000e+00  2.9999999978295233e+00 -3.8276230893485824e-09 0.0000000000000000e+00  3.0000000034186485e+00 6.0380327693689135e-09 0.0000000000000000e+00  2.9999999946555205e+00 -9.4497809450856148e-09 0.0000000000000000e+00  3.0000000083027460e+00 1.4691512121756192e-08 0.0000000000000000e+00  2.9999999871694927e+00 -2.2714780438055862e-08 0.0000000000000000e+00  3.0000000197398187e+00 3.4958344129345933e-08 0.0000000000000000e+00  2.9999999697433664e+00 -5.3594449048263975e-08 0.0000000000000000e+00  3.0000000462280507e+00 8.1896132145576201e-08 0.0000000000000000e+00  2.9999999295698236e+00 -1.2478266819688069e-07 0.0000000000000000e+00  3.0000001070250253e+00 1.8962864356619765e-07 0.0000000000000000e+00  2.9999998377608614e+00 -2.8746602700826482e-07 0.0000000000000000e+00  3.0000002453717958e+00 4.3477170476636943e-07 0.0000000000000000e+00  2.9999996297126730e+00 -6.5611577231682642e-07 0.0000000000000000e+00  3.0000005576027946e+00 9.8804641087791525e-07 0.0000000000000000e+00  2.9999991621364948e+00 -1.4847183998551967e-06 0.0000000000000000e+00  3.0000012561139919e+00 2.2259914039037153e-06 0.0000000000000000e+00  2.9999981214807376e+00 -3.3291153947907575e-06 0.0000000000000000e+00  3.0000028019901750e+00 4.9658144992516197e-06 0.0000000000000000e+00  2.9999958316208093e+00 -7.3873984966573258e-06 0.0000000000000000e+00  3.0000061848931026e+00 1.0961375827194338e-05 0.0000000000000000e+00  2.9999908467099670e+00 -1.6223051468539812e-05 0.0000000000000000e+00  3.0000135090338995e+00 2.3945835117246239e-05 0.0000000000000000e+00  2.9999801242728044e+00 -3.5235582564669828e-05 0.0000000000000000e+00  3.0000291377144541e+00 5.1660019195869547e-05 0.0000000000000000e+00  2.9999574493508043e+00 -7.5441717051290901e-05 0.0000000000000000e+00  3.0000618974974387e+00 1.0973812320344531e-04 0.0000000000000000e+00  2.9999102798314219e+00 -1.5907080064327117e-04 0.0000000000000000e+00  3.0001296051457276e+00 2.2980488568365276e-04 0.0000000000000000e+00  2.9998134967051180e+00 -3.3082057085396870e-04 0.0000000000000000e+00  3.0002671083253598e+00 4.7387430745131451e-04 0.0000000000000000e+00  2.9996197784580745e+00 -6.7482072723590877e-04 0.0000000000000000e+00  3.0005377844856498e+00 9.5406619793522501e-04 0.0000000000000000e+00  2.9992442209200703e+00 -1.3411906156458467e-03 0.0000000000000000e+00  3.0010571993577910e+00 1.8747730810015346e-03 0.0000000000000000e+00  2.9985286523727535e+00 -2.6128288246650812e-03 0.0000000000000000e+00  3.0020374955521638e+00 3.6167004035961739e-03 0.0000000000000000e+00  2.9972059229642523e+00 -4.9726913503995379e-03 0.0000000000000000e+00  3.0037910420726543e+00 6.7333812024820069e-03 0.0000000000000000e+00  2.9949320514619813e+00 -9.0246659844245951e-03 0.0000000000000000e+00  3.0067153560902926e+00 1.1901215820683986e-02 0.0000000000000000e+00  2.9911928880723440e+00 -1.5691680683662591e-02 0.0000000000000000e+00  3.0115193983805186e+00 2.0426317273164567e-02 0.0000000000000000e+00  2.9851637839319038e+00 -2.6615546110263656e-02 0.0000000000000000e+00  3.0187992362203526e+00 3.3486474347035604e-02 0.0000000000000000e+00  2.9770493013133663e+00 -4.1421158251992878e-02 0.0000000000000000e+00  3.0272429826508485e+00 4.8406738013202763e-02 0.0000000000000000e+00  2.9687707826754308e+00 -5.6357854496803812e-02 0.0000000000000000e+00  3.0353829391310914e+00 6.3201743929856849e-02 0.0000000000000000e+00  2.9607775925555995e+00 -7.2106778515782941e-02 0.0000000000000000e+00  3.0403908645550861e+00 7.8238957065247763e-02 0.0000000000000000e+00  2.9587595834749831e+00 -7.2147813659071844e-02 0.0000000000000000e+00  3.0193472239902373e+00 7.9187684623427401e-02 0.0000000000000000e+00  2.9565246726792789e+00 1.4591999127772648e-02 0.0000000000000000e+00  2.9110840895744823e+00 1.5809988028359298e-01 0.0000000000000000e+00  2.8313267315316946e+00 3.7357388267188418e-01 0.0000000000000000e+00  2.5501434486994490e+00 6.9746656103320437e-01 0.0000000000000000e+00  2.3434243828559782e+00 1.4015677964108986e+00 0.0000000000000000e+00  1.9056866576595808e+00 2.1176055423101809e+00 0.0000000000000000e+00  1.7139875985027486e+00 2.4593936304073019e+00 0.0000000000000000e+00  1.8712810009355356e+00 2.2780897404692015e+00 0.0000000000000000e+00  1.6316356961628955e+00 1.8512639618807667e+00 0.0000000000000000e+00  1.2510474419814894e+00 7.4603804346614577e-01 0.0000000000000000e+00  1.0282139186993773e+00 1.4049706505325263e-01 0.0000000000000000e+00  1.0107917065830023e+00 -4.8938046441534258e-03 0.0000000000000000e+00  9.9748451109913561e-01 9.2533542393514918e-03 0.0000000000000000e+00  1.0000388399674731e+00 -2.6148899340557925e-04 0.0000000000000000e+00  1.0008033876592857e+00 -2.2504500545326737e-03 0.0000000000000000e+00  9.9947646532833467e-01 1.6678010255944578e-03 0.0000000000000000e+00  1.0001063930927396e+00 -4.5370372967002933e-04 0.0000000000000000e+00  1.0000876072355247e+00 -1.8193576962044462e-04 0.0000000000000000e+00  9.9990712715991670e-01 2.5573201817975550e-04 0.0000000000000000e+00  1.0000394843783609e+00 -1.2344473982195322e-04 0.0000000000000000e+00  9.9999841791742694e-01 1.4084404191517412e-05 0.0000000000000000e+00  9.9999061160925262e-01 2.3118871105093384e-05 0.0000000000000000e+00  1.0000066461674157e+00 -1.8915750592766056e-05 0.0000000000000000e+00  9.9999800484376011e-01 6.5694390943938126e-06 0.0000000000000000e+00  9.9999964738707769e-01 4.1614228689709958e-07 0.0000000000000000e+00  1.0000007185105242e+00 -1.8744659418034425e-06 0.0000000000000000e+00  9.9999962137062204e-01 1.1060649924214175e-06 0.0000000000000000e+00  1.0000000717997262e+00 -2.6265705818355354e-07 0.0000000000000000e+00  1.0000000432214586e+00 -9.2171760388066480e-08 0.0000000000000000e+00  9.9999995587438217e-01 1.1926709266610231e-07 0.0000000000000000e+00  1.0000000179472583e+00 -5.4071486778259402e-08 0.0000000000000000e+00  9.9999999874856571e-01 6.8760778537194754e-09 0.0000000000000000e+00  9.9999999673998241e-01 7.8596432997719407e-09 0.0000000000000000e+00  1.0000000023135371e+00 -6.4290515005455462e-09 0.0000000000000000e+00  9.9999999928377226e-01 2.2531065618977391e-09 0.0000000000000000e+00  9.9999999993534194e-01 1.6555889102363433e-11 0.0000000000000000e+00  1.0000000001961384e+00 -5.0092085022154815e-10 0.0000000000000000e+00  9.9999999989327804e-01 3.0438849384336874e-10 0.0000000000000000e+00  1.0000000000232923e+00 -7.8952402221497125e-11 0.0000000000000000e+00  1.0000000000085680e+00 -1.6745741450482995e-11 0.0000000000000000e+00  9.9999999998981948e-01 2.6976495897565443e-11 0.0000000000000000e+00  1.0000000000043880e+00 -1.2872736553505990e-11 0.0000000000000000e+00  9.9999999999947653e-01 2.1444368041643179e-12 0.0000000000000000e+00  9.9999999999939959e-01 1.3922141181186491e-12 0.0000000000000000e+00  1.0000000000004730e+00 -1.2875575225138663e-12 0.0000000000000000e+00  9.9999999999983991e-01 4.8847938784111739e-13 0.0000000000000000e+00  9.9999999999999978e-01 -2.8614246167570089e-14 0.0000000000000000e+00  1.0000000000000340e+00 -8.3585338574751996e-14 0.0000000000000000e+00  9.9999999999998035e-01 5.6415356110799942e-14 0.0000000000000000e+00  1.0000000000000053e+00 -1.5864562634447811e-14 0.0000000000000000e+00  1.0000000000000016e+00 -1.7249919075995305e-15 0.0000000000000000e+00  9.9999999999999845e-01 3.8326331032310673e-15 0.0000000000000000e+00  1.0000000000000011e+00 -2.0807621325033889e-15 0.0000000000000000e+00  9.9999999999999989e-01 1.4567448300287664e-15 0.0000000000000000e+00  1.0000000000000002e+00 -2.9342265378557448e-16 0.0000000000000000e+00  1.0000000000000002e+00 -8.0909061558930127e-16 0.0000000000000000e+00  1.0000000000000007e+00 -1.4237050099728533e-15 0.0000000000000000e+00  1.0000000000000000e+00 9.2557552777572105e-16 0.0000000000000000e+00  1.0000000000000007e+00 1.2592024794032190e-15 0.0000000000000000e+00  9.9999999999999989e-01 -1.9839370329166631e-15 0.0000000000000000e+00  1.0000000000000004e+00 2.2666891684426122e-15 0.0000000000000000e+00  1.0000000000000002e+00 -1.1472806180526600e-15 0.0000000000000000e+00  1.0000000000000000e+00 1.0203119643424732e-15 0.0000000000000000e+00  1.0000000000000004e+00 -9.3786203907483463e-16 0.0000000000000000e+00  1.0000000000000002e+00 -4.1497787690466652e-16 0.0000000000000000e+00  1.0000000000000004e+00 1.9518461530413844e-15 0.0000000000000000e+00  1.0000000000000007e+00 1.2808013962256302e-16 0.0000000000000000e+00  1.0000000000000002e+00 2.6207816553518932e-16 0.0000000000000000e+00  1.0000000000000002e+00 -4.8269659229253940e-16 0.0000000000000000e+00  1.0000000000000002e+00 -7.9889784639254718e-16 0.0000000000000000e+00  1.0000000000000004e+00 -1.6904494621603286e-16 0.0000000000000000e+00  1.0000000000000000e+00 -2.5332362766769416e-16 0.0000000000000000e+00  1.0000000000000004e+00 4.3865787439614009e-16 0.0000000000000000e+00  1.0000000000000004e+00 -2.5130847792887524e-16 0.0000000000000000e+00  1.0000000000000002e+00 5.5785705010828703e-16 0.0000000000000000e+00  1.0000000000000004e+00 -1.3490618187927408e-17 0.0000000000000000e+00  1.0000000000000002e+00 -8.2787436889693129e-17 0.0000000000000000e+00  1.0000000000000002e+00 1.6282814954432608e-15 0.0000000000000000e+00  1.0000000000000002e+00 -1.1117677505641601e-15 0.0000000000000000e+00  1.0000000000000000e+00 7.2845576672921642e-16 0.0000000000000000e+00  1.0000000000000004e+00 -2.0798585210308425e-15 0.0000000000000000e+00  1.0000000000000000e+00 -3.1163563002924921e-16 0.0000000000000000e+00  1.0000000000000002e+00 1.2060781284210710e-15 0.0000000000000000e+00  1.0000000000000002e+00 -1.4205533770303180e-16 0.0000000000000000e+00  1.0000000000000000e+00 1.2071871592806221e-15 0.0000000000000000e+00  1.0000000000000004e+00 -1.3935750355023259e-15 0.0000000000000000e+00  1.0000000000000002e+00 1.7200243894492338e-15 0.0000000000000000e+00  1.0000000000000000e+00 -4.2990364262548344e-16 0.0000000000000000e+00  1.0000000000000004e+00 -1.0978571561305142e-15 0.0000000000000000e+00  1.0000000000000002e+00 -2.7338153613194789e-16 0.0000000000000000e+00  1.0000000000000007e+00 -3.4707569451541961e-16 0.0000000000000000e+00  1.0000000000000000e+00 9.0129391032094627e-16 0.0000000000000000e+00  1.0000000000000004e+00 3.7065335354086968e-16 0.0000000000000000e+00  1.0000000000000004e+00 4.6435761257575555e-16 0.0000000000000000e+00  1.0000000000000009e+00 4.7309722428739081e-17 0.0000000000000000e+00  1.0000000000000004e+00 -1.2432094288294766e-15 0.0000000000000000e+00  1.0000000000000000e+00 7.6691263168327849e-16 0.0000000000000000e+00  1.0000000000000007e+00 -6.8317605924026760e-16 0.0000000000000000e+00  1.0000000000000004e+00 2.5302902072291797e-16 0.0000000000000000e+00  1.0000000000000004e+00 1.0646695070736049e-16 0.0000000000000000e+00  1.0000000000000004e+00 -2.5229873344574326e-16 0.0000000000000000e+00  1.0000000000000004e+00 4.6713646905846007e-16 0.0000000000000000e+00  1.0000000000000000e+00 -5.0299667025341774e-17 0.0000000000000000e+00  1.0000000000000004e+00 3.8099887111592933e-16 0.0000000000000000e+00  1.0000000000000004e+00 -1.4178376562347608e-15 0.0000000000000000e+00  1.0000000000000002e+00 0.0000000000000000e+00 0.0000000000000000e+00  3.0000000000000000e+00 0.0000000000000000e+00 -2.5239847477952102e-16  3.0000000000000013e+00 2.9481303582615258e-16 -2.0560026916787804e-16  3.0000000000000004e+00 -1.8571131318580177e-16 -7.2316833445223913e-16  3.0000000000000009e+00 -1.9543073566763704e-16 3.4925267220779555e-17  3.0000000000000004e+00 2.5442372538789683e-16 -6.4904167012862718e-17  3.0000000000000009e+00 -7.8012653051108834e-16 -9.4603383873364120e-17  3.0000000000000009e+00 1.2009171032632002e-15 -1.5889623310436573e-16  3.0000000000000009e+00 7.4719124735909050e-16 -1.7526504456282928e-16  3.0000000000000013e+00 -3.9855579557141261e-16 3.0383687634868925e-17  3.0000000000000004e+00 8.5192617217828479e-16 8.4647248773331481e-17  3.0000000000000000e+00 -5.1696360520538878e-16 -4.0353154855197707e-16  3.0000000000000000e+00 6.2340458826398703e-16 8.1936156528725431e-16  3.0000000000000000e+00 -6.8617333304189524e-16 -5.8949420818281884e-16  3.0000000000000009e+00 4.5251515198311071e-17 1.0162223949798844e-15  3.0000000000000009e+00 2.3495966426200947e-16 -1.9818231227600642e-16  3.0000000000000004e+00 -4.7066012477627206e-16 4.3782491136649285e-16  3.0000000000000004e+00 3.5081120990301015e-16 2.9216402124052446e-16  3.0000000000000000e+00 -7.1398621859737975e-16 -2.0393586731738368e-16  3.0000000000000009e+00 3.4180673514424955e-17 9.6092375108906819e-16  3.0000000000000013e+00 -7.1447027000146502e-16 -2.9530249445984754e-16  3.0000000000000004e+00 -1.9924512459335007e-16 8.7403726848172152e-16  3.0000000000000009e+00 3.8847889434595528e-16 -1.4924354521799882e-15  3.0000000000000009e+00 -2.8329912441428576e-16 2.8385223389831593e-15  3.0000000000000018e+00 -8.2258123864847638e-16 -5.9668729610551040e-15  2.9999999999999982e+00 1.9449980233844876e-15 1.2547085145147887e-14  3.0000000000000084e+00 -1.4807940339620119e-15 -2.8765669452988983e-14  2.9999999999999836e+00 2.3885177703741386e-15 6.5707204278144306e-14  3.0000000000000377e+00 -2.0142981351220876e-15 -1.4636344241965602e-13  2.9999999999999218e+00 1.1966501378205469e-16 3.1746061802431026e-13  3.0000000000001537e+00 8.0383774895783509e-17 -6.6368052271063776e-13  2.9999999999997224e+00 2.2113057404665379e-14 1.3406786560462124e-12  3.0000000000004712e+00 -1.1988628637314257e-13 -2.6109382552667260e-12  2.9999999999992628e+00 4.1256334204575159e-13 4.9183309314372240e-12  3.0000000000010547e+00 -1.1630675034288567e-12 -8.9790375536354098e-12  2.9999999999986775e+00 2.8795412600591245e-12 1.5933534886531766e-11  3.0000000000013149e+00 -6.5125717209814760e-12 -2.7551867748959270e-11  2.9999999999994515e+00 1.3721090231137794e-11 4.6560789658216599e-11  2.9999999999981433e+00 -2.7340021332742072e-11 -7.7102222044304919e-11  3.0000000000074611e+00 5.2023207792668817e-11 1.2545554597526730e-10  2.9999999999811506e+00 -9.5267579786205991e-11 -2.0109848734306798e-10  3.0000000000402207e+00 1.6889345462754539e-10 3.1835389448118872e-10  2.9999999999218221e+00 -2.9126954567275355e-10 -4.9889050772055919e-10  3.0000000001429830e+00 4.9067972173273617e-10 7.7555194556243438e-10  2.9999999997496589e+00 -8.1031983946669811e-10 -1.1982079423306937e-09  3.0000000004241540e+00 1.3159030334913458e-09 1.8426707783282752e-09  2.9999999992994542e+00 -2.1070024569184566e-09 -2.8242613154873790e-09  3.0000000011339147e+00 3.3341149233005546e-09 4.3183795287606244e-09  2.9999999981941099e+00 -5.2241572625046198e-09 -6.5916107062985349e-09  3.0000000028388141e+00 8.1188135346205691e-09 1.0048561897249655e-08  2.9999999955839365e+00 -1.2532417924997322e-08 -1.5302121035609688e-08  3.0000000068127988e+00 1.9239192398940983e-08 2.3278573727883475e-08  2.9999999895582876e+00 -2.9403623142796151e-08 -3.5374658303709190e-08  3.0000000159198033e+00 4.4772268060421624e-08 5.3692120817413893e-08  2.9999999758358524e+00 -6.7952882485028478e-08 -8.1387502035801615e-08  3.0000000365302739e+00 1.0282121020657377e-07 1.2319173385130053e-07  2.9999999449827728e+00 -1.5512406193306676e-07 -1.8617690177863257e-07  3.0000000825807089e+00 2.3338705815300525e-07 2.8088083838920945e-07  2.9999998763942131e+00 -3.5028064222612443e-07 -4.2294967176077353e-07  3.0000001845951685e+00 5.2460610852234759e-07 6.3554393830130130e-07  2.9999997249108161e+00 -7.8407834111510398e-07 -9.5286482731274681e-07  3.0000004088821730e+00 1.1690639130936012e-06 1.4253430609401977e-06  2.9999993943969647e+00 -1.7378289433209960e-06 -2.1271365306697931e-06  3.0000008932875288e+00 2.5742060124711456e-06 3.1669232395343425e-06  2.9999986876446716e+00 -3.8000544274597854e-06 -4.7028587851356661e-06  3.0000019226332415e+00 5.5937951671080404e-06 6.9639666046215834e-06  2.9999971885244521e+00 -8.2172505467095790e-06 -1.0279621722898605e-05  3.0000041044320911e+00 1.2045147280849860e-05 1.5124122313244442e-05  2.9999940303336774e+00 -1.7599101137740813e-05 -2.2177766952817466e-05  3.0000086293692707e+00 2.5582862145282459e-05 3.2418416143027495e-05  2.9999876269520858e+00 -3.6956929657425697e-05 -4.7232382800488076e-05  3.0000176211299103e+00 5.3085275025261975e-05 6.8567552928942076e-05  2.9999749840973253e+00 -7.5987720577740979e-05 -9.9108236511772190e-05  3.0000355227034778e+00 1.0864470685885502e-04 1.4253671692195335e-04  2.9999495475872564e+00 -1.5507426392426889e-04 -2.0393005048498621e-04  3.0000711624721261e+00 2.2022269116559942e-04 2.9029869876054197e-04  2.9999009836821475e+00 -3.0934423757107574e-04 -4.1144726129287249e-04  3.0001349601654517e+00 4.2891715890786019e-04 5.8037567140148199e-04  2.9998182044554960e+00 -5.8804707093611729e-04 -8.1425603867585523e-04  3.0002439106573804e+00 8.0459921922517461e-04 1.1333411523773676e-03  2.9996675890252487e+00 -1.1038819741694542e-03 -1.5637667154961292e-03  3.0004534269353780e+00 1.5191673234939561e-