<?xml version="1.0"?>
<VTKFile type="UnstructuredGrid"  version="0.1"  >
<UnstructuredGrid>
<Piece  NumberOfPoints="8241" NumberOfCells="16000">
<Points>
<DataArray  type="Float64"  NumberOfComponents="3"  format="ascii">-5 -1 0  -4.95 -1 0  -4.9 -1 0  -4.85 -1 0  -4.8 -1 0  -4.75 -1 0  -4.7 -1 0  -4.65 -1 0  -4.6 -1 0  -4.55 -1 0  -4.5 -1 0  -4.45 -1 0  -4.4 -1 0  -4.35 -1 0  -4.3 -1 0  -4.25 -1 0  -4.2 -1 0  -4.15 -1 0  -4.1 -1 0  -4.05 -1 0  -4 -1 0  -3.95 -1 0  -3.9 -1 0  -3.85 -1 0  -3.8 -1 0  -3.75 -1 0  -3.7 -1 0  -3.65 -1 0  -3.6 -1 0  -3.55 -1 0  -3.5 -1 0  -3.45 -1 0  -3.4 -1 0  -3.35 -1 0  -3.3 -1 0  -3.25 -1 0  -3.2 -1 0  -3.15 -1 0  -3.1 -1 0  -3.05 -1 0  -3 -1 0  -2.95 -1 0  -2.9 -1 0  -2.85 -1 0  -2.8 -1 0  -2.75 -1 0  -2.7 -1 0  -2.65 -1 0  -2.6 -1 0  -2.55 -1 0  -2.5 -1 0  -2.45 -1 0  -2.4 -1 0  -2.35 -1 0  -2.3 -1 0  -2.25 -1 0  -2.2 -1 0  -2.15 -1 0  -2.1 -1 0  -2.05 -1 0  -2 -1 0  -1.95 -1 0  -1.9 -1 0  -1.85 -1 0  -1.8 -1 0  -1.75 -1 0  -1.7 -1 0  -1.65 -1 0  -1.6 -1 0  -1.55 -1 0  -1.5 -1 0  -1.45 -1 0  -1.4 -1 0  -1.35 -1 0  -1.3 -1 0  -1.25 -1 0  -1.2 -1 0  -1.15 -1 0  -1.1 -1 0  -1.05 -1 0  -1 -1 0  -0.9500000000000002 -1 0  -0.9000000000000004 -1 0  -0.8499999999999996 -1 0  -0.7999999999999998 -1 0  -0.75 -1 0  -0.7000000000000002 -1 0  -0.6500000000000004 -1 0  -0.5999999999999996 -1 0  -0.5499999999999998 -1 0  -0.5 -1 0  -0.4500000000000002 -1 0  -0.4000000000000004 -1 0  -0.3499999999999996 -1 0  -0.2999999999999998 -1 0  -0.25 -1 0  -0.2000000000000002 -1 0  -0.1500000000000004 -1 0  -0.09999999999999964 -1 0  -0.04999999999999982 -1 0  0 -1 0  0.04999999999999982 -1 0  0.09999999999999964 -1 0  0.1500000000000004 -1 0  0.2000000000000002 -1 0  0.25 -1 0  0.2999999999999998 -1 0  0.3499999999999996 -1 0  0.4000000000000004 -1 0  0.4500000000000002 -1 0  0.5 -1 0  0.5499999999999998 -1 0  0.5999999999999996 -1 0  0.6500000000000004 -1 0  0.7000000000000002 -1 0  0.75 -1 0  0.7999999999999998 -1 0  0.8499999999999996 -1 0  0.9000000000000004 -1 0  0.9500000000000002 -1 0  1 -1 0  1.05 -1 0  1.1 -1 0  1.15 -1 0  1.2 -1 0  1.25 -1 0  1.3 -1 0  1.35 -1 0  1.4 -1 0  1.45 -1 0  1.5 -1 0  1.55 -1 0  1.6 -1 0  1.65 -1 0  1.7 -1 0  1.75 -1 0  1.8 -1 0  1.85 -1 0  1.9 -1 0  1.95 -1 0  2 -1 0  2.05 -1 0  2.1 -1 0  2.15 -1 0  2.2 -1 0  2.25 -1 0  2.3 -1 0  2.35 -1 0  2.4 -1 0  2.45 -1 0  2.5 -1 0  2.55 -1 0  2.6 -1 0  2.65 -1 0  2.7 -1 0  2.75 -1 0  2.8 -1 0  2.85 -1 0  2.9 -1 0  2.95 -1 0  3 -1 0  3.050000000000001 -1 0  3.1 -1 0  3.15 -1 0  3.199999999999999 -1 0  3.25 -1 0  3.300000000000001 -1 0  3.35 -1 0  3.4 -1 0  3.449999999999999 -1 0  3.5 -1 0  3.550000000000001 -1 0  3.6 -1 0  3.65 -1 0  3.699999999999999 -1 0  3.75 -1 0  3.800000000000001 -1 0  3.85 -1 0  3.9 -1 0  3.949999999999999 -1 0  4 -1 0  4.050000000000001 -1 0  4.1 -1 0  4.15 -1 0  4.199999999999999 -1 0  4.25 -1 0  4.300000000000001 -1 0  4.35 -1 0  4.4 -1 0  4.449999999999999 -1 0  4.5 -1 0  4.550000000000001 -1 0  4.6 -1 0  4.65 -1 0  4.699999999999999 -1 0  4.75 -1 0  4.800000000000001 -1 0  4.85 -1 0  4.9 -1 0  4.949999999999999 -1 0  5 -1 0  -5 -0.95 0  -4.95 -0.95 0  -4.9 -0.95 0  -4.85 -0.95 0  -4.8 -0.95 0  -4.75 -0.95 0  -4.7 -0.95 0  -4.65 -0.95 0  -4.6 -0.95 0  -4.55 -0.95 0  -4.5 -0.95 0  -4.45 -0.95 0  -4.4 -0.95 0  -4.35 -0.95 0  -4.3 -0.95 0  -4.25 -0.95 0  -4.2 -0.95 0  -4.15 -0.95 0  -4.1 -0.95 0  -4.05 -0.95 0  -4 -0.95 0  -3.95 -0.95 0  -3.9 -0.95 0  -3.85 -0.95 0  -3.8 -0.95 0  -3.75 -0.95 0  -3.7 -0.95 0  -3.65 -0.95 0  -3.6 -0.95 0  -3.55 -0.95 0  -3.5 -0.95 0  -3.45 -0.95 0  -3.4 -0.95 0  -3.35 -0.95 0  -3.3 -0.95 0  -3.25 -0.95 0  -3.2 -0.95 0  -3.15 -0.95 0  -3.1 -0.95 0  -3.05 -0.95 0  -3 -0.95 0  -2.95 -0.95 0  -2.9 -0.95 0  -2.85 -0.95 0  -2.8 -0.95 0  -2.75 -0.95 0  -2.7 -0.95 0  -2.65 -0.95 0  -2.6 -0.95 0  -2.55 -0.95 0  -2.5 -0.95 0  -2.45 -0.95 0  -2.4 -0.95 0  -2.35 -0.95 0  -2.3 -0.95 0  -2.25 -0.95 0  -2.2 -0.95 0  -2.15 -0.95 0  -2.1 -0.95 0  -2.05 -0.95 0  -2 -0.95 0  -1.95 -0.95 0  -1.9 -0.95 0  -1.85 -0.95 0  -1.8 -0.95 0  -1.75 -0.95 0  -1.7 -0.95 0  -1.65 -0.95 0  -1.6 -0.95 0  -1.55 -0.95 0  -1.5 -0.95 0  -1.45 -0.95 0  -1.4 -0.95 0  -1.35 -0.95 0  -1.3 -0.95 0  -1.25 -0.95 0  -1.2 -0.95 0  -1.15 -0.95 0  -1.1 -0.95 0  -1.05 -0.95 0  -1 -0.95 0  -0.9500000000000002 -0.95 0  -0.9000000000000004 -0.95 0  -0.8499999999999996 -0.95 0  -0.7999999999999998 -0.95 0  -0.75 -0.95 0  -0.7000000000000002 -0.95 0  -0.6500000000000004 -0.95 0  -0.5999999999999996 -0.95 0  -0.5499999999999998 -0.95 0  -0.5 -0.95 0  -0.4500000000000002 -0.95 0  -0.4000000000000004 -0.95 0  -0.3499999999999996 -0.95 0  -0.2999999999999998 -0.95 0  -0.25 -0.95 0  -0.2000000000000002 -0.95 0  -0.1500000000000004 -0.95 0  -0.09999999999999964 -0.95 0  -0.04999999999999982 -0.95 0  0 -0.95 0  0.04999999999999982 -0.95 0  0.09999999999999964 -0.95 0  0.1500000000000004 -0.95 0  0.2000000000000002 -0.95 0  0.25 -0.95 0  0.2999999999999998 -0.95 0  0.3499999999999996 -0.95 0  0.4000000000000004 -0.95 0  0.4500000000000002 -0.95 0  0.5 -0.95 0  0.5499999999999998 -0.95 0  0.5999999999999996 -0.95 0  0.6500000000000004 -0.95 0  0.7000000000000002 -0.95 0  0.75 -0.95 0  0.7999999999999998 -0.95 0  0.8499999999999996 -0.95 0  0.9000000000000004 -0.95 0  0.9500000000000002 -0.95 0  1 -0.95 0  1.05 -0.95 0  1.1 -0.95 0  1.15 -0.95 0  1.2 -0.95 0  1.25 -0.95 0  1.3 -0.95 0  1.35 -0.95 0  1.4 -0.95 0  1.45 -0.95 0  1.5 -0.95 0  1.55 -0.95 0  1.6 -0.95 0  1.65 -0.95 0  1.7 -0.95 0  1.75 -0.95 0  1.8 -0.95 0  1.85 -0.95 0  1.9 -0.95 0  1.95 -0.95 0  2 -0.95 0  2.05 -0.95 0  2.1 -0.95 0  2.15 -0.95 0  2.2 -0.95 0  2.25 -0.95 0  2.3 -0.95 0  2.35 -0.95 0  2.4 -0.95 0  2.45 -0.95 0  2.5 -0.95 0  2.55 -0.95 0  2.6 -0.95 0  2.65 -0.95 0  2.7 -0.95 0  2.75 -0.95 0  2.8 -0.95 0  2.85 -0.95 0  2.9 -0.95 0  2.95 -0.95 0  3 -0.95 0  3.050000000000001 -0.95 0  3.1 -0.95 0  3.15 -0.95 0  3.199999999999999 -0.95 0  3.25 -0.95 0  3.300000000000001 -0.95 0  3.35 -0.95 0  3.4 -0.95 0  3.449999999999999 -0.95 0  3.5 -0.95 0  3.550000000000001 -0.95 0  3.6 -0.95 0  3.65 -0.95 0  3.699999999999999 -0.95 0  3.75 -0.95 0  3.800000000000001 -0.95 0  3.85 -0.95 0  3.9 -0.95 0  3.949999999999999 -0.95 0  4 -0.95 0  4.050000000000001 -0.95 0  4.1 -0.95 0  4.15 -0.95 0  4.199999999999999 -0.95 0  4.25 -0.95 0  4.300000000000001 -0.95 0  4.35 -0.95 0  4.4 -0.95 0  4.449999999999999 -0.95 0  4.5 -0.95 0  4.550000000000001 -0.95 0  4.6 -0.95 0  4.65 -0.95 0  4.699999999999999 -0.95 0  4.75 -0.95 0  4.800000000000001 -0.95 0  4.85 -0.95 0  4.9 -0.95 0  4.949999999999999 -0.95 0  5 -0.95 0  -5 -0.9 0  -4.95 -0.9 0  -4.9 -0.9 0  -4.85 -0.9 0  -4.8 -0.9 0  -4.75 -0.9 0  -4.7 -0.9 0  -4.65 -0.9 0  -4.6 -0.9 0  -4.55 -0.9 0  -4.5 -0.9 0  -4.45 -0.9 0  -4.4 -0.9 0  -4.35 -0.9 0  -4.3 -0.9 0  -4.25 -0.9 0  -4.2 -0.9 0  -4.15 -0.9 0  -4.1 -0.9 0  -4.05 -0.9 0  -4 -0.9 0  -3.95 -0.9 0  -3.9 -0.9 0  -3.85 -0.9 0  -3.8 -0.9 0  -3.75 -0.9 0  -3.7 -0.9 0  -3.65 -0.9 0  -3.6 -0.9 0  -3.55 -0.9 0  -3.5 -0.9 0  -3.45 -0.9 0  -3.4 -0.9 0  -3.35 -0.9 0  -3.3 -0.9 0  -3.25 -0.9 0  -3.2 -0.9 0  -3.15 -0.9 0  -3.1 -0.9 0  -3.05 -0.9 0  -3 -0.9 0  -2.95 -0.9 0  -2.9 -0.9 0  -2.85 -0.9 0  -2.8 -0.9 0  -2.75 -0.9 0  -2.7 -0.9 0  -2.65 -0.9 0  -2.6 -0.9 0  -2.55 -0.9 0  -2.5 -0.9 0  -2.45 -0.9 0  -2.4 -0.9 0  -2.35 -0.9 0  -2.3 -0.9 0  -2.25 -0.9 0  -2.2 -0.9 0  -2.15 -0.9 0  -2.1 -0.9 0  -2.05 -0.9 0  -2 -0.9 0  -1.95 -0.9 0  -1.9 -0.9 0  -1.85 -0.9 0  -1.8 -0.9 0  -1.75 -0.9 0  -1.7 -0.9 0  -1.65 -0.9 0  -1.6 -0.9 0  -1.55 -0.9 0  -1.5 -0.9 0  -1.45 -0.9 0  -1.4 -0.9 0  -1.35 -0.9 0  -1.3 -0.9 0  -1.25 -0.9 0  -1.2 -0.9 0  -1.15 -0.9 0  -1.1 -0.9 0  -1.05 -0.9 0  -1 -0.9 0  -0.9500000000000002 -0.9 0  -0.9000000000000004 -0.9 0  -0.8499999999999996 -0.9 0  -0.7999999999999998 -0.9 0  -0.75 -0.9 0  -0.7000000000000002 -0.9 0  -0.6500000000000004 -0.9 0  -0.5999999999999996 -0.9 0  -0.5499999999999998 -0.9 0  -0.5 -0.9 0  -0.4500000000000002 -0.9 0  -0.4000000000000004 -0.9 0  -0.3499999999999996 -0.9 0  -0.2999999999999998 -0.9 0  -0.25 -0.9 0  -0.2000000000000002 -0.9 0  -0.1500000000000004 -0.9 0  -0.09999999999999964 -0.9 0  -0.04999999999999982 -0.9 0  0 -0.9 0  0.04999999999999982 -0.9 0  0.09999999999999964 -0.9 0  0.1500000000000004 -0.9 0  0.2000000000000002 -0.9 0  0.25 -0.9 0  0.2999999999999998 -0.9 0  0.3499999999999996 -0.9 0  0.4000000000000004 -0.9 0  0.4500000000000002 -0.9 0  0.5 -0.9 0  0.5499999999999998 -0.9 0  0.5999999999999996 -0.9 0  0.6500000000000004 -0.9 0  0.7000000000000002 -0.9 0  0.75 -0.9 0  0.7999999999999998 -0.9 0  0.8499999999999996 -0.9 0  0.9000000000000004 -0.9 0  0.9500000000000002 -0.9 0  1 -0.9 0  1.05 -0.9 0  1.1 -0.9 0  1.15 -0.9 0  1.2 -0.9 0  1.25 -0.9 0  1.3 -0.9 0  1.35 -0.9 0  1.4 -0.9 0  1.45 -0.9 0  1.5 -0.9 0  1.55 -0.9 0  1.6 -0.9 0  1.65 -0.9 0  1.7 -0.9 0  1.75 -0.9 0  1.8 -0.9 0  1.85 -0.9 0  1.9 -0.9 0  1.95 -0.9 0  2 -0.9 0  2.05 -0.9 0  2.1 -0.9 0  2.15 -0.9 0  2.2 -0.9 0  2.25 -0.9 0  2.3 -0.9 0  2.35 -0.9 0  2.4 -0.9 0  2.45 -0.9 0  2.5 -0.9 0  2.55 -0.9 0  2.6 -0.9 0  2.65 -0.9 0  2.7 -0.9 0  2.75 -0.9 0  2.8 -0.9 0  2.85 -0.9 0  2.9 -0.9 0  2.95 -0.9 0  3 -0.9 0  3.050000000000001 -0.9 0  3.1 -0.9 0  3.15 -0.9 0  3.199999999999999 -0.9 0  3.25 -0.9 0  3.300000000000001 -0.9 0  3.35 -0.9 0  3.4 -0.9 0  3.449999999999999 -0.9 0  3.5 -0.9 0  3.550000000000001 -0.9 0  3.6 -0.9 0  3.65 -0.9 0  3.699999999999999 -0.9 0  3.75 -0.9 0  3.800000000000001 -0.9 0  3.85 -0.9 0  3.9 -0.9 0  3.949999999999999 -0.9 0  4 -0.9 0  4.050000000000001 -0.9 0  4.1 -0.9 0  4.15 -0.9 0  4.199999999999999 -0.9 0  4.25 -0.9 0  4.300000000000001 -0.9 0  4.35 -0.9 0  4.4 -0.9 0  4.449999999999999 -0.9 0  4.5 -0.9 0  4.550000000000001 -0.9 0  4.6 -0.9 0  4.65 -0.9 0  4.699999999999999 -0.9 0  4.75 -0.9 0  4.800000000000001 -0.9 0  4.85 -0.9 0  4.9 -0.9 0  4.949999999999999 -0.9 0  5 -0.9 0  -5 -0.85 0  -4.95 -0.85 0  -4.9 -0.85 0  -4.85 -0.85 0  -4.8 -0.85 0  -4.75 -0.85 0  -4.7 -0.85 0  -4.65 -0.85 0  -4.6 -0.85 0  -4.55 -0.85 0  -4.5 -0.85 0  -
[...]
<PointData  Vectors="f_15"> 
<DataArray  type="Float64"  Name="f_15"  NumberOfComponents="3" format="ascii">3.0000000001587130e+00 0.0000000000000000e+00 0.0000000000000000e+00  2.9999999998385873e+00 -2.3285866308267848e-10 0.0000000000000000e+00  3.0000000001608704e+00 2.9611101036158218e-10 0.0000000000000000e+00  2.9999999998080136e+00 -3.5699453539805080e-10 0.0000000000000000e+00  3.0000000002356537e+00 4.1364882430902693e-10 0.0000000000000000e+00  2.9999999997031561e+00 -4.8873209106159567e-10 0.0000000000000000e+00  3.0000000003870695e+00 5.9419190167136111e-10 0.0000000000000000e+00  2.9999999994694120e+00 -7.4918643056966625e-10 0.0000000000000000e+00  3.0000000007707128e+00 9.8665049016952571e-10 0.0000000000000000e+00  2.9999999988116954e+00 -1.3722193263692590e-09 0.0000000000000000e+00  3.0000000019356503e+00 2.0394604126183996e-09 0.0000000000000000e+00  2.9999999967063182e+00 -3.2514696690810480e-09 0.0000000000000000e+00  3.0000000057666241e+00 5.5014641494986357e-09 0.0000000000000000e+00  2.9999999897583116e+00 -9.6803133929395059e-09 0.0000000000000000e+00  3.0000000182628890e+00 1.7368615715713745e-08 0.0000000000000000e+00  2.9999999675037530e+00 -3.1355507679394047e-08 0.0000000000000000e+00  3.0000000575019166e+00 5.6544226031347769e-08 0.0000000000000000e+00  2.9999998990175269e+00 -1.0148299098282427e-07 0.0000000000000000e+00  3.0000001757606549e+00 1.8087093317576429e-07 0.0000000000000000e+00  2.9999996971471248e+00 -3.1955381881419211e-07 0.0000000000000000e+00  3.0000005161528716e+00 5.5874600553036625e-07 0.0000000000000000e+00  2.9999991305983853e+00 -9.6554923542946655e-07 0.0000000000000000e+00  3.0000014463651388e+00 1.6472922051738356e-06 0.0000000000000000e+00  2.9999976245820101e+00 -2.7729894613062907e-06 0.0000000000000000e+00  3.0000038501965900e+00 4.6048298938130486e-06 0.0000000000000000e+00  2.9999938420586907e+00 -7.5434953180552994e-06 0.0000000000000000e+00  3.0000097173240414e+00 1.2189461054656704e-05 0.0000000000000000e+00  2.9999848746129345e+00 -1.9423570874947646e-05 0.0000000000000000e+00  3.0000232150530080e+00 3.0502611051081570e-05 0.0000000000000000e+00  2.9999648812049338e+00 -4.7181549189342448e-05 0.0000000000000000e+00  3.0000523491541120e+00 7.1844671054138024e-05 0.0000000000000000e+00  2.9999231211508932e+00 -1.0770374622677687e-04 0.0000000000000000e+00  3.0001112585080438e+00 1.5895098901856902e-04 0.0000000000000000e+00  2.9998413244888678e+00 -2.3107065072732345e-04 0.0000000000000000e+00  3.0002230896722435e+00 3.3078279758147299e-04 0.0000000000000000e+00  2.9996908908153039e+00 -4.6651843954852775e-04 0.0000000000000000e+00  3.0004222029915955e+00 6.4758767110600468e-04 0.0000000000000000e+00  2.9994317911407782e+00 -8.8564072040914156e-04 0.0000000000000000e+00  3.0007541188284406e+00 1.1919941465082927e-03 0.0000000000000000e+00  2.9990132923324144e+00 -1.5825138275464246e-03 0.0000000000000000e+00  3.0012746226759939e+00 2.0689895590094275e-03 0.0000000000000000e+00  2.9983758631843318e+00 -2.6722092636323755e-03 0.0000000000000000e+00  3.0020441931329480e+00 3.3970687288842390e-03 0.0000000000000000e+00  2.9974635495814641e+00 -4.2680665721361501e-03 0.0000000000000000e+00  3.0031090344373412e+00 5.2707379422566088e-03 0.0000000000000000e+00  2.9962434260932280e+00 -6.4417396029529577e-03 0.0000000000000000e+00  3.0044902433866820e+00 7.7375528308175146e-03 0.0000000000000000e+00  2.9947052193397772e+00 -9.2251405731017776e-03 0.0000000000000000e+00  3.0061823136173715e+00 1.0801029046686559e-02 0.0000000000000000e+00  2.9928877141924066e+00 -1.2563997911117999e-02 0.0000000000000000e+00  3.0080910042091502e+00 1.4297629701842245e-02 0.0000000000000000e+00  2.9909479437495734e+00 -1.6165734406962392e-02 0.0000000000000000e+00  3.0100175347521159e+00 1.7846552476021377e-02 0.0000000000000000e+00  2.9890818618032036e+00 -1.9651709839535625e-02 0.0000000000000000e+00  3.0117869817595371e+00 2.1136905073961629e-02 0.0000000000000000e+00  2.9874781903521579e+00 -2.2704398649593834e-02 0.0000000000000000e+00  3.0131022124003630e+00 2.3668103696557564e-02 0.0000000000000000e+00  2.9865878726050243e+00 -2.4474290150463544e-02 0.0000000000000000e+00  3.0134295562935258e+00 2.4382759222318875e-02 0.0000000000000000e+00  2.9868187855972370e+00 -2.4090497978222648e-02 0.0000000000000000e+00  3.0126517945865139e+00 2.3035053052077713e-02 0.0000000000000000e+00  2.9880541558256417e+00 -2.1888778548591541e-02 0.0000000000000000e+00  3.0108062227135006e+00 1.9910799975491118e-02 0.0000000000000000e+00  2.9906285421704180e+00 -1.7347574882719041e-02 0.0000000000000000e+00  3.0072793176601142e+00 1.3681358555086677e-02 0.0000000000000000e+00  2.9948917247617168e+00 -9.4113290221477519e-03 0.0000000000000000e+00  3.0025497860689261e+00 4.9462199390373097e-03 0.0000000000000000e+00  2.9995526735158986e+00 -6.7460486474332944e-04 0.0000000000000000e+00  2.9979438199920749e+00 -3.2297470078874097e-03 0.0000000000000000e+00  3.0041265945666105e+00 7.4424877694173556e-03 0.0000000000000000e+00  2.9930412005335252e+00 -1.1853212008909694e-02 0.0000000000000000e+00  3.0090792031132283e+00 1.6502283069606938e-02 0.0000000000000000e+00  2.9884180448823701e+00 -2.0567809975908860e-02 0.0000000000000000e+00  3.0128076370252375e+00 2.3334343471694718e-02 0.0000000000000000e+00  2.9856628242975511e+00 -2.5289436387305922e-02 0.0000000000000000e+00  3.0146144433164275e+00 2.6120361247536361e-02 0.0000000000000000e+00  2.9841824339396656e+00 -2.6208907979196071e-02 0.0000000000000000e+00  3.0147619837673325e+00 2.7313999329634707e-02 0.0000000000000000e+00  2.9823591164896448e+00 -2.3510237000771352e-02 0.0000000000000000e+00  3.0129070632055170e+00 3.2023581066990506e-02 0.0000000000000000e+00  2.9758346161028668e+00 -1.4626607818581751e-02 0.0000000000000000e+00  3.0041630458034616e+00 4.9575936127286592e-02 0.0000000000000000e+00  2.9594862009187421e+00 1.8837704932465830e-02 0.0000000000000000e+00  2.9751048865855512e+00 9.2815667482307102e-02 0.0000000000000000e+00  2.9192133073255606e+00 1.0097197344945637e-01 0.0000000000000000e+00  2.9160188276565799e+00 2.0074703489580753e-01 0.0000000000000000e+00  2.8356216969125470e+00 2.4526601510018214e-01 0.0000000000000000e+00  2.8140509552160387e+00 3.9892690811323056e-01 0.0000000000000000e+00  2.7082151598107118e+00 4.8359081383263397e-01 0.0000000000000000e+00  2.6615000216813351e+00 6.7471318524408730e-01 0.0000000000000000e+00  2.5416104183839323e+00 8.1922523059221275e-01 0.0000000000000000e+00  2.4708596918598738e+00 1.0420841248828712e+00 0.0000000000000000e+00  2.3421479045644862e+00 1.1996355424570946e+00 0.0000000000000000e+00  2.2596722424046520e+00 1.4919543386147445e+00 0.0000000000000000e+00  2.1251802158693689e+00 1.6546767239169282e+00 0.0000000000000000e+00  2.0394436776189035e+00 1.9361648587596381e+00 0.0000000000000000e+00  1.9181927385552200e+00 2.1187541813889101e+00 0.0000000000000000e+00  1.8523064124296857e+00 2.3631575272898622e+00 0.0000000000000000e+00  1.8146307899972873e+00 2.3584879315594272e+00 0.0000000000000000e+00  1.8401799845835478e+00 2.3730919694418691e+00 0.0000000000000000e+00  1.8460036599519114e+00 2.2909389243596081e+00 0.0000000000000000e+00  1.8367037059163875e+00 2.3747973261751549e+00 0.0000000000000000e+00  1.8355499156061359e+00 2.3314047969080907e+00 0.0000000000000000e+00  1.8552109999427910e+00 2.2958168926094613e+00 0.0000000000000000e+00  1.8326885139072813e+00 2.3546631726223519e+00 0.0000000000000000e+00  1.8395495581289056e+00 2.2885856953289365e+00 0.0000000000000000e+00  1.8595271576996004e+00 2.3037209125832501e+00 0.0000000000000000e+00  1.8191592789422399e+00 2.3128717364103530e+00 0.0000000000000000e+00  1.8686529023805485e+00 2.2904568700784402e+00 0.0000000000000000e+00  1.8161931667958806e+00 2.3319351489896043e+00 0.0000000000000000e+00  1.8610745215182536e+00 2.2695356106925821e+00 0.0000000000000000e+00  1.7970422070174337e+00 2.2953273247995787e+00 0.0000000000000000e+00  1.7844105752705688e+00 2.1238169669693523e+00 0.0000000000000000e+00  1.6596676351232407e+00 1.9142940068270298e+00 0.0000000000000000e+00  1.3869413998023337e+00 1.1312295658718046e+00 0.0000000000000000e+00  1.1029577728824069e+00 3.4804743745951860e-01 0.0000000000000000e+00  1.0231154224633621e+00 4.9172771265311319e-02 0.0000000000000000e+00  9.9731508985021899e-01 1.7329566115389654e-02 0.0000000000000000e+00  1.0031367498017658e+00 -6.2535851128716789e-03 0.0000000000000000e+00  9.9950943680953741e-01 1.7369382411878556e-03 0.0000000000000000e+00  9.9916535162827036e-01 2.5864721043050605e-03 0.0000000000000000e+00  1.0008278213019728e+00 -3.0245505772318335e-03 0.0000000000000000e+00  9.9994611937491629e-01 9.4185555395547872e-04 0.0000000000000000e+00  9.9942580744108722e-01 1.1666112312066549e-03 0.0000000000000000e+00  1.0006345185220276e+00 -1.7451920098907705e-03 0.0000000000000000e+00  9.9971140331353214e-01 9.9023650528075997e-04 0.0000000000000000e+00  9.9992356752096090e-01 4.5582448235954929e-05 0.0000000000000000e+00  1.0002224461394622e+00 -5.6867614582733594e-04 0.0000000000000000e+00  9.9983927857784671e-01 4.8696809155384085e-04 0.0000000000000000e+00  1.0000311463661169e+00 -1.4631285264559310e-04 0.0000000000000000e+00  1.0000515927626732e+00 -1.0995584726055623e-04 0.0000000000000000e+00  9.9993963794037832e-01 1.6617184050034283e-04 0.0000000000000000e+00  1.0000286324045682e+00 -9.3141256216553340e-05 0.0000000000000000e+00  1.0000025411296278e+00 5.1777658606518029e-06 0.0000000000000000e+00  9.9998539361690864e-01 3.6044596633990222e-05 0.0000000000000000e+00  1.0000109702232647e+00 -3.1748710823647916e-05 0.0000000000000000e+00  9.9999727528861837e-01 1.0406244699879691e-05 0.0000000000000000e+00  9.9999744904781229e-01 5.3466162649564979e-06 0.0000000000000000e+00  1.0000034497420294e+00 -9.3528907417936428e-06 0.0000000000000000e+00  9.9999798258385841e-01 6.1423859536029697e-06 0.0000000000000000e+00  1.0000004756783241e+00 -1.8722095940476398e-06 0.0000000000000000e+00  1.0000002292020886e+00 -3.8317399356452320e-07 0.0000000000000000e+00  9.9999977268555851e-01 6.2722296203817194e-07 0.0000000000000000e+00  9.9999998819810709e-01 -5.4280564969515733e-08 0.0000000000000000e+00  1.0000001724485770e+00 -4.0885793760451630e-07 0.0000000000000000e+00  9.9999981230238466e-01 4.9594778094445993e-07 0.0000000000000000e+00  1.0000001238089018e+00 -3.4662039722438652e-07 0.0000000000000000e+00  9.9999994388174096e-01 1.6458649531633373e-07 0.0000000000000000e+00  1.0000000176095794e+00 -5.2769038130257798e-08 0.0000000000000000e+00  9.9999999438860465e-01 1.4117972893267343e-08 0.0000000000000000e+00  1.0000000056401566e+00 -1.2217297093135398e-08 0.0000000000000000e+00  9.9999999295419983e-01 1.6746332142461273e-08 0.0000000000000000e+00  1.0000000063462766e+00 -1.6172932315101160e-08 0.0000000000000000e+00  9.9999999575975851e-01 1.1307750393723980e-08 0.0000000000000000e+00  1.0000000022014599e+00 -6.0411621551505539e-09 0.0000000000000000e+00  9.9999999905757708e-01 2.5911925063422436e-09 0.0000000000000000e+00  1.0000000004051457e+00 -1.0525854188033503e-09 0.0000000000000000e+00  9.9999999974943332e-01 6.0340501537598234e-10 0.0000000000000000e+00  1.0000000002087526e+00 -5.0564232425591014e-10 0.0000000000000000e+00  9.9999999983350452e-01 4.1927064087942017e-10 0.0000000000000000e+00  1.0000000001120861e+00 -2.9198533070859850e-10 0.0000000000000000e+00  9.9999999993652011e-01 1.6898679866054136e-10 0.0000000000000000e+00  1.0000000000316713e+00 -8.4610538505817784e-11 0.0000000000000000e+00  9.9999999998446309e-01 4.0581798036719750e-11 0.0000000000000000e+00  1.0000000000087670e+00 -2.2084137367540089e-11 0.0000000000000000e+00  9.9999999999411060e-01 1.4648070316221325e-11 0.0000000000000000e+00  1.0000000000041358e+00 -1.0423941834743160e-11 0.0000000000000000e+00  9.9999999999728839e-01 6.9730593176705810e-12 0.0000000000000000e+00  1.0000000000016056e+00 -4.1884710278445142e-12 0.0000000000000000e+00  9.9999999999912581e-01 2.2926095510553504e-12 0.0000000000000000e+00  1.0000000000004650e+00 -1.2068465442635140e-12 0.0000000000000000e+00  9.9999999999974121e-01 6.6157330237857549e-13 0.0000000000000000e+00  1.0000000000001577e+00 -3.9841844811819859e-13 0.0000000000000000e+00  9.9999999999990041e-01 2.5371410299244045e-13 0.0000000000000000e+00  1.0000000000000633e+00 -1.6110870983372885e-13 0.0000000000000000e+00  9.9999999999996336e-01 9.7134207574950623e-14 0.0000000000000000e+00  1.0000000000000222e+00 -5.4812795676743996e-14 0.0000000000000000e+00  9.9999999999998879e-01 3.0336655325140978e-14 0.0000000000000000e+00  1.0000000000000071e+00 -1.6093274136347061e-14 0.0000000000000000e+00  9.9999999999999711e-01 7.9866233130500753e-15 0.0000000000000000e+00  1.0000000000000018e+00 -5.7183715754335970e-15 0.0000000000000000e+00  9.9999999999999933e-01 2.3791934649328798e-15 0.0000000000000000e+00  1.0000000000000009e+00 -1.1542197548417749e-15 0.0000000000000000e+00  9.9999999999999989e-01 1.4713676534191147e-16 0.0000000000000000e+00  1.0000000000000009e+00 -1.6297714038804956e-16 0.0000000000000000e+00  1.0000000000000004e+00 -9.9897490821406372e-16 0.0000000000000000e+00  1.0000000000000002e+00 1.3245987293482801e-15 0.0000000000000000e+00  1.0000000000000004e+00 -6.8196358582141373e-16 0.0000000000000000e+00  1.0000000000000002e+00 -4.5263199737565300e-16 0.0000000000000000e+00  1.0000000000000007e+00 -1.8572143366415539e-16 0.0000000000000000e+00  1.0000000000000004e+00 -9.6627146540303984e-16 0.0000000000000000e+00  1.0000000000000002e+00 -2.2463035263026712e-16 0.0000000000000000e+00  1.0000000000000004e+00 2.3809822858479603e-15 0.0000000000000000e+00  1.0000000000000004e+00 8.6576524744165657e-16 0.0000000000000000e+00  1.0000000000000000e+00 1.0085590218701034e-15 0.0000000000000000e+00  1.0000000000000004e+00 -5.8657364904157553e-16 0.0000000000000000e+00  1.0000000000000000e+00 2.5956355601329689e-15 0.0000000000000000e+00  1.0000000000000002e+00 6.8394582299084204e-16 0.0000000000000000e+00  9.9999999999999978e-01 -6.9653884306582418e-16 0.0000000000000000e+00  1.0000000000000004e+00 -5.1537462712170361e-17 0.0000000000000000e+00  9.9999999999999989e-01 0.0000000000000000e+00 0.0000000000000000e+00  3.0000000000804992e+00 0.0000000000000000e+00 5.4937397135337343e-11  2.9999999999202718e+00 -3.0144347607224903e-12 -1.5225674077815849e-11  3.0000000000688245e+00 5.7290249131759498e-11 6.6504673888423483e-12  2.9999999999357994e+00 -1.0968605683069129e-10 -2.9158719874461128e-11  3.0000000000654778e+00 1.4974207255432971e-10 5.2736402124298887e-11  2.9999999999333413e+00 -1.8368439569528671e-10 -9.4000621959661021e-11  3.0000000000604206e+00 2.2314019800849606e-10 1.7316419790116125e-10  2.9999999999622413e+00 -2.8196154186257082e-10 -3.2704819200915602e-10  2.9999999999840563e+00 3.7880057991890184e-10 6.2140595886130867e-10  3.0000000001290923e+00 -5.3977207005827674e-10 -1.1773375446535740e-09  2.9999999996452837e+00 8.0569827314767986e-10 2.2176644232408269e-09  3.0000000007847301e+00 -1.2499308281084534e-09 -4.1464728110272181e-09  2.9999999984280059e+00 2.0131890821931583e-09 7.6826485655098777e-09  3.0000000029698621e+00 -3.3588063648246544e-09 -1.4083988240674461e-08  2.9999999945973252e+00 5.7524073311947849e-09 2.5524029343097508e-08  3.0000000095815769e+00 -9.9800240085084493e-09 -4.5721050820273270e-08  2.9999999833194155e+00 1.7339408713098293e-08 8.0967484955649221e-08  3.0000000285922948e+00 -2.9964892796504708e-08 -1.4177223113541910e-07  2.9999999517063456e+00 5.1374801658604322e-08 2.4541536276029746e-07  3.0000000803592486e+00 -8.7363464625773994e-08 -4.1984120382977285e-07  2.9999998683384259e+00 1.4740732916844327e-07 7.0948920420467848e-07  3.0000002122903937e+00 -2.4678965344180276e-07 -1.1838832558052189e-06  2.9999996632492980e+00 4.0967072326009779e-07 1.9500218844178563e-06  3.0000005255022475e+00 -6.7331975540307170e-07 -3.1697841412020852e-06  2.9999991931159311e+00 1.0939635844611161e-06 5.0835866908649372e-06  3.0000012190778191e+00 -1.7551093091256043e-06 -8.0413918255279981e-06  2.9999981885007667e+00 2.7802737531540142e-06 1.2541841408022023e-05  3.0000026442664751e+00 -4.3515105720526410e-06 -1.9279901774781353e-05  2.9999962138708445e+00 6.7352014144732692e-06 2.9202958294297870e-05  3.0000053104000437e+00 -1.0309747781911790e-05 -4.3574386455452078e-05  2.9999927052441158e+00 1.5595367290906381e-05 6.4042667965643417e-05  3.0000098175338019e+00 -2.3272950161418536e-05 -9.2710055961319371e-05  2.9999870389128556e+00 3.4223490941628673e-05 1.3219485861871980e-04  3.0000167795388086e+00 -4.9557435028192018e-05 -1.8567056293350184e-04  2.9999787088977530e+00 7.0733257593792070e-05 2.5688352206012838e-04  3.0000263834597107e+00 -9.9554940632691626e-05 -3.5011877431330077e-04  2.9999680904475139e+00 1.3831836079518251e-04 4.7016446335636740e-04  3.0000375538574047e+00 -1.8942163418412771e-04 -6.2218235354206714e-04  2.9999567424316673e+00 2.5561961072674848e-04 8.1164481064467610e-04  3.0000486537296620e+00 -3.3910253943308878e-04 -1.0440090548838119e-03  2.9999460753263647e+00 4.4305817925296975e-04 1.3246123610375926e-03  3.0000578734005057e+00 -5.6976654761356136e-04 -1.6579483790791685e-03  2.9999394701666802e+00 7.2447671467908105e-04 2.0477781798590167e-03  3.0000592394326522e+00 -9.0855260983923279e-04 -2.4960355891778703e-03  2.9999438102252460e+00 1.1272233264904628e-03 3.0039104077589874e-03  3.0000489566182860e+00 -1.3735264140253187e-03 -3.5699798527180542e-03  2.9999551284456398e+00 1.6512129791719421e-03 4.1924613779887156e-03  3.0000375540897499e+00 -1.9453951139151659e-03 -4.8646830704025708e-03  2.9999646793046253e+00 2.2739380710642644e-03 5.5795892796161890e-03  3.0000206415030082e+00 -2.6178219398306627e-03 -6.3215333746757156e-03  2.9999901483226465e+00 3.0081285615721214e-03 7.0785678996009302e-03  2.9999871458830207e+00 -3.3847723539471297e-03 -7.8282980891482210e-03  3.0000067787405538e+00 3.7714285434478577e-03 8.5615964784150934e-03  3.0000085907779535e+00 -4.0628494705297578e-03 -9.2492036719470910e-03  2.9999360153670245e+00 4.3454462335883867e-03 9.8827699619964057e-03  3.0001036303667306e+00 -4.5355667433916507e-03 -1.0408763576020849e-02  2.9998624377306409e+00 4.8000884387775960e-03 1.0818855993162377e-02  3.0001486221467193e+00 -4.9655822046124074e-03 -1.1043026798999487e-02  2.9998127027334061e+00 5.1133669643939859e-03 1.1109536261448023e-02  3.0003214159087905e+00 -4.9322641597842748e-03 -1.0953584281330499e-02  2.9994954551803898e+00 4.5949075616213220e-03 1.0639638421726091e-02  3.0007607817649786e+00 -4.0063676356534052e-03 -1.0057592152148504e-02  2.9991609752795916e+00 3.5779932700803511e-03 9.2638875843054202e-03  3.0009164830353265e+00 -3.2004802424897517e-03 -8.1311145736670636e-03  2.9992102345367027e+00 2.8840606675166591e-03 6.7800181537196720e-03  3.0009865426542648e+00 -2.1906273149946247e-03 -5.1780738297878479e-03  2.9989071224188759e+00 1.0091446810803944e-03 3.5105334073009622e-03  3.0015882569154928e+00 3.9731312607185618e-04 -1.7107759193961121e-03  2.9984940637800035e+00 -1.6931699527036803e-03 -1.1072861071526318e-04  3.0016118506387595e+00 2.2303920481203791e-03 2.0754507282571295e-03  2.9990544976935354e+00 -2.5866868835475562e-03 -3.9909614936489745e-03  3.0009840093271190e+00 2.8124608318632728e-03 5.9029104451603955e-03  2.9994739033324720e+00 -3.7068879780151431e-03 -7.4993855150464464e-03  3.0009202728182283e+00 4.9261504608854858e-03 8.9718744303627258e-03  2.9993785017488781e+00 -5.7539408477613931e-03 -1.0084618130455161e-02  3.0006608143776559e+00 6.8847528580174107e-03 1.1101119055594227e-02  2.9994667484463666e+00 -5.9682296451827191e-03 -1.1779998597995422e-02  2.9994187696875056e+00 8.1778524369489954e-03 1.2459305985008601e-02  2.9990688529388425e+00 -3.0313445458620383e-03 -1.2931806246137500e-02  2.9955133537686907e+00 1.2216007096096108e-02 1.3650804582227711e-02  2.9945738050080286e+00 7.0109219474395234e-03 -1.40991659266