<?xml version="1.0"?>
<VTKFile type="UnstructuredGrid"  version="0.1"  >
<UnstructuredGrid>
<Piece  NumberOfPoints="8241" NumberOfCells="16000">
<Points>
<DataArray  type="Float64"  NumberOfComponents="3"  format="ascii">-5 -1 0  -4.95 -1 0  -4.9 -1 0  -4.85 -1 0  -4.8 -1 0  -4.75 -1 0  -4.7 -1 0  -4.65 -1 0  -4.6 -1 0  -4.55 -1 0  -4.5 -1 0  -4.45 -1 0  -4.4 -1 0  -4.35 -1 0  -4.3 -1 0  -4.25 -1 0  -4.2 -1 0  -4.15 -1 0  -4.1 -1 0  -4.05 -1 0  -4 -1 0  -3.95 -1 0  -3.9 -1 0  -3.85 -1 0  -3.8 -1 0  -3.75 -1 0  -3.7 -1 0  -3.65 -1 0  -3.6 -1 0  -3.55 -1 0  -3.5 -1 0  -3.45 -1 0  -3.4 -1 0  -3.35 -1 0  -3.3 -1 0  -3.25 -1 0  -3.2 -1 0  -3.15 -1 0  -3.1 -1 0  -3.05 -1 0  -3 -1 0  -2.95 -1 0  -2.9 -1 0  -2.85 -1 0  -2.8 -1 0  -2.75 -1 0  -2.7 -1 0  -2.65 -1 0  -2.6 -1 0  -2.55 -1 0  -2.5 -1 0  -2.45 -1 0  -2.4 -1 0  -2.35 -1 0  -2.3 -1 0  -2.25 -1 0  -2.2 -1 0  -2.15 -1 0  -2.1 -1 0  -2.05 -1 0  -2 -1 0  -1.95 -1 0  -1.9 -1 0  -1.85 -1 0  -1.8 -1 0  -1.75 -1 0  -1.7 -1 0  -1.65 -1 0  -1.6 -1 0  -1.55 -1 0  -1.5 -1 0  -1.45 -1 0  -1.4 -1 0  -1.35 -1 0  -1.3 -1 0  -1.25 -1 0  -1.2 -1 0  -1.15 -1 0  -1.1 -1 0  -1.05 -1 0  -1 -1 0  -0.9500000000000002 -1 0  -0.9000000000000004 -1 0  -0.8499999999999996 -1 0  -0.7999999999999998 -1 0  -0.75 -1 0  -0.7000000000000002 -1 0  -0.6500000000000004 -1 0  -0.5999999999999996 -1 0  -0.5499999999999998 -1 0  -0.5 -1 0  -0.4500000000000002 -1 0  -0.4000000000000004 -1 0  -0.3499999999999996 -1 0  -0.2999999999999998 -1 0  -0.25 -1 0  -0.2000000000000002 -1 0  -0.1500000000000004 -1 0  -0.09999999999999964 -1 0  -0.04999999999999982 -1 0  0 -1 0  0.04999999999999982 -1 0  0.09999999999999964 -1 0  0.1500000000000004 -1 0  0.2000000000000002 -1 0  0.25 -1 0  0.2999999999999998 -1 0  0.3499999999999996 -1 0  0.4000000000000004 -1 0  0.4500000000000002 -1 0  0.5 -1 0  0.5499999999999998 -1 0  0.5999999999999996 -1 0  0.6500000000000004 -1 0  0.7000000000000002 -1 0  0.75 -1 0  0.7999999999999998 -1 0  0.8499999999999996 -1 0  0.9000000000000004 -1 0  0.9500000000000002 -1 0  1 -1 0  1.05 -1 0  1.1 -1 0  1.15 -1 0  1.2 -1 0  1.25 -1 0  1.3 -1 0  1.35 -1 0  1.4 -1 0  1.45 -1 0  1.5 -1 0  1.55 -1 0  1.6 -1 0  1.65 -1 0  1.7 -1 0  1.75 -1 0  1.8 -1 0  1.85 -1 0  1.9 -1 0  1.95 -1 0  2 -1 0  2.05 -1 0  2.1 -1 0  2.15 -1 0  2.2 -1 0  2.25 -1 0  2.3 -1 0  2.35 -1 0  2.4 -1 0  2.45 -1 0  2.5 -1 0  2.55 -1 0  2.6 -1 0  2.65 -1 0  2.7 -1 0  2.75 -1 0  2.8 -1 0  2.85 -1 0  2.9 -1 0  2.95 -1 0  3 -1 0  3.050000000000001 -1 0  3.1 -1 0  3.15 -1 0  3.199999999999999 -1 0  3.25 -1 0  3.300000000000001 -1 0  3.35 -1 0  3.4 -1 0  3.449999999999999 -1 0  3.5 -1 0  3.550000000000001 -1 0  3.6 -1 0  3.65 -1 0  3.699999999999999 -1 0  3.75 -1 0  3.800000000000001 -1 0  3.85 -1 0  3.9 -1 0  3.949999999999999 -1 0  4 -1 0  4.050000000000001 -1 0  4.1 -1 0  4.15 -1 0  4.199999999999999 -1 0  4.25 -1 0  4.300000000000001 -1 0  4.35 -1 0  4.4 -1 0  4.449999999999999 -1 0  4.5 -1 0  4.550000000000001 -1 0  4.6 -1 0  4.65 -1 0  4.699999999999999 -1 0  4.75 -1 0  4.800000000000001 -1 0  4.85 -1 0  4.9 -1 0  4.949999999999999 -1 0  5 -1 0  -5 -0.95 0  -4.95 -0.95 0  -4.9 -0.95 0  -4.85 -0.95 0  -4.8 -0.95 0  -4.75 -0.95 0  -4.7 -0.95 0  -4.65 -0.95 0  -4.6 -0.95 0  -4.55 -0.95 0  -4.5 -0.95 0  -4.45 -0.95 0  -4.4 -0.95 0  -4.35 -0.95 0  -4.3 -0.95 0  -4.25 -0.95 0  -4.2 -0.95 0  -4.15 -0.95 0  -4.1 -0.95 0  -4.05 -0.95 0  -4 -0.95 0  -3.95 -0.95 0  -3.9 -0.95 0  -3.85 -0.95 0  -3.8 -0.95 0  -3.75 -0.95 0  -3.7 -0.95 0  -3.65 -0.95 0  -3.6 -0.95 0  -3.55 -0.95 0  -3.5 -0.95 0  -3.45 -0.95 0  -3.4 -0.95 0  -3.35 -0.95 0  -3.3 -0.95 0  -3.25 -0.95 0  -3.2 -0.95 0  -3.15 -0.95 0  -3.1 -0.95 0  -3.05 -0.95 0  -3 -0.95 0  -2.95 -0.95 0  -2.9 -0.95 0  -2.85 -0.95 0  -2.8 -0.95 0  -2.75 -0.95 0  -2.7 -0.95 0  -2.65 -0.95 0  -2.6 -0.95 0  -2.55 -0.95 0  -2.5 -0.95 0  -2.45 -0.95 0  -2.4 -0.95 0  -2.35 -0.95 0  -2.3 -0.95 0  -2.25 -0.95 0  -2.2 -0.95 0  -2.15 -0.95 0  -2.1 -0.95 0  -2.05 -0.95 0  -2 -0.95 0  -1.95 -0.95 0  -1.9 -0.95 0  -1.85 -0.95 0  -1.8 -0.95 0  -1.75 -0.95 0  -1.7 -0.95 0  -1.65 -0.95 0  -1.6 -0.95 0  -1.55 -0.95 0  -1.5 -0.95 0  -1.45 -0.95 0  -1.4 -0.95 0  -1.35 -0.95 0  -1.3 -0.95 0  -1.25 -0.95 0  -1.2 -0.95 0  -1.15 -0.95 0  -1.1 -0.95 0  -1.05 -0.95 0  -1 -0.95 0  -0.9500000000000002 -0.95 0  -0.9000000000000004 -0.95 0  -0.8499999999999996 -0.95 0  -0.7999999999999998 -0.95 0  -0.75 -0.95 0  -0.7000000000000002 -0.95 0  -0.6500000000000004 -0.95 0  -0.5999999999999996 -0.95 0  -0.5499999999999998 -0.95 0  -0.5 -0.95 0  -0.4500000000000002 -0.95 0  -0.4000000000000004 -0.95 0  -0.3499999999999996 -0.95 0  -0.2999999999999998 -0.95 0  -0.25 -0.95 0  -0.2000000000000002 -0.95 0  -0.1500000000000004 -0.95 0  -0.09999999999999964 -0.95 0  -0.04999999999999982 -0.95 0  0 -0.95 0  0.04999999999999982 -0.95 0  0.09999999999999964 -0.95 0  0.1500000000000004 -0.95 0  0.2000000000000002 -0.95 0  0.25 -0.95 0  0.2999999999999998 -0.95 0  0.3499999999999996 -0.95 0  0.4000000000000004 -0.95 0  0.4500000000000002 -0.95 0  0.5 -0.95 0  0.5499999999999998 -0.95 0  0.5999999999999996 -0.95 0  0.6500000000000004 -0.95 0  0.7000000000000002 -0.95 0  0.75 -0.95 0  0.7999999999999998 -0.95 0  0.8499999999999996 -0.95 0  0.9000000000000004 -0.95 0  0.9500000000000002 -0.95 0  1 -0.95 0  1.05 -0.95 0  1.1 -0.95 0  1.15 -0.95 0  1.2 -0.95 0  1.25 -0.95 0  1.3 -0.95 0  1.35 -0.95 0  1.4 -0.95 0  1.45 -0.95 0  1.5 -0.95 0  1.55 -0.95 0  1.6 -0.95 0  1.65 -0.95 0  1.7 -0.95 0  1.75 -0.95 0  1.8 -0.95 0  1.85 -0.95 0  1.9 -0.95 0  1.95 -0.95 0  2 -0.95 0  2.05 -0.95 0  2.1 -0.95 0  2.15 -0.95 0  2.2 -0.95 0  2.25 -0.95 0  2.3 -0.95 0  2.35 -0.95 0  2.4 -0.95 0  2.45 -0.95 0  2.5 -0.95 0  2.55 -0.95 0  2.6 -0.95 0  2.65 -0.95 0  2.7 -0.95 0  2.75 -0.95 0  2.8 -0.95 0  2.85 -0.95 0  2.9 -0.95 0  2.95 -0.95 0  3 -0.95 0  3.050000000000001 -0.95 0  3.1 -0.95 0  3.15 -0.95 0  3.199999999999999 -0.95 0  3.25 -0.95 0  3.300000000000001 -0.95 0  3.35 -0.95 0  3.4 -0.95 0  3.449999999999999 -0.95 0  3.5 -0.95 0  3.550000000000001 -0.95 0  3.6 -0.95 0  3.65 -0.95 0  3.699999999999999 -0.95 0  3.75 -0.95 0  3.800000000000001 -0.95 0  3.85 -0.95 0  3.9 -0.95 0  3.949999999999999 -0.95 0  4 -0.95 0  4.050000000000001 -0.95 0  4.1 -0.95 0  4.15 -0.95 0  4.199999999999999 -0.95 0  4.25 -0.95 0  4.300000000000001 -0.95 0  4.35 -0.95 0  4.4 -0.95 0  4.449999999999999 -0.95 0  4.5 -0.95 0  4.550000000000001 -0.95 0  4.6 -0.95 0  4.65 -0.95 0  4.699999999999999 -0.95 0  4.75 -0.95 0  4.800000000000001 -0.95 0  4.85 -0.95 0  4.9 -0.95 0  4.949999999999999 -0.95 0  5 -0.95 0  -5 -0.9 0  -4.95 -0.9 0  -4.9 -0.9 0  -4.85 -0.9 0  -4.8 -0.9 0  -4.75 -0.9 0  -4.7 -0.9 0  -4.65 -0.9 0  -4.6 -0.9 0  -4.55 -0.9 0  -4.5 -0.9 0  -4.45 -0.9 0  -4.4 -0.9 0  -4.35 -0.9 0  -4.3 -0.9 0  -4.25 -0.9 0  -4.2 -0.9 0  -4.15 -0.9 0  -4.1 -0.9 0  -4.05 -0.9 0  -4 -0.9 0  -3.95 -0.9 0  -3.9 -0.9 0  -3.85 -0.9 0  -3.8 -0.9 0  -3.75 -0.9 0  -3.7 -0.9 0  -3.65 -0.9 0  -3.6 -0.9 0  -3.55 -0.9 0  -3.5 -0.9 0  -3.45 -0.9 0  -3.4 -0.9 0  -3.35 -0.9 0  -3.3 -0.9 0  -3.25 -0.9 0  -3.2 -0.9 0  -3.15 -0.9 0  -3.1 -0.9 0  -3.05 -0.9 0  -3 -0.9 0  -2.95 -0.9 0  -2.9 -0.9 0  -2.85 -0.9 0  -2.8 -0.9 0  -2.75 -0.9 0  -2.7 -0.9 0  -2.65 -0.9 0  -2.6 -0.9 0  -2.55 -0.9 0  -2.5 -0.9 0  -2.45 -0.9 0  -2.4 -0.9 0  -2.35 -0.9 0  -2.3 -0.9 0  -2.25 -0.9 0  -2.2 -0.9 0  -2.15 -0.9 0  -2.1 -0.9 0  -2.05 -0.9 0  -2 -0.9 0  -1.95 -0.9 0  -1.9 -0.9 0  -1.85 -0.9 0  -1.8 -0.9 0  -1.75 -0.9 0  -1.7 -0.9 0  -1.65 -0.9 0  -1.6 -0.9 0  -1.55 -0.9 0  -1.5 -0.9 0  -1.45 -0.9 0  -1.4 -0.9 0  -1.35 -0.9 0  -1.3 -0.9 0  -1.25 -0.9 0  -1.2 -0.9 0  -1.15 -0.9 0  -1.1 -0.9 0  -1.05 -0.9 0  -1 -0.9 0  -0.9500000000000002 -0.9 0  -0.9000000000000004 -0.9 0  -0.8499999999999996 -0.9 0  -0.7999999999999998 -0.9 0  -0.75 -0.9 0  -0.7000000000000002 -0.9 0  -0.6500000000000004 -0.9 0  -0.5999999999999996 -0.9 0  -0.5499999999999998 -0.9 0  -0.5 -0.9 0  -0.4500000000000002 -0.9 0  -0.4000000000000004 -0.9 0  -0.3499999999999996 -0.9 0  -0.2999999999999998 -0.9 0  -0.25 -0.9 0  -0.2000000000000002 -0.9 0  -0.1500000000000004 -0.9 0  -0.09999999999999964 -0.9 0  -0.04999999999999982 -0.9 0  0 -0.9 0  0.04999999999999982 -0.9 0  0.09999999999999964 -0.9 0  0.1500000000000004 -0.9 0  0.2000000000000002 -0.9 0  0.25 -0.9 0  0.2999999999999998 -0.9 0  0.3499999999999996 -0.9 0  0.4000000000000004 -0.9 0  0.4500000000000002 -0.9 0  0.5 -0.9 0  0.5499999999999998 -0.9 0  0.5999999999999996 -0.9 0  0.6500000000000004 -0.9 0  0.7000000000000002 -0.9 0  0.75 -0.9 0  0.7999999999999998 -0.9 0  0.8499999999999996 -0.9 0  0.9000000000000004 -0.9 0  0.9500000000000002 -0.9 0  1 -0.9 0  1.05 -0.9 0  1.1 -0.9 0  1.15 -0.9 0  1.2 -0.9 0  1.25 -0.9 0  1.3 -0.9 0  1.35 -0.9 0  1.4 -0.9 0  1.45 -0.9 0  1.5 -0.9 0  1.55 -0.9 0  1.6 -0.9 0  1.65 -0.9 0  1.7 -0.9 0  1.75 -0.9 0  1.8 -0.9 0  1.85 -0.9 0  1.9 -0.9 0  1.95 -0.9 0  2 -0.9 0  2.05 -0.9 0  2.1 -0.9 0  2.15 -0.9 0  2.2 -0.9 0  2.25 -0.9 0  2.3 -0.9 0  2.35 -0.9 0  2.4 -0.9 0  2.45 -0.9 0  2.5 -0.9 0  2.55 -0.9 0  2.6 -0.9 0  2.65 -0.9 0  2.7 -0.9 0  2.75 -0.9 0  2.8 -0.9 0  2.85 -0.9 0  2.9 -0.9 0  2.95 -0.9 0  3 -0.9 0  3.050000000000001 -0.9 0  3.1 -0.9 0  3.15 -0.9 0  3.199999999999999 -0.9 0  3.25 -0.9 0  3.300000000000001 -0.9 0  3.35 -0.9 0  3.4 -0.9 0  3.449999999999999 -0.9 0  3.5 -0.9 0  3.550000000000001 -0.9 0  3.6 -0.9 0  3.65 -0.9 0  3.699999999999999 -0.9 0  3.75 -0.9 0  3.800000000000001 -0.9 0  3.85 -0.9 0  3.9 -0.9 0  3.949999999999999 -0.9 0  4 -0.9 0  4.050000000000001 -0.9 0  4.1 -0.9 0  4.15 -0.9 0  4.199999999999999 -0.9 0  4.25 -0.9 0  4.300000000000001 -0.9 0  4.35 -0.9 0  4.4 -0.9 0  4.449999999999999 -0.9 0  4.5 -0.9 0  4.550000000000001 -0.9 0  4.6 -0.9 0  4.65 -0.9 0  4.699999999999999 -0.9 0  4.75 -0.9 0  4.800000000000001 -0.9 0  4.85 -0.9 0  4.9 -0.9 0  4.949999999999999 -0.9 0  5 -0.9 0  -5 -0.85 0  -4.95 -0.85 0  -4.9 -0.85 0  -4.85 -0.85 0  -4.8 -0.85 0  -4.75 -0.85 0  -4.7 -0.85 0  -4.65 -0.85 0  -4.6 -0.85 0  -4.55 -0.85 0  -4.5 -0.85 0  -
[...]
<PointData  Vectors="f_15"> 
<DataArray  type="Float64"  Name="f_15"  NumberOfComponents="3" format="ascii">2.9875605734439166e+00 0.0000000000000000e+00 0.0000000000000000e+00  3.0027527634865554e+00 2.5077649073991650e-02 0.0000000000000000e+00  2.9863295352087276e+00 -3.8829827696381956e-02 0.0000000000000000e+00  3.0043231840518771e+00 1.6800428201612285e-02 0.0000000000000000e+00  2.9860968348384525e+00 -2.6523601509716676e-02 0.0000000000000000e+00  3.0047295127418558e+00 5.4374656039373383e-03 0.0000000000000000e+00  2.9867414302922772e+00 -1.7080300061646445e-02 0.0000000000000000e+00  3.0052890368229925e+00 2.3240601765735264e-03 0.0000000000000000e+00  2.9865805963195053e+00 -1.2382905442508738e-02 0.0000000000000000e+00  3.0063348860915049e+00 1.5221306707645923e-03 0.0000000000000000e+00  2.9863719656325176e+00 -6.7289247920797437e-03 0.0000000000000000e+00  3.0060127386384830e+00 1.2813394222518293e-03 0.0000000000000000e+00  2.9864536451099095e+00 -8.2745826679696168e-04 0.0000000000000000e+00  3.0047858313629026e+00 3.4322131953548173e-03 0.0000000000000000e+00  2.9847355117556069e+00 6.2647907133215035e-03 0.0000000000000000e+00  3.0029105976227921e+00 7.4518599973348127e-03 0.0000000000000000e+00  2.9814147861955207e+00 1.6611824554804644e-02 0.0000000000000000e+00  2.9980302837439243e+00 1.4812866421185341e-02 0.0000000000000000e+00  2.9767098481036816e+00 3.0380168895106807e-02 0.0000000000000000e+00  2.9901545024617682e+00 2.7481037715806515e-02 0.0000000000000000e+00  2.9680958306396721e+00 4.9523390088481334e-02 0.0000000000000000e+00  2.9796803515766133e+00 4.5586739604866575e-02 0.0000000000000000e+00  2.9555408208527556e+00 7.6004775803084165e-02 0.0000000000000000e+00  2.9642795854514259e+00 7.0653767237469828e-02 0.0000000000000000e+00  2.9397647024455522e+00 1.0957073236349574e-01 0.0000000000000000e+00  2.9441879787587486e+00 1.0407343827238232e-01 0.0000000000000000e+00  2.9188148273239003e+00 1.5093540112638890e-01 0.0000000000000000e+00  2.9206248244042756e+00 1.4497905415094403e-01 0.0000000000000000e+00  2.8931663474998590e+00 2.0093636064088402e-01 0.0000000000000000e+00  2.8922201339331606e+00 1.9315783681283813e-01 0.0000000000000000e+00  2.8643187306400812e+00 2.5823485765160664e-01 0.0000000000000000e+00  2.8596586214047996e+00 2.4915138477054971e-01 0.0000000000000000e+00  2.8313455418198670e+00 3.2182903902991034e-01 0.0000000000000000e+00  2.8245465438281618e+00 3.1146682322750791e-01 0.0000000000000000e+00  2.7948787468105496e+00 3.9225022418884525e-01 0.0000000000000000e+00  2.7863836983837835e+00 3.7868459481472178e-01 0.0000000000000000e+00  2.7563016894622412e+00 4.6762210994185610e-01 0.0000000000000000e+00  2.7457544489414412e+00 4.5264500510541084e-01 0.0000000000000000e+00  2.7152916918377468e+00 5.4465829215782358e-01 0.0000000000000000e+00  2.7038723934462876e+00 5.3339235036221544e-01 0.0000000000000000e+00  2.6721476234650785e+00 6.2353426773611575e-01 0.0000000000000000e+00  2.6607138456080284e+00 6.1965348391690245e-01 0.0000000000000000e+00  2.6277141307182981e+00 7.0196640657371934e-01 0.0000000000000000e+00  2.6164523850813737e+00 7.1452728295220536e-01 0.0000000000000000e+00  2.5821577071709361e+00 7.7707162049720824e-01 0.0000000000000000e+00  2.5715465529412920e+00 8.1558174352526780e-01 0.0000000000000000e+00  2.5357262556650202e+00 8.5443243578013905e-01 0.0000000000000000e+00  2.5260088114066610e+00 9.1653869638360763e-01 0.0000000000000000e+00  2.4888897137560266e+00 9.3574677569142650e-01 0.0000000000000000e+00  2.4798642311192589e+00 1.0187763499428077e+00 0.0000000000000000e+00  2.4418527457816439e+00 1.0197611257633363e+00 0.0000000000000000e+00  2.4332940909465575e+00 1.1178604255391500e+00 0.0000000000000000e+00  2.3948208115707312e+00 1.1141574034679720e+00 0.0000000000000000e+00  2.3863589680990693e+00 1.2080517463950184e+00 0.0000000000000000e+00  2.3479659842767084e+00 1.2154465273313306e+00 0.0000000000000000e+00  2.3392595224516231e+00 1.3000830935288130e+00 0.0000000000000000e+00  2.3012531101334814e+00 1.3130736429296028e+00 0.0000000000000000e+00  2.2920679460009206e+00 1.3940440520313295e+00 0.0000000000000000e+00  2.2548889587305445e+00 1.4171187673060344e+00 0.0000000000000000e+00  2.2447283684310704e+00 1.4817432367799976e+00 0.0000000000000000e+00  2.2088126243243202e+00 1.5197215520996166e+00 0.0000000000000000e+00  2.1976685984650826e+00 1.5841697838291822e+00 0.0000000000000000e+00  2.1628692383745496e+00 1.6080439832806099e+00 0.0000000000000000e+00  2.1507538979654384e+00 1.6864324184741526e+00 0.0000000000000000e+00  2.1176993876617169e+00 1.7123815967528111e+00 0.0000000000000000e+00  2.1036877391884992e+00 1.7771350099577390e+00 0.0000000000000000e+00  2.0732400753891005e+00 1.8112094834227153e+00 0.0000000000000000e+00  2.0571839752367311e+00 1.8815628758274889e+00 0.0000000000000000e+00  2.0294963361764746e+00 1.9051520910179831e+00 0.0000000000000000e+00  2.0112151850017730e+00 1.9794723139019457e+00 0.0000000000000000e+00  1.9869052787299799e+00 2.0025670675907836e+00 0.0000000000000000e+00  1.9664934220120320e+00 2.0756292393966795e+00 0.0000000000000000e+00  1.9452750879400085e+00 2.0991557016086309e+00 0.0000000000000000e+00  1.9238558058354989e+00 2.1700274629667908e+00 0.0000000000000000e+00  1.9062433689814069e+00 2.1846347152942318e+00 0.0000000000000000e+00  1.8849484063838267e+00 2.2591342897380553e+00 0.0000000000000000e+00  1.8731067938179902e+00 2.2635565261463753e+00 0.0000000000000000e+00  1.8547498640276991e+00 2.3251497644346846e+00 0.0000000000000000e+00  1.8507292428962301e+00 2.3150888944345556e+00 0.0000000000000000e+00  1.8403843965037563e+00 2.3580229598045799e+00 0.0000000000000000e+00  1.8446217397837017e+00 2.3297421193315415e+00 0.0000000000000000e+00  1.8399973448242040e+00 2.3582946982238622e+00 0.0000000000000000e+00  1.8468880018770550e+00 2.3272672495861610e+00 0.0000000000000000e+00  1.8406785725172949e+00 2.3516593636360605e+00 0.0000000000000000e+00  1.8487420697189645e+00 2.3264915778658177e+00 0.0000000000000000e+00  1.8413630078536878e+00 2.3491340237173284e+00 0.0000000000000000e+00  1.8499971049387223e+00 2.3237548793523701e+00 0.0000000000000000e+00  1.8426083778623250e+00 2.3462187428218670e+00 0.0000000000000000e+00  1.8493714540460486e+00 2.3245068309803916e+00 0.0000000000000000e+00  1.8434386238798199e+00 2.3436941936901450e+00 0.0000000000000000e+00  1.8492875087980729e+00 2.3261448413252399e+00 0.0000000000000000e+00  1.8442060645617793e+00 2.3402523107465418e+00 0.0000000000000000e+00  1.8501743638276451e+00 2.3260499101778858e+00 0.0000000000000000e+00  1.8435258682937348e+00 2.3381160077720984e+00 0.0000000000000000e+00  1.8520481008861089e+00 2.3259931649017078e+00 0.0000000000000000e+00  1.8410075733210645e+00 2.3397412611369965e+00 0.0000000000000000e+00  1.8555940229904784e+00 2.3204613297339929e+00 0.0000000000000000e+00  1.8387967468148056e+00 2.3448767065601177e+00 0.0000000000000000e+00  1.8557585490160029e+00 2.3157248950471163e+00 0.0000000000000000e+00  1.8412100184880773e+00 2.3461806314626155e+00 0.0000000000000000e+00  1.8524992468979420e+00 2.3146423782183549e+00 0.0000000000000000e+00  1.8453379649699175e+00 2.3453360920106392e+00 0.0000000000000000e+00  1.8476691397230192e+00 2.3169853419221811e+00 0.0000000000000000e+00  1.8505770337961787e+00 2.3405396859169625e+00 0.0000000000000000e+00  1.8428281671286064e+00 2.3216305477423100e+00 0.0000000000000000e+00  1.8551934516956536e+00 2.3334376544515436e+00 0.0000000000000000e+00  1.8392816303036301e+00 2.3294591198815748e+00 0.0000000000000000e+00  1.8559070893319856e+00 2.3284077297895163e+00 0.0000000000000000e+00  1.8414129700012871e+00 2.3297603917159089e+00 0.0000000000000000e+00  1.8531646601049219e+00 2.3285928118339192e+00 0.0000000000000000e+00  1.8435276475880804e+00 2.3307046770308255e+00 0.0000000000000000e+00  1.8504579636572975e+00 2.3285627745751101e+00 0.0000000000000000e+00  1.8476602739301451e+00 2.3270909956820311e+00 0.0000000000000000e+00  1.8461760917288059e+00 2.3329301265325051e+00 0.0000000000000000e+00  1.8504863898150583e+00 2.3238713705818674e+00 0.0000000000000000e+00  1.8446047250951840e+00 2.3347720475833498e+00 0.0000000000000000e+00  1.8517565011211965e+00 2.3213495961513519e+00 0.0000000000000000e+00  1.8433498693891972e+00 2.3369917081157809e+00 0.0000000000000000e+00  1.8521827585738364e+00 2.3200239295575327e+00 0.0000000000000000e+00  1.8443444379862073e+00 2.3350723227840660e+00 0.0000000000000000e+00  1.8500420160591780e+00 2.3231209079615840e+00 0.0000000000000000e+00  1.8462688892336201e+00 2.3315475776400993e+00 0.0000000000000000e+00  1.8492485246301424e+00 2.3249794186375952e+00 0.0000000000000000e+00  1.8463099231373838e+00 2.3302664751809754e+00 0.0000000000000000e+00  1.8485429119666954e+00 2.3255835877009345e+00 0.0000000000000000e+00  1.8477605517149285e+00 2.3248062943547194e+00 0.0000000000000000e+00  1.8475797636081368e+00 2.3229610997821579e+00 0.0000000000000000e+00  1.8471167799616841e+00 2.3199365953282460e+00 0.0000000000000000e+00  1.8488285530498878e+00 2.3144508637453849e+00 0.0000000000000000e+00  1.8465777365815097e+00 2.3139117956394126e+00 0.0000000000000000e+00  1.8485279762524742e+00 2.3097659736485618e+00 0.0000000000000000e+00  1.8463199514654307e+00 2.3115939912046120e+00 0.0000000000000000e+00  1.8497505515132762e+00 2.3065653473592418e+00 0.0000000000000000e+00  1.8450355952624220e+00 2.3149490909119832e+00 0.0000000000000000e+00  1.8499906236646444e+00 2.3105386426401271e+00 0.0000000000000000e+00  1.8455401520311721e+00 2.3177485015451444e+00 0.0000000000000000e+00  1.8497960747744746e+00 2.3151440971571056e+00 0.0000000000000000e+00  1.8450714008018478e+00 2.3233533990271651e+00 0.0000000000000000e+00  1.8505572928901490e+00 2.3181624693087826e+00 0.0000000000000000e+00  1.8445353955416897e+00 2.3252510371991510e+00 0.0000000000000000e+00  1.8512025036447748e+00 2.3216793124409807e+00 0.0000000000000000e+00  1.8438451666552882e+00 2.3268330992651474e+00 0.0000000000000000e+00  1.8517906606750751e+00 2.3226135627797211e+00 0.0000000000000000e+00  1.8436511250295451e+00 2.3269375942075348e+00 0.0000000000000000e+00  1.8524546869060872e+00 2.3238382211012611e+00 0.0000000000000000e+00  1.8413328759611456e+00 2.3294764546840026e+00 0.0000000000000000e+00  1.8561746555571856e+00 2.3172600821525240e+00 0.0000000000000000e+00  1.8377330452437359e+00 2.3362189806653308e+00 0.0000000000000000e+00  1.8570970726821585e+00 2.3135194021394008e+00 0.0000000000000000e+00  1.8390438272493279e+00 2.3324669920053576e+00 0.0000000000000000e+00  1.8549921882317857e+00 2.3161169111857824e+00 0.0000000000000000e+00  1.8387997114658059e+00 2.3314100165598268e+00 0.0000000000000000e+00  1.8571128978013174e+00 2.3080843087916172e+00 0.0000000000000000e+00  1.8362455524980652e+00 2.3382716341004315e+00 0.0000000000000000e+00  1.8568900889738880e+00 2.3032185427661074e+00 0.0000000000000000e+00  1.8394315224556608e+00 2.3328135700849599e+00 0.0000000000000000e+00  1.8521232841044915e+00 2.3109760422889369e+00 0.0000000000000000e+00  1.8431013375770693e+00 2.3246799550849544e+00 0.0000000000000000e+00  1.8506491065632900e+00 2.3117795948300679e+00 0.0000000000000000e+00  1.8432378651231147e+00 2.3257132712916677e+00 0.0000000000000000e+00  1.8498380990376608e+00 2.3095550797040634e+00 0.0000000000000000e+00  1.8457222558123199e+00 2.3207183752077691e+00 0.0000000000000000e+00  1.8447464305905716e+00 2.3149532432979569e+00 0.0000000000000000e+00  1.8490886665615083e+00 2.3075744022839735e+00 0.0000000000000000e+00  1.8367802776474924e+00 2.3105904259724435e+00 0.0000000000000000e+00  1.8384558120127483e+00 2.2755285362365494e+00 0.0000000000000000e+00  1.8008299420953084e+00 2.2317016828129992e+00 0.0000000000000000e+00  1.7539847125113128e+00 2.0755924697335719e+00 0.0000000000000000e+00  1.6271516089131643e+00 1.8147467704379550e+00 0.0000000000000000e+00  1.3442388419112710e+00 9.7748946621193589e-01 0.0000000000000000e+00  1.0854517850108043e+00 3.2731395093444948e-01 0.0000000000000000e+00  1.0215372757174190e+00 -9.7677689134703458e-03 0.0000000000000000e+00  9.9576845890628896e-01 5.5428558042685212e-02 0.0000000000000000e+00  1.0070170791167239e+00 -7.0706058199474120e-02 0.0000000000000000e+00  9.9352479908966784e-01 6.3423940680535376e-02 0.0000000000000000e+00  1.0074456816207116e+00 -8.7432920682215504e-02 0.0000000000000000e+00  9.9563330073044243e-01 7.3508589559320228e-02 0.0000000000000000e+00  1.0039552957016173e+00 -9.4557572445751151e-02 0.0000000000000000e+00  1.0022948863663776e+00 7.5264035855722430e-02 0.0000000000000000e+00  9.9848936929669785e-01 -9.9921051088034299e-02 0.0000000000000000e+00  1.0104845150628228e+00 7.7976875235982054e-02 0.0000000000000000e+00  9.9191257557502122e-01 -1.0610853467607020e-01 0.0000000000000000e+00  1.0222239247895253e+00 7.4540677880623490e-02 0.0000000000000000e+00  9.8272404735430274e-01 -1.0580754953924283e-01 0.0000000000000000e+00  1.0363246035624825e+00 6.5528951202953448e-02 0.0000000000000000e+00  9.7490062985011949e-01 -1.0721688955673500e-01 0.0000000000000000e+00  1.0490813985016330e+00 5.9120874986202158e-02 0.0000000000000000e+00  9.6954471559944322e-01 -1.1130783921961097e-01 0.0000000000000000e+00  1.0616500170777072e+00 4.9706449516482260e-02 0.0000000000000000e+00  9.6496348524768238e-01 -1.1121988371815755e-01 0.0000000000000000e+00  1.0735629299989990e+00 3.6360248564472154e-02 0.0000000000000000e+00  9.6264807255805551e-01 -1.1008855452306672e-01 0.0000000000000000e+00  1.0826011282453412e+00 2.4361400568437979e-02 0.0000000000000000e+00  9.6259062510184079e-01 -1.0864590438236704e-01 0.0000000000000000e+00  1.0890627125207979e+00 1.2897851107676406e-02 0.0000000000000000e+00  9.6334438452574178e-01 -1.0347838635036240e-01 0.0000000000000000e+00  1.0926400965238716e+00 2.4745627769417007e-03 0.0000000000000000e+00  9.6507368528110915e-01 -9.6282185862117120e-02 0.0000000000000000e+00  1.0928184359293633e+00 -5.6799600695386296e-03 0.0000000000000000e+00  9.6772773180136995e-01 -8.5792089719865031e-02 0.0000000000000000e+00  1.0906788400931782e+00 0.0000000000000000e+00 0.0000000000000000e+00  3.0062199269786447e+00 0.0000000000000000e+00 -3.0099465875537936e-02  3.0037725175577665e+00 -1.1890055233824269e-03 6.8851369205503842e-03  3.0061533923285544e+00 1.5686401077760093e-02 8.2135791163406198e-03  3.0039624533648785e+00 1.1291072529794404e-02 -2.6099075119442243e-03  3.0050669954450808e+00 3.9049211205059269e-03 7.0386348956934014e-04  3.0041988347815232e+00 1.4141345138439310e-02 1.0668770334624027e-03  3.0041629307179707e+00 4.5353937357006440e-03 -1.1740368851095877e-03  3.0031811700754787e+00 1.0375108377748460e-02 1.3335832992491321e-03  3.0036762945743605e+00 5.3299520436019023e-03 -9.4303873324769281e-04  3.0019499987174516e+00 9.3994425688471821e-03 9.2042293546971141e-04  3.0019652926248055e+00 4.9128798553353531e-03 -6.3415827209960707e-04  3.0009889815253472e+00 9.2119702144522059e-03 6.1484681707714981e-04  2.9997366653229087e+00 6.4323787586838743e-03 -2.9655222717144556e-04  2.9984369729042903e+00 1.0156334989691708e-02 1.6212220155431683e-04  2.9973774454830755e+00 9.3957297419776670e-03 1.8533471635171780e-04  2.9946754798417392e+00 1.4253325407256247e-02 -3.6235042115859275e-04  2.9926807502059396e+00 1.5265373881095595e-02 6.0638968794728273e-04  2.9899584981985066e+00 2.1555708131712450e-02 -7.4542013511232476e-04  2.9857176247606483e+00 2.6013292018778843e-02 9.0584184615490700e-04  2.9818058347317629e+00 3.3988446518746496e-02 -1.0302693531720839e-03  2.9767714214939445e+00 4.1847831528962320e-02 1.1342476663325125e-03  2.9701689622386920e+00 5.3461603935587569e-02 -1.1909357297745875e-03  2.9633882907304216e+00 6.4540862511675956e-02 1.1424985166467781e-03  2.9556263209884590e+00 7.9956524322751341e-02 -1.0322494772402723e-03  2.9456833112920373e+00 9.5566469496954187e-02 8.0620467805254047e-04  2.9360737000455877e+00 1.1462187169754638e-01 -5.2232182409019817e-04  2.9246980336632693e+00 1.3423090215693953e-01 1.3901781428992451e-04  2.9119166935181089e+00 1.5837562591297705e-01 3.4883838269991985e-04  2.8988408427238750e+00 1.8067480354918722e-01 -9.7356608813321593e-04  2.8845735846149712e+00 2.1000404005133824e-01 1.7734525061228047e-03  2.8687320240955478e+00 2.3527032953657143e-01 -2.7290004344920470e-03  2.8529288159737645e+00 2.6888064826118790e-01 3.8589049410197025e-03  2.8359453076532288e+00 2.9639616592086659e-01 -5.1276975392604068e-03  2.8176185619395224e+00 3.3533787203488058e-01 6.6268227456702366e-03  2.7997839822600810e+00 3.6273493905624776e-01 -8.3630391639171377e-03  2.7800911245516224e+00 4.0774979128354594e-01 1.0521431125140732e-02  2.7608279500421085e+00 4.3493077106471029e-01 -1.3019538846491711e-02  2.7399196670872419e+00 4.8423850482766784e-01 1.5926974883728066e-02  2.7203282833709928e+00 5.1164085323142949e-01 -1.9053977444822155e-02  2.6975108816419975e+00 5.6588271011518598e-01 2.2486452069395892e-02  2.6781085034541046e+00 5.9065909173046782e-01 -2.5943548586147169e-02  2.6538606650284073e+00 6.5141955982766642e-01 2.9566136356211168e-02  2.6343704776587589e+00 6.7382335787336800e-01 -3.2742611764607139e-02  2.6090820055507993e+00 7.3812651389746597e-01 3.5490356449393502e-02  2.5897011150228413e+00 7.6009003653062635e-01 -3.7119120603410959e-02  2.5634269064540578e+00 8.2848443666853744e-01 3.7859720079535530e-02  2.5441556533775156e+00 8.4663507579070729e-01 -3.7330115499510354e-02  2.5173826979370411e+00 9.2087721679864432e-01 3.5824787366326001e-02  2.4978290564494898e+00 9.3764929918684015e-01 -3.3314055112484565e-02  2.4710828502896707e+00 1.0112350111552764e+00 2.9854873697591461e-02  2.4510203005009892e+00 1.0320789472598801e+00 -2.5978178457953624e-02  2.4245807330321814e+00 1.1044413370671069e+00 2.1791913022489340e-02  2.4039323017717495e+00 1.1252909607610306e+00 -1.8463408173159012e-02  2.3778557243751064e+00 1.1992089937980950e+00 1.6090127650696916e-02  2.3569374422755862e+00 1.2230714383809427e+00 -1.5707328007273515e-02  2.3307360212095052e+00 1.2910542483512726e+00 1.6666531931429748e-02  2.3102296711945889e+00 1.3211285231584693e+00 -1.8728281987999699e-02  2.2835105513441847e+00 1.3911426381849059e+00 2.0904652173938786e-02  2.2636365136243244e+00 1.4106216546694679e+00 -2.2865321062815233e-02  2.2364006211124918e+00 1.4941505647382747e+00 2.4281218545265031e-02  2.2172763081274449e+00 1.5097305900020672e+00 -2.4489996035928160e-02  2.1895159907206989e+00 1.5850514100074198e+00 2.3191819165910354e-02  2.1709078165505997e+00 1.6123464223742872e+00 -2.0010853710823635e-02  2.1434648176270472e+00 1.6866129699926879e+00 1.7005341224335686e-02  2.1244491835693728e+00 1.7045738642118682e+00 -1.4445335478258175e-02  2.0980028705998492e+00 1.7840897450834370e+00 1.2933050058217951e-02  2.0786660139741042e+00 1.8119663039123581e+00 -1.0852515599082532e-02  2.0529286008793597e+00 1.8740827327661738e+00 9.2495375966081938e-03  2.0334572555694153e+00 1.9109226115875659e+00 -8.1330247597065936e-03  2.0086281022804409e+00 1.9745599869419557e+00 7.8648227485188984e-03  1.9891817890635415e+00 2.0077469429295758e+00 -6.6914049153628183e-03  1.9651014548445893e+00 2.0702442041372997e+00 5.5128689919004131e-03  1.9465174580599425e+00 2.1041279513912428e+00 -4.9881283614861879e-03  1.9236238105668224e+00 2.1602447406149161e+00 4.9365241612326248e-03  1.9063074262907447e+00 2.1981633150995394e+00 -4.4108748945247654e-03  1.8860686203987045e+00 2.2462689796812043e+00 4.2052971057205679e-03  1.8716611285352922e+00 2.2737686884561872e+00 -4.6396197916838845e-03  1.8562654449469094e+00 2.3146456768682744e+00 4.7261444498638786e-03  1.8492090507491101e+00 2.3275451023605225e+00 -4.3359516590261151e-03  1.8421003529183742e+00 2.3465030227167496e+00 4.4411646100230746e-03  1.8431757733120262e+00 2.3410656793500970e+00 -4.8447948741050214e-03  1.8420577785617973e+00 2.3472657006131668e+00 4.9218116925511032e-03  1.8443870072102841e+