<?xml version="1.0"?>
<VTKFile type="UnstructuredGrid"  version="0.1"  >
<UnstructuredGrid>
<Piece  NumberOfPoints="8241" NumberOfCells="16000">
<Points>
<DataArray  type="Float64"  NumberOfComponents="3"  format="ascii">-5 -1 0  -4.95 -1 0  -4.9 -1 0  -4.85 -1 0  -4.8 -1 0  -4.75 -1 0  -4.7 -1 0  -4.65 -1 0  -4.6 -1 0  -4.55 -1 0  -4.5 -1 0  -4.45 -1 0  -4.4 -1 0  -4.35 -1 0  -4.3 -1 0  -4.25 -1 0  -4.2 -1 0  -4.15 -1 0  -4.1 -1 0  -4.05 -1 0  -4 -1 0  -3.95 -1 0  -3.9 -1 0  -3.85 -1 0  -3.8 -1 0  -3.75 -1 0  -3.7 -1 0  -3.65 -1 0  -3.6 -1 0  -3.55 -1 0  -3.5 -1 0  -3.45 -1 0  -3.4 -1 0  -3.35 -1 0  -3.3 -1 0  -3.25 -1 0  -3.2 -1 0  -3.15 -1 0  -3.1 -1 0  -3.05 -1 0  -3 -1 0  -2.95 -1 0  -2.9 -1 0  -2.85 -1 0  -2.8 -1 0  -2.75 -1 0  -2.7 -1 0  -2.65 -1 0  -2.6 -1 0  -2.55 -1 0  -2.5 -1 0  -2.45 -1 0  -2.4 -1 0  -2.35 -1 0  -2.3 -1 0  -2.25 -1 0  -2.2 -1 0  -2.15 -1 0  -2.1 -1 0  -2.05 -1 0  -2 -1 0  -1.95 -1 0  -1.9 -1 0  -1.85 -1 0  -1.8 -1 0  -1.75 -1 0  -1.7 -1 0  -1.65 -1 0  -1.6 -1 0  -1.55 -1 0  -1.5 -1 0  -1.45 -1 0  -1.4 -1 0  -1.35 -1 0  -1.3 -1 0  -1.25 -1 0  -1.2 -1 0  -1.15 -1 0  -1.1 -1 0  -1.05 -1 0  -1 -1 0  -0.9500000000000002 -1 0  -0.9000000000000004 -1 0  -0.8499999999999996 -1 0  -0.7999999999999998 -1 0  -0.75 -1 0  -0.7000000000000002 -1 0  -0.6500000000000004 -1 0  -0.5999999999999996 -1 0  -0.5499999999999998 -1 0  -0.5 -1 0  -0.4500000000000002 -1 0  -0.4000000000000004 -1 0  -0.3499999999999996 -1 0  -0.2999999999999998 -1 0  -0.25 -1 0  -0.2000000000000002 -1 0  -0.1500000000000004 -1 0  -0.09999999999999964 -1 0  -0.04999999999999982 -1 0  0 -1 0  0.04999999999999982 -1 0  0.09999999999999964 -1 0  0.1500000000000004 -1 0  0.2000000000000002 -1 0  0.25 -1 0  0.2999999999999998 -1 0  0.3499999999999996 -1 0  0.4000000000000004 -1 0  0.4500000000000002 -1 0  0.5 -1 0  0.5499999999999998 -1 0  0.5999999999999996 -1 0  0.6500000000000004 -1 0  0.7000000000000002 -1 0  0.75 -1 0  0.7999999999999998 -1 0  0.8499999999999996 -1 0  0.9000000000000004 -1 0  0.9500000000000002 -1 0  1 -1 0  1.05 -1 0  1.1 -1 0  1.15 -1 0  1.2 -1 0  1.25 -1 0  1.3 -1 0  1.35 -1 0  1.4 -1 0  1.45 -1 0  1.5 -1 0  1.55 -1 0  1.6 -1 0  1.65 -1 0  1.7 -1 0  1.75 -1 0  1.8 -1 0  1.85 -1 0  1.9 -1 0  1.95 -1 0  2 -1 0  2.05 -1 0  2.1 -1 0  2.15 -1 0  2.2 -1 0  2.25 -1 0  2.3 -1 0  2.35 -1 0  2.4 -1 0  2.45 -1 0  2.5 -1 0  2.55 -1 0  2.6 -1 0  2.65 -1 0  2.7 -1 0  2.75 -1 0  2.8 -1 0  2.85 -1 0  2.9 -1 0  2.95 -1 0  3 -1 0  3.050000000000001 -1 0  3.1 -1 0  3.15 -1 0  3.199999999999999 -1 0  3.25 -1 0  3.300000000000001 -1 0  3.35 -1 0  3.4 -1 0  3.449999999999999 -1 0  3.5 -1 0  3.550000000000001 -1 0  3.6 -1 0  3.65 -1 0  3.699999999999999 -1 0  3.75 -1 0  3.800000000000001 -1 0  3.85 -1 0  3.9 -1 0  3.949999999999999 -1 0  4 -1 0  4.050000000000001 -1 0  4.1 -1 0  4.15 -1 0  4.199999999999999 -1 0  4.25 -1 0  4.300000000000001 -1 0  4.35 -1 0  4.4 -1 0  4.449999999999999 -1 0  4.5 -1 0  4.550000000000001 -1 0  4.6 -1 0  4.65 -1 0  4.699999999999999 -1 0  4.75 -1 0  4.800000000000001 -1 0  4.85 -1 0  4.9 -1 0  4.949999999999999 -1 0  5 -1 0  -5 -0.95 0  -4.95 -0.95 0  -4.9 -0.95 0  -4.85 -0.95 0  -4.8 -0.95 0  -4.75 -0.95 0  -4.7 -0.95 0  -4.65 -0.95 0  -4.6 -0.95 0  -4.55 -0.95 0  -4.5 -0.95 0  -4.45 -0.95 0  -4.4 -0.95 0  -4.35 -0.95 0  -4.3 -0.95 0  -4.25 -0.95 0  -4.2 -0.95 0  -4.15 -0.95 0  -4.1 -0.95 0  -4.05 -0.95 0  -4 -0.95 0  -3.95 -0.95 0  -3.9 -0.95 0  -3.85 -0.95 0  -3.8 -0.95 0  -3.75 -0.95 0  -3.7 -0.95 0  -3.65 -0.95 0  -3.6 -0.95 0  -3.55 -0.95 0  -3.5 -0.95 0  -3.45 -0.95 0  -3.4 -0.95 0  -3.35 -0.95 0  -3.3 -0.95 0  -3.25 -0.95 0  -3.2 -0.95 0  -3.15 -0.95 0  -3.1 -0.95 0  -3.05 -0.95 0  -3 -0.95 0  -2.95 -0.95 0  -2.9 -0.95 0  -2.85 -0.95 0  -2.8 -0.95 0  -2.75 -0.95 0  -2.7 -0.95 0  -2.65 -0.95 0  -2.6 -0.95 0  -2.55 -0.95 0  -2.5 -0.95 0  -2.45 -0.95 0  -2.4 -0.95 0  -2.35 -0.95 0  -2.3 -0.95 0  -2.25 -0.95 0  -2.2 -0.95 0  -2.15 -0.95 0  -2.1 -0.95 0  -2.05 -0.95 0  -2 -0.95 0  -1.95 -0.95 0  -1.9 -0.95 0  -1.85 -0.95 0  -1.8 -0.95 0  -1.75 -0.95 0  -1.7 -0.95 0  -1.65 -0.95 0  -1.6 -0.95 0  -1.55 -0.95 0  -1.5 -0.95 0  -1.45 -0.95 0  -1.4 -0.95 0  -1.35 -0.95 0  -1.3 -0.95 0  -1.25 -0.95 0  -1.2 -0.95 0  -1.15 -0.95 0  -1.1 -0.95 0  -1.05 -0.95 0  -1 -0.95 0  -0.9500000000000002 -0.95 0  -0.9000000000000004 -0.95 0  -0.8499999999999996 -0.95 0  -0.7999999999999998 -0.95 0  -0.75 -0.95 0  -0.7000000000000002 -0.95 0  -0.6500000000000004 -0.95 0  -0.5999999999999996 -0.95 0  -0.5499999999999998 -0.95 0  -0.5 -0.95 0  -0.4500000000000002 -0.95 0  -0.4000000000000004 -0.95 0  -0.3499999999999996 -0.95 0  -0.2999999999999998 -0.95 0  -0.25 -0.95 0  -0.2000000000000002 -0.95 0  -0.1500000000000004 -0.95 0  -0.09999999999999964 -0.95 0  -0.04999999999999982 -0.95 0  0 -0.95 0  0.04999999999999982 -0.95 0  0.09999999999999964 -0.95 0  0.1500000000000004 -0.95 0  0.2000000000000002 -0.95 0  0.25 -0.95 0  0.2999999999999998 -0.95 0  0.3499999999999996 -0.95 0  0.4000000000000004 -0.95 0  0.4500000000000002 -0.95 0  0.5 -0.95 0  0.5499999999999998 -0.95 0  0.5999999999999996 -0.95 0  0.6500000000000004 -0.95 0  0.7000000000000002 -0.95 0  0.75 -0.95 0  0.7999999999999998 -0.95 0  0.8499999999999996 -0.95 0  0.9000000000000004 -0.95 0  0.9500000000000002 -0.95 0  1 -0.95 0  1.05 -0.95 0  1.1 -0.95 0  1.15 -0.95 0  1.2 -0.95 0  1.25 -0.95 0  1.3 -0.95 0  1.35 -0.95 0  1.4 -0.95 0  1.45 -0.95 0  1.5 -0.95 0  1.55 -0.95 0  1.6 -0.95 0  1.65 -0.95 0  1.7 -0.95 0  1.75 -0.95 0  1.8 -0.95 0  1.85 -0.95 0  1.9 -0.95 0  1.95 -0.95 0  2 -0.95 0  2.05 -0.95 0  2.1 -0.95 0  2.15 -0.95 0  2.2 -0.95 0  2.25 -0.95 0  2.3 -0.95 0  2.35 -0.95 0  2.4 -0.95 0  2.45 -0.95 0  2.5 -0.95 0  2.55 -0.95 0  2.6 -0.95 0  2.65 -0.95 0  2.7 -0.95 0  2.75 -0.95 0  2.8 -0.95 0  2.85 -0.95 0  2.9 -0.95 0  2.95 -0.95 0  3 -0.95 0  3.050000000000001 -0.95 0  3.1 -0.95 0  3.15 -0.95 0  3.199999999999999 -0.95 0  3.25 -0.95 0  3.300000000000001 -0.95 0  3.35 -0.95 0  3.4 -0.95 0  3.449999999999999 -0.95 0  3.5 -0.95 0  3.550000000000001 -0.95 0  3.6 -0.95 0  3.65 -0.95 0  3.699999999999999 -0.95 0  3.75 -0.95 0  3.800000000000001 -0.95 0  3.85 -0.95 0  3.9 -0.95 0  3.949999999999999 -0.95 0  4 -0.95 0  4.050000000000001 -0.95 0  4.1 -0.95 0  4.15 -0.95 0  4.199999999999999 -0.95 0  4.25 -0.95 0  4.300000000000001 -0.95 0  4.35 -0.95 0  4.4 -0.95 0  4.449999999999999 -0.95 0  4.5 -0.95 0  4.550000000000001 -0.95 0  4.6 -0.95 0  4.65 -0.95 0  4.699999999999999 -0.95 0  4.75 -0.95 0  4.800000000000001 -0.95 0  4.85 -0.95 0  4.9 -0.95 0  4.949999999999999 -0.95 0  5 -0.95 0  -5 -0.9 0  -4.95 -0.9 0  -4.9 -0.9 0  -4.85 -0.9 0  -4.8 -0.9 0  -4.75 -0.9 0  -4.7 -0.9 0  -4.65 -0.9 0  -4.6 -0.9 0  -4.55 -0.9 0  -4.5 -0.9 0  -4.45 -0.9 0  -4.4 -0.9 0  -4.35 -0.9 0  -4.3 -0.9 0  -4.25 -0.9 0  -4.2 -0.9 0  -4.15 -0.9 0  -4.1 -0.9 0  -4.05 -0.9 0  -4 -0.9 0  -3.95 -0.9 0  -3.9 -0.9 0  -3.85 -0.9 0  -3.8 -0.9 0  -3.75 -0.9 0  -3.7 -0.9 0  -3.65 -0.9 0  -3.6 -0.9 0  -3.55 -0.9 0  -3.5 -0.9 0  -3.45 -0.9 0  -3.4 -0.9 0  -3.35 -0.9 0  -3.3 -0.9 0  -3.25 -0.9 0  -3.2 -0.9 0  -3.15 -0.9 0  -3.1 -0.9 0  -3.05 -0.9 0  -3 -0.9 0  -2.95 -0.9 0  -2.9 -0.9 0  -2.85 -0.9 0  -2.8 -0.9 0  -2.75 -0.9 0  -2.7 -0.9 0  -2.65 -0.9 0  -2.6 -0.9 0  -2.55 -0.9 0  -2.5 -0.9 0  -2.45 -0.9 0  -2.4 -0.9 0  -2.35 -0.9 0  -2.3 -0.9 0  -2.25 -0.9 0  -2.2 -0.9 0  -2.15 -0.9 0  -2.1 -0.9 0  -2.05 -0.9 0  -2 -0.9 0  -1.95 -0.9 0  -1.9 -0.9 0  -1.85 -0.9 0  -1.8 -0.9 0  -1.75 -0.9 0  -1.7 -0.9 0  -1.65 -0.9 0  -1.6 -0.9 0  -1.55 -0.9 0  -1.5 -0.9 0  -1.45 -0.9 0  -1.4 -0.9 0  -1.35 -0.9 0  -1.3 -0.9 0  -1.25 -0.9 0  -1.2 -0.9 0  -1.15 -0.9 0  -1.1 -0.9 0  -1.05 -0.9 0  -1 -0.9 0  -0.9500000000000002 -0.9 0  -0.9000000000000004 -0.9 0  -0.8499999999999996 -0.9 0  -0.7999999999999998 -0.9 0  -0.75 -0.9 0  -0.7000000000000002 -0.9 0  -0.6500000000000004 -0.9 0  -0.5999999999999996 -0.9 0  -0.5499999999999998 -0.9 0  -0.5 -0.9 0  -0.4500000000000002 -0.9 0  -0.4000000000000004 -0.9 0  -0.3499999999999996 -0.9 0  -0.2999999999999998 -0.9 0  -0.25 -0.9 0  -0.2000000000000002 -0.9 0  -0.1500000000000004 -0.9 0  -0.09999999999999964 -0.9 0  -0.04999999999999982 -0.9 0  0 -0.9 0  0.04999999999999982 -0.9 0  0.09999999999999964 -0.9 0  0.1500000000000004 -0.9 0  0.2000000000000002 -0.9 0  0.25 -0.9 0  0.2999999999999998 -0.9 0  0.3499999999999996 -0.9 0  0.4000000000000004 -0.9 0  0.4500000000000002 -0.9 0  0.5 -0.9 0  0.5499999999999998 -0.9 0  0.5999999999999996 -0.9 0  0.6500000000000004 -0.9 0  0.7000000000000002 -0.9 0  0.75 -0.9 0  0.7999999999999998 -0.9 0  0.8499999999999996 -0.9 0  0.9000000000000004 -0.9 0  0.9500000000000002 -0.9 0  1 -0.9 0  1.05 -0.9 0  1.1 -0.9 0  1.15 -0.9 0  1.2 -0.9 0  1.25 -0.9 0  1.3 -0.9 0  1.35 -0.9 0  1.4 -0.9 0  1.45 -0.9 0  1.5 -0.9 0  1.55 -0.9 0  1.6 -0.9 0  1.65 -0.9 0  1.7 -0.9 0  1.75 -0.9 0  1.8 -0.9 0  1.85 -0.9 0  1.9 -0.9 0  1.95 -0.9 0  2 -0.9 0  2.05 -0.9 0  2.1 -0.9 0  2.15 -0.9 0  2.2 -0.9 0  2.25 -0.9 0  2.3 -0.9 0  2.35 -0.9 0  2.4 -0.9 0  2.45 -0.9 0  2.5 -0.9 0  2.55 -0.9 0  2.6 -0.9 0  2.65 -0.9 0  2.7 -0.9 0  2.75 -0.9 0  2.8 -0.9 0  2.85 -0.9 0  2.9 -0.9 0  2.95 -0.9 0  3 -0.9 0  3.050000000000001 -0.9 0  3.1 -0.9 0  3.15 -0.9 0  3.199999999999999 -0.9 0  3.25 -0.9 0  3.300000000000001 -0.9 0  3.35 -0.9 0  3.4 -0.9 0  3.449999999999999 -0.9 0  3.5 -0.9 0  3.550000000000001 -0.9 0  3.6 -0.9 0  3.65 -0.9 0  3.699999999999999 -0.9 0  3.75 -0.9 0  3.800000000000001 -0.9 0  3.85 -0.9 0  3.9 -0.9 0  3.949999999999999 -0.9 0  4 -0.9 0  4.050000000000001 -0.9 0  4.1 -0.9 0  4.15 -0.9 0  4.199999999999999 -0.9 0  4.25 -0.9 0  4.300000000000001 -0.9 0  4.35 -0.9 0  4.4 -0.9 0  4.449999999999999 -0.9 0  4.5 -0.9 0  4.550000000000001 -0.9 0  4.6 -0.9 0  4.65 -0.9 0  4.699999999999999 -0.9 0  4.75 -0.9 0  4.800000000000001 -0.9 0  4.85 -0.9 0  4.9 -0.9 0  4.949999999999999 -0.9 0  5 -0.9 0  -5 -0.85 0  -4.95 -0.85 0  -4.9 -0.85 0  -4.85 -0.85 0  -4.8 -0.85 0  -4.75 -0.85 0  -4.7 -0.85 0  -4.65 -0.85 0  -4.6 -0.85 0  -4.55 -0.85 0  -4.5 -0.85 0  -
[...]
<PointData  Vectors="f_15"> 
<DataArray  type="Float64"  Name="f_15"  NumberOfComponents="3" format="ascii">1.4747114415615277e+00 0.0000000000000000e+00 0.0000000000000000e+00  1.4747029753711764e+00 3.3375087397241300e-02 0.0000000000000000e+00  1.4747466916432701e+00 7.0291175581968374e-02 0.0000000000000000e+00  1.4746912949569289e+00 1.0274720773781459e-01 0.0000000000000000e+00  1.4747031477533981e+00 1.3870086250310301e-01 0.0000000000000000e+00  1.4746739422890864e+00 1.7210962083157635e-01 0.0000000000000000e+00  1.4746825356759696e+00 2.0724734369576275e-01 0.0000000000000000e+00  1.4746243813881643e+00 2.4107566346606568e-01 0.0000000000000000e+00  1.4746419664676129e+00 2.7597618331795010e-01 0.0000000000000000e+00  1.4746174875133409e+00 3.0996320655012682e-01 0.0000000000000000e+00  1.4745722224064817e+00 3.4458746179999877e-01 0.0000000000000000e+00  1.4746044583429638e+00 3.7880278860011390e-01 0.0000000000000000e+00  1.4745507711011074e+00 4.1322560939194719e-01 0.0000000000000000e+00  1.4745685658435201e+00 4.4742551019486793e-01 0.0000000000000000e+00  1.4745325468140067e+00 4.8181722879168226e-01 0.0000000000000000e+00  1.4745878322011730e+00 5.1601714121783904e-01 0.0000000000000000e+00  1.4744978150735559e+00 5.5015777016782363e-01 0.0000000000000000e+00  1.4746219617313434e+00 5.8450016029395546e-01 0.0000000000000000e+00  1.4745300992448163e+00 6.1845892715949613e-01 0.0000000000000000e+00  1.4746469578532262e+00 6.5261717186754131e-01 0.0000000000000000e+00  1.4746006286155739e+00 6.8663545072469179e-01 0.0000000000000000e+00  1.4747510390102647e+00 7.2062048243897903e-01 0.0000000000000000e+00  1.4746840123955611e+00 7.5437442552366885e-01 0.0000000000000000e+00  1.4749212090263226e+00 7.8840525063233902e-01 0.0000000000000000e+00  1.4748736683371462e+00 8.2191621306187346e-01 0.0000000000000000e+00  1.4751361989157812e+00 8.5566205658674999e-01 0.0000000000000000e+00  1.4751761213242263e+00 8.8911538636467369e-01 0.0000000000000000e+00  1.4754988404104894e+00 9.2256015767407429e-01 0.0000000000000000e+00  1.4755826985838025e+00 9.5565306864397570e-01 0.0000000000000000e+00  1.4760418962685826e+00 9.8893468508819338e-01 0.0000000000000000e+00  1.4762144346009385e+00 1.0215942681459724e+00 0.0000000000000000e+00  1.4767832812431696e+00 1.0544005619182140e+00 0.0000000000000000e+00  1.4771437260740778e+00 1.0867096132069607e+00 0.0000000000000000e+00  1.4778777343161564e+00 1.1188995731082421e+00 0.0000000000000000e+00  1.4784414461123938e+00 1.1505054630378089e+00 0.0000000000000000e+00  1.4794597383786690e+00 1.1820437600597293e+00 0.0000000000000000e+00  1.4803281786836282e+00 1.2127183894991262e+00 0.0000000000000000e+00  1.4816908039466108e+00 1.2431485181936770e+00 0.0000000000000000e+00  1.4830368092219650e+00 1.2727103684346308e+00 0.0000000000000000e+00  1.4848952493333236e+00 1.3016532376333858e+00 0.0000000000000000e+00  1.4868510402543136e+00 1.3295299703509798e+00 0.0000000000000000e+00  1.4894167013874708e+00 1.3566313328505644e+00 0.0000000000000000e+00  1.4921804404140746e+00 1.3823793184064748e+00 0.0000000000000000e+00  1.4955943393212499e+00 1.4070554385139697e+00 0.0000000000000000e+00  1.4993345214291010e+00 1.4304108842598082e+00 0.0000000000000000e+00  1.5036949276403608e+00 1.4524981531031220e+00 0.0000000000000000e+00  1.5083812172360900e+00 1.4733474897166099e+00 0.0000000000000000e+00  1.5136104792595952e+00 1.4931786288528732e+00 0.0000000000000000e+00  1.5190664974127217e+00 1.5120854672566706e+00 0.0000000000000000e+00  1.5248682726651479e+00 1.5302374158648011e+00 0.0000000000000000e+00  1.5308058770576953e+00 1.5480119694677672e+00 0.0000000000000000e+00  1.5369117660016562e+00 1.5653100678142320e+00 0.0000000000000000e+00  1.5430467391544189e+00 1.5824494238872593e+00 0.0000000000000000e+00  1.5492833664044705e+00 1.5993953254893081e+00 0.0000000000000000e+00  1.5555120508916485e+00 1.6163005463110427e+00 0.0000000000000000e+00  1.5617631106671590e+00 1.6329527253856280e+00 0.0000000000000000e+00  1.5680523295945044e+00 1.6497342565210644e+00 0.0000000000000000e+00  1.5743231730754002e+00 1.6662607198169928e+00 0.0000000000000000e+00  1.5806116796013534e+00 1.6827815307739649e+00 0.0000000000000000e+00  1.5869110517363605e+00 1.6992118935291256e+00 0.0000000000000000e+00  1.5932208520176045e+00 1.7155941990805157e+00 0.0000000000000000e+00  1.5994892792819011e+00 1.7317666164618992e+00 0.0000000000000000e+00  1.6058326859377299e+00 1.7480257862946871e+00 0.0000000000000000e+00  1.6120948021166877e+00 1.7640816757649802e+00 0.0000000000000000e+00  1.6184030880985918e+00 1.7800248063316904e+00 0.0000000000000000e+00  1.6246793591697015e+00 1.7959984771455306e+00 0.0000000000000000e+00  1.6309723313330233e+00 1.8117513795977800e+00 0.0000000000000000e+00  1.6371908140263784e+00 1.8274469170308516e+00 0.0000000000000000e+00  1.6434920587115307e+00 1.8430477817069406e+00 0.0000000000000000e+00  1.6496676260996068e+00 1.8585856145158353e+00 0.0000000000000000e+00  1.6559023974052218e+00 1.8738260190893747e+00 0.0000000000000000e+00  1.6620643055517517e+00 1.8892573061292690e+00 0.0000000000000000e+00  1.6682383649074430e+00 1.9042325032277985e+00 0.0000000000000000e+00  1.6743130691813162e+00 1.9193517198119834e+00 0.0000000000000000e+00  1.6804587217101810e+00 1.9341247143903670e+00 0.0000000000000000e+00  1.6864377712040461e+00 1.9489956387037561e+00 0.0000000000000000e+00  1.6924900475970517e+00 1.9633774596962610e+00 0.0000000000000000e+00  1.6984026681077720e+00 1.9780509430956255e+00 0.0000000000000000e+00  1.7043455323494980e+00 1.9920926713424678e+00 0.0000000000000000e+00  1.7101296527031218e+00 2.0063730225490888e+00 0.0000000000000000e+00  1.7159966386039667e+00 2.0201436680891329e+00 0.0000000000000000e+00  1.7216162321036723e+00 2.0340287670339698e+00 0.0000000000000000e+00  1.7273639788754578e+00 2.0473791052477699e+00 0.0000000000000000e+00  1.7328388267838908e+00 2.0608913806488736e+00 0.0000000000000000e+00  1.7384277740326761e+00 2.0738393886267734e+00 0.0000000000000000e+00  1.7437193999175777e+00 2.0868026527035490e+00 0.0000000000000000e+00  1.7491654409760813e+00 2.0993981247975881e+00 0.0000000000000000e+00  1.7542250549532621e+00 2.1117811992972748e+00 0.0000000000000000e+00  1.7595005136874404e+00 2.1238752701009713e+00 0.0000000000000000e+00  1.7643347434987897e+00 2.1357299379551562e+00 0.0000000000000000e+00  1.7693851408051700e+00 2.1472488197798616e+00 0.0000000000000000e+00  1.7739796858123245e+00 2.1584619876751026e+00 0.0000000000000000e+00  1.7787946138596566e+00 2.1694643499874045e+00 0.0000000000000000e+00  1.7831085588310993e+00 2.1798922197003390e+00 0.0000000000000000e+00  1.7876668601400325e+00 2.1903470414177604e+00 0.0000000000000000e+00  1.7916923937791474e+00 2.2000385269574485e+00 0.0000000000000000e+00  1.7959509495838879e+00 2.2097203816259778e+00 0.0000000000000000e+00  1.7996817995831462e+00 2.2187751445072958e+00 0.0000000000000000e+00  1.8036176818355785e+00 2.2276841239825824e+00 0.0000000000000000e+00  1.8070322796826712e+00 2.2357873895680376e+00 0.0000000000000000e+00  1.8106320739071877e+00 2.2442733991880863e+00 0.0000000000000000e+00  1.8137181464162595e+00 2.2511901971423156e+00 0.0000000000000000e+00  1.8169645710704887e+00 2.2590479474643792e+00 0.0000000000000000e+00  1.8197225073801262e+00 2.2652817159122911e+00 0.0000000000000000e+00  1.8226024686023685e+00 2.2719974027584962e+00 0.0000000000000000e+00  1.8250315565601405e+00 2.2776328095791323e+00 0.0000000000000000e+00  1.8275484529733848e+00 2.2836848763662543e+00 0.0000000000000000e+00  1.8296540051181687e+00 2.2880126182603253e+00 0.0000000000000000e+00  1.8318127323234745e+00 2.2938240183220668e+00 0.0000000000000000e+00  1.8336068127240674e+00 2.2972011029229660e+00 0.0000000000000000e+00  1.8354293856488961e+00 2.3019016049023331e+00 0.0000000000000000e+00  1.8369244776301095e+00 2.3052341478381084e+00 0.0000000000000000e+00  1.8384308627541173e+00 2.3087045794072067e+00 0.0000000000000000e+00  1.8396627656983895e+00 2.3114229888172928e+00 0.0000000000000000e+00  1.8408755314551062e+00 2.3146380699082525e+00 0.0000000000000000e+00  1.8418598613341763e+00 2.3163564137560804e+00 0.0000000000000000e+00  1.8428377157177471e+00 2.3190701622907617e+00 0.0000000000000000e+00  1.8435945596934327e+00 2.3206170080740023e+00 0.0000000000000000e+00  1.8443540719603726e+00 2.3223935136538083e+00 0.0000000000000000e+00  1.8449492118529378e+00 2.3237269024910057e+00 0.0000000000000000e+00  1.8455146671696143e+00 2.3252110783032589e+00 0.0000000000000000e+00  1.8459542056824136e+00 2.3259336162406212e+00 0.0000000000000000e+00  1.8463890928604054e+00 2.3272270770777337e+00 0.0000000000000000e+00  1.8466691301937754e+00 2.3278224077111487e+00 0.0000000000000000e+00  1.8469511211135590e+00 2.3286700319761269e+00 0.0000000000000000e+00  1.8470652613701932e+00 2.3293815954100858e+00 0.0000000000000000e+00  1.8471573363970446e+00 2.3301336098812695e+00 0.0000000000000000e+00  1.8470660743061686e+00 2.3308197955531860e+00 0.0000000000000000e+00  1.8470413869837108e+00 2.3315324862180806e+00 0.0000000000000000e+00  1.8469413608671279e+00 2.3320015760184623e+00 0.0000000000000000e+00  1.8470469650111954e+00 2.3322680085379579e+00 0.0000000000000000e+00  1.8472304834958773e+00 2.3320426680888668e+00 0.0000000000000000e+00  1.8477232412379072e+00 2.3318770212451718e+00 0.0000000000000000e+00  1.8480140148160542e+00 2.3310289124594785e+00 0.0000000000000000e+00  1.8485600771896358e+00 2.3308036879020979e+00 0.0000000000000000e+00  1.8489493894818316e+00 2.3308350899795922e+00 0.0000000000000000e+00  1.8483901984157625e+00 2.3284259212804526e+00 0.0000000000000000e+00  1.8508327154887318e+00 2.3336746523374696e+00 0.0000000000000000e+00  1.8468206392247644e+00 2.3217331676187287e+00 0.0000000000000000e+00  1.8560526705168585e+00 2.3362538719140433e+00 0.0000000000000000e+00  1.8237950622733168e+00 2.3622410849308140e+00 0.0000000000000000e+00  1.9419842899522066e+00 2.1554454218495454e+00 0.0000000000000000e+00  2.4953658903334559e+00 8.7470663364661005e-01 0.0000000000000000e+00  2.8930217254601702e+00 1.4229242557726410e-01 0.0000000000000000e+00  2.9771470676672980e+00 8.6638130189205537e-03 0.0000000000000000e+00  2.9621090157618561e+00 1.4031867091704840e-02 0.0000000000000000e+00  2.9687182661840814e+00 1.1270680896117297e-03 0.0000000000000000e+00  2.9721619217639468e+00 1.2184786550447438e-04 0.0000000000000000e+00  2.9707668309524071e+00 7.0037717513959930e-04 0.0000000000000000e+00  2.9722653841133511e+00 -2.8857996412947375e-03 0.0000000000000000e+00  2.9727367437881029e+00 -2.9045366220090281e-03 0.0000000000000000e+00  2.9717921324713270e+00 -1.3939409412647992e-03 0.0000000000000000e+00  2.9716526857963377e+00 -1.2786511901791257e-03 0.0000000000000000e+00  2.9720071434344391e+00 -1.9607324428061752e-03 0.0000000000000000e+00  2.9720657091277891e+00 -1.8708906740285628e-03 0.0000000000000000e+00  2.9720558826214947e+00 -2.1593362053115438e-03 0.0000000000000000e+00  2.9719790204824026e+00 -1.7243083739494570e-03 0.0000000000000000e+00  2.9719396903195112e+00 -2.0060757192835624e-03 0.0000000000000000e+00  2.9719862598217532e+00 -1.7760864451707048e-03 0.0000000000000000e+00  2.9720043179844295e+00 -2.1888562929590796e-03 0.0000000000000000e+00  2.9719981124049681e+00 -1.7892410776148896e-03 0.0000000000000000e+00  2.9719792349336762e+00 -2.3103984065149952e-03 0.0000000000000000e+00  2.9719837543028893e+00 -1.8155398713551639e-03 0.0000000000000000e+00  2.9719939397778337e+00 -2.5693753968722881e-03 0.0000000000000000e+00  2.9719773388807194e+00 -2.1232923161157618e-03 0.0000000000000000e+00  2.9720101973679602e+00 -3.0956608913120243e-03 0.0000000000000000e+00  2.9719821008210627e+00 -2.7577502315094290e-03 0.0000000000000000e+00  2.9720087354212881e+00 -4.0473442954176491e-03 0.0000000000000000e+00  2.9719937126693927e+00 -3.8581976626859611e-03 0.0000000000000000e+00  2.9720229924761190e+00 -5.3130058007108362e-03 0.0000000000000000e+00  2.9720032177918987e+00 -5.3088847986779101e-03 0.0000000000000000e+00  2.9720372803529536e+00 -6.6197039348912939e-03 0.0000000000000000e+00  2.9720181183674854e+00 -6.5292141306631758e-03 0.0000000000000000e+00  2.9720520821795882e+00 -7.7392100756975635e-03 0.0000000000000000e+00  2.9720310266186365e+00 -7.3665216649634923e-03 0.0000000000000000e+00  2.9720728325853374e+00 -8.2895350976200603e-03 0.0000000000000000e+00  2.9720410686111736e+00 -8.0006355466401349e-03 0.0000000000000000e+00  2.9720885466293812e+00 -8.4975949171738965e-03 0.0000000000000000e+00  2.9720521095498076e+00 -8.2653528725841943e-03 0.0000000000000000e+00  2.9721056832869892e+00 -8.6826848145598184e-03 0.0000000000000000e+00  2.9720516138561397e+00 -8.3550509455770812e-03 0.0000000000000000e+00  2.9721246219417603e+00 -8.7083324875691787e-03 0.0000000000000000e+00  2.9720545196011217e+00 -8.5074930252838996e-03 0.0000000000000000e+00  2.9721292285416476e+00 -8.6604715417320371e-03 0.0000000000000000e+00  2.9720622027004731e+00 -8.5398040589094500e-03 0.0000000000000000e+00  2.9721376392732433e+00 -8.8398638849710182e-03 0.0000000000000000e+00  2.9720593225929424e+00 -8.3751111223617485e-03 0.0000000000000000e+00  2.9721463892314008e+00 -9.0336597918815442e-03 0.0000000000000000e+00  2.9720686668233842e+00 -8.5637322448915334e-03 0.0000000000000000e+00  2.9721376632684140e+00 -8.7128598989083331e-03 0.0000000000000000e+00  2.9720846663891209e+00 -8.8714502132593506e-03 0.0000000000000000e+00  2.9721340459785148e+00 -8.8320260468939676e-03 0.0000000000000000e+00  2.9720899707177373e+00 -8.5671837973833372e-03 0.0000000000000000e+00  2.9721273079061796e+00 -9.8270238197039200e-03 0.0000000000000000e+00  2.9721062064048356e+00 -8.3471947392030899e-03 0.0000000000000000e+00  2.9721040735310131e+00 -9.7872394758670937e-03 0.0000000000000000e+00  2.9721217799706925e+00 -9.6394302226879159e-03 0.0000000000000000e+00  2.9720879073664741e+00 -8.8382914663166102e-03 0.0000000000000000e+00  2.9721209016707655e+00 -1.4721672365530439e-02 0.0000000000000000e+00  2.9720651850790825e+00 -1.0204302134918681e-02 0.0000000000000000e+00  2.9721363184292788e+00 0.0000000000000000e+00 0.0000000000000000e+00  1.4745106846946829e+00 0.0000000000000000e+00 1.0347553824816345e-03  1.4746325913641578e+00 3.4712430303803610e-02 -4.8374922803432289e-05  1.4745392765017167e+00 6.8347808128508769e-02 -5.4860501822091010e-04  1.4745718329398720e+00 1.0324899938112762e-01 3.7029275534263830e-04  1.4745595912346012e+00 1.3767603813842419e-01 -3.1208234740843436e-04  1.4745760933553413e+00 1.7214986338294211e-01 2.7830089478248328e-04  1.4745417948486019e+00 2.0653134806251433e-01 -2.6503112564654009e-04  1.4745738072882080e+00 2.4122260399506434e-01 2.7359015691568909e-04  1.4745611426185898e+00 2.7539307318448925e-01 -2.7269228668663976e-04  1.4745426646996231e+00 3.1007230018978194e-01 2.6945921048855562e-04  1.4745631240489165e+00 3.4426972576188508e-01 -2.5458623723441522e-04  1.4745532731482356e+00 3.7887760071740817e-01 2.3484245472023399e-04  1.4745317368536870e+00 4.1295563662114176e-01 -2.0829917964294842e-04  1.4745564379002043e+00 4.4759418169546344e-01 1.7435174641973450e-04  1.4745453561191018e+00 4.8162860330330093e-01 -1.3767473812656186e-04  1.4745340946084897e+00 5.1603444453470637e-01 1.0266099332712961e-04  1.4745636337313630e+00 5.5021200699558925e-01 -7.7171577266027375e-05  1.4745690361206674e+00 5.8442552856342156e-01 5.7433295125854538e-05  1.4745665919466084e+00 6.1844801301418528e-01 -4.3440085690444748e-05  1.4746295463312264e+00 6.5270786578339812e-01 3.0743419115013122e-05  1.4746422601549352e+00 6.8658029469087201e-01 -2.1297468365467466e-05  1.4746924306339946e+00 7.2057640910260445e-01 1.0626924082910331e-05  1.4747724717064890e+00 7.5452683401161280e-01 -2.4373247081618923e-06  1.4748499035888509e+00 7.8828221164167400e-01 -1.9755762538650645e-06  1.4749353071092346e+00 8.2196682816057287e-01 -7.1546496199703859e-07  1.4751011128494762e+00 8.5570011174438532e-01 3.4148350379865988e-06  1.4752299655377672e+00 8.8910613268982519e-01 -5.2802167015310695e-06  1.4754324998148152e+00 9.2250884573316305e-01 5.7933417324803992e-06  1.4756787817771804e+00 9.5579169981246126e-01 -8.9403466817866099e-06  1.4759572548794000e+00 9.8881621266305031e-01 1.1686519426872638e-05  1.4762887323612737e+00 1.0216638925266996e+00 -1.4887711476800463e-05  1.4767320190928490e+00 1.0544202658127821e+00 1.6691966025534875e-05  1.4772007547478252e+00 1.0867189569367115e+00 -1.7628185258675884e-05  1.4778067943039803e+00 1.1188620298841150e+00 1.5486656402810680e-05  1.4785251439061442e+00 1.1506335739452542e+00 -1.3246237544173281e-05  1.4793767160763858e+00 1.1819599669466663e+00 1.0048276701984197e-05  1.4803883184686439e+00 1.2127917281162290e+00 -6.9057796708547598e-06  1.4816382035159488e+00 1.2431732673878799e+00 1.0662175824313455e-06  1.4830768423928664e+00 1.2727421748445185e+00 5.7350988713378206e-06  1.4848337835482104e+00 1.3016311845027120e+00 -1.4555860373923819e-05  1.4869022871883184e+00 1.3296459602741535e+00 2.3371580355034890e-05  1.4893574414579105e+00 1.3565870905581285e+00 -3.1120271253869430e-05  1.4922076894705334e+00 1.3824332524107803e+00 3.8824361810891746e-05  1.4955648911927504e+00 1.4070850126056680e+00 -4.4314336601067307e-05  1.4993519987707564e+00 1.4304371835522272e+00 5.3410106368416996e-05  1.5036635428922920e+00 1.4524681240350752e+00 -5.8823257487859799e-05  1.5084086866336750e+00 1.4734208471324683e+00 6.7562415787265554e-05  1.5135930369606614e+00 1.4931451014267014e+00 -7.1260130488809190e-05  1.5190713631304500e+00 1.5120849366015292e+00 7.5761762743628195e-05  1.5248762379849863e+00 1.5302529131055702e+00 -7.9220832887139727e-05  1.5308064939339692e+00 1.5480201589429996e+00 8.0978338984808563e-05  1.5369064517562203e+00 1.5652591696313169e+00 -8.3868390974240739e-05  1.5430535214863910e+00 1.5825127293206047e+00 8.3688769441017183e-05  1.5492855742664300e+00 1.5993782572098327e+00 -8.2708873232844400e-05  1.5554871899235219e+00 1.6162907709384193e+00 7.9413452227693789e-05  1.5617857700271858e+00 1.6329947919922667e+00 -7.4606327522427267e-05  1.5680260703828148e+00 1.6497622666853655e+00 6.9520087966460232e-05  1.5743223064848058e+00 1.6662167755530151e+00 -6.2856556696394694e-05  1.5806021934269001e+00 1.6828703213743690e+00 5.6541516569120039e-05  1.5869159101434889e+00 1.6992095564558223e+00 -4.7825677424191914e-05  1.5931778729463018e+00 1.7155869853760193e+00 3.9421787270243199e-05  1.5995205611077576e+00 1.7318341854301447e+00 -2.8052877466135144e-05  1.6057903567185365e+00 1.7480596974335729e+00 1.9403340263668130e-05  1.6120968320707936e+00 1.7640395444843737e+00 -7.9783152520143337e-06  1.6183920974302839e+00 1.7801333310900194e+00 5.7465531053219098e-07  1.6246839972442202e+00 1.7959816208462775e+00 1.0757711559522317e-05  1.6309329896198093e+00 1.8117498363655480e+00 -1.7895106489219045e-05  1.6372322462843714e+00 1.8275025435042866e+00 2.8468382348467641e-05  1.6434515237401339e+00 1.8430706781069293e+00 -3.3609790404474337e-05  1.6496838716945306e+00 1.8585219091957121e+00 4.0528699215517851e-05  1.6558994703755532e+00 1.8739398140337498e+00 -4.2788870059690247e-05  1.6620742702497853e+00 1.8891933210346425e+00 4.6724921747860630e-05  1.6682105827999270e+00 1.9042599562385438e+00 -4.7539161010697098e-05  1.6743590983832277e+00 1.9193663289844238e+00 4.9112017916754336e-05  1.6804136206120717e+00 1.9341672279566933e+00 -4.8462692646405493e-05  1.6864675526358421e+00 1.9489188299492615e+00 4.7817236069279772e-05  1.6924714053707792e+00 1.9635165309855074e+00 -4.5577088041181354e-05  1.6984176324905129e+00 1.9779635879053046e+00 4.3691790251252971e-05  1.7043083582202734e+00 1.9921687308392371e+00 -4.1281152246462487e-05  1.7101773016310389e+00 2.0063666455143450e+00 4.1405878706451651e-05  1.7159290923136359e+00 2.0202036415853954e+00 -4.3125509967814340e-05  1.7216671428374537e+00 2.0339815984618466e+00 4.874063395242