<?xml version="1.0"?>
<VTKFile type="UnstructuredGrid"  version="0.1"  >
<UnstructuredGrid>
<Piece  NumberOfPoints="8241" NumberOfCells="16000">
<Points>
<DataArray  type="Float64"  NumberOfComponents="3"  format="ascii">-5 -1 0  -4.95 -1 0  -4.9 -1 0  -4.85 -1 0  -4.8 -1 0  -4.75 -1 0  -4.7 -1 0  -4.65 -1 0  -4.6 -1 0  -4.55 -1 0  -4.5 -1 0  -4.45 -1 0  -4.4 -1 0  -4.35 -1 0  -4.3 -1 0  -4.25 -1 0  -4.2 -1 0  -4.15 -1 0  -4.1 -1 0  -4.05 -1 0  -4 -1 0  -3.95 -1 0  -3.9 -1 0  -3.85 -1 0  -3.8 -1 0  -3.75 -1 0  -3.7 -1 0  -3.65 -1 0  -3.6 -1 0  -3.55 -1 0  -3.5 -1 0  -3.45 -1 0  -3.4 -1 0  -3.35 -1 0  -3.3 -1 0  -3.25 -1 0  -3.2 -1 0  -3.15 -1 0  -3.1 -1 0  -3.05 -1 0  -3 -1 0  -2.95 -1 0  -2.9 -1 0  -2.85 -1 0  -2.8 -1 0  -2.75 -1 0  -2.7 -1 0  -2.65 -1 0  -2.6 -1 0  -2.55 -1 0  -2.5 -1 0  -2.45 -1 0  -2.4 -1 0  -2.35 -1 0  -2.3 -1 0  -2.25 -1 0  -2.2 -1 0  -2.15 -1 0  -2.1 -1 0  -2.05 -1 0  -2 -1 0  -1.95 -1 0  -1.9 -1 0  -1.85 -1 0  -1.8 -1 0  -1.75 -1 0  -1.7 -1 0  -1.65 -1 0  -1.6 -1 0  -1.55 -1 0  -1.5 -1 0  -1.45 -1 0  -1.4 -1 0  -1.35 -1 0  -1.3 -1 0  -1.25 -1 0  -1.2 -1 0  -1.15 -1 0  -1.1 -1 0  -1.05 -1 0  -1 -1 0  -0.9500000000000002 -1 0  -0.9000000000000004 -1 0  -0.8499999999999996 -1 0  -0.7999999999999998 -1 0  -0.75 -1 0  -0.7000000000000002 -1 0  -0.6500000000000004 -1 0  -0.5999999999999996 -1 0  -0.5499999999999998 -1 0  -0.5 -1 0  -0.4500000000000002 -1 0  -0.4000000000000004 -1 0  -0.3499999999999996 -1 0  -0.2999999999999998 -1 0  -0.25 -1 0  -0.2000000000000002 -1 0  -0.1500000000000004 -1 0  -0.09999999999999964 -1 0  -0.04999999999999982 -1 0  0 -1 0  0.04999999999999982 -1 0  0.09999999999999964 -1 0  0.1500000000000004 -1 0  0.2000000000000002 -1 0  0.25 -1 0  0.2999999999999998 -1 0  0.3499999999999996 -1 0  0.4000000000000004 -1 0  0.4500000000000002 -1 0  0.5 -1 0  0.5499999999999998 -1 0  0.5999999999999996 -1 0  0.6500000000000004 -1 0  0.7000000000000002 -1 0  0.75 -1 0  0.7999999999999998 -1 0  0.8499999999999996 -1 0  0.9000000000000004 -1 0  0.9500000000000002 -1 0  1 -1 0  1.05 -1 0  1.1 -1 0  1.15 -1 0  1.2 -1 0  1.25 -1 0  1.3 -1 0  1.35 -1 0  1.4 -1 0  1.45 -1 0  1.5 -1 0  1.55 -1 0  1.6 -1 0  1.65 -1 0  1.7 -1 0  1.75 -1 0  1.8 -1 0  1.85 -1 0  1.9 -1 0  1.95 -1 0  2 -1 0  2.05 -1 0  2.1 -1 0  2.15 -1 0  2.2 -1 0  2.25 -1 0  2.3 -1 0  2.35 -1 0  2.4 -1 0  2.45 -1 0  2.5 -1 0  2.55 -1 0  2.6 -1 0  2.65 -1 0  2.7 -1 0  2.75 -1 0  2.8 -1 0  2.85 -1 0  2.9 -1 0  2.95 -1 0  3 -1 0  3.050000000000001 -1 0  3.1 -1 0  3.15 -1 0  3.199999999999999 -1 0  3.25 -1 0  3.300000000000001 -1 0  3.35 -1 0  3.4 -1 0  3.449999999999999 -1 0  3.5 -1 0  3.550000000000001 -1 0  3.6 -1 0  3.65 -1 0  3.699999999999999 -1 0  3.75 -1 0  3.800000000000001 -1 0  3.85 -1 0  3.9 -1 0  3.949999999999999 -1 0  4 -1 0  4.050000000000001 -1 0  4.1 -1 0  4.15 -1 0  4.199999999999999 -1 0  4.25 -1 0  4.300000000000001 -1 0  4.35 -1 0  4.4 -1 0  4.449999999999999 -1 0  4.5 -1 0  4.550000000000001 -1 0  4.6 -1 0  4.65 -1 0  4.699999999999999 -1 0  4.75 -1 0  4.800000000000001 -1 0  4.85 -1 0  4.9 -1 0  4.949999999999999 -1 0  5 -1 0  -5 -0.95 0  -4.95 -0.95 0  -4.9 -0.95 0  -4.85 -0.95 0  -4.8 -0.95 0  -4.75 -0.95 0  -4.7 -0.95 0  -4.65 -0.95 0  -4.6 -0.95 0  -4.55 -0.95 0  -4.5 -0.95 0  -4.45 -0.95 0  -4.4 -0.95 0  -4.35 -0.95 0  -4.3 -0.95 0  -4.25 -0.95 0  -4.2 -0.95 0  -4.15 -0.95 0  -4.1 -0.95 0  -4.05 -0.95 0  -4 -0.95 0  -3.95 -0.95 0  -3.9 -0.95 0  -3.85 -0.95 0  -3.8 -0.95 0  -3.75 -0.95 0  -3.7 -0.95 0  -3.65 -0.95 0  -3.6 -0.95 0  -3.55 -0.95 0  -3.5 -0.95 0  -3.45 -0.95 0  -3.4 -0.95 0  -3.35 -0.95 0  -3.3 -0.95 0  -3.25 -0.95 0  -3.2 -0.95 0  -3.15 -0.95 0  -3.1 -0.95 0  -3.05 -0.95 0  -3 -0.95 0  -2.95 -0.95 0  -2.9 -0.95 0  -2.85 -0.95 0  -2.8 -0.95 0  -2.75 -0.95 0  -2.7 -0.95 0  -2.65 -0.95 0  -2.6 -0.95 0  -2.55 -0.95 0  -2.5 -0.95 0  -2.45 -0.95 0  -2.4 -0.95 0  -2.35 -0.95 0  -2.3 -0.95 0  -2.25 -0.95 0  -2.2 -0.95 0  -2.15 -0.95 0  -2.1 -0.95 0  -2.05 -0.95 0  -2 -0.95 0  -1.95 -0.95 0  -1.9 -0.95 0  -1.85 -0.95 0  -1.8 -0.95 0  -1.75 -0.95 0  -1.7 -0.95 0  -1.65 -0.95 0  -1.6 -0.95 0  -1.55 -0.95 0  -1.5 -0.95 0  -1.45 -0.95 0  -1.4 -0.95 0  -1.35 -0.95 0  -1.3 -0.95 0  -1.25 -0.95 0  -1.2 -0.95 0  -1.15 -0.95 0  -1.1 -0.95 0  -1.05 -0.95 0  -1 -0.95 0  -0.9500000000000002 -0.95 0  -0.9000000000000004 -0.95 0  -0.8499999999999996 -0.95 0  -0.7999999999999998 -0.95 0  -0.75 -0.95 0  -0.7000000000000002 -0.95 0  -0.6500000000000004 -0.95 0  -0.5999999999999996 -0.95 0  -0.5499999999999998 -0.95 0  -0.5 -0.95 0  -0.4500000000000002 -0.95 0  -0.4000000000000004 -0.95 0  -0.3499999999999996 -0.95 0  -0.2999999999999998 -0.95 0  -0.25 -0.95 0  -0.2000000000000002 -0.95 0  -0.1500000000000004 -0.95 0  -0.09999999999999964 -0.95 0  -0.04999999999999982 -0.95 0  0 -0.95 0  0.04999999999999982 -0.95 0  0.09999999999999964 -0.95 0  0.1500000000000004 -0.95 0  0.2000000000000002 -0.95 0  0.25 -0.95 0  0.2999999999999998 -0.95 0  0.3499999999999996 -0.95 0  0.4000000000000004 -0.95 0  0.4500000000000002 -0.95 0  0.5 -0.95 0  0.5499999999999998 -0.95 0  0.5999999999999996 -0.95 0  0.6500000000000004 -0.95 0  0.7000000000000002 -0.95 0  0.75 -0.95 0  0.7999999999999998 -0.95 0  0.8499999999999996 -0.95 0  0.9000000000000004 -0.95 0  0.9500000000000002 -0.95 0  1 -0.95 0  1.05 -0.95 0  1.1 -0.95 0  1.15 -0.95 0  1.2 -0.95 0  1.25 -0.95 0  1.3 -0.95 0  1.35 -0.95 0  1.4 -0.95 0  1.45 -0.95 0  1.5 -0.95 0  1.55 -0.95 0  1.6 -0.95 0  1.65 -0.95 0  1.7 -0.95 0  1.75 -0.95 0  1.8 -0.95 0  1.85 -0.95 0  1.9 -0.95 0  1.95 -0.95 0  2 -0.95 0  2.05 -0.95 0  2.1 -0.95 0  2.15 -0.95 0  2.2 -0.95 0  2.25 -0.95 0  2.3 -0.95 0  2.35 -0.95 0  2.4 -0.95 0  2.45 -0.95 0  2.5 -0.95 0  2.55 -0.95 0  2.6 -0.95 0  2.65 -0.95 0  2.7 -0.95 0  2.75 -0.95 0  2.8 -0.95 0  2.85 -0.95 0  2.9 -0.95 0  2.95 -0.95 0  3 -0.95 0  3.050000000000001 -0.95 0  3.1 -0.95 0  3.15 -0.95 0  3.199999999999999 -0.95 0  3.25 -0.95 0  3.300000000000001 -0.95 0  3.35 -0.95 0  3.4 -0.95 0  3.449999999999999 -0.95 0  3.5 -0.95 0  3.550000000000001 -0.95 0  3.6 -0.95 0  3.65 -0.95 0  3.699999999999999 -0.95 0  3.75 -0.95 0  3.800000000000001 -0.95 0  3.85 -0.95 0  3.9 -0.95 0  3.949999999999999 -0.95 0  4 -0.95 0  4.050000000000001 -0.95 0  4.1 -0.95 0  4.15 -0.95 0  4.199999999999999 -0.95 0  4.25 -0.95 0  4.300000000000001 -0.95 0  4.35 -0.95 0  4.4 -0.95 0  4.449999999999999 -0.95 0  4.5 -0.95 0  4.550000000000001 -0.95 0  4.6 -0.95 0  4.65 -0.95 0  4.699999999999999 -0.95 0  4.75 -0.95 0  4.800000000000001 -0.95 0  4.85 -0.95 0  4.9 -0.95 0  4.949999999999999 -0.95 0  5 -0.95 0  -5 -0.9 0  -4.95 -0.9 0  -4.9 -0.9 0  -4.85 -0.9 0  -4.8 -0.9 0  -4.75 -0.9 0  -4.7 -0.9 0  -4.65 -0.9 0  -4.6 -0.9 0  -4.55 -0.9 0  -4.5 -0.9 0  -4.45 -0.9 0  -4.4 -0.9 0  -4.35 -0.9 0  -4.3 -0.9 0  -4.25 -0.9 0  -4.2 -0.9 0  -4.15 -0.9 0  -4.1 -0.9 0  -4.05 -0.9 0  -4 -0.9 0  -3.95 -0.9 0  -3.9 -0.9 0  -3.85 -0.9 0  -3.8 -0.9 0  -3.75 -0.9 0  -3.7 -0.9 0  -3.65 -0.9 0  -3.6 -0.9 0  -3.55 -0.9 0  -3.5 -0.9 0  -3.45 -0.9 0  -3.4 -0.9 0  -3.35 -0.9 0  -3.3 -0.9 0  -3.25 -0.9 0  -3.2 -0.9 0  -3.15 -0.9 0  -3.1 -0.9 0  -3.05 -0.9 0  -3 -0.9 0  -2.95 -0.9 0  -2.9 -0.9 0  -2.85 -0.9 0  -2.8 -0.9 0  -2.75 -0.9 0  -2.7 -0.9 0  -2.65 -0.9 0  -2.6 -0.9 0  -2.55 -0.9 0  -2.5 -0.9 0  -2.45 -0.9 0  -2.4 -0.9 0  -2.35 -0.9 0  -2.3 -0.9 0  -2.25 -0.9 0  -2.2 -0.9 0  -2.15 -0.9 0  -2.1 -0.9 0  -2.05 -0.9 0  -2 -0.9 0  -1.95 -0.9 0  -1.9 -0.9 0  -1.85 -0.9 0  -1.8 -0.9 0  -1.75 -0.9 0  -1.7 -0.9 0  -1.65 -0.9 0  -1.6 -0.9 0  -1.55 -0.9 0  -1.5 -0.9 0  -1.45 -0.9 0  -1.4 -0.9 0  -1.35 -0.9 0  -1.3 -0.9 0  -1.25 -0.9 0  -1.2 -0.9 0  -1.15 -0.9 0  -1.1 -0.9 0  -1.05 -0.9 0  -1 -0.9 0  -0.9500000000000002 -0.9 0  -0.9000000000000004 -0.9 0  -0.8499999999999996 -0.9 0  -0.7999999999999998 -0.9 0  -0.75 -0.9 0  -0.7000000000000002 -0.9 0  -0.6500000000000004 -0.9 0  -0.5999999999999996 -0.9 0  -0.5499999999999998 -0.9 0  -0.5 -0.9 0  -0.4500000000000002 -0.9 0  -0.4000000000000004 -0.9 0  -0.3499999999999996 -0.9 0  -0.2999999999999998 -0.9 0  -0.25 -0.9 0  -0.2000000000000002 -0.9 0  -0.1500000000000004 -0.9 0  -0.09999999999999964 -0.9 0  -0.04999999999999982 -0.9 0  0 -0.9 0  0.04999999999999982 -0.9 0  0.09999999999999964 -0.9 0  0.1500000000000004 -0.9 0  0.2000000000000002 -0.9 0  0.25 -0.9 0  0.2999999999999998 -0.9 0  0.3499999999999996 -0.9 0  0.4000000000000004 -0.9 0  0.4500000000000002 -0.9 0  0.5 -0.9 0  0.5499999999999998 -0.9 0  0.5999999999999996 -0.9 0  0.6500000000000004 -0.9 0  0.7000000000000002 -0.9 0  0.75 -0.9 0  0.7999999999999998 -0.9 0  0.8499999999999996 -0.9 0  0.9000000000000004 -0.9 0  0.9500000000000002 -0.9 0  1 -0.9 0  1.05 -0.9 0  1.1 -0.9 0  1.15 -0.9 0  1.2 -0.9 0  1.25 -0.9 0  1.3 -0.9 0  1.35 -0.9 0  1.4 -0.9 0  1.45 -0.9 0  1.5 -0.9 0  1.55 -0.9 0  1.6 -0.9 0  1.65 -0.9 0  1.7 -0.9 0  1.75 -0.9 0  1.8 -0.9 0  1.85 -0.9 0  1.9 -0.9 0  1.95 -0.9 0  2 -0.9 0  2.05 -0.9 0  2.1 -0.9 0  2.15 -0.9 0  2.2 -0.9 0  2.25 -0.9 0  2.3 -0.9 0  2.35 -0.9 0  2.4 -0.9 0  2.45 -0.9 0  2.5 -0.9 0  2.55 -0.9 0  2.6 -0.9 0  2.65 -0.9 0  2.7 -0.9 0  2.75 -0.9 0  2.8 -0.9 0  2.85 -0.9 0  2.9 -0.9 0  2.95 -0.9 0  3 -0.9 0  3.050000000000001 -0.9 0  3.1 -0.9 0  3.15 -0.9 0  3.199999999999999 -0.9 0  3.25 -0.9 0  3.300000000000001 -0.9 0  3.35 -0.9 0  3.4 -0.9 0  3.449999999999999 -0.9 0  3.5 -0.9 0  3.550000000000001 -0.9 0  3.6 -0.9 0  3.65 -0.9 0  3.699999999999999 -0.9 0  3.75 -0.9 0  3.800000000000001 -0.9 0  3.85 -0.9 0  3.9 -0.9 0  3.949999999999999 -0.9 0  4 -0.9 0  4.050000000000001 -0.9 0  4.1 -0.9 0  4.15 -0.9 0  4.199999999999999 -0.9 0  4.25 -0.9 0  4.300000000000001 -0.9 0  4.35 -0.9 0  4.4 -0.9 0  4.449999999999999 -0.9 0  4.5 -0.9 0  4.550000000000001 -0.9 0  4.6 -0.9 0  4.65 -0.9 0  4.699999999999999 -0.9 0  4.75 -0.9 0  4.800000000000001 -0.9 0  4.85 -0.9 0  4.9 -0.9 0  4.949999999999999 -0.9 0  5 -0.9 0  -5 -0.85 0  -4.95 -0.85 0  -4.9 -0.85 0  -4.85 -0.85 0  -4.8 -0.85 0  -4.75 -0.85 0  -4.7 -0.85 0  -4.65 -0.85 0  -4.6 -0.85 0  -4.55 -0.85 0  -4.5 -0.85 0  -
[...]
<PointData  Vectors="f_15"> 
<DataArray  type="Float64"  Name="f_15"  NumberOfComponents="3" format="ascii">1.1832747309458871e+00 0.0000000000000000e+00 0.0000000000000000e+00  1.1729969223617254e+00 8.7028466151336456e-03 0.0000000000000000e+00  1.1849787961475768e+00 6.5606692784383580e-02 0.0000000000000000e+00  1.1700886681136424e+00 1.1410749698138624e-01 0.0000000000000000e+00  1.1867125293077434e+00 1.2203128313395019e-01 0.0000000000000000e+00  1.1717683519276270e+00 1.5471630862761629e-01 0.0000000000000000e+00  1.1834143016059366e+00 1.9853739917744226e-01 0.0000000000000000e+00  1.1741706192809171e+00 2.1585969417332812e-01 0.0000000000000000e+00  1.1841968926388526e+00 2.4119291313809224e-01 0.0000000000000000e+00  1.1717749296704285e+00 2.8172716265712960e-01 0.0000000000000000e+00  1.1859696061929834e+00 3.0672286004636490e-01 0.0000000000000000e+00  1.1731896255917393e+00 3.3240542426369557e-01 0.0000000000000000e+00  1.1835199603999238e+00 3.5846539177713166e-01 0.0000000000000000e+00  1.1754967641411322e+00 3.9750881991265907e-01 0.0000000000000000e+00  1.1851646197561299e+00 4.2061310315058825e-01 0.0000000000000000e+00  1.1736868426639320e+00 4.3649944321191969e-01 0.0000000000000000e+00  1.1882160161866762e+00 4.8751976303933892e-01 0.0000000000000000e+00  1.1760072568700863e+00 4.9132150817989761e-01 0.0000000000000000e+00  1.1878493386204008e+00 5.3920227053947356e-01 0.0000000000000000e+00  1.1799136047775347e+00 5.3587481321091079e-01 0.0000000000000000e+00  1.1919914406064054e+00 5.9883077575608357e-01 0.0000000000000000e+00  1.1811585669963718e+00 5.8212598579186270e-01 0.0000000000000000e+00  1.1981301049334014e+00 6.4160129312672387e-01 0.0000000000000000e+00  1.1874241774981640e+00 6.2452002921778760e-01 0.0000000000000000e+00  1.2023872194733820e+00 6.8469779371800010e-01 0.0000000000000000e+00  1.1961330155113448e+00 6.6251697046552727e-01 0.0000000000000000e+00  1.2114172834174179e+00 7.1971458551331546e-01 0.0000000000000000e+00  1.2033965250488101e+00 6.9462972034166448e-01 0.0000000000000000e+00  1.2222723407837530e+00 7.4866939576231950e-01 0.0000000000000000e+00  1.2147316409903273e+00 7.2979411213243972e-01 0.0000000000000000e+00  1.2308165699154128e+00 7.7580110686009984e-01 0.0000000000000000e+00  1.2271554002429563e+00 7.5825098473264652e-01 0.0000000000000000e+00  1.2420401740950289e+00 8.0381140085685387e-01 0.0000000000000000e+00  1.2370768344911716e+00 7.9034658350091480e-01 0.0000000000000000e+00  1.2536643923886677e+00 8.2875992381884289e-01 0.0000000000000000e+00  1.2491714640455018e+00 8.2407820702550416e-01 0.0000000000000000e+00  1.2628753972936422e+00 8.5485700725184721e-01 0.0000000000000000e+00  1.2616579108163395e+00 8.5529672024774650e-01 0.0000000000000000e+00  1.2738361957798991e+00 8.8403866513832574e-01 0.0000000000000000e+00  1.2720569296278308e+00 8.8745053798404461e-01 0.0000000000000000e+00  1.2852712851819266e+00 9.1052128314358316e-01 0.0000000000000000e+00  1.2837295913661391e+00 9.2106048933919027e-01 0.0000000000000000e+00  1.2951597124044267e+00 9.3808786891546747e-01 0.0000000000000000e+00  1.2957473424901900e+00 9.5248638923305040e-01 0.0000000000000000e+00  1.3060653672558278e+00 9.6750460828007856e-01 0.0000000000000000e+00  1.3064856805458505e+00 9.8335089529709063e-01 0.0000000000000000e+00  1.3173760531393617e+00 9.9574406374776847e-01 0.0000000000000000e+00  1.3177978483759250e+00 1.0154843251570815e+00 0.0000000000000000e+00  1.3278474692308109e+00 1.0236986772907497e+00 0.0000000000000000e+00  1.3293988885316561e+00 1.0465993579679718e+00 0.0000000000000000e+00  1.3385925294512417e+00 1.0530634365833031e+00 0.0000000000000000e+00  1.3405744594429037e+00 1.0761480865221007e+00 0.0000000000000000e+00  1.3494256684879689e+00 1.0827766997352413e+00 0.0000000000000000e+00  1.3519191531593238e+00 1.1061363206157113e+00 0.0000000000000000e+00  1.3600894884968922e+00 1.1114783579303493e+00 0.0000000000000000e+00  1.3633115281952135e+00 1.1363211179391419e+00 0.0000000000000000e+00  1.3706993148793636e+00 1.1409919864234093e+00 0.0000000000000000e+00  1.3749099687944841e+00 1.1645169218157096e+00 0.0000000000000000e+00  1.3811405805145822e+00 1.1721320995899029e+00 0.0000000000000000e+00  1.3863360881208231e+00 1.1924857307970500e+00 0.0000000000000000e+00  1.3921121893716328e+00 1.2020468035401026e+00 0.0000000000000000e+00  1.3973347081071399e+00 1.2217412270982080e+00 0.0000000000000000e+00  1.4030166941069264e+00 1.2317986532426040e+00 0.0000000000000000e+00  1.4089324363598814e+00 1.2494623141260524e+00 0.0000000000000000e+00  1.4135407661514112e+00 1.2633030900602624e+00 0.0000000000000000e+00  1.4202087742049374e+00 1.2767528102603263e+00 0.0000000000000000e+00  1.4250824769220032e+00 1.2931361585348764e+00 0.0000000000000000e+00  1.4306952232941632e+00 1.3067191881606441e+00 0.0000000000000000e+00  1.4366254903296576e+00 1.3208863396378225e+00 0.0000000000000000e+00  1.4420415376246531e+00 1.3366988005375682e+00 0.0000000000000000e+00  1.4475068918684384e+00 1.3501924838119386e+00 0.0000000000000000e+00  1.4532843536649187e+00 1.3647889692036277e+00 0.0000000000000000e+00  1.4593369222972699e+00 1.3798167863267152e+00 0.0000000000000000e+00  1.4638261452449519e+00 1.3945407584421079e+00 0.0000000000000000e+00  1.4710541203154632e+00 1.4062416939476119e+00 0.0000000000000000e+00  1.4753846556099934e+00 1.4267998936747088e+00 0.0000000000000000e+00  1.4819865042201958e+00 1.4320657176809077e+00 0.0000000000000000e+00  1.4869274539189903e+00 1.4571405435209637e+00 0.0000000000000000e+00  1.4937718406969414e+00 1.4603350161725372e+00 0.0000000000000000e+00  1.4978839888763025e+00 1.4869468479213248e+00 0.0000000000000000e+00  1.5053190199337161e+00 1.4855568733703037e+00 0.0000000000000000e+00  1.5098368298053866e+00 1.5222845017913760e+00 0.0000000000000000e+00  1.5161780044591351e+00 1.5065955447362191e+00 0.0000000000000000e+00  1.5215825812055133e+00 1.5574300428849543e+00 0.0000000000000000e+00  1.5279723192448267e+00 1.5330956356199201e+00 0.0000000000000000e+00  1.5327023804322761e+00 1.5865078500987342e+00 0.0000000000000000e+00  1.5395189104589426e+00 1.5620926561236668e+00 0.0000000000000000e+00  1.5446839557166687e+00 1.6193713681912003e+00 0.0000000000000000e+00  1.5505613637693698e+00 1.5849292770022114e+00 0.0000000000000000e+00  1.5562692531685873e+00 1.6550526516842936e+00 0.0000000000000000e+00  1.5625246887430704e+00 1.6121450267537036e+00 0.0000000000000000e+00  1.5674053889834996e+00 1.6818943429642461e+00 0.0000000000000000e+00  1.5740144976783736e+00 1.6463206444831491e+00 0.0000000000000000e+00  1.5794253166819647e+00 1.7085103013172953e+00 0.0000000000000000e+00  1.5851707972923521e+00 1.6748573534223368e+00 0.0000000000000000e+00  1.5908333409151270e+00 1.7395127541783866e+00 0.0000000000000000e+00  1.5971858595990585e+00 1.7046608965346157e+00 0.0000000000000000e+00  1.6020949868183729e+00 1.7631074894182526e+00 0.0000000000000000e+00  1.6083320717486387e+00 1.7412724164560813e+00 0.0000000000000000e+00  1.6143126595924038e+00 1.7851010022851328e+00 0.0000000000000000e+00  1.6194820479139671e+00 1.7730092734404437e+00 0.0000000000000000e+00  1.6254528539901951e+00 1.8121664782424860e+00 0.0000000000000000e+00  1.6318486468680660e+00 1.8027237164680130e+00 0.0000000000000000e+00  1.6370307066626677e+00 1.8350575875198689e+00 0.0000000000000000e+00  1.6436016402224125e+00 1.8343469728205355e+00 0.0000000000000000e+00  1.6511563198665657e+00 1.8546877232788819e+00 0.0000000000000000e+00  1.6580453675866906e+00 1.8574738472621044e+00 0.0000000000000000e+00  1.6678566298757473e+00 1.8701475390904327e+00 0.0000000000000000e+00  1.6797856694871225e+00 1.8682987024636346e+00 0.0000000000000000e+00  1.6931521118211255e+00 1.8690897556963035e+00 0.0000000000000000e+00  1.7094804314406702e+00 1.8640320866865121e+00 0.0000000000000000e+00  1.7292701437519558e+00 1.8526306558697854e+00 0.0000000000000000e+00  1.7462126693115949e+00 1.8469235938895414e+00 0.0000000000000000e+00  1.7656188849714967e+00 1.8362556469954709e+00 0.0000000000000000e+00  1.7794520510338347e+00 1.8380602352654667e+00 0.0000000000000000e+00  1.7915584840140046e+00 1.8378227109540202e+00 0.0000000000000000e+00  1.7961073912049410e+00 1.8567062793282385e+00 0.0000000000000000e+00  1.7976911853461082e+00 1.8750810480729887e+00 0.0000000000000000e+00  1.7824558911522270e+00 1.9333353521118424e+00 0.0000000000000000e+00  1.7504000155150710e+00 2.0052386333369268e+00 0.0000000000000000e+00  1.6913296866267706e+00 2.1321499738198528e+00 0.0000000000000000e+00  1.6120903625545377e+00 2.2932284852020661e+00 0.0000000000000000e+00  1.8140214911281254e+00 1.7709252042851864e+00 0.0000000000000000e+00  2.5020082101236483e+00 3.1312491355004451e-01 0.0000000000000000e+00  2.8454800923726187e+00 -2.7093747865363943e-01 0.0000000000000000e+00  2.8406897199228389e+00 -2.5913280538410904e-01 0.0000000000000000e+00  2.8279665332414945e+00 -2.2901774046523873e-01 0.0000000000000000e+00  2.8703508486366500e+00 -2.6597099126504697e-01 0.0000000000000000e+00  2.8696226141777554e+00 -2.4867938445059515e-01 0.0000000000000000e+00  2.8802840297595154e+00 -2.4488587987464394e-01 0.0000000000000000e+00  2.8834158333537152e+00 -2.2877906113186475e-01 0.0000000000000000e+00  2.8900808413372472e+00 -2.2028520980574851e-01 0.0000000000000000e+00  2.8919184591043394e+00 -2.0338495291225367e-01 0.0000000000000000e+00  2.9047299032938207e+00 -2.0819867293515487e-01 0.0000000000000000e+00  2.9038240926061141e+00 -1.8710455012357322e-01 0.0000000000000000e+00  2.9141706180422835e+00 -1.9014716443677881e-01 0.0000000000000000e+00  2.9137084640757780e+00 -1.6944586355239946e-01 0.0000000000000000e+00  2.9229954753740062e+00 -1.7397107577443258e-01 0.0000000000000000e+00  2.9233068017946144e+00 -1.5492202419178414e-01 0.0000000000000000e+00  2.9318728096285911e+00 -1.5893919263392062e-01 0.0000000000000000e+00  2.9303431190824107e+00 -1.3962542648961676e-01 0.0000000000000000e+00  2.9395702459805428e+00 -1.4431495260477684e-01 0.0000000000000000e+00  2.9372170403098581e+00 -1.2458755573441367e-01 0.0000000000000000e+00  2.9451199007744848e+00 -1.2900016165837777e-01 0.0000000000000000e+00  2.9435732904989562e+00 -1.1076284815497950e-01 0.0000000000000000e+00  2.9501264700331919e+00 -1.1375952494483139e-01 0.0000000000000000e+00  2.9475281958531383e+00 -9.6871512925159844e-02 0.0000000000000000e+00  2.9548768448084095e+00 -9.9650978009344804e-02 0.0000000000000000e+00  2.9511085901673679e+00 -8.4966862417262645e-02 0.0000000000000000e+00  2.9575149182931972e+00 -8.5515024909119150e-02 0.0000000000000000e+00  2.9545486874223172e+00 -7.4896979098617589e-02 0.0000000000000000e+00  2.9598221623119403e+00 -7.3005360988273663e-02 0.0000000000000000e+00  2.9562700136752507e+00 -6.4987280378167228e-02 0.0000000000000000e+00  2.9621560220719356e+00 -6.2517681444745912e-02 0.0000000000000000e+00  2.9578169767376412e+00 -5.6632740413104121e-02 0.0000000000000000e+00  2.9631726531590243e+00 -5.2797731771105409e-02 0.0000000000000000e+00  2.9593448162541374e+00 -5.0211163636117689e-02 0.0000000000000000e+00  2.9643870878273924e+00 -4.4728841278980636e-02 0.0000000000000000e+00  2.9596982171604722e+00 -4.3740546296829406e-02 0.0000000000000000e+00  2.9656816505526136e+00 -4.0201195000325672e-02 0.0000000000000000e+00  2.9604750621936202e+00 -3.9896682204266946e-02 0.0000000000000000e+00  2.9659057275861866e+00 -4.0283029987183389e-02 0.0000000000000000e+00  2.9613635382078707e+00 -4.1643079232328704e-02 0.0000000000000000e+00  2.9667622914575285e+00 -4.6456883993705018e-02 0.0000000000000000e+00  2.9611921054020689e+00 -4.4672077856694310e-02 0.0000000000000000e+00  2.9677772681941779e+00 -5.0768533647067390e-02 0.0000000000000000e+00  2.9617930826329202e+00 -4.2710360787166599e-02 0.0000000000000000e+00  2.9677707495332468e+00 -4.5976178729871378e-02 0.0000000000000000e+00  2.9625788241792432e+00 -3.4899173917961109e-02 0.0000000000000000e+00  2.9685515715516373e+00 -3.6811147669913301e-02 0.0000000000000000e+00  2.9623680341062388e+00 -2.4639653477052843e-02 0.0000000000000000e+00  2.9694852570935915e+00 -2.7999613929265872e-02 0.0000000000000000e+00  2.9628502240151686e+00 -1.8588016206906727e-02 0.0000000000000000e+00  2.9695318930986980e+00 -2.1297487297739934e-02 0.0000000000000000e+00  2.9633710030221532e+00 -1.3742739683469124e-02 0.0000000000000000e+00  2.9702531314723544e+00 -2.1255034627401984e-02 0.0000000000000000e+00  2.9630139248564245e+00 -9.7610149778046048e-03 0.0000000000000000e+00  2.9709889085154453e+00 -2.3064666492061781e-02 0.0000000000000000e+00  2.9632351301712361e+00 -1.0429966030055037e-02 0.0000000000000000e+00  2.9709614899445635e+00 -2.4213560958670548e-02 0.0000000000000000e+00  2.9633233634619818e+00 -1.4832940576742960e-02 0.0000000000000000e+00  2.9716122167922157e+00 -2.3129355186717562e-02 0.0000000000000000e+00  2.9625934555665174e+00 -2.1655152904941643e-02 0.0000000000000000e+00  2.9721826152067030e+00 -2.1160626808192907e-02 0.0000000000000000e+00  2.9625020093847985e+00 -2.6218264394918818e-02 0.0000000000000000e+00  2.9720607201672609e+00 -1.7148856101416646e-02 0.0000000000000000e+00  2.9622774905325668e+00 -2.7272953279260936e-02 0.0000000000000000e+00  2.9726793493177808e+00 -1.1237504909191910e-02 0.0000000000000000e+00  2.9613666350826837e+00 -2.2056954362136803e-02 0.0000000000000000e+00  2.9732777817695193e+00 -1.0250663233756896e-02 0.0000000000000000e+00  2.9611550169391276e+00 -2.0578578304989409e-02 0.0000000000000000e+00  2.9732972363157493e+00 -2.8603039347382300e-02 0.0000000000000000e+00  2.9609066404334654e+00 -4.7998966512538627e-02 0.0000000000000000e+00  2.9739583182904070e+00 -6.3377474823793495e-02 0.0000000000000000e+00  2.9600188954994282e+00 -7.4104264156477195e-02 0.0000000000000000e+00  2.9747316110119266e+00 -7.4825739554667536e-02 0.0000000000000000e+00  2.9598741613491870e+00 -6.9086583688536138e-02 0.0000000000000000e+00  2.9751039122203440e+00 -5.4470091811785762e-02 0.0000000000000000e+00  2.9598813467641052e+00 -5.8383862201939737e-02 0.0000000000000000e+00  2.9761483930537360e+00 -3.0372884842032922e-02 0.0000000000000000e+00  2.9593509560044864e+00 0.0000000000000000e+00 0.0000000000000000e+00  1.1691092646324703e+00 0.0000000000000000e+00 1.4539088689332996e-02  1.1687436054106939e+00 2.6954726382350407e-02 7.9432861382538068e-03  1.1660110311700616e+00 4.9445427547092240e-02 -1.3577590123834601e-02  1.1701254021490675e+00 7.5295792541525658e-02 -1.7106667329254904e-02  1.1672356860976691e+00 1.1118642904504764e-01 3.2040957306448743e-02  1.1671368959501998e+00 1.3036690549075081e-01 -3.6789988917966011e-02  1.1692150341466141e+00 1.8290146014710582e-01 3.3889055621240116e-02  1.1686158489086618e+00 1.7438305407509594e-01 -3.3735356453586197e-02  1.1664627937715459e+00 2.5051463834987686e-01 3.7896772808841336e-02  1.1711344524060827e+00 2.3805891993713074e-01 -4.3162851732215908e-02  1.1678322225593933e+00 3.0464816065089134e-01 4.2634570335432699e-02  1.1691871339071460e+00 2.9415645805562302e-01 -4.0075905026388671e-02  1.1703817237632805e+00 3.7098916040183899e-01 3.8843635679478176e-02  1.1711847091536172e+00 3.5091838882420895e-01 -3.8531210402697705e-02  1.1689855734471288e+00 4.2063884631183951e-01 3.0997858208113970e-02  1.1741693434874281e+00 4.2003189986233386e-01 -1.7845997193966946e-02  1.1719051267186897e+00 4.6593121935542675e-01 6.1844100922179420e-03  1.1733356972291993e+00 4.8152365637610334e-01 -2.6669640204784184e-03  1.1762320515072215e+00 5.1555292337433700e-01 -5.7186574711476021e-04  1.1768364982422737e+00 5.4130371111879061e-01 7.3464267844008833e-03  1.1775385270452947e+00 5.5733225433622657e-01 -1.5580359170467607e-02  1.1821885346950896e+00 5.9618883879490903e-01 1.7374721667948800e-02  1.1835412123715789e+00 6.0393411681805065e-01 -1.7166235116237973e-02  1.1854611103729367e+00 6.4075873928593086e-01 1.9632088487296175e-02  1.1917580805774337e+00 6.4158024510782985e-01 -2.2959640303373184e-02  1.1937350936921609e+00 6.8356661308444921e-01 2.2785408722276565e-02  1.1983066605786812e+00 6.7722009972533803e-01 -2.2050749385408012e-02  1.2041940693686743e+00 7.1616052166028876e-01 2.3150049161426552e-02  1.2091321195443565e+00 7.1043660655877694e-01 -2.3379056854361424e-02  1.2126691350138425e+00 7.4582912762241149e-01 2.1924276821101631e-02  1.2211681706437740e+00 7.3940391401787064e-01 -2.1442993384951540e-02  1.2242533862967884e+00 7.7652191453188668e-01 2.1472755512800108e-02  1.2305458403747596e+00 7.6824745915335402e-01 -2.0518325479383478e-02  1.2363621457192773e+00 8.0239083027553382e-01 1.9005762797650184e-02  1.2421303140179272e+00 7.9998635408893115e-01 -1.8094281060751914e-02  1.2458898531378813e+00 8.3004705472401807e-01 1.6921479979975812e-02  1.2540223391806402e+00 8.2873191078049013e-01 -1.5629052715804493e-02  1.2572637388772230e+00 8.5939508053647007e-01 1.4481235087647135e-02  1.2636758284145868e+00 8.5816842081792732e-01 -1.3783945752694728e-02  1.2690356101110383e+00 8.8650692330032910e-01 1.2652373952816126e-02  1.2748265981139353e+00 8.8988273265494522e-01 -1.1718107148374740e-02  1.2790066297489746e+00 9.1451259756937342e-01 1.0911256194840624e-02  1.2864210470851396e+00 9.1910192884839126e-01 -1.0417812638795734e-02  1.2900764596751593e+00 9.4469086038908123e-01 9.9970863513656385e-03  1.2966887813629153e+00 9.4819560782532564e-01 -9.7358378322329048e-03  1.3015552771057595e+00 9.7389657689217213e-01 9.5460777314213766e-03  1.3077919221574286e+00 9.7899848447718618e-01 -9.4380267716800258e-03  1.3120847304396337e+00 1.0030194532106749e+00 9.5202832301280807e-03  1.3193443805028569e+00 1.0085107385930396e+00 -9.7498562202237935e-03  1.3230964906893226e+00 1.0339429190227194e+00 1.0208290617397234e-02  1.3304232213964737e+00 1.0369598609560926e+00 -1.0699539254530070e-02  1.3343901277187911e+00 1.0652258087677915e+00 1.1351615047623841e-02  1.3418103167107365e+00 1.0664161489130501e+00 -1.1918715814084399e-02  1.3455138565612188e+00 1.0955414718010243e+00 1.2647112076840359e-02  1.3533350864455416e+00 1.0962246603221055e+00 -1.3227759320814006e-02  1.3567500379595416e+00 1.1267605688354341e+00 1.3831223396166537e-02  1.3649587049852376e+00 1.1250061602476367e+00 -1.4272621230744881e-02  1.3679865434851510e+00 1.1588947969861287e+00 1.4663300598779421e-02  1.3764927920455172e+00 1.1544987980329691e+00 -1.4906104209180123e-02  1.3797102270060773e+00 1.1892682369784964e+00 1.5020941671170110e-02  1.3877325440044035e+00 1.1857644641255016e+00 -1.4959602295090862e-02  1.3913851252596858e+00 1.2192735319244887e+00 1.4656962377384298e-02  1.3995408489783010e+00 1.2162833352803082e+00 -1.4152994448133954e-02  1.4026968417953247e+00 1.2503147960398449e+00 1.3503310178644218e-02  1.4111121752339677e+00 1.2470436420542623e+00 -1.2733876786176334e-02  1.4148837536037551e+00 1.2794874036178074e+00 1.1970096901683288e-02  1.4220526953229988e+00 1.2800557764673914e+00 -1.1098125366452806e-02  1.4269374389297200e+00 1.3074259743088468e+00 1.0248926393837121e-02  1.4338938771715088e+00 1.3123171963189322e+00 -9.1439730407517281e-03  1.4382610694331714e+00 1.3371330302667839e+00 8.1356786724237542e-03  1.4456218556634512e+00 1.3429064013407195e+00 -6.8506497094795050e-03  1.4504803092865519e+00 1.3667845681941682e+00 5.9046740478076740e-03  1.4566215703772831e+00 1.3748822740270199e+00 -4.7290661249598754e-03  1.4625542758402497e+00 1.3943148391046034e+00 4.0114494210817392e-03  1.4685499291053001e+00 1.4077852756551323e+00 -2.7872512172890424e-03  1.4738619512599545e+00 1.4224820157765321e+00 1.9320418446978462e-03  1.4803170767038980e+00 1.4383672707588606e+00 -2.8152432140398845e-04  1.4860981460063289e+00 1.4526188742859474e+00 -8.4273970649107854e-04  1.4913270730227988e+00 1.4685964273205174e+00 2.6246970377391634e-03  1.4981467529850825e+00 1.4802834457494856e+00 -3.5751829334771013e-03  1.5032447587152058e+00 1.5022684207128743e+00 5.0850237632268473e-03  1.5094766644864916e+00 1.5057246687