<?xml version="1.0"?>
<VTKFile type="UnstructuredGrid"  version="0.1"  >
<UnstructuredGrid>
<Piece  NumberOfPoints="8241" NumberOfCells="16000">
<Points>
<DataArray  type="Float64"  NumberOfComponents="3"  format="ascii">-5 -1 0  -4.95 -1 0  -4.9 -1 0  -4.85 -1 0  -4.8 -1 0  -4.75 -1 0  -4.7 -1 0  -4.65 -1 0  -4.6 -1 0  -4.55 -1 0  -4.5 -1 0  -4.45 -1 0  -4.4 -1 0  -4.35 -1 0  -4.3 -1 0  -4.25 -1 0  -4.2 -1 0  -4.15 -1 0  -4.1 -1 0  -4.05 -1 0  -4 -1 0  -3.95 -1 0  -3.9 -1 0  -3.85 -1 0  -3.8 -1 0  -3.75 -1 0  -3.7 -1 0  -3.65 -1 0  -3.6 -1 0  -3.55 -1 0  -3.5 -1 0  -3.45 -1 0  -3.4 -1 0  -3.35 -1 0  -3.3 -1 0  -3.25 -1 0  -3.2 -1 0  -3.15 -1 0  -3.1 -1 0  -3.05 -1 0  -3 -1 0  -2.95 -1 0  -2.9 -1 0  -2.85 -1 0  -2.8 -1 0  -2.75 -1 0  -2.7 -1 0  -2.65 -1 0  -2.6 -1 0  -2.55 -1 0  -2.5 -1 0  -2.45 -1 0  -2.4 -1 0  -2.35 -1 0  -2.3 -1 0  -2.25 -1 0  -2.2 -1 0  -2.15 -1 0  -2.1 -1 0  -2.05 -1 0  -2 -1 0  -1.95 -1 0  -1.9 -1 0  -1.85 -1 0  -1.8 -1 0  -1.75 -1 0  -1.7 -1 0  -1.65 -1 0  -1.6 -1 0  -1.55 -1 0  -1.5 -1 0  -1.45 -1 0  -1.4 -1 0  -1.35 -1 0  -1.3 -1 0  -1.25 -1 0  -1.2 -1 0  -1.15 -1 0  -1.1 -1 0  -1.05 -1 0  -1 -1 0  -0.9500000000000002 -1 0  -0.9000000000000004 -1 0  -0.8499999999999996 -1 0  -0.7999999999999998 -1 0  -0.75 -1 0  -0.7000000000000002 -1 0  -0.6500000000000004 -1 0  -0.5999999999999996 -1 0  -0.5499999999999998 -1 0  -0.5 -1 0  -0.4500000000000002 -1 0  -0.4000000000000004 -1 0  -0.3499999999999996 -1 0  -0.2999999999999998 -1 0  -0.25 -1 0  -0.2000000000000002 -1 0  -0.1500000000000004 -1 0  -0.09999999999999964 -1 0  -0.04999999999999982 -1 0  0 -1 0  0.04999999999999982 -1 0  0.09999999999999964 -1 0  0.1500000000000004 -1 0  0.2000000000000002 -1 0  0.25 -1 0  0.2999999999999998 -1 0  0.3499999999999996 -1 0  0.4000000000000004 -1 0  0.4500000000000002 -1 0  0.5 -1 0  0.5499999999999998 -1 0  0.5999999999999996 -1 0  0.6500000000000004 -1 0  0.7000000000000002 -1 0  0.75 -1 0  0.7999999999999998 -1 0  0.8499999999999996 -1 0  0.9000000000000004 -1 0  0.9500000000000002 -1 0  1 -1 0  1.05 -1 0  1.1 -1 0  1.15 -1 0  1.2 -1 0  1.25 -1 0  1.3 -1 0  1.35 -1 0  1.4 -1 0  1.45 -1 0  1.5 -1 0  1.55 -1 0  1.6 -1 0  1.65 -1 0  1.7 -1 0  1.75 -1 0  1.8 -1 0  1.85 -1 0  1.9 -1 0  1.95 -1 0  2 -1 0  2.05 -1 0  2.1 -1 0  2.15 -1 0  2.2 -1 0  2.25 -1 0  2.3 -1 0  2.35 -1 0  2.4 -1 0  2.45 -1 0  2.5 -1 0  2.55 -1 0  2.6 -1 0  2.65 -1 0  2.7 -1 0  2.75 -1 0  2.8 -1 0  2.85 -1 0  2.9 -1 0  2.95 -1 0  3 -1 0  3.050000000000001 -1 0  3.1 -1 0  3.15 -1 0  3.199999999999999 -1 0  3.25 -1 0  3.300000000000001 -1 0  3.35 -1 0  3.4 -1 0  3.449999999999999 -1 0  3.5 -1 0  3.550000000000001 -1 0  3.6 -1 0  3.65 -1 0  3.699999999999999 -1 0  3.75 -1 0  3.800000000000001 -1 0  3.85 -1 0  3.9 -1 0  3.949999999999999 -1 0  4 -1 0  4.050000000000001 -1 0  4.1 -1 0  4.15 -1 0  4.199999999999999 -1 0  4.25 -1 0  4.300000000000001 -1 0  4.35 -1 0  4.4 -1 0  4.449999999999999 -1 0  4.5 -1 0  4.550000000000001 -1 0  4.6 -1 0  4.65 -1 0  4.699999999999999 -1 0  4.75 -1 0  4.800000000000001 -1 0  4.85 -1 0  4.9 -1 0  4.949999999999999 -1 0  5 -1 0  -5 -0.95 0  -4.95 -0.95 0  -4.9 -0.95 0  -4.85 -0.95 0  -4.8 -0.95 0  -4.75 -0.95 0  -4.7 -0.95 0  -4.65 -0.95 0  -4.6 -0.95 0  -4.55 -0.95 0  -4.5 -0.95 0  -4.45 -0.95 0  -4.4 -0.95 0  -4.35 -0.95 0  -4.3 -0.95 0  -4.25 -0.95 0  -4.2 -0.95 0  -4.15 -0.95 0  -4.1 -0.95 0  -4.05 -0.95 0  -4 -0.95 0  -3.95 -0.95 0  -3.9 -0.95 0  -3.85 -0.95 0  -3.8 -0.95 0  -3.75 -0.95 0  -3.7 -0.95 0  -3.65 -0.95 0  -3.6 -0.95 0  -3.55 -0.95 0  -3.5 -0.95 0  -3.45 -0.95 0  -3.4 -0.95 0  -3.35 -0.95 0  -3.3 -0.95 0  -3.25 -0.95 0  -3.2 -0.95 0  -3.15 -0.95 0  -3.1 -0.95 0  -3.05 -0.95 0  -3 -0.95 0  -2.95 -0.95 0  -2.9 -0.95 0  -2.85 -0.95 0  -2.8 -0.95 0  -2.75 -0.95 0  -2.7 -0.95 0  -2.65 -0.95 0  -2.6 -0.95 0  -2.55 -0.95 0  -2.5 -0.95 0  -2.45 -0.95 0  -2.4 -0.95 0  -2.35 -0.95 0  -2.3 -0.95 0  -2.25 -0.95 0  -2.2 -0.95 0  -2.15 -0.95 0  -2.1 -0.95 0  -2.05 -0.95 0  -2 -0.95 0  -1.95 -0.95 0  -1.9 -0.95 0  -1.85 -0.95 0  -1.8 -0.95 0  -1.75 -0.95 0  -1.7 -0.95 0  -1.65 -0.95 0  -1.6 -0.95 0  -1.55 -0.95 0  -1.5 -0.95 0  -1.45 -0.95 0  -1.4 -0.95 0  -1.35 -0.95 0  -1.3 -0.95 0  -1.25 -0.95 0  -1.2 -0.95 0  -1.15 -0.95 0  -1.1 -0.95 0  -1.05 -0.95 0  -1 -0.95 0  -0.9500000000000002 -0.95 0  -0.9000000000000004 -0.95 0  -0.8499999999999996 -0.95 0  -0.7999999999999998 -0.95 0  -0.75 -0.95 0  -0.7000000000000002 -0.95 0  -0.6500000000000004 -0.95 0  -0.5999999999999996 -0.95 0  -0.5499999999999998 -0.95 0  -0.5 -0.95 0  -0.4500000000000002 -0.95 0  -0.4000000000000004 -0.95 0  -0.3499999999999996 -0.95 0  -0.2999999999999998 -0.95 0  -0.25 -0.95 0  -0.2000000000000002 -0.95 0  -0.1500000000000004 -0.95 0  -0.09999999999999964 -0.95 0  -0.04999999999999982 -0.95 0  0 -0.95 0  0.04999999999999982 -0.95 0  0.09999999999999964 -0.95 0  0.1500000000000004 -0.95 0  0.2000000000000002 -0.95 0  0.25 -0.95 0  0.2999999999999998 -0.95 0  0.3499999999999996 -0.95 0  0.4000000000000004 -0.95 0  0.4500000000000002 -0.95 0  0.5 -0.95 0  0.5499999999999998 -0.95 0  0.5999999999999996 -0.95 0  0.6500000000000004 -0.95 0  0.7000000000000002 -0.95 0  0.75 -0.95 0  0.7999999999999998 -0.95 0  0.8499999999999996 -0.95 0  0.9000000000000004 -0.95 0  0.9500000000000002 -0.95 0  1 -0.95 0  1.05 -0.95 0  1.1 -0.95 0  1.15 -0.95 0  1.2 -0.95 0  1.25 -0.95 0  1.3 -0.95 0  1.35 -0.95 0  1.4 -0.95 0  1.45 -0.95 0  1.5 -0.95 0  1.55 -0.95 0  1.6 -0.95 0  1.65 -0.95 0  1.7 -0.95 0  1.75 -0.95 0  1.8 -0.95 0  1.85 -0.95 0  1.9 -0.95 0  1.95 -0.95 0  2 -0.95 0  2.05 -0.95 0  2.1 -0.95 0  2.15 -0.95 0  2.2 -0.95 0  2.25 -0.95 0  2.3 -0.95 0  2.35 -0.95 0  2.4 -0.95 0  2.45 -0.95 0  2.5 -0.95 0  2.55 -0.95 0  2.6 -0.95 0  2.65 -0.95 0  2.7 -0.95 0  2.75 -0.95 0  2.8 -0.95 0  2.85 -0.95 0  2.9 -0.95 0  2.95 -0.95 0  3 -0.95 0  3.050000000000001 -0.95 0  3.1 -0.95 0  3.15 -0.95 0  3.199999999999999 -0.95 0  3.25 -0.95 0  3.300000000000001 -0.95 0  3.35 -0.95 0  3.4 -0.95 0  3.449999999999999 -0.95 0  3.5 -0.95 0  3.550000000000001 -0.95 0  3.6 -0.95 0  3.65 -0.95 0  3.699999999999999 -0.95 0  3.75 -0.95 0  3.800000000000001 -0.95 0  3.85 -0.95 0  3.9 -0.95 0  3.949999999999999 -0.95 0  4 -0.95 0  4.050000000000001 -0.95 0  4.1 -0.95 0  4.15 -0.95 0  4.199999999999999 -0.95 0  4.25 -0.95 0  4.300000000000001 -0.95 0  4.35 -0.95 0  4.4 -0.95 0  4.449999999999999 -0.95 0  4.5 -0.95 0  4.550000000000001 -0.95 0  4.6 -0.95 0  4.65 -0.95 0  4.699999999999999 -0.95 0  4.75 -0.95 0  4.800000000000001 -0.95 0  4.85 -0.95 0  4.9 -0.95 0  4.949999999999999 -0.95 0  5 -0.95 0  -5 -0.9 0  -4.95 -0.9 0  -4.9 -0.9 0  -4.85 -0.9 0  -4.8 -0.9 0  -4.75 -0.9 0  -4.7 -0.9 0  -4.65 -0.9 0  -4.6 -0.9 0  -4.55 -0.9 0  -4.5 -0.9 0  -4.45 -0.9 0  -4.4 -0.9 0  -4.35 -0.9 0  -4.3 -0.9 0  -4.25 -0.9 0  -4.2 -0.9 0  -4.15 -0.9 0  -4.1 -0.9 0  -4.05 -0.9 0  -4 -0.9 0  -3.95 -0.9 0  -3.9 -0.9 0  -3.85 -0.9 0  -3.8 -0.9 0  -3.75 -0.9 0  -3.7 -0.9 0  -3.65 -0.9 0  -3.6 -0.9 0  -3.55 -0.9 0  -3.5 -0.9 0  -3.45 -0.9 0  -3.4 -0.9 0  -3.35 -0.9 0  -3.3 -0.9 0  -3.25 -0.9 0  -3.2 -0.9 0  -3.15 -0.9 0  -3.1 -0.9 0  -3.05 -0.9 0  -3 -0.9 0  -2.95 -0.9 0  -2.9 -0.9 0  -2.85 -0.9 0  -2.8 -0.9 0  -2.75 -0.9 0  -2.7 -0.9 0  -2.65 -0.9 0  -2.6 -0.9 0  -2.55 -0.9 0  -2.5 -0.9 0  -2.45 -0.9 0  -2.4 -0.9 0  -2.35 -0.9 0  -2.3 -0.9 0  -2.25 -0.9 0  -2.2 -0.9 0  -2.15 -0.9 0  -2.1 -0.9 0  -2.05 -0.9 0  -2 -0.9 0  -1.95 -0.9 0  -1.9 -0.9 0  -1.85 -0.9 0  -1.8 -0.9 0  -1.75 -0.9 0  -1.7 -0.9 0  -1.65 -0.9 0  -1.6 -0.9 0  -1.55 -0.9 0  -1.5 -0.9 0  -1.45 -0.9 0  -1.4 -0.9 0  -1.35 -0.9 0  -1.3 -0.9 0  -1.25 -0.9 0  -1.2 -0.9 0  -1.15 -0.9 0  -1.1 -0.9 0  -1.05 -0.9 0  -1 -0.9 0  -0.9500000000000002 -0.9 0  -0.9000000000000004 -0.9 0  -0.8499999999999996 -0.9 0  -0.7999999999999998 -0.9 0  -0.75 -0.9 0  -0.7000000000000002 -0.9 0  -0.6500000000000004 -0.9 0  -0.5999999999999996 -0.9 0  -0.5499999999999998 -0.9 0  -0.5 -0.9 0  -0.4500000000000002 -0.9 0  -0.4000000000000004 -0.9 0  -0.3499999999999996 -0.9 0  -0.2999999999999998 -0.9 0  -0.25 -0.9 0  -0.2000000000000002 -0.9 0  -0.1500000000000004 -0.9 0  -0.09999999999999964 -0.9 0  -0.04999999999999982 -0.9 0  0 -0.9 0  0.04999999999999982 -0.9 0  0.09999999999999964 -0.9 0  0.1500000000000004 -0.9 0  0.2000000000000002 -0.9 0  0.25 -0.9 0  0.2999999999999998 -0.9 0  0.3499999999999996 -0.9 0  0.4000000000000004 -0.9 0  0.4500000000000002 -0.9 0  0.5 -0.9 0  0.5499999999999998 -0.9 0  0.5999999999999996 -0.9 0  0.6500000000000004 -0.9 0  0.7000000000000002 -0.9 0  0.75 -0.9 0  0.7999999999999998 -0.9 0  0.8499999999999996 -0.9 0  0.9000000000000004 -0.9 0  0.9500000000000002 -0.9 0  1 -0.9 0  1.05 -0.9 0  1.1 -0.9 0  1.15 -0.9 0  1.2 -0.9 0  1.25 -0.9 0  1.3 -0.9 0  1.35 -0.9 0  1.4 -0.9 0  1.45 -0.9 0  1.5 -0.9 0  1.55 -0.9 0  1.6 -0.9 0  1.65 -0.9 0  1.7 -0.9 0  1.75 -0.9 0  1.8 -0.9 0  1.85 -0.9 0  1.9 -0.9 0  1.95 -0.9 0  2 -0.9 0  2.05 -0.9 0  2.1 -0.9 0  2.15 -0.9 0  2.2 -0.9 0  2.25 -0.9 0  2.3 -0.9 0  2.35 -0.9 0  2.4 -0.9 0  2.45 -0.9 0  2.5 -0.9 0  2.55 -0.9 0  2.6 -0.9 0  2.65 -0.9 0  2.7 -0.9 0  2.75 -0.9 0  2.8 -0.9 0  2.85 -0.9 0  2.9 -0.9 0  2.95 -0.9 0  3 -0.9 0  3.050000000000001 -0.9 0  3.1 -0.9 0  3.15 -0.9 0  3.199999999999999 -0.9 0  3.25 -0.9 0  3.300000000000001 -0.9 0  3.35 -0.9 0  3.4 -0.9 0  3.449999999999999 -0.9 0  3.5 -0.9 0  3.550000000000001 -0.9 0  3.6 -0.9 0  3.65 -0.9 0  3.699999999999999 -0.9 0  3.75 -0.9 0  3.800000000000001 -0.9 0  3.85 -0.9 0  3.9 -0.9 0  3.949999999999999 -0.9 0  4 -0.9 0  4.050000000000001 -0.9 0  4.1 -0.9 0  4.15 -0.9 0  4.199999999999999 -0.9 0  4.25 -0.9 0  4.300000000000001 -0.9 0  4.35 -0.9 0  4.4 -0.9 0  4.449999999999999 -0.9 0  4.5 -0.9 0  4.550000000000001 -0.9 0  4.6 -0.9 0  4.65 -0.9 0  4.699999999999999 -0.9 0  4.75 -0.9 0  4.800000000000001 -0.9 0  4.85 -0.9 0  4.9 -0.9 0  4.949999999999999 -0.9 0  5 -0.9 0  -5 -0.85 0  -4.95 -0.85 0  -4.9 -0.85 0  -4.85 -0.85 0  -4.8 -0.85 0  -4.75 -0.85 0  -4.7 -0.85 0  -4.65 -0.85 0  -4.6 -0.85 0  -4.55 -0.85 0  -4.5 -0.85 0  -
[...]
<PointData  Vectors="f_15"> 
<DataArray  type="Float64"  Name="f_15"  NumberOfComponents="3" format="ascii">2.8104361667390441e+00 0.0000000000000000e+00 0.0000000000000000e+00  2.8098934459741027e+00 3.7621591802319464e-02 0.0000000000000000e+00  2.8082350683053341e+00 7.5173546730303881e-02 0.0000000000000000e+00  2.8054951156358672e+00 1.1253660533955939e-01 0.0000000000000000e+00  2.8016697697125124e+00 1.4966162161235499e-01 0.0000000000000000e+00  2.7967946192092903e+00 1.8646056494897850e-01 0.0000000000000000e+00  2.7908731789858141e+00 2.2288319565044401e-01 0.0000000000000000e+00  2.7839703963079656e+00 2.5887486797218379e-01 0.0000000000000000e+00  2.7760856255975286e+00 2.9440660500935367e-01 0.0000000000000000e+00  2.7672996137453394e+00 3.2945466316805538e-01 0.0000000000000000e+00  2.7576333025368336e+00 3.6400986600994928e-01 0.0000000000000000e+00  2.7471663367363748e+00 3.9809240176892552e-01 0.0000000000000000e+00  2.7359299175674332e+00 4.3170299555383285e-01 0.0000000000000000e+00  2.7240233358006916e+00 4.6489502465223836e-01 0.0000000000000000e+00  2.7114671349503019e+00 4.9769055865494910e-01 0.0000000000000000e+00  2.6983689425501600e+00 5.3015340409473588e-01 0.0000000000000000e+00  2.6847577445798292e+00 5.6231280545869400e-01 0.0000000000000000e+00  2.6707232716672098e+00 5.9425688112807029e-01 0.0000000000000000e+00  2.6562974649719946e+00 6.2598817684519747e-01 0.0000000000000000e+00  2.6415691411598163e+00 6.5761159479047770e-01 0.0000000000000000e+00  2.6265467007594316e+00 6.8912108638201508e-01 0.0000000000000000e+00  2.6113195107467693e+00 7.2060206202751242e-01 0.0000000000000000e+00  2.5958902581829695e+00 7.5203837824480102e-01 0.0000000000000000e+00  2.5803218861836479e+00 7.8352874398210881e-01 0.0000000000000000e+00  2.5646221446040061e+00 8.1499982673474258e-01 0.0000000000000000e+00  2.5488436686535536e+00 8.4657796805063290e-01 0.0000000000000000e+00  2.5329731483007327e+00 8.7817011492065555e-01 0.0000000000000000e+00  2.5170693312688317e+00 9.0987828526258974e-01 0.0000000000000000e+00  2.5011130677837841e+00 9.4160901194559199e-01 0.0000000000000000e+00  2.4851403954364319e+00 9.7348741868104227e-01 0.0000000000000000e+00  2.4691484340138348e+00 1.0053538076697908e+00 0.0000000000000000e+00  2.4531621958576735e+00 1.0373827152496817e+00 0.0000000000000000e+00  2.4371649413688128e+00 1.0694008995696893e+00 0.0000000000000000e+00  2.4211948225694395e+00 1.1015545797140442e+00 0.0000000000000000e+00  2.4052311648699782e+00 1.1336852303836948e+00 0.0000000000000000e+00  2.3892939014932106e+00 1.1659729418776570e+00 0.0000000000000000e+00  2.3733824130000132e+00 1.1981819648236114e+00 0.0000000000000000e+00  2.3575087548666800e+00 1.2305498665752059e+00 0.0000000000000000e+00  2.3416594974072247e+00 1.2628610097721744e+00 0.0000000000000000e+00  2.3258628142242177e+00 1.2952513288641501e+00 0.0000000000000000e+00  2.3101013172847749e+00 1.3276291828062288e+00 0.0000000000000000e+00  2.2943906191194134e+00 1.3600490891514783e+00 0.0000000000000000e+00  2.2787260568328418e+00 1.3924504548212997e+00 0.0000000000000000e+00  2.2631257244173346e+00 1.4248491394482128e+00 0.0000000000000000e+00  2.2475660964465716e+00 1.4572879632050069e+00 0.0000000000000000e+00  2.2320852241957145e+00 1.4896322571214131e+00 0.0000000000000000e+00  2.2166532747122067e+00 1.5220239485319802e+00 0.0000000000000000e+00  2.2013013427429571e+00 1.5543604179621568e+00 0.0000000000000000e+00  2.1860079121393103e+00 1.5866557049449403e+00 0.0000000000000000e+00  2.1708059006363589e+00 1.6188781101184266e+00 0.0000000000000000e+00  2.1556666344674396e+00 1.6511445757482814e+00 0.0000000000000000e+00  2.1406245568899842e+00 1.6831834575349074e+00 0.0000000000000000e+00  2.1256653970914989e+00 1.7153076368371167e+00 0.0000000000000000e+00  2.1108044107674200e+00 1.7472136338073185e+00 0.0000000000000000e+00  2.0960383523040673e+00 1.7791157507119795e+00 0.0000000000000000e+00  2.0813937765812733e+00 1.8107771263451469e+00 0.0000000000000000e+00  2.0668516157856507e+00 1.8424483724324465e+00 0.0000000000000000e+00  2.0524448892441534e+00 1.8737810640285550e+00 0.0000000000000000e+00  2.0381786447937467e+00 1.9050765221667689e+00 0.0000000000000000e+00  2.0240579840896138e+00 1.9360332368969275e+00 0.0000000000000000e+00  2.0101099678311436e+00 1.9667977620717954e+00 0.0000000000000000e+00  1.9963541440770143e+00 1.9971848981375182e+00 0.0000000000000000e+00  1.9828089754822398e+00 2.0272848173777249e+00 0.0000000000000000e+00  1.9695077158343026e+00 2.0568441923105905e+00 0.0000000000000000e+00  1.9564980283171722e+00 2.0859469328688882e+00 0.0000000000000000e+00  1.9438156522606664e+00 2.1143446831429853e+00 0.0000000000000000e+00  1.9315357228627623e+00 2.1419658943108040e+00 0.0000000000000000e+00  1.9197229590676779e+00 2.1686043598829681e+00 0.0000000000000000e+00  1.9084980718195506e+00 2.1940002922506956e+00 0.0000000000000000e+00  1.8979611711356674e+00 2.2178986517032002e+00 0.0000000000000000e+00  1.8882712229973588e+00 2.2399415290335405e+00 0.0000000000000000e+00  1.8796059217240884e+00 2.2597068690176778e+00 0.0000000000000000e+00  1.8721195780574038e+00 2.2767973946863975e+00 0.0000000000000000e+00  1.8659447545410801e+00 2.2909408260798720e+00 0.0000000000000000e+00  1.8611806694859445e+00 2.3018393022015351e+00 0.0000000000000000e+00  1.8577367660325907e+00 2.3097577993559884e+00 0.0000000000000000e+00  1.8554272999650110e+00 2.3150224164637159e+00 0.0000000000000000e+00  1.8540105748467086e+00 2.3183099644327960e+00 0.0000000000000000e+00  1.8531226433596120e+00 2.3202973873978561e+00 0.0000000000000000e+00  1.8525540482111951e+00 2.3216534353670295e+00 0.0000000000000000e+00  1.8521437997467700e+00 2.3225257572670888e+00 0.0000000000000000e+00  1.8518112143817607e+00 2.3233601240110717e+00 0.0000000000000000e+00  1.8514897992516111e+00 2.3240008605806364e+00 0.0000000000000000e+00  1.8512337065777991e+00 2.3246755633792491e+00 0.0000000000000000e+00  1.8509532802917137e+00 2.3252172115406378e+00 0.0000000000000000e+00  1.8507212550451886e+00 2.3258374788025060e+00 0.0000000000000000e+00  1.8504833814897486e+00 2.3262755442929786e+00 0.0000000000000000e+00  1.8502949550194487e+00 2.3268036688124965e+00 0.0000000000000000e+00  1.8500801073881545e+00 2.3271794176344973e+00 0.0000000000000000e+00  1.8499253667202524e+00 2.3276277761200266e+00 0.0000000000000000e+00  1.8497425013967899e+00 2.3279403612447780e+00 0.0000000000000000e+00  1.8496064684820139e+00 2.3283337243066842e+00 0.0000000000000000e+00  1.8494525086939320e+00 2.3285783389593675e+00 0.0000000000000000e+00  1.8493549924053003e+00 2.3288904040512546e+00 0.0000000000000000e+00  1.8492210983705528e+00 2.3290859579683922e+00 0.0000000000000000e+00  1.8491385658553192e+00 2.3293562724100507e+00 0.0000000000000000e+00  1.8490363695735104e+00 2.3294939000468573e+00 0.0000000000000000e+00  1.8489660470512372e+00 2.3297253455255604e+00 0.0000000000000000e+00  1.8488750756878158e+00 2.3298328985311105e+00 0.0000000000000000e+00  1.8488342790952352e+00 2.3300089432433206e+00 0.0000000000000000e+00  1.8487514689186570e+00 2.3300938694100535e+00 0.0000000000000000e+00  1.8487140373394799e+00 2.3302531683489160e+00 0.0000000000000000e+00  1.8486576440381524e+00 2.3302889946699383e+00 0.0000000000000000e+00  1.8486224724902063e+00 2.3304381248513653e+00 0.0000000000000000e+00  1.8485628460035066e+00 2.3304714041802583e+00 0.0000000000000000e+00  1.8485557545819531e+00 2.3305715470746913e+00 0.0000000000000000e+00  1.8484977783415344e+00 2.3305960703332786e+00 0.0000000000000000e+00  1.8484856963481180e+00 2.3306971992128029e+00 0.0000000000000000e+00  1.8484444483094320e+00 2.3306926604081903e+00 0.0000000000000000e+00  1.8484335790651141e+00 2.3307892491960991e+00 0.0000000000000000e+00  1.8483909716546227e+00 2.3307798026430571e+00 0.0000000000000000e+00  1.8484003246608673e+00 2.3308396486981628e+00 0.0000000000000000e+00  1.8483487796738387e+00 2.3308503251540693e+00 0.0000000000000000e+00  1.8483536120240609e+00 2.3309067812255950e+00 0.0000000000000000e+00  1.8483206122754419e+00 2.3308833524893813e+00 0.0000000000000000e+00  1.8483267091209201e+00 2.3309372174086258e+00 0.0000000000000000e+00  1.8482882464557502e+00 2.3309244849565522e+00 0.0000000000000000e+00  1.8482934977383461e+00 2.3309781889536278e+00 0.0000000000000000e+00  1.8482666379681745e+00 2.3309440333961819e+00 0.0000000000000000e+00  1.8482717457056947e+00 2.3309887715721209e+00 0.0000000000000000e+00  1.8482419969368113e+00 2.3309577694189891e+00 0.0000000000000000e+00  1.8482472667426562e+00 2.3310113544562321e+00 0.0000000000000000e+00  1.8482234788452776e+00 2.3309634775390808e+00 0.0000000000000000e+00  1.8482274664074465e+00 2.3310159367053203e+00 0.0000000000000000e+00  1.8482035387154168e+00 2.3309732248112081e+00 0.0000000000000000e+00  1.8482161758309397e+00 2.3310004295094395e+00 0.0000000000000000e+00  1.8481711966299637e+00 2.3309921123658808e+00 0.0000000000000000e+00  1.8482092694951437e+00 2.3309695980034251e+00 0.0000000000000000e+00  1.8481627823389830e+00 2.3309740012405888e+00 0.0000000000000000e+00  1.8481769315480292e+00 2.3309913699618385e+00 0.0000000000000000e+00  1.8481484572743894e+00 2.3309680671604696e+00 0.0000000000000000e+00  1.8481810606536155e+00 2.3309368343270891e+00 0.0000000000000000e+00  1.8481151932793363e+00 2.3309875754449463e+00 0.0000000000000000e+00  1.8481633134197006e+00 2.3309034972090590e+00 0.0000000000000000e+00  1.8481204497023849e+00 2.3309207198421471e+00 0.0000000000000000e+00  1.8481338620437178e+00 2.3308879012871686e+00 0.0000000000000000e+00  1.8481063644804214e+00 2.3308982757960317e+00 0.0000000000000000e+00  1.8481273714451749e+00 2.3308382463245323e+00 0.0000000000000000e+00  1.8480907248804022e+00 2.3308781796138609e+00 0.0000000000000000e+00  1.8481059910518025e+00 2.3308066372065110e+00 0.0000000000000000e+00  1.8480887876041914e+00 2.3307975894759556e+00 0.0000000000000000e+00  1.8480818781726964e+00 2.3307218807289600e+00 0.0000000000000000e+00  1.8480823303859151e+00 2.3306462032025159e+00 0.0000000000000000e+00  1.8480643155882817e+00 2.3305473084965138e+00 0.0000000000000000e+00  1.8480682481742037e+00 2.3304114891896091e+00 0.0000000000000000e+00  1.8480535511424312e+00 2.3302542689651680e+00 0.0000000000000000e+00  1.8480533097745373e+00 2.3300802557429696e+00 0.0000000000000000e+00  1.8480344394014454e+00 2.3298620275630562e+00 0.0000000000000000e+00  1.8480477972286871e+00 2.3295907265383384e+00 0.0000000000000000e+00  1.8480150718923383e+00 2.3293570187891732e+00 0.0000000000000000e+00  1.8480309593291424e+00 2.3290106087165303e+00 0.0000000000000000e+00  1.8480059491719274e+00 2.3287266533408952e+00 0.0000000000000000e+00  1.8480133474371072e+00 2.3283931349288380e+00 0.0000000000000000e+00  1.8479904348796807e+00 2.3281091708887263e+00 0.0000000000000000e+00  1.8479962074117424e+00 2.3278015451285792e+00 0.0000000000000000e+00  1.8479793918837266e+00 2.3275687248908601e+00 0.0000000000000000e+00  1.8479778342544737e+00 2.3273288912348207e+00 0.0000000000000000e+00  1.8479570250826514e+00 2.3271590290310709e+00 0.0000000000000000e+00  1.8479690929640200e+00 2.3269633797761493e+00 0.0000000000000000e+00  1.8479383697297438e+00 2.3268760491058260e+00 0.0000000000000000e+00  1.8479410677270722e+00 2.3267297089323935e+00 0.0000000000000000e+00  1.8479301609854495e+00 2.3266674267860226e+00 0.0000000000000000e+00  1.8479228063767796e+00 2.3265725623262155e+00 0.0000000000000000e+00  1.8479005468657530e+00 2.3265508644870332e+00 0.0000000000000000e+00  1.8479103413039635e+00 2.3264568291885159e+00 0.0000000000000000e+00  1.8478898209419654e+00 2.3264616677602619e+00 0.0000000000000000e+00  1.8478787079890748e+00 2.3263930473972758e+00 0.0000000000000000e+00  1.8478786037218879e+00 2.3264040265030861e+00 0.0000000000000000e+00  1.8478697783974911e+00 2.3263137185351828e+00 0.0000000000000000e+00  1.8478538986051436e+00 2.3263654490914711e+00 0.0000000000000000e+00  1.8478467232061830e+00 2.3262650378985557e+00 0.0000000000000000e+00  1.8478626643609801e+00 2.3262943766914903e+00 0.0000000000000000e+00  1.8478120349361904e+00 2.3262197550549848e+00 0.0000000000000000e+00  1.8478561168992800e+00 2.3262848271974428e+00 0.0000000000000000e+00  1.8478087485669497e+00 2.3261164368360516e+00 0.0000000000000000e+00  1.8478459195821744e+00 2.3262950051730442e+00 0.0000000000000000e+00  1.8477652249798602e+00 2.3260379154047994e+00 0.0000000000000000e+00  1.8478856712530354e+00 2.3262707445655306e+00 0.0000000000000000e+00  1.8476853995307638e+00 2.3259143572916701e+00 0.0000000000000000e+00  1.8479079488102679e+00 2.3263251939737577e+00 0.0000000000000000e+00  1.8476278498128109e+00 2.3256766737052619e+00 0.0000000000000000e+00  1.8479265991482747e+00 2.3264483429955272e+00 0.0000000000000000e+00  1.8474980419375409e+00 2.3253383744280018e+00 0.0000000000000000e+00  1.8480690874249364e+00 2.3267374752809094e+00 0.0000000000000000e+00  1.8472309406729985e+00 2.3247514460152576e+00 0.0000000000000000e+00  1.8482778909490500e+00 2.3272264455914256e+00 0.0000000000000000e+00  1.8470027383027607e+00 2.3242037414450047e+00 0.0000000000000000e+00  1.8483644504745520e+00 2.3274925795713775e+00 0.0000000000000000e+00  1.8468358216485554e+00 2.3237853739488488e+00 0.0000000000000000e+00  1.8485789588926014e+00 2.3282160173045527e+00 0.0000000000000000e+00  1.8463273273787266e+00 2.3223164734391974e+00 0.0000000000000000e+00  1.8490904012502751e+00 2.3298119075050829e+00 0.0000000000000000e+00  1.8457917884878199e+00 2.3210375327342900e+00 0.0000000000000000e+00  1.8485242873229570e+00 2.3281036857552992e+00 0.0000000000000000e+00  1.8466346544974102e+00 2.3238637207100692e+00 0.0000000000000000e+00  1.8443064143311823e+00 2.3180894880740572e+00 0.0000000000000000e+00  1.8469123590464651e+00 2.3241784035606075e+00 0.0000000000000000e+00  1.8235271397116184e+00 2.3002214735786826e+00 0.0000000000000000e+00  1.8737910611902029e+00 2.1382655782917830e+00 0.0000000000000000e+00  2.1832193353459535e+00 1.1555355724000138e+00 0.0000000000000000e+00  2.4571643832194776e+00 0.0000000000000000e+00 0.0000000000000000e+00  2.8104411317487146e+00 0.0000000000000000e+00 -1.1859076745899026e-06  2.8098894827241834e+00 3.7629655179037151e-02 7.7104875144798655e-07  2.8082344067112750e+00 7.5168211819539033e-02 -4.1407395723645723e-06  2.8054929612443864e+00 1.1253958418169226e-01 2.3490222288925966e-06  2.8016692389147013e+00 1.4966099109748715e-01 -1.6968077082113633e-06  2.7967863938958475e+00 1.8646288480822368e-01 1.2508823317199542e-06  2.7908765961034798e+00 2.2288335634998721e-01 -6.9611027492471941e-07  2.7839611047242987e+00 2.5887847330343300e-01 9.7126294805958282e-07  2.7760850512959205e+00 2.9440876745026107e-01 -1.7174765974366443e-07  2.7672942904085129e+00 3.2945544085265271e-01 1.8924939401008078e-07  2.7576323879678433e+00 3.6401626243567975e-01 9.6247911625925492e-07  2.7471575770439620e+00 3.9809139473618343e-01 -9.1180686714640035e-07  2.7359342937646423e+00 4.3170828778016501e-01 1.5222145053989214e-06  2.7240137457614075e+00 4.6489641859475539e-01 -1.1610832923294051e-06  2.7114695065940846e+00 4.9769527665444879e-01 1.4350375023907436e-06  2.6983651396140647e+00 5.3015071580382367e-01 -1.4900912777222092e-06  2.6847588655133974e+00 5.6232378638575697e-01 1.8608683875883949e-06  2.6707185196814582e+00 5.9424936962888053e-01 -2.0838899239251260e-06  2.6563044138620131e+00 6.2599803783623209e-01 1.9488700440271532e-06  2.6415623034005966e+00 6.5760878691864566e-01 -1.6462243664893829e-06  2.6265531673301132e+00 6.8912762418413320e-01 1.1202135859284675e-06  2.6113182952587866e+00 7.2059493767097149e-01 -7.7144101019741621e-07  2.5958928563037165e+00 7.5205488768995521e-01 7.2803212010385736e-07  2.5803209364841564e+00 7.8351250384882043e-01 -5.4794547359271826e-07  2.5646290249811599e+00 8.1501610497737043e-01 6.7477566086558148e-07  2.5488378634547812e+00 8.4656939967459999e-01 9.0276877755814062e-08  2.5329797923339670e+00 8.7817937230018517e-01 -1.0178616022662249e-07  2.5170678002373199e+00 9.0986499732725812e-01 9.9313369272459762e-07  2.5011127282810475e+00 9.4163247648527926e-01 -3.3355563768456735e-07  2.4851396951930278e+00 9.7346014179083518e-01 8.1663652923600434e-07  2.4691511054963713e+00 1.0053771073070719e+00 1.5273013858308122e-07  2.4531546656078511e+00 1.0373664492984580e+00 6.4956249479992997e-07  2.4371678357864957e+00 1.0694134451511284e+00 -2.6084976543240207e-07  2.4211911300101003e+00 1.1015314056014516e+00 1.8352055068478475e-06  2.4052265676150593e+00 1.1337166682727873e+00 -2.2553332129379586e-06  2.3892909769167350e+00 1.1659311217277322e+00 4.4699776231573713e-06  2.3733818962122593e+00 1.1982077896795233e+00 -6.3418982675034831e-06  2.3574985727902185e+00 1.2305318964024026e+00 1.1806800293403197e-05  2.3416605650323321e+00 1.2628528069053253e+00 -1.9982256648999365e-05  2.3258554477044777e+00 1.2952492356212228e+00 3.2846887249529933e-05  2.3100984741917316e+00 1.3276133671898263e+00 -4.6543786596245236e-05  2.2943813587198409e+00 1.3600522613899695e+00 5.9187507270773531e-05  2.2787297051232840e+00 1.3923992907379497e+00 -6.6399229616487010e-05  2.2631099551698117e+00 1.4248992274122840e+00 6.7272586814880639e-05  2.2475702383576781e+00 1.4571963546755973e+00 -6.0510008566458674e-05  2.2320737116371920e+00 1.4896689498638285e+00 4.7907121392519532e-05  2.2166520085889583e+00 1.5219834729242676e+00 -3.1698926843134888e-05  2.2012905360402142e+00 1.5543423197991979e+00 1.6767086741489395e-05  2.1860077153039281e+00 1.5866146435881903e+00 -7.1097187331126359e-06  2.1707936461155484e+00 1.6189072403813840e+00 4.7326615726192255e-06  2.1556617827764524e+00 1.6510564347695633e+00 -6.3952779549181573e-06  2.1406173748357586e+00 1.6832080429532843e+00 6.8972010097109236e-06  2.1256563764272203e+00 1.7152616213591474e+00 -3.5808969973385115e-06  2.1107937162614085e+00 1.7472068949791326e+00 -1.8156503528924120e-06  2.0960350024027004e+00 1.7790585840035160e+00 5.1177095181021184e-06  2.0813806924580112e+00 1.8107990457768754e+00 -5.6767080833735686e-06  2.0668430780596747e+00 1.8423745356366696e+00 3.4421028997303204e-06  2.0524412533737237e+00 1.8737886951768101e+00 -1.0095864268520172e-06  2.0381657699132831e+00 1.9050358065064610e+00 -4.1395180518312414e-07  2.0240496970873791e+00 1.9360128443912858e+00 -1.0006521240319103e-06  2.0101040059451396e+00 1.9667637408784937e+00 2.4075340383737163e-06  1.9963429562379211e+00 1.9971928420134248e+00 -1.4429936228631276e-06  1.9827971548081187e+00 2.0272358568826889e+00 -2.1647333978296354e-06  1.9695011559959936e+00 2.0568469636394875e+00 3.5143747006432867e-06  1.9564852721827555e+00 2.0859300477756366e+00 -3.4855869020370592e-06  1.9438035409452161e+00 2.1143404087392828e+00 3.4333611749111724e-06  1.9315181258360308e+00 2.1419744399527860e+00 -5.6171510994509908e-06  1.9197094923466846e+00 2.1686072082552279e+00 5.9884063807512496e-06  1.9084763997664551e+00 2.1940149133505011e+00 -7.6483305417768891e-06  1.8979357513671640e+00 2.2179385008712487e+00 7.3588598190417985e-06  1.8882581418616082e+00 2.2399502986387296e+00 -7.1316612858175620e-06  1.8795852926738992e+00 2.2597262621737344e+00 6.6604515281876199e-06  1.8720930444547885e+00 2.2768466539508050e+00 -4.0398037313097802e-06  1.8659433351331178e+00 2.2909314633234814e+00 1.0491201851927928e-05  1.8611769847503032e+00 2.3018538128521944e+00 -3.5684618348557951e-06  1.8577339643002850e+00 2.3097541818684451e+00 1.1150703856613901e-05  1.8554647974391072e+00 2.3149630071088851e+00 -6.4848389933439204e-06  1.8540273541234216e+00 2.3182585482962743e+00 6.7999429990847894e-06  1.8531394729816202e+00 2.3202922902573642e+00 -1.2454379718843367e-05  1.8525719852840181e+00 2.3215868382502975e+00 7.2056238758686056e-06  1.8521487303371265e+00 2.3225518518903607e+00 -1.5158130310114166e-05  1.8517874795071594e+00 2.3233676058580932e+00 1.2640441440385888e-05  1.8514953758555484e+00 2.3240313139697313