<?xml version="1.0"?>
<VTKFile type="UnstructuredGrid"  version="0.1"  >
<UnstructuredGrid>
<Piece  NumberOfPoints="8241" NumberOfCells="16000">
<Points>
<DataArray  type="Float64"  NumberOfComponents="3"  format="ascii">-5 -1 0  -4.95 -1 0  -4.9 -1 0  -4.85 -1 0  -4.8 -1 0  -4.75 -1 0  -4.7 -1 0  -4.65 -1 0  -4.6 -1 0  -4.55 -1 0  -4.5 -1 0  -4.45 -1 0  -4.4 -1 0  -4.35 -1 0  -4.3 -1 0  -4.25 -1 0  -4.2 -1 0  -4.15 -1 0  -4.1 -1 0  -4.05 -1 0  -4 -1 0  -3.95 -1 0  -3.9 -1 0  -3.85 -1 0  -3.8 -1 0  -3.75 -1 0  -3.7 -1 0  -3.65 -1 0  -3.6 -1 0  -3.55 -1 0  -3.5 -1 0  -3.45 -1 0  -3.4 -1 0  -3.35 -1 0  -3.3 -1 0  -3.25 -1 0  -3.2 -1 0  -3.15 -1 0  -3.1 -1 0  -3.05 -1 0  -3 -1 0  -2.95 -1 0  -2.9 -1 0  -2.85 -1 0  -2.8 -1 0  -2.75 -1 0  -2.7 -1 0  -2.65 -1 0  -2.6 -1 0  -2.55 -1 0  -2.5 -1 0  -2.45 -1 0  -2.4 -1 0  -2.35 -1 0  -2.3 -1 0  -2.25 -1 0  -2.2 -1 0  -2.15 -1 0  -2.1 -1 0  -2.05 -1 0  -2 -1 0  -1.95 -1 0  -1.9 -1 0  -1.85 -1 0  -1.8 -1 0  -1.75 -1 0  -1.7 -1 0  -1.65 -1 0  -1.6 -1 0  -1.55 -1 0  -1.5 -1 0  -1.45 -1 0  -1.4 -1 0  -1.35 -1 0  -1.3 -1 0  -1.25 -1 0  -1.2 -1 0  -1.15 -1 0  -1.1 -1 0  -1.05 -1 0  -1 -1 0  -0.9500000000000002 -1 0  -0.9000000000000004 -1 0  -0.8499999999999996 -1 0  -0.7999999999999998 -1 0  -0.75 -1 0  -0.7000000000000002 -1 0  -0.6500000000000004 -1 0  -0.5999999999999996 -1 0  -0.5499999999999998 -1 0  -0.5 -1 0  -0.4500000000000002 -1 0  -0.4000000000000004 -1 0  -0.3499999999999996 -1 0  -0.2999999999999998 -1 0  -0.25 -1 0  -0.2000000000000002 -1 0  -0.1500000000000004 -1 0  -0.09999999999999964 -1 0  -0.04999999999999982 -1 0  0 -1 0  0.04999999999999982 -1 0  0.09999999999999964 -1 0  0.1500000000000004 -1 0  0.2000000000000002 -1 0  0.25 -1 0  0.2999999999999998 -1 0  0.3499999999999996 -1 0  0.4000000000000004 -1 0  0.4500000000000002 -1 0  0.5 -1 0  0.5499999999999998 -1 0  0.5999999999999996 -1 0  0.6500000000000004 -1 0  0.7000000000000002 -1 0  0.75 -1 0  0.7999999999999998 -1 0  0.8499999999999996 -1 0  0.9000000000000004 -1 0  0.9500000000000002 -1 0  1 -1 0  1.05 -1 0  1.1 -1 0  1.15 -1 0  1.2 -1 0  1.25 -1 0  1.3 -1 0  1.35 -1 0  1.4 -1 0  1.45 -1 0  1.5 -1 0  1.55 -1 0  1.6 -1 0  1.65 -1 0  1.7 -1 0  1.75 -1 0  1.8 -1 0  1.85 -1 0  1.9 -1 0  1.95 -1 0  2 -1 0  2.05 -1 0  2.1 -1 0  2.15 -1 0  2.2 -1 0  2.25 -1 0  2.3 -1 0  2.35 -1 0  2.4 -1 0  2.45 -1 0  2.5 -1 0  2.55 -1 0  2.6 -1 0  2.65 -1 0  2.7 -1 0  2.75 -1 0  2.8 -1 0  2.85 -1 0  2.9 -1 0  2.95 -1 0  3 -1 0  3.050000000000001 -1 0  3.1 -1 0  3.15 -1 0  3.199999999999999 -1 0  3.25 -1 0  3.300000000000001 -1 0  3.35 -1 0  3.4 -1 0  3.449999999999999 -1 0  3.5 -1 0  3.550000000000001 -1 0  3.6 -1 0  3.65 -1 0  3.699999999999999 -1 0  3.75 -1 0  3.800000000000001 -1 0  3.85 -1 0  3.9 -1 0  3.949999999999999 -1 0  4 -1 0  4.050000000000001 -1 0  4.1 -1 0  4.15 -1 0  4.199999999999999 -1 0  4.25 -1 0  4.300000000000001 -1 0  4.35 -1 0  4.4 -1 0  4.449999999999999 -1 0  4.5 -1 0  4.550000000000001 -1 0  4.6 -1 0  4.65 -1 0  4.699999999999999 -1 0  4.75 -1 0  4.800000000000001 -1 0  4.85 -1 0  4.9 -1 0  4.949999999999999 -1 0  5 -1 0  -5 -0.95 0  -4.95 -0.95 0  -4.9 -0.95 0  -4.85 -0.95 0  -4.8 -0.95 0  -4.75 -0.95 0  -4.7 -0.95 0  -4.65 -0.95 0  -4.6 -0.95 0  -4.55 -0.95 0  -4.5 -0.95 0  -4.45 -0.95 0  -4.4 -0.95 0  -4.35 -0.95 0  -4.3 -0.95 0  -4.25 -0.95 0  -4.2 -0.95 0  -4.15 -0.95 0  -4.1 -0.95 0  -4.05 -0.95 0  -4 -0.95 0  -3.95 -0.95 0  -3.9 -0.95 0  -3.85 -0.95 0  -3.8 -0.95 0  -3.75 -0.95 0  -3.7 -0.95 0  -3.65 -0.95 0  -3.6 -0.95 0  -3.55 -0.95 0  -3.5 -0.95 0  -3.45 -0.95 0  -3.4 -0.95 0  -3.35 -0.95 0  -3.3 -0.95 0  -3.25 -0.95 0  -3.2 -0.95 0  -3.15 -0.95 0  -3.1 -0.95 0  -3.05 -0.95 0  -3 -0.95 0  -2.95 -0.95 0  -2.9 -0.95 0  -2.85 -0.95 0  -2.8 -0.95 0  -2.75 -0.95 0  -2.7 -0.95 0  -2.65 -0.95 0  -2.6 -0.95 0  -2.55 -0.95 0  -2.5 -0.95 0  -2.45 -0.95 0  -2.4 -0.95 0  -2.35 -0.95 0  -2.3 -0.95 0  -2.25 -0.95 0  -2.2 -0.95 0  -2.15 -0.95 0  -2.1 -0.95 0  -2.05 -0.95 0  -2 -0.95 0  -1.95 -0.95 0  -1.9 -0.95 0  -1.85 -0.95 0  -1.8 -0.95 0  -1.75 -0.95 0  -1.7 -0.95 0  -1.65 -0.95 0  -1.6 -0.95 0  -1.55 -0.95 0  -1.5 -0.95 0  -1.45 -0.95 0  -1.4 -0.95 0  -1.35 -0.95 0  -1.3 -0.95 0  -1.25 -0.95 0  -1.2 -0.95 0  -1.15 -0.95 0  -1.1 -0.95 0  -1.05 -0.95 0  -1 -0.95 0  -0.9500000000000002 -0.95 0  -0.9000000000000004 -0.95 0  -0.8499999999999996 -0.95 0  -0.7999999999999998 -0.95 0  -0.75 -0.95 0  -0.7000000000000002 -0.95 0  -0.6500000000000004 -0.95 0  -0.5999999999999996 -0.95 0  -0.5499999999999998 -0.95 0  -0.5 -0.95 0  -0.4500000000000002 -0.95 0  -0.4000000000000004 -0.95 0  -0.3499999999999996 -0.95 0  -0.2999999999999998 -0.95 0  -0.25 -0.95 0  -0.2000000000000002 -0.95 0  -0.1500000000000004 -0.95 0  -0.09999999999999964 -0.95 0  -0.04999999999999982 -0.95 0  0 -0.95 0  0.04999999999999982 -0.95 0  0.09999999999999964 -0.95 0  0.1500000000000004 -0.95 0  0.2000000000000002 -0.95 0  0.25 -0.95 0  0.2999999999999998 -0.95 0  0.3499999999999996 -0.95 0  0.4000000000000004 -0.95 0  0.4500000000000002 -0.95 0  0.5 -0.95 0  0.5499999999999998 -0.95 0  0.5999999999999996 -0.95 0  0.6500000000000004 -0.95 0  0.7000000000000002 -0.95 0  0.75 -0.95 0  0.7999999999999998 -0.95 0  0.8499999999999996 -0.95 0  0.9000000000000004 -0.95 0  0.9500000000000002 -0.95 0  1 -0.95 0  1.05 -0.95 0  1.1 -0.95 0  1.15 -0.95 0  1.2 -0.95 0  1.25 -0.95 0  1.3 -0.95 0  1.35 -0.95 0  1.4 -0.95 0  1.45 -0.95 0  1.5 -0.95 0  1.55 -0.95 0  1.6 -0.95 0  1.65 -0.95 0  1.7 -0.95 0  1.75 -0.95 0  1.8 -0.95 0  1.85 -0.95 0  1.9 -0.95 0  1.95 -0.95 0  2 -0.95 0  2.05 -0.95 0  2.1 -0.95 0  2.15 -0.95 0  2.2 -0.95 0  2.25 -0.95 0  2.3 -0.95 0  2.35 -0.95 0  2.4 -0.95 0  2.45 -0.95 0  2.5 -0.95 0  2.55 -0.95 0  2.6 -0.95 0  2.65 -0.95 0  2.7 -0.95 0  2.75 -0.95 0  2.8 -0.95 0  2.85 -0.95 0  2.9 -0.95 0  2.95 -0.95 0  3 -0.95 0  3.050000000000001 -0.95 0  3.1 -0.95 0  3.15 -0.95 0  3.199999999999999 -0.95 0  3.25 -0.95 0  3.300000000000001 -0.95 0  3.35 -0.95 0  3.4 -0.95 0  3.449999999999999 -0.95 0  3.5 -0.95 0  3.550000000000001 -0.95 0  3.6 -0.95 0  3.65 -0.95 0  3.699999999999999 -0.95 0  3.75 -0.95 0  3.800000000000001 -0.95 0  3.85 -0.95 0  3.9 -0.95 0  3.949999999999999 -0.95 0  4 -0.95 0  4.050000000000001 -0.95 0  4.1 -0.95 0  4.15 -0.95 0  4.199999999999999 -0.95 0  4.25 -0.95 0  4.300000000000001 -0.95 0  4.35 -0.95 0  4.4 -0.95 0  4.449999999999999 -0.95 0  4.5 -0.95 0  4.550000000000001 -0.95 0  4.6 -0.95 0  4.65 -0.95 0  4.699999999999999 -0.95 0  4.75 -0.95 0  4.800000000000001 -0.95 0  4.85 -0.95 0  4.9 -0.95 0  4.949999999999999 -0.95 0  5 -0.95 0  -5 -0.9 0  -4.95 -0.9 0  -4.9 -0.9 0  -4.85 -0.9 0  -4.8 -0.9 0  -4.75 -0.9 0  -4.7 -0.9 0  -4.65 -0.9 0  -4.6 -0.9 0  -4.55 -0.9 0  -4.5 -0.9 0  -4.45 -0.9 0  -4.4 -0.9 0  -4.35 -0.9 0  -4.3 -0.9 0  -4.25 -0.9 0  -4.2 -0.9 0  -4.15 -0.9 0  -4.1 -0.9 0  -4.05 -0.9 0  -4 -0.9 0  -3.95 -0.9 0  -3.9 -0.9 0  -3.85 -0.9 0  -3.8 -0.9 0  -3.75 -0.9 0  -3.7 -0.9 0  -3.65 -0.9 0  -3.6 -0.9 0  -3.55 -0.9 0  -3.5 -0.9 0  -3.45 -0.9 0  -3.4 -0.9 0  -3.35 -0.9 0  -3.3 -0.9 0  -3.25 -0.9 0  -3.2 -0.9 0  -3.15 -0.9 0  -3.1 -0.9 0  -3.05 -0.9 0  -3 -0.9 0  -2.95 -0.9 0  -2.9 -0.9 0  -2.85 -0.9 0  -2.8 -0.9 0  -2.75 -0.9 0  -2.7 -0.9 0  -2.65 -0.9 0  -2.6 -0.9 0  -2.55 -0.9 0  -2.5 -0.9 0  -2.45 -0.9 0  -2.4 -0.9 0  -2.35 -0.9 0  -2.3 -0.9 0  -2.25 -0.9 0  -2.2 -0.9 0  -2.15 -0.9 0  -2.1 -0.9 0  -2.05 -0.9 0  -2 -0.9 0  -1.95 -0.9 0  -1.9 -0.9 0  -1.85 -0.9 0  -1.8 -0.9 0  -1.75 -0.9 0  -1.7 -0.9 0  -1.65 -0.9 0  -1.6 -0.9 0  -1.55 -0.9 0  -1.5 -0.9 0  -1.45 -0.9 0  -1.4 -0.9 0  -1.35 -0.9 0  -1.3 -0.9 0  -1.25 -0.9 0  -1.2 -0.9 0  -1.15 -0.9 0  -1.1 -0.9 0  -1.05 -0.9 0  -1 -0.9 0  -0.9500000000000002 -0.9 0  -0.9000000000000004 -0.9 0  -0.8499999999999996 -0.9 0  -0.7999999999999998 -0.9 0  -0.75 -0.9 0  -0.7000000000000002 -0.9 0  -0.6500000000000004 -0.9 0  -0.5999999999999996 -0.9 0  -0.5499999999999998 -0.9 0  -0.5 -0.9 0  -0.4500000000000002 -0.9 0  -0.4000000000000004 -0.9 0  -0.3499999999999996 -0.9 0  -0.2999999999999998 -0.9 0  -0.25 -0.9 0  -0.2000000000000002 -0.9 0  -0.1500000000000004 -0.9 0  -0.09999999999999964 -0.9 0  -0.04999999999999982 -0.9 0  0 -0.9 0  0.04999999999999982 -0.9 0  0.09999999999999964 -0.9 0  0.1500000000000004 -0.9 0  0.2000000000000002 -0.9 0  0.25 -0.9 0  0.2999999999999998 -0.9 0  0.3499999999999996 -0.9 0  0.4000000000000004 -0.9 0  0.4500000000000002 -0.9 0  0.5 -0.9 0  0.5499999999999998 -0.9 0  0.5999999999999996 -0.9 0  0.6500000000000004 -0.9 0  0.7000000000000002 -0.9 0  0.75 -0.9 0  0.7999999999999998 -0.9 0  0.8499999999999996 -0.9 0  0.9000000000000004 -0.9 0  0.9500000000000002 -0.9 0  1 -0.9 0  1.05 -0.9 0  1.1 -0.9 0  1.15 -0.9 0  1.2 -0.9 0  1.25 -0.9 0  1.3 -0.9 0  1.35 -0.9 0  1.4 -0.9 0  1.45 -0.9 0  1.5 -0.9 0  1.55 -0.9 0  1.6 -0.9 0  1.65 -0.9 0  1.7 -0.9 0  1.75 -0.9 0  1.8 -0.9 0  1.85 -0.9 0  1.9 -0.9 0  1.95 -0.9 0  2 -0.9 0  2.05 -0.9 0  2.1 -0.9 0  2.15 -0.9 0  2.2 -0.9 0  2.25 -0.9 0  2.3 -0.9 0  2.35 -0.9 0  2.4 -0.9 0  2.45 -0.9 0  2.5 -0.9 0  2.55 -0.9 0  2.6 -0.9 0  2.65 -0.9 0  2.7 -0.9 0  2.75 -0.9 0  2.8 -0.9 0  2.85 -0.9 0  2.9 -0.9 0  2.95 -0.9 0  3 -0.9 0  3.050000000000001 -0.9 0  3.1 -0.9 0  3.15 -0.9 0  3.199999999999999 -0.9 0  3.25 -0.9 0  3.300000000000001 -0.9 0  3.35 -0.9 0  3.4 -0.9 0  3.449999999999999 -0.9 0  3.5 -0.9 0  3.550000000000001 -0.9 0  3.6 -0.9 0  3.65 -0.9 0  3.699999999999999 -0.9 0  3.75 -0.9 0  3.800000000000001 -0.9 0  3.85 -0.9 0  3.9 -0.9 0  3.949999999999999 -0.9 0  4 -0.9 0  4.050000000000001 -0.9 0  4.1 -0.9 0  4.15 -0.9 0  4.199999999999999 -0.9 0  4.25 -0.9 0  4.300000000000001 -0.9 0  4.35 -0.9 0  4.4 -0.9 0  4.449999999999999 -0.9 0  4.5 -0.9 0  4.550000000000001 -0.9 0  4.6 -0.9 0  4.65 -0.9 0  4.699999999999999 -0.9 0  4.75 -0.9 0  4.800000000000001 -0.9 0  4.85 -0.9 0  4.9 -0.9 0  4.949999999999999 -0.9 0  5 -0.9 0  -5 -0.85 0  -4.95 -0.85 0  -4.9 -0.85 0  -4.85 -0.85 0  -4.8 -0.85 0  -4.75 -0.85 0  -4.7 -0.85 0  -4.65 -0.85 0  -4.6 -0.85 0  -4.55 -0.85 0  -4.5 -0.85 0  -
[...]
<PointData  Vectors="f_15"> 
<DataArray  type="Float64"  Name="f_15"  NumberOfComponents="3" format="ascii">1.3607885895103089e+00 0.0000000000000000e+00 0.0000000000000000e+00  1.3403530460195192e+00 -2.3244586632533065e-02 0.0000000000000000e+00  1.3605989559344340e+00 1.2433096647805505e-01 0.0000000000000000e+00  1.3381303415900849e+00 8.2815280344865752e-02 0.0000000000000000e+00  1.3630520858793567e+00 1.7344466477955628e-01 0.0000000000000000e+00  1.3376104393157664e+00 1.5900629089478291e-01 0.0000000000000000e+00  1.3613724266879201e+00 2.4190161055532028e-01 0.0000000000000000e+00  1.3392380190998014e+00 2.2993354114363354e-01 0.0000000000000000e+00  1.3615853610059196e+00 2.9894659363142101e-01 0.0000000000000000e+00  1.3369656750547145e+00 3.0828461581558853e-01 0.0000000000000000e+00  1.3635632891186962e+00 3.6424260843377743e-01 0.0000000000000000e+00  1.3367781402899586e+00 3.7250914726158119e-01 0.0000000000000000e+00  1.3616215523040385e+00 4.3222492372473592e-01 0.0000000000000000e+00  1.3383703785912919e+00 4.4704932650596263e-01 0.0000000000000000e+00  1.3616023104740733e+00 4.9090013472286476e-01 0.0000000000000000e+00  1.3364917309461746e+00 5.2050624629164077e-01 0.0000000000000000e+00  1.3629830522424253e+00 5.6128633083984947e-01 0.0000000000000000e+00  1.3367083444025218e+00 5.8052514967501523e-01 0.0000000000000000e+00  1.3610201995774927e+00 6.3384633962222203e-01 0.0000000000000000e+00  1.3383956540607302e+00 6.5128894720376052e-01 0.0000000000000000e+00  1.3609172604900750e+00 6.9628811440469141e-01 0.0000000000000000e+00  1.3372051773409543e+00 7.1276858419181666e-01 0.0000000000000000e+00  1.3622009063503517e+00 7.7433367061960501e-01 0.0000000000000000e+00  1.3378023332288993e+00 7.7523087611134056e-01 0.0000000000000000e+00  1.3609332865789248e+00 8.3325127751418426e-01 0.0000000000000000e+00  1.3398088920088131e+00 8.4473300222985293e-01 0.0000000000000000e+00  1.3617224231507001e+00 9.0222381163042842e-01 0.0000000000000000e+00  1.3395364941309771e+00 9.0214395528621816e-01 0.0000000000000000e+00  1.3640477690360098e+00 9.6718352560390952e-01 0.0000000000000000e+00  1.3417378358304797e+00 9.6478547631956457e-01 0.0000000000000000e+00  1.3648874489816358e+00 1.0232542134096851e+00 0.0000000000000000e+00  1.3457507035965481e+00 1.0276286350310371e+00 0.0000000000000000e+00  1.3689592901621952e+00 1.0776764633030924e+00 0.0000000000000000e+00  1.3493330330875235e+00 1.0768367664189427e+00 0.0000000000000000e+00  1.3755742220302227e+00 1.1295563785638749e+00 0.0000000000000000e+00  1.3570615701849233e+00 1.1272588535660388e+00 0.0000000000000000e+00  1.3826907074365562e+00 1.1643942628330068e+00 0.0000000000000000e+00  1.3675638830810224e+00 1.1722320738942376e+00 0.0000000000000000e+00  1.3939006371035685e+00 1.1993767926843799e+00 0.0000000000000000e+00  1.3781599460562328e+00 1.2040043347619467e+00 0.0000000000000000e+00  1.4065629563130415e+00 1.2323262902999621e+00 0.0000000000000000e+00  1.3914491982111052e+00 1.2400026263001611e+00 0.0000000000000000e+00  1.4180421962968233e+00 1.2555411066848139e+00 0.0000000000000000e+00  1.4048345453737305e+00 1.2767189261147309e+00 0.0000000000000000e+00  1.4312750422462350e+00 1.2858914466302731e+00 0.0000000000000000e+00  1.4167199746457022e+00 1.3055509125275910e+00 0.0000000000000000e+00  1.4441681946746185e+00 1.3182477800405386e+00 0.0000000000000000e+00  1.4302915497057387e+00 1.3402691497713606e+00 0.0000000000000000e+00  1.4555664771833583e+00 1.3440140513910983e+00 0.0000000000000000e+00  1.4435819996377746e+00 1.3758242973175105e+00 0.0000000000000000e+00  1.4685597699024353e+00 1.3765465731805171e+00 0.0000000000000000e+00  1.4555838267714676e+00 1.4048940632024469e+00 0.0000000000000000e+00  1.4812742236380712e+00 1.4098591886694665e+00 0.0000000000000000e+00  1.4692045743618318e+00 1.4389460666389307e+00 0.0000000000000000e+00  1.4926792656556402e+00 1.4386780362522245e+00 0.0000000000000000e+00  1.4827279272095883e+00 1.4721147235056660e+00 0.0000000000000000e+00  1.5054559975029329e+00 1.4735379054691897e+00 0.0000000000000000e+00  1.4950848515932602e+00 1.5002280995772677e+00 0.0000000000000000e+00  1.5182048688718153e+00 1.5075434729866763e+00 0.0000000000000000e+00  1.5085690455275500e+00 1.5335358620797190e+00 0.0000000000000000e+00  1.5299358942264869e+00 1.5379164432192289e+00 0.0000000000000000e+00  1.5220220745120669e+00 1.5647997429850686e+00 0.0000000000000000e+00  1.5426049353280848e+00 1.5741595120288405e+00 0.0000000000000000e+00  1.5346505871316873e+00 1.5915808598252978e+00 0.0000000000000000e+00  1.5552846420230222e+00 1.6087840404784848e+00 0.0000000000000000e+00  1.5480580669715622e+00 1.6236335998736291e+00 0.0000000000000000e+00  1.5672961584898895e+00 1.6392422490348653e+00 0.0000000000000000e+00  1.5613794050380194e+00 1.6542963591905091e+00 0.0000000000000000e+00  1.5799414769408997e+00 1.6741202522377894e+00 0.0000000000000000e+00  1.5741498413083352e+00 1.6815261079970589e+00 0.0000000000000000e+00  1.5924443929370153e+00 1.7070832952333141e+00 0.0000000000000000e+00  1.5875701239392481e+00 1.7134247966411269e+00 0.0000000000000000e+00  1.6043161138835367e+00 1.7361052697489507e+00 0.0000000000000000e+00  1.6010276404571000e+00 1.7445642425371344e+00 0.0000000000000000e+00  1.6164303179288955e+00 1.7687526704635452e+00 0.0000000000000000e+00  1.6141572169863654e+00 1.7727216875698000e+00 0.0000000000000000e+00  1.6284335049253755e+00 1.8006559247198548e+00 0.0000000000000000e+00  1.6275031446652728e+00 1.8041242389247050e+00 0.0000000000000000e+00  1.6400868625108851e+00 1.8301659810365738e+00 0.0000000000000000e+00  1.6408057381216841e+00 1.8347743864430026e+00 0.0000000000000000e+00  1.6517894770730384e+00 1.8625781007200501e+00 0.0000000000000000e+00  1.6537149578534458e+00 1.8632952758421126e+00 0.0000000000000000e+00  1.6637385088380074e+00 1.8936233567788232e+00 0.0000000000000000e+00  1.6661454811328935e+00 1.8950464127793758e+00 0.0000000000000000e+00  1.6757393325757199e+00 1.9212749317299969e+00 0.0000000000000000e+00  1.6784437859536077e+00 1.9271307598083331e+00 0.0000000000000000e+00  1.6875178801859025e+00 1.9491927049721223e+00 0.0000000000000000e+00  1.6904084371754065e+00 1.9585716235489303e+00 0.0000000000000000e+00  1.6996393068727889e+00 1.9744206345817088e+00 0.0000000000000000e+00  1.7015046258683608e+00 1.9922678502865014e+00 0.0000000000000000e+00  1.7118536614868702e+00 1.9975616404237444e+00 0.0000000000000000e+00  1.7126262137058559e+00 2.0239196266672930e+00 0.0000000000000000e+00  1.7233330253614334e+00 2.0217662151638991e+00 0.0000000000000000e+00  1.7236046429245531e+00 2.0553327473410579e+00 0.0000000000000000e+00  1.7348871502422034e+00 2.0413727247037712e+00 0.0000000000000000e+00  1.7337801904861823e+00 2.0898520140878536e+00 0.0000000000000000e+00  1.7461085890371804e+00 2.0603484224745827e+00 0.0000000000000000e+00  1.7442487491078102e+00 2.1170575367333595e+00 0.0000000000000000e+00  1.7561379858138930e+00 2.0877227784313765e+00 0.0000000000000000e+00  1.7546086764381694e+00 2.1368555366911082e+00 0.0000000000000000e+00  1.7661645915763693e+00 2.1135480261334050e+00 0.0000000000000000e+00  1.7639153994192094e+00 2.1606536828645306e+00 0.0000000000000000e+00  1.7758259674336023e+00 2.1346548959044029e+00 0.0000000000000000e+00  1.7734476695389609e+00 2.1792475083325962e+00 0.0000000000000000e+00  1.7838621257407929e+00 2.1654239775265478e+00 0.0000000000000000e+00  1.7831123841359942e+00 2.1855985723801128e+00 0.0000000000000000e+00  1.7917138519461875e+00 2.1969853819683935e+00 0.0000000000000000e+00  1.7912096892352858e+00 2.1991971275605868e+00 0.0000000000000000e+00  1.7995446486882976e+00 2.2135366864476231e+00 0.0000000000000000e+00  1.7992036304999479e+00 2.2198055747878800e+00 0.0000000000000000e+00  1.8055550968394443e+00 2.2300277198911762e+00 0.0000000000000000e+00  1.8073751223447039e+00 2.2309644564511513e+00 0.0000000000000000e+00  1.8112593996191482e+00 2.2503921475051949e+00 0.0000000000000000e+00  1.8136888030549541e+00 2.2435863138356167e+00 0.0000000000000000e+00  1.8172366110323297e+00 2.2599099481056464e+00 0.0000000000000000e+00  1.8195335316952748e+00 2.2621622908254166e+00 0.0000000000000000e+00  1.8215923538867764e+00 2.2680157591846788e+00 0.0000000000000000e+00  1.8255983616365619e+00 2.2717097589941302e+00 0.0000000000000000e+00  1.8255442954149608e+00 2.2821373671807956e+00 0.0000000000000000e+00  1.8306918239080363e+00 2.2760672879348878e+00 0.0000000000000000e+00  1.8301804033135276e+00 2.2906053581945316e+00 0.0000000000000000e+00  1.8364706221397917e+00 2.2806848755305333e+00 0.0000000000000000e+00  1.8360471899305615e+00 2.2922343881051845e+00 0.0000000000000000e+00  1.8464950105617737e+00 2.2738198233702422e+00 0.0000000000000000e+00  1.8470682261698765e+00 2.2852233623168878e+00 0.0000000000000000e+00  1.8647147138736748e+00 2.2501466019583773e+00 0.0000000000000000e+00  1.8688985650101391e+00 2.2566616891047846e+00 0.0000000000000000e+00  1.8926918047145762e+00 2.2108827617117415e+00 0.0000000000000000e+00  1.8989070680661353e+00 2.2137829558271220e+00 0.0000000000000000e+00  1.9225080661486085e+00 2.1678380952952518e+00 0.0000000000000000e+00  1.9202705957852957e+00 2.1851369960882994e+00 0.0000000000000000e+00  1.9371456544169452e+00 2.1506938883823494e+00 0.0000000000000000e+00  1.9200344232251283e+00 2.1903203038589218e+00 0.0000000000000000e+00  1.9259697333161512e+00 2.1764590132764763e+00 0.0000000000000000e+00  1.8932912609165720e+00 2.2428992947546749e+00 0.0000000000000000e+00  1.8772013707408242e+00 2.2684148083469755e+00 0.0000000000000000e+00  1.8106841484288634e+00 2.3867154070071042e+00 0.0000000000000000e+00  1.7640509841516434e+00 2.4470831874566916e+00 0.0000000000000000e+00  1.7081650905784285e+00 2.5517496238732420e+00 0.0000000000000000e+00  2.1769693263742971e+00 1.4581199708553874e+00 0.0000000000000000e+00  2.8158871006672013e+00 2.0901943152864530e-01 0.0000000000000000e+00  2.9757428884205965e+00 -6.3664874291735590e-02 0.0000000000000000e+00  2.9251427640694545e+00 -5.6809361514413848e-03 0.0000000000000000e+00  2.9678283941368324e+00 -6.5354009350461914e-02 0.0000000000000000e+00  2.9665023176986032e+00 -6.6774886543836787e-02 0.0000000000000000e+00  2.9723240264441260e+00 -7.0407280090098834e-02 0.0000000000000000e+00  2.9633787857056109e+00 -5.9913250075118676e-02 0.0000000000000000e+00  2.9757385195160908e+00 -6.5576080078367072e-02 0.0000000000000000e+00  2.9593038400985927e+00 -5.1358479171275534e-02 0.0000000000000000e+00  2.9797659366039859e+00 -6.3272705978355895e-02 0.0000000000000000e+00  2.9617213634500570e+00 -5.2021047657578846e-02 0.0000000000000000e+00  2.9787898569098092e+00 -5.4917498938059653e-02 0.0000000000000000e+00  2.9629338836424033e+00 -4.8433334522428595e-02 0.0000000000000000e+00  2.9796702510084048e+00 -4.9913290816554691e-02 0.0000000000000000e+00  2.9631371756024745e+00 -4.4889229629005441e-02 0.0000000000000000e+00  2.9820012185514160e+00 -4.6395841049774504e-02 0.0000000000000000e+00  2.9628106141544497e+00 -4.1047939218271920e-02 0.0000000000000000e+00  2.9826385209998021e+00 -4.1973860243576008e-02 0.0000000000000000e+00  2.9644448515364821e+00 -3.7974771324870489e-02 0.0000000000000000e+00  2.9824982162856153e+00 -3.9739285436451034e-02 0.0000000000000000e+00  2.9652837943055137e+00 -3.5964248686268269e-02 0.0000000000000000e+00  2.9833876155815626e+00 -4.2176809502691329e-02 0.0000000000000000e+00  2.9652680495063923e+00 -3.7950134536519721e-02 0.0000000000000000e+00  2.9835002859208872e+00 -5.0098786720564482e-02 0.0000000000000000e+00  2.9662840397399930e+00 -4.2156990304487489e-02 0.0000000000000000e+00  2.9826624566068207e+00 -5.5170221765581548e-02 0.0000000000000000e+00  2.9666131697115485e+00 -4.1079030037118519e-02 0.0000000000000000e+00  2.9825536247426414e+00 -5.1889610507541227e-02 0.0000000000000000e+00  2.9662532701955793e+00 -3.2223800974891963e-02 0.0000000000000000e+00  2.9817814591567560e+00 -4.3445123010805227e-02 0.0000000000000000e+00  2.9666410256909672e+00 -2.1408046038514979e-02 0.0000000000000000e+00  2.9803920565801696e+00 -3.3364198254464676e-02 0.0000000000000000e+00  2.9664973912865156e+00 -1.4805891165696382e-02 0.0000000000000000e+00  2.9798754919135235e+00 -2.6377127940050170e-02 0.0000000000000000e+00  2.9659107919665408e+00 -8.1264777226671032e-03 0.0000000000000000e+00  2.9789441654246036e+00 -2.6385368015595538e-02 0.0000000000000000e+00  2.9663828811853468e+00 -3.5242248986267180e-03 0.0000000000000000e+00  2.9776613263663365e+00 -2.7116213392815131e-02 0.0000000000000000e+00  2.9665941876853297e+00 -4.2099455615043089e-03 0.0000000000000000e+00  2.9774286250752713e+00 -2.8027496253797871e-02 0.0000000000000000e+00  2.9666116075205826e+00 -7.8502391848925407e-03 0.0000000000000000e+00  2.9768859685060405e+00 -2.7210696659174534e-02 0.0000000000000000e+00  2.9676277845936738e+00 -1.4768737912648175e-02 0.0000000000000000e+00  2.9761829379109908e+00 -2.4584544234741976e-02 0.0000000000000000e+00  2.9683288165916033e+00 -2.0055170537757072e-02 0.0000000000000000e+00  2.9762280635465865e+00 -2.0272281951582947e-02 0.0000000000000000e+00  2.9690116442891363e+00 -2.1126754119344445e-02 0.0000000000000000e+00  2.9757962960540469e+00 -1.4313968409583079e-02 0.0000000000000000e+00  2.9703621228254495e+00 -1.6187459158369721e-02 0.0000000000000000e+00  2.9752787322854872e+00 -1.2324016932970446e-02 0.0000000000000000e+00  2.9712747693371679e+00 -1.4870969906449321e-02 0.0000000000000000e+00  2.9751451163516887e+00 -2.9321641769153254e-02 0.0000000000000000e+00  2.9722100407723770e+00 -4.2134252298993542e-02 0.0000000000000000e+00  2.9742824228156213e+00 -6.4763193940039029e-02 0.0000000000000000e+00  2.9734047811458248e+00 -7.0849124391574980e-02 0.0000000000000000e+00  2.9733946889866618e+00 -7.7137252392373359e-02 0.0000000000000000e+00  2.9740073114902930e+00 -6.7175674549852391e-02 0.0000000000000000e+00  2.9728446575803322e+00 -5.5873478476335982e-02 0.0000000000000000e+00  2.9745967365901493e+00 -5.7359077554943752e-02 0.0000000000000000e+00  2.9715915895151861e+00 -3.2089179272043314e-02 0.0000000000000000e+00  2.9752895509122315e+00 0.0000000000000000e+00 0.0000000000000000e+00  1.3430480095397772e+00 0.0000000000000000e+00 4.7604943048120137e-02  1.3398735623928972e+00 4.6244767938924181e-02 3.0368790932023644e-03  1.3408457857250020e+00 4.0644873127145965e-02 -2.6590019037284363e-02  1.3425380342536306e+00 9.4392610894610665e-02 2.8523394395674690e-03  1.3405302625166515e+00 1.2582643288915563e-01 1.3263475641664553e-02  1.3406142350071559e+00 1.5396222810259319e-01 -2.2090115871426313e-02  1.3424928376719021e+00 2.0468465457464224e-01 2.4596709945789989e-02  1.3404529068025852e+00 2.1372554175333497e-01 -2.0972008845096271e-02  1.3404546192959197e+00 2.7799881786076291e-01 2.0439594734629821e-02  1.3422684540093914e+00 2.8706968111411740e-01 -2.0994386796507739e-02  1.3404022992485847e+00 3.4070858415118838e-01 2.3281969783034571e-02  1.3401808593311950e+00 3.5717001749809996e-01 -2.0859532293879445e-02  1.3421827482181719e+00 4.1403275348155660e-01 1.7142905208304634e-02  1.3401394387648662e+00 4.2536524484340854e-01 -1.4300835871293455e-02  1.3401502325882482e+00 4.7655136466302073e-01 1.9059354074122542e-02  1.3419021320460636e+00 4.9757867920730386e-01 -2.7595702884396327e-02  1.3400159203734989e+00 5.4922211017169131e-01 3.3708119996293480e-02  1.3402192089916247e+00 5.5773855633972325e-01 -3.1910957381977488e-02  1.3414581564628203e+00 6.2115127200889475e-01 2.8096767718091688e-02  1.3404341181627795e+00 6.2603218257886839e-01 -2.8396875658186341e-02  1.3397878188788488e+00 6.8745241808053026e-01 3.2695316513149865e-02  1.3420710512713627e+00 6.9552418709970598e-01 -3.2553183053502306e-02  1.3400276311512473e+00 7.5281936347824130e-01 2.8948050566286375e-02  1.3409148654975886e+00 7.5989750559903746e-01 -2.6396395913862187e-02  1.3417625956616137e+00 8.2432220940183376e-01 2.7309267680822893e-02  1.3416970924837461e+00 8.2572234857538040e-01 -2.5908829389395437e-02  1.3412232262352168e+00 8.8216973700150403e-01 2.2107119358677783e-02  1.3439359526686570e+00 8.9705959337817509e-01 -1.9387264120951358e-02  1.3431238779898993e+00 9.4538472338634094e-01 1.8320250681464229e-02  1.3444161753789590e+00 9.5593224753525385e-01 -1.6353026735912938e-02  1.3468435842699409e+00 1.0072993534658550e+00 1.3395313826349039e-02  1.3479407253836742e+00 1.0176235383179593e+00 -1.1851385709349384e-02  1.3498378239844377e+00 1.0576589255080409e+00 1.0601341053362273e-02  1.3539140387923747e+00 1.0766340353270256e+00 -9.3242293609778464e-03  1.3567660428299899e+00 1.1080696135069097e+00 7.6878573973801221e-03  1.3602876390026197e+00 1.1194803723690228e+00 -7.3980555079721693e-03  1.3665685073242022e+00 1.1546224333915986e+00 6.7540223708508849e-03  1.3711247679138170e+00 1.1620235375411574e+00 -6.6488734283777920e-03  1.3767743042297749e+00 1.1869688159151632e+00 6.3736758265652751e-03  1.3841516726762768e+00 1.2005384906292800e+00 -6.8021942722152774e-03  1.3901666207470673e+00 1.2222294663097100e+00 7.0645100406163406e-03  1.3964593169627868e+00 1.2277252420483415e+00 -7.9767293713846350e-03  1.4039190579983620e+00 1.2588435038420163e+00 8.6437710236576468e-03  1.4107212454478342e+00 1.2611304022825296e+00 -9.5567254660204569e-03  1.4160468452831958e+00 1.2873198107832544e+00 1.0289909282709106e-02  1.4246726425392549e+00 1.2958596625811760e+00 -1.1206154125945713e-02  1.4297711603234748e+00 1.3224976534544781e+00 1.1875044217326105e-02  1.4370727426875314e+00 1.3236436403039324e+00 -1.2617676846723389e-02  1.4431478185187581e+00 1.3589268708075186e+00 1.3322042931495104e-02  1.4510807697568275e+00 1.3575313064488481e+00 -1.3908024292013531e-02  1.4551295832476474e+00 1.3882813668637297e+00 1.4345622117611338e-02  1.4647240698881996e+00 1.3921199593465226e+00 -1.4789418842816489e-02  1.4686847010018902e+00 1.4234040587704746e+00 1.4994141881188753e-02  1.4769347868247060e+00 1.4213555570766812e+00 -1.5035717775665211e-02  1.4820340392356048e+00 1.4579178564849884e+00 1.4847743622234622e-02  1.4904914264514473e+00 1.4563952164986476e+00 -1.4549425821418067e-02  1.4941346162083886e+00 1.4870654154355567e+00 1.4046979759033370e-02  1.5038724475724912e+00 1.4908955718186314e+00 -1.3458255550697346e-02  1.5074631946074872e+00 1.5215983934943484e+00 1.2767075155079254e-02  1.5160723710518795e+00 1.5210887157404156e+00 -1.1806579377694229e-02  1.5208193700216661e+00 1.5540852555069256e+00 1.0761530768025577e-02  1.5292150367121413e+00 1.5571571595758624e+00 -9.4317185769832064e-03  1.5333203188402775e+00 1.5818477258237404e+00 8.2589395582304357e-03  1.5422703285660488e+00 1.5917514732932028e+00 -6.8037460122185155e-03  1.5466406543897342e+00 1.6149911355085913e+00 5.7144974000006392e-03  1.5545151297026270e+00 1.6220566504471017e+00 -4.2373068437550499e-03  1.5598917877995764e+00 1.6466017190755544e+00 3.1973680016009129e-03  1.5674193584179859e+00 1.6573677402474052e+00 -1.6131249068899874e-03  1.5725433625190783e+00 1.6742803575315257e+00 6.9303096782319037e-04  1.5801808812826461e+00 1.6911385949921434e+00 8.8959387534071359e-04  1.5858066853218111e+00 1.7065722878723582e+00 -1.6330921814702005e-03  1.5923142665341758e+00 1.7212344953756100e+00 3.1606880038436737e-03  1.5989944503830067e+00 1.7375752209158870e+00 -3.7934563911884178e-03  1.6048739268487857e+00 1.7554327748698979e+00 5.1841792704478357e-03  1.6116939114223554e+00 1.7650456480152152e+00 -5.6448141032659112e-03  1.6174300991768398e+00 1.7884103129508730e+00 6.5980845654603024e-03  1.6245514028419323e+00 1.7961918715750624e+00 -6.7657577129250053e-03  1.6297139149277429e+00 1.8178852738623377e+00 7.1142609234048151e-03  1.6372656120188014e+00 1.8267603937948618e+00 -7.0498915066337011e-03  1.6421923276056587e+00 1.8497215263832383e+00 6.7876944892030829e-03  1.6495522398858200e+00 1.8551506929894004e+00 -6.4910287789282902e-03  1.6548518054248122e+00 1.8797334226922633e+00 5.67872