<?xml version="1.0"?>
<VTKFile type="UnstructuredGrid"  version="0.1"  >
<UnstructuredGrid>
<Piece  NumberOfPoints="8241" NumberOfCells="16000">
<Points>
<DataArray  type="Float64"  NumberOfComponents="3"  format="ascii">-5 -1 0  -4.95 -1 0  -4.9 -1 0  -4.85 -1 0  -4.8 -1 0  -4.75 -1 0  -4.7 -1 0  -4.65 -1 0  -4.6 -1 0  -4.55 -1 0  -4.5 -1 0  -4.45 -1 0  -4.4 -1 0  -4.35 -1 0  -4.3 -1 0  -4.25 -1 0  -4.2 -1 0  -4.15 -1 0  -4.1 -1 0  -4.05 -1 0  -4 -1 0  -3.95 -1 0  -3.9 -1 0  -3.85 -1 0  -3.8 -1 0  -3.75 -1 0  -3.7 -1 0  -3.65 -1 0  -3.6 -1 0  -3.55 -1 0  -3.5 -1 0  -3.45 -1 0  -3.4 -1 0  -3.35 -1 0  -3.3 -1 0  -3.25 -1 0  -3.2 -1 0  -3.15 -1 0  -3.1 -1 0  -3.05 -1 0  -3 -1 0  -2.95 -1 0  -2.9 -1 0  -2.85 -1 0  -2.8 -1 0  -2.75 -1 0  -2.7 -1 0  -2.65 -1 0  -2.6 -1 0  -2.55 -1 0  -2.5 -1 0  -2.45 -1 0  -2.4 -1 0  -2.35 -1 0  -2.3 -1 0  -2.25 -1 0  -2.2 -1 0  -2.15 -1 0  -2.1 -1 0  -2.05 -1 0  -2 -1 0  -1.95 -1 0  -1.9 -1 0  -1.85 -1 0  -1.8 -1 0  -1.75 -1 0  -1.7 -1 0  -1.65 -1 0  -1.6 -1 0  -1.55 -1 0  -1.5 -1 0  -1.45 -1 0  -1.4 -1 0  -1.35 -1 0  -1.3 -1 0  -1.25 -1 0  -1.2 -1 0  -1.15 -1 0  -1.1 -1 0  -1.05 -1 0  -1 -1 0  -0.9500000000000002 -1 0  -0.9000000000000004 -1 0  -0.8499999999999996 -1 0  -0.7999999999999998 -1 0  -0.75 -1 0  -0.7000000000000002 -1 0  -0.6500000000000004 -1 0  -0.5999999999999996 -1 0  -0.5499999999999998 -1 0  -0.5 -1 0  -0.4500000000000002 -1 0  -0.4000000000000004 -1 0  -0.3499999999999996 -1 0  -0.2999999999999998 -1 0  -0.25 -1 0  -0.2000000000000002 -1 0  -0.1500000000000004 -1 0  -0.09999999999999964 -1 0  -0.04999999999999982 -1 0  0 -1 0  0.04999999999999982 -1 0  0.09999999999999964 -1 0  0.1500000000000004 -1 0  0.2000000000000002 -1 0  0.25 -1 0  0.2999999999999998 -1 0  0.3499999999999996 -1 0  0.4000000000000004 -1 0  0.4500000000000002 -1 0  0.5 -1 0  0.5499999999999998 -1 0  0.5999999999999996 -1 0  0.6500000000000004 -1 0  0.7000000000000002 -1 0  0.75 -1 0  0.7999999999999998 -1 0  0.8499999999999996 -1 0  0.9000000000000004 -1 0  0.9500000000000002 -1 0  1 -1 0  1.05 -1 0  1.1 -1 0  1.15 -1 0  1.2 -1 0  1.25 -1 0  1.3 -1 0  1.35 -1 0  1.4 -1 0  1.45 -1 0  1.5 -1 0  1.55 -1 0  1.6 -1 0  1.65 -1 0  1.7 -1 0  1.75 -1 0  1.8 -1 0  1.85 -1 0  1.9 -1 0  1.95 -1 0  2 -1 0  2.05 -1 0  2.1 -1 0  2.15 -1 0  2.2 -1 0  2.25 -1 0  2.3 -1 0  2.35 -1 0  2.4 -1 0  2.45 -1 0  2.5 -1 0  2.55 -1 0  2.6 -1 0  2.65 -1 0  2.7 -1 0  2.75 -1 0  2.8 -1 0  2.85 -1 0  2.9 -1 0  2.95 -1 0  3 -1 0  3.050000000000001 -1 0  3.1 -1 0  3.15 -1 0  3.199999999999999 -1 0  3.25 -1 0  3.300000000000001 -1 0  3.35 -1 0  3.4 -1 0  3.449999999999999 -1 0  3.5 -1 0  3.550000000000001 -1 0  3.6 -1 0  3.65 -1 0  3.699999999999999 -1 0  3.75 -1 0  3.800000000000001 -1 0  3.85 -1 0  3.9 -1 0  3.949999999999999 -1 0  4 -1 0  4.050000000000001 -1 0  4.1 -1 0  4.15 -1 0  4.199999999999999 -1 0  4.25 -1 0  4.300000000000001 -1 0  4.35 -1 0  4.4 -1 0  4.449999999999999 -1 0  4.5 -1 0  4.550000000000001 -1 0  4.6 -1 0  4.65 -1 0  4.699999999999999 -1 0  4.75 -1 0  4.800000000000001 -1 0  4.85 -1 0  4.9 -1 0  4.949999999999999 -1 0  5 -1 0  -5 -0.95 0  -4.95 -0.95 0  -4.9 -0.95 0  -4.85 -0.95 0  -4.8 -0.95 0  -4.75 -0.95 0  -4.7 -0.95 0  -4.65 -0.95 0  -4.6 -0.95 0  -4.55 -0.95 0  -4.5 -0.95 0  -4.45 -0.95 0  -4.4 -0.95 0  -4.35 -0.95 0  -4.3 -0.95 0  -4.25 -0.95 0  -4.2 -0.95 0  -4.15 -0.95 0  -4.1 -0.95 0  -4.05 -0.95 0  -4 -0.95 0  -3.95 -0.95 0  -3.9 -0.95 0  -3.85 -0.95 0  -3.8 -0.95 0  -3.75 -0.95 0  -3.7 -0.95 0  -3.65 -0.95 0  -3.6 -0.95 0  -3.55 -0.95 0  -3.5 -0.95 0  -3.45 -0.95 0  -3.4 -0.95 0  -3.35 -0.95 0  -3.3 -0.95 0  -3.25 -0.95 0  -3.2 -0.95 0  -3.15 -0.95 0  -3.1 -0.95 0  -3.05 -0.95 0  -3 -0.95 0  -2.95 -0.95 0  -2.9 -0.95 0  -2.85 -0.95 0  -2.8 -0.95 0  -2.75 -0.95 0  -2.7 -0.95 0  -2.65 -0.95 0  -2.6 -0.95 0  -2.55 -0.95 0  -2.5 -0.95 0  -2.45 -0.95 0  -2.4 -0.95 0  -2.35 -0.95 0  -2.3 -0.95 0  -2.25 -0.95 0  -2.2 -0.95 0  -2.15 -0.95 0  -2.1 -0.95 0  -2.05 -0.95 0  -2 -0.95 0  -1.95 -0.95 0  -1.9 -0.95 0  -1.85 -0.95 0  -1.8 -0.95 0  -1.75 -0.95 0  -1.7 -0.95 0  -1.65 -0.95 0  -1.6 -0.95 0  -1.55 -0.95 0  -1.5 -0.95 0  -1.45 -0.95 0  -1.4 -0.95 0  -1.35 -0.95 0  -1.3 -0.95 0  -1.25 -0.95 0  -1.2 -0.95 0  -1.15 -0.95 0  -1.1 -0.95 0  -1.05 -0.95 0  -1 -0.95 0  -0.9500000000000002 -0.95 0  -0.9000000000000004 -0.95 0  -0.8499999999999996 -0.95 0  -0.7999999999999998 -0.95 0  -0.75 -0.95 0  -0.7000000000000002 -0.95 0  -0.6500000000000004 -0.95 0  -0.5999999999999996 -0.95 0  -0.5499999999999998 -0.95 0  -0.5 -0.95 0  -0.4500000000000002 -0.95 0  -0.4000000000000004 -0.95 0  -0.3499999999999996 -0.95 0  -0.2999999999999998 -0.95 0  -0.25 -0.95 0  -0.2000000000000002 -0.95 0  -0.1500000000000004 -0.95 0  -0.09999999999999964 -0.95 0  -0.04999999999999982 -0.95 0  0 -0.95 0  0.04999999999999982 -0.95 0  0.09999999999999964 -0.95 0  0.1500000000000004 -0.95 0  0.2000000000000002 -0.95 0  0.25 -0.95 0  0.2999999999999998 -0.95 0  0.3499999999999996 -0.95 0  0.4000000000000004 -0.95 0  0.4500000000000002 -0.95 0  0.5 -0.95 0  0.5499999999999998 -0.95 0  0.5999999999999996 -0.95 0  0.6500000000000004 -0.95 0  0.7000000000000002 -0.95 0  0.75 -0.95 0  0.7999999999999998 -0.95 0  0.8499999999999996 -0.95 0  0.9000000000000004 -0.95 0  0.9500000000000002 -0.95 0  1 -0.95 0  1.05 -0.95 0  1.1 -0.95 0  1.15 -0.95 0  1.2 -0.95 0  1.25 -0.95 0  1.3 -0.95 0  1.35 -0.95 0  1.4 -0.95 0  1.45 -0.95 0  1.5 -0.95 0  1.55 -0.95 0  1.6 -0.95 0  1.65 -0.95 0  1.7 -0.95 0  1.75 -0.95 0  1.8 -0.95 0  1.85 -0.95 0  1.9 -0.95 0  1.95 -0.95 0  2 -0.95 0  2.05 -0.95 0  2.1 -0.95 0  2.15 -0.95 0  2.2 -0.95 0  2.25 -0.95 0  2.3 -0.95 0  2.35 -0.95 0  2.4 -0.95 0  2.45 -0.95 0  2.5 -0.95 0  2.55 -0.95 0  2.6 -0.95 0  2.65 -0.95 0  2.7 -0.95 0  2.75 -0.95 0  2.8 -0.95 0  2.85 -0.95 0  2.9 -0.95 0  2.95 -0.95 0  3 -0.95 0  3.050000000000001 -0.95 0  3.1 -0.95 0  3.15 -0.95 0  3.199999999999999 -0.95 0  3.25 -0.95 0  3.300000000000001 -0.95 0  3.35 -0.95 0  3.4 -0.95 0  3.449999999999999 -0.95 0  3.5 -0.95 0  3.550000000000001 -0.95 0  3.6 -0.95 0  3.65 -0.95 0  3.699999999999999 -0.95 0  3.75 -0.95 0  3.800000000000001 -0.95 0  3.85 -0.95 0  3.9 -0.95 0  3.949999999999999 -0.95 0  4 -0.95 0  4.050000000000001 -0.95 0  4.1 -0.95 0  4.15 -0.95 0  4.199999999999999 -0.95 0  4.25 -0.95 0  4.300000000000001 -0.95 0  4.35 -0.95 0  4.4 -0.95 0  4.449999999999999 -0.95 0  4.5 -0.95 0  4.550000000000001 -0.95 0  4.6 -0.95 0  4.65 -0.95 0  4.699999999999999 -0.95 0  4.75 -0.95 0  4.800000000000001 -0.95 0  4.85 -0.95 0  4.9 -0.95 0  4.949999999999999 -0.95 0  5 -0.95 0  -5 -0.9 0  -4.95 -0.9 0  -4.9 -0.9 0  -4.85 -0.9 0  -4.8 -0.9 0  -4.75 -0.9 0  -4.7 -0.9 0  -4.65 -0.9 0  -4.6 -0.9 0  -4.55 -0.9 0  -4.5 -0.9 0  -4.45 -0.9 0  -4.4 -0.9 0  -4.35 -0.9 0  -4.3 -0.9 0  -4.25 -0.9 0  -4.2 -0.9 0  -4.15 -0.9 0  -4.1 -0.9 0  -4.05 -0.9 0  -4 -0.9 0  -3.95 -0.9 0  -3.9 -0.9 0  -3.85 -0.9 0  -3.8 -0.9 0  -3.75 -0.9 0  -3.7 -0.9 0  -3.65 -0.9 0  -3.6 -0.9 0  -3.55 -0.9 0  -3.5 -0.9 0  -3.45 -0.9 0  -3.4 -0.9 0  -3.35 -0.9 0  -3.3 -0.9 0  -3.25 -0.9 0  -3.2 -0.9 0  -3.15 -0.9 0  -3.1 -0.9 0  -3.05 -0.9 0  -3 -0.9 0  -2.95 -0.9 0  -2.9 -0.9 0  -2.85 -0.9 0  -2.8 -0.9 0  -2.75 -0.9 0  -2.7 -0.9 0  -2.65 -0.9 0  -2.6 -0.9 0  -2.55 -0.9 0  -2.5 -0.9 0  -2.45 -0.9 0  -2.4 -0.9 0  -2.35 -0.9 0  -2.3 -0.9 0  -2.25 -0.9 0  -2.2 -0.9 0  -2.15 -0.9 0  -2.1 -0.9 0  -2.05 -0.9 0  -2 -0.9 0  -1.95 -0.9 0  -1.9 -0.9 0  -1.85 -0.9 0  -1.8 -0.9 0  -1.75 -0.9 0  -1.7 -0.9 0  -1.65 -0.9 0  -1.6 -0.9 0  -1.55 -0.9 0  -1.5 -0.9 0  -1.45 -0.9 0  -1.4 -0.9 0  -1.35 -0.9 0  -1.3 -0.9 0  -1.25 -0.9 0  -1.2 -0.9 0  -1.15 -0.9 0  -1.1 -0.9 0  -1.05 -0.9 0  -1 -0.9 0  -0.9500000000000002 -0.9 0  -0.9000000000000004 -0.9 0  -0.8499999999999996 -0.9 0  -0.7999999999999998 -0.9 0  -0.75 -0.9 0  -0.7000000000000002 -0.9 0  -0.6500000000000004 -0.9 0  -0.5999999999999996 -0.9 0  -0.5499999999999998 -0.9 0  -0.5 -0.9 0  -0.4500000000000002 -0.9 0  -0.4000000000000004 -0.9 0  -0.3499999999999996 -0.9 0  -0.2999999999999998 -0.9 0  -0.25 -0.9 0  -0.2000000000000002 -0.9 0  -0.1500000000000004 -0.9 0  -0.09999999999999964 -0.9 0  -0.04999999999999982 -0.9 0  0 -0.9 0  0.04999999999999982 -0.9 0  0.09999999999999964 -0.9 0  0.1500000000000004 -0.9 0  0.2000000000000002 -0.9 0  0.25 -0.9 0  0.2999999999999998 -0.9 0  0.3499999999999996 -0.9 0  0.4000000000000004 -0.9 0  0.4500000000000002 -0.9 0  0.5 -0.9 0  0.5499999999999998 -0.9 0  0.5999999999999996 -0.9 0  0.6500000000000004 -0.9 0  0.7000000000000002 -0.9 0  0.75 -0.9 0  0.7999999999999998 -0.9 0  0.8499999999999996 -0.9 0  0.9000000000000004 -0.9 0  0.9500000000000002 -0.9 0  1 -0.9 0  1.05 -0.9 0  1.1 -0.9 0  1.15 -0.9 0  1.2 -0.9 0  1.25 -0.9 0  1.3 -0.9 0  1.35 -0.9 0  1.4 -0.9 0  1.45 -0.9 0  1.5 -0.9 0  1.55 -0.9 0  1.6 -0.9 0  1.65 -0.9 0  1.7 -0.9 0  1.75 -0.9 0  1.8 -0.9 0  1.85 -0.9 0  1.9 -0.9 0  1.95 -0.9 0  2 -0.9 0  2.05 -0.9 0  2.1 -0.9 0  2.15 -0.9 0  2.2 -0.9 0  2.25 -0.9 0  2.3 -0.9 0  2.35 -0.9 0  2.4 -0.9 0  2.45 -0.9 0  2.5 -0.9 0  2.55 -0.9 0  2.6 -0.9 0  2.65 -0.9 0  2.7 -0.9 0  2.75 -0.9 0  2.8 -0.9 0  2.85 -0.9 0  2.9 -0.9 0  2.95 -0.9 0  3 -0.9 0  3.050000000000001 -0.9 0  3.1 -0.9 0  3.15 -0.9 0  3.199999999999999 -0.9 0  3.25 -0.9 0  3.300000000000001 -0.9 0  3.35 -0.9 0  3.4 -0.9 0  3.449999999999999 -0.9 0  3.5 -0.9 0  3.550000000000001 -0.9 0  3.6 -0.9 0  3.65 -0.9 0  3.699999999999999 -0.9 0  3.75 -0.9 0  3.800000000000001 -0.9 0  3.85 -0.9 0  3.9 -0.9 0  3.949999999999999 -0.9 0  4 -0.9 0  4.050000000000001 -0.9 0  4.1 -0.9 0  4.15 -0.9 0  4.199999999999999 -0.9 0  4.25 -0.9 0  4.300000000000001 -0.9 0  4.35 -0.9 0  4.4 -0.9 0  4.449999999999999 -0.9 0  4.5 -0.9 0  4.550000000000001 -0.9 0  4.6 -0.9 0  4.65 -0.9 0  4.699999999999999 -0.9 0  4.75 -0.9 0  4.800000000000001 -0.9 0  4.85 -0.9 0  4.9 -0.9 0  4.949999999999999 -0.9 0  5 -0.9 0  -5 -0.85 0  -4.95 -0.85 0  -4.9 -0.85 0  -4.85 -0.85 0  -4.8 -0.85 0  -4.75 -0.85 0  -4.7 -0.85 0  -4.65 -0.85 0  -4.6 -0.85 0  -4.55 -0.85 0  -4.5 -0.85 0  -
[...]
<PointData  Vectors="f_15"> 
<DataArray  type="Float64"  Name="f_15"  NumberOfComponents="3" format="ascii">4.4573826302333446e+00 0.0000000000000000e+00 0.0000000000000000e+00  4.4544271299250804e+00 1.0675216625565141e-01 0.0000000000000000e+00  4.4509375928559365e+00 7.9569680954991923e-02 0.0000000000000000e+00  4.4565215721496108e+00 2.1697713395262841e-01 0.0000000000000000e+00  4.4529763846492223e+00 2.1962163072036112e-01 0.0000000000000000e+00  4.4518552779849543e+00 3.2835226252317851e-01 0.0000000000000000e+00  4.4536973285907147e+00 3.5496000551554979e-01 0.0000000000000000e+00  4.4544377710838559e+00 4.4683126588700928e-01 0.0000000000000000e+00  4.4484881124738802e+00 4.8900360282842953e-01 0.0000000000000000e+00  4.4556837913000651e+00 5.6563415377267257e-01 0.0000000000000000e+00  4.4500200376384909e+00 6.1751313370729999e-01 0.0000000000000000e+00  4.4514524149200394e+00 6.9442870630559728e-01 0.0000000000000000e+00  4.4502474234943508e+00 7.4053777801496401e-01 0.0000000000000000e+00  4.4531239439337460e+00 8.1979538383551132e-01 0.0000000000000000e+00  4.4457289198251670e+00 8.6917227804287744e-01 0.0000000000000000e+00  4.4532830521760696e+00 9.4409485758649936e-01 0.0000000000000000e+00  4.4464493044997653e+00 9.9668979966308058e-01 0.0000000000000000e+00  4.4491605143042277e+00 1.0675602940061721e+00 0.0000000000000000e+00  4.4458319314169428e+00 1.1230151326325286e+00 0.0000000000000000e+00  4.4492571268443344e+00 1.1960992652614657e+00 0.0000000000000000e+00  4.4418394232891796e+00 1.2458355265423664e+00 0.0000000000000000e+00  4.4478217262300337e+00 1.3207048568983952e+00 0.0000000000000000e+00  4.4414053192579743e+00 1.3734350149472565e+00 0.0000000000000000e+00  4.4437367620505341e+00 1.4463583588215512e+00 0.0000000000000000e+00  4.4394684363545327e+00 1.4961676298744717e+00 0.0000000000000000e+00  4.4423470954360775e+00 1.5736487155137984e+00 0.0000000000000000e+00  4.4357537344517137e+00 1.6207202532092233e+00 0.0000000000000000e+00  4.4395009957997580e+00 1.6976288722687689e+00 0.0000000000000000e+00  4.4338760575536416e+00 1.7475839934472954e+00 0.0000000000000000e+00  4.4357232065174133e+00 1.8212716940441569e+00 0.0000000000000000e+00  4.4305212432192080e+00 1.8718883550503584e+00 0.0000000000000000e+00  4.4331135331202871e+00 1.9470365126706584e+00 0.0000000000000000e+00  4.4269013688723344e+00 1.9970385353243354e+00 0.0000000000000000e+00  4.4290539750278475e+00 2.0693960067662371e+00 0.0000000000000000e+00  4.4238093442953170e+00 2.1240734768702518e+00 0.0000000000000000e+00  4.4253674283269646e+00 2.1931367470753260e+00 0.0000000000000000e+00  4.4192135854139272e+00 2.2466588953021640e+00 0.0000000000000000e+00  4.4217430351451439e+00 2.3211417829355985e+00 0.0000000000000000e+00  4.4154186176510324e+00 2.3676830317523434e+00 0.0000000000000000e+00  4.4166734515194559e+00 2.4465375751364213e+00 0.0000000000000000e+00  4.4112058008836339e+00 2.4934958376603706e+00 0.0000000000000000e+00  4.4128256864891240e+00 2.5669078821400877e+00 0.0000000000000000e+00  4.4055494166794569e+00 2.6221858064368111e+00 0.0000000000000000e+00  4.4081655258127501e+00 2.6866715422885203e+00 0.0000000000000000e+00  4.4014721815696776e+00 2.7493291285654520e+00 0.0000000000000000e+00  4.4020293146116991e+00 2.8078735263354986e+00 0.0000000000000000e+00  4.3962934959877300e+00 2.8755917417692185e+00 0.0000000000000000e+00  4.3977406463738440e+00 2.9292126479601137e+00 0.0000000000000000e+00  4.3895872670099987e+00 2.9999746375644829e+00 0.0000000000000000e+00  4.3921616527706364e+00 3.0551923120729927e+00 0.0000000000000000e+00  4.3848889432809477e+00 3.1169304499556816e+00 0.0000000000000000e+00  4.3850213393827930e+00 3.1868654060266781e+00 0.0000000000000000e+00  4.3788127675984958e+00 3.2339500787074007e+00 0.0000000000000000e+00  4.3798910780356701e+00 3.3099979920311768e+00 0.0000000000000000e+00  4.3713082920825856e+00 3.3639379176130677e+00 0.0000000000000000e+00  4.3731719736848893e+00 3.4214676080864699e+00 0.0000000000000000e+00  4.3659130775612702e+00 3.4979717414440792e+00 0.0000000000000000e+00  4.3650239584747172e+00 3.5363376417334744e+00 0.0000000000000000e+00  4.3588023890367200e+00 3.6233690590426044e+00 0.0000000000000000e+00  4.3590752063569091e+00 3.6601181348406109e+00 0.0000000000000000e+00  4.3501383506477564e+00 3.7407821963282211e+00 0.0000000000000000e+00  4.3515449111085065e+00 3.7884470733922568e+00 0.0000000000000000e+00  4.3435131830121909e+00 3.8580275156065791e+00 0.0000000000000000e+00  4.3424470308590148e+00 3.9095241836932177e+00 0.0000000000000000e+00  4.3355250105297571e+00 3.9863854437127206e+00 0.0000000000000000e+00  4.3349121058832596e+00 4.0224009947688160e+00 0.0000000000000000e+00  4.3264393407645363e+00 4.1097988457312162e+00 0.0000000000000000e+00  4.3255885254591240e+00 4.1526846354580416e+00 0.0000000000000000e+00  4.3192569681084336e+00 4.2134521441184454e+00 0.0000000000000000e+00  4.3147476773345224e+00 4.2867859212086792e+00 0.0000000000000000e+00  4.3107497628448606e+00 4.3349337366387397e+00 0.0000000000000000e+00  4.3052712507889215e+00 4.3904310441399126e+00 0.0000000000000000e+00  4.3010287595720511e+00 4.4754468540873882e+00 0.0000000000000000e+00  4.2943667624618023e+00 4.5007719526150742e+00 0.0000000000000000e+00  4.2925983417159852e+00 4.5856096047968853e+00 0.0000000000000000e+00  4.2822425784620846e+00 4.6414205984881187e+00 0.0000000000000000e+00  4.2829095172702125e+00 4.6859651687762671e+00 0.0000000000000000e+00  4.2710251305409628e+00 4.7633718765231610e+00 0.0000000000000000e+00  4.2721345937552089e+00 4.8168681362743744e+00 0.0000000000000000e+00  4.2585162465194628e+00 4.8636536929752152e+00 0.0000000000000000e+00  4.2619368041524348e+00 4.9443682004824216e+00 0.0000000000000000e+00  4.2455393552515552e+00 4.9858944279751967e+00 0.0000000000000000e+00  4.2493803159765218e+00 5.0462971490662474e+00 0.0000000000000000e+00  4.2345607342517235e+00 5.1179284197864492e+00 0.0000000000000000e+00  4.2345037825007337e+00 5.1569287627390157e+00 0.0000000000000000e+00  4.2227683586581719e+00 5.2286750046195678e+00 0.0000000000000000e+00  4.2206263325863151e+00 5.2841615382743470e+00 0.0000000000000000e+00  4.2087026782635073e+00 5.3351722986933945e+00 0.0000000000000000e+00  4.2064139831943859e+00 5.4001194970843418e+00 0.0000000000000000e+00  4.1958549936772878e+00 5.4554969527225126e+00 0.0000000000000000e+00  4.1893175509669289e+00 5.5062389086209471e+00 0.0000000000000000e+00  4.1830938438223342e+00 5.5729069859551155e+00 0.0000000000000000e+00  4.1734201064706298e+00 5.6211751067389342e+00 0.0000000000000000e+00  4.1646874181293532e+00 5.6820580114672010e+00 0.0000000000000000e+00  4.1612462388698832e+00 5.7351495584301917e+00 0.0000000000000000e+00  4.1464599390231340e+00 5.7937973082691911e+00 0.0000000000000000e+00  4.1433695128863501e+00 5.8438692176780496e+00 0.0000000000000000e+00  4.1304904456870686e+00 5.9084843455421368e+00 0.0000000000000000e+00  4.1237349405831587e+00 5.9538624067735864e+00 0.0000000000000000e+00  4.1153332916892680e+00 6.0110299976158412e+00 0.0000000000000000e+00  4.1086578871765385e+00 6.0630797716264020e+00 0.0000000000000000e+00  4.0968729701607964e+00 6.1138061369111698e+00 0.0000000000000000e+00  4.0858741234553975e+00 6.1774769455030496e+00 0.0000000000000000e+00  4.0766380936390023e+00 6.2223754398110129e+00 0.0000000000000000e+00  4.0652647174446548e+00 6.2834668027709588e+00 0.0000000000000000e+00  4.0542486893440950e+00 6.3304802762674157e+00 0.0000000000000000e+00  4.0442550822173997e+00 6.3877869489742292e+00 0.0000000000000000e+00  4.0340314216308633e+00 6.4341814629535801e+00 0.0000000000000000e+00  4.0189571529669577e+00 6.4932032427996571e+00 0.0000000000000000e+00  4.0139333511077986e+00 6.5352276408530434e+00 0.0000000000000000e+00  3.9959904677983782e+00 6.5951533906683117e+00 0.0000000000000000e+00  3.9859395760024459e+00 6.6413075273786699e+00 0.0000000000000000e+00  3.9767379690489522e+00 6.6894758843834925e+00 0.0000000000000000e+00  3.9616835042429535e+00 6.7407905828981507e+00 0.0000000000000000e+00  3.9487268720102846e+00 6.7910282464845428e+00 0.0000000000000000e+00  3.9408653137384988e+00 6.8334650651913584e+00 0.0000000000000000e+00  3.9209417317544366e+00 6.8900229855125605e+00 0.0000000000000000e+00  3.9150480955546501e+00 6.9287646467616986e+00 0.0000000000000000e+00  3.8967037781794382e+00 6.9818955956068747e+00 0.0000000000000000e+00  3.8879850808550294e+00 7.0219572121524951e+00 0.0000000000000000e+00  3.8688008721842122e+00 7.0755951183568202e+00 0.0000000000000000e+00  3.8589999138350120e+00 7.1151850897313755e+00 0.0000000000000000e+00  3.8392179925452012e+00 7.1672361984152611e+00 0.0000000000000000e+00  3.8332233410964940e+00 7.2015340810225865e+00 0.0000000000000000e+00  3.8124393927310951e+00 7.2528084460764921e+00 0.0000000000000000e+00  3.8043569128947046e+00 7.2879141370188290e+00 0.0000000000000000e+00  3.7849342281661258e+00 7.3369254272134654e+00 0.0000000000000000e+00  3.7765048285954719e+00 7.3675271325988589e+00 0.0000000000000000e+00  3.7570923113211760e+00 7.4187533498030671e+00 0.0000000000000000e+00  3.7507205546639306e+00 7.4412114627752093e+00 0.0000000000000000e+00  3.7995957382224992e+00 7.3848737848186179e+00 0.0000000000000000e+00  3.8472877223453059e+00 7.3167429010464513e+00 0.0000000000000000e+00  3.8808470724213340e+00 7.2851505233375553e+00 0.0000000000000000e+00  3.8875880292240521e+00 7.2744959656174171e+00 0.0000000000000000e+00  3.9059724613239055e+00 7.2810940562800859e+00 0.0000000000000000e+00  3.8969791756019760e+00 7.2753155187423424e+00 0.0000000000000000e+00  3.9203767458854202e+00 7.2873901790867803e+00 0.0000000000000000e+00  3.9073365023855589e+00 7.2794168381818567e+00 0.0000000000000000e+00  3.9270284001205127e+00 7.2952013777350109e+00 0.0000000000000000e+00  3.9183226035741652e+00 7.2862522234887113e+00 0.0000000000000000e+00  3.9307855900118400e+00 7.2985737587996722e+00 0.0000000000000000e+00  3.9267129286168645e+00 7.2992192775742044e+00 0.0000000000000000e+00  3.9289882081874516e+00 7.2988005617167415e+00 0.0000000000000000e+00  3.9367547301505739e+00 7.3258097025316822e+00 0.0000000000000000e+00  3.9068221645991810e+00 7.2675464705511015e+00 0.0000000000000000e+00  3.9803416906560662e+00 7.4218834047030580e+00 0.0000000000000000e+00  3.8407214675411971e+00 7.1043896549974077e+00 0.0000000000000000e+00  4.0497869247394620e+00 7.7152559334793063e+00 0.0000000000000000e+00  3.8982856046164351e+00 6.5504814388919730e+00 0.0000000000000000e+00  3.6802162783934986e+00 8.7006850155233675e+00 0.0000000000000000e+00  5.4613082257272536e+00 4.2665374400865543e+00 0.0000000000000000e+00  9.1822995696915388e+00 3.0519915138521436e-01 0.0000000000000000e+00  9.5534123837279061e+00 1.7095934941193903e-03 0.0000000000000000e+00  9.3961769283949312e+00 5.7425456020378770e-03 0.0000000000000000e+00  9.4832134185157049e+00 -2.6866192265833998e-02 0.0000000000000000e+00  9.4724662735676599e+00 -1.6822158594218151e-02 0.0000000000000000e+00  9.4904471711198575e+00 -4.5733346280722863e-02 0.0000000000000000e+00  9.4979788420131328e+00 -4.7310572466482875e-02 0.0000000000000000e+00  9.4800104235145586e+00 -2.8034356316545116e-02 0.0000000000000000e+00  9.4915974817845594e+00 -4.4436558679433018e-02 0.0000000000000000e+00  9.4914520655890247e+00 -3.5316079371731084e-02 0.0000000000000000e+00  9.4939726308328698e+00 -4.7241283724992478e-02 0.0000000000000000e+00  9.4918007012691845e+00 -3.3801485093111296e-02 0.0000000000000000e+00  9.4928194750949384e+00 -4.1829118979835260e-02 0.0000000000000000e+00  9.4932102614161664e+00 -3.6735038100566497e-02 0.0000000000000000e+00  9.4963382296516610e+00 -4.0182847810138790e-02 0.0000000000000000e+00  9.4923330577905585e+00 -3.6511557041404012e-02 0.0000000000000000e+00  9.4958464160761054e+00 -3.7527575978767692e-02 0.0000000000000000e+00  9.4949580560673912e+00 -3.9515127967891056e-02 0.0000000000000000e+00  9.4948052444815882e+00 -3.5587535661869403e-02 0.0000000000000000e+00  9.4960904176099490e+00 -4.3241330575694382e-02 0.0000000000000000e+00  9.4953224527700115e+00 -3.5214872927142517e-02 0.0000000000000000e+00  9.4954953933942292e+00 -4.3669636283236835e-02 0.0000000000000000e+00  9.4965671177421793e+00 -3.9012720150137133e-02 0.0000000000000000e+00  9.4956244445034450e+00 -4.3676801309381806e-02 0.0000000000000000e+00  9.4960228931843442e+00 -4.1374950981329359e-02 0.0000000000000000e+00  9.4971254152516664e+00 -4.5767244780626867e-02 0.0000000000000000e+00  9.4951982399138046e+00 -4.5267628074184607e-02 0.0000000000000000e+00  9.4977249433058617e+00 -4.9036510721523187e-02 0.0000000000000000e+00  9.4959603195227320e+00 -5.3530226332341065e-02 0.0000000000000000e+00  9.4968998084542715e+00 -5.3132207652160889e-02 0.0000000000000000e+00  9.4969489689286064e+00 -6.2400186801679677e-02 0.0000000000000000e+00  9.4974229540481563e+00 -5.9248845712481103e-02 0.0000000000000000e+00  9.4959811567004486e+00 -6.7998777198730223e-02 0.0000000000000000e+00  9.4989417807376295e+00 -6.3550874064637608e-02 0.0000000000000000e+00  9.4959432698328836e+00 -7.9944779150128334e-02 0.0000000000000000e+00  9.4983706525119640e+00 -8.0249365038663395e-02 0.0000000000000000e+00  9.4972572428917648e+00 -9.9337596837230854e-02 0.0000000000000000e+00  9.4981356105558810e+00 -9.9590903567997227e-02 0.0000000000000000e+00  9.4969674993552342e+00 -1.1787343924794488e-01 0.0000000000000000e+00  9.4991250690220177e+00 -1.1040861341678140e-01 0.0000000000000000e+00  9.4967103515874332e+00 -1.2542867136559954e-01 0.0000000000000000e+00  9.4992041359114019e+00 -1.0660848623358868e-01 0.0000000000000000e+00  9.4973965617396754e+00 -1.1051124246119785e-01 0.0000000000000000e+00  9.4989680640176246e+00 -1.0039953897823205e-01 0.0000000000000000e+00  9.4979621544032433e+00 -9.2067197663706246e-02 0.0000000000000000e+00  9.4988960015236295e+00 -9.3306166621985390e-02 0.0000000000000000e+00  9.4980859773852142e+00 -7.2729232878247382e-02 0.0000000000000000e+00  9.4993590143600173e+00 -1.0555963337840714e-01 0.0000000000000000e+00  9.4979610565952353e+00 -2.5960907553376260e-02 0.0000000000000000e+00  9.4996094926768286e+00 0.0000000000000000e+00 0.0000000000000000e+00  4.4602015716509467e+00 0.0000000000000000e+00 -2.5747667393453039e-02  4.4540458330388271e+00 5.0085740977203662e-02 -5.8558608664628399e-03  4.4615216842357102e+00 1.4377155460629448e-01 2.6551831137979973e-02  4.4579877743094150e+00 1.8871534665082365e-01 -2.0374031283464270e-02  4.4563465091929517e+00 2.5950078209605226e-01 1.8168681987255110e-02  4.4596936522288448e+00 3.1539924197172348e-01 -1.5808943672907173e-02  4.4585515675782403e+00 3.8642237765907372e-01 1.3609600286727018e-02  4.4547824293710354e+00 4.3978528395039312e-01 -1.1046075921328165e-02  4.4592218940909989e+00 5.0829587707602975e-01 7.7402938869631259e-03  4.4564141881727979e+00 5.6692282296236263e-01 -4.7289709875453258e-03  4.4540234131802761e+00 6.3369706619612065e-01 2.4868214207924631e-03  4.4564145289131396e+00 6.8931363409944502e-01 -1.2030427701417313e-03  4.4549666853122165e+00 7.5735019141280391e-01 -4.0981602666726277e-04  4.4511166750436129e+00 8.1861935338218961e-01 2.5798134004917797e-03  4.4544576149372004e+00 8.7714769541936377e-01 -4.3260867301537680e-03  4.4512839930601551e+00 9.4532630980440202e-01 4.6582940154069599e-03  4.4494376489965317e+00 1.0009869893667476e+00 -4.6186222833613571e-03  4.4501165819065216e+00 1.0702848980456863e+00 4.9326595735090968e-03  4.4491247987685716e+00 1.1267810482751555e+00 -5.0400734925798588e-03  4.4453206743695821e+00 1.1925399055984249e+00 4.2672949122820082e-03  4.4474671612341741e+00 1.2521046653029202e+00 -3.4892115104587277e-03  4.4444948138084008e+00 1.3191778619332382e+00 3.6601654491523450e-03  4.4430035969939699e+00 1.3754986740853385e+00 -3.9497565932865193e-03  4.4423100183566131e+00 1.4424880322881335e+00 3.5142439422940585e-03  4.4416848250313565e+00 1.5026828159191858e+00 -2.8846580498183704e-03  4.4381601794478689e+00 1.5666434472961279e+00 2.6519430310288179e-03  4.4389666075431284e+00 1.6262174786736432e+00 -2.4402539121162340e-03  4.4363495777656530e+00 1.6930820855749671e+00 1.8879715305076426e-03  4.4349903053743418e+00 1.7505415814447540e+00 -1.1414337230485120e-03  4.4332369457607257e+00 1.8164876182422844e+00 3.2712186824890234e-04  4.4324336793877768e+00 1.8777278192215205e+00 6.8595295620565099e-04  4.4297066049165261e+00 1.9396329829916803e+00 -1.7518807512623196e-03  4.4284252294057218e+00 2.0023347914353060e+00 2.7058936143257149e-03  4.4270050130065322e+00 2.0648312059705187e+00 -3.5160460600755683e-03  4.4245790099648996e+00 2.1278239884861421e+00 4.2021334942653017e-03  4.4227998319651860e+00 2.1866479643619834e+00 -4.5727350832121295e-03  4.4210582354082986e+00 2.2557540068063369e+00 4.6236066344736157e-03  4.4191738599998427e+00 2.3089651699638614e+00 -4.4643916703147974e-03  4.4161030279907054e+00 2.3798152738539908e+00 4.3688083655482463e-03  4.4153656639237058e+00 2.4356580785725925e+00 -4.5487294889327411e-03  4.4121111593461642e+00 2.5013214813433939e+00 5.0835720804534024e-03  4.4102065933923740e+00 2.5614300105085852e+00 -5.7387328733839414e-03  4.4074320526424833e+00 2.6256142479180888e+00 6.2002055299542830e-03  4.4064319967674148e+00 2.6840056521677007e+00 -6.3094518356174656e-03  4.4013895929080213e+00 2.7511574596799004e+00 6.1614842278338057e-03  4.4015882625967144e+00 2.8071489271262897e+00 -5.9155644923434038e-03  4.3971030094127004e+00 2.8747911705953948e+00 5.7980337134046506e-03  4.3952694246439679e+00 2.9307837433100912e+00 -5.8230710601969334e-03  4.3915684799476580e+00 3.0000527417782488e+00 5.8978577888714866e-03  4.3908514251646977e+00 3.0505853357591617e+00 -5.8562137079003432e-03  4.3846072012755721e+00 3.1276785788199701e+00 5.6055154980762713e-03  4.3849149816445783e+00 3.1719782605546532e+00 -5.1621554607591998e-03  4.3798000074303829e+00 3.2481954831793427e+00 4.6199825303182614e-03  4.3774263337497450e+00 3.3017802851896723e+00 -4.1085252744231587e-03  4.3734789508865477e+00 3.3634862734146815e+00 3.6324586350667365e-03  4.3720249422241109e+00 3.4294055724827932e+00 -3.1788285368015102e-03  4.3657834439225631e+00 3.4858611520075198e+00 2.5051425474748165e-03  4.3647535141424720e+00 3.5490145664611399e+00 -1.4662955447663484e-03  4.3605558552463703e+00 3.6118850539832397e+00 -1.5645147458310980e-05  4.3556873330530079e+00 3.6688824736533361e+00 1.6201559223642794e-03  4.3537557508503415e+00 3.7347981408968032e+00 -2.8470093133998241e-03  4.3489793824673777e+00 3.7917953383712528e+00 3.1481198577259090e-03  4.3448613393291744e+00 3.8535562411987621e+00 -2.4937293586709459e-03  4.3413659255498036e+00 3.9185219475427191e+00 1.3343773380313519e-03  4.3374335844210119e+00 3.9704180624566949e+00 -4.9041264292380574e-04  4.3323133684567550e+00 4.0398669557919451e+00 4.0959658875069249e-04  4.3288488110614303e+00 4.0984857541728985e+00 -1.0309547605652674e-03  4.3244859434654153e+00 4.1501718178382436e+00 1.7551200968846173e-03  4.3192596902865414e+00 4.2254515132153241e+00 -2.1770637357302535e-03  4.3150269131726899e+00 4.2758725200344996e+00 2.2228695103149940e-03  4.3111917366903123e+00 4.3304148293516418e+00 -2.2315970310061079e-03  4.3043027437365176e+00 4.4117461374833304e+00 2.4247563790952180e-03  4.3016018205833220e+00 4.4458910608733646e+00 -2.7200142153757114e-03  4.2949958805415722e+00 4.5208651962526449e+00 2.8590334503108606e-03  4.2907260901398727e+00 4.5832259620019968e+00 -2.7585577886440485e-03  4.2841933099088818e+00 4.6283952165463393e+00 2.6149962508262938e-03  4.2813506932626959e+00 4.6987075476844256e+00 -2.8219121340634467e-03  4.2716246144530725e+00 4.7633388785758539e+00 3.4508203481406503e-03  4.2709887096281829e+00 4.7996179749915777e+00 -4.1730402829560781e-03  4.2601947414569876e+00 4.8884788979399518e+00 4.4563183853088498e-03  4.2586775774476608e+00 4.9246120080615192e+00 -3.9486160222346146e-03  4.2484731051136455e+00 4.9906567852417885e+00 2.7917892251410580