<?xml version="1.0"?>
<VTKFile type="UnstructuredGrid"  version="0.1"  >
<UnstructuredGrid>
<Piece  NumberOfPoints="8241" NumberOfCells="16000">
<Points>
<DataArray  type="Float64"  NumberOfComponents="3"  format="ascii">-5 -1 0  -4.95 -1 0  -4.9 -1 0  -4.85 -1 0  -4.8 -1 0  -4.75 -1 0  -4.7 -1 0  -4.65 -1 0  -4.6 -1 0  -4.55 -1 0  -4.5 -1 0  -4.45 -1 0  -4.4 -1 0  -4.35 -1 0  -4.3 -1 0  -4.25 -1 0  -4.2 -1 0  -4.15 -1 0  -4.1 -1 0  -4.05 -1 0  -4 -1 0  -3.95 -1 0  -3.9 -1 0  -3.85 -1 0  -3.8 -1 0  -3.75 -1 0  -3.7 -1 0  -3.65 -1 0  -3.6 -1 0  -3.55 -1 0  -3.5 -1 0  -3.45 -1 0  -3.4 -1 0  -3.35 -1 0  -3.3 -1 0  -3.25 -1 0  -3.2 -1 0  -3.15 -1 0  -3.1 -1 0  -3.05 -1 0  -3 -1 0  -2.95 -1 0  -2.9 -1 0  -2.85 -1 0  -2.8 -1 0  -2.75 -1 0  -2.7 -1 0  -2.65 -1 0  -2.6 -1 0  -2.55 -1 0  -2.5 -1 0  -2.45 -1 0  -2.4 -1 0  -2.35 -1 0  -2.3 -1 0  -2.25 -1 0  -2.2 -1 0  -2.15 -1 0  -2.1 -1 0  -2.05 -1 0  -2 -1 0  -1.95 -1 0  -1.9 -1 0  -1.85 -1 0  -1.8 -1 0  -1.75 -1 0  -1.7 -1 0  -1.65 -1 0  -1.6 -1 0  -1.55 -1 0  -1.5 -1 0  -1.45 -1 0  -1.4 -1 0  -1.35 -1 0  -1.3 -1 0  -1.25 -1 0  -1.2 -1 0  -1.15 -1 0  -1.1 -1 0  -1.05 -1 0  -1 -1 0  -0.9500000000000002 -1 0  -0.9000000000000004 -1 0  -0.8499999999999996 -1 0  -0.7999999999999998 -1 0  -0.75 -1 0  -0.7000000000000002 -1 0  -0.6500000000000004 -1 0  -0.5999999999999996 -1 0  -0.5499999999999998 -1 0  -0.5 -1 0  -0.4500000000000002 -1 0  -0.4000000000000004 -1 0  -0.3499999999999996 -1 0  -0.2999999999999998 -1 0  -0.25 -1 0  -0.2000000000000002 -1 0  -0.1500000000000004 -1 0  -0.09999999999999964 -1 0  -0.04999999999999982 -1 0  0 -1 0  0.04999999999999982 -1 0  0.09999999999999964 -1 0  0.1500000000000004 -1 0  0.2000000000000002 -1 0  0.25 -1 0  0.2999999999999998 -1 0  0.3499999999999996 -1 0  0.4000000000000004 -1 0  0.4500000000000002 -1 0  0.5 -1 0  0.5499999999999998 -1 0  0.5999999999999996 -1 0  0.6500000000000004 -1 0  0.7000000000000002 -1 0  0.75 -1 0  0.7999999999999998 -1 0  0.8499999999999996 -1 0  0.9000000000000004 -1 0  0.9500000000000002 -1 0  1 -1 0  1.05 -1 0  1.1 -1 0  1.15 -1 0  1.2 -1 0  1.25 -1 0  1.3 -1 0  1.35 -1 0  1.4 -1 0  1.45 -1 0  1.5 -1 0  1.55 -1 0  1.6 -1 0  1.65 -1 0  1.7 -1 0  1.75 -1 0  1.8 -1 0  1.85 -1 0  1.9 -1 0  1.95 -1 0  2 -1 0  2.05 -1 0  2.1 -1 0  2.15 -1 0  2.2 -1 0  2.25 -1 0  2.3 -1 0  2.35 -1 0  2.4 -1 0  2.45 -1 0  2.5 -1 0  2.55 -1 0  2.6 -1 0  2.65 -1 0  2.7 -1 0  2.75 -1 0  2.8 -1 0  2.85 -1 0  2.9 -1 0  2.95 -1 0  3 -1 0  3.050000000000001 -1 0  3.1 -1 0  3.15 -1 0  3.199999999999999 -1 0  3.25 -1 0  3.300000000000001 -1 0  3.35 -1 0  3.4 -1 0  3.449999999999999 -1 0  3.5 -1 0  3.550000000000001 -1 0  3.6 -1 0  3.65 -1 0  3.699999999999999 -1 0  3.75 -1 0  3.800000000000001 -1 0  3.85 -1 0  3.9 -1 0  3.949999999999999 -1 0  4 -1 0  4.050000000000001 -1 0  4.1 -1 0  4.15 -1 0  4.199999999999999 -1 0  4.25 -1 0  4.300000000000001 -1 0  4.35 -1 0  4.4 -1 0  4.449999999999999 -1 0  4.5 -1 0  4.550000000000001 -1 0  4.6 -1 0  4.65 -1 0  4.699999999999999 -1 0  4.75 -1 0  4.800000000000001 -1 0  4.85 -1 0  4.9 -1 0  4.949999999999999 -1 0  5 -1 0  -5 -0.95 0  -4.95 -0.95 0  -4.9 -0.95 0  -4.85 -0.95 0  -4.8 -0.95 0  -4.75 -0.95 0  -4.7 -0.95 0  -4.65 -0.95 0  -4.6 -0.95 0  -4.55 -0.95 0  -4.5 -0.95 0  -4.45 -0.95 0  -4.4 -0.95 0  -4.35 -0.95 0  -4.3 -0.95 0  -4.25 -0.95 0  -4.2 -0.95 0  -4.15 -0.95 0  -4.1 -0.95 0  -4.05 -0.95 0  -4 -0.95 0  -3.95 -0.95 0  -3.9 -0.95 0  -3.85 -0.95 0  -3.8 -0.95 0  -3.75 -0.95 0  -3.7 -0.95 0  -3.65 -0.95 0  -3.6 -0.95 0  -3.55 -0.95 0  -3.5 -0.95 0  -3.45 -0.95 0  -3.4 -0.95 0  -3.35 -0.95 0  -3.3 -0.95 0  -3.25 -0.95 0  -3.2 -0.95 0  -3.15 -0.95 0  -3.1 -0.95 0  -3.05 -0.95 0  -3 -0.95 0  -2.95 -0.95 0  -2.9 -0.95 0  -2.85 -0.95 0  -2.8 -0.95 0  -2.75 -0.95 0  -2.7 -0.95 0  -2.65 -0.95 0  -2.6 -0.95 0  -2.55 -0.95 0  -2.5 -0.95 0  -2.45 -0.95 0  -2.4 -0.95 0  -2.35 -0.95 0  -2.3 -0.95 0  -2.25 -0.95 0  -2.2 -0.95 0  -2.15 -0.95 0  -2.1 -0.95 0  -2.05 -0.95 0  -2 -0.95 0  -1.95 -0.95 0  -1.9 -0.95 0  -1.85 -0.95 0  -1.8 -0.95 0  -1.75 -0.95 0  -1.7 -0.95 0  -1.65 -0.95 0  -1.6 -0.95 0  -1.55 -0.95 0  -1.5 -0.95 0  -1.45 -0.95 0  -1.4 -0.95 0  -1.35 -0.95 0  -1.3 -0.95 0  -1.25 -0.95 0  -1.2 -0.95 0  -1.15 -0.95 0  -1.1 -0.95 0  -1.05 -0.95 0  -1 -0.95 0  -0.9500000000000002 -0.95 0  -0.9000000000000004 -0.95 0  -0.8499999999999996 -0.95 0  -0.7999999999999998 -0.95 0  -0.75 -0.95 0  -0.7000000000000002 -0.95 0  -0.6500000000000004 -0.95 0  -0.5999999999999996 -0.95 0  -0.5499999999999998 -0.95 0  -0.5 -0.95 0  -0.4500000000000002 -0.95 0  -0.4000000000000004 -0.95 0  -0.3499999999999996 -0.95 0  -0.2999999999999998 -0.95 0  -0.25 -0.95 0  -0.2000000000000002 -0.95 0  -0.1500000000000004 -0.95 0  -0.09999999999999964 -0.95 0  -0.04999999999999982 -0.95 0  0 -0.95 0  0.04999999999999982 -0.95 0  0.09999999999999964 -0.95 0  0.1500000000000004 -0.95 0  0.2000000000000002 -0.95 0  0.25 -0.95 0  0.2999999999999998 -0.95 0  0.3499999999999996 -0.95 0  0.4000000000000004 -0.95 0  0.4500000000000002 -0.95 0  0.5 -0.95 0  0.5499999999999998 -0.95 0  0.5999999999999996 -0.95 0  0.6500000000000004 -0.95 0  0.7000000000000002 -0.95 0  0.75 -0.95 0  0.7999999999999998 -0.95 0  0.8499999999999996 -0.95 0  0.9000000000000004 -0.95 0  0.9500000000000002 -0.95 0  1 -0.95 0  1.05 -0.95 0  1.1 -0.95 0  1.15 -0.95 0  1.2 -0.95 0  1.25 -0.95 0  1.3 -0.95 0  1.35 -0.95 0  1.4 -0.95 0  1.45 -0.95 0  1.5 -0.95 0  1.55 -0.95 0  1.6 -0.95 0  1.65 -0.95 0  1.7 -0.95 0  1.75 -0.95 0  1.8 -0.95 0  1.85 -0.95 0  1.9 -0.95 0  1.95 -0.95 0  2 -0.95 0  2.05 -0.95 0  2.1 -0.95 0  2.15 -0.95 0  2.2 -0.95 0  2.25 -0.95 0  2.3 -0.95 0  2.35 -0.95 0  2.4 -0.95 0  2.45 -0.95 0  2.5 -0.95 0  2.55 -0.95 0  2.6 -0.95 0  2.65 -0.95 0  2.7 -0.95 0  2.75 -0.95 0  2.8 -0.95 0  2.85 -0.95 0  2.9 -0.95 0  2.95 -0.95 0  3 -0.95 0  3.050000000000001 -0.95 0  3.1 -0.95 0  3.15 -0.95 0  3.199999999999999 -0.95 0  3.25 -0.95 0  3.300000000000001 -0.95 0  3.35 -0.95 0  3.4 -0.95 0  3.449999999999999 -0.95 0  3.5 -0.95 0  3.550000000000001 -0.95 0  3.6 -0.95 0  3.65 -0.95 0  3.699999999999999 -0.95 0  3.75 -0.95 0  3.800000000000001 -0.95 0  3.85 -0.95 0  3.9 -0.95 0  3.949999999999999 -0.95 0  4 -0.95 0  4.050000000000001 -0.95 0  4.1 -0.95 0  4.15 -0.95 0  4.199999999999999 -0.95 0  4.25 -0.95 0  4.300000000000001 -0.95 0  4.35 -0.95 0  4.4 -0.95 0  4.449999999999999 -0.95 0  4.5 -0.95 0  4.550000000000001 -0.95 0  4.6 -0.95 0  4.65 -0.95 0  4.699999999999999 -0.95 0  4.75 -0.95 0  4.800000000000001 -0.95 0  4.85 -0.95 0  4.9 -0.95 0  4.949999999999999 -0.95 0  5 -0.95 0  -5 -0.9 0  -4.95 -0.9 0  -4.9 -0.9 0  -4.85 -0.9 0  -4.8 -0.9 0  -4.75 -0.9 0  -4.7 -0.9 0  -4.65 -0.9 0  -4.6 -0.9 0  -4.55 -0.9 0  -4.5 -0.9 0  -4.45 -0.9 0  -4.4 -0.9 0  -4.35 -0.9 0  -4.3 -0.9 0  -4.25 -0.9 0  -4.2 -0.9 0  -4.15 -0.9 0  -4.1 -0.9 0  -4.05 -0.9 0  -4 -0.9 0  -3.95 -0.9 0  -3.9 -0.9 0  -3.85 -0.9 0  -3.8 -0.9 0  -3.75 -0.9 0  -3.7 -0.9 0  -3.65 -0.9 0  -3.6 -0.9 0  -3.55 -0.9 0  -3.5 -0.9 0  -3.45 -0.9 0  -3.4 -0.9 0  -3.35 -0.9 0  -3.3 -0.9 0  -3.25 -0.9 0  -3.2 -0.9 0  -3.15 -0.9 0  -3.1 -0.9 0  -3.05 -0.9 0  -3 -0.9 0  -2.95 -0.9 0  -2.9 -0.9 0  -2.85 -0.9 0  -2.8 -0.9 0  -2.75 -0.9 0  -2.7 -0.9 0  -2.65 -0.9 0  -2.6 -0.9 0  -2.55 -0.9 0  -2.5 -0.9 0  -2.45 -0.9 0  -2.4 -0.9 0  -2.35 -0.9 0  -2.3 -0.9 0  -2.25 -0.9 0  -2.2 -0.9 0  -2.15 -0.9 0  -2.1 -0.9 0  -2.05 -0.9 0  -2 -0.9 0  -1.95 -0.9 0  -1.9 -0.9 0  -1.85 -0.9 0  -1.8 -0.9 0  -1.75 -0.9 0  -1.7 -0.9 0  -1.65 -0.9 0  -1.6 -0.9 0  -1.55 -0.9 0  -1.5 -0.9 0  -1.45 -0.9 0  -1.4 -0.9 0  -1.35 -0.9 0  -1.3 -0.9 0  -1.25 -0.9 0  -1.2 -0.9 0  -1.15 -0.9 0  -1.1 -0.9 0  -1.05 -0.9 0  -1 -0.9 0  -0.9500000000000002 -0.9 0  -0.9000000000000004 -0.9 0  -0.8499999999999996 -0.9 0  -0.7999999999999998 -0.9 0  -0.75 -0.9 0  -0.7000000000000002 -0.9 0  -0.6500000000000004 -0.9 0  -0.5999999999999996 -0.9 0  -0.5499999999999998 -0.9 0  -0.5 -0.9 0  -0.4500000000000002 -0.9 0  -0.4000000000000004 -0.9 0  -0.3499999999999996 -0.9 0  -0.2999999999999998 -0.9 0  -0.25 -0.9 0  -0.2000000000000002 -0.9 0  -0.1500000000000004 -0.9 0  -0.09999999999999964 -0.9 0  -0.04999999999999982 -0.9 0  0 -0.9 0  0.04999999999999982 -0.9 0  0.09999999999999964 -0.9 0  0.1500000000000004 -0.9 0  0.2000000000000002 -0.9 0  0.25 -0.9 0  0.2999999999999998 -0.9 0  0.3499999999999996 -0.9 0  0.4000000000000004 -0.9 0  0.4500000000000002 -0.9 0  0.5 -0.9 0  0.5499999999999998 -0.9 0  0.5999999999999996 -0.9 0  0.6500000000000004 -0.9 0  0.7000000000000002 -0.9 0  0.75 -0.9 0  0.7999999999999998 -0.9 0  0.8499999999999996 -0.9 0  0.9000000000000004 -0.9 0  0.9500000000000002 -0.9 0  1 -0.9 0  1.05 -0.9 0  1.1 -0.9 0  1.15 -0.9 0  1.2 -0.9 0  1.25 -0.9 0  1.3 -0.9 0  1.35 -0.9 0  1.4 -0.9 0  1.45 -0.9 0  1.5 -0.9 0  1.55 -0.9 0  1.6 -0.9 0  1.65 -0.9 0  1.7 -0.9 0  1.75 -0.9 0  1.8 -0.9 0  1.85 -0.9 0  1.9 -0.9 0  1.95 -0.9 0  2 -0.9 0  2.05 -0.9 0  2.1 -0.9 0  2.15 -0.9 0  2.2 -0.9 0  2.25 -0.9 0  2.3 -0.9 0  2.35 -0.9 0  2.4 -0.9 0  2.45 -0.9 0  2.5 -0.9 0  2.55 -0.9 0  2.6 -0.9 0  2.65 -0.9 0  2.7 -0.9 0  2.75 -0.9 0  2.8 -0.9 0  2.85 -0.9 0  2.9 -0.9 0  2.95 -0.9 0  3 -0.9 0  3.050000000000001 -0.9 0  3.1 -0.9 0  3.15 -0.9 0  3.199999999999999 -0.9 0  3.25 -0.9 0  3.300000000000001 -0.9 0  3.35 -0.9 0  3.4 -0.9 0  3.449999999999999 -0.9 0  3.5 -0.9 0  3.550000000000001 -0.9 0  3.6 -0.9 0  3.65 -0.9 0  3.699999999999999 -0.9 0  3.75 -0.9 0  3.800000000000001 -0.9 0  3.85 -0.9 0  3.9 -0.9 0  3.949999999999999 -0.9 0  4 -0.9 0  4.050000000000001 -0.9 0  4.1 -0.9 0  4.15 -0.9 0  4.199999999999999 -0.9 0  4.25 -0.9 0  4.300000000000001 -0.9 0  4.35 -0.9 0  4.4 -0.9 0  4.449999999999999 -0.9 0  4.5 -0.9 0  4.550000000000001 -0.9 0  4.6 -0.9 0  4.65 -0.9 0  4.699999999999999 -0.9 0  4.75 -0.9 0  4.800000000000001 -0.9 0  4.85 -0.9 0  4.9 -0.9 0  4.949999999999999 -0.9 0  5 -0.9 0  -5 -0.85 0  -4.95 -0.85 0  -4.9 -0.85 0  -4.85 -0.85 0  -4.8 -0.85 0  -4.75 -0.85 0  -4.7 -0.85 0  -4.65 -0.85 0  -4.6 -0.85 0  -4.55 -0.85 0  -4.5 -0.85 0  -
[...]
<PointData  Vectors="f_15"> 
<DataArray  type="Float64"  Name="f_15"  NumberOfComponents="3" format="ascii">2.2773593339628264e+00 0.0000000000000000e+00 0.0000000000000000e+00  2.2783822335903183e+00 4.5804807972388686e-02 0.0000000000000000e+00  2.2766081647623921e+00 7.2012490820467734e-02 0.0000000000000000e+00  2.2789692674450044e+00 9.1668737051242635e-02 0.0000000000000000e+00  2.2771421417063720e+00 1.2157353351429813e-01 0.0000000000000000e+00  2.2775050415349187e+00 1.7380419568950467e-01 0.0000000000000000e+00  2.2784343574258776e+00 1.6251905267035102e-01 0.0000000000000000e+00  2.2775348670981179e+00 2.5703951067799913e-01 0.0000000000000000e+00  2.2773855214752179e+00 2.2964694429457150e-01 0.0000000000000000e+00  2.2782104132194534e+00 2.8249612827080633e-01 0.0000000000000000e+00  2.2781063561273922e+00 3.5315363288743290e-01 0.0000000000000000e+00  2.2763920513345517e+00 3.0264535938231008e-01 0.0000000000000000e+00  2.2790027414851455e+00 4.1060689508203141e-01 0.0000000000000000e+00  2.2772044606357387e+00 4.2733157672027294e-01 0.0000000000000000e+00  2.2770732948642798e+00 3.9975259791673778e-01 0.0000000000000000e+00  2.2782391080392861e+00 5.3010858332917488e-01 0.0000000000000000e+00  2.2775279202523175e+00 4.8102979425224640e-01 0.0000000000000000e+00  2.2770120529358926e+00 5.4540231942255857e-01 0.0000000000000000e+00  2.2777282107855599e+00 5.8427503703560479e-01 0.0000000000000000e+00  2.2780502992021550e+00 6.0130305994136535e-01 0.0000000000000000e+00  2.2762731037495842e+00 6.3849127735227196e-01 0.0000000000000000e+00  2.2783164726297125e+00 6.6813403836957796e-01 0.0000000000000000e+00  2.2769348770858739e+00 7.1264561086323452e-01 0.0000000000000000e+00  2.2776031484467660e+00 7.2133983490380527e-01 0.0000000000000000e+00  2.2766763779211661e+00 7.7395904783442049e-01 0.0000000000000000e+00  2.2785270153298702e+00 7.9534067646027051e-01 0.0000000000000000e+00  2.2763354723831224e+00 8.2969297744548276e-01 0.0000000000000000e+00  2.2783218991600553e+00 8.5997189566525700e-01 0.0000000000000000e+00  2.2774759681565149e+00 8.9347547121611515e-01 0.0000000000000000e+00  2.2781329174910412e+00 9.2648265754780512e-01 0.0000000000000000e+00  2.2780031388264828e+00 9.5286260302306847e-01 0.0000000000000000e+00  2.2781356718813228e+00 9.9167644091972296e-01 0.0000000000000000e+00  2.2788293843110350e+00 1.0180435286964200e+00 0.0000000000000000e+00  2.2761621839512234e+00 1.0536712001280892e+00 0.0000000000000000e+00  2.2788939822828014e+00 1.0875979587064455e+00 0.0000000000000000e+00  2.2710176215796469e+00 1.1190891378894432e+00 0.0000000000000000e+00  2.3625826186500487e+00 9.9116048858454098e-01 0.0000000000000000e+00  2.9294775862748388e+00 -1.7024058763493913e-01 0.0000000000000000e+00  3.8931461233341214e+00 -1.9942715248316991e+00 0.0000000000000000e+00  4.6959064249793707e+00 -3.2559884855024910e+00 0.0000000000000000e+00  5.1756344465370052e+00 -3.9168575742612846e+00 0.0000000000000000e+00  5.4164630620557190e+00 -4.2110387927483712e+00 0.0000000000000000e+00  5.5368400720642565e+00 -4.3375465775887374e+00 0.0000000000000000e+00  5.5996351378111626e+00 -4.3842347610054784e+00 0.0000000000000000e+00  5.6378789010851875e+00 -4.3934306258656939e+00 0.0000000000000000e+00  5.6603650515462771e+00 -4.3904970845897093e+00 0.0000000000000000e+00  5.6828642341876581e+00 -4.3710733890707365e+00 0.0000000000000000e+00  5.6954862028335196e+00 -4.3616106557961576e+00 0.0000000000000000e+00  5.7157767520825127e+00 -4.3339919639548574e+00 0.0000000000000000e+00  5.7266011708179008e+00 -4.3246003642648194e+00 0.0000000000000000e+00  5.7461313740379669e+00 -4.2943208294369191e+00 0.0000000000000000e+00  5.7569856054215416e+00 -4.2859169096721450e+00 0.0000000000000000e+00  5.7762000993237717e+00 -4.2542279739301696e+00 0.0000000000000000e+00  5.7870149259243790e+00 -4.2462311371494676e+00 0.0000000000000000e+00  5.8065361740573591e+00 -4.2146892542139049e+00 0.0000000000000000e+00  5.8171071670117165e+00 -4.2055257232573133e+00 0.0000000000000000e+00  5.8363578880582585e+00 -4.1762722360472821e+00 0.0000000000000000e+00  5.8477490638913157e+00 -4.1641896270854621e+00 0.0000000000000000e+00  5.8663800583335926e+00 -4.1380576193652452e+00 0.0000000000000000e+00  5.8776406601411848e+00 -4.1235295777371430e+00 0.0000000000000000e+00  5.8968549185286232e+00 -4.0998532361881779e+00 0.0000000000000000e+00  5.9079270097085033e+00 -4.0824686875441785e+00 0.0000000000000000e+00  5.9266150892810145e+00 -4.0621576663421086e+00 0.0000000000000000e+00  5.9384697014089873e+00 -4.0414588128913085e+00 0.0000000000000000e+00  5.9566326852189349e+00 -4.0235840046346336e+00 0.0000000000000000e+00  5.9685068766556730e+00 -4.0010119913933595e+00 0.0000000000000000e+00  5.9868569668456706e+00 -3.9836411550762048e+00 0.0000000000000000e+00  5.9986162008152757e+00 -3.9609313631920142e+00 0.0000000000000000e+00  6.0165729676145956e+00 -3.9425391984262488e+00 0.0000000000000000e+00  6.0289134115032317e+00 -3.9204381473721637e+00 0.0000000000000000e+00  6.0462944208737150e+00 -3.9008273304557033e+00 0.0000000000000000e+00  6.0587491815899899e+00 -3.8791084499651509e+00 0.0000000000000000e+00  6.0760006040791081e+00 -3.8587611349974660e+00 0.0000000000000000e+00  6.0885795670908189e+00 -3.8370390126974296e+00 0.0000000000000000e+00  6.1052101352198731e+00 -3.8162833202424333e+00 0.0000000000000000e+00  6.1183640654641467e+00 -3.7943636220813275e+00 0.0000000000000000e+00  6.1342759494828538e+00 -3.7737748655272698e+00 0.0000000000000000e+00  6.1476442012619072e+00 -3.7509923951925654e+00 0.0000000000000000e+00  6.1632025644225195e+00 -3.7312682448077212e+00 0.0000000000000000e+00  6.1767277604626010e+00 -3.7075449540900460e+00 0.0000000000000000e+00  6.1915718792654566e+00 -3.6880097879866316e+00 0.0000000000000000e+00  6.2055897603380590e+00 -3.6646714185684122e+00 0.0000000000000000e+00  6.2196809179675201e+00 -3.6440280346317637e+00 0.0000000000000000e+00  6.2338121832135389e+00 -3.6215297323247477e+00 0.0000000000000000e+00  6.2475540769611060e+00 -3.6002521120274698e+00 0.0000000000000000e+00  6.2616493299418989e+00 -3.5776376905362830e+00 0.0000000000000000e+00  6.2747648251871651e+00 -3.5560902839982016e+00 0.0000000000000000e+00  6.2891683296708791e+00 -3.5338126679121911e+00 0.0000000000000000e+00  6.3015298575087089e+00 -3.5111342130781478e+00 0.0000000000000000e+00  6.3159360154597177e+00 -3.4892596876886479e+00 0.0000000000000000e+00  6.3279886414057342e+00 -3.4664028030345069e+00 0.0000000000000000e+00  6.3421056104352020e+00 -3.4435302397069170e+00 0.0000000000000000e+00  6.3537034630944911e+00 -3.4210093298029642e+00 0.0000000000000000e+00  6.3678921499025449e+00 -3.3977773074246049e+00 0.0000000000000000e+00  6.3787645659200027e+00 -3.3745523890518951e+00 0.0000000000000000e+00  6.3928611967011229e+00 -3.3509922670840062e+00 0.0000000000000000e+00  6.4034544146342585e+00 -3.3283600224816388e+00 0.0000000000000000e+00  6.4170593456702694e+00 -3.3027183692159903e+00 0.0000000000000000e+00  6.4273234633412146e+00 -3.2813786949950625e+00 0.0000000000000000e+00  6.4408412040685841e+00 -3.2545956169676424e+00 0.0000000000000000e+00  6.4503803312727435e+00 -3.2324882730514726e+00 0.0000000000000000e+00  6.4637509489011871e+00 -3.2065325478510265e+00 0.0000000000000000e+00  6.4730267206067662e+00 -3.1825189249009549e+00 0.0000000000000000e+00  6.4857865776213099e+00 -3.1575570650318303e+00 0.0000000000000000e+00  6.4947900020790055e+00 -3.1320889599902784e+00 0.0000000000000000e+00  6.5073956111438527e+00 -3.1073053579486576e+00 0.0000000000000000e+00  6.5156454997676514e+00 -3.0812404558858209e+00 0.0000000000000000e+00  6.5281268686894824e+00 -3.0559736634807115e+00 0.0000000000000000e+00  6.5360429141745362e+00 -3.0294571510062451e+00 0.0000000000000000e+00  6.5479523588066622e+00 -3.0040412308644076e+00 0.0000000000000000e+00  6.5555588833447507e+00 -2.9764008185586532e+00 0.0000000000000000e+00  6.5673187407500002e+00 -2.9515385031277637e+00 0.0000000000000000e+00  6.5741434647946351e+00 -2.9220563378228270e+00 0.0000000000000000e+00  6.5858597559063510e+00 -2.8984304962154130e+00 0.0000000000000000e+00  6.5922281309058279e+00 -2.8666106674268517e+00 0.0000000000000000e+00  6.6034857586022255e+00 -2.8442330724550229e+00 0.0000000000000000e+00  6.6095270787052227e+00 -2.8108054776673050e+00 0.0000000000000000e+00  6.6206012919853432e+00 -2.7881987840170530e+00 0.0000000000000000e+00  6.6259091528207223e+00 -2.7548504081973637e+00 0.0000000000000000e+00  6.6369917003759662e+00 -2.7304866008919793e+00 0.0000000000000000e+00  6.6417768353899165e+00 -2.6981100546143697e+00 0.0000000000000000e+00  6.6524522519640170e+00 -2.6718673330417180e+00 0.0000000000000000e+00  6.6570097971294127e+00 -2.6403908916025363e+00 0.0000000000000000e+00  6.6673589254006407e+00 -2.6126481065982259e+00 0.0000000000000000e+00  6.6713650745347515e+00 -2.5820177706450034e+00 0.0000000000000000e+00  6.6816383913475947e+00 -2.5528725680106295e+00 0.0000000000000000e+00  6.6852323915134431e+00 -2.5228318783635482e+00 0.0000000000000000e+00  6.6949920183043368e+00 -2.4922461656119839e+00 0.0000000000000000e+00  6.6985883445932561e+00 -2.4627422004399593e+00 0.0000000000000000e+00  6.7078191756556533e+00 -2.4304389079340751e+00 0.0000000000000000e+00  6.7110868437472186e+00 -2.4016442993522089e+00 0.0000000000000000e+00  6.7201324896246986e+00 -2.3678398234454789e+00 0.0000000000000000e+00  6.7231340455903448e+00 -2.3398983639852005e+00 0.0000000000000000e+00  6.7315502479680225e+00 -2.3045472220431660e+00 0.0000000000000000e+00  6.7347585276822137e+00 -2.2775868426719326e+00 0.0000000000000000e+00  6.7425109008940236e+00 -2.2413409531374939e+00 0.0000000000000000e+00  6.7455313254765281e+00 -2.2138952320852283e+00 0.0000000000000000e+00  6.7530623333538395e+00 -2.1786385248635121e+00 0.0000000000000000e+00  6.7559223193676550e+00 -2.1492939161022382e+00 0.0000000000000000e+00  6.7627332931549944e+00 -2.1156671702949437e+00 0.0000000000000000e+00  6.7659758627017981e+00 -2.0844175577586159e+00 0.0000000000000000e+00  6.7720543873440331e+00 -2.0514127594009959e+00 0.0000000000000000e+00  6.7751523790080412e+00 -2.0201228233006829e+00 0.0000000000000000e+00  6.7810982438392520e+00 -1.9854093771768617e+00 0.0000000000000000e+00  6.7839910144229512e+00 -1.9557808010881204e+00 0.0000000000000000e+00  6.7893160428111159e+00 -1.9192468234735911e+00 0.0000000000000000e+00  6.7925482286396424e+00 -1.8898848254262330e+00 0.0000000000000000e+00  6.7972629504439306e+00 -1.8539891440044960e+00 0.0000000000000000e+00  6.8002986277935751e+00 -1.8227281885668529e+00 0.0000000000000000e+00  6.8049362767226214e+00 -1.7890507386965440e+00 0.0000000000000000e+00  6.8078246147641099e+00 -1.7553906391931533e+00 0.0000000000000000e+00  6.8118639756120443e+00 -1.7236537665717622e+00 0.0000000000000000e+00  6.8150233520103303e+00 -1.6885623011442241e+00 0.0000000000000000e+00  6.8186719114078942e+00 -1.6572764494358929e+00 0.0000000000000000e+00  6.8214893681901394e+00 -1.6225110983986548e+00 0.0000000000000000e+00  6.8251548663967867e+00 -1.5898090671501193e+00 0.0000000000000000e+00  6.8278440600612722e+00 -1.5561009575124984e+00 0.0000000000000000e+00  6.8310403506952451e+00 -1.5225716506060682e+00 0.0000000000000000e+00  6.8337600040892896e+00 -1.4890616041713074e+00 0.0000000000000000e+00  6.8368855392888888e+00 -1.4553290811411468e+00 0.0000000000000000e+00  6.8391737425463592e+00 -1.4208799801327083e+00 0.0000000000000000e+00  6.8422252918859909e+00 -1.3893084839474814e+00 0.0000000000000000e+00  6.8445208665717061e+00 -1.3516173995667387e+00 0.0000000000000000e+00  6.8472865067077482e+00 -1.3239506482610091e+00 0.0000000000000000e+00  6.8491583107625065e+00 -1.2837342934899225e+00 0.0000000000000000e+00  6.8523544459000032e+00 -1.2570965065405268e+00 0.0000000000000000e+00  6.8536641061066454e+00 -1.2183615797953138e+00 0.0000000000000000e+00  6.8566033867599696e+00 -1.1892425963276965e+00 0.0000000000000000e+00  6.8581129217705437e+00 -1.1535310090179347e+00 0.0000000000000000e+00  6.8610072882620177e+00 -1.1223137316305927e+00 0.0000000000000000e+00  6.8615406679421573e+00 -1.0896265286971738e+00 0.0000000000000000e+00  6.8652976692380498e+00 -1.0542129343699118e+00 0.0000000000000000e+00  6.8654401169386379e+00 -1.0249958014707372e+00 0.0000000000000000e+00  6.8683284820201260e+00 -9.8788904497455354e-01 0.0000000000000000e+00  6.8691879856169455e+00 -9.5694440856852714e-01 0.0000000000000000e+00  6.8720880774132009e+00 -9.2236041554257919e-01 0.0000000000000000e+00  6.8715151330693711e+00 -8.8754726590739674e-01 0.0000000000000000e+00  6.8755298314502253e+00 -8.5612736546708956e-01 0.0000000000000000e+00  6.8749366470479139e+00 -8.1649803255371201e-01 0.0000000000000000e+00  6.8772826916087118e+00 -7.9348462521807506e-01 0.0000000000000000e+00  6.8779378851519253e+00 -7.4745126290681496e-01 0.0000000000000000e+00  6.8804519611603050e+00 -7.3280985685551048e-01 0.0000000000000000e+00  6.8790639077012328e+00 -6.8555807237228661e-01 0.0000000000000000e+00  6.8831207407768709e+00 -6.6803111500347079e-01 0.0000000000000000e+00  6.8819950802902445e+00 -6.2310329878612825e-01 0.0000000000000000e+00  6.8837677730786782e+00 -5.9903272699852539e-01 0.0000000000000000e+00  6.8843215018227166e+00 -5.5690527319919125e-01 0.0000000000000000e+00  6.8864861092657934e+00 -5.2900940262823826e-01 0.0000000000000000e+00  6.8844649196465033e+00 -4.8742560276973351e-01 0.0000000000000000e+00  6.8883772910569494e+00 -4.5238540310459946e-01 0.0000000000000000e+00  6.8870435637973131e+00 -4.0680413267950838e-01 0.0000000000000000e+00  6.8878559603269043e+00 -3.7887527828378420e-01 0.0000000000000000e+00  6.8886186430583463e+00 -3.3744666158462328e-01 0.0000000000000000e+00  6.8899756636944254e+00 -2.9779322969954625e-01 0.0000000000000000e+00  6.8877322295735519e+00 -2.6602002288224097e-01 0.0000000000000000e+00  6.8910042880497784e+00 -2.2116835013598152e-01 0.0000000000000000e+00  6.8895541339331476e+00 -1.9889074213479188e-01 0.0000000000000000e+00  6.8894594250103403e+00 -1.4742794250954258e-01 0.0000000000000000e+00  6.8904180803179305e+00 -1.3558768389131898e-01 0.0000000000000000e+00  6.8909721277767915e+00 -3.8185125675538653e-02 0.0000000000000000e+00  6.8890084551640696e+00 0.0000000000000000e+00 0.0000000000000000e+00  2.2778125017206663e+00 0.0000000000000000e+00 -3.5448208969329942e-03  2.2783841968115524e+00 2.4328531327516788e-02 -3.3677326950763437e-03  2.2790705309971977e+00 6.4802813465935555e-02 -9.3313163528191481e-03  2.2782677606152797e+00 1.0382316422850019e-01 2.9316995446671573e-02  2.2779792400311241e+00 1.1923171794828022e-01 -2.7552624727191825e-02  2.2791904901909437e+00 1.6728747710968234e-01 2.0284844824521999e-02  2.2779411795931011e+00 1.8665384045208044e-01 -4.4078567844802602e-03  2.2781400800050227e+00 2.2797875173565058e-01 -2.0478239216980696e-02  2.2783628447134654e+00 2.5467992566763359e-01 4.3153740814227508e-02  2.2787834215346994e+00 2.8929871815044872e-01 -5.0505368377692851e-02  2.2767308123272976e+00 3.2156940179327342e-01 4.0917797935473364e-02  2.2795259812557003e+00 3.3809503020561676e-01 -2.2629842598277369e-02  2.2775686498945360e+00 4.1405881899814118e-01 7.5484488651047458e-03  2.2775044776317275e+00 3.7235436633635083e-01 -1.9635672405262537e-03  2.2785562091076721e+00 4.8028111295946202e-01 2.0690217410414455e-03  2.2779906492861040e+00 4.7313367827126890e-01 -3.2486891695778981e-03  2.2769616092328611e+00 4.9059905375353108e-01 2.8276425329261698e-03  2.2784519593110857e+00 5.6813364544973299e-01 -1.8983826232337622e-03  2.2776723738899052e+00 5.6262824152347535e-01 8.9874259722686476e-04  2.2770302353605674e+00 6.0251908977515234e-01 -7.7399879976827203e-04  2.2777364961742408e+00 6.4388358754865782e-01 7.4957049294261465e-04  2.2777877492018499e+00 6.7271154247648379e-01 -5.6262621768908821e-04  2.2764901693265549e+00 6.9368509932057842e-01 8.6124757058299751e-04  2.2775932603720910e+00 7.3757308708934455e-01 -2.1979114520311186e-03  2.2769256761174992e+00 7.7018151793151635e-01 4.9916717680268414e-03  2.2767792772287070e+00 7.8970641425424259e-01 -7.1912751783501372e-03  2.2761123675695409e+00 8.3606001128905594e-01 6.9942590260390529e-03  2.2770359574396091e+00 8.5856974367372652e-01 -5.6505092777257406e-03  2.2751422459258128e+00 8.9700091119402503e-01 3.5323565831236973e-03  2.2760482798415480e+00 9.2266430260674293e-01 -4.1136863346476664e-03  2.2748042662242800e+00 9.6167778472084986e-01 4.1588915335450012e-03  2.2752854344983726e+00 9.8809058624028823e-01 -5.4989901239623513e-03  2.2739730417889237e+00 1.0244128459811210e+00 5.4286378115264164e-03  2.2751832951559772e+00 1.0515088587974319e+00 -5.8539532422834557e-03  2.2749948402655669e+00 1.0885699489400382e+00 6.6180243849658814e-03  2.2789916584330756e+00 1.1015356447947753e+00 -6.0148998064038055e-03  2.3674581833198798e+00 9.7121463900703797e-01 -2.3241028065705549e-03  2.9049589329721148e+00 -1.2245908628480699e-01 1.2311568344428724e-02  3.9045062393350336e+00 -1.9854511844461333e+00 1.2026397437709509e-02  4.7162039702105991e+00 -3.2743376745682848e+00 -9.2792125321727384e-03  5.1724296764760451e+00 -3.9081454752686073e+00 -5.1092610488893131e-03  5.4116739985070152e+00 -4.1959035822505832e+00 1.8209255035703832e-03  5.5349767575911688e+00 -4.3276733774920162e+00 7.3663635837849586e-04  5.6023419202638198e+00 -4.3703031418713731e+00 2.7228765167024915e-03  5.6379354642906385e+00 -4.3834024576030490e+00 -2.2849791481966173e-04  5.6644472311150995e+00 -4.3721657837723091e+00 1.2299206580683505e-03  5.6822657308298901e+00 -4.3608487449757378e+00 -3.8208802903474107e-04  5.7002849817594390e+00 -4.3402912375245846e+00 6.1279096310862214e-04  5.7155666363891493e+00 -4.3231980018911145e+00 -3.9889317566291107e-04  5.7313749845221356e+00 -4.3018329429254090e+00 4.4191724581701329e-04  5.7463499529537856e+00 -4.2837719643393743e+00 -4.2255827215720125e-04  5.7619606642103935e+00 -4.2620816281763805e+00 3.6461284342759800e-04  5.7766676187530894e+00 -4.2438375189653765e+00 -3.6896269694497653e-04  5.7924582216706595e+00 -4.2227406570463231e+00 1.1168318025947031e-04  5.8070654081804793e+00 -4.2033626774326702e+00 -9.0966843954940031e-06  5.8224961630100198e+00 -4.1837068611808022e+00 -3.6212035866237487e-04  5.8379075366254973e+00 -4.1625104934662627e+00 5.6351445592643700e-04  5.8525901509967087e+00 -4.1441434434544124e+00 -8.7593745555808672e-04  5.8680881127535223e+00 -4.1219887551083776e+00 1.2095456144088157e-03  5.8831191011917987e+00 -4.1039364331853108e+00 -1.4671316960059081e-03  5.8985643993191008e+00 -4.0807606829216905e+00 1.8949944948753528e-03  5.9128645321267586e+00 -4.0639856496360229e+00 -1.9998585127596375e-03  5.9292417940380853e+00 -4.0393932391337959e+00 2.3396931010897480e-03  5.9429968833269164e+00 -4.0231728106307267e+00 -2.2621732572587912e-03  5.9592235625880834e+00 -3.9986622662038771e+00 2.4330373586931176e-03  5.9733523106072886e+00 -3.9818935311470720e+00 -2.2760496055885134e-03  5.9892452319040563e+00 -3.9583047369726159e+00 2.2329045919490453e-03  6.0032300612032854e+00 -3.9406497003581138e+00 -2.0767917172468042e-03  6.0194069549149800e+00 -3.9180220623594719e+00 1.8209622325548185e-03  6.0331251153921670e+00 -3.8998529305103640e+00 -1.8074996355065644e-03  6.0490650135825605e+00 -3.8777080940481632e+00 1.4886660481343128e-03  6.0630547625525848e+00 -3.8594658508191468e+00 -1.7140653270058532e-03  6.0787542151337357e+00 -3.8374015928317240e+00 1.3763865683703771e-03  6.0924767344726805e+00 -3.8191753546948903e+00 -1.7619859532892552e-03  6.1084266145988826e+00 -3.7970507410731456e+00 1.4279463389650321e-03  6.1217947251015854e+00 -3.7789559568394910e+00 -1.9160269682454245e-03  6.1376359074276223e+00 -3.7562054090927530e+00 1.6507588141865168e-03  6.1510251314306652e+00 -3.7385512938663519e+00 -2.1373041721340176e-03  6.1666903118160583e+00 -3.7150483279241442e+00 1.9160701370553063e-03  6.1797509151263670e+00 -3.6972127091521658e+00