<?xml version="1.0"?>
<VTKFile type="UnstructuredGrid"  version="0.1"  >
<UnstructuredGrid>
<Piece  NumberOfPoints="8241" NumberOfCells="16000">
<Points>
<DataArray  type="Float64"  NumberOfComponents="3"  format="ascii">-5 -1 0  -4.95 -1 0  -4.9 -1 0  -4.85 -1 0  -4.8 -1 0  -4.75 -1 0  -4.7 -1 0  -4.65 -1 0  -4.6 -1 0  -4.55 -1 0  -4.5 -1 0  -4.45 -1 0  -4.4 -1 0  -4.35 -1 0  -4.3 -1 0  -4.25 -1 0  -4.2 -1 0  -4.15 -1 0  -4.1 -1 0  -4.05 -1 0  -4 -1 0  -3.95 -1 0  -3.9 -1 0  -3.85 -1 0  -3.8 -1 0  -3.75 -1 0  -3.7 -1 0  -3.65 -1 0  -3.6 -1 0  -3.55 -1 0  -3.5 -1 0  -3.45 -1 0  -3.4 -1 0  -3.35 -1 0  -3.3 -1 0  -3.25 -1 0  -3.2 -1 0  -3.15 -1 0  -3.1 -1 0  -3.05 -1 0  -3 -1 0  -2.95 -1 0  -2.9 -1 0  -2.85 -1 0  -2.8 -1 0  -2.75 -1 0  -2.7 -1 0  -2.65 -1 0  -2.6 -1 0  -2.55 -1 0  -2.5 -1 0  -2.45 -1 0  -2.4 -1 0  -2.35 -1 0  -2.3 -1 0  -2.25 -1 0  -2.2 -1 0  -2.15 -1 0  -2.1 -1 0  -2.05 -1 0  -2 -1 0  -1.95 -1 0  -1.9 -1 0  -1.85 -1 0  -1.8 -1 0  -1.75 -1 0  -1.7 -1 0  -1.65 -1 0  -1.6 -1 0  -1.55 -1 0  -1.5 -1 0  -1.45 -1 0  -1.4 -1 0  -1.35 -1 0  -1.3 -1 0  -1.25 -1 0  -1.2 -1 0  -1.15 -1 0  -1.1 -1 0  -1.05 -1 0  -1 -1 0  -0.9500000000000002 -1 0  -0.9000000000000004 -1 0  -0.8499999999999996 -1 0  -0.7999999999999998 -1 0  -0.75 -1 0  -0.7000000000000002 -1 0  -0.6500000000000004 -1 0  -0.5999999999999996 -1 0  -0.5499999999999998 -1 0  -0.5 -1 0  -0.4500000000000002 -1 0  -0.4000000000000004 -1 0  -0.3499999999999996 -1 0  -0.2999999999999998 -1 0  -0.25 -1 0  -0.2000000000000002 -1 0  -0.1500000000000004 -1 0  -0.09999999999999964 -1 0  -0.04999999999999982 -1 0  0 -1 0  0.04999999999999982 -1 0  0.09999999999999964 -1 0  0.1500000000000004 -1 0  0.2000000000000002 -1 0  0.25 -1 0  0.2999999999999998 -1 0  0.3499999999999996 -1 0  0.4000000000000004 -1 0  0.4500000000000002 -1 0  0.5 -1 0  0.5499999999999998 -1 0  0.5999999999999996 -1 0  0.6500000000000004 -1 0  0.7000000000000002 -1 0  0.75 -1 0  0.7999999999999998 -1 0  0.8499999999999996 -1 0  0.9000000000000004 -1 0  0.9500000000000002 -1 0  1 -1 0  1.05 -1 0  1.1 -1 0  1.15 -1 0  1.2 -1 0  1.25 -1 0  1.3 -1 0  1.35 -1 0  1.4 -1 0  1.45 -1 0  1.5 -1 0  1.55 -1 0  1.6 -1 0  1.65 -1 0  1.7 -1 0  1.75 -1 0  1.8 -1 0  1.85 -1 0  1.9 -1 0  1.95 -1 0  2 -1 0  2.05 -1 0  2.1 -1 0  2.15 -1 0  2.2 -1 0  2.25 -1 0  2.3 -1 0  2.35 -1 0  2.4 -1 0  2.45 -1 0  2.5 -1 0  2.55 -1 0  2.6 -1 0  2.65 -1 0  2.7 -1 0  2.75 -1 0  2.8 -1 0  2.85 -1 0  2.9 -1 0  2.95 -1 0  3 -1 0  3.050000000000001 -1 0  3.1 -1 0  3.15 -1 0  3.199999999999999 -1 0  3.25 -1 0  3.300000000000001 -1 0  3.35 -1 0  3.4 -1 0  3.449999999999999 -1 0  3.5 -1 0  3.550000000000001 -1 0  3.6 -1 0  3.65 -1 0  3.699999999999999 -1 0  3.75 -1 0  3.800000000000001 -1 0  3.85 -1 0  3.9 -1 0  3.949999999999999 -1 0  4 -1 0  4.050000000000001 -1 0  4.1 -1 0  4.15 -1 0  4.199999999999999 -1 0  4.25 -1 0  4.300000000000001 -1 0  4.35 -1 0  4.4 -1 0  4.449999999999999 -1 0  4.5 -1 0  4.550000000000001 -1 0  4.6 -1 0  4.65 -1 0  4.699999999999999 -1 0  4.75 -1 0  4.800000000000001 -1 0  4.85 -1 0  4.9 -1 0  4.949999999999999 -1 0  5 -1 0  -5 -0.95 0  -4.95 -0.95 0  -4.9 -0.95 0  -4.85 -0.95 0  -4.8 -0.95 0  -4.75 -0.95 0  -4.7 -0.95 0  -4.65 -0.95 0  -4.6 -0.95 0  -4.55 -0.95 0  -4.5 -0.95 0  -4.45 -0.95 0  -4.4 -0.95 0  -4.35 -0.95 0  -4.3 -0.95 0  -4.25 -0.95 0  -4.2 -0.95 0  -4.15 -0.95 0  -4.1 -0.95 0  -4.05 -0.95 0  -4 -0.95 0  -3.95 -0.95 0  -3.9 -0.95 0  -3.85 -0.95 0  -3.8 -0.95 0  -3.75 -0.95 0  -3.7 -0.95 0  -3.65 -0.95 0  -3.6 -0.95 0  -3.55 -0.95 0  -3.5 -0.95 0  -3.45 -0.95 0  -3.4 -0.95 0  -3.35 -0.95 0  -3.3 -0.95 0  -3.25 -0.95 0  -3.2 -0.95 0  -3.15 -0.95 0  -3.1 -0.95 0  -3.05 -0.95 0  -3 -0.95 0  -2.95 -0.95 0  -2.9 -0.95 0  -2.85 -0.95 0  -2.8 -0.95 0  -2.75 -0.95 0  -2.7 -0.95 0  -2.65 -0.95 0  -2.6 -0.95 0  -2.55 -0.95 0  -2.5 -0.95 0  -2.45 -0.95 0  -2.4 -0.95 0  -2.35 -0.95 0  -2.3 -0.95 0  -2.25 -0.95 0  -2.2 -0.95 0  -2.15 -0.95 0  -2.1 -0.95 0  -2.05 -0.95 0  -2 -0.95 0  -1.95 -0.95 0  -1.9 -0.95 0  -1.85 -0.95 0  -1.8 -0.95 0  -1.75 -0.95 0  -1.7 -0.95 0  -1.65 -0.95 0  -1.6 -0.95 0  -1.55 -0.95 0  -1.5 -0.95 0  -1.45 -0.95 0  -1.4 -0.95 0  -1.35 -0.95 0  -1.3 -0.95 0  -1.25 -0.95 0  -1.2 -0.95 0  -1.15 -0.95 0  -1.1 -0.95 0  -1.05 -0.95 0  -1 -0.95 0  -0.9500000000000002 -0.95 0  -0.9000000000000004 -0.95 0  -0.8499999999999996 -0.95 0  -0.7999999999999998 -0.95 0  -0.75 -0.95 0  -0.7000000000000002 -0.95 0  -0.6500000000000004 -0.95 0  -0.5999999999999996 -0.95 0  -0.5499999999999998 -0.95 0  -0.5 -0.95 0  -0.4500000000000002 -0.95 0  -0.4000000000000004 -0.95 0  -0.3499999999999996 -0.95 0  -0.2999999999999998 -0.95 0  -0.25 -0.95 0  -0.2000000000000002 -0.95 0  -0.1500000000000004 -0.95 0  -0.09999999999999964 -0.95 0  -0.04999999999999982 -0.95 0  0 -0.95 0  0.04999999999999982 -0.95 0  0.09999999999999964 -0.95 0  0.1500000000000004 -0.95 0  0.2000000000000002 -0.95 0  0.25 -0.95 0  0.2999999999999998 -0.95 0  0.3499999999999996 -0.95 0  0.4000000000000004 -0.95 0  0.4500000000000002 -0.95 0  0.5 -0.95 0  0.5499999999999998 -0.95 0  0.5999999999999996 -0.95 0  0.6500000000000004 -0.95 0  0.7000000000000002 -0.95 0  0.75 -0.95 0  0.7999999999999998 -0.95 0  0.8499999999999996 -0.95 0  0.9000000000000004 -0.95 0  0.9500000000000002 -0.95 0  1 -0.95 0  1.05 -0.95 0  1.1 -0.95 0  1.15 -0.95 0  1.2 -0.95 0  1.25 -0.95 0  1.3 -0.95 0  1.35 -0.95 0  1.4 -0.95 0  1.45 -0.95 0  1.5 -0.95 0  1.55 -0.95 0  1.6 -0.95 0  1.65 -0.95 0  1.7 -0.95 0  1.75 -0.95 0  1.8 -0.95 0  1.85 -0.95 0  1.9 -0.95 0  1.95 -0.95 0  2 -0.95 0  2.05 -0.95 0  2.1 -0.95 0  2.15 -0.95 0  2.2 -0.95 0  2.25 -0.95 0  2.3 -0.95 0  2.35 -0.95 0  2.4 -0.95 0  2.45 -0.95 0  2.5 -0.95 0  2.55 -0.95 0  2.6 -0.95 0  2.65 -0.95 0  2.7 -0.95 0  2.75 -0.95 0  2.8 -0.95 0  2.85 -0.95 0  2.9 -0.95 0  2.95 -0.95 0  3 -0.95 0  3.050000000000001 -0.95 0  3.1 -0.95 0  3.15 -0.95 0  3.199999999999999 -0.95 0  3.25 -0.95 0  3.300000000000001 -0.95 0  3.35 -0.95 0  3.4 -0.95 0  3.449999999999999 -0.95 0  3.5 -0.95 0  3.550000000000001 -0.95 0  3.6 -0.95 0  3.65 -0.95 0  3.699999999999999 -0.95 0  3.75 -0.95 0  3.800000000000001 -0.95 0  3.85 -0.95 0  3.9 -0.95 0  3.949999999999999 -0.95 0  4 -0.95 0  4.050000000000001 -0.95 0  4.1 -0.95 0  4.15 -0.95 0  4.199999999999999 -0.95 0  4.25 -0.95 0  4.300000000000001 -0.95 0  4.35 -0.95 0  4.4 -0.95 0  4.449999999999999 -0.95 0  4.5 -0.95 0  4.550000000000001 -0.95 0  4.6 -0.95 0  4.65 -0.95 0  4.699999999999999 -0.95 0  4.75 -0.95 0  4.800000000000001 -0.95 0  4.85 -0.95 0  4.9 -0.95 0  4.949999999999999 -0.95 0  5 -0.95 0  -5 -0.9 0  -4.95 -0.9 0  -4.9 -0.9 0  -4.85 -0.9 0  -4.8 -0.9 0  -4.75 -0.9 0  -4.7 -0.9 0  -4.65 -0.9 0  -4.6 -0.9 0  -4.55 -0.9 0  -4.5 -0.9 0  -4.45 -0.9 0  -4.4 -0.9 0  -4.35 -0.9 0  -4.3 -0.9 0  -4.25 -0.9 0  -4.2 -0.9 0  -4.15 -0.9 0  -4.1 -0.9 0  -4.05 -0.9 0  -4 -0.9 0  -3.95 -0.9 0  -3.9 -0.9 0  -3.85 -0.9 0  -3.8 -0.9 0  -3.75 -0.9 0  -3.7 -0.9 0  -3.65 -0.9 0  -3.6 -0.9 0  -3.55 -0.9 0  -3.5 -0.9 0  -3.45 -0.9 0  -3.4 -0.9 0  -3.35 -0.9 0  -3.3 -0.9 0  -3.25 -0.9 0  -3.2 -0.9 0  -3.15 -0.9 0  -3.1 -0.9 0  -3.05 -0.9 0  -3 -0.9 0  -2.95 -0.9 0  -2.9 -0.9 0  -2.85 -0.9 0  -2.8 -0.9 0  -2.75 -0.9 0  -2.7 -0.9 0  -2.65 -0.9 0  -2.6 -0.9 0  -2.55 -0.9 0  -2.5 -0.9 0  -2.45 -0.9 0  -2.4 -0.9 0  -2.35 -0.9 0  -2.3 -0.9 0  -2.25 -0.9 0  -2.2 -0.9 0  -2.15 -0.9 0  -2.1 -0.9 0  -2.05 -0.9 0  -2 -0.9 0  -1.95 -0.9 0  -1.9 -0.9 0  -1.85 -0.9 0  -1.8 -0.9 0  -1.75 -0.9 0  -1.7 -0.9 0  -1.65 -0.9 0  -1.6 -0.9 0  -1.55 -0.9 0  -1.5 -0.9 0  -1.45 -0.9 0  -1.4 -0.9 0  -1.35 -0.9 0  -1.3 -0.9 0  -1.25 -0.9 0  -1.2 -0.9 0  -1.15 -0.9 0  -1.1 -0.9 0  -1.05 -0.9 0  -1 -0.9 0  -0.9500000000000002 -0.9 0  -0.9000000000000004 -0.9 0  -0.8499999999999996 -0.9 0  -0.7999999999999998 -0.9 0  -0.75 -0.9 0  -0.7000000000000002 -0.9 0  -0.6500000000000004 -0.9 0  -0.5999999999999996 -0.9 0  -0.5499999999999998 -0.9 0  -0.5 -0.9 0  -0.4500000000000002 -0.9 0  -0.4000000000000004 -0.9 0  -0.3499999999999996 -0.9 0  -0.2999999999999998 -0.9 0  -0.25 -0.9 0  -0.2000000000000002 -0.9 0  -0.1500000000000004 -0.9 0  -0.09999999999999964 -0.9 0  -0.04999999999999982 -0.9 0  0 -0.9 0  0.04999999999999982 -0.9 0  0.09999999999999964 -0.9 0  0.1500000000000004 -0.9 0  0.2000000000000002 -0.9 0  0.25 -0.9 0  0.2999999999999998 -0.9 0  0.3499999999999996 -0.9 0  0.4000000000000004 -0.9 0  0.4500000000000002 -0.9 0  0.5 -0.9 0  0.5499999999999998 -0.9 0  0.5999999999999996 -0.9 0  0.6500000000000004 -0.9 0  0.7000000000000002 -0.9 0  0.75 -0.9 0  0.7999999999999998 -0.9 0  0.8499999999999996 -0.9 0  0.9000000000000004 -0.9 0  0.9500000000000002 -0.9 0  1 -0.9 0  1.05 -0.9 0  1.1 -0.9 0  1.15 -0.9 0  1.2 -0.9 0  1.25 -0.9 0  1.3 -0.9 0  1.35 -0.9 0  1.4 -0.9 0  1.45 -0.9 0  1.5 -0.9 0  1.55 -0.9 0  1.6 -0.9 0  1.65 -0.9 0  1.7 -0.9 0  1.75 -0.9 0  1.8 -0.9 0  1.85 -0.9 0  1.9 -0.9 0  1.95 -0.9 0  2 -0.9 0  2.05 -0.9 0  2.1 -0.9 0  2.15 -0.9 0  2.2 -0.9 0  2.25 -0.9 0  2.3 -0.9 0  2.35 -0.9 0  2.4 -0.9 0  2.45 -0.9 0  2.5 -0.9 0  2.55 -0.9 0  2.6 -0.9 0  2.65 -0.9 0  2.7 -0.9 0  2.75 -0.9 0  2.8 -0.9 0  2.85 -0.9 0  2.9 -0.9 0  2.95 -0.9 0  3 -0.9 0  3.050000000000001 -0.9 0  3.1 -0.9 0  3.15 -0.9 0  3.199999999999999 -0.9 0  3.25 -0.9 0  3.300000000000001 -0.9 0  3.35 -0.9 0  3.4 -0.9 0  3.449999999999999 -0.9 0  3.5 -0.9 0  3.550000000000001 -0.9 0  3.6 -0.9 0  3.65 -0.9 0  3.699999999999999 -0.9 0  3.75 -0.9 0  3.800000000000001 -0.9 0  3.85 -0.9 0  3.9 -0.9 0  3.949999999999999 -0.9 0  4 -0.9 0  4.050000000000001 -0.9 0  4.1 -0.9 0  4.15 -0.9 0  4.199999999999999 -0.9 0  4.25 -0.9 0  4.300000000000001 -0.9 0  4.35 -0.9 0  4.4 -0.9 0  4.449999999999999 -0.9 0  4.5 -0.9 0  4.550000000000001 -0.9 0  4.6 -0.9 0  4.65 -0.9 0  4.699999999999999 -0.9 0  4.75 -0.9 0  4.800000000000001 -0.9 0  4.85 -0.9 0  4.9 -0.9 0  4.949999999999999 -0.9 0  5 -0.9 0  -5 -0.85 0  -4.95 -0.85 0  -4.9 -0.85 0  -4.85 -0.85 0  -4.8 -0.85 0  -4.75 -0.85 0  -4.7 -0.85 0  -4.65 -0.85 0  -4.6 -0.85 0  -4.55 -0.85 0  -4.5 -0.85 0  -
[...]
<PointData  Vectors="f_15"> 
<DataArray  type="Float64"  Name="f_15"  NumberOfComponents="3" format="ascii">9.7782649333133769e+00 0.0000000000000000e+00 0.0000000000000000e+00  9.7766211888949357e+00 3.1495487470661047e-02 0.0000000000000000e+00  9.7717175939635883e+00 6.3173101365994092e-02 0.0000000000000000e+00  9.7636007858867941e+00 9.5095340947538104e-02 0.0000000000000000e+00  9.7522906353131233e+00 1.2747896103578910e-01 0.0000000000000000e+00  9.7378574689555730e+00 1.6040961957287167e-01 0.0000000000000000e+00  9.7204243157722612e+00 1.9402472973518925e-01 0.0000000000000000e+00  9.7000398999633468e+00 2.2845279334051247e-01 0.0000000000000000e+00  9.6768356488317924e+00 2.6376624408290150e-01 0.0000000000000000e+00  9.6509509523754140e+00 3.0009359591103457e-01 0.0000000000000000e+00  9.6224802824336049e+00 3.3746585356689857e-01 0.0000000000000000e+00  9.5915603997546146e+00 3.7600703502905924e-01 0.0000000000000000e+00  9.5583561781896158e+00 4.1568951619893041e-01 0.0000000000000000e+00  9.5229596127763667e+00 4.5664411264955967e-01 0.0000000000000000e+00  9.4855172640513370e+00 4.9879442970451876e-01 0.0000000000000000e+00  9.4461820073582228e+00 5.4225901582547054e-01 0.0000000000000000e+00  9.4050436031853284e+00 5.8692834723046705e-01 0.0000000000000000e+00  9.3622371232826431e+00 6.3292196602520501e-01 0.0000000000000000e+00  9.3178942816795534e+00 6.8007960844072424e-01 0.0000000000000000e+00  9.2721033758812386e+00 7.2853912732892667e-01 0.0000000000000000e+00  9.2249644073848707e+00 7.7810143070935256e-01 0.0000000000000000e+00  9.1766137602434075e+00 8.2891189222266759e-01 0.0000000000000000e+00  9.1270947675691687e+00 8.8073978055230673e-01 0.0000000000000000e+00  9.0765279581709901e+00 9.3375945683235095e-01 0.0000000000000000e+00  9.0249828349984362e+00 9.8768994908792773e-01 0.0000000000000000e+00  8.9725487145549039e+00 1.0427449480249535e+00 0.0000000000000000e+00  8.9192606698416927e+00 1.0986091888111196e+00 0.0000000000000000e+00  8.8652498578139003e+00 1.1555230619013561e+00 0.0000000000000000e+00  8.8105095270660261e+00 1.2131365938570604e+00 0.0000000000000000e+00  8.7551541558621153e+00 1.2717394814941410e+00 0.0000000000000000e+00  8.6991989286732530e+00 1.3309315447653312e+00 0.0000000000000000e+00  8.6427411900119342e+00 1.3910454061443982e+00 0.0000000000000000e+00  8.5857627534140875e+00 1.4516568027729897e+00 0.0000000000000000e+00  8.5283940735139243e+00 1.5131335300755266e+00 0.0000000000000000e+00  8.4705977825566148e+00 1.5749898723506721e+00 0.0000000000000000e+00  8.4124750140198472e+00 1.6377004066614389e+00 0.0000000000000000e+00  8.3540163190322172e+00 1.7006678445168857e+00 0.0000000000000000e+00  8.2953128342915026e+00 1.7644530741026982e+00 0.0000000000000000e+00  8.2363237782927801e+00 1.8284321665497991e+00 0.0000000000000000e+00  8.1771607450673738e+00 1.8931613919946964e+00 0.0000000000000000e+00  8.1177938432865826e+00 1.9580414200093643e+00 0.0000000000000000e+00  8.0582780004840533e+00 2.0235796790969629e+00 0.0000000000000000e+00  7.9986317024294316e+00 2.0893309506180011e+00 0.0000000000000000e+00  7.9388922191581681e+00 2.1554806096505996e+00 0.0000000000000000e+00  7.8790588438515581e+00 2.2220865690035434e+00 0.0000000000000000e+00  7.8191711272503994e+00 2.2887612685660521e+00 0.0000000000000000e+00  7.7592622340697170e+00 2.3560590665450674e+00 0.0000000000000000e+00  7.6993065167002523e+00 2.4232922057496542e+00 0.0000000000000000e+00  7.6393796193702972e+00 2.4911311077512699e+00 0.0000000000000000e+00  7.5794516566456940e+00 2.5588693402829685e+00 0.0000000000000000e+00  7.5195749102868676e+00 2.6271898923682140e+00 0.0000000000000000e+00  7.4597256299929100e+00 2.6954014583357595e+00 0.0000000000000000e+00  7.3999704024813742e+00 2.7640610441208895e+00 0.0000000000000000e+00  7.3402652911545792e+00 2.8327602993868766e+00 0.0000000000000000e+00  7.2806781983789017e+00 2.9017225698019060e+00 0.0000000000000000e+00  7.2211624051521426e+00 2.9707610397940711e+00 0.0000000000000000e+00  7.1618091704847728e+00 3.0400552843100601e+00 0.0000000000000000e+00  7.1025306433597750e+00 3.1093987438234163e+00 0.0000000000000000e+00  7.0434273775106231e+00 3.1789263196709254e+00 0.0000000000000000e+00  6.9844537637301780e+00 3.2485381499536596e+00 0.0000000000000000e+00  6.9256538459164707e+00 3.3182987312353962e+00 0.0000000000000000e+00  6.8669734991180658e+00 3.3881370831618414e+00 0.0000000000000000e+00  6.8085433063100265e+00 3.4580539049024339e+00 0.0000000000000000e+00  6.7502211605807716e+00 3.5280742460906982e+00 0.0000000000000000e+00  6.6921196749165892e+00 3.5982063741965633e+00 0.0000000000000000e+00  6.6342250940025860e+00 3.6683106475277403e+00 0.0000000000000000e+00  6.5765222915672323e+00 3.7385697443262296e+00 0.0000000000000000e+00  6.5189953235923337e+00 3.8088492035139101e+00 0.0000000000000000e+00  6.4617588613927568e+00 3.8791612791661536e+00 0.0000000000000000e+00  6.4046737530783746e+00 3.9495182476094208e+00 0.0000000000000000e+00  6.3478307485571559e+00 4.0199699506352955e+00 0.0000000000000000e+00  6.2912526071145516e+00 4.0903296566209928e+00 0.0000000000000000e+00  6.2348755352945657e+00 4.1608373549787903e+00 0.0000000000000000e+00  6.1787303511855578e+00 4.2312979677777003e+00 0.0000000000000000e+00  6.1228778445200636e+00 4.3017749855806651e+00 0.0000000000000000e+00  6.0672298368270008e+00 4.3722620516868673e+00 0.0000000000000000e+00  6.0118403420379254e+00 4.4427925019715273e+00 0.0000000000000000e+00  5.9567350060510513e+00 4.5132416169030494e+00 0.0000000000000000e+00  5.9018656533630276e+00 4.5837558791507798e+00 0.0000000000000000e+00  5.8472560609236588e+00 4.6542311255935340e+00 0.0000000000000000e+00  5.7929443281488968e+00 4.7246698879182576e+00 0.0000000000000000e+00  5.7388721183066007e+00 4.7951198430568009e+00 0.0000000000000000e+00  5.6850973479611211e+00 4.8655158799780169e+00 0.0000000000000000e+00  5.6315844472744105e+00 4.9359027464113199e+00 0.0000000000000000e+00  5.5783801406615536e+00 5.0062105716829137e+00 0.0000000000000000e+00  5.5254241507169972e+00 5.0765369573116184e+00 0.0000000000000000e+00  5.4728064326149513e+00 5.1467304069111117e+00 0.0000000000000000e+00  5.4204286037552905e+00 5.2169624469255664e+00 0.0000000000000000e+00  5.3684132309740660e+00 5.2870233149727275e+00 0.0000000000000000e+00  5.3166262296236519e+00 5.3571376964429680e+00 0.0000000000000000e+00  5.2652182031985584e+00 5.4270554891953759e+00 0.0000000000000000e+00  5.2140316756807916e+00 5.4970355158999640e+00 0.0000000000000000e+00  5.1632619669034314e+00 5.5667644153024023e+00 0.0000000000000000e+00  5.1126973952528525e+00 5.6365749864616497e+00 0.0000000000000000e+00  5.0625916451658588e+00 5.7060713550086595e+00 0.0000000000000000e+00  5.0127038204593717e+00 5.7756360165843468e+00 0.0000000000000000e+00  4.9632577787811876e+00 5.8448887750930201e+00 0.0000000000000000e+00  4.9141176535472839e+00 5.9141120811609094e+00 0.0000000000000000e+00  4.8653270633027308e+00 5.9831191370743193e+00 0.0000000000000000e+00  4.8169331852837187e+00 6.0519718937230609e+00 0.0000000000000000e+00  4.7688537314209745e+00 6.1206660989632482e+00 0.0000000000000000e+00  4.7212858298469520e+00 6.1890053842629147e+00 0.0000000000000000e+00  4.6740929163071865e+00 6.2571311403920928e+00 0.0000000000000000e+00  4.6274166894770943e+00 6.3248503023706979e+00 0.0000000000000000e+00  4.5811961230264791e+00 6.3922669125882834e+00 0.0000000000000000e+00  4.5354654251639923e+00 6.4592695356649807e+00 0.0000000000000000e+00  4.4902711591631839e+00 6.5258527589474111e+00 0.0000000000000000e+00  4.4457009198682753e+00 6.5917964065961359e+00 0.0000000000000000e+00  4.4016359693379812e+00 6.6573678018767994e+00 0.0000000000000000e+00  4.3584730042155977e+00 6.7218753487558560e+00 0.0000000000000000e+00  4.3162294383844291e+00 6.7853667348080409e+00 0.0000000000000000e+00  4.2749877654298762e+00 6.8476024641108291e+00 0.0000000000000000e+00  4.2350213117413666e+00 6.9082315745442804e+00 0.0000000000000000e+00  4.1965888681389663e+00 6.9667561732163366e+00 0.0000000000000000e+00  4.1601755413546782e+00 7.0224894329799996e+00 0.0000000000000000e+00  4.1262877498259565e+00 7.0745479280801735e+00 0.0000000000000000e+00  4.0955701989219637e+00 7.1219497744291562e+00 0.0000000000000000e+00  4.0685734751278009e+00 7.1637230124166731e+00 0.0000000000000000e+00  4.0456336788242906e+00 7.1993325250307576e+00 0.0000000000000000e+00  4.0266664441281783e+00 7.2288150997242049e+00 0.0000000000000000e+00  4.0112412370673534e+00 7.2528411669336936e+00 0.0000000000000000e+00  3.9988386098494839e+00 7.2721721707489380e+00 0.0000000000000000e+00  3.9889923630959321e+00 7.2875351848807695e+00 0.0000000000000000e+00  3.9813868775293910e+00 7.2993974122151926e+00 0.0000000000000000e+00  3.9756650737601684e+00 7.3083074242085289e+00 0.0000000000000000e+00  3.9715185260449788e+00 7.3147479159807798e+00 0.0000000000000000e+00  3.9685408141324867e+00 7.3193436589826613e+00 0.0000000000000000e+00  3.9664573870578632e+00 7.3225434628525834e+00 0.0000000000000000e+00  3.9649560728357192e+00 7.3248167712033601e+00 0.0000000000000000e+00  3.9639006867249664e+00 7.3264015020685935e+00 0.0000000000000000e+00  3.9631059299389180e+00 7.3275623698520214e+00 0.0000000000000000e+00  3.9625333012729911e+00 7.3283848732833832e+00 0.0000000000000000e+00  3.9620737272870530e+00 7.3290142496818156e+00 0.0000000000000000e+00  3.9617314675495936e+00 7.3294674852896540e+00 0.0000000000000000e+00  3.9614395095257042e+00 7.3298275846149528e+00 0.0000000000000000e+00  3.9612165044835952e+00 7.3300857506037831e+00 0.0000000000000000e+00  3.9610196355344587e+00 7.3302925540865731e+00 0.0000000000000000e+00  3.9608673178215641e+00 7.3304345675337155e+00 0.0000000000000000e+00  3.9607302961833382e+00 7.3305457249927732e+00 0.0000000000000000e+00  3.9606210860254647e+00 7.3306164449510591e+00 0.0000000000000000e+00  3.9605195746745143e+00 7.3306694819600269e+00 0.0000000000000000e+00  3.9604337370694540e+00 7.3306984151929440e+00 0.0000000000000000e+00  3.9603511671250984e+00 7.3307170770523564e+00 0.0000000000000000e+00  3.9602774026316521e+00 7.3307204445870857e+00 0.0000000000000000e+00  3.9602054666949256e+00 7.3307164503039228e+00 0.0000000000000000e+00  3.9601387943791972e+00 7.3307018783958560e+00 0.0000000000000000e+00  3.9600733404715283e+00 7.3306813667173341e+00 0.0000000000000000e+00  3.9600109904162673e+00 7.3306531729675202e+00 0.0000000000000000e+00  3.9599492542508541e+00 7.3306203072453915e+00 0.0000000000000000e+00  3.9598892738592002e+00 7.3305813761602172e+00 0.0000000000000000e+00  3.9598295060160593e+00 7.3305383564665414e+00 0.0000000000000000e+00  3.9597707167298082e+00 7.3304896239470185e+00 0.0000000000000000e+00  3.9597118638354694e+00 7.3304358855009317e+00 0.0000000000000000e+00  3.9596535727969155e+00 7.3303743931641954e+00 0.0000000000000000e+00  3.9595949696148751e+00 7.3303041982493085e+00 0.0000000000000000e+00  3.9595366362150499e+00 7.3302201397018241e+00 0.0000000000000000e+00  3.9594777777831314e+00 7.3301187950115532e+00 0.0000000000000000e+00  3.9594188680854074e+00 7.3299918041188574e+00 0.0000000000000000e+00  3.9593591599523745e+00 7.3298323392066509e+00 0.0000000000000000e+00  3.9592990655033709e+00 7.3296284334235251e+00 0.0000000000000000e+00  3.9592378190574151e+00 7.3293699681665814e+00 0.0000000000000000e+00  3.9591758391063139e+00 7.3290417026026500e+00 0.0000000000000000e+00  3.9591124103637036e+00 7.3286315176979349e+00 0.0000000000000000e+00  3.9590479363311508e+00 7.3281229090493802e+00 0.0000000000000000e+00  3.9589817901875612e+00 7.3275042407923481e+00 0.0000000000000000e+00  3.9589144151479041e+00 7.3267609627618642e+00 0.0000000000000000e+00  3.9588451356169410e+00 7.3258855635132765e+00 0.0000000000000000e+00  3.9587745026565209e+00 7.3248688413108818e+00 0.0000000000000000e+00  3.9587016926636740e+00 7.3237108223315905e+00 0.0000000000000000e+00  3.9586273529487439e+00 7.3224104235601422e+00 0.0000000000000000e+00  3.9585504561555567e+00 7.3209770258653197e+00 0.0000000000000000e+00  3.9584718600240514e+00 7.3194185492130526e+00 0.0000000000000000e+00  3.9583901034916891e+00 7.3177535388770742e+00 0.0000000000000000e+00  3.9583064651854607e+00 7.3159974030266728e+00 0.0000000000000000e+00  3.9582185427864633e+00 7.3141751439177289e+00 0.0000000000000000e+00  3.9581280807340629e+00 7.3123064748604012e+00 0.0000000000000000e+00  3.9580303708777671e+00 7.3104172129962288e+00 0.0000000000000000e+00  3.9579273204180208e+00 7.3085268679699098e+00 0.0000000000000000e+00  3.9578075362114395e+00 7.3066516539098254e+00 0.0000000000000000e+00  3.9576714432236511e+00 7.3048040623140160e+00 0.0000000000000000e+00  3.9574869217764403e+00 7.3029656593831191e+00 0.0000000000000000e+00  3.9572455759794183e+00 7.3011269234709770e+00 0.0000000000000000e+00  3.9568489983889692e+00 7.2991610066596637e+00 0.0000000000000000e+00  3.9562503919305914e+00 7.2969881306700533e+00 0.0000000000000000e+00  3.9551356720840647e+00 7.2941384811992336e+00 0.0000000000000000e+00  3.9533029753425195e+00 7.2902825152827209e+00 0.0000000000000000e+00  3.9497229870334452e+00 7.2838302701525528e+00 0.0000000000000000e+00  3.9435951796124096e+00 7.2735264000205548e+00 0.0000000000000000e+00  3.9314881330124987e+00 7.2540165691070841e+00 0.0000000000000000e+00  3.9103328335186665e+00 7.2204692275311064e+00 0.0000000000000000e+00  3.8687953748067616e+00 7.1547766742755563e+00 0.0000000000000000e+00  3.7963153546887698e+00 7.0389320091644842e+00 0.0000000000000000e+00  3.6575314023111747e+00 6.8111556078530269e+00 0.0000000000000000e+00  3.4246424580934809e+00 6.4086142484863542e+00 0.0000000000000000e+00  3.0144329375665460e+00 5.6331355946364816e+00 0.0000000000000000e+00  2.4233891487691483e+00 4.3232050504161617e+00 0.0000000000000000e+00  1.5910045417003362e+00 1.9427322922312729e+00 0.0000000000000000e+00  1.0877425458705410e+00 2.7084928344655818e-01 0.0000000000000000e+00  1.0053009098374028e+00 1.6502576934528144e-02 0.0000000000000000e+00  1.0000765755695133e+00 1.3772358012795495e-03 0.0000000000000000e+00  1.0002659362415693e+00 0.0000000000000000e+00 0.0000000000000000e+00  9.7782659241077372e+00 0.0000000000000000e+00 1.0965207107286181e-05  9.7766150633779052e+00 3.1508975808678910e-02 3.2064922322444930e-06  9.7717353128035782e+00 6.3147880896896547e-02 -9.4389467174745649e-06  9.7636004886357277e+00 9.5095966170335472e-02 7.0982413329316817e-06  9.7522834484229897e+00 1.2746617939905047e-01 -6.7360882507234544e-06  9.7378737834818878e+00 1.6039712974903167e-01 5.6871030464304973e-06  9.7204214502971507e+00 1.9401644876473953e-01 -6.5444325806919637e-06  9.7000313812924510e+00 2.2843882904171436e-01 6.0514687434648943e-06  9.6768479121170081e+00 2.6375566736374129e-01 -7.2304197358195700e-06  9.6509452935728124e+00 3.0007664283453034e-01 6.3939119548512849e-06  9.6224677235404759e+00 3.3745948346360882e-01 -7.4423469529682814e-06  9.5915676739941187e+00 3.7598231923666436e-01 6.4082852871669873e-06  9.5583456157166431e+00 4.1568455431425044e-01 -7.4443222536776985e-06  9.5229414259367502e+00 4.5661818319127750e-01 6.3686340335192596e-06  9.4855181831020534e+00 4.9878646418672384e-01 -7.2518804470151855e-06  9.4461636380520346e+00 5.4222809387109816e-01 6.0924586301958389e-06  9.4050204257226682e+00 5.8692429870472906e-01 -6.7019520196380564e-06  9.3622265430207552e+00 6.3288163591097746e-01 5.4772385152581315e-06  9.3178712906616656e+00 6.8007579556675335e-01 -5.7099267301593603e-06  9.2720677902589443e+00 7.2849503522524850e-01 4.3704591216640452e-06  9.2249484755397546e+00 7.7809569921561639e-01 -4.1649312003138522e-06  9.1765757767676561e+00 8.2885810291161499e-01 2.7508383959758548e-06  9.1270570346804316e+00 8.8073900828329332e-01 -2.0871955206546522e-06  9.0764924987385047e+00 9.3369350224725733e-01 4.2870815796932213e-07  9.0249449078060806e+00 9.8768889240349356e-01 9.4803656480030038e-07  8.9724908235011398e+00 1.0426719951143848e+00 -2.9158458988919337e-06  8.9192253075036501e+00 1.0986081532717795e+00 4.6792953883738778e-06  8.8651907493278550e+00 1.1554357467115701e+00 -6.5740923508773905e-06  8.8104553063605007e+00 1.2131417453632829e+00 8.6654037498600637e-06  8.7550945796727628e+00 1.2716391699875627e+00 -1.0751023178140292e-05  8.6991467008797656e+00 1.3309345280432991e+00 1.3004802296127636e-05  8.6426637791228540e+00 1.3909381100248837e+00 -1.4517005053797662e-05  8.5857097635943234e+00 1.4516638643365913e+00 1.6564589593093626e-05  8.5283214190126202e+00 1.5130029284196966e+00 -1.9032688999947733e-05  8.4705286201529546e+00 1.5750159879247800e+00 2.4014679152870939e-05  8.4124023474912093e+00 1.6375494831635218e+00 -3.0062296702386206e-05  8.3539535180658984e+00 1.7006949189117064e+00 3.8285736920527289e-05  8.2952292706061428e+00 1.7643016851550877e+00 -4.6647663822835787e-05  8.2362565238724326e+00 1.8284604073011019e+00 5.7008344247668457e-05  8.1770929999021469e+00 1.8929981459235550e+00 -6.6332907486521436e-05  8.1177115092340895e+00 1.9580707385037504e+00 7.4298001006709011e-05  8.0582125959482713e+00 2.0234479825758114e+00 -7.4924195192938096e-05  7.9985623374496724e+00 2.0892875029882760e+00 6.7653006591462820e-05  7.9388192796240702e+00 2.1554490564728956e+00 -4.8457630972225898e-05  7.8789890658798285e+00 2.2219572576399140e+00 2.1474132527613315e-05  7.8191133728418327e+00 2.2887872474946906e+00 1.2027477480046565e-05  7.7591907020791790e+00 2.3559100765140615e+00 -4.2333777430498507e-05  7.6992440504163859e+00 2.4233416459498964e+00 6.6400645762148115e-05  7.6393283839680697e+00 2.4909540111621378e+00 -7.7750507811989527e-05  7.5793865909509348e+00 2.5589612902616663e+00 8.1064574320241790e-05  7.5195241728437088e+00 2.6270146218785269e+00 -7.5740022475343191e-05  7.4596739428652592e+00 2.6954471793554617e+00 6.7853980763815555e-05  7.3999248226500001e+00 2.7639760030186169e+00 -5.5424216847798903e-05  7.3402165766918879e+00 2.8327558537756468e+00 4.5674187185516114e-05  7.2806349355456632e+00 2.9016393008973198e+00 -3.8540039085004120e-05  7.2211327215259198e+00 2.9707917540595590e+00 3.8029409266088424e-05  7.1617656141964128e+00 3.0399798134220171e+00 -3.5524322605495188e-05  7.1024970642549894e+00 3.1093940366083053e+00 3.1431363426380743e-05  7.0434096367909182e+00 3.1788815640174120e+00 -2.4764037636814162e-05  6.9844254306840430e+00 3.2485435553310547e+00 2.4039493777500467e-05  6.9256173083677215e+00 3.3182557850259480e+00 -2.4226962989707051e-05  6.8669830657670401e+00 3.3881118826259526e+00 2.3570554079728804e-05  6.8085132418152057e+00 3.4580304887869939e+00 -1.7670306330545825e-05  6.7502005383527850e+00 3.5280909581601336e+00 1.4359526151019059e-05  6.6921352489745098e+00 3.5981249779951683e+00 -1.1370273821342375e-05  6.6342121042319082e+00 3.6683230110592300e+00 9.3629659953457847e-06  6.5764976710749261e+00 3.7385568068007391e+00 -4.3548256820589747e-06  6.5190321966530185e+00 3.8088057329741267e+00 2.6759144532487773e-06  6.4617410395109731e+00 3.8791412090199109e+00 -4.0514749857810377e-07  6.4046634285889885e+00 3.9495344640818422e+00 -7.7100095972002342e-07  6.3478626186701677e+00 4.0198989336269468e+00 4.0695314709670869e-06  6.2912451977609658e+00 4.0903497384927077e+00 -3.6868082249970583e-06  6.2348607891694883e+00 4.1608310929518497e+00 4.8687944201091042e-06  6.1787640327396147e+00 4.2312601910597216e+00 -4.8963207652475037e-06  6.1228654268782217e+00 4.3017791357881485e+00 6.2598821829862487e-06  6.0672202814284830e+00 4.3722803491412296e+00 -4.9999102527228059e-06  6.0118609142040054e+00 4.4427584879973407e+00 4.5214785267984904e-06  5.9567259675975457e+00 4.5132623393360198e+00 -3.1278542911637921e-06  5.9018543658947102e+00 4.5837667150853187e+00 1.7381618588950200e-06  5.8472696824420485e+00 4.6542147917002863e+00 -1.8301251814062976e-06  5.7929347657756649e+00 4.7246866977145325e+00 9.9492609987415591e-07  5.7388680223284085e+00 4.7951245858272546e+00 -1.2814331412322740e-06  5.6850985890513011e+00 4.8655163285915330e