<?xml version="1.0"?>
<VTKFile type="UnstructuredGrid"  version="0.1"  >
<UnstructuredGrid>
<Piece  NumberOfPoints="8241" NumberOfCells="16000">
<Points>
<DataArray  type="Float64"  NumberOfComponents="3"  format="ascii">-5 -1 0  -4.95 -1 0  -4.9 -1 0  -4.85 -1 0  -4.8 -1 0  -4.75 -1 0  -4.7 -1 0  -4.65 -1 0  -4.6 -1 0  -4.55 -1 0  -4.5 -1 0  -4.45 -1 0  -4.4 -1 0  -4.35 -1 0  -4.3 -1 0  -4.25 -1 0  -4.2 -1 0  -4.15 -1 0  -4.1 -1 0  -4.05 -1 0  -4 -1 0  -3.95 -1 0  -3.9 -1 0  -3.85 -1 0  -3.8 -1 0  -3.75 -1 0  -3.7 -1 0  -3.65 -1 0  -3.6 -1 0  -3.55 -1 0  -3.5 -1 0  -3.45 -1 0  -3.4 -1 0  -3.35 -1 0  -3.3 -1 0  -3.25 -1 0  -3.2 -1 0  -3.15 -1 0  -3.1 -1 0  -3.05 -1 0  -3 -1 0  -2.95 -1 0  -2.9 -1 0  -2.85 -1 0  -2.8 -1 0  -2.75 -1 0  -2.7 -1 0  -2.65 -1 0  -2.6 -1 0  -2.55 -1 0  -2.5 -1 0  -2.45 -1 0  -2.4 -1 0  -2.35 -1 0  -2.3 -1 0  -2.25 -1 0  -2.2 -1 0  -2.15 -1 0  -2.1 -1 0  -2.05 -1 0  -2 -1 0  -1.95 -1 0  -1.9 -1 0  -1.85 -1 0  -1.8 -1 0  -1.75 -1 0  -1.7 -1 0  -1.65 -1 0  -1.6 -1 0  -1.55 -1 0  -1.5 -1 0  -1.45 -1 0  -1.4 -1 0  -1.35 -1 0  -1.3 -1 0  -1.25 -1 0  -1.2 -1 0  -1.15 -1 0  -1.1 -1 0  -1.05 -1 0  -1 -1 0  -0.9500000000000002 -1 0  -0.9000000000000004 -1 0  -0.8499999999999996 -1 0  -0.7999999999999998 -1 0  -0.75 -1 0  -0.7000000000000002 -1 0  -0.6500000000000004 -1 0  -0.5999999999999996 -1 0  -0.5499999999999998 -1 0  -0.5 -1 0  -0.4500000000000002 -1 0  -0.4000000000000004 -1 0  -0.3499999999999996 -1 0  -0.2999999999999998 -1 0  -0.25 -1 0  -0.2000000000000002 -1 0  -0.1500000000000004 -1 0  -0.09999999999999964 -1 0  -0.04999999999999982 -1 0  0 -1 0  0.04999999999999982 -1 0  0.09999999999999964 -1 0  0.1500000000000004 -1 0  0.2000000000000002 -1 0  0.25 -1 0  0.2999999999999998 -1 0  0.3499999999999996 -1 0  0.4000000000000004 -1 0  0.4500000000000002 -1 0  0.5 -1 0  0.5499999999999998 -1 0  0.5999999999999996 -1 0  0.6500000000000004 -1 0  0.7000000000000002 -1 0  0.75 -1 0  0.7999999999999998 -1 0  0.8499999999999996 -1 0  0.9000000000000004 -1 0  0.9500000000000002 -1 0  1 -1 0  1.05 -1 0  1.1 -1 0  1.15 -1 0  1.2 -1 0  1.25 -1 0  1.3 -1 0  1.35 -1 0  1.4 -1 0  1.45 -1 0  1.5 -1 0  1.55 -1 0  1.6 -1 0  1.65 -1 0  1.7 -1 0  1.75 -1 0  1.8 -1 0  1.85 -1 0  1.9 -1 0  1.95 -1 0  2 -1 0  2.05 -1 0  2.1 -1 0  2.15 -1 0  2.2 -1 0  2.25 -1 0  2.3 -1 0  2.35 -1 0  2.4 -1 0  2.45 -1 0  2.5 -1 0  2.55 -1 0  2.6 -1 0  2.65 -1 0  2.7 -1 0  2.75 -1 0  2.8 -1 0  2.85 -1 0  2.9 -1 0  2.95 -1 0  3 -1 0  3.050000000000001 -1 0  3.1 -1 0  3.15 -1 0  3.199999999999999 -1 0  3.25 -1 0  3.300000000000001 -1 0  3.35 -1 0  3.4 -1 0  3.449999999999999 -1 0  3.5 -1 0  3.550000000000001 -1 0  3.6 -1 0  3.65 -1 0  3.699999999999999 -1 0  3.75 -1 0  3.800000000000001 -1 0  3.85 -1 0  3.9 -1 0  3.949999999999999 -1 0  4 -1 0  4.050000000000001 -1 0  4.1 -1 0  4.15 -1 0  4.199999999999999 -1 0  4.25 -1 0  4.300000000000001 -1 0  4.35 -1 0  4.4 -1 0  4.449999999999999 -1 0  4.5 -1 0  4.550000000000001 -1 0  4.6 -1 0  4.65 -1 0  4.699999999999999 -1 0  4.75 -1 0  4.800000000000001 -1 0  4.85 -1 0  4.9 -1 0  4.949999999999999 -1 0  5 -1 0  -5 -0.95 0  -4.95 -0.95 0  -4.9 -0.95 0  -4.85 -0.95 0  -4.8 -0.95 0  -4.75 -0.95 0  -4.7 -0.95 0  -4.65 -0.95 0  -4.6 -0.95 0  -4.55 -0.95 0  -4.5 -0.95 0  -4.45 -0.95 0  -4.4 -0.95 0  -4.35 -0.95 0  -4.3 -0.95 0  -4.25 -0.95 0  -4.2 -0.95 0  -4.15 -0.95 0  -4.1 -0.95 0  -4.05 -0.95 0  -4 -0.95 0  -3.95 -0.95 0  -3.9 -0.95 0  -3.85 -0.95 0  -3.8 -0.95 0  -3.75 -0.95 0  -3.7 -0.95 0  -3.65 -0.95 0  -3.6 -0.95 0  -3.55 -0.95 0  -3.5 -0.95 0  -3.45 -0.95 0  -3.4 -0.95 0  -3.35 -0.95 0  -3.3 -0.95 0  -3.25 -0.95 0  -3.2 -0.95 0  -3.15 -0.95 0  -3.1 -0.95 0  -3.05 -0.95 0  -3 -0.95 0  -2.95 -0.95 0  -2.9 -0.95 0  -2.85 -0.95 0  -2.8 -0.95 0  -2.75 -0.95 0  -2.7 -0.95 0  -2.65 -0.95 0  -2.6 -0.95 0  -2.55 -0.95 0  -2.5 -0.95 0  -2.45 -0.95 0  -2.4 -0.95 0  -2.35 -0.95 0  -2.3 -0.95 0  -2.25 -0.95 0  -2.2 -0.95 0  -2.15 -0.95 0  -2.1 -0.95 0  -2.05 -0.95 0  -2 -0.95 0  -1.95 -0.95 0  -1.9 -0.95 0  -1.85 -0.95 0  -1.8 -0.95 0  -1.75 -0.95 0  -1.7 -0.95 0  -1.65 -0.95 0  -1.6 -0.95 0  -1.55 -0.95 0  -1.5 -0.95 0  -1.45 -0.95 0  -1.4 -0.95 0  -1.35 -0.95 0  -1.3 -0.95 0  -1.25 -0.95 0  -1.2 -0.95 0  -1.15 -0.95 0  -1.1 -0.95 0  -1.05 -0.95 0  -1 -0.95 0  -0.9500000000000002 -0.95 0  -0.9000000000000004 -0.95 0  -0.8499999999999996 -0.95 0  -0.7999999999999998 -0.95 0  -0.75 -0.95 0  -0.7000000000000002 -0.95 0  -0.6500000000000004 -0.95 0  -0.5999999999999996 -0.95 0  -0.5499999999999998 -0.95 0  -0.5 -0.95 0  -0.4500000000000002 -0.95 0  -0.4000000000000004 -0.95 0  -0.3499999999999996 -0.95 0  -0.2999999999999998 -0.95 0  -0.25 -0.95 0  -0.2000000000000002 -0.95 0  -0.1500000000000004 -0.95 0  -0.09999999999999964 -0.95 0  -0.04999999999999982 -0.95 0  0 -0.95 0  0.04999999999999982 -0.95 0  0.09999999999999964 -0.95 0  0.1500000000000004 -0.95 0  0.2000000000000002 -0.95 0  0.25 -0.95 0  0.2999999999999998 -0.95 0  0.3499999999999996 -0.95 0  0.4000000000000004 -0.95 0  0.4500000000000002 -0.95 0  0.5 -0.95 0  0.5499999999999998 -0.95 0  0.5999999999999996 -0.95 0  0.6500000000000004 -0.95 0  0.7000000000000002 -0.95 0  0.75 -0.95 0  0.7999999999999998 -0.95 0  0.8499999999999996 -0.95 0  0.9000000000000004 -0.95 0  0.9500000000000002 -0.95 0  1 -0.95 0  1.05 -0.95 0  1.1 -0.95 0  1.15 -0.95 0  1.2 -0.95 0  1.25 -0.95 0  1.3 -0.95 0  1.35 -0.95 0  1.4 -0.95 0  1.45 -0.95 0  1.5 -0.95 0  1.55 -0.95 0  1.6 -0.95 0  1.65 -0.95 0  1.7 -0.95 0  1.75 -0.95 0  1.8 -0.95 0  1.85 -0.95 0  1.9 -0.95 0  1.95 -0.95 0  2 -0.95 0  2.05 -0.95 0  2.1 -0.95 0  2.15 -0.95 0  2.2 -0.95 0  2.25 -0.95 0  2.3 -0.95 0  2.35 -0.95 0  2.4 -0.95 0  2.45 -0.95 0  2.5 -0.95 0  2.55 -0.95 0  2.6 -0.95 0  2.65 -0.95 0  2.7 -0.95 0  2.75 -0.95 0  2.8 -0.95 0  2.85 -0.95 0  2.9 -0.95 0  2.95 -0.95 0  3 -0.95 0  3.050000000000001 -0.95 0  3.1 -0.95 0  3.15 -0.95 0  3.199999999999999 -0.95 0  3.25 -0.95 0  3.300000000000001 -0.95 0  3.35 -0.95 0  3.4 -0.95 0  3.449999999999999 -0.95 0  3.5 -0.95 0  3.550000000000001 -0.95 0  3.6 -0.95 0  3.65 -0.95 0  3.699999999999999 -0.95 0  3.75 -0.95 0  3.800000000000001 -0.95 0  3.85 -0.95 0  3.9 -0.95 0  3.949999999999999 -0.95 0  4 -0.95 0  4.050000000000001 -0.95 0  4.1 -0.95 0  4.15 -0.95 0  4.199999999999999 -0.95 0  4.25 -0.95 0  4.300000000000001 -0.95 0  4.35 -0.95 0  4.4 -0.95 0  4.449999999999999 -0.95 0  4.5 -0.95 0  4.550000000000001 -0.95 0  4.6 -0.95 0  4.65 -0.95 0  4.699999999999999 -0.95 0  4.75 -0.95 0  4.800000000000001 -0.95 0  4.85 -0.95 0  4.9 -0.95 0  4.949999999999999 -0.95 0  5 -0.95 0  -5 -0.9 0  -4.95 -0.9 0  -4.9 -0.9 0  -4.85 -0.9 0  -4.8 -0.9 0  -4.75 -0.9 0  -4.7 -0.9 0  -4.65 -0.9 0  -4.6 -0.9 0  -4.55 -0.9 0  -4.5 -0.9 0  -4.45 -0.9 0  -4.4 -0.9 0  -4.35 -0.9 0  -4.3 -0.9 0  -4.25 -0.9 0  -4.2 -0.9 0  -4.15 -0.9 0  -4.1 -0.9 0  -4.05 -0.9 0  -4 -0.9 0  -3.95 -0.9 0  -3.9 -0.9 0  -3.85 -0.9 0  -3.8 -0.9 0  -3.75 -0.9 0  -3.7 -0.9 0  -3.65 -0.9 0  -3.6 -0.9 0  -3.55 -0.9 0  -3.5 -0.9 0  -3.45 -0.9 0  -3.4 -0.9 0  -3.35 -0.9 0  -3.3 -0.9 0  -3.25 -0.9 0  -3.2 -0.9 0  -3.15 -0.9 0  -3.1 -0.9 0  -3.05 -0.9 0  -3 -0.9 0  -2.95 -0.9 0  -2.9 -0.9 0  -2.85 -0.9 0  -2.8 -0.9 0  -2.75 -0.9 0  -2.7 -0.9 0  -2.65 -0.9 0  -2.6 -0.9 0  -2.55 -0.9 0  -2.5 -0.9 0  -2.45 -0.9 0  -2.4 -0.9 0  -2.35 -0.9 0  -2.3 -0.9 0  -2.25 -0.9 0  -2.2 -0.9 0  -2.15 -0.9 0  -2.1 -0.9 0  -2.05 -0.9 0  -2 -0.9 0  -1.95 -0.9 0  -1.9 -0.9 0  -1.85 -0.9 0  -1.8 -0.9 0  -1.75 -0.9 0  -1.7 -0.9 0  -1.65 -0.9 0  -1.6 -0.9 0  -1.55 -0.9 0  -1.5 -0.9 0  -1.45 -0.9 0  -1.4 -0.9 0  -1.35 -0.9 0  -1.3 -0.9 0  -1.25 -0.9 0  -1.2 -0.9 0  -1.15 -0.9 0  -1.1 -0.9 0  -1.05 -0.9 0  -1 -0.9 0  -0.9500000000000002 -0.9 0  -0.9000000000000004 -0.9 0  -0.8499999999999996 -0.9 0  -0.7999999999999998 -0.9 0  -0.75 -0.9 0  -0.7000000000000002 -0.9 0  -0.6500000000000004 -0.9 0  -0.5999999999999996 -0.9 0  -0.5499999999999998 -0.9 0  -0.5 -0.9 0  -0.4500000000000002 -0.9 0  -0.4000000000000004 -0.9 0  -0.3499999999999996 -0.9 0  -0.2999999999999998 -0.9 0  -0.25 -0.9 0  -0.2000000000000002 -0.9 0  -0.1500000000000004 -0.9 0  -0.09999999999999964 -0.9 0  -0.04999999999999982 -0.9 0  0 -0.9 0  0.04999999999999982 -0.9 0  0.09999999999999964 -0.9 0  0.1500000000000004 -0.9 0  0.2000000000000002 -0.9 0  0.25 -0.9 0  0.2999999999999998 -0.9 0  0.3499999999999996 -0.9 0  0.4000000000000004 -0.9 0  0.4500000000000002 -0.9 0  0.5 -0.9 0  0.5499999999999998 -0.9 0  0.5999999999999996 -0.9 0  0.6500000000000004 -0.9 0  0.7000000000000002 -0.9 0  0.75 -0.9 0  0.7999999999999998 -0.9 0  0.8499999999999996 -0.9 0  0.9000000000000004 -0.9 0  0.9500000000000002 -0.9 0  1 -0.9 0  1.05 -0.9 0  1.1 -0.9 0  1.15 -0.9 0  1.2 -0.9 0  1.25 -0.9 0  1.3 -0.9 0  1.35 -0.9 0  1.4 -0.9 0  1.45 -0.9 0  1.5 -0.9 0  1.55 -0.9 0  1.6 -0.9 0  1.65 -0.9 0  1.7 -0.9 0  1.75 -0.9 0  1.8 -0.9 0  1.85 -0.9 0  1.9 -0.9 0  1.95 -0.9 0  2 -0.9 0  2.05 -0.9 0  2.1 -0.9 0  2.15 -0.9 0  2.2 -0.9 0  2.25 -0.9 0  2.3 -0.9 0  2.35 -0.9 0  2.4 -0.9 0  2.45 -0.9 0  2.5 -0.9 0  2.55 -0.9 0  2.6 -0.9 0  2.65 -0.9 0  2.7 -0.9 0  2.75 -0.9 0  2.8 -0.9 0  2.85 -0.9 0  2.9 -0.9 0  2.95 -0.9 0  3 -0.9 0  3.050000000000001 -0.9 0  3.1 -0.9 0  3.15 -0.9 0  3.199999999999999 -0.9 0  3.25 -0.9 0  3.300000000000001 -0.9 0  3.35 -0.9 0  3.4 -0.9 0  3.449999999999999 -0.9 0  3.5 -0.9 0  3.550000000000001 -0.9 0  3.6 -0.9 0  3.65 -0.9 0  3.699999999999999 -0.9 0  3.75 -0.9 0  3.800000000000001 -0.9 0  3.85 -0.9 0  3.9 -0.9 0  3.949999999999999 -0.9 0  4 -0.9 0  4.050000000000001 -0.9 0  4.1 -0.9 0  4.15 -0.9 0  4.199999999999999 -0.9 0  4.25 -0.9 0  4.300000000000001 -0.9 0  4.35 -0.9 0  4.4 -0.9 0  4.449999999999999 -0.9 0  4.5 -0.9 0  4.550000000000001 -0.9 0  4.6 -0.9 0  4.65 -0.9 0  4.699999999999999 -0.9 0  4.75 -0.9 0  4.800000000000001 -0.9 0  4.85 -0.9 0  4.9 -0.9 0  4.949999999999999 -0.9 0  5 -0.9 0  -5 -0.85 0  -4.95 -0.85 0  -4.9 -0.85 0  -4.85 -0.85 0  -4.8 -0.85 0  -4.75 -0.85 0  -4.7 -0.85 0  -4.65 -0.85 0  -4.6 -0.85 0  -4.55 -0.85 0  -4.5 -0.85 0  -
[...]
<PointData  Vectors="f_15"> 
<DataArray  type="Float64"  Name="f_15"  NumberOfComponents="3" format="ascii">2.1347242397320860e+00 0.0000000000000000e+00 0.0000000000000000e+00  2.1361043132286119e+00 4.0289332063381637e-02 0.0000000000000000e+00  2.1322204204687565e+00 7.3092383351696946e-02 0.0000000000000000e+00  2.1370851807718383e+00 8.5856737780424464e-02 0.0000000000000000e+00  2.1335021688239135e+00 1.0621387956192885e-01 0.0000000000000000e+00  2.1356922199837736e+00 1.7964007865578768e-01 0.0000000000000000e+00  2.1333374050293314e+00 1.2920370295169364e-01 0.0000000000000000e+00  2.1377254945862973e+00 2.5774257188337324e-01 0.0000000000000000e+00  2.1313646537023585e+00 2.1398815457224374e-01 0.0000000000000000e+00  2.1385479824211751e+00 2.4979426503158797e-01 0.0000000000000000e+00  2.1325495200446900e+00 3.4897258674483134e-01 0.0000000000000000e+00  2.1373552383818728e+00 2.7253818975590566e-01 0.0000000000000000e+00  2.1333142505729934e+00 3.8115154613596075e-01 0.0000000000000000e+00  2.1382179160905381e+00 4.0972812565265265e-01 0.0000000000000000e+00  2.1322600051967266e+00 3.6485947410409825e-01 0.0000000000000000e+00  2.1380867801411876e+00 4.9913060610955373e-01 0.0000000000000000e+00  2.1327665862675316e+00 4.5291647921612344e-01 0.0000000000000000e+00  2.1571239482965177e+00 4.6890345359756919e-01 0.0000000000000000e+00  2.3551451134409973e+00 7.7914427628688915e-02 0.0000000000000000e+00  2.9935818420599993e+00 -1.2465719384637797e+00 0.0000000000000000e+00  3.8012991089383354e+00 -2.7799156670542211e+00 0.0000000000000000e+00  4.4603603832067735e+00 -3.8066407413526671e+00 0.0000000000000000e+00  4.8517565143677990e+00 -4.3693442663205921e+00 0.0000000000000000e+00  5.0737181532494366e+00 -4.6500630818440216e+00 0.0000000000000000e+00  5.1887498131985170e+00 -4.7710268653686914e+00 0.0000000000000000e+00  5.2536227844304300e+00 -4.8216389850336316e+00 0.0000000000000000e+00  5.2912760579386209e+00 -4.8453770729115169e+00 0.0000000000000000e+00  5.3178869255331920e+00 -4.8318187204537519e+00 0.0000000000000000e+00  5.3361788950469222e+00 -4.8295207938770286e+00 0.0000000000000000e+00  5.3533905687607897e+00 -4.8074480461614693e+00 0.0000000000000000e+00  5.3674359194131718e+00 -4.7971004389840086e+00 0.0000000000000000e+00  5.3827490437931020e+00 -4.7702923472698275e+00 0.0000000000000000e+00  5.3953802513575271e+00 -4.7626454947632597e+00 0.0000000000000000e+00  5.4108794956627690e+00 -4.7334686294251744e+00 0.0000000000000000e+00  5.4229876540078177e+00 -4.7232779154382554e+00 0.0000000000000000e+00  5.4382768449861016e+00 -4.6991175841446262e+00 0.0000000000000000e+00  5.4502731497714798e+00 -4.6836399871019632e+00 0.0000000000000000e+00  5.4661616906392183e+00 -4.6628208646190252e+00 0.0000000000000000e+00  5.4772263332853504e+00 -4.6444814379156174e+00 0.0000000000000000e+00  5.4936082871789020e+00 -4.6270687240862278e+00 0.0000000000000000e+00  5.5045683678537607e+00 -4.6037545651324017e+00 0.0000000000000000e+00  5.5207971558859619e+00 -4.5911625307690400e+00 0.0000000000000000e+00  5.5317251984134659e+00 -4.5637505820979980e+00 0.0000000000000000e+00  5.5480188514965700e+00 -4.5533032934195896e+00 0.0000000000000000e+00  5.5585744452192118e+00 -4.5251160037347455e+00 0.0000000000000000e+00  5.5751774348660668e+00 -4.5143366100890354e+00 0.0000000000000000e+00  5.5854850964422935e+00 -4.4861380326296310e+00 0.0000000000000000e+00  5.6017973413586715e+00 -4.4759991930061753e+00 0.0000000000000000e+00  5.6123873968332836e+00 -4.4467945279656389e+00 0.0000000000000000e+00  5.6283499510629467e+00 -4.4370311887273326e+00 0.0000000000000000e+00  5.6389984294909441e+00 -4.4081568098301389e+00 0.0000000000000000e+00  5.6545523178405732e+00 -4.3978400347438207e+00 0.0000000000000000e+00  5.6655426232271493e+00 -4.3688968713376939e+00 0.0000000000000000e+00  5.6805990364369983e+00 -4.3587204239377808e+00 0.0000000000000000e+00  5.6916284493508753e+00 -4.3297847728655015e+00 0.0000000000000000e+00  5.7064021099306386e+00 -4.3181239371415030e+00 0.0000000000000000e+00  5.7176633237749135e+00 -4.2911283478466808e+00 0.0000000000000000e+00  5.7317250142704497e+00 -4.2765050478395672e+00 0.0000000000000000e+00  5.7433269897611385e+00 -4.2514940986729837e+00 0.0000000000000000e+00  5.7569532776252226e+00 -4.2345815720959976e+00 0.0000000000000000e+00  5.7684709562038234e+00 -4.2108016134373312e+00 0.0000000000000000e+00  5.7818333147183667e+00 -4.1914278514405616e+00 0.0000000000000000e+00  5.7933633410081207e+00 -4.1697309012654458e+00 0.0000000000000000e+00  5.8062423337407498e+00 -4.1469771606304189e+00 0.0000000000000000e+00  5.8177170594958909e+00 -4.1278637374543781e+00 0.0000000000000000e+00  5.8304949939779407e+00 -4.1016982897477368e+00 0.0000000000000000e+00  5.8414686481223326e+00 -4.0849319300555944e+00 0.0000000000000000e+00  5.8541772813975088e+00 -4.0562175002945402e+00 0.0000000000000000e+00  5.8649704320586951e+00 -4.0403360920052238e+00 0.0000000000000000e+00  5.8772573372862880e+00 -4.0111485624361860e+00 0.0000000000000000e+00  5.8878222371473656e+00 -3.9942700697875293e+00 0.0000000000000000e+00  5.9000627553594196e+00 -3.9659372331460663e+00 0.0000000000000000e+00  5.9100219357489676e+00 -3.9473851052587228e+00 0.0000000000000000e+00  5.9221372977575362e+00 -3.9206574658689846e+00 0.0000000000000000e+00  5.9319531375300141e+00 -3.8992574962940689e+00 0.0000000000000000e+00  5.9434950204224863e+00 -3.8753034454443149e+00 0.0000000000000000e+00  5.9531325104319102e+00 -3.8508415399823792e+00 0.0000000000000000e+00  5.9645237451438353e+00 -3.8283976566502917e+00 0.0000000000000000e+00  5.9736053208569269e+00 -3.8029160119921834e+00 0.0000000000000000e+00  5.9847287823625024e+00 -3.7803330002593283e+00 0.0000000000000000e+00  5.9937580151413234e+00 -3.7543004871953158e+00 0.0000000000000000e+00  6.0041934632984413e+00 -3.7317723507204112e+00 0.0000000000000000e+00  6.0130644814384873e+00 -3.7052829936238956e+00 0.0000000000000000e+00  6.0233197419417674e+00 -3.6819138914284677e+00 0.0000000000000000e+00  6.0316188149215542e+00 -3.6560326338559701e+00 0.0000000000000000e+00  6.0415987502616746e+00 -3.6315044526939158e+00 0.0000000000000000e+00  6.0498051881457009e+00 -3.6054786906222898e+00 0.0000000000000000e+00  6.0591493033900941e+00 -3.5809238235167000e+00 0.0000000000000000e+00  6.0671076219607363e+00 -3.5542107377220611e+00 0.0000000000000000e+00  6.0763698349439217e+00 -3.5292723888255364e+00 0.0000000000000000e+00  6.0836397804197153e+00 -3.5025903595542212e+00 0.0000000000000000e+00  6.0927546120910590e+00 -3.4770104201960357e+00 0.0000000000000000e+00  6.0998201421775411e+00 -3.4499600336469398e+00 0.0000000000000000e+00  6.1084000640145044e+00 -3.4242731981456744e+00 0.0000000000000000e+00  6.1151474450310372e+00 -3.3969757210561635e+00 0.0000000000000000e+00  6.1237564794497192e+00 -3.3702325139269322e+00 0.0000000000000000e+00  6.1296962776656292e+00 -3.3438612527784115e+00 0.0000000000000000e+00  6.1383168002546258e+00 -3.3156731033021076e+00 0.0000000000000000e+00  6.1439650058816806e+00 -3.2893403568380783e+00 0.0000000000000000e+00  6.1521198529225272e+00 -3.2614418237843541e+00 0.0000000000000000e+00  6.1574530463332389e+00 -3.2336607377232203e+00 0.0000000000000000e+00  6.1656861274732426e+00 -3.2064273025961083e+00 0.0000000000000000e+00  6.1701944782842144e+00 -3.1779021241548127e+00 0.0000000000000000e+00  6.1784967049394801e+00 -3.1503337543283791e+00 0.0000000000000000e+00  6.1827404536331079e+00 -3.1216166381630401e+00 0.0000000000000000e+00  6.1905767738278632e+00 -3.0935999112953447e+00 0.0000000000000000e+00  6.1945681582307737e+00 -3.0649447545453872e+00 0.0000000000000000e+00  6.2024781737077905e+00 -3.0357469009011164e+00 0.0000000000000000e+00  6.2057212798476540e+00 -3.0079516837304525e+00 0.0000000000000000e+00  6.2136589287657280e+00 -2.9775513554639246e+00 0.0000000000000000e+00  6.2167551976172986e+00 -2.9495849742086309e+00 0.0000000000000000e+00  6.2241762266090692e+00 -2.9193486144804575e+00 0.0000000000000000e+00  6.2271220197971173e+00 -2.8905084454154166e+00 0.0000000000000000e+00  6.2345663972407417e+00 -2.8600463218540391e+00 0.0000000000000000e+00  6.2369119838241502e+00 -2.8311871941927884e+00 0.0000000000000000e+00  6.2442664722671148e+00 -2.8001368121383177e+00 0.0000000000000000e+00  6.2466345142781510e+00 -2.7710297228682905e+00 0.0000000000000000e+00  6.2534215115063017e+00 -2.7399673787649732e+00 0.0000000000000000e+00  6.2556864864863932e+00 -2.7105224795299288e+00 0.0000000000000000e+00  6.2625276882193317e+00 -2.6793230111924835e+00 0.0000000000000000e+00  6.2642644576553579e+00 -2.6495432914116921e+00 0.0000000000000000e+00  6.2709473798977919e+00 -2.6184633866945752e+00 0.0000000000000000e+00  6.2728342048209011e+00 -2.5880012017652203e+00 0.0000000000000000e+00  6.2789525392996808e+00 -2.5566666908742195e+00 0.0000000000000000e+00  6.2807092482333164e+00 -2.5262988769956314e+00 0.0000000000000000e+00  6.2869780787429974e+00 -2.4940805882899779e+00 0.0000000000000000e+00  6.2882314270085207e+00 -2.4636820113889706e+00 0.0000000000000000e+00  6.2943091928126886e+00 -2.4316585692589814e+00 0.0000000000000000e+00  6.2957764840949784e+00 -2.4005358606263738e+00 0.0000000000000000e+00  6.3013607411757748e+00 -2.3684462476905712e+00 0.0000000000000000e+00  6.3026297193358776e+00 -2.3382168121291889e+00 0.0000000000000000e+00  6.3084250760196525e+00 -2.3042467233307158e+00 0.0000000000000000e+00  6.3092675339667439e+00 -2.2758129991029530e+00 0.0000000000000000e+00  6.3148319595459359e+00 -2.2402671920740809e+00 0.0000000000000000e+00  6.3158700966778980e+00 -2.2127583956990446e+00 0.0000000000000000e+00  6.3210931917303768e+00 -2.1763941070121207e+00 0.0000000000000000e+00  6.3218695711587314e+00 -2.1491795837026881e+00 0.0000000000000000e+00  6.3272356426954248e+00 -2.1124639051796232e+00 0.0000000000000000e+00  6.3278110722200154e+00 -2.0851875659714545e+00 0.0000000000000000e+00  6.3328153467594888e+00 -2.0479078464136600e+00 0.0000000000000000e+00  6.3335726177043634e+00 -2.0211242596771570e+00 0.0000000000000000e+00  6.3383667782014870e+00 -1.9833933552266443e+00 0.0000000000000000e+00  6.3388751215775407e+00 -1.9557686580641145e+00 0.0000000000000000e+00  6.3436239397825060e+00 -1.9196641150881197e+00 0.0000000000000000e+00  6.3441966308985105e+00 -1.8904011845771731e+00 0.0000000000000000e+00  6.3485131573073481e+00 -1.8542119503116077e+00 0.0000000000000000e+00  6.3491371649409052e+00 -1.8275143309873096e+00 0.0000000000000000e+00  6.3534043608139523e+00 -1.7868617180045299e+00 0.0000000000000000e+00  6.3538705160868290e+00 -1.7646415891963636e+00 0.0000000000000000e+00  6.3577778356434989e+00 -1.7214663253683604e+00 0.0000000000000000e+00  6.3586140368873076e+00 -1.6987563681891480e+00 0.0000000000000000e+00  6.3620749201851776e+00 -1.6585493678725838e+00 0.0000000000000000e+00  6.3627686618683112e+00 -1.6311860351757979e+00 0.0000000000000000e+00  6.3662833455101264e+00 -1.5957655562461788e+00 0.0000000000000000e+00  6.3670899561561187e+00 -1.5638982808120592e+00 0.0000000000000000e+00  6.3697354989282013e+00 -1.5315096259488321e+00 0.0000000000000000e+00  6.3712995857476349e+00 -1.4991342829831147e+00 0.0000000000000000e+00  6.3735175432398732e+00 -1.4637380669577911e+00 0.0000000000000000e+00  6.3746750000465724e+00 -1.4363043233744166e+00 0.0000000000000000e+00  6.3770826434742354e+00 -1.3967804038467111e+00 0.0000000000000000e+00  6.3786089814841409e+00 -1.3712138952313671e+00 0.0000000000000000e+00  6.3796821268390085e+00 -1.3329603255211380e+00 0.0000000000000000e+00  6.3822764424487799e+00 -1.3050847937491905e+00 0.0000000000000000e+00  6.3829986454910497e+00 -1.2695880133688064e+00 0.0000000000000000e+00  6.3849386998963071e+00 -1.2399136656771903e+00 0.0000000000000000e+00  6.3859204936372871e+00 -1.2064377752320827e+00 0.0000000000000000e+00  6.3885169056889817e+00 -1.1746457253045086e+00 0.0000000000000000e+00  6.3877916602021179e+00 -1.1442063728693341e+00 0.0000000000000000e+00  6.3915858740461786e+00 -1.1108046241302951e+00 0.0000000000000000e+00  6.3907416775220893e+00 -1.0793040821686202e+00 0.0000000000000000e+00  6.3935936797679140e+00 -1.0487189855927259e+00 0.0000000000000000e+00  6.3930736446488163e+00 -1.0135424602185985e+00 0.0000000000000000e+00  6.3967993171341417e+00 -9.8478196995865885e-01 0.0000000000000000e+00  6.3943580176195427e+00 -9.4952557457405018e-01 0.0000000000000000e+00  6.3992804578349887e+00 -9.1822128320390883e-01 0.0000000000000000e+00  6.3969078032121862e+00 -8.8469297685773529e-01 0.0000000000000000e+00  6.4007546069504739e+00 -8.5208227921194069e-01 0.0000000000000000e+00  6.3986237395763679e+00 -8.2128416673112870e-01 0.0000000000000000e+00  6.4034930439079156e+00 -7.8475601699632469e-01 0.0000000000000000e+00  6.3994364624012707e+00 -7.6464562004930225e-01 0.0000000000000000e+00  6.4052612174730514e+00 -7.1904476209891144e-01 0.0000000000000000e+00  6.4016084214205655e+00 -7.0745952066337858e-01 0.0000000000000000e+00  6.4061512954214352e+00 -6.5758999715439448e-01 0.0000000000000000e+00  6.4029378325633735e+00 -6.4378913309087349e-01 0.0000000000000000e+00  6.4082670640840211e+00 -5.9370475226325758e-01 0.0000000000000000e+00  6.4036430884818483e+00 -5.7744558845521865e-01 0.0000000000000000e+00  6.4093639027651177e+00 -5.3013663665450161e-01 0.0000000000000000e+00  6.4055884686968767e+00 -5.0569030997129727e-01 0.0000000000000000e+00  6.4098181663282405e+00 -4.6191366486840690e-01 0.0000000000000000e+00  6.4065767875444291e+00 -4.2919978332751946e-01 0.0000000000000000e+00  6.4113565662227021e+00 -3.8661154385564195e-01 0.0000000000000000e+00  6.4069892209549799e+00 -3.6232069445960485e-01 0.0000000000000000e+00  6.4118469760597838e+00 -3.1948060565009551e-01 0.0000000000000000e+00  6.4085139402432976e+00 -2.8330774993171337e-01 0.0000000000000000e+00  6.4118148100273888e+00 -2.5109235001134006e-01 0.0000000000000000e+00  6.4090598373030678e+00 -2.1344558157097282e-01 0.0000000000000000e+00  6.4126102875043491e+00 -1.8552590463932064e-01 0.0000000000000000e+00  6.4091507542841022e+00 -1.4283956890628474e-01 0.0000000000000000e+00  6.4126527070411772e+00 -1.2648209988562836e-01 0.0000000000000000e+00  6.4102645496125001e+00 -3.5588400950410562e-02 0.0000000000000000e+00  6.4124855522887101e+00 0.0000000000000000e+00 0.0000000000000000e+00  2.1369274328828167e+00 0.0000000000000000e+00 -2.6120801656069371e-03  2.1340369808134110e+00 2.3569490043822808e-02 -1.0213783725257768e-03  2.1371564385653463e+00 5.8470841080150111e-02 -1.5656648211114659e-02  2.1355368985877874e+00 9.8807038370571823e-02 3.5347346960187161e-02  2.1349894074281450e+00 1.1427695083194969e-01 -2.8966936621801619e-02  2.1358448226842799e+00 1.5198055990324083e-01 1.6352275832920510e-02  2.1362695439283739e+00 1.8090229244695222e-01 5.0745708122710417e-03  2.1341938135152412e+00 2.1223887421227952e-01 -2.9548548860375813e-02  2.1360926478718274e+00 2.3576503607808097e-01 4.0342484654217609e-02  2.1355426501708417e+00 2.8495111887704300e-01 -3.2238402410674806e-02  2.1341279363187629e+00 2.8799444608094726e-01 1.5923404492289701e-02  2.1357216993524326e+00 3.2816058224366507e-01 -5.0721960922211380e-03  2.1346167804399441e+00 3.9093268943758736e-01 4.5893481581569199e-03  2.1340967874236614e+00 3.4510687252264616e-01 -1.1126514686548405e-02  2.1351010188321320e+00 4.5783218525797398e-01 1.6530258437410173e-02  2.1343432544115792e+00 4.4199046845048467e-01 -1.7695697217230119e-02  2.1378381435786333e+00 4.6282310255502707e-01 1.4341018898307101e-02  2.1611136157994340e+00 4.6400061494028938e-01 -1.1564717848011183e-02  2.3549099952458410e+00 7.8485987374216248e-02 1.9439104663757033e-03  2.9743911468456803e+00 -1.2086307080377727e+00 1.5647728012983458e-02  3.8220287223173628e+00 -2.7756471795584017e+00 2.9603952953170124e-03  4.4659997247740346e+00 -3.8108187634003245e+00 -5.7413588648853086e-03  4.8532796596263328e+00 -4.3629765200103350e+00 -2.5968693281781226e-03  5.0693808148715327e+00 -4.6326045652816168e+00 -1.0672537996019936e-03  5.1891980161656024e+00 -4.7558474163391358e+00 4.5939506684407640e-03  5.2509977466645443e+00 -4.8228951017302268e+00 -3.8703945794816082e-03  5.2954080535144321e+00 -4.8214583511475624e+00 5.8271282281470152e-03  5.3153064539808783e+00 -4.8325250391741115e+00 -4.6106907605360011e-03  5.3390303606178628e+00 -4.8128217141780532e+00 4.0200616175171001e-03  5.3519126351517921e+00 -4.8033960633951347e+00 -2.7401108319892245e-03  5.3693022938754247e+00 -4.7803373319502755e+00 2.3294418324191300e-03  5.3814310425966649e+00 -4.7684039192560830e+00 -1.7380765372180243e-03  5.3972447188154122e+00 -4.7442049213616180e+00 1.5999688067640425e-03  5.4095116358670685e+00 -4.7283017054054230e+00 -7.9640631909029666e-04  5.4242716930397439e+00 -4.7089622624243086e+00 4.2152359983066179e-04  5.4373305864212060e+00 -4.6882954563401915e+00 2.6109310993598886e-04  5.4516887293064977e+00 -4.6708607044743973e+00 -2.9568690215865223e-04  5.4647005711390637e+00 -4.6498890702120912e+00 4.7458791484399293e-04  5.4788318115298962e+00 -4.6328101979342042e+00 -3.4558863207360144e-04  5.4924449619787650e+00 -4.6105422603126369e+00 4.1052634005514309e-04  5.5059206239201108e+00 -4.5948231674750417e+00 -4.0292266932401343e-04  5.5197744581726456e+00 -4.5722079058066276e+00 3.2895861753136645e-04  5.5333103394620364e+00 -4.5554699051026635e+00 -2.2940578112837042e-04  5.5468425685438199e+00 -4.5347095201829335e+00 -4.3072748108770391e-05  5.5606652329391881e+00 -4.5157857033746662e+00 1.5502244144704013e-04  5.5739662626682813e+00 -4.4963151487837951e+00 -4.1343669648972911e-04  5.5876266977495552e+00 -4.4769062499615666e+00 4.8321941765367451e-04  5.6010936049114948e+00 -4.4569145951488949e+00 -7.1197535583530089e-04  5.6146547141976884e+00 -4.4371806564322185e+00 8.6895742836075611e-04  5.6278103719371435e+00 -4.4178828674520165e+00 -1.0702669940984429e-03  5.6415020351142076e+00 -4.3965808131567945e+00 1.3085987204383047e-03  5.6545149884228234e+00 -4.3778475218174098e+00 -1.3770131247483721e-03  5.6681009851003914e+00 -4.3560511206760664e+00 1.5517022775519277e-03  5.6808532026811882e+00 -4.3372475244851172e+00 -1.4193300226428163e-03  5.6944684866085620e+00 -4.3146076414937236e+00 1.4809009460347005e-03  5.7071523117414520e+00 -4.2966244201012627e+00 -1.2581926347927108e-03  5.7202865917438892e+00 -4.2729824363495581e+00 1.2061450785543532e-03  5.7331523893628198e+00 -4.2550307265014906e+00 -9.4190338399354986e-04  5.7459466037471003e+00 -4.2319283712828319e+00 6.8908302002266522e-04  5.7586796042344739e+00 -4.2128167886752408e+00 -4.4033983902169044e-04  5.7711727270727433e+00 -4.1905792379142150e+00 6.8171638472379955e-05  5.7839625985078227e+00 -4.1708926267678761e+00 -2.8444562264311391e-05  5.7959224910369604e+00 -4.1487732501992394e+00 -2.9742786911150440e-04  5.8086819339631335e+00 -4.1288174488249219e+00 5.4107280102450412e-05  5.8205132870111260e+00 -4.1067687718973911e+00 -3.1405033220557340e-04  5.8327477372972334e+00 -4.0864973855489053e+00 -1.2203049350899647e-04  5.8445573357763383e+00 -4.0644098023663995e+00 -9.3909153864761438e-05  5.8565413396268786e+00 -4.0435861931816079e+00 -4.2104463071332464e-04  5.8679894920093121e+00 -4.0217482967641160e+00 2.0868732229010196e-04  5.8796963659849597e+00 -3.9999938304631781e+00 -6.3511245540735350e-04  5.8911019912408511e+00 -3.9782121126465779e+00 3.4996324825799962e-04  5.9022449850860710e+00 -3.9558889136353410e+00 -5.7471180975319429e-04  5.9134576642332686e+00 -3.9338703945103970e+00 2.3872392017837201e-04  5.9245436744753528e+00 -3.9105394029772675e+00 -2.9827912859807764e-04  5.9350955828047169e+00 -3.8889653799271322e+00 1.0786026457116366e-05  5.9460817693791519e+00 -3.8644204516564198e+00 -1.6618876867737836e-06  5.9564493846795088e+00 -3.8424296609589290e+00 -1.3084752659808259e-04  5.9668641108997607e+00 -3.8180963012869094e+00 9.7452803934161892e-05  5.9770629857070352e+00 -3.7947261178623699e+00 -8.3696995009967348e-07  5.987267