<?xml version="1.0"?>
<VTKFile type="UnstructuredGrid"  version="0.1"  >
<UnstructuredGrid>
<Piece  NumberOfPoints="8241" NumberOfCells="16000">
<Points>
<DataArray  type="Float64"  NumberOfComponents="3"  format="ascii">-5 -1 0  -4.95 -1 0  -4.9 -1 0  -4.85 -1 0  -4.8 -1 0  -4.75 -1 0  -4.7 -1 0  -4.65 -1 0  -4.6 -1 0  -4.55 -1 0  -4.5 -1 0  -4.45 -1 0  -4.4 -1 0  -4.35 -1 0  -4.3 -1 0  -4.25 -1 0  -4.2 -1 0  -4.15 -1 0  -4.1 -1 0  -4.05 -1 0  -4 -1 0  -3.95 -1 0  -3.9 -1 0  -3.85 -1 0  -3.8 -1 0  -3.75 -1 0  -3.7 -1 0  -3.65 -1 0  -3.6 -1 0  -3.55 -1 0  -3.5 -1 0  -3.45 -1 0  -3.4 -1 0  -3.35 -1 0  -3.3 -1 0  -3.25 -1 0  -3.2 -1 0  -3.15 -1 0  -3.1 -1 0  -3.05 -1 0  -3 -1 0  -2.95 -1 0  -2.9 -1 0  -2.85 -1 0  -2.8 -1 0  -2.75 -1 0  -2.7 -1 0  -2.65 -1 0  -2.6 -1 0  -2.55 -1 0  -2.5 -1 0  -2.45 -1 0  -2.4 -1 0  -2.35 -1 0  -2.3 -1 0  -2.25 -1 0  -2.2 -1 0  -2.15 -1 0  -2.1 -1 0  -2.05 -1 0  -2 -1 0  -1.95 -1 0  -1.9 -1 0  -1.85 -1 0  -1.8 -1 0  -1.75 -1 0  -1.7 -1 0  -1.65 -1 0  -1.6 -1 0  -1.55 -1 0  -1.5 -1 0  -1.45 -1 0  -1.4 -1 0  -1.35 -1 0  -1.3 -1 0  -1.25 -1 0  -1.2 -1 0  -1.15 -1 0  -1.1 -1 0  -1.05 -1 0  -1 -1 0  -0.9500000000000002 -1 0  -0.9000000000000004 -1 0  -0.8499999999999996 -1 0  -0.7999999999999998 -1 0  -0.75 -1 0  -0.7000000000000002 -1 0  -0.6500000000000004 -1 0  -0.5999999999999996 -1 0  -0.5499999999999998 -1 0  -0.5 -1 0  -0.4500000000000002 -1 0  -0.4000000000000004 -1 0  -0.3499999999999996 -1 0  -0.2999999999999998 -1 0  -0.25 -1 0  -0.2000000000000002 -1 0  -0.1500000000000004 -1 0  -0.09999999999999964 -1 0  -0.04999999999999982 -1 0  0 -1 0  0.04999999999999982 -1 0  0.09999999999999964 -1 0  0.1500000000000004 -1 0  0.2000000000000002 -1 0  0.25 -1 0  0.2999999999999998 -1 0  0.3499999999999996 -1 0  0.4000000000000004 -1 0  0.4500000000000002 -1 0  0.5 -1 0  0.5499999999999998 -1 0  0.5999999999999996 -1 0  0.6500000000000004 -1 0  0.7000000000000002 -1 0  0.75 -1 0  0.7999999999999998 -1 0  0.8499999999999996 -1 0  0.9000000000000004 -1 0  0.9500000000000002 -1 0  1 -1 0  1.05 -1 0  1.1 -1 0  1.15 -1 0  1.2 -1 0  1.25 -1 0  1.3 -1 0  1.35 -1 0  1.4 -1 0  1.45 -1 0  1.5 -1 0  1.55 -1 0  1.6 -1 0  1.65 -1 0  1.7 -1 0  1.75 -1 0  1.8 -1 0  1.85 -1 0  1.9 -1 0  1.95 -1 0  2 -1 0  2.05 -1 0  2.1 -1 0  2.15 -1 0  2.2 -1 0  2.25 -1 0  2.3 -1 0  2.35 -1 0  2.4 -1 0  2.45 -1 0  2.5 -1 0  2.55 -1 0  2.6 -1 0  2.65 -1 0  2.7 -1 0  2.75 -1 0  2.8 -1 0  2.85 -1 0  2.9 -1 0  2.95 -1 0  3 -1 0  3.050000000000001 -1 0  3.1 -1 0  3.15 -1 0  3.199999999999999 -1 0  3.25 -1 0  3.300000000000001 -1 0  3.35 -1 0  3.4 -1 0  3.449999999999999 -1 0  3.5 -1 0  3.550000000000001 -1 0  3.6 -1 0  3.65 -1 0  3.699999999999999 -1 0  3.75 -1 0  3.800000000000001 -1 0  3.85 -1 0  3.9 -1 0  3.949999999999999 -1 0  4 -1 0  4.050000000000001 -1 0  4.1 -1 0  4.15 -1 0  4.199999999999999 -1 0  4.25 -1 0  4.300000000000001 -1 0  4.35 -1 0  4.4 -1 0  4.449999999999999 -1 0  4.5 -1 0  4.550000000000001 -1 0  4.6 -1 0  4.65 -1 0  4.699999999999999 -1 0  4.75 -1 0  4.800000000000001 -1 0  4.85 -1 0  4.9 -1 0  4.949999999999999 -1 0  5 -1 0  -5 -0.95 0  -4.95 -0.95 0  -4.9 -0.95 0  -4.85 -0.95 0  -4.8 -0.95 0  -4.75 -0.95 0  -4.7 -0.95 0  -4.65 -0.95 0  -4.6 -0.95 0  -4.55 -0.95 0  -4.5 -0.95 0  -4.45 -0.95 0  -4.4 -0.95 0  -4.35 -0.95 0  -4.3 -0.95 0  -4.25 -0.95 0  -4.2 -0.95 0  -4.15 -0.95 0  -4.1 -0.95 0  -4.05 -0.95 0  -4 -0.95 0  -3.95 -0.95 0  -3.9 -0.95 0  -3.85 -0.95 0  -3.8 -0.95 0  -3.75 -0.95 0  -3.7 -0.95 0  -3.65 -0.95 0  -3.6 -0.95 0  -3.55 -0.95 0  -3.5 -0.95 0  -3.45 -0.95 0  -3.4 -0.95 0  -3.35 -0.95 0  -3.3 -0.95 0  -3.25 -0.95 0  -3.2 -0.95 0  -3.15 -0.95 0  -3.1 -0.95 0  -3.05 -0.95 0  -3 -0.95 0  -2.95 -0.95 0  -2.9 -0.95 0  -2.85 -0.95 0  -2.8 -0.95 0  -2.75 -0.95 0  -2.7 -0.95 0  -2.65 -0.95 0  -2.6 -0.95 0  -2.55 -0.95 0  -2.5 -0.95 0  -2.45 -0.95 0  -2.4 -0.95 0  -2.35 -0.95 0  -2.3 -0.95 0  -2.25 -0.95 0  -2.2 -0.95 0  -2.15 -0.95 0  -2.1 -0.95 0  -2.05 -0.95 0  -2 -0.95 0  -1.95 -0.95 0  -1.9 -0.95 0  -1.85 -0.95 0  -1.8 -0.95 0  -1.75 -0.95 0  -1.7 -0.95 0  -1.65 -0.95 0  -1.6 -0.95 0  -1.55 -0.95 0  -1.5 -0.95 0  -1.45 -0.95 0  -1.4 -0.95 0  -1.35 -0.95 0  -1.3 -0.95 0  -1.25 -0.95 0  -1.2 -0.95 0  -1.15 -0.95 0  -1.1 -0.95 0  -1.05 -0.95 0  -1 -0.95 0  -0.9500000000000002 -0.95 0  -0.9000000000000004 -0.95 0  -0.8499999999999996 -0.95 0  -0.7999999999999998 -0.95 0  -0.75 -0.95 0  -0.7000000000000002 -0.95 0  -0.6500000000000004 -0.95 0  -0.5999999999999996 -0.95 0  -0.5499999999999998 -0.95 0  -0.5 -0.95 0  -0.4500000000000002 -0.95 0  -0.4000000000000004 -0.95 0  -0.3499999999999996 -0.95 0  -0.2999999999999998 -0.95 0  -0.25 -0.95 0  -0.2000000000000002 -0.95 0  -0.1500000000000004 -0.95 0  -0.09999999999999964 -0.95 0  -0.04999999999999982 -0.95 0  0 -0.95 0  0.04999999999999982 -0.95 0  0.09999999999999964 -0.95 0  0.1500000000000004 -0.95 0  0.2000000000000002 -0.95 0  0.25 -0.95 0  0.2999999999999998 -0.95 0  0.3499999999999996 -0.95 0  0.4000000000000004 -0.95 0  0.4500000000000002 -0.95 0  0.5 -0.95 0  0.5499999999999998 -0.95 0  0.5999999999999996 -0.95 0  0.6500000000000004 -0.95 0  0.7000000000000002 -0.95 0  0.75 -0.95 0  0.7999999999999998 -0.95 0  0.8499999999999996 -0.95 0  0.9000000000000004 -0.95 0  0.9500000000000002 -0.95 0  1 -0.95 0  1.05 -0.95 0  1.1 -0.95 0  1.15 -0.95 0  1.2 -0.95 0  1.25 -0.95 0  1.3 -0.95 0  1.35 -0.95 0  1.4 -0.95 0  1.45 -0.95 0  1.5 -0.95 0  1.55 -0.95 0  1.6 -0.95 0  1.65 -0.95 0  1.7 -0.95 0  1.75 -0.95 0  1.8 -0.95 0  1.85 -0.95 0  1.9 -0.95 0  1.95 -0.95 0  2 -0.95 0  2.05 -0.95 0  2.1 -0.95 0  2.15 -0.95 0  2.2 -0.95 0  2.25 -0.95 0  2.3 -0.95 0  2.35 -0.95 0  2.4 -0.95 0  2.45 -0.95 0  2.5 -0.95 0  2.55 -0.95 0  2.6 -0.95 0  2.65 -0.95 0  2.7 -0.95 0  2.75 -0.95 0  2.8 -0.95 0  2.85 -0.95 0  2.9 -0.95 0  2.95 -0.95 0  3 -0.95 0  3.050000000000001 -0.95 0  3.1 -0.95 0  3.15 -0.95 0  3.199999999999999 -0.95 0  3.25 -0.95 0  3.300000000000001 -0.95 0  3.35 -0.95 0  3.4 -0.95 0  3.449999999999999 -0.95 0  3.5 -0.95 0  3.550000000000001 -0.95 0  3.6 -0.95 0  3.65 -0.95 0  3.699999999999999 -0.95 0  3.75 -0.95 0  3.800000000000001 -0.95 0  3.85 -0.95 0  3.9 -0.95 0  3.949999999999999 -0.95 0  4 -0.95 0  4.050000000000001 -0.95 0  4.1 -0.95 0  4.15 -0.95 0  4.199999999999999 -0.95 0  4.25 -0.95 0  4.300000000000001 -0.95 0  4.35 -0.95 0  4.4 -0.95 0  4.449999999999999 -0.95 0  4.5 -0.95 0  4.550000000000001 -0.95 0  4.6 -0.95 0  4.65 -0.95 0  4.699999999999999 -0.95 0  4.75 -0.95 0  4.800000000000001 -0.95 0  4.85 -0.95 0  4.9 -0.95 0  4.949999999999999 -0.95 0  5 -0.95 0  -5 -0.9 0  -4.95 -0.9 0  -4.9 -0.9 0  -4.85 -0.9 0  -4.8 -0.9 0  -4.75 -0.9 0  -4.7 -0.9 0  -4.65 -0.9 0  -4.6 -0.9 0  -4.55 -0.9 0  -4.5 -0.9 0  -4.45 -0.9 0  -4.4 -0.9 0  -4.35 -0.9 0  -4.3 -0.9 0  -4.25 -0.9 0  -4.2 -0.9 0  -4.15 -0.9 0  -4.1 -0.9 0  -4.05 -0.9 0  -4 -0.9 0  -3.95 -0.9 0  -3.9 -0.9 0  -3.85 -0.9 0  -3.8 -0.9 0  -3.75 -0.9 0  -3.7 -0.9 0  -3.65 -0.9 0  -3.6 -0.9 0  -3.55 -0.9 0  -3.5 -0.9 0  -3.45 -0.9 0  -3.4 -0.9 0  -3.35 -0.9 0  -3.3 -0.9 0  -3.25 -0.9 0  -3.2 -0.9 0  -3.15 -0.9 0  -3.1 -0.9 0  -3.05 -0.9 0  -3 -0.9 0  -2.95 -0.9 0  -2.9 -0.9 0  -2.85 -0.9 0  -2.8 -0.9 0  -2.75 -0.9 0  -2.7 -0.9 0  -2.65 -0.9 0  -2.6 -0.9 0  -2.55 -0.9 0  -2.5 -0.9 0  -2.45 -0.9 0  -2.4 -0.9 0  -2.35 -0.9 0  -2.3 -0.9 0  -2.25 -0.9 0  -2.2 -0.9 0  -2.15 -0.9 0  -2.1 -0.9 0  -2.05 -0.9 0  -2 -0.9 0  -1.95 -0.9 0  -1.9 -0.9 0  -1.85 -0.9 0  -1.8 -0.9 0  -1.75 -0.9 0  -1.7 -0.9 0  -1.65 -0.9 0  -1.6 -0.9 0  -1.55 -0.9 0  -1.5 -0.9 0  -1.45 -0.9 0  -1.4 -0.9 0  -1.35 -0.9 0  -1.3 -0.9 0  -1.25 -0.9 0  -1.2 -0.9 0  -1.15 -0.9 0  -1.1 -0.9 0  -1.05 -0.9 0  -1 -0.9 0  -0.9500000000000002 -0.9 0  -0.9000000000000004 -0.9 0  -0.8499999999999996 -0.9 0  -0.7999999999999998 -0.9 0  -0.75 -0.9 0  -0.7000000000000002 -0.9 0  -0.6500000000000004 -0.9 0  -0.5999999999999996 -0.9 0  -0.5499999999999998 -0.9 0  -0.5 -0.9 0  -0.4500000000000002 -0.9 0  -0.4000000000000004 -0.9 0  -0.3499999999999996 -0.9 0  -0.2999999999999998 -0.9 0  -0.25 -0.9 0  -0.2000000000000002 -0.9 0  -0.1500000000000004 -0.9 0  -0.09999999999999964 -0.9 0  -0.04999999999999982 -0.9 0  0 -0.9 0  0.04999999999999982 -0.9 0  0.09999999999999964 -0.9 0  0.1500000000000004 -0.9 0  0.2000000000000002 -0.9 0  0.25 -0.9 0  0.2999999999999998 -0.9 0  0.3499999999999996 -0.9 0  0.4000000000000004 -0.9 0  0.4500000000000002 -0.9 0  0.5 -0.9 0  0.5499999999999998 -0.9 0  0.5999999999999996 -0.9 0  0.6500000000000004 -0.9 0  0.7000000000000002 -0.9 0  0.75 -0.9 0  0.7999999999999998 -0.9 0  0.8499999999999996 -0.9 0  0.9000000000000004 -0.9 0  0.9500000000000002 -0.9 0  1 -0.9 0  1.05 -0.9 0  1.1 -0.9 0  1.15 -0.9 0  1.2 -0.9 0  1.25 -0.9 0  1.3 -0.9 0  1.35 -0.9 0  1.4 -0.9 0  1.45 -0.9 0  1.5 -0.9 0  1.55 -0.9 0  1.6 -0.9 0  1.65 -0.9 0  1.7 -0.9 0  1.75 -0.9 0  1.8 -0.9 0  1.85 -0.9 0  1.9 -0.9 0  1.95 -0.9 0  2 -0.9 0  2.05 -0.9 0  2.1 -0.9 0  2.15 -0.9 0  2.2 -0.9 0  2.25 -0.9 0  2.3 -0.9 0  2.35 -0.9 0  2.4 -0.9 0  2.45 -0.9 0  2.5 -0.9 0  2.55 -0.9 0  2.6 -0.9 0  2.65 -0.9 0  2.7 -0.9 0  2.75 -0.9 0  2.8 -0.9 0  2.85 -0.9 0  2.9 -0.9 0  2.95 -0.9 0  3 -0.9 0  3.050000000000001 -0.9 0  3.1 -0.9 0  3.15 -0.9 0  3.199999999999999 -0.9 0  3.25 -0.9 0  3.300000000000001 -0.9 0  3.35 -0.9 0  3.4 -0.9 0  3.449999999999999 -0.9 0  3.5 -0.9 0  3.550000000000001 -0.9 0  3.6 -0.9 0  3.65 -0.9 0  3.699999999999999 -0.9 0  3.75 -0.9 0  3.800000000000001 -0.9 0  3.85 -0.9 0  3.9 -0.9 0  3.949999999999999 -0.9 0  4 -0.9 0  4.050000000000001 -0.9 0  4.1 -0.9 0  4.15 -0.9 0  4.199999999999999 -0.9 0  4.25 -0.9 0  4.300000000000001 -0.9 0  4.35 -0.9 0  4.4 -0.9 0  4.449999999999999 -0.9 0  4.5 -0.9 0  4.550000000000001 -0.9 0  4.6 -0.9 0  4.65 -0.9 0  4.699999999999999 -0.9 0  4.75 -0.9 0  4.800000000000001 -0.9 0  4.85 -0.9 0  4.9 -0.9 0  4.949999999999999 -0.9 0  5 -0.9 0  -5 -0.85 0  -4.95 -0.85 0  -4.9 -0.85 0  -4.85 -0.85 0  -4.8 -0.85 0  -4.75 -0.85 0  -4.7 -0.85 0  -4.65 -0.85 0  -4.6 -0.85 0  -4.55 -0.85 0  -4.5 -0.85 0  -
[...]
<PointData  Vectors="f_15"> 
<DataArray  type="Float64"  Name="f_15"  NumberOfComponents="3" format="ascii">5.5044572356044466e+00 0.0000000000000000e+00 0.0000000000000000e+00  5.5308474208060643e+00 8.8157908179838929e-02 0.0000000000000000e+00  5.5065896487047805e+00 1.2447130012751374e-01 0.0000000000000000e+00  5.5301510083947383e+00 2.3324274688680208e-01 0.0000000000000000e+00  5.5061858513858084e+00 2.6957464112489193e-01 0.0000000000000000e+00  5.5296288531863844e+00 3.7455503726722428e-01 0.0000000000000000e+00  5.5055403463318884e+00 4.1440071616941671e-01 0.0000000000000000e+00  5.5286008127261113e+00 5.1854046336253845e-01 0.0000000000000000e+00  5.5035397671918904e+00 5.5593714954570583e-01 0.0000000000000000e+00  5.5275407012861937e+00 6.6361021056331382e-01 0.0000000000000000e+00  5.5016400433695534e+00 6.9842171559542598e-01 0.0000000000000000e+00  5.5247008836488538e+00 8.0615444604417619e-01 0.0000000000000000e+00  5.4999411070481008e+00 8.4214827612067045e-01 0.0000000000000000e+00  5.5221432208688022e+00 9.4942675343219840e-01 0.0000000000000000e+00  5.4963764961606083e+00 9.8350470761184039e-01 0.0000000000000000e+00  5.5196198397375271e+00 1.0936398224233557e+00 0.0000000000000000e+00  5.4935716393841219e+00 1.1262635321822214e+00 0.0000000000000000e+00  5.5147632927470109e+00 1.2346166876214566e+00 0.0000000000000000e+00  5.4910054144227782e+00 1.2705229928309161e+00 0.0000000000000000e+00  5.5106873783560832e+00 1.3767182485008509e+00 0.0000000000000000e+00  5.4860883558907858e+00 1.4116926373170580e+00 0.0000000000000000e+00  5.5065568310585524e+00 1.5196526914392650e+00 0.0000000000000000e+00  5.4824166389927766e+00 1.5549807522516761e+00 0.0000000000000000e+00  5.4996739675122646e+00 1.6585839768863087e+00 0.0000000000000000e+00  5.4787342481592187e+00 1.6993383926502301e+00 0.0000000000000000e+00  5.4941667483350356e+00 1.7996766656083969e+00 0.0000000000000000e+00  5.4721995931461143e+00 1.8396665911660499e+00 0.0000000000000000e+00  5.4884150404044485e+00 1.9412593078390186e+00 0.0000000000000000e+00  5.4673578879662381e+00 1.9828884146827011e+00 0.0000000000000000e+00  5.4796257760343474e+00 2.0783051824038807e+00 0.0000000000000000e+00  5.4620787460354574e+00 2.1264769649676163e+00 0.0000000000000000e+00  5.4728030698036525e+00 2.2184569711874387e+00 0.0000000000000000e+00  5.4535746418764584e+00 2.2654007861687049e+00 0.0000000000000000e+00  5.4653898556648910e+00 2.3585240876706171e+00 0.0000000000000000e+00  5.4471947821070810e+00 2.4079309050883069e+00 0.0000000000000000e+00  5.4547328746525885e+00 2.4936587000013319e+00 0.0000000000000000e+00  5.4399113007784683e+00 2.5500436043327150e+00 0.0000000000000000e+00  5.4464722559967687e+00 2.6326707992253220e+00 0.0000000000000000e+00  5.4292160760831907e+00 2.6871273902264923e+00 0.0000000000000000e+00  5.4371686112667810e+00 2.7708082861848209e+00 0.0000000000000000e+00  5.4209792702288757e+00 2.8284078621370923e+00 0.0000000000000000e+00  5.4244793877871746e+00 2.9038134713331156e+00 0.0000000000000000e+00  5.4114237908194012e+00 2.9684280518682038e+00 0.0000000000000000e+00  5.4143819503477584e+00 3.0412045181216247e+00 0.0000000000000000e+00  5.3983896218143919e+00 3.1031650485476852e+00 0.0000000000000000e+00  5.4028482750231133e+00 3.1771777841640620e+00 0.0000000000000000e+00  5.3878908524457287e+00 3.2420414915322473e+00 0.0000000000000000e+00  5.3878970477164465e+00 3.3083281040609229e+00 0.0000000000000000e+00  5.3757277610332386e+00 3.3785399846098363e+00 0.0000000000000000e+00  5.3755141614072297e+00 3.4443767726947376e+00 0.0000000000000000e+00  5.3600220750426377e+00 3.5093333688874266e+00 0.0000000000000000e+00  5.3614999152863083e+00 3.5786416303484399e+00 0.0000000000000000e+00  5.3466090203962597e+00 3.6442389362152121e+00 0.0000000000000000e+00  5.3440914396325487e+00 3.7075854160106938e+00 0.0000000000000000e+00  5.3313618906469227e+00 3.7769826224375835e+00 0.0000000000000000e+00  5.3289210874672257e+00 3.8405456526888742e+00 0.0000000000000000e+00  5.3125728966642667e+00 3.9042409075863760e+00 0.0000000000000000e+00  5.3120411703993842e+00 3.9713055318665860e+00 0.0000000000000000e+00  5.2956425067364528e+00 4.0354507624023990e+00 0.0000000000000000e+00  5.2917320708538327e+00 4.0959211904486788e+00 0.0000000000000000e+00  5.2769340218855865e+00 4.1650768501873472e+00 0.0000000000000000e+00  5.2730569865762966e+00 4.2240199868175798e+00 0.0000000000000000e+00  5.2547202416593315e+00 4.2875359069019883e+00 0.0000000000000000e+00  5.2527279140045895e+00 4.3524326342769077e+00 0.0000000000000000e+00  5.2337338455480733e+00 4.4110670924808604e+00 0.0000000000000000e+00  5.2289906714963088e+00 4.4748205865139177e+00 0.0000000000000000e+00  5.2110698630324954e+00 4.5347252406316345e+00 0.0000000000000000e+00  5.2062261960837386e+00 4.5977483631199272e+00 0.0000000000000000e+00  5.1849204969272709e+00 4.6517247639223180e+00 0.0000000000000000e+00  5.1819322174136015e+00 4.7223036824599758e+00 0.0000000000000000e+00  5.1593668603243712e+00 4.7673272560774045e+00 0.0000000000000000e+00  5.1541850016698572e+00 4.8404540074270033e+00 0.0000000000000000e+00  5.1324039794812375e+00 4.8859350369435726e+00 0.0000000000000000e+00  5.1266546947265050e+00 4.9547755970586795e+00 0.0000000000000000e+00  5.1020837192606052e+00 4.9992313326845386e+00 0.0000000000000000e+00  5.0977517287720753e+00 5.0725108737700237e+00 0.0000000000000000e+00  5.0717662611596799e+00 5.1075098597873456e+00 0.0000000000000000e+00  5.0654080032308277e+00 5.1840855884224055e+00 0.0000000000000000e+00  5.0404672674843507e+00 5.2229137725758958e+00 0.0000000000000000e+00  5.0323806332359080e+00 5.2850853745119766e+00 0.0000000000000000e+00  5.0063809277689346e+00 5.3357894705629896e+00 0.0000000000000000e+00  4.9979058747764213e+00 5.3941295102417604e+00 0.0000000000000000e+00  4.9719089884616228e+00 5.4322556798887076e+00 0.0000000000000000e+00  4.9603339129753854e+00 5.5076833334220430e+00 0.0000000000000000e+00  4.9365460949213027e+00 5.5334554711294901e+00 0.0000000000000000e+00  4.9217964556640004e+00 5.6008967661611964e+00 0.0000000000000000e+00  4.8987116344881763e+00 5.6495514640462199e+00 0.0000000000000000e+00  4.8821300432496315e+00 5.6871066002310373e+00 0.0000000000000000e+00  4.8601915591098059e+00 5.7515167801763898e+00 0.0000000000000000e+00  4.8396139290264522e+00 5.7925262449186583e+00 0.0000000000000000e+00  4.8215435125673585e+00 5.8324191955179137e+00 0.0000000000000000e+00  4.7955365839781185e+00 5.9015811957647681e+00 0.0000000000000000e+00  4.7807084445633414e+00 5.9203891095921106e+00 0.0000000000000000e+00  4.7519985473243560e+00 5.9894961146380323e+00 0.0000000000000000e+00  4.7370001756684381e+00 6.0254657703335992e+00 0.0000000000000000e+00  4.7080587720306850e+00 6.0644482934604858e+00 0.0000000000000000e+00  4.6930426978932394e+00 6.1266490553765420e+00 0.0000000000000000e+00  4.6613646544392591e+00 6.1513382928684655e+00 0.0000000000000000e+00  4.6498322272627988e+00 6.2051878484452319e+00 0.0000000000000000e+00  4.6137042497802616e+00 6.2556816686925645e+00 0.0000000000000000e+00  4.6044285811942833e+00 6.2720111940119478e+00 0.0000000000000000e+00  4.5674100004207778e+00 6.3539382470532511e+00 0.0000000000000000e+00  4.5571265180664371e+00 6.3548687673320670e+00 0.0000000000000000e+00  4.5205744616652597e+00 6.4263708453825652e+00 0.0000000000000000e+00  4.5100812082214876e+00 6.4564781996587968e+00 0.0000000000000000e+00  4.4731386671959399e+00 6.4897405818910299e+00 0.0000000000000000e+00  4.4624154751046579e+00 6.5476845892292070e+00 0.0000000000000000e+00  4.4256385415040134e+00 6.5726196644971617e+00 0.0000000000000000e+00  4.4153049623551048e+00 6.6146998109450053e+00 0.0000000000000000e+00  4.3769045350860027e+00 6.6686118098008658e+00 0.0000000000000000e+00  4.3686289422239124e+00 6.6790693339256366e+00 0.0000000000000000e+00  4.3292453430802915e+00 6.7541958399803166e+00 0.0000000000000000e+00  4.3209187455781972e+00 6.7539995546809326e+00 0.0000000000000000e+00  4.2824582941720308e+00 6.8285582840872214e+00 0.0000000000000000e+00  4.2752481944256138e+00 6.8324551870809449e+00 0.0000000000000000e+00  4.2337730602343555e+00 6.8992838219924577e+00 0.0000000000000000e+00  4.2320226971273165e+00 6.9090755235524091e+00 0.0000000000000000e+00  4.1871404411572755e+00 6.9691865153584933e+00 0.0000000000000000e+00  4.1868195804003481e+00 6.9808337961530196e+00 0.0000000000000000e+00  4.1455375084552299e+00 7.0387278167096694e+00 0.0000000000000000e+00  4.1424834737279355e+00 7.0480396908061564e+00 0.0000000000000000e+00  4.1050906205003983e+00 7.1031511108649674e+00 0.0000000000000000e+00  4.1029691503300034e+00 7.1129587376404926e+00 0.0000000000000000e+00  4.0683416051092633e+00 7.1593537342388309e+00 0.0000000000000000e+00  4.0658165366265804e+00 7.1715145214259470e+00 0.0000000000000000e+00  4.0390816925071418e+00 7.2083133740442422e+00 0.0000000000000000e+00  4.0335994615900281e+00 7.2204036940249345e+00 0.0000000000000000e+00  4.0145772934153694e+00 7.2473954624218369e+00 0.0000000000000000e+00  4.0094517080344421e+00 7.2605869893779813e+00 0.0000000000000000e+00  3.9948454152487605e+00 7.2770048456980554e+00 0.0000000000000000e+00  3.9915830399149836e+00 7.2894248214785593e+00 0.0000000000000000e+00  3.9809913465935152e+00 7.2998729402202462e+00 0.0000000000000000e+00  3.9790661356376829e+00 7.3088106232916834e+00 0.0000000000000000e+00  3.9729794515743135e+00 7.3123631374250166e+00 0.0000000000000000e+00  3.9699293961033590e+00 7.3240869005989104e+00 0.0000000000000000e+00  3.9703039485986622e+00 7.3168089396628639e+00 0.0000000000000000e+00  3.9636316401626837e+00 7.3328758469111310e+00 0.0000000000000000e+00  3.9691031210651491e+00 7.3205773153406701e+00 0.0000000000000000e+00  3.9607091427684389e+00 7.3360637943677833e+00 0.0000000000000000e+00  3.9685825760841165e+00 7.3228174831169577e+00 0.0000000000000000e+00  3.9582441706707261e+00 7.3381955804494146e+00 0.0000000000000000e+00  3.9689374482745770e+00 7.3247327711338412e+00 0.0000000000000000e+00  3.9578165560457275e+00 7.3369168215567386e+00 0.0000000000000000e+00  3.9664260139721077e+00 7.3290968454968120e+00 0.0000000000000000e+00  3.9600156633083845e+00 7.3343358150224400e+00 0.0000000000000000e+00  3.9649351093876652e+00 7.3313873561819936e+00 0.0000000000000000e+00  3.9584928032417803e+00 7.3339716465897649e+00 0.0000000000000000e+00  3.9675076210485072e+00 7.3323993389219480e+00 0.0000000000000000e+00  3.9562794563109072e+00 7.3333250415717144e+00 0.0000000000000000e+00  3.9670044620919338e+00 7.3321241229596241e+00 0.0000000000000000e+00  3.9592483750196683e+00 7.3376442799202373e+00 0.0000000000000000e+00  3.9611515650370852e+00 7.3227778825068572e+00 0.0000000000000000e+00  3.9674805229123473e+00 7.3535409963097909e+00 0.0000000000000000e+00  3.9467776967347685e+00 7.3033874624434842e+00 0.0000000000000000e+00  3.9819899010875486e+00 7.3799116673480869e+00 0.0000000000000000e+00  3.9228700200968447e+00 7.2803205665993795e+00 0.0000000000000000e+00  3.9958035573172652e+00 7.4154866196666989e+00 0.0000000000000000e+00  3.8938077895786294e+00 7.2366184543944794e+00 0.0000000000000000e+00  4.0211186865480517e+00 7.5140619298822946e+00 0.0000000000000000e+00  3.8557234274820829e+00 7.0412375430751180e+00 0.0000000000000000e+00  4.0144637609163203e+00 7.8778152943857922e+00 0.0000000000000000e+00  4.0837614710973984e+00 6.3143365182819196e+00 0.0000000000000000e+00  3.3550430194017982e+00 9.1545838698752231e+00 0.0000000000000000e+00  6.8772719298811733e+00 2.5698398048499489e+00 0.0000000000000000e+00  9.3784377007005535e+00 1.9414224840840294e-01 0.0000000000000000e+00  9.5541314487499971e+00 -1.8719715259499600e-02 0.0000000000000000e+00  9.4099675135743972e+00 1.8075270792611370e-02 0.0000000000000000e+00  9.4986506014814953e+00 -1.3802559148656662e-02 0.0000000000000000e+00  9.4840425124789931e+00 -1.6328922069606781e-02 0.0000000000000000e+00  9.5033198877359943e+00 -4.2370137287820263e-02 0.0000000000000000e+00  9.4985631007024267e+00 -3.2380366341717939e-02 0.0000000000000000e+00  9.4895833550051698e+00 -2.6476161982944939e-02 0.0000000000000000e+00  9.4952263854947461e+00 -3.2898506285718096e-02 0.0000000000000000e+00  9.4990397758332836e+00 -3.7207785079469882e-02 0.0000000000000000e+00  9.4956986994960939e+00 -3.6392840499549398e-02 0.0000000000000000e+00  9.4968860719170518e+00 -3.8752310943847110e-02 0.0000000000000000e+00  9.4945921290694653e+00 -3.7237286488287072e-02 0.0000000000000000e+00  9.4987790644317478e+00 -4.7830826411748739e-02 0.0000000000000000e+00  9.4960354760788395e+00 -4.2444124823443230e-02 0.0000000000000000e+00  9.4971928513654280e+00 -5.3374896249329493e-02 0.0000000000000000e+00  9.4964641846697511e+00 -4.8700952813998083e-02 0.0000000000000000e+00  9.4981358688430095e+00 -6.0511923810133934e-02 0.0000000000000000e+00  9.4958099475804794e+00 -5.2804796027554418e-02 0.0000000000000000e+00  9.4991487902046128e+00 -6.5189948782487517e-02 0.0000000000000000e+00  9.4954056287285127e+00 -5.2530545253457704e-02 0.0000000000000000e+00  9.4990761196786018e+00 -7.1437556267040972e-02 0.0000000000000000e+00  9.4963923314442482e+00 -6.3882792925535004e-02 0.0000000000000000e+00  9.4984165568162613e+00 -8.0959398874777017e-02 0.0000000000000000e+00  9.4964436539375416e+00 -7.6274211725290572e-02 0.0000000000000000e+00  9.4991414947282049e+00 -9.2493282035703742e-02 0.0000000000000000e+00  9.4955327742020739e+00 -8.2013733687569618e-02 0.0000000000000000e+00  9.4996396255839493e+00 -1.0057556674210121e-01 0.0000000000000000e+00  9.4956218330640159e+00 -8.0983828825211990e-02 0.0000000000000000e+00  9.4988418520324469e+00 -8.9482048342067980e-02 0.0000000000000000e+00  9.4963913628886143e+00 -8.1884576329980113e-02 0.0000000000000000e+00  9.4982405124302840e+00 -7.7393234348099707e-02 0.0000000000000000e+00  9.4959692065312211e+00 -8.1548713049970550e-02 0.0000000000000000e+00  9.4987624440832636e+00 -6.3417834924829233e-02 0.0000000000000000e+00  9.4952038466804112e+00 -1.0153463085727522e-01 0.0000000000000000e+00  9.4981926740026097e+00 -2.3526955717915556e-02 0.0000000000000000e+00  9.4965602596863850e+00 0.0000000000000000e+00 0.0000000000000000e+00  5.5171552763955427e+00 0.0000000000000000e+00 -1.5060733077604088e-02  5.5238338304958630e+00 6.8235076550102497e-02 3.9089681400343067e-03  5.5178210442309492e+00 1.4787065640210229e-01 1.4521591101866618e-03  5.5204144591493529e+00 2.1631525969722029e-01 9.9532326737285389e-04  5.5177742918421648e+00 2.8469505829631397e-01 -1.9954326558670431e-03  5.5187935460573261e+00 3.6160120814430585e-01 2.7470718174819465e-03  5.5166054728067051e+00 4.2776543005490819e-01 -2.9110831192361180e-03  5.5167466624685639e+00 5.0317491487865296e-01 2.8626380291100649e-03  5.5155989029472945e+00 5.7217457851349396e-01 -2.6129133308553910e-03  5.5148765751709288e+00 6.4609680986485729e-01 2.2719995235564866e-03  5.5131128563634126e+00 7.1459994163017326e-01 -1.8459336909352091e-03  5.5132780860711934e+00 7.8985413699045437e-01 1.4178014248140526e-03  5.5109040718666202e+00 8.5816682801214850e-01 -9.9006257131168773e-04  5.5099083736268719e+00 9.3126057209590785e-01 5.5678486092911690e-04  5.5088262075536516e+00 1.0027695940140871e+00 -6.2532174499868958e-05  5.5071112721608468e+00 1.0736701224338172e+00 -4.6848433752044022e-04  5.5046099506388373e+00 1.1447459240924482e+00 9.7413179112898951e-04  5.5044613099008819e+00 1.2171504426597279e+00 -1.3931019970756674e-03  5.5011554413002850e+00 1.2878759090694982e+00 1.7227673173470565e-03  5.4994552635540375e+00 1.3577005001572364e+00 -2.0266672394603962e-03  5.4977546192907187e+00 1.4319301390437855e+00 2.3670803867144987e-03  5.4954909766386324e+00 1.4998818878084352e+00 -2.7177610911473991e-03  5.4917493691446913e+00 1.5724734262776490e+00 3.0152334193384901e-03  5.4914989176588964e+00 1.6430165253113092e+00 -3.2392049771300929e-03  5.4870409374216065e+00 1.7149652564058258e+00 3.4190573218990349e-03  5.4847049940436792e+00 1.7823325763713960e+00 -3.6109500691816920e-03  5.4821594549326109e+00 1.8581231940319700e+00 3.8340053810840950e-03  5.4794830631877840e+00 1.9241234752011889e+00 -4.0339987381877067e-03  5.4742951589737077e+00 1.9970216996992471e+00 4.1708577470923021e-03  5.4739160636739657e+00 2.0664084972867269e+00 -4.2551705341042270e-03  5.4682620759764866e+00 2.1387280634082577e+00 4.3196136581496319e-03  5.4652149712805844e+00 2.2042382234073878e+00 -4.3984383208853619e-03  5.4616824795466412e+00 2.2805341463884892e+00 4.4922241077314301e-03  5.4585799232007650e+00 2.3453560033593641e+00 -4.5479191908410557e-03  5.4518599489397843e+00 2.4175364021035262e+00 4.5390851341749463e-03  5.4511667484343365e+00 2.4863204215177559e+00 -4.4860721604149303e-03  5.4443206762066616e+00 2.5581097616578510e+00 4.4287416750422711e-03  5.4404056722263592e+00 2.6223857274573290e+00 -4.3917187479386600e-03  5.4357961372230914e+00 2.6980358905326431e+00 4.3574452931582144e-03  5.4320639808321083e+00 2.7624351706940944e+00 -4.2789548548019980e-03  5.4238917804715934e+00 2.8328379174897949e+00 4.1462999075539382e-03  5.4224881676198455e+00 2.9015211471299081e+00 -3.9872656527221257e-03  5.4145445105635286e+00 2.9717862766149370e+00 3.8366285962246139e-03  5.4094507996899379e+00 3.0354549790152632e+00 -3.7053148493854395e-03  5.4038177110773331e+00 3.1093685691814570e+00 3.5722966743238120e-03  5.3989542443511800e+00 3.1736626919432083e+00 -3.4104391163599888e-03  5.3896598162616307e+00 3.2417904825428372e+00 3.2243248509447294e-03  5.3868720941905224e+00 3.3100868458754862e+00 -3.0510677385970088e-03  5.3780430978613802e+00 3.3786292467783161e+00 2.9370065465719676e-03  5.3713323778106092e+00 3.4412092919036037e+00 -2.9087680327097268e-03  5.3647090386913865e+00 3.5135076262940688e+00 2.9779718284828464e-03  5.3582774184269715e+00 3.5765917058211762e+00 -3.1506621915113899e-03  5.3478234052631048e+00 3.6431443520691582e+00 3.4306861089053570e-03  5.3435551801732908e+00 3.7096538478249301e+00 -3.8046297999089701e-03  5.3331073619853031e+00 3.7771597769271206e+00 4.2481510770864513e-03  5.3254286962473509e+00 3.8369985976241101e+00 -4.7205436981363593e-03  5.3165423773571092e+00 3.9092135728914434e+00 5.2146018595397520e-03  5.3093857353308991e+00 3.9680977569894180e+00 -5.7325831154971313e-03  5.2964330208252210e+00 4.0356204899176555e+00 6.2711962804428692e-03  5.2916178843640376e+00 4.0971564892675971e+00 -6.7650630077961725e-03  5.2780627956866937e+00 4.1656601446281236e+00 7.1271877091268485e-03  5.2702983179546585e+00 4.2198627945842624e+00 -7.2790120066550364e-03  5.2580737408835390e+00 4.2945380265007111e+00 7.2621140293604785e-03  5.2502988582244869e+00 4.3452603169883925e+00 -7.1848859001467083e-03  5.2346311507651748e+00 4.4166448253228037e+00 7.1764288660078656e-03  5.2286898220992102e+00 4.4706810520030382e+00 -7.2541930264764616e-03  5.2121810509219442e+00 4.5397972246591065e+00 7.3451773161774831e-03  5.2036552182216633e+00 4.5896270321700996e+00 -7.3374784196481267e-03  5.1881587708749919e+00 4.6637113355120805e+00 7.2296964590187569e-03  5.1793137629396186e+00 4.7082030189558788e+00 -7.0859515627744842e-03  5.1606880727560016e+00 4.7812125692366356e+00 7.0099196555346854e-03  5.1535402640211592e+00 4.8286948151450702e+00 -6.9823348852366875e-03  5.1335216162234225e+00 4.8963592402844798e+00 6.9079863353668858e-03  5.1244175997190107e+00 4.9433690861884996e+00 -6.6976874537650350e-03  5.1049319997067455e+00 5.0143529416137191e+00 6.4007179374634439e-03  5.0953982147449759e+00 5.0537619150577022e+00 -6.1531858454876506e-03  5.0729246092239499e+00 5.1269817042185402e+00 6.0823229736230548e-03  5.0651756810747868e+00 5.1686098472636672e+00 -6.1022553368400559e-03  5.0406972601445750e+00 5.2322328423773454e+00 5.9874134377078609e-03  5.0315511305169744e+00 5.2797669212552680e+00 -5.5077321667038959e-03  5.0076411893409603e+00 5.3431852669850040e+00 4.6218226046937008e-03  4.9970236840939668e+00 5.3795918721160350e+00 -3.5280375243631232e-03  4.97183