<?xml version="1.0"?>
<VTKFile type="UnstructuredGrid"  version="0.1"  >
<UnstructuredGrid>
<Piece  NumberOfPoints="8241" NumberOfCells="16000">
<Points>
<DataArray  type="Float64"  NumberOfComponents="3"  format="ascii">-5 -1 0  -4.95 -1 0  -4.9 -1 0  -4.85 -1 0  -4.8 -1 0  -4.75 -1 0  -4.7 -1 0  -4.65 -1 0  -4.6 -1 0  -4.55 -1 0  -4.5 -1 0  -4.45 -1 0  -4.4 -1 0  -4.35 -1 0  -4.3 -1 0  -4.25 -1 0  -4.2 -1 0  -4.15 -1 0  -4.1 -1 0  -4.05 -1 0  -4 -1 0  -3.95 -1 0  -3.9 -1 0  -3.85 -1 0  -3.8 -1 0  -3.75 -1 0  -3.7 -1 0  -3.65 -1 0  -3.6 -1 0  -3.55 -1 0  -3.5 -1 0  -3.45 -1 0  -3.4 -1 0  -3.35 -1 0  -3.3 -1 0  -3.25 -1 0  -3.2 -1 0  -3.15 -1 0  -3.1 -1 0  -3.05 -1 0  -3 -1 0  -2.95 -1 0  -2.9 -1 0  -2.85 -1 0  -2.8 -1 0  -2.75 -1 0  -2.7 -1 0  -2.65 -1 0  -2.6 -1 0  -2.55 -1 0  -2.5 -1 0  -2.45 -1 0  -2.4 -1 0  -2.35 -1 0  -2.3 -1 0  -2.25 -1 0  -2.2 -1 0  -2.15 -1 0  -2.1 -1 0  -2.05 -1 0  -2 -1 0  -1.95 -1 0  -1.9 -1 0  -1.85 -1 0  -1.8 -1 0  -1.75 -1 0  -1.7 -1 0  -1.65 -1 0  -1.6 -1 0  -1.55 -1 0  -1.5 -1 0  -1.45 -1 0  -1.4 -1 0  -1.35 -1 0  -1.3 -1 0  -1.25 -1 0  -1.2 -1 0  -1.15 -1 0  -1.1 -1 0  -1.05 -1 0  -1 -1 0  -0.9500000000000002 -1 0  -0.9000000000000004 -1 0  -0.8499999999999996 -1 0  -0.7999999999999998 -1 0  -0.75 -1 0  -0.7000000000000002 -1 0  -0.6500000000000004 -1 0  -0.5999999999999996 -1 0  -0.5499999999999998 -1 0  -0.5 -1 0  -0.4500000000000002 -1 0  -0.4000000000000004 -1 0  -0.3499999999999996 -1 0  -0.2999999999999998 -1 0  -0.25 -1 0  -0.2000000000000002 -1 0  -0.1500000000000004 -1 0  -0.09999999999999964 -1 0  -0.04999999999999982 -1 0  0 -1 0  0.04999999999999982 -1 0  0.09999999999999964 -1 0  0.1500000000000004 -1 0  0.2000000000000002 -1 0  0.25 -1 0  0.2999999999999998 -1 0  0.3499999999999996 -1 0  0.4000000000000004 -1 0  0.4500000000000002 -1 0  0.5 -1 0  0.5499999999999998 -1 0  0.5999999999999996 -1 0  0.6500000000000004 -1 0  0.7000000000000002 -1 0  0.75 -1 0  0.7999999999999998 -1 0  0.8499999999999996 -1 0  0.9000000000000004 -1 0  0.9500000000000002 -1 0  1 -1 0  1.05 -1 0  1.1 -1 0  1.15 -1 0  1.2 -1 0  1.25 -1 0  1.3 -1 0  1.35 -1 0  1.4 -1 0  1.45 -1 0  1.5 -1 0  1.55 -1 0  1.6 -1 0  1.65 -1 0  1.7 -1 0  1.75 -1 0  1.8 -1 0  1.85 -1 0  1.9 -1 0  1.95 -1 0  2 -1 0  2.05 -1 0  2.1 -1 0  2.15 -1 0  2.2 -1 0  2.25 -1 0  2.3 -1 0  2.35 -1 0  2.4 -1 0  2.45 -1 0  2.5 -1 0  2.55 -1 0  2.6 -1 0  2.65 -1 0  2.7 -1 0  2.75 -1 0  2.8 -1 0  2.85 -1 0  2.9 -1 0  2.95 -1 0  3 -1 0  3.050000000000001 -1 0  3.1 -1 0  3.15 -1 0  3.199999999999999 -1 0  3.25 -1 0  3.300000000000001 -1 0  3.35 -1 0  3.4 -1 0  3.449999999999999 -1 0  3.5 -1 0  3.550000000000001 -1 0  3.6 -1 0  3.65 -1 0  3.699999999999999 -1 0  3.75 -1 0  3.800000000000001 -1 0  3.85 -1 0  3.9 -1 0  3.949999999999999 -1 0  4 -1 0  4.050000000000001 -1 0  4.1 -1 0  4.15 -1 0  4.199999999999999 -1 0  4.25 -1 0  4.300000000000001 -1 0  4.35 -1 0  4.4 -1 0  4.449999999999999 -1 0  4.5 -1 0  4.550000000000001 -1 0  4.6 -1 0  4.65 -1 0  4.699999999999999 -1 0  4.75 -1 0  4.800000000000001 -1 0  4.85 -1 0  4.9 -1 0  4.949999999999999 -1 0  5 -1 0  -5 -0.95 0  -4.95 -0.95 0  -4.9 -0.95 0  -4.85 -0.95 0  -4.8 -0.95 0  -4.75 -0.95 0  -4.7 -0.95 0  -4.65 -0.95 0  -4.6 -0.95 0  -4.55 -0.95 0  -4.5 -0.95 0  -4.45 -0.95 0  -4.4 -0.95 0  -4.35 -0.95 0  -4.3 -0.95 0  -4.25 -0.95 0  -4.2 -0.95 0  -4.15 -0.95 0  -4.1 -0.95 0  -4.05 -0.95 0  -4 -0.95 0  -3.95 -0.95 0  -3.9 -0.95 0  -3.85 -0.95 0  -3.8 -0.95 0  -3.75 -0.95 0  -3.7 -0.95 0  -3.65 -0.95 0  -3.6 -0.95 0  -3.55 -0.95 0  -3.5 -0.95 0  -3.45 -0.95 0  -3.4 -0.95 0  -3.35 -0.95 0  -3.3 -0.95 0  -3.25 -0.95 0  -3.2 -0.95 0  -3.15 -0.95 0  -3.1 -0.95 0  -3.05 -0.95 0  -3 -0.95 0  -2.95 -0.95 0  -2.9 -0.95 0  -2.85 -0.95 0  -2.8 -0.95 0  -2.75 -0.95 0  -2.7 -0.95 0  -2.65 -0.95 0  -2.6 -0.95 0  -2.55 -0.95 0  -2.5 -0.95 0  -2.45 -0.95 0  -2.4 -0.95 0  -2.35 -0.95 0  -2.3 -0.95 0  -2.25 -0.95 0  -2.2 -0.95 0  -2.15 -0.95 0  -2.1 -0.95 0  -2.05 -0.95 0  -2 -0.95 0  -1.95 -0.95 0  -1.9 -0.95 0  -1.85 -0.95 0  -1.8 -0.95 0  -1.75 -0.95 0  -1.7 -0.95 0  -1.65 -0.95 0  -1.6 -0.95 0  -1.55 -0.95 0  -1.5 -0.95 0  -1.45 -0.95 0  -1.4 -0.95 0  -1.35 -0.95 0  -1.3 -0.95 0  -1.25 -0.95 0  -1.2 -0.95 0  -1.15 -0.95 0  -1.1 -0.95 0  -1.05 -0.95 0  -1 -0.95 0  -0.9500000000000002 -0.95 0  -0.9000000000000004 -0.95 0  -0.8499999999999996 -0.95 0  -0.7999999999999998 -0.95 0  -0.75 -0.95 0  -0.7000000000000002 -0.95 0  -0.6500000000000004 -0.95 0  -0.5999999999999996 -0.95 0  -0.5499999999999998 -0.95 0  -0.5 -0.95 0  -0.4500000000000002 -0.95 0  -0.4000000000000004 -0.95 0  -0.3499999999999996 -0.95 0  -0.2999999999999998 -0.95 0  -0.25 -0.95 0  -0.2000000000000002 -0.95 0  -0.1500000000000004 -0.95 0  -0.09999999999999964 -0.95 0  -0.04999999999999982 -0.95 0  0 -0.95 0  0.04999999999999982 -0.95 0  0.09999999999999964 -0.95 0  0.1500000000000004 -0.95 0  0.2000000000000002 -0.95 0  0.25 -0.95 0  0.2999999999999998 -0.95 0  0.3499999999999996 -0.95 0  0.4000000000000004 -0.95 0  0.4500000000000002 -0.95 0  0.5 -0.95 0  0.5499999999999998 -0.95 0  0.5999999999999996 -0.95 0  0.6500000000000004 -0.95 0  0.7000000000000002 -0.95 0  0.75 -0.95 0  0.7999999999999998 -0.95 0  0.8499999999999996 -0.95 0  0.9000000000000004 -0.95 0  0.9500000000000002 -0.95 0  1 -0.95 0  1.05 -0.95 0  1.1 -0.95 0  1.15 -0.95 0  1.2 -0.95 0  1.25 -0.95 0  1.3 -0.95 0  1.35 -0.95 0  1.4 -0.95 0  1.45 -0.95 0  1.5 -0.95 0  1.55 -0.95 0  1.6 -0.95 0  1.65 -0.95 0  1.7 -0.95 0  1.75 -0.95 0  1.8 -0.95 0  1.85 -0.95 0  1.9 -0.95 0  1.95 -0.95 0  2 -0.95 0  2.05 -0.95 0  2.1 -0.95 0  2.15 -0.95 0  2.2 -0.95 0  2.25 -0.95 0  2.3 -0.95 0  2.35 -0.95 0  2.4 -0.95 0  2.45 -0.95 0  2.5 -0.95 0  2.55 -0.95 0  2.6 -0.95 0  2.65 -0.95 0  2.7 -0.95 0  2.75 -0.95 0  2.8 -0.95 0  2.85 -0.95 0  2.9 -0.95 0  2.95 -0.95 0  3 -0.95 0  3.050000000000001 -0.95 0  3.1 -0.95 0  3.15 -0.95 0  3.199999999999999 -0.95 0  3.25 -0.95 0  3.300000000000001 -0.95 0  3.35 -0.95 0  3.4 -0.95 0  3.449999999999999 -0.95 0  3.5 -0.95 0  3.550000000000001 -0.95 0  3.6 -0.95 0  3.65 -0.95 0  3.699999999999999 -0.95 0  3.75 -0.95 0  3.800000000000001 -0.95 0  3.85 -0.95 0  3.9 -0.95 0  3.949999999999999 -0.95 0  4 -0.95 0  4.050000000000001 -0.95 0  4.1 -0.95 0  4.15 -0.95 0  4.199999999999999 -0.95 0  4.25 -0.95 0  4.300000000000001 -0.95 0  4.35 -0.95 0  4.4 -0.95 0  4.449999999999999 -0.95 0  4.5 -0.95 0  4.550000000000001 -0.95 0  4.6 -0.95 0  4.65 -0.95 0  4.699999999999999 -0.95 0  4.75 -0.95 0  4.800000000000001 -0.95 0  4.85 -0.95 0  4.9 -0.95 0  4.949999999999999 -0.95 0  5 -0.95 0  -5 -0.9 0  -4.95 -0.9 0  -4.9 -0.9 0  -4.85 -0.9 0  -4.8 -0.9 0  -4.75 -0.9 0  -4.7 -0.9 0  -4.65 -0.9 0  -4.6 -0.9 0  -4.55 -0.9 0  -4.5 -0.9 0  -4.45 -0.9 0  -4.4 -0.9 0  -4.35 -0.9 0  -4.3 -0.9 0  -4.25 -0.9 0  -4.2 -0.9 0  -4.15 -0.9 0  -4.1 -0.9 0  -4.05 -0.9 0  -4 -0.9 0  -3.95 -0.9 0  -3.9 -0.9 0  -3.85 -0.9 0  -3.8 -0.9 0  -3.75 -0.9 0  -3.7 -0.9 0  -3.65 -0.9 0  -3.6 -0.9 0  -3.55 -0.9 0  -3.5 -0.9 0  -3.45 -0.9 0  -3.4 -0.9 0  -3.35 -0.9 0  -3.3 -0.9 0  -3.25 -0.9 0  -3.2 -0.9 0  -3.15 -0.9 0  -3.1 -0.9 0  -3.05 -0.9 0  -3 -0.9 0  -2.95 -0.9 0  -2.9 -0.9 0  -2.85 -0.9 0  -2.8 -0.9 0  -2.75 -0.9 0  -2.7 -0.9 0  -2.65 -0.9 0  -2.6 -0.9 0  -2.55 -0.9 0  -2.5 -0.9 0  -2.45 -0.9 0  -2.4 -0.9 0  -2.35 -0.9 0  -2.3 -0.9 0  -2.25 -0.9 0  -2.2 -0.9 0  -2.15 -0.9 0  -2.1 -0.9 0  -2.05 -0.9 0  -2 -0.9 0  -1.95 -0.9 0  -1.9 -0.9 0  -1.85 -0.9 0  -1.8 -0.9 0  -1.75 -0.9 0  -1.7 -0.9 0  -1.65 -0.9 0  -1.6 -0.9 0  -1.55 -0.9 0  -1.5 -0.9 0  -1.45 -0.9 0  -1.4 -0.9 0  -1.35 -0.9 0  -1.3 -0.9 0  -1.25 -0.9 0  -1.2 -0.9 0  -1.15 -0.9 0  -1.1 -0.9 0  -1.05 -0.9 0  -1 -0.9 0  -0.9500000000000002 -0.9 0  -0.9000000000000004 -0.9 0  -0.8499999999999996 -0.9 0  -0.7999999999999998 -0.9 0  -0.75 -0.9 0  -0.7000000000000002 -0.9 0  -0.6500000000000004 -0.9 0  -0.5999999999999996 -0.9 0  -0.5499999999999998 -0.9 0  -0.5 -0.9 0  -0.4500000000000002 -0.9 0  -0.4000000000000004 -0.9 0  -0.3499999999999996 -0.9 0  -0.2999999999999998 -0.9 0  -0.25 -0.9 0  -0.2000000000000002 -0.9 0  -0.1500000000000004 -0.9 0  -0.09999999999999964 -0.9 0  -0.04999999999999982 -0.9 0  0 -0.9 0  0.04999999999999982 -0.9 0  0.09999999999999964 -0.9 0  0.1500000000000004 -0.9 0  0.2000000000000002 -0.9 0  0.25 -0.9 0  0.2999999999999998 -0.9 0  0.3499999999999996 -0.9 0  0.4000000000000004 -0.9 0  0.4500000000000002 -0.9 0  0.5 -0.9 0  0.5499999999999998 -0.9 0  0.5999999999999996 -0.9 0  0.6500000000000004 -0.9 0  0.7000000000000002 -0.9 0  0.75 -0.9 0  0.7999999999999998 -0.9 0  0.8499999999999996 -0.9 0  0.9000000000000004 -0.9 0  0.9500000000000002 -0.9 0  1 -0.9 0  1.05 -0.9 0  1.1 -0.9 0  1.15 -0.9 0  1.2 -0.9 0  1.25 -0.9 0  1.3 -0.9 0  1.35 -0.9 0  1.4 -0.9 0  1.45 -0.9 0  1.5 -0.9 0  1.55 -0.9 0  1.6 -0.9 0  1.65 -0.9 0  1.7 -0.9 0  1.75 -0.9 0  1.8 -0.9 0  1.85 -0.9 0  1.9 -0.9 0  1.95 -0.9 0  2 -0.9 0  2.05 -0.9 0  2.1 -0.9 0  2.15 -0.9 0  2.2 -0.9 0  2.25 -0.9 0  2.3 -0.9 0  2.35 -0.9 0  2.4 -0.9 0  2.45 -0.9 0  2.5 -0.9 0  2.55 -0.9 0  2.6 -0.9 0  2.65 -0.9 0  2.7 -0.9 0  2.75 -0.9 0  2.8 -0.9 0  2.85 -0.9 0  2.9 -0.9 0  2.95 -0.9 0  3 -0.9 0  3.050000000000001 -0.9 0  3.1 -0.9 0  3.15 -0.9 0  3.199999999999999 -0.9 0  3.25 -0.9 0  3.300000000000001 -0.9 0  3.35 -0.9 0  3.4 -0.9 0  3.449999999999999 -0.9 0  3.5 -0.9 0  3.550000000000001 -0.9 0  3.6 -0.9 0  3.65 -0.9 0  3.699999999999999 -0.9 0  3.75 -0.9 0  3.800000000000001 -0.9 0  3.85 -0.9 0  3.9 -0.9 0  3.949999999999999 -0.9 0  4 -0.9 0  4.050000000000001 -0.9 0  4.1 -0.9 0  4.15 -0.9 0  4.199999999999999 -0.9 0  4.25 -0.9 0  4.300000000000001 -0.9 0  4.35 -0.9 0  4.4 -0.9 0  4.449999999999999 -0.9 0  4.5 -0.9 0  4.550000000000001 -0.9 0  4.6 -0.9 0  4.65 -0.9 0  4.699999999999999 -0.9 0  4.75 -0.9 0  4.800000000000001 -0.9 0  4.85 -0.9 0  4.9 -0.9 0  4.949999999999999 -0.9 0  5 -0.9 0  -5 -0.85 0  -4.95 -0.85 0  -4.9 -0.85 0  -4.85 -0.85 0  -4.8 -0.85 0  -4.75 -0.85 0  -4.7 -0.85 0  -4.65 -0.85 0  -4.6 -0.85 0  -4.55 -0.85 0  -4.5 -0.85 0  -
[...]
<PointData  Vectors="f_15"> 
<DataArray  type="Float64"  Name="f_15"  NumberOfComponents="3" format="ascii">5.3854636249184562e+00 0.0000000000000000e+00 0.0000000000000000e+00  5.4165620195825914e+00 9.5198436941616421e-02 0.0000000000000000e+00  5.3876983307516655e+00 1.1263356836823699e-01 0.0000000000000000e+00  5.4161150957178350e+00 2.3587353699026059e-01 0.0000000000000000e+00  5.3880226555233355e+00 2.5865643843759106e-01 0.0000000000000000e+00  5.4152326078015331e+00 3.7185480266458437e-01 0.0000000000000000e+00  5.3883846228445247e+00 4.0368138762649958e-01 0.0000000000000000e+00  5.4141167612184580e+00 5.1254200264391980e-01 0.0000000000000000e+00  5.3868748889481184e+00 5.4353462839755950e-01 0.0000000000000000e+00  5.4130614285799838e+00 6.5491601125533672e-01 0.0000000000000000e+00  5.3858649900155049e+00 6.8463491741666194e-01 0.0000000000000000e+00  5.4096991536011672e+00 7.9405779879450544e-01 0.0000000000000000e+00  5.3851221948527179e+00 8.2696061709675250e-01 0.0000000000000000e+00  5.4071128519003651e+00 9.3463693336006615e-01 0.0000000000000000e+00  5.3819687160595580e+00 9.6604291938753395e-01 0.0000000000000000e+00  5.4046831166458755e+00 1.0762811145220419e+00 0.0000000000000000e+00  5.3800078863412493e+00 1.1072166694858696e+00 0.0000000000000000e+00  5.3995776108052764e+00 1.2140136181858496e+00 0.0000000000000000e+00  5.3781818747920642e+00 1.2497490457087177e+00 0.0000000000000000e+00  5.3959160297362958e+00 1.3538669016485956e+00 0.0000000000000000e+00  5.3735285209572456e+00 1.3883503442684755e+00 0.0000000000000000e+00  5.3922152823128142e+00 1.4945164003082303e+00 0.0000000000000000e+00  5.3706323876166504e+00 1.5299469048849006e+00 0.0000000000000000e+00  5.3855374129609865e+00 1.6306267826445702e+00 0.0000000000000000e+00  5.3674776386090022e+00 1.6722358624405551e+00 0.0000000000000000e+00  5.3809562211119459e+00 1.7700194203996693e+00 0.0000000000000000e+00  5.3611252881953213e+00 1.8098488729883153e+00 0.0000000000000000e+00  5.3759963477409789e+00 1.9096418899207042e+00 0.0000000000000000e+00  5.3570340682328439e+00 1.9512896780018598e+00 0.0000000000000000e+00  5.3678530255756831e+00 2.0443600420336550e+00 0.0000000000000000e+00  5.3522227717853506e+00 2.0926397763317475e+00 0.0000000000000000e+00  5.3623143072359776e+00 2.1831905589632070e+00 0.0000000000000000e+00  5.3440213586979750e+00 2.2289713624344376e+00 0.0000000000000000e+00  5.3559714859862630e+00 2.3215296063603512e+00 0.0000000000000000e+00  5.3384723427882106e+00 2.3697871885918498e+00 0.0000000000000000e+00  5.3463233915680970e+00 2.4547489928550466e+00 0.0000000000000000e+00  5.3318145543768010e+00 2.5097789719993275e+00 0.0000000000000000e+00  5.3395207140937249e+00 2.5925755553492196e+00 0.0000000000000000e+00  5.3217524581408329e+00 2.6447291834569859e+00 0.0000000000000000e+00  5.3315190351080188e+00 2.7291127742276133e+00 0.0000000000000000e+00  5.3145028728211257e+00 2.7845446398438320e+00 0.0000000000000000e+00  5.3201937495050871e+00 2.8605082425708863e+00 0.0000000000000000e+00  5.3058707385359778e+00 2.9229064619926657e+00 0.0000000000000000e+00  5.3116755859002636e+00 2.9966589210683465e+00 0.0000000000000000e+00  5.2939010592273048e+00 3.0561917963625098e+00 0.0000000000000000e+00  5.3017380946055805e+00 3.1312349545142988e+00 0.0000000000000000e+00  5.2845594992306459e+00 3.1938569333237163e+00 0.0000000000000000e+00  5.2885930061979565e+00 3.2613110704116797e+00 0.0000000000000000e+00  5.2736571506142216e+00 3.3289915291243179e+00 0.0000000000000000e+00  5.2779912942286229e+00 3.3966109228154218e+00 0.0000000000000000e+00  5.2594741003188812e+00 3.4584779317113452e+00 0.0000000000000000e+00  5.2659605653501522e+00 3.5304049815550171e+00 0.0000000000000000e+00  5.2474437508984142e+00 3.5921751135829858e+00 0.0000000000000000e+00  5.2508479472988627e+00 3.6587987618103464e+00 0.0000000000000000e+00  5.2338967369777967e+00 3.7245239789583069e+00 0.0000000000000000e+00  5.2376632734560626e+00 3.7907409584433078e+00 0.0000000000000000e+00  5.2172744821357826e+00 3.8516888713079243e+00 0.0000000000000000e+00  5.2230325988280413e+00 3.9211494229999135e+00 0.0000000000000000e+00  5.2022520758381656e+00 3.9825905168617073e+00 0.0000000000000000e+00  5.2053509007516103e+00 4.0452310768932778e+00 0.0000000000000000e+00  5.1859305112511285e+00 4.1132960041895252e+00 0.0000000000000000e+00  5.1887680499847626e+00 4.1720538634516808e+00 0.0000000000000000e+00  5.1667778455554414e+00 4.2366947980507383e+00 0.0000000000000000e+00  5.1707796641746215e+00 4.3011137088462315e+00 0.0000000000000000e+00  5.1485145438571802e+00 4.3596213352011040e+00 0.0000000000000000e+00  5.1498769865795166e+00 4.4247839377574651e+00 0.0000000000000000e+00  5.1290608623423140e+00 4.4841549050516996e+00 0.0000000000000000e+00  5.1293104677308454e+00 4.5475878578411235e+00 0.0000000000000000e+00  5.1069464368359094e+00 4.6028044814688913e+00 0.0000000000000000e+00  5.1074126467277319e+00 4.6731368949867003e+00 0.0000000000000000e+00  5.0849917876210347e+00 4.7191707526430458e+00 0.0000000000000000e+00  5.0827299332158207e+00 4.7925431813766766e+00 0.0000000000000000e+00  5.0619871276692532e+00 4.8398922125512289e+00 0.0000000000000000e+00  5.0575936209522201e+00 4.9075370732073562e+00 0.0000000000000000e+00  5.0365166978571230e+00 4.9547230196780365e+00 0.0000000000000000e+00  5.0313034729293369e+00 5.0282730368304778e+00 0.0000000000000000e+00  5.0102783774388726e+00 5.0633580076285796e+00 0.0000000000000000e+00  5.0026908087584978e+00 5.1419233998975136e+00 0.0000000000000000e+00  4.9829676356567845e+00 5.1826660074610036e+00 0.0000000000000000e+00  4.9728133907330543e+00 5.2421142313392792e+00 0.0000000000000000e+00  4.9538309722692606e+00 5.2997023048603618e+00 0.0000000000000000e+00  4.9414743992395174e+00 5.3540056462840973e+00 0.0000000000000000e+00  4.9235000228969490e+00 5.3955648961885059e+00 0.0000000000000000e+00  4.9082110758219155e+00 5.4736685475958460e+00 0.0000000000000000e+00  4.8919960748391818e+00 5.4967827504744964e+00 0.0000000000000000e+00  4.8732986537218723e+00 5.5694837814849825e+00 0.0000000000000000e+00  4.8590132485134898e+00 5.6173376929937930e+00 0.0000000000000000e+00  4.8371059133560141e+00 5.6554922656362843e+00 0.0000000000000000e+00  4.8243129586822624e+00 5.7240125078487480e+00 0.0000000000000000e+00  4.7993401391918802e+00 5.7630186948381450e+00 0.0000000000000000e+00  4.7890589876102023e+00 5.8056906098910757e+00 0.0000000000000000e+00  4.7589771225866189e+00 5.8783171681158812e+00 0.0000000000000000e+00  4.7529672115357444e+00 5.8915647877486244e+00 0.0000000000000000e+00  4.7184735427821032e+00 5.9724053247864601e+00 0.0000000000000000e+00  4.7129934278973415e+00 5.9975959706409787e+00 0.0000000000000000e+00  4.6790519739356933e+00 6.0484029142084772e+00 0.0000000000000000e+00  4.6715873665938146e+00 6.1038175376110644e+00 0.0000000000000000e+00  4.6365607723398883e+00 6.1348943152054849e+00 0.0000000000000000e+00  4.6315428815428321e+00 6.1851903592127941e+00 0.0000000000000000e+00  4.5924681136026146e+00 6.2421046041927619e+00 0.0000000000000000e+00  4.5888582688221673e+00 6.2524271821619370e+00 0.0000000000000000e+00  4.5498278277572028e+00 6.3426112612375078e+00 0.0000000000000000e+00  4.5445074063443007e+00 6.3375495719894435e+00 0.0000000000000000e+00  4.5052989966843997e+00 6.4157128117480076e+00 0.0000000000000000e+00  4.5010864355914659e+00 6.4398986174237125e+00 0.0000000000000000e+00  4.4601567098539379e+00 6.4829627113065174e+00 0.0000000000000000e+00  4.4555772477889892e+00 6.5285541151292561e+00 0.0000000000000000e+00  4.4159566242148047e+00 6.5693235382217843e+00 0.0000000000000000e+00  4.4100730516343498e+00 6.5967392620811927e+00 0.0000000000000000e+00  4.3697799878129020e+00 6.6627483209726082e+00 0.0000000000000000e+00  4.3653378799423148e+00 6.6663173716680273e+00 0.0000000000000000e+00  4.3243497586945665e+00 6.7451443347233733e+00 0.0000000000000000e+00  4.3193100790932712e+00 6.7429886912559747e+00 0.0000000000000000e+00  4.2791461196281579e+00 6.8208023354555261e+00 0.0000000000000000e+00  4.2760167293786662e+00 6.8194409989278366e+00 0.0000000000000000e+00  4.2311914881912154e+00 6.8939671683830630e+00 0.0000000000000000e+00  4.2344146465366608e+00 6.8947469478051060e+00 0.0000000000000000e+00  4.1867207664413773e+00 6.9641527259093117e+00 0.0000000000000000e+00  4.1889957875793868e+00 6.9674974323580594e+00 0.0000000000000000e+00  4.1472600289198285e+00 7.0322093743656637e+00 0.0000000000000000e+00  4.1454469870764310e+00 7.0363271996349326e+00 0.0000000000000000e+00  4.1070047042465614e+00 7.0959605068426503e+00 0.0000000000000000e+00  4.1069672393772603e+00 7.1019401161200699e+00 0.0000000000000000e+00  4.0708069716183930e+00 7.1524591861744362e+00 0.0000000000000000e+00  4.0693862707130757e+00 7.1618409459302219e+00 0.0000000000000000e+00  4.0418896684778067e+00 7.2014405343496337e+00 0.0000000000000000e+00  4.0371152036297540e+00 7.2126604891551436e+00 0.0000000000000000e+00  4.0166049772504921e+00 7.2416409762497249e+00 0.0000000000000000e+00  4.0125562342211110e+00 7.2537932752822822e+00 0.0000000000000000e+00  3.9967924404643127e+00 7.2731493681940540e+00 0.0000000000000000e+00  3.9935675466575127e+00 7.2839868389286666e+00 0.0000000000000000e+00  3.9821634146929350e+00 7.2972490392464264e+00 0.0000000000000000e+00  3.9814246189298124e+00 7.3046278979238011e+00 0.0000000000000000e+00  3.9720424798034699e+00 7.3121415534362431e+00 0.0000000000000000e+00  3.9729287267416340e+00 7.3192479435756495e+00 0.0000000000000000e+00  3.9683409754143812e+00 7.3192274341260921e+00 0.0000000000000000e+00  3.9664023308203906e+00 7.3281543512925369e+00 0.0000000000000000e+00  3.9668380762734481e+00 7.3230975039171105e+00 0.0000000000000000e+00  3.9634542531496333e+00 7.3326385996186190e+00 0.0000000000000000e+00  3.9660960527324352e+00 7.3250884863669157e+00 0.0000000000000000e+00  3.9608679814082226e+00 7.3352423532017923e+00 0.0000000000000000e+00  3.9665865552632380e+00 7.3268270540594065e+00 0.0000000000000000e+00  3.9599704115710010e+00 7.3345202940894252e+00 0.0000000000000000e+00  3.9651399916308554e+00 7.3318665924606883e+00 0.0000000000000000e+00  3.9600507835246743e+00 7.3293341131104484e+00 0.0000000000000000e+00  3.9665201371325045e+00 7.3387714204682739e+00 0.0000000000000000e+00  3.9558611698979202e+00 7.3245533041982940e+00 0.0000000000000000e+00  3.9707389279200545e+00 7.3423976898391521e+00 0.0000000000000000e+00  3.9525942113188677e+00 7.3224975939606667e+00 0.0000000000000000e+00  3.9726160825371597e+00 7.3464157422753615e+00 0.0000000000000000e+00  3.9489623341592690e+00 7.3153768411295337e+00 0.0000000000000000e+00  3.9780331379133278e+00 7.3590494161923035e+00 0.0000000000000000e+00  3.9380214038010037e+00 7.3035284316492604e+00 0.0000000000000000e+00  3.9819332497497966e+00 7.3726716902960545e+00 0.0000000000000000e+00  3.9319078633505957e+00 7.3069724851381608e+00 0.0000000000000000e+00  3.9618760894394072e+00 7.3604481413069536e+00 0.0000000000000000e+00  3.9604442355654221e+00 7.3588291106428541e+00 0.0000000000000000e+00  3.8965972074039996e+00 7.2714392815578508e+00 0.0000000000000000e+00  4.0414470741076833e+00 7.5098575749573779e+00 0.0000000000000000e+00  3.8448484664015412e+00 6.9971545242452819e+00 0.0000000000000000e+00  3.9705893327983697e+00 7.9635131684843330e+00 0.0000000000000000e+00  4.5437669098452274e+00 5.7881622119039893e+00 0.0000000000000000e+00  8.9396470680287408e+00 5.2621194380929170e-01 0.0000000000000000e+00  9.5608715513553850e+00 5.7628630142964099e-02 0.0000000000000000e+00  9.4229110581067879e+00 8.9606503023126997e-03 0.0000000000000000e+00  9.4850954406377905e+00 -1.4188274000522767e-02 0.0000000000000000e+00  9.4792725654363252e+00 -7.6272205386002795e-04 0.0000000000000000e+00  9.5015360364261543e+00 -3.8657292152713088e-02 0.0000000000000000e+00  9.4997633293807215e+00 -3.5113804580787243e-02 0.0000000000000000e+00  9.4947660598453876e+00 -2.8173797538970400e-02 0.0000000000000000e+00  9.4906123137019431e+00 -2.8279838997636093e-02 0.0000000000000000e+00  9.4989211095887462e+00 -3.4495280852413900e-02 0.0000000000000000e+00  9.4979664880519898e+00 -3.6420793221913571e-02 0.0000000000000000e+00  9.4965464205393388e+00 -3.3904302397531332e-02 0.0000000000000000e+00  9.4944263833169948e+00 -3.5620348527342548e-02 0.0000000000000000e+00  9.4994660910614890e+00 -4.1002112675808756e-02 0.0000000000000000e+00  9.4957105477175627e+00 -3.8391403362595937e-02 0.0000000000000000e+00  9.4981658923420262e+00 -4.6688449246595674e-02 0.0000000000000000e+00  9.4965528133981056e+00 -4.3478476096496882e-02 0.0000000000000000e+00  9.4979890548489845e+00 -5.3327596969399309e-02 0.0000000000000000e+00  9.4967378093679766e+00 -4.9326705205498388e-02 0.0000000000000000e+00  9.4989912236850866e+00 -6.0941357938762500e-02 0.0000000000000000e+00  9.4958445209383484e+00 -5.2689724654116595e-02 0.0000000000000000e+00  9.4994043031008371e+00 -6.5304394994245479e-02 0.0000000000000000e+00  9.4965904299008219e+00 -5.3498605708170797e-02 0.0000000000000000e+00  9.4985981844185403e+00 -7.0740553953913321e-02 0.0000000000000000e+00  9.4971904777184584e+00 -6.4688588887174173e-02 0.0000000000000000e+00  9.4987400795407115e+00 -8.0927435000293813e-02 0.0000000000000000e+00  9.4964516233232708e+00 -7.6228137540232416e-02 0.0000000000000000e+00  9.4995373031063934e+00 -9.2743649389772115e-02 0.0000000000000000e+00  9.4960035131881906e+00 -8.2099565425727161e-02 0.0000000000000000e+00  9.4990848621137864e+00 -9.9842131963586114e-02 0.0000000000000000e+00  9.4966784049353770e+00 -8.1606757879996036e-02 0.0000000000000000e+00  9.4982940381210241e+00 -8.8585908422514403e-02 0.0000000000000000e+00  9.4966699045490284e+00 -8.1802129006968038e-02 0.0000000000000000e+00  9.4986660092257811e+00 -7.7105095640252960e-02 0.0000000000000000e+00  9.4956323757636447e+00 -8.1297543081278137e-02 0.0000000000000000e+00  9.4989797230817317e+00 -6.2813912675468681e-02 0.0000000000000000e+00  9.4958321590932311e+00 -1.0147669139776845e-01 0.0000000000000000e+00  9.4976138895158968e+00 -2.2798458596662605e-02 0.0000000000000000e+00  9.4971098260345261e+00 0.0000000000000000e+00 0.0000000000000000e+00  5.4021685693535257e+00 0.0000000000000000e+00 -2.2933425963533240e-02  5.4090569709150795e+00 6.4945760222309329e-02 4.6989973134387245e-03  5.4030601367262046e+00 1.4940440910594088e-01 4.7087141760496325e-03  5.4053953563591541e+00 2.1316764302460120e-01 -9.4900147958167948e-04  5.4025930016113151e+00 2.8058614286734784e-01 -5.0015805376997578e-04  5.4038095114531588e+00 3.5651440434555609e-01 1.5260748824716145e-03  5.4013849876312934e+00 4.2132564463879868e-01 -1.6962509551501990e-03  5.4013632942244376e+00 4.9436602306748495e-01 1.5172742636152597e-03  5.4005971795752803e+00 5.6378277269805810e-01 -1.1250666400987868e-03  5.3995989213381534e+00 6.3453433446901963e-01 6.5080781054459823e-04  5.3978938718701102e+00 7.0342990870630440e-01 -1.4390505689112918e-04  5.3983290910209689e+00 7.7590746148041634e-01 -3.3232078717162795e-04  5.3959828866908914e+00 8.4482454686148634e-01 7.8342938652801455e-04  5.3948620862658370e+00 9.1437455519855326e-01 -1.2343129048109354e-03  5.3943359827388697e+00 9.8733373162649340e-01 1.7440300868068767e-03  5.3925048537777416e+00 1.0546248741738697e+00 -2.2636344077768609e-03  5.3901333181219329e+00 1.1264922491479565e+00 2.7125266563780216e-03  5.3903402705871750e+00 1.1960469720137090e+00 -3.0443919286993852e-03  5.3872534233164151e+00 1.2675569552978512e+00 3.2870519041822903e-03  5.3854352320719272e+00 1.3338885637947375e+00 -3.5276909395818082e-03  5.3843777000395860e+00 1.4094671643583545e+00 3.8241134558254248e-03  5.3821723844897944e+00 1.4742523796459654e+00 -4.1196205973273127e-03  5.3785520734924237e+00 1.5472072197806359e+00 4.3398055990682780e-03  5.3787570949283054e+00 1.6153918124204809e+00 -4.4890661763194832e-03  5.3746453754412302e+00 1.6878584104568286e+00 4.6162087481214122e-03  5.3722525781025032e+00 1.7521090594234334e+00 -4.7808338775419965e-03  5.3703723266364660e+00 1.8289167981408025e+00 4.9867148392637485e-03  5.3679578951915179e+00 1.8922650935877310e+00 -5.1629783577360477e-03  5.3628825570872678e+00 1.9652319459505714e+00 5.2735429380784933e-03  5.3630942266893102e+00 2.0325534975043724e+00 -5.3474710356511317e-03  5.3578345510249266e+00 2.1053454281113555e+00 5.4235062704723301e-03  5.3549360323814517e+00 2.1679663115475289e+00 -5.5316776921868378e-03  5.3519968969957272e+00 2.2451949752220171e+00 5.6604275312162099e-03  5.3494171667130832e+00 2.3075693647796842e+00 -5.7507134849628652e-03  5.3428130094281912e+00 2.3799821457771508e+00 5.7876689801709012e-03  5.3429089683448652e+00 2.4465913509482324e+00 -5.8081202816743028e-03  5.3363936944996668e+00 2.5192042552408456e+00 5.8535965294162972e-03  5.3330370496237034e+00 2.5805340498835423e+00 -5.9391597148255974e-03  5.3288028096698694e+00 2.6574381229993791e+00 6.0430925906620175e-03  5.3259913054199890e+00 2.7191156822164140e+00 -6.1241270230927361e-03  5.3178575447225684e+00 2.7905838447598184e+00 6.1823435830586030e-03  5.3176255703448252e+00 2.8563611965325091e+00 -6.2442817976018474e-03  5.3097248264263461e+00 2.9284882909550483e+00 6.3326953746343107e-03  5.3059271648184136e+00 2.9884771150025378e+00 -6.4419967526476484e-03  5.3001750789511028e+00 3.0648918564131171e+00 6.5516454483184189e-03  5.2969358561601130e+00 3.1251663642022574e+00 -6.6387295409971120e-03  5.2873551234732021e+00 3.1964067629088508e+00 6.7099851671269476e-03  5.2864465974164574e+00 3.2599067995723021e+00 -6.7864629092697620e-03  5.2770848292035497e+00 3.3326294312544125e+00 6.8974854840826716e-03  5.2727551805737765e+00 3.3895545816006916e+00 -7.0650151558802774e-03  5.2652423839824918e+00 3.4669457051911099e+00 7.3311923020270512e-03  5.2614802469091666e+00 3.5236367424123110e+00 -7.7267536384515627e-03  5.2501164028902600e+00 3.5961269877988964e+00 8.2596862667337779e-03  5.2488214244183373e+00 3.6558023341438735e+00 -8.8710239845161826e-03  5.2369358795552596e+00 3.7295921757100352e+00 9.4829158819457211e-03  5.2331130407593802e+00 3.7824065007513354e+00 -1.0009714447977984e-02  5.2222654996539362e+00 3.8616866358247539e+00 1.0471441821046323e-02  5.2191345118093135e+00 3.9126175190578771e+00 -1.0894387350652649e-02  5.2045346590709691e+00 3.9880286254455983e+00 1.1315120514291531e-02  5.2037553624538377e+00 4.0419670303264175e+00 -1.1639119887532386e-02  5.1882073781229678e+00 4.1173356769999154e+00 1.1755897336851352e-02  5.1852589885688340e+00 4.1650873947032103e+00 -1.1546383491804925e-02  5.1707521131643395e+00 4.2467887987905737e+00 1.1089445843658459e-02  5.1675166566495410e+00 4.2900953714830248e+00 -1.0516176338431842e-02  5.1505400479633670e+00 4.3694696531833541e+00 1.0010817286224855e-02  5.1484600713991506e+00 4.4169743978220506e+00 -9.5925761893546849e-03  5.1308669584202544e+00 4.4916657513124276e+00 9.2060294861505618e-03  5.1266325751374531e+00 4.5380647379273853e+00 -8.7526491610731699e-03  5.1099576419761430e+00 4.6160199778273947e+00 8.2650928994504463e-03  5.1049603070937977e+00 4.6574857830953880e+00 -7.7982676072709846e-03  5.0863833043496687e+00 4.7345997765883583e+00 7.4114214015812115e-03  5.0820433016259017e+00 4.7801303040724408e+00 -6.9937967435825411e-03  5.0626840466754146e+00 4.8497514127421342e+00 6.4123623742161932e-03  5.0564561572323585e+00 4.8972820716333256e+00 -5.6279539493551073e-03  5.0378523629784251e+00 4.9692458896903435e+00 4.8096438237525442e-03  5.0303758757587831e+00 5.0091746475836230e+00 -4.2170790708807799e-03  5.0103848817830139e+00 5.0831963449503190e+00 3.9959061031371867e-03  5.0033547751433494e+00 5.1277142534967997e+00 -3.9833275962994300e-03  4.9819456813792700e+00 5.1881798945750539e+00 3.8306735429411323e-03  4.9738852597926613e+00 5.2423845868761463e+00 -3.2457597083906413e-03  4.9527961509409142e+00 5.3017863459618981e+00 2.1900829828393423e-03  4.9426551645950125e+00 5.3426518427241163e+00 -9.2453936844974374e-04  4.922