<?xml version="1.0"?>
<VTKFile type="UnstructuredGrid"  version="0.1"  >
<UnstructuredGrid>
<Piece  NumberOfPoints="8241" NumberOfCells="16000">
<Points>
<DataArray  type="Float64"  NumberOfComponents="3"  format="ascii">-5 -1 0  -4.95 -1 0  -4.9 -1 0  -4.85 -1 0  -4.8 -1 0  -4.75 -1 0  -4.7 -1 0  -4.65 -1 0  -4.6 -1 0  -4.55 -1 0  -4.5 -1 0  -4.45 -1 0  -4.4 -1 0  -4.35 -1 0  -4.3 -1 0  -4.25 -1 0  -4.2 -1 0  -4.15 -1 0  -4.1 -1 0  -4.05 -1 0  -4 -1 0  -3.95 -1 0  -3.9 -1 0  -3.85 -1 0  -3.8 -1 0  -3.75 -1 0  -3.7 -1 0  -3.65 -1 0  -3.6 -1 0  -3.55 -1 0  -3.5 -1 0  -3.45 -1 0  -3.4 -1 0  -3.35 -1 0  -3.3 -1 0  -3.25 -1 0  -3.2 -1 0  -3.15 -1 0  -3.1 -1 0  -3.05 -1 0  -3 -1 0  -2.95 -1 0  -2.9 -1 0  -2.85 -1 0  -2.8 -1 0  -2.75 -1 0  -2.7 -1 0  -2.65 -1 0  -2.6 -1 0  -2.55 -1 0  -2.5 -1 0  -2.45 -1 0  -2.4 -1 0  -2.35 -1 0  -2.3 -1 0  -2.25 -1 0  -2.2 -1 0  -2.15 -1 0  -2.1 -1 0  -2.05 -1 0  -2 -1 0  -1.95 -1 0  -1.9 -1 0  -1.85 -1 0  -1.8 -1 0  -1.75 -1 0  -1.7 -1 0  -1.65 -1 0  -1.6 -1 0  -1.55 -1 0  -1.5 -1 0  -1.45 -1 0  -1.4 -1 0  -1.35 -1 0  -1.3 -1 0  -1.25 -1 0  -1.2 -1 0  -1.15 -1 0  -1.1 -1 0  -1.05 -1 0  -1 -1 0  -0.9500000000000002 -1 0  -0.9000000000000004 -1 0  -0.8499999999999996 -1 0  -0.7999999999999998 -1 0  -0.75 -1 0  -0.7000000000000002 -1 0  -0.6500000000000004 -1 0  -0.5999999999999996 -1 0  -0.5499999999999998 -1 0  -0.5 -1 0  -0.4500000000000002 -1 0  -0.4000000000000004 -1 0  -0.3499999999999996 -1 0  -0.2999999999999998 -1 0  -0.25 -1 0  -0.2000000000000002 -1 0  -0.1500000000000004 -1 0  -0.09999999999999964 -1 0  -0.04999999999999982 -1 0  0 -1 0  0.04999999999999982 -1 0  0.09999999999999964 -1 0  0.1500000000000004 -1 0  0.2000000000000002 -1 0  0.25 -1 0  0.2999999999999998 -1 0  0.3499999999999996 -1 0  0.4000000000000004 -1 0  0.4500000000000002 -1 0  0.5 -1 0  0.5499999999999998 -1 0  0.5999999999999996 -1 0  0.6500000000000004 -1 0  0.7000000000000002 -1 0  0.75 -1 0  0.7999999999999998 -1 0  0.8499999999999996 -1 0  0.9000000000000004 -1 0  0.9500000000000002 -1 0  1 -1 0  1.05 -1 0  1.1 -1 0  1.15 -1 0  1.2 -1 0  1.25 -1 0  1.3 -1 0  1.35 -1 0  1.4 -1 0  1.45 -1 0  1.5 -1 0  1.55 -1 0  1.6 -1 0  1.65 -1 0  1.7 -1 0  1.75 -1 0  1.8 -1 0  1.85 -1 0  1.9 -1 0  1.95 -1 0  2 -1 0  2.05 -1 0  2.1 -1 0  2.15 -1 0  2.2 -1 0  2.25 -1 0  2.3 -1 0  2.35 -1 0  2.4 -1 0  2.45 -1 0  2.5 -1 0  2.55 -1 0  2.6 -1 0  2.65 -1 0  2.7 -1 0  2.75 -1 0  2.8 -1 0  2.85 -1 0  2.9 -1 0  2.95 -1 0  3 -1 0  3.050000000000001 -1 0  3.1 -1 0  3.15 -1 0  3.199999999999999 -1 0  3.25 -1 0  3.300000000000001 -1 0  3.35 -1 0  3.4 -1 0  3.449999999999999 -1 0  3.5 -1 0  3.550000000000001 -1 0  3.6 -1 0  3.65 -1 0  3.699999999999999 -1 0  3.75 -1 0  3.800000000000001 -1 0  3.85 -1 0  3.9 -1 0  3.949999999999999 -1 0  4 -1 0  4.050000000000001 -1 0  4.1 -1 0  4.15 -1 0  4.199999999999999 -1 0  4.25 -1 0  4.300000000000001 -1 0  4.35 -1 0  4.4 -1 0  4.449999999999999 -1 0  4.5 -1 0  4.550000000000001 -1 0  4.6 -1 0  4.65 -1 0  4.699999999999999 -1 0  4.75 -1 0  4.800000000000001 -1 0  4.85 -1 0  4.9 -1 0  4.949999999999999 -1 0  5 -1 0  -5 -0.95 0  -4.95 -0.95 0  -4.9 -0.95 0  -4.85 -0.95 0  -4.8 -0.95 0  -4.75 -0.95 0  -4.7 -0.95 0  -4.65 -0.95 0  -4.6 -0.95 0  -4.55 -0.95 0  -4.5 -0.95 0  -4.45 -0.95 0  -4.4 -0.95 0  -4.35 -0.95 0  -4.3 -0.95 0  -4.25 -0.95 0  -4.2 -0.95 0  -4.15 -0.95 0  -4.1 -0.95 0  -4.05 -0.95 0  -4 -0.95 0  -3.95 -0.95 0  -3.9 -0.95 0  -3.85 -0.95 0  -3.8 -0.95 0  -3.75 -0.95 0  -3.7 -0.95 0  -3.65 -0.95 0  -3.6 -0.95 0  -3.55 -0.95 0  -3.5 -0.95 0  -3.45 -0.95 0  -3.4 -0.95 0  -3.35 -0.95 0  -3.3 -0.95 0  -3.25 -0.95 0  -3.2 -0.95 0  -3.15 -0.95 0  -3.1 -0.95 0  -3.05 -0.95 0  -3 -0.95 0  -2.95 -0.95 0  -2.9 -0.95 0  -2.85 -0.95 0  -2.8 -0.95 0  -2.75 -0.95 0  -2.7 -0.95 0  -2.65 -0.95 0  -2.6 -0.95 0  -2.55 -0.95 0  -2.5 -0.95 0  -2.45 -0.95 0  -2.4 -0.95 0  -2.35 -0.95 0  -2.3 -0.95 0  -2.25 -0.95 0  -2.2 -0.95 0  -2.15 -0.95 0  -2.1 -0.95 0  -2.05 -0.95 0  -2 -0.95 0  -1.95 -0.95 0  -1.9 -0.95 0  -1.85 -0.95 0  -1.8 -0.95 0  -1.75 -0.95 0  -1.7 -0.95 0  -1.65 -0.95 0  -1.6 -0.95 0  -1.55 -0.95 0  -1.5 -0.95 0  -1.45 -0.95 0  -1.4 -0.95 0  -1.35 -0.95 0  -1.3 -0.95 0  -1.25 -0.95 0  -1.2 -0.95 0  -1.15 -0.95 0  -1.1 -0.95 0  -1.05 -0.95 0  -1 -0.95 0  -0.9500000000000002 -0.95 0  -0.9000000000000004 -0.95 0  -0.8499999999999996 -0.95 0  -0.7999999999999998 -0.95 0  -0.75 -0.95 0  -0.7000000000000002 -0.95 0  -0.6500000000000004 -0.95 0  -0.5999999999999996 -0.95 0  -0.5499999999999998 -0.95 0  -0.5 -0.95 0  -0.4500000000000002 -0.95 0  -0.4000000000000004 -0.95 0  -0.3499999999999996 -0.95 0  -0.2999999999999998 -0.95 0  -0.25 -0.95 0  -0.2000000000000002 -0.95 0  -0.1500000000000004 -0.95 0  -0.09999999999999964 -0.95 0  -0.04999999999999982 -0.95 0  0 -0.95 0  0.04999999999999982 -0.95 0  0.09999999999999964 -0.95 0  0.1500000000000004 -0.95 0  0.2000000000000002 -0.95 0  0.25 -0.95 0  0.2999999999999998 -0.95 0  0.3499999999999996 -0.95 0  0.4000000000000004 -0.95 0  0.4500000000000002 -0.95 0  0.5 -0.95 0  0.5499999999999998 -0.95 0  0.5999999999999996 -0.95 0  0.6500000000000004 -0.95 0  0.7000000000000002 -0.95 0  0.75 -0.95 0  0.7999999999999998 -0.95 0  0.8499999999999996 -0.95 0  0.9000000000000004 -0.95 0  0.9500000000000002 -0.95 0  1 -0.95 0  1.05 -0.95 0  1.1 -0.95 0  1.15 -0.95 0  1.2 -0.95 0  1.25 -0.95 0  1.3 -0.95 0  1.35 -0.95 0  1.4 -0.95 0  1.45 -0.95 0  1.5 -0.95 0  1.55 -0.95 0  1.6 -0.95 0  1.65 -0.95 0  1.7 -0.95 0  1.75 -0.95 0  1.8 -0.95 0  1.85 -0.95 0  1.9 -0.95 0  1.95 -0.95 0  2 -0.95 0  2.05 -0.95 0  2.1 -0.95 0  2.15 -0.95 0  2.2 -0.95 0  2.25 -0.95 0  2.3 -0.95 0  2.35 -0.95 0  2.4 -0.95 0  2.45 -0.95 0  2.5 -0.95 0  2.55 -0.95 0  2.6 -0.95 0  2.65 -0.95 0  2.7 -0.95 0  2.75 -0.95 0  2.8 -0.95 0  2.85 -0.95 0  2.9 -0.95 0  2.95 -0.95 0  3 -0.95 0  3.050000000000001 -0.95 0  3.1 -0.95 0  3.15 -0.95 0  3.199999999999999 -0.95 0  3.25 -0.95 0  3.300000000000001 -0.95 0  3.35 -0.95 0  3.4 -0.95 0  3.449999999999999 -0.95 0  3.5 -0.95 0  3.550000000000001 -0.95 0  3.6 -0.95 0  3.65 -0.95 0  3.699999999999999 -0.95 0  3.75 -0.95 0  3.800000000000001 -0.95 0  3.85 -0.95 0  3.9 -0.95 0  3.949999999999999 -0.95 0  4 -0.95 0  4.050000000000001 -0.95 0  4.1 -0.95 0  4.15 -0.95 0  4.199999999999999 -0.95 0  4.25 -0.95 0  4.300000000000001 -0.95 0  4.35 -0.95 0  4.4 -0.95 0  4.449999999999999 -0.95 0  4.5 -0.95 0  4.550000000000001 -0.95 0  4.6 -0.95 0  4.65 -0.95 0  4.699999999999999 -0.95 0  4.75 -0.95 0  4.800000000000001 -0.95 0  4.85 -0.95 0  4.9 -0.95 0  4.949999999999999 -0.95 0  5 -0.95 0  -5 -0.9 0  -4.95 -0.9 0  -4.9 -0.9 0  -4.85 -0.9 0  -4.8 -0.9 0  -4.75 -0.9 0  -4.7 -0.9 0  -4.65 -0.9 0  -4.6 -0.9 0  -4.55 -0.9 0  -4.5 -0.9 0  -4.45 -0.9 0  -4.4 -0.9 0  -4.35 -0.9 0  -4.3 -0.9 0  -4.25 -0.9 0  -4.2 -0.9 0  -4.15 -0.9 0  -4.1 -0.9 0  -4.05 -0.9 0  -4 -0.9 0  -3.95 -0.9 0  -3.9 -0.9 0  -3.85 -0.9 0  -3.8 -0.9 0  -3.75 -0.9 0  -3.7 -0.9 0  -3.65 -0.9 0  -3.6 -0.9 0  -3.55 -0.9 0  -3.5 -0.9 0  -3.45 -0.9 0  -3.4 -0.9 0  -3.35 -0.9 0  -3.3 -0.9 0  -3.25 -0.9 0  -3.2 -0.9 0  -3.15 -0.9 0  -3.1 -0.9 0  -3.05 -0.9 0  -3 -0.9 0  -2.95 -0.9 0  -2.9 -0.9 0  -2.85 -0.9 0  -2.8 -0.9 0  -2.75 -0.9 0  -2.7 -0.9 0  -2.65 -0.9 0  -2.6 -0.9 0  -2.55 -0.9 0  -2.5 -0.9 0  -2.45 -0.9 0  -2.4 -0.9 0  -2.35 -0.9 0  -2.3 -0.9 0  -2.25 -0.9 0  -2.2 -0.9 0  -2.15 -0.9 0  -2.1 -0.9 0  -2.05 -0.9 0  -2 -0.9 0  -1.95 -0.9 0  -1.9 -0.9 0  -1.85 -0.9 0  -1.8 -0.9 0  -1.75 -0.9 0  -1.7 -0.9 0  -1.65 -0.9 0  -1.6 -0.9 0  -1.55 -0.9 0  -1.5 -0.9 0  -1.45 -0.9 0  -1.4 -0.9 0  -1.35 -0.9 0  -1.3 -0.9 0  -1.25 -0.9 0  -1.2 -0.9 0  -1.15 -0.9 0  -1.1 -0.9 0  -1.05 -0.9 0  -1 -0.9 0  -0.9500000000000002 -0.9 0  -0.9000000000000004 -0.9 0  -0.8499999999999996 -0.9 0  -0.7999999999999998 -0.9 0  -0.75 -0.9 0  -0.7000000000000002 -0.9 0  -0.6500000000000004 -0.9 0  -0.5999999999999996 -0.9 0  -0.5499999999999998 -0.9 0  -0.5 -0.9 0  -0.4500000000000002 -0.9 0  -0.4000000000000004 -0.9 0  -0.3499999999999996 -0.9 0  -0.2999999999999998 -0.9 0  -0.25 -0.9 0  -0.2000000000000002 -0.9 0  -0.1500000000000004 -0.9 0  -0.09999999999999964 -0.9 0  -0.04999999999999982 -0.9 0  0 -0.9 0  0.04999999999999982 -0.9 0  0.09999999999999964 -0.9 0  0.1500000000000004 -0.9 0  0.2000000000000002 -0.9 0  0.25 -0.9 0  0.2999999999999998 -0.9 0  0.3499999999999996 -0.9 0  0.4000000000000004 -0.9 0  0.4500000000000002 -0.9 0  0.5 -0.9 0  0.5499999999999998 -0.9 0  0.5999999999999996 -0.9 0  0.6500000000000004 -0.9 0  0.7000000000000002 -0.9 0  0.75 -0.9 0  0.7999999999999998 -0.9 0  0.8499999999999996 -0.9 0  0.9000000000000004 -0.9 0  0.9500000000000002 -0.9 0  1 -0.9 0  1.05 -0.9 0  1.1 -0.9 0  1.15 -0.9 0  1.2 -0.9 0  1.25 -0.9 0  1.3 -0.9 0  1.35 -0.9 0  1.4 -0.9 0  1.45 -0.9 0  1.5 -0.9 0  1.55 -0.9 0  1.6 -0.9 0  1.65 -0.9 0  1.7 -0.9 0  1.75 -0.9 0  1.8 -0.9 0  1.85 -0.9 0  1.9 -0.9 0  1.95 -0.9 0  2 -0.9 0  2.05 -0.9 0  2.1 -0.9 0  2.15 -0.9 0  2.2 -0.9 0  2.25 -0.9 0  2.3 -0.9 0  2.35 -0.9 0  2.4 -0.9 0  2.45 -0.9 0  2.5 -0.9 0  2.55 -0.9 0  2.6 -0.9 0  2.65 -0.9 0  2.7 -0.9 0  2.75 -0.9 0  2.8 -0.9 0  2.85 -0.9 0  2.9 -0.9 0  2.95 -0.9 0  3 -0.9 0  3.050000000000001 -0.9 0  3.1 -0.9 0  3.15 -0.9 0  3.199999999999999 -0.9 0  3.25 -0.9 0  3.300000000000001 -0.9 0  3.35 -0.9 0  3.4 -0.9 0  3.449999999999999 -0.9 0  3.5 -0.9 0  3.550000000000001 -0.9 0  3.6 -0.9 0  3.65 -0.9 0  3.699999999999999 -0.9 0  3.75 -0.9 0  3.800000000000001 -0.9 0  3.85 -0.9 0  3.9 -0.9 0  3.949999999999999 -0.9 0  4 -0.9 0  4.050000000000001 -0.9 0  4.1 -0.9 0  4.15 -0.9 0  4.199999999999999 -0.9 0  4.25 -0.9 0  4.300000000000001 -0.9 0  4.35 -0.9 0  4.4 -0.9 0  4.449999999999999 -0.9 0  4.5 -0.9 0  4.550000000000001 -0.9 0  4.6 -0.9 0  4.65 -0.9 0  4.699999999999999 -0.9 0  4.75 -0.9 0  4.800000000000001 -0.9 0  4.85 -0.9 0  4.9 -0.9 0  4.949999999999999 -0.9 0  5 -0.9 0  -5 -0.85 0  -4.95 -0.85 0  -4.9 -0.85 0  -4.85 -0.85 0  -4.8 -0.85 0  -4.75 -0.85 0  -4.7 -0.85 0  -4.65 -0.85 0  -4.6 -0.85 0  -4.55 -0.85 0  -4.5 -0.85 0  -
[...]
<PointData  Vectors="f_15"> 
<DataArray  type="Float64"  Name="f_15"  NumberOfComponents="3" format="ascii">2.0795186739800973e+00 0.0000000000000000e+00 0.0000000000000000e+00  2.0786314730141706e+00 3.0532262421849705e-02 0.0000000000000000e+00  2.0775312399898649e+00 7.7435823150639585e-02 0.0000000000000000e+00  2.0799799198559956e+00 7.8628366227444069e-02 0.0000000000000000e+00  2.0780876866616795e+00 1.0220514721787764e-01 0.0000000000000000e+00  2.0792842192453902e+00 1.7595198871616236e-01 0.0000000000000000e+00  2.0784856075380445e+00 1.2568711344127681e-01 0.0000000000000000e+00  2.0791337800206491e+00 2.4496363677714886e-01 0.0000000000000000e+00  2.0787622879708825e+00 2.1692631053193751e-01 0.0000000000000000e+00  2.1132424852737790e+00 1.7048054680444483e-01 0.0000000000000000e+00  2.3257073494006355e+00 -2.1103639859342399e-01 0.0000000000000000e+00  2.9474694766868739e+00 -1.5578592320880191e+00 0.0000000000000000e+00  3.6947837693695296e+00 -2.9701145819959840e+00 0.0000000000000000e+00  4.3228751568891157e+00 -3.9551198169339843e+00 0.0000000000000000e+00  4.6997623712827421e+00 -4.5500107276464012e+00 0.0000000000000000e+00  4.9291314178880263e+00 -4.7797600168858532e+00 0.0000000000000000e+00  5.0414855718066001e+00 -4.9609603481825877e+00 0.0000000000000000e+00  5.1110165065160356e+00 -4.9931586979362272e+00 0.0000000000000000e+00  5.1537899174544677e+00 -5.0211501574654083e+00 0.0000000000000000e+00  5.1773366851796769e+00 -5.0199692952827935e+00 0.0000000000000000e+00  5.1993880977149507e+00 -5.0119970724299616e+00 0.0000000000000000e+00  5.2126410969708727e+00 -4.9987962354666822e+00 0.0000000000000000e+00  5.2327087622130541e+00 -4.9694627136619154e+00 0.0000000000000000e+00  5.2397543284869492e+00 -4.9768359779738409e+00 0.0000000000000000e+00  5.2596234874013614e+00 -4.9301482942561847e+00 0.0000000000000000e+00  5.2685377917829985e+00 -4.9293715057615097e+00 0.0000000000000000e+00  5.2842665900734724e+00 -4.9124506519331765e+00 0.0000000000000000e+00  5.2965596299950821e+00 -4.8758495783599916e+00 0.0000000000000000e+00  5.3094533410849376e+00 -4.8811947124383508e+00 0.0000000000000000e+00  5.3240173692939576e+00 -4.8433455087250916e+00 0.0000000000000000e+00  5.3343485812041580e+00 -4.8366458319605004e+00 0.0000000000000000e+00  5.3517846168867882e+00 -4.8096069061578257e+00 0.0000000000000000e+00  5.3594797350485530e+00 -4.8007603055720285e+00 0.0000000000000000e+00  5.3778892914749550e+00 -4.7702741294833126e+00 0.0000000000000000e+00  5.3861719665789591e+00 -4.7610867321043058e+00 0.0000000000000000e+00  5.4034528891337574e+00 -4.7385893713285139e+00 0.0000000000000000e+00  5.4117809143143054e+00 -4.7158784919593524e+00 0.0000000000000000e+00  5.4299143510148262e+00 -4.7046946643097618e+00 0.0000000000000000e+00  5.4369795359120001e+00 -4.6771095404849401e+00 0.0000000000000000e+00  5.4555941686184024e+00 -4.6637097124769502e+00 0.0000000000000000e+00  5.4628139918284440e+00 -4.6401920681108990e+00 0.0000000000000000e+00  5.4804291737647794e+00 -4.6250497859236663e+00 0.0000000000000000e+00  5.4885464153158701e+00 -4.5989164191694281e+00 0.0000000000000000e+00  5.5052176552640244e+00 -4.5877664466383781e+00 0.0000000000000000e+00  5.5138647505942693e+00 -4.5592017895881130e+00 0.0000000000000000e+00  5.5295126104272265e+00 -4.5473097245527985e+00 0.0000000000000000e+00  5.5391165038439478e+00 -4.5207660106904282e+00 0.0000000000000000e+00  5.5536527628066734e+00 -4.5074170190085976e+00 0.0000000000000000e+00  5.5634998883181543e+00 -4.4803675615136482e+00 0.0000000000000000e+00  5.5778215179845425e+00 -4.4678316936100186e+00 0.0000000000000000e+00  5.5875964946339236e+00 -4.4407687742621089e+00 0.0000000000000000e+00  5.6012774750755048e+00 -4.4255367200544473e+00 0.0000000000000000e+00  5.6114909875158263e+00 -4.4020312079699391e+00 0.0000000000000000e+00  5.6243823562562314e+00 -4.3827913604427318e+00 0.0000000000000000e+00  5.6348251286354785e+00 -4.3611814784020488e+00 0.0000000000000000e+00  5.6471324447636739e+00 -4.3400882694434495e+00 0.0000000000000000e+00  5.6576591968715482e+00 -4.3197771936131248e+00 0.0000000000000000e+00  5.6695432363965992e+00 -4.2954384917527371e+00 0.0000000000000000e+00  5.6798306713029305e+00 -4.2777387565494873e+00 0.0000000000000000e+00  5.6916451460687458e+00 -4.2506469938657734e+00 0.0000000000000000e+00  5.7015088046069060e+00 -4.2332888790440979e+00 0.0000000000000000e+00  5.7130299502910677e+00 -4.2059205054473434e+00 0.0000000000000000e+00  5.7229156053605790e+00 -4.1879200920862374e+00 0.0000000000000000e+00  5.7338752698194240e+00 -4.1595932581254358e+00 0.0000000000000000e+00  5.7435566534692386e+00 -4.1425560548577538e+00 0.0000000000000000e+00  5.7544073780317566e+00 -4.1121485074223960e+00 0.0000000000000000e+00  5.7636657830083022e+00 -4.0963946268650382e+00 0.0000000000000000e+00  5.7741332297990615e+00 -4.0643637389929177e+00 0.0000000000000000e+00  5.7834321212339503e+00 -4.0492579339720267e+00 0.0000000000000000e+00  5.7933469037377092e+00 -4.0163194217211222e+00 0.0000000000000000e+00  5.8023145743906115e+00 -4.0012242160984046e+00 0.0000000000000000e+00  5.8122145735860187e+00 -3.9680818499598427e+00 0.0000000000000000e+00  5.8207315713365393e+00 -3.9520348206827545e+00 0.0000000000000000e+00  5.8300975121087983e+00 -3.9201576282426669e+00 0.0000000000000000e+00  5.8388688397581578e+00 -3.9011538778251604e+00 0.0000000000000000e+00  5.8474521137353994e+00 -3.8725777943193078e+00 0.0000000000000000e+00  5.8560574304845545e+00 -3.8493462821701914e+00 0.0000000000000000e+00  5.8644845223711517e+00 -3.8238948761387785e+00 0.0000000000000000e+00  5.8727425389322008e+00 -3.7979180977507041e+00 0.0000000000000000e+00  5.8805735169700997e+00 -3.7735667292655579e+00 0.0000000000000000e+00  5.8890622686235075e+00 -3.7465588167785966e+00 0.0000000000000000e+00  5.8962223737738704e+00 -3.7221126881041582e+00 0.0000000000000000e+00  5.9043940082709749e+00 -3.6950874476799314e+00 0.0000000000000000e+00  5.9115563995349385e+00 -3.6694280134784116e+00 0.0000000000000000e+00  5.9192421715089045e+00 -3.6433465639420826e+00 0.0000000000000000e+00  5.9259765871869492e+00 -3.6163352001238520e+00 0.0000000000000000e+00  5.9337195723083775e+00 -3.5902848525111066e+00 0.0000000000000000e+00  5.9399820455092058e+00 -3.5633700367619596e+00 0.0000000000000000e+00  5.9472499389759523e+00 -3.5363924034290464e+00 0.0000000000000000e+00  5.9536926598965003e+00 -3.5095418768763533e+00 0.0000000000000000e+00  5.9603001662134467e+00 -3.4823559560318174e+00 0.0000000000000000e+00  5.9665674051635369e+00 -3.4550222114689491e+00 0.0000000000000000e+00  5.9729930769841877e+00 -3.4276329268036254e+00 0.0000000000000000e+00  5.9790379548513730e+00 -3.4000162157427267e+00 0.0000000000000000e+00  5.9848358581427687e+00 -3.3727396506757246e+00 0.0000000000000000e+00  5.9912071835182958e+00 -3.3438770013700161e+00 0.0000000000000000e+00  5.9962530572779862e+00 -3.3176784706383131e+00 0.0000000000000000e+00  6.0026034000406954e+00 -3.2875570367409868e+00 0.0000000000000000e+00  6.0073468649713471e+00 -3.2612074375678541e+00 0.0000000000000000e+00  6.0136223554713517e+00 -3.2316115642094170e+00 0.0000000000000000e+00  6.0176981776756451e+00 -3.2039452744339183e+00 0.0000000000000000e+00  6.0243245514597019e+00 -3.1747291869216427e+00 0.0000000000000000e+00  6.0277136667191620e+00 -3.1468899906494099e+00 0.0000000000000000e+00  6.0343141467095132e+00 -3.1169019598732213e+00 0.0000000000000000e+00  6.0374272094997528e+00 -3.0892857005909198e+00 0.0000000000000000e+00  6.0440007329423935e+00 -3.0588385096819959e+00 0.0000000000000000e+00  6.0464742294763019e+00 -3.0311406370874709e+00 0.0000000000000000e+00  6.0533745074727117e+00 -3.0000024107216046e+00 0.0000000000000000e+00  6.0552904788886321e+00 -2.9727517621342732e+00 0.0000000000000000e+00  6.0620800279277978e+00 -2.9408067209221991e+00 0.0000000000000000e+00  6.0638328162568165e+00 -2.9132812105548598e+00 0.0000000000000000e+00  6.0705771372092414e+00 -2.8815662385436793e+00 0.0000000000000000e+00  6.0717582030145314e+00 -2.8534153019646928e+00 0.0000000000000000e+00  6.0787767587099166e+00 -2.8212649207027893e+00 0.0000000000000000e+00  6.0795614211450353e+00 -2.7937300466347388e+00 0.0000000000000000e+00  6.0863519626687639e+00 -2.7605916558334243e+00 0.0000000000000000e+00  6.0870907360000546e+00 -2.7333248253490865e+00 0.0000000000000000e+00  6.0938423160519619e+00 -2.7000611116602227e+00 0.0000000000000000e+00  6.0940445396382463e+00 -2.6725305515199120e+00 0.0000000000000000e+00  6.1010170912782860e+00 -2.6390726258197192e+00 0.0000000000000000e+00  6.1010055117732236e+00 -2.6112729007640696e+00 0.0000000000000000e+00  6.1076230751695793e+00 -2.5778289036999249e+00 0.0000000000000000e+00  6.1076464205444703e+00 -2.5493909746091048e+00 0.0000000000000000e+00  6.1142701353917754e+00 -2.5158910692743128e+00 0.0000000000000000e+00  6.1137974137054067e+00 -2.4874271435368458e+00 0.0000000000000000e+00  6.1205167837188297e+00 -2.4535410706196457e+00 0.0000000000000000e+00  6.1200681917087634e+00 -2.4249642458121778e+00 0.0000000000000000e+00  6.1263240484524975e+00 -2.3912914500949007e+00 0.0000000000000000e+00  6.1258833652890710e+00 -2.3624926173910326e+00 0.0000000000000000e+00  6.1322793399208138e+00 -2.3284685769229339e+00 0.0000000000000000e+00  6.1313693294202629e+00 -2.3002803684440272e+00 0.0000000000000000e+00  6.1376757744400487e+00 -2.2654956482414605e+00 0.0000000000000000e+00  6.1370462099336365e+00 -2.2377290931413345e+00 0.0000000000000000e+00  6.1428491360047524e+00 -2.2023611044651115e+00 0.0000000000000000e+00  6.1420738400143335e+00 -2.1753825146525072e+00 0.0000000000000000e+00  6.1482105821537321e+00 -2.1385953875510277e+00 0.0000000000000000e+00  6.1470338628803729e+00 -2.1125998838379449e+00 0.0000000000000000e+00  6.1527983984967225e+00 -2.0751877700027399e+00 0.0000000000000000e+00  6.1521856417547278e+00 -2.0490889955695128e+00 0.0000000000000000e+00  6.1574618543401742e+00 -2.0111871727505450e+00 0.0000000000000000e+00  6.1564710808112917e+00 -1.9860946028089690e+00 0.0000000000000000e+00  6.1622594736963379e+00 -1.9470355238664383e+00 0.0000000000000000e+00  6.1610306040815370e+00 -1.9216473438323316e+00 0.0000000000000000e+00  6.1660610227340209e+00 -1.8845470306454772e+00 0.0000000000000000e+00  6.1656877153424192e+00 -1.8566817294268541e+00 0.0000000000000000e+00  6.1703005711795402e+00 -1.8207011513725739e+00 0.0000000000000000e+00  6.1692717847309195e+00 -1.7939378661858005e+00 0.0000000000000000e+00  6.1745336297563211e+00 -1.7554512154271904e+00 0.0000000000000000e+00  6.1735148731387905e+00 -1.7309940885268886e+00 0.0000000000000000e+00  6.1775710258618899e+00 -1.6912763304732021e+00 0.0000000000000000e+00  6.1776974609893287e+00 -1.6668878105754366e+00 0.0000000000000000e+00  6.1814084025250109e+00 -1.6275498879077070e+00 0.0000000000000000e+00  6.1806654170909772e+00 -1.6016765578344405e+00 0.0000000000000000e+00  6.1850292340742543e+00 -1.5653649275504777e+00 0.0000000000000000e+00  6.1846500781585272e+00 -1.5347619400454764e+00 0.0000000000000000e+00  6.1873545151046061e+00 -1.5031114209284242e+00 0.0000000000000000e+00  6.1883330758544126e+00 -1.4700684917211109e+00 0.0000000000000000e+00  6.1908145699643047e+00 -1.4369321755859514e+00 0.0000000000000000e+00  6.1907326888056602e+00 -1.4084406438642736e+00 0.0000000000000000e+00  6.1938500704768957e+00 -1.3715298495198545e+00 0.0000000000000000e+00  6.1943621018747512e+00 -1.3442181796357398e+00 0.0000000000000000e+00  6.1956454807112529e+00 -1.3091288347357735e+00 0.0000000000000000e+00  6.1974674103702201e+00 -1.2801838071814700e+00 0.0000000000000000e+00  6.1987072357330328e+00 -1.2457859867555101e+00 0.0000000000000000e+00  6.1994202044892424e+00 -1.2170321012433711e+00 0.0000000000000000e+00  6.2011649559997331e+00 -1.1841945678637069e+00 0.0000000000000000e+00  6.2026136563566503e+00 -1.1525414682714361e+00 0.0000000000000000e+00  6.2026216820431577e+00 -1.1233151513125954e+00 0.0000000000000000e+00  6.2050973066144506e+00 -1.0897539159335701e+00 0.0000000000000000e+00  6.2053041379450482e+00 -1.0592587673046885e+00 0.0000000000000000e+00  6.2066855692599354e+00 -1.0280335785086356e+00 0.0000000000000000e+00  6.2072743857956976e+00 -9.9546247011778910e-01 0.0000000000000000e+00  6.2093520795029455e+00 -9.6442690058148905e-01 0.0000000000000000e+00  6.2085266432650688e+00 -9.3164063594426705e-01 0.0000000000000000e+00  6.2112777464751812e+00 -8.9984172335750889e-01 0.0000000000000000e+00  6.2106967775768158e+00 -8.6746701856896880e-01 0.0000000000000000e+00  6.2126267272080504e+00 -8.3504273463031764e-01 0.0000000000000000e+00  6.2121301036784624e+00 -8.0627680836919147e-01 0.0000000000000000e+00  6.2146814595955844e+00 -7.7026616803712067e-01 0.0000000000000000e+00  6.2131607880039121e+00 -7.5057285819610486e-01 0.0000000000000000e+00  6.2160240945300140e+00 -7.0649178847108218e-01 0.0000000000000000e+00  6.2147655763675402e+00 -6.9463358264476860e-01 0.0000000000000000e+00  6.2170963027035535e+00 -6.4402705202302934e-01 0.0000000000000000e+00  6.2158648589408090e+00 -6.3212342479453942e-01 0.0000000000000000e+00  6.2184764529274155e+00 -5.8092508064398352e-01 0.0000000000000000e+00  6.2169321922303666e+00 -5.6631522215286711e-01 0.0000000000000000e+00  6.2193269469852277e+00 -5.1843882301176636e-01 0.0000000000000000e+00  6.2181509438275109e+00 -4.9455471631738429e-01 0.0000000000000000e+00  6.2202027809335343e+00 -4.5039145453151447e-01 0.0000000000000000e+00  6.2189495411923632e+00 -4.1931686490983999e-01 0.0000000000000000e+00  6.2210068786389048e+00 -3.7870746676383693e-01 0.0000000000000000e+00  6.2198004879392448e+00 -3.5395970213505684e-01 0.0000000000000000e+00  6.2214457374264134e+00 -3.1248300756247493e-01 0.0000000000000000e+00  6.2205080162763036e+00 -2.7677399236967837e-01 0.0000000000000000e+00  6.2220251310854238e+00 -2.4499468094242019e-01 0.0000000000000000e+00  6.2209050253981060e+00 -2.1009106503809294e-01 0.0000000000000000e+00  6.2221627862850335e+00 -1.8019252024687679e-01 0.0000000000000000e+00  6.2214790487725988e+00 -1.4079808484480288e-01 0.0000000000000000e+00  6.2222728188783538e+00 -1.2297466211922002e-01 0.0000000000000000e+00  6.2217355742139810e+00 -3.4677874491691629e-02 0.0000000000000000e+00  6.2227918331242575e+00 0.0000000000000000e+00 0.0000000000000000e+00  2.0819490397078493e+00 0.0000000000000000e+00 -2.2206196662288638e-03  2.0780764758701640e+00 2.7268698694715945e-02 2.4463088524676970e-03  2.0812307161459702e+00 5.5273608341657850e-02 -2.2244978002829690e-02  2.0793840827301104e+00 9.8781483907846593e-02 4.0104186182112062e-02  2.0794266368623640e+00 1.1238054575506717e-01 -3.0776302342130860e-02  2.0797811167316054e+00 1.4898954949699103e-01 1.5458806540724205e-02  2.0800522383321263e+00 1.7648022773713362e-01 7.0053045278057934e-03  2.0788737152478736e+00 2.0588566906748657e-01 -2.6836467359558924e-02  2.0869571295751497e+00 2.1958463632390984e-01 2.8493683103216982e-02  2.1148708709115112e+00 1.9223651087090279e-01 -1.5601884405721236e-02  2.3313132762020681e+00 -2.4710138433021273e-01 -1.7794654261588461e-03  2.9279673053418089e+00 -1.4960149841335357e+00 2.0850755361350518e-02  3.7180921596095771e+00 -2.9577964427859271e+00 -8.3920528729523023e-04  4.3270547787342872e+00 -3.9853509966172345e+00 -4.6289883294106790e-03  4.7069072170879709e+00 -4.4973803690788019e+00 -4.0097911274334644e-03  4.9247859769576898e+00 -4.7921903358828981e+00 2.7676390926052929e-03  5.0392901225010895e+00 -4.9394489159599484e+00 -2.5003351651166684e-03  5.1188277230754284e+00 -4.9715811753492245e+00 4.5687980033979822e-03  5.1506905317212670e+00 -5.0160688510646887e+00 -1.7982306235101585e-03  5.1808019128850287e+00 -5.0059262208053115e+00 1.9482675357089618e-03  5.1998119792566655e+00 -4.9974456323874010e+00 -1.0752530159264114e-03  5.2169880173367984e+00 -4.9808608553117146e+00 1.0497222661791448e-03  5.2296211756532625e+00 -4.9750463520739885e+00 -1.4063421945834727e-03  5.2446087080295580e+00 -4.9446632306843021e+00 1.4413850042849135e-03  5.2587111993695732e+00 -4.9318869754701513e+00 -9.2510727283706012e-04  5.2696216856406446e+00 -4.9221947842939162e+00 -4.7141186179120890e-04  5.2860426655693917e+00 -4.8846907329393758e+00 2.3712923738510696e-03  5.2953990740772134e+00 -4.8857591581417976e+00 -3.4802376504205397e-03  5.3125029768993421e+00 -4.8551306434053041e+00 3.8897032549909923e-03  5.3213835854983520e+00 -4.8390706251490254e+00 -3.1173093717859930e-03  5.3387236464555876e+00 -4.8209598581758488e+00 2.5659951795221256e-03  5.3476956387295234e+00 -4.8034894718989491e+00 -1.8863464679847700e-03  5.3637533413492813e+00 -4.7794452232235294e+00 1.8255451572655400e-03  5.3751288438981843e+00 -4.7651401133314337e+00 -1.4736592157752488e-03  5.3885887574417541e+00 -4.7454749500536204e+00 1.1686385983619325e-03  5.4011619492018506e+00 -4.7220476717567754e+00 -6.9017699169572416e-04  5.4148479202142559e+00 -4.7089442853279158e+00 5.7455324773361194e-04  5.4264100055361286e+00 -4.6859484096606616e+00 -9.1489167707677619e-04  5.4406349238423237e+00 -4.6660284846557296e+00 1.4859547802246003e-03  5.4521434996185798e+00 -4.6508888689698944e+00 -2.0906713965235199e-03  5.4658150707001543e+00 -4.6266359369284649e+00 2.2120207694103560e-03  5.4777572701816339e+00 -4.6102437979215765e+00 -2.1390492512875304e-03  5.4910202851779273e+00 -4.5894159032681543e+00 1.8102037693329730e-03  5.5029131926039021e+00 -4.5704734185406561e+00 -1.7399912309656379e-03  5.5160034436436920e+00 -4.5484815378721635e+00 1.8157445073573432e-03  5.5279449814805508e+00 -4.5319544884178109e+00 -2.0127274203080442e-03  5.5408451533684264e+00 -4.5075716745624597e+00 2.2028152107697848e-03  5.5522843299037428e+00 -4.4907933917632725e+00 -2.1563713174227420e-03  5.5656791118157107e+00 -4.4672413626067842e+00 2.2519688826260339e-03  5.5764717349574440e+00 -4.4495701817602500e+00 -2.2181841080575527e-03  5.5897621496068499e+00 -4.4245733294119427e+00 2.5293906809788031e-03  5.6005651429109591e+00 -4.4090066059469546e+00 -2.6053228184551953e-03  5.6135130599545908e+00 -4.3818589412473301e+00 2.7500562848928739e-03  5.6241688433873138e+00 -4.3662722463006860e+00 -2.5421766341259234e-03  5.6368190103241744e+00 -4.3402144914309293e+00 2.2828248455281732e-03  5.6474770070226654e+00 -4.3230741415451943e+00 -2.0071082161998649e-03  5.6596309498976156e+00 -4.2973706909429215e+00 1.6613295131700778e-03  5.6702677539296529e+00 -4.2801389059740433e+00 -1.5551760731003618e-03  5.6820361513927802e+00 -4.2547415185026898e+00 1.0832614482692250e-03  5.6926312659021354e+00 -4.2357473993772938e+00 -9.7236947485076770e-04  5.7037272739776270e+00 -4.2125021416060884e+00 3.1684627886413054e-04  5.7146840833790113e+00 -4.1912278648075958e+00 -2.8551910596364587e-04  5.7249182728891670e+00 -4.1688792641066597e+00 -3.0992212784488151e-04  5.7358950314471064e+00 -4.1471007165928340e+00 1.6008989671081111e-04  5.7458734556911866e+00 -4.1243924984344558e+00 -6.3654195337769484e-04  5.7564778010716084e+00 -4.1021186083525842e+00 3.9070169577108828e-04  5.7660874715834147e+00 -4.0794944896247376e+00 -7.0687712442869712e-04  5.7766288708080671e+00 -4.0563134874334175e+00 3.4927580157500360e-04  5.7858280563245330e+00 -4.0336020926814626e+00 -4.4695260667038626e-04  5.7958492437659759e+00 -4.0099055913548041e+00 6.9561990099555220e-05  5.8052302727582630e+00 -3.9866362857467155e+00 -8.8425644089800423e-05  5.8145615019369314e+00 -3.9625798225707589e+00 -1.4809670975829360e-04  5.8236451846435386e+00 -3.9390043880043324e+00 1.3025348431642815e-04  5.8329723280472159e+00 -3.9139420434578818e+00 -2.1578546466656436e-04  5.8415090099189406e+00 -3.8907730816445110e+00 1.9714476419564837e-04  5.8504334620025293e+00 -3.8644683190475178e+00 -1.2673659438831945e-04  5.8590200030796407e+00 -3.8411751509426884e+00 1.0347968881077456e-04  5.8673858998280153e+00 -3.8148119749653158e+00 4.8731953728720142e-05  5.8755668981903044e+00 -3.7902854578426157e+00 3.66131458513042