<?xml version="1.0"?>
<VTKFile type="UnstructuredGrid"  version="0.1"  >
<UnstructuredGrid>
<Piece  NumberOfPoints="8241" NumberOfCells="16000">
<Points>
<DataArray  type="Float64"  NumberOfComponents="3"  format="ascii">-5 -1 0  -4.95 -1 0  -4.9 -1 0  -4.85 -1 0  -4.8 -1 0  -4.75 -1 0  -4.7 -1 0  -4.65 -1 0  -4.6 -1 0  -4.55 -1 0  -4.5 -1 0  -4.45 -1 0  -4.4 -1 0  -4.35 -1 0  -4.3 -1 0  -4.25 -1 0  -4.2 -1 0  -4.15 -1 0  -4.1 -1 0  -4.05 -1 0  -4 -1 0  -3.95 -1 0  -3.9 -1 0  -3.85 -1 0  -3.8 -1 0  -3.75 -1 0  -3.7 -1 0  -3.65 -1 0  -3.6 -1 0  -3.55 -1 0  -3.5 -1 0  -3.45 -1 0  -3.4 -1 0  -3.35 -1 0  -3.3 -1 0  -3.25 -1 0  -3.2 -1 0  -3.15 -1 0  -3.1 -1 0  -3.05 -1 0  -3 -1 0  -2.95 -1 0  -2.9 -1 0  -2.85 -1 0  -2.8 -1 0  -2.75 -1 0  -2.7 -1 0  -2.65 -1 0  -2.6 -1 0  -2.55 -1 0  -2.5 -1 0  -2.45 -1 0  -2.4 -1 0  -2.35 -1 0  -2.3 -1 0  -2.25 -1 0  -2.2 -1 0  -2.15 -1 0  -2.1 -1 0  -2.05 -1 0  -2 -1 0  -1.95 -1 0  -1.9 -1 0  -1.85 -1 0  -1.8 -1 0  -1.75 -1 0  -1.7 -1 0  -1.65 -1 0  -1.6 -1 0  -1.55 -1 0  -1.5 -1 0  -1.45 -1 0  -1.4 -1 0  -1.35 -1 0  -1.3 -1 0  -1.25 -1 0  -1.2 -1 0  -1.15 -1 0  -1.1 -1 0  -1.05 -1 0  -1 -1 0  -0.9500000000000002 -1 0  -0.9000000000000004 -1 0  -0.8499999999999996 -1 0  -0.7999999999999998 -1 0  -0.75 -1 0  -0.7000000000000002 -1 0  -0.6500000000000004 -1 0  -0.5999999999999996 -1 0  -0.5499999999999998 -1 0  -0.5 -1 0  -0.4500000000000002 -1 0  -0.4000000000000004 -1 0  -0.3499999999999996 -1 0  -0.2999999999999998 -1 0  -0.25 -1 0  -0.2000000000000002 -1 0  -0.1500000000000004 -1 0  -0.09999999999999964 -1 0  -0.04999999999999982 -1 0  0 -1 0  0.04999999999999982 -1 0  0.09999999999999964 -1 0  0.1500000000000004 -1 0  0.2000000000000002 -1 0  0.25 -1 0  0.2999999999999998 -1 0  0.3499999999999996 -1 0  0.4000000000000004 -1 0  0.4500000000000002 -1 0  0.5 -1 0  0.5499999999999998 -1 0  0.5999999999999996 -1 0  0.6500000000000004 -1 0  0.7000000000000002 -1 0  0.75 -1 0  0.7999999999999998 -1 0  0.8499999999999996 -1 0  0.9000000000000004 -1 0  0.9500000000000002 -1 0  1 -1 0  1.05 -1 0  1.1 -1 0  1.15 -1 0  1.2 -1 0  1.25 -1 0  1.3 -1 0  1.35 -1 0  1.4 -1 0  1.45 -1 0  1.5 -1 0  1.55 -1 0  1.6 -1 0  1.65 -1 0  1.7 -1 0  1.75 -1 0  1.8 -1 0  1.85 -1 0  1.9 -1 0  1.95 -1 0  2 -1 0  2.05 -1 0  2.1 -1 0  2.15 -1 0  2.2 -1 0  2.25 -1 0  2.3 -1 0  2.35 -1 0  2.4 -1 0  2.45 -1 0  2.5 -1 0  2.55 -1 0  2.6 -1 0  2.65 -1 0  2.7 -1 0  2.75 -1 0  2.8 -1 0  2.85 -1 0  2.9 -1 0  2.95 -1 0  3 -1 0  3.050000000000001 -1 0  3.1 -1 0  3.15 -1 0  3.199999999999999 -1 0  3.25 -1 0  3.300000000000001 -1 0  3.35 -1 0  3.4 -1 0  3.449999999999999 -1 0  3.5 -1 0  3.550000000000001 -1 0  3.6 -1 0  3.65 -1 0  3.699999999999999 -1 0  3.75 -1 0  3.800000000000001 -1 0  3.85 -1 0  3.9 -1 0  3.949999999999999 -1 0  4 -1 0  4.050000000000001 -1 0  4.1 -1 0  4.15 -1 0  4.199999999999999 -1 0  4.25 -1 0  4.300000000000001 -1 0  4.35 -1 0  4.4 -1 0  4.449999999999999 -1 0  4.5 -1 0  4.550000000000001 -1 0  4.6 -1 0  4.65 -1 0  4.699999999999999 -1 0  4.75 -1 0  4.800000000000001 -1 0  4.85 -1 0  4.9 -1 0  4.949999999999999 -1 0  5 -1 0  -5 -0.95 0  -4.95 -0.95 0  -4.9 -0.95 0  -4.85 -0.95 0  -4.8 -0.95 0  -4.75 -0.95 0  -4.7 -0.95 0  -4.65 -0.95 0  -4.6 -0.95 0  -4.55 -0.95 0  -4.5 -0.95 0  -4.45 -0.95 0  -4.4 -0.95 0  -4.35 -0.95 0  -4.3 -0.95 0  -4.25 -0.95 0  -4.2 -0.95 0  -4.15 -0.95 0  -4.1 -0.95 0  -4.05 -0.95 0  -4 -0.95 0  -3.95 -0.95 0  -3.9 -0.95 0  -3.85 -0.95 0  -3.8 -0.95 0  -3.75 -0.95 0  -3.7 -0.95 0  -3.65 -0.95 0  -3.6 -0.95 0  -3.55 -0.95 0  -3.5 -0.95 0  -3.45 -0.95 0  -3.4 -0.95 0  -3.35 -0.95 0  -3.3 -0.95 0  -3.25 -0.95 0  -3.2 -0.95 0  -3.15 -0.95 0  -3.1 -0.95 0  -3.05 -0.95 0  -3 -0.95 0  -2.95 -0.95 0  -2.9 -0.95 0  -2.85 -0.95 0  -2.8 -0.95 0  -2.75 -0.95 0  -2.7 -0.95 0  -2.65 -0.95 0  -2.6 -0.95 0  -2.55 -0.95 0  -2.5 -0.95 0  -2.45 -0.95 0  -2.4 -0.95 0  -2.35 -0.95 0  -2.3 -0.95 0  -2.25 -0.95 0  -2.2 -0.95 0  -2.15 -0.95 0  -2.1 -0.95 0  -2.05 -0.95 0  -2 -0.95 0  -1.95 -0.95 0  -1.9 -0.95 0  -1.85 -0.95 0  -1.8 -0.95 0  -1.75 -0.95 0  -1.7 -0.95 0  -1.65 -0.95 0  -1.6 -0.95 0  -1.55 -0.95 0  -1.5 -0.95 0  -1.45 -0.95 0  -1.4 -0.95 0  -1.35 -0.95 0  -1.3 -0.95 0  -1.25 -0.95 0  -1.2 -0.95 0  -1.15 -0.95 0  -1.1 -0.95 0  -1.05 -0.95 0  -1 -0.95 0  -0.9500000000000002 -0.95 0  -0.9000000000000004 -0.95 0  -0.8499999999999996 -0.95 0  -0.7999999999999998 -0.95 0  -0.75 -0.95 0  -0.7000000000000002 -0.95 0  -0.6500000000000004 -0.95 0  -0.5999999999999996 -0.95 0  -0.5499999999999998 -0.95 0  -0.5 -0.95 0  -0.4500000000000002 -0.95 0  -0.4000000000000004 -0.95 0  -0.3499999999999996 -0.95 0  -0.2999999999999998 -0.95 0  -0.25 -0.95 0  -0.2000000000000002 -0.95 0  -0.1500000000000004 -0.95 0  -0.09999999999999964 -0.95 0  -0.04999999999999982 -0.95 0  0 -0.95 0  0.04999999999999982 -0.95 0  0.09999999999999964 -0.95 0  0.1500000000000004 -0.95 0  0.2000000000000002 -0.95 0  0.25 -0.95 0  0.2999999999999998 -0.95 0  0.3499999999999996 -0.95 0  0.4000000000000004 -0.95 0  0.4500000000000002 -0.95 0  0.5 -0.95 0  0.5499999999999998 -0.95 0  0.5999999999999996 -0.95 0  0.6500000000000004 -0.95 0  0.7000000000000002 -0.95 0  0.75 -0.95 0  0.7999999999999998 -0.95 0  0.8499999999999996 -0.95 0  0.9000000000000004 -0.95 0  0.9500000000000002 -0.95 0  1 -0.95 0  1.05 -0.95 0  1.1 -0.95 0  1.15 -0.95 0  1.2 -0.95 0  1.25 -0.95 0  1.3 -0.95 0  1.35 -0.95 0  1.4 -0.95 0  1.45 -0.95 0  1.5 -0.95 0  1.55 -0.95 0  1.6 -0.95 0  1.65 -0.95 0  1.7 -0.95 0  1.75 -0.95 0  1.8 -0.95 0  1.85 -0.95 0  1.9 -0.95 0  1.95 -0.95 0  2 -0.95 0  2.05 -0.95 0  2.1 -0.95 0  2.15 -0.95 0  2.2 -0.95 0  2.25 -0.95 0  2.3 -0.95 0  2.35 -0.95 0  2.4 -0.95 0  2.45 -0.95 0  2.5 -0.95 0  2.55 -0.95 0  2.6 -0.95 0  2.65 -0.95 0  2.7 -0.95 0  2.75 -0.95 0  2.8 -0.95 0  2.85 -0.95 0  2.9 -0.95 0  2.95 -0.95 0  3 -0.95 0  3.050000000000001 -0.95 0  3.1 -0.95 0  3.15 -0.95 0  3.199999999999999 -0.95 0  3.25 -0.95 0  3.300000000000001 -0.95 0  3.35 -0.95 0  3.4 -0.95 0  3.449999999999999 -0.95 0  3.5 -0.95 0  3.550000000000001 -0.95 0  3.6 -0.95 0  3.65 -0.95 0  3.699999999999999 -0.95 0  3.75 -0.95 0  3.800000000000001 -0.95 0  3.85 -0.95 0  3.9 -0.95 0  3.949999999999999 -0.95 0  4 -0.95 0  4.050000000000001 -0.95 0  4.1 -0.95 0  4.15 -0.95 0  4.199999999999999 -0.95 0  4.25 -0.95 0  4.300000000000001 -0.95 0  4.35 -0.95 0  4.4 -0.95 0  4.449999999999999 -0.95 0  4.5 -0.95 0  4.550000000000001 -0.95 0  4.6 -0.95 0  4.65 -0.95 0  4.699999999999999 -0.95 0  4.75 -0.95 0  4.800000000000001 -0.95 0  4.85 -0.95 0  4.9 -0.95 0  4.949999999999999 -0.95 0  5 -0.95 0  -5 -0.9 0  -4.95 -0.9 0  -4.9 -0.9 0  -4.85 -0.9 0  -4.8 -0.9 0  -4.75 -0.9 0  -4.7 -0.9 0  -4.65 -0.9 0  -4.6 -0.9 0  -4.55 -0.9 0  -4.5 -0.9 0  -4.45 -0.9 0  -4.4 -0.9 0  -4.35 -0.9 0  -4.3 -0.9 0  -4.25 -0.9 0  -4.2 -0.9 0  -4.15 -0.9 0  -4.1 -0.9 0  -4.05 -0.9 0  -4 -0.9 0  -3.95 -0.9 0  -3.9 -0.9 0  -3.85 -0.9 0  -3.8 -0.9 0  -3.75 -0.9 0  -3.7 -0.9 0  -3.65 -0.9 0  -3.6 -0.9 0  -3.55 -0.9 0  -3.5 -0.9 0  -3.45 -0.9 0  -3.4 -0.9 0  -3.35 -0.9 0  -3.3 -0.9 0  -3.25 -0.9 0  -3.2 -0.9 0  -3.15 -0.9 0  -3.1 -0.9 0  -3.05 -0.9 0  -3 -0.9 0  -2.95 -0.9 0  -2.9 -0.9 0  -2.85 -0.9 0  -2.8 -0.9 0  -2.75 -0.9 0  -2.7 -0.9 0  -2.65 -0.9 0  -2.6 -0.9 0  -2.55 -0.9 0  -2.5 -0.9 0  -2.45 -0.9 0  -2.4 -0.9 0  -2.35 -0.9 0  -2.3 -0.9 0  -2.25 -0.9 0  -2.2 -0.9 0  -2.15 -0.9 0  -2.1 -0.9 0  -2.05 -0.9 0  -2 -0.9 0  -1.95 -0.9 0  -1.9 -0.9 0  -1.85 -0.9 0  -1.8 -0.9 0  -1.75 -0.9 0  -1.7 -0.9 0  -1.65 -0.9 0  -1.6 -0.9 0  -1.55 -0.9 0  -1.5 -0.9 0  -1.45 -0.9 0  -1.4 -0.9 0  -1.35 -0.9 0  -1.3 -0.9 0  -1.25 -0.9 0  -1.2 -0.9 0  -1.15 -0.9 0  -1.1 -0.9 0  -1.05 -0.9 0  -1 -0.9 0  -0.9500000000000002 -0.9 0  -0.9000000000000004 -0.9 0  -0.8499999999999996 -0.9 0  -0.7999999999999998 -0.9 0  -0.75 -0.9 0  -0.7000000000000002 -0.9 0  -0.6500000000000004 -0.9 0  -0.5999999999999996 -0.9 0  -0.5499999999999998 -0.9 0  -0.5 -0.9 0  -0.4500000000000002 -0.9 0  -0.4000000000000004 -0.9 0  -0.3499999999999996 -0.9 0  -0.2999999999999998 -0.9 0  -0.25 -0.9 0  -0.2000000000000002 -0.9 0  -0.1500000000000004 -0.9 0  -0.09999999999999964 -0.9 0  -0.04999999999999982 -0.9 0  0 -0.9 0  0.04999999999999982 -0.9 0  0.09999999999999964 -0.9 0  0.1500000000000004 -0.9 0  0.2000000000000002 -0.9 0  0.25 -0.9 0  0.2999999999999998 -0.9 0  0.3499999999999996 -0.9 0  0.4000000000000004 -0.9 0  0.4500000000000002 -0.9 0  0.5 -0.9 0  0.5499999999999998 -0.9 0  0.5999999999999996 -0.9 0  0.6500000000000004 -0.9 0  0.7000000000000002 -0.9 0  0.75 -0.9 0  0.7999999999999998 -0.9 0  0.8499999999999996 -0.9 0  0.9000000000000004 -0.9 0  0.9500000000000002 -0.9 0  1 -0.9 0  1.05 -0.9 0  1.1 -0.9 0  1.15 -0.9 0  1.2 -0.9 0  1.25 -0.9 0  1.3 -0.9 0  1.35 -0.9 0  1.4 -0.9 0  1.45 -0.9 0  1.5 -0.9 0  1.55 -0.9 0  1.6 -0.9 0  1.65 -0.9 0  1.7 -0.9 0  1.75 -0.9 0  1.8 -0.9 0  1.85 -0.9 0  1.9 -0.9 0  1.95 -0.9 0  2 -0.9 0  2.05 -0.9 0  2.1 -0.9 0  2.15 -0.9 0  2.2 -0.9 0  2.25 -0.9 0  2.3 -0.9 0  2.35 -0.9 0  2.4 -0.9 0  2.45 -0.9 0  2.5 -0.9 0  2.55 -0.9 0  2.6 -0.9 0  2.65 -0.9 0  2.7 -0.9 0  2.75 -0.9 0  2.8 -0.9 0  2.85 -0.9 0  2.9 -0.9 0  2.95 -0.9 0  3 -0.9 0  3.050000000000001 -0.9 0  3.1 -0.9 0  3.15 -0.9 0  3.199999999999999 -0.9 0  3.25 -0.9 0  3.300000000000001 -0.9 0  3.35 -0.9 0  3.4 -0.9 0  3.449999999999999 -0.9 0  3.5 -0.9 0  3.550000000000001 -0.9 0  3.6 -0.9 0  3.65 -0.9 0  3.699999999999999 -0.9 0  3.75 -0.9 0  3.800000000000001 -0.9 0  3.85 -0.9 0  3.9 -0.9 0  3.949999999999999 -0.9 0  4 -0.9 0  4.050000000000001 -0.9 0  4.1 -0.9 0  4.15 -0.9 0  4.199999999999999 -0.9 0  4.25 -0.9 0  4.300000000000001 -0.9 0  4.35 -0.9 0  4.4 -0.9 0  4.449999999999999 -0.9 0  4.5 -0.9 0  4.550000000000001 -0.9 0  4.6 -0.9 0  4.65 -0.9 0  4.699999999999999 -0.9 0  4.75 -0.9 0  4.800000000000001 -0.9 0  4.85 -0.9 0  4.9 -0.9 0  4.949999999999999 -0.9 0  5 -0.9 0  -5 -0.85 0  -4.95 -0.85 0  -4.9 -0.85 0  -4.85 -0.85 0  -4.8 -0.85 0  -4.75 -0.85 0  -4.7 -0.85 0  -4.65 -0.85 0  -4.6 -0.85 0  -4.55 -0.85 0  -4.5 -0.85 0  -
[...]
<PointData  Vectors="f_15"> 
<DataArray  type="Float64"  Name="f_15"  NumberOfComponents="3" format="ascii">3.5858599101220139e+00 0.0000000000000000e+00 0.0000000000000000e+00  3.5913433741988876e+00 7.3050360733457914e-02 0.0000000000000000e+00  3.5854391482588062e+00 8.2945828688379269e-02 0.0000000000000000e+00  3.5914613424086035e+00 1.5541597902935786e-01 0.0000000000000000e+00  3.5856232875907770e+00 1.8870114926550047e-01 0.0000000000000000e+00  3.5909469601749682e+00 2.4812072487534878e-01 0.0000000000000000e+00  3.5857296815567214e+00 2.8914026934275783e-01 0.0000000000000000e+00  3.5909245940093961e+00 3.4562430139645728e-01 0.0000000000000000e+00  3.5851991767527545e+00 3.8825482859888866e-01 0.0000000000000000e+00  3.5907484285035323e+00 4.4272540525969334e-01 0.0000000000000000e+00  3.5850728604283328e+00 4.8783527158519552e-01 0.0000000000000000e+00  3.5901040431651672e+00 5.3920388427561661e-01 0.0000000000000000e+00  3.5846990185109604e+00 5.8761781321172046e-01 0.0000000000000000e+00  3.5897342000715646e+00 6.3631082508960390e-01 0.0000000000000000e+00  3.5840740672528519e+00 6.8585979266409991e-01 0.0000000000000000e+00  3.5890001827201035e+00 7.3445514273157986e-01 0.0000000000000000e+00  3.5836115041194323e+00 7.8334146840350949e-01 0.0000000000000000e+00  3.5882406542107046e+00 8.3393613895850649e-01 0.0000000000000000e+00  3.5826895226851012e+00 8.7776765536560619e-01 0.0000000000000000e+00  3.5875572134253928e+00 9.3723239234980249e-01 0.0000000000000000e+00  3.5819510149899001e+00 9.6990830712894172e-01 0.0000000000000000e+00  3.5863438892577535e+00 1.0383406974944265e+00 0.0000000000000000e+00  3.5812360127107796e+00 1.0694298209509121e+00 0.0000000000000000e+00  3.5854719978024221e+00 1.1300321228777539e+00 0.0000000000000000e+00  3.5799075386359367e+00 1.1741833722943129e+00 0.0000000000000000e+00  3.5846787859065450e+00 1.2256247440147785e+00 0.0000000000000000e+00  3.5789055993327410e+00 1.2671698282306076e+00 0.0000000000000000e+00  3.5833091103815216e+00 1.3327337628330149e+00 0.0000000000000000e+00  3.5779661732059189e+00 1.3576319272211477e+00 0.0000000000000000e+00  3.5823645765607748e+00 1.4318482269209503e+00 0.0000000000000000e+00  3.5762390858570687e+00 1.4587277876249434e+00 0.0000000000000000e+00  3.5818064173258395e+00 1.5280823393881371e+00 0.0000000000000000e+00  3.5747733617178796e+00 1.5530711839192366e+00 0.0000000000000000e+00  3.5802948189906827e+00 1.6308232871184982e+00 0.0000000000000000e+00  3.5741204304474574e+00 1.6543978079966548e+00 0.0000000000000000e+00  3.5787788392040607e+00 1.7108186878740095e+00 0.0000000000000000e+00  3.5723068534142213e+00 1.7804238381254625e+00 0.0000000000000000e+00  3.5786110406928859e+00 1.7846278196517771e+00 0.0000000000000000e+00  3.5701527524407868e+00 1.8849196358542959e+00 0.0000000000000000e+00  3.5770857956254947e+00 1.8962274201561786e+00 0.0000000000000000e+00  3.5699584663443695e+00 1.9618040072346798e+00 0.0000000000000000e+00  3.5748665252617338e+00 2.0057787773697529e+00 0.0000000000000000e+00  3.5680701632753484e+00 2.0680520975870498e+00 0.0000000000000000e+00  3.5753242487231609e+00 2.0817118418297773e+00 0.0000000000000000e+00  3.5649320316140716e+00 2.1849736216002160e+00 0.0000000000000000e+00  3.5740530712027079e+00 2.1782822012588192e+00 0.0000000000000000e+00  3.5650326799391858e+00 2.2668871718873902e+00 0.0000000000000000e+00  3.5710128339238829e+00 2.2962287576685263e+00 0.0000000000000000e+00  3.5635473463611045e+00 2.3582612198535879e+00 0.0000000000000000e+00  3.5713088261355037e+00 2.3833758431680123e+00 0.0000000000000000e+00  3.5600252825176271e+00 2.4748826728720554e+00 0.0000000000000000e+00  3.5701837831262191e+00 2.4713280104224618e+00 0.0000000000000000e+00  3.5598267189299597e+00 2.5671326146751938e+00 0.0000000000000000e+00  3.5668593592528088e+00 2.5845855665825428e+00 0.0000000000000000e+00  3.5585915353094713e+00 2.6538739729755001e+00 0.0000000000000000e+00  3.5663287046405632e+00 2.6821702877967453e+00 0.0000000000000000e+00  3.5553382063835164e+00 2.7605595084367911e+00 0.0000000000000000e+00  3.5650476853586124e+00 2.7733444782994905e+00 0.0000000000000000e+00  3.5542937736890554e+00 2.8568374217004293e+00 0.0000000000000000e+00  3.5620343761886404e+00 2.8798023601731235e+00 0.0000000000000000e+00  3.5529175702862861e+00 2.9461864811638820e+00 0.0000000000000000e+00  3.5603063274054239e+00 2.9812108255692502e+00 0.0000000000000000e+00  3.5504529773777782e+00 3.0445011176252734e+00 0.0000000000000000e+00  3.5583048109373920e+00 3.0782498556865852e+00 0.0000000000000000e+00  3.5487014419789351e+00 3.1400884791848198e+00 0.0000000000000000e+00  3.5555775467543831e+00 3.1798784047475150e+00 0.0000000000000000e+00  3.5469697569699252e+00 3.2341832429421351e+00 0.0000000000000000e+00  3.5528103266190252e+00 3.2788450403250708e+00 0.0000000000000000e+00  3.5450729747972041e+00 3.3316418699005053e+00 0.0000000000000000e+00  3.5501311734171352e+00 3.3763204396746240e+00 0.0000000000000000e+00  3.5425842485266528e+00 3.4280791497447618e+00 0.0000000000000000e+00  3.5478449762522111e+00 3.4753856726512495e+00 0.0000000000000000e+00  3.5400002727658100e+00 3.5230990253837233e+00 0.0000000000000000e+00  3.5447842407076986e+00 3.5748365956420627e+00 0.0000000000000000e+00  3.5380596814069145e+00 3.6187285711516517e+00 0.0000000000000000e+00  3.5415031037449687e+00 3.6714423174740514e+00 0.0000000000000000e+00  3.5353360460355492e+00 3.7191176004103190e+00 0.0000000000000000e+00  3.5389220939859705e+00 3.7624575367193915e+00 0.0000000000000000e+00  3.5324006916176076e+00 3.8227787683536421e+00 0.0000000000000000e+00  3.5355951787539328e+00 3.8536827486172087e+00 0.0000000000000000e+00  3.5300406211937521e+00 3.9229453444306253e+00 0.0000000000000000e+00  3.5322644417838087e+00 3.9487702444810044e+00 0.0000000000000000e+00  3.5265990160744956e+00 4.0203440650369906e+00 0.0000000000000000e+00  3.5299261663271388e+00 4.0451756132843508e+00 0.0000000000000000e+00  3.5226303491284057e+00 4.1159628299645687e+00 0.0000000000000000e+00  3.5271393969410445e+00 4.1438230007950425e+00 0.0000000000000000e+00  3.5191420451853355e+00 4.2095139197097868e+00 0.0000000000000000e+00  3.5240321456787433e+00 4.2421743292899974e+00 0.0000000000000000e+00  3.5152487476905039e+00 4.3051713040827275e+00 0.0000000000000000e+00  3.5217396970920913e+00 4.3373990895453520e+00 0.0000000000000000e+00  3.5097927588826661e+00 4.4027960819438698e+00 0.0000000000000000e+00  3.5208573225485633e+00 4.4316819883532057e+00 0.0000000000000000e+00  3.5034677041949407e+00 4.5004926589382963e+00 0.0000000000000000e+00  3.5195670463049926e+00 4.5249274293893178e+00 0.0000000000000000e+00  3.4983520777258525e+00 4.5991217146332479e+00 0.0000000000000000e+00  3.5159226222006281e+00 4.6190108159839953e+00 0.0000000000000000e+00  3.4960024747469283e+00 4.6933027389165707e+00 0.0000000000000000e+00  3.5098142240533412e+00 4.7178998226869853e+00 0.0000000000000000e+00  3.4946183965255821e+00 4.7850446552897230e+00 0.0000000000000000e+00  3.5033638366960953e+00 4.8159440622243519e+00 0.0000000000000000e+00  3.4935765140798383e+00 4.8770053816909034e+00 0.0000000000000000e+00  3.4964319655092795e+00 4.9149917150394948e+00 0.0000000000000000e+00  3.4916018015834038e+00 4.9676716329618067e+00 0.0000000000000000e+00  3.4919879416352271e+00 5.0117524192340932e+00 0.0000000000000000e+00  3.4865606514755592e+00 5.0627433156876398e+00 0.0000000000000000e+00  3.4888808231213275e+00 5.1044854443275600e+00 0.0000000000000000e+00  3.4820757791406902e+00 5.1574213209589246e+00 0.0000000000000000e+00  3.4841664390510036e+00 5.2002828816046121e+00 0.0000000000000000e+00  3.4783634621303428e+00 5.2483910001675813e+00 0.0000000000000000e+00  3.4797934493541840e+00 5.2962708914750838e+00 0.0000000000000000e+00  3.4733315898855679e+00 5.3413376182039691e+00 0.0000000000000000e+00  3.4764547077484020e+00 5.3892789003678940e+00 0.0000000000000000e+00  3.4673772758576362e+00 5.4337971304582151e+00 0.0000000000000000e+00  3.4718198731235228e+00 5.4871659304409421e+00 0.0000000000000000e+00  3.4606816591279759e+00 5.5214161040994272e+00 0.0000000000000000e+00  3.4653950694537810e+00 5.5866750098412599e+00 0.0000000000000000e+00  3.4536481834982040e+00 5.6170638325684719e+00 0.0000000000000000e+00  3.4525060849701443e+00 5.6697681824586654e+00 0.0000000000000000e+00  3.4588381717749086e+00 5.7382314839966257e+00 0.0000000000000000e+00  3.4259589863968825e+00 5.7056644091065474e+00 0.0000000000000000e+00  3.4747417256682462e+00 5.9380952115488785e+00 0.0000000000000000e+00  3.4648453890935142e+00 5.5321526387447308e+00 0.0000000000000000e+00  3.2619318122730423e+00 6.5947116626353086e+00 0.0000000000000000e+00  4.4007067200189942e+00 4.0318634050142625e+00 0.0000000000000000e+00  7.5452196494496233e+00 -1.3180640053610129e-01 0.0000000000000000e+00  8.4077811870977666e+00 -9.3997956426928042e-01 0.0000000000000000e+00  8.4602206894165874e+00 -1.0239339939707599e+00 0.0000000000000000e+00  8.4921614968924626e+00 -1.0124634588874852e+00 0.0000000000000000e+00  8.5301661165144989e+00 -9.9338845226892514e-01 0.0000000000000000e+00  8.5631868402321647e+00 -9.8614676894288922e-01 0.0000000000000000e+00  8.5890209813662501e+00 -9.6476944671492060e-01 0.0000000000000000e+00  8.6088235181570312e+00 -9.3532301097038162e-01 0.0000000000000000e+00  8.6295465873250610e+00 -9.1390937902743496e-01 0.0000000000000000e+00  8.6550767141020071e+00 -8.8907006785819431e-01 0.0000000000000000e+00  8.6782751854514313e+00 -8.7020304045978447e-01 0.0000000000000000e+00  8.7005622598855439e+00 -8.4163309803702402e-01 0.0000000000000000e+00  8.7219291977635258e+00 -8.2433171877570877e-01 0.0000000000000000e+00  8.7453144538353502e+00 -7.9683250654995041e-01 0.0000000000000000e+00  8.7668680236189989e+00 -7.8046383215586368e-01 0.0000000000000000e+00  8.7893112669320015e+00 -7.5095980017950803e-01 0.0000000000000000e+00  8.8108820569395139e+00 -7.3540591238693609e-01 0.0000000000000000e+00  8.8321088626776021e+00 -7.0518719986606726e-01 0.0000000000000000e+00  8.8542328155451617e+00 -6.9240871120130665e-01 0.0000000000000000e+00  8.8747877625246296e+00 -6.6189243870908498e-01 0.0000000000000000e+00  8.8962942799388944e+00 -6.4976002712957970e-01 0.0000000000000000e+00  8.9164957751929546e+00 -6.2058796711482789e-01 0.0000000000000000e+00  8.9378724621016552e+00 -6.0673573039003004e-01 0.0000000000000000e+00  8.9569445904585283e+00 -5.7995901312505516e-01 0.0000000000000000e+00  8.9785479965293788e+00 -5.6382293045279797e-01 0.0000000000000000e+00  8.9967187947043943e+00 -5.4052000949538925e-01 0.0000000000000000e+00  9.0176500700513831e+00 -5.2068218180777237e-01 0.0000000000000000e+00  9.0356444799641675e+00 -5.0357868240518799e-01 0.0000000000000000e+00  9.0558397905643524e+00 -4.7873537223479734e-01 0.0000000000000000e+00  9.0729727498939567e+00 -4.6807381198114212e-01 0.0000000000000000e+00  9.0929219313658205e+00 -4.3934571001972145e-01 0.0000000000000000e+00  9.1093203115572177e+00 -4.3347185192286841e-01 0.0000000000000000e+00  9.1282640085145790e+00 -4.0236093293004854e-01 0.0000000000000000e+00  9.1444003676702081e+00 -3.9927546653690260e-01 0.0000000000000000e+00  9.1624952519533878e+00 -3.6711505502446690e-01 0.0000000000000000e+00  9.1776319604708778e+00 -3.6606808389557993e-01 0.0000000000000000e+00  9.1952672543034968e+00 -3.3314046259455027e-01 0.0000000000000000e+00  9.2096152499245303e+00 -3.3406016053172993e-01 0.0000000000000000e+00  9.2261344878872560e+00 -3.0250406529939944e-01 0.0000000000000000e+00  9.2399177890672579e+00 -3.0188305090025386e-01 0.0000000000000000e+00  9.2556253725323163e+00 -2.7664263508659226e-01 0.0000000000000000e+00  9.2682812253706199e+00 -2.7064636521171231e-01 0.0000000000000000e+00  9.2832628931273948e+00 -2.5315930171101347e-01 0.0000000000000000e+00  9.2951149843358767e+00 -2.4172016107727931e-01 0.0000000000000000e+00  9.3089651187377935e+00 -2.3029562946880533e-01 0.0000000000000000e+00  9.3199792247009068e+00 -2.1588174057732223e-01 0.0000000000000000e+00  9.3329707213097564e+00 -2.0806730848901031e-01 0.0000000000000000e+00  9.3429563410091703e+00 -1.9217736123134277e-01 0.0000000000000000e+00  9.3549159403214919e+00 -1.8701944500016923e-01 0.0000000000000000e+00  9.3641470183356077e+00 -1.7308116283844346e-01 0.0000000000000000e+00  9.3749616493243071e+00 -1.6842067159280960e-01 0.0000000000000000e+00  9.3833291820326075e+00 -1.5768406104292723e-01 0.0000000000000000e+00  9.3931173629961542e+00 -1.5230559985361755e-01 0.0000000000000000e+00  9.4006681384637449e+00 -1.4659651471321153e-01 0.0000000000000000e+00  9.4093371232885872e+00 -1.3990683988852023e-01 0.0000000000000000e+00  9.4161143187830234e+00 -1.3842725815478832e-01 0.0000000000000000e+00  9.4237310611854976e+00 -1.2960657276615387e-01 0.0000000000000000e+00  9.4298144955017573e+00 -1.3141952614630467e-01 0.0000000000000000e+00  9.4362475683464169e+00 -1.2036461604699790e-01 0.0000000000000000e+00  9.4417856682438792e+00 -1.2257154992606069e-01 0.0000000000000000e+00  9.4471976203245358e+00 -1.0982583347390611e-01 0.0000000000000000e+00  9.4519921132666553e+00 -1.1969760586505648e-01 0.0000000000000000e+00  9.4564627821300622e+00 -1.1063766891273701e-01 0.0000000000000000e+00  9.4607728060910841e+00 -1.2136472058985757e-01 0.0000000000000000e+00  9.4641241309929942e+00 -1.1346944044559093e-01 0.0000000000000000e+00  9.4680375062619966e+00 -1.2329294407642981e-01 0.0000000000000000e+00  9.4704825770286138e+00 -1.1097955638328963e-01 0.0000000000000000e+00  9.4739226211557419e+00 -1.2126123673244760e-01 0.0000000000000000e+00  9.4754749502540783e+00 -1.0060856878052502e-01 0.0000000000000000e+00  9.4786290724561013e+00 -1.0335582889879925e-01 0.0000000000000000e+00  9.4792721576309589e+00 -9.5778055392106071e-02 0.0000000000000000e+00  9.4820775239018502e+00 -8.5013766756122641e-02 0.0000000000000000e+00  9.4818156535018243e+00 -9.0758298730502535e-02 0.0000000000000000e+00  9.4845150154462434e+00 -6.9384441361094659e-02 0.0000000000000000e+00  9.4832625682712237e+00 -1.0056811777417515e-01 0.0000000000000000e+00  9.4857397604397864e+00 -2.2147579147141154e-02 0.0000000000000000e+00  9.4842138514242897e+00 0.0000000000000000e+00 0.0000000000000000e+00  3.5905489553486936e+00 0.0000000000000000e+00 -8.9436733970995885e-03  3.5907084210354010e+00 4.1349266829590441e-02 -7.0409730653820338e-03  3.5908005305968231e+00 1.0601609935481361e-01 1.3990186007949976e-02  3.5906458950887470e+00 1.4692914774208579e-01 -3.7462294425331822e-03  3.5903761644616772e+00 1.9756040976084091e-01 -1.2513007760868785e-03  3.5905716327641288e+00 2.5002872926190473e-01 4.8521217389186138e-03  3.5904214026052053e+00 2.9352514277511532e-01 -6.1295997921266701e-03  3.5898859660060882e+00 3.4919658758420763e-01 6.6496326686894328e-03  3.5903929812510733e+00 3.9117806856740384e-01 -6.8160777367035534e-03  3.5896973333104558e+00 4.4744810121753081e-01 7.6016566873311295e-03  3.5899211948078880e+00 4.8925244740065504e-01 -8.9299227359663086e-03  3.5893254189349468e+00 5.4652523421226384e-01 1.1422119656383680e-02  3.5899078221538172e+00 5.8546300203563917e-01 -1.4063262051370691e-02  3.5886673867612644e+00 6.4745720906632309e-01 1.6322189877136524e-02  3.5896546325343532e+00 6.8154087799374929e-01 -1.7470445885873351e-02  3.5883488062290252e+00 7.4741153245479686e-01 1.8062924262346385e-02  3.5893034985959891e+00 7.7915170790299482e-01 -1.7891528650435064e-02  3.5877783717039589e+00 8.4548921632948637e-01 1.7101401014671336e-02  3.5890258527835148e+00 8.7952343670953492e-01 -1.5345787360978361e-02  3.5875037408895869e+00 9.4100373480746735e-01 1.2964610746794468e-02  3.5881690195887792e+00 9.8032881066042266e-01 -1.0019373931335722e-02  3.5874147843743716e+00 1.0391494996543624e+00 6.9506970342696492e-03  3.5875731319158022e+00 1.0773648150554944e+00 -4.2418250824712905e-03  3.5867321753375401e+00 1.1384651369315331e+00 2.5128324793020577e-03  3.5871320838649865e+00 1.1782154720443261e+00 -2.2518318474270714e-03  3.5862515046227768e+00 1.2308533387119776e+00 3.0887238542949215e-03  3.5861917205609029e+00 1.2832980190936270e+00 -4.3314305316416958e-03  3.5857657216413878e+00 1.3266041540112568e+00 5.0076248375477859e-03  3.5855868480180577e+00 1.3782826751630965e+00 -4.9968226229399190e-03  3.5845676211522899e+00 1.4314601669849070e+00 4.7046573381914003e-03  3.5852114972736548e+00 1.4728389946673763e+00 -5.0683475588170672e-03  3.5835303309902633e+00 1.5277119002376376e+00 6.2511227300823050e-03  3.5840455184975069e+00 1.5755633844407291e+00 -7.9562134916080982e-03  3.5829757707302803e+00 1.6268114658197652e+00 9.1340599784398256e-03  3.5828475063990588e+00 1.6630805053750735e+00 -9.2513697573044437e-03  3.5814863910482275e+00 1.7408896942219418e+00 8.2208953823790336e-03  3.5824401284746714e+00 1.7514883350567463e+00 -6.7720163970076156e-03  3.5798796463061739e+00 1.8331023974470755e+00 5.7235003239165848e-03  3.5806857688776224e+00 1.8693659833038823e+00 -5.6611794303231778e-03  3.5797207144180208e+00 1.9100305086856442e+00 6.2663606017246539e-03  3.5785223282612479e+00 1.9747015584950711e+00 -7.4169820979569749e-03  3.5777438381514899e+00 2.0193325417900394e+00 8.1345639073078600e-03  3.5786658926400809e+00 2.0512531135673311e+00 -8.2625264909773396e-03  3.5748014842863549e+00 2.1318872981325407e+00 7.8238646582559825e-03  3.5767564769619953e+00 2.1522379087991608e+00 -6.6765054068376748e-03  3.5750460632058592e+00 2.2110042165515811e+00 5.3512127399218123e-03  3.5730746013631745e+00 2.2692502484899517e+00 -4.0283830151897062e-03  3.5735122316598837e+00 2.3031376529174978e+00 3.0911240391412820e-03  3.5728309210926095e+00 2.3554466763149131e+00 -2.9663680570982858e-03  3.5697444039017774e+00 2.4179867137180522e+00 3.3078125300461648e-03  3.5711230580551248e+00 2.4448369382037520e+00 -3.4032154055739254e-03  3.5694321512815415e+00 2.5078617081613843e+00 2.7193174654372835e-03  3.5669326307554616e+00 2.5584172338460927e+00 -1.0653276671852019e-03  3.5681463872959660e+00 2.5938629682428305e+00 -6.1993425982291843e-04  3.5657292442696584e+00 2.6546467396422577e+00 1.6074789565743155e-03  3.5645235607928498e+00 2.7009827843701171e+00 -1.5614475839598246e-03  3.5639077483350730e+00 2.7439831516292235e+00 1.1899535158384625e-03  3.5632835510971770e+00 2.7972771900182076e+00 -1.2759744459803915e-03  3.5601016616403669e+00 2.8493910329565035e+00 2.2025940076158138e-03  3.5617953106262066e+00 2.8865694164417586e+00 -3.5238325907350084e-03  3.5578793438557290e+00 2.9487515943359055e+00 4.5589426361607030e-03  3.5588761936818782e+00 2.9867636187585558e+00 -4.8330132331120424e-03  3.5556493986199875e+00 3.0425219128426986e+00 4.6858320263479932e-03  3.5567069197710612e+00 3.0841851319898943e+00 -4.3694439129610858e-03  3.5527227996082988e+00 3.1420938474162163e+00 4.3020621072644609e-03  3.5544286253719211e+00 3.1791776541308447e+00 -4.1283835483200007e-03  3.5501842031100974e+00 3.2389803015456207e+00 3.7170652282093024e-03  3.5516613864566300e+00 3.2784708179978472e+00 -2.8693955591729435e-03  3.5479198484444590e+00 3.3336384954399847e+00 1.8949061506107559e-03  3.5484846992090286e+00 3.3769606552159175e+00 -1.0580124475395628e-03  3.5458228645788514e+00 3.4302243754034634e+00 5.6500408000535870e-04  3.5454875705259630e+00 3.4739232993377658e+00 -3.5850650589007264e-04  3.5428934976440396e+00 3.5273598864324893e+00 3.3264632391912842e-04  3.5431894321494983e+00 3.5709146068876008e+00 -3.5251050601130761e-04  3.5397948776894483e+00 3.6235594993457760e+00 3.8431989112138636e-04  3.5400895664183629e+00 3.6697265019199423e+00 -2.9869637259832273e-04  3.5375438654369997e+00 3.7175343487609287e+00 -1.8079875400431612e-06  3.5365922544525499e+00 3.7694094092924662e+00 6.4729998109869192e-04  3.5348263765028114e+00 3.8125489176639209e+00 -1.5833513342016555e-03  3.5335128780860932e+00 3.8665527177299608e+00 2.5947858311423143e-03  3.5321655450221421e+00 3.9093735688646150e+00 -3.3817038013829528e-03  3.5295636250558586e+00 3.96338798