<?xml version="1.0"?>
<VTKFile type="UnstructuredGrid"  version="0.1"  >
<UnstructuredGrid>
<Piece  NumberOfPoints="8241" NumberOfCells="16000">
<Points>
<DataArray  type="Float64"  NumberOfComponents="3"  format="ascii">-5 -1 0  -4.95 -1 0  -4.9 -1 0  -4.85 -1 0  -4.8 -1 0  -4.75 -1 0  -4.7 -1 0  -4.65 -1 0  -4.6 -1 0  -4.55 -1 0  -4.5 -1 0  -4.45 -1 0  -4.4 -1 0  -4.35 -1 0  -4.3 -1 0  -4.25 -1 0  -4.2 -1 0  -4.15 -1 0  -4.1 -1 0  -4.05 -1 0  -4 -1 0  -3.95 -1 0  -3.9 -1 0  -3.85 -1 0  -3.8 -1 0  -3.75 -1 0  -3.7 -1 0  -3.65 -1 0  -3.6 -1 0  -3.55 -1 0  -3.5 -1 0  -3.45 -1 0  -3.4 -1 0  -3.35 -1 0  -3.3 -1 0  -3.25 -1 0  -3.2 -1 0  -3.15 -1 0  -3.1 -1 0  -3.05 -1 0  -3 -1 0  -2.95 -1 0  -2.9 -1 0  -2.85 -1 0  -2.8 -1 0  -2.75 -1 0  -2.7 -1 0  -2.65 -1 0  -2.6 -1 0  -2.55 -1 0  -2.5 -1 0  -2.45 -1 0  -2.4 -1 0  -2.35 -1 0  -2.3 -1 0  -2.25 -1 0  -2.2 -1 0  -2.15 -1 0  -2.1 -1 0  -2.05 -1 0  -2 -1 0  -1.95 -1 0  -1.9 -1 0  -1.85 -1 0  -1.8 -1 0  -1.75 -1 0  -1.7 -1 0  -1.65 -1 0  -1.6 -1 0  -1.55 -1 0  -1.5 -1 0  -1.45 -1 0  -1.4 -1 0  -1.35 -1 0  -1.3 -1 0  -1.25 -1 0  -1.2 -1 0  -1.15 -1 0  -1.1 -1 0  -1.05 -1 0  -1 -1 0  -0.9500000000000002 -1 0  -0.9000000000000004 -1 0  -0.8499999999999996 -1 0  -0.7999999999999998 -1 0  -0.75 -1 0  -0.7000000000000002 -1 0  -0.6500000000000004 -1 0  -0.5999999999999996 -1 0  -0.5499999999999998 -1 0  -0.5 -1 0  -0.4500000000000002 -1 0  -0.4000000000000004 -1 0  -0.3499999999999996 -1 0  -0.2999999999999998 -1 0  -0.25 -1 0  -0.2000000000000002 -1 0  -0.1500000000000004 -1 0  -0.09999999999999964 -1 0  -0.04999999999999982 -1 0  0 -1 0  0.04999999999999982 -1 0  0.09999999999999964 -1 0  0.1500000000000004 -1 0  0.2000000000000002 -1 0  0.25 -1 0  0.2999999999999998 -1 0  0.3499999999999996 -1 0  0.4000000000000004 -1 0  0.4500000000000002 -1 0  0.5 -1 0  0.5499999999999998 -1 0  0.5999999999999996 -1 0  0.6500000000000004 -1 0  0.7000000000000002 -1 0  0.75 -1 0  0.7999999999999998 -1 0  0.8499999999999996 -1 0  0.9000000000000004 -1 0  0.9500000000000002 -1 0  1 -1 0  1.05 -1 0  1.1 -1 0  1.15 -1 0  1.2 -1 0  1.25 -1 0  1.3 -1 0  1.35 -1 0  1.4 -1 0  1.45 -1 0  1.5 -1 0  1.55 -1 0  1.6 -1 0  1.65 -1 0  1.7 -1 0  1.75 -1 0  1.8 -1 0  1.85 -1 0  1.9 -1 0  1.95 -1 0  2 -1 0  2.05 -1 0  2.1 -1 0  2.15 -1 0  2.2 -1 0  2.25 -1 0  2.3 -1 0  2.35 -1 0  2.4 -1 0  2.45 -1 0  2.5 -1 0  2.55 -1 0  2.6 -1 0  2.65 -1 0  2.7 -1 0  2.75 -1 0  2.8 -1 0  2.85 -1 0  2.9 -1 0  2.95 -1 0  3 -1 0  3.050000000000001 -1 0  3.1 -1 0  3.15 -1 0  3.199999999999999 -1 0  3.25 -1 0  3.300000000000001 -1 0  3.35 -1 0  3.4 -1 0  3.449999999999999 -1 0  3.5 -1 0  3.550000000000001 -1 0  3.6 -1 0  3.65 -1 0  3.699999999999999 -1 0  3.75 -1 0  3.800000000000001 -1 0  3.85 -1 0  3.9 -1 0  3.949999999999999 -1 0  4 -1 0  4.050000000000001 -1 0  4.1 -1 0  4.15 -1 0  4.199999999999999 -1 0  4.25 -1 0  4.300000000000001 -1 0  4.35 -1 0  4.4 -1 0  4.449999999999999 -1 0  4.5 -1 0  4.550000000000001 -1 0  4.6 -1 0  4.65 -1 0  4.699999999999999 -1 0  4.75 -1 0  4.800000000000001 -1 0  4.85 -1 0  4.9 -1 0  4.949999999999999 -1 0  5 -1 0  -5 -0.95 0  -4.95 -0.95 0  -4.9 -0.95 0  -4.85 -0.95 0  -4.8 -0.95 0  -4.75 -0.95 0  -4.7 -0.95 0  -4.65 -0.95 0  -4.6 -0.95 0  -4.55 -0.95 0  -4.5 -0.95 0  -4.45 -0.95 0  -4.4 -0.95 0  -4.35 -0.95 0  -4.3 -0.95 0  -4.25 -0.95 0  -4.2 -0.95 0  -4.15 -0.95 0  -4.1 -0.95 0  -4.05 -0.95 0  -4 -0.95 0  -3.95 -0.95 0  -3.9 -0.95 0  -3.85 -0.95 0  -3.8 -0.95 0  -3.75 -0.95 0  -3.7 -0.95 0  -3.65 -0.95 0  -3.6 -0.95 0  -3.55 -0.95 0  -3.5 -0.95 0  -3.45 -0.95 0  -3.4 -0.95 0  -3.35 -0.95 0  -3.3 -0.95 0  -3.25 -0.95 0  -3.2 -0.95 0  -3.15 -0.95 0  -3.1 -0.95 0  -3.05 -0.95 0  -3 -0.95 0  -2.95 -0.95 0  -2.9 -0.95 0  -2.85 -0.95 0  -2.8 -0.95 0  -2.75 -0.95 0  -2.7 -0.95 0  -2.65 -0.95 0  -2.6 -0.95 0  -2.55 -0.95 0  -2.5 -0.95 0  -2.45 -0.95 0  -2.4 -0.95 0  -2.35 -0.95 0  -2.3 -0.95 0  -2.25 -0.95 0  -2.2 -0.95 0  -2.15 -0.95 0  -2.1 -0.95 0  -2.05 -0.95 0  -2 -0.95 0  -1.95 -0.95 0  -1.9 -0.95 0  -1.85 -0.95 0  -1.8 -0.95 0  -1.75 -0.95 0  -1.7 -0.95 0  -1.65 -0.95 0  -1.6 -0.95 0  -1.55 -0.95 0  -1.5 -0.95 0  -1.45 -0.95 0  -1.4 -0.95 0  -1.35 -0.95 0  -1.3 -0.95 0  -1.25 -0.95 0  -1.2 -0.95 0  -1.15 -0.95 0  -1.1 -0.95 0  -1.05 -0.95 0  -1 -0.95 0  -0.9500000000000002 -0.95 0  -0.9000000000000004 -0.95 0  -0.8499999999999996 -0.95 0  -0.7999999999999998 -0.95 0  -0.75 -0.95 0  -0.7000000000000002 -0.95 0  -0.6500000000000004 -0.95 0  -0.5999999999999996 -0.95 0  -0.5499999999999998 -0.95 0  -0.5 -0.95 0  -0.4500000000000002 -0.95 0  -0.4000000000000004 -0.95 0  -0.3499999999999996 -0.95 0  -0.2999999999999998 -0.95 0  -0.25 -0.95 0  -0.2000000000000002 -0.95 0  -0.1500000000000004 -0.95 0  -0.09999999999999964 -0.95 0  -0.04999999999999982 -0.95 0  0 -0.95 0  0.04999999999999982 -0.95 0  0.09999999999999964 -0.95 0  0.1500000000000004 -0.95 0  0.2000000000000002 -0.95 0  0.25 -0.95 0  0.2999999999999998 -0.95 0  0.3499999999999996 -0.95 0  0.4000000000000004 -0.95 0  0.4500000000000002 -0.95 0  0.5 -0.95 0  0.5499999999999998 -0.95 0  0.5999999999999996 -0.95 0  0.6500000000000004 -0.95 0  0.7000000000000002 -0.95 0  0.75 -0.95 0  0.7999999999999998 -0.95 0  0.8499999999999996 -0.95 0  0.9000000000000004 -0.95 0  0.9500000000000002 -0.95 0  1 -0.95 0  1.05 -0.95 0  1.1 -0.95 0  1.15 -0.95 0  1.2 -0.95 0  1.25 -0.95 0  1.3 -0.95 0  1.35 -0.95 0  1.4 -0.95 0  1.45 -0.95 0  1.5 -0.95 0  1.55 -0.95 0  1.6 -0.95 0  1.65 -0.95 0  1.7 -0.95 0  1.75 -0.95 0  1.8 -0.95 0  1.85 -0.95 0  1.9 -0.95 0  1.95 -0.95 0  2 -0.95 0  2.05 -0.95 0  2.1 -0.95 0  2.15 -0.95 0  2.2 -0.95 0  2.25 -0.95 0  2.3 -0.95 0  2.35 -0.95 0  2.4 -0.95 0  2.45 -0.95 0  2.5 -0.95 0  2.55 -0.95 0  2.6 -0.95 0  2.65 -0.95 0  2.7 -0.95 0  2.75 -0.95 0  2.8 -0.95 0  2.85 -0.95 0  2.9 -0.95 0  2.95 -0.95 0  3 -0.95 0  3.050000000000001 -0.95 0  3.1 -0.95 0  3.15 -0.95 0  3.199999999999999 -0.95 0  3.25 -0.95 0  3.300000000000001 -0.95 0  3.35 -0.95 0  3.4 -0.95 0  3.449999999999999 -0.95 0  3.5 -0.95 0  3.550000000000001 -0.95 0  3.6 -0.95 0  3.65 -0.95 0  3.699999999999999 -0.95 0  3.75 -0.95 0  3.800000000000001 -0.95 0  3.85 -0.95 0  3.9 -0.95 0  3.949999999999999 -0.95 0  4 -0.95 0  4.050000000000001 -0.95 0  4.1 -0.95 0  4.15 -0.95 0  4.199999999999999 -0.95 0  4.25 -0.95 0  4.300000000000001 -0.95 0  4.35 -0.95 0  4.4 -0.95 0  4.449999999999999 -0.95 0  4.5 -0.95 0  4.550000000000001 -0.95 0  4.6 -0.95 0  4.65 -0.95 0  4.699999999999999 -0.95 0  4.75 -0.95 0  4.800000000000001 -0.95 0  4.85 -0.95 0  4.9 -0.95 0  4.949999999999999 -0.95 0  5 -0.95 0  -5 -0.9 0  -4.95 -0.9 0  -4.9 -0.9 0  -4.85 -0.9 0  -4.8 -0.9 0  -4.75 -0.9 0  -4.7 -0.9 0  -4.65 -0.9 0  -4.6 -0.9 0  -4.55 -0.9 0  -4.5 -0.9 0  -4.45 -0.9 0  -4.4 -0.9 0  -4.35 -0.9 0  -4.3 -0.9 0  -4.25 -0.9 0  -4.2 -0.9 0  -4.15 -0.9 0  -4.1 -0.9 0  -4.05 -0.9 0  -4 -0.9 0  -3.95 -0.9 0  -3.9 -0.9 0  -3.85 -0.9 0  -3.8 -0.9 0  -3.75 -0.9 0  -3.7 -0.9 0  -3.65 -0.9 0  -3.6 -0.9 0  -3.55 -0.9 0  -3.5 -0.9 0  -3.45 -0.9 0  -3.4 -0.9 0  -3.35 -0.9 0  -3.3 -0.9 0  -3.25 -0.9 0  -3.2 -0.9 0  -3.15 -0.9 0  -3.1 -0.9 0  -3.05 -0.9 0  -3 -0.9 0  -2.95 -0.9 0  -2.9 -0.9 0  -2.85 -0.9 0  -2.8 -0.9 0  -2.75 -0.9 0  -2.7 -0.9 0  -2.65 -0.9 0  -2.6 -0.9 0  -2.55 -0.9 0  -2.5 -0.9 0  -2.45 -0.9 0  -2.4 -0.9 0  -2.35 -0.9 0  -2.3 -0.9 0  -2.25 -0.9 0  -2.2 -0.9 0  -2.15 -0.9 0  -2.1 -0.9 0  -2.05 -0.9 0  -2 -0.9 0  -1.95 -0.9 0  -1.9 -0.9 0  -1.85 -0.9 0  -1.8 -0.9 0  -1.75 -0.9 0  -1.7 -0.9 0  -1.65 -0.9 0  -1.6 -0.9 0  -1.55 -0.9 0  -1.5 -0.9 0  -1.45 -0.9 0  -1.4 -0.9 0  -1.35 -0.9 0  -1.3 -0.9 0  -1.25 -0.9 0  -1.2 -0.9 0  -1.15 -0.9 0  -1.1 -0.9 0  -1.05 -0.9 0  -1 -0.9 0  -0.9500000000000002 -0.9 0  -0.9000000000000004 -0.9 0  -0.8499999999999996 -0.9 0  -0.7999999999999998 -0.9 0  -0.75 -0.9 0  -0.7000000000000002 -0.9 0  -0.6500000000000004 -0.9 0  -0.5999999999999996 -0.9 0  -0.5499999999999998 -0.9 0  -0.5 -0.9 0  -0.4500000000000002 -0.9 0  -0.4000000000000004 -0.9 0  -0.3499999999999996 -0.9 0  -0.2999999999999998 -0.9 0  -0.25 -0.9 0  -0.2000000000000002 -0.9 0  -0.1500000000000004 -0.9 0  -0.09999999999999964 -0.9 0  -0.04999999999999982 -0.9 0  0 -0.9 0  0.04999999999999982 -0.9 0  0.09999999999999964 -0.9 0  0.1500000000000004 -0.9 0  0.2000000000000002 -0.9 0  0.25 -0.9 0  0.2999999999999998 -0.9 0  0.3499999999999996 -0.9 0  0.4000000000000004 -0.9 0  0.4500000000000002 -0.9 0  0.5 -0.9 0  0.5499999999999998 -0.9 0  0.5999999999999996 -0.9 0  0.6500000000000004 -0.9 0  0.7000000000000002 -0.9 0  0.75 -0.9 0  0.7999999999999998 -0.9 0  0.8499999999999996 -0.9 0  0.9000000000000004 -0.9 0  0.9500000000000002 -0.9 0  1 -0.9 0  1.05 -0.9 0  1.1 -0.9 0  1.15 -0.9 0  1.2 -0.9 0  1.25 -0.9 0  1.3 -0.9 0  1.35 -0.9 0  1.4 -0.9 0  1.45 -0.9 0  1.5 -0.9 0  1.55 -0.9 0  1.6 -0.9 0  1.65 -0.9 0  1.7 -0.9 0  1.75 -0.9 0  1.8 -0.9 0  1.85 -0.9 0  1.9 -0.9 0  1.95 -0.9 0  2 -0.9 0  2.05 -0.9 0  2.1 -0.9 0  2.15 -0.9 0  2.2 -0.9 0  2.25 -0.9 0  2.3 -0.9 0  2.35 -0.9 0  2.4 -0.9 0  2.45 -0.9 0  2.5 -0.9 0  2.55 -0.9 0  2.6 -0.9 0  2.65 -0.9 0  2.7 -0.9 0  2.75 -0.9 0  2.8 -0.9 0  2.85 -0.9 0  2.9 -0.9 0  2.95 -0.9 0  3 -0.9 0  3.050000000000001 -0.9 0  3.1 -0.9 0  3.15 -0.9 0  3.199999999999999 -0.9 0  3.25 -0.9 0  3.300000000000001 -0.9 0  3.35 -0.9 0  3.4 -0.9 0  3.449999999999999 -0.9 0  3.5 -0.9 0  3.550000000000001 -0.9 0  3.6 -0.9 0  3.65 -0.9 0  3.699999999999999 -0.9 0  3.75 -0.9 0  3.800000000000001 -0.9 0  3.85 -0.9 0  3.9 -0.9 0  3.949999999999999 -0.9 0  4 -0.9 0  4.050000000000001 -0.9 0  4.1 -0.9 0  4.15 -0.9 0  4.199999999999999 -0.9 0  4.25 -0.9 0  4.300000000000001 -0.9 0  4.35 -0.9 0  4.4 -0.9 0  4.449999999999999 -0.9 0  4.5 -0.9 0  4.550000000000001 -0.9 0  4.6 -0.9 0  4.65 -0.9 0  4.699999999999999 -0.9 0  4.75 -0.9 0  4.800000000000001 -0.9 0  4.85 -0.9 0  4.9 -0.9 0  4.949999999999999 -0.9 0  5 -0.9 0  -5 -0.85 0  -4.95 -0.85 0  -4.9 -0.85 0  -4.85 -0.85 0  -4.8 -0.85 0  -4.75 -0.85 0  -4.7 -0.85 0  -4.65 -0.85 0  -4.6 -0.85 0  -4.55 -0.85 0  -4.5 -0.85 0  -
[...]
<PointData  Vectors="f_15"> 
<DataArray  type="Float64"  Name="f_15"  NumberOfComponents="3" format="ascii">2.3818880406250624e+00 0.0000000000000000e+00 0.0000000000000000e+00  2.3856631125518324e+00 4.6790260042357416e-02 0.0000000000000000e+00  2.3824260742228791e+00 7.5290549745670565e-02 0.0000000000000000e+00  2.3855409773508023e+00 9.4247594700182721e-02 0.0000000000000000e+00  2.3820586446416514e+00 1.3250892478292534e-01 0.0000000000000000e+00  2.3862271989034038e+00 1.7388894484366013e-01 0.0000000000000000e+00  2.3817580586599072e+00 1.8264984246670388e-01 0.0000000000000000e+00  2.3859706255059092e+00 2.5591632107883544e-01 0.0000000000000000e+00  2.3823962074442493e+00 2.4683821420262581e-01 0.0000000000000000e+00  2.3853896973420108e+00 3.0198810025932504e-01 0.0000000000000000e+00  2.3828911833589901e+00 3.5235817466209080e-01 0.0000000000000000e+00  2.3847940947503523e+00 3.3631819894076148e-01 0.0000000000000000e+00  2.3834651512826555e+00 4.1862410499260183e-01 0.0000000000000000e+00  2.3842250478083060e+00 4.4487077880555981e-01 0.0000000000000000e+00  2.3837208373436871e+00 4.2815968727862735e-01 0.0000000000000000e+00  2.3839356729664236e+00 5.4442949731602830e-01 0.0000000000000000e+00  2.3841810534936112e+00 5.0798934671452300e-01 0.0000000000000000e+00  2.3828804387083351e+00 5.6807513253178277e-01 0.0000000000000000e+00  2.3851030788873211e+00 6.1413399232653065e-01 0.0000000000000000e+00  2.3822805263912685e+00 6.2299662273838607e-01 0.0000000000000000e+00  2.3849170676506870e+00 6.7305603045487483e-01 0.0000000000000000e+00  2.3821488174220087e+00 6.9310388282899471e-01 0.0000000000000000e+00  2.3854291181864866e+00 7.5146024038748405e-01 0.0000000000000000e+00  2.3808936610559677e+00 7.4399737150678658e-01 0.0000000000000000e+00  2.3858300721068910e+00 8.1917825238745090e-01 0.0000000000000000e+00  2.3812481866661921e+00 8.2566693520639789e-01 0.0000000000000000e+00  2.3845805064335459e+00 8.6822794767779443e-01 0.0000000000000000e+00  2.3813448263930455e+00 8.9997329753756261e-01 0.0000000000000000e+00  2.3852395935288291e+00 9.3830286164731502e-01 0.0000000000000000e+00  2.3799198771048138e+00 9.6216943835190061e-01 0.0000000000000000e+00  2.3850540001943821e+00 1.0044266492952183e+00 0.0000000000000000e+00  2.3809105924076448e+00 1.0337630675128147e+00 0.0000000000000000e+00  2.3834023544028127e+00 1.0660594072564660e+00 0.0000000000000000e+00  2.3807626600969996e+00 1.1022634725692826e+00 0.0000000000000000e+00  2.3841696197529774e+00 1.1332849105205443e+00 0.0000000000000000e+00  2.3796413111658730e+00 1.1680403042544547e+00 0.0000000000000000e+00  2.3835892766557181e+00 1.1976157198716995e+00 0.0000000000000000e+00  2.3806567755403321e+00 1.2395013645112993e+00 0.0000000000000000e+00  2.3828256861937636e+00 1.2588244120540046e+00 0.0000000000000000e+00  2.3801813322015231e+00 1.3063730963136333e+00 0.0000000000000000e+00  2.3839076245734256e+00 1.3282233583802949e+00 0.0000000000000000e+00  2.3798439692449351e+00 1.3679586357097815e+00 0.0000000000000000e+00  2.3838456608198553e+00 1.3965316420292437e+00 0.0000000000000000e+00  2.3798927185484460e+00 1.4327390598888747e+00 0.0000000000000000e+00  2.3844479110600201e+00 1.4664393545924037e+00 0.0000000000000000e+00  2.3769395985667332e+00 1.4938814811997791e+00 0.0000000000000000e+00  2.3850791814263417e+00 1.5437206632750791e+00 0.0000000000000000e+00  2.3644359149885177e+00 1.5678457104925565e+00 0.0000000000000000e+00  2.4970980205139477e+00 1.4062198263924972e+00 0.0000000000000000e+00  3.2515914869525400e+00 -1.4593077371278138e-01 0.0000000000000000e+00  4.3410048535397365e+00 -2.0635238943833913e+00 0.0000000000000000e+00  5.1231680513260791e+00 -3.2220215013993196e+00 0.0000000000000000e+00  5.5408045625203508e+00 -3.7452850515352596e+00 0.0000000000000000e+00  5.7261649809235404e+00 -3.9724438061309102e+00 0.0000000000000000e+00  5.8243081227305460e+00 -4.0452817700437400e+00 0.0000000000000000e+00  5.8671140997749420e+00 -4.0770810415819447e+00 0.0000000000000000e+00  5.9039696501051031e+00 -4.0685688006990466e+00 0.0000000000000000e+00  5.9194402790312042e+00 -4.0621962368207258e+00 0.0000000000000000e+00  5.9436780921819636e+00 -4.0386888640506653e+00 0.0000000000000000e+00  5.9553418389620560e+00 -4.0241133448264321e+00 0.0000000000000000e+00  5.9767685284109993e+00 -4.0001632738304060e+00 0.0000000000000000e+00  5.9880614019282730e+00 -3.9828690314066635e+00 0.0000000000000000e+00  6.0088878017474938e+00 -3.9594527184134782e+00 0.0000000000000000e+00  6.0210102876532838e+00 -3.9416375787380535e+00 0.0000000000000000e+00  6.0402901804393476e+00 -3.9188760496933246e+00 0.0000000000000000e+00  6.0535682159816240e+00 -3.9009053593169671e+00 0.0000000000000000e+00  6.0725370309661724e+00 -3.8781535654244905e+00 0.0000000000000000e+00  6.0859878725980474e+00 -3.8600292865527224e+00 0.0000000000000000e+00  6.1042884713456678e+00 -3.8382646731381214e+00 0.0000000000000000e+00  6.1188378455796473e+00 -3.8187404163055065e+00 0.0000000000000000e+00  6.1361966473396334e+00 -3.7981677960466453e+00 0.0000000000000000e+00  6.1512106536747240e+00 -3.7772633119234191e+00 0.0000000000000000e+00  6.1686387944553411e+00 -3.7576394167128790e+00 0.0000000000000000e+00  6.1834663283719804e+00 -3.7353218554801977e+00 0.0000000000000000e+00  6.2006697352624691e+00 -3.7166563944213684e+00 0.0000000000000000e+00  6.2161726726540945e+00 -3.6929130823449352e+00 0.0000000000000000e+00  6.2327673053739847e+00 -3.6749137879415343e+00 0.0000000000000000e+00  6.2482576160394201e+00 -3.6502198179360601e+00 0.0000000000000000e+00  6.2653467758012003e+00 -3.6328181739108238e+00 0.0000000000000000e+00  6.2802964045583440e+00 -3.6071570621915243e+00 0.0000000000000000e+00  6.2974310236775288e+00 -3.5900396032535014e+00 0.0000000000000000e+00  6.3126529118316252e+00 -3.5648771895998306e+00 0.0000000000000000e+00  6.3295043065212857e+00 -3.5463173131205776e+00 0.0000000000000000e+00  6.3444386426809602e+00 -3.5228413149939373e+00 0.0000000000000000e+00  6.3618777258490189e+00 -3.5031545920013745e+00 0.0000000000000000e+00  6.3761538450009931e+00 -3.4802514461401213e+00 0.0000000000000000e+00  6.3936956321276632e+00 -3.4601199368391575e+00 0.0000000000000000e+00  6.4080786006080821e+00 -3.4383234285977800e+00 0.0000000000000000e+00  6.4253815121779851e+00 -3.4165551346566465e+00 0.0000000000000000e+00  6.4394711827732172e+00 -3.3961649709648398e+00 0.0000000000000000e+00  6.4571536887505712e+00 -3.3740160963333854e+00 0.0000000000000000e+00  6.4707271144236653e+00 -3.3526931020459103e+00 0.0000000000000000e+00  6.4883171318019990e+00 -3.3318843683545252e+00 0.0000000000000000e+00  6.5020472852248705e+00 -3.3093961042234477e+00 0.0000000000000000e+00  6.5191972174156039e+00 -3.2887925031440872e+00 0.0000000000000000e+00  6.5328157108931517e+00 -3.2661090783924283e+00 0.0000000000000000e+00  6.5499783921767643e+00 -3.2459442405567143e+00 0.0000000000000000e+00  6.5632846099518014e+00 -3.2213030479718574e+00 0.0000000000000000e+00  6.5801041968750393e+00 -3.2036910744225087e+00 0.0000000000000000e+00  6.5936541339642130e+00 -3.1759692477236130e+00 0.0000000000000000e+00  6.6097339380586257e+00 -3.1599704126519952e+00 0.0000000000000000e+00  6.6234233752329965e+00 -3.1318261455598058e+00 0.0000000000000000e+00  6.6391212064564691e+00 -3.1142295009048624e+00 0.0000000000000000e+00  6.6526215350354168e+00 -3.0877973301915391e+00 0.0000000000000000e+00  6.6678416474389923e+00 -3.0681843204105923e+00 0.0000000000000000e+00  6.6815444517803240e+00 -3.0424843089319800e+00 0.0000000000000000e+00  6.6958312573015304e+00 -3.0219789591701836e+00 0.0000000000000000e+00  6.7097912712674255e+00 -2.9965684777749924e+00 0.0000000000000000e+00  6.7234818287909590e+00 -2.9746791132113088e+00 0.0000000000000000e+00  6.7371791749296710e+00 -2.9503552108381874e+00 0.0000000000000000e+00  6.7504302196607187e+00 -2.9263800155177275e+00 0.0000000000000000e+00  6.7641637472577543e+00 -2.9034794540144913e+00 0.0000000000000000e+00  6.7764404086839729e+00 -2.8771402020055432e+00 0.0000000000000000e+00  6.7903606958641767e+00 -2.8558421021984435e+00 0.0000000000000000e+00  6.8020539816992995e+00 -2.8270820271339492e+00 0.0000000000000000e+00  6.8154983633467259e+00 -2.8068368129841130e+00 0.0000000000000000e+00  6.8268579630696848e+00 -2.7767895568439416e+00 0.0000000000000000e+00  6.8401798530548108e+00 -2.7559799261623126e+00 0.0000000000000000e+00  6.8505881569371976e+00 -2.7262347078351699e+00 0.0000000000000000e+00  6.8639545284191401e+00 -2.7036860807314587e+00 0.0000000000000000e+00  6.8738756572240209e+00 -2.6749835403402846e+00 0.0000000000000000e+00  6.8866052002223652e+00 -2.6499357091685471e+00 0.0000000000000000e+00  6.8962271457612703e+00 -2.6228311253471066e+00 0.0000000000000000e+00  6.9087648626667919e+00 -2.5949369108662173e+00 0.0000000000000000e+00  6.9174873914250066e+00 -2.5689523869468784e+00 0.0000000000000000e+00  6.9299219050452914e+00 -2.5396031008809898e+00 0.0000000000000000e+00  6.9382466922153014e+00 -2.5136844715109623e+00 0.0000000000000000e+00  6.9500052898707008e+00 -2.4835831612542347e+00 0.0000000000000000e+00  6.9579898502781488e+00 -2.4579816007942203e+00 0.0000000000000000e+00  6.9695319917233869e+00 -2.4264918160973217e+00 0.0000000000000000e+00  6.9767452312057330e+00 -2.4012973327522267e+00 0.0000000000000000e+00  6.9880016699173106e+00 -2.3682126109898030e+00 0.0000000000000000e+00  6.9949259772276822e+00 -2.3429754580781310e+00 0.0000000000000000e+00  7.0055542504432076e+00 -2.3090041947472386e+00 0.0000000000000000e+00  7.0120568247612791e+00 -2.2833630007215895e+00 0.0000000000000000e+00  7.0224562116892990e+00 -2.2486519626551873e+00 0.0000000000000000e+00  7.0284143101261751e+00 -2.2235037432728721e+00 0.0000000000000000e+00  7.0382696467541264e+00 -2.1872937382351978e+00 0.0000000000000000e+00  7.0440821495990438e+00 -2.1623385428236706e+00 0.0000000000000000e+00  7.0534490937625138e+00 -2.1266625811561433e+00 0.0000000000000000e+00  7.0586593054854507e+00 -2.0993405867689980e+00 0.0000000000000000e+00  7.0678456966523679e+00 -2.0658890311605509e+00 0.0000000000000000e+00  7.0728346082508029e+00 -2.0361422076632949e+00 0.0000000000000000e+00  7.0810569884752947e+00 -2.0034567827974015e+00 0.0000000000000000e+00  7.0862352840516083e+00 -1.9727396470067233e+00 0.0000000000000000e+00  7.0940135363215138e+00 -1.9401636819648924e+00 0.0000000000000000e+00  7.0984462939293564e+00 -1.9083726486033252e+00 0.0000000000000000e+00  7.1061235036549801e+00 -1.8755418094224556e+00 0.0000000000000000e+00  7.1106153536915553e+00 -1.8443715922724693e+00 0.0000000000000000e+00  7.1170146671067043e+00 -1.8093013447602531e+00 0.0000000000000000e+00  7.1218579242661244e+00 -1.7797172618237278e+00 0.0000000000000000e+00  7.1281074795140391e+00 -1.7438843716205223e+00 0.0000000000000000e+00  7.1318121220624500e+00 -1.7133988691595206e+00 0.0000000000000000e+00  7.1382503960655477e+00 -1.6783299007950407e+00 0.0000000000000000e+00  7.1421396437888349e+00 -1.6477556775485080e+00 0.0000000000000000e+00  7.1471189766908845e+00 -1.6116947932900412e+00 0.0000000000000000e+00  7.1514149039533805e+00 -1.5811142852581244e+00 0.0000000000000000e+00  7.1566094289214162e+00 -1.5464771225042595e+00 0.0000000000000000e+00  7.1593335242452287e+00 -1.5117567657216469e+00 0.0000000000000000e+00  7.1650774262466950e+00 -1.4815583938597665e+00 0.0000000000000000e+00  7.1679626611951761e+00 -1.4429645387870447e+00 0.0000000000000000e+00  7.1722613849477108e+00 -1.4146402258769799e+00 0.0000000000000000e+00  7.1754478351869730e+00 -1.3740896482867440e+00 0.0000000000000000e+00  7.1804015473573468e+00 -1.3478139177462509e+00 0.0000000000000000e+00  7.1815258612904076e+00 -1.3057371261766364e+00 0.0000000000000000e+00  7.1875172014982889e+00 -1.2790972420455791e+00 0.0000000000000000e+00  7.1885386444263357e+00 -1.2407527535374494e+00 0.0000000000000000e+00  7.1933326888103295e+00 -1.2089688944306189e+00 0.0000000000000000e+00  7.1944753065533984e+00 -1.1758546203237326e+00 0.0000000000000000e+00  7.2001875025284701e+00 -1.1403998168007710e+00 0.0000000000000000e+00  7.1990805803949058e+00 -1.1103958727435426e+00 0.0000000000000000e+00  7.2060513860723816e+00 -1.0732202706334739e+00 0.0000000000000000e+00  7.2047074127923159e+00 -1.0443156057674818e+00 0.0000000000000000e+00  7.2105775356280111e+00 -1.0064813248977709e+00 0.0000000000000000e+00  7.2094595506925048e+00 -9.7638028541209132e-01 0.0000000000000000e+00  7.2160353492071643e+00 -9.4111607486789017e-01 0.0000000000000000e+00  7.2128920920755792e+00 -9.0525270015011650e-01 0.0000000000000000e+00  7.2206964494184582e+00 -8.7633142557696986e-01 0.0000000000000000e+00  7.2171891726536321e+00 -8.3227053241666604e-01 0.0000000000000000e+00  7.2239877970185713e+00 -8.1059542357856695e-01 0.0000000000000000e+00  7.2208341312135227e+00 -7.6196831159953271e-01 0.0000000000000000e+00  7.2280242479920487e+00 -7.4629063163362497e-01 0.0000000000000000e+00  7.2230971082724889e+00 -6.9849704136811175e-01 0.0000000000000000e+00  7.2315832722365236e+00 -6.8234225956160788e-01 0.0000000000000000e+00  7.2260622171358735e+00 -6.3633818632720696e-01 0.0000000000000000e+00  7.2337799855783063e+00 -6.1413389715243272e-01 0.0000000000000000e+00  7.2288016228631777e+00 -5.6926979312994530e-01 0.0000000000000000e+00  7.2365236313654169e+00 -5.4411416371834831e-01 0.0000000000000000e+00  7.2302075115985165e+00 -4.9987909405942099e-01 0.0000000000000000e+00  7.2390763995830527e+00 -4.6975643529356487e-01 0.0000000000000000e+00  7.2321454643429908e+00 -4.1736192977433706e-01 0.0000000000000000e+00  7.2402173831893615e+00 -3.9186680063670337e-01 0.0000000000000000e+00  7.2340090891196400e+00 -3.4648307522724731e-01 0.0000000000000000e+00  7.2417030642685924e+00 -3.0945633795087107e-01 0.0000000000000000e+00  7.2344924971345037e+00 -2.7395537145481097e-01 0.0000000000000000e+00  7.2432355314614574e+00 -2.2903743613910668e-01 0.0000000000000000e+00  7.2351986837333735e+00 -2.0571073501651466e-01 0.0000000000000000e+00  7.2432662368149394e+00 -1.5316325229425620e-01 0.0000000000000000e+00  7.2362628158470459e+00 -1.4108894970536759e-01 0.0000000000000000e+00  7.2436847027687667e+00 -4.2094161971948776e-02 0.0000000000000000e+00  7.2361744953900295e+00 0.0000000000000000e+00 0.0000000000000000e+00  2.3846104162029089e+00 0.0000000000000000e+00 -2.7619948284895580e-03  2.3850680987382549e+00 2.6325892203366345e-02 -3.7101432284341149e-03  2.3843147415127071e+00 6.6535473332945433e-02 -7.9474082113463410e-03  2.3844717242790852e+00 1.0749095132565904e-01 2.7532131827532738e-02  2.3848356232272674e+00 1.2377367391551862e-01 -2.8525453064066158e-02  2.3841060149393503e+00 1.7585870248121332e-01 2.5301563094585266e-02  2.3843483263909211e+00 1.9098000961283282e-01 -1.5447131348218079e-02  2.3847660419719743e+00 2.4339249609953273e-01 -3.9892248790882965e-03  2.3834987292266847e+00 2.6060222976309261e-01 2.7339057730117220e-02  2.3849567565436067e+00 3.0172004707862327e-01 -4.2363045306414798e-02  2.3833405518423225e+00 3.4036303207970903e-01 4.1398524501625060e-02  2.3846702789797689e+00 3.4897338481756962e-01 -2.6429025312691867e-02  2.3835284284342819e+00 4.2912270578405376e-01 7.6918914953867448e-03  2.3839787500204457e+00 3.9930065324990416e-01 4.8587688086324963e-03  2.3839091466061135e+00 4.9037369743705078e-01 -9.1631829360900464e-03  2.3835750064226389e+00 4.9985818030435220e-01 8.6621697229693050e-03  2.3835068489509887e+00 5.1079063854069151e-01 -7.2981910870516861e-03  2.3837638644760375e+00 5.9488110982189846e-01 6.2611026077530399e-03  2.3833152042887651e+00 5.8286075040991281e-01 -5.6748625878938188e-03  2.3831555384278853e+00 6.3409263058687770e-01 4.5395771613530285e-03  2.3834952138141889e+00 6.7010709710339145e-01 -3.4377965230286307e-03  2.3832129887418252e+00 7.0367639880169819e-01 3.1741958019765324e-03  2.3825232326184969e+00 7.2138683120837654e-01 -2.3309623383087428e-03  2.3835305358931191e+00 7.7473570383406964e-01 3.8382487759322346e-04  2.3826617505661458e+00 8.0279582191475962e-01 3.7398588080941671e-03  2.3825511127114378e+00 8.2112633864200946e-01 -7.4645956385225786e-03  2.3826607512648326e+00 8.7811759443216619e-01 8.7968327645831217e-03  2.3831867401588713e+00 8.9405156376054651e-01 -7.4367522743203802e-03  2.3813366059155938e+00 9.3405704109907040e-01 4.5382038110253703e-03  2.3831065976540682e+00 9.6566928731975032e-01 -2.5538351407473183e-03  2.3822873358449446e+00 1.0026069620264473e+00 1.6713428850044388e-03  2.3815549669815859e+00 1.0295462058708453e+00 -1.2712780927889961e-03  2.3822238626778818e+00 1.0690895593325802e+00 6.9177513326590184e-04  2.3824057951218642e+00 1.0996672047829466e+00 2.8228347482422859e-05  2.3809632293582919e+00 1.1325948624391791e+00 -7.4103767136154649e-04  2.3818709355935783e+00 1.1673569787663274e+00 1.2640627615076372e-03  2.3818969001888792e+00 1.2015011838341436e+00 -1.9471981786030495e-03  2.3805769806571138e+00 1.2320230988697236e+00 2.1481742044707876e-03  2.3811657178025838e+00 1.2681277216512390e+00 -2.6090613547762936e-03  2.3808952563259229e+00 1.3030705900630886e+00 2.6599466817812324e-03  2.3802019505076837e+00 1.3310714295619259e+00 -3.7521491033616966e-03  2.3795026798126990e+00 1.3719402634713911e+00 3.8289295808466486e-03  2.3802972908309004e+00 1.3995581666425385e+00 -4.7784597043177817e-03  2.3785248322586647e+00 1.4381317798660884e+00 4.2659861076812843e-03  2.3794470522591600e+00 1.4656736361312224e+00 -4.7385761422369657e-03  2.3785275377411681e+00 1.5056841394433940e+00 4.8382138420829642e-03  2.3808404079636674e+00 1.5324010727501765e+00 -3.7679115366964148e-03  2.3787956898007647e+00 1.5630974434959271e+00 4.2614823976818445e-03  2.4996349852000703e+00 1.3756785392324016e+00 -1.2634067623664230e-02  3.2221635654052982e+00 -6.4194665945551913e-02 2.6254809457853408e-02  4.3692230676924915e+00 -2.0796967251492102e+00 3.0065824138232750e-03  5.1437207370228641e+00 -3.2242611392753626e+00 -1.0400544185541340e-02  5.5329934030632169e+00 -3.7317910447295284e+00 -2.5778882108783963e-03  5.7262107459725273e+00 -3.9476859771170041e+00 1.2310214352174661e-03  5.8246899493945339e+00 -4.0309915152325058e+00 3.9587796880737195e-03  5.8740490216567025e+00 -4.0588953588151648e+00 -1.0865075972137093e-03  5.9056173895531456e+00 -4.0520819587511046e+00 3.1004639559264560e-03  5.9254749491463654e+00 -4.0427384382436369e+00 -2.4820656863041831e-03  5.9457406127881161e+00 -4.0210508921479855e+00 2.7051488744684127e-03  5.9608658415931615e+00 -4.0061549802243110e+00 -2.6131172671778067e-03  5.9789119278544263e+00 -3.9814686595073763e+00 2.4930839250260463e-03  5.9935921557463843e+00 -3.9652407931501052e+00 -2.5732828455224091e-03  6.0114698483940359e+00 -3.9407342789514348e+00 2.5441868461326652e-03  6.0254339951147156e+00 -3.9238372388194831e+00 -2.5381442109860645e-03  6.0437055782672244e+00 -3.8993027651302747e+00 2.5455493960390633e-03  6.0581403662035989e+00 -3.8818219206455380e+00 -2.3767227936607595e-03  6.0756120964015450e+00 -3.8574857205697008e+00 2.4335653664896689e-03  6.0903194464202581e+00 -3.8401106320737370e+00 -2.1800998375850139e-03  6.1081595136200191e+00 -3.8152654871880958e+00 2.3102055272935882e-03  6.1225838057041297e+00 -3.7980658629653652e+00 -2.0954837431798085e-03  6.1402454982244832e+00 -3.7734712656262630e+00 2.1789299768387020e-03  6.1552908113670401e+00 -3.7561104338576068e+00 -2.0285214654863146e-03  6.1723458145435615e+00 -3.7318744638901800e+00 1.9743495267791362e-03  6.1875815083232437e+00 -3.7145417470915429e+00 -2.0058228955837885e-03  6.2049826435617907e+00 -3.6906400768032053e+00 1.8478301879669399e-03  6.2198310331175941e+00 -3.6732688062738528e+00 -2.0890242222422850e-03  6.2371161094343650e+00 -3.6498878988877790e+00 1.8095707759819850e-03  6.2525541315967930e+00 -3.6324940951920119e+00 -2.1914875793812485e-03  6.2693099820662033e+00 -3.6091411800707371e+00 1.8242262396516750e-03  6.2847381486427185e+00 -3.5918882155433223e+00 -2.3070496961359824e-03  