<?xml version="1.0"?>
<VTKFile type="UnstructuredGrid"  version="0.1"  >
<UnstructuredGrid>
<Piece  NumberOfPoints="8241" NumberOfCells="16000">
<Points>
<DataArray  type="Float64"  NumberOfComponents="3"  format="ascii">-5 -1 0  -4.95 -1 0  -4.9 -1 0  -4.85 -1 0  -4.8 -1 0  -4.75 -1 0  -4.7 -1 0  -4.65 -1 0  -4.6 -1 0  -4.55 -1 0  -4.5 -1 0  -4.45 -1 0  -4.4 -1 0  -4.35 -1 0  -4.3 -1 0  -4.25 -1 0  -4.2 -1 0  -4.15 -1 0  -4.1 -1 0  -4.05 -1 0  -4 -1 0  -3.95 -1 0  -3.9 -1 0  -3.85 -1 0  -3.8 -1 0  -3.75 -1 0  -3.7 -1 0  -3.65 -1 0  -3.6 -1 0  -3.55 -1 0  -3.5 -1 0  -3.45 -1 0  -3.4 -1 0  -3.35 -1 0  -3.3 -1 0  -3.25 -1 0  -3.2 -1 0  -3.15 -1 0  -3.1 -1 0  -3.05 -1 0  -3 -1 0  -2.95 -1 0  -2.9 -1 0  -2.85 -1 0  -2.8 -1 0  -2.75 -1 0  -2.7 -1 0  -2.65 -1 0  -2.6 -1 0  -2.55 -1 0  -2.5 -1 0  -2.45 -1 0  -2.4 -1 0  -2.35 -1 0  -2.3 -1 0  -2.25 -1 0  -2.2 -1 0  -2.15 -1 0  -2.1 -1 0  -2.05 -1 0  -2 -1 0  -1.95 -1 0  -1.9 -1 0  -1.85 -1 0  -1.8 -1 0  -1.75 -1 0  -1.7 -1 0  -1.65 -1 0  -1.6 -1 0  -1.55 -1 0  -1.5 -1 0  -1.45 -1 0  -1.4 -1 0  -1.35 -1 0  -1.3 -1 0  -1.25 -1 0  -1.2 -1 0  -1.15 -1 0  -1.1 -1 0  -1.05 -1 0  -1 -1 0  -0.9500000000000002 -1 0  -0.9000000000000004 -1 0  -0.8499999999999996 -1 0  -0.7999999999999998 -1 0  -0.75 -1 0  -0.7000000000000002 -1 0  -0.6500000000000004 -1 0  -0.5999999999999996 -1 0  -0.5499999999999998 -1 0  -0.5 -1 0  -0.4500000000000002 -1 0  -0.4000000000000004 -1 0  -0.3499999999999996 -1 0  -0.2999999999999998 -1 0  -0.25 -1 0  -0.2000000000000002 -1 0  -0.1500000000000004 -1 0  -0.09999999999999964 -1 0  -0.04999999999999982 -1 0  0 -1 0  0.04999999999999982 -1 0  0.09999999999999964 -1 0  0.1500000000000004 -1 0  0.2000000000000002 -1 0  0.25 -1 0  0.2999999999999998 -1 0  0.3499999999999996 -1 0  0.4000000000000004 -1 0  0.4500000000000002 -1 0  0.5 -1 0  0.5499999999999998 -1 0  0.5999999999999996 -1 0  0.6500000000000004 -1 0  0.7000000000000002 -1 0  0.75 -1 0  0.7999999999999998 -1 0  0.8499999999999996 -1 0  0.9000000000000004 -1 0  0.9500000000000002 -1 0  1 -1 0  1.05 -1 0  1.1 -1 0  1.15 -1 0  1.2 -1 0  1.25 -1 0  1.3 -1 0  1.35 -1 0  1.4 -1 0  1.45 -1 0  1.5 -1 0  1.55 -1 0  1.6 -1 0  1.65 -1 0  1.7 -1 0  1.75 -1 0  1.8 -1 0  1.85 -1 0  1.9 -1 0  1.95 -1 0  2 -1 0  2.05 -1 0  2.1 -1 0  2.15 -1 0  2.2 -1 0  2.25 -1 0  2.3 -1 0  2.35 -1 0  2.4 -1 0  2.45 -1 0  2.5 -1 0  2.55 -1 0  2.6 -1 0  2.65 -1 0  2.7 -1 0  2.75 -1 0  2.8 -1 0  2.85 -1 0  2.9 -1 0  2.95 -1 0  3 -1 0  3.050000000000001 -1 0  3.1 -1 0  3.15 -1 0  3.199999999999999 -1 0  3.25 -1 0  3.300000000000001 -1 0  3.35 -1 0  3.4 -1 0  3.449999999999999 -1 0  3.5 -1 0  3.550000000000001 -1 0  3.6 -1 0  3.65 -1 0  3.699999999999999 -1 0  3.75 -1 0  3.800000000000001 -1 0  3.85 -1 0  3.9 -1 0  3.949999999999999 -1 0  4 -1 0  4.050000000000001 -1 0  4.1 -1 0  4.15 -1 0  4.199999999999999 -1 0  4.25 -1 0  4.300000000000001 -1 0  4.35 -1 0  4.4 -1 0  4.449999999999999 -1 0  4.5 -1 0  4.550000000000001 -1 0  4.6 -1 0  4.65 -1 0  4.699999999999999 -1 0  4.75 -1 0  4.800000000000001 -1 0  4.85 -1 0  4.9 -1 0  4.949999999999999 -1 0  5 -1 0  -5 -0.95 0  -4.95 -0.95 0  -4.9 -0.95 0  -4.85 -0.95 0  -4.8 -0.95 0  -4.75 -0.95 0  -4.7 -0.95 0  -4.65 -0.95 0  -4.6 -0.95 0  -4.55 -0.95 0  -4.5 -0.95 0  -4.45 -0.95 0  -4.4 -0.95 0  -4.35 -0.95 0  -4.3 -0.95 0  -4.25 -0.95 0  -4.2 -0.95 0  -4.15 -0.95 0  -4.1 -0.95 0  -4.05 -0.95 0  -4 -0.95 0  -3.95 -0.95 0  -3.9 -0.95 0  -3.85 -0.95 0  -3.8 -0.95 0  -3.75 -0.95 0  -3.7 -0.95 0  -3.65 -0.95 0  -3.6 -0.95 0  -3.55 -0.95 0  -3.5 -0.95 0  -3.45 -0.95 0  -3.4 -0.95 0  -3.35 -0.95 0  -3.3 -0.95 0  -3.25 -0.95 0  -3.2 -0.95 0  -3.15 -0.95 0  -3.1 -0.95 0  -3.05 -0.95 0  -3 -0.95 0  -2.95 -0.95 0  -2.9 -0.95 0  -2.85 -0.95 0  -2.8 -0.95 0  -2.75 -0.95 0  -2.7 -0.95 0  -2.65 -0.95 0  -2.6 -0.95 0  -2.55 -0.95 0  -2.5 -0.95 0  -2.45 -0.95 0  -2.4 -0.95 0  -2.35 -0.95 0  -2.3 -0.95 0  -2.25 -0.95 0  -2.2 -0.95 0  -2.15 -0.95 0  -2.1 -0.95 0  -2.05 -0.95 0  -2 -0.95 0  -1.95 -0.95 0  -1.9 -0.95 0  -1.85 -0.95 0  -1.8 -0.95 0  -1.75 -0.95 0  -1.7 -0.95 0  -1.65 -0.95 0  -1.6 -0.95 0  -1.55 -0.95 0  -1.5 -0.95 0  -1.45 -0.95 0  -1.4 -0.95 0  -1.35 -0.95 0  -1.3 -0.95 0  -1.25 -0.95 0  -1.2 -0.95 0  -1.15 -0.95 0  -1.1 -0.95 0  -1.05 -0.95 0  -1 -0.95 0  -0.9500000000000002 -0.95 0  -0.9000000000000004 -0.95 0  -0.8499999999999996 -0.95 0  -0.7999999999999998 -0.95 0  -0.75 -0.95 0  -0.7000000000000002 -0.95 0  -0.6500000000000004 -0.95 0  -0.5999999999999996 -0.95 0  -0.5499999999999998 -0.95 0  -0.5 -0.95 0  -0.4500000000000002 -0.95 0  -0.4000000000000004 -0.95 0  -0.3499999999999996 -0.95 0  -0.2999999999999998 -0.95 0  -0.25 -0.95 0  -0.2000000000000002 -0.95 0  -0.1500000000000004 -0.95 0  -0.09999999999999964 -0.95 0  -0.04999999999999982 -0.95 0  0 -0.95 0  0.04999999999999982 -0.95 0  0.09999999999999964 -0.95 0  0.1500000000000004 -0.95 0  0.2000000000000002 -0.95 0  0.25 -0.95 0  0.2999999999999998 -0.95 0  0.3499999999999996 -0.95 0  0.4000000000000004 -0.95 0  0.4500000000000002 -0.95 0  0.5 -0.95 0  0.5499999999999998 -0.95 0  0.5999999999999996 -0.95 0  0.6500000000000004 -0.95 0  0.7000000000000002 -0.95 0  0.75 -0.95 0  0.7999999999999998 -0.95 0  0.8499999999999996 -0.95 0  0.9000000000000004 -0.95 0  0.9500000000000002 -0.95 0  1 -0.95 0  1.05 -0.95 0  1.1 -0.95 0  1.15 -0.95 0  1.2 -0.95 0  1.25 -0.95 0  1.3 -0.95 0  1.35 -0.95 0  1.4 -0.95 0  1.45 -0.95 0  1.5 -0.95 0  1.55 -0.95 0  1.6 -0.95 0  1.65 -0.95 0  1.7 -0.95 0  1.75 -0.95 0  1.8 -0.95 0  1.85 -0.95 0  1.9 -0.95 0  1.95 -0.95 0  2 -0.95 0  2.05 -0.95 0  2.1 -0.95 0  2.15 -0.95 0  2.2 -0.95 0  2.25 -0.95 0  2.3 -0.95 0  2.35 -0.95 0  2.4 -0.95 0  2.45 -0.95 0  2.5 -0.95 0  2.55 -0.95 0  2.6 -0.95 0  2.65 -0.95 0  2.7 -0.95 0  2.75 -0.95 0  2.8 -0.95 0  2.85 -0.95 0  2.9 -0.95 0  2.95 -0.95 0  3 -0.95 0  3.050000000000001 -0.95 0  3.1 -0.95 0  3.15 -0.95 0  3.199999999999999 -0.95 0  3.25 -0.95 0  3.300000000000001 -0.95 0  3.35 -0.95 0  3.4 -0.95 0  3.449999999999999 -0.95 0  3.5 -0.95 0  3.550000000000001 -0.95 0  3.6 -0.95 0  3.65 -0.95 0  3.699999999999999 -0.95 0  3.75 -0.95 0  3.800000000000001 -0.95 0  3.85 -0.95 0  3.9 -0.95 0  3.949999999999999 -0.95 0  4 -0.95 0  4.050000000000001 -0.95 0  4.1 -0.95 0  4.15 -0.95 0  4.199999999999999 -0.95 0  4.25 -0.95 0  4.300000000000001 -0.95 0  4.35 -0.95 0  4.4 -0.95 0  4.449999999999999 -0.95 0  4.5 -0.95 0  4.550000000000001 -0.95 0  4.6 -0.95 0  4.65 -0.95 0  4.699999999999999 -0.95 0  4.75 -0.95 0  4.800000000000001 -0.95 0  4.85 -0.95 0  4.9 -0.95 0  4.949999999999999 -0.95 0  5 -0.95 0  -5 -0.9 0  -4.95 -0.9 0  -4.9 -0.9 0  -4.85 -0.9 0  -4.8 -0.9 0  -4.75 -0.9 0  -4.7 -0.9 0  -4.65 -0.9 0  -4.6 -0.9 0  -4.55 -0.9 0  -4.5 -0.9 0  -4.45 -0.9 0  -4.4 -0.9 0  -4.35 -0.9 0  -4.3 -0.9 0  -4.25 -0.9 0  -4.2 -0.9 0  -4.15 -0.9 0  -4.1 -0.9 0  -4.05 -0.9 0  -4 -0.9 0  -3.95 -0.9 0  -3.9 -0.9 0  -3.85 -0.9 0  -3.8 -0.9 0  -3.75 -0.9 0  -3.7 -0.9 0  -3.65 -0.9 0  -3.6 -0.9 0  -3.55 -0.9 0  -3.5 -0.9 0  -3.45 -0.9 0  -3.4 -0.9 0  -3.35 -0.9 0  -3.3 -0.9 0  -3.25 -0.9 0  -3.2 -0.9 0  -3.15 -0.9 0  -3.1 -0.9 0  -3.05 -0.9 0  -3 -0.9 0  -2.95 -0.9 0  -2.9 -0.9 0  -2.85 -0.9 0  -2.8 -0.9 0  -2.75 -0.9 0  -2.7 -0.9 0  -2.65 -0.9 0  -2.6 -0.9 0  -2.55 -0.9 0  -2.5 -0.9 0  -2.45 -0.9 0  -2.4 -0.9 0  -2.35 -0.9 0  -2.3 -0.9 0  -2.25 -0.9 0  -2.2 -0.9 0  -2.15 -0.9 0  -2.1 -0.9 0  -2.05 -0.9 0  -2 -0.9 0  -1.95 -0.9 0  -1.9 -0.9 0  -1.85 -0.9 0  -1.8 -0.9 0  -1.75 -0.9 0  -1.7 -0.9 0  -1.65 -0.9 0  -1.6 -0.9 0  -1.55 -0.9 0  -1.5 -0.9 0  -1.45 -0.9 0  -1.4 -0.9 0  -1.35 -0.9 0  -1.3 -0.9 0  -1.25 -0.9 0  -1.2 -0.9 0  -1.15 -0.9 0  -1.1 -0.9 0  -1.05 -0.9 0  -1 -0.9 0  -0.9500000000000002 -0.9 0  -0.9000000000000004 -0.9 0  -0.8499999999999996 -0.9 0  -0.7999999999999998 -0.9 0  -0.75 -0.9 0  -0.7000000000000002 -0.9 0  -0.6500000000000004 -0.9 0  -0.5999999999999996 -0.9 0  -0.5499999999999998 -0.9 0  -0.5 -0.9 0  -0.4500000000000002 -0.9 0  -0.4000000000000004 -0.9 0  -0.3499999999999996 -0.9 0  -0.2999999999999998 -0.9 0  -0.25 -0.9 0  -0.2000000000000002 -0.9 0  -0.1500000000000004 -0.9 0  -0.09999999999999964 -0.9 0  -0.04999999999999982 -0.9 0  0 -0.9 0  0.04999999999999982 -0.9 0  0.09999999999999964 -0.9 0  0.1500000000000004 -0.9 0  0.2000000000000002 -0.9 0  0.25 -0.9 0  0.2999999999999998 -0.9 0  0.3499999999999996 -0.9 0  0.4000000000000004 -0.9 0  0.4500000000000002 -0.9 0  0.5 -0.9 0  0.5499999999999998 -0.9 0  0.5999999999999996 -0.9 0  0.6500000000000004 -0.9 0  0.7000000000000002 -0.9 0  0.75 -0.9 0  0.7999999999999998 -0.9 0  0.8499999999999996 -0.9 0  0.9000000000000004 -0.9 0  0.9500000000000002 -0.9 0  1 -0.9 0  1.05 -0.9 0  1.1 -0.9 0  1.15 -0.9 0  1.2 -0.9 0  1.25 -0.9 0  1.3 -0.9 0  1.35 -0.9 0  1.4 -0.9 0  1.45 -0.9 0  1.5 -0.9 0  1.55 -0.9 0  1.6 -0.9 0  1.65 -0.9 0  1.7 -0.9 0  1.75 -0.9 0  1.8 -0.9 0  1.85 -0.9 0  1.9 -0.9 0  1.95 -0.9 0  2 -0.9 0  2.05 -0.9 0  2.1 -0.9 0  2.15 -0.9 0  2.2 -0.9 0  2.25 -0.9 0  2.3 -0.9 0  2.35 -0.9 0  2.4 -0.9 0  2.45 -0.9 0  2.5 -0.9 0  2.55 -0.9 0  2.6 -0.9 0  2.65 -0.9 0  2.7 -0.9 0  2.75 -0.9 0  2.8 -0.9 0  2.85 -0.9 0  2.9 -0.9 0  2.95 -0.9 0  3 -0.9 0  3.050000000000001 -0.9 0  3.1 -0.9 0  3.15 -0.9 0  3.199999999999999 -0.9 0  3.25 -0.9 0  3.300000000000001 -0.9 0  3.35 -0.9 0  3.4 -0.9 0  3.449999999999999 -0.9 0  3.5 -0.9 0  3.550000000000001 -0.9 0  3.6 -0.9 0  3.65 -0.9 0  3.699999999999999 -0.9 0  3.75 -0.9 0  3.800000000000001 -0.9 0  3.85 -0.9 0  3.9 -0.9 0  3.949999999999999 -0.9 0  4 -0.9 0  4.050000000000001 -0.9 0  4.1 -0.9 0  4.15 -0.9 0  4.199999999999999 -0.9 0  4.25 -0.9 0  4.300000000000001 -0.9 0  4.35 -0.9 0  4.4 -0.9 0  4.449999999999999 -0.9 0  4.5 -0.9 0  4.550000000000001 -0.9 0  4.6 -0.9 0  4.65 -0.9 0  4.699999999999999 -0.9 0  4.75 -0.9 0  4.800000000000001 -0.9 0  4.85 -0.9 0  4.9 -0.9 0  4.949999999999999 -0.9 0  5 -0.9 0  -5 -0.85 0  -4.95 -0.85 0  -4.9 -0.85 0  -4.85 -0.85 0  -4.8 -0.85 0  -4.75 -0.85 0  -4.7 -0.85 0  -4.65 -0.85 0  -4.6 -0.85 0  -4.55 -0.85 0  -4.5 -0.85 0  -
[...]
<PointData  Vectors="f_15"> 
<DataArray  type="Float64"  Name="f_15"  NumberOfComponents="3" format="ascii">1.0000061897644109e+01 0.0000000000000000e+00 0.0000000000000000e+00  9.9999724597411337e+00 -1.1624391398688773e-04 0.0000000000000000e+00  1.0000115013032737e+01 1.7939399984266441e-04 0.0000000000000000e+00  9.9999798167364506e+00 -6.7263263812070479e-05 0.0000000000000000e+00  1.0000061177934786e+01 1.3119140549797717e-04 0.0000000000000000e+00  1.0000013652867111e+01 -2.4114590180213704e-05 0.0000000000000000e+00  1.0000078439298324e+01 9.3879060991024365e-05 0.0000000000000000e+00  9.9999553712622102e+00 1.1341872121424327e-05 0.0000000000000000e+00  1.0000108903381474e+01 5.3208244876382927e-05 0.0000000000000000e+00  9.9999637514787292e+00 2.8333794905228468e-05 0.0000000000000000e+00  1.0000060665397690e+01 5.8408612674752722e-05 0.0000000000000000e+00  9.9999757734836070e+00 1.2314656079455245e-05 0.0000000000000000e+00  1.0000066756454748e+01 5.4983222842886320e-05 0.0000000000000000e+00  9.9999243332544285e+00 5.4407733335237014e-05 0.0000000000000000e+00  1.0000060433185592e+01 2.4493583558526257e-05 0.0000000000000000e+00  9.9999077073778828e+00 8.9901128521309445e-05 0.0000000000000000e+00  9.9999923462158691e+00 8.0110238095131220e-05 0.0000000000000000e+00  9.9998524966484599e+00 1.1584882469683607e-04 0.0000000000000000e+00  9.9999130886503913e+00 1.6025751634405247e-04 0.0000000000000000e+00  9.9997086631667802e+00 2.7423695519949564e-04 0.0000000000000000e+00  9.9997265315349626e+00 2.9778477774168886e-04 0.0000000000000000e+00  9.9994548562460039e+00 5.4063076866382352e-04 0.0000000000000000e+00  9.9993425194594643e+00 6.8786580110825608e-04 0.0000000000000000e+00  9.9989290127064816e+00 1.0290851973441615e-03 0.0000000000000000e+00  9.9986179786493885e+00 1.4052557127450253e-03 0.0000000000000000e+00  9.9979234627219302e+00 2.0514523150495559e-03 0.0000000000000000e+00  9.9972395682363260e+00 2.7293510797734310e-03 0.0000000000000000e+00  9.9960762621145722e+00 3.8908411673101145e-03 0.0000000000000000e+00  9.9947564610424031e+00 5.2042786126458226e-03 0.0000000000000000e+00  9.9927819465111138e+00 7.1275090823027737e-03 0.0000000000000000e+00  9.9904429237757828e+00 9.4774250644068542e-03 0.0000000000000000e+00  9.9871794232770643e+00 1.2698032481750042e-02 0.0000000000000000e+00  9.9832350281827367e+00 1.6591615981201523e-02 0.0000000000000000e+00  9.9780270963452544e+00 2.1773181183781531e-02 0.0000000000000000e+00  9.9717235473376320e+00 2.8013307456606084e-02 0.0000000000000000e+00  9.9637004861740905e+00 3.5959245798388648e-02 0.0000000000000000e+00  9.9541061518387757e+00 4.5488780439498805e-02 0.0000000000000000e+00  9.9422605488427145e+00 5.7241359323269111e-02 0.0000000000000000e+00  9.9282978708018899e+00 7.1096767320458928e-02 0.0000000000000000e+00  9.9115367542037980e+00 8.7760969875966086e-02 0.0000000000000000e+00  9.8921123673556259e+00 1.0707631215647766e-01 0.0000000000000000e+00  9.8693573923328319e+00 1.2971723895420992e-01 0.0000000000000000e+00  9.8434584886464531e+00 1.5553756326258916e-01 0.0000000000000000e+00  9.8137909692513752e+00 1.8512641012267508e-01 0.0000000000000000e+00  9.7806088811212337e+00 2.1829853199647234e-01 0.0000000000000000e+00  9.7433540511147321e+00 2.5556214257700205e-01 0.0000000000000000e+00  9.7023778713807793e+00 2.9668448278555704e-01 0.0000000000000000e+00  9.6571946304374379e+00 3.4205134837137574e-01 0.0000000000000000e+00  9.6082310284416668e+00 3.9140211014021609e-01 0.0000000000000000e+00  9.5551107343785180e+00 4.4499647508610629e-01 0.0000000000000000e+00  9.4983175145894574e+00 5.0255817789733459e-01 0.0000000000000000e+00  9.4375327320198394e+00 5.6421099010812426e-01 0.0000000000000000e+00  9.3733319487542417e+00 6.2970071607889544e-01 0.0000000000000000e+00  9.3054351613232811e+00 6.9903312938721218e-01 0.0000000000000000e+00  9.2344239394075363e+00 7.7196234876473591e-01 0.0000000000000000e+00  9.1601158254499069e+00 8.4842118046731874e-01 0.0000000000000000e+00  9.0830680642010613e+00 9.2819931823422386e-01 0.0000000000000000e+00  9.0031068963056651e+00 1.0111292436622807e+00 0.0000000000000000e+00  8.9208362901469815e+00 1.0970766058000003e+00 0.0000000000000000e+00  8.8360672964130540e+00 1.1858163954832990e+00 0.0000000000000000e+00  8.7493545930599055e+00 1.2772290471604792e+00 0.0000000000000000e+00  8.6605882366808355e+00 1.3710878451828969e+00 0.0000000000000000e+00  8.5702438958689324e+00 1.4673203565268664e+00 0.0000000000000000e+00  8.4782026345166983e+00 1.5656311607771505e+00 0.0000000000000000e+00  8.3849647374428375e+00 1.6660332231644464e+00 0.0000000000000000e+00  8.2903726108795599e+00 1.7682277603738037e+00 0.0000000000000000e+00  8.1948661639799951e+00 1.8721972072425541e+00 0.0000000000000000e+00  8.0983637339436569e+00 1.9776917927230311e+00 0.0000000000000000e+00  8.0012067736894448e+00 2.0847618349212884e+00 0.0000000000000000e+00  7.9033152112188834e+00 2.1930270889250085e+00 0.0000000000000000e+00  7.8050469939366121e+00 2.3026696295829003e+00 0.0000000000000000e+00  7.7062815460653109e+00 2.4133654499072645e+00 0.0000000000000000e+00  7.6073255380936171e+00 2.5251053496439089e+00 0.0000000000000000e+00  7.5081342805348328e+00 2.6377464119931049e+00 0.0000000000000000e+00  7.4089124689628507e+00 2.7513600557121682e+00 0.0000000000000000e+00  7.3096351694487032e+00 2.8655519479791769e+00 0.0000000000000000e+00  7.2105155473599858e+00 2.9805502252369509e+00 0.0000000000000000e+00  7.1114924335746679e+00 3.0961581894602586e+00 0.0000000000000000e+00  7.0127466698488616e+00 3.2122607893220736e+00 0.0000000000000000e+00  6.9142727209985289e+00 3.3288155841600813e+00 0.0000000000000000e+00  6.8161706913149249e+00 3.4458856252215053e+00 0.0000000000000000e+00  6.7184595321363760e+00 3.5632034275266546e+00 0.0000000000000000e+00  6.6212343292404219e+00 3.6809035289124346e+00 0.0000000000000000e+00  6.5244899679618626e+00 3.7988057725565696e+00 0.0000000000000000e+00  6.4283130978618903e+00 3.9169512571328076e+00 0.0000000000000000e+00  6.3327113455658139e+00 4.0352287522919124e+00 0.0000000000000000e+00  6.2377440985675578e+00 4.1536860102787561e+00 0.0000000000000000e+00  6.1434229552891786e+00 4.2721448897204608e+00 0.0000000000000000e+00  6.0498033117589003e+00 4.3907196010245340e+00 0.0000000000000000e+00  5.9568917987830909e+00 4.5092337724883471e+00 0.0000000000000000e+00  5.8647524621988865e+00 4.6277579837292278e+00 0.0000000000000000e+00  5.7733536049697669e+00 4.7462084468829229e+00 0.0000000000000000e+00  5.6828048711659500e+00 4.8645280296576336e+00 0.0000000000000000e+00  5.5930645316384835e+00 4.9826791921918083e+00 0.0000000000000000e+00  5.5041849844062787e+00 5.1006894811474348e+00 0.0000000000000000e+00  5.4162043541811764e+00 5.2184227312443312e+00 0.0000000000000000e+00  5.3291470730942381e+00 5.3358887584980090e+00 0.0000000000000000e+00  5.2429913350290365e+00 5.4530757440039626e+00 0.0000000000000000e+00  5.1578651187837492e+00 5.5698227618983562e+00 0.0000000000000000e+00  5.0737509405617853e+00 5.6861163467014313e+00 0.0000000000000000e+00  4.9907005031320555e+00 5.8019024126580252e+00 0.0000000000000000e+00  4.9087255604096960e+00 5.9171339644927929e+00 0.0000000000000000e+00  4.8280323884019163e+00 6.0315127847627306e+00 0.0000000000000000e+00  4.7485966362705536e+00 6.1450406349747659e+00 0.0000000000000000e+00  4.6706601617580699e+00 6.2573537594991313e+00 0.0000000000000000e+00  4.5942454199676135e+00 6.3683780594081831e+00 0.0000000000000000e+00  4.5196478064550174e+00 6.4776620795839142e+00 0.0000000000000000e+00  4.4471610506865602e+00 6.5847083646048601e+00 0.0000000000000000e+00  4.3766264051163635e+00 6.6897079251283351e+00 0.0000000000000000e+00  4.3093533130303623e+00 6.7906328242330138e+00 0.0000000000000000e+00  4.2457208720090893e+00 6.8868137154467872e+00 0.0000000000000000e+00  4.1871815217037351e+00 6.9759229434242265e+00 0.0000000000000000e+00  4.1350912295266919e+00 7.0557163761187480e+00 0.0000000000000000e+00  4.0913801737465896e+00 7.1230554306733991e+00 0.0000000000000000e+00  4.0568475531319459e+00 7.1764730404416284e+00 0.0000000000000000e+00  4.0309860850028123e+00 7.2165878565704817e+00 0.0000000000000000e+00  4.0117524815275827e+00 7.2464386493945154e+00 0.0000000000000000e+00  3.9973496132679562e+00 7.2687980628459021e+00 0.0000000000000000e+00  3.9864541517272829e+00 7.2856780793084024e+00 0.0000000000000000e+00  3.9784481589690226e+00 7.2980476215582000e+00 0.0000000000000000e+00  3.9726817848660194e+00 7.3068894982968349e+00 0.0000000000000000e+00  3.9686709690800486e+00 7.3129791702821203e+00 0.0000000000000000e+00  3.9658604190310744e+00 7.3171635718168897e+00 0.0000000000000000e+00  3.9639088761147185e+00 7.3199964816865144e+00 0.0000000000000000e+00  3.9624994920213403e+00 7.3219605776399144e+00 0.0000000000000000e+00  3.9614801402504907e+00 7.3233075454204721e+00 0.0000000000000000e+00  3.9607046899323120e+00 7.3242582571444359e+00 0.0000000000000000e+00  3.9601116459639214e+00 7.3249161484597671e+00 0.0000000000000000e+00  3.9596354005060639e+00 7.3253745669849426e+00 0.0000000000000000e+00  3.9592494719518387e+00 7.3256744536250853e+00 0.0000000000000000e+00  3.9589226868579663e+00 7.3258532908531091e+00 0.0000000000000000e+00  3.9586430901378269e+00 7.3259196354003899e+00 0.0000000000000000e+00  3.9583948627791723e+00 7.3258834710814895e+00 0.0000000000000000e+00  3.9581709590920315e+00 7.3257393865000200e+00 0.0000000000000000e+00  3.9579634760585001e+00 7.3254790442364790e+00 0.0000000000000000e+00  3.9577679420738554e+00 7.3250883521069303e+00 0.0000000000000000e+00  3.9575793145892315e+00 7.3245506552375197e+00 0.0000000000000000e+00  3.9573948912916252e+00 7.3238438900165868e+00 0.0000000000000000e+00  3.9572103237300484e+00 7.3229487956173642e+00 0.0000000000000000e+00  3.9570215001211562e+00 7.3218440282152191e+00 0.0000000000000000e+00  3.9568217339107141e+00 7.3205104224288311e+00 0.0000000000000000e+00  3.9566002469977324e+00 7.3189304794517644e+00 0.0000000000000000e+00  3.9563362818806063e+00 7.3170807030388865e+00 0.0000000000000000e+00  3.9559950745871140e+00 7.3149245460920973e+00 0.0000000000000000e+00  3.9555042298027359e+00 7.3123784699367560e+00 0.0000000000000000e+00  3.9547442187879525e+00 7.3092923691021188e+00 0.0000000000000000e+00  3.9534599187024555e+00 7.3053086587782401e+00 0.0000000000000000e+00  3.9512389863922222e+00 7.2998297907613061e+00 0.0000000000000000e+00  3.9471847669519722e+00 7.2915024480566553e+00 0.0000000000000000e+00  3.9398721870817686e+00 7.2781475700292066e+00 0.0000000000000000e+00  3.9261535349214469e+00 7.2548770560856459e+00 0.0000000000000000e+00  3.9011021919889526e+00 7.2139256224172241e+00 0.0000000000000000e+00  3.8540403004046473e+00 7.1380942306002835e+00 0.0000000000000000e+00  3.7689772609720182e+00 7.0000592211736681e+00 0.0000000000000000e+00  3.6126107898362019e+00 6.7397223780386861e+00 0.0000000000000000e+00  3.3445547380425626e+00 6.2663758287801672e+00 0.0000000000000000e+00  2.8944259242321366e+00 5.3903864539004180e+00 0.0000000000000000e+00  2.2422052376740584e+00 3.8596290622348142e+00 0.0000000000000000e+00  1.4189771217853355e+00 1.3774822565265128e+00 0.0000000000000000e+00  1.0478785871452556e+00 1.4716846022991512e-01 0.0000000000000000e+00  1.0027309993802622e+00 7.6880670277930377e-03 0.0000000000000000e+00  9.9999236448569595e-01 1.1405934664190734e-03 0.0000000000000000e+00  1.0000587557755007e+00 -1.1765787117959313e-04 0.0000000000000000e+00  1.0000015436067415e+00 1.3565457366753164e-05 0.0000000000000000e+00  9.9999366982474036e-01 1.6981042599874707e-05 0.0000000000000000e+00  1.0000036327978745e+00 -1.0050103101680673e-05 0.0000000000000000e+00  9.9999876667433529e-01 3.6500036404404002e-06 0.0000000000000000e+00  1.0000003129923849e+00 -9.6114121193185958e-07 0.0000000000000000e+00  9.9999990175530595e-01 2.9305915255507122e-07 0.0000000000000000e+00  1.0000000786657455e+00 -2.1425377138838289e-07 0.0000000000000000e+00  9.9999992266183224e-01 2.0746125546770510e-07 0.0000000000000000e+00  1.0000000659168351e+00 -1.7738165859384386e-07 0.0000000000000000e+00  9.9999994926053948e-01 1.3679030299107596e-07 0.0000000000000000e+00  1.0000000375186742e+00 -1.0108642824363815e-07 0.0000000000000000e+00  9.9999997250968786e-01 7.4015444825441946e-08 0.0000000000000000e+00  1.0000000200383194e+00 -5.3984395903877281e-08 0.0000000000000000e+00  9.9999998555634495e-01 3.8962648315266169e-08 0.0000000000000000e+00  1.0000000102756879e+00 -2.7732051555569998e-08 0.0000000000000000e+00  9.9999999274118867e-01 1.9563156142259056e-08 0.0000000000000000e+00  1.0000000051386533e+00 -1.3809510766655237e-08 0.0000000000000000e+00  9.9999999633599879e-01 9.8179780436070646e-09 0.0000000000000000e+00  1.0000000026237674e+00 -7.0194526264443655e-09 0.0000000000000000e+00  9.9999999812803475e-01 5.0080739560254000e-09 0.0000000000000000e+00  1.0000000013216614e+00 -3.5384160291259176e-09 0.0000000000000000e+00  9.9999999907778647e-01 2.4697410259380874e-09 0.0000000000000000e+00  1.0000000006387293e+00 -1.7091160585871484e-09 0.0000000000000000e+00  9.9999999955799734e-01 1.1805226585688949e-09 0.0000000000000000e+00  1.0000000003068743e+00 -8.1793933377689415e-10 0.0000000000000000e+00  9.9999999978638665e-01 5.6854777998029584e-10 0.0000000000000000e+00  1.0000000001483995e+00 -3.9476688415065028e-10 0.0000000000000000e+00  9.9999999989752464e-01 2.7250626721412875e-10 0.0000000000000000e+00  1.0000000000701443e+00 -1.8643410261286155e-10 0.0000000000000000e+00  9.9999999995216082e-01 1.2672789194475603e-10 0.0000000000000000e+00  1.0000000000323861e+00 -8.5522737885374839e-11 0.0000000000000000e+00  9.9999999997773026e-01 5.7873904533461716e-11 0.0000000000000000e+00  1.0000000000148992e+00 -3.8393926039461563e-11 0.0000000000000000e+00  9.9999999998917788e-01 2.5798429644200007e-11 0.0000000000000000e+00  1.0000000000067903e+00 -1.5495360356811364e-11 0.0000000000000000e+00  9.9999999999377343e-01 9.9522792508978343e-12 0.0000000000000000e+00  1.0000000000029121e+00 -2.9633559681028963e-12 0.0000000000000000e+00  9.9999999999430011e-01 0.0000000000000000e+00 0.0000000000000000e+00  9.9999256021949563e+00 0.0000000000000000e+00 1.4255282332915708e-04  1.0000011792864690e+01 4.9317167609096790e-06 -3.0789530515733489e-05  9.9999443127292249e+00 -7.4807356660578042e-05 -4.1991761658516353e-05  9.9999470197305467e+00 -5.1132882573303873e-05 1.5645391569180689e-05  9.9999896578908434e+00 -3.1080981929794670e-05 -6.3965653090671927e-06  9.9999615372931618e+00 -6.1518851875472577e-05 -5.5017513855823469e-07  9.9999378488162076e+00 -2.2472825187791058e-05 1.4012146165048614e-06  9.9999973051346451e+00 -6.1976068814879147e-05 3.1159640944737751e-07  9.9999568420576548e+00 -2.1670502164812792e-05 -1.0075534405211681e-06  9.9999507373968282e+00 -3.3481467911193617e-05 1.0901061103223071e-06  9.9999849106520511e+00 -3.8360746049386648e-05 -2.7088207835590325e-07  9.9999655239993004e+00 -1.8094897832970266e-05 1.2935006871065210e-06  9.9999434355211019e+00 -1.9075251218281334e-06 -3.0132504972968917e-06  9.9999751963321550e+00 -2.7303339743703229e-05 5.1609833644032813e-06  9.9999449408971355e+00 2.4230999461136161e-05 -5.2990927663776742e-06  9.9999223896049703e+00 3.6477850293574127e-05 4.5520896755526652e-06  9.9999181266438075e+00 3.7667216413796528e-05 -3.7391687395343655e-06  9.9998776787410169e+00 1.0627260086208670e-04 4.9671650456379901e-06  9.9998141457863472e+00 1.6077832451865038e-04 -7.0626782906636172e-06  9.9997548887989076e+00 2.0715802632995824e-04 8.9630803936917143e-06  9.9996427180425052e+00 3.4913450932058974e-04 -8.6037184050250138e-06  9.9994827419280252e+00 5.0385580078019226e-04 7.5211647658814039e-06  9.9992708667854764e+00 6.9017790635434633e-04 -6.3615999638098823e-06  9.9989699311726650e+00 1.0258240050485931e-03 7.6579982091374641e-06  9.9985417303206479e+00 1.4399944952541155e-03 -8.9345138912876908e-06  9.9979663231180265e+00 1.9923259873500750e-03 1.0721092247915703e-05  9.9971825286028011e+00 2.7946474542606290e-03 -9.3424947655746944e-06  9.9961191530610058e+00 3.8489072292186162e-03 8.6611867193230329e-06  9.9947027196029037e+00 5.2241624100325436e-03 -6.3794988760945317e-06  9.9928423623629303e+00 7.1010041301323877e-03 7.6062790838868638e-06  9.9903958382831810e+00 9.5130385094600606e-03 -7.0914341280978379e-06  9.9872402136250358e+00 1.2628317472731175e-02 8.6814136665683344e-06  9.9832042594600594e+00 1.6642976507835278e-02 -6.3322614736701731e-06  9.9780933465897732e+00 2.1710157186219391e-02 5.6425421766178227e-06  9.9716901452144331e+00 2.8037326877168530e-02 -2.5569873911859838e-06  9.9637776390451034e+00 3.5906414097175286e-02 2.3820096375146669e-06  9.9540729513565829e+00 4.5522761598323899e-02 -1.2112305002809162e-06  9.9423327614880446e+00 5.7169447208268415e-02 1.0411384000472799e-06  9.9282659142818908e+00 7.1144036980366365e-02 3.8686748819956855e-07  9.9116073080981337e+00 8.7697095455301549e-02 -3.0143556181230460e-06  9.8920708653940448e+00 1.0711553029939765e-01 4.7310097426395066e-06  9.8694245869089752e+00 1.2966489668132741e-01 -7.7349918240018504e-06  9.8434118678246119e+00 1.5558355744784991e-01 7.3127728123666922e-06  9.8138515284296410e+00 1.8507469227985468e-01 -9.7269967641037657e-06  9.7805520436868463e+00 2.1834840830801952e-01 8.7523241956811803e-06  9.7434129145962967e+00 2.5552149653693873e-01 -1.2283215730303559e-05  9.7023168112666962e+00 2.9673139122102554e-01 1.1681894477463476e-05  9.6572404465843764e+00 3.4201867392812607e-01 -1.4562240206069250e-05  9.6081720860521020e+00 3.9144747657196283e-01 1.2381432359766494e-05  9.5551562853340108e+00 4.4497567431173296e-01 -1.3144353879061532e-05  9.4982444566354864e+00 5.0259235551372650e-01 1.0257665933250704e-05  9.4375828949958276e+00 5.6420230288089512e-01 -1.0429413746922427e-05  9.3732653423675103e+00 6.2973168155379355e-01 8.1261891903274716e-06  9.3054665510148169e+00 6.9902624039736638e-01 -7.5187897347037109e-06  9.2343697720264402e+00 7.7198591198012323e-01 4.6993508315321310e-06  9.1601523961428502e+00 8.4843029252619429e-01 -2.3784250851825002e-06  9.0829987364202864e+00 9.2820330782684402e-01 -9.5835903612181102e-07  9.0031541960736554e+00 1.0111473735117342e+00 3.6461031250075148e-06  8.9207788178905520e+00 1.0970813909319690e+00 -5.6487498295670301e-06  8.8360926434787057e+00 1.1858285836832900e+00 7.0585955615210362e-06  8.7493161716504915e+00 1.2772275937132493e+00 -7.5987955572520074e-06  8.6606184513061724e+00 1.3711179082533063e+00 8.9798640642483063e-06  8.5701890571965347e+00 1.4672989306037805e+00 -9.9248692215195434e-06  8.4782460672184285e+00 1.5656651779667392e+00 1.1590888632401625e-05  8.3849198376948770e+00 1.6660280588339413e+00 -1.1133632650295754e-05  8.2903918776486183e+00 1.7682443115179809e+00 9.9979479162045934e-06  8.1948420403003244e+00 1.8721885018870972e+00 -7.0944331711376847e-06  8.0983839309917318e+00 1.9777429200104262e+00 5.7961379364086051e-06  8.0011664899382584e+00 2.0847171948561458e+00 -6.2719520436121838e-06  7.9033501155052184e+00 2.1930742587394985e+00 8.5800642274186742e-06  7.8050146392303565e+00 2.3026788589143505e+00 -9.3422281006863084e-06  7.7062958802144355e+00 2.4133507437613253e+00 5.0492411648985001e-06  7.6073176627757677e+00 2.5251020808798792e+00 1.9279014803522565e-06  7.5081504756023163e+00 2.6378097248872376e+00 -8.6412139486186878e-06  7.4088941116042761e+00 2.7512869247501062e+00 1.1048935814298496e-05  7.3096716187693920e+00 2.8655561837162189e+00 -1.6102776392429567e-05  7.2105022000924919e+00 2.9806053018066403e+00 2.4104847339771399e-05  7.1115160364343426e+00 3.0960952702600446e+00 -3.0797277584806551e-05  7.0127519302990580e+00 3.2122451747974843e+00 2.7681093450519466e-05  6.9142912141124269e+00 3.3288533410321235e+00 -2.2021416532460492e-05  6.8161651811356707e+00 3.4458702874199880e+00 2.3936215410185768e-05  6.7184833811094764e+00 3.5631969525541907e+00 -3.1099961001044633e-05  6.62122