<?xml version="1.0"?>
<VTKFile type="UnstructuredGrid"  version="0.1"  >
<UnstructuredGrid>
<Piece  NumberOfPoints="8241" NumberOfCells="16000">
<Points>
<DataArray  type="Float64"  NumberOfComponents="3"  format="ascii">-5 -1 0  -4.95 -1 0  -4.9 -1 0  -4.85 -1 0  -4.8 -1 0  -4.75 -1 0  -4.7 -1 0  -4.65 -1 0  -4.6 -1 0  -4.55 -1 0  -4.5 -1 0  -4.45 -1 0  -4.4 -1 0  -4.35 -1 0  -4.3 -1 0  -4.25 -1 0  -4.2 -1 0  -4.15 -1 0  -4.1 -1 0  -4.05 -1 0  -4 -1 0  -3.95 -1 0  -3.9 -1 0  -3.85 -1 0  -3.8 -1 0  -3.75 -1 0  -3.7 -1 0  -3.65 -1 0  -3.6 -1 0  -3.55 -1 0  -3.5 -1 0  -3.45 -1 0  -3.4 -1 0  -3.35 -1 0  -3.3 -1 0  -3.25 -1 0  -3.2 -1 0  -3.15 -1 0  -3.1 -1 0  -3.05 -1 0  -3 -1 0  -2.95 -1 0  -2.9 -1 0  -2.85 -1 0  -2.8 -1 0  -2.75 -1 0  -2.7 -1 0  -2.65 -1 0  -2.6 -1 0  -2.55 -1 0  -2.5 -1 0  -2.45 -1 0  -2.4 -1 0  -2.35 -1 0  -2.3 -1 0  -2.25 -1 0  -2.2 -1 0  -2.15 -1 0  -2.1 -1 0  -2.05 -1 0  -2 -1 0  -1.95 -1 0  -1.9 -1 0  -1.85 -1 0  -1.8 -1 0  -1.75 -1 0  -1.7 -1 0  -1.65 -1 0  -1.6 -1 0  -1.55 -1 0  -1.5 -1 0  -1.45 -1 0  -1.4 -1 0  -1.35 -1 0  -1.3 -1 0  -1.25 -1 0  -1.2 -1 0  -1.15 -1 0  -1.1 -1 0  -1.05 -1 0  -1 -1 0  -0.9500000000000002 -1 0  -0.9000000000000004 -1 0  -0.8499999999999996 -1 0  -0.7999999999999998 -1 0  -0.75 -1 0  -0.7000000000000002 -1 0  -0.6500000000000004 -1 0  -0.5999999999999996 -1 0  -0.5499999999999998 -1 0  -0.5 -1 0  -0.4500000000000002 -1 0  -0.4000000000000004 -1 0  -0.3499999999999996 -1 0  -0.2999999999999998 -1 0  -0.25 -1 0  -0.2000000000000002 -1 0  -0.1500000000000004 -1 0  -0.09999999999999964 -1 0  -0.04999999999999982 -1 0  0 -1 0  0.04999999999999982 -1 0  0.09999999999999964 -1 0  0.1500000000000004 -1 0  0.2000000000000002 -1 0  0.25 -1 0  0.2999999999999998 -1 0  0.3499999999999996 -1 0  0.4000000000000004 -1 0  0.4500000000000002 -1 0  0.5 -1 0  0.5499999999999998 -1 0  0.5999999999999996 -1 0  0.6500000000000004 -1 0  0.7000000000000002 -1 0  0.75 -1 0  0.7999999999999998 -1 0  0.8499999999999996 -1 0  0.9000000000000004 -1 0  0.9500000000000002 -1 0  1 -1 0  1.05 -1 0  1.1 -1 0  1.15 -1 0  1.2 -1 0  1.25 -1 0  1.3 -1 0  1.35 -1 0  1.4 -1 0  1.45 -1 0  1.5 -1 0  1.55 -1 0  1.6 -1 0  1.65 -1 0  1.7 -1 0  1.75 -1 0  1.8 -1 0  1.85 -1 0  1.9 -1 0  1.95 -1 0  2 -1 0  2.05 -1 0  2.1 -1 0  2.15 -1 0  2.2 -1 0  2.25 -1 0  2.3 -1 0  2.35 -1 0  2.4 -1 0  2.45 -1 0  2.5 -1 0  2.55 -1 0  2.6 -1 0  2.65 -1 0  2.7 -1 0  2.75 -1 0  2.8 -1 0  2.85 -1 0  2.9 -1 0  2.95 -1 0  3 -1 0  3.050000000000001 -1 0  3.1 -1 0  3.15 -1 0  3.199999999999999 -1 0  3.25 -1 0  3.300000000000001 -1 0  3.35 -1 0  3.4 -1 0  3.449999999999999 -1 0  3.5 -1 0  3.550000000000001 -1 0  3.6 -1 0  3.65 -1 0  3.699999999999999 -1 0  3.75 -1 0  3.800000000000001 -1 0  3.85 -1 0  3.9 -1 0  3.949999999999999 -1 0  4 -1 0  4.050000000000001 -1 0  4.1 -1 0  4.15 -1 0  4.199999999999999 -1 0  4.25 -1 0  4.300000000000001 -1 0  4.35 -1 0  4.4 -1 0  4.449999999999999 -1 0  4.5 -1 0  4.550000000000001 -1 0  4.6 -1 0  4.65 -1 0  4.699999999999999 -1 0  4.75 -1 0  4.800000000000001 -1 0  4.85 -1 0  4.9 -1 0  4.949999999999999 -1 0  5 -1 0  -5 -0.95 0  -4.95 -0.95 0  -4.9 -0.95 0  -4.85 -0.95 0  -4.8 -0.95 0  -4.75 -0.95 0  -4.7 -0.95 0  -4.65 -0.95 0  -4.6 -0.95 0  -4.55 -0.95 0  -4.5 -0.95 0  -4.45 -0.95 0  -4.4 -0.95 0  -4.35 -0.95 0  -4.3 -0.95 0  -4.25 -0.95 0  -4.2 -0.95 0  -4.15 -0.95 0  -4.1 -0.95 0  -4.05 -0.95 0  -4 -0.95 0  -3.95 -0.95 0  -3.9 -0.95 0  -3.85 -0.95 0  -3.8 -0.95 0  -3.75 -0.95 0  -3.7 -0.95 0  -3.65 -0.95 0  -3.6 -0.95 0  -3.55 -0.95 0  -3.5 -0.95 0  -3.45 -0.95 0  -3.4 -0.95 0  -3.35 -0.95 0  -3.3 -0.95 0  -3.25 -0.95 0  -3.2 -0.95 0  -3.15 -0.95 0  -3.1 -0.95 0  -3.05 -0.95 0  -3 -0.95 0  -2.95 -0.95 0  -2.9 -0.95 0  -2.85 -0.95 0  -2.8 -0.95 0  -2.75 -0.95 0  -2.7 -0.95 0  -2.65 -0.95 0  -2.6 -0.95 0  -2.55 -0.95 0  -2.5 -0.95 0  -2.45 -0.95 0  -2.4 -0.95 0  -2.35 -0.95 0  -2.3 -0.95 0  -2.25 -0.95 0  -2.2 -0.95 0  -2.15 -0.95 0  -2.1 -0.95 0  -2.05 -0.95 0  -2 -0.95 0  -1.95 -0.95 0  -1.9 -0.95 0  -1.85 -0.95 0  -1.8 -0.95 0  -1.75 -0.95 0  -1.7 -0.95 0  -1.65 -0.95 0  -1.6 -0.95 0  -1.55 -0.95 0  -1.5 -0.95 0  -1.45 -0.95 0  -1.4 -0.95 0  -1.35 -0.95 0  -1.3 -0.95 0  -1.25 -0.95 0  -1.2 -0.95 0  -1.15 -0.95 0  -1.1 -0.95 0  -1.05 -0.95 0  -1 -0.95 0  -0.9500000000000002 -0.95 0  -0.9000000000000004 -0.95 0  -0.8499999999999996 -0.95 0  -0.7999999999999998 -0.95 0  -0.75 -0.95 0  -0.7000000000000002 -0.95 0  -0.6500000000000004 -0.95 0  -0.5999999999999996 -0.95 0  -0.5499999999999998 -0.95 0  -0.5 -0.95 0  -0.4500000000000002 -0.95 0  -0.4000000000000004 -0.95 0  -0.3499999999999996 -0.95 0  -0.2999999999999998 -0.95 0  -0.25 -0.95 0  -0.2000000000000002 -0.95 0  -0.1500000000000004 -0.95 0  -0.09999999999999964 -0.95 0  -0.04999999999999982 -0.95 0  0 -0.95 0  0.04999999999999982 -0.95 0  0.09999999999999964 -0.95 0  0.1500000000000004 -0.95 0  0.2000000000000002 -0.95 0  0.25 -0.95 0  0.2999999999999998 -0.95 0  0.3499999999999996 -0.95 0  0.4000000000000004 -0.95 0  0.4500000000000002 -0.95 0  0.5 -0.95 0  0.5499999999999998 -0.95 0  0.5999999999999996 -0.95 0  0.6500000000000004 -0.95 0  0.7000000000000002 -0.95 0  0.75 -0.95 0  0.7999999999999998 -0.95 0  0.8499999999999996 -0.95 0  0.9000000000000004 -0.95 0  0.9500000000000002 -0.95 0  1 -0.95 0  1.05 -0.95 0  1.1 -0.95 0  1.15 -0.95 0  1.2 -0.95 0  1.25 -0.95 0  1.3 -0.95 0  1.35 -0.95 0  1.4 -0.95 0  1.45 -0.95 0  1.5 -0.95 0  1.55 -0.95 0  1.6 -0.95 0  1.65 -0.95 0  1.7 -0.95 0  1.75 -0.95 0  1.8 -0.95 0  1.85 -0.95 0  1.9 -0.95 0  1.95 -0.95 0  2 -0.95 0  2.05 -0.95 0  2.1 -0.95 0  2.15 -0.95 0  2.2 -0.95 0  2.25 -0.95 0  2.3 -0.95 0  2.35 -0.95 0  2.4 -0.95 0  2.45 -0.95 0  2.5 -0.95 0  2.55 -0.95 0  2.6 -0.95 0  2.65 -0.95 0  2.7 -0.95 0  2.75 -0.95 0  2.8 -0.95 0  2.85 -0.95 0  2.9 -0.95 0  2.95 -0.95 0  3 -0.95 0  3.050000000000001 -0.95 0  3.1 -0.95 0  3.15 -0.95 0  3.199999999999999 -0.95 0  3.25 -0.95 0  3.300000000000001 -0.95 0  3.35 -0.95 0  3.4 -0.95 0  3.449999999999999 -0.95 0  3.5 -0.95 0  3.550000000000001 -0.95 0  3.6 -0.95 0  3.65 -0.95 0  3.699999999999999 -0.95 0  3.75 -0.95 0  3.800000000000001 -0.95 0  3.85 -0.95 0  3.9 -0.95 0  3.949999999999999 -0.95 0  4 -0.95 0  4.050000000000001 -0.95 0  4.1 -0.95 0  4.15 -0.95 0  4.199999999999999 -0.95 0  4.25 -0.95 0  4.300000000000001 -0.95 0  4.35 -0.95 0  4.4 -0.95 0  4.449999999999999 -0.95 0  4.5 -0.95 0  4.550000000000001 -0.95 0  4.6 -0.95 0  4.65 -0.95 0  4.699999999999999 -0.95 0  4.75 -0.95 0  4.800000000000001 -0.95 0  4.85 -0.95 0  4.9 -0.95 0  4.949999999999999 -0.95 0  5 -0.95 0  -5 -0.9 0  -4.95 -0.9 0  -4.9 -0.9 0  -4.85 -0.9 0  -4.8 -0.9 0  -4.75 -0.9 0  -4.7 -0.9 0  -4.65 -0.9 0  -4.6 -0.9 0  -4.55 -0.9 0  -4.5 -0.9 0  -4.45 -0.9 0  -4.4 -0.9 0  -4.35 -0.9 0  -4.3 -0.9 0  -4.25 -0.9 0  -4.2 -0.9 0  -4.15 -0.9 0  -4.1 -0.9 0  -4.05 -0.9 0  -4 -0.9 0  -3.95 -0.9 0  -3.9 -0.9 0  -3.85 -0.9 0  -3.8 -0.9 0  -3.75 -0.9 0  -3.7 -0.9 0  -3.65 -0.9 0  -3.6 -0.9 0  -3.55 -0.9 0  -3.5 -0.9 0  -3.45 -0.9 0  -3.4 -0.9 0  -3.35 -0.9 0  -3.3 -0.9 0  -3.25 -0.9 0  -3.2 -0.9 0  -3.15 -0.9 0  -3.1 -0.9 0  -3.05 -0.9 0  -3 -0.9 0  -2.95 -0.9 0  -2.9 -0.9 0  -2.85 -0.9 0  -2.8 -0.9 0  -2.75 -0.9 0  -2.7 -0.9 0  -2.65 -0.9 0  -2.6 -0.9 0  -2.55 -0.9 0  -2.5 -0.9 0  -2.45 -0.9 0  -2.4 -0.9 0  -2.35 -0.9 0  -2.3 -0.9 0  -2.25 -0.9 0  -2.2 -0.9 0  -2.15 -0.9 0  -2.1 -0.9 0  -2.05 -0.9 0  -2 -0.9 0  -1.95 -0.9 0  -1.9 -0.9 0  -1.85 -0.9 0  -1.8 -0.9 0  -1.75 -0.9 0  -1.7 -0.9 0  -1.65 -0.9 0  -1.6 -0.9 0  -1.55 -0.9 0  -1.5 -0.9 0  -1.45 -0.9 0  -1.4 -0.9 0  -1.35 -0.9 0  -1.3 -0.9 0  -1.25 -0.9 0  -1.2 -0.9 0  -1.15 -0.9 0  -1.1 -0.9 0  -1.05 -0.9 0  -1 -0.9 0  -0.9500000000000002 -0.9 0  -0.9000000000000004 -0.9 0  -0.8499999999999996 -0.9 0  -0.7999999999999998 -0.9 0  -0.75 -0.9 0  -0.7000000000000002 -0.9 0  -0.6500000000000004 -0.9 0  -0.5999999999999996 -0.9 0  -0.5499999999999998 -0.9 0  -0.5 -0.9 0  -0.4500000000000002 -0.9 0  -0.4000000000000004 -0.9 0  -0.3499999999999996 -0.9 0  -0.2999999999999998 -0.9 0  -0.25 -0.9 0  -0.2000000000000002 -0.9 0  -0.1500000000000004 -0.9 0  -0.09999999999999964 -0.9 0  -0.04999999999999982 -0.9 0  0 -0.9 0  0.04999999999999982 -0.9 0  0.09999999999999964 -0.9 0  0.1500000000000004 -0.9 0  0.2000000000000002 -0.9 0  0.25 -0.9 0  0.2999999999999998 -0.9 0  0.3499999999999996 -0.9 0  0.4000000000000004 -0.9 0  0.4500000000000002 -0.9 0  0.5 -0.9 0  0.5499999999999998 -0.9 0  0.5999999999999996 -0.9 0  0.6500000000000004 -0.9 0  0.7000000000000002 -0.9 0  0.75 -0.9 0  0.7999999999999998 -0.9 0  0.8499999999999996 -0.9 0  0.9000000000000004 -0.9 0  0.9500000000000002 -0.9 0  1 -0.9 0  1.05 -0.9 0  1.1 -0.9 0  1.15 -0.9 0  1.2 -0.9 0  1.25 -0.9 0  1.3 -0.9 0  1.35 -0.9 0  1.4 -0.9 0  1.45 -0.9 0  1.5 -0.9 0  1.55 -0.9 0  1.6 -0.9 0  1.65 -0.9 0  1.7 -0.9 0  1.75 -0.9 0  1.8 -0.9 0  1.85 -0.9 0  1.9 -0.9 0  1.95 -0.9 0  2 -0.9 0  2.05 -0.9 0  2.1 -0.9 0  2.15 -0.9 0  2.2 -0.9 0  2.25 -0.9 0  2.3 -0.9 0  2.35 -0.9 0  2.4 -0.9 0  2.45 -0.9 0  2.5 -0.9 0  2.55 -0.9 0  2.6 -0.9 0  2.65 -0.9 0  2.7 -0.9 0  2.75 -0.9 0  2.8 -0.9 0  2.85 -0.9 0  2.9 -0.9 0  2.95 -0.9 0  3 -0.9 0  3.050000000000001 -0.9 0  3.1 -0.9 0  3.15 -0.9 0  3.199999999999999 -0.9 0  3.25 -0.9 0  3.300000000000001 -0.9 0  3.35 -0.9 0  3.4 -0.9 0  3.449999999999999 -0.9 0  3.5 -0.9 0  3.550000000000001 -0.9 0  3.6 -0.9 0  3.65 -0.9 0  3.699999999999999 -0.9 0  3.75 -0.9 0  3.800000000000001 -0.9 0  3.85 -0.9 0  3.9 -0.9 0  3.949999999999999 -0.9 0  4 -0.9 0  4.050000000000001 -0.9 0  4.1 -0.9 0  4.15 -0.9 0  4.199999999999999 -0.9 0  4.25 -0.9 0  4.300000000000001 -0.9 0  4.35 -0.9 0  4.4 -0.9 0  4.449999999999999 -0.9 0  4.5 -0.9 0  4.550000000000001 -0.9 0  4.6 -0.9 0  4.65 -0.9 0  4.699999999999999 -0.9 0  4.75 -0.9 0  4.800000000000001 -0.9 0  4.85 -0.9 0  4.9 -0.9 0  4.949999999999999 -0.9 0  5 -0.9 0  -5 -0.85 0  -4.95 -0.85 0  -4.9 -0.85 0  -4.85 -0.85 0  -4.8 -0.85 0  -4.75 -0.85 0  -4.7 -0.85 0  -4.65 -0.85 0  -4.6 -0.85 0  -4.55 -0.85 0  -4.5 -0.85 0  -
[...]
<PointData  Vectors="f_15"> 
<DataArray  type="Float64"  Name="f_15"  NumberOfComponents="3" format="ascii">1.0000000000000007e+01 0.0000000000000000e+00 0.0000000000000000e+00  9.9999999999999964e+00 -4.2567697592752814e-15 0.0000000000000000e+00  1.0000000000000009e+01 4.6458457632100158e-15 0.0000000000000000e+00  9.9999999999999964e+00 -6.2491423561308723e-15 0.0000000000000000e+00  1.0000000000000011e+01 6.3467651915225627e-15 0.0000000000000000e+00  9.9999999999999929e+00 -7.1842653660853862e-15 0.0000000000000000e+00  1.0000000000000016e+01 1.0896684829453201e-14 0.0000000000000000e+00  9.9999999999999787e+00 -1.4757137920608501e-14 0.0000000000000000e+00  1.0000000000000036e+01 2.0554013867958229e-14 0.0000000000000000e+00  9.9999999999999449e+00 -3.0728504059532287e-14 0.0000000000000000e+00  1.0000000000000096e+01 4.9306227132453814e-14 0.0000000000000000e+00  9.9999999999998455e+00 -8.2520866357810476e-14 0.0000000000000000e+00  1.0000000000000272e+01 1.4273430716315338e-13 0.0000000000000000e+00  9.9999999999995435e+00 -2.4935867947154806e-13 0.0000000000000000e+00  1.0000000000000792e+01 4.3293823270117137e-13 0.0000000000000000e+00  9.9999999999986535e+00 -7.5652821886601106e-13 0.0000000000000000e+00  1.0000000000002306e+01 1.3162159158502573e-12 0.0000000000000000e+00  9.9999999999960956e+00 -2.2853075313620233e-12 0.0000000000000000e+00  1.0000000000006606e+01 3.9517466779867934e-12 0.0000000000000000e+00  9.9999999999888907e+00 -6.8197481577117544e-12 0.0000000000000000e+00  1.0000000000018611e+01 1.1713998727636628e-11 0.0000000000000000e+00  9.9999999999690292e+00 -2.0009362264658825e-11 0.0000000000000000e+00  1.0000000000051207e+01 3.3923723012686606e-11 0.0000000000000000e+00  9.9999999999159854e+00 -5.7061802663558311e-11 0.0000000000000000e+00  1.0000000000136851e+01 9.5242832664715431e-11 0.0000000000000000e+00  9.9999999997787636e+00 -1.5780208110179390e-10 0.0000000000000000e+00  1.0000000000354946e+01 2.5949300979941100e-10 0.0000000000000000e+00  9.9999999994353033e+00 -4.2317112658854499e-10 0.0000000000000000e+00  1.0000000000890209e+01 6.8365332739800718e-10 0.0000000000000000e+00  9.9999999986105017e+00 -1.0931710727864994e-09 0.0000000000000000e+00  1.0000000002146418e+01 1.7289800761904233e-09 0.0000000000000000e+00  9.9999999967199127e+00 -2.7033320948843659e-09 0.0000000000000000e+00  1.0000000004956547e+01 4.1754979666386372e-09 0.0000000000000000e+00  9.9999999925982888e+00 -6.3653715644761616e-09 0.0000000000000000e+00  1.0000000010916390e+01 9.5687696391197804e-09 0.0000000000000000e+00  9.9999999841054432e+00 -1.4176040990377925e-08 0.0000000000000000e+00  1.0000000022847425e+01 2.0696431413892711e-08 0.0000000000000000e+00  9.9999999675663336e+00 -2.9788433894303418e-08 0.0000000000000000e+00  1.0000000045492111e+01 4.2292731304699943e-08 0.0000000000000000e+00  9.9999999369274111e+00 -5.9259807179811678e-08 0.0000000000000000e+00  1.0000000086462686e+01 8.1974469940789923e-08 0.0000000000000000e+00  9.9999998827691297e+00 -1.1198752040642209e-07 0.0000000000000000e+00  1.0000000157299162e+01 1.5119409915627193e-07 0.0000000000000000e+00  9.9999997909168279e+00 -2.0195520318408237e-07 0.0000000000000000e+00  1.0000000275624183e+01 2.6727483023775070e-07 0.0000000000000000e+00  9.9999996392535397e+00 -3.5088190261106867e-07 0.0000000000000000e+00  1.0000000469020147e+01 4.5732001910892884e-07 0.0000000000000000e+00  9.9999993940249077e+00 -5.9184895085775215e-07 0.0000000000000000e+00  1.0000000778100624e+01 7.6093859638293377e-07 0.0000000000000000e+00  9.9999990059178305e+00 -9.7257492535132598e-07 0.0000000000000000e+00  1.0000001264706055e+01 1.2380317524432168e-06 0.0000000000000000e+00  9.9999983947673350e+00 -1.5711246213707119e-06 0.0000000000000000e+00  1.0000002031667352e+01 1.9901201734861067e-06 0.0000000000000000e+00  9.9999974343202105e+00 -2.5122768265605373e-06 0.0000000000000000e+00  1.0000003224523233e+01 3.1608611938424554e-06 0.0000000000000000e+00  9.9999959578663695e+00 -3.9566928595362813e-06 0.0000000000000000e+00  1.0000005045109784e+01 4.9444954556258531e-06 0.0000000000000000e+00  9.9999936937829741e+00 -6.1664568930670244e-06 0.0000000000000000e+00  1.0000007859039675e+01 7.7063657397584476e-06 0.0000000000000000e+00  9.9999901867586178e+00 -9.6004641190036607e-06 0.0000000000000000e+00  1.0000012147538712e+01 1.1933373638999292e-05 0.0000000000000000e+00  9.9999849774030647e+00 -1.4699863017463643e-05 0.0000000000000000e+00  1.0000018388003765e+01 1.8056272095545003e-05 0.0000000000000000e+00  9.9999773699208365e+00 -2.2111567885627715e-05 0.0000000000000000e+00  1.0000027726966726e+01 2.7206536568002107e-05 0.0000000000000000e+00  9.9999658080483851e+00 -3.3487522169307881e-05 0.0000000000000000e+00  1.0000041704060980e+01 4.1007384748094199e-05 0.0000000000000000e+00  9.9999494827583053e+00 -4.9662192890103500e-05 0.0000000000000000e+00  1.0000060424778340e+01 5.9272436889920174e-05 0.0000000000000000e+00  9.9999279530134633e+00 -7.0703126284306299e-05 0.0000000000000000e+00  1.0000086624180145e+01 8.4617677011605719e-05 0.0000000000000000e+00  9.9998957029210125e+00 -1.0262691226046273e-04 0.0000000000000000e+00  1.0000125764494095e+01 1.2372010284161913e-04 0.0000000000000000e+00  9.9998522832428201e+00 -1.4620655940980894e-04 0.0000000000000000e+00  1.0000170183885324e+01 1.6790311017326218e-04 0.0000000000000000e+00  9.9998070544648527e+00 -1.8899791865351209e-04 0.0000000000000000e+00  1.0000221009182528e+01 2.1669172006032135e-04 0.0000000000000000e+00  9.9997395316378324e+00 -2.5424682515147180e-04 0.0000000000000000e+00  1.0000304861016115e+01 3.0484472774251211e-04 0.0000000000000000e+00  9.9996484303600663e+00 -3.4787232539837198e-04 0.0000000000000000e+00  1.0000369089824314e+01 3.7939208698537885e-04 0.0000000000000000e+00  9.9996079383305947e+00 -3.6718276241944552e-04 0.0000000000000000e+00  1.0000366914379091e+01 4.0396352173256234e-04 0.0000000000000000e+00  9.9995155872221577e+00 -3.6959781620742087e-04 0.0000000000000000e+00  1.0000376516906751e+01 6.2400265865036105e-04 0.0000000000000000e+00  9.9991924100760556e+00 -3.1317703317149695e-04 0.0000000000000000e+00  9.9999158797223462e+00 1.1120428339193218e-03 0.0000000000000000e+00  9.9984017817423325e+00 8.3825775494505744e-04 0.0000000000000000e+00  9.9975582186021974e+00 2.7887803196065832e-03 0.0000000000000000e+00  9.9944405082357051e+00 5.2118514949269562e-03 0.0000000000000000e+00  9.9890922406961025e+00 1.1112006974002542e-02 0.0000000000000000e+00  9.9780836710496974e+00 2.1164749819928896e-02 0.0000000000000000e+00  9.9579263190003999e+00 4.1571773888939033e-02 0.0000000000000000e+00  9.9222502179454750e+00 7.7434084233826805e-02 0.0000000000000000e+00  9.8585224171678938e+00 1.3874684000829976e-01 0.0000000000000000e+00  9.7567797334545414e+00 2.4240769826755987e-01 0.0000000000000000e+00  9.5938128092776278e+00 4.0303580033094955e-01 0.0000000000000000e+00  9.3562628883880592e+00 6.4444040793210700e-01 0.0000000000000000e+00  9.0237116242561211e+00 9.8326565147222622e-01 0.0000000000000000e+00  8.5947947722522215e+00 1.4281120067563362e+00 0.0000000000000000e+00  8.0865231719609962e+00 1.9753570248170460e+00 0.0000000000000000e+00  7.5174864275379232e+00 2.5997342721417125e+00 0.0000000000000000e+00  6.9276039955593234e+00 3.2710831252920971e+00 0.0000000000000000e+00  6.3256325502273780e+00 3.9534388463433392e+00 0.0000000000000000e+00  5.7055040596638023e+00 4.5795788321265709e+00 0.0000000000000000e+00  5.0661405597830829e+00 5.0771834322785701e+00 0.0000000000000000e+00  4.3977335252595573e+00 5.3503918447947010e+00 0.0000000000000000e+00  3.7267194551229696e+00 5.3029829453479289e+00 0.0000000000000000e+00  3.0496519336744896e+00 4.7873318724053355e+00 0.0000000000000000e+00  2.3969454240897039e+00 3.7585444668113466e+00 0.0000000000000000e+00  1.6959714469690033e+00 2.0677032234348403e+00 0.0000000000000000e+00  1.1942051712995791e+00 5.9129531524492385e-01 0.0000000000000000e+00  1.0413690041038925e+00 1.2636584357384409e-01 0.0000000000000000e+00  1.0108940962609609e+00 3.3764632457979331e-02 0.0000000000000000e+00  1.0032791001956061e+00 1.0187442103402880e-02 0.0000000000000000e+00  1.0009623967618864e+00 2.9922489831690413e-03 0.0000000000000000e+00  1.0002605225702106e+00 8.3493539451851614e-04 0.0000000000000000e+00  1.0000668701556246e+00 2.1042110639664060e-04 0.0000000000000000e+00  1.0000155252446854e+00 4.9983199066447990e-05 0.0000000000000000e+00  1.0000033155966799e+00 1.0915579021061039e-05 0.0000000000000000e+00  1.0000006824822907e+00 2.1498127956957424e-06 0.0000000000000000e+00  1.0000001148049913e+00 4.2567862427898673e-07 0.0000000000000000e+00  1.0000000287691404e+00 5.1550474989446602e-08 0.0000000000000000e+00  9.9999999841254661e-01 2.5670542527803827e-08 0.0000000000000000e+00  1.0000000024421964e+00 -4.3188246297108850e-09 0.0000000000000000e+00  1.0000000000783895e+00 7.9343603506452249e-10 0.0000000000000000e+00  9.9999999945628315e-01 1.3771663297944362e-09 0.0000000000000000e+00  1.0000000004092970e+00 -1.1210987944935102e-09 0.0000000000000000e+00  9.9999999985097698e-01 4.5966572237410425e-10 0.0000000000000000e+00  1.0000000000038440e+00 -4.2569298794229547e-11 0.0000000000000000e+00  1.0000000000327121e+00 -7.9512394511960335e-11 0.0000000000000000e+00  9.9999999997730959e-01 6.2776526495858562e-11 0.0000000000000000e+00  1.0000000000075335e+00 -2.3280300589460890e-11 0.0000000000000000e+00  1.0000000000001419e+00 1.1922610448355253e-12 0.0000000000000000e+00  9.9999999999826150e-01 4.3195390714260909e-12 0.0000000000000000e+00  1.0000000000010794e+00 -3.0102952697907605e-12 0.0000000000000000e+00  9.9999999999968858e-01 9.8288055554151482e-13 0.0000000000000000e+00  9.9999999999996869e-01 1.7302413461532265e-14 0.0000000000000000e+00  1.0000000000000855e+00 -2.1663904090759030e-13 0.0000000000000000e+00  9.9999999999995437e-01 1.3127719800970095e-13 0.0000000000000000e+00  1.0000000000000115e+00 -3.5483386047277475e-14 0.0000000000000000e+00  1.0000000000000031e+00 -5.0201336029675519e-15 0.0000000000000000e+00  9.9999999999999667e-01 9.7656963301272125e-15 0.0000000000000000e+00  1.0000000000000020e+00 -5.8691208988395430e-15 0.0000000000000000e+00  1.0000000000000002e+00 2.0320398477723852e-15 0.0000000000000000e+00  1.0000000000000007e+00 4.2988152807173608e-16 0.0000000000000000e+00  1.0000000000000002e+00 -3.4451780894760460e-16 0.0000000000000000e+00  1.0000000000000004e+00 3.4662249238339038e-17 0.0000000000000000e+00  1.0000000000000000e+00 8.3608712307975830e-16 0.0000000000000000e+00  1.0000000000000002e+00 -9.7711654504949956e-17 0.0000000000000000e+00  1.0000000000000002e+00 -6.9993067265272208e-16 0.0000000000000000e+00  1.0000000000000009e+00 -1.3815598875668289e-15 0.0000000000000000e+00  1.0000000000000002e+00 8.1297659940025604e-16 0.0000000000000000e+00  1.0000000000000007e+00 1.1618092426235528e-15 0.0000000000000000e+00  9.9999999999999989e-01 -2.0082106215932807e-15 0.0000000000000000e+00  1.0000000000000009e+00 2.2432764800062832e-15 0.0000000000000000e+00  1.0000000000000002e+00 -1.1309094814200178e-15 0.0000000000000000e+00  1.0000000000000002e+00 1.1290126048908872e-15 0.0000000000000000e+00  1.0000000000000004e+00 -1.0630794248566843e-15 0.0000000000000000e+00  1.0000000000000002e+00 -2.8738769421796121e-16 0.0000000000000000e+00  1.0000000000000004e+00 2.1734673612072963e-15 0.0000000000000000e+00  1.0000000000000004e+00 1.1704353480752581e-16 0.0000000000000000e+00  1.0000000000000002e+00 -1.1067546583435354e-16 0.0000000000000000e+00  1.0000000000000002e+00 -3.6029087122052266e-16 0.0000000000000000e+00  1.0000000000000002e+00 -8.6686227157866434e-16 0.0000000000000000e+00  1.0000000000000004e+00 -3.9487686390947663e-17 0.0000000000000000e+00  1.0000000000000000e+00 -3.5616787503586173e-16 0.0000000000000000e+00  1.0000000000000004e+00 6.0223379266809357e-16 0.0000000000000000e+00  1.0000000000000007e+00 -2.5084010291114221e-16 0.0000000000000000e+00  1.0000000000000002e+00 5.3359521030886587e-16 0.0000000000000000e+00  1.0000000000000004e+00 -5.0618962839054696e-17 0.0000000000000000e+00  1.0000000000000002e+00 -2.1360801096453544e-16 0.0000000000000000e+00  1.0000000000000002e+00 1.6318695054333240e-15 0.0000000000000000e+00  1.0000000000000002e+00 -1.0792902377118480e-15 0.0000000000000000e+00  1.0000000000000000e+00 6.1896280775647504e-16 0.0000000000000000e+00  1.0000000000000004e+00 -1.9611965700814907e-15 0.0000000000000000e+00  1.0000000000000000e+00 -4.5907339836602862e-16 0.0000000000000000e+00  1.0000000000000002e+00 1.0826143192343327e-15 0.0000000000000000e+00  1.0000000000000002e+00 2.4037818109339652e-16 0.0000000000000000e+00  9.9999999999999989e-01 8.4418610956616824e-16 0.0000000000000000e+00  1.0000000000000004e+00 -9.8033323040201250e-16 0.0000000000000000e+00  1.0000000000000002e+00 1.4020379550829655e-15 0.0000000000000000e+00  9.9999999999999989e-01 -3.4379367260232570e-16 0.0000000000000000e+00  1.0000000000000004e+00 -9.8327445035483446e-16 0.0000000000000000e+00  1.0000000000000002e+00 -1.4647763583965487e-16 0.0000000000000000e+00  1.0000000000000007e+00 -4.0255199621344176e-16 0.0000000000000000e+00  1.0000000000000002e+00 7.8057738550031514e-16 0.0000000000000000e+00  1.0000000000000004e+00 5.8239835184142555e-16 0.0000000000000000e+00  1.0000000000000004e+00 5.7290992853096832e-16 0.0000000000000000e+00  1.0000000000000004e+00 1.1534931960484854e-16 0.0000000000000000e+00  1.0000000000000004e+00 -1.6970435528199896e-15 0.0000000000000000e+00  1.0000000000000000e+00 1.0570892362285506e-15 0.0000000000000000e+00  1.0000000000000007e+00 -7.8561030246303990e-16 0.0000000000000000e+00  1.0000000000000004e+00 5.1049941294016330e-16 0.0000000000000000e+00  1.0000000000000004e+00 -7.5041269743244783e-17 0.0000000000000000e+00  1.0000000000000004e+00 -1.7427905902002715e-16 0.0000000000000000e+00  1.0000000000000004e+00 1.0251022267583871e-16 0.0000000000000000e+00  1.0000000000000000e+00 2.2450831462991974e-16 0.0000000000000000e+00  1.0000000000000004e+00 2.2460075276584869e-16 0.0000000000000000e+00  1.0000000000000002e+00 -1.2671512160459492e-15 0.0000000000000000e+00  1.0000000000000004e+00 0.0000000000000000e+00 0.0000000000000000e+00  1.0000000000000005e+01 0.0000000000000000e+00 1.0921568429170605e-15  1.0000000000000000e+01 4.8209097098102282e-16 -3.4879126483926847e-16  1.0000000000000004e+01 2.9076528479232635e-16 -1.0737053550249313e-15  1.0000000000000002e+01 -1.7210952223178084e-15 -9.8357153537222091e-16  1.0000000000000005e+01 3.2404043580956073e-15 1.2013898296458269e-15  1.0000000000000002e+01 -2.1738924669033153e-15 -3.7823572578630751e-15  1.0000000000000002e+01 3.4437670070793625e-15 6.2292714248290279e-15  1.0000000000000005e+01 -4.9625885100057898e-15 -1.2001242531530931e-14  9.9999999999999964e+00 6.7524783873729196e-15 2.1203266884602097e-14  1.0000000000000014e+01 -1.1519646414301636e-14 -3.8339660637845440e-14  9.9999999999999787e+00 1.8074096070559629e-14 6.6951186827975440e-14  1.0000000000000044e+01 -2.8878450721221959e-14 -1.1813882274400172e-13  9.9999999999999272e+00 4.7139638186416999e-14 2.0525534535936504e-13  1.0000000000000130e+01 -8.0475021426144461e-14 -3.5444491733003287e-13  9.9999999999997851e+00 1.3611618519512925e-13 6.0755923615207259e-13  1.0000000000000366e+01 -2.2680971948671426e-13 -1.0346732649421053e-12  9.9999999999993943e+00 3.7996235288382629e-13 1.7533238457255549e-12  1.0000000000001005e+01 -6.3317968043887444e-13 -2.9551018411922443e-12  9.9999999999983533e+00 1.0442228260991524e-12 4.9554080747900483e-12  1.0000000000002693e+01 -1.7138810509336718e-12 -8.2584492634440152e-12  9.9999999999956515e+00 2.7998330320766246e-12 1.3671622758447171e-11  1.0000000000006960e+01 -4.5677359998496189e-12 -2.2466814490425055e-11  9.9999999999890150e+00 7.4374832813912896e-12 3.6640632204525885e-11  1.0000000000017156e+01 -1.2057940636313305e-11 -5.9284509539384353e-11  9.9999999999735003e+00 1.9394982930348482e-11 9.5140456354353278e-11  1.0000000000040499e+01 -3.0928153481903964e-11 -1.5136220923217875e-10  9.9999999999389271e+00 4.8960015045198758e-11 2.3858925217128037e-10  1.0000000000090592e+01 -7.7134796668659551e-11 -3.7234108788721008e-10  9.9999999998682672e+00 1.2107269099644476e-10 5.7486137658258898e-10  1.0000000000187418e+01 -1.8922790984444023e-10 -8.7737763060809254e-10  9.9999999997396358e+00 2.9406373346286248e-10 1.3227769298588324e-09  1.0000000000352159e+01 -4.5404278393333831e-10 -1.9685834034660539e-09  9.9999999995389359e+00 6.9681667158758783e-10 2.8900939234441025e-09  1.0000000000578941e+01 -1.0636359305127663e-09 -4.1836372468120556e-09  9.9999999993122550e+00 1.6140851410571927e-09 5.9700377727701882e-09  1.0000000000757138e+01 -2.4300477926057713e-09 -8.3985137340392963e-09  9.9999999992573212e+00 3.6189045546973293e-09 1.1651157852375578e-08  1.0000000000582677e+01 -5.3188082302135862e-09 -1.5947956757806339e-08  9.9999999998106617e+00 7.7095742619921717e-09 2.1552467971638601e-08  9.9999999994356514e+00 -1.1030408102473341e-08 -2.8778999111234205e-08  1.0000000001856270e+01 1.5594952860701938e-08 3.8004121530906947e-08  9.9999999960919936e+00 -2.1794279752628365e-08 -4.9685798313298728e-08  1.0000000006964536e+01 3.0077285126761789e-08 6.4393437028366032e-08  9.9999999887341513e+00 -4.0945564464209354e-08 -8.2845207918122776e-08  1.0000000017086245e+01 5.4979218070595976e-08 1.0595076825911411e-07  9.9999999752059203e+00 -7.2970929846558509e-08 -1.3484893738159832e-07  1.0000000035004543e+01 9.6008809030899410e-08 1.7096587065600756e-07  9.9999999515509899e+00 -1.2557696176432008e-07 -2.1608624268815021e-07  1.0000000065960833e+01 1.6320619080248623e-07 2.7251916949185960e-07  9.9999999121854408e+00 -2.1052315829758004e-07 -3.4321966993438628e-07  1.0000000114508001e+01 2.6878580186935976e-07 4.3204001095511936e-07  9.9999998538671537e+00 -3.4064852086275441e-07 -5.4358889862118414e-07  1.0000000185809141e+01 4.2953857696269979e-07 6.8360832046340221e-07  9.9999997644355538e+00 -5.4317187635165080e-07 -8.5842600949612426e-07  1.0000000302314527e+01 6.8658406999179028e-07 1.0767493578687007e-06  9.9999996184114899e+00 -8.6827225820502598e-07 -1.3482474893109637e-06  1.0000000479250717e+01 1.0837547583765308e-06 1.6883330573247573e-06  9.9999994223602684e+00 -1.3447929151608592e-06 -2.1108890696023201e-06  1.0000000707663725e+01 1.6499422573435690e-06 2.6391824723574060e-06  9.9999991474857293e+00 -2.0514110018576716e-06 -3.2848191040642035e-06  1.0000001097209855e+01 2.5552642949427834e-06 4.0825532594754053e-06  9.9999986415536171e+00 -3.2250108598076825e-06 -5.0431992876979542e-06  1.0000001728398505e+01 3.9797602117074751e-06 6.2398017859526088e-06  9.9999980255131007e+00 -4.8497844129990655e-06 -7.6858127632950021e-06  1.0000002330830267e+01 5.7629919374402915e-06 9.4959681808483403e-06  9.9999973860083191e+00 -6.9382814706407864e-06 -1.1635079897748597e-05  1.0000003365851136e+01 8.5510724409624303e-06 1.4226789620242634e-05  9.9999956997076929e+00 -1.0736387833219262e-05 -1.7215978832205801e-05  1.0000005514585235e+01 1.3393282065511024e-05 2.0817842313680553e-05  9.9999936902288606e+00 -1.5787181672633802e-05 -2.5146828567396693e-05  1.0000006342700136e+01 1.8018451404962267e-05 3.0381772183472017e-05  9.9999934430474244e+00 -2.0051170883070093e-05 -3.6656190824165344e-05  1.0000007373991291e+01 2.4030094892371642e-05 4.3566253423715968e-05  9.9999888023539008e+00 -3.0514830466813244e-05 -5.1344872075525205e-05  1.0000015222114801e+01 3.9006320645781830e-05 5.9635303989821252e-05  9.9999819695793821e+00 -4.5989815085179170e-05 -6.9633157360706892e-05  1.0000014790517898e+01 4.7451339216322678e-05 8.1635901782268989e-05  9.9999915943074793e+00 -4.5337277962870707e-05 -9.5576470268414238e-05  1.0000005204941141e+01 4.8215021762905055e-05 1.1026744319312584e-04  9.9999834733512944e+00 -6.1453791427712844e-05 -1.2264351160184417e-04  1.0000030376551848e+01 9.5794338599945172e-05 1.334966209867