<?xml version="1.0"?>
<VTKFile type="UnstructuredGrid"  version="0.1"  >
<UnstructuredGrid>
<Piece  NumberOfPoints="8241" NumberOfCells="16000">
<Points>
<DataArray  type="Float64"  NumberOfComponents="3"  format="ascii">-5 -1 0  -4.95 -1 0  -4.9 -1 0  -4.85 -1 0  -4.8 -1 0  -4.75 -1 0  -4.7 -1 0  -4.65 -1 0  -4.6 -1 0  -4.55 -1 0  -4.5 -1 0  -4.45 -1 0  -4.4 -1 0  -4.35 -1 0  -4.3 -1 0  -4.25 -1 0  -4.2 -1 0  -4.15 -1 0  -4.1 -1 0  -4.05 -1 0  -4 -1 0  -3.95 -1 0  -3.9 -1 0  -3.85 -1 0  -3.8 -1 0  -3.75 -1 0  -3.7 -1 0  -3.65 -1 0  -3.6 -1 0  -3.55 -1 0  -3.5 -1 0  -3.45 -1 0  -3.4 -1 0  -3.35 -1 0  -3.3 -1 0  -3.25 -1 0  -3.2 -1 0  -3.15 -1 0  -3.1 -1 0  -3.05 -1 0  -3 -1 0  -2.95 -1 0  -2.9 -1 0  -2.85 -1 0  -2.8 -1 0  -2.75 -1 0  -2.7 -1 0  -2.65 -1 0  -2.6 -1 0  -2.55 -1 0  -2.5 -1 0  -2.45 -1 0  -2.4 -1 0  -2.35 -1 0  -2.3 -1 0  -2.25 -1 0  -2.2 -1 0  -2.15 -1 0  -2.1 -1 0  -2.05 -1 0  -2 -1 0  -1.95 -1 0  -1.9 -1 0  -1.85 -1 0  -1.8 -1 0  -1.75 -1 0  -1.7 -1 0  -1.65 -1 0  -1.6 -1 0  -1.55 -1 0  -1.5 -1 0  -1.45 -1 0  -1.4 -1 0  -1.35 -1 0  -1.3 -1 0  -1.25 -1 0  -1.2 -1 0  -1.15 -1 0  -1.1 -1 0  -1.05 -1 0  -1 -1 0  -0.9500000000000002 -1 0  -0.9000000000000004 -1 0  -0.8499999999999996 -1 0  -0.7999999999999998 -1 0  -0.75 -1 0  -0.7000000000000002 -1 0  -0.6500000000000004 -1 0  -0.5999999999999996 -1 0  -0.5499999999999998 -1 0  -0.5 -1 0  -0.4500000000000002 -1 0  -0.4000000000000004 -1 0  -0.3499999999999996 -1 0  -0.2999999999999998 -1 0  -0.25 -1 0  -0.2000000000000002 -1 0  -0.1500000000000004 -1 0  -0.09999999999999964 -1 0  -0.04999999999999982 -1 0  0 -1 0  0.04999999999999982 -1 0  0.09999999999999964 -1 0  0.1500000000000004 -1 0  0.2000000000000002 -1 0  0.25 -1 0  0.2999999999999998 -1 0  0.3499999999999996 -1 0  0.4000000000000004 -1 0  0.4500000000000002 -1 0  0.5 -1 0  0.5499999999999998 -1 0  0.5999999999999996 -1 0  0.6500000000000004 -1 0  0.7000000000000002 -1 0  0.75 -1 0  0.7999999999999998 -1 0  0.8499999999999996 -1 0  0.9000000000000004 -1 0  0.9500000000000002 -1 0  1 -1 0  1.05 -1 0  1.1 -1 0  1.15 -1 0  1.2 -1 0  1.25 -1 0  1.3 -1 0  1.35 -1 0  1.4 -1 0  1.45 -1 0  1.5 -1 0  1.55 -1 0  1.6 -1 0  1.65 -1 0  1.7 -1 0  1.75 -1 0  1.8 -1 0  1.85 -1 0  1.9 -1 0  1.95 -1 0  2 -1 0  2.05 -1 0  2.1 -1 0  2.15 -1 0  2.2 -1 0  2.25 -1 0  2.3 -1 0  2.35 -1 0  2.4 -1 0  2.45 -1 0  2.5 -1 0  2.55 -1 0  2.6 -1 0  2.65 -1 0  2.7 -1 0  2.75 -1 0  2.8 -1 0  2.85 -1 0  2.9 -1 0  2.95 -1 0  3 -1 0  3.050000000000001 -1 0  3.1 -1 0  3.15 -1 0  3.199999999999999 -1 0  3.25 -1 0  3.300000000000001 -1 0  3.35 -1 0  3.4 -1 0  3.449999999999999 -1 0  3.5 -1 0  3.550000000000001 -1 0  3.6 -1 0  3.65 -1 0  3.699999999999999 -1 0  3.75 -1 0  3.800000000000001 -1 0  3.85 -1 0  3.9 -1 0  3.949999999999999 -1 0  4 -1 0  4.050000000000001 -1 0  4.1 -1 0  4.15 -1 0  4.199999999999999 -1 0  4.25 -1 0  4.300000000000001 -1 0  4.35 -1 0  4.4 -1 0  4.449999999999999 -1 0  4.5 -1 0  4.550000000000001 -1 0  4.6 -1 0  4.65 -1 0  4.699999999999999 -1 0  4.75 -1 0  4.800000000000001 -1 0  4.85 -1 0  4.9 -1 0  4.949999999999999 -1 0  5 -1 0  -5 -0.95 0  -4.95 -0.95 0  -4.9 -0.95 0  -4.85 -0.95 0  -4.8 -0.95 0  -4.75 -0.95 0  -4.7 -0.95 0  -4.65 -0.95 0  -4.6 -0.95 0  -4.55 -0.95 0  -4.5 -0.95 0  -4.45 -0.95 0  -4.4 -0.95 0  -4.35 -0.95 0  -4.3 -0.95 0  -4.25 -0.95 0  -4.2 -0.95 0  -4.15 -0.95 0  -4.1 -0.95 0  -4.05 -0.95 0  -4 -0.95 0  -3.95 -0.95 0  -3.9 -0.95 0  -3.85 -0.95 0  -3.8 -0.95 0  -3.75 -0.95 0  -3.7 -0.95 0  -3.65 -0.95 0  -3.6 -0.95 0  -3.55 -0.95 0  -3.5 -0.95 0  -3.45 -0.95 0  -3.4 -0.95 0  -3.35 -0.95 0  -3.3 -0.95 0  -3.25 -0.95 0  -3.2 -0.95 0  -3.15 -0.95 0  -3.1 -0.95 0  -3.05 -0.95 0  -3 -0.95 0  -2.95 -0.95 0  -2.9 -0.95 0  -2.85 -0.95 0  -2.8 -0.95 0  -2.75 -0.95 0  -2.7 -0.95 0  -2.65 -0.95 0  -2.6 -0.95 0  -2.55 -0.95 0  -2.5 -0.95 0  -2.45 -0.95 0  -2.4 -0.95 0  -2.35 -0.95 0  -2.3 -0.95 0  -2.25 -0.95 0  -2.2 -0.95 0  -2.15 -0.95 0  -2.1 -0.95 0  -2.05 -0.95 0  -2 -0.95 0  -1.95 -0.95 0  -1.9 -0.95 0  -1.85 -0.95 0  -1.8 -0.95 0  -1.75 -0.95 0  -1.7 -0.95 0  -1.65 -0.95 0  -1.6 -0.95 0  -1.55 -0.95 0  -1.5 -0.95 0  -1.45 -0.95 0  -1.4 -0.95 0  -1.35 -0.95 0  -1.3 -0.95 0  -1.25 -0.95 0  -1.2 -0.95 0  -1.15 -0.95 0  -1.1 -0.95 0  -1.05 -0.95 0  -1 -0.95 0  -0.9500000000000002 -0.95 0  -0.9000000000000004 -0.95 0  -0.8499999999999996 -0.95 0  -0.7999999999999998 -0.95 0  -0.75 -0.95 0  -0.7000000000000002 -0.95 0  -0.6500000000000004 -0.95 0  -0.5999999999999996 -0.95 0  -0.5499999999999998 -0.95 0  -0.5 -0.95 0  -0.4500000000000002 -0.95 0  -0.4000000000000004 -0.95 0  -0.3499999999999996 -0.95 0  -0.2999999999999998 -0.95 0  -0.25 -0.95 0  -0.2000000000000002 -0.95 0  -0.1500000000000004 -0.95 0  -0.09999999999999964 -0.95 0  -0.04999999999999982 -0.95 0  0 -0.95 0  0.04999999999999982 -0.95 0  0.09999999999999964 -0.95 0  0.1500000000000004 -0.95 0  0.2000000000000002 -0.95 0  0.25 -0.95 0  0.2999999999999998 -0.95 0  0.3499999999999996 -0.95 0  0.4000000000000004 -0.95 0  0.4500000000000002 -0.95 0  0.5 -0.95 0  0.5499999999999998 -0.95 0  0.5999999999999996 -0.95 0  0.6500000000000004 -0.95 0  0.7000000000000002 -0.95 0  0.75 -0.95 0  0.7999999999999998 -0.95 0  0.8499999999999996 -0.95 0  0.9000000000000004 -0.95 0  0.9500000000000002 -0.95 0  1 -0.95 0  1.05 -0.95 0  1.1 -0.95 0  1.15 -0.95 0  1.2 -0.95 0  1.25 -0.95 0  1.3 -0.95 0  1.35 -0.95 0  1.4 -0.95 0  1.45 -0.95 0  1.5 -0.95 0  1.55 -0.95 0  1.6 -0.95 0  1.65 -0.95 0  1.7 -0.95 0  1.75 -0.95 0  1.8 -0.95 0  1.85 -0.95 0  1.9 -0.95 0  1.95 -0.95 0  2 -0.95 0  2.05 -0.95 0  2.1 -0.95 0  2.15 -0.95 0  2.2 -0.95 0  2.25 -0.95 0  2.3 -0.95 0  2.35 -0.95 0  2.4 -0.95 0  2.45 -0.95 0  2.5 -0.95 0  2.55 -0.95 0  2.6 -0.95 0  2.65 -0.95 0  2.7 -0.95 0  2.75 -0.95 0  2.8 -0.95 0  2.85 -0.95 0  2.9 -0.95 0  2.95 -0.95 0  3 -0.95 0  3.050000000000001 -0.95 0  3.1 -0.95 0  3.15 -0.95 0  3.199999999999999 -0.95 0  3.25 -0.95 0  3.300000000000001 -0.95 0  3.35 -0.95 0  3.4 -0.95 0  3.449999999999999 -0.95 0  3.5 -0.95 0  3.550000000000001 -0.95 0  3.6 -0.95 0  3.65 -0.95 0  3.699999999999999 -0.95 0  3.75 -0.95 0  3.800000000000001 -0.95 0  3.85 -0.95 0  3.9 -0.95 0  3.949999999999999 -0.95 0  4 -0.95 0  4.050000000000001 -0.95 0  4.1 -0.95 0  4.15 -0.95 0  4.199999999999999 -0.95 0  4.25 -0.95 0  4.300000000000001 -0.95 0  4.35 -0.95 0  4.4 -0.95 0  4.449999999999999 -0.95 0  4.5 -0.95 0  4.550000000000001 -0.95 0  4.6 -0.95 0  4.65 -0.95 0  4.699999999999999 -0.95 0  4.75 -0.95 0  4.800000000000001 -0.95 0  4.85 -0.95 0  4.9 -0.95 0  4.949999999999999 -0.95 0  5 -0.95 0  -5 -0.9 0  -4.95 -0.9 0  -4.9 -0.9 0  -4.85 -0.9 0  -4.8 -0.9 0  -4.75 -0.9 0  -4.7 -0.9 0  -4.65 -0.9 0  -4.6 -0.9 0  -4.55 -0.9 0  -4.5 -0.9 0  -4.45 -0.9 0  -4.4 -0.9 0  -4.35 -0.9 0  -4.3 -0.9 0  -4.25 -0.9 0  -4.2 -0.9 0  -4.15 -0.9 0  -4.1 -0.9 0  -4.05 -0.9 0  -4 -0.9 0  -3.95 -0.9 0  -3.9 -0.9 0  -3.85 -0.9 0  -3.8 -0.9 0  -3.75 -0.9 0  -3.7 -0.9 0  -3.65 -0.9 0  -3.6 -0.9 0  -3.55 -0.9 0  -3.5 -0.9 0  -3.45 -0.9 0  -3.4 -0.9 0  -3.35 -0.9 0  -3.3 -0.9 0  -3.25 -0.9 0  -3.2 -0.9 0  -3.15 -0.9 0  -3.1 -0.9 0  -3.05 -0.9 0  -3 -0.9 0  -2.95 -0.9 0  -2.9 -0.9 0  -2.85 -0.9 0  -2.8 -0.9 0  -2.75 -0.9 0  -2.7 -0.9 0  -2.65 -0.9 0  -2.6 -0.9 0  -2.55 -0.9 0  -2.5 -0.9 0  -2.45 -0.9 0  -2.4 -0.9 0  -2.35 -0.9 0  -2.3 -0.9 0  -2.25 -0.9 0  -2.2 -0.9 0  -2.15 -0.9 0  -2.1 -0.9 0  -2.05 -0.9 0  -2 -0.9 0  -1.95 -0.9 0  -1.9 -0.9 0  -1.85 -0.9 0  -1.8 -0.9 0  -1.75 -0.9 0  -1.7 -0.9 0  -1.65 -0.9 0  -1.6 -0.9 0  -1.55 -0.9 0  -1.5 -0.9 0  -1.45 -0.9 0  -1.4 -0.9 0  -1.35 -0.9 0  -1.3 -0.9 0  -1.25 -0.9 0  -1.2 -0.9 0  -1.15 -0.9 0  -1.1 -0.9 0  -1.05 -0.9 0  -1 -0.9 0  -0.9500000000000002 -0.9 0  -0.9000000000000004 -0.9 0  -0.8499999999999996 -0.9 0  -0.7999999999999998 -0.9 0  -0.75 -0.9 0  -0.7000000000000002 -0.9 0  -0.6500000000000004 -0.9 0  -0.5999999999999996 -0.9 0  -0.5499999999999998 -0.9 0  -0.5 -0.9 0  -0.4500000000000002 -0.9 0  -0.4000000000000004 -0.9 0  -0.3499999999999996 -0.9 0  -0.2999999999999998 -0.9 0  -0.25 -0.9 0  -0.2000000000000002 -0.9 0  -0.1500000000000004 -0.9 0  -0.09999999999999964 -0.9 0  -0.04999999999999982 -0.9 0  0 -0.9 0  0.04999999999999982 -0.9 0  0.09999999999999964 -0.9 0  0.1500000000000004 -0.9 0  0.2000000000000002 -0.9 0  0.25 -0.9 0  0.2999999999999998 -0.9 0  0.3499999999999996 -0.9 0  0.4000000000000004 -0.9 0  0.4500000000000002 -0.9 0  0.5 -0.9 0  0.5499999999999998 -0.9 0  0.5999999999999996 -0.9 0  0.6500000000000004 -0.9 0  0.7000000000000002 -0.9 0  0.75 -0.9 0  0.7999999999999998 -0.9 0  0.8499999999999996 -0.9 0  0.9000000000000004 -0.9 0  0.9500000000000002 -0.9 0  1 -0.9 0  1.05 -0.9 0  1.1 -0.9 0  1.15 -0.9 0  1.2 -0.9 0  1.25 -0.9 0  1.3 -0.9 0  1.35 -0.9 0  1.4 -0.9 0  1.45 -0.9 0  1.5 -0.9 0  1.55 -0.9 0  1.6 -0.9 0  1.65 -0.9 0  1.7 -0.9 0  1.75 -0.9 0  1.8 -0.9 0  1.85 -0.9 0  1.9 -0.9 0  1.95 -0.9 0  2 -0.9 0  2.05 -0.9 0  2.1 -0.9 0  2.15 -0.9 0  2.2 -0.9 0  2.25 -0.9 0  2.3 -0.9 0  2.35 -0.9 0  2.4 -0.9 0  2.45 -0.9 0  2.5 -0.9 0  2.55 -0.9 0  2.6 -0.9 0  2.65 -0.9 0  2.7 -0.9 0  2.75 -0.9 0  2.8 -0.9 0  2.85 -0.9 0  2.9 -0.9 0  2.95 -0.9 0  3 -0.9 0  3.050000000000001 -0.9 0  3.1 -0.9 0  3.15 -0.9 0  3.199999999999999 -0.9 0  3.25 -0.9 0  3.300000000000001 -0.9 0  3.35 -0.9 0  3.4 -0.9 0  3.449999999999999 -0.9 0  3.5 -0.9 0  3.550000000000001 -0.9 0  3.6 -0.9 0  3.65 -0.9 0  3.699999999999999 -0.9 0  3.75 -0.9 0  3.800000000000001 -0.9 0  3.85 -0.9 0  3.9 -0.9 0  3.949999999999999 -0.9 0  4 -0.9 0  4.050000000000001 -0.9 0  4.1 -0.9 0  4.15 -0.9 0  4.199999999999999 -0.9 0  4.25 -0.9 0  4.300000000000001 -0.9 0  4.35 -0.9 0  4.4 -0.9 0  4.449999999999999 -0.9 0  4.5 -0.9 0  4.550000000000001 -0.9 0  4.6 -0.9 0  4.65 -0.9 0  4.699999999999999 -0.9 0  4.75 -0.9 0  4.800000000000001 -0.9 0  4.85 -0.9 0  4.9 -0.9 0  4.949999999999999 -0.9 0  5 -0.9 0  -5 -0.85 0  -4.95 -0.85 0  -4.9 -0.85 0  -4.85 -0.85 0  -4.8 -0.85 0  -4.75 -0.85 0  -4.7 -0.85 0  -4.65 -0.85 0  -4.6 -0.85 0  -4.55 -0.85 0  -4.5 -0.85 0  -
[...]
<PointData  Vectors="f_15"> 
<DataArray  type="Float64"  Name="f_15"  NumberOfComponents="3" format="ascii">1.0000000632514489e+01 0.0000000000000000e+00 0.0000000000000000e+00  9.9999994384791311e+00 -4.8129710185499836e-07 0.0000000000000000e+00  1.0000000526154253e+01 5.3974613423170751e-07 0.0000000000000000e+00  9.9999994390221669e+00 -5.6741550877147273e-07 0.0000000000000000e+00  1.0000000644208646e+01 5.8104957660064967e-07 0.0000000000000000e+00  9.9999992633630637e+00 -6.0916675690351727e-07 0.0000000000000000e+00  1.0000000844151673e+01 6.6236497956192369e-07 0.0000000000000000e+00  9.9999990280227422e+00 -7.2990536152183514e-07 0.0000000000000000e+00  1.0000001147519050e+01 8.2051482492634520e-07 0.0000000000000000e+00  9.9999986068835973e+00 -9.4881015843527957e-07 0.0000000000000000e+00  1.0000001726728572e+01 1.1331366122318198e-06 0.0000000000000000e+00  9.9999978468992872e+00 -1.3764419500641583e-06 0.0000000000000000e+00  1.0000002676160269e+01 1.6717819986937957e-06 0.0000000000000000e+00  9.9999966838115490e+00 -2.0222098036514450e-06 0.0000000000000000e+00  1.0000004124439396e+01 2.4653941543255498e-06 0.0000000000000000e+00  9.9999948265141256e+00 -3.0716814875903426e-06 0.0000000000000000e+00  1.0000006524671175e+01 3.9082233319933716e-06 0.0000000000000000e+00  9.9999918030784070e+00 -4.9929450496117919e-06 0.0000000000000000e+00  1.0000010171657093e+01 6.2878949492613602e-06 0.0000000000000000e+00  9.9999875550652195e+00 -7.7553261586034427e-06 0.0000000000000000e+00  1.0000015085131942e+01 9.4445836578154103e-06 0.0000000000000000e+00  9.9999817614382209e+00 -1.1518432392006388e-05 0.0000000000000000e+00  1.0000022039583671e+01 1.4169565122471521e-05 0.0000000000000000e+00  9.9999735011811843e+00 -1.7450308251489767e-05 0.0000000000000000e+00  1.0000031444218994e+01 2.1194047670528702e-05 0.0000000000000000e+00  9.9999633426146204e+00 -2.5102701269808002e-05 0.0000000000000000e+00  1.0000042039408385e+01 2.9060404001212102e-05 0.0000000000000000e+00  9.9999522012351676e+00 -3.3279213442251128e-05 0.0000000000000000e+00  1.0000054196040749e+01 3.8270395199820180e-05 0.0000000000000000e+00  9.9999386389318126e+00 -4.4212213730131171e-05 0.0000000000000000e+00  1.0000068715513773e+01 5.0755634957900038e-05 0.0000000000000000e+00  9.9999244370028091e+00 -5.6712242897826603e-05 0.0000000000000000e+00  1.0000080987797441e+01 6.1433497718529158e-05 0.0000000000000000e+00  9.9999144346310800e+00 -6.4749796733179051e-05 0.0000000000000000e+00  1.0000089686251473e+01 6.8491929762696919e-05 0.0000000000000000e+00  9.9999048993839317e+00 -7.3184336115424321e-05 0.0000000000000000e+00  1.0000100045914191e+01 7.9591435726177203e-05 0.0000000000000000e+00  9.9998956246508435e+00 -8.3637273832625682e-05 0.0000000000000000e+00  1.0000103229137618e+01 8.4740344021491258e-05 0.0000000000000000e+00  9.9998997299244703e+00 -7.9355692276250527e-05 0.0000000000000000e+00  1.0000093148138246e+01 7.5208026922436139e-05 0.0000000000000000e+00  9.9999073090321584e+00 -7.1232055424164673e-05 0.0000000000000000e+00  1.0000090383772823e+01 7.6404862859621179e-05 0.0000000000000000e+00  9.9999056038643559e+00 -7.6125578697021598e-05 0.0000000000000000e+00  1.0000082904114635e+01 7.5073711263097157e-05 0.0000000000000000e+00  9.9999267596873800e+00 -5.5333279480518664e-05 0.0000000000000000e+00  1.0000047874671811e+01 4.1394042201282600e-05 0.0000000000000000e+00  9.9999552505165106e+00 -2.5202974324194523e-05 0.0000000000000000e+00  1.0000037408876310e+01 3.4812427589042933e-05 0.0000000000000000e+00  9.9999473845788476e+00 -3.9304993808645934e-05 0.0000000000000000e+00  1.0000040156209774e+01 4.3668662295280456e-05 0.0000000000000000e+00  9.9999729209931445e+00 -1.9498935867855920e-05 0.0000000000000000e+00  9.9999912679423915e+00 -8.0754111367967348e-06 0.0000000000000000e+00  1.0000019169873294e+01 2.4429770635011909e-05 0.0000000000000000e+00  9.9999861574652655e+00 -1.2658648228975925e-05 0.0000000000000000e+00  9.9999847389617429e+00 -1.3580536277085831e-05 0.0000000000000000e+00  1.0000015780699821e+01 3.5688864070445831e-05 0.0000000000000000e+00  9.9999777291464795e+00 2.7362862645323129e-06 0.0000000000000000e+00  9.9999349749406523e+00 1.6956313162861316e-05 0.0000000000000000e+00  9.9999769293265590e+00 1.0773962632088528e-04 0.0000000000000000e+00  9.9998364594616831e+00 1.1366546904688666e-04 0.0000000000000000e+00  9.9997594973041970e+00 2.1423497997117937e-04 0.0000000000000000e+00  9.9996271977672553e+00 4.4834414523316110e-04 0.0000000000000000e+00  9.9992954221572443e+00 6.3433337622671628e-04 0.0000000000000000e+00  9.9988640335373908e+00 1.1329552328945404e-03 0.0000000000000000e+00  9.9981961285769074e+00 1.8113136849267515e-03 0.0000000000000000e+00  9.9970274934834986e+00 2.9230796236212929e-03 0.0000000000000000e+00  9.9953312727645134e+00 4.5725005069557527e-03 0.0000000000000000e+00  9.9927521129594261e+00 7.2514056492541720e-03 0.0000000000000000e+00  9.9887718644880827e+00 1.0996033105717860e-02 0.0000000000000000e+00  9.9830775408189023e+00 1.6818377718723819e-02 0.0000000000000000e+00  9.9747851136240602e+00 2.4903931239757652e-02 0.0000000000000000e+00  9.9630490745256530e+00 3.6597851845465407e-02 0.0000000000000000e+00  9.9468899574657801e+00 5.2569155114329684e-02 0.0000000000000000e+00  9.9249672062633838e+00 7.4432726328869617e-02 0.0000000000000000e+00  9.8958411377081621e+00 1.0317877019822527e-01 0.0000000000000000e+00  9.8582018777836815e+00 1.4085312792033361e-01 0.0000000000000000e+00  9.8103141516184404e+00 1.8840190622708131e-01 0.0000000000000000e+00  9.7508351440819432e+00 2.4793865444069971e-01 0.0000000000000000e+00  9.6784474280075923e+00 3.2036077869753016e-01 0.0000000000000000e+00  9.5921479613834535e+00 4.0732956756229460e-01 0.0000000000000000e+00  9.4909643206710488e+00 5.0928467956318457e-01 0.0000000000000000e+00  9.3748363369443997e+00 6.2742533552231639e-01 0.0000000000000000e+00  9.2434398500759976e+00 7.6151128069838725e-01 0.0000000000000000e+00  9.0973027322958195e+00 9.1200697762629857e-01 0.0000000000000000e+00  8.9369432316512238e+00 1.0781508116496512e+00 0.0000000000000000e+00  8.7636115910345822e+00 1.2598583563361163e+00 0.0000000000000000e+00  8.5781102032270518e+00 1.4556909114893082e+00 0.0000000000000000e+00  8.3822481375617208e+00 1.6652794778618709e+00 0.0000000000000000e+00  8.1772875667785030e+00 1.8869009025920345e+00 0.0000000000000000e+00  7.9648907468426540e+00 2.1196819492188483e+00 0.0000000000000000e+00  7.7466992952365032e+00 2.3618915621248910e+00 0.0000000000000000e+00  7.5243336350384293e+00 2.6127566196964738e+00 0.0000000000000000e+00  7.2991691912055741e+00 2.8700698267144262e+00 0.0000000000000000e+00  7.0727974520390413e+00 3.1331937220865074e+00 0.0000000000000000e+00  6.8464796032052648e+00 3.4005543992187648e+00 0.0000000000000000e+00  6.6210953970803832e+00 3.6713684679241307e+00 0.0000000000000000e+00  6.3979251611256096e+00 3.9439974669909774e+00 0.0000000000000000e+00  6.1775722330874032e+00 4.2181372677801070e+00 0.0000000000000000e+00  5.9608077936572421e+00 4.4924199145166472e+00 0.0000000000000000e+00  5.7483213908890605e+00 4.7667684310962022e+00 0.0000000000000000e+00  5.5409188744133875e+00 5.0392079504574641e+00 0.0000000000000000e+00  5.3391413888699004e+00 5.3092961542275985e+00 0.0000000000000000e+00  5.1438793346546312e+00 5.5755447750458096e+00 0.0000000000000000e+00  4.9556651406391197e+00 5.8370293804869338e+00 0.0000000000000000e+00  4.7757183202834161e+00 6.0916178075150427e+00 0.0000000000000000e+00  4.6064720376522494e+00 6.3355775450503335e+00 0.0000000000000000e+00  4.4505894427117152e+00 6.5643254220756884e+00 0.0000000000000000e+00  4.3111781558621267e+00 6.7721303161104931e+00 0.0000000000000000e+00  4.1951466464843490e+00 6.9475545581908644e+00 0.0000000000000000e+00  4.1097137862883342e+00 7.0780486543312406e+00 0.0000000000000000e+00  4.0549861629500912e+00 7.1617071153518745e+00 0.0000000000000000e+00  4.0220304495811332e+00 7.2114252510173769e+00 0.0000000000000000e+00  4.0004631488784748e+00 7.2424139884393846e+00 0.0000000000000000e+00  3.9847055946005541e+00 7.2627892387746984e+00 0.0000000000000000e+00  3.9718766328676698e+00 7.2743141744955215e+00 0.0000000000000000e+00  3.9601805178750964e+00 7.2774207893887235e+00 0.0000000000000000e+00  3.9459492188338832e+00 7.2690682188731719e+00 0.0000000000000000e+00  3.9258355190330483e+00 7.2462981012629504e+00 0.0000000000000000e+00  3.8907178492427930e+00 7.1961110358889941e+00 0.0000000000000000e+00  3.8318002758589760e+00 7.1050697483762644e+00 0.0000000000000000e+00  3.7225845800126800e+00 6.9282922348833020e+00 0.0000000000000000e+00  3.5376626027438038e+00 6.6155301393792803e+00 0.0000000000000000e+00  3.2108990448902794e+00 6.0202913527518955e+00 0.0000000000000000e+00  2.7090258234512428e+00 4.9942356927338265e+00 0.0000000000000000e+00  1.9620788075899831e+00 3.0819299253402774e+00 0.0000000000000000e+00  1.2324526390536732e+00 7.4916860708286492e-01 0.0000000000000000e+00  1.0190418720394181e+00 6.0390493249539212e-02 0.0000000000000000e+00  1.0009966573211477e+00 2.8869683136470755e-03 0.0000000000000000e+00  1.0000289471040624e+00 4.4912420858772594e-04 0.0000000000000000e+00  1.0000163492513747e+00 -2.6221135106582577e-05 0.0000000000000000e+00  1.0000024579698987e+00 1.6446648987911261e-06 0.0000000000000000e+00  9.9999741654591390e-01 6.9536207132627165e-06 0.0000000000000000e+00  1.0000012461531702e+00 -3.3969294013882848e-06 0.0000000000000000e+00  9.9999970915756697e-01 8.8923882413709346e-07 0.0000000000000000e+00  9.9999998114072020e-01 2.6073690124709104e-08 0.0000000000000000e+00  1.0000000455662679e+00 -1.2935572217146142e-07 0.0000000000000000e+00  9.9999998774000720e-01 4.2046361799229092e-08 0.0000000000000000e+00  9.9999999360507208e-01 1.4634078011828015e-08 0.0000000000000000e+00  1.0000000068808961e+00 -2.0157099307463624e-08 0.0000000000000000e+00  9.9999999840790632e-01 6.4470321621351400e-09 0.0000000000000000e+00  9.9999999823393426e-01 3.7336045009109271e-09 0.0000000000000000e+00  1.0000000020543651e+00 -5.5385568979852852e-09 0.0000000000000000e+00  9.9999999904543113e-01 2.9380290684921559e-09 0.0000000000000000e+00  9.9999999998865097e-01 -2.4349399713454341e-10 0.0000000000000000e+00  1.0000000003591505e+00 -8.8994853524112522e-10 0.0000000000000000e+00  9.9999999971753928e-01 7.9872182591495654e-10 0.0000000000000000e+00  1.0000000001009961e+00 -3.2853445918376295e-10 0.0000000000000000e+00  1.0000000000123901e+00 -2.6744366752543740e-12 0.0000000000000000e+00  9.9999999996152178e-01 9.8964873843083123e-11 0.0000000000000000e+00  1.0000000000217635e+00 -6.5100104387111139e-11 0.0000000000000000e+00  9.9999999999820655e-01 1.1225343743753292e-11 0.0000000000000000e+00  9.9999999999313050e-01 1.5748765903544765e-11 0.0000000000000000e+00  1.0000000000063871e+00 -1.7113702768266083e-11 0.0000000000000000e+00  9.9999999999701383e-01 8.7866799876966067e-12 0.0000000000000000e+00  1.0000000000004674e+00 -1.7973438802099239e-12 0.0000000000000000e+00  1.0000000000004217e+00 -9.8964783826280683e-13 0.0000000000000000e+00  9.9999999999964373e-01 1.0279770102123499e-12 0.0000000000000000e+00  1.0000000000000777e+00 -3.0646218355589898e-13 0.0000000000000000e+00  1.0000000000000819e+00 -1.6501117533825964e-13 0.0000000000000000e+00  9.9999999999990119e-01 2.5502187295886134e-13 0.0000000000000000e+00  1.0000000000000577e+00 -1.6046259947203717e-13 0.0000000000000000e+00  9.9999999999998201e-01 5.5774810752641200e-14 0.0000000000000000e+00  1.0000000000000000e+00 -2.6837812178457977e-15 0.0000000000000000e+00  1.0000000000000029e+00 -8.4197874043481453e-15 0.0000000000000000e+00  9.9999999999999889e-01 2.6634471850748898e-15 0.0000000000000000e+00  9.9999999999999922e-01 2.4411154616342770e-15 0.0000000000000000e+00  1.0000000000000013e+00 -4.5399397048466086e-15 0.0000000000000000e+00  9.9999999999999933e-01 3.6745658716102742e-15 0.0000000000000000e+00  1.0000000000000004e+00 -1.2983662911827868e-15 0.0000000000000000e+00  9.9999999999999978e-01 -6.9762076562080715e-17 0.0000000000000000e+00  1.0000000000000004e+00 -3.1973121845157160e-16 0.0000000000000000e+00  1.0000000000000002e+00 -4.1788561044486876e-16 0.0000000000000000e+00  1.0000000000000004e+00 4.9214876114708042e-16 0.0000000000000000e+00  1.0000000000000000e+00 4.5342568044706191e-16 0.0000000000000000e+00  1.0000000000000002e+00 5.9970761425915733e-16 0.0000000000000000e+00  1.0000000000000004e+00 4.3670294628134242e-16 0.0000000000000000e+00  1.0000000000000000e+00 -1.1528901439480771e-15 0.0000000000000000e+00  1.0000000000000002e+00 6.1666683104275036e-16 0.0000000000000000e+00  1.0000000000000009e+00 -1.2016816236428294e-15 0.0000000000000000e+00  1.0000000000000000e+00 1.6815022014538356e-16 0.0000000000000000e+00  1.0000000000000004e+00 -4.5266673822260942e-16 0.0000000000000000e+00  1.0000000000000004e+00 7.0402873676776950e-16 0.0000000000000000e+00  1.0000000000000004e+00 -4.3471468839245852e-16 0.0000000000000000e+00  1.0000000000000002e+00 -1.6457413161862230e-16 0.0000000000000000e+00  1.0000000000000004e+00 -1.7793223966973603e-15 0.0000000000000000e+00  1.0000000000000007e+00 9.2807407074297993e-16 0.0000000000000000e+00  1.0000000000000007e+00 -7.4988035586292302e-16 0.0000000000000000e+00  1.0000000000000002e+00 5.3284131138995236e-16 0.0000000000000000e+00  1.0000000000000007e+00 -9.2025513049318083e-16 0.0000000000000000e+00  1.0000000000000004e+00 8.7257921033185240e-16 0.0000000000000000e+00  1.0000000000000002e+00 -5.8388271999015476e-16 0.0000000000000000e+00  1.0000000000000004e+00 1.4940535419412881e-15 0.0000000000000000e+00  1.0000000000000004e+00 1.1675323239749924e-16 0.0000000000000000e+00  1.0000000000000000e+00 1.8637779590901350e-15 0.0000000000000000e+00  1.0000000000000007e+00 2.0528436033602101e-17 0.0000000000000000e+00  9.9999999999999978e-01 2.6623956927206400e-16 0.0000000000000000e+00  1.0000000000000007e+00 -4.4363237556712940e-17 0.0000000000000000e+00  9.9999999999999989e-01 8.2078449720891129e-17 0.0000000000000000e+00  1.0000000000000004e+00 -3.5006812094161182e-16 0.0000000000000000e+00  9.9999999999999978e-01 0.0000000000000000e+00 0.0000000000000000e+00  1.0000000190473788e+01 0.0000000000000000e+00 2.6887828072930915e-07  9.9999997550010793e+00 7.6944481246721006e-08 -6.1718224047666318e-08  1.0000000136283889e+01 -3.5344539653512784e-08 -2.0146018549510450e-08  9.9999999025738902e+00 -9.0281906398309200e-08 -6.6435993973701061e-08  1.0000000045778387e+01 1.3604727870697071e-07 1.3231082681858818e-07  9.9999999580462688e+00 -1.7719011673694038e-07 -2.0732181536000120e-07  1.0000000035103840e+01 2.0195414558308955e-07 2.9169891431962616e-07  9.9999999730459805e+00 -2.4411354052735208e-07 -3.9938740636793993e-07  9.9999999939129989e+00 2.9123486901778084e-07 5.4268796937264726e-07  1.0000000057225105e+01 -3.4897383122287608e-07 -7.3510948468144314e-07  9.9999998814884421e+00 4.2407294694141767e-07 9.8942836949511352e-07  1.0000000174132115e+01 -5.3947619439364027e-07 -1.3185015625888627e-06  9.9999997761483943e+00 7.0917642842211343e-07 1.7379723677155863e-06  1.0000000286356219e+01 -9.2827138657953426e-07 -2.2699211091408170e-06  9.9999996077894906e+00 1.1749706720912641e-06 2.9439112042246538e-06  1.0000000556019996e+01 -1.4402916724949136e-06 -3.7932052267406105e-06  9.9999992445318462e+00 1.7562308408907236e-06 4.8480550192559232e-06  1.0000000940162328e+01 -2.1931515523579312e-06 -6.1321474593136347e-06  9.9999989244058654e+00 2.8118959167207786e-06 7.6671642214323796e-06  1.0000001189104767e+01 -3.6065092644181847e-06 -9.4830397539177282e-06  9.9999986345409582e+00 4.4945125398912199e-06 1.1623333295762780e-05  1.0000001678575197e+01 -5.3922941682424497e-06 -1.4135241090137321e-05  9.9999979018511098e+00 6.3206583295935959e-06 1.7046734035102540e-05  1.0000002477702417e+01 -7.4494773901319380e-06 -2.0348271499943786e-05  9.9999973528225379e+00 8.9783157334654695e-06 2.4000641351480435e-05  1.0000002598634705e+01 -1.0951445412915051e-05 -2.7967301320730318e-05  9.9999974699337493e+00 1.3114135855408369e-05 3.2245566268984279e-05  1.0000002760796178e+01 -1.5099319991361869e-05 -3.6853452091831495e-05  9.9999966463530345e+00 1.6701674775583758e-05 4.1774771507984868e-05  1.0000004053155150e+01 -1.8269586700551925e-05 -4.6893717451051002e-05  9.9999957803984412e+00 2.0358291425835379e-05 5.2010728091415126e-05  1.0000003669309558e+01 -2.3451597751588657e-05 -5.6923392126060643e-05  9.9999974159734322e+00 2.6912416539537104e-05 6.1563322037375248e-05  1.0000002241017937e+01 -2.9819862835015245e-05 -6.5977563996938204e-05  9.9999970594045990e+00 3.0784036521262321e-05 7.0248253303634980e-05  1.0000005021901085e+01 -3.0760371689411695e-05 -7.4225840842008544e-05  9.9999941044493532e+00 3.0643885797023321e-05 7.7610829556551799e-05  1.0000005511878523e+01 -3.3523302031658328e-05 -7.9976126556885707e-05  9.9999980974032638e+00 3.7304017069044231e-05 8.1353410416579850e-05  1.0000000586000763e+01 -4.1707005097376452e-05 -8.1955191577985813e-05  9.9999997442584885e+00 3.9752932623219952e-05 8.2451386755503939e-05  1.0000007128111447e+01 -3.5954191811384343e-05 -8.2693899575031384e-05  9.9999902997033736e+00 2.8054201131436016e-05 8.2575820194187376e-05  1.0000013175919769e+01 -3.0277297189088380e-05 -8.0947504504638040e-05  9.9999973735326719e+00 3.3453560216029510e-05 7.8273734281101364e-05  1.0000000049539880e+01 -4.4959560842763894e-05 -7.4511268876464921e-05  1.0000006885208533e+01 3.9700614272918436e-05 7.1738478429878610e-05  1.0000009991164333e+01 -3.2664414534161674e-05 -6.9302778735328712e-05  9.9999845844993498e+00 1.1495316888429838e-05 6.7744512853725071e-05  1.0000027686337010e+01 -1.1348688603420999e-05 -6.4361826532737722e-05  9.9999920617186167e+00 1.8240195235327693e-05 6.0011418472065558e-05  9.9999958867243350e+00 -3.8844515561480839e-05 -5.4458634895367345e-05  1.0000015724582559e+01 4.4087482854889305e-05 5.0416614298283160e-05  9.9999984639024220e+00 -2.1665224506582907e-05 -4.8236365357982058e-05  9.9999693003348131e+00 5.0420582282867825e-06 4.6526574253493818e-05  1.0000025810574435e+01 2.8689695763974669e-05 -4.4619384974229491e-05  9.9999586538310243e+00 2.2096158337478396e-05 3.9389080322166783e-05  9.9999550019893704e+00 3.7147397960177158e-06 -3.5425372163944235e-05  9.9999739374585346e+00 9.9462451895807020e-05 3.0286768343224288e-05  9.9998957002031865e+00 6.1992919831680779e-05 -2.9376122231920808e-05  9.9998319517981891e+00 1.3541679855346193e-04 2.6813294548076555e-05  9.9997977642155753e+00 2.6790820441048986e-04 -2.4694964789609709e-05  9.9995673309558413e+00 3.8299714664666534e-04 2.1236399881325546e-05  9.9993205411807597e+00 6.4655230718813148e-04 -1.5786705007991871e-05  9.9989291502736428e+00 1.1264389291794951e-03 1.4825485135346242e-05  9.9981681983470807e+00 1.7635717992757409e-03 -7.0708580448543685e-06  9.9970893621680883e+00 2.8783163833901592e-03 8.5984624723873712e-06  9.9954053087453243e+00 4.6053452582931814e-03 2.4018843610010221e-06  9.9927324119229155e+00 7.1526789737293367e-03 3.1191019471361664e-06  9.9888488702093845e+00 1.1071179292262957e-02 8.8649153550856286e-06  9.9831085615202095e+00 1.6765841117256930e-02 -1.7490170869125698e-06  9.9747639581257594e+00 2.4976608519108018e-02 1.8143402486939667e-05  9.9630972480415121e+00 3.6601392001851384e-02 -1.1655637855396178e-05  9.9468973533249585e+00 5.2673522475517223e-02 2.3515487107476331e-05  9.9249184194758069e+00 7.4410628734528611e-02 -1.3124757107180172e-05  9.8958967914695180e+00 1.0335059126441865e-01 1.7391028990783993e-05  9.8581789354384632e+00 1.4081730397951395e-01 -1.7730332207878551e-05  9.8102910090199682e+00 1.8852678691195274e-01 1.6679089270057256e-05  9.7508489386257136e+00 2.4794170587917830e-01 -2.5745194026458201e-05  9.6784834751667557e+00 3.2046142959248675e-01 5.0650854985648902e-06  9.5920700252663185e+00 4.0726667618367035e-01 -2.0020336576910356e-05  9.4910239296822017e+00