<?xml version="1.0"?>
<VTKFile type="UnstructuredGrid"  version="0.1"  >
<UnstructuredGrid>
<Piece  NumberOfPoints="8241" NumberOfCells="16000">
<Points>
<DataArray  type="Float64"  NumberOfComponents="3"  format="ascii">-5 -1 0  -4.95 -1 0  -4.9 -1 0  -4.85 -1 0  -4.8 -1 0  -4.75 -1 0  -4.7 -1 0  -4.65 -1 0  -4.6 -1 0  -4.55 -1 0  -4.5 -1 0  -4.45 -1 0  -4.4 -1 0  -4.35 -1 0  -4.3 -1 0  -4.25 -1 0  -4.2 -1 0  -4.15 -1 0  -4.1 -1 0  -4.05 -1 0  -4 -1 0  -3.95 -1 0  -3.9 -1 0  -3.85 -1 0  -3.8 -1 0  -3.75 -1 0  -3.7 -1 0  -3.65 -1 0  -3.6 -1 0  -3.55 -1 0  -3.5 -1 0  -3.45 -1 0  -3.4 -1 0  -3.35 -1 0  -3.3 -1 0  -3.25 -1 0  -3.2 -1 0  -3.15 -1 0  -3.1 -1 0  -3.05 -1 0  -3 -1 0  -2.95 -1 0  -2.9 -1 0  -2.85 -1 0  -2.8 -1 0  -2.75 -1 0  -2.7 -1 0  -2.65 -1 0  -2.6 -1 0  -2.55 -1 0  -2.5 -1 0  -2.45 -1 0  -2.4 -1 0  -2.35 -1 0  -2.3 -1 0  -2.25 -1 0  -2.2 -1 0  -2.15 -1 0  -2.1 -1 0  -2.05 -1 0  -2 -1 0  -1.95 -1 0  -1.9 -1 0  -1.85 -1 0  -1.8 -1 0  -1.75 -1 0  -1.7 -1 0  -1.65 -1 0  -1.6 -1 0  -1.55 -1 0  -1.5 -1 0  -1.45 -1 0  -1.4 -1 0  -1.35 -1 0  -1.3 -1 0  -1.25 -1 0  -1.2 -1 0  -1.15 -1 0  -1.1 -1 0  -1.05 -1 0  -1 -1 0  -0.9500000000000002 -1 0  -0.9000000000000004 -1 0  -0.8499999999999996 -1 0  -0.7999999999999998 -1 0  -0.75 -1 0  -0.7000000000000002 -1 0  -0.6500000000000004 -1 0  -0.5999999999999996 -1 0  -0.5499999999999998 -1 0  -0.5 -1 0  -0.4500000000000002 -1 0  -0.4000000000000004 -1 0  -0.3499999999999996 -1 0  -0.2999999999999998 -1 0  -0.25 -1 0  -0.2000000000000002 -1 0  -0.1500000000000004 -1 0  -0.09999999999999964 -1 0  -0.04999999999999982 -1 0  0 -1 0  0.04999999999999982 -1 0  0.09999999999999964 -1 0  0.1500000000000004 -1 0  0.2000000000000002 -1 0  0.25 -1 0  0.2999999999999998 -1 0  0.3499999999999996 -1 0  0.4000000000000004 -1 0  0.4500000000000002 -1 0  0.5 -1 0  0.5499999999999998 -1 0  0.5999999999999996 -1 0  0.6500000000000004 -1 0  0.7000000000000002 -1 0  0.75 -1 0  0.7999999999999998 -1 0  0.8499999999999996 -1 0  0.9000000000000004 -1 0  0.9500000000000002 -1 0  1 -1 0  1.05 -1 0  1.1 -1 0  1.15 -1 0  1.2 -1 0  1.25 -1 0  1.3 -1 0  1.35 -1 0  1.4 -1 0  1.45 -1 0  1.5 -1 0  1.55 -1 0  1.6 -1 0  1.65 -1 0  1.7 -1 0  1.75 -1 0  1.8 -1 0  1.85 -1 0  1.9 -1 0  1.95 -1 0  2 -1 0  2.05 -1 0  2.1 -1 0  2.15 -1 0  2.2 -1 0  2.25 -1 0  2.3 -1 0  2.35 -1 0  2.4 -1 0  2.45 -1 0  2.5 -1 0  2.55 -1 0  2.6 -1 0  2.65 -1 0  2.7 -1 0  2.75 -1 0  2.8 -1 0  2.85 -1 0  2.9 -1 0  2.95 -1 0  3 -1 0  3.050000000000001 -1 0  3.1 -1 0  3.15 -1 0  3.199999999999999 -1 0  3.25 -1 0  3.300000000000001 -1 0  3.35 -1 0  3.4 -1 0  3.449999999999999 -1 0  3.5 -1 0  3.550000000000001 -1 0  3.6 -1 0  3.65 -1 0  3.699999999999999 -1 0  3.75 -1 0  3.800000000000001 -1 0  3.85 -1 0  3.9 -1 0  3.949999999999999 -1 0  4 -1 0  4.050000000000001 -1 0  4.1 -1 0  4.15 -1 0  4.199999999999999 -1 0  4.25 -1 0  4.300000000000001 -1 0  4.35 -1 0  4.4 -1 0  4.449999999999999 -1 0  4.5 -1 0  4.550000000000001 -1 0  4.6 -1 0  4.65 -1 0  4.699999999999999 -1 0  4.75 -1 0  4.800000000000001 -1 0  4.85 -1 0  4.9 -1 0  4.949999999999999 -1 0  5 -1 0  -5 -0.95 0  -4.95 -0.95 0  -4.9 -0.95 0  -4.85 -0.95 0  -4.8 -0.95 0  -4.75 -0.95 0  -4.7 -0.95 0  -4.65 -0.95 0  -4.6 -0.95 0  -4.55 -0.95 0  -4.5 -0.95 0  -4.45 -0.95 0  -4.4 -0.95 0  -4.35 -0.95 0  -4.3 -0.95 0  -4.25 -0.95 0  -4.2 -0.95 0  -4.15 -0.95 0  -4.1 -0.95 0  -4.05 -0.95 0  -4 -0.95 0  -3.95 -0.95 0  -3.9 -0.95 0  -3.85 -0.95 0  -3.8 -0.95 0  -3.75 -0.95 0  -3.7 -0.95 0  -3.65 -0.95 0  -3.6 -0.95 0  -3.55 -0.95 0  -3.5 -0.95 0  -3.45 -0.95 0  -3.4 -0.95 0  -3.35 -0.95 0  -3.3 -0.95 0  -3.25 -0.95 0  -3.2 -0.95 0  -3.15 -0.95 0  -3.1 -0.95 0  -3.05 -0.95 0  -3 -0.95 0  -2.95 -0.95 0  -2.9 -0.95 0  -2.85 -0.95 0  -2.8 -0.95 0  -2.75 -0.95 0  -2.7 -0.95 0  -2.65 -0.95 0  -2.6 -0.95 0  -2.55 -0.95 0  -2.5 -0.95 0  -2.45 -0.95 0  -2.4 -0.95 0  -2.35 -0.95 0  -2.3 -0.95 0  -2.25 -0.95 0  -2.2 -0.95 0  -2.15 -0.95 0  -2.1 -0.95 0  -2.05 -0.95 0  -2 -0.95 0  -1.95 -0.95 0  -1.9 -0.95 0  -1.85 -0.95 0  -1.8 -0.95 0  -1.75 -0.95 0  -1.7 -0.95 0  -1.65 -0.95 0  -1.6 -0.95 0  -1.55 -0.95 0  -1.5 -0.95 0  -1.45 -0.95 0  -1.4 -0.95 0  -1.35 -0.95 0  -1.3 -0.95 0  -1.25 -0.95 0  -1.2 -0.95 0  -1.15 -0.95 0  -1.1 -0.95 0  -1.05 -0.95 0  -1 -0.95 0  -0.9500000000000002 -0.95 0  -0.9000000000000004 -0.95 0  -0.8499999999999996 -0.95 0  -0.7999999999999998 -0.95 0  -0.75 -0.95 0  -0.7000000000000002 -0.95 0  -0.6500000000000004 -0.95 0  -0.5999999999999996 -0.95 0  -0.5499999999999998 -0.95 0  -0.5 -0.95 0  -0.4500000000000002 -0.95 0  -0.4000000000000004 -0.95 0  -0.3499999999999996 -0.95 0  -0.2999999999999998 -0.95 0  -0.25 -0.95 0  -0.2000000000000002 -0.95 0  -0.1500000000000004 -0.95 0  -0.09999999999999964 -0.95 0  -0.04999999999999982 -0.95 0  0 -0.95 0  0.04999999999999982 -0.95 0  0.09999999999999964 -0.95 0  0.1500000000000004 -0.95 0  0.2000000000000002 -0.95 0  0.25 -0.95 0  0.2999999999999998 -0.95 0  0.3499999999999996 -0.95 0  0.4000000000000004 -0.95 0  0.4500000000000002 -0.95 0  0.5 -0.95 0  0.5499999999999998 -0.95 0  0.5999999999999996 -0.95 0  0.6500000000000004 -0.95 0  0.7000000000000002 -0.95 0  0.75 -0.95 0  0.7999999999999998 -0.95 0  0.8499999999999996 -0.95 0  0.9000000000000004 -0.95 0  0.9500000000000002 -0.95 0  1 -0.95 0  1.05 -0.95 0  1.1 -0.95 0  1.15 -0.95 0  1.2 -0.95 0  1.25 -0.95 0  1.3 -0.95 0  1.35 -0.95 0  1.4 -0.95 0  1.45 -0.95 0  1.5 -0.95 0  1.55 -0.95 0  1.6 -0.95 0  1.65 -0.95 0  1.7 -0.95 0  1.75 -0.95 0  1.8 -0.95 0  1.85 -0.95 0  1.9 -0.95 0  1.95 -0.95 0  2 -0.95 0  2.05 -0.95 0  2.1 -0.95 0  2.15 -0.95 0  2.2 -0.95 0  2.25 -0.95 0  2.3 -0.95 0  2.35 -0.95 0  2.4 -0.95 0  2.45 -0.95 0  2.5 -0.95 0  2.55 -0.95 0  2.6 -0.95 0  2.65 -0.95 0  2.7 -0.95 0  2.75 -0.95 0  2.8 -0.95 0  2.85 -0.95 0  2.9 -0.95 0  2.95 -0.95 0  3 -0.95 0  3.050000000000001 -0.95 0  3.1 -0.95 0  3.15 -0.95 0  3.199999999999999 -0.95 0  3.25 -0.95 0  3.300000000000001 -0.95 0  3.35 -0.95 0  3.4 -0.95 0  3.449999999999999 -0.95 0  3.5 -0.95 0  3.550000000000001 -0.95 0  3.6 -0.95 0  3.65 -0.95 0  3.699999999999999 -0.95 0  3.75 -0.95 0  3.800000000000001 -0.95 0  3.85 -0.95 0  3.9 -0.95 0  3.949999999999999 -0.95 0  4 -0.95 0  4.050000000000001 -0.95 0  4.1 -0.95 0  4.15 -0.95 0  4.199999999999999 -0.95 0  4.25 -0.95 0  4.300000000000001 -0.95 0  4.35 -0.95 0  4.4 -0.95 0  4.449999999999999 -0.95 0  4.5 -0.95 0  4.550000000000001 -0.95 0  4.6 -0.95 0  4.65 -0.95 0  4.699999999999999 -0.95 0  4.75 -0.95 0  4.800000000000001 -0.95 0  4.85 -0.95 0  4.9 -0.95 0  4.949999999999999 -0.95 0  5 -0.95 0  -5 -0.9 0  -4.95 -0.9 0  -4.9 -0.9 0  -4.85 -0.9 0  -4.8 -0.9 0  -4.75 -0.9 0  -4.7 -0.9 0  -4.65 -0.9 0  -4.6 -0.9 0  -4.55 -0.9 0  -4.5 -0.9 0  -4.45 -0.9 0  -4.4 -0.9 0  -4.35 -0.9 0  -4.3 -0.9 0  -4.25 -0.9 0  -4.2 -0.9 0  -4.15 -0.9 0  -4.1 -0.9 0  -4.05 -0.9 0  -4 -0.9 0  -3.95 -0.9 0  -3.9 -0.9 0  -3.85 -0.9 0  -3.8 -0.9 0  -3.75 -0.9 0  -3.7 -0.9 0  -3.65 -0.9 0  -3.6 -0.9 0  -3.55 -0.9 0  -3.5 -0.9 0  -3.45 -0.9 0  -3.4 -0.9 0  -3.35 -0.9 0  -3.3 -0.9 0  -3.25 -0.9 0  -3.2 -0.9 0  -3.15 -0.9 0  -3.1 -0.9 0  -3.05 -0.9 0  -3 -0.9 0  -2.95 -0.9 0  -2.9 -0.9 0  -2.85 -0.9 0  -2.8 -0.9 0  -2.75 -0.9 0  -2.7 -0.9 0  -2.65 -0.9 0  -2.6 -0.9 0  -2.55 -0.9 0  -2.5 -0.9 0  -2.45 -0.9 0  -2.4 -0.9 0  -2.35 -0.9 0  -2.3 -0.9 0  -2.25 -0.9 0  -2.2 -0.9 0  -2.15 -0.9 0  -2.1 -0.9 0  -2.05 -0.9 0  -2 -0.9 0  -1.95 -0.9 0  -1.9 -0.9 0  -1.85 -0.9 0  -1.8 -0.9 0  -1.75 -0.9 0  -1.7 -0.9 0  -1.65 -0.9 0  -1.6 -0.9 0  -1.55 -0.9 0  -1.5 -0.9 0  -1.45 -0.9 0  -1.4 -0.9 0  -1.35 -0.9 0  -1.3 -0.9 0  -1.25 -0.9 0  -1.2 -0.9 0  -1.15 -0.9 0  -1.1 -0.9 0  -1.05 -0.9 0  -1 -0.9 0  -0.9500000000000002 -0.9 0  -0.9000000000000004 -0.9 0  -0.8499999999999996 -0.9 0  -0.7999999999999998 -0.9 0  -0.75 -0.9 0  -0.7000000000000002 -0.9 0  -0.6500000000000004 -0.9 0  -0.5999999999999996 -0.9 0  -0.5499999999999998 -0.9 0  -0.5 -0.9 0  -0.4500000000000002 -0.9 0  -0.4000000000000004 -0.9 0  -0.3499999999999996 -0.9 0  -0.2999999999999998 -0.9 0  -0.25 -0.9 0  -0.2000000000000002 -0.9 0  -0.1500000000000004 -0.9 0  -0.09999999999999964 -0.9 0  -0.04999999999999982 -0.9 0  0 -0.9 0  0.04999999999999982 -0.9 0  0.09999999999999964 -0.9 0  0.1500000000000004 -0.9 0  0.2000000000000002 -0.9 0  0.25 -0.9 0  0.2999999999999998 -0.9 0  0.3499999999999996 -0.9 0  0.4000000000000004 -0.9 0  0.4500000000000002 -0.9 0  0.5 -0.9 0  0.5499999999999998 -0.9 0  0.5999999999999996 -0.9 0  0.6500000000000004 -0.9 0  0.7000000000000002 -0.9 0  0.75 -0.9 0  0.7999999999999998 -0.9 0  0.8499999999999996 -0.9 0  0.9000000000000004 -0.9 0  0.9500000000000002 -0.9 0  1 -0.9 0  1.05 -0.9 0  1.1 -0.9 0  1.15 -0.9 0  1.2 -0.9 0  1.25 -0.9 0  1.3 -0.9 0  1.35 -0.9 0  1.4 -0.9 0  1.45 -0.9 0  1.5 -0.9 0  1.55 -0.9 0  1.6 -0.9 0  1.65 -0.9 0  1.7 -0.9 0  1.75 -0.9 0  1.8 -0.9 0  1.85 -0.9 0  1.9 -0.9 0  1.95 -0.9 0  2 -0.9 0  2.05 -0.9 0  2.1 -0.9 0  2.15 -0.9 0  2.2 -0.9 0  2.25 -0.9 0  2.3 -0.9 0  2.35 -0.9 0  2.4 -0.9 0  2.45 -0.9 0  2.5 -0.9 0  2.55 -0.9 0  2.6 -0.9 0  2.65 -0.9 0  2.7 -0.9 0  2.75 -0.9 0  2.8 -0.9 0  2.85 -0.9 0  2.9 -0.9 0  2.95 -0.9 0  3 -0.9 0  3.050000000000001 -0.9 0  3.1 -0.9 0  3.15 -0.9 0  3.199999999999999 -0.9 0  3.25 -0.9 0  3.300000000000001 -0.9 0  3.35 -0.9 0  3.4 -0.9 0  3.449999999999999 -0.9 0  3.5 -0.9 0  3.550000000000001 -0.9 0  3.6 -0.9 0  3.65 -0.9 0  3.699999999999999 -0.9 0  3.75 -0.9 0  3.800000000000001 -0.9 0  3.85 -0.9 0  3.9 -0.9 0  3.949999999999999 -0.9 0  4 -0.9 0  4.050000000000001 -0.9 0  4.1 -0.9 0  4.15 -0.9 0  4.199999999999999 -0.9 0  4.25 -0.9 0  4.300000000000001 -0.9 0  4.35 -0.9 0  4.4 -0.9 0  4.449999999999999 -0.9 0  4.5 -0.9 0  4.550000000000001 -0.9 0  4.6 -0.9 0  4.65 -0.9 0  4.699999999999999 -0.9 0  4.75 -0.9 0  4.800000000000001 -0.9 0  4.85 -0.9 0  4.9 -0.9 0  4.949999999999999 -0.9 0  5 -0.9 0  -5 -0.85 0  -4.95 -0.85 0  -4.9 -0.85 0  -4.85 -0.85 0  -4.8 -0.85 0  -4.75 -0.85 0  -4.7 -0.85 0  -4.65 -0.85 0  -4.6 -0.85 0  -4.55 -0.85 0  -4.5 -0.85 0  -
[...]
<PointData  Vectors="f_15"> 
<DataArray  type="Float64"  Name="f_15"  NumberOfComponents="3" format="ascii">3.1021769484822159e+00 0.0000000000000000e+00 0.0000000000000000e+00  3.1004744132577833e+00 6.0202415932241925e-02 0.0000000000000000e+00  3.1015145185023241e+00 8.3902898695673467e-02 0.0000000000000000e+00  3.1005287137775128e+00 1.2632854716111799e-01 0.0000000000000000e+00  3.1012890503179125e+00 1.7364113330600858e-01 0.0000000000000000e+00  3.1003569222974448e+00 2.0965071969992041e-01 0.0000000000000000e+00  3.1009885450895829e+00 2.5963927392688019e-01 0.0000000000000000e+00  3.1002411162651113e+00 2.9354026599893379e-01 0.0000000000000000e+00  3.1007406076689641e+00 3.4721035143123025e-01 0.0000000000000000e+00  3.1000141707681044e+00 3.7786251198973808e-01 0.0000000000000000e+00  3.1004662884967060e+00 4.3138940225696298e-01 0.0000000000000000e+00  3.0999638654899853e+00 4.6922442905147688e-01 0.0000000000000000e+00  3.0999115237638724e+00 5.0570607272340307e-01 0.0000000000000000e+00  3.0999896647308134e+00 5.6934933578651437e-01 0.0000000000000000e+00  3.0994871342520658e+00 5.7930943616392194e-01 0.0000000000000000e+00  3.0997157957499741e+00 6.5902292672110796e-01 0.0000000000000000e+00  3.0992204443640290e+00 6.7114168981558642e-01 0.0000000000000000e+00  3.0994046775613011e+00 7.3336973638643599e-01 0.0000000000000000e+00  3.0988542105400967e+00 7.6386043270117199e-01 0.0000000000000000e+00  3.0990120877233798e+00 8.2218038587949893e-01 0.0000000000000000e+00  3.0985673515636085e+00 8.4087116446625576e-01 0.0000000000000000e+00  3.0984250749702156e+00 9.0875769095294057e-01 0.0000000000000000e+00  3.0983396595219936e+00 9.4382718432974988e-01 0.0000000000000000e+00  3.0977681305361422e+00 9.6434841830991169e-01 0.0000000000000000e+00  3.0980554212451210e+00 1.0524808257683846e+00 0.0000000000000000e+00  3.0971053688103889e+00 1.0541359948875251e+00 0.0000000000000000e+00  3.0975731562204976e+00 1.1053899600506178e+00 0.0000000000000000e+00  3.0965936579532891e+00 1.1811002685671632e+00 0.0000000000000000e+00  3.0969409069671956e+00 1.1675086876247445e+00 0.0000000000000000e+00  3.0958745257817157e+00 1.2615029511641140e+00 0.0000000000000000e+00  3.0965582423257745e+00 1.2745437381527489e+00 0.0000000000000000e+00  3.0949487905848199e+00 1.3327955194171419e+00 0.0000000000000000e+00  3.0960001217603978e+00 1.3548698723785031e+00 0.0000000000000000e+00  3.0941613140419606e+00 1.4347552027402266e+00 0.0000000000000000e+00  3.0953788375669697e+00 1.4308765205537222e+00 0.0000000000000000e+00  3.0931139887560142e+00 1.5115341064195640e+00 0.0000000000000000e+00  3.0948362932742675e+00 1.5375698593463258e+00 0.0000000000000000e+00  3.0922726646619205e+00 1.5792409966875474e+00 0.0000000000000000e+00  3.0937059017466324e+00 1.6263691335711632e+00 0.0000000000000000e+00  3.0916828389300548e+00 1.6734477740832410e+00 0.0000000000000000e+00  3.0928099640298421e+00 1.7016629595126493e+00 0.0000000000000000e+00  3.0904247040328250e+00 1.7612179124196421e+00 0.0000000000000000e+00  3.0921503677608673e+00 1.7924072355559646e+00 0.0000000000000000e+00  3.0896005283022250e+00 1.8399624207086742e+00 0.0000000000000000e+00  3.0905704210624054e+00 1.8805124734523129e+00 0.0000000000000000e+00  3.0891814625869900e+00 1.9271183819756093e+00 0.0000000000000000e+00  3.0893873503390239e+00 1.9631224420402540e+00 0.0000000000000000e+00  3.0878548608758742e+00 2.0132748706302226e+00 0.0000000000000000e+00  3.0885297087740033e+00 2.0498344393654735e+00 0.0000000000000000e+00  3.0870813265189572e+00 2.0965620538863696e+00 0.0000000000000000e+00  3.0867212366058498e+00 2.1357743273285776e+00 0.0000000000000000e+00  3.0864406499227353e+00 2.1831730275373520e+00 0.0000000000000000e+00  3.0858183987550749e+00 2.2185963888253228e+00 0.0000000000000000e+00  3.0846088997841554e+00 2.2703838257089166e+00 0.0000000000000000e+00  3.0849926427199361e+00 2.3039749977487243e+00 0.0000000000000000e+00  3.0839095778018524e+00 2.3539422109631136e+00 0.0000000000000000e+00  3.0829915993148123e+00 2.3911380556530233e+00 0.0000000000000000e+00  3.0827980274822360e+00 2.4392145564552621e+00 0.0000000000000000e+00  3.0828605837515806e+00 2.4747532354634774e+00 0.0000000000000000e+00  3.0800901312839630e+00 2.5260095590765985e+00 0.0000000000000000e+00  3.0821098239989113e+00 2.5609481676586943e+00 0.0000000000000000e+00  3.0798402697681229e+00 2.6082310741786379e+00 0.0000000000000000e+00  3.0794414189824990e+00 2.6486436051875000e+00 0.0000000000000000e+00  3.0786700145939352e+00 2.6951020191183854e+00 0.0000000000000000e+00  3.0798905947182038e+00 2.7282503366395288e+00 0.0000000000000000e+00  3.0751401254221444e+00 2.7870761362505556e+00 0.0000000000000000e+00  3.0793327170683593e+00 2.8103145711812991e+00 0.0000000000000000e+00  3.0751486211689869e+00 2.8710008308035970e+00 0.0000000000000000e+00  3.0760661076999658e+00 2.8994862626458167e+00 0.0000000000000000e+00  3.0742824487051656e+00 2.9537809294036039e+00 0.0000000000000000e+00  3.0763619359081642e+00 2.9846916585797088e+00 0.0000000000000000e+00  3.0706167176924768e+00 3.0400515390611744e+00 0.0000000000000000e+00  3.0759221001547368e+00 3.0710718556167018e+00 0.0000000000000000e+00  3.0704197527919170e+00 3.1215147490716668e+00 0.0000000000000000e+00  3.0724039739294287e+00 3.1607773339176743e+00 0.0000000000000000e+00  3.0702645050782804e+00 3.2049740426471613e+00 0.0000000000000000e+00  3.0714063533837206e+00 3.2443923836329849e+00 0.0000000000000000e+00  3.0674738498002765e+00 3.2936272839783149e+00 0.0000000000000000e+00  3.0709344506482337e+00 3.3274509988828607e+00 0.0000000000000000e+00  3.0661460958885387e+00 3.3788887193594808e+00 0.0000000000000000e+00  3.0686012567915184e+00 3.4137891572929662e+00 0.0000000000000000e+00  3.0654137645576829e+00 3.4638248375073983e+00 0.0000000000000000e+00  3.0669666032405711e+00 3.4979240373018801e+00 0.0000000000000000e+00  3.0635924990878021e+00 3.5505595579723797e+00 0.0000000000000000e+00  3.0656694146620316e+00 3.5820932132566430e+00 0.0000000000000000e+00  3.0621123389308837e+00 3.6361666985275725e+00 0.0000000000000000e+00  3.0637281933678246e+00 3.6666507889222761e+00 0.0000000000000000e+00  3.0610317963826810e+00 3.7219763986257197e+00 0.0000000000000000e+00  3.0614239786763315e+00 3.7512808822052048e+00 0.0000000000000000e+00  3.0599828424051956e+00 3.8068601739308585e+00 0.0000000000000000e+00  3.0588870606678360e+00 3.8372909412488290e+00 0.0000000000000000e+00  3.0580937660866105e+00 3.8913942404605475e+00 0.0000000000000000e+00  3.0570827524102819e+00 3.9232179428871659e+00 0.0000000000000000e+00  3.0541106140454151e+00 3.9765808100288194e+00 0.0000000000000000e+00  3.0549043822032882e+00 4.0114814930248022e+00 0.0000000000000000e+00  3.0497538285469745e+00 4.0597398371244928e+00 0.0000000000000000e+00  3.0526715864104790e+00 4.1002067011947512e+00 0.0000000000000000e+00  3.0435460419482818e+00 4.1446205593477563e+00 0.0000000000000000e+00  3.0543296078814994e+00 4.1867336765545469e+00 0.0000000000000000e+00  3.0345204276056648e+00 4.2272776300030594e+00 0.0000000000000000e+00  3.0762912421918394e+00 4.2493684544636690e+00 0.0000000000000000e+00  2.9633235669289708e+00 4.4219274800477262e+00 0.0000000000000000e+00  3.3486280748064456e+00 3.8724304229495217e+00 0.0000000000000000e+00  5.5693769363883954e+00 8.6248575017659659e-02 0.0000000000000000e+00  6.9439849800265296e+00 -1.5760591835668794e+00 0.0000000000000000e+00  7.3689178727262199e+00 -2.0343493265413808e+00 0.0000000000000000e+00  7.4594646221789533e+00 -2.1097143834100573e+00 0.0000000000000000e+00  7.5040637184683279e+00 -2.1057915407147476e+00 0.0000000000000000e+00  7.5378745027482106e+00 -2.0993923239622712e+00 0.0000000000000000e+00  7.5660679526093997e+00 -2.0785051909699570e+00 0.0000000000000000e+00  7.5869974116100725e+00 -2.0547814077344526e+00 0.0000000000000000e+00  7.6090692933381048e+00 -2.0289789104636631e+00 0.0000000000000000e+00  7.6303741389632700e+00 -2.0044783148009553e+00 0.0000000000000000e+00  7.6539531643205132e+00 -1.9802688100627857e+00 0.0000000000000000e+00  7.6742995279806623e+00 -1.9555653938219233e+00 0.0000000000000000e+00  7.6981716078627391e+00 -1.9320057443838772e+00 0.0000000000000000e+00  7.7183043110294660e+00 -1.9056098201860721e+00 0.0000000000000000e+00  7.7417923716657358e+00 -1.8840466749158231e+00 0.0000000000000000e+00  7.7624979429193912e+00 -1.8569362597325525e+00 0.0000000000000000e+00  7.7858704173004929e+00 -1.8353081760458820e+00 0.0000000000000000e+00  7.8061489939987361e+00 -1.8093917356215665e+00 0.0000000000000000e+00  7.8299323559468048e+00 -1.7866151490717708e+00 0.0000000000000000e+00  7.8501361338337299e+00 -1.7619862338781445e+00 0.0000000000000000e+00  7.8736297897638563e+00 -1.7385915428983354e+00 0.0000000000000000e+00  7.8941128324029384e+00 -1.7148033463113439e+00 0.0000000000000000e+00  7.9175974144715919e+00 -1.6909019266722523e+00 0.0000000000000000e+00  7.9376384525434984e+00 -1.6680748927318376e+00 0.0000000000000000e+00  7.9616563435321313e+00 -1.6433700433627387e+00 0.0000000000000000e+00  7.9813304663940476e+00 -1.6215405125207747e+00 0.0000000000000000e+00  8.0052720094459779e+00 -1.5966914327724502e+00 0.0000000000000000e+00  8.0251958165675283e+00 -1.5751209147179210e+00 0.0000000000000000e+00  8.0488984693902825e+00 -1.5493639533789010e+00 0.0000000000000000e+00  8.0686859290433866e+00 -1.5284215967336818e+00 0.0000000000000000e+00  8.0926637013724445e+00 -1.5033268852548616e+00 0.0000000000000000e+00  8.1121734747062177e+00 -1.4824181002527770e+00 0.0000000000000000e+00  8.1359701331307548e+00 -1.4580926471937465e+00 0.0000000000000000e+00  8.1558984944609545e+00 -1.4351191188714696e+00 0.0000000000000000e+00  8.1791239735548213e+00 -1.4104515847976886e+00 0.0000000000000000e+00  8.1992478023309356e+00 -1.3893497384626705e+00 0.0000000000000000e+00  8.2224632900923211e+00 -1.3628928890024234e+00 0.0000000000000000e+00  8.2423688920025935e+00 -1.3455654514355235e+00 0.0000000000000000e+00  8.2654367396857484e+00 -1.3155314269333342e+00 0.0000000000000000e+00  8.2856557534910653e+00 -1.3015696458920618e+00 0.0000000000000000e+00  8.3081190084540797e+00 -1.2691550304180019e+00 0.0000000000000000e+00  8.3285783390133066e+00 -1.2557234159483579e+00 0.0000000000000000e+00  8.3509468878427828e+00 -1.2237355482378216e+00 0.0000000000000000e+00  8.3711118095038746e+00 -1.2086672429833121e+00 0.0000000000000000e+00  8.3934342280115466e+00 -1.1790775230865556e+00 0.0000000000000000e+00  8.4137203847190829e+00 -1.1612721523138105e+00 0.0000000000000000e+00  8.4354703164283915e+00 -1.1356838229234494e+00 0.0000000000000000e+00  8.4559540308506769e+00 -1.1138203681743417e+00 0.0000000000000000e+00  8.4775563877167048e+00 -1.0935744019508618e+00 0.0000000000000000e+00  8.4976078597563909e+00 -1.0668629162381738e+00 0.0000000000000000e+00  8.5192953255170831e+00 -1.0517848805200709e+00 0.0000000000000000e+00  8.5391807020670303e+00 -1.0206968472981806e+00 0.0000000000000000e+00  8.5604240139072960e+00 -1.0097160647377599e+00 0.0000000000000000e+00  8.5803134909889849e+00 -9.7481583327550481e-01 0.0000000000000000e+00  8.6014068591579385e+00 -9.6721334480749066e-01 0.0000000000000000e+00  8.6207236658818776e+00 -9.2975695002741721e-01 0.0000000000000000e+00  8.6419034879156680e+00 -9.2394098679328329e-01 0.0000000000000000e+00  8.6608160055770149e+00 -8.8640583583463872e-01 0.0000000000000000e+00  8.6816324637942976e+00 -8.7997839037001513e-01 0.0000000000000000e+00  8.7002863774404311e+00 -8.4522947740244436e-01 0.0000000000000000e+00  8.7208790036298751e+00 -8.3545738158316774e-01 0.0000000000000000e+00  8.7389141923395517e+00 -8.0612852511108557e-01 0.0000000000000000e+00  8.7593433220896735e+00 -7.9002315055545758e-01 0.0000000000000000e+00  8.7768719341574766e+00 -7.6758778283021356e-01 0.0000000000000000e+00  8.7968431806325977e+00 -7.4507171423510088e-01 0.0000000000000000e+00  8.8139053839263184e+00 -7.2809237653720482e-01 0.0000000000000000e+00  8.8333786990735810e+00 -7.0166588430517951e-01 0.0000000000000000e+00  8.8499127642265751e+00 -6.8627883744014451e-01 0.0000000000000000e+00  8.8687020485545407e+00 -6.6092296903991499e-01 0.0000000000000000e+00  8.8847793598100786e+00 -6.4428780751775028e-01 0.0000000000000000e+00  8.9027336405042927e+00 -6.2256754942445403e-01 0.0000000000000000e+00  8.9182709639104463e+00 -6.0330819196029450e-01 0.0000000000000000e+00  8.9353026315732507e+00 -5.8450663176592732e-01 0.0000000000000000e+00  8.9502915636928009e+00 -5.6469769158113226e-01 0.0000000000000000e+00  8.9662150860845760e+00 -5.4836786310627250e-01 0.0000000000000000e+00  8.9806114533364152e+00 -5.2640548909999729e-01 0.0000000000000000e+00  8.9953587987425774e+00 -5.1258489791146500e-01 0.0000000000000000e+00  9.0090557606029407e+00 -4.8808034999874722e-01 0.0000000000000000e+00  9.0225365452662842e+00 -4.7533757583960656e-01 0.0000000000000000e+00  9.0354360852122593e+00 -4.4765957250393884e-01 0.0000000000000000e+00  9.0476056429506482e+00 -4.3562146988034905e-01 0.0000000000000000e+00  9.0596119965545210e+00 -4.0773232949234456e-01 0.0000000000000000e+00  9.0702875399566736e+00 -4.0273888607487446e-01 0.0000000000000000e+00  9.0814037737818030e+00 -3.7639194528365255e-01 0.0000000000000000e+00  9.0905783377037572e+00 -3.6940234189988563e-01 0.0000000000000000e+00  9.1005343245788524e+00 -3.4236722747240234e-01 0.0000000000000000e+00  9.1083480837343291e+00 -3.3456025065707135e-01 0.0000000000000000e+00  9.1170768239409146e+00 -3.0192650635553570e-01 0.0000000000000000e+00  9.1232016328159684e+00 -2.9163562253959724e-01 0.0000000000000000e+00  9.1308960370831809e+00 -2.5252854987921808e-01 0.0000000000000000e+00  9.1353714818228386e+00 -2.3612975526297317e-01 0.0000000000000000e+00  9.1414859706565341e+00 -2.1031113023936576e-01 0.0000000000000000e+00  9.1446274622434220e+00 -1.7855707354889636e-01 0.0000000000000000e+00  9.1492148585071842e+00 -1.6728620519612111e-01 0.0000000000000000e+00  9.1505027910900765e+00 -1.2598256165029217e-01 0.0000000000000000e+00  9.1540138780620524e+00 -1.3499591105087805e-01 0.0000000000000000e+00  9.1536934026248815e+00 -3.9299032211872892e-02 0.0000000000000000e+00  9.1557647543403338e+00 0.0000000000000000e+00 0.0000000000000000e+00  3.1028052212716486e+00 0.0000000000000000e+00 -6.7841483428757599e-04  3.1015612868446585e+00 3.5259873377750786e-02 -9.6403845030043171e-03  3.1027274442865811e+00 8.9657335028164239e-02 9.8149415974362001e-03  3.1020397770317008e+00 1.2875443568777548e-01 3.1361691096865232e-03  3.1026576031601150e+00 1.6902976855297613e-01 -7.6171120798850392e-03  3.1021392854543168e+00 2.1957070460199674e-01 9.3009818430811932e-03  3.1027375822302155e+00 2.5416043914710129e-01 -1.0255436453798806e-02  3.1020777969728006e+00 3.0597409737192582e-01 1.2617703918651661e-02  3.1027223392522623e+00 3.3844853017996074e-01 -1.6449481566669914e-02  3.1018965143607042e+00 3.9492090444046407e-01 2.0219748030032774e-02  3.1027553703037865e+00 4.2126632776841810e-01 -2.2317801908101814e-02  3.1015664333910169e+00 4.8129675786421378e-01 2.1350218903894474e-02  3.1025731920185677e+00 5.0992666225747540e-01 -1.6807504955572761e-02  3.1016242157996339e+00 5.6209777541471706e-01 9.2895770079613332e-03  3.1018079051996534e+00 5.9908764974027229e-01 -3.4453851921777069e-04  3.1019464721214289e+00 6.4691362617718606e-01 -8.7573594792381623e-03  3.1010072942238613e+00 6.8567368978384236e-01 1.5762710849149087e-02  3.1019595130539979e+00 7.2730646653436715e-01 -1.9635991934159512e-02  3.1004435928003335e+00 7.8260305401570263e-01 2.0350240232853603e-02  3.1017569715818794e+00 8.0031317413977698e-01 -1.9521084550820130e-02  3.0999440249093784e+00 8.7310112865542311e-01 1.8333864277659467e-02  3.1014097454697853e+00 8.9495336393841396e-01 -1.7312332376799362e-02  3.0995816796626459e+00 9.4027790892935370e-01 1.5308951452501914e-02  3.1008228541151328e+00 9.9391832775121647e-01 -1.2003068167484931e-02  3.0993882844380281e+00 1.0308340715785471e+00 7.2750974448136099e-03  3.1000077477184660e+00 1.0574682334304539e+00 -2.9545838054609733e-03  3.0992688104968953e+00 1.1389104367306997e+00 1.4593532580859341e-04  3.0992391180668837e+00 1.1395802006730931e+00 2.6959816372185873e-04  3.0988230173659108e+00 1.2049397330550553e+00 4.2689436020724238e-04  3.0988109491122597e+00 1.2531881440080133e+00 -1.2420481275473147e-03  3.0981702940804769e+00 1.2758439669435744e+00 1.1340323380829450e-03  3.0982439269108331e+00 1.3313902347780602e+00 -8.2615602071512827e-04  3.0977331591308008e+00 1.3806815348533481e+00 3.7633093863950924e-04  3.0975383587646363e+00 1.4059661033473945e+00 2.1647998907467489e-04  3.0971920287351375e+00 1.4591768033965180e+00 -1.3332350064928500e-03  3.0968710418087118e+00 1.5107102237738002e+00 2.6536066747987375e-03  3.0967647866736554e+00 1.5305004303453722e+00 -3.6529107996323444e-03  3.0959549801156561e+00 1.5953527549093802e+00 3.0552423327065495e-03  3.0962235379479255e+00 1.6298983924773667e+00 -1.1365795562483046e-03  3.0955648042812949e+00 1.6670191464970929e+00 -1.1463698417739426e-03  3.0949701621600729e+00 1.7202764745081105e+00 2.4563716519910819e-03  3.0953151373481296e+00 1.7576564067598937e+00 -2.4819438310872168e-03  3.0942604980707582e+00 1.7989481293795611e+00 1.8330624106674123e-03  3.0941839554383286e+00 1.8457580336313169e+00 -1.8632866756659421e-03  3.0937960210164563e+00 1.8879696326983300e+00 2.5737204575042921e-03  3.0936302572701653e+00 1.9265259057050617e+00 -3.8324185080839701e-03  3.0923024578758476e+00 1.9763502802608839e+00 4.6808374666279040e-03  3.0934431338385857e+00 2.0127418337433669e+00 -5.1710638417856204e-03  3.0913190675343363e+00 2.0605118312934629e+00 5.6109998889335329e-03  3.0923073010472062e+00 2.0986332912926544e+00 -6.3345260290471970e-03  3.0905054536224572e+00 2.1482506215986237e+00 7.3455513036357976e-03  3.0919159975798496e+00 2.1810592292395672e+00 -8.2332565920031752e-03  3.0886512733395937e+00 2.2363817526319818e+00 8.7317528298354458e-03  3.0914601767600662e+00 2.2663787810349731e+00 -8.7927367174338716e-03  3.0879891567440834e+00 2.3204359708282749e+00 8.5182377602601462e-03  3.0896227713345397e+00 2.3536932764291425e+00 -8.0906010147503097e-03  3.0872545426152755e+00 2.4058067195724604e+00 7.4123655195512603e-03  3.0891508543981514e+00 2.4380074461074490e+00 -6.4757393142917796e-03  3.0852406043698988e+00 2.4920657093813294e+00 5.2367398612689084e-03  3.0879539959591016e+00 2.5253334887257681e+00 -3.8316350331182407e-03  3.0855113678156036e+00 2.5732979639333764e+00 2.5192813221755167e-03  3.0849192397431318e+00 2.6147587252476705e+00 -1.4425969531592299e-03  3.0848696835981002e+00 2.6579641907063145e+00 7.1555415138187587e-04  3.0848262332679419e+00 2.6973784182126055e+00 -2.7489873908538500e-04  3.0818694054005493e+00 2.7466314944087120e+00 8.0027764713006675e-05  3.0838214647227922e+00 2.7824435726175847e+00 -1.0155201856433813e-04  3.0821261509077975e+00 2.8283625486473651e+00 2.9558340015211509e-04  3.0802634420340977e+00 2.8722700727824080e+00 -5.6557754710921085e-04  3.0813546135551357e+00 2.9116767338297689e+00 6.8970744291825580e-04  3.0802432065003167e+00 2.9557301335282626e+00 -4.7873932840638694e-04  3.0778233845687843e+00 2.9996545992968899e+00 -4.1908644390556695e-05  3.0792932468265248e+00 3.0403517054157847e+00 7.6921259968226611e-04  3.0778376126549718e+00 3.0819048945171517e+00 -1.3580208352576206e-03  3.0753573040005344e+00 3.1292075330661913e+00 1.7809517082528947e-03  3.0773987380160377e+00 3.1654413822173586e+00 -1.9039890511544034e-03  3.0744858476300601e+00 3.2121995801023315e+00 1.8974472430192612e-03  3.0739368982180681e+00 3.2539373779055016e+00 -1.6972814358633414e-03  3.0740327965546821e+00 3.2949253390980298e+00 1.4485376936186197e-03  3.0723019609830500e+00 3.3383498633928190e+00 -1.1548474108763408e-03  3.0713563487098394e+00 3.3815794131049985e+00 9.6827040019790891e-04  3.0712793137061323e+00 3.4220511160304761e+00 -8.7122368869956034e-04  3.0695696750665