<?xml version="1.0"?>
<VTKFile type="UnstructuredGrid"  version="0.1"  >
<UnstructuredGrid>
<Piece  NumberOfPoints="8241" NumberOfCells="16000">
<Points>
<DataArray  type="Float64"  NumberOfComponents="3"  format="ascii">-5 -1 0  -4.95 -1 0  -4.9 -1 0  -4.85 -1 0  -4.8 -1 0  -4.75 -1 0  -4.7 -1 0  -4.65 -1 0  -4.6 -1 0  -4.55 -1 0  -4.5 -1 0  -4.45 -1 0  -4.4 -1 0  -4.35 -1 0  -4.3 -1 0  -4.25 -1 0  -4.2 -1 0  -4.15 -1 0  -4.1 -1 0  -4.05 -1 0  -4 -1 0  -3.95 -1 0  -3.9 -1 0  -3.85 -1 0  -3.8 -1 0  -3.75 -1 0  -3.7 -1 0  -3.65 -1 0  -3.6 -1 0  -3.55 -1 0  -3.5 -1 0  -3.45 -1 0  -3.4 -1 0  -3.35 -1 0  -3.3 -1 0  -3.25 -1 0  -3.2 -1 0  -3.15 -1 0  -3.1 -1 0  -3.05 -1 0  -3 -1 0  -2.95 -1 0  -2.9 -1 0  -2.85 -1 0  -2.8 -1 0  -2.75 -1 0  -2.7 -1 0  -2.65 -1 0  -2.6 -1 0  -2.55 -1 0  -2.5 -1 0  -2.45 -1 0  -2.4 -1 0  -2.35 -1 0  -2.3 -1 0  -2.25 -1 0  -2.2 -1 0  -2.15 -1 0  -2.1 -1 0  -2.05 -1 0  -2 -1 0  -1.95 -1 0  -1.9 -1 0  -1.85 -1 0  -1.8 -1 0  -1.75 -1 0  -1.7 -1 0  -1.65 -1 0  -1.6 -1 0  -1.55 -1 0  -1.5 -1 0  -1.45 -1 0  -1.4 -1 0  -1.35 -1 0  -1.3 -1 0  -1.25 -1 0  -1.2 -1 0  -1.15 -1 0  -1.1 -1 0  -1.05 -1 0  -1 -1 0  -0.9500000000000002 -1 0  -0.9000000000000004 -1 0  -0.8499999999999996 -1 0  -0.7999999999999998 -1 0  -0.75 -1 0  -0.7000000000000002 -1 0  -0.6500000000000004 -1 0  -0.5999999999999996 -1 0  -0.5499999999999998 -1 0  -0.5 -1 0  -0.4500000000000002 -1 0  -0.4000000000000004 -1 0  -0.3499999999999996 -1 0  -0.2999999999999998 -1 0  -0.25 -1 0  -0.2000000000000002 -1 0  -0.1500000000000004 -1 0  -0.09999999999999964 -1 0  -0.04999999999999982 -1 0  0 -1 0  0.04999999999999982 -1 0  0.09999999999999964 -1 0  0.1500000000000004 -1 0  0.2000000000000002 -1 0  0.25 -1 0  0.2999999999999998 -1 0  0.3499999999999996 -1 0  0.4000000000000004 -1 0  0.4500000000000002 -1 0  0.5 -1 0  0.5499999999999998 -1 0  0.5999999999999996 -1 0  0.6500000000000004 -1 0  0.7000000000000002 -1 0  0.75 -1 0  0.7999999999999998 -1 0  0.8499999999999996 -1 0  0.9000000000000004 -1 0  0.9500000000000002 -1 0  1 -1 0  1.05 -1 0  1.1 -1 0  1.15 -1 0  1.2 -1 0  1.25 -1 0  1.3 -1 0  1.35 -1 0  1.4 -1 0  1.45 -1 0  1.5 -1 0  1.55 -1 0  1.6 -1 0  1.65 -1 0  1.7 -1 0  1.75 -1 0  1.8 -1 0  1.85 -1 0  1.9 -1 0  1.95 -1 0  2 -1 0  2.05 -1 0  2.1 -1 0  2.15 -1 0  2.2 -1 0  2.25 -1 0  2.3 -1 0  2.35 -1 0  2.4 -1 0  2.45 -1 0  2.5 -1 0  2.55 -1 0  2.6 -1 0  2.65 -1 0  2.7 -1 0  2.75 -1 0  2.8 -1 0  2.85 -1 0  2.9 -1 0  2.95 -1 0  3 -1 0  3.050000000000001 -1 0  3.1 -1 0  3.15 -1 0  3.199999999999999 -1 0  3.25 -1 0  3.300000000000001 -1 0  3.35 -1 0  3.4 -1 0  3.449999999999999 -1 0  3.5 -1 0  3.550000000000001 -1 0  3.6 -1 0  3.65 -1 0  3.699999999999999 -1 0  3.75 -1 0  3.800000000000001 -1 0  3.85 -1 0  3.9 -1 0  3.949999999999999 -1 0  4 -1 0  4.050000000000001 -1 0  4.1 -1 0  4.15 -1 0  4.199999999999999 -1 0  4.25 -1 0  4.300000000000001 -1 0  4.35 -1 0  4.4 -1 0  4.449999999999999 -1 0  4.5 -1 0  4.550000000000001 -1 0  4.6 -1 0  4.65 -1 0  4.699999999999999 -1 0  4.75 -1 0  4.800000000000001 -1 0  4.85 -1 0  4.9 -1 0  4.949999999999999 -1 0  5 -1 0  -5 -0.95 0  -4.95 -0.95 0  -4.9 -0.95 0  -4.85 -0.95 0  -4.8 -0.95 0  -4.75 -0.95 0  -4.7 -0.95 0  -4.65 -0.95 0  -4.6 -0.95 0  -4.55 -0.95 0  -4.5 -0.95 0  -4.45 -0.95 0  -4.4 -0.95 0  -4.35 -0.95 0  -4.3 -0.95 0  -4.25 -0.95 0  -4.2 -0.95 0  -4.15 -0.95 0  -4.1 -0.95 0  -4.05 -0.95 0  -4 -0.95 0  -3.95 -0.95 0  -3.9 -0.95 0  -3.85 -0.95 0  -3.8 -0.95 0  -3.75 -0.95 0  -3.7 -0.95 0  -3.65 -0.95 0  -3.6 -0.95 0  -3.55 -0.95 0  -3.5 -0.95 0  -3.45 -0.95 0  -3.4 -0.95 0  -3.35 -0.95 0  -3.3 -0.95 0  -3.25 -0.95 0  -3.2 -0.95 0  -3.15 -0.95 0  -3.1 -0.95 0  -3.05 -0.95 0  -3 -0.95 0  -2.95 -0.95 0  -2.9 -0.95 0  -2.85 -0.95 0  -2.8 -0.95 0  -2.75 -0.95 0  -2.7 -0.95 0  -2.65 -0.95 0  -2.6 -0.95 0  -2.55 -0.95 0  -2.5 -0.95 0  -2.45 -0.95 0  -2.4 -0.95 0  -2.35 -0.95 0  -2.3 -0.95 0  -2.25 -0.95 0  -2.2 -0.95 0  -2.15 -0.95 0  -2.1 -0.95 0  -2.05 -0.95 0  -2 -0.95 0  -1.95 -0.95 0  -1.9 -0.95 0  -1.85 -0.95 0  -1.8 -0.95 0  -1.75 -0.95 0  -1.7 -0.95 0  -1.65 -0.95 0  -1.6 -0.95 0  -1.55 -0.95 0  -1.5 -0.95 0  -1.45 -0.95 0  -1.4 -0.95 0  -1.35 -0.95 0  -1.3 -0.95 0  -1.25 -0.95 0  -1.2 -0.95 0  -1.15 -0.95 0  -1.1 -0.95 0  -1.05 -0.95 0  -1 -0.95 0  -0.9500000000000002 -0.95 0  -0.9000000000000004 -0.95 0  -0.8499999999999996 -0.95 0  -0.7999999999999998 -0.95 0  -0.75 -0.95 0  -0.7000000000000002 -0.95 0  -0.6500000000000004 -0.95 0  -0.5999999999999996 -0.95 0  -0.5499999999999998 -0.95 0  -0.5 -0.95 0  -0.4500000000000002 -0.95 0  -0.4000000000000004 -0.95 0  -0.3499999999999996 -0.95 0  -0.2999999999999998 -0.95 0  -0.25 -0.95 0  -0.2000000000000002 -0.95 0  -0.1500000000000004 -0.95 0  -0.09999999999999964 -0.95 0  -0.04999999999999982 -0.95 0  0 -0.95 0  0.04999999999999982 -0.95 0  0.09999999999999964 -0.95 0  0.1500000000000004 -0.95 0  0.2000000000000002 -0.95 0  0.25 -0.95 0  0.2999999999999998 -0.95 0  0.3499999999999996 -0.95 0  0.4000000000000004 -0.95 0  0.4500000000000002 -0.95 0  0.5 -0.95 0  0.5499999999999998 -0.95 0  0.5999999999999996 -0.95 0  0.6500000000000004 -0.95 0  0.7000000000000002 -0.95 0  0.75 -0.95 0  0.7999999999999998 -0.95 0  0.8499999999999996 -0.95 0  0.9000000000000004 -0.95 0  0.9500000000000002 -0.95 0  1 -0.95 0  1.05 -0.95 0  1.1 -0.95 0  1.15 -0.95 0  1.2 -0.95 0  1.25 -0.95 0  1.3 -0.95 0  1.35 -0.95 0  1.4 -0.95 0  1.45 -0.95 0  1.5 -0.95 0  1.55 -0.95 0  1.6 -0.95 0  1.65 -0.95 0  1.7 -0.95 0  1.75 -0.95 0  1.8 -0.95 0  1.85 -0.95 0  1.9 -0.95 0  1.95 -0.95 0  2 -0.95 0  2.05 -0.95 0  2.1 -0.95 0  2.15 -0.95 0  2.2 -0.95 0  2.25 -0.95 0  2.3 -0.95 0  2.35 -0.95 0  2.4 -0.95 0  2.45 -0.95 0  2.5 -0.95 0  2.55 -0.95 0  2.6 -0.95 0  2.65 -0.95 0  2.7 -0.95 0  2.75 -0.95 0  2.8 -0.95 0  2.85 -0.95 0  2.9 -0.95 0  2.95 -0.95 0  3 -0.95 0  3.050000000000001 -0.95 0  3.1 -0.95 0  3.15 -0.95 0  3.199999999999999 -0.95 0  3.25 -0.95 0  3.300000000000001 -0.95 0  3.35 -0.95 0  3.4 -0.95 0  3.449999999999999 -0.95 0  3.5 -0.95 0  3.550000000000001 -0.95 0  3.6 -0.95 0  3.65 -0.95 0  3.699999999999999 -0.95 0  3.75 -0.95 0  3.800000000000001 -0.95 0  3.85 -0.95 0  3.9 -0.95 0  3.949999999999999 -0.95 0  4 -0.95 0  4.050000000000001 -0.95 0  4.1 -0.95 0  4.15 -0.95 0  4.199999999999999 -0.95 0  4.25 -0.95 0  4.300000000000001 -0.95 0  4.35 -0.95 0  4.4 -0.95 0  4.449999999999999 -0.95 0  4.5 -0.95 0  4.550000000000001 -0.95 0  4.6 -0.95 0  4.65 -0.95 0  4.699999999999999 -0.95 0  4.75 -0.95 0  4.800000000000001 -0.95 0  4.85 -0.95 0  4.9 -0.95 0  4.949999999999999 -0.95 0  5 -0.95 0  -5 -0.9 0  -4.95 -0.9 0  -4.9 -0.9 0  -4.85 -0.9 0  -4.8 -0.9 0  -4.75 -0.9 0  -4.7 -0.9 0  -4.65 -0.9 0  -4.6 -0.9 0  -4.55 -0.9 0  -4.5 -0.9 0  -4.45 -0.9 0  -4.4 -0.9 0  -4.35 -0.9 0  -4.3 -0.9 0  -4.25 -0.9 0  -4.2 -0.9 0  -4.15 -0.9 0  -4.1 -0.9 0  -4.05 -0.9 0  -4 -0.9 0  -3.95 -0.9 0  -3.9 -0.9 0  -3.85 -0.9 0  -3.8 -0.9 0  -3.75 -0.9 0  -3.7 -0.9 0  -3.65 -0.9 0  -3.6 -0.9 0  -3.55 -0.9 0  -3.5 -0.9 0  -3.45 -0.9 0  -3.4 -0.9 0  -3.35 -0.9 0  -3.3 -0.9 0  -3.25 -0.9 0  -3.2 -0.9 0  -3.15 -0.9 0  -3.1 -0.9 0  -3.05 -0.9 0  -3 -0.9 0  -2.95 -0.9 0  -2.9 -0.9 0  -2.85 -0.9 0  -2.8 -0.9 0  -2.75 -0.9 0  -2.7 -0.9 0  -2.65 -0.9 0  -2.6 -0.9 0  -2.55 -0.9 0  -2.5 -0.9 0  -2.45 -0.9 0  -2.4 -0.9 0  -2.35 -0.9 0  -2.3 -0.9 0  -2.25 -0.9 0  -2.2 -0.9 0  -2.15 -0.9 0  -2.1 -0.9 0  -2.05 -0.9 0  -2 -0.9 0  -1.95 -0.9 0  -1.9 -0.9 0  -1.85 -0.9 0  -1.8 -0.9 0  -1.75 -0.9 0  -1.7 -0.9 0  -1.65 -0.9 0  -1.6 -0.9 0  -1.55 -0.9 0  -1.5 -0.9 0  -1.45 -0.9 0  -1.4 -0.9 0  -1.35 -0.9 0  -1.3 -0.9 0  -1.25 -0.9 0  -1.2 -0.9 0  -1.15 -0.9 0  -1.1 -0.9 0  -1.05 -0.9 0  -1 -0.9 0  -0.9500000000000002 -0.9 0  -0.9000000000000004 -0.9 0  -0.8499999999999996 -0.9 0  -0.7999999999999998 -0.9 0  -0.75 -0.9 0  -0.7000000000000002 -0.9 0  -0.6500000000000004 -0.9 0  -0.5999999999999996 -0.9 0  -0.5499999999999998 -0.9 0  -0.5 -0.9 0  -0.4500000000000002 -0.9 0  -0.4000000000000004 -0.9 0  -0.3499999999999996 -0.9 0  -0.2999999999999998 -0.9 0  -0.25 -0.9 0  -0.2000000000000002 -0.9 0  -0.1500000000000004 -0.9 0  -0.09999999999999964 -0.9 0  -0.04999999999999982 -0.9 0  0 -0.9 0  0.04999999999999982 -0.9 0  0.09999999999999964 -0.9 0  0.1500000000000004 -0.9 0  0.2000000000000002 -0.9 0  0.25 -0.9 0  0.2999999999999998 -0.9 0  0.3499999999999996 -0.9 0  0.4000000000000004 -0.9 0  0.4500000000000002 -0.9 0  0.5 -0.9 0  0.5499999999999998 -0.9 0  0.5999999999999996 -0.9 0  0.6500000000000004 -0.9 0  0.7000000000000002 -0.9 0  0.75 -0.9 0  0.7999999999999998 -0.9 0  0.8499999999999996 -0.9 0  0.9000000000000004 -0.9 0  0.9500000000000002 -0.9 0  1 -0.9 0  1.05 -0.9 0  1.1 -0.9 0  1.15 -0.9 0  1.2 -0.9 0  1.25 -0.9 0  1.3 -0.9 0  1.35 -0.9 0  1.4 -0.9 0  1.45 -0.9 0  1.5 -0.9 0  1.55 -0.9 0  1.6 -0.9 0  1.65 -0.9 0  1.7 -0.9 0  1.75 -0.9 0  1.8 -0.9 0  1.85 -0.9 0  1.9 -0.9 0  1.95 -0.9 0  2 -0.9 0  2.05 -0.9 0  2.1 -0.9 0  2.15 -0.9 0  2.2 -0.9 0  2.25 -0.9 0  2.3 -0.9 0  2.35 -0.9 0  2.4 -0.9 0  2.45 -0.9 0  2.5 -0.9 0  2.55 -0.9 0  2.6 -0.9 0  2.65 -0.9 0  2.7 -0.9 0  2.75 -0.9 0  2.8 -0.9 0  2.85 -0.9 0  2.9 -0.9 0  2.95 -0.9 0  3 -0.9 0  3.050000000000001 -0.9 0  3.1 -0.9 0  3.15 -0.9 0  3.199999999999999 -0.9 0  3.25 -0.9 0  3.300000000000001 -0.9 0  3.35 -0.9 0  3.4 -0.9 0  3.449999999999999 -0.9 0  3.5 -0.9 0  3.550000000000001 -0.9 0  3.6 -0.9 0  3.65 -0.9 0  3.699999999999999 -0.9 0  3.75 -0.9 0  3.800000000000001 -0.9 0  3.85 -0.9 0  3.9 -0.9 0  3.949999999999999 -0.9 0  4 -0.9 0  4.050000000000001 -0.9 0  4.1 -0.9 0  4.15 -0.9 0  4.199999999999999 -0.9 0  4.25 -0.9 0  4.300000000000001 -0.9 0  4.35 -0.9 0  4.4 -0.9 0  4.449999999999999 -0.9 0  4.5 -0.9 0  4.550000000000001 -0.9 0  4.6 -0.9 0  4.65 -0.9 0  4.699999999999999 -0.9 0  4.75 -0.9 0  4.800000000000001 -0.9 0  4.85 -0.9 0  4.9 -0.9 0  4.949999999999999 -0.9 0  5 -0.9 0  -5 -0.85 0  -4.95 -0.85 0  -4.9 -0.85 0  -4.85 -0.85 0  -4.8 -0.85 0  -4.75 -0.85 0  -4.7 -0.85 0  -4.65 -0.85 0  -4.6 -0.85 0  -4.55 -0.85 0  -4.5 -0.85 0  -
[...]
<PointData  Vectors="f_15"> 
<DataArray  type="Float64"  Name="f_15"  NumberOfComponents="3" format="ascii">3.1817922388778435e+00 0.0000000000000000e+00 0.0000000000000000e+00  3.1825575547118725e+00 6.3924813302375025e-02 0.0000000000000000e+00  3.1818135481890284e+00 8.1914452451022968e-02 0.0000000000000000e+00  3.1821883405564422e+00 1.3225228604669323e-01 0.0000000000000000e+00  3.1814121615230264e+00 1.7509786493751792e-01 0.0000000000000000e+00  3.1826478314117073e+00 2.1653325457607608e-01 0.0000000000000000e+00  3.1807760992331819e+00 2.6390560753275799e-01 0.0000000000000000e+00  3.1823109346834149e+00 3.0261578289587870e-01 0.0000000000000000e+00  3.1811651885552017e+00 3.5384746449799659e-01 0.0000000000000000e+00  3.1816844534264028e+00 3.8833673938658642e-01 0.0000000000000000e+00  3.1807941028877726e+00 4.4206916398507901e-01 0.0000000000000000e+00  3.1820533365314536e+00 4.7883875048246943e-01 0.0000000000000000e+00  3.1800229543248606e+00 5.2233562862560123e-01 0.0000000000000000e+00  3.1818153534091933e+00 5.7753422563167067e-01 0.0000000000000000e+00  3.1801101181996900e+00 6.0014354606292974e-01 0.0000000000000000e+00  3.1811362511047947e+00 6.6989297234166134e-01 0.0000000000000000e+00  3.1798326869027891e+00 6.9059835279643322e-01 0.0000000000000000e+00  3.1810012277369655e+00 7.5131708027942357e-01 0.0000000000000000e+00  3.1793091260530328e+00 7.8166941556271341e-01 0.0000000000000000e+00  3.1804519077495805e+00 8.4329422049642222e-01 0.0000000000000000e+00  3.1792440847642531e+00 8.6152179313414035e-01 0.0000000000000000e+00  3.1796060352045972e+00 9.3210432814408406e-01 0.0000000000000000e+00  3.1790368378040217e+00 9.6368245567793731e-01 0.0000000000000000e+00  3.1789026378260421e+00 9.9405996561197207e-01 0.0000000000000000e+00  3.1786948623084692e+00 1.0722210337356139e+00 0.0000000000000000e+00  3.1781574732445734e+00 1.0832675481025260e+00 0.0000000000000000e+00  3.1781703038522324e+00 1.1336237710036587e+00 0.0000000000000000e+00  3.1775647961383164e+00 1.2061166512622925e+00 0.0000000000000000e+00  3.1775004913787455e+00 1.2000807540870646e+00 0.0000000000000000e+00  3.1767567200473636e+00 1.2903893481975646e+00 0.0000000000000000e+00  3.1769959581056089e+00 1.3059822808291519e+00 0.0000000000000000e+00  3.1758917748271069e+00 1.3655350091729739e+00 0.0000000000000000e+00  3.1761941586869948e+00 1.3881654889075592e+00 0.0000000000000000e+00  3.1751559469789656e+00 1.4694189025194870e+00 0.0000000000000000e+00  3.1754079215866513e+00 1.4661220718886228e+00 0.0000000000000000e+00  3.1741690819113542e+00 1.5477008911933927e+00 0.0000000000000000e+00  3.1745343129379058e+00 1.5772664398126375e+00 0.0000000000000000e+00  3.1735426457428533e+00 1.6139958404043782e+00 0.0000000000000000e+00  3.1731257801116470e+00 1.6699511270228078e+00 0.0000000000000000e+00  3.1729425692540008e+00 1.7119129407111886e+00 0.0000000000000000e+00  3.1721069903160770e+00 1.7433016624831037e+00 0.0000000000000000e+00  3.1718063403303569e+00 1.8048735160219247e+00 0.0000000000000000e+00  3.1710227184840649e+00 1.8366738366930584e+00 0.0000000000000000e+00  3.1712207648540343e+00 1.8824758324682946e+00 0.0000000000000000e+00  3.1693241371112375e+00 1.9296800553882993e+00 0.0000000000000000e+00  3.1704921110044979e+00 1.9715849686119109e+00 0.0000000000000000e+00  3.1683593186923704e+00 2.0124561468866982e+00 0.0000000000000000e+00  3.1690388833514893e+00 2.0611454752428298e+00 0.0000000000000000e+00  3.1671933561828443e+00 2.1020768917658867e+00 0.0000000000000000e+00  3.1684554164177947e+00 2.1444235997360379e+00 0.0000000000000000e+00  3.1654036411380391e+00 2.1915409201160316e+00 0.0000000000000000e+00  3.1671887498313955e+00 2.2338431237271386e+00 0.0000000000000000e+00  3.1651446065722402e+00 2.2743372537231026e+00 0.0000000000000000e+00  3.1649022097815043e+00 2.3253455737038977e+00 0.0000000000000000e+00  3.1640987291169651e+00 2.3609475082959670e+00 0.0000000000000000e+00  3.1644976658809711e+00 2.4108188463801099e+00 0.0000000000000000e+00  3.1620098769343978e+00 2.4505624957304684e+00 0.0000000000000000e+00  3.1627287731418385e+00 2.4986611610128953e+00 0.0000000000000000e+00  3.1626578213106855e+00 2.5351679299144743e+00 0.0000000000000000e+00  3.1594329620534531e+00 2.5885007545610916e+00 0.0000000000000000e+00  3.1617317127520512e+00 2.6237400851957524e+00 0.0000000000000000e+00  3.1595136507184058e+00 2.6714270068827650e+00 0.0000000000000000e+00  3.1588104122910909e+00 2.7156622589896586e+00 0.0000000000000000e+00  3.1580388026995738e+00 2.7586514034093019e+00 0.0000000000000000e+00  3.1594989994641094e+00 2.7985817145932206e+00 0.0000000000000000e+00  3.1544343241513744e+00 2.8524376269890763e+00 0.0000000000000000e+00  3.1585269115826073e+00 2.8822901519094115e+00 0.0000000000000000e+00  3.1546868425658587e+00 2.9399433575011233e+00 0.0000000000000000e+00  3.1550812782616826e+00 2.9715115072774365e+00 0.0000000000000000e+00  3.1537558613873786e+00 3.0268408517307845e+00 0.0000000000000000e+00  3.1549770235423353e+00 3.0577662347054542e+00 0.0000000000000000e+00  3.1505785802518260e+00 3.1153620247358118e+00 0.0000000000000000e+00  3.1540003016838369e+00 3.1465120475542663e+00 0.0000000000000000e+00  3.1501429385499984e+00 3.1988781730708111e+00 0.0000000000000000e+00  3.1509805437797382e+00 3.2384940910390574e+00 0.0000000000000000e+00  3.1493875805048264e+00 3.2835823736751446e+00 0.0000000000000000e+00  3.1496821814420697e+00 3.3258759968867739e+00 0.0000000000000000e+00  3.1471414338815356e+00 3.3727858495353873e+00 0.0000000000000000e+00  3.1485697191581803e+00 3.4115423978952797e+00 0.0000000000000000e+00  3.1453341998247528e+00 3.4606704044321228e+00 0.0000000000000000e+00  3.1471636312964053e+00 3.4991657585651379e+00 0.0000000000000000e+00  3.1432929016127749e+00 3.5478452859550393e+00 0.0000000000000000e+00  3.1458232215100965e+00 3.5858218462601603e+00 0.0000000000000000e+00  3.1415351143660368e+00 3.6358501233842340e+00 0.0000000000000000e+00  3.1439852998990259e+00 3.6726874267833312e+00 0.0000000000000000e+00  3.1397562495332738e+00 3.7226749075900045e+00 0.0000000000000000e+00  3.1423394063259389e+00 3.7603162914517170e+00 0.0000000000000000e+00  3.1380611240482037e+00 3.8091535756076755e+00 0.0000000000000000e+00  3.1397870562505230e+00 3.8482567861041956e+00 0.0000000000000000e+00  3.1373771371597519e+00 3.8943089803934150e+00 0.0000000000000000e+00  3.1369820945862896e+00 3.9372462455435739e+00 0.0000000000000000e+00  3.1352421751647350e+00 3.9802762215548704e+00 0.0000000000000000e+00  3.1362412565708233e+00 4.0231481023673146e+00 0.0000000000000000e+00  3.1319327799179146e+00 4.0684239560478419e+00 0.0000000000000000e+00  3.1344855461484586e+00 4.1100115982499137e+00 0.0000000000000000e+00  3.1294246136837249e+00 4.1541030599078104e+00 0.0000000000000000e+00  3.1320809869050872e+00 4.1990585915653016e+00 0.0000000000000000e+00  3.1254732073325364e+00 4.2397427010533626e+00 0.0000000000000000e+00  3.1287866142912293e+00 4.2898043387185805e+00 0.0000000000000000e+00  3.1218611272341419e+00 4.3228479166633198e+00 0.0000000000000000e+00  3.1235434705988738e+00 4.3857802346387063e+00 0.0000000000000000e+00  3.1178986413841949e+00 4.3995412019536584e+00 0.0000000000000000e+00  3.1236364145247029e+00 4.4866542455334093e+00 0.0000000000000000e+00  3.1056477657495951e+00 4.4696666808287251e+00 0.0000000000000000e+00  3.1479043199863557e+00 4.5760623980467940e+00 0.0000000000000000e+00  3.0593717802241089e+00 4.5828964869097044e+00 0.0000000000000000e+00  3.2648630189598689e+00 4.4992989958338683e+00 0.0000000000000000e+00  5.6009216391163470e+00 4.3327179317087355e-01 0.0000000000000000e+00  7.1129821700978946e+00 -1.3738143663533910e+00 0.0000000000000000e+00  7.5612181242760466e+00 -1.8527285330094081e+00 0.0000000000000000e+00  7.6377192512213563e+00 -1.9098829019702621e+00 0.0000000000000000e+00  7.6800436938557031e+00 -1.9093302744580800e+00 0.0000000000000000e+00  7.7156533807728689e+00 -1.8967071524520644e+00 0.0000000000000000e+00  7.7435950627124566e+00 -1.8796563240618562e+00 0.0000000000000000e+00  7.7647998619097462e+00 -1.8534007199971905e+00 0.0000000000000000e+00  7.7881432559915584e+00 -1.8291941734735480e+00 0.0000000000000000e+00  7.8082697806426573e+00 -1.8018434589022867e+00 0.0000000000000000e+00  7.8339471209467506e+00 -1.7809892248492276e+00 0.0000000000000000e+00  7.8534982915894505e+00 -1.7532671070043162e+00 0.0000000000000000e+00  7.8792563967927141e+00 -1.7311365862182486e+00 0.0000000000000000e+00  7.8978057737350884e+00 -1.7047745780553050e+00 0.0000000000000000e+00  7.9243118441412586e+00 -1.6818439670948506e+00 0.0000000000000000e+00  7.9426597431678427e+00 -1.6563235144528980e+00 0.0000000000000000e+00  7.9690906042592271e+00 -1.6335953745333327e+00 0.0000000000000000e+00  7.9874876392448106e+00 -1.6079894580585157e+00 0.0000000000000000e+00  8.0136858252310468e+00 -1.5853676203367399e+00 0.0000000000000000e+00  8.0323662371405540e+00 -1.5605793175521507e+00 0.0000000000000000e+00  8.0581222014423659e+00 -1.5373960395831121e+00 0.0000000000000000e+00  8.0772187571494580e+00 -1.5131690643782802e+00 0.0000000000000000e+00  8.1024072700147602e+00 -1.4898681551962576e+00 0.0000000000000000e+00  8.1220148366451994e+00 -1.4670274552232070e+00 0.0000000000000000e+00  8.1465550480122229e+00 -1.4419693668820204e+00 0.0000000000000000e+00  8.1666584804808711e+00 -1.4198721658793854e+00 0.0000000000000000e+00  8.1907250181316620e+00 -1.3949976811594635e+00 0.0000000000000000e+00  8.2110038097873215e+00 -1.3730046443915311e+00 0.0000000000000000e+00  8.2348179855914054e+00 -1.3499547458178767e+00 0.0000000000000000e+00  8.2552834501818939e+00 -1.3266376286210688e+00 0.0000000000000000e+00  8.2786146822473903e+00 -1.3013498469796572e+00 0.0000000000000000e+00  8.2994253805118330e+00 -1.2808901547167446e+00 0.0000000000000000e+00  8.3224129720380926e+00 -1.2528351452226445e+00 0.0000000000000000e+00  8.3431158051243735e+00 -1.2363534178244378e+00 0.0000000000000000e+00  8.3661351766008814e+00 -1.2059918606304489e+00 0.0000000000000000e+00  8.3867175515769024e+00 -1.1913775153133739e+00 0.0000000000000000e+00  8.4093988041521346e+00 -1.1604290846824372e+00 0.0000000000000000e+00  8.4302285893502038e+00 -1.1452615018441137e+00 0.0000000000000000e+00  8.4525109633269402e+00 -1.1152005350981122e+00 0.0000000000000000e+00  8.4732470763374454e+00 -1.0983728192670938e+00 0.0000000000000000e+00  8.4955417084857849e+00 -1.0703756862262059e+00 0.0000000000000000e+00  8.5159841232794111e+00 -1.0511717256305111e+00 0.0000000000000000e+00  8.5381080968988492e+00 -1.0267134343934561e+00 0.0000000000000000e+00  8.5585685503387285e+00 -1.0039617735427782e+00 0.0000000000000000e+00  8.5803213607964626e+00 -9.8461955672495438e-01 0.0000000000000000e+00  8.6006522521664497e+00 -9.5712474161046968e-01 0.0000000000000000e+00  8.6223492133693860e+00 -9.4339627814064841e-01 0.0000000000000000e+00  8.6422696411064841e+00 -9.1119612288869711e-01 0.0000000000000000e+00  8.6638666143588647e+00 -9.0206262411193550e-01 0.0000000000000000e+00  8.6836115227406339e+00 -8.6614795258527000e-01 0.0000000000000000e+00  8.7048459783091516e+00 -8.5995398283950630e-01 0.0000000000000000e+00  8.7243802520233800e+00 -8.2234066635159742e-01 0.0000000000000000e+00  8.7454458764359977e+00 -8.1728562729065835e-01 0.0000000000000000e+00  8.7645450746044915e+00 -7.7981380797851174e-01 0.0000000000000000e+00  8.7853610680133585e+00 -7.7475465241363428e-01 0.0000000000000000e+00  8.8042224858351261e+00 -7.3935240355315435e-01 0.0000000000000000e+00  8.8245798502360167e+00 -7.3162085656667741e-01 0.0000000000000000e+00  8.8431013798074094e+00 -7.0208449122767114e-01 0.0000000000000000e+00  8.8631505193440763e+00 -6.8761356807329022e-01 0.0000000000000000e+00  8.8812104845802189e+00 -6.6558286845595116e-01 0.0000000000000000e+00  8.9007433008572203e+00 -6.4488178368845950e-01 0.0000000000000000e+00  8.9185284061165611e+00 -6.2813790450726370e-01 0.0000000000000000e+00  8.9374132912457664e+00 -6.0414646613167489e-01 0.0000000000000000e+00  8.9547093951144969e+00 -5.8914212768173857e-01 0.0000000000000000e+00  8.9730711450188902e+00 -5.6556214842273811e-01 0.0000000000000000e+00  8.9898262885530915e+00 -5.5052722531592402e-01 0.0000000000000000e+00  9.0073506527852878e+00 -5.3002506817457662e-01 0.0000000000000000e+00  9.0237233684513622e+00 -5.1328162836302205e-01 0.0000000000000000e+00  9.0403518515659034e+00 -4.9560033863114994e-01 0.0000000000000000e+00  9.0560034739283513e+00 -4.7827637050262506e-01 0.0000000000000000e+00  9.0718985588579688e+00 -4.6414276979307456e-01 0.0000000000000000e+00  9.0867518604803941e+00 -4.4442298012455306e-01 0.0000000000000000e+00  9.1015466043387647e+00 -4.3358640943905929e-01 0.0000000000000000e+00  9.1158169164759979e+00 -4.1136963488673695e-01 0.0000000000000000e+00  9.1293702277290887e+00 -4.0228822109537427e-01 0.0000000000000000e+00  9.1427027034122101e+00 -3.7698068716926264e-01 0.0000000000000000e+00  9.1552460470556287e+00 -3.6865617264324646e-01 0.0000000000000000e+00  9.1674955803001872e+00 -3.4258687921340747e-01 0.0000000000000000e+00  9.1785925145739746e+00 -3.4159765497243649e-01 0.0000000000000000e+00  9.1900698582251401e+00 -3.1801196320343261e-01 0.0000000000000000e+00  9.1995277050191540e+00 -3.1570052306586183e-01 0.0000000000000000e+00  9.2098703906011217e+00 -2.9187703716816071e-01 0.0000000000000000e+00  9.2180239557955410e+00 -2.8872270990068472e-01 0.0000000000000000e+00  9.2270228349072898e+00 -2.5982281733476681e-01 0.0000000000000000e+00  9.2334571352510775e+00 -2.5478909307246944e-01 0.0000000000000000e+00  9.2415150066432492e+00 -2.1895538650050267e-01 0.0000000000000000e+00  9.2460550266385670e+00 -2.0735489787176259e-01 0.0000000000000000e+00  9.2526522318920534e+00 -1.8494141872620387e-01 0.0000000000000000e+00  9.2557471149855175e+00 -1.5839838206720275e-01 0.0000000000000000e+00  9.2607086358453614e+00 -1.5034591611179665e-01 0.0000000000000000e+00  9.2619314449823698e+00 -1.1392285079136057e-01 0.0000000000000000e+00  9.2657824746026396e+00 -1.2747347558766128e-01 0.0000000000000000e+00  9.2651517956760525e+00 -3.5821427205796758e-02 0.0000000000000000e+00  9.2676593439204886e+00 0.0000000000000000e+00 0.0000000000000000e+00  3.1847232148099902e+00 0.0000000000000000e+00 -3.1499504968895446e-03  3.1837746203931263e+00 3.5844413342592411e-02 -9.4197550095501351e-03  3.1842018809665675e+00 9.3266944505487392e-02 1.1629636094302861e-02  3.1839917902540460e+00 1.3175307833912003e-01 9.8808211130391199e-04  3.1847421882320774e+00 1.7425518467346826e-01 -5.7137705299545438e-03  3.1836455917800777e+00 2.2486847897732484e-01 7.5864962258756236e-03  3.1845421380776946e+00 2.6128326488301695e-01 -8.2559903894354868e-03  3.1841526961466520e+00 3.1284248451162305e-01 9.8478645397538853e-03  3.1840811188997007e+00 3.4836665048145066e-01 -1.3136651416952782e-02  3.1837472837671905e+00 4.0312659469584744e-01 1.7053158943469586e-02  3.1846023708173972e+00 4.3301077998235010e-01 -2.0395409715748769e-02  3.1830072401407050e+00 4.9312585727463193e-01 2.1492906253311413e-02  3.1842689232986134e+00 5.2113088705971156e-01 -1.9367308169710065e-02  3.1834049489608205e+00 5.7853856661646585e-01 1.3908006139972189e-02  3.1832462376852857e+00 6.1112406305130285e-01 -6.3821925343357537e-03  3.1835284626334839e+00 6.6505544338449485e-01 -2.1768412937911053e-03  3.1827909828858396e+00 7.0120416029044719e-01 9.5851656281850609e-03  3.1832769269603083e+00 7.4638530276041937e-01 -1.4574762891755997e-02  3.1821146026273865e+00 8.0004200846587670e-01 1.6442391470450887e-02  3.1833146910592309e+00 8.2281306380336372e-01 -1.6568766713847483e-02  3.1813766272643083e+00 8.9208344802364203e-01 1.6082152240074997e-02  3.1829592371755666e+00 9.1788417051004323e-01 -1.5719857475057931e-02  3.1810675785947535e+00 9.6481204392754305e-01 1.4403179593764770e-02  3.1822628885526028e+00 1.0166773705281045e+00 -1.1574303144211182e-02  3.1808767636456539e+00 1.0563571894175923e+00 6.9013798983947796e-03  3.1813805103395398e+00 1.0865435636303542e+00 -2.0155270300489573e-03  3.1807762702657216e+00 1.1625921373499786e+00 -1.6362846343629027e-03  3.1805358145624090e+00 1.1715698628747973e+00 2.7576294798266334e-03  3.1802944545806771e+00 1.2334188060535498e+00 -2.1294811308398046e-03  3.1800719274718259e+00 1.2837809980524393e+00 9.2816374848452867e-04  3.1796355212512544e+00 1.3082994317058645e+00 -5.4131562459689764e-04  3.1793899001597574e+00 1.3645454648445599e+00 8.6542152350209606e-04  3.1791999238346746e+00 1.4141356707082409e+00 -1.6825123854492044e-03  3.1786390346056885e+00 1.4420346216633859e+00 2.7155808976485618e-03  3.1785956364641303e+00 1.4942524111484508e+00 -3.8676012664425508e-03  3.1778811386431114e+00 1.5500530312027463e+00 4.8731661804290753e-03  3.1781438088220151e+00 1.5662071724025135e+00 -5.3572295924735570e-03  3.1769555571829073e+00 1.6371802019717452e+00 4.5175881374873387e-03  3.1773476104942886e+00 1.6697858544667736e+00 -2.3789495115966821e-03  3.1767041314767077e+00 1.7074351835207700e+00 -9.7911133951050411e-05  3.1759335354580824e+00 1.7647496052662750e+00 1.7826906287293112e-03  3.1762882093968461e+00 1.8008017869975765e+00 -2.1570078772259341e-03  3.1752247270300935e+00 1.8426008061623858e+00 1.6431211813227801e-03  3.1751580654809048e+00 1.8934176325202901e+00 -1.5993647366437593e-03  3.1743539690410834e+00 1.9340596360330873e+00 2.3467377184125063e-03  3.1748071655726084e+00 1.9737821296845963e+00 -3.6943977388000570e-03  3.1727088408681157e+00 2.0266118571007539e+00 4.7260672647190666e-03  3.1742187976385896e+00 2.0623108962886008e+00 -4.9997015400522820e-03  3.1719758752710310e+00 2.1107988767746133e+00 4.9894985058089938e-03  3.1728554234978001e+00 2.1520249551287587e+00 -5.1444244418329338e-03  3.1707485969695024e+00 2.2005961233725673e+00 5.8073531615132901e-03  3.1727396502132277e+00 2.2350902152984049e+00 -6.5826757348111898e-03  3.1686639049306584e+00 2.2920091647798699e+00 7.0700656809010512e-03  3.1717454151114546e+00 2.3225763114356215e+00 -7.1026276069789890e-03  3.1684359275899467e+00 2.3767808813510398e+00 6.8214797963159213e-03  3.1695437388876617e+00 2.4131541674844823e+00 -6.4882370424889091e-03  3.1671481100339482e+00 2.4640894936493045e+00 6.1312111915854161e-03  3.1696019033449319e+00 2.4984082036859721e+00 -5.5966668336603683e-03  3.1645920526108493e+00 2.5535956000220970e+00 4.8164095968524067e-03  3.1680056168059512e+00 2.5873331118058078e+00 -3.7269800246203981e-03  3.1652218264317109e+00 2.6362319692722171e+00 2.6209679112489102e-03  3.1645187629962961e+00 2.6796476700593375e+00 -1.6206411647742961e-03  3.1641781756308505e+00 2.7224429785393811e+00 8.8878050482467722e-04  3.1646465845713543e+00 2.7639496209492780e+00 -3.9922116423886031e-04  3.1608473964680783e+00 2.8138148684283624e+00 1.2599312771163177e-04  3.1632402426109776e+00 2.8501399458113208e+00 -6.4378553034283894e-05  3.1611306924727156e+00 2.8983215114369840e+00 2.4564486599341217e-04  3.1595502212927613e+00 2.9411805231563211e+00 -6.1755354753812244e-04  3.1598827760516168e+00 2.9840854856174555e+00 1.0909363112108768e-03  3.1594393835546302e+00 3.0266031785416376e+00 -1.3474601097977321e-03  3.1562914066837306e+00 3.0736774324849523e+00 1.3059298743451806e-03  3.1581434257025571e+00 3.1133815203505506e+00 -7.9885056848668539e-04  3.1558672583360696e+00 3.1581072582265133e+00 1.1624330128804383e-04  3.1545143185315978e+00 3.2039768226613772e+00 6.6620727021273797e-04  3.1549663488587854e+00 3.2429839501525324e+00 -1.2739047706027571e-03  3.1529772255825290e+00 3.2905642686938092e+00 1.7454068064630130e-03  3.1522878130605361e+00 3.3316641344208007e+00 -1.9588941086489068e-03  3.1514851265780814e+00 3.3760939293545120e+00 2.0019106261090326e-03  3.1504714887030212e+00 3.4184919844401600e+00 -1.8600208054004798e-03  3.1492927327276643e+00 3.4638568026693002e+00 1.7074605838776405e-03  3.1485538717778168e+00 3.5045330720792931e+00 -1.5744594112167235e-03  3.1473208924317841