<?xml version="1.0"?>
<VTKFile type="UnstructuredGrid"  version="0.1"  >
<UnstructuredGrid>
<Piece  NumberOfPoints="8241" NumberOfCells="16000">
<Points>
<DataArray  type="Float64"  NumberOfComponents="3"  format="ascii">-5 -1 0  -4.95 -1 0  -4.9 -1 0  -4.85 -1 0  -4.8 -1 0  -4.75 -1 0  -4.7 -1 0  -4.65 -1 0  -4.6 -1 0  -4.55 -1 0  -4.5 -1 0  -4.45 -1 0  -4.4 -1 0  -4.35 -1 0  -4.3 -1 0  -4.25 -1 0  -4.2 -1 0  -4.15 -1 0  -4.1 -1 0  -4.05 -1 0  -4 -1 0  -3.95 -1 0  -3.9 -1 0  -3.85 -1 0  -3.8 -1 0  -3.75 -1 0  -3.7 -1 0  -3.65 -1 0  -3.6 -1 0  -3.55 -1 0  -3.5 -1 0  -3.45 -1 0  -3.4 -1 0  -3.35 -1 0  -3.3 -1 0  -3.25 -1 0  -3.2 -1 0  -3.15 -1 0  -3.1 -1 0  -3.05 -1 0  -3 -1 0  -2.95 -1 0  -2.9 -1 0  -2.85 -1 0  -2.8 -1 0  -2.75 -1 0  -2.7 -1 0  -2.65 -1 0  -2.6 -1 0  -2.55 -1 0  -2.5 -1 0  -2.45 -1 0  -2.4 -1 0  -2.35 -1 0  -2.3 -1 0  -2.25 -1 0  -2.2 -1 0  -2.15 -1 0  -2.1 -1 0  -2.05 -1 0  -2 -1 0  -1.95 -1 0  -1.9 -1 0  -1.85 -1 0  -1.8 -1 0  -1.75 -1 0  -1.7 -1 0  -1.65 -1 0  -1.6 -1 0  -1.55 -1 0  -1.5 -1 0  -1.45 -1 0  -1.4 -1 0  -1.35 -1 0  -1.3 -1 0  -1.25 -1 0  -1.2 -1 0  -1.15 -1 0  -1.1 -1 0  -1.05 -1 0  -1 -1 0  -0.9500000000000002 -1 0  -0.9000000000000004 -1 0  -0.8499999999999996 -1 0  -0.7999999999999998 -1 0  -0.75 -1 0  -0.7000000000000002 -1 0  -0.6500000000000004 -1 0  -0.5999999999999996 -1 0  -0.5499999999999998 -1 0  -0.5 -1 0  -0.4500000000000002 -1 0  -0.4000000000000004 -1 0  -0.3499999999999996 -1 0  -0.2999999999999998 -1 0  -0.25 -1 0  -0.2000000000000002 -1 0  -0.1500000000000004 -1 0  -0.09999999999999964 -1 0  -0.04999999999999982 -1 0  0 -1 0  0.04999999999999982 -1 0  0.09999999999999964 -1 0  0.1500000000000004 -1 0  0.2000000000000002 -1 0  0.25 -1 0  0.2999999999999998 -1 0  0.3499999999999996 -1 0  0.4000000000000004 -1 0  0.4500000000000002 -1 0  0.5 -1 0  0.5499999999999998 -1 0  0.5999999999999996 -1 0  0.6500000000000004 -1 0  0.7000000000000002 -1 0  0.75 -1 0  0.7999999999999998 -1 0  0.8499999999999996 -1 0  0.9000000000000004 -1 0  0.9500000000000002 -1 0  1 -1 0  1.05 -1 0  1.1 -1 0  1.15 -1 0  1.2 -1 0  1.25 -1 0  1.3 -1 0  1.35 -1 0  1.4 -1 0  1.45 -1 0  1.5 -1 0  1.55 -1 0  1.6 -1 0  1.65 -1 0  1.7 -1 0  1.75 -1 0  1.8 -1 0  1.85 -1 0  1.9 -1 0  1.95 -1 0  2 -1 0  2.05 -1 0  2.1 -1 0  2.15 -1 0  2.2 -1 0  2.25 -1 0  2.3 -1 0  2.35 -1 0  2.4 -1 0  2.45 -1 0  2.5 -1 0  2.55 -1 0  2.6 -1 0  2.65 -1 0  2.7 -1 0  2.75 -1 0  2.8 -1 0  2.85 -1 0  2.9 -1 0  2.95 -1 0  3 -1 0  3.050000000000001 -1 0  3.1 -1 0  3.15 -1 0  3.199999999999999 -1 0  3.25 -1 0  3.300000000000001 -1 0  3.35 -1 0  3.4 -1 0  3.449999999999999 -1 0  3.5 -1 0  3.550000000000001 -1 0  3.6 -1 0  3.65 -1 0  3.699999999999999 -1 0  3.75 -1 0  3.800000000000001 -1 0  3.85 -1 0  3.9 -1 0  3.949999999999999 -1 0  4 -1 0  4.050000000000001 -1 0  4.1 -1 0  4.15 -1 0  4.199999999999999 -1 0  4.25 -1 0  4.300000000000001 -1 0  4.35 -1 0  4.4 -1 0  4.449999999999999 -1 0  4.5 -1 0  4.550000000000001 -1 0  4.6 -1 0  4.65 -1 0  4.699999999999999 -1 0  4.75 -1 0  4.800000000000001 -1 0  4.85 -1 0  4.9 -1 0  4.949999999999999 -1 0  5 -1 0  -5 -0.95 0  -4.95 -0.95 0  -4.9 -0.95 0  -4.85 -0.95 0  -4.8 -0.95 0  -4.75 -0.95 0  -4.7 -0.95 0  -4.65 -0.95 0  -4.6 -0.95 0  -4.55 -0.95 0  -4.5 -0.95 0  -4.45 -0.95 0  -4.4 -0.95 0  -4.35 -0.95 0  -4.3 -0.95 0  -4.25 -0.95 0  -4.2 -0.95 0  -4.15 -0.95 0  -4.1 -0.95 0  -4.05 -0.95 0  -4 -0.95 0  -3.95 -0.95 0  -3.9 -0.95 0  -3.85 -0.95 0  -3.8 -0.95 0  -3.75 -0.95 0  -3.7 -0.95 0  -3.65 -0.95 0  -3.6 -0.95 0  -3.55 -0.95 0  -3.5 -0.95 0  -3.45 -0.95 0  -3.4 -0.95 0  -3.35 -0.95 0  -3.3 -0.95 0  -3.25 -0.95 0  -3.2 -0.95 0  -3.15 -0.95 0  -3.1 -0.95 0  -3.05 -0.95 0  -3 -0.95 0  -2.95 -0.95 0  -2.9 -0.95 0  -2.85 -0.95 0  -2.8 -0.95 0  -2.75 -0.95 0  -2.7 -0.95 0  -2.65 -0.95 0  -2.6 -0.95 0  -2.55 -0.95 0  -2.5 -0.95 0  -2.45 -0.95 0  -2.4 -0.95 0  -2.35 -0.95 0  -2.3 -0.95 0  -2.25 -0.95 0  -2.2 -0.95 0  -2.15 -0.95 0  -2.1 -0.95 0  -2.05 -0.95 0  -2 -0.95 0  -1.95 -0.95 0  -1.9 -0.95 0  -1.85 -0.95 0  -1.8 -0.95 0  -1.75 -0.95 0  -1.7 -0.95 0  -1.65 -0.95 0  -1.6 -0.95 0  -1.55 -0.95 0  -1.5 -0.95 0  -1.45 -0.95 0  -1.4 -0.95 0  -1.35 -0.95 0  -1.3 -0.95 0  -1.25 -0.95 0  -1.2 -0.95 0  -1.15 -0.95 0  -1.1 -0.95 0  -1.05 -0.95 0  -1 -0.95 0  -0.9500000000000002 -0.95 0  -0.9000000000000004 -0.95 0  -0.8499999999999996 -0.95 0  -0.7999999999999998 -0.95 0  -0.75 -0.95 0  -0.7000000000000002 -0.95 0  -0.6500000000000004 -0.95 0  -0.5999999999999996 -0.95 0  -0.5499999999999998 -0.95 0  -0.5 -0.95 0  -0.4500000000000002 -0.95 0  -0.4000000000000004 -0.95 0  -0.3499999999999996 -0.95 0  -0.2999999999999998 -0.95 0  -0.25 -0.95 0  -0.2000000000000002 -0.95 0  -0.1500000000000004 -0.95 0  -0.09999999999999964 -0.95 0  -0.04999999999999982 -0.95 0  0 -0.95 0  0.04999999999999982 -0.95 0  0.09999999999999964 -0.95 0  0.1500000000000004 -0.95 0  0.2000000000000002 -0.95 0  0.25 -0.95 0  0.2999999999999998 -0.95 0  0.3499999999999996 -0.95 0  0.4000000000000004 -0.95 0  0.4500000000000002 -0.95 0  0.5 -0.95 0  0.5499999999999998 -0.95 0  0.5999999999999996 -0.95 0  0.6500000000000004 -0.95 0  0.7000000000000002 -0.95 0  0.75 -0.95 0  0.7999999999999998 -0.95 0  0.8499999999999996 -0.95 0  0.9000000000000004 -0.95 0  0.9500000000000002 -0.95 0  1 -0.95 0  1.05 -0.95 0  1.1 -0.95 0  1.15 -0.95 0  1.2 -0.95 0  1.25 -0.95 0  1.3 -0.95 0  1.35 -0.95 0  1.4 -0.95 0  1.45 -0.95 0  1.5 -0.95 0  1.55 -0.95 0  1.6 -0.95 0  1.65 -0.95 0  1.7 -0.95 0  1.75 -0.95 0  1.8 -0.95 0  1.85 -0.95 0  1.9 -0.95 0  1.95 -0.95 0  2 -0.95 0  2.05 -0.95 0  2.1 -0.95 0  2.15 -0.95 0  2.2 -0.95 0  2.25 -0.95 0  2.3 -0.95 0  2.35 -0.95 0  2.4 -0.95 0  2.45 -0.95 0  2.5 -0.95 0  2.55 -0.95 0  2.6 -0.95 0  2.65 -0.95 0  2.7 -0.95 0  2.75 -0.95 0  2.8 -0.95 0  2.85 -0.95 0  2.9 -0.95 0  2.95 -0.95 0  3 -0.95 0  3.050000000000001 -0.95 0  3.1 -0.95 0  3.15 -0.95 0  3.199999999999999 -0.95 0  3.25 -0.95 0  3.300000000000001 -0.95 0  3.35 -0.95 0  3.4 -0.95 0  3.449999999999999 -0.95 0  3.5 -0.95 0  3.550000000000001 -0.95 0  3.6 -0.95 0  3.65 -0.95 0  3.699999999999999 -0.95 0  3.75 -0.95 0  3.800000000000001 -0.95 0  3.85 -0.95 0  3.9 -0.95 0  3.949999999999999 -0.95 0  4 -0.95 0  4.050000000000001 -0.95 0  4.1 -0.95 0  4.15 -0.95 0  4.199999999999999 -0.95 0  4.25 -0.95 0  4.300000000000001 -0.95 0  4.35 -0.95 0  4.4 -0.95 0  4.449999999999999 -0.95 0  4.5 -0.95 0  4.550000000000001 -0.95 0  4.6 -0.95 0  4.65 -0.95 0  4.699999999999999 -0.95 0  4.75 -0.95 0  4.800000000000001 -0.95 0  4.85 -0.95 0  4.9 -0.95 0  4.949999999999999 -0.95 0  5 -0.95 0  -5 -0.9 0  -4.95 -0.9 0  -4.9 -0.9 0  -4.85 -0.9 0  -4.8 -0.9 0  -4.75 -0.9 0  -4.7 -0.9 0  -4.65 -0.9 0  -4.6 -0.9 0  -4.55 -0.9 0  -4.5 -0.9 0  -4.45 -0.9 0  -4.4 -0.9 0  -4.35 -0.9 0  -4.3 -0.9 0  -4.25 -0.9 0  -4.2 -0.9 0  -4.15 -0.9 0  -4.1 -0.9 0  -4.05 -0.9 0  -4 -0.9 0  -3.95 -0.9 0  -3.9 -0.9 0  -3.85 -0.9 0  -3.8 -0.9 0  -3.75 -0.9 0  -3.7 -0.9 0  -3.65 -0.9 0  -3.6 -0.9 0  -3.55 -0.9 0  -3.5 -0.9 0  -3.45 -0.9 0  -3.4 -0.9 0  -3.35 -0.9 0  -3.3 -0.9 0  -3.25 -0.9 0  -3.2 -0.9 0  -3.15 -0.9 0  -3.1 -0.9 0  -3.05 -0.9 0  -3 -0.9 0  -2.95 -0.9 0  -2.9 -0.9 0  -2.85 -0.9 0  -2.8 -0.9 0  -2.75 -0.9 0  -2.7 -0.9 0  -2.65 -0.9 0  -2.6 -0.9 0  -2.55 -0.9 0  -2.5 -0.9 0  -2.45 -0.9 0  -2.4 -0.9 0  -2.35 -0.9 0  -2.3 -0.9 0  -2.25 -0.9 0  -2.2 -0.9 0  -2.15 -0.9 0  -2.1 -0.9 0  -2.05 -0.9 0  -2 -0.9 0  -1.95 -0.9 0  -1.9 -0.9 0  -1.85 -0.9 0  -1.8 -0.9 0  -1.75 -0.9 0  -1.7 -0.9 0  -1.65 -0.9 0  -1.6 -0.9 0  -1.55 -0.9 0  -1.5 -0.9 0  -1.45 -0.9 0  -1.4 -0.9 0  -1.35 -0.9 0  -1.3 -0.9 0  -1.25 -0.9 0  -1.2 -0.9 0  -1.15 -0.9 0  -1.1 -0.9 0  -1.05 -0.9 0  -1 -0.9 0  -0.9500000000000002 -0.9 0  -0.9000000000000004 -0.9 0  -0.8499999999999996 -0.9 0  -0.7999999999999998 -0.9 0  -0.75 -0.9 0  -0.7000000000000002 -0.9 0  -0.6500000000000004 -0.9 0  -0.5999999999999996 -0.9 0  -0.5499999999999998 -0.9 0  -0.5 -0.9 0  -0.4500000000000002 -0.9 0  -0.4000000000000004 -0.9 0  -0.3499999999999996 -0.9 0  -0.2999999999999998 -0.9 0  -0.25 -0.9 0  -0.2000000000000002 -0.9 0  -0.1500000000000004 -0.9 0  -0.09999999999999964 -0.9 0  -0.04999999999999982 -0.9 0  0 -0.9 0  0.04999999999999982 -0.9 0  0.09999999999999964 -0.9 0  0.1500000000000004 -0.9 0  0.2000000000000002 -0.9 0  0.25 -0.9 0  0.2999999999999998 -0.9 0  0.3499999999999996 -0.9 0  0.4000000000000004 -0.9 0  0.4500000000000002 -0.9 0  0.5 -0.9 0  0.5499999999999998 -0.9 0  0.5999999999999996 -0.9 0  0.6500000000000004 -0.9 0  0.7000000000000002 -0.9 0  0.75 -0.9 0  0.7999999999999998 -0.9 0  0.8499999999999996 -0.9 0  0.9000000000000004 -0.9 0  0.9500000000000002 -0.9 0  1 -0.9 0  1.05 -0.9 0  1.1 -0.9 0  1.15 -0.9 0  1.2 -0.9 0  1.25 -0.9 0  1.3 -0.9 0  1.35 -0.9 0  1.4 -0.9 0  1.45 -0.9 0  1.5 -0.9 0  1.55 -0.9 0  1.6 -0.9 0  1.65 -0.9 0  1.7 -0.9 0  1.75 -0.9 0  1.8 -0.9 0  1.85 -0.9 0  1.9 -0.9 0  1.95 -0.9 0  2 -0.9 0  2.05 -0.9 0  2.1 -0.9 0  2.15 -0.9 0  2.2 -0.9 0  2.25 -0.9 0  2.3 -0.9 0  2.35 -0.9 0  2.4 -0.9 0  2.45 -0.9 0  2.5 -0.9 0  2.55 -0.9 0  2.6 -0.9 0  2.65 -0.9 0  2.7 -0.9 0  2.75 -0.9 0  2.8 -0.9 0  2.85 -0.9 0  2.9 -0.9 0  2.95 -0.9 0  3 -0.9 0  3.050000000000001 -0.9 0  3.1 -0.9 0  3.15 -0.9 0  3.199999999999999 -0.9 0  3.25 -0.9 0  3.300000000000001 -0.9 0  3.35 -0.9 0  3.4 -0.9 0  3.449999999999999 -0.9 0  3.5 -0.9 0  3.550000000000001 -0.9 0  3.6 -0.9 0  3.65 -0.9 0  3.699999999999999 -0.9 0  3.75 -0.9 0  3.800000000000001 -0.9 0  3.85 -0.9 0  3.9 -0.9 0  3.949999999999999 -0.9 0  4 -0.9 0  4.050000000000001 -0.9 0  4.1 -0.9 0  4.15 -0.9 0  4.199999999999999 -0.9 0  4.25 -0.9 0  4.300000000000001 -0.9 0  4.35 -0.9 0  4.4 -0.9 0  4.449999999999999 -0.9 0  4.5 -0.9 0  4.550000000000001 -0.9 0  4.6 -0.9 0  4.65 -0.9 0  4.699999999999999 -0.9 0  4.75 -0.9 0  4.800000000000001 -0.9 0  4.85 -0.9 0  4.9 -0.9 0  4.949999999999999 -0.9 0  5 -0.9 0  -5 -0.85 0  -4.95 -0.85 0  -4.9 -0.85 0  -4.85 -0.85 0  -4.8 -0.85 0  -4.75 -0.85 0  -4.7 -0.85 0  -4.65 -0.85 0  -4.6 -0.85 0  -4.55 -0.85 0  -4.5 -0.85 0  -
[...]
<PointData  Vectors="f_15"> 
<DataArray  type="Float64"  Name="f_15"  NumberOfComponents="3" format="ascii">9.9988932134703319e+00 0.0000000000000000e+00 0.0000000000000000e+00  9.9988227773519043e+00 3.8882062735364408e-04 0.0000000000000000e+00  9.9986788901161443e+00 7.6873010179125036e-04 0.0000000000000000e+00  9.9983464099117132e+00 1.2495318535363403e-03 0.0000000000000000e+00  9.9979483112381722e+00 1.7920416855870581e-03 0.0000000000000000e+00  9.9973010640376661e+00 2.5169323229380647e-03 0.0000000000000000e+00  9.9964879983103074e+00 3.3778989203056306e-03 0.0000000000000000e+00  9.9953954944404071e+00 4.5246589750843605e-03 0.0000000000000000e+00  9.9939983249573885e+00 5.9402329836029302e-03 0.0000000000000000e+00  9.9921803520716423e+00 7.7560921484118714e-03 0.0000000000000000e+00  9.9899397724981416e+00 1.0005976465321512e-02 0.0000000000000000e+00  9.9870808345411444e+00 1.2855875188841626e-02 0.0000000000000000e+00  9.9835757248655881e+00 1.6319818441217365e-02 0.0000000000000000e+00  9.9792588497759578e+00 2.0626520555492387e-02 0.0000000000000000e+00  9.9740200060634745e+00 2.5815635719660796e-02 0.0000000000000000e+00  9.9676760313751203e+00 3.2105354995726948e-02 0.0000000000000000e+00  9.9601443159455965e+00 3.9582261796944254e-02 0.0000000000000000e+00  9.9511759312910559e+00 4.8487405163537549e-02 0.0000000000000000e+00  9.9406876728559155e+00 5.8880106745120717e-02 0.0000000000000000e+00  9.9284547571401482e+00 7.1048258342642182e-02 0.0000000000000000e+00  9.9143761781883555e+00 8.5022560490222401e-02 0.0000000000000000e+00  9.8982217440044593e+00 1.0108932472912838e-01 0.0000000000000000e+00  9.8799472168429805e+00 1.1926869535245455e-01 0.0000000000000000e+00  9.8593257995400450e+00 1.3981395999654125e-01 0.0000000000000000e+00  9.8363339731892978e+00 1.6271771767671483e-01 0.0000000000000000e+00  9.8107947620318665e+00 1.8822848382492935e-01 0.0000000000000000e+00  9.7827447769581326e+00 2.1623572960892937e-01 0.0000000000000000e+00  9.7520022786395497e+00 2.4702189685244688e-01 0.0000000000000000e+00  9.7186759621147196e+00 2.8040490806923729e-01 0.0000000000000000e+00  9.6826541243378728e+00 3.1658893470376143e-01 0.0000000000000000e+00  9.6440354810074229e+00 3.5541104758141767e-01 0.0000000000000000e+00  9.6027591906153553e+00 3.9704103887531172e-01 0.0000000000000000e+00  9.5590244939161053e+00 4.4117530704613866e-01 0.0000000000000000e+00  9.5127157399442961e+00 4.8809707129131286e-01 0.0000000000000000e+00  9.4640827862017183e+00 5.3740891385074552e-01 0.0000000000000000e+00  9.4131087637317243e+00 5.8930526650488546e-01 0.0000000000000000e+00  9.3599638602224964e+00 6.4348675885466444e-01 0.0000000000000000e+00  9.3046604247105034e+00 7.0010812559869651e-01 0.0000000000000000e+00  9.2474807360474216e+00 7.5872951898042884e-01 0.0000000000000000e+00  9.1883192565531857e+00 8.1968174995395748e-01 0.0000000000000000e+00  9.1274859758580771e+00 8.8244999665768631e-01 0.0000000000000000e+00  9.0649822741328094e+00 9.4725051178030151e-01 0.0000000000000000e+00  9.0009866117622206e+00 1.0137565161820117e+00 0.0000000000000000e+00  8.9355143807437933e+00 1.0820992312150963e+00 0.0000000000000000e+00  8.8688604704866876e+00 1.1518791355935207e+00 0.0000000000000000e+00  8.8008868989083755e+00 1.2233545954438447e+00 0.0000000000000000e+00  8.7319117275629878e+00 1.2961422074693523e+00 0.0000000000000000e+00  8.6618991700097503e+00 1.3703094821557700e+00 0.0000000000000000e+00  8.5910228426880124e+00 1.4457420020956444e+00 0.0000000000000000e+00  8.5192600198132045e+00 1.5223619460398454e+00 0.0000000000000000e+00  8.4468896582639186e+00 1.6000542682547856e+00 0.0000000000000000e+00  8.3737407753361079e+00 1.6788100544458686e+00 0.0000000000000000e+00  8.3001168497261677e+00 1.7585490290243755e+00 0.0000000000000000e+00  8.2259308651516267e+00 1.8391260722852112e+00 0.0000000000000000e+00  8.1513618785927360e+00 1.9206261923254853e+00 0.0000000000000000e+00  8.0763359346196282e+00 2.0028490877307603e+00 0.0000000000000000e+00  8.0011175953212632e+00 2.0858471199228776e+00 0.0000000000000000e+00  7.9255058588004088e+00 2.1694801527680596e+00 0.0000000000000000e+00  7.8498036889940499e+00 2.2538023012842148e+00 0.0000000000000000e+00  7.7738498613754095e+00 2.3386623814305554e+00 0.0000000000000000e+00  7.6978747537494501e+00 2.4240913596399367e+00 0.0000000000000000e+00  7.6217149656657632e+00 2.5100127200603124e+00 0.0000000000000000e+00  7.5456708427956460e+00 2.5964293401599816e+00 0.0000000000000000e+00  7.4694736803659794e+00 2.6832344759126823e+00 0.0000000000000000e+00  7.3934784420647546e+00 2.7704351054712371e+00 0.0000000000000000e+00  7.3174100591013111e+00 2.8580904378351177e+00 0.0000000000000000e+00  7.2416006414122691e+00 2.9459263670658973e+00 0.0000000000000000e+00  7.1657608118725422e+00 3.0342061444406312e+00 0.0000000000000000e+00  7.0902745738190998e+00 3.1226678106511412e+00 0.0000000000000000e+00  7.0147730340284031e+00 3.2114884569407822e+00 0.0000000000000000e+00  6.9396945589154369e+00 3.3003620644898919e+00 0.0000000000000000e+00  6.8646447567993496e+00 3.3896670134236992e+00 0.0000000000000000e+00  6.7900604956418036e+00 3.4789246370990670e+00 0.0000000000000000e+00  6.7155365258489921e+00 3.5685662990595297e+00 0.0000000000000000e+00  6.6415356655320785e+00 3.6581189868715054e+00 0.0000000000000000e+00  6.5676089994509388e+00 3.7480365678871848e+00 0.0000000000000000e+00  6.4942497131296495e+00 3.8378207759704739e+00 0.0000000000000000e+00  6.4209988518660124e+00 3.9279410633803287e+00 0.0000000000000000e+00  6.3483297279991548e+00 4.0178813345741222e+00 0.0000000000000000e+00  6.2758073092342350e+00 4.1081346817804452e+00 0.0000000000000000e+00  6.2038914690784051e+00 4.1981894646310023e+00 0.0000000000000000e+00  6.1321382704433622e+00 4.2885186170828806e+00 0.0000000000000000e+00  6.0610139033914088e+00 4.3786311476312356e+00 0.0000000000000000e+00  5.9900954183373916e+00 4.4689692580346101e+00 0.0000000000000000e+00  5.9197880930364377e+00 4.5590932006221543e+00 0.0000000000000000e+00  5.8497483332988605e+00 4.6493830614276321e+00 0.0000000000000000e+00  5.7803151718664214e+00 4.7394611373771127e+00 0.0000000000000000e+00  5.7111811259178324e+00 4.8296579699496869e+00 0.0000000000000000e+00  5.6426555424360174e+00 4.9196304462939953e+00 0.0000000000000000e+00  5.5744892343479719e+00 5.0096561458926372e+00 0.0000000000000000e+00  5.5068824246650783e+00 5.0995043399807356e+00 0.0000000000000000e+00  5.4397348556238478e+00 5.1892818064920299e+00 0.0000000000000000e+00  5.3731015460210072e+00 5.2789380568555764e+00 0.0000000000000000e+00  5.3069603801122343e+00 5.3684618295408999e+00 0.0000000000000000e+00  5.2413527438692764e+00 5.4578475576025154e+00 0.0000000000000000e+00  5.1762773804725963e+00 5.5470201436360718e+00 0.0000000000000000e+00  5.1117561234071847e+00 5.6360439120105585e+00 0.0000000000000000e+00  5.0477892111740408e+00 5.7247983875884900e+00 0.0000000000000000e+00  4.9844372692128722e+00 5.8133201049719387e+00 0.0000000000000000e+00  4.9216678460396377e+00 5.9015209431968580e+00 0.0000000000000000e+00  4.8595477233905431e+00 5.9894321155367791e+00 0.0000000000000000e+00  4.7980544399099418e+00 6.0769493528450589e+00 0.0000000000000000e+00  4.7373224512964818e+00 6.1639855084001196e+00 0.0000000000000000e+00  4.6773147513625313e+00 6.2504884114440316e+00 0.0000000000000000e+00  4.6181422653589141e+00 6.3363654545880896e+00 0.0000000000000000e+00  4.5598675172601162e+00 6.4214542582246006e+00 0.0000000000000000e+00  4.5025135857936807e+00 6.5057526962831833e+00 0.0000000000000000e+00  4.4463528456292609e+00 6.5887999595633868e+00 0.0000000000000000e+00  4.3910292774272914e+00 6.6711238805961992e+00 0.0000000000000000e+00  4.3374462821302853e+00 6.7513498258468765e+00 0.0000000000000000e+00  4.2855079077542255e+00 6.8295800171780199e+00 0.0000000000000000e+00  4.2358990667483880e+00 6.9047563731385582e+00 0.0000000000000000e+00  4.1890131233495413e+00 6.9762018304132472e+00 0.0000000000000000e+00  4.1458354343781112e+00 7.0423550785183480e+00 0.0000000000000000e+00  4.1072067381033897e+00 7.1017994242948470e+00 0.0000000000000000e+00  4.0742279928549321e+00 7.1527602868222511e+00 0.0000000000000000e+00  4.0472315481182752e+00 7.1945861434236775e+00 0.0000000000000000e+00  4.0259529098510463e+00 7.2276289642812852e+00 0.0000000000000000e+00  4.0093174869547399e+00 7.2534809058780967e+00 0.0000000000000000e+00  3.9964122841039353e+00 7.2735592498581534e+00 0.0000000000000000e+00  3.9864403276029678e+00 7.2890637583029507e+00 0.0000000000000000e+00  3.9789830368745607e+00 7.3006528331651532e+00 0.0000000000000000e+00  3.9735266348438567e+00 7.3090959862124629e+00 0.0000000000000000e+00  3.9696795905742976e+00 7.3150203920060752e+00 0.0000000000000000e+00  3.9669567024153953e+00 7.3191651111147218e+00 0.0000000000000000e+00  3.9650631676627350e+00 7.3220103170631488e+00 0.0000000000000000e+00  3.9636942374724708e+00 7.3240187259699496e+00 0.0000000000000000e+00  3.9627172298539808e+00 7.3254152161235053e+00 0.0000000000000000e+00  3.9619768945894163e+00 7.3264295884523181e+00 0.0000000000000000e+00  3.9614282994820140e+00 7.3271455980128826e+00 0.0000000000000000e+00  3.9609917473577672e+00 7.3276773037040055e+00 0.0000000000000000e+00  3.9606559691936805e+00 7.3280516663617163e+00 0.0000000000000000e+00  3.9603778452876197e+00 7.3283287757640423e+00 0.0000000000000000e+00  3.9601553218784882e+00 7.3285181464908140e+00 0.0000000000000000e+00  3.9599637954825297e+00 7.3286525767533579e+00 0.0000000000000000e+00  3.9598027857144715e+00 7.3287368828399186e+00 0.0000000000000000e+00  3.9596583177268667e+00 7.3287892702619475e+00 0.0000000000000000e+00  3.9595304376269822e+00 7.3288114710417753e+00 0.0000000000000000e+00  3.9594117735613858e+00 7.3288124236274594e+00 0.0000000000000000e+00  3.9593020539769088e+00 7.3287920982512462e+00 0.0000000000000000e+00  3.9591975797239369e+00 7.3287519279293170e+00 0.0000000000000000e+00  3.9590977926167743e+00 7.3286890416347097e+00 0.0000000000000000e+00  3.9590006037356362e+00 7.3285993046936451e+00 0.0000000000000000e+00  3.9589054937408275e+00 7.3284748890631786e+00 0.0000000000000000e+00  3.9588112654948406e+00 7.3283064133399254e+00 0.0000000000000000e+00  3.9587172261784946e+00 7.3280814676191461e+00 0.0000000000000000e+00  3.9586228415485771e+00 7.3277850623312650e+00 0.0000000000000000e+00  3.9585273573982009e+00 7.3274009128469366e+00 0.0000000000000000e+00  3.9584304654147524e+00 7.3269109348825605e+00 0.0000000000000000e+00  3.9583314812898842e+00 7.3262966782213583e+00 0.0000000000000000e+00  3.9582303627755122e+00 7.3255411118153084e+00 0.0000000000000000e+00  3.9581261505912515e+00 7.3246289789307708e+00 0.0000000000000000e+00  3.9580192267424996e+00 7.3235494413814228e+00 0.0000000000000000e+00  3.9579081198181494e+00 7.3222958930428952e+00 0.0000000000000000e+00  3.9577933759091626e+00 7.3208697484665404e+00 0.0000000000000000e+00  3.9576721193792821e+00 7.3192744749938292e+00 0.0000000000000000e+00  3.9575449277396992e+00 7.3175261871954085e+00 0.0000000000000000e+00  3.9574038904520088e+00 7.3156327823417220e+00 0.0000000000000000e+00  3.9572487350415515e+00 7.3136210350348430e+00 0.0000000000000000e+00  3.9570553597914619e+00 7.3114809482701197e+00 0.0000000000000000e+00  3.9568174992252128e+00 7.3092377220099900e+00 0.0000000000000000e+00  3.9564585520102544e+00 7.3067984318868620e+00 0.0000000000000000e+00  3.9559449811491922e+00 7.3041492537434465e+00 0.0000000000000000e+00  3.9550290038824163e+00 7.3009221215365327e+00 0.0000000000000000e+00  3.9535629529534333e+00 7.2969274560160500e+00 0.0000000000000000e+00  3.9507365304138484e+00 7.2909068955823715e+00 0.0000000000000000e+00  3.9459465736021841e+00 7.2819737884054350e+00 0.0000000000000000e+00  3.9365248206375010e+00 7.2659462792065579e+00 0.0000000000000000e+00  3.9200819608246493e+00 7.2391502934283869e+00 0.0000000000000000e+00  3.8878433128539416e+00 7.1876088439390244e+00 0.0000000000000000e+00  3.8312535119688684e+00 7.0972490212478823e+00 0.0000000000000000e+00  3.7227314787711867e+00 6.9207981482595313e+00 0.0000000000000000e+00  3.5365387817620886e+00 6.6068294225997715e+00 0.0000000000000000e+00  3.2040966211534565e+00 6.0028836996569845e+00 0.0000000000000000e+00  2.6953690939938197e+00 4.9623146409514414e+00 0.0000000000000000e+00  1.9395310299400199e+00 3.0159532068344532e+00 0.0000000000000000e+00  1.2204537520961891e+00 7.0840028859364390e-01 0.0000000000000000e+00  1.0175752155409565e+00 5.5957182648739286e-02 0.0000000000000000e+00  1.0009041238496621e+00 2.6879840699319730e-03 0.0000000000000000e+00  1.0000346420522765e+00 3.9335769303138043e-04 0.0000000000000000e+00  1.0000125399912576e+00 -1.6330657845829170e-05 0.0000000000000000e+00  1.0000030186106375e+00 -7.5314171543008665e-07 0.0000000000000000e+00  9.9999717158076684e-01 7.6217735554187031e-06 0.0000000000000000e+00  1.0000016300746000e+00 -4.4087935227978627e-06 0.0000000000000000e+00  9.9999925565698378e-01 2.1113945731821141e-06 0.0000000000000000e+00  1.0000003780772986e+00 -1.0718526212190961e-06 0.0000000000000000e+00  9.9999974984770845e-01 6.9993851318440120e-07 0.0000000000000000e+00  1.0000001964111227e+00 -5.4318172049952849e-07 0.0000000000000000e+00  9.9999984116486407e-01 4.3702526098401263e-07 0.0000000000000000e+00  1.0000001257508204e+00 -3.4515364794970815e-07 0.0000000000000000e+00  9.9999990219619350e-01 2.6727090158951722e-07 0.0000000000000000e+00  1.0000000748849791e+00 -2.0377073434241020e-07 0.0000000000000000e+00  9.9999994232862977e-01 1.5492803673418213e-07 0.0000000000000000e+00  1.0000000433946881e+00 -1.1562630523783270e-07 0.0000000000000000e+00  9.9999996601797425e-01 8.6921029582520242e-08 0.0000000000000000e+00  1.0000000245878242e+00 -6.1603085952377670e-08 0.0000000000000000e+00  9.9999997907523752e-01 4.5540480823135260e-08 0.0000000000000000e+00  1.0000000136212528e+00 -2.7191801826044777e-08 0.0000000000000000e+00  9.9999998485248476e-01 1.9984095807500380e-08 0.0000000000000000e+00  1.0000000070472554e+00 -3.8471955736277143e-09 0.0000000000000000e+00  9.9999998526250788e-01 0.0000000000000000e+00 0.0000000000000000e+00  9.9988577492877901e+00 0.0000000000000000e+00 1.3371226947323347e-05  9.9987986990870859e+00 3.4961443576771465e-04 -1.4343350098227313e-05  9.9986143436994084e+00 7.5801789475030178e-04 1.4958595225875997e-05  9.9983310237051715e+00 1.2031897550849921e-03 -1.3336845608313149e-05  9.9978788829198724e+00 1.7754032941721880e-03 1.2701190898572280e-05  9.9972496480664006e+00 2.4553659994155288e-03 -1.0973233105297668e-05  9.9964345067884501e+00 3.3472840368017880e-03 1.0847815923814616e-05  9.9953327945829997e+00 4.4635325068340592e-03 -9.3383903295603481e-06  9.9939181246778244e+00 5.8880556678882505e-03 9.2428438525745807e-06  9.9921309217445344e+00 7.6811651402849887e-03 -7.1614309504349959e-06  9.9898534078698766e+00 9.9549316732749499e-03 6.7884857502630737e-06  9.9870082404880591e+00 1.2759991474630401e-02 -4.8948693266543484e-06  9.9835050078095939e+00 1.6255064460793122e-02 4.9615367306862211e-06  9.9791828735328352e+00 2.0534354692647059e-02 -3.3638665626680338e-06  9.9739315569038620e+00 2.5732121997286396e-02 2.9201497630380335e-06  9.9676162131057673e+00 3.2004461512324396e-02 -1.0059923697766353e-06  9.9600551882210606e+00 3.9503208653755402e-02 1.1125024539177472e-07  9.9511047114036888e+00 4.8373502016244574e-02 1.1908494094713407e-06  9.9406105109025553e+00 5.8800489381783852e-02 -2.0203402095355285e-06  9.9283898672903987e+00 7.0936998348571229e-02 2.7977216696188893e-06  9.9142888079429881e+00 8.4939540948591949e-02 -4.0983413456330476e-06  9.8981673367734864e+00 1.0098495727450482e-01 4.6165044026336334e-06  9.8798695307154922e+00 1.1918735004612745e-01 -6.2148714238992498e-06  9.8592666056589984e+00 1.3971276063127064e-01 6.3568239475989671e-06  9.8362588073922979e+00 1.6265571125153147e-01 -7.9968357828699662e-06  9.8107548295451874e+00 1.8811979531050230e-01 7.5151150262471984e-06  9.7826646578315390e+00 2.1618945871363776e-01 -8.4609832735592524e-06  9.7519605390916393e+00 2.4693660352631264e-01 7.2575970874881416e-06  9.7186208212863683e+00 2.8034804043338435e-01 -8.0762027419585469e-06  9.6826106603787814e+00 3.1652075710383321e-01 7.3167017755943426e-06  9.6439694313895927e+00 3.5539080263937467e-01 -7.8729967482194335e-06  9.6027499038760968e+00 3.9694530533364730e-01 5.8720485280104436e-06  9.5589555532953376e+00 4.4118483188045721e-01 -4.1343285581880472e-06  9.5126893074221499e+00 4.8803436289731078e-01 9.4745249235377217e-07  9.4640533173965196e+00 5.3738962792052980e-01 7.0041834660666210e-07  9.4130802614952369e+00 5.8926499246349928e-01 -2.9730049751539005e-06  9.3599087826789287e+00 6.4351378438849616e-01 5.4574624726234672e-06  9.3046779610820671e+00 7.0001889743042189e-01 -1.0452269037154941e-05  9.2474212733907564e+00 7.5878963436978863e-01 1.6100466650470126e-05  9.1883069216858679e+00 8.1963023465300999e-01 -2.2028974331734254e-05  9.1274743964396201e+00 8.8246238970465540e-01 2.6221878316440027e-05  9.0649665088745017e+00 9.4722375270803238e-01 -3.0543829612793544e-05  9.0009393404861182e+00 1.0138102703162077e+00 3.5187235046744499e-05  8.9355503269678067e+00 1.0820199969120088e+00 -4.1671768050453682e-05  8.8688066945614921e+00 1.1519516965492551e+00 4.7177168685420022e-05  8.8008880651856707e+00 1.2233215155112322e+00 -5.1377876542258088e-05  8.7319068214936522e+00 1.2961521536257739e+00 5.2284018512409653e-05  8.6618953995498664e+00 1.3703049007991863e+00 -5.2828946808373182e-05  8.5909819227872948e+00 1.4457784948959076e+00 5.2628495758418758e-05  8.5193040634253236e+00 1.5223175804075866e+00 -5.3540252625543916e-05  8.4468417920875680e+00 1.6000961151754434e+00 5.2479069191786791e-05  8.3737525117985516e+00 1.6788055290771471e+00 -5.0313578317934283e-05  8.3001109038779504e+00 1.7585442523622374e+00 4.5799776127864044e-05  8.2259362668047569e+00 1.8391357038449601e+00 -4.2345107084551982e-05  8.1513259732779328e+00 1.9206428753691791e+00 3.9532276387699660e-05  8.0763788628658375e+00 2.0028374266991604e+00 -3.8035395547056688e-05  8.0010727634365555e+00 2.0858604405834895e+00 3.4495458500074815e-05  7.9255260983265892e+00 2.1694898997044723e+00 -2.8664900496413627e-05  7.8497869246220517e+00 2.2538096729193464e+00 2.1079939709901875e-05  7.7738644635731422e+00 2.3386583128004239e+00 -1.5236575212919755e-05  7.6978371732906794e+00 2.4241078751956238e+00 1.2047757188202422e-05  7.6217560972845515e+00 2.5100308450303199e+00 -9.6070046493701830e-06  7.5456233567178410e+00 2.5964165461087498e+00 5.6383407253337557e-06  7.4695060877120492e+00 2.6832357507696858e+00 -8.8806354651054236e-07  7.3934466545681135e+00 2.7704890141391272e+00 -6.5690390702684734e-07  7.3174410671067642e+00 2.8580352712889487e+00 -1.3693318041606067e-07  7.2415589307641879e+00 2.9459544054295810e+00 2.9294829995622752e-07  7.1658122022857667e+00 3.0342104517124522e+00 3.2157714124584818e-06  7.0902250729040928e+00 3.1226815285606899e+00 -3.7037146780146849e-06  7.0148272840526049e+00 3.2114231009250753e+00 8.5991345894996675e-07  6.9396537992983562e+00 3.3004286306583634e+00 3.3758296263579799e-06  6.8646997278577651e+00 3.3896051941071903e+00 6.1410470264814907e-07  6.7900163055118155e+00 3.4789585304032093e+00 -3.3349595224510541e-06  6.7156022433831994e+00 3.5685013103801295e+00 4.6850046735607048e-06  6.6414834573804526e+00 3.6581693280985705e+00 9.0309339254386539e-07  6.5676748006984980e+00 3.7479751782859716e+00 1.3439078996155159e-06  6.4941997081176348e+00 3.8378760710527224e+00 8.3231148563613869e-07  6.4210547937369222e+00 3.9278734478816002e+00 1.1077758940115186e-06  6.3482773793598906e+00 4.0179465161876227e+00 3.4407206595386007e-06  6.2758661667335938e+00 4.1080818001284856e+00 5.7210722928022630e-07  6.2038301107878722e+00 4.1982582670615409e+00 3.4545205111174798e-06  6.1321980185706639e+00 4.2884624577322583e+00 -1.9080942538581746e-06  6.0609665452530690e+00 4.3786875137