<?xml version="1.0"?>
<VTKFile type="UnstructuredGrid"  version="0.1"  >
<UnstructuredGrid>
<Piece  NumberOfPoints="8241" NumberOfCells="16000">
<Points>
<DataArray  type="Float64"  NumberOfComponents="3"  format="ascii">-5 -1 0  -4.95 -1 0  -4.9 -1 0  -4.85 -1 0  -4.8 -1 0  -4.75 -1 0  -4.7 -1 0  -4.65 -1 0  -4.6 -1 0  -4.55 -1 0  -4.5 -1 0  -4.45 -1 0  -4.4 -1 0  -4.35 -1 0  -4.3 -1 0  -4.25 -1 0  -4.2 -1 0  -4.15 -1 0  -4.1 -1 0  -4.05 -1 0  -4 -1 0  -3.95 -1 0  -3.9 -1 0  -3.85 -1 0  -3.8 -1 0  -3.75 -1 0  -3.7 -1 0  -3.65 -1 0  -3.6 -1 0  -3.55 -1 0  -3.5 -1 0  -3.45 -1 0  -3.4 -1 0  -3.35 -1 0  -3.3 -1 0  -3.25 -1 0  -3.2 -1 0  -3.15 -1 0  -3.1 -1 0  -3.05 -1 0  -3 -1 0  -2.95 -1 0  -2.9 -1 0  -2.85 -1 0  -2.8 -1 0  -2.75 -1 0  -2.7 -1 0  -2.65 -1 0  -2.6 -1 0  -2.55 -1 0  -2.5 -1 0  -2.45 -1 0  -2.4 -1 0  -2.35 -1 0  -2.3 -1 0  -2.25 -1 0  -2.2 -1 0  -2.15 -1 0  -2.1 -1 0  -2.05 -1 0  -2 -1 0  -1.95 -1 0  -1.9 -1 0  -1.85 -1 0  -1.8 -1 0  -1.75 -1 0  -1.7 -1 0  -1.65 -1 0  -1.6 -1 0  -1.55 -1 0  -1.5 -1 0  -1.45 -1 0  -1.4 -1 0  -1.35 -1 0  -1.3 -1 0  -1.25 -1 0  -1.2 -1 0  -1.15 -1 0  -1.1 -1 0  -1.05 -1 0  -1 -1 0  -0.9500000000000002 -1 0  -0.9000000000000004 -1 0  -0.8499999999999996 -1 0  -0.7999999999999998 -1 0  -0.75 -1 0  -0.7000000000000002 -1 0  -0.6500000000000004 -1 0  -0.5999999999999996 -1 0  -0.5499999999999998 -1 0  -0.5 -1 0  -0.4500000000000002 -1 0  -0.4000000000000004 -1 0  -0.3499999999999996 -1 0  -0.2999999999999998 -1 0  -0.25 -1 0  -0.2000000000000002 -1 0  -0.1500000000000004 -1 0  -0.09999999999999964 -1 0  -0.04999999999999982 -1 0  0 -1 0  0.04999999999999982 -1 0  0.09999999999999964 -1 0  0.1500000000000004 -1 0  0.2000000000000002 -1 0  0.25 -1 0  0.2999999999999998 -1 0  0.3499999999999996 -1 0  0.4000000000000004 -1 0  0.4500000000000002 -1 0  0.5 -1 0  0.5499999999999998 -1 0  0.5999999999999996 -1 0  0.6500000000000004 -1 0  0.7000000000000002 -1 0  0.75 -1 0  0.7999999999999998 -1 0  0.8499999999999996 -1 0  0.9000000000000004 -1 0  0.9500000000000002 -1 0  1 -1 0  1.05 -1 0  1.1 -1 0  1.15 -1 0  1.2 -1 0  1.25 -1 0  1.3 -1 0  1.35 -1 0  1.4 -1 0  1.45 -1 0  1.5 -1 0  1.55 -1 0  1.6 -1 0  1.65 -1 0  1.7 -1 0  1.75 -1 0  1.8 -1 0  1.85 -1 0  1.9 -1 0  1.95 -1 0  2 -1 0  2.05 -1 0  2.1 -1 0  2.15 -1 0  2.2 -1 0  2.25 -1 0  2.3 -1 0  2.35 -1 0  2.4 -1 0  2.45 -1 0  2.5 -1 0  2.55 -1 0  2.6 -1 0  2.65 -1 0  2.7 -1 0  2.75 -1 0  2.8 -1 0  2.85 -1 0  2.9 -1 0  2.95 -1 0  3 -1 0  3.050000000000001 -1 0  3.1 -1 0  3.15 -1 0  3.199999999999999 -1 0  3.25 -1 0  3.300000000000001 -1 0  3.35 -1 0  3.4 -1 0  3.449999999999999 -1 0  3.5 -1 0  3.550000000000001 -1 0  3.6 -1 0  3.65 -1 0  3.699999999999999 -1 0  3.75 -1 0  3.800000000000001 -1 0  3.85 -1 0  3.9 -1 0  3.949999999999999 -1 0  4 -1 0  4.050000000000001 -1 0  4.1 -1 0  4.15 -1 0  4.199999999999999 -1 0  4.25 -1 0  4.300000000000001 -1 0  4.35 -1 0  4.4 -1 0  4.449999999999999 -1 0  4.5 -1 0  4.550000000000001 -1 0  4.6 -1 0  4.65 -1 0  4.699999999999999 -1 0  4.75 -1 0  4.800000000000001 -1 0  4.85 -1 0  4.9 -1 0  4.949999999999999 -1 0  5 -1 0  -5 -0.95 0  -4.95 -0.95 0  -4.9 -0.95 0  -4.85 -0.95 0  -4.8 -0.95 0  -4.75 -0.95 0  -4.7 -0.95 0  -4.65 -0.95 0  -4.6 -0.95 0  -4.55 -0.95 0  -4.5 -0.95 0  -4.45 -0.95 0  -4.4 -0.95 0  -4.35 -0.95 0  -4.3 -0.95 0  -4.25 -0.95 0  -4.2 -0.95 0  -4.15 -0.95 0  -4.1 -0.95 0  -4.05 -0.95 0  -4 -0.95 0  -3.95 -0.95 0  -3.9 -0.95 0  -3.85 -0.95 0  -3.8 -0.95 0  -3.75 -0.95 0  -3.7 -0.95 0  -3.65 -0.95 0  -3.6 -0.95 0  -3.55 -0.95 0  -3.5 -0.95 0  -3.45 -0.95 0  -3.4 -0.95 0  -3.35 -0.95 0  -3.3 -0.95 0  -3.25 -0.95 0  -3.2 -0.95 0  -3.15 -0.95 0  -3.1 -0.95 0  -3.05 -0.95 0  -3 -0.95 0  -2.95 -0.95 0  -2.9 -0.95 0  -2.85 -0.95 0  -2.8 -0.95 0  -2.75 -0.95 0  -2.7 -0.95 0  -2.65 -0.95 0  -2.6 -0.95 0  -2.55 -0.95 0  -2.5 -0.95 0  -2.45 -0.95 0  -2.4 -0.95 0  -2.35 -0.95 0  -2.3 -0.95 0  -2.25 -0.95 0  -2.2 -0.95 0  -2.15 -0.95 0  -2.1 -0.95 0  -2.05 -0.95 0  -2 -0.95 0  -1.95 -0.95 0  -1.9 -0.95 0  -1.85 -0.95 0  -1.8 -0.95 0  -1.75 -0.95 0  -1.7 -0.95 0  -1.65 -0.95 0  -1.6 -0.95 0  -1.55 -0.95 0  -1.5 -0.95 0  -1.45 -0.95 0  -1.4 -0.95 0  -1.35 -0.95 0  -1.3 -0.95 0  -1.25 -0.95 0  -1.2 -0.95 0  -1.15 -0.95 0  -1.1 -0.95 0  -1.05 -0.95 0  -1 -0.95 0  -0.9500000000000002 -0.95 0  -0.9000000000000004 -0.95 0  -0.8499999999999996 -0.95 0  -0.7999999999999998 -0.95 0  -0.75 -0.95 0  -0.7000000000000002 -0.95 0  -0.6500000000000004 -0.95 0  -0.5999999999999996 -0.95 0  -0.5499999999999998 -0.95 0  -0.5 -0.95 0  -0.4500000000000002 -0.95 0  -0.4000000000000004 -0.95 0  -0.3499999999999996 -0.95 0  -0.2999999999999998 -0.95 0  -0.25 -0.95 0  -0.2000000000000002 -0.95 0  -0.1500000000000004 -0.95 0  -0.09999999999999964 -0.95 0  -0.04999999999999982 -0.95 0  0 -0.95 0  0.04999999999999982 -0.95 0  0.09999999999999964 -0.95 0  0.1500000000000004 -0.95 0  0.2000000000000002 -0.95 0  0.25 -0.95 0  0.2999999999999998 -0.95 0  0.3499999999999996 -0.95 0  0.4000000000000004 -0.95 0  0.4500000000000002 -0.95 0  0.5 -0.95 0  0.5499999999999998 -0.95 0  0.5999999999999996 -0.95 0  0.6500000000000004 -0.95 0  0.7000000000000002 -0.95 0  0.75 -0.95 0  0.7999999999999998 -0.95 0  0.8499999999999996 -0.95 0  0.9000000000000004 -0.95 0  0.9500000000000002 -0.95 0  1 -0.95 0  1.05 -0.95 0  1.1 -0.95 0  1.15 -0.95 0  1.2 -0.95 0  1.25 -0.95 0  1.3 -0.95 0  1.35 -0.95 0  1.4 -0.95 0  1.45 -0.95 0  1.5 -0.95 0  1.55 -0.95 0  1.6 -0.95 0  1.65 -0.95 0  1.7 -0.95 0  1.75 -0.95 0  1.8 -0.95 0  1.85 -0.95 0  1.9 -0.95 0  1.95 -0.95 0  2 -0.95 0  2.05 -0.95 0  2.1 -0.95 0  2.15 -0.95 0  2.2 -0.95 0  2.25 -0.95 0  2.3 -0.95 0  2.35 -0.95 0  2.4 -0.95 0  2.45 -0.95 0  2.5 -0.95 0  2.55 -0.95 0  2.6 -0.95 0  2.65 -0.95 0  2.7 -0.95 0  2.75 -0.95 0  2.8 -0.95 0  2.85 -0.95 0  2.9 -0.95 0  2.95 -0.95 0  3 -0.95 0  3.050000000000001 -0.95 0  3.1 -0.95 0  3.15 -0.95 0  3.199999999999999 -0.95 0  3.25 -0.95 0  3.300000000000001 -0.95 0  3.35 -0.95 0  3.4 -0.95 0  3.449999999999999 -0.95 0  3.5 -0.95 0  3.550000000000001 -0.95 0  3.6 -0.95 0  3.65 -0.95 0  3.699999999999999 -0.95 0  3.75 -0.95 0  3.800000000000001 -0.95 0  3.85 -0.95 0  3.9 -0.95 0  3.949999999999999 -0.95 0  4 -0.95 0  4.050000000000001 -0.95 0  4.1 -0.95 0  4.15 -0.95 0  4.199999999999999 -0.95 0  4.25 -0.95 0  4.300000000000001 -0.95 0  4.35 -0.95 0  4.4 -0.95 0  4.449999999999999 -0.95 0  4.5 -0.95 0  4.550000000000001 -0.95 0  4.6 -0.95 0  4.65 -0.95 0  4.699999999999999 -0.95 0  4.75 -0.95 0  4.800000000000001 -0.95 0  4.85 -0.95 0  4.9 -0.95 0  4.949999999999999 -0.95 0  5 -0.95 0  -5 -0.9 0  -4.95 -0.9 0  -4.9 -0.9 0  -4.85 -0.9 0  -4.8 -0.9 0  -4.75 -0.9 0  -4.7 -0.9 0  -4.65 -0.9 0  -4.6 -0.9 0  -4.55 -0.9 0  -4.5 -0.9 0  -4.45 -0.9 0  -4.4 -0.9 0  -4.35 -0.9 0  -4.3 -0.9 0  -4.25 -0.9 0  -4.2 -0.9 0  -4.15 -0.9 0  -4.1 -0.9 0  -4.05 -0.9 0  -4 -0.9 0  -3.95 -0.9 0  -3.9 -0.9 0  -3.85 -0.9 0  -3.8 -0.9 0  -3.75 -0.9 0  -3.7 -0.9 0  -3.65 -0.9 0  -3.6 -0.9 0  -3.55 -0.9 0  -3.5 -0.9 0  -3.45 -0.9 0  -3.4 -0.9 0  -3.35 -0.9 0  -3.3 -0.9 0  -3.25 -0.9 0  -3.2 -0.9 0  -3.15 -0.9 0  -3.1 -0.9 0  -3.05 -0.9 0  -3 -0.9 0  -2.95 -0.9 0  -2.9 -0.9 0  -2.85 -0.9 0  -2.8 -0.9 0  -2.75 -0.9 0  -2.7 -0.9 0  -2.65 -0.9 0  -2.6 -0.9 0  -2.55 -0.9 0  -2.5 -0.9 0  -2.45 -0.9 0  -2.4 -0.9 0  -2.35 -0.9 0  -2.3 -0.9 0  -2.25 -0.9 0  -2.2 -0.9 0  -2.15 -0.9 0  -2.1 -0.9 0  -2.05 -0.9 0  -2 -0.9 0  -1.95 -0.9 0  -1.9 -0.9 0  -1.85 -0.9 0  -1.8 -0.9 0  -1.75 -0.9 0  -1.7 -0.9 0  -1.65 -0.9 0  -1.6 -0.9 0  -1.55 -0.9 0  -1.5 -0.9 0  -1.45 -0.9 0  -1.4 -0.9 0  -1.35 -0.9 0  -1.3 -0.9 0  -1.25 -0.9 0  -1.2 -0.9 0  -1.15 -0.9 0  -1.1 -0.9 0  -1.05 -0.9 0  -1 -0.9 0  -0.9500000000000002 -0.9 0  -0.9000000000000004 -0.9 0  -0.8499999999999996 -0.9 0  -0.7999999999999998 -0.9 0  -0.75 -0.9 0  -0.7000000000000002 -0.9 0  -0.6500000000000004 -0.9 0  -0.5999999999999996 -0.9 0  -0.5499999999999998 -0.9 0  -0.5 -0.9 0  -0.4500000000000002 -0.9 0  -0.4000000000000004 -0.9 0  -0.3499999999999996 -0.9 0  -0.2999999999999998 -0.9 0  -0.25 -0.9 0  -0.2000000000000002 -0.9 0  -0.1500000000000004 -0.9 0  -0.09999999999999964 -0.9 0  -0.04999999999999982 -0.9 0  0 -0.9 0  0.04999999999999982 -0.9 0  0.09999999999999964 -0.9 0  0.1500000000000004 -0.9 0  0.2000000000000002 -0.9 0  0.25 -0.9 0  0.2999999999999998 -0.9 0  0.3499999999999996 -0.9 0  0.4000000000000004 -0.9 0  0.4500000000000002 -0.9 0  0.5 -0.9 0  0.5499999999999998 -0.9 0  0.5999999999999996 -0.9 0  0.6500000000000004 -0.9 0  0.7000000000000002 -0.9 0  0.75 -0.9 0  0.7999999999999998 -0.9 0  0.8499999999999996 -0.9 0  0.9000000000000004 -0.9 0  0.9500000000000002 -0.9 0  1 -0.9 0  1.05 -0.9 0  1.1 -0.9 0  1.15 -0.9 0  1.2 -0.9 0  1.25 -0.9 0  1.3 -0.9 0  1.35 -0.9 0  1.4 -0.9 0  1.45 -0.9 0  1.5 -0.9 0  1.55 -0.9 0  1.6 -0.9 0  1.65 -0.9 0  1.7 -0.9 0  1.75 -0.9 0  1.8 -0.9 0  1.85 -0.9 0  1.9 -0.9 0  1.95 -0.9 0  2 -0.9 0  2.05 -0.9 0  2.1 -0.9 0  2.15 -0.9 0  2.2 -0.9 0  2.25 -0.9 0  2.3 -0.9 0  2.35 -0.9 0  2.4 -0.9 0  2.45 -0.9 0  2.5 -0.9 0  2.55 -0.9 0  2.6 -0.9 0  2.65 -0.9 0  2.7 -0.9 0  2.75 -0.9 0  2.8 -0.9 0  2.85 -0.9 0  2.9 -0.9 0  2.95 -0.9 0  3 -0.9 0  3.050000000000001 -0.9 0  3.1 -0.9 0  3.15 -0.9 0  3.199999999999999 -0.9 0  3.25 -0.9 0  3.300000000000001 -0.9 0  3.35 -0.9 0  3.4 -0.9 0  3.449999999999999 -0.9 0  3.5 -0.9 0  3.550000000000001 -0.9 0  3.6 -0.9 0  3.65 -0.9 0  3.699999999999999 -0.9 0  3.75 -0.9 0  3.800000000000001 -0.9 0  3.85 -0.9 0  3.9 -0.9 0  3.949999999999999 -0.9 0  4 -0.9 0  4.050000000000001 -0.9 0  4.1 -0.9 0  4.15 -0.9 0  4.199999999999999 -0.9 0  4.25 -0.9 0  4.300000000000001 -0.9 0  4.35 -0.9 0  4.4 -0.9 0  4.449999999999999 -0.9 0  4.5 -0.9 0  4.550000000000001 -0.9 0  4.6 -0.9 0  4.65 -0.9 0  4.699999999999999 -0.9 0  4.75 -0.9 0  4.800000000000001 -0.9 0  4.85 -0.9 0  4.9 -0.9 0  4.949999999999999 -0.9 0  5 -0.9 0  -5 -0.85 0  -4.95 -0.85 0  -4.9 -0.85 0  -4.85 -0.85 0  -4.8 -0.85 0  -4.75 -0.85 0  -4.7 -0.85 0  -4.65 -0.85 0  -4.6 -0.85 0  -4.55 -0.85 0  -4.5 -0.85 0  -
[...]
<PointData  Vectors="f_15"> 
<DataArray  type="Float64"  Name="f_15"  NumberOfComponents="3" format="ascii">3.0385243449167714e+00 0.0000000000000000e+00 0.0000000000000000e+00  3.0352954906966261e+00 5.7020001854445022e-02 0.0000000000000000e+00  3.0373909241779846e+00 8.5793467594111675e-02 0.0000000000000000e+00  3.0356196513585632e+00 1.2145595792360958e-01 0.0000000000000000e+00  3.0373544114856919e+00 1.7270050184879174e-01 0.0000000000000000e+00  3.0349234308280297e+00 2.0414376316506411e-01 0.0000000000000000e+00  3.0373462424102575e+00 2.5640222917377720e-01 0.0000000000000000e+00  3.0349376767523726e+00 2.8628014090708592e-01 0.0000000000000000e+00  3.0366432818239986e+00 3.4203236336292553e-01 0.0000000000000000e+00  3.0349494804200541e+00 3.6965632533636561e-01 0.0000000000000000e+00  3.0365110654311187e+00 4.2266834648411300e-01 0.0000000000000000e+00  3.0344706179241445e+00 4.6195196140829198e-01 0.0000000000000000e+00  3.0361892859366200e+00 4.9226455476417491e-01 0.0000000000000000e+00  3.0346518636897191e+00 5.6271768576597780e-01 0.0000000000000000e+00  3.0353528653709843e+00 5.6324418992818082e-01 0.0000000000000000e+00  3.0346825999346057e+00 6.4945442353542526e-01 0.0000000000000000e+00  3.0351136287937934e+00 6.5665255680234880e-01 0.0000000000000000e+00  3.0341752697589031e+00 7.1808459311169504e-01 0.0000000000000000e+00  3.0348908991634755e+00 7.5044864720641791e-01 0.0000000000000000e+00  3.0339376326605150e+00 8.0442350078702229e-01 0.0000000000000000e+00  3.0343535736924729e+00 8.2532814132984478e-01 0.0000000000000000e+00  3.0336331329566470e+00 8.8904766575544658e-01 0.0000000000000000e+00  3.0340542807352588e+00 9.2860262377720848e-01 0.0000000000000000e+00  3.0330770025952707e+00 9.4044610982484467e-01 0.0000000000000000e+00  3.0337263098615677e+00 1.0362198702355327e+00 0.0000000000000000e+00  3.0326032687556279e+00 1.0313171399397141e+00 0.0000000000000000e+00  3.0331839884720924e+00 1.0827329264098249e+00 0.0000000000000000e+00  3.0322341635924182e+00 1.1603741976556687e+00 0.0000000000000000e+00  3.0325055129492924e+00 1.1424589893596586e+00 0.0000000000000000e+00  3.0317356294903148e+00 1.2375325874686436e+00 0.0000000000000000e+00  3.0320523859937127e+00 1.2496097896685727e+00 0.0000000000000000e+00  3.0308978420014303e+00 1.3066565950493800e+00 0.0000000000000000e+00  3.0316704965838270e+00 1.3282671539255408e+00 0.0000000000000000e+00  3.0300611318655313e+00 1.4064372922340178e+00 0.0000000000000000e+00  3.0311416692066584e+00 1.4036415571934013e+00 0.0000000000000000e+00  3.0291311634200575e+00 1.4815067927428391e+00 0.0000000000000000e+00  3.0307053606901992e+00 1.5067422646032249e+00 0.0000000000000000e+00  3.0281652147218092e+00 1.5504554364361527e+00 0.0000000000000000e+00  3.0299316151634881e+00 1.5926633209830845e+00 0.0000000000000000e+00  3.0274200369428290e+00 1.6413314505883416e+00 0.0000000000000000e+00  3.0292168108262492e+00 1.6697008710367860e+00 0.0000000000000000e+00  3.0261397618874906e+00 1.7252051548284446e+00 0.0000000000000000e+00  3.0288005041136077e+00 1.7581754246887222e+00 0.0000000000000000e+00  3.0251322878011444e+00 1.8046009765759365e+00 0.0000000000000000e+00  3.0274814778053458e+00 1.8428118483495350e+00 0.0000000000000000e+00  3.0247096928577726e+00 1.8901994103383124e+00 0.0000000000000000e+00  3.0263586142788479e+00 1.9246045216965024e+00 0.0000000000000000e+00  3.0233776941437318e+00 1.9744540836409041e+00 0.0000000000000000e+00  3.0257361810920789e+00 2.0088835625778310e+00 0.0000000000000000e+00  3.0224965055082453e+00 2.0571899215039706e+00 0.0000000000000000e+00  3.0239534877622174e+00 2.0927438644322995e+00 0.0000000000000000e+00  3.0221833447037891e+00 2.1413325889251738e+00 0.0000000000000000e+00  3.0227617198587065e+00 2.1753969146496255e+00 0.0000000000000000e+00  3.0205755255624269e+00 2.2253273465096335e+00 0.0000000000000000e+00  3.0220735394779190e+00 2.2598886501335023e+00 0.0000000000000000e+00  3.0198029622472076e+00 2.3070545477508686e+00 0.0000000000000000e+00  3.0199811398553469e+00 2.3452613363527326e+00 0.0000000000000000e+00  3.0192861956758312e+00 2.3903915966767806e+00 0.0000000000000000e+00  3.0192209067331381e+00 2.4277404271130760e+00 0.0000000000000000e+00  3.0170698406264411e+00 2.4752373223696527e+00 0.0000000000000000e+00  3.0185207281512954e+00 2.5115164237884429e+00 0.0000000000000000e+00  3.0166787379791775e+00 2.5574712142559308e+00 0.0000000000000000e+00  3.0159232937065990e+00 2.5954973147918690e+00 0.0000000000000000e+00  3.0158839130682478e+00 2.6439498897879883e+00 0.0000000000000000e+00  3.0160056428782158e+00 2.6731102271322134e+00 0.0000000000000000e+00  3.0126135273364807e+00 2.7335751828410504e+00 0.0000000000000000e+00  3.0156048043896155e+00 2.7545451695333241e+00 0.0000000000000000e+00  3.0124963815919887e+00 2.8144454281733413e+00 0.0000000000000000e+00  3.0124971161665290e+00 2.8432591631446344e+00 0.0000000000000000e+00  3.0116403838597239e+00 2.8948087295234624e+00 0.0000000000000000e+00  3.0130102423496425e+00 2.9264897153791236e+00 0.0000000000000000e+00  3.0078332528879441e+00 2.9804641864086521e+00 0.0000000000000000e+00  3.0126391491466373e+00 3.0098972084107118e+00 0.0000000000000000e+00  3.0080110476438380e+00 3.0611911565346288e+00 0.0000000000000000e+00  3.0088329694897560e+00 3.0970270858600379e+00 0.0000000000000000e+00  3.0079525293691494e+00 3.1441520253496851e+00 0.0000000000000000e+00  3.0083262963853130e+00 3.1772340652863251e+00 0.0000000000000000e+00  3.0048230591738969e+00 3.2327306749015992e+00 0.0000000000000000e+00  3.0078630631386440e+00 3.2576306940236210e+00 0.0000000000000000e+00  3.0042770398351797e+00 3.3163862768868255e+00 0.0000000000000000e+00  3.0047493047361877e+00 3.3427276930894645e+00 0.0000000000000000e+00  3.0042080680512493e+00 3.3991577011874203e+00 0.0000000000000000e+00  3.0031425601807578e+00 3.4253417355212221e+00 0.0000000000000000e+00  3.0022923370093095e+00 3.4845630431415380e+00 0.0000000000000000e+00  3.0020976583402716e+00 3.5075224297139176e+00 0.0000000000000000e+00  3.0007847420911826e+00 3.5684083537361269e+00 0.0000000000000000e+00  3.0003980703303994e+00 3.5915938181329454e+00 0.0000000000000000e+00  2.9989479553366611e+00 3.6516044794001639e+00 0.0000000000000000e+00  2.9986092907820470e+00 3.6759576786412445e+00 0.0000000000000000e+00  2.9964453047334838e+00 3.7354929725118047e+00 0.0000000000000000e+00  2.9962270756652232e+00 3.7611594347149104e+00 0.0000000000000000e+00  2.9927545451634403e+00 3.8181841105598244e+00 0.0000000000000000e+00  2.9946931044058918e+00 3.8500307352451490e+00 0.0000000000000000e+00  2.9862491631200485e+00 3.8956700595631970e+00 0.0000000000000000e+00  2.9975157343962997e+00 3.9475176807001424e+00 0.0000000000000000e+00  2.9747882924945865e+00 3.9546554590536718e+00 0.0000000000000000e+00  3.0093373053608374e+00 4.0742783133026537e+00 0.0000000000000000e+00  2.9822974412192669e+00 3.9268031572764026e+00 0.0000000000000000e+00  2.8850652636219021e+00 4.4905761435967610e+00 0.0000000000000000e+00  4.2232621334625744e+00 1.8264693097061435e+00 0.0000000000000000e+00  6.1859937319129275e+00 -1.0214011515155648e+00 0.0000000000000000e+00  7.0398675497721452e+00 -1.9995154025369108e+00 0.0000000000000000e+00  7.2709615858857797e+00 -2.2375189078977598e+00 0.0000000000000000e+00  7.3338404900577281e+00 -2.2710082875165218e+00 0.0000000000000000e+00  7.3767683837406564e+00 -2.2711188328222005e+00 0.0000000000000000e+00  7.4059989957544685e+00 -2.2526864534703628e+00 0.0000000000000000e+00  7.4312712751616692e+00 -2.2359906483027916e+00 0.0000000000000000e+00  7.4518156991477955e+00 -2.2061377631937669e+00 0.0000000000000000e+00  7.4733698286991022e+00 -2.1856646337464354e+00 0.0000000000000000e+00  7.4948475656497102e+00 -2.1574335977313073e+00 0.0000000000000000e+00  7.5173202463948847e+00 -2.1366787043351398e+00 0.0000000000000000e+00  7.5382551588134374e+00 -2.1091821169336153e+00 0.0000000000000000e+00  7.5600602899451195e+00 -2.0876305118527383e+00 0.0000000000000000e+00  7.5817167745909249e+00 -2.0607429903266681e+00 0.0000000000000000e+00  7.6032324091024890e+00 -2.0389242924314015e+00 0.0000000000000000e+00  7.6244780342044702e+00 -2.0130543136252670e+00 0.0000000000000000e+00  7.6470283372936496e+00 -1.9899721878127581e+00 0.0000000000000000e+00  7.6672143819427143e+00 -1.9659340906798344e+00 0.0000000000000000e+00  7.6901487143372327e+00 -1.9414006597616367e+00 0.0000000000000000e+00  7.7107115945148559e+00 -1.9185625218650113e+00 0.0000000000000000e+00  7.7329938251229340e+00 -1.8939617315806914e+00 0.0000000000000000e+00  7.7538525190428960e+00 -1.8708599236380621e+00 0.0000000000000000e+00  7.7763544542718117e+00 -1.8470902627154748e+00 0.0000000000000000e+00  7.7967586959027786e+00 -1.8235562407912744e+00 0.0000000000000000e+00  7.8193903712894128e+00 -1.8005544474917217e+00 0.0000000000000000e+00  7.8402021632017123e+00 -1.7762891511509624e+00 0.0000000000000000e+00  7.8620508074482949e+00 -1.7547050184269806e+00 0.0000000000000000e+00  7.8835112446562894e+00 -1.7288729657743021e+00 0.0000000000000000e+00  7.9050861358772826e+00 -1.7093508945411839e+00 0.0000000000000000e+00  7.9264517284655112e+00 -1.6822601352892494e+00 0.0000000000000000e+00  7.9480369041874885e+00 -1.6628804255303529e+00 0.0000000000000000e+00  7.9696781590379748e+00 -1.6359206910766504e+00 0.0000000000000000e+00  7.9906286476596398e+00 -1.6166175169118511e+00 0.0000000000000000e+00  8.0128479414673688e+00 -1.5906525808940297e+00 0.0000000000000000e+00  8.0334545123988441e+00 -1.5710772544291129e+00 0.0000000000000000e+00  8.0556013746270203e+00 -1.5447347583448756e+00 0.0000000000000000e+00  8.0763019269957699e+00 -1.5237530475682040e+00 0.0000000000000000e+00  8.0984719145831239e+00 -1.4981383430208137e+00 0.0000000000000000e+00  8.1187693736501494e+00 -1.4779368424498420e+00 0.0000000000000000e+00  8.1413186026404212e+00 -1.4518440505832704e+00 0.0000000000000000e+00  8.1613291206190084e+00 -1.4341133920684848e+00 0.0000000000000000e+00  8.1837009078704348e+00 -1.4045462748855493e+00 0.0000000000000000e+00  8.2039536030745630e+00 -1.3906198169292023e+00 0.0000000000000000e+00  8.2260355919551991e+00 -1.3575441783815621e+00 0.0000000000000000e+00  8.2461318073923238e+00 -1.3453212973978612e+00 0.0000000000000000e+00  8.2683890185936288e+00 -1.3116271790309855e+00 0.0000000000000000e+00  8.2882297267340981e+00 -1.2986538397617631e+00 0.0000000000000000e+00  8.3101917065596531e+00 -1.2669465348085025e+00 0.0000000000000000e+00  8.3303906127114384e+00 -1.2511784104928430e+00 0.0000000000000000e+00  8.3517734098057215e+00 -1.2240003550846625e+00 0.0000000000000000e+00  8.3719807232547474e+00 -1.2033006229427248e+00 0.0000000000000000e+00  8.3933604644227131e+00 -1.1820958177410457e+00 0.0000000000000000e+00  8.4132649029991935e+00 -1.1561071686666839e+00 0.0000000000000000e+00  8.4343087760291269e+00 -1.1397991772997103e+00 0.0000000000000000e+00  8.4544868011672616e+00 -1.1097911078649378e+00 0.0000000000000000e+00  8.4748529347632449e+00 -1.0969253052797137e+00 0.0000000000000000e+00  8.4949840318867533e+00 -1.0633229512747773e+00 0.0000000000000000e+00  8.5152494344002019e+00 -1.0539717244024531e+00 0.0000000000000000e+00  8.5349305893732748e+00 -1.0171857656742780e+00 0.0000000000000000e+00  8.5548640037802759e+00 -1.0101487064418186e+00 0.0000000000000000e+00  8.5745554896046539e+00 -9.7303640594746621e-01 0.0000000000000000e+00  8.5938146604766175e+00 -9.6489720691127201e-01 0.0000000000000000e+00  8.6132667582687130e+00 -9.3112786211833720e-01 0.0000000000000000e+00  8.6323081364697547e+00 -9.1904573129725475e-01 0.0000000000000000e+00  8.6510903428757082e+00 -8.9023464244814343e-01 0.0000000000000000e+00  8.6698383696037897e+00 -8.7230616111667092e-01 0.0000000000000000e+00  8.6881878221260340e+00 -8.4973001242490309e-01 0.0000000000000000e+00  8.7063403888581430e+00 -8.2531214429949162e-01 0.0000000000000000e+00  8.7241476647168277e+00 -8.0825351160927406e-01 0.0000000000000000e+00  8.7419064021020532e+00 -7.7940892067329104e-01 0.0000000000000000e+00  8.7588513181082490e+00 -7.6400109698179774e-01 0.0000000000000000e+00  8.7761755048580525e+00 -7.3664685630792148e-01 0.0000000000000000e+00  8.7923786025944661e+00 -7.1880932674878495e-01 0.0000000000000000e+00  8.8089318840801720e+00 -6.9593509088268413e-01 0.0000000000000000e+00  8.8244438237113876e+00 -6.7422454606085558e-01 0.0000000000000000e+00  8.8402351491720914e+00 -6.5492295687717705e-01 0.0000000000000000e+00  8.8548017638886769e+00 -6.3221552119799496e-01 0.0000000000000000e+00  8.8698184682635510e+00 -6.1475675856913625e-01 0.0000000000000000e+00  8.8835120027063557e+00 -5.8999839455555603e-01 0.0000000000000000e+00  8.8974191732330770e+00 -5.7444015355907752e-01 0.0000000000000000e+00  8.9103400484030271e+00 -5.4724664414991042e-01 0.0000000000000000e+00  8.9230873740361467e+00 -5.3201605930177820e-01 0.0000000000000000e+00  8.9350418965100236e+00 -5.0183544882467102e-01 0.0000000000000000e+00  8.9465890307026541e+00 -4.8746052310207916e-01 0.0000000000000000e+00  8.9576635838711987e+00 -4.5750980508586075e-01 0.0000000000000000e+00  8.9677069228934148e+00 -4.4980227098593717e-01 0.0000000000000000e+00  8.9779120205756140e+00 -4.2080442366656207e-01 0.0000000000000000e+00  8.9865489972765804e+00 -4.1027282133758197e-01 0.0000000000000000e+00  8.9956952180267908e+00 -3.8047850321201399e-01 0.0000000000000000e+00  9.0028546259702740e+00 -3.6927113296814873e-01 0.0000000000000000e+00  9.0110389660105419e+00 -3.3334390288419746e-01 0.0000000000000000e+00  9.0165652029478309e+00 -3.1909756565699671e-01 0.0000000000000000e+00  9.0236665223812071e+00 -2.7757264622834160e-01 0.0000000000000000e+00  9.0277309220684767e+00 -2.5742493094489699e-01 0.0000000000000000e+00  9.0335059056081271e+00 -2.2910416700599626e-01 0.0000000000000000e+00  9.0360143751043225e+00 -1.9336939177655604e-01 0.0000000000000000e+00  9.0406192984494513e+00 -1.7978266464240863e-01 0.0000000000000000e+00  9.0414608710561826e+00 -1.3475576950655579e-01 0.0000000000000000e+00  9.0448592869191451e+00 -1.4038428164933942e-01 0.0000000000000000e+00  9.0443864693722915e+00 -4.1735801898082264e-02 0.0000000000000000e+00  9.0466350032699054e+00 0.0000000000000000e+00 0.0000000000000000e+00  3.0375790507751943e+00 0.0000000000000000e+00 1.4431133096257332e-03  3.0361975989580627e+00 3.4880245694087250e-02 -9.7343069296125396e-03  3.0378309732446769e+00 8.6584272161950082e-02 8.1274814786703679e-03  3.0368628887621965e+00 1.2640849926689693e-01 5.0865884719063651e-03  3.0373001318682733e+00 1.6472366384785150e-01 -9.3374468814909090e-03  3.0372811056327005e+00 2.1529806472105945e-01 1.0945585748624210e-02  3.0376117403930878e+00 2.4819860904295907e-01 -1.2199167006232832e-02  3.0367754902183663e+00 3.0073678950729438e-01 1.5147807877397272e-02  3.0379361224072046e+00 3.3009539697446177e-01 -1.9050737201499451e-02  3.0367993190069553e+00 3.8835144209426448e-01 2.2132364988285452e-02  3.0375714493122588e+00 4.1217442929503384e-01 -2.2606800187209959e-02  3.0368114526082235e+00 4.7101198297548857e-01 1.9704484169285046e-02  3.0375494753057297e+00 5.0175799764141371e-01 -1.3417910747771078e-02  3.0365434697874139e+00 5.4829186704711463e-01 5.0088518068453188e-03  3.0370762256961594e+00 5.8960295890809711e-01 4.0586830688408449e-03  3.0369808093128157e+00 6.3277089192715785e-01 -1.2491716535773866e-02  3.0360317703168644e+00 6.7233442980167157e-01 1.8419152177292467e-02  3.0371947685843477e+00 7.1331767329321194e-01 -2.1101913852126186e-02  3.0356014955166652e+00 7.6728346179016571e-01 2.1107284340274632e-02  3.0367443779879837e+00 7.8370395507140245e-01 -1.9778764444378118e-02  3.0353298500632322e+00 8.5672392889318960e-01 1.8294082862755249e-02  3.0363993256767734e+00 8.7765514464503680e-01 -1.6817821412503011e-02  3.0348976301043109e+00 9.2003585887406458e-01 1.4441683432800034e-02  3.0359034955017337e+00 9.7617201419625943e-01 -1.0997658317054368e-02  3.0346904165380573e+00 1.0101464726028599e+00 6.7381462644997663e-03  3.0351536319177828e+00 1.0347745879680847e+00 -3.3980977032220918e-03  3.0344942381163826e+00 1.1193849212422993e+00 1.7620686868246511e-03  3.0344784121442698e+00 1.1146088609566598e+00 -2.0480368754241234e-03  3.0340744297728044e+00 1.1821505195635242e+00 2.7504738864882004e-03  3.0340119458521739e+00 1.2283615551045570e+00 -3.0183924113978654e-03  3.0334432386821164e+00 1.2506082806194485e+00 2.3882370096703636e-03  3.0335713638100636e+00 1.3046126721484441e+00 -1.9607291885485726e-03  3.0329030254083360e+00 1.3537932320578749e+00 1.7557403609553351e-03  3.0329130315854922e+00 1.3778153979288064e+00 -1.4047038376525979e-03  3.0324716826081191e+00 1.4305631732105311e+00 3.0879962163053303e-04  3.0322075481475168e+00 1.4796488298808019e+00 1.2522659079122532e-03  3.0320311707542520e+00 1.5019144770252437e+00 -2.5299807268549411e-03  3.0314327952868036e+00 1.5620547997891725e+00 2.1343996770520732e-03  3.0315066996670050e+00 1.5977742348790245e+00 -5.1358516186446942e-04  3.0309529216396389e+00 1.6351368072746995e+00 -1.3796109765140672e-03  3.0304830023231690e+00 1.6843603173589079e+00 2.2230667503470949e-03  3.0306597965498376e+00 1.7235670601528972e+00 -1.9378602505203768e-03  3.0298077062502586e+00 1.7634953598109455e+00 1.2390658423282336e-03  3.0296009730794498e+00 1.8083943214310052e+00 -1.2676977066548877e-03  3.0295068510251957e+00 1.8504038729817456e+00 1.8250107560436601e-03  3.0289404351077112e+00 1.8891467130390500e+00 -2.8286881043673934e-03  3.0281947808194882e+00 1.9358596822134944e+00 3.4285432702926937e-03  3.0288670418082941e+00 1.9735580054367396e+00 -3.9958796150363490e-03  3.0272058885602746e+00 2.0192551443293492e+00 4.6014707322242464e-03  3.0277823699782336e+00 2.0572448787765132e+00 -5.5287521167101681e-03  3.0266967866718635e+00 2.1049270163675193e+00 6.5680713026549497e-03  3.0272368408200530e+00 2.1390061279041714e+00 -7.4348885356728131e-03  3.0249946452997123e+00 2.1906667647999423e+00 7.9295333908736311e-03  3.0270924761611173e+00 2.2226161262279169e+00 -8.0559672590250677e-03  3.0241525755058762e+00 2.2738384266701579e+00 7.8485140748494695e-03  3.0254256948390195e+00 2.3075032643770141e+00 -7.4662339463517306e-03  3.0237979706946554e+00 2.3578035223514711e+00 6.7852079856930763e-03  3.0247032573237447e+00 2.3905374181076726e+00 -5.9266355414807877e-03  3.0219962618815588e+00 2.4421396569862108e+00 4.8107996151683374e-03  3.0239736594771252e+00 2.4758213410525451e+00 -3.6855016024152148e-03  3.0218454130665990e+00 2.5229720492163366e+00 2.6867180844499282e-03  3.0214114689531777e+00 2.5622979712196163e+00 -1.9942380219885232e-03  3.0213786695676856e+00 2.6067238552529606e+00 1.6261194737977466e-03  3.0212355421062260e+00 2.6435330596621140e+00 -1.5095184449731797e-03  3.0185602049707003e+00 2.6931372666179687e+00 1.5440518933279616e-03  3.0206107150658599e+00 2.7275822737694022e+00 -1.6564250941887412e-03  3.0186683136932451e+00 2.7729669471369141e+00 1.7318321674637742e-03  3.0173067752546583e+00 2.8160542525815795e+00 -1.6734918782876113e-03  3.0181394009614428e+00 2.8544893480704840e+00 1.2871321713899015e-03  3.0173661843370887e+00 2.8979850962781586e+00 -6.0861137941152423e-04  3.0147489051934508e+00 2.9410316012673805e+00 -2.2148533962974639e-04  3.0165421942230095e+00 2.9809915678321826e+00 9.7876470732519952e-04  3.0151257300587653e+00 3.0214809333069392e+00 -1.4607951460722047e-03  3.0125490743471297e+00 3.0685666235033562e+00 1.7313112783281001e-03  3.0147619983008833e+00 3.1036312957652283e+00 -1.7595686700605103e-03  3.0123349504135795e+00 3.1492327626962835e+00 1.6898794291268194e-03  3.0109533876172327e+00 3.1913415606149784e+00 -1.4595941123278036e-03  3.0121088730725423e+00 3.2302599908242779e+00 1.2317357735105719e-03  3.0099980321434070e+00 3.2735218913790458e+00 -1.0148726789882669e-03  3.0089310990858817e+00 3.3162925164703108e+00 9.1757119978748750e-04  3.0094392237647356e+00 3.3550872366843461e+00 -8.4914877321336571e-04  3.0075505296