<?xml version="1.0"?>
<VTKFile type="UnstructuredGrid"  version="0.1"  >
<UnstructuredGrid>
<Piece  NumberOfPoints="8241" NumberOfCells="16000">
<Points>
<DataArray  type="Float64"  NumberOfComponents="3"  format="ascii">-5 -1 0  -4.95 -1 0  -4.9 -1 0  -4.85 -1 0  -4.8 -1 0  -4.75 -1 0  -4.7 -1 0  -4.65 -1 0  -4.6 -1 0  -4.55 -1 0  -4.5 -1 0  -4.45 -1 0  -4.4 -1 0  -4.35 -1 0  -4.3 -1 0  -4.25 -1 0  -4.2 -1 0  -4.15 -1 0  -4.1 -1 0  -4.05 -1 0  -4 -1 0  -3.95 -1 0  -3.9 -1 0  -3.85 -1 0  -3.8 -1 0  -3.75 -1 0  -3.7 -1 0  -3.65 -1 0  -3.6 -1 0  -3.55 -1 0  -3.5 -1 0  -3.45 -1 0  -3.4 -1 0  -3.35 -1 0  -3.3 -1 0  -3.25 -1 0  -3.2 -1 0  -3.15 -1 0  -3.1 -1 0  -3.05 -1 0  -3 -1 0  -2.95 -1 0  -2.9 -1 0  -2.85 -1 0  -2.8 -1 0  -2.75 -1 0  -2.7 -1 0  -2.65 -1 0  -2.6 -1 0  -2.55 -1 0  -2.5 -1 0  -2.45 -1 0  -2.4 -1 0  -2.35 -1 0  -2.3 -1 0  -2.25 -1 0  -2.2 -1 0  -2.15 -1 0  -2.1 -1 0  -2.05 -1 0  -2 -1 0  -1.95 -1 0  -1.9 -1 0  -1.85 -1 0  -1.8 -1 0  -1.75 -1 0  -1.7 -1 0  -1.65 -1 0  -1.6 -1 0  -1.55 -1 0  -1.5 -1 0  -1.45 -1 0  -1.4 -1 0  -1.35 -1 0  -1.3 -1 0  -1.25 -1 0  -1.2 -1 0  -1.15 -1 0  -1.1 -1 0  -1.05 -1 0  -1 -1 0  -0.9500000000000002 -1 0  -0.9000000000000004 -1 0  -0.8499999999999996 -1 0  -0.7999999999999998 -1 0  -0.75 -1 0  -0.7000000000000002 -1 0  -0.6500000000000004 -1 0  -0.5999999999999996 -1 0  -0.5499999999999998 -1 0  -0.5 -1 0  -0.4500000000000002 -1 0  -0.4000000000000004 -1 0  -0.3499999999999996 -1 0  -0.2999999999999998 -1 0  -0.25 -1 0  -0.2000000000000002 -1 0  -0.1500000000000004 -1 0  -0.09999999999999964 -1 0  -0.04999999999999982 -1 0  0 -1 0  0.04999999999999982 -1 0  0.09999999999999964 -1 0  0.1500000000000004 -1 0  0.2000000000000002 -1 0  0.25 -1 0  0.2999999999999998 -1 0  0.3499999999999996 -1 0  0.4000000000000004 -1 0  0.4500000000000002 -1 0  0.5 -1 0  0.5499999999999998 -1 0  0.5999999999999996 -1 0  0.6500000000000004 -1 0  0.7000000000000002 -1 0  0.75 -1 0  0.7999999999999998 -1 0  0.8499999999999996 -1 0  0.9000000000000004 -1 0  0.9500000000000002 -1 0  1 -1 0  1.05 -1 0  1.1 -1 0  1.15 -1 0  1.2 -1 0  1.25 -1 0  1.3 -1 0  1.35 -1 0  1.4 -1 0  1.45 -1 0  1.5 -1 0  1.55 -1 0  1.6 -1 0  1.65 -1 0  1.7 -1 0  1.75 -1 0  1.8 -1 0  1.85 -1 0  1.9 -1 0  1.95 -1 0  2 -1 0  2.05 -1 0  2.1 -1 0  2.15 -1 0  2.2 -1 0  2.25 -1 0  2.3 -1 0  2.35 -1 0  2.4 -1 0  2.45 -1 0  2.5 -1 0  2.55 -1 0  2.6 -1 0  2.65 -1 0  2.7 -1 0  2.75 -1 0  2.8 -1 0  2.85 -1 0  2.9 -1 0  2.95 -1 0  3 -1 0  3.050000000000001 -1 0  3.1 -1 0  3.15 -1 0  3.199999999999999 -1 0  3.25 -1 0  3.300000000000001 -1 0  3.35 -1 0  3.4 -1 0  3.449999999999999 -1 0  3.5 -1 0  3.550000000000001 -1 0  3.6 -1 0  3.65 -1 0  3.699999999999999 -1 0  3.75 -1 0  3.800000000000001 -1 0  3.85 -1 0  3.9 -1 0  3.949999999999999 -1 0  4 -1 0  4.050000000000001 -1 0  4.1 -1 0  4.15 -1 0  4.199999999999999 -1 0  4.25 -1 0  4.300000000000001 -1 0  4.35 -1 0  4.4 -1 0  4.449999999999999 -1 0  4.5 -1 0  4.550000000000001 -1 0  4.6 -1 0  4.65 -1 0  4.699999999999999 -1 0  4.75 -1 0  4.800000000000001 -1 0  4.85 -1 0  4.9 -1 0  4.949999999999999 -1 0  5 -1 0  -5 -0.95 0  -4.95 -0.95 0  -4.9 -0.95 0  -4.85 -0.95 0  -4.8 -0.95 0  -4.75 -0.95 0  -4.7 -0.95 0  -4.65 -0.95 0  -4.6 -0.95 0  -4.55 -0.95 0  -4.5 -0.95 0  -4.45 -0.95 0  -4.4 -0.95 0  -4.35 -0.95 0  -4.3 -0.95 0  -4.25 -0.95 0  -4.2 -0.95 0  -4.15 -0.95 0  -4.1 -0.95 0  -4.05 -0.95 0  -4 -0.95 0  -3.95 -0.95 0  -3.9 -0.95 0  -3.85 -0.95 0  -3.8 -0.95 0  -3.75 -0.95 0  -3.7 -0.95 0  -3.65 -0.95 0  -3.6 -0.95 0  -3.55 -0.95 0  -3.5 -0.95 0  -3.45 -0.95 0  -3.4 -0.95 0  -3.35 -0.95 0  -3.3 -0.95 0  -3.25 -0.95 0  -3.2 -0.95 0  -3.15 -0.95 0  -3.1 -0.95 0  -3.05 -0.95 0  -3 -0.95 0  -2.95 -0.95 0  -2.9 -0.95 0  -2.85 -0.95 0  -2.8 -0.95 0  -2.75 -0.95 0  -2.7 -0.95 0  -2.65 -0.95 0  -2.6 -0.95 0  -2.55 -0.95 0  -2.5 -0.95 0  -2.45 -0.95 0  -2.4 -0.95 0  -2.35 -0.95 0  -2.3 -0.95 0  -2.25 -0.95 0  -2.2 -0.95 0  -2.15 -0.95 0  -2.1 -0.95 0  -2.05 -0.95 0  -2 -0.95 0  -1.95 -0.95 0  -1.9 -0.95 0  -1.85 -0.95 0  -1.8 -0.95 0  -1.75 -0.95 0  -1.7 -0.95 0  -1.65 -0.95 0  -1.6 -0.95 0  -1.55 -0.95 0  -1.5 -0.95 0  -1.45 -0.95 0  -1.4 -0.95 0  -1.35 -0.95 0  -1.3 -0.95 0  -1.25 -0.95 0  -1.2 -0.95 0  -1.15 -0.95 0  -1.1 -0.95 0  -1.05 -0.95 0  -1 -0.95 0  -0.9500000000000002 -0.95 0  -0.9000000000000004 -0.95 0  -0.8499999999999996 -0.95 0  -0.7999999999999998 -0.95 0  -0.75 -0.95 0  -0.7000000000000002 -0.95 0  -0.6500000000000004 -0.95 0  -0.5999999999999996 -0.95 0  -0.5499999999999998 -0.95 0  -0.5 -0.95 0  -0.4500000000000002 -0.95 0  -0.4000000000000004 -0.95 0  -0.3499999999999996 -0.95 0  -0.2999999999999998 -0.95 0  -0.25 -0.95 0  -0.2000000000000002 -0.95 0  -0.1500000000000004 -0.95 0  -0.09999999999999964 -0.95 0  -0.04999999999999982 -0.95 0  0 -0.95 0  0.04999999999999982 -0.95 0  0.09999999999999964 -0.95 0  0.1500000000000004 -0.95 0  0.2000000000000002 -0.95 0  0.25 -0.95 0  0.2999999999999998 -0.95 0  0.3499999999999996 -0.95 0  0.4000000000000004 -0.95 0  0.4500000000000002 -0.95 0  0.5 -0.95 0  0.5499999999999998 -0.95 0  0.5999999999999996 -0.95 0  0.6500000000000004 -0.95 0  0.7000000000000002 -0.95 0  0.75 -0.95 0  0.7999999999999998 -0.95 0  0.8499999999999996 -0.95 0  0.9000000000000004 -0.95 0  0.9500000000000002 -0.95 0  1 -0.95 0  1.05 -0.95 0  1.1 -0.95 0  1.15 -0.95 0  1.2 -0.95 0  1.25 -0.95 0  1.3 -0.95 0  1.35 -0.95 0  1.4 -0.95 0  1.45 -0.95 0  1.5 -0.95 0  1.55 -0.95 0  1.6 -0.95 0  1.65 -0.95 0  1.7 -0.95 0  1.75 -0.95 0  1.8 -0.95 0  1.85 -0.95 0  1.9 -0.95 0  1.95 -0.95 0  2 -0.95 0  2.05 -0.95 0  2.1 -0.95 0  2.15 -0.95 0  2.2 -0.95 0  2.25 -0.95 0  2.3 -0.95 0  2.35 -0.95 0  2.4 -0.95 0  2.45 -0.95 0  2.5 -0.95 0  2.55 -0.95 0  2.6 -0.95 0  2.65 -0.95 0  2.7 -0.95 0  2.75 -0.95 0  2.8 -0.95 0  2.85 -0.95 0  2.9 -0.95 0  2.95 -0.95 0  3 -0.95 0  3.050000000000001 -0.95 0  3.1 -0.95 0  3.15 -0.95 0  3.199999999999999 -0.95 0  3.25 -0.95 0  3.300000000000001 -0.95 0  3.35 -0.95 0  3.4 -0.95 0  3.449999999999999 -0.95 0  3.5 -0.95 0  3.550000000000001 -0.95 0  3.6 -0.95 0  3.65 -0.95 0  3.699999999999999 -0.95 0  3.75 -0.95 0  3.800000000000001 -0.95 0  3.85 -0.95 0  3.9 -0.95 0  3.949999999999999 -0.95 0  4 -0.95 0  4.050000000000001 -0.95 0  4.1 -0.95 0  4.15 -0.95 0  4.199999999999999 -0.95 0  4.25 -0.95 0  4.300000000000001 -0.95 0  4.35 -0.95 0  4.4 -0.95 0  4.449999999999999 -0.95 0  4.5 -0.95 0  4.550000000000001 -0.95 0  4.6 -0.95 0  4.65 -0.95 0  4.699999999999999 -0.95 0  4.75 -0.95 0  4.800000000000001 -0.95 0  4.85 -0.95 0  4.9 -0.95 0  4.949999999999999 -0.95 0  5 -0.95 0  -5 -0.9 0  -4.95 -0.9 0  -4.9 -0.9 0  -4.85 -0.9 0  -4.8 -0.9 0  -4.75 -0.9 0  -4.7 -0.9 0  -4.65 -0.9 0  -4.6 -0.9 0  -4.55 -0.9 0  -4.5 -0.9 0  -4.45 -0.9 0  -4.4 -0.9 0  -4.35 -0.9 0  -4.3 -0.9 0  -4.25 -0.9 0  -4.2 -0.9 0  -4.15 -0.9 0  -4.1 -0.9 0  -4.05 -0.9 0  -4 -0.9 0  -3.95 -0.9 0  -3.9 -0.9 0  -3.85 -0.9 0  -3.8 -0.9 0  -3.75 -0.9 0  -3.7 -0.9 0  -3.65 -0.9 0  -3.6 -0.9 0  -3.55 -0.9 0  -3.5 -0.9 0  -3.45 -0.9 0  -3.4 -0.9 0  -3.35 -0.9 0  -3.3 -0.9 0  -3.25 -0.9 0  -3.2 -0.9 0  -3.15 -0.9 0  -3.1 -0.9 0  -3.05 -0.9 0  -3 -0.9 0  -2.95 -0.9 0  -2.9 -0.9 0  -2.85 -0.9 0  -2.8 -0.9 0  -2.75 -0.9 0  -2.7 -0.9 0  -2.65 -0.9 0  -2.6 -0.9 0  -2.55 -0.9 0  -2.5 -0.9 0  -2.45 -0.9 0  -2.4 -0.9 0  -2.35 -0.9 0  -2.3 -0.9 0  -2.25 -0.9 0  -2.2 -0.9 0  -2.15 -0.9 0  -2.1 -0.9 0  -2.05 -0.9 0  -2 -0.9 0  -1.95 -0.9 0  -1.9 -0.9 0  -1.85 -0.9 0  -1.8 -0.9 0  -1.75 -0.9 0  -1.7 -0.9 0  -1.65 -0.9 0  -1.6 -0.9 0  -1.55 -0.9 0  -1.5 -0.9 0  -1.45 -0.9 0  -1.4 -0.9 0  -1.35 -0.9 0  -1.3 -0.9 0  -1.25 -0.9 0  -1.2 -0.9 0  -1.15 -0.9 0  -1.1 -0.9 0  -1.05 -0.9 0  -1 -0.9 0  -0.9500000000000002 -0.9 0  -0.9000000000000004 -0.9 0  -0.8499999999999996 -0.9 0  -0.7999999999999998 -0.9 0  -0.75 -0.9 0  -0.7000000000000002 -0.9 0  -0.6500000000000004 -0.9 0  -0.5999999999999996 -0.9 0  -0.5499999999999998 -0.9 0  -0.5 -0.9 0  -0.4500000000000002 -0.9 0  -0.4000000000000004 -0.9 0  -0.3499999999999996 -0.9 0  -0.2999999999999998 -0.9 0  -0.25 -0.9 0  -0.2000000000000002 -0.9 0  -0.1500000000000004 -0.9 0  -0.09999999999999964 -0.9 0  -0.04999999999999982 -0.9 0  0 -0.9 0  0.04999999999999982 -0.9 0  0.09999999999999964 -0.9 0  0.1500000000000004 -0.9 0  0.2000000000000002 -0.9 0  0.25 -0.9 0  0.2999999999999998 -0.9 0  0.3499999999999996 -0.9 0  0.4000000000000004 -0.9 0  0.4500000000000002 -0.9 0  0.5 -0.9 0  0.5499999999999998 -0.9 0  0.5999999999999996 -0.9 0  0.6500000000000004 -0.9 0  0.7000000000000002 -0.9 0  0.75 -0.9 0  0.7999999999999998 -0.9 0  0.8499999999999996 -0.9 0  0.9000000000000004 -0.9 0  0.9500000000000002 -0.9 0  1 -0.9 0  1.05 -0.9 0  1.1 -0.9 0  1.15 -0.9 0  1.2 -0.9 0  1.25 -0.9 0  1.3 -0.9 0  1.35 -0.9 0  1.4 -0.9 0  1.45 -0.9 0  1.5 -0.9 0  1.55 -0.9 0  1.6 -0.9 0  1.65 -0.9 0  1.7 -0.9 0  1.75 -0.9 0  1.8 -0.9 0  1.85 -0.9 0  1.9 -0.9 0  1.95 -0.9 0  2 -0.9 0  2.05 -0.9 0  2.1 -0.9 0  2.15 -0.9 0  2.2 -0.9 0  2.25 -0.9 0  2.3 -0.9 0  2.35 -0.9 0  2.4 -0.9 0  2.45 -0.9 0  2.5 -0.9 0  2.55 -0.9 0  2.6 -0.9 0  2.65 -0.9 0  2.7 -0.9 0  2.75 -0.9 0  2.8 -0.9 0  2.85 -0.9 0  2.9 -0.9 0  2.95 -0.9 0  3 -0.9 0  3.050000000000001 -0.9 0  3.1 -0.9 0  3.15 -0.9 0  3.199999999999999 -0.9 0  3.25 -0.9 0  3.300000000000001 -0.9 0  3.35 -0.9 0  3.4 -0.9 0  3.449999999999999 -0.9 0  3.5 -0.9 0  3.550000000000001 -0.9 0  3.6 -0.9 0  3.65 -0.9 0  3.699999999999999 -0.9 0  3.75 -0.9 0  3.800000000000001 -0.9 0  3.85 -0.9 0  3.9 -0.9 0  3.949999999999999 -0.9 0  4 -0.9 0  4.050000000000001 -0.9 0  4.1 -0.9 0  4.15 -0.9 0  4.199999999999999 -0.9 0  4.25 -0.9 0  4.300000000000001 -0.9 0  4.35 -0.9 0  4.4 -0.9 0  4.449999999999999 -0.9 0  4.5 -0.9 0  4.550000000000001 -0.9 0  4.6 -0.9 0  4.65 -0.9 0  4.699999999999999 -0.9 0  4.75 -0.9 0  4.800000000000001 -0.9 0  4.85 -0.9 0  4.9 -0.9 0  4.949999999999999 -0.9 0  5 -0.9 0  -5 -0.85 0  -4.95 -0.85 0  -4.9 -0.85 0  -4.85 -0.85 0  -4.8 -0.85 0  -4.75 -0.85 0  -4.7 -0.85 0  -4.65 -0.85 0  -4.6 -0.85 0  -4.55 -0.85 0  -4.5 -0.85 0  -
[...]
<PointData  Vectors="f_15"> 
<DataArray  type="Float64"  Name="f_15"  NumberOfComponents="3" format="ascii">3.1954538529927121e+00 0.0000000000000000e+00 0.0000000000000000e+00  3.1966599228575574e+00 6.4517025415488469e-02 0.0000000000000000e+00  3.1955806125560713e+00 8.1632982818759484e-02 0.0000000000000000e+00  3.1962219416101174e+00 1.3323465412888566e-01 0.0000000000000000e+00  3.1951626551738150e+00 1.7538735572679146e-01 0.0000000000000000e+00  3.1967673424342959e+00 2.1770629224241186e-01 0.0000000000000000e+00  3.1944827694459801e+00 2.6465994546468186e-01 0.0000000000000000e+00  3.1963938354355594e+00 3.0416443363751616e-01 0.0000000000000000e+00  3.1949690907818553e+00 3.5500216547729629e-01 0.0000000000000000e+00  3.1957001866476911e+00 3.9014925935378619e-01 0.0000000000000000e+00  3.1945942634181996e+00 4.4385366533297982e-01 0.0000000000000000e+00  3.1961143888679886e+00 4.8057504069777413e-01 0.0000000000000000e+00  3.1938038231105299e+00 5.2509723216653881e-01 0.0000000000000000e+00  3.1958286289569666e+00 5.7899733154263544e-01 0.0000000000000000e+00  3.1939666274033129e+00 6.0370773424941382e-01 0.0000000000000000e+00  3.1950877227412819e+00 6.7169921737155935e-01 0.0000000000000000e+00  3.1936919142902767e+00 6.9402739393973978e-01 0.0000000000000000e+00  3.1949689619809463e+00 7.5427935537933155e-01 0.0000000000000000e+00  3.1931498381351808e+00 7.8481836418993534e-01 0.0000000000000000e+00  3.1943998414561752e+00 8.4680575666362323e-01 0.0000000000000000e+00  3.1931070438223097e+00 8.6515731952514696e-01 0.0000000000000000e+00  3.1935263412675172e+00 9.3599249287227748e-01 0.0000000000000000e+00  3.1928932887176948e+00 9.6715457408038763e-01 0.0000000000000000e+00  3.1928265999261520e+00 9.9911736359350545e-01 0.0000000000000000e+00  3.1925257555111495e+00 1.0755598934606230e+00 0.0000000000000000e+00  3.1920870715033374e+00 1.0883145740648905e+00 0.0000000000000000e+00  3.1919799875356230e+00 1.1384120796557209e+00 0.0000000000000000e+00  3.1914911812467173e+00 1.2103734125116090e+00 0.0000000000000000e+00  3.1912891216077353e+00 1.2057157432874022e+00 0.0000000000000000e+00  3.1906946800634168e+00 1.2952762851321433e+00 0.0000000000000000e+00  3.1907348084589833e+00 1.3113557592961611e+00 0.0000000000000000e+00  3.1898564999450785e+00 1.3711784462178653e+00 0.0000000000000000e+00  3.1898961800866239e+00 1.3938363408729844e+00 0.0000000000000000e+00  3.1891184595175965e+00 1.4753031134010044e+00 0.0000000000000000e+00  3.1890807146088953e+00 1.4722694485799352e+00 0.0000000000000000e+00  3.1881609755617171e+00 1.5537492521704932e+00 0.0000000000000000e+00  3.1881330404185775e+00 1.5841762472019811e+00 0.0000000000000000e+00  3.1875660994375861e+00 1.6198389817959733e+00 0.0000000000000000e+00  3.1867090365229531e+00 1.6775413560720727e+00 0.0000000000000000e+00  3.1869246419257480e+00 1.7183245596395600e+00 0.0000000000000000e+00  3.1856947271987903e+00 1.7506304442081841e+00 0.0000000000000000e+00  3.1858048540448451e+00 1.8121711916515486e+00 0.0000000000000000e+00  3.1845333061248993e+00 1.8444239949028860e+00 0.0000000000000000e+00  3.1852554380177698e+00 1.8895652215104779e+00 0.0000000000000000e+00  3.1828351624394711e+00 1.9383247363604938e+00 0.0000000000000000e+00  3.1844411538796131e+00 1.9789907647907232e+00 0.0000000000000000e+00  3.1819374292772817e+00 2.0210414721468184e+00 0.0000000000000000e+00  3.1829510751256462e+00 2.0692851120419142e+00 0.0000000000000000e+00  3.1807127133435888e+00 2.1110847408301017e+00 0.0000000000000000e+00  3.1824182605702167e+00 2.1525167028919561e+00 0.0000000000000000e+00  3.1789073768673104e+00 2.2012671556649472e+00 0.0000000000000000e+00  3.1810492168084026e+00 2.2423494333530010e+00 0.0000000000000000e+00  3.1787660453967548e+00 2.2840520345853013e+00 0.0000000000000000e+00  3.1786745795938840e+00 2.3346169242165158e+00 0.0000000000000000e+00  3.1776792802559188e+00 2.3708849068428548e+00 0.0000000000000000e+00  3.1783408994498532e+00 2.4203589723547378e+00 0.0000000000000000e+00  3.1755432168361328e+00 2.4609801001497975e+00 0.0000000000000000e+00  3.1764899458668889e+00 2.5086187132493039e+00 0.0000000000000000e+00  3.1763057945741804e+00 2.5457414619204966e+00 0.0000000000000000e+00  3.1730967440847584e+00 2.5990257430923114e+00 0.0000000000000000e+00  3.1753588076457460e+00 2.6346582068535711e+00 0.0000000000000000e+00  3.1732200621046327e+00 2.6821579028408773e+00 0.0000000000000000e+00  3.1724007321419569e+00 2.7272330381025016e+00 0.0000000000000000e+00  3.1716980586843744e+00 2.7694617734645632e+00 0.0000000000000000e+00  3.1731186213124318e+00 2.8107756699157096e+00 0.0000000000000000e+00  3.1680777625059400e+00 2.8634433545305811e+00 0.0000000000000000e+00  3.1721042933238763e+00 2.8948932864488159e+00 0.0000000000000000e+00  3.1683177066665622e+00 2.9514433457638565e+00 0.0000000000000000e+00  3.1686850096480490e+00 2.9842017641853906e+00 0.0000000000000000e+00  3.1673259161405181e+00 3.0390209900950391e+00 0.0000000000000000e+00  3.1685466651286061e+00 3.0705892312306404e+00 0.0000000000000000e+00  3.1641931248680715e+00 3.1280192320575106e+00 0.0000000000000000e+00  3.1675148113014906e+00 3.1596439431019587e+00 0.0000000000000000e+00  3.1636705664225975e+00 3.2119506786495888e+00 0.0000000000000000e+00  3.1646195944743889e+00 3.2519704922244479e+00 0.0000000000000000e+00  3.1627656334151979e+00 3.2968843814528417e+00 0.0000000000000000e+00  3.1633067385323375e+00 3.3399908647546694e+00 0.0000000000000000e+00  3.1605928490398916e+00 3.3861542493424635e+00 0.0000000000000000e+00  3.1620423048628856e+00 3.4261078963577791e+00 0.0000000000000000e+00  3.1587965278558738e+00 3.4745215405501875e+00 0.0000000000000000e+00  3.1606593936489165e+00 3.5138635643255713e+00 0.0000000000000000e+00  3.1566485180850257e+00 3.5621407971804389e+00 0.0000000000000000e+00  3.1592738315066744e+00 3.6009119732375283e+00 0.0000000000000000e+00  3.1549686976587803e+00 3.6504136733987083e+00 0.0000000000000000e+00  3.1572517575590862e+00 3.6880898474129089e+00 0.0000000000000000e+00  3.1532446994319105e+00 3.7376627438165109e+00 0.0000000000000000e+00  3.1555532190335902e+00 3.7760055854992287e+00 0.0000000000000000e+00  3.1514862266542831e+00 3.8244463129116082e+00 0.0000000000000000e+00  3.1529377143409607e+00 3.8643529644087762e+00 0.0000000000000000e+00  3.1508301168656079e+00 3.9098791519062615e+00 0.0000000000000000e+00  3.1500560323623823e+00 3.9536092233388849e+00 0.0000000000000000e+00  3.1486198906201865e+00 3.9963482579545828e+00 0.0000000000000000e+00  3.1492985715296404e+00 4.0395586127774781e+00 0.0000000000000000e+00  3.1454723184476250e+00 4.0851655356217362e+00 0.0000000000000000e+00  3.1471604353333547e+00 4.1258913353000093e+00 0.0000000000000000e+00  3.1438856211614694e+00 4.1723333898289852e+00 0.0000000000000000e+00  3.1434911784342483e+00 4.2131353726980345e+00 0.0000000000000000e+00  3.1423405414411452e+00 4.2606605985035557e+00 0.0000000000000000e+00  3.1376567471915973e+00 4.3005194873759809e+00 0.0000000000000000e+00  3.1418174151514506e+00 4.3480351388987266e+00 0.0000000000000000e+00  3.1298012958008772e+00 4.3925986063394751e+00 0.0000000000000000e+00  3.1395031954161570e+00 4.4290638449630899e+00 0.0000000000000000e+00  3.1273192764531466e+00 4.4920478064385758e+00 0.0000000000000000e+00  3.1308891358038493e+00 4.4969256267995394e+00 0.0000000000000000e+00  3.1308552319408052e+00 4.6167799042104400e+00 0.0000000000000000e+00  3.1577430534726214e+00 4.4628100876324197e+00 0.0000000000000000e+00  2.9813656309225220e+00 5.0557151082734162e+00 0.0000000000000000e+00  3.9047787530495972e+00 3.2342555721904134e+00 0.0000000000000000e+00  6.3105955694579503e+00 -4.1177885027150340e-01 0.0000000000000000e+00  7.3806946365812038e+00 -1.5935959906804487e+00 0.0000000000000000e+00  7.6305159489641561e+00 -1.8549647984249242e+00 0.0000000000000000e+00  7.6838756296832340e+00 -1.8813698994966221e+00 0.0000000000000000e+00  7.7227552271415512e+00 -1.8700763204020954e+00 0.0000000000000000e+00  7.7564573573925726e+00 -1.8590181911363368e+00 0.0000000000000000e+00  7.7808110239961730e+00 -1.8365951823362363e+00 0.0000000000000000e+00  7.8040555423241269e+00 -1.8122926592649584e+00 0.0000000000000000e+00  7.8237946350128063e+00 -1.7842887436562533e+00 0.0000000000000000e+00  7.8490553609142051e+00 -1.7627488470070625e+00 0.0000000000000000e+00  7.8693159142954450e+00 -1.7358123436278097e+00 0.0000000000000000e+00  7.8950328477454574e+00 -1.7133026517893133e+00 0.0000000000000000e+00  7.9137861454265606e+00 -1.6871935405791765e+00 0.0000000000000000e+00  7.9401057792609198e+00 -1.6637952344148450e+00 0.0000000000000000e+00  7.9586804126863688e+00 -1.6384572601232701e+00 0.0000000000000000e+00  7.9851946399452407e+00 -1.6156477550918260e+00 0.0000000000000000e+00  8.0036033181346991e+00 -1.5898902673587849e+00 0.0000000000000000e+00  8.0299509347966875e+00 -1.5673625060594336e+00 0.0000000000000000e+00  8.0486247357615230e+00 -1.5423359665084222e+00 0.0000000000000000e+00  8.0744941707012998e+00 -1.5193359043713557e+00 0.0000000000000000e+00  8.0936329995276868e+00 -1.4948180967558753e+00 0.0000000000000000e+00  8.1189160213610094e+00 -1.4716611240450455e+00 0.0000000000000000e+00  8.1385542438003071e+00 -1.4486469191779039e+00 0.0000000000000000e+00  8.1631591666384136e+00 -1.4237449056329046e+00 0.0000000000000000e+00  8.1833873872041512e+00 -1.4014701429882666e+00 0.0000000000000000e+00  8.2073680263069306e+00 -1.3765773489148370e+00 0.0000000000000000e+00  8.2278955403276139e+00 -1.3545178602338288e+00 0.0000000000000000e+00  8.2515664077062443e+00 -1.3314315743007881e+00 0.0000000000000000e+00  8.2722552195002255e+00 -1.3083792517148589e+00 0.0000000000000000e+00  8.2954720210624817e+00 -1.2827379208739098e+00 0.0000000000000000e+00  8.3165139020212546e+00 -1.2626108109599292e+00 0.0000000000000000e+00  8.3393273402830594e+00 -1.2341441503230557e+00 0.0000000000000000e+00  8.3602951538603030e+00 -1.2179078694342751e+00 0.0000000000000000e+00  8.3831662813303467e+00 -1.1873931639890565e+00 0.0000000000000000e+00  8.4039084226793790e+00 -1.1727893318446638e+00 0.0000000000000000e+00  8.4265430324551165e+00 -1.1419538539069685e+00 0.0000000000000000e+00  8.4474759625351705e+00 -1.1266622334488166e+00 0.0000000000000000e+00  8.4696865094094242e+00 -1.0967473487044799e+00 0.0000000000000000e+00  8.4905681370127368e+00 -1.0798530324198929e+00 0.0000000000000000e+00  8.5127641436913137e+00 -1.0518921951312943e+00 0.0000000000000000e+00  8.5333155893725809e+00 -1.0326985616662239e+00 0.0000000000000000e+00  8.5553919402476470e+00 -1.0082368949857192e+00 0.0000000000000000e+00  8.5759179478610381e+00 -9.8549697898199351e-01 0.0000000000000000e+00  8.5976020133930220e+00 -9.6619239296825787e-01 0.0000000000000000e+00  8.6180492443724663e+00 -9.3868548131414109e-01 0.0000000000000000e+00  8.6396116636829277e+00 -9.2505564778960170e-01 0.0000000000000000e+00  8.6596655894205554e+00 -8.9283211997151579e-01 0.0000000000000000e+00  8.6811366421114275e+00 -8.8383208415122383e-01 0.0000000000000000e+00  8.7009863155889651e+00 -8.4793702066905874e-01 0.0000000000000000e+00  8.7220834484734429e+00 -8.4182523555614130e-01 0.0000000000000000e+00  8.7417513329719423e+00 -8.0430308344515555e-01 0.0000000000000000e+00  8.7626346147255063e+00 -7.9931686591220130e-01 0.0000000000000000e+00  8.7818788356433135e+00 -7.6189859393702708e-01 0.0000000000000000e+00  8.8025041102060726e+00 -7.5702807808288208e-01 0.0000000000000000e+00  8.8215148657900961e+00 -7.2157347973470765e-01 0.0000000000000000e+00  8.8416521406311759e+00 -7.1414292632012377e-01 0.0000000000000000e+00  8.8603308693876066e+00 -6.8455598965026254e-01 0.0000000000000000e+00  8.8801756157582830e+00 -6.7043102878752570e-01 0.0000000000000000e+00  8.8983483679114386e+00 -6.4836136576644432e-01 0.0000000000000000e+00  8.9176896028948232e+00 -6.2806084803360074e-01 0.0000000000000000e+00  8.9356101036096387e+00 -6.1126358880311793e-01 0.0000000000000000e+00  8.9542679708181900e+00 -5.8775788605232915e-01 0.0000000000000000e+00  8.9716793984272609e+00 -5.7272089583587549e-01 0.0000000000000000e+00  8.9898930254216189e+00 -5.4954981237632772e-01 0.0000000000000000e+00  9.0066756220233977e+00 -5.3463726765060005e-01 0.0000000000000000e+00  9.0240804320810106e+00 -5.1447815007414743e-01 0.0000000000000000e+00  9.0405155369281314e+00 -4.9798995125715900e-01 0.0000000000000000e+00  9.0569934534478236e+00 -4.8065408132751697e-01 0.0000000000000000e+00  9.0726796700957557e+00 -4.6357527492546624e-01 0.0000000000000000e+00  9.0885121386362879e+00 -4.4993628503576810e-01 0.0000000000000000e+00  9.1033305816866772e+00 -4.3045997798092817e-01 0.0000000000000000e+00  9.1180770742222172e+00 -4.2021827161297176e-01 0.0000000000000000e+00  9.1323543826284297e+00 -3.9827710569463520e-01 0.0000000000000000e+00  9.1458374259020587e+00 -3.8987010377845871e-01 0.0000000000000000e+00  9.1591653283924295e+00 -3.6490679433724649e-01 0.0000000000000000e+00  9.1716865685148523e+00 -3.5723330582204871e-01 0.0000000000000000e+00  9.1839094026704871e+00 -3.3145924896587420e-01 0.0000000000000000e+00  9.1949877654069141e+00 -3.3115370463828492e-01 0.0000000000000000e+00  9.2064601090141771e+00 -3.0800550364463480e-01 0.0000000000000000e+00  9.2158905055172546e+00 -3.0648182183906958e-01 0.0000000000000000e+00  9.2262410007374296e+00 -2.8320744496411254e-01 0.0000000000000000e+00  9.2343604544670885e+00 -2.8081505181079169e-01 0.0000000000000000e+00  9.2433787070533402e+00 -2.5256114360940096e-01 0.0000000000000000e+00  9.2497873333429279e+00 -2.4839878813270133e-01 0.0000000000000000e+00  9.2578517969485770e+00 -2.1314490685852913e-01 0.0000000000000000e+00  9.2623712839388883e+00 -2.0235457175885138e-01 0.0000000000000000e+00  9.2690059608775552e+00 -1.8054752576028618e-01 0.0000000000000000e+00  9.2720367144016453e+00 -1.5487504263076818e-01 0.0000000000000000e+00  9.2770598161761555e+00 -1.4740803653514728e-01 0.0000000000000000e+00  9.2782390894787419e+00 -1.1181433871363082e-01 0.0000000000000000e+00  9.2821123596842412e+00 -1.2614882658950824e-01 0.0000000000000000e+00  9.2814447375705438e+00 -3.5210424240517624e-02 0.0000000000000000e+00  9.2840154293825492e+00 0.0000000000000000e+00 0.0000000000000000e+00  3.1987747871137064e+00 0.0000000000000000e+00 -3.5415068817063601e-03  3.1978797963661947e+00 3.5962388944367464e-02 -9.3680719199008087e-03  3.1981865502730291e+00 9.3850312743366221e-02 1.1897548105901490e-02  3.1980578603674901e+00 1.3227544960869139e-01 6.6352406882047327e-04  3.1988148542411530e+00 1.7512934033447949e-01 -5.4253297099175479e-03  3.1976424411340578e+00 2.2576991809524538e-01 7.3434647917117665e-03  3.1985764998996986e+00 2.6246638834915198e-01 -7.9778448402631225e-03  3.1982294560036904e+00 3.1405832154285790e-01 9.4486829287524290e-03  3.1980494469650922e+00 3.4999666781038030e-01 -1.2610978628573856e-02  3.1977946796933701e+00 4.0455292304473478e-01 1.6491167418346737e-02  3.1986374505477824e+00 4.3504142315929872e-01 -1.9958295460498064e-02  3.1969969520377690e+00 4.9506170172825270e-01 2.1350810335160165e-02  3.1982863567284290e+00 5.2314991276182277e-01 -1.9622013821010351e-02  3.1974330527042123e+00 5.8125897776120483e-01 1.4570868720043014e-02  3.1972382152978001e+00 6.1323191887294315e-01 -7.3821107708659387e-03  3.1975186362348906e+00 6.6817025524573770e-01 -9.5206273080201151e-04  3.1968354451317977e+00 7.0378790690237503e-01 8.3207521241854040e-03  3.1972257084230451e+00 7.4978235869859489e-01 -1.3431863200605196e-02  3.1961464940069990e+00 8.0287607831850649e-01 1.5503108370596640e-02  3.1972891450631522e+00 8.2681741256297858e-01 -1.5817906850265295e-02  3.1953766469174747e+00 8.9520340623393391e-01 1.5489731953901740e-02  3.1969312154428140e+00 9.2192225173117837e-01 -1.5254636816896804e-02  3.1950696280958435e+00 9.6893498636774811e-01 1.4081834826832989e-02  3.1962182866854358e+00 1.0206294192146526e+00 -1.1366523579524645e-02  3.1948759655626677e+00 1.0606985909204432e+00 6.7705801535530670e-03  3.1953284499773118e+00 1.0915531922677606e+00 -1.8600920838360592e-03  3.1947671355648386e+00 1.1666226928363805e+00 -1.8639619475121986e-03  3.1944762684325134e+00 1.1770669640299904e+00 3.0792899082806519e-03  3.1942819257923092e+00 1.2383234825131051e+00 -2.4662779895041347e-03  3.1939946925213296e+00 1.2889526296079032e+00 1.2328448296014382e-03  3.1936229405775323e+00 1.3139539546355543e+00 -7.8650859930116761e-04  3.1933050898846131e+00 1.3701686760640790e+00 1.1344044735080946e-03  3.1931681592103192e+00 1.4198571667368172e+00 -2.0220814775792268e-03  3.1925491873386940e+00 1.4482827042392374e+00 3.1413871885501692e-03  3.1925666656058893e+00 1.5001844096671717e+00 -4.3025679726176481e-03  3.1917569876067202e+00 1.5568250298915953e+00 5.2566686826424147e-03  3.1921078004475838e+00 1.5723319566734133e+00 -5.6456996870985895e-03  3.1908510829738255e+00 1.6443292491737438e+00 4.7714137046422260e-03  3.1912423057435255e+00 1.6765910245413060e+00 -2.6230269428838553e-03  3.1906253020508006e+00 1.7144149958405772e+00 1.5465199544158540e-04  3.1898203178005531e+00 1.7722887819983684e+00 1.5543851490275840e-03  3.1901516026571133e+00 1.8082532596858354e+00 -1.9718093210264408e-03  3.1891248952153668e+00 1.8499877148895647e+00 1.4828941390375712e-03  3.1890254238357829e+00 1.9016810851733064e+00 -1.4223830433627424e-03  3.1881680970161379e+00 1.9418269033887392e+00 2.1603632051196186e-03  3.1887185312250881e+00 1.9819448086622786e+00 -3.5001895620046571e-03  3.1865010884864162e+00 2.0351652422166069e+00 4.5474040687507192e-03  3.1880396668033324e+00 2.0708363804176728e+00 -4.7812744315554150e-03  3.1858377323883174e+00 2.1192801815007680e+00 4.6803264216655734e-03  3.1866142698985063e+00 2.1613347448215778e+00 -4.7172710770091442e-03  3.1845445512355108e+00 2.2093412174954787e+00 5.2933016909461460e-03  3.1865536297527739e+00 2.2444998359365007e+00 -6.0404239256467420e-03  3.1824059962658322e+00 2.3013702605700832e+00 6.5341859209339216e-03  3.1854690507373822e+00 2.3323234546861507e+00 -6.5809549118984872e-03  3.1822617261227686e+00 2.3862452701689083e+00 6.3154230093075562e-03  3.1831863401627989e+00 2.4234860509719964e+00 -6.0132917049917608e-03  3.1808866996062091e+00 2.4738891803544734e+00 5.7342067388194799e-03  3.1833420088734030e+00 2.5088443623587322e+00 -5.3101588348277501e-03  3.1782106108327959e+00 2.5640335317198812e+00 4.6625343433739945e-03  3.1817099373344973e+00 2.5979393953935173e+00 -3.6906682846892117e-03  3.1788674343386814e+00 2.6470128198571907e+00 2.6748496795353754e-03  3.1781637013923238e+00 2.6906544269537953e+00 -1.7359050357239998e-03  3.1777494598463680e+00 2.7335365476506093e+00 1.0396393613652944e-03  3.1783206048632451e+00 2.7752443365078658e+00 -5.6968584516129458e-04  3.1743618009553178e+00 2.8253394747460931e+00 3.0093158082160229e-04  3.1768582798392813e+00 2.8616472935158166e+00 -2.2748193707861750e-04  3.1746232584483902e+00 2.9103203162154601e+00 3.9002865438216055e-04  3.1731614493768370e+00 2.9528883758954279e+00 -7.4039068324732087e-04  3.1732989376115421e+00 2.9964958737892138e+00 1.2225109761714555e-03  3.1730103685721920e+00 3.0386616038234147e+00 -1.5172317384083563e-03  3.1697206279548276e+00 3.0863525881708167e+00 1.5411056637432115e-03  3.1716425278016507e+00 3.1258180242186029e+00 -1.0839249631280014e-03  3.1692210706534887e+00 3.1711501338760324e+00 4.0407161276959964e-04  3.1680689520926242e+00 3.2167190447777343e+00 4.3302801819268213e-04  3.1682374724988627e+00 3.2562531379112882e+00 -1.1389315455794763e-03  3.1664241809974563e+00 3.3039388311502829e+00 1.7181919700984911e-03  3.1656971615223495e+00 3.3449257353588755e+00 -2.0284719672458871e-03  3.1647302289319508e+00 3.3900007021683227e+00 2.1420643911588084e-03  3.1638981792284109e+00 3.4321479169933178e+00 -2.0433429516203052e-03  3.1625738531865109e+00 3.4779441153177268e+00 1.9139171596503266e-03  3.1618401181855282e+00 3.5186078953667814e+00 -1.7898940986310640e-03  3.1606098855784901e