<?xml version="1.0"?>
<VTKFile type="UnstructuredGrid"  version="0.1"  >
<UnstructuredGrid>
<Piece  NumberOfPoints="8241" NumberOfCells="16000">
<Points>
<DataArray  type="Float64"  NumberOfComponents="3"  format="ascii">-5 -1 0  -4.95 -1 0  -4.9 -1 0  -4.85 -1 0  -4.8 -1 0  -4.75 -1 0  -4.7 -1 0  -4.65 -1 0  -4.6 -1 0  -4.55 -1 0  -4.5 -1 0  -4.45 -1 0  -4.4 -1 0  -4.35 -1 0  -4.3 -1 0  -4.25 -1 0  -4.2 -1 0  -4.15 -1 0  -4.1 -1 0  -4.05 -1 0  -4 -1 0  -3.95 -1 0  -3.9 -1 0  -3.85 -1 0  -3.8 -1 0  -3.75 -1 0  -3.7 -1 0  -3.65 -1 0  -3.6 -1 0  -3.55 -1 0  -3.5 -1 0  -3.45 -1 0  -3.4 -1 0  -3.35 -1 0  -3.3 -1 0  -3.25 -1 0  -3.2 -1 0  -3.15 -1 0  -3.1 -1 0  -3.05 -1 0  -3 -1 0  -2.95 -1 0  -2.9 -1 0  -2.85 -1 0  -2.8 -1 0  -2.75 -1 0  -2.7 -1 0  -2.65 -1 0  -2.6 -1 0  -2.55 -1 0  -2.5 -1 0  -2.45 -1 0  -2.4 -1 0  -2.35 -1 0  -2.3 -1 0  -2.25 -1 0  -2.2 -1 0  -2.15 -1 0  -2.1 -1 0  -2.05 -1 0  -2 -1 0  -1.95 -1 0  -1.9 -1 0  -1.85 -1 0  -1.8 -1 0  -1.75 -1 0  -1.7 -1 0  -1.65 -1 0  -1.6 -1 0  -1.55 -1 0  -1.5 -1 0  -1.45 -1 0  -1.4 -1 0  -1.35 -1 0  -1.3 -1 0  -1.25 -1 0  -1.2 -1 0  -1.15 -1 0  -1.1 -1 0  -1.05 -1 0  -1 -1 0  -0.9500000000000002 -1 0  -0.9000000000000004 -1 0  -0.8499999999999996 -1 0  -0.7999999999999998 -1 0  -0.75 -1 0  -0.7000000000000002 -1 0  -0.6500000000000004 -1 0  -0.5999999999999996 -1 0  -0.5499999999999998 -1 0  -0.5 -1 0  -0.4500000000000002 -1 0  -0.4000000000000004 -1 0  -0.3499999999999996 -1 0  -0.2999999999999998 -1 0  -0.25 -1 0  -0.2000000000000002 -1 0  -0.1500000000000004 -1 0  -0.09999999999999964 -1 0  -0.04999999999999982 -1 0  0 -1 0  0.04999999999999982 -1 0  0.09999999999999964 -1 0  0.1500000000000004 -1 0  0.2000000000000002 -1 0  0.25 -1 0  0.2999999999999998 -1 0  0.3499999999999996 -1 0  0.4000000000000004 -1 0  0.4500000000000002 -1 0  0.5 -1 0  0.5499999999999998 -1 0  0.5999999999999996 -1 0  0.6500000000000004 -1 0  0.7000000000000002 -1 0  0.75 -1 0  0.7999999999999998 -1 0  0.8499999999999996 -1 0  0.9000000000000004 -1 0  0.9500000000000002 -1 0  1 -1 0  1.05 -1 0  1.1 -1 0  1.15 -1 0  1.2 -1 0  1.25 -1 0  1.3 -1 0  1.35 -1 0  1.4 -1 0  1.45 -1 0  1.5 -1 0  1.55 -1 0  1.6 -1 0  1.65 -1 0  1.7 -1 0  1.75 -1 0  1.8 -1 0  1.85 -1 0  1.9 -1 0  1.95 -1 0  2 -1 0  2.05 -1 0  2.1 -1 0  2.15 -1 0  2.2 -1 0  2.25 -1 0  2.3 -1 0  2.35 -1 0  2.4 -1 0  2.45 -1 0  2.5 -1 0  2.55 -1 0  2.6 -1 0  2.65 -1 0  2.7 -1 0  2.75 -1 0  2.8 -1 0  2.85 -1 0  2.9 -1 0  2.95 -1 0  3 -1 0  3.050000000000001 -1 0  3.1 -1 0  3.15 -1 0  3.199999999999999 -1 0  3.25 -1 0  3.300000000000001 -1 0  3.35 -1 0  3.4 -1 0  3.449999999999999 -1 0  3.5 -1 0  3.550000000000001 -1 0  3.6 -1 0  3.65 -1 0  3.699999999999999 -1 0  3.75 -1 0  3.800000000000001 -1 0  3.85 -1 0  3.9 -1 0  3.949999999999999 -1 0  4 -1 0  4.050000000000001 -1 0  4.1 -1 0  4.15 -1 0  4.199999999999999 -1 0  4.25 -1 0  4.300000000000001 -1 0  4.35 -1 0  4.4 -1 0  4.449999999999999 -1 0  4.5 -1 0  4.550000000000001 -1 0  4.6 -1 0  4.65 -1 0  4.699999999999999 -1 0  4.75 -1 0  4.800000000000001 -1 0  4.85 -1 0  4.9 -1 0  4.949999999999999 -1 0  5 -1 0  -5 -0.95 0  -4.95 -0.95 0  -4.9 -0.95 0  -4.85 -0.95 0  -4.8 -0.95 0  -4.75 -0.95 0  -4.7 -0.95 0  -4.65 -0.95 0  -4.6 -0.95 0  -4.55 -0.95 0  -4.5 -0.95 0  -4.45 -0.95 0  -4.4 -0.95 0  -4.35 -0.95 0  -4.3 -0.95 0  -4.25 -0.95 0  -4.2 -0.95 0  -4.15 -0.95 0  -4.1 -0.95 0  -4.05 -0.95 0  -4 -0.95 0  -3.95 -0.95 0  -3.9 -0.95 0  -3.85 -0.95 0  -3.8 -0.95 0  -3.75 -0.95 0  -3.7 -0.95 0  -3.65 -0.95 0  -3.6 -0.95 0  -3.55 -0.95 0  -3.5 -0.95 0  -3.45 -0.95 0  -3.4 -0.95 0  -3.35 -0.95 0  -3.3 -0.95 0  -3.25 -0.95 0  -3.2 -0.95 0  -3.15 -0.95 0  -3.1 -0.95 0  -3.05 -0.95 0  -3 -0.95 0  -2.95 -0.95 0  -2.9 -0.95 0  -2.85 -0.95 0  -2.8 -0.95 0  -2.75 -0.95 0  -2.7 -0.95 0  -2.65 -0.95 0  -2.6 -0.95 0  -2.55 -0.95 0  -2.5 -0.95 0  -2.45 -0.95 0  -2.4 -0.95 0  -2.35 -0.95 0  -2.3 -0.95 0  -2.25 -0.95 0  -2.2 -0.95 0  -2.15 -0.95 0  -2.1 -0.95 0  -2.05 -0.95 0  -2 -0.95 0  -1.95 -0.95 0  -1.9 -0.95 0  -1.85 -0.95 0  -1.8 -0.95 0  -1.75 -0.95 0  -1.7 -0.95 0  -1.65 -0.95 0  -1.6 -0.95 0  -1.55 -0.95 0  -1.5 -0.95 0  -1.45 -0.95 0  -1.4 -0.95 0  -1.35 -0.95 0  -1.3 -0.95 0  -1.25 -0.95 0  -1.2 -0.95 0  -1.15 -0.95 0  -1.1 -0.95 0  -1.05 -0.95 0  -1 -0.95 0  -0.9500000000000002 -0.95 0  -0.9000000000000004 -0.95 0  -0.8499999999999996 -0.95 0  -0.7999999999999998 -0.95 0  -0.75 -0.95 0  -0.7000000000000002 -0.95 0  -0.6500000000000004 -0.95 0  -0.5999999999999996 -0.95 0  -0.5499999999999998 -0.95 0  -0.5 -0.95 0  -0.4500000000000002 -0.95 0  -0.4000000000000004 -0.95 0  -0.3499999999999996 -0.95 0  -0.2999999999999998 -0.95 0  -0.25 -0.95 0  -0.2000000000000002 -0.95 0  -0.1500000000000004 -0.95 0  -0.09999999999999964 -0.95 0  -0.04999999999999982 -0.95 0  0 -0.95 0  0.04999999999999982 -0.95 0  0.09999999999999964 -0.95 0  0.1500000000000004 -0.95 0  0.2000000000000002 -0.95 0  0.25 -0.95 0  0.2999999999999998 -0.95 0  0.3499999999999996 -0.95 0  0.4000000000000004 -0.95 0  0.4500000000000002 -0.95 0  0.5 -0.95 0  0.5499999999999998 -0.95 0  0.5999999999999996 -0.95 0  0.6500000000000004 -0.95 0  0.7000000000000002 -0.95 0  0.75 -0.95 0  0.7999999999999998 -0.95 0  0.8499999999999996 -0.95 0  0.9000000000000004 -0.95 0  0.9500000000000002 -0.95 0  1 -0.95 0  1.05 -0.95 0  1.1 -0.95 0  1.15 -0.95 0  1.2 -0.95 0  1.25 -0.95 0  1.3 -0.95 0  1.35 -0.95 0  1.4 -0.95 0  1.45 -0.95 0  1.5 -0.95 0  1.55 -0.95 0  1.6 -0.95 0  1.65 -0.95 0  1.7 -0.95 0  1.75 -0.95 0  1.8 -0.95 0  1.85 -0.95 0  1.9 -0.95 0  1.95 -0.95 0  2 -0.95 0  2.05 -0.95 0  2.1 -0.95 0  2.15 -0.95 0  2.2 -0.95 0  2.25 -0.95 0  2.3 -0.95 0  2.35 -0.95 0  2.4 -0.95 0  2.45 -0.95 0  2.5 -0.95 0  2.55 -0.95 0  2.6 -0.95 0  2.65 -0.95 0  2.7 -0.95 0  2.75 -0.95 0  2.8 -0.95 0  2.85 -0.95 0  2.9 -0.95 0  2.95 -0.95 0  3 -0.95 0  3.050000000000001 -0.95 0  3.1 -0.95 0  3.15 -0.95 0  3.199999999999999 -0.95 0  3.25 -0.95 0  3.300000000000001 -0.95 0  3.35 -0.95 0  3.4 -0.95 0  3.449999999999999 -0.95 0  3.5 -0.95 0  3.550000000000001 -0.95 0  3.6 -0.95 0  3.65 -0.95 0  3.699999999999999 -0.95 0  3.75 -0.95 0  3.800000000000001 -0.95 0  3.85 -0.95 0  3.9 -0.95 0  3.949999999999999 -0.95 0  4 -0.95 0  4.050000000000001 -0.95 0  4.1 -0.95 0  4.15 -0.95 0  4.199999999999999 -0.95 0  4.25 -0.95 0  4.300000000000001 -0.95 0  4.35 -0.95 0  4.4 -0.95 0  4.449999999999999 -0.95 0  4.5 -0.95 0  4.550000000000001 -0.95 0  4.6 -0.95 0  4.65 -0.95 0  4.699999999999999 -0.95 0  4.75 -0.95 0  4.800000000000001 -0.95 0  4.85 -0.95 0  4.9 -0.95 0  4.949999999999999 -0.95 0  5 -0.95 0  -5 -0.9 0  -4.95 -0.9 0  -4.9 -0.9 0  -4.85 -0.9 0  -4.8 -0.9 0  -4.75 -0.9 0  -4.7 -0.9 0  -4.65 -0.9 0  -4.6 -0.9 0  -4.55 -0.9 0  -4.5 -0.9 0  -4.45 -0.9 0  -4.4 -0.9 0  -4.35 -0.9 0  -4.3 -0.9 0  -4.25 -0.9 0  -4.2 -0.9 0  -4.15 -0.9 0  -4.1 -0.9 0  -4.05 -0.9 0  -4 -0.9 0  -3.95 -0.9 0  -3.9 -0.9 0  -3.85 -0.9 0  -3.8 -0.9 0  -3.75 -0.9 0  -3.7 -0.9 0  -3.65 -0.9 0  -3.6 -0.9 0  -3.55 -0.9 0  -3.5 -0.9 0  -3.45 -0.9 0  -3.4 -0.9 0  -3.35 -0.9 0  -3.3 -0.9 0  -3.25 -0.9 0  -3.2 -0.9 0  -3.15 -0.9 0  -3.1 -0.9 0  -3.05 -0.9 0  -3 -0.9 0  -2.95 -0.9 0  -2.9 -0.9 0  -2.85 -0.9 0  -2.8 -0.9 0  -2.75 -0.9 0  -2.7 -0.9 0  -2.65 -0.9 0  -2.6 -0.9 0  -2.55 -0.9 0  -2.5 -0.9 0  -2.45 -0.9 0  -2.4 -0.9 0  -2.35 -0.9 0  -2.3 -0.9 0  -2.25 -0.9 0  -2.2 -0.9 0  -2.15 -0.9 0  -2.1 -0.9 0  -2.05 -0.9 0  -2 -0.9 0  -1.95 -0.9 0  -1.9 -0.9 0  -1.85 -0.9 0  -1.8 -0.9 0  -1.75 -0.9 0  -1.7 -0.9 0  -1.65 -0.9 0  -1.6 -0.9 0  -1.55 -0.9 0  -1.5 -0.9 0  -1.45 -0.9 0  -1.4 -0.9 0  -1.35 -0.9 0  -1.3 -0.9 0  -1.25 -0.9 0  -1.2 -0.9 0  -1.15 -0.9 0  -1.1 -0.9 0  -1.05 -0.9 0  -1 -0.9 0  -0.9500000000000002 -0.9 0  -0.9000000000000004 -0.9 0  -0.8499999999999996 -0.9 0  -0.7999999999999998 -0.9 0  -0.75 -0.9 0  -0.7000000000000002 -0.9 0  -0.6500000000000004 -0.9 0  -0.5999999999999996 -0.9 0  -0.5499999999999998 -0.9 0  -0.5 -0.9 0  -0.4500000000000002 -0.9 0  -0.4000000000000004 -0.9 0  -0.3499999999999996 -0.9 0  -0.2999999999999998 -0.9 0  -0.25 -0.9 0  -0.2000000000000002 -0.9 0  -0.1500000000000004 -0.9 0  -0.09999999999999964 -0.9 0  -0.04999999999999982 -0.9 0  0 -0.9 0  0.04999999999999982 -0.9 0  0.09999999999999964 -0.9 0  0.1500000000000004 -0.9 0  0.2000000000000002 -0.9 0  0.25 -0.9 0  0.2999999999999998 -0.9 0  0.3499999999999996 -0.9 0  0.4000000000000004 -0.9 0  0.4500000000000002 -0.9 0  0.5 -0.9 0  0.5499999999999998 -0.9 0  0.5999999999999996 -0.9 0  0.6500000000000004 -0.9 0  0.7000000000000002 -0.9 0  0.75 -0.9 0  0.7999999999999998 -0.9 0  0.8499999999999996 -0.9 0  0.9000000000000004 -0.9 0  0.9500000000000002 -0.9 0  1 -0.9 0  1.05 -0.9 0  1.1 -0.9 0  1.15 -0.9 0  1.2 -0.9 0  1.25 -0.9 0  1.3 -0.9 0  1.35 -0.9 0  1.4 -0.9 0  1.45 -0.9 0  1.5 -0.9 0  1.55 -0.9 0  1.6 -0.9 0  1.65 -0.9 0  1.7 -0.9 0  1.75 -0.9 0  1.8 -0.9 0  1.85 -0.9 0  1.9 -0.9 0  1.95 -0.9 0  2 -0.9 0  2.05 -0.9 0  2.1 -0.9 0  2.15 -0.9 0  2.2 -0.9 0  2.25 -0.9 0  2.3 -0.9 0  2.35 -0.9 0  2.4 -0.9 0  2.45 -0.9 0  2.5 -0.9 0  2.55 -0.9 0  2.6 -0.9 0  2.65 -0.9 0  2.7 -0.9 0  2.75 -0.9 0  2.8 -0.9 0  2.85 -0.9 0  2.9 -0.9 0  2.95 -0.9 0  3 -0.9 0  3.050000000000001 -0.9 0  3.1 -0.9 0  3.15 -0.9 0  3.199999999999999 -0.9 0  3.25 -0.9 0  3.300000000000001 -0.9 0  3.35 -0.9 0  3.4 -0.9 0  3.449999999999999 -0.9 0  3.5 -0.9 0  3.550000000000001 -0.9 0  3.6 -0.9 0  3.65 -0.9 0  3.699999999999999 -0.9 0  3.75 -0.9 0  3.800000000000001 -0.9 0  3.85 -0.9 0  3.9 -0.9 0  3.949999999999999 -0.9 0  4 -0.9 0  4.050000000000001 -0.9 0  4.1 -0.9 0  4.15 -0.9 0  4.199999999999999 -0.9 0  4.25 -0.9 0  4.300000000000001 -0.9 0  4.35 -0.9 0  4.4 -0.9 0  4.449999999999999 -0.9 0  4.5 -0.9 0  4.550000000000001 -0.9 0  4.6 -0.9 0  4.65 -0.9 0  4.699999999999999 -0.9 0  4.75 -0.9 0  4.800000000000001 -0.9 0  4.85 -0.9 0  4.9 -0.9 0  4.949999999999999 -0.9 0  5 -0.9 0  -5 -0.85 0  -4.95 -0.85 0  -4.9 -0.85 0  -4.85 -0.85 0  -4.8 -0.85 0  -4.75 -0.85 0  -4.7 -0.85 0  -4.65 -0.85 0  -4.6 -0.85 0  -4.55 -0.85 0  -4.5 -0.85 0  -
[...]
<PointData  Vectors="f_15"> 
<DataArray  type="Float64"  Name="f_15"  NumberOfComponents="3" format="ascii">3.3395521281045490e+00 0.0000000000000000e+00 0.0000000000000000e+00  3.3445161259925009e+00 6.9629160586070979e-02 0.0000000000000000e+00  3.3401795874356432e+00 7.9974220167158994e-02 0.0000000000000000e+00  3.3437309622316160e+00 1.4277690590306616e-01 0.0000000000000000e+00  3.3398645368014939e+00 1.7918626770869944e-01 0.0000000000000000e+00  3.3444903448010010e+00 2.2976660277774610e-01 0.0000000000000000e+00  3.3391382356107759e+00 2.7291861033756482e-01 0.0000000000000000e+00  3.3439263038096239e+00 3.2027277546155153e-01 0.0000000000000000e+00  3.3400488871263465e+00 3.6718030692588899e-01 0.0000000000000000e+00  3.3428769371319387e+00 4.0954949798467954e-01 0.0000000000000000e+00  3.3398168283890088e+00 4.6139952333364553e-01 0.0000000000000000e+00  3.3432323333569718e+00 5.0075387717894493e-01 0.0000000000000000e+00  3.3391588149753528e+00 5.5145866640945573e-01 0.0000000000000000e+00  3.3425878808632916e+00 5.9688177445825485e-01 0.0000000000000000e+00  3.3396751027205611e+00 6.3887406579738204e-01 0.0000000000000000e+00  3.3415222655796164e+00 6.9174646429601638e-01 0.0000000000000000e+00  3.3394526970527774e+00 7.2979666600772608e-01 0.0000000000000000e+00  3.3413390445591760e+00 7.8440079537920537e-01 0.0000000000000000e+00  3.3388461028128407e+00 8.1879308349252866e-01 0.0000000000000000e+00  3.3406698017487937e+00 8.8241015125682298e-01 0.0000000000000000e+00  3.3387741506179553e+00 9.0388065220773761e-01 0.0000000000000000e+00  3.3397204912762981e+00 9.7578911683204561e-01 0.0000000000000000e+00  3.3383384432665100e+00 1.0041288540506832e+00 0.0000000000000000e+00  3.3391796095874042e+00 1.0512232953829923e+00 0.0000000000000000e+00  3.3375170751633649e+00 1.1104611420439294e+00 0.0000000000000000e+00  3.3386142254881985e+00 1.1415608397327792e+00 0.0000000000000000e+00  3.3366832400592741e+00 1.1872823479104695e+00 0.0000000000000000e+00  3.3379863581688127e+00 1.2555862722725806e+00 0.0000000000000000e+00  3.3356023376197754e+00 1.2641303062388025e+00 0.0000000000000000e+00  3.3375731385903751e+00 1.3463175458887806e+00 0.0000000000000000e+00  3.3342471526624631e+00 1.3669606869556894e+00 0.0000000000000000e+00  3.3370401545146748e+00 1.4308007217238152e+00 0.0000000000000000e+00  3.3331800824519227e+00 1.4525522861267568e+00 0.0000000000000000e+00  3.3360466628036467e+00 1.5360762981560723e+00 0.0000000000000000e+00  3.3321152369392211e+00 1.5381242514069753e+00 0.0000000000000000e+00  3.3354389698456623e+00 1.6148819775462344e+00 0.0000000000000000e+00  3.3303468191426644e+00 1.6575930420666865e+00 0.0000000000000000e+00  3.3350237029893020e+00 1.6802877043455404e+00 0.0000000000000000e+00  3.3290512391196332e+00 1.7574331215658456e+00 0.0000000000000000e+00  3.3335500181025410e+00 1.7839310676954008e+00 0.0000000000000000e+00  3.3284261395412011e+00 1.8293769296885536e+00 0.0000000000000000e+00  3.3323362873952664e+00 1.8862786016932469e+00 0.0000000000000000e+00  3.3265561505029790e+00 1.9271859022728666e+00 0.0000000000000000e+00  3.3321373295372054e+00 1.9618400944472956e+00 0.0000000000000000e+00  3.3248683247784840e+00 2.0309580423229758e+00 0.0000000000000000e+00  3.3302789954770651e+00 2.0538730011052149e+00 0.0000000000000000e+00  3.3249282916903780e+00 2.1125223276690899e+00 0.0000000000000000e+00  3.3281465342112866e+00 2.1540818475947598e+00 0.0000000000000000e+00  3.3231645233725220e+00 2.2050188513091222e+00 0.0000000000000000e+00  3.3283148240179603e+00 2.2368385987246246e+00 0.0000000000000000e+00  3.3208089668732219e+00 2.3048880801788267e+00 0.0000000000000000e+00  3.3263299436836169e+00 2.3285267330617998e+00 0.0000000000000000e+00  3.3215419672261630e+00 2.3886570893794894e+00 0.0000000000000000e+00  3.3231845674895353e+00 2.4291373085203203e+00 0.0000000000000000e+00  3.3200677350141699e+00 2.4772518723146830e+00 0.0000000000000000e+00  3.3235946367925777e+00 2.5174446964390880e+00 0.0000000000000000e+00  3.3171045998516697e+00 2.5734598546460514e+00 0.0000000000000000e+00  3.3216341864823020e+00 2.6090479352345568e+00 0.0000000000000000e+00  3.3182125358963366e+00 2.6601936933392287e+00 0.0000000000000000e+00  3.3176850776934601e+00 2.7061805574803928e+00 0.0000000000000000e+00  3.3172036785724117e+00 2.7510155236294280e+00 0.0000000000000000e+00  3.3177478507163509e+00 2.7937762806144764e+00 0.0000000000000000e+00  3.3140830658825089e+00 2.8480033186829830e+00 0.0000000000000000e+00  3.3160144929884283e+00 2.8836304196865137e+00 0.0000000000000000e+00  3.3145145565162046e+00 2.9372150330149371e+00 0.0000000000000000e+00  3.3124212101469528e+00 2.9795133926896247e+00 0.0000000000000000e+00  3.3133811244433331e+00 3.0260823004982691e+00 0.0000000000000000e+00  3.3117983371038413e+00 3.0718187837829500e+00 0.0000000000000000e+00  3.3106819407064689e+00 3.1172732498492897e+00 0.0000000000000000e+00  3.3100298667372483e+00 3.1654227714139842e+00 0.0000000000000000e+00  3.3100174469930210e+00 3.2052714787057273e+00 0.0000000000000000e+00  3.3072672672599839e+00 3.2602708941465011e+00 0.0000000000000000e+00  3.3085550123885645e+00 3.2955280403291725e+00 0.0000000000000000e+00  3.3055361284570202e+00 3.3505486508832489e+00 0.0000000000000000e+00  3.3068360725514201e+00 3.3898666104786557e+00 0.0000000000000000e+00  3.3032513640792129e+00 3.4384171152630079e+00 0.0000000000000000e+00  3.3050534619206937e+00 3.4845323059790978e+00 0.0000000000000000e+00  3.3018234981702430e+00 3.5273683336280470e+00 0.0000000000000000e+00  3.3021596857951261e+00 3.5767307602844109e+00 0.0000000000000000e+00  3.3002916065689134e+00 3.6189922734683759e+00 0.0000000000000000e+00  3.3001906160332468e+00 3.6671837356711503e+00 0.0000000000000000e+00  3.2979874972689589e+00 3.7100331811647700e+00 0.0000000000000000e+00  3.2975491080552333e+00 3.7593976036999290e+00 0.0000000000000000e+00  3.2969503243016809e+00 3.7997286749496295e+00 0.0000000000000000e+00  3.2943360508351986e+00 3.8507485356994522e+00 0.0000000000000000e+00  3.2946743538576806e+00 3.8913453781258891e+00 0.0000000000000000e+00  3.2929238536043397e+00 3.9406003851805980e+00 0.0000000000000000e+00  3.2915902153927457e+00 3.9823538823206821e+00 0.0000000000000000e+00  3.2902378699478003e+00 4.0321177354478577e+00 0.0000000000000000e+00  3.2902167031475624e+00 4.0721082222295015e+00 0.0000000000000000e+00  3.2871556566712328e+00 4.1226807705652844e+00 0.0000000000000000e+00  3.2873981993039196e+00 4.1635386914228105e+00 0.0000000000000000e+00  3.2852378441648162e+00 4.2123786500323828e+00 0.0000000000000000e+00  3.2850882394805696e+00 4.2538947984569768e+00 0.0000000000000000e+00  3.2809872001421345e+00 4.3036720853515318e+00 0.0000000000000000e+00  3.2854822565499693e+00 4.3417680014893243e+00 0.0000000000000000e+00  3.2746355738653383e+00 4.3979757347293784e+00 0.0000000000000000e+00  3.2862782005048490e+00 4.4266741303207677e+00 0.0000000000000000e+00  3.2693438093261502e+00 4.4927218467400083e+00 0.0000000000000000e+00  3.2850494661938852e+00 4.5136061283283082e+00 0.0000000000000000e+00  3.2660602405215022e+00 4.5835958654600040e+00 0.0000000000000000e+00  3.2813813342111162e+00 4.6047561371164170e+00 0.0000000000000000e+00  3.2647685124587031e+00 4.6703825712109683e+00 0.0000000000000000e+00  3.2756265153568660e+00 4.6998731700800613e+00 0.0000000000000000e+00  3.2622309118414230e+00 4.7553178914207415e+00 0.0000000000000000e+00  3.2708575026912907e+00 4.7972942417942424e+00 0.0000000000000000e+00  3.2559059213958181e+00 4.8389135818332578e+00 0.0000000000000000e+00  3.2678729291625941e+00 4.8993393479654532e+00 0.0000000000000000e+00  3.2444236001568219e+00 4.9141301080533255e+00 0.0000000000000000e+00  3.2759008625836774e+00 5.0172372077156622e+00 0.0000000000000000e+00  3.2201844972455049e+00 4.9502436301143584e+00 0.0000000000000000e+00  3.2959140273988288e+00 5.2035940359189956e+00 0.0000000000000000e+00  3.2567451424806690e+00 4.8065730115765302e+00 0.0000000000000000e+00  3.0768236348916722e+00 5.8143286955624651e+00 0.0000000000000000e+00  5.3063826120127704e+00 1.5796737904224698e+00 0.0000000000000000e+00  7.3416187555930472e+00 -9.0099540227677155e-01 0.0000000000000000e+00  7.9171606338942313e+00 -1.4856370964406407e+00 0.0000000000000000e+00  7.9716437872651191e+00 -1.5388185151928762e+00 0.0000000000000000e+00  8.0162028434388617e+00 -1.5344290991859242e+00 0.0000000000000000e+00  8.0505029374519612e+00 -1.5192909893219473e+00 0.0000000000000000e+00  8.0829244826131852e+00 -1.5063643167958998e+00 0.0000000000000000e+00  8.1031662096835309e+00 -1.4786821897666480e+00 0.0000000000000000e+00  8.1280680795371296e+00 -1.4546460459834605e+00 0.0000000000000000e+00  8.1475538401160001e+00 -1.4270129476255127e+00 0.0000000000000000e+00  8.1745063073893363e+00 -1.4057416861208183e+00 0.0000000000000000e+00  8.1952249272806146e+00 -1.3793290734875157e+00 0.0000000000000000e+00  8.2209006624775967e+00 -1.3571371834828028e+00 0.0000000000000000e+00  8.2405044697881280e+00 -1.3299198956860623e+00 0.0000000000000000e+00  8.2666530095015656e+00 -1.3090654503181878e+00 0.0000000000000000e+00  8.2872994626236771e+00 -1.2816817766113808e+00 0.0000000000000000e+00  8.3115345102074247e+00 -1.2612515949842142e+00 0.0000000000000000e+00  8.3335873539096923e+00 -1.2344343925570715e+00 0.0000000000000000e+00  8.3568184096777927e+00 -1.2140780194183112e+00 0.0000000000000000e+00  8.3790220943736831e+00 -1.1861947769692123e+00 0.0000000000000000e+00  8.4020637035117840e+00 -1.1664109531594973e+00 0.0000000000000000e+00  8.4246276383308416e+00 -1.1395806443963445e+00 0.0000000000000000e+00  8.4464936293826582e+00 -1.1215093331213914e+00 0.0000000000000000e+00  8.4699602757977530e+00 -1.0921779309571773e+00 0.0000000000000000e+00  8.4911929628489240e+00 -1.0747910666439513e+00 0.0000000000000000e+00  8.5143430745228290e+00 -1.0442899862292969e+00 0.0000000000000000e+00  8.5358083881411755e+00 -1.0285045014430965e+00 0.0000000000000000e+00  8.5586092163583292e+00 -9.9796103281712500e-01 0.0000000000000000e+00  8.5797253437145571e+00 -9.8321765344831302e-01 0.0000000000000000e+00  8.6024978480812173e+00 -9.5298010104697395e-01 0.0000000000000000e+00  8.6236212425323266e+00 -9.3777204936751257e-01 0.0000000000000000e+00  8.6456135454483771e+00 -9.0848338043408683e-01 0.0000000000000000e+00  8.6670354813054971e+00 -8.9173982729774504e-01 0.0000000000000000e+00  8.6886854506817048e+00 -8.6419818465764786e-01 0.0000000000000000e+00  8.7096423882826031e+00 -8.4537782707698894e-01 0.0000000000000000e+00  8.7311690814136522e+00 -8.2108758135435955e-01 0.0000000000000000e+00  8.7521201306946566e+00 -7.9867379102170766e-01 0.0000000000000000e+00  8.7728786544637494e+00 -7.8013168554847512e-01 0.0000000000000000e+00  8.7938041661852697e+00 -7.5239718846955539e-01 0.0000000000000000e+00  8.8144588301363900e+00 -7.4033831145536166e-01 0.0000000000000000e+00  8.8346446241844578e+00 -7.0782367179634220e-01 0.0000000000000000e+00  8.8551248488958514e+00 -7.0049165330109509e-01 0.0000000000000000e+00  8.8752760536510653e+00 -6.6502996641840351e-01 0.0000000000000000e+00  8.8948904094046899e+00 -6.6011720701750964e-01 0.0000000000000000e+00  8.9148826505619763e+00 -6.2337121903563297e-01 0.0000000000000000e+00  8.9343237349720148e+00 -6.2012321939977155e-01 0.0000000000000000e+00  8.9535273934889190e+00 -5.8256141319715748e-01 0.0000000000000000e+00  8.9726110974414492e+00 -5.8069520396644547e-01 0.0000000000000000e+00  8.9917102801688742e+00 -5.4451573205441517e-01 0.0000000000000000e+00  9.0098279928109530e+00 -5.4055467206340313e-01 0.0000000000000000e+00  9.0286609074007398e+00 -5.1045499127848415e-01 0.0000000000000000e+00  9.0464167227394299e+00 -5.0049041181994747e-01 0.0000000000000000e+00  9.0644198995047560e+00 -4.7771190362234178e-01 0.0000000000000000e+00  9.0816889119697244e+00 -4.6207833267728077e-01 0.0000000000000000e+00  9.0993666304338152e+00 -4.4483723023980654e-01 0.0000000000000000e+00  9.1156290455881699e+00 -4.2619994014799556e-01 0.0000000000000000e+00  9.1329023853443729e+00 -4.1140607541245283e-01 0.0000000000000000e+00  9.1485541229782879e+00 -3.9226851492301390e-01 0.0000000000000000e+00  9.1649558457182589e+00 -3.7895626904284624e-01 0.0000000000000000e+00  9.1799495849925936e+00 -3.6218822685675489e-01 0.0000000000000000e+00  9.1957755208345731e+00 -3.4846495220543805e-01 0.0000000000000000e+00  9.2097114354498331e+00 -3.3475604269763842e-01 0.0000000000000000e+00  9.2249204447999311e+00 -3.2026788198677880e-01 0.0000000000000000e+00  9.2380356332246105e+00 -3.1117900771801688e-01 0.0000000000000000e+00  9.2522596701184519e+00 -2.9492298195803474e-01 0.0000000000000000e+00  9.2645209767997088e+00 -2.8969265554981849e-01 0.0000000000000000e+00  9.2779494441891828e+00 -2.7119072062655053e-01 0.0000000000000000e+00  9.2890430769807377e+00 -2.6882405580856761e-01 0.0000000000000000e+00  9.3016223914657754e+00 -2.4782318658330429e-01 0.0000000000000000e+00  9.3117057807603434e+00 -2.4581671496503882e-01 0.0000000000000000e+00  9.3231865402151026e+00 -2.2402828729632768e-01 0.0000000000000000e+00  9.3321515726459676e+00 -2.2957340537581217e-01 0.0000000000000000e+00  9.3426377865920927e+00 -2.1112810500519943e-01 0.0000000000000000e+00  9.3503066461195612e+00 -2.1684219585779654e-01 0.0000000000000000e+00  9.3597225994887179e+00 -1.9924147066935485e-01 0.0000000000000000e+00  9.3661760516973800e+00 -2.0370567769948988e-01 0.0000000000000000e+00  9.3743897468249013e+00 -1.8208402943856583e-01 0.0000000000000000e+00  9.3795297965467004e+00 -1.8594650836279006e-01 0.0000000000000000e+00  9.3865858242166649e+00 -1.5656014910281218e-01 0.0000000000000000e+00  9.3903890448154943e+00 -1.5352275615450056e-01 0.0000000000000000e+00  9.3960993847947183e+00 -1.3780179029593678e-01 0.0000000000000000e+00  9.3985770204634420e+00 -1.2031576298824675e-01 0.0000000000000000e+00  9.4029324062673627e+00 -1.1879224344968960e-01 0.0000000000000000e+00  9.4040089430824629e+00 -9.1136868321991249e-02 0.0000000000000000e+00  9.4070368689927868e+00 -1.1309418111698989e-01 0.0000000000000000e+00  9.4068380414404036e+00 -2.9186895317379027e-02 0.0000000000000000e+00  9.4087466013030276e+00 0.0000000000000000e+00 0.0000000000000000e+00  3.3457490949666129e+00 0.0000000000000000e+00 -6.8804565673589906e-03  3.3453461596026668e+00 3.7549008639800770e-02 -8.6008631008715510e-03  3.3449128946713724e+00 9.9270483332715417e-02 1.3833391115664366e-02  3.3453024234297404e+00 1.3786459277647062e-01 -1.8805722310876118e-03  3.3458262316554244e+00 1.8390069197156680e-01 -3.1538409402260522e-03  3.3445440991308342e+00 2.3509623089562062e-01 5.7538924642095137e-03  3.3454599072427702e+00 2.7435710380279532e-01 -6.3017502384778738e-03  3.3453273123754386e+00 3.2729813284514364e-01 6.9050476306813059e-03  3.3446560613462744e+00 3.6597817908591840e-01 -8.5642180219018815e-03  3.3447868884173531e+00 4.2009925287727951e-01 1.1458118810812816e-02  3.3453941273345227e+00 4.5609829564554671e-01 -1.4965308970276234e-02  3.3437515823556034e+00 5.1443107493751650e-01 1.8250463597460239e-02  3.3450136052698700e+00 5.4556944175746769e-01 -1.9709986490456074e-02  3.3441046206016622e+00 6.0804920925894057e-01 1.8811793297106895e-02  3.3440450465297014e+00 6.3655996665289716e-01 -1.5604945078582965e-02  3.3438037878158489e+00 6.9991317960615596e-01 1.0924641199163908e-02  3.3439249561720903e+00 7.3065236489974406e-01 -5.4949437776519033e-03  3.3432188771937108e+00 7.8625516099015436e-01 5.9186735458051809e-04  3.3432087733278104e+00 8.3106520787397264e-01 3.0460540822170022e-03  3.3432927254607625e+00 8.7001880060392767e-01 -5.2791138769422716e-03  3.3422626583950996e+00 9.2664296108019972e-01 6.9804284991600652e-03  3.3429183805907376e+00 9.6524294423809354e-01 -8.3225096463051332e-03  3.3418847641496936e+00 1.0108779724311139e+00 9.0013315895865476e-03  3.3421176688334975e+00 1.0628921955002499e+00 -7.9521289792369304e-03  3.3415684757393085e+00 1.1056848548185501e+00 5.0336775005553665e-03  3.3413242185991976e+00 1.1437080253520207e+00 -9.3728523430833678e-04  3.3411892958035332e+00 1.2094113163167031e+00 -2.5169740475518500e-03  3.3404796507501673e+00 1.2338281324620808e+00 4.1798112344393866e-03  3.3407688250191403e+00 1.2904354503161235e+00 -3.7968762214509906e-03  3.3396878581582055e+00 1.3420717850013957e+00 2.7345178596216691e-03  3.3401052061746204e+00 1.3741612077218626e+00 -2.2255563529007070e-03  3.3391156219813625e+00 1.4283130745972628e+00 3.1027445663023975e-03  3.3392534435316930e+00 1.4794899456279851e+00 -4.7968389922410735e-03  3.3383323198819430e+00 1.5144735111866929e+00 6.7466609820757235e-03  3.3388359124665898e+00 1.5612903093012815e+00 -8.0073781802410208e-03  3.3370192274212545e+00 1.6276504025353333e+00 8.4586384323155801e-03  3.3383234432550632e+00 1.6370755489674238e+00 -7.9814748048349250e-03  3.3364186946311687e+00 1.7180933130206686e+00 6.9267425600874500e-03  3.3366369322910332e+00 1.7477616008682668e+00 -5.2508353029367769e-03  3.3364171211260576e+00 1.7880919081079016e+00 3.5894987171050862e-03  3.3353096928487451e+00 1.8496401740707755e+00 -2.4567567407099600e-03  3.3350529677700531e+00 1.8872155915942868e+00 2.0334586699459578e-03  3.3350207067403259e+00 1.9258261817028342e+00 -2.2935717942160834e-03  3.3337704606709702e+00 1.9893508191745406e+00 2.3746755768606939e-03  3.3331683634372844e+00 2.0210188981665658e+00 -1.6985741152812732e-03  3.3340322874745376e+00 2.0683874072941264e+00 4.7818019932272996e-04  3.3311087659630241e+00 2.1237991529543478e+00 7.0633197544794739e-04  3.3324149892579031e+00 2.1595899376024388e+00 -8.7577366238239204e-04  3.3312951180572870e+00 2.2071468349982148e+00 1.5362535287946331e-04  3.3300616705767800e+00 2.2598315382109093e+00 8.0708994826727784e-04  3.3294918748605524e+00 2.2981446623935851e+00 -1.1621523854356518e-03  3.3305163974459298e+00 2.3443049026448843e+00 7.0116107023107991e-04  3.3265455835780195e+00 2.3978607513633552e+00 6.9695729047288620e-05  3.3288155373658634e+00 2.4339131384313886e+00 -6.0268066316455232e-04  3.3269406366445731e+00 2.4845170051455447e+00 7.3675105985201539e-04  3.3256196565528509e+00 2.5315697887251511e+00 -7.4056768777910930e-04  3.3249900840967217e+00 2.5747573139983744e+00 1.1025605465649190e-03  3.3263193356554930e+00 2.6183278532555700e+00 -1.7921644405898183e-03  3.3210765336838772e+00 2.6720373641499182e+00 2.6730023737143701e-03  3.3247890549121975e+00 2.7079159728164206e+00 -3.3040063889250978e-03  3.3212232421836307e+00 2.7600212365379067e+00 3.5761390411871929e-03  3.3210146237836682e+00 2.8036478564669780e+00 -3.5316780038886246e-03  3.3195097390627830e+00 2.8501821708395489e+00 3.3537261741061856e-03  3.3208977288676711e+00 2.8916671133344805e+00 -3.1366092278930736e-03  3.3158065375840167e+00 2.9456123942382506e+00 2.9384653950443262e-03  3.3190729076408449e+00 2.9810658415865925e+00 -2.6521356951992809e-03  3.3153367613111717e+00 3.0351448592352424e+00 2.4025188717546071e-03  3.3154981163838215e+00 3.0747027110616068e+00 -2.1032218449452012e-03  3.3135547904298437e+00 3.1251803935126596e+00 2.0025161972742271e-03  3.3143402786630971e+00 3.1646796972292757e+00 -1.9551736234657232e-03  3.3105357815233689e+00 3.2176119080029775e+00 2.0439771337380465e-03  3.3122014432076043e+00 3.2555899857196335e+00 -1.9457743547464054e-03  3.3090816499875499e+00 3.3067966790080359e+00 1.5962407992581877e-03  3.3093325709923382e+00 3.3492580838609167e+00 -8.0641326967733468e-04  3.3072155808508610e+00 3.3948603189200099e+00 -2.8248186540623756e-04  3.3066956562628707e+00 3.4425317347091235e+00 1.5264409476713771e-03  3.3058233120334370e+00 3.4839296437582412e+00 -2.6106376901189432e-03  3.3033269860963275e+00 3.5342040236932637e+00 3.3765805426221309e-03  3.3040804370383823e+00 3.5749080761190459e+00 -3.6749288082453726e-03  3.3012470374545000e+00 3.6243845544247852e+00 3.6522641666936850e-03  3.3011136113116528e+00 3.6659034409313880e+00 -3.4030465177666445e-03  3.2990500950561468e+00 3.7