<?xml version="1.0"?>
<VTKFile type="UnstructuredGrid"  version="0.1"  >
<UnstructuredGrid>
<Piece  NumberOfPoints="8241" NumberOfCells="16000">
<Points>
<DataArray  type="Float64"  NumberOfComponents="3"  format="ascii">-5 -1 0  -4.95 -1 0  -4.9 -1 0  -4.85 -1 0  -4.8 -1 0  -4.75 -1 0  -4.7 -1 0  -4.65 -1 0  -4.6 -1 0  -4.55 -1 0  -4.5 -1 0  -4.45 -1 0  -4.4 -1 0  -4.35 -1 0  -4.3 -1 0  -4.25 -1 0  -4.2 -1 0  -4.15 -1 0  -4.1 -1 0  -4.05 -1 0  -4 -1 0  -3.95 -1 0  -3.9 -1 0  -3.85 -1 0  -3.8 -1 0  -3.75 -1 0  -3.7 -1 0  -3.65 -1 0  -3.6 -1 0  -3.55 -1 0  -3.5 -1 0  -3.45 -1 0  -3.4 -1 0  -3.35 -1 0  -3.3 -1 0  -3.25 -1 0  -3.2 -1 0  -3.15 -1 0  -3.1 -1 0  -3.05 -1 0  -3 -1 0  -2.95 -1 0  -2.9 -1 0  -2.85 -1 0  -2.8 -1 0  -2.75 -1 0  -2.7 -1 0  -2.65 -1 0  -2.6 -1 0  -2.55 -1 0  -2.5 -1 0  -2.45 -1 0  -2.4 -1 0  -2.35 -1 0  -2.3 -1 0  -2.25 -1 0  -2.2 -1 0  -2.15 -1 0  -2.1 -1 0  -2.05 -1 0  -2 -1 0  -1.95 -1 0  -1.9 -1 0  -1.85 -1 0  -1.8 -1 0  -1.75 -1 0  -1.7 -1 0  -1.65 -1 0  -1.6 -1 0  -1.55 -1 0  -1.5 -1 0  -1.45 -1 0  -1.4 -1 0  -1.35 -1 0  -1.3 -1 0  -1.25 -1 0  -1.2 -1 0  -1.15 -1 0  -1.1 -1 0  -1.05 -1 0  -1 -1 0  -0.9500000000000002 -1 0  -0.9000000000000004 -1 0  -0.8499999999999996 -1 0  -0.7999999999999998 -1 0  -0.75 -1 0  -0.7000000000000002 -1 0  -0.6500000000000004 -1 0  -0.5999999999999996 -1 0  -0.5499999999999998 -1 0  -0.5 -1 0  -0.4500000000000002 -1 0  -0.4000000000000004 -1 0  -0.3499999999999996 -1 0  -0.2999999999999998 -1 0  -0.25 -1 0  -0.2000000000000002 -1 0  -0.1500000000000004 -1 0  -0.09999999999999964 -1 0  -0.04999999999999982 -1 0  0 -1 0  0.04999999999999982 -1 0  0.09999999999999964 -1 0  0.1500000000000004 -1 0  0.2000000000000002 -1 0  0.25 -1 0  0.2999999999999998 -1 0  0.3499999999999996 -1 0  0.4000000000000004 -1 0  0.4500000000000002 -1 0  0.5 -1 0  0.5499999999999998 -1 0  0.5999999999999996 -1 0  0.6500000000000004 -1 0  0.7000000000000002 -1 0  0.75 -1 0  0.7999999999999998 -1 0  0.8499999999999996 -1 0  0.9000000000000004 -1 0  0.9500000000000002 -1 0  1 -1 0  1.05 -1 0  1.1 -1 0  1.15 -1 0  1.2 -1 0  1.25 -1 0  1.3 -1 0  1.35 -1 0  1.4 -1 0  1.45 -1 0  1.5 -1 0  1.55 -1 0  1.6 -1 0  1.65 -1 0  1.7 -1 0  1.75 -1 0  1.8 -1 0  1.85 -1 0  1.9 -1 0  1.95 -1 0  2 -1 0  2.05 -1 0  2.1 -1 0  2.15 -1 0  2.2 -1 0  2.25 -1 0  2.3 -1 0  2.35 -1 0  2.4 -1 0  2.45 -1 0  2.5 -1 0  2.55 -1 0  2.6 -1 0  2.65 -1 0  2.7 -1 0  2.75 -1 0  2.8 -1 0  2.85 -1 0  2.9 -1 0  2.95 -1 0  3 -1 0  3.050000000000001 -1 0  3.1 -1 0  3.15 -1 0  3.199999999999999 -1 0  3.25 -1 0  3.300000000000001 -1 0  3.35 -1 0  3.4 -1 0  3.449999999999999 -1 0  3.5 -1 0  3.550000000000001 -1 0  3.6 -1 0  3.65 -1 0  3.699999999999999 -1 0  3.75 -1 0  3.800000000000001 -1 0  3.85 -1 0  3.9 -1 0  3.949999999999999 -1 0  4 -1 0  4.050000000000001 -1 0  4.1 -1 0  4.15 -1 0  4.199999999999999 -1 0  4.25 -1 0  4.300000000000001 -1 0  4.35 -1 0  4.4 -1 0  4.449999999999999 -1 0  4.5 -1 0  4.550000000000001 -1 0  4.6 -1 0  4.65 -1 0  4.699999999999999 -1 0  4.75 -1 0  4.800000000000001 -1 0  4.85 -1 0  4.9 -1 0  4.949999999999999 -1 0  5 -1 0  -5 -0.95 0  -4.95 -0.95 0  -4.9 -0.95 0  -4.85 -0.95 0  -4.8 -0.95 0  -4.75 -0.95 0  -4.7 -0.95 0  -4.65 -0.95 0  -4.6 -0.95 0  -4.55 -0.95 0  -4.5 -0.95 0  -4.45 -0.95 0  -4.4 -0.95 0  -4.35 -0.95 0  -4.3 -0.95 0  -4.25 -0.95 0  -4.2 -0.95 0  -4.15 -0.95 0  -4.1 -0.95 0  -4.05 -0.95 0  -4 -0.95 0  -3.95 -0.95 0  -3.9 -0.95 0  -3.85 -0.95 0  -3.8 -0.95 0  -3.75 -0.95 0  -3.7 -0.95 0  -3.65 -0.95 0  -3.6 -0.95 0  -3.55 -0.95 0  -3.5 -0.95 0  -3.45 -0.95 0  -3.4 -0.95 0  -3.35 -0.95 0  -3.3 -0.95 0  -3.25 -0.95 0  -3.2 -0.95 0  -3.15 -0.95 0  -3.1 -0.95 0  -3.05 -0.95 0  -3 -0.95 0  -2.95 -0.95 0  -2.9 -0.95 0  -2.85 -0.95 0  -2.8 -0.95 0  -2.75 -0.95 0  -2.7 -0.95 0  -2.65 -0.95 0  -2.6 -0.95 0  -2.55 -0.95 0  -2.5 -0.95 0  -2.45 -0.95 0  -2.4 -0.95 0  -2.35 -0.95 0  -2.3 -0.95 0  -2.25 -0.95 0  -2.2 -0.95 0  -2.15 -0.95 0  -2.1 -0.95 0  -2.05 -0.95 0  -2 -0.95 0  -1.95 -0.95 0  -1.9 -0.95 0  -1.85 -0.95 0  -1.8 -0.95 0  -1.75 -0.95 0  -1.7 -0.95 0  -1.65 -0.95 0  -1.6 -0.95 0  -1.55 -0.95 0  -1.5 -0.95 0  -1.45 -0.95 0  -1.4 -0.95 0  -1.35 -0.95 0  -1.3 -0.95 0  -1.25 -0.95 0  -1.2 -0.95 0  -1.15 -0.95 0  -1.1 -0.95 0  -1.05 -0.95 0  -1 -0.95 0  -0.9500000000000002 -0.95 0  -0.9000000000000004 -0.95 0  -0.8499999999999996 -0.95 0  -0.7999999999999998 -0.95 0  -0.75 -0.95 0  -0.7000000000000002 -0.95 0  -0.6500000000000004 -0.95 0  -0.5999999999999996 -0.95 0  -0.5499999999999998 -0.95 0  -0.5 -0.95 0  -0.4500000000000002 -0.95 0  -0.4000000000000004 -0.95 0  -0.3499999999999996 -0.95 0  -0.2999999999999998 -0.95 0  -0.25 -0.95 0  -0.2000000000000002 -0.95 0  -0.1500000000000004 -0.95 0  -0.09999999999999964 -0.95 0  -0.04999999999999982 -0.95 0  0 -0.95 0  0.04999999999999982 -0.95 0  0.09999999999999964 -0.95 0  0.1500000000000004 -0.95 0  0.2000000000000002 -0.95 0  0.25 -0.95 0  0.2999999999999998 -0.95 0  0.3499999999999996 -0.95 0  0.4000000000000004 -0.95 0  0.4500000000000002 -0.95 0  0.5 -0.95 0  0.5499999999999998 -0.95 0  0.5999999999999996 -0.95 0  0.6500000000000004 -0.95 0  0.7000000000000002 -0.95 0  0.75 -0.95 0  0.7999999999999998 -0.95 0  0.8499999999999996 -0.95 0  0.9000000000000004 -0.95 0  0.9500000000000002 -0.95 0  1 -0.95 0  1.05 -0.95 0  1.1 -0.95 0  1.15 -0.95 0  1.2 -0.95 0  1.25 -0.95 0  1.3 -0.95 0  1.35 -0.95 0  1.4 -0.95 0  1.45 -0.95 0  1.5 -0.95 0  1.55 -0.95 0  1.6 -0.95 0  1.65 -0.95 0  1.7 -0.95 0  1.75 -0.95 0  1.8 -0.95 0  1.85 -0.95 0  1.9 -0.95 0  1.95 -0.95 0  2 -0.95 0  2.05 -0.95 0  2.1 -0.95 0  2.15 -0.95 0  2.2 -0.95 0  2.25 -0.95 0  2.3 -0.95 0  2.35 -0.95 0  2.4 -0.95 0  2.45 -0.95 0  2.5 -0.95 0  2.55 -0.95 0  2.6 -0.95 0  2.65 -0.95 0  2.7 -0.95 0  2.75 -0.95 0  2.8 -0.95 0  2.85 -0.95 0  2.9 -0.95 0  2.95 -0.95 0  3 -0.95 0  3.050000000000001 -0.95 0  3.1 -0.95 0  3.15 -0.95 0  3.199999999999999 -0.95 0  3.25 -0.95 0  3.300000000000001 -0.95 0  3.35 -0.95 0  3.4 -0.95 0  3.449999999999999 -0.95 0  3.5 -0.95 0  3.550000000000001 -0.95 0  3.6 -0.95 0  3.65 -0.95 0  3.699999999999999 -0.95 0  3.75 -0.95 0  3.800000000000001 -0.95 0  3.85 -0.95 0  3.9 -0.95 0  3.949999999999999 -0.95 0  4 -0.95 0  4.050000000000001 -0.95 0  4.1 -0.95 0  4.15 -0.95 0  4.199999999999999 -0.95 0  4.25 -0.95 0  4.300000000000001 -0.95 0  4.35 -0.95 0  4.4 -0.95 0  4.449999999999999 -0.95 0  4.5 -0.95 0  4.550000000000001 -0.95 0  4.6 -0.95 0  4.65 -0.95 0  4.699999999999999 -0.95 0  4.75 -0.95 0  4.800000000000001 -0.95 0  4.85 -0.95 0  4.9 -0.95 0  4.949999999999999 -0.95 0  5 -0.95 0  -5 -0.9 0  -4.95 -0.9 0  -4.9 -0.9 0  -4.85 -0.9 0  -4.8 -0.9 0  -4.75 -0.9 0  -4.7 -0.9 0  -4.65 -0.9 0  -4.6 -0.9 0  -4.55 -0.9 0  -4.5 -0.9 0  -4.45 -0.9 0  -4.4 -0.9 0  -4.35 -0.9 0  -4.3 -0.9 0  -4.25 -0.9 0  -4.2 -0.9 0  -4.15 -0.9 0  -4.1 -0.9 0  -4.05 -0.9 0  -4 -0.9 0  -3.95 -0.9 0  -3.9 -0.9 0  -3.85 -0.9 0  -3.8 -0.9 0  -3.75 -0.9 0  -3.7 -0.9 0  -3.65 -0.9 0  -3.6 -0.9 0  -3.55 -0.9 0  -3.5 -0.9 0  -3.45 -0.9 0  -3.4 -0.9 0  -3.35 -0.9 0  -3.3 -0.9 0  -3.25 -0.9 0  -3.2 -0.9 0  -3.15 -0.9 0  -3.1 -0.9 0  -3.05 -0.9 0  -3 -0.9 0  -2.95 -0.9 0  -2.9 -0.9 0  -2.85 -0.9 0  -2.8 -0.9 0  -2.75 -0.9 0  -2.7 -0.9 0  -2.65 -0.9 0  -2.6 -0.9 0  -2.55 -0.9 0  -2.5 -0.9 0  -2.45 -0.9 0  -2.4 -0.9 0  -2.35 -0.9 0  -2.3 -0.9 0  -2.25 -0.9 0  -2.2 -0.9 0  -2.15 -0.9 0  -2.1 -0.9 0  -2.05 -0.9 0  -2 -0.9 0  -1.95 -0.9 0  -1.9 -0.9 0  -1.85 -0.9 0  -1.8 -0.9 0  -1.75 -0.9 0  -1.7 -0.9 0  -1.65 -0.9 0  -1.6 -0.9 0  -1.55 -0.9 0  -1.5 -0.9 0  -1.45 -0.9 0  -1.4 -0.9 0  -1.35 -0.9 0  -1.3 -0.9 0  -1.25 -0.9 0  -1.2 -0.9 0  -1.15 -0.9 0  -1.1 -0.9 0  -1.05 -0.9 0  -1 -0.9 0  -0.9500000000000002 -0.9 0  -0.9000000000000004 -0.9 0  -0.8499999999999996 -0.9 0  -0.7999999999999998 -0.9 0  -0.75 -0.9 0  -0.7000000000000002 -0.9 0  -0.6500000000000004 -0.9 0  -0.5999999999999996 -0.9 0  -0.5499999999999998 -0.9 0  -0.5 -0.9 0  -0.4500000000000002 -0.9 0  -0.4000000000000004 -0.9 0  -0.3499999999999996 -0.9 0  -0.2999999999999998 -0.9 0  -0.25 -0.9 0  -0.2000000000000002 -0.9 0  -0.1500000000000004 -0.9 0  -0.09999999999999964 -0.9 0  -0.04999999999999982 -0.9 0  0 -0.9 0  0.04999999999999982 -0.9 0  0.09999999999999964 -0.9 0  0.1500000000000004 -0.9 0  0.2000000000000002 -0.9 0  0.25 -0.9 0  0.2999999999999998 -0.9 0  0.3499999999999996 -0.9 0  0.4000000000000004 -0.9 0  0.4500000000000002 -0.9 0  0.5 -0.9 0  0.5499999999999998 -0.9 0  0.5999999999999996 -0.9 0  0.6500000000000004 -0.9 0  0.7000000000000002 -0.9 0  0.75 -0.9 0  0.7999999999999998 -0.9 0  0.8499999999999996 -0.9 0  0.9000000000000004 -0.9 0  0.9500000000000002 -0.9 0  1 -0.9 0  1.05 -0.9 0  1.1 -0.9 0  1.15 -0.9 0  1.2 -0.9 0  1.25 -0.9 0  1.3 -0.9 0  1.35 -0.9 0  1.4 -0.9 0  1.45 -0.9 0  1.5 -0.9 0  1.55 -0.9 0  1.6 -0.9 0  1.65 -0.9 0  1.7 -0.9 0  1.75 -0.9 0  1.8 -0.9 0  1.85 -0.9 0  1.9 -0.9 0  1.95 -0.9 0  2 -0.9 0  2.05 -0.9 0  2.1 -0.9 0  2.15 -0.9 0  2.2 -0.9 0  2.25 -0.9 0  2.3 -0.9 0  2.35 -0.9 0  2.4 -0.9 0  2.45 -0.9 0  2.5 -0.9 0  2.55 -0.9 0  2.6 -0.9 0  2.65 -0.9 0  2.7 -0.9 0  2.75 -0.9 0  2.8 -0.9 0  2.85 -0.9 0  2.9 -0.9 0  2.95 -0.9 0  3 -0.9 0  3.050000000000001 -0.9 0  3.1 -0.9 0  3.15 -0.9 0  3.199999999999999 -0.9 0  3.25 -0.9 0  3.300000000000001 -0.9 0  3.35 -0.9 0  3.4 -0.9 0  3.449999999999999 -0.9 0  3.5 -0.9 0  3.550000000000001 -0.9 0  3.6 -0.9 0  3.65 -0.9 0  3.699999999999999 -0.9 0  3.75 -0.9 0  3.800000000000001 -0.9 0  3.85 -0.9 0  3.9 -0.9 0  3.949999999999999 -0.9 0  4 -0.9 0  4.050000000000001 -0.9 0  4.1 -0.9 0  4.15 -0.9 0  4.199999999999999 -0.9 0  4.25 -0.9 0  4.300000000000001 -0.9 0  4.35 -0.9 0  4.4 -0.9 0  4.449999999999999 -0.9 0  4.5 -0.9 0  4.550000000000001 -0.9 0  4.6 -0.9 0  4.65 -0.9 0  4.699999999999999 -0.9 0  4.75 -0.9 0  4.800000000000001 -0.9 0  4.85 -0.9 0  4.9 -0.9 0  4.949999999999999 -0.9 0  5 -0.9 0  -5 -0.85 0  -4.95 -0.85 0  -4.9 -0.85 0  -4.85 -0.85 0  -4.8 -0.85 0  -4.75 -0.85 0  -4.7 -0.85 0  -4.65 -0.85 0  -4.6 -0.85 0  -4.55 -0.85 0  -4.5 -0.85 0  -
[...]
<PointData  Vectors="f_15"> 
<DataArray  type="Float64"  Name="f_15"  NumberOfComponents="3" format="ascii">5.9848380246528912e+00 0.0000000000000000e+00 0.0000000000000000e+00  5.9835649724530047e+00 7.3786826441838677e-02 0.0000000000000000e+00  5.9842176003231700e+00 1.5511528896638749e-01 0.0000000000000000e+00  5.9831140912571703e+00 2.2736750537321113e-01 0.0000000000000000e+00  5.9828936386896627e+00 3.0627158444720187e-01 0.0000000000000000e+00  5.9820042248630623e+00 3.8099452794753585e-01 0.0000000000000000e+00  5.9808729088724615e+00 4.5765376082128667e-01 0.0000000000000000e+00  5.9804843789019566e+00 5.3405315957978450e-01 0.0000000000000000e+00  5.9779632442578761e+00 6.0911818984362098e-01 0.0000000000000000e+00  5.9784348504996654e+00 6.8703701396450101e-01 0.0000000000000000e+00  5.9745080752487336e+00 7.6045070390179559e-01 0.0000000000000000e+00  5.9755391306350045e+00 8.3962967537282696e-01 0.0000000000000000e+00  5.9704233013213512e+00 9.1179019386159765e-01 0.0000000000000000e+00  5.9722037996988702e+00 9.9211049630970405e-01 0.0000000000000000e+00  5.9652940802883814e+00 1.0623871254653874e+00 0.0000000000000000e+00  5.9683415671036704e+00 1.1447899001825839e+00 0.0000000000000000e+00  5.9596690190622432e+00 1.2126475766683209e+00 0.0000000000000000e+00  5.9633564839779467e+00 1.2966720600371247e+00 0.0000000000000000e+00  5.9535070360570419e+00 1.3629916685181462e+00 0.0000000000000000e+00  5.9579198011114958e+00 1.4482877072613285e+00 0.0000000000000000e+00  5.9460571554267130e+00 1.5122468593946083e+00 0.0000000000000000e+00  5.9519577959824401e+00 1.5999555854468179e+00 0.0000000000000000e+00  5.9382361989509267e+00 1.6613982104550438e+00 0.0000000000000000e+00  5.9444371260747317e+00 1.7500138800202114e+00 0.0000000000000000e+00  5.9300309989617501e+00 1.8108228051503992e+00 0.0000000000000000e+00  5.9364495696276709e+00 1.8998580697104965e+00 0.0000000000000000e+00  5.9202123747465025e+00 1.9584246253776905e+00 0.0000000000000000e+00  5.9279062360907480e+00 2.0497779441870443e+00 0.0000000000000000e+00  5.9102060056749224e+00 2.1061710391762785e+00 0.0000000000000000e+00  5.9172503944021955e+00 2.1971489754982616e+00 0.0000000000000000e+00  5.8999355881449445e+00 2.2543526275496872e+00 0.0000000000000000e+00  5.9061670238439019e+00 2.3443343745217224e+00 0.0000000000000000e+00  5.8876115214294842e+00 2.4000154900694892e+00 0.0000000000000000e+00  5.8944688809477013e+00 2.4914669665945803e+00 0.0000000000000000e+00  5.8752804090514177e+00 2.5460477494459863e+00 0.0000000000000000e+00  5.8800979945579295e+00 2.6351654268301314e+00 0.0000000000000000e+00  5.8626364756753242e+00 2.6924769680453493e+00 0.0000000000000000e+00  5.8654608914093149e+00 2.7788310632256374e+00 0.0000000000000000e+00  5.8473848794932746e+00 2.8354963341405259e+00 0.0000000000000000e+00  5.8500912091733666e+00 2.9223134502560599e+00 0.0000000000000000e+00  5.8322813421755999e+00 2.9790767349232605e+00 0.0000000000000000e+00  5.8315566018097353e+00 3.0615288443481323e+00 0.0000000000000000e+00  5.8165732219899633e+00 3.1226310224011486e+00 0.0000000000000000e+00  5.8130403359867024e+00 3.2011730510608931e+00 0.0000000000000000e+00  5.7976663449667827e+00 3.2617258560019500e+00 0.0000000000000000e+00  5.7935299162485698e+00 3.3403260849213643e+00 0.0000000000000000e+00  5.7790782156763942e+00 3.4015664246705501e+00 0.0000000000000000e+00  5.7704430751331586e+00 3.4745574378924569e+00 0.0000000000000000e+00  5.7593703780580068e+00 3.5405483787084839e+00 0.0000000000000000e+00  5.7477226292626842e+00 3.6098320061815694e+00 0.0000000000000000e+00  5.7359447491370235e+00 3.6740790748841006e+00 0.0000000000000000e+00  5.7235567512348959e+00 3.7440127882668035e+00 0.0000000000000000e+00  5.7130531887176934e+00 3.8086438481600426e+00 0.0000000000000000e+00  5.6954924249016132e+00 3.8726862450254655e+00 0.0000000000000000e+00  5.6883861235558300e+00 3.9413162834857913e+00 0.0000000000000000e+00  5.6681533442187320e+00 4.0029873425547935e+00 0.0000000000000000e+00  5.6596167219586260e+00 4.0678004308502187e+00 0.0000000000000000e+00  5.6388138176968852e+00 4.1312913417151300e+00 0.0000000000000000e+00  5.6315987744579008e+00 4.1957306830049079e+00 0.0000000000000000e+00  5.6054110316067076e+00 4.2535828953600898e+00 0.0000000000000000e+00  5.6011052914988753e+00 4.3207180876197331e+00 0.0000000000000000e+00  5.5731134170476970e+00 4.3780644584552819e+00 0.0000000000000000e+00  5.5662487240067566e+00 4.4388976721092268e+00 0.0000000000000000e+00  5.5383779084002374e+00 4.4998160181449531e+00 0.0000000000000000e+00  5.5322755930731660e+00 4.5588369795101782e+00 0.0000000000000000e+00  5.4996637460346207e+00 4.6151373474417925e+00 0.0000000000000000e+00  5.4952328507594794e+00 4.6752748541603504e+00 0.0000000000000000e+00  5.4624411912499866e+00 4.7328575916751632e+00 0.0000000000000000e+00  5.4537552304187482e+00 4.7845285453621917e+00 0.0000000000000000e+00  5.4225797102322328e+00 4.8477447138332073e+00 0.0000000000000000e+00  5.4133027133689451e+00 4.8954969879259789e+00 0.0000000000000000e+00  5.3789770923665960e+00 4.9557978492620478e+00 0.0000000000000000e+00  5.3696027213783610e+00 5.0037963307090205e+00 0.0000000000000000e+00  5.3370991717772220e+00 5.0651751782945329e+00 0.0000000000000000e+00  5.3217942563437433e+00 5.1053830982479642e+00 0.0000000000000000e+00  5.2925234766717173e+00 5.1727081244221385e+00 0.0000000000000000e+00  5.2753989707215414e+00 5.2072708582076537e+00 0.0000000000000000e+00  5.2444205197217668e+00 5.2740873074892320e+00 0.0000000000000000e+00  5.2261499700256193e+00 5.3085420833468566e+00 0.0000000000000000e+00  5.1981440847776126e+00 5.3737264259267530e+00 0.0000000000000000e+00  5.1734161240426140e+00 5.4055440271830113e+00 0.0000000000000000e+00  5.1493729010699161e+00 5.4731385099121717e+00 0.0000000000000000e+00  5.1226055800344152e+00 5.4991421532533460e+00 0.0000000000000000e+00  5.0973461620359899e+00 5.5701536498938022e+00 0.0000000000000000e+00  5.0696681324273367e+00 5.5935998892381837e+00 0.0000000000000000e+00  5.0473426328554023e+00 5.6600930871134389e+00 0.0000000000000000e+00  5.0137940130192638e+00 5.6910208411135503e+00 0.0000000000000000e+00  4.9954105154541448e+00 5.7479652997040160e+00 0.0000000000000000e+00  4.9604213852967289e+00 5.7808028056825709e+00 0.0000000000000000e+00  4.9402956171073917e+00 5.8431725005581079e+00 0.0000000000000000e+00  4.9059264510295719e+00 5.8646087819804151e+00 0.0000000000000000e+00  4.8876433797636141e+00 5.9315719355247349e+00 0.0000000000000000e+00  4.8483502670002849e+00 5.9607551856958843e+00 0.0000000000000000e+00  4.8344380735853933e+00 6.0056709932048005e+00 0.0000000000000000e+00  4.7934750982135395e+00 6.0587566659997449e+00 0.0000000000000000e+00  4.7776524685381219e+00 6.0882661362150863e+00 0.0000000000000000e+00  4.7394679120265266e+00 6.1402619821763960e+00 0.0000000000000000e+00  4.7224968426104681e+00 6.1807547089124713e+00 0.0000000000000000e+00  4.6830604515844074e+00 6.2206551500980121e+00 0.0000000000000000e+00  4.6681215430570306e+00 6.2640879798584690e+00 0.0000000000000000e+00  4.6282387937579106e+00 6.3091533391795886e+00 0.0000000000000000e+00  4.6121788474415508e+00 6.3429170204426768e+00 0.0000000000000000e+00  4.5733926621508161e+00 6.3958800078711828e+00 0.0000000000000000e+00  4.5586991444281191e+00 6.4215425179885699e+00 0.0000000000000000e+00  4.5169721845430200e+00 6.4862207330081869e+00 0.0000000000000000e+00  4.5046720775998814e+00 6.4918920556323023e+00 0.0000000000000000e+00  4.4650122991440693e+00 6.5789936764644326e+00 0.0000000000000000e+00  4.4470190778406407e+00 6.5696414716532052e+00 0.0000000000000000e+00  4.4143246799521387e+00 6.6510986427351053e+00 0.0000000000000000e+00  4.3930966335755626e+00 6.6705518761345717e+00 0.0000000000000000e+00  4.3598832469109459e+00 6.7068898036728326e+00 0.0000000000000000e+00  4.3419363261676489e+00 6.7688486177370759e+00 0.0000000000000000e+00  4.3077855828471145e+00 6.7795998195056590e+00 0.0000000000000000e+00  4.2895701168408564e+00 6.8406788204824265e+00 0.0000000000000000e+00  4.2565966692307686e+00 6.8708235422783890e+00 0.0000000000000000e+00  4.2415161787328008e+00 6.9039452185665393e+00 0.0000000000000000e+00  4.2041266176252545e+00 6.9548231798872928e+00 0.0000000000000000e+00  4.1941384641971418e+00 6.9754073863129236e+00 0.0000000000000000e+00  4.1582032984684485e+00 7.0283238975524061e+00 0.0000000000000000e+00  4.1452441887174567e+00 7.0449451406271786e+00 0.0000000000000000e+00  4.1148264314952092e+00 7.1000597143799045e+00 0.0000000000000000e+00  4.1046281528206920e+00 7.1069790134878374e+00 0.0000000000000000e+00  4.0710732467810580e+00 7.1649345936328315e+00 0.0000000000000000e+00  4.0694709826056643e+00 7.1639498971550859e+00 0.0000000000000000e+00  4.0374013560799442e+00 7.2184680982759719e+00 0.0000000000000000e+00  4.0361392847522870e+00 7.2117150547178728e+00 0.0000000000000000e+00  4.0114243578267574e+00 7.2624220050548409e+00 0.0000000000000000e+00  4.0132260746296415e+00 7.2474152772756755e+00 0.0000000000000000e+00  3.9879717148920530e+00 7.2966622344158791e+00 0.0000000000000000e+00  3.9978408917340849e+00 7.2734486206126059e+00 0.0000000000000000e+00  3.9732948021180237e+00 7.3200378799349126e+00 0.0000000000000000e+00  3.9855801751466151e+00 7.2909928384909000e+00 0.0000000000000000e+00  3.9632023235540088e+00 7.3362169846963541e+00 0.0000000000000000e+00  3.9826316041344305e+00 7.2977346453643985e+00 0.0000000000000000e+00  3.9525379731861219e+00 7.3495275971935481e+00 0.0000000000000000e+00  3.9834625466672700e+00 7.2988262092058109e+00 0.0000000000000000e+00  3.9483348009319843e+00 7.3556718238895344e+00 0.0000000000000000e+00  3.9803804529719633e+00 7.3028901486769513e+00 0.0000000000000000e+00  3.9487376133494445e+00 7.3553321875900490e+00 0.0000000000000000e+00  3.9783594633594408e+00 7.3066665589197113e+00 0.0000000000000000e+00  3.9480988872583400e+00 7.3553223368977019e+00 0.0000000000000000e+00  3.9771570909511627e+00 7.3088012007626286e+00 0.0000000000000000e+00  3.9495079363247063e+00 7.3536131685835278e+00 0.0000000000000000e+00  3.9740938710867022e+00 7.3129530855482834e+00 0.0000000000000000e+00  3.9511881982210841e+00 7.3505573999171618e+00 0.0000000000000000e+00  3.9735023969485894e+00 7.3154104933791233e+00 0.0000000000000000e+00  3.9499646754975211e+00 7.3503090142500573e+00 0.0000000000000000e+00  3.9744474355564625e+00 7.3153414459355899e+00 0.0000000000000000e+00  3.9496759322837116e+00 7.3504779353481737e+00 0.0000000000000000e+00  3.9733719123189979e+00 7.3160567610363687e+00 0.0000000000000000e+00  3.9509270000708900e+00 7.3497827482912381e+00 0.0000000000000000e+00  3.9719955662903557e+00 7.3165326182284858e+00 0.0000000000000000e+00  3.9522094097037366e+00 7.3500715492850377e+00 0.0000000000000000e+00  3.9698464062096375e+00 7.3157788474483310e+00 0.0000000000000000e+00  3.9555041389883683e+00 7.3512223657558939e+00 0.0000000000000000e+00  3.9648654490536774e+00 7.3139582074110256e+00 0.0000000000000000e+00  3.9622606330572427e+00 7.3557097222235797e+00 0.0000000000000000e+00  3.9548861782903852e+00 7.3039221843956321e+00 0.0000000000000000e+00  3.9755388496347890e+00 7.3754926413566633e+00 0.0000000000000000e+00  3.9349364468677046e+00 7.2765033237158887e+00 0.0000000000000000e+00  3.9935948065893747e+00 7.4108592848125268e+00 0.0000000000000000e+00  3.9101445598877289e+00 7.2510538732624488e+00 0.0000000000000000e+00  4.0026298236647779e+00 7.4355320035378591e+00 0.0000000000000000e+00  3.8957237205040620e+00 7.2365591769913191e+00 0.0000000000000000e+00  3.9966454893217738e+00 7.4825800752241216e+00 0.0000000000000000e+00  3.9146700457734909e+00 7.1262410367783282e+00 0.0000000000000000e+00  3.9114101564935657e+00 7.7186727398944273e+00 0.0000000000000000e+00  4.1885620075345251e+00 6.6435250033604616e+00 0.0000000000000000e+00  3.4189889243212863e+00 8.4433670009552539e+00 0.0000000000000000e+00  7.9775633435384208e+00 1.4298331639370083e+00 0.0000000000000000e+00  9.4727391493740924e+00 1.3486069887904872e-01 0.0000000000000000e+00  9.5008814661374217e+00 -2.3898604134664242e-02 0.0000000000000000e+00  9.4366613731135018e+00 4.4982475464918383e-03 0.0000000000000000e+00  9.4932255697356833e+00 -1.5343652400473935e-02 0.0000000000000000e+00  9.4874941875223708e+00 -2.6257119097852614e-02 0.0000000000000000e+00  9.5034433201027664e+00 -5.0968686558182839e-02 0.0000000000000000e+00  9.4949571201153464e+00 -3.3202502779802232e-02 0.0000000000000000e+00  9.4887526695909461e+00 -3.9918961629607765e-02 0.0000000000000000e+00  9.4950280004665348e+00 -4.1813289014969966e-02 0.0000000000000000e+00  9.4988915445708653e+00 -5.5629274371989695e-02 0.0000000000000000e+00  9.4925625143040637e+00 -4.5008465361732593e-02 0.0000000000000000e+00  9.4967086915447059e+00 -6.0811716146297191e-02 0.0000000000000000e+00  9.4931102450405902e+00 -4.9808194612883293e-02 0.0000000000000000e+00  9.4974748173168972e+00 -6.5544371283318373e-02 0.0000000000000000e+00  9.4945836014058180e+00 -5.1499587960110588e-02 0.0000000000000000e+00  9.4958245774591550e+00 -7.0020332115245276e-02 0.0000000000000000e+00  9.4949214285590369e+00 -6.2025956791713223e-02 0.0000000000000000e+00  9.4965833509223607e+00 -8.1347384435969963e-02 0.0000000000000000e+00  9.4948580139513226e+00 -7.3835492767700475e-02 0.0000000000000000e+00  9.4963665527586318e+00 -9.2584147119822116e-02 0.0000000000000000e+00  9.4953517210799294e+00 -8.0891257013706405e-02 0.0000000000000000e+00  9.4960396581080371e+00 -1.0054020142648573e-01 0.0000000000000000e+00  9.4959675304165625e+00 -8.0565193737564850e-02 0.0000000000000000e+00  9.4958115298542811e+00 -9.0639545532742477e-02 0.0000000000000000e+00  9.4962038962909858e+00 -8.0852370472225987e-02 0.0000000000000000e+00  9.4959340781107926e+00 -7.9330066765177398e-02 0.0000000000000000e+00  9.4962507408576826e+00 -8.1198785532369408e-02 0.0000000000000000e+00  9.4960132302435909e+00 -6.4629348472232395e-02 0.0000000000000000e+00  9.4963148006540212e+00 -1.0240947984382083e-01 0.0000000000000000e+00  9.4959099411263850e+00 -2.5879046008275543e-02 0.0000000000000000e+00  9.4968686159033933e+00 0.0000000000000000e+00 0.0000000000000000e+00  5.9835788033016977e+00 0.0000000000000000e+00 2.2414819552871602e-03  5.9834888310679633e+00 7.7034654691688159e-02 -6.6241914518079920e-06  5.9833147093869945e+00 1.5124179600216370e-01 -1.3399349940401237e-03  5.9829803470596818e+00 2.2883574724839958e-01 9.3502838368134014e-04  5.9823105817553168e+00 3.0460126043012892e-01 -8.2450056523950661e-04  5.9818517344030671e+00 3.8129583999237421e-01 7.6119848804176047e-04  5.9807710573345263e+00 4.5693625828695733e-01 -7.9838863331792688e-04  5.9798817047638870e+00 5.3397811027402742e-01 8.8686698798122693e-04  5.9785914046445798e+00 6.0915872557651407e-01 -9.7759489207998023e-04  5.9773784177529139e+00 6.8638390263678561e-01 1.0559875362140913e-03  5.9755183495072641e+00 7.6109838870886937e-01 -1.1140692099359964e-03  5.9742499190160938e+00 8.3869900047157830e-01 1.1706040224068719e-03  5.9719414329205280e+00 9.1288401071133407e-01 -1.2361495187756786e-03  5.9701368701170479e+00 9.9042164966735313e-01 1.3102278005545569e-03  5.9677821002408571e+00 1.0646983117141906e+00 -1.3742940844574498e-03  5.9655306922970626e+00 1.1419073376833098e+00 1.4101973249557428e-03  5.9625351732189227e+00 1.2157720057320163e+00 -1.4188029866101478e-03  5.9603671911050613e+00 1.2934026685346092e+00 1.4213269627430282e-03  5.9568291798651600e+00 1.3666248234370244e+00 -1.4441959373467724e-03  5.9539592894231044e+00 1.4439040242645789e+00 1.4895331142436765e-03  5.9506122510293435e+00 1.5175067565655724e+00 -1.5383430283900559e-03  5.9471125708769144e+00 1.5942189472826234e+00 1.5683713283121362e-03  5.9429804606677425e+00 1.6670579061274133e+00 -1.5840593686755225e-03  5.9397818247430338e+00 1.7446210283424628e+00 1.6019660052382623e-03  5.9349557216156175e+00 1.8164683745995927e+00 -1.6326843985044618e-03  5.9308192486389828e+00 1.8932949842363487e+00 1.6573361855091433e-03  5.9264833976372788e+00 1.9660430653803567e+00 -1.6581688253585307e-03  5.9215050108379588e+00 2.0418577055158238e+00 1.6351337667577159e-03  5.9161491921385334e+00 2.1135131043209525e+00 -1.6129405345614940e-03  5.9117547759904783e+00 2.1905823088368988e+00 1.6055635070327250e-03  5.9055279174329520e+00 2.2609536212006680e+00 -1.6153591701633873e-03  5.8998788565940261e+00 2.3367971097479119e+00 1.6239102599523336e-03  5.8944774849922466e+00 2.4085354678679609e+00 -1.6226856161727829e-03  5.8877711576179266e+00 2.4830593961125027e+00 1.6144871682261391e-03  5.8810498876514732e+00 2.5531745630083429e+00 -1.6196174859147902e-03  5.8751811793247546e+00 2.6294562306894487e+00 1.6514096781371662e-03  5.8674930689733165e+00 2.6978968508986161e+00 -1.7163474410758362e-03  5.8599172900561536e+00 2.7725170417261755e+00 1.7938007843245612e-03  5.8534066984527202e+00 2.8426253125562062e+00 -1.8722862119867683e-03  5.8445875404373764e+00 2.9158375989830994e+00 1.9623916158776383e-03  5.8364136646780578e+00 2.9834764187870477e+00 -2.0917935408144928e-03  5.8285632602737429e+00 3.0591056865943718e+00 2.2719435411627854e-03  5.8195134923729954e+00 3.1246412585566934e+00 -2.4978199827915353e-03  5.8093175025548698e+00 3.1981595261376801e+00 2.7464474301501884e-03  5.8018054358796647e+00 3.2653944196260025e+00 -3.0126886640391170e-03  5.7902220197923553e+00 3.3378454786356850e+00 3.3140202729307548e-03  5.7807059545808777e+00 3.4013412678925858e+00 -3.6697743248348545e-03  5.7700146751270163e+00 3.4769890935515715e+00 4.0830248228191680e-03  5.7599773856226548e+00 3.5379344753432753e+00 -4.5326892425063417e-03  5.7461061811629950e+00 3.6111118850159678e+00 4.9916653981535580e-03  5.7379609556202924e+00 3.6734070685913509e+00 -5.4493485005791481e-03  5.7226212810645194e+00 3.7462986650552978e+00 5.9243910426780948e-03  5.7121412673912557e+00 3.8032978989410151e+00 -6.4212015543644151e-03  5.6974605998586112e+00 3.8800909983506227e+00 6.9365651100913401e-03  5.6869762050225825e+00 3.9343427260303523e+00 -7.4307116466595761e-03  5.6682626650011461e+00 4.0080880267076395e+00 7.8850396934349951e-03  5.6598926265474923e+00 4.0634252311262626e+00 -8.2845160713142761e-03  5.6398071392900313e+00 4.1375242389647111e+00 8.6556767809407680e-03  5.6287002263930059e+00 4.1864252406554350e+00 -8.9905160074409615e-03  5.6090898895502672e+00 4.2644637746617038e+00 9.2970966721497850e-03  5.5984154282212142e+00 4.3112094423239311e+00 -9.5302280657060950e-03  5.5741867502153344e+00 4.3849118626149926e+00 9.6946793561531967e-03  5.5655856677421633e+00 4.4332617338797284e+00 -9.7672512339083591e-03  5.5403602431930778e+00 4.5071226231145403e+00 9.7729651044287102e-03  5.5284815251827268e+00 4.5488745870827048e+00 -9.6828474553798827e-03  5.5038590114988191e+00 4.6259996449702463e+00 9.5193651338403400e-03  5.4924674300701648e+00 4.6667406458166303e+00 -9.2611232498423356e-03  5.4632540138478021e+00 4.7378642492025271e+00 8.9561448773165572e-03  5.4534879212633705e+00 4.7816011140460386e+00 -8.5923055750077200e-03  5.4240317660753918e+00 4.8515563256118428e+00 8.1693052019827621e-03  5.4102792372817357e+00 4.8897586155568726e+00 -7.6204439017379319e-03  5.3820352647871408e+00 4.9620673852218449e+00 6.9478077451034809e-03  5.3683066181824817e+00 4.9998636155971150e+00 -6.1831885758687850e-03  5.3362238808030407e+00 5.0655324729921691e+00 5.4381538245673010e-03  5.3233675790515731e+00 5.1077430496170395e+00 -4.7701357163910975e-03  5.2919757613905114e+00 5.1698816542433894e+00 4.1500490742758323e-03  5.2745981534721045e+00 5.2093259565503161e+00 -3.4570706669548126e-03  5.2451163902355233e+00 5.2725429199400793e+00 2.6051708392464666e-03  5.2272822635585623e+00 5.3108450742034323e+00 -1.6474533741733896e-03  5.1948902029536148e+00 5.3696627535253967e+00 7.4641817326583592e-04  5.1774075503611350e+00 5.4117336021318216e+00 -6.6063955387944532e-05  5.1463435960890918e+00 5.4648833148018712e+00 -4.1454114400069959e-04  5.1243524265