<?xml version="1.0"?>
<VTKFile type="UnstructuredGrid"  version="0.1"  >
<UnstructuredGrid>
<Piece  NumberOfPoints="8241" NumberOfCells="16000">
<Points>
<DataArray  type="Float64"  NumberOfComponents="3"  format="ascii">-5 -1 0  -4.95 -1 0  -4.9 -1 0  -4.85 -1 0  -4.8 -1 0  -4.75 -1 0  -4.7 -1 0  -4.65 -1 0  -4.6 -1 0  -4.55 -1 0  -4.5 -1 0  -4.45 -1 0  -4.4 -1 0  -4.35 -1 0  -4.3 -1 0  -4.25 -1 0  -4.2 -1 0  -4.15 -1 0  -4.1 -1 0  -4.05 -1 0  -4 -1 0  -3.95 -1 0  -3.9 -1 0  -3.85 -1 0  -3.8 -1 0  -3.75 -1 0  -3.7 -1 0  -3.65 -1 0  -3.6 -1 0  -3.55 -1 0  -3.5 -1 0  -3.45 -1 0  -3.4 -1 0  -3.35 -1 0  -3.3 -1 0  -3.25 -1 0  -3.2 -1 0  -3.15 -1 0  -3.1 -1 0  -3.05 -1 0  -3 -1 0  -2.95 -1 0  -2.9 -1 0  -2.85 -1 0  -2.8 -1 0  -2.75 -1 0  -2.7 -1 0  -2.65 -1 0  -2.6 -1 0  -2.55 -1 0  -2.5 -1 0  -2.45 -1 0  -2.4 -1 0  -2.35 -1 0  -2.3 -1 0  -2.25 -1 0  -2.2 -1 0  -2.15 -1 0  -2.1 -1 0  -2.05 -1 0  -2 -1 0  -1.95 -1 0  -1.9 -1 0  -1.85 -1 0  -1.8 -1 0  -1.75 -1 0  -1.7 -1 0  -1.65 -1 0  -1.6 -1 0  -1.55 -1 0  -1.5 -1 0  -1.45 -1 0  -1.4 -1 0  -1.35 -1 0  -1.3 -1 0  -1.25 -1 0  -1.2 -1 0  -1.15 -1 0  -1.1 -1 0  -1.05 -1 0  -1 -1 0  -0.9500000000000002 -1 0  -0.9000000000000004 -1 0  -0.8499999999999996 -1 0  -0.7999999999999998 -1 0  -0.75 -1 0  -0.7000000000000002 -1 0  -0.6500000000000004 -1 0  -0.5999999999999996 -1 0  -0.5499999999999998 -1 0  -0.5 -1 0  -0.4500000000000002 -1 0  -0.4000000000000004 -1 0  -0.3499999999999996 -1 0  -0.2999999999999998 -1 0  -0.25 -1 0  -0.2000000000000002 -1 0  -0.1500000000000004 -1 0  -0.09999999999999964 -1 0  -0.04999999999999982 -1 0  0 -1 0  0.04999999999999982 -1 0  0.09999999999999964 -1 0  0.1500000000000004 -1 0  0.2000000000000002 -1 0  0.25 -1 0  0.2999999999999998 -1 0  0.3499999999999996 -1 0  0.4000000000000004 -1 0  0.4500000000000002 -1 0  0.5 -1 0  0.5499999999999998 -1 0  0.5999999999999996 -1 0  0.6500000000000004 -1 0  0.7000000000000002 -1 0  0.75 -1 0  0.7999999999999998 -1 0  0.8499999999999996 -1 0  0.9000000000000004 -1 0  0.9500000000000002 -1 0  1 -1 0  1.05 -1 0  1.1 -1 0  1.15 -1 0  1.2 -1 0  1.25 -1 0  1.3 -1 0  1.35 -1 0  1.4 -1 0  1.45 -1 0  1.5 -1 0  1.55 -1 0  1.6 -1 0  1.65 -1 0  1.7 -1 0  1.75 -1 0  1.8 -1 0  1.85 -1 0  1.9 -1 0  1.95 -1 0  2 -1 0  2.05 -1 0  2.1 -1 0  2.15 -1 0  2.2 -1 0  2.25 -1 0  2.3 -1 0  2.35 -1 0  2.4 -1 0  2.45 -1 0  2.5 -1 0  2.55 -1 0  2.6 -1 0  2.65 -1 0  2.7 -1 0  2.75 -1 0  2.8 -1 0  2.85 -1 0  2.9 -1 0  2.95 -1 0  3 -1 0  3.050000000000001 -1 0  3.1 -1 0  3.15 -1 0  3.199999999999999 -1 0  3.25 -1 0  3.300000000000001 -1 0  3.35 -1 0  3.4 -1 0  3.449999999999999 -1 0  3.5 -1 0  3.550000000000001 -1 0  3.6 -1 0  3.65 -1 0  3.699999999999999 -1 0  3.75 -1 0  3.800000000000001 -1 0  3.85 -1 0  3.9 -1 0  3.949999999999999 -1 0  4 -1 0  4.050000000000001 -1 0  4.1 -1 0  4.15 -1 0  4.199999999999999 -1 0  4.25 -1 0  4.300000000000001 -1 0  4.35 -1 0  4.4 -1 0  4.449999999999999 -1 0  4.5 -1 0  4.550000000000001 -1 0  4.6 -1 0  4.65 -1 0  4.699999999999999 -1 0  4.75 -1 0  4.800000000000001 -1 0  4.85 -1 0  4.9 -1 0  4.949999999999999 -1 0  5 -1 0  -5 -0.95 0  -4.95 -0.95 0  -4.9 -0.95 0  -4.85 -0.95 0  -4.8 -0.95 0  -4.75 -0.95 0  -4.7 -0.95 0  -4.65 -0.95 0  -4.6 -0.95 0  -4.55 -0.95 0  -4.5 -0.95 0  -4.45 -0.95 0  -4.4 -0.95 0  -4.35 -0.95 0  -4.3 -0.95 0  -4.25 -0.95 0  -4.2 -0.95 0  -4.15 -0.95 0  -4.1 -0.95 0  -4.05 -0.95 0  -4 -0.95 0  -3.95 -0.95 0  -3.9 -0.95 0  -3.85 -0.95 0  -3.8 -0.95 0  -3.75 -0.95 0  -3.7 -0.95 0  -3.65 -0.95 0  -3.6 -0.95 0  -3.55 -0.95 0  -3.5 -0.95 0  -3.45 -0.95 0  -3.4 -0.95 0  -3.35 -0.95 0  -3.3 -0.95 0  -3.25 -0.95 0  -3.2 -0.95 0  -3.15 -0.95 0  -3.1 -0.95 0  -3.05 -0.95 0  -3 -0.95 0  -2.95 -0.95 0  -2.9 -0.95 0  -2.85 -0.95 0  -2.8 -0.95 0  -2.75 -0.95 0  -2.7 -0.95 0  -2.65 -0.95 0  -2.6 -0.95 0  -2.55 -0.95 0  -2.5 -0.95 0  -2.45 -0.95 0  -2.4 -0.95 0  -2.35 -0.95 0  -2.3 -0.95 0  -2.25 -0.95 0  -2.2 -0.95 0  -2.15 -0.95 0  -2.1 -0.95 0  -2.05 -0.95 0  -2 -0.95 0  -1.95 -0.95 0  -1.9 -0.95 0  -1.85 -0.95 0  -1.8 -0.95 0  -1.75 -0.95 0  -1.7 -0.95 0  -1.65 -0.95 0  -1.6 -0.95 0  -1.55 -0.95 0  -1.5 -0.95 0  -1.45 -0.95 0  -1.4 -0.95 0  -1.35 -0.95 0  -1.3 -0.95 0  -1.25 -0.95 0  -1.2 -0.95 0  -1.15 -0.95 0  -1.1 -0.95 0  -1.05 -0.95 0  -1 -0.95 0  -0.9500000000000002 -0.95 0  -0.9000000000000004 -0.95 0  -0.8499999999999996 -0.95 0  -0.7999999999999998 -0.95 0  -0.75 -0.95 0  -0.7000000000000002 -0.95 0  -0.6500000000000004 -0.95 0  -0.5999999999999996 -0.95 0  -0.5499999999999998 -0.95 0  -0.5 -0.95 0  -0.4500000000000002 -0.95 0  -0.4000000000000004 -0.95 0  -0.3499999999999996 -0.95 0  -0.2999999999999998 -0.95 0  -0.25 -0.95 0  -0.2000000000000002 -0.95 0  -0.1500000000000004 -0.95 0  -0.09999999999999964 -0.95 0  -0.04999999999999982 -0.95 0  0 -0.95 0  0.04999999999999982 -0.95 0  0.09999999999999964 -0.95 0  0.1500000000000004 -0.95 0  0.2000000000000002 -0.95 0  0.25 -0.95 0  0.2999999999999998 -0.95 0  0.3499999999999996 -0.95 0  0.4000000000000004 -0.95 0  0.4500000000000002 -0.95 0  0.5 -0.95 0  0.5499999999999998 -0.95 0  0.5999999999999996 -0.95 0  0.6500000000000004 -0.95 0  0.7000000000000002 -0.95 0  0.75 -0.95 0  0.7999999999999998 -0.95 0  0.8499999999999996 -0.95 0  0.9000000000000004 -0.95 0  0.9500000000000002 -0.95 0  1 -0.95 0  1.05 -0.95 0  1.1 -0.95 0  1.15 -0.95 0  1.2 -0.95 0  1.25 -0.95 0  1.3 -0.95 0  1.35 -0.95 0  1.4 -0.95 0  1.45 -0.95 0  1.5 -0.95 0  1.55 -0.95 0  1.6 -0.95 0  1.65 -0.95 0  1.7 -0.95 0  1.75 -0.95 0  1.8 -0.95 0  1.85 -0.95 0  1.9 -0.95 0  1.95 -0.95 0  2 -0.95 0  2.05 -0.95 0  2.1 -0.95 0  2.15 -0.95 0  2.2 -0.95 0  2.25 -0.95 0  2.3 -0.95 0  2.35 -0.95 0  2.4 -0.95 0  2.45 -0.95 0  2.5 -0.95 0  2.55 -0.95 0  2.6 -0.95 0  2.65 -0.95 0  2.7 -0.95 0  2.75 -0.95 0  2.8 -0.95 0  2.85 -0.95 0  2.9 -0.95 0  2.95 -0.95 0  3 -0.95 0  3.050000000000001 -0.95 0  3.1 -0.95 0  3.15 -0.95 0  3.199999999999999 -0.95 0  3.25 -0.95 0  3.300000000000001 -0.95 0  3.35 -0.95 0  3.4 -0.95 0  3.449999999999999 -0.95 0  3.5 -0.95 0  3.550000000000001 -0.95 0  3.6 -0.95 0  3.65 -0.95 0  3.699999999999999 -0.95 0  3.75 -0.95 0  3.800000000000001 -0.95 0  3.85 -0.95 0  3.9 -0.95 0  3.949999999999999 -0.95 0  4 -0.95 0  4.050000000000001 -0.95 0  4.1 -0.95 0  4.15 -0.95 0  4.199999999999999 -0.95 0  4.25 -0.95 0  4.300000000000001 -0.95 0  4.35 -0.95 0  4.4 -0.95 0  4.449999999999999 -0.95 0  4.5 -0.95 0  4.550000000000001 -0.95 0  4.6 -0.95 0  4.65 -0.95 0  4.699999999999999 -0.95 0  4.75 -0.95 0  4.800000000000001 -0.95 0  4.85 -0.95 0  4.9 -0.95 0  4.949999999999999 -0.95 0  5 -0.95 0  -5 -0.9 0  -4.95 -0.9 0  -4.9 -0.9 0  -4.85 -0.9 0  -4.8 -0.9 0  -4.75 -0.9 0  -4.7 -0.9 0  -4.65 -0.9 0  -4.6 -0.9 0  -4.55 -0.9 0  -4.5 -0.9 0  -4.45 -0.9 0  -4.4 -0.9 0  -4.35 -0.9 0  -4.3 -0.9 0  -4.25 -0.9 0  -4.2 -0.9 0  -4.15 -0.9 0  -4.1 -0.9 0  -4.05 -0.9 0  -4 -0.9 0  -3.95 -0.9 0  -3.9 -0.9 0  -3.85 -0.9 0  -3.8 -0.9 0  -3.75 -0.9 0  -3.7 -0.9 0  -3.65 -0.9 0  -3.6 -0.9 0  -3.55 -0.9 0  -3.5 -0.9 0  -3.45 -0.9 0  -3.4 -0.9 0  -3.35 -0.9 0  -3.3 -0.9 0  -3.25 -0.9 0  -3.2 -0.9 0  -3.15 -0.9 0  -3.1 -0.9 0  -3.05 -0.9 0  -3 -0.9 0  -2.95 -0.9 0  -2.9 -0.9 0  -2.85 -0.9 0  -2.8 -0.9 0  -2.75 -0.9 0  -2.7 -0.9 0  -2.65 -0.9 0  -2.6 -0.9 0  -2.55 -0.9 0  -2.5 -0.9 0  -2.45 -0.9 0  -2.4 -0.9 0  -2.35 -0.9 0  -2.3 -0.9 0  -2.25 -0.9 0  -2.2 -0.9 0  -2.15 -0.9 0  -2.1 -0.9 0  -2.05 -0.9 0  -2 -0.9 0  -1.95 -0.9 0  -1.9 -0.9 0  -1.85 -0.9 0  -1.8 -0.9 0  -1.75 -0.9 0  -1.7 -0.9 0  -1.65 -0.9 0  -1.6 -0.9 0  -1.55 -0.9 0  -1.5 -0.9 0  -1.45 -0.9 0  -1.4 -0.9 0  -1.35 -0.9 0  -1.3 -0.9 0  -1.25 -0.9 0  -1.2 -0.9 0  -1.15 -0.9 0  -1.1 -0.9 0  -1.05 -0.9 0  -1 -0.9 0  -0.9500000000000002 -0.9 0  -0.9000000000000004 -0.9 0  -0.8499999999999996 -0.9 0  -0.7999999999999998 -0.9 0  -0.75 -0.9 0  -0.7000000000000002 -0.9 0  -0.6500000000000004 -0.9 0  -0.5999999999999996 -0.9 0  -0.5499999999999998 -0.9 0  -0.5 -0.9 0  -0.4500000000000002 -0.9 0  -0.4000000000000004 -0.9 0  -0.3499999999999996 -0.9 0  -0.2999999999999998 -0.9 0  -0.25 -0.9 0  -0.2000000000000002 -0.9 0  -0.1500000000000004 -0.9 0  -0.09999999999999964 -0.9 0  -0.04999999999999982 -0.9 0  0 -0.9 0  0.04999999999999982 -0.9 0  0.09999999999999964 -0.9 0  0.1500000000000004 -0.9 0  0.2000000000000002 -0.9 0  0.25 -0.9 0  0.2999999999999998 -0.9 0  0.3499999999999996 -0.9 0  0.4000000000000004 -0.9 0  0.4500000000000002 -0.9 0  0.5 -0.9 0  0.5499999999999998 -0.9 0  0.5999999999999996 -0.9 0  0.6500000000000004 -0.9 0  0.7000000000000002 -0.9 0  0.75 -0.9 0  0.7999999999999998 -0.9 0  0.8499999999999996 -0.9 0  0.9000000000000004 -0.9 0  0.9500000000000002 -0.9 0  1 -0.9 0  1.05 -0.9 0  1.1 -0.9 0  1.15 -0.9 0  1.2 -0.9 0  1.25 -0.9 0  1.3 -0.9 0  1.35 -0.9 0  1.4 -0.9 0  1.45 -0.9 0  1.5 -0.9 0  1.55 -0.9 0  1.6 -0.9 0  1.65 -0.9 0  1.7 -0.9 0  1.75 -0.9 0  1.8 -0.9 0  1.85 -0.9 0  1.9 -0.9 0  1.95 -0.9 0  2 -0.9 0  2.05 -0.9 0  2.1 -0.9 0  2.15 -0.9 0  2.2 -0.9 0  2.25 -0.9 0  2.3 -0.9 0  2.35 -0.9 0  2.4 -0.9 0  2.45 -0.9 0  2.5 -0.9 0  2.55 -0.9 0  2.6 -0.9 0  2.65 -0.9 0  2.7 -0.9 0  2.75 -0.9 0  2.8 -0.9 0  2.85 -0.9 0  2.9 -0.9 0  2.95 -0.9 0  3 -0.9 0  3.050000000000001 -0.9 0  3.1 -0.9 0  3.15 -0.9 0  3.199999999999999 -0.9 0  3.25 -0.9 0  3.300000000000001 -0.9 0  3.35 -0.9 0  3.4 -0.9 0  3.449999999999999 -0.9 0  3.5 -0.9 0  3.550000000000001 -0.9 0  3.6 -0.9 0  3.65 -0.9 0  3.699999999999999 -0.9 0  3.75 -0.9 0  3.800000000000001 -0.9 0  3.85 -0.9 0  3.9 -0.9 0  3.949999999999999 -0.9 0  4 -0.9 0  4.050000000000001 -0.9 0  4.1 -0.9 0  4.15 -0.9 0  4.199999999999999 -0.9 0  4.25 -0.9 0  4.300000000000001 -0.9 0  4.35 -0.9 0  4.4 -0.9 0  4.449999999999999 -0.9 0  4.5 -0.9 0  4.550000000000001 -0.9 0  4.6 -0.9 0  4.65 -0.9 0  4.699999999999999 -0.9 0  4.75 -0.9 0  4.800000000000001 -0.9 0  4.85 -0.9 0  4.9 -0.9 0  4.949999999999999 -0.9 0  5 -0.9 0  -5 -0.85 0  -4.95 -0.85 0  -4.9 -0.85 0  -4.85 -0.85 0  -4.8 -0.85 0  -4.75 -0.85 0  -4.7 -0.85 0  -4.65 -0.85 0  -4.6 -0.85 0  -4.55 -0.85 0  -4.5 -0.85 0  -
[...]
<PointData  Vectors="f_15"> 
<DataArray  type="Float64"  Name="f_15"  NumberOfComponents="3" format="ascii">2.4884794965374102e+00 0.0000000000000000e+00 0.0000000000000000e+00  2.4941368473568235e+00 4.6450006864738089e-02 0.0000000000000000e+00  2.4897014821551746e+00 8.0831530629944609e-02 0.0000000000000000e+00  2.4932898703142761e+00 9.5393207510639927e-02 0.0000000000000000e+00  2.4898395549153585e+00 1.4540146282756219e-01 0.0000000000000000e+00  2.4941781911266672e+00 1.7278097182507884e-01 0.0000000000000000e+00  2.4891723607775513e+00 2.0469921173663924e-01 0.0000000000000000e+00  2.4941644123580158e+00 2.5270660915458459e-01 0.0000000000000000e+00  2.4900847271059616e+00 2.6882367756138215e-01 0.0000000000000000e+00  2.4932735863543449e+00 3.1583507875034000e-01 0.0000000000000000e+00  2.4902825263856512e+00 3.5675234122180294e-01 0.0000000000000000e+00  2.4938276813918590e+00 3.6913213484468466e-01 0.0000000000000000e+00  2.4894643996321277e+00 4.2311760147628613e-01 0.0000000000000000e+00  2.4939439305345390e+00 4.6866965055873183e-01 0.0000000000000000e+00  2.4897727904568323e+00 4.5168863790857622e-01 0.0000000000000000e+00  2.4934941870011724e+00 5.6152603648642530e-01 0.0000000000000000e+00  2.4894514749752181e+00 5.3335878449551355e-01 0.0000000000000000e+00  2.4939079887500215e+00 5.9519681908538580e-01 0.0000000000000000e+00  2.4890547414969837e+00 6.3617946163727090e-01 0.0000000000000000e+00  2.4931876687656076e+00 6.5438170404706064e-01 0.0000000000000000e+00  2.4899181776501487e+00 6.9894625874056093e-01 0.0000000000000000e+00  2.4921018790681848e+00 7.2540005149120912e-01 0.0000000000000000e+00  2.4899538226429190e+00 7.8243080098553675e-01 0.0000000000000000e+00  2.4918580496824188e+00 7.7609240726217088e-01 0.0000000000000000e+00  2.4899397797013663e+00 8.5442667067038081e-01 0.0000000000000000e+00  2.4907710567077914e+00 8.6365168771732559e-01 0.0000000000000000e+00  2.4907065258295509e+00 8.9988066811480394e-01 0.0000000000000000e+00  2.4895130807555255e+00 9.4634911408237821e-01 0.0000000000000000e+00  2.4910272940573135e+00 9.7184564934943762e-01 0.0000000000000000e+00  2.4885158561836058e+00 1.0074999593996243e+00 0.0000000000000000e+00  2.4913570802982692e+00 1.0452952316335313e+00 0.0000000000000000e+00  2.4875315608267354e+00 1.0786285566078291e+00 0.0000000000000000e+00  2.4912318926478916e+00 1.1115054461782394e+00 0.0000000000000000e+00  2.4869339519584992e+00 1.1492654602100660e+00 0.0000000000000000e+00  2.4913365441846662e+00 1.1816262011940468e+00 0.0000000000000000e+00  2.4855668494141039e+00 1.2175198580230226e+00 0.0000000000000000e+00  2.4915794223687455e+00 1.2513072332520865e+00 0.0000000000000000e+00  2.4853912503907307e+00 1.2884180213655987e+00 0.0000000000000000e+00  2.4900516400237915e+00 1.3172972108068219e+00 0.0000000000000000e+00  2.4857027018769715e+00 1.3602560948605349e+00 0.0000000000000000e+00  2.4900118519032191e+00 1.3878597868877867e+00 0.0000000000000000e+00  2.4841090473096448e+00 1.4249405591754205e+00 0.0000000000000000e+00  2.4898621755036543e+00 1.4613457404307184e+00 0.0000000000000000e+00  2.4850398139524148e+00 1.4942613593747198e+00 0.0000000000000000e+00  2.4872496052743980e+00 1.5282646925307533e+00 0.0000000000000000e+00  2.4857239680006979e+00 1.5644658948807582e+00 0.0000000000000000e+00  2.4874649953725361e+00 1.6004872305109588e+00 0.0000000000000000e+00  2.4843821607969123e+00 1.6298194850900898e+00 0.0000000000000000e+00  2.4866648983564827e+00 1.6706986403872777e+00 0.0000000000000000e+00  2.4864349817492450e+00 1.7013772657034918e+00 0.0000000000000000e+00  2.4842531861141732e+00 1.7372450648806328e+00 0.0000000000000000e+00  2.4871320006916546e+00 1.7700298166558985e+00 0.0000000000000000e+00  2.4848612851159042e+00 1.8086647081535363e+00 0.0000000000000000e+00  2.4870091468542070e+00 1.8383941549558336e+00 0.0000000000000000e+00  2.4831414129345819e+00 1.8752017099747003e+00 0.0000000000000000e+00  2.4889992687153484e+00 1.9135333201280007e+00 0.0000000000000000e+00  2.4794574668105285e+00 1.9408207933677908e+00 0.0000000000000000e+00  2.4888162261876441e+00 1.9898582746922560e+00 0.0000000000000000e+00  2.4564006261707099e+00 2.0434549776653501e+00 0.0000000000000000e+00  2.7503413092645772e+00 1.5677775834652987e+00 0.0000000000000000e+00  3.8319841496256939e+00 -5.6130845553910436e-01 0.0000000000000000e+00  4.9572052691437172e+00 -2.3486152737981540e+00 0.0000000000000000e+00  5.6182901782359105e+00 -3.2305199171385430e+00 0.0000000000000000e+00  5.9130441633642832e+00 -3.5872030982000642e+00 0.0000000000000000e+00  6.0452520824062530e+00 -3.7103443983648177e+00 0.0000000000000000e+00  6.1053181812630504e+00 -3.7542552431370146e+00 0.0000000000000000e+00  6.1437942596429123e+00 -3.7549598373588400e+00 0.0000000000000000e+00  6.1670067058475659e+00 -3.7459319964402189e+00 0.0000000000000000e+00  6.1883632600617426e+00 -3.7267037423207263e+00 0.0000000000000000e+00  6.2045667349863889e+00 -3.7086623561439631e+00 0.0000000000000000e+00  6.2233224778074261e+00 -3.6867291259939754e+00 0.0000000000000000e+00  6.2397461597817081e+00 -3.6674159514440325e+00 0.0000000000000000e+00  6.2572778523873236e+00 -3.6454616241188642e+00 0.0000000000000000e+00  6.2738548187238301e+00 -3.6247418949532677e+00 0.0000000000000000e+00  6.2913814060226221e+00 -3.6047916634487374e+00 0.0000000000000000e+00  6.3079661991216174e+00 -3.5820757927036935e+00 0.0000000000000000e+00  6.3250897580758183e+00 -3.5627622830475763e+00 0.0000000000000000e+00  6.3427399693525484e+00 -3.5394198670202104e+00 0.0000000000000000e+00  6.3587642032049043e+00 -3.5204879851718736e+00 0.0000000000000000e+00  6.3768528877370567e+00 -3.4961284845627119e+00 0.0000000000000000e+00  6.3932231532940049e+00 -3.4771068664817886e+00 0.0000000000000000e+00  6.4110041489628138e+00 -3.4534911706734643e+00 0.0000000000000000e+00  6.4270790402678744e+00 -3.4322923362576936e+00 0.0000000000000000e+00  6.4457876198251984e+00 -3.4106826429709618e+00 0.0000000000000000e+00  6.4610426581968783e+00 -3.3879424226947785e+00 0.0000000000000000e+00  6.4799144621845919e+00 -3.3669728424650298e+00 0.0000000000000000e+00  6.4956851211003199e+00 -3.3437516882343030e+00 0.0000000000000000e+00  6.5140896262058314e+00 -3.3239251968792947e+00 0.0000000000000000e+00  6.5297351971790230e+00 -3.2990911781658552e+00 0.0000000000000000e+00  6.5488207847043656e+00 -3.2811655030690026e+00 0.0000000000000000e+00  6.5638857601180742e+00 -3.2554576412298450e+00 0.0000000000000000e+00  6.5829679285755969e+00 -3.2372716632216600e+00 0.0000000000000000e+00  6.5985242794898289e+00 -3.2133288358115184e+00 0.0000000000000000e+00  6.6171850884706975e+00 -3.1928821641781995e+00 0.0000000000000000e+00  6.6326349457438774e+00 -3.1712731692390834e+00 0.0000000000000000e+00  6.6517729568648987e+00 -3.1490724356199160e+00 0.0000000000000000e+00  6.6668102448817281e+00 -3.1290897622888578e+00 0.0000000000000000e+00  6.6858507803690435e+00 -3.1048408760248130e+00 0.0000000000000000e+00  6.7012789934992538e+00 -3.0878755452590485e+00 0.0000000000000000e+00  6.7198807536253780e+00 -3.0598268706182830e+00 0.0000000000000000e+00  6.7353668095392063e+00 -3.0463533429919130e+00 0.0000000000000000e+00  6.7539997171266091e+00 -3.0161458879714189e+00 0.0000000000000000e+00  6.7693994749593029e+00 -3.0025636840623755e+00 0.0000000000000000e+00  6.7877253929521855e+00 -2.9742782347122705e+00 0.0000000000000000e+00  6.8034636142996749e+00 -2.9575431163702750e+00 0.0000000000000000e+00  6.8211825850422461e+00 -2.9322090835404166e+00 0.0000000000000000e+00  6.8373066926170614e+00 -2.9129471032548717e+00 0.0000000000000000e+00  6.8544287786492122e+00 -2.8892691319109534e+00 0.0000000000000000e+00  6.8708048269956583e+00 -2.8682466006955423e+00 0.0000000000000000e+00  6.8874769531344100e+00 -2.8462816344358921e+00 0.0000000000000000e+00  6.9039784464047331e+00 -2.8230213431509950e+00 0.0000000000000000e+00  6.9199643849595365e+00 -2.8027113287828258e+00 0.0000000000000000e+00  6.9370722488348884e+00 -2.7780360069694385e+00 0.0000000000000000e+00  6.9519397805859207e+00 -2.7580668714372529e+00 0.0000000000000000e+00  6.9694225423078526e+00 -2.7329698106010309e+00 0.0000000000000000e+00  6.9839215262896728e+00 -2.7125916375174275e+00 0.0000000000000000e+00  7.0010796618331259e+00 -2.6879584050689149e+00 0.0000000000000000e+00  7.0149789921340462e+00 -2.6655300708532885e+00 0.0000000000000000e+00  7.0327956577660506e+00 -2.6431111326288015e+00 0.0000000000000000e+00  7.0452066675026748e+00 -2.6175694141622774e+00 0.0000000000000000e+00  7.0633519910611184e+00 -2.5967754160039882e+00 0.0000000000000000e+00  7.0756126089815128e+00 -2.5697765612734433e+00 0.0000000000000000e+00  7.0928687464562499e+00 -2.5492421260965856e+00 0.0000000000000000e+00  7.1047201698882176e+00 -2.5208304277723483e+00 0.0000000000000000e+00  7.1225906847432334e+00 -2.5013609236680674e+00 0.0000000000000000e+00  7.1326852575357247e+00 -2.4708910758832703e+00 0.0000000000000000e+00  7.1507752418974624e+00 -2.4509025958166561e+00 0.0000000000000000e+00  7.1610233306921067e+00 -2.4214611034569771e+00 0.0000000000000000e+00  7.1775692693032953e+00 -2.3985551521537412e+00 0.0000000000000000e+00  7.1877733499475998e+00 -2.3701682031141553e+00 0.0000000000000000e+00  7.2047279519095273e+00 -2.3478709533744082e+00 0.0000000000000000e+00  7.2130897461086780e+00 -2.3167273154153474e+00 0.0000000000000000e+00  7.2300633445725468e+00 -2.2957779090486246e+00 0.0000000000000000e+00  7.2389956170312049e+00 -2.2643136646388866e+00 0.0000000000000000e+00  7.2537141283179416e+00 -2.2401619760006861e+00 0.0000000000000000e+00  7.2631013517307625e+00 -2.2104917513965505e+00 0.0000000000000000e+00  7.2779619282748147e+00 -2.1846922240154130e+00 0.0000000000000000e+00  7.2854860867669657e+00 -2.1541762636247346e+00 0.0000000000000000e+00  7.3002807605975404e+00 -2.1279420630763197e+00 0.0000000000000000e+00  7.3086236773498863e+00 -2.0982892717804909e+00 0.0000000000000000e+00  7.3207180999396462e+00 -2.0694136393084928e+00 0.0000000000000000e+00  7.3298985181317269e+00 -2.0406676713326974e+00 0.0000000000000000e+00  7.3418754467679070e+00 -2.0124353338665033e+00 0.0000000000000000e+00  7.3493352100686469e+00 -1.9806425602789535e+00 0.0000000000000000e+00  7.3611025879745720e+00 -1.9542077142101046e+00 0.0000000000000000e+00  7.3695873637505356e+00 -1.9215108081905934e+00 0.0000000000000000e+00  7.3784290782423083e+00 -1.8936874443304135e+00 0.0000000000000000e+00  7.3879921574652831e+00 -1.8607230350533697e+00 0.0000000000000000e+00  7.3965427938806627e+00 -1.8338959152035113e+00 0.0000000000000000e+00  7.4045119098262324e+00 -1.7975060457160290e+00 0.0000000000000000e+00  7.4129129150697350e+00 -1.7722375588498813e+00 0.0000000000000000e+00  7.4217356734542550e+00 -1.7358398028825117e+00 0.0000000000000000e+00  7.4274826078328680e+00 -1.7076130764445270e+00 0.0000000000000000e+00  7.4372769586951799e+00 -1.6736076522861658e+00 0.0000000000000000e+00  7.4427419870391747e+00 -1.6439418379733626e+00 0.0000000000000000e+00  7.4510004885982024e+00 -1.6096748446438265e+00 0.0000000000000000e+00  7.4565418761203244e+00 -1.5787746332373682e+00 0.0000000000000000e+00  7.4652329783340345e+00 -1.5481346549870976e+00 0.0000000000000000e+00  7.4686772459317901e+00 -1.5103449847976982e+00 0.0000000000000000e+00  7.4780915267720820e+00 -1.4860131520449860e+00 0.0000000000000000e+00  7.4812718407865875e+00 -1.4431736122810845e+00 0.0000000000000000e+00  7.4893186909598910e+00 -1.4203025939535248e+00 0.0000000000000000e+00  7.4927109067781306e+00 -1.3774743622578205e+00 0.0000000000000000e+00  7.5008274903965075e+00 -1.3528320402505558e+00 0.0000000000000000e+00  7.5026664035752999e+00 -1.3111828420015033e+00 0.0000000000000000e+00  7.5113079024075056e+00 -1.2844985917006930e+00 0.0000000000000000e+00  7.5128090131078640e+00 -1.2464841438563949e+00 0.0000000000000000e+00  7.5203663964737872e+00 -1.2142225758597678e+00 0.0000000000000000e+00  7.5221398515647842e+00 -1.1833727296691532e+00 0.0000000000000000e+00  7.5294099510591188e+00 -1.1451870101639572e+00 0.0000000000000000e+00  7.5302381440188784e+00 -1.1170984455535571e+00 0.0000000000000000e+00  7.5377125830072336e+00 -1.0800303137518652e+00 0.0000000000000000e+00  7.5382655388098794e+00 -1.0499760628331849e+00 0.0000000000000000e+00  7.5448285728974351e+00 -1.0144434935071882e+00 0.0000000000000000e+00  7.5457346215724401e+00 -9.8319793517109888e-01 0.0000000000000000e+00  7.5516919638602706e+00 -9.4934717760698839e-01 0.0000000000000000e+00  7.5521836252441066e+00 -9.1262941616399429e-01 0.0000000000000000e+00  7.5580598892075557e+00 -8.8633292771948879e-01 0.0000000000000000e+00  7.5582491718900382e+00 -8.3948004417190591e-01 0.0000000000000000e+00  7.5635578162643791e+00 -8.2033069653183610e-01 0.0000000000000000e+00  7.5638281948106387e+00 -7.6888301568558792e-01 0.0000000000000000e+00  7.5686114005568657e+00 -7.5231950980988271e-01 0.0000000000000000e+00  7.5685926518449644e+00 -7.0472962617671164e-01 0.0000000000000000e+00  7.5732855785039987e+00 -6.8837645008501991e-01 0.0000000000000000e+00  7.5727680441188037e+00 -6.4234816914188075e-01 0.0000000000000000e+00  7.5773764462290920e+00 -6.2335976830834139e-01 0.0000000000000000e+00  7.5766012028270984e+00 -5.7575858252227352e-01 0.0000000000000000e+00  7.5808530043758093e+00 -5.5268972994370313e-01 0.0000000000000000e+00  7.5799239913909204e+00 -5.0793113142093516e-01 0.0000000000000000e+00  7.5839696744021374e+00 -4.8089092047387449e-01 0.0000000000000000e+00  7.5825048269357493e+00 -4.2549845840054418e-01 0.0000000000000000e+00  7.5867047286945191e+00 -4.0093524819066356e-01 0.0000000000000000e+00  7.5846695131314785e+00 -3.5248355887941335e-01 0.0000000000000000e+00  7.5885616823229807e+00 -3.1744814469148430e-01 0.0000000000000000e+00  7.5864823122932696e+00 -2.8020662132274449e-01 0.0000000000000000e+00  7.5900685063754345e+00 -2.3403228920481275e-01 0.0000000000000000e+00  7.5873085563626272e+00 -2.1083622467687174e-01 0.0000000000000000e+00  7.5912235824169754e+00 -1.5683296112123049e-01 0.0000000000000000e+00  7.5879884536806701e+00 -1.4571726489195144e-01 0.0000000000000000e+00  7.5916213111681614e+00 -4.4216632528350112e-02 0.0000000000000000e+00  7.5887493870074092e+00 0.0000000000000000e+00 0.0000000000000000e+00  2.4919336848054021e+00 0.0000000000000000e+00 1.9445843924332260e-03  2.4930371902681077e+00 2.7633100368148603e-02 -6.5904067116504799e-03  2.4913305146541518e+00 6.8793806012565323e-02 -4.0456392289640901e-03  2.4923820898249014e+00 1.0974774047218024e-01 2.2493619900403067e-02  2.4921826963151021e+00 1.2969711744702594e-01 -2.4911207369087834e-02  2.4913277633068347e+00 1.8207151182518250e-01 2.4489082792219546e-02  2.4919441480648188e+00 1.9840416077541340e-01 -2.0163060512833793e-02  2.4921051801552250e+00 2.5486342405931112e-01 8.4543725834046925e-03  2.4906611068693079e+00 2.6813657390021967e-01 1.0061062226190689e-02  2.4922902591416736e+00 3.1643097708777129e-01 -2.6987586231357674e-02  2.4910170968444905e+00 3.5374854727695698e-01 3.3025930411608888e-02  2.4912858975035364e+00 3.6406286498419466e-01 -2.5026578093225105e-02  2.4912939652131674e+00 4.4358028394529819e-01 8.3972507171186823e-03  2.4912103438399260e+00 4.2450591179846225e-01 7.4044391336405609e-03  2.4909929717435650e+00 5.0142476431829441e-01 -1.6158894628135557e-02  2.4906899399367681e+00 5.2769643617437878e-01 1.7870763062753009e-02  2.4915116714602488e+00 5.3068410889555662e-01 -1.6248813220673067e-02  2.4900824383887166e+00 6.2001182796077536e-01 1.4046527248937211e-02  2.4910720860708526e+00 6.0657160571443991e-01 -1.3099166056931625e-02  2.4906465114403136e+00 6.6540064998934789e-01 1.2366700096518544e-02  2.4904328774834603e+00 6.9400148271725226e-01 -1.1461330949238522e-02  2.4902668911709109e+00 7.3872959163747320e-01 1.1088399120267567e-02  2.4908465531375232e+00 7.4798433899204531e-01 -1.0073324509564937e-02  2.4898350177989297e+00 8.1340609785122242e-01 7.6027519630782947e-03  2.4902823827760185e+00 8.3390475206318204e-01 -2.4639083605570958e-03  2.4904700294219873e+00 8.5770506923700995e-01 -3.3862870576770146e-03  2.4895715693535312e+00 9.1788690650974059e-01 6.7028461258515602e-03  2.4903363882561820e+00 9.3152251153831389e-01 -6.8449168605731617e-03  2.4896735880842140e+00 9.7461779409556459e-01 4.1684879487561919e-03  2.4899501887761653e+00 1.0096822192295323e+00 -1.6844356991104097e-03  2.4896531345728294e+00 1.0447170657336080e+00 4.3889957489103568e-04  2.4895303678179834e+00 1.0757275089249489e+00 -8.5859119814262142e-05  2.4897784393695765e+00 1.1156487613773278e+00 -7.5384565138278501e-04  2.4892797217908842e+00 1.1478265179471938e+00 2.1307439066191466e-03  2.4892917457594006e+00 1.1819898322106495e+00 -3.7983669354160195e-03  2.4892880048553612e+00 1.2199689928898787e+00 5.0044198528958785e-03  2.4895249219937736e+00 1.2509559784769484e+00 -6.0501978638939835e-03  2.4880177528044380e+00 1.2892847141732755e+00 6.8291987859972524e-03  2.4900104033399528e+00 1.3208277511367250e+00 -7.1662355129950214e-03  2.4881885851993490e+00 1.3609158471199143e+00 6.9551995528316897e-03  2.4885082139755297e+00 1.3867232204249116e+00 -6.5117429832981140e-03  2.4885835575189676e+00 1.4334141281091366e+00 6.1023601071904764e-03  2.4890029125095010e+00 1.4574770899531766e+00 -5.9329012346282135e-03  2.4867090192933974e+00 1.4991670107347936e+00 5.5330753474690441e-03  2.4892508921810013e+00 1.5298058729017794e+00 -5.2204105134945359e-03  2.4874753198669870e+00 1.5700064528188078e+00 4.8200039038992070e-03  2.4871171949277819e+00 1.5964489118351519e+00 -4.8294106018258749e-03  2.4873974069381370e+00 1.6405625132922592e+00 4.6544223686351771e-03  2.4879206870272910e+00 1.6688422410196022e+00 -4.6552954924654940e-03  2.4852178511606708e+00 1.7070722650894297e+00 3.9573340236740678e-03  2.4871337900259212e+00 1.7392557843994925e+00 -3.9306173626313589e-03  2.4859421969038173e+00 1.7792222925576577e+00 3.0083464323242873e-03  2.4848290345512725e+00 1.8075430844161324e+00 -3.2976494834464792e-03  2.4848217917776774e+00 1.8477037318942271e+00 2.0274133666438984e-03  2.4851087384872521e+00 1.8808406628269363e+00 -1.9894909523592436e-03  2.4837060764781151e+00 1.9145076698929966e+00 1.1152944014371168e-03  2.4841742846503010e+00 1.9492055018695982e+00 -1.0200312924834095e-03  2.4858010465681240e+00 1.9850496408268046e+00 3.2892086851117768e-03  2.4814844352269678e+00 2.0174589699994310e+00 -5.5800594779790947e-03  2.7303166568805146e+00 1.5818626849803514e+00 -3.3048786154967090e-03  3.8149015237717445e+00 -4.8758757448260898e-01 3.0490784788179424e-02  5.0014811588733377e+00 -2.3819304484975072e+00 -1.1023184767831202e-02  5.6223662874991511e+00 -3.2235636366107814e+00 -6.8993354939960476e-03  5.9057800416463930e+00 -3.5619866439268377e+00 -2.5288545223454569e-03  6.0448839636876333e+00 -3.6914263414916504e+00 7.0490995100298010e-03  6.1106387666651791e+00 -3.7396156391705566e+00 -2.1680167222305883e-03  6.1495617811306875e+00 -3.7365544040371956e+00 4.6852027460144042e-03  6.1711445529665054e+00 -3.7296444166702849e+00 -3.5421112557733241e-03  6.1924943644983674e+00 -3.7060960040587165e+00 4.0339051304747534e-03  6.2089318348358171e+00 -3.6908333652076193e+00 -3.6689696175702924e-03  6.2285567310917527e+00 -3.6645587880048347e+00 3.7499581076866420e-03  6.2434124390131407e+00 -3.6478054053250459e+00 -3.3267125208521348e-03  6.2624996303667197e+00 -3.6210485901124687e+00 3.3141090019095810e-03  6.2780696226564752e+00 -3.6044961913732094e+00 -2.8186231473004831e-03  6.2965337912226760e+00 -3.5777271422916526e+00 2.7613788966767386e-03  6.3123272476108241e+00 -3.5602350061883894e+00 -2.3745099153799059e-03  6.3311016118166563e+00 -3.5351956061837053e+00 2.2187756089878398e-03  6.3465144894240577e+00 -3.5168864826782373e+00 -2.0330708758685965e-03  6.3651638051258272e+00 -3.4924097861350534e+00 1.7841755912947090e-03  6.3814730641883202e+00 -3.4740333185371508e+00 -1.8802719212424105e-03  6.3992998690975487e+