<?xml version="1.0"?>
<VTKFile type="UnstructuredGrid"  version="0.1"  >
<UnstructuredGrid>
<Piece  NumberOfPoints="8241" NumberOfCells="16000">
<Points>
<DataArray  type="Float64"  NumberOfComponents="3"  format="ascii">-5 -1 0  -4.95 -1 0  -4.9 -1 0  -4.85 -1 0  -4.8 -1 0  -4.75 -1 0  -4.7 -1 0  -4.65 -1 0  -4.6 -1 0  -4.55 -1 0  -4.5 -1 0  -4.45 -1 0  -4.4 -1 0  -4.35 -1 0  -4.3 -1 0  -4.25 -1 0  -4.2 -1 0  -4.15 -1 0  -4.1 -1 0  -4.05 -1 0  -4 -1 0  -3.95 -1 0  -3.9 -1 0  -3.85 -1 0  -3.8 -1 0  -3.75 -1 0  -3.7 -1 0  -3.65 -1 0  -3.6 -1 0  -3.55 -1 0  -3.5 -1 0  -3.45 -1 0  -3.4 -1 0  -3.35 -1 0  -3.3 -1 0  -3.25 -1 0  -3.2 -1 0  -3.15 -1 0  -3.1 -1 0  -3.05 -1 0  -3 -1 0  -2.95 -1 0  -2.9 -1 0  -2.85 -1 0  -2.8 -1 0  -2.75 -1 0  -2.7 -1 0  -2.65 -1 0  -2.6 -1 0  -2.55 -1 0  -2.5 -1 0  -2.45 -1 0  -2.4 -1 0  -2.35 -1 0  -2.3 -1 0  -2.25 -1 0  -2.2 -1 0  -2.15 -1 0  -2.1 -1 0  -2.05 -1 0  -2 -1 0  -1.95 -1 0  -1.9 -1 0  -1.85 -1 0  -1.8 -1 0  -1.75 -1 0  -1.7 -1 0  -1.65 -1 0  -1.6 -1 0  -1.55 -1 0  -1.5 -1 0  -1.45 -1 0  -1.4 -1 0  -1.35 -1 0  -1.3 -1 0  -1.25 -1 0  -1.2 -1 0  -1.15 -1 0  -1.1 -1 0  -1.05 -1 0  -1 -1 0  -0.9500000000000002 -1 0  -0.9000000000000004 -1 0  -0.8499999999999996 -1 0  -0.7999999999999998 -1 0  -0.75 -1 0  -0.7000000000000002 -1 0  -0.6500000000000004 -1 0  -0.5999999999999996 -1 0  -0.5499999999999998 -1 0  -0.5 -1 0  -0.4500000000000002 -1 0  -0.4000000000000004 -1 0  -0.3499999999999996 -1 0  -0.2999999999999998 -1 0  -0.25 -1 0  -0.2000000000000002 -1 0  -0.1500000000000004 -1 0  -0.09999999999999964 -1 0  -0.04999999999999982 -1 0  0 -1 0  0.04999999999999982 -1 0  0.09999999999999964 -1 0  0.1500000000000004 -1 0  0.2000000000000002 -1 0  0.25 -1 0  0.2999999999999998 -1 0  0.3499999999999996 -1 0  0.4000000000000004 -1 0  0.4500000000000002 -1 0  0.5 -1 0  0.5499999999999998 -1 0  0.5999999999999996 -1 0  0.6500000000000004 -1 0  0.7000000000000002 -1 0  0.75 -1 0  0.7999999999999998 -1 0  0.8499999999999996 -1 0  0.9000000000000004 -1 0  0.9500000000000002 -1 0  1 -1 0  1.05 -1 0  1.1 -1 0  1.15 -1 0  1.2 -1 0  1.25 -1 0  1.3 -1 0  1.35 -1 0  1.4 -1 0  1.45 -1 0  1.5 -1 0  1.55 -1 0  1.6 -1 0  1.65 -1 0  1.7 -1 0  1.75 -1 0  1.8 -1 0  1.85 -1 0  1.9 -1 0  1.95 -1 0  2 -1 0  2.05 -1 0  2.1 -1 0  2.15 -1 0  2.2 -1 0  2.25 -1 0  2.3 -1 0  2.35 -1 0  2.4 -1 0  2.45 -1 0  2.5 -1 0  2.55 -1 0  2.6 -1 0  2.65 -1 0  2.7 -1 0  2.75 -1 0  2.8 -1 0  2.85 -1 0  2.9 -1 0  2.95 -1 0  3 -1 0  3.050000000000001 -1 0  3.1 -1 0  3.15 -1 0  3.199999999999999 -1 0  3.25 -1 0  3.300000000000001 -1 0  3.35 -1 0  3.4 -1 0  3.449999999999999 -1 0  3.5 -1 0  3.550000000000001 -1 0  3.6 -1 0  3.65 -1 0  3.699999999999999 -1 0  3.75 -1 0  3.800000000000001 -1 0  3.85 -1 0  3.9 -1 0  3.949999999999999 -1 0  4 -1 0  4.050000000000001 -1 0  4.1 -1 0  4.15 -1 0  4.199999999999999 -1 0  4.25 -1 0  4.300000000000001 -1 0  4.35 -1 0  4.4 -1 0  4.449999999999999 -1 0  4.5 -1 0  4.550000000000001 -1 0  4.6 -1 0  4.65 -1 0  4.699999999999999 -1 0  4.75 -1 0  4.800000000000001 -1 0  4.85 -1 0  4.9 -1 0  4.949999999999999 -1 0  5 -1 0  -5 -0.95 0  -4.95 -0.95 0  -4.9 -0.95 0  -4.85 -0.95 0  -4.8 -0.95 0  -4.75 -0.95 0  -4.7 -0.95 0  -4.65 -0.95 0  -4.6 -0.95 0  -4.55 -0.95 0  -4.5 -0.95 0  -4.45 -0.95 0  -4.4 -0.95 0  -4.35 -0.95 0  -4.3 -0.95 0  -4.25 -0.95 0  -4.2 -0.95 0  -4.15 -0.95 0  -4.1 -0.95 0  -4.05 -0.95 0  -4 -0.95 0  -3.95 -0.95 0  -3.9 -0.95 0  -3.85 -0.95 0  -3.8 -0.95 0  -3.75 -0.95 0  -3.7 -0.95 0  -3.65 -0.95 0  -3.6 -0.95 0  -3.55 -0.95 0  -3.5 -0.95 0  -3.45 -0.95 0  -3.4 -0.95 0  -3.35 -0.95 0  -3.3 -0.95 0  -3.25 -0.95 0  -3.2 -0.95 0  -3.15 -0.95 0  -3.1 -0.95 0  -3.05 -0.95 0  -3 -0.95 0  -2.95 -0.95 0  -2.9 -0.95 0  -2.85 -0.95 0  -2.8 -0.95 0  -2.75 -0.95 0  -2.7 -0.95 0  -2.65 -0.95 0  -2.6 -0.95 0  -2.55 -0.95 0  -2.5 -0.95 0  -2.45 -0.95 0  -2.4 -0.95 0  -2.35 -0.95 0  -2.3 -0.95 0  -2.25 -0.95 0  -2.2 -0.95 0  -2.15 -0.95 0  -2.1 -0.95 0  -2.05 -0.95 0  -2 -0.95 0  -1.95 -0.95 0  -1.9 -0.95 0  -1.85 -0.95 0  -1.8 -0.95 0  -1.75 -0.95 0  -1.7 -0.95 0  -1.65 -0.95 0  -1.6 -0.95 0  -1.55 -0.95 0  -1.5 -0.95 0  -1.45 -0.95 0  -1.4 -0.95 0  -1.35 -0.95 0  -1.3 -0.95 0  -1.25 -0.95 0  -1.2 -0.95 0  -1.15 -0.95 0  -1.1 -0.95 0  -1.05 -0.95 0  -1 -0.95 0  -0.9500000000000002 -0.95 0  -0.9000000000000004 -0.95 0  -0.8499999999999996 -0.95 0  -0.7999999999999998 -0.95 0  -0.75 -0.95 0  -0.7000000000000002 -0.95 0  -0.6500000000000004 -0.95 0  -0.5999999999999996 -0.95 0  -0.5499999999999998 -0.95 0  -0.5 -0.95 0  -0.4500000000000002 -0.95 0  -0.4000000000000004 -0.95 0  -0.3499999999999996 -0.95 0  -0.2999999999999998 -0.95 0  -0.25 -0.95 0  -0.2000000000000002 -0.95 0  -0.1500000000000004 -0.95 0  -0.09999999999999964 -0.95 0  -0.04999999999999982 -0.95 0  0 -0.95 0  0.04999999999999982 -0.95 0  0.09999999999999964 -0.95 0  0.1500000000000004 -0.95 0  0.2000000000000002 -0.95 0  0.25 -0.95 0  0.2999999999999998 -0.95 0  0.3499999999999996 -0.95 0  0.4000000000000004 -0.95 0  0.4500000000000002 -0.95 0  0.5 -0.95 0  0.5499999999999998 -0.95 0  0.5999999999999996 -0.95 0  0.6500000000000004 -0.95 0  0.7000000000000002 -0.95 0  0.75 -0.95 0  0.7999999999999998 -0.95 0  0.8499999999999996 -0.95 0  0.9000000000000004 -0.95 0  0.9500000000000002 -0.95 0  1 -0.95 0  1.05 -0.95 0  1.1 -0.95 0  1.15 -0.95 0  1.2 -0.95 0  1.25 -0.95 0  1.3 -0.95 0  1.35 -0.95 0  1.4 -0.95 0  1.45 -0.95 0  1.5 -0.95 0  1.55 -0.95 0  1.6 -0.95 0  1.65 -0.95 0  1.7 -0.95 0  1.75 -0.95 0  1.8 -0.95 0  1.85 -0.95 0  1.9 -0.95 0  1.95 -0.95 0  2 -0.95 0  2.05 -0.95 0  2.1 -0.95 0  2.15 -0.95 0  2.2 -0.95 0  2.25 -0.95 0  2.3 -0.95 0  2.35 -0.95 0  2.4 -0.95 0  2.45 -0.95 0  2.5 -0.95 0  2.55 -0.95 0  2.6 -0.95 0  2.65 -0.95 0  2.7 -0.95 0  2.75 -0.95 0  2.8 -0.95 0  2.85 -0.95 0  2.9 -0.95 0  2.95 -0.95 0  3 -0.95 0  3.050000000000001 -0.95 0  3.1 -0.95 0  3.15 -0.95 0  3.199999999999999 -0.95 0  3.25 -0.95 0  3.300000000000001 -0.95 0  3.35 -0.95 0  3.4 -0.95 0  3.449999999999999 -0.95 0  3.5 -0.95 0  3.550000000000001 -0.95 0  3.6 -0.95 0  3.65 -0.95 0  3.699999999999999 -0.95 0  3.75 -0.95 0  3.800000000000001 -0.95 0  3.85 -0.95 0  3.9 -0.95 0  3.949999999999999 -0.95 0  4 -0.95 0  4.050000000000001 -0.95 0  4.1 -0.95 0  4.15 -0.95 0  4.199999999999999 -0.95 0  4.25 -0.95 0  4.300000000000001 -0.95 0  4.35 -0.95 0  4.4 -0.95 0  4.449999999999999 -0.95 0  4.5 -0.95 0  4.550000000000001 -0.95 0  4.6 -0.95 0  4.65 -0.95 0  4.699999999999999 -0.95 0  4.75 -0.95 0  4.800000000000001 -0.95 0  4.85 -0.95 0  4.9 -0.95 0  4.949999999999999 -0.95 0  5 -0.95 0  -5 -0.9 0  -4.95 -0.9 0  -4.9 -0.9 0  -4.85 -0.9 0  -4.8 -0.9 0  -4.75 -0.9 0  -4.7 -0.9 0  -4.65 -0.9 0  -4.6 -0.9 0  -4.55 -0.9 0  -4.5 -0.9 0  -4.45 -0.9 0  -4.4 -0.9 0  -4.35 -0.9 0  -4.3 -0.9 0  -4.25 -0.9 0  -4.2 -0.9 0  -4.15 -0.9 0  -4.1 -0.9 0  -4.05 -0.9 0  -4 -0.9 0  -3.95 -0.9 0  -3.9 -0.9 0  -3.85 -0.9 0  -3.8 -0.9 0  -3.75 -0.9 0  -3.7 -0.9 0  -3.65 -0.9 0  -3.6 -0.9 0  -3.55 -0.9 0  -3.5 -0.9 0  -3.45 -0.9 0  -3.4 -0.9 0  -3.35 -0.9 0  -3.3 -0.9 0  -3.25 -0.9 0  -3.2 -0.9 0  -3.15 -0.9 0  -3.1 -0.9 0  -3.05 -0.9 0  -3 -0.9 0  -2.95 -0.9 0  -2.9 -0.9 0  -2.85 -0.9 0  -2.8 -0.9 0  -2.75 -0.9 0  -2.7 -0.9 0  -2.65 -0.9 0  -2.6 -0.9 0  -2.55 -0.9 0  -2.5 -0.9 0  -2.45 -0.9 0  -2.4 -0.9 0  -2.35 -0.9 0  -2.3 -0.9 0  -2.25 -0.9 0  -2.2 -0.9 0  -2.15 -0.9 0  -2.1 -0.9 0  -2.05 -0.9 0  -2 -0.9 0  -1.95 -0.9 0  -1.9 -0.9 0  -1.85 -0.9 0  -1.8 -0.9 0  -1.75 -0.9 0  -1.7 -0.9 0  -1.65 -0.9 0  -1.6 -0.9 0  -1.55 -0.9 0  -1.5 -0.9 0  -1.45 -0.9 0  -1.4 -0.9 0  -1.35 -0.9 0  -1.3 -0.9 0  -1.25 -0.9 0  -1.2 -0.9 0  -1.15 -0.9 0  -1.1 -0.9 0  -1.05 -0.9 0  -1 -0.9 0  -0.9500000000000002 -0.9 0  -0.9000000000000004 -0.9 0  -0.8499999999999996 -0.9 0  -0.7999999999999998 -0.9 0  -0.75 -0.9 0  -0.7000000000000002 -0.9 0  -0.6500000000000004 -0.9 0  -0.5999999999999996 -0.9 0  -0.5499999999999998 -0.9 0  -0.5 -0.9 0  -0.4500000000000002 -0.9 0  -0.4000000000000004 -0.9 0  -0.3499999999999996 -0.9 0  -0.2999999999999998 -0.9 0  -0.25 -0.9 0  -0.2000000000000002 -0.9 0  -0.1500000000000004 -0.9 0  -0.09999999999999964 -0.9 0  -0.04999999999999982 -0.9 0  0 -0.9 0  0.04999999999999982 -0.9 0  0.09999999999999964 -0.9 0  0.1500000000000004 -0.9 0  0.2000000000000002 -0.9 0  0.25 -0.9 0  0.2999999999999998 -0.9 0  0.3499999999999996 -0.9 0  0.4000000000000004 -0.9 0  0.4500000000000002 -0.9 0  0.5 -0.9 0  0.5499999999999998 -0.9 0  0.5999999999999996 -0.9 0  0.6500000000000004 -0.9 0  0.7000000000000002 -0.9 0  0.75 -0.9 0  0.7999999999999998 -0.9 0  0.8499999999999996 -0.9 0  0.9000000000000004 -0.9 0  0.9500000000000002 -0.9 0  1 -0.9 0  1.05 -0.9 0  1.1 -0.9 0  1.15 -0.9 0  1.2 -0.9 0  1.25 -0.9 0  1.3 -0.9 0  1.35 -0.9 0  1.4 -0.9 0  1.45 -0.9 0  1.5 -0.9 0  1.55 -0.9 0  1.6 -0.9 0  1.65 -0.9 0  1.7 -0.9 0  1.75 -0.9 0  1.8 -0.9 0  1.85 -0.9 0  1.9 -0.9 0  1.95 -0.9 0  2 -0.9 0  2.05 -0.9 0  2.1 -0.9 0  2.15 -0.9 0  2.2 -0.9 0  2.25 -0.9 0  2.3 -0.9 0  2.35 -0.9 0  2.4 -0.9 0  2.45 -0.9 0  2.5 -0.9 0  2.55 -0.9 0  2.6 -0.9 0  2.65 -0.9 0  2.7 -0.9 0  2.75 -0.9 0  2.8 -0.9 0  2.85 -0.9 0  2.9 -0.9 0  2.95 -0.9 0  3 -0.9 0  3.050000000000001 -0.9 0  3.1 -0.9 0  3.15 -0.9 0  3.199999999999999 -0.9 0  3.25 -0.9 0  3.300000000000001 -0.9 0  3.35 -0.9 0  3.4 -0.9 0  3.449999999999999 -0.9 0  3.5 -0.9 0  3.550000000000001 -0.9 0  3.6 -0.9 0  3.65 -0.9 0  3.699999999999999 -0.9 0  3.75 -0.9 0  3.800000000000001 -0.9 0  3.85 -0.9 0  3.9 -0.9 0  3.949999999999999 -0.9 0  4 -0.9 0  4.050000000000001 -0.9 0  4.1 -0.9 0  4.15 -0.9 0  4.199999999999999 -0.9 0  4.25 -0.9 0  4.300000000000001 -0.9 0  4.35 -0.9 0  4.4 -0.9 0  4.449999999999999 -0.9 0  4.5 -0.9 0  4.550000000000001 -0.9 0  4.6 -0.9 0  4.65 -0.9 0  4.699999999999999 -0.9 0  4.75 -0.9 0  4.800000000000001 -0.9 0  4.85 -0.9 0  4.9 -0.9 0  4.949999999999999 -0.9 0  5 -0.9 0  -5 -0.85 0  -4.95 -0.85 0  -4.9 -0.85 0  -4.85 -0.85 0  -4.8 -0.85 0  -4.75 -0.85 0  -4.7 -0.85 0  -4.65 -0.85 0  -4.6 -0.85 0  -4.55 -0.85 0  -4.5 -0.85 0  -
[...]
<PointData  Vectors="f_15"> 
<DataArray  type="Float64"  Name="f_15"  NumberOfComponents="3" format="ascii">9.9800138211363016e+00 0.0000000000000000e+00 0.0000000000000000e+00  9.9794947174644300e+00 4.7739986345554930e-03 0.0000000000000000e+00  9.9779935441382523e+00 9.6752762570662208e-03 0.0000000000000000e+00  9.9754219805812294e+00 1.4973526008243643e-02 0.0000000000000000e+00  9.9717938178482797e+00 2.0733164323068216e-02 0.0000000000000000e+00  9.9669755427531257e+00 2.7218809487249394e-02 0.0000000000000000e+00  9.9609551014487767e+00 3.4517497475613772e-02 0.0000000000000000e+00  9.9535910713481748e+00 4.2865743545977039e-02 0.0000000000000000e+00  9.9448117902958231e+00 5.2357872744423509e-02 0.0000000000000000e+00  9.9344932190243682e+00 6.3227244861666879e-02 0.0000000000000000e+00  9.9225503209566153e+00 7.5540825645425663e-02 0.0000000000000000e+00  9.9088402144760028e+00 8.9525687789045391e-02 0.0000000000000000e+00  9.8932952605595759e+00 1.0523912564067280e-01 0.0000000000000000e+00  9.8758030928801510e+00 1.2286554676570463e-01 0.0000000000000000e+00  9.8562671370277393e+00 1.4244645157310631e-01 0.0000000000000000e+00  9.8346399828691897e+00 1.6415279707725822e-01 0.0000000000000000e+00  9.8108450366276188e+00 1.8795959081841837e-01 0.0000000000000000e+00  9.7848354990613498e+00 2.1403771907003336e-01 0.0000000000000000e+00  9.7565949390848452e+00 2.4231862368920890e-01 0.0000000000000000e+00  9.7261184767438298e+00 2.7292962511368601e-01 0.0000000000000000e+00  9.6933717144560543e+00 3.0577674203541666e-01 0.0000000000000000e+00  9.6584304697631005e+00 3.4097621173243226e-01 0.0000000000000000e+00  9.6212853295432623e+00 3.7835524544283178e-01 0.0000000000000000e+00  9.5819928511685735e+00 4.1806075019228772e-01 0.0000000000000000e+00  9.5406193700677981e+00 4.5985930454278262e-01 0.0000000000000000e+00  9.4972350091043456e+00 5.0388730967651096e-01 0.0000000000000000e+00  9.4518800084892742e+00 5.4988957074783695e-01 0.0000000000000000e+00  9.4046867623431112e+00 5.9801532239217792e-01 0.0000000000000000e+00  9.3557075244278316e+00 6.4793991586291289e-01 0.0000000000000000e+00  9.3050263147379262e+00 6.9987209409685780e-01 0.0000000000000000e+00  9.2527672415802442e+00 7.5342997861749195e-01 0.0000000000000000e+00  9.1989930003384917e+00 8.0884776867564756e-01 0.0000000000000000e+00  9.1438039743479358e+00 8.6571399712349217e-01 0.0000000000000000e+00  9.0872948426278057e+00 9.2430944986199604e-01 0.0000000000000000e+00  9.0295663523989838e+00 9.8416316982171692e-01 0.0000000000000000e+00  8.9706654215668600e+00 1.0456123022274533e+00 0.0000000000000000e+00  8.9107420039994629e+00 1.1081520105533551e+00 0.0000000000000000e+00  8.8498041850687965e+00 1.1721624742128367e+00 0.0000000000000000e+00  8.7880047418726761e+00 1.2370858046217306e+00 0.0000000000000000e+00  8.7253451790535497e+00 1.3033705254776975e+00 0.0000000000000000e+00  8.6619730374777646e+00 1.3704407264952596e+00 0.0000000000000000e+00  8.5978790246751622e+00 1.4387084239025114e+00 0.0000000000000000e+00  8.5332152211539949e+00 1.5076849806624306e+00 0.0000000000000000e+00  8.4679319231872032e+00 1.5777239893868382e+00 0.0000000000000000e+00  8.4022314121831254e+00 1.6483740001010525e+00 0.0000000000000000e+00  8.3360080828219907e+00 1.7199369192723926e+00 0.0000000000000000e+00  8.2694559795899174e+00 1.7921308066616344e+00 0.0000000000000000e+00  8.2025209643226749e+00 1.8649841587004599e+00 0.0000000000000000e+00  8.1353351677406458e+00 1.9385174017215994e+00 0.0000000000000000e+00  8.0678220776038572e+00 2.0125664891913866e+00 0.0000000000000000e+00  8.0002035914709957e+00 2.0872294017730080e+00 0.0000000000000000e+00  7.9323080970318705e+00 2.1623049684332654e+00 0.0000000000000000e+00  7.8643414169864352e+00 2.2380085408840342e+00 0.0000000000000000e+00  7.7962456406365064e+00 2.3139660020398578e+00 0.0000000000000000e+00  7.7281022880384205e+00 2.3905224154751785e+00 0.0000000000000000e+00  7.6598560413957388e+00 2.4673162256320103e+00 0.0000000000000000e+00  7.5916968974936196e+00 2.5446016723689984e+00 0.0000000000000000e+00  7.5234533091721234e+00 2.6220733746462814e+00 0.0000000000000000e+00  7.4553006050495592e+00 2.7000211148131745e+00 0.0000000000000000e+00  7.3872031090042620e+00 2.7781091872046599e+00 0.0000000000000000e+00  7.3191902670640330e+00 2.8565714994360936e+00 0.0000000000000000e+00  7.2512449423868031e+00 2.9351939226584998e+00 0.0000000000000000e+00  7.1834977553564423e+00 3.0141339724787057e+00 0.0000000000000000e+00  7.1158181987091549e+00 3.0931919876806440e+00 0.0000000000000000e+00  7.0483374840110411e+00 3.1725130751748272e+00 0.0000000000000000e+00  6.9810275797173436e+00 3.2519509290453397e+00 0.0000000000000000e+00  6.9139132211581753e+00 3.3316068331339066e+00 0.0000000000000000e+00  6.8469695146211320e+00 3.4113603119933211e+00 0.0000000000000000e+00  6.7803096921835326e+00 3.4912513355144501e+00 0.0000000000000000e+00  6.7138114795444297e+00 3.5712805310067468e+00 0.0000000000000000e+00  6.6476115760221406e+00 3.6513975190406085e+00 0.0000000000000000e+00  6.5816244095012975e+00 3.7316134035216173e+00 0.0000000000000000e+00  6.5159510441188075e+00 3.8118770868403375e+00 0.0000000000000000e+00  6.4504827445174371e+00 3.8922837831055701e+00 0.0000000000000000e+00  6.3853906318526654e+00 3.9726481686531390e+00 0.0000000000000000e+00  6.3204882325298772e+00 4.0531748581508049e+00 0.0000000000000000e+00  6.2559936944931538e+00 4.1336150443164721e+00 0.0000000000000000e+00  6.1916984096561460e+00 4.2142251319946435e+00 0.0000000000000000e+00  6.1278371412324493e+00 4.2946995343315679e+00 0.0000000000000000e+00  6.0641689012612572e+00 4.3753653741234526e+00 0.0000000000000000e+00  6.0009751856217353e+00 4.4558383862319060e+00 0.0000000000000000e+00  5.9379612549572425e+00 4.5365162282616529e+00 0.0000000000000000e+00  5.8754566569389768e+00 4.6169601238782167e+00 0.0000000000000000e+00  5.8131337370047476e+00 4.6976090424772821e+00 0.0000000000000000e+00  5.7513357279782538e+00 4.7779997522368385e+00 0.0000000000000000e+00  5.6897299115201063e+00 4.8585789370167491e+00 0.0000000000000000e+00  5.6286738661086639e+00 4.9388687220233738e+00 0.0000000000000000e+00  5.5678004051517185e+00 5.0193519836825589e+00 0.0000000000000000e+00  5.5075040211866799e+00 5.0995137654234108e+00 0.0000000000000000e+00  5.4474125287847182e+00 5.1798385737904677e+00 0.0000000000000000e+00  5.3878783208712084e+00 5.2598570148489898e+00 0.0000000000000000e+00  5.3285949828620476e+00 5.3399858508287581e+00 0.0000000000000000e+00  5.2698428797439725e+00 5.4198277699104969e+00 0.0000000000000000e+00  5.2113821779712826e+00 5.4997308065979489e+00 0.0000000000000000e+00  5.1534467691467576e+00 5.5793434436677698e+00 0.0000000000000000e+00  5.0958940182769021e+00 5.6588948380052067e+00 0.0000000000000000e+00  5.0387770315409375e+00 5.7382711749703947e+00 0.0000000000000000e+00  4.9821690092113133e+00 5.8173927810836128e+00 0.0000000000000000e+00  4.9259925952944634e+00 5.8963719869299940e+00 0.0000000000000000e+00  4.8703217017406750e+00 5.9750541242469701e+00 0.0000000000000000e+00  4.8151334191369388e+00 6.0535469480569528e+00 0.0000000000000000e+00  4.7604579302080205e+00 6.1316938419064426e+00 0.0000000000000000e+00  4.7064096354530198e+00 6.2094491031196331e+00 0.0000000000000000e+00  4.6529125061747809e+00 6.2867851336164629e+00 0.0000000000000000e+00  4.6001129682223221e+00 6.3636174715775553e+00 0.0000000000000000e+00  4.5479775852535500e+00 6.4398574464596594e+00 0.0000000000000000e+00  4.4965729027293397e+00 6.5155137128769303e+00 0.0000000000000000e+00  4.4460444290741252e+00 6.5902435038078391e+00 0.0000000000000000e+00  4.3961540394280227e+00 6.6644865728440488e+00 0.0000000000000000e+00  4.3475709804030691e+00 6.7371533926060980e+00 0.0000000000000000e+00  4.3002303881466855e+00 6.8083874880503927e+00 0.0000000000000000e+00  4.2545268013232853e+00 6.8775127345836173e+00 0.0000000000000000e+00  4.2107131814292940e+00 6.9441399576915241e+00 0.0000000000000000e+00  4.1694065939758218e+00 7.0072502202642220e+00 0.0000000000000000e+00  4.1312078402161925e+00 7.0658748504443780e+00 0.0000000000000000e+00  4.0970625911466403e+00 7.1184960048590371e+00 0.0000000000000000e+00  4.0676273612989986e+00 7.1640199237275848e+00 0.0000000000000000e+00  4.0433248437193559e+00 7.2017318413755280e+00 0.0000000000000000e+00  4.0237442619650379e+00 7.2321745252786078e+00 0.0000000000000000e+00  4.0082355803830412e+00 7.2563326752106976e+00 0.0000000000000000e+00  3.9959496893866802e+00 7.2754684003228887e+00 0.0000000000000000e+00  3.9864161854030322e+00 7.2903266247239333e+00 0.0000000000000000e+00  3.9791537932520260e+00 7.3016175752332808e+00 0.0000000000000000e+00  3.9738523089917970e+00 7.3098498151549727e+00 0.0000000000000000e+00  3.9700355706711754e+00 7.3157385417273293e+00 0.0000000000000000e+00  3.9673720900059890e+00 7.3198276838127079e+00 0.0000000000000000e+00  3.9654723614812752e+00 7.3227036460970361e+00 0.0000000000000000e+00  3.9641399318641826e+00 7.3246959676976804e+00 0.0000000000000000e+00  3.9631546022122874e+00 7.3261302206590484e+00 0.0000000000000000e+00  3.9624433531833341e+00 7.3271394743965637e+00 0.0000000000000000e+00  3.9618920627943592e+00 7.3278876778812680e+00 0.0000000000000000e+00  3.9614820336716825e+00 7.3284179911052361e+00 0.0000000000000000e+00  3.9611485821781764e+00 7.3288197276824647e+00 0.0000000000000000e+00  3.9608902865500566e+00 7.3291047184309930e+00 0.0000000000000000e+00  3.9606688635924683e+00 7.3293233840401788e+00 0.0000000000000000e+00  3.9604887439216032e+00 7.3294760668120578e+00 0.0000000000000000e+00  3.9603278984418355e+00 7.3295911052230007e+00 0.0000000000000000e+00  3.9601915819143580e+00 7.3296653885979683e+00 0.0000000000000000e+00  3.9600671141739525e+00 7.3297152777179821e+00 0.0000000000000000e+00  3.9599579418686819e+00 7.3297388877287988e+00 0.0000000000000000e+00  3.9598566484534761e+00 7.3297455603646195e+00 0.0000000000000000e+00  3.9597648129326188e+00 7.3297351420166068e+00 0.0000000000000000e+00  3.9596779035315208e+00 7.3297131720956372e+00 0.0000000000000000e+00  3.9595964045991576e+00 7.3296795048066814e+00 0.0000000000000000e+00  3.9595176533419485e+00 7.3296366633032113e+00 0.0000000000000000e+00  3.9594415978537052e+00 7.3295833470946574e+00 0.0000000000000000e+00  3.9593668084028542e+00 7.3295183630993721e+00 0.0000000000000000e+00  3.9592931105563989e+00 7.3294378101496171e+00 0.0000000000000000e+00  3.9592195927905585e+00 7.3293367543969108e+00 0.0000000000000000e+00  3.9591461007355009e+00 7.3292071348914991e+00 0.0000000000000000e+00  3.9590720409759692e+00 7.3290399435727460e+00 0.0000000000000000e+00  3.9589971557526664e+00 7.3288229107310059e+00 0.0000000000000000e+00  3.9589211655564163e+00 7.3285427630718605e+00 0.0000000000000000e+00  3.9588437875451046e+00 7.3281837935231540e+00 0.0000000000000000e+00  3.9587648442970909e+00 7.3277303377722154e+00 0.0000000000000000e+00  3.9586840959474681e+00 7.3271651677604410e+00 0.0000000000000000e+00  3.9586014261054454e+00 7.3264735398379566e+00 0.0000000000000000e+00  3.9585164987345731e+00 7.3256409208677242e+00 0.0000000000000000e+00  3.9584292739848870e+00 7.3246576086293071e+00 0.0000000000000000e+00  3.9583394122567390e+00 7.3235164276366307e+00 0.0000000000000000e+00  3.9582466627314692e+00 7.3222172019804797e+00 0.0000000000000000e+00  3.9581509522096221e+00 7.3207630886877855e+00 0.0000000000000000e+00  3.9580513228366918e+00 7.3191652333556183e+00 0.0000000000000000e+00  3.9579480834427092e+00 7.3174377795594623e+00 0.0000000000000000e+00  3.9578382295213799e+00 7.3155998784938108e+00 0.0000000000000000e+00  3.9577225816479791e+00 7.3136739186476705e+00 0.0000000000000000e+00  3.9575917023549381e+00 7.3116769646399025e+00 0.0000000000000000e+00  3.9574465281083744e+00 7.3096335600279065e+00 0.0000000000000000e+00  3.9572575314387328e+00 7.3075328983447045e+00 0.0000000000000000e+00  3.9570219830501556e+00 7.3053906989352067e+00 0.0000000000000000e+00  3.9566466140227377e+00 7.3030955267725064e+00 0.0000000000000000e+00  3.9561063738220157e+00 7.3006215043088813e+00 0.0000000000000000e+00  3.9551034620003285e+00 7.2975335309689706e+00 0.0000000000000000e+00  3.9535085686896347e+00 7.2936364098560356e+00 0.0000000000000000e+00  3.9503561179245192e+00 7.2874466362199000e+00 0.0000000000000000e+00  3.9450797570904514e+00 7.2780939295707201e+00 0.0000000000000000e+00  3.9345113139414041e+00 7.2606370167252994e+00 0.0000000000000000e+00  3.9163218179305228e+00 7.2314408387942848e+00 0.0000000000000000e+00  3.8801409901475608e+00 7.1739929866470069e+00 0.0000000000000000e+00  3.8175830546815184e+00 7.0741991851126160e+00 0.0000000000000000e+00  3.6962289928278826e+00 6.8762573940913434e+00 0.0000000000000000e+00  3.4921522263770690e+00 6.5288444446636653e+00 0.0000000000000000e+00  3.1257704692559822e+00 5.8523899122989427e+00 0.0000000000000000e+00  2.5851371554677596e+00 4.7114104528935101e+00 0.0000000000000000e+00  1.7857717261240658e+00 2.5554169832803217e+00 0.0000000000000000e+00  1.1518233157869378e+00 4.7892643076039038e-01 0.0000000000000000e+00  1.0104896660304818e+00 3.3847111931735840e-02 0.0000000000000000e+00  1.0004446471365012e+00 1.9758067732631572e-03 0.0000000000000000e+00  1.0000655174573423e+00 1.1068206459170309e-04 0.0000000000000000e+00  1.0000022999623908e+00 1.3734465427404322e-05 0.0000000000000000e+00  9.9999860606816537e-01 7.3422387158834779e-06 0.0000000000000000e+00  1.0000013035110329e+00 -3.6253183384766026e-06 0.0000000000000000e+00  9.9999933176327860e-01 1.9915208619975114e-06 0.0000000000000000e+00  1.0000004234680151e+00 -1.1516542123265450e-06 0.0000000000000000e+00  9.9999963957449323e-01 8.8149697785507700e-07 0.0000000000000000e+00  1.0000002824987726e+00 -6.6426821442881100e-07 0.0000000000000000e+00  9.9999971991390846e-01 5.4948024976857559e-07 0.0000000000000000e+00  1.0000001848360738e+00 -3.2204677753921642e-07 0.0000000000000000e+00  9.9999976938041035e-01 2.6509172181916651e-07 0.0000000000000000e+00  1.0000001056751415e+00 -2.7293231127082089e-08 0.0000000000000000e+00  9.9999977263110917e-01 0.0000000000000000e+00 0.0000000000000000e+00  9.9800031309016859e+00 0.0000000000000000e+00 -4.1922722128189700e-06  9.9794918124204397e+00 4.7525439317006764e-03 8.4979811443482419e-07  9.9779827253464415e+00 9.6872690768135643e-03 5.0793916152917975e-06  9.9754263287682683e+00 1.4951718465809581e-02 -2.4301612864101753e-06  9.9717773370392404e+00 2.0731531016171770e-02 1.3114406157668999e-06  9.9669755313419568e+00 2.7195240953220869e-02 -7.1608470328984367e-07  9.9609465405588633e+00 3.4504515356272671e-02 4.4757144956887579e-07  9.9535803611760834e+00 4.2830882237001267e-02 -9.1430459297992756e-07  9.9447989348306045e+00 5.2340416737316604e-02 3.7534635161803768e-07  9.9344858337998723e+00 6.3179888462091313e-02 -5.1857059693276206e-07  9.9225254011004775e+00 7.5510350434180515e-02 -4.4747428235365229e-07  9.9088231688755126e+00 8.9474817199757598e-02 -8.6337891241310386e-08  9.8932750379988903e+00 1.0519489641804884e-01 -5.7880367377120312e-07  9.8757665499910132e+00 1.2280121003638314e-01 -2.0621579831309187e-07  9.8562384475245146e+00 1.4240157709783088e-01 -7.8153579593878069e-07  9.8346050441779411e+00 1.6407199893897950e-01 3.4022151811538438e-07  9.8107955533537421e+00 1.8790614490518839e-01 -1.3796247617526602e-06  9.7847897907026784e+00 2.1395519205851529e-01 7.5794087896899217e-07  9.7565501236675498e+00 2.4225281308221136e-01 -1.3965480504556617e-06  9.7260481871972022e+00 2.7283829116509772e-01 9.0603433012295552e-07  9.6933189322740283e+00 3.0571662044535403e-01 -1.5728410864627690e-06  9.6583666736053413e+00 3.4086856661609882e-01 1.3560307286754765e-06  9.6212079145960310e+00 3.7829749537710156e-01 -1.5451883432280626e-06  9.5819243116122390e+00 4.1795453422839179e-01 9.6143731310958082e-07  9.5405510962352640e+00 4.5979588756805739e-01 -4.8937852795756986e-07  9.4971446195084397e+00 5.0377920039033375e-01 -1.4418828761526779e-07  9.4518091595393461e+00 5.4983998747824137e-01 7.2994962081322447e-07  9.4046108664373538e+00 5.9789494529674558e-01 -1.3867722144737159e-06  9.3556156336650034e+00 6.4790223800852809e-01 2.5217226446061604e-06  9.3049550099206986e+00 6.9975634757335503e-01 -4.0812880390912404e-06  9.2526883186877331e+00 7.5339736565714821e-01 6.2279395383329697e-06  9.1989097898510099e+00 8.0873031550160734e-01 -8.4313877935249050e-06  9.1437290736635592e+00 8.6570262851062907e-01 1.0408711549396646e-05  9.0872289969880740e+00 9.2418731747134653e-01 -1.2347009532836474e-05  9.0294816573041228e+00 9.8416293284888412e-01 1.4706319133501431e-05  8.9706112375971614e+00 1.0454961177138156e+00 -1.8661945486337256e-05  8.9106666822521792e+00 1.1081703137677024e+00 2.3504114823213828e-05  8.8497537174999206e+00 1.1720351312088333e+00 -2.9081383056205972e-05  8.7879368083960401e+00 1.2371249672508413e+00 3.3596174050672795e-05  8.7253042216363479e+00 1.3032567376680444e+00 -3.8573099179252415e-05  8.6619116216485121e+00 1.3704692527605453e+00 4.4122772506398350e-05  8.5978516755108814e+00 1.4386107696778641e+00 -5.2234570820216766e-05  8.5331486780418118e+00 1.5077323495881738e+00 6.0530181106324549e-05  8.4679263951458630e+00 1.5776166204921680e+00 -6.8063960233913639e-05  8.4021713549258337e+00 1.6484178960854703e+00 7.2010687295743359e-05  8.3359926698033942e+00 1.7198816395136165e+00 -7.3336060382475906e-05  8.2694220399837128e+00 1.7921241662283303e+00 7.1936432005900410e-05  8.2025130660893435e+00 1.8649613177875368e+00 -6.8812559826170641e-05  8.1352793381959820e+00 1.9385269932410194e+00 6.2936205531035762e-05  8.0678477672839541e+00 2.0125320063758068e+00 -5.3399706026625396e-05  8.0001544907239559e+00 2.0872241950649153e+00 4.0277541188193551e-05  7.9322995427751861e+00 2.1623310426166120e+00 -2.4435002056529964e-05  7.8643361492411943e+00 2.2379562604189842e+00 9.8160598494177010e-06  7.7962357592740776e+00 2.3140027882371204e+00 2.1310629622693098e-06  7.7280630210707661e+00 2.3904994761933445e+00 -8.9673065020072266e-06  7.6598862687285063e+00 2.4673448924376933e+00 1.4855205465493914e-05  7.5916616707163014e+00 2.5445534164765564e+00 -1.9343237630516014e-05  7.5234403719894019e+00 2.6221396698415784e+00 2.4654304854802536e-05  7.4553124357951104e+00 2.6999763516410384e+00 -2.4542856576824024e-05  7.3871880108125705e+00 2.7781407524411406e+00 2.1809857894516945e-05  7.3191653396260703e+00 2.8565497209055914e+00 -1.5628904872795268e-05  7.2512714591541991e+00 2.9352348011491007e+00 1.3216822934285535e-05  7.1834736815491809e+00 3.0141016042991424e+00 -8.6282144226032669e-06  7.1158116447991935e+00 3.0932111459380893e+00 4.4236069543515914e-06  7.0483509264405120e+00 3.1725014180393760e+00 1.8617501216457052e-06  6.9810238924236403e+00 3.2519683147285279e+00 -1.8440798176485403e-07  6.9138989410939482e+00 3.3315873686326638e+00 -1.6942595181025246e-06  6.8469982111042826e+00 3.4113478155865584e+00 3.4055144585157994e-06  6.7802965906050092e+00 3.4912579203218126e+00 2.3460031454172475e-06  6.7138222469787419e+00 3.5712730662577639e+00 -2.0627368720921035e-06  6.6476178805648685e+00 3.6513776403442892e+00 1.7554643192090262e-06  6.5816393456536701e+00 3.7315945017676708e+00 2.4129612959829524e-06  6.5159391768381703e+00 3.8118941875961867e+00 6.8654481699877589e-07  6.4505140337648381e+00 3.8922486092588846e+00 2.1348099850669478e-06  6.3853722462601104e+00 3.9726651236158794e+00 -5.5953258079554046e-07  6.3205132414678129e+00 4.0531449406716771e+00 3.4786999239253836e-06  6.2559758527767073e+00 4.1336434289014470e+00 -1.2129477243795589e-07  6.1917241381884267e+00 4.2141931624777955e+00 3.5097180639903446e-06  6.1278090224423041e+00 4.2947443834630565e+00 -9.4924623834725658e-07  6.0642029885211182e+00 4.3753234665170453e+00 2.5118015773832637e-06  6.0009397622122176e+00 4.4558872674061307e+00 -3.6402154316588218e-07  5.9380017735251940e+00 4.5364673482834874e+00 2.0684536612218923e-06  5.8754234083055614e+00 4.61700957411