<?xml version="1.0"?>
<VTKFile type="UnstructuredGrid"  version="0.1"  >
<UnstructuredGrid>
<Piece  NumberOfPoints="8241" NumberOfCells="16000">
<Points>
<DataArray  type="Float64"  NumberOfComponents="3"  format="ascii">-5 -1 0  -4.95 -1 0  -4.9 -1 0  -4.85 -1 0  -4.8 -1 0  -4.75 -1 0  -4.7 -1 0  -4.65 -1 0  -4.6 -1 0  -4.55 -1 0  -4.5 -1 0  -4.45 -1 0  -4.4 -1 0  -4.35 -1 0  -4.3 -1 0  -4.25 -1 0  -4.2 -1 0  -4.15 -1 0  -4.1 -1 0  -4.05 -1 0  -4 -1 0  -3.95 -1 0  -3.9 -1 0  -3.85 -1 0  -3.8 -1 0  -3.75 -1 0  -3.7 -1 0  -3.65 -1 0  -3.6 -1 0  -3.55 -1 0  -3.5 -1 0  -3.45 -1 0  -3.4 -1 0  -3.35 -1 0  -3.3 -1 0  -3.25 -1 0  -3.2 -1 0  -3.15 -1 0  -3.1 -1 0  -3.05 -1 0  -3 -1 0  -2.95 -1 0  -2.9 -1 0  -2.85 -1 0  -2.8 -1 0  -2.75 -1 0  -2.7 -1 0  -2.65 -1 0  -2.6 -1 0  -2.55 -1 0  -2.5 -1 0  -2.45 -1 0  -2.4 -1 0  -2.35 -1 0  -2.3 -1 0  -2.25 -1 0  -2.2 -1 0  -2.15 -1 0  -2.1 -1 0  -2.05 -1 0  -2 -1 0  -1.95 -1 0  -1.9 -1 0  -1.85 -1 0  -1.8 -1 0  -1.75 -1 0  -1.7 -1 0  -1.65 -1 0  -1.6 -1 0  -1.55 -1 0  -1.5 -1 0  -1.45 -1 0  -1.4 -1 0  -1.35 -1 0  -1.3 -1 0  -1.25 -1 0  -1.2 -1 0  -1.15 -1 0  -1.1 -1 0  -1.05 -1 0  -1 -1 0  -0.9500000000000002 -1 0  -0.9000000000000004 -1 0  -0.8499999999999996 -1 0  -0.7999999999999998 -1 0  -0.75 -1 0  -0.7000000000000002 -1 0  -0.6500000000000004 -1 0  -0.5999999999999996 -1 0  -0.5499999999999998 -1 0  -0.5 -1 0  -0.4500000000000002 -1 0  -0.4000000000000004 -1 0  -0.3499999999999996 -1 0  -0.2999999999999998 -1 0  -0.25 -1 0  -0.2000000000000002 -1 0  -0.1500000000000004 -1 0  -0.09999999999999964 -1 0  -0.04999999999999982 -1 0  0 -1 0  0.04999999999999982 -1 0  0.09999999999999964 -1 0  0.1500000000000004 -1 0  0.2000000000000002 -1 0  0.25 -1 0  0.2999999999999998 -1 0  0.3499999999999996 -1 0  0.4000000000000004 -1 0  0.4500000000000002 -1 0  0.5 -1 0  0.5499999999999998 -1 0  0.5999999999999996 -1 0  0.6500000000000004 -1 0  0.7000000000000002 -1 0  0.75 -1 0  0.7999999999999998 -1 0  0.8499999999999996 -1 0  0.9000000000000004 -1 0  0.9500000000000002 -1 0  1 -1 0  1.05 -1 0  1.1 -1 0  1.15 -1 0  1.2 -1 0  1.25 -1 0  1.3 -1 0  1.35 -1 0  1.4 -1 0  1.45 -1 0  1.5 -1 0  1.55 -1 0  1.6 -1 0  1.65 -1 0  1.7 -1 0  1.75 -1 0  1.8 -1 0  1.85 -1 0  1.9 -1 0  1.95 -1 0  2 -1 0  2.05 -1 0  2.1 -1 0  2.15 -1 0  2.2 -1 0  2.25 -1 0  2.3 -1 0  2.35 -1 0  2.4 -1 0  2.45 -1 0  2.5 -1 0  2.55 -1 0  2.6 -1 0  2.65 -1 0  2.7 -1 0  2.75 -1 0  2.8 -1 0  2.85 -1 0  2.9 -1 0  2.95 -1 0  3 -1 0  3.050000000000001 -1 0  3.1 -1 0  3.15 -1 0  3.199999999999999 -1 0  3.25 -1 0  3.300000000000001 -1 0  3.35 -1 0  3.4 -1 0  3.449999999999999 -1 0  3.5 -1 0  3.550000000000001 -1 0  3.6 -1 0  3.65 -1 0  3.699999999999999 -1 0  3.75 -1 0  3.800000000000001 -1 0  3.85 -1 0  3.9 -1 0  3.949999999999999 -1 0  4 -1 0  4.050000000000001 -1 0  4.1 -1 0  4.15 -1 0  4.199999999999999 -1 0  4.25 -1 0  4.300000000000001 -1 0  4.35 -1 0  4.4 -1 0  4.449999999999999 -1 0  4.5 -1 0  4.550000000000001 -1 0  4.6 -1 0  4.65 -1 0  4.699999999999999 -1 0  4.75 -1 0  4.800000000000001 -1 0  4.85 -1 0  4.9 -1 0  4.949999999999999 -1 0  5 -1 0  -5 -0.95 0  -4.95 -0.95 0  -4.9 -0.95 0  -4.85 -0.95 0  -4.8 -0.95 0  -4.75 -0.95 0  -4.7 -0.95 0  -4.65 -0.95 0  -4.6 -0.95 0  -4.55 -0.95 0  -4.5 -0.95 0  -4.45 -0.95 0  -4.4 -0.95 0  -4.35 -0.95 0  -4.3 -0.95 0  -4.25 -0.95 0  -4.2 -0.95 0  -4.15 -0.95 0  -4.1 -0.95 0  -4.05 -0.95 0  -4 -0.95 0  -3.95 -0.95 0  -3.9 -0.95 0  -3.85 -0.95 0  -3.8 -0.95 0  -3.75 -0.95 0  -3.7 -0.95 0  -3.65 -0.95 0  -3.6 -0.95 0  -3.55 -0.95 0  -3.5 -0.95 0  -3.45 -0.95 0  -3.4 -0.95 0  -3.35 -0.95 0  -3.3 -0.95 0  -3.25 -0.95 0  -3.2 -0.95 0  -3.15 -0.95 0  -3.1 -0.95 0  -3.05 -0.95 0  -3 -0.95 0  -2.95 -0.95 0  -2.9 -0.95 0  -2.85 -0.95 0  -2.8 -0.95 0  -2.75 -0.95 0  -2.7 -0.95 0  -2.65 -0.95 0  -2.6 -0.95 0  -2.55 -0.95 0  -2.5 -0.95 0  -2.45 -0.95 0  -2.4 -0.95 0  -2.35 -0.95 0  -2.3 -0.95 0  -2.25 -0.95 0  -2.2 -0.95 0  -2.15 -0.95 0  -2.1 -0.95 0  -2.05 -0.95 0  -2 -0.95 0  -1.95 -0.95 0  -1.9 -0.95 0  -1.85 -0.95 0  -1.8 -0.95 0  -1.75 -0.95 0  -1.7 -0.95 0  -1.65 -0.95 0  -1.6 -0.95 0  -1.55 -0.95 0  -1.5 -0.95 0  -1.45 -0.95 0  -1.4 -0.95 0  -1.35 -0.95 0  -1.3 -0.95 0  -1.25 -0.95 0  -1.2 -0.95 0  -1.15 -0.95 0  -1.1 -0.95 0  -1.05 -0.95 0  -1 -0.95 0  -0.9500000000000002 -0.95 0  -0.9000000000000004 -0.95 0  -0.8499999999999996 -0.95 0  -0.7999999999999998 -0.95 0  -0.75 -0.95 0  -0.7000000000000002 -0.95 0  -0.6500000000000004 -0.95 0  -0.5999999999999996 -0.95 0  -0.5499999999999998 -0.95 0  -0.5 -0.95 0  -0.4500000000000002 -0.95 0  -0.4000000000000004 -0.95 0  -0.3499999999999996 -0.95 0  -0.2999999999999998 -0.95 0  -0.25 -0.95 0  -0.2000000000000002 -0.95 0  -0.1500000000000004 -0.95 0  -0.09999999999999964 -0.95 0  -0.04999999999999982 -0.95 0  0 -0.95 0  0.04999999999999982 -0.95 0  0.09999999999999964 -0.95 0  0.1500000000000004 -0.95 0  0.2000000000000002 -0.95 0  0.25 -0.95 0  0.2999999999999998 -0.95 0  0.3499999999999996 -0.95 0  0.4000000000000004 -0.95 0  0.4500000000000002 -0.95 0  0.5 -0.95 0  0.5499999999999998 -0.95 0  0.5999999999999996 -0.95 0  0.6500000000000004 -0.95 0  0.7000000000000002 -0.95 0  0.75 -0.95 0  0.7999999999999998 -0.95 0  0.8499999999999996 -0.95 0  0.9000000000000004 -0.95 0  0.9500000000000002 -0.95 0  1 -0.95 0  1.05 -0.95 0  1.1 -0.95 0  1.15 -0.95 0  1.2 -0.95 0  1.25 -0.95 0  1.3 -0.95 0  1.35 -0.95 0  1.4 -0.95 0  1.45 -0.95 0  1.5 -0.95 0  1.55 -0.95 0  1.6 -0.95 0  1.65 -0.95 0  1.7 -0.95 0  1.75 -0.95 0  1.8 -0.95 0  1.85 -0.95 0  1.9 -0.95 0  1.95 -0.95 0  2 -0.95 0  2.05 -0.95 0  2.1 -0.95 0  2.15 -0.95 0  2.2 -0.95 0  2.25 -0.95 0  2.3 -0.95 0  2.35 -0.95 0  2.4 -0.95 0  2.45 -0.95 0  2.5 -0.95 0  2.55 -0.95 0  2.6 -0.95 0  2.65 -0.95 0  2.7 -0.95 0  2.75 -0.95 0  2.8 -0.95 0  2.85 -0.95 0  2.9 -0.95 0  2.95 -0.95 0  3 -0.95 0  3.050000000000001 -0.95 0  3.1 -0.95 0  3.15 -0.95 0  3.199999999999999 -0.95 0  3.25 -0.95 0  3.300000000000001 -0.95 0  3.35 -0.95 0  3.4 -0.95 0  3.449999999999999 -0.95 0  3.5 -0.95 0  3.550000000000001 -0.95 0  3.6 -0.95 0  3.65 -0.95 0  3.699999999999999 -0.95 0  3.75 -0.95 0  3.800000000000001 -0.95 0  3.85 -0.95 0  3.9 -0.95 0  3.949999999999999 -0.95 0  4 -0.95 0  4.050000000000001 -0.95 0  4.1 -0.95 0  4.15 -0.95 0  4.199999999999999 -0.95 0  4.25 -0.95 0  4.300000000000001 -0.95 0  4.35 -0.95 0  4.4 -0.95 0  4.449999999999999 -0.95 0  4.5 -0.95 0  4.550000000000001 -0.95 0  4.6 -0.95 0  4.65 -0.95 0  4.699999999999999 -0.95 0  4.75 -0.95 0  4.800000000000001 -0.95 0  4.85 -0.95 0  4.9 -0.95 0  4.949999999999999 -0.95 0  5 -0.95 0  -5 -0.9 0  -4.95 -0.9 0  -4.9 -0.9 0  -4.85 -0.9 0  -4.8 -0.9 0  -4.75 -0.9 0  -4.7 -0.9 0  -4.65 -0.9 0  -4.6 -0.9 0  -4.55 -0.9 0  -4.5 -0.9 0  -4.45 -0.9 0  -4.4 -0.9 0  -4.35 -0.9 0  -4.3 -0.9 0  -4.25 -0.9 0  -4.2 -0.9 0  -4.15 -0.9 0  -4.1 -0.9 0  -4.05 -0.9 0  -4 -0.9 0  -3.95 -0.9 0  -3.9 -0.9 0  -3.85 -0.9 0  -3.8 -0.9 0  -3.75 -0.9 0  -3.7 -0.9 0  -3.65 -0.9 0  -3.6 -0.9 0  -3.55 -0.9 0  -3.5 -0.9 0  -3.45 -0.9 0  -3.4 -0.9 0  -3.35 -0.9 0  -3.3 -0.9 0  -3.25 -0.9 0  -3.2 -0.9 0  -3.15 -0.9 0  -3.1 -0.9 0  -3.05 -0.9 0  -3 -0.9 0  -2.95 -0.9 0  -2.9 -0.9 0  -2.85 -0.9 0  -2.8 -0.9 0  -2.75 -0.9 0  -2.7 -0.9 0  -2.65 -0.9 0  -2.6 -0.9 0  -2.55 -0.9 0  -2.5 -0.9 0  -2.45 -0.9 0  -2.4 -0.9 0  -2.35 -0.9 0  -2.3 -0.9 0  -2.25 -0.9 0  -2.2 -0.9 0  -2.15 -0.9 0  -2.1 -0.9 0  -2.05 -0.9 0  -2 -0.9 0  -1.95 -0.9 0  -1.9 -0.9 0  -1.85 -0.9 0  -1.8 -0.9 0  -1.75 -0.9 0  -1.7 -0.9 0  -1.65 -0.9 0  -1.6 -0.9 0  -1.55 -0.9 0  -1.5 -0.9 0  -1.45 -0.9 0  -1.4 -0.9 0  -1.35 -0.9 0  -1.3 -0.9 0  -1.25 -0.9 0  -1.2 -0.9 0  -1.15 -0.9 0  -1.1 -0.9 0  -1.05 -0.9 0  -1 -0.9 0  -0.9500000000000002 -0.9 0  -0.9000000000000004 -0.9 0  -0.8499999999999996 -0.9 0  -0.7999999999999998 -0.9 0  -0.75 -0.9 0  -0.7000000000000002 -0.9 0  -0.6500000000000004 -0.9 0  -0.5999999999999996 -0.9 0  -0.5499999999999998 -0.9 0  -0.5 -0.9 0  -0.4500000000000002 -0.9 0  -0.4000000000000004 -0.9 0  -0.3499999999999996 -0.9 0  -0.2999999999999998 -0.9 0  -0.25 -0.9 0  -0.2000000000000002 -0.9 0  -0.1500000000000004 -0.9 0  -0.09999999999999964 -0.9 0  -0.04999999999999982 -0.9 0  0 -0.9 0  0.04999999999999982 -0.9 0  0.09999999999999964 -0.9 0  0.1500000000000004 -0.9 0  0.2000000000000002 -0.9 0  0.25 -0.9 0  0.2999999999999998 -0.9 0  0.3499999999999996 -0.9 0  0.4000000000000004 -0.9 0  0.4500000000000002 -0.9 0  0.5 -0.9 0  0.5499999999999998 -0.9 0  0.5999999999999996 -0.9 0  0.6500000000000004 -0.9 0  0.7000000000000002 -0.9 0  0.75 -0.9 0  0.7999999999999998 -0.9 0  0.8499999999999996 -0.9 0  0.9000000000000004 -0.9 0  0.9500000000000002 -0.9 0  1 -0.9 0  1.05 -0.9 0  1.1 -0.9 0  1.15 -0.9 0  1.2 -0.9 0  1.25 -0.9 0  1.3 -0.9 0  1.35 -0.9 0  1.4 -0.9 0  1.45 -0.9 0  1.5 -0.9 0  1.55 -0.9 0  1.6 -0.9 0  1.65 -0.9 0  1.7 -0.9 0  1.75 -0.9 0  1.8 -0.9 0  1.85 -0.9 0  1.9 -0.9 0  1.95 -0.9 0  2 -0.9 0  2.05 -0.9 0  2.1 -0.9 0  2.15 -0.9 0  2.2 -0.9 0  2.25 -0.9 0  2.3 -0.9 0  2.35 -0.9 0  2.4 -0.9 0  2.45 -0.9 0  2.5 -0.9 0  2.55 -0.9 0  2.6 -0.9 0  2.65 -0.9 0  2.7 -0.9 0  2.75 -0.9 0  2.8 -0.9 0  2.85 -0.9 0  2.9 -0.9 0  2.95 -0.9 0  3 -0.9 0  3.050000000000001 -0.9 0  3.1 -0.9 0  3.15 -0.9 0  3.199999999999999 -0.9 0  3.25 -0.9 0  3.300000000000001 -0.9 0  3.35 -0.9 0  3.4 -0.9 0  3.449999999999999 -0.9 0  3.5 -0.9 0  3.550000000000001 -0.9 0  3.6 -0.9 0  3.65 -0.9 0  3.699999999999999 -0.9 0  3.75 -0.9 0  3.800000000000001 -0.9 0  3.85 -0.9 0  3.9 -0.9 0  3.949999999999999 -0.9 0  4 -0.9 0  4.050000000000001 -0.9 0  4.1 -0.9 0  4.15 -0.9 0  4.199999999999999 -0.9 0  4.25 -0.9 0  4.300000000000001 -0.9 0  4.35 -0.9 0  4.4 -0.9 0  4.449999999999999 -0.9 0  4.5 -0.9 0  4.550000000000001 -0.9 0  4.6 -0.9 0  4.65 -0.9 0  4.699999999999999 -0.9 0  4.75 -0.9 0  4.800000000000001 -0.9 0  4.85 -0.9 0  4.9 -0.9 0  4.949999999999999 -0.9 0  5 -0.9 0  -5 -0.85 0  -4.95 -0.85 0  -4.9 -0.85 0  -4.85 -0.85 0  -4.8 -0.85 0  -4.75 -0.85 0  -4.7 -0.85 0  -4.65 -0.85 0  -4.6 -0.85 0  -4.55 -0.85 0  -4.5 -0.85 0  -
[...]
<PointData  Vectors="f_15"> 
<DataArray  type="Float64"  Name="f_15"  NumberOfComponents="3" format="ascii">1.0000000000001259e+01 0.0000000000000000e+00 0.0000000000000000e+00  9.9999999999987903e+00 -9.4752139633087599e-13 0.0000000000000000e+00  1.0000000000001156e+01 1.1147706762380005e-12 0.0000000000000000e+00  9.9999999999986517e+00 -1.2828121725050974e-12 0.0000000000000000e+00  1.0000000000001664e+01 1.4287619559289731e-12 0.0000000000000000e+00  9.9999999999978879e+00 -1.6511409930986433e-12 0.0000000000000000e+00  1.0000000000002787e+01 1.9897678732599911e-12 0.0000000000000000e+00  9.9999999999961471e+00 -2.5231334012353764e-12 0.0000000000000000e+00  1.0000000000005638e+01 3.4165651008491714e-12 0.0000000000000000e+00  9.9999999999914060e+00 -4.9333576642487739e-12 0.0000000000000000e+00  1.0000000000013451e+01 7.4618005389106243e-12 0.0000000000000000e+00  9.9999999999786979e+00 -1.1613605291800008e-11 0.0000000000000000e+00  1.0000000000034023e+01 1.8440444920162115e-11 0.0000000000000000e+00  9.9999999999452758e+00 -2.9838302760711913e-11 0.0000000000000000e+00  1.0000000000088509e+01 4.9000891689043553e-11 0.0000000000000000e+00  9.9999999998567901e+00 -8.0971320306627845e-11 0.0000000000000000e+00  1.0000000000230740e+01 1.3339612358731050e-10 0.0000000000000000e+00  9.9999999996307576e+00 -2.1813437967570934e-10 0.0000000000000000e+00  1.0000000000587171e+01 3.5433202346763642e-10 0.0000000000000000e+00  9.9999999990707842e+00 -5.7335615396978647e-10 0.0000000000000000e+00  1.0000000001464279e+01 9.2525795264242788e-10 0.0000000000000000e+00  9.9999999977049221e+00 -1.4865819215586818e-09 0.0000000000000000e+00  1.0000000003571342e+01 2.3708895020499410e-09 0.0000000000000000e+00  9.9999999944896452e+00 -3.7462818938599225e-09 0.0000000000000000e+00  1.0000000008430103e+01 5.8653770916932895e-09 0.0000000000000000e+00  9.9999999872033580e+00 -9.1105367981755515e-09 0.0000000000000000e+00  1.0000000019282174e+01 1.4050908687977655e-08 0.0000000000000000e+00  9.9999999711722580e+00 -2.1505131943299435e-08 0.0000000000000000e+00  1.0000000042713520e+01 3.2611968475936621e-08 0.0000000000000000e+00  9.9999999373446471e+00 -4.8928914354106590e-08 0.0000000000000000e+00  1.0000000090953375e+01 7.2589131268818652e-08 0.0000000000000000e+00  9.9999998693035117e+00 -1.0652358010986950e-07 0.0000000000000000e+00  1.0000000185976138e+01 1.5470404479257424e-07 0.0000000000000000e+00  9.9999997379616836e+00 -2.2231747464456475e-07 0.0000000000000000e+00  1.0000000365338455e+01 3.1583559600679639e-07 0.0000000000000000e+00  9.9999994963876482e+00 -4.4305873044962907e-07 0.0000000000000000e+00  1.0000000686119774e+01 6.1337191651762819e-07 0.0000000000000000e+00  9.9999990757938981e+00 -8.3827779571541865e-07 0.0000000000000000e+00  1.0000001231814061e+01 1.1320679519137012e-06 0.0000000000000000e+00  9.9999983743478165e+00 -1.5118396658122549e-06 0.0000000000000000e+00  1.0000002124267878e+01 1.9968120899933746e-06 0.0000000000000000e+00  9.9999972525774599e+00 -2.6067558601412725e-06 0.0000000000000000e+00  1.0000003515596241e+01 3.3624296756106061e-06 0.0000000000000000e+00  9.9999955463970576e+00 -4.2869766427113742e-06 0.0000000000000000e+00  1.0000005591791535e+01 5.4117724801608131e-06 0.0000000000000000e+00  9.9999930288206382e+00 -6.7747947619146023e-06 0.0000000000000000e+00  1.0000008631537256e+01 8.4218289783036921e-06 0.0000000000000000e+00  9.9999893835529914e+00 -1.0386728746110862e-05 0.0000000000000000e+00  1.0000012947670109e+01 1.2704524014086796e-05 0.0000000000000000e+00  9.9999843236651635e+00 -1.5392661028802562e-05 0.0000000000000000e+00  1.0000018837765014e+01 1.8528005777673698e-05 0.0000000000000000e+00  9.9999774222043882e+00 -2.2180855217347387e-05 0.0000000000000000e+00  1.0000026941178797e+01 2.6530047929757085e-05 0.0000000000000000e+00  9.9999678751906309e+00 -3.1582640288292733e-05 0.0000000000000000e+00  1.0000037944816908e+01 3.7459530652938557e-05 0.0000000000000000e+00  9.9999553434435970e+00 -4.3914839723087519e-05 0.0000000000000000e+00  1.0000051885318173e+01 5.1252997152739167e-05 0.0000000000000000e+00  9.9999394584371455e+00 -5.9360368669039335e-05 0.0000000000000000e+00  1.0000070082379656e+01 6.9207697505336898e-05 0.0000000000000000e+00  9.9999179835731464e+00 -8.0400292571274054e-05 0.0000000000000000e+00  1.0000094302416986e+01 9.3502612157009044e-05 0.0000000000000000e+00  9.9998914332694540e+00 -1.0675424139487282e-04 0.0000000000000000e+00  1.0000121565914307e+01 1.2056670734467010e-04 0.0000000000000000e+00  9.9998627440108638e+00 -1.3464447470459985e-04 0.0000000000000000e+00  1.0000153525291367e+01 1.5127961182501644e-04 0.0000000000000000e+00  9.9998250467990335e+00 -1.7222377512600539e-04 0.0000000000000000e+00  1.0000197368238204e+01 1.9499462097592092e-04 0.0000000000000000e+00  9.9997814795253479e+00 -2.1822456389384066e-04 0.0000000000000000e+00  1.0000235969074325e+01 2.3301848627011755e-04 0.0000000000000000e+00  9.9997531285290755e+00 -2.4596252528456618e-04 0.0000000000000000e+00  1.0000264884601995e+01 2.5774080124500113e-04 0.0000000000000000e+00  9.9997144392959338e+00 -2.8232366246471271e-04 0.0000000000000000e+00  1.0000317817134835e+01 3.1601292421486470e-04 0.0000000000000000e+00  9.9996619136436316e+00 -3.3843614235143751e-04 0.0000000000000000e+00  1.0000332888451036e+01 3.4592800319857597e-04 0.0000000000000000e+00  9.9996811278737674e+00 -3.0224299597982822e-04 0.0000000000000000e+00  1.0000268935386449e+01 2.9627405135072675e-04 0.0000000000000000e+00  9.9996801990563746e+00 -2.4619333592790932e-04 0.0000000000000000e+00  1.0000241921812869e+01 3.7644171092647539e-04 0.0000000000000000e+00  9.9995475593311909e+00 -2.1342755061680676e-04 0.0000000000000000e+00  9.9999982333956403e+00 5.5737846107549503e-04 0.0000000000000000e+00  9.9993142116750473e+00 3.3819106799685820e-04 0.0000000000000000e+00  9.9989936854804728e+00 1.0726836388141247e-03 0.0000000000000000e+00  9.9979813959677468e+00 1.9964960600589552e-03 0.0000000000000000e+00  9.9961368144769835e+00 3.8548709899195559e-03 0.0000000000000000e+00  9.9927574007294773e+00 7.0311536121202122e-03 0.0000000000000000e+00  9.9866967135997751e+00 1.3124587801771137e-02 0.0000000000000000e+00  9.9765193270119248e+00 2.3446185465582116e-02 0.0000000000000000e+00  9.9584907543430958e+00 4.0560105295951492e-02 0.0000000000000000e+00  9.9304201149189666e+00 6.9297458246078206e-02 0.0000000000000000e+00  9.8848028028404453e+00 1.1368747780597267e-01 0.0000000000000000e+00  9.8170630648297816e+00 1.8174551896670380e-01 0.0000000000000000e+00  9.7171256401434878e+00 2.8097091286745046e-01 0.0000000000000000e+00  9.5781421329896332e+00 4.2030026476414706e-01 0.0000000000000000e+00  9.3917192402517333e+00 6.0932882144667488e-01 0.0000000000000000e+00  9.1509476691622105e+00 8.5368633522078852e-01 0.0000000000000000e+00  8.8551972691461760e+00 1.1602123303476282e+00 0.0000000000000000e+00  8.5051652620118006e+00 1.5276313090506493e+00 0.0000000000000000e+00  8.1094835855182907e+00 1.9536100483203753e+00 0.0000000000000000e+00  7.6790423010098428e+00 2.4260648571695755e+00 0.0000000000000000e+00  7.2305856956344057e+00 2.9352326311308872e+00 0.0000000000000000e+00  6.7746455702551183e+00 3.4691331760106068e+00 0.0000000000000000e+00  6.3247829713806762e+00 4.0156599668706470e+00 0.0000000000000000e+00  5.8864912865199122e+00 4.5657066047466772e+00 0.0000000000000000e+00  5.4682037620216057e+00 5.1039857754363993e+00 0.0000000000000000e+00  5.0730584582624667e+00 5.6091108855902085e+00 0.0000000000000000e+00  4.6988721791884602e+00 6.0523345819812837e+00 0.0000000000000000e+00  4.3490377727603899e+00 6.3767662175020750e+00 0.0000000000000000e+00  4.0225828162666595e+00 6.5217773393182643e+00 0.0000000000000000e+00  3.7049574874022824e+00 6.4026448224570336e+00 0.0000000000000000e+00  3.3526607290874750e+00 5.9812722718430438e+00 0.0000000000000000e+00  2.8838661353977271e+00 5.1658102149998557e+00 0.0000000000000000e+00  2.2820551578769246e+00 3.8358480796976080e+00 0.0000000000000000e+00  1.5002665956263532e+00 1.6136340857849458e+00 0.0000000000000000e+00  1.0784816671587223e+00 2.4453358737372682e-01 0.0000000000000000e+00  1.0082651766177633e+00 2.5851361724243630e-02 0.0000000000000000e+00  1.0012984688893305e+00 5.1275306575805004e-03 0.0000000000000000e+00  1.0003951430152318e+00 1.0220907920035767e-03 0.0000000000000000e+00  1.0000902643608001e+00 3.0425313007277079e-04 0.0000000000000000e+00  1.0000176546019914e+00 8.3746447986835895e-05 0.0000000000000000e+00  1.0000075534415218e+00 9.7194470198173614e-06 0.0000000000000000e+00  1.0000002962081200e+00 5.8882016868876408e-06 0.0000000000000000e+00  1.0000003625569527e+00 2.4341791478394815e-07 0.0000000000000000e+00  1.0000000470677126e+00 1.5128433943459024e-07 0.0000000000000000e+00  9.9999998194898454e-01 8.1936458930776402e-08 0.0000000000000000e+00  1.0000000211462590e+00 -4.6477152095721137e-08 0.0000000000000000e+00  9.9999998876780327e-01 3.2469650058180000e-08 0.0000000000000000e+00  1.0000000044240724e+00 -1.3342620938501006e-08 0.0000000000000000e+00  9.9999999966898800e-01 1.9948409386525593e-09 0.0000000000000000e+00  9.9999999903522618e-01 2.2518871517900392e-09 0.0000000000000000e+00  1.0000000008094940e+00 -2.2086379913118868e-09 0.0000000000000000e+00  9.9999999967455455e-01 9.9012896682438718e-10 0.0000000000000000e+00  1.0000000000179581e+00 -1.1960397894402914e-10 0.0000000000000000e+00  1.0000000000707576e+00 -1.7047071649483855e-10 0.0000000000000000e+00  9.9999999994746547e-01 1.4568010049296921e-10 0.0000000000000000e+00  1.0000000000176643e+00 -5.5335865638184723e-11 0.0000000000000000e+00  1.0000000000011793e+00 9.6672560019066185e-13 0.0000000000000000e+00  9.9999999999490830e-01 1.2851762115915941e-11 0.0000000000000000e+00  1.0000000000030673e+00 -8.6854824665727632e-12 0.0000000000000000e+00  9.9999999999921230e-01 2.6061728558566657e-12 0.0000000000000000e+00  9.9999999999978528e-01 3.6552109628880841e-13 0.0000000000000000e+00  1.0000000000003262e+00 -8.5096552688990393e-13 0.0000000000000000e+00  9.9999999999983991e-01 4.6522971732075687e-13 0.0000000000000000e+00  1.0000000000000278e+00 -1.0305896324747041e-13 0.0000000000000000e+00  1.0000000000000193e+00 -4.0580864154478742e-14 0.0000000000000000e+00  9.9999999999998179e-01 4.9564978493374719e-14 0.0000000000000000e+00  1.0000000000000078e+00 -2.2140130539588012e-14 0.0000000000000000e+00  1.0000000000000000e+00 3.1014152044934790e-15 0.0000000000000000e+00  9.9999999999999867e-01 4.6304495831131948e-15 0.0000000000000000e+00  1.0000000000000016e+00 -3.6313373665728025e-15 0.0000000000000000e+00  9.9999999999999967e-01 8.2460530587314888e-16 0.0000000000000000e+00  1.0000000000000004e+00 -2.1887825082504974e-15 0.0000000000000000e+00  1.0000000000000000e+00 1.1729421890216240e-15 0.0000000000000000e+00  1.0000000000000007e+00 9.6074340778896161e-16 0.0000000000000000e+00  1.0000000000000002e+00 -1.3135574574431851e-15 0.0000000000000000e+00  1.0000000000000000e+00 1.6382100707424943e-15 0.0000000000000000e+00  1.0000000000000004e+00 -6.0685163831591952e-16 0.0000000000000000e+00  1.0000000000000000e+00 6.5837784029896069e-16 0.0000000000000000e+00  1.0000000000000002e+00 -8.7046292455829470e-16 0.0000000000000000e+00  1.0000000000000002e+00 -5.8813539189866432e-16 0.0000000000000000e+00  1.0000000000000004e+00 1.5787387586257510e-15 0.0000000000000000e+00  1.0000000000000007e+00 8.2690863430971484e-17 0.0000000000000000e+00  1.0000000000000002e+00 9.8583365006037924e-16 0.0000000000000000e+00  1.0000000000000002e+00 -6.7366866715462802e-16 0.0000000000000000e+00  1.0000000000000002e+00 -7.0873746859765678e-16 0.0000000000000000e+00  1.0000000000000004e+00 -4.4495121804962241e-16 0.0000000000000000e+00  1.0000000000000002e+00 -1.4950234969355437e-16 0.0000000000000000e+00  1.0000000000000004e+00 2.8637840781901823e-16 0.0000000000000000e+00  1.0000000000000004e+00 -2.0114065551523006e-16 0.0000000000000000e+00  1.0000000000000004e+00 5.1500340274481072e-16 0.0000000000000000e+00  1.0000000000000004e+00 2.2265473238094103e-16 0.0000000000000000e+00  1.0000000000000002e+00 1.9174797184208316e-16 0.0000000000000000e+00  1.0000000000000000e+00 1.6681367777942736e-15 0.0000000000000000e+00  1.0000000000000002e+00 -1.4361679954840756e-15 0.0000000000000000e+00  1.0000000000000002e+00 8.6380705946234107e-16 0.0000000000000000e+00  1.0000000000000004e+00 -2.0942652054206625e-15 0.0000000000000000e+00  1.0000000000000000e+00 -2.2791368865709606e-16 0.0000000000000000e+00  1.0000000000000002e+00 1.4225754691431572e-15 0.0000000000000000e+00  1.0000000000000000e+00 -3.4247930159106990e-16 0.0000000000000000e+00  1.0000000000000002e+00 1.2033471489285920e-15 0.0000000000000000e+00  1.0000000000000004e+00 -1.7817433290625562e-15 0.0000000000000000e+00  1.0000000000000002e+00 1.7982598957985716e-15 0.0000000000000000e+00  1.0000000000000002e+00 -4.2721479824212703e-16 0.0000000000000000e+00  1.0000000000000004e+00 -1.1089113373972551e-15 0.0000000000000000e+00  1.0000000000000002e+00 -1.4066632393719344e-16 0.0000000000000000e+00  1.0000000000000004e+00 -4.5181574892050172e-16 0.0000000000000000e+00  1.0000000000000000e+00 1.2009582586565239e-15 0.0000000000000000e+00  1.0000000000000004e+00 -4.0592908045933525e-16 0.0000000000000000e+00  1.0000000000000004e+00 2.8085546960337481e-16 0.0000000000000000e+00  1.0000000000000011e+00 6.4675351504004370e-17 0.0000000000000000e+00  1.0000000000000000e+00 -2.7667262285620061e-16 0.0000000000000000e+00  1.0000000000000002e+00 1.8546342811860468e-17 0.0000000000000000e+00  1.0000000000000007e+00 -3.0523071418990148e-16 0.0000000000000000e+00  1.0000000000000004e+00 -1.6210992167190465e-16 0.0000000000000000e+00  1.0000000000000004e+00 4.0819898114456124e-16 0.0000000000000000e+00  1.0000000000000004e+00 -4.4915516650467454e-16 0.0000000000000000e+00  1.0000000000000004e+00 1.0565140037033002e-15 0.0000000000000000e+00  1.0000000000000000e+00 -4.1035553032778536e-16 0.0000000000000000e+00  1.0000000000000004e+00 3.3666191160296125e-16 0.0000000000000000e+00  1.0000000000000004e+00 -9.3141153087011279e-16 0.0000000000000000e+00  9.9999999999999967e-01 0.0000000000000000e+00 0.0000000000000000e+00  1.0000000000000567e+01 0.0000000000000000e+00 3.1291228238696377e-13  9.9999999999994333e+00 5.5430025369888648e-14 -7.5658425723439789e-14  1.0000000000000403e+01 1.1502089476818929e-13 2.2308426234632935e-14  9.9999999999997122e+00 -3.2164059446865397e-13 -1.9267658458102865e-13  1.0000000000000206e+01 4.5808162215749261e-13 3.8807728038534902e-13  9.9999999999998703e+00 -5.8700430007673239e-13 -6.9045140431668398e-13  1.0000000000000007e+01 7.4751065638091485e-13 1.1803623035714490e-12  1.0000000000000263e+01 -9.7832738726674561e-13 -2.0007075951602790e-12  9.9999999999992468e+00 1.3236388903201406e-12 3.3731237855938695e-12  1.0000000000001577e+01 -1.8761309028677093e-12 -5.6580488925570267e-12  9.9999999999971472e+00 2.8180655968902111e-12 9.4277570707281842e-12  1.0000000000004848e+01 -4.3992586902709432e-12 -1.5601136200980522e-11  9.9999999999919549e+00 6.9319814707642849e-12 2.5644751063769962e-11  1.0000000000013292e+01 -1.0835936805347817e-11 -4.1888196557859274e-11  9.9999999999782574e+00 1.6862059565069662e-11 6.7990102765191294e-11  1.0000000000034902e+01 -2.6446494162704919e-11 -1.0965086071290380e-10  9.9999999999452065e+00 4.1996012792588005e-11 1.7568944647295654e-10  1.0000000000084716e+01 -6.6973890984424816e-11 -2.7967930921167737e-10  9.9999999998698108e+00 1.0591686458879288e-10 4.4236944099101085e-10  1.0000000000199853e+01 -1.6508669326403731e-10 -6.9513114074170966e-10  9.9999999996946247e+00 2.5444101511529194e-10 1.0847687228783047e-09  1.0000000000461075e+01 -3.9088432558069003e-10 -1.6802183672289718e-09  9.9999999993154756e+00 6.0137112151830582e-10 2.5818986132725198e-09  1.0000000001000217e+01 -9.2437147500877674e-10 -3.9347177857266887e-09  9.9999999985548538e+00 1.4104006426236310e-09 5.9455450263149435e-09  1.0000000002072046e+01 -2.1263893989683746e-09 -8.9055085583267774e-09  9.9999999970559816e+00 3.1698710906692189e-09 1.3217003413834638e-08  1.0000000004121031e+01 -4.6935558492870741e-09 -1.9425471861848127e-08  9.9999999943517643e+00 6.9300102280789848e-09 2.8256739471424276e-08  1.0000000007560642e+01 -1.0201982049919510e-08 -4.0660755486917062e-08  9.9999999900978249e+00 1.4917427597390680e-08 5.7860323653631877e-08  1.0000000012729021e+01 -2.1579432623009345e-08 -8.1398442480283378e-08  9.9999999839498130e+00 3.0855498067281700e-08 1.1317422395566987e-07  1.0000000019700412e+01 -4.3719905681068815e-08 -1.5546007941427094e-07  9.9999999767853556e+00 6.1591292642894247e-08 2.1090547379948141e-07  1.0000000025842779e+01 -8.6344308832238366e-08 -2.8254380116831716e-07  9.9999999732725460e+00 1.2012021436074281e-07 3.7381848911473148e-07  1.0000000025114153e+01 -1.6514025933282558e-07 -4.8861281584577984e-07  9.9999999798272619e+00 2.2379804971417069e-07 6.3124860729406890e-07  1.0000000010433975e+01 -2.9936222570597367e-07 -8.0641024567034571e-07  1.0000000007047756e+01 3.9663618199541618e-07 1.0190713316679060e-06  9.9999999637039405e+00 -5.2213211207492267e-07 -1.2745225419944986e-06  1.0000000081311553e+01 6.8217018756766969e-07 1.5787511189261259e-06  9.9999998568896586e+00 -8.8146660404479421e-07 -1.9389215807317260e-06  1.0000000221133087e+01 1.1214845082272186e-06 2.3639847931112899e-06  9.9999996861682856e+00 -1.4064145989191449e-06 -2.8642836850305625e-06  1.0000000429400933e+01 1.7447844315552332e-06 3.4515440542522839e-06  9.9999994223945503e+00 -2.1590819837709052e-06 -4.1375926144389703e-06  1.0000000778187500e+01 2.6646795738758914e-06 4.9375321427155079e-06  9.9999989829393670e+00 -3.2772204620098519e-06 -5.8690695516748655e-06  1.0000001290368038e+01 3.9665450501348593e-06 6.9609386599990807e-06  9.9999984629970200e+00 -4.7378618458251155e-06 -8.2405355162588234e-06  1.0000001818691707e+01 5.5657357815951093e-06 9.7465716449314669e-06  9.9999978938913650e+00 -6.5895526829959545e-06 -1.1490824713424712e-05  1.0000002624445754e+01 7.8120858316681558e-06 1.3514138620529927e-05  9.9999968455899406e+00 -9.4185667808358539e-06 -1.5811675882745423e-05  1.0000003914423552e+01 1.1071964164374151e-05 1.8492382573934712e-05  9.9999958234336379e+00 -1.2893826405361713e-05 -2.1548261612568463e-05  1.0000004648209599e+01 1.4368739386513829e-05 2.5171980545858044e-05  9.9999954975255498e+00 -1.6379388703003853e-05 -2.9179956191742247e-05  1.0000005738212888e+01 1.8702435804106769e-05 3.3787736702789647e-05  9.9999934359260507e+00 -2.2557712446325762e-05 -3.8568677676576944e-05  1.0000009013515008e+01 2.6420593831941202e-05 4.4085771461429707e-05  9.9999911918818167e+00 -3.0055941223820732e-05 -4.9903838554259640e-05  1.0000008773290270e+01 3.1828770358427664e-05 5.6958017216785261e-05  9.9999938910053459e+00 -3.2803567718386656e-05 -6.4320899154769189e-05  1.0000006669753031e+01 3.6333517752919523e-05 7.2325824442681113e-05  9.9999900315690819e+00 -4.2529818913567253e-05 -7.9765302651876914e-05  1.0000014888138116e+01 5.3750841445212510e-05 8.6810132272434641e-05  9.9999813594423443e+00 -5.8709165703658256e-05 -9.4475333593086076e-05  1.0000010358354796e+01 5.9098862590319908e-05 1.0241527500090475e-04  9.9999974183922493e+00 -4.8343607307614314e-05 -1.1261087270526314e-04  9.9999905522106172e+00 4.5179652997466845e-05 1.2013275809490019e-04  9.9999965805721711e+00 -5.4059623604969745e-05 -1.2598005937745183e-04  1.0000015304990679e+01 8.0526070261782172e-05 1.2579821900400456e-04  9.9999614931691045e+00 -9.2309020924071896e-05 -1.2435662821689902e-04  1.0000004663698835e+01 9.5279852666578356e-05 1.2497939768771248e-04  9.9999943283186532e+00 -1.2146650641049173e-05 -1.2600265217227035e-04  9.9998856380597161e+00 6.0998796211303826e-05 1.2801628451171166e-04  9.9999175284000099e+00 1.2412702891753468e-04 -1.1419217155990525e-04  9.9997477178059260e+00 3.2685848270988001e-04 9.3894049323881303e-