<?xml version="1.0"?>
<VTKFile type="UnstructuredGrid"  version="0.1"  >
<UnstructuredGrid>
<Piece  NumberOfPoints="8241" NumberOfCells="16000">
<Points>
<DataArray  type="Float64"  NumberOfComponents="3"  format="ascii">-5 -1 0  -4.95 -1 0  -4.9 -1 0  -4.85 -1 0  -4.8 -1 0  -4.75 -1 0  -4.7 -1 0  -4.65 -1 0  -4.6 -1 0  -4.55 -1 0  -4.5 -1 0  -4.45 -1 0  -4.4 -1 0  -4.35 -1 0  -4.3 -1 0  -4.25 -1 0  -4.2 -1 0  -4.15 -1 0  -4.1 -1 0  -4.05 -1 0  -4 -1 0  -3.95 -1 0  -3.9 -1 0  -3.85 -1 0  -3.8 -1 0  -3.75 -1 0  -3.7 -1 0  -3.65 -1 0  -3.6 -1 0  -3.55 -1 0  -3.5 -1 0  -3.45 -1 0  -3.4 -1 0  -3.35 -1 0  -3.3 -1 0  -3.25 -1 0  -3.2 -1 0  -3.15 -1 0  -3.1 -1 0  -3.05 -1 0  -3 -1 0  -2.95 -1 0  -2.9 -1 0  -2.85 -1 0  -2.8 -1 0  -2.75 -1 0  -2.7 -1 0  -2.65 -1 0  -2.6 -1 0  -2.55 -1 0  -2.5 -1 0  -2.45 -1 0  -2.4 -1 0  -2.35 -1 0  -2.3 -1 0  -2.25 -1 0  -2.2 -1 0  -2.15 -1 0  -2.1 -1 0  -2.05 -1 0  -2 -1 0  -1.95 -1 0  -1.9 -1 0  -1.85 -1 0  -1.8 -1 0  -1.75 -1 0  -1.7 -1 0  -1.65 -1 0  -1.6 -1 0  -1.55 -1 0  -1.5 -1 0  -1.45 -1 0  -1.4 -1 0  -1.35 -1 0  -1.3 -1 0  -1.25 -1 0  -1.2 -1 0  -1.15 -1 0  -1.1 -1 0  -1.05 -1 0  -1 -1 0  -0.9500000000000002 -1 0  -0.9000000000000004 -1 0  -0.8499999999999996 -1 0  -0.7999999999999998 -1 0  -0.75 -1 0  -0.7000000000000002 -1 0  -0.6500000000000004 -1 0  -0.5999999999999996 -1 0  -0.5499999999999998 -1 0  -0.5 -1 0  -0.4500000000000002 -1 0  -0.4000000000000004 -1 0  -0.3499999999999996 -1 0  -0.2999999999999998 -1 0  -0.25 -1 0  -0.2000000000000002 -1 0  -0.1500000000000004 -1 0  -0.09999999999999964 -1 0  -0.04999999999999982 -1 0  0 -1 0  0.04999999999999982 -1 0  0.09999999999999964 -1 0  0.1500000000000004 -1 0  0.2000000000000002 -1 0  0.25 -1 0  0.2999999999999998 -1 0  0.3499999999999996 -1 0  0.4000000000000004 -1 0  0.4500000000000002 -1 0  0.5 -1 0  0.5499999999999998 -1 0  0.5999999999999996 -1 0  0.6500000000000004 -1 0  0.7000000000000002 -1 0  0.75 -1 0  0.7999999999999998 -1 0  0.8499999999999996 -1 0  0.9000000000000004 -1 0  0.9500000000000002 -1 0  1 -1 0  1.05 -1 0  1.1 -1 0  1.15 -1 0  1.2 -1 0  1.25 -1 0  1.3 -1 0  1.35 -1 0  1.4 -1 0  1.45 -1 0  1.5 -1 0  1.55 -1 0  1.6 -1 0  1.65 -1 0  1.7 -1 0  1.75 -1 0  1.8 -1 0  1.85 -1 0  1.9 -1 0  1.95 -1 0  2 -1 0  2.05 -1 0  2.1 -1 0  2.15 -1 0  2.2 -1 0  2.25 -1 0  2.3 -1 0  2.35 -1 0  2.4 -1 0  2.45 -1 0  2.5 -1 0  2.55 -1 0  2.6 -1 0  2.65 -1 0  2.7 -1 0  2.75 -1 0  2.8 -1 0  2.85 -1 0  2.9 -1 0  2.95 -1 0  3 -1 0  3.050000000000001 -1 0  3.1 -1 0  3.15 -1 0  3.199999999999999 -1 0  3.25 -1 0  3.300000000000001 -1 0  3.35 -1 0  3.4 -1 0  3.449999999999999 -1 0  3.5 -1 0  3.550000000000001 -1 0  3.6 -1 0  3.65 -1 0  3.699999999999999 -1 0  3.75 -1 0  3.800000000000001 -1 0  3.85 -1 0  3.9 -1 0  3.949999999999999 -1 0  4 -1 0  4.050000000000001 -1 0  4.1 -1 0  4.15 -1 0  4.199999999999999 -1 0  4.25 -1 0  4.300000000000001 -1 0  4.35 -1 0  4.4 -1 0  4.449999999999999 -1 0  4.5 -1 0  4.550000000000001 -1 0  4.6 -1 0  4.65 -1 0  4.699999999999999 -1 0  4.75 -1 0  4.800000000000001 -1 0  4.85 -1 0  4.9 -1 0  4.949999999999999 -1 0  5 -1 0  -5 -0.95 0  -4.95 -0.95 0  -4.9 -0.95 0  -4.85 -0.95 0  -4.8 -0.95 0  -4.75 -0.95 0  -4.7 -0.95 0  -4.65 -0.95 0  -4.6 -0.95 0  -4.55 -0.95 0  -4.5 -0.95 0  -4.45 -0.95 0  -4.4 -0.95 0  -4.35 -0.95 0  -4.3 -0.95 0  -4.25 -0.95 0  -4.2 -0.95 0  -4.15 -0.95 0  -4.1 -0.95 0  -4.05 -0.95 0  -4 -0.95 0  -3.95 -0.95 0  -3.9 -0.95 0  -3.85 -0.95 0  -3.8 -0.95 0  -3.75 -0.95 0  -3.7 -0.95 0  -3.65 -0.95 0  -3.6 -0.95 0  -3.55 -0.95 0  -3.5 -0.95 0  -3.45 -0.95 0  -3.4 -0.95 0  -3.35 -0.95 0  -3.3 -0.95 0  -3.25 -0.95 0  -3.2 -0.95 0  -3.15 -0.95 0  -3.1 -0.95 0  -3.05 -0.95 0  -3 -0.95 0  -2.95 -0.95 0  -2.9 -0.95 0  -2.85 -0.95 0  -2.8 -0.95 0  -2.75 -0.95 0  -2.7 -0.95 0  -2.65 -0.95 0  -2.6 -0.95 0  -2.55 -0.95 0  -2.5 -0.95 0  -2.45 -0.95 0  -2.4 -0.95 0  -2.35 -0.95 0  -2.3 -0.95 0  -2.25 -0.95 0  -2.2 -0.95 0  -2.15 -0.95 0  -2.1 -0.95 0  -2.05 -0.95 0  -2 -0.95 0  -1.95 -0.95 0  -1.9 -0.95 0  -1.85 -0.95 0  -1.8 -0.95 0  -1.75 -0.95 0  -1.7 -0.95 0  -1.65 -0.95 0  -1.6 -0.95 0  -1.55 -0.95 0  -1.5 -0.95 0  -1.45 -0.95 0  -1.4 -0.95 0  -1.35 -0.95 0  -1.3 -0.95 0  -1.25 -0.95 0  -1.2 -0.95 0  -1.15 -0.95 0  -1.1 -0.95 0  -1.05 -0.95 0  -1 -0.95 0  -0.9500000000000002 -0.95 0  -0.9000000000000004 -0.95 0  -0.8499999999999996 -0.95 0  -0.7999999999999998 -0.95 0  -0.75 -0.95 0  -0.7000000000000002 -0.95 0  -0.6500000000000004 -0.95 0  -0.5999999999999996 -0.95 0  -0.5499999999999998 -0.95 0  -0.5 -0.95 0  -0.4500000000000002 -0.95 0  -0.4000000000000004 -0.95 0  -0.3499999999999996 -0.95 0  -0.2999999999999998 -0.95 0  -0.25 -0.95 0  -0.2000000000000002 -0.95 0  -0.1500000000000004 -0.95 0  -0.09999999999999964 -0.95 0  -0.04999999999999982 -0.95 0  0 -0.95 0  0.04999999999999982 -0.95 0  0.09999999999999964 -0.95 0  0.1500000000000004 -0.95 0  0.2000000000000002 -0.95 0  0.25 -0.95 0  0.2999999999999998 -0.95 0  0.3499999999999996 -0.95 0  0.4000000000000004 -0.95 0  0.4500000000000002 -0.95 0  0.5 -0.95 0  0.5499999999999998 -0.95 0  0.5999999999999996 -0.95 0  0.6500000000000004 -0.95 0  0.7000000000000002 -0.95 0  0.75 -0.95 0  0.7999999999999998 -0.95 0  0.8499999999999996 -0.95 0  0.9000000000000004 -0.95 0  0.9500000000000002 -0.95 0  1 -0.95 0  1.05 -0.95 0  1.1 -0.95 0  1.15 -0.95 0  1.2 -0.95 0  1.25 -0.95 0  1.3 -0.95 0  1.35 -0.95 0  1.4 -0.95 0  1.45 -0.95 0  1.5 -0.95 0  1.55 -0.95 0  1.6 -0.95 0  1.65 -0.95 0  1.7 -0.95 0  1.75 -0.95 0  1.8 -0.95 0  1.85 -0.95 0  1.9 -0.95 0  1.95 -0.95 0  2 -0.95 0  2.05 -0.95 0  2.1 -0.95 0  2.15 -0.95 0  2.2 -0.95 0  2.25 -0.95 0  2.3 -0.95 0  2.35 -0.95 0  2.4 -0.95 0  2.45 -0.95 0  2.5 -0.95 0  2.55 -0.95 0  2.6 -0.95 0  2.65 -0.95 0  2.7 -0.95 0  2.75 -0.95 0  2.8 -0.95 0  2.85 -0.95 0  2.9 -0.95 0  2.95 -0.95 0  3 -0.95 0  3.050000000000001 -0.95 0  3.1 -0.95 0  3.15 -0.95 0  3.199999999999999 -0.95 0  3.25 -0.95 0  3.300000000000001 -0.95 0  3.35 -0.95 0  3.4 -0.95 0  3.449999999999999 -0.95 0  3.5 -0.95 0  3.550000000000001 -0.95 0  3.6 -0.95 0  3.65 -0.95 0  3.699999999999999 -0.95 0  3.75 -0.95 0  3.800000000000001 -0.95 0  3.85 -0.95 0  3.9 -0.95 0  3.949999999999999 -0.95 0  4 -0.95 0  4.050000000000001 -0.95 0  4.1 -0.95 0  4.15 -0.95 0  4.199999999999999 -0.95 0  4.25 -0.95 0  4.300000000000001 -0.95 0  4.35 -0.95 0  4.4 -0.95 0  4.449999999999999 -0.95 0  4.5 -0.95 0  4.550000000000001 -0.95 0  4.6 -0.95 0  4.65 -0.95 0  4.699999999999999 -0.95 0  4.75 -0.95 0  4.800000000000001 -0.95 0  4.85 -0.95 0  4.9 -0.95 0  4.949999999999999 -0.95 0  5 -0.95 0  -5 -0.9 0  -4.95 -0.9 0  -4.9 -0.9 0  -4.85 -0.9 0  -4.8 -0.9 0  -4.75 -0.9 0  -4.7 -0.9 0  -4.65 -0.9 0  -4.6 -0.9 0  -4.55 -0.9 0  -4.5 -0.9 0  -4.45 -0.9 0  -4.4 -0.9 0  -4.35 -0.9 0  -4.3 -0.9 0  -4.25 -0.9 0  -4.2 -0.9 0  -4.15 -0.9 0  -4.1 -0.9 0  -4.05 -0.9 0  -4 -0.9 0  -3.95 -0.9 0  -3.9 -0.9 0  -3.85 -0.9 0  -3.8 -0.9 0  -3.75 -0.9 0  -3.7 -0.9 0  -3.65 -0.9 0  -3.6 -0.9 0  -3.55 -0.9 0  -3.5 -0.9 0  -3.45 -0.9 0  -3.4 -0.9 0  -3.35 -0.9 0  -3.3 -0.9 0  -3.25 -0.9 0  -3.2 -0.9 0  -3.15 -0.9 0  -3.1 -0.9 0  -3.05 -0.9 0  -3 -0.9 0  -2.95 -0.9 0  -2.9 -0.9 0  -2.85 -0.9 0  -2.8 -0.9 0  -2.75 -0.9 0  -2.7 -0.9 0  -2.65 -0.9 0  -2.6 -0.9 0  -2.55 -0.9 0  -2.5 -0.9 0  -2.45 -0.9 0  -2.4 -0.9 0  -2.35 -0.9 0  -2.3 -0.9 0  -2.25 -0.9 0  -2.2 -0.9 0  -2.15 -0.9 0  -2.1 -0.9 0  -2.05 -0.9 0  -2 -0.9 0  -1.95 -0.9 0  -1.9 -0.9 0  -1.85 -0.9 0  -1.8 -0.9 0  -1.75 -0.9 0  -1.7 -0.9 0  -1.65 -0.9 0  -1.6 -0.9 0  -1.55 -0.9 0  -1.5 -0.9 0  -1.45 -0.9 0  -1.4 -0.9 0  -1.35 -0.9 0  -1.3 -0.9 0  -1.25 -0.9 0  -1.2 -0.9 0  -1.15 -0.9 0  -1.1 -0.9 0  -1.05 -0.9 0  -1 -0.9 0  -0.9500000000000002 -0.9 0  -0.9000000000000004 -0.9 0  -0.8499999999999996 -0.9 0  -0.7999999999999998 -0.9 0  -0.75 -0.9 0  -0.7000000000000002 -0.9 0  -0.6500000000000004 -0.9 0  -0.5999999999999996 -0.9 0  -0.5499999999999998 -0.9 0  -0.5 -0.9 0  -0.4500000000000002 -0.9 0  -0.4000000000000004 -0.9 0  -0.3499999999999996 -0.9 0  -0.2999999999999998 -0.9 0  -0.25 -0.9 0  -0.2000000000000002 -0.9 0  -0.1500000000000004 -0.9 0  -0.09999999999999964 -0.9 0  -0.04999999999999982 -0.9 0  0 -0.9 0  0.04999999999999982 -0.9 0  0.09999999999999964 -0.9 0  0.1500000000000004 -0.9 0  0.2000000000000002 -0.9 0  0.25 -0.9 0  0.2999999999999998 -0.9 0  0.3499999999999996 -0.9 0  0.4000000000000004 -0.9 0  0.4500000000000002 -0.9 0  0.5 -0.9 0  0.5499999999999998 -0.9 0  0.5999999999999996 -0.9 0  0.6500000000000004 -0.9 0  0.7000000000000002 -0.9 0  0.75 -0.9 0  0.7999999999999998 -0.9 0  0.8499999999999996 -0.9 0  0.9000000000000004 -0.9 0  0.9500000000000002 -0.9 0  1 -0.9 0  1.05 -0.9 0  1.1 -0.9 0  1.15 -0.9 0  1.2 -0.9 0  1.25 -0.9 0  1.3 -0.9 0  1.35 -0.9 0  1.4 -0.9 0  1.45 -0.9 0  1.5 -0.9 0  1.55 -0.9 0  1.6 -0.9 0  1.65 -0.9 0  1.7 -0.9 0  1.75 -0.9 0  1.8 -0.9 0  1.85 -0.9 0  1.9 -0.9 0  1.95 -0.9 0  2 -0.9 0  2.05 -0.9 0  2.1 -0.9 0  2.15 -0.9 0  2.2 -0.9 0  2.25 -0.9 0  2.3 -0.9 0  2.35 -0.9 0  2.4 -0.9 0  2.45 -0.9 0  2.5 -0.9 0  2.55 -0.9 0  2.6 -0.9 0  2.65 -0.9 0  2.7 -0.9 0  2.75 -0.9 0  2.8 -0.9 0  2.85 -0.9 0  2.9 -0.9 0  2.95 -0.9 0  3 -0.9 0  3.050000000000001 -0.9 0  3.1 -0.9 0  3.15 -0.9 0  3.199999999999999 -0.9 0  3.25 -0.9 0  3.300000000000001 -0.9 0  3.35 -0.9 0  3.4 -0.9 0  3.449999999999999 -0.9 0  3.5 -0.9 0  3.550000000000001 -0.9 0  3.6 -0.9 0  3.65 -0.9 0  3.699999999999999 -0.9 0  3.75 -0.9 0  3.800000000000001 -0.9 0  3.85 -0.9 0  3.9 -0.9 0  3.949999999999999 -0.9 0  4 -0.9 0  4.050000000000001 -0.9 0  4.1 -0.9 0  4.15 -0.9 0  4.199999999999999 -0.9 0  4.25 -0.9 0  4.300000000000001 -0.9 0  4.35 -0.9 0  4.4 -0.9 0  4.449999999999999 -0.9 0  4.5 -0.9 0  4.550000000000001 -0.9 0  4.6 -0.9 0  4.65 -0.9 0  4.699999999999999 -0.9 0  4.75 -0.9 0  4.800000000000001 -0.9 0  4.85 -0.9 0  4.9 -0.9 0  4.949999999999999 -0.9 0  5 -0.9 0  -5 -0.85 0  -4.95 -0.85 0  -4.9 -0.85 0  -4.85 -0.85 0  -4.8 -0.85 0  -4.75 -0.85 0  -4.7 -0.85 0  -4.65 -0.85 0  -4.6 -0.85 0  -4.55 -0.85 0  -4.5 -0.85 0  -
[...]
<PointData  Vectors="f_15"> 
<DataArray  type="Float64"  Name="f_15"  NumberOfComponents="3" format="ascii">4.1212936376914175e+00 0.0000000000000000e+00 0.0000000000000000e+00  4.1354482920935851e+00 6.9307620900999095e-02 0.0000000000000000e+00  4.1206014807644289e+00 1.0168943016174913e-01 0.0000000000000000e+00  4.1341565305593164e+00 1.6802582287827397e-01 0.0000000000000000e+00  4.1214628051172877e+00 2.1835947779657033e-01 0.0000000000000000e+00  4.1333358452620388e+00 2.7527723218629052e-01 0.0000000000000000e+00  4.1202656397567399e+00 3.3188160072847456e-01 0.0000000000000000e+00  4.1339952441450949e+00 3.8393978032465270e-01 0.0000000000000000e+00  4.1193111130021220e+00 4.4664071669044059e-01 0.0000000000000000e+00  4.1327495157043934e+00 4.9297227301796565e-01 0.0000000000000000e+00  4.1201592531590645e+00 5.5791294209502507e-01 0.0000000000000000e+00  4.1312331317679307e+00 6.0660141280020774e-01 0.0000000000000000e+00  4.1192331429427629e+00 6.6871616031949510e-01 0.0000000000000000e+00  4.1319733623473711e+00 7.1585657660461455e-01 0.0000000000000000e+00  4.1173482707982894e+00 7.8448807354519501e-01 0.0000000000000000e+00  4.1311500503380580e+00 8.2524532598763045e-01 0.0000000000000000e+00  4.1181598317901118e+00 8.9493897681251644e-01 0.0000000000000000e+00  4.1287205178125372e+00 9.3990377223782284e-01 0.0000000000000000e+00  4.1175685708462755e+00 1.0058205804622953e+00 0.0000000000000000e+00  4.1294898399401943e+00 1.0491004271041071e+00 0.0000000000000000e+00  4.1146428619490782e+00 1.1215028750519094e+00 0.0000000000000000e+00  4.1291304562793112e+00 1.1595707478360762e+00 0.0000000000000000e+00  4.1152870379766915e+00 1.2309743215654647e+00 0.0000000000000000e+00  4.1258259918496680e+00 1.2753676270355601e+00 0.0000000000000000e+00  4.1150826781678091e+00 1.3409129517212117e+00 0.0000000000000000e+00  4.1263136379254082e+00 1.3862670338945069e+00 0.0000000000000000e+00  4.1114304143947384e+00 1.4545220615676508e+00 0.0000000000000000e+00  4.1262042221119435e+00 1.4990832594410886e+00 0.0000000000000000e+00  4.1117173073967033e+00 1.5623031323145067e+00 0.0000000000000000e+00  4.1221961640796003e+00 1.6160271763836429e+00 0.0000000000000000e+00  4.1117943765984757e+00 1.6715767097861167e+00 0.0000000000000000e+00  4.1218891013191481e+00 1.7267304942996113e+00 0.0000000000000000e+00  4.1079543077816600e+00 1.7875985612964493e+00 0.0000000000000000e+00  4.1213751424640561e+00 1.8325550567603168e+00 0.0000000000000000e+00  4.1078864887285844e+00 1.9067159340971933e+00 0.0000000000000000e+00  4.1166015470218333e+00 1.9362110170835418e+00 0.0000000000000000e+00  4.1081423560685684e+00 2.0245179540700176e+00 0.0000000000000000e+00  4.1149728423460701e+00 2.0474590230299041e+00 0.0000000000000000e+00  4.1044940051052228e+00 2.1289891101225979e+00 0.0000000000000000e+00  4.1137350627295621e+00 2.1695241431691019e+00 0.0000000000000000e+00  4.1035876441025305e+00 2.2342258168502793e+00 0.0000000000000000e+00  4.1088709516421904e+00 2.2759909033121271e+00 0.0000000000000000e+00  4.1032412532326648e+00 2.3603132475120274e+00 0.0000000000000000e+00  4.1061428756662961e+00 2.3704923798227746e+00 0.0000000000000000e+00  4.0997807180232275e+00 2.4802413709172888e+00 0.0000000000000000e+00  4.1040394653357337e+00 2.4843633508648066e+00 0.0000000000000000e+00  4.0978773038051299e+00 2.5812741076875096e+00 0.0000000000000000e+00  4.0995210888850737e+00 2.6036479265374028e+00 0.0000000000000000e+00  4.0963181567369285e+00 2.6915688101188238e+00 0.0000000000000000e+00  4.0963519838258735e+00 2.7067025146507655e+00 0.0000000000000000e+00  4.0926201888419049e+00 2.8125061920593852e+00 0.0000000000000000e+00  4.0935818744783745e+00 2.8117311227062864e+00 0.0000000000000000e+00  4.0898393565670625e+00 2.9191191048590195e+00 0.0000000000000000e+00  4.0892429596405337e+00 2.9352931207083852e+00 0.0000000000000000e+00  4.0871181274640955e+00 3.0137993888137653e+00 0.0000000000000000e+00  4.0858981785872421e+00 3.0549661279927323e+00 0.0000000000000000e+00  4.0828070267371661e+00 3.1267145828435030e+00 0.0000000000000000e+00  4.0827228579718806e+00 3.1530012491647610e+00 0.0000000000000000e+00  4.0792261098973253e+00 3.2477863648736855e+00 0.0000000000000000e+00  4.0782672487183405e+00 3.2640146842506148e+00 0.0000000000000000e+00  4.0756250825572060e+00 3.3426640236489322e+00 0.0000000000000000e+00  4.0747187254139039e+00 3.3940847904115268e+00 0.0000000000000000e+00  4.0704895001124877e+00 3.4409040864042062e+00 0.0000000000000000e+00  4.0714431703413609e+00 3.5000374520018238e+00 0.0000000000000000e+00  4.0658603875180583e+00 3.5642108048973191e+00 0.0000000000000000e+00  4.0669878374388437e+00 3.5991306991748422e+00 0.0000000000000000e+00  4.0612169761666186e+00 3.6713183949624972e+00 0.0000000000000000e+00  4.0633671661039434e+00 3.7221789704570498e+00 0.0000000000000000e+00  4.0550185873112339e+00 3.7657923833758136e+00 0.0000000000000000e+00  4.0600556107120811e+00 3.8374799159350443e+00 0.0000000000000000e+00  4.0494117445813176e+00 3.8790995456381419e+00 0.0000000000000000e+00  4.0552470644222538e+00 3.9382864506010917e+00 0.0000000000000000e+00  4.0441169835843542e+00 3.9922546301842283e+00 0.0000000000000000e+00  4.0511042081152357e+00 4.0493504593376706e+00 0.0000000000000000e+00  4.0370381980937298e+00 4.0952968021942464e+00 0.0000000000000000e+00  4.0476123966760262e+00 4.1613881383939120e+00 0.0000000000000000e+00  4.0303597666421611e+00 4.2046563605980660e+00 0.0000000000000000e+00  4.0424703772981028e+00 4.2653913274791755e+00 0.0000000000000000e+00  4.0242712400762084e+00 4.3171507870948727e+00 0.0000000000000000e+00  4.0378629327455311e+00 4.3703356003157205e+00 0.0000000000000000e+00  4.0161913585324722e+00 4.4269845961047434e+00 0.0000000000000000e+00  4.0340682020272860e+00 4.4753857946837847e+00 0.0000000000000000e+00  4.0087331343458743e+00 4.5386002518581519e+00 0.0000000000000000e+00  4.0275684679810997e+00 4.5772251628011338e+00 0.0000000000000000e+00  4.0034610155412658e+00 4.6515941225911934e+00 0.0000000000000000e+00  4.0199155931511168e+00 4.6791372863216374e+00 0.0000000000000000e+00  3.9974378861580830e+00 4.7614290133712061e+00 0.0000000000000000e+00  4.0123677893952330e+00 4.7854403198532669e+00 0.0000000000000000e+00  3.9923063290673442e+00 4.8651110878152632e+00 0.0000000000000000e+00  4.0020062731824382e+00 4.8966006995445035e+00 0.0000000000000000e+00  3.9891710886338636e+00 4.9649980797608482e+00 0.0000000000000000e+00  3.9908240120402882e+00 5.0084994976327435e+00 0.0000000000000000e+00  3.9843996427482780e+00 5.0648726568126712e+00 0.0000000000000000e+00  3.9816931094248655e+00 5.1181118859112598e+00 0.0000000000000000e+00  3.9770413952018497e+00 5.1675810077088284e+00 0.0000000000000000e+00  3.9737790737980769e+00 5.2229065080912056e+00 0.0000000000000000e+00  3.9692171474618290e+00 5.2728065603088377e+00 0.0000000000000000e+00  3.9646047926604480e+00 5.3269597829905626e+00 0.0000000000000000e+00  3.9617960323680141e+00 5.3759226433900027e+00 0.0000000000000000e+00  3.9558036359884712e+00 5.4309102763581905e+00 0.0000000000000000e+00  3.9523683429138363e+00 5.4800201888746933e+00 0.0000000000000000e+00  3.9475557282961287e+00 5.5322486252129783e+00 0.0000000000000000e+00  3.9434317316296030e+00 5.5837189846698632e+00 0.0000000000000000e+00  3.9371531484670399e+00 5.6347096296927424e+00 0.0000000000000000e+00  3.9353690611291654e+00 5.6841418941857080e+00 0.0000000000000000e+00  3.9269813413937680e+00 5.7373313853408341e+00 0.0000000000000000e+00  3.9251602279209399e+00 5.7851590890159343e+00 0.0000000000000000e+00  3.9178617593466880e+00 5.8366645734555966e+00 0.0000000000000000e+00  3.9145509937864795e+00 5.8868170350391678e+00 0.0000000000000000e+00  3.9071667677523543e+00 5.9361257097731688e+00 0.0000000000000000e+00  3.9048099692266702e+00 5.9846623099879652e+00 0.0000000000000000e+00  3.8957665269756130e+00 6.0371135974035326e+00 0.0000000000000000e+00  3.8948670260101959e+00 6.0802666477935512e+00 0.0000000000000000e+00  3.8838000765729763e+00 6.1362901507577901e+00 0.0000000000000000e+00  3.8849908685702519e+00 6.1757516687048559e+00 0.0000000000000000e+00  3.8716557304118289e+00 6.2339796373179661e+00 0.0000000000000000e+00  3.8738636531244186e+00 6.2693764336603897e+00 0.0000000000000000e+00  3.8611292028071516e+00 6.3292081508298619e+00 0.0000000000000000e+00  3.8609157097793467e+00 6.3645494632639918e+00 0.0000000000000000e+00  3.8512352640010961e+00 6.4187363363275161e+00 0.0000000000000000e+00  3.8482379710902577e+00 6.4596837135663039e+00 0.0000000000000000e+00  3.8411456867981357e+00 6.5064259108843823e+00 0.0000000000000000e+00  3.8358188855462880e+00 6.5512034740065541e+00 0.0000000000000000e+00  3.8312695653715196e+00 6.5914424457932217e+00 0.0000000000000000e+00  3.8251059736592321e+00 6.6406614800678092e+00 0.0000000000000000e+00  3.8197386133798337e+00 6.6715572491256037e+00 0.0000000000000000e+00  3.8197556280365998e+00 6.7278511608678810e+00 0.0000000000000000e+00  3.8036320607364180e+00 6.7417604279215499e+00 0.0000000000000000e+00  3.8230295112633366e+00 6.8209644905102707e+00 0.0000000000000000e+00  3.7808686906383935e+00 6.7930750334475851e+00 0.0000000000000000e+00  3.8320205864528920e+00 6.9197497645463164e+00 0.0000000000000000e+00  3.7575047802748531e+00 6.8379866836789915e+00 0.0000000000000000e+00  3.8352216545465367e+00 7.0079774415890865e+00 0.0000000000000000e+00  3.7467147803532859e+00 6.8768267008878592e+00 0.0000000000000000e+00  3.8306876454481493e+00 7.1089103708252610e+00 0.0000000000000000e+00  3.7660460690360473e+00 6.8309496797888274e+00 0.0000000000000000e+00  3.7748225950391894e+00 7.3473583323561229e+00 0.0000000000000000e+00  3.9966998374902873e+00 6.4663660465652590e+00 0.0000000000000000e+00  3.3965006718938469e+00 7.9603424979245805e+00 0.0000000000000000e+00  7.7356575085239365e+00 1.2356433412591123e+00 0.0000000000000000e+00  9.2253392275623582e+00 -6.9902832775212517e-02 0.0000000000000000e+00  9.2967608179068328e+00 -2.2446963315715443e-01 0.0000000000000000e+00  9.2486288808881909e+00 -1.8817325201456059e-01 0.0000000000000000e+00  9.3082794721804873e+00 -1.8270576862285995e-01 0.0000000000000000e+00  9.3255506556164800e+00 -1.9401728689957645e-01 0.0000000000000000e+00  9.3455313628369510e+00 -1.8792544942461797e-01 0.0000000000000000e+00  9.3542329575819316e+00 -1.7428609788163327e-01 0.0000000000000000e+00  9.3579042905295235e+00 -1.5385477391646651e-01 0.0000000000000000e+00  9.3733735891929317e+00 -1.5159782878487033e-01 0.0000000000000000e+00  9.3877776078100847e+00 -1.4376245254849027e-01 0.0000000000000000e+00  9.3927295731088432e+00 -1.2935171416999897e-01 0.0000000000000000e+00  9.4021313955652204e+00 -1.2433176152759869e-01 0.0000000000000000e+00  9.4111303528051593e+00 -1.1034989717208561e-01 0.0000000000000000e+00  9.4194736209373282e+00 -1.1201567686224166e-01 0.0000000000000000e+00  9.4260861968650946e+00 -9.3875614165724902e-02 0.0000000000000000e+00  9.4338729106895389e+00 -1.0014099953638006e-01 0.0000000000000000e+00  9.4382639174827467e+00 -7.9699593367306809e-02 0.0000000000000000e+00  9.4467521388277014e+00 -9.0496332471996413e-02 0.0000000000000000e+00  9.4501019111315188e+00 -6.8446380784907959e-02 0.0000000000000000e+00  9.4563019780880584e+00 -8.0704334669720088e-02 0.0000000000000000e+00  9.4601090543785133e+00 -5.8898795258916316e-02 0.0000000000000000e+00  9.4652646872878510e+00 -7.2415768240191455e-02 0.0000000000000000e+00  9.4677179398927933e+00 -5.1889346590811805e-02 0.0000000000000000e+00  9.4731818299068244e+00 -6.4415228580787950e-02 0.0000000000000000e+00  9.4739672438169542e+00 -4.8695520093354511e-02 0.0000000000000000e+00  9.4792317817998786e+00 -5.6881146273090925e-02 0.0000000000000000e+00  9.4798699725758002e+00 -4.8260697414459999e-02 0.0000000000000000e+00  9.4836170353055085e+00 -5.0160811111981014e-02 0.0000000000000000e+00  9.4845194217021032e+00 -4.8072327723843289e-02 0.0000000000000000e+00  9.4878089063749353e+00 -4.5693709681712297e-02 0.0000000000000000e+00  9.4875031198469415e+00 -4.7036069558270402e-02 0.0000000000000000e+00  9.4914019703761152e+00 -4.2918886633734284e-02 0.0000000000000000e+00  9.4902108857653715e+00 -4.5420803970892681e-02 0.0000000000000000e+00  9.4935119412442432e+00 -4.2788427711665883e-02 0.0000000000000000e+00  9.4928575392611076e+00 -4.6039133119349103e-02 0.0000000000000000e+00  9.4950751821598480e+00 -4.4447627898339497e-02 0.0000000000000000e+00  9.4945039712516355e+00 -4.7149458102866644e-02 0.0000000000000000e+00  9.4968392438914204e+00 -5.0002938481715178e-02 0.0000000000000000e+00  9.4953146116547629e+00 -4.9747414343411074e-02 0.0000000000000000e+00  9.4981788340675877e+00 -5.6978142594922614e-02 0.0000000000000000e+00  9.4964246333316176e+00 -5.3929722871472137e-02 0.0000000000000000e+00  9.4984118750701914e+00 -6.2891491340820380e-02 0.0000000000000000e+00  9.4976991633220784e+00 -5.7853660109655480e-02 0.0000000000000000e+00  9.4988764626633237e+00 -6.5944499373826126e-02 0.0000000000000000e+00  9.4978014072900390e+00 -5.7920284431491116e-02 0.0000000000000000e+00  9.4998639770165898e+00 -7.2994330528791174e-02 0.0000000000000000e+00  9.4980124002435016e+00 -6.7919618550324509e-02 0.0000000000000000e+00  9.4997106071627950e+00 -8.3764246801937933e-02 0.0000000000000000e+00  9.4988524225485236e+00 -7.9524376684291548e-02 0.0000000000000000e+00  9.4996250228374564e+00 -9.3650190144831544e-02 0.0000000000000000e+00  9.4988297953949026e+00 -8.5352050956457690e-02 0.0000000000000000e+00  9.5000008715222357e+00 -9.9430056465306837e-02 0.0000000000000000e+00  9.4988874145158757e+00 -8.1856052495944340e-02 0.0000000000000000e+00  9.4999815111128356e+00 -8.8414047294151810e-02 0.0000000000000000e+00  9.4990032374051587e+00 -8.2151769523690465e-02 0.0000000000000000e+00  9.5000688512247589e+00 -7.5282256541652687e-02 0.0000000000000000e+00  9.4990598261300185e+00 -8.2410407628428939e-02 0.0000000000000000e+00  9.4998067252704637e+00 -6.3060151469281220e-02 0.0000000000000000e+00  9.4992571729800179e+00 -9.8396902731754360e-02 0.0000000000000000e+00  9.4999307463624074e+00 -2.1429066207717416e-02 0.0000000000000000e+00  9.4991696621876862e+00 0.0000000000000000e+00 0.0000000000000000e+00  4.1366456764641821e+00 0.0000000000000000e+00 -3.8203402036214818e-03  4.1349773008252795e+00 5.2399851636501661e-02 -6.3118525611158393e-03  4.1355915868862905e+00 1.1808552383768899e-01 1.2721610845832150e-02  4.1365654659574229e+00 1.6827939310947168e-01 -7.4504680090222526e-03  4.1353055236933516e+00 2.2956843461963292e-01 4.6492394297321755e-03  4.1357072083913797e+00 2.8207418814797663e-01 -1.8273032584076913e-03  4.1364189494683714e+00 3.3987316698687042e-01 -2.1979933835831645e-04  4.1350535951320095e+00 3.9719363931102231e-01 1.8180781712922619e-03  4.1354493876388423e+00 4.4957876428187848e-01 -3.0328765378588710e-03  4.1359012175104093e+00 5.0974032591448692e-01 4.0387752923081478e-03  4.1342946121906801e+00 5.6260390129114868e-01 -4.3793883032396258e-03  4.1347860570777275e+00 6.2085392066249123e-01 4.3321335110163223e-03  4.1350728688419753e+00 6.7326708315618267e-01 -4.2485734199280015e-03  4.1328627894833083e+00 7.3532246145150404e-01 4.7459159966326565e-03  4.1341114043510565e+00 7.8333776517471265e-01 -5.4665724469952926e-03  4.1333108465746724e+00 8.4593660952487126e-01 6.3770466824088134e-03  4.1317376801681851e+00 8.9762522548979173e-01 -7.0598095201491245e-03  4.1321502764660716e+00 9.5660520746053535e-01 8.0695665721390308e-03  4.1323029397056414e+00 1.0064575728914942e+00 -9.2031382529066171e-03  4.1288142978274163e+00 1.0727130398026554e+00 1.0672873716543969e-02  4.1315449716452655e+00 1.1150517339001378e+00 -1.1759339973574156e-02  4.1288157932788891e+00 1.1832602415883375e+00 1.2623272960918213e-02  4.1279670250935396e+00 1.2289919810046879e+00 -1.2940098587226874e-02  4.1277839538634993e+00 1.2936025428561340e+00 1.3301024590707084e-02  4.1280030771561709e+00 1.3379427796983292e+00 -1.3471119098828461e-02  4.1234304508225410e+00 1.4081476901789924e+00 1.3816632155426391e-02  4.1272435978774249e+00 1.4477899535674925e+00 -1.3776974019502010e-02  4.1229606261584530e+00 1.5171614766157813e+00 1.3576759431652180e-02  4.1226478520574270e+00 1.5620088968086248e+00 -1.2867854750120099e-02  4.1221584363728629e+00 1.6267789780225406e+00 1.2088848786740316e-02  4.1217956063573986e+00 1.6713047235478742e+00 -1.1022351576122288e-02  4.1174764108821424e+00 1.7407157520641032e+00 9.9603092536418476e-03  4.1207080581346140e+00 1.7799144655530417e+00 -8.5161706210563990e-03  4.1166278176086557e+00 1.8522717627767193e+00 7.0114252139245603e-03  4.1155209728095103e+00 1.8911270286082829e+00 -5.4792313290091378e-03  4.1158774909554712e+00 1.9615770117487470e+00 4.5973028851383187e-03  4.1139903170110754e+00 2.0057461182222487e+00 -4.5013446341327498e-03  4.1108890292473772e+00 2.0658567086184778e+00 5.3172961492578162e-03  4.1131504706018251e+00 2.1231880055933861e+00 -6.4175417276292213e-03  4.1087671828161980e+00 2.1747642120757957e+00 7.3716307058473490e-03  4.1086509965285156e+00 2.2278807164103793e+00 -7.6782539363105971e-03  4.1073280714452922e+00 2.2971998412196517e+00 7.6819376195794500e-03  4.1065410551686465e+00 2.3286869005110944e+00 -7.6335760764283476e-03  4.1026467384972491e+00 2.4094345673534678e+00 8.1642703709291151e-03  4.1052281574897753e+00 2.4469792381882232e+00 -9.2207782262475717e-03  4.0996923716337346e+00 2.5097701497893330e+00 1.0540319975039026e-02  4.1013573541392647e+00 2.5628682749581615e+00 -1.1531076894410956e-02  4.0973754392354778e+00 2.6239442860205759e+00 1.1744214337720533e-02  4.0987143335821949e+00 2.6644146177993222e+00 -1.1012900863664687e-02  4.0931748856888941e+00 2.7424778859147594e+00 9.9808875855557297e-03  4.0963356152763195e+00 2.7736215205620849e+00 -9.2368202884919176e-03  4.0900211496611298e+00 2.8468905924614569e+00 9.4542722080545784e-03  4.0924905418472006e+00 2.8940222480418232e+00 -1.0568333893276013e-02  4.0867782935506956e+00 2.9495285216298006e+00 1.1874145624591621e-02  4.0897698187467775e+00 3.0047894136514763e+00 -1.2664191796496357e-02  4.0821064342326459e+00 3.0682590185410912e+00 1.2665483425399712e-02  4.0868887016912119e+00 3.1021549652500484e+00 -1.1989587910239782e-02  4.0786167308965515e+00 3.1874856984265962e+00 1.1292999370106341e-02  4.0823583288984366e+00 3.2141761695054329e+00 -1.0568454438150438e-02  4.0753818255120606e+00 3.2849227891826303e+00 9.8368155128716068e-03  4.0785473778029449e+00 3.3388941779980694e+00 -8.9826867913232918e-03  4.0707744623440112e+00 3.3888842478400316e+00 8.1389782399163366e-03  4.0749380274181854e+00 3.4413648207296230e+00 -7.7169660872067076e-03  4.0667077201963329e+00 3.5132235493805957e+00 7.6946142355933623e-03  4.0700321405344324e+00 3.5411371672734711e+00 -7.6112377013147995e-03  4.0629904318648000e+00 3.6200519011726424e+00 6.8579412310344331e-03  4.0653129612544738e+00 3.6636502100306307e+00 -5.1643715119138022e-03  4.0584648093570816e+00 3.7161718005614333e+00 3.0310060657472589e-03  4.0604149204751270e+00 3.7773725965949692e+00 -1.2650627170332899e-03  4.0545719292411224e+00 3.8306018800286843e+00 3.3645960546274423e-04  4.0542958108696325e+00 3.8783347023489987e+00 -4.6709582328839720e-05  4.0507695272132214e+00 3.9426678354970557e+00 -3.5040934346673155e-04  4.0487164929283477e+00 3.9915163725294689e+00 1.3438925939873922e-03  4.0456777798261001e+00 4.0434444630108928e+00 -2.8993236172947024e-03  4.0432318884769449e+00 4.1060619611877289e+00 4.4495269003895213e-03  4.0412626962868563e+00 4.1506799582944973e+00 -5.4836581855247550e-03  4.0361348291742427e+00 4.2126481021611522e+00 5.9717485090336224e-03  4.0373017550072854e+00 4.2603003382329705e+00 -6.2819583683393571e-03  4.0295402830166394e+00 4.3216390434409133e+00 6.8551292237464586e-03  4.0316606797551717e+00 4.3654253936478415e+00 -7.7872411235939722e-03  4.0234404044400236e+00 4.4324927539282593e+00 8.8360607853082904e-03  4.0265821835542672e+00 4.4709915296430802e+00 -9.6