<?xml version="1.0"?>
<VTKFile type="UnstructuredGrid"  version="0.1"  >
<UnstructuredGrid>
<Piece  NumberOfPoints="8241" NumberOfCells="16000">
<Points>
<DataArray  type="Float64"  NumberOfComponents="3"  format="ascii">-5 -1 0  -4.95 -1 0  -4.9 -1 0  -4.85 -1 0  -4.8 -1 0  -4.75 -1 0  -4.7 -1 0  -4.65 -1 0  -4.6 -1 0  -4.55 -1 0  -4.5 -1 0  -4.45 -1 0  -4.4 -1 0  -4.35 -1 0  -4.3 -1 0  -4.25 -1 0  -4.2 -1 0  -4.15 -1 0  -4.1 -1 0  -4.05 -1 0  -4 -1 0  -3.95 -1 0  -3.9 -1 0  -3.85 -1 0  -3.8 -1 0  -3.75 -1 0  -3.7 -1 0  -3.65 -1 0  -3.6 -1 0  -3.55 -1 0  -3.5 -1 0  -3.45 -1 0  -3.4 -1 0  -3.35 -1 0  -3.3 -1 0  -3.25 -1 0  -3.2 -1 0  -3.15 -1 0  -3.1 -1 0  -3.05 -1 0  -3 -1 0  -2.95 -1 0  -2.9 -1 0  -2.85 -1 0  -2.8 -1 0  -2.75 -1 0  -2.7 -1 0  -2.65 -1 0  -2.6 -1 0  -2.55 -1 0  -2.5 -1 0  -2.45 -1 0  -2.4 -1 0  -2.35 -1 0  -2.3 -1 0  -2.25 -1 0  -2.2 -1 0  -2.15 -1 0  -2.1 -1 0  -2.05 -1 0  -2 -1 0  -1.95 -1 0  -1.9 -1 0  -1.85 -1 0  -1.8 -1 0  -1.75 -1 0  -1.7 -1 0  -1.65 -1 0  -1.6 -1 0  -1.55 -1 0  -1.5 -1 0  -1.45 -1 0  -1.4 -1 0  -1.35 -1 0  -1.3 -1 0  -1.25 -1 0  -1.2 -1 0  -1.15 -1 0  -1.1 -1 0  -1.05 -1 0  -1 -1 0  -0.9500000000000002 -1 0  -0.9000000000000004 -1 0  -0.8499999999999996 -1 0  -0.7999999999999998 -1 0  -0.75 -1 0  -0.7000000000000002 -1 0  -0.6500000000000004 -1 0  -0.5999999999999996 -1 0  -0.5499999999999998 -1 0  -0.5 -1 0  -0.4500000000000002 -1 0  -0.4000000000000004 -1 0  -0.3499999999999996 -1 0  -0.2999999999999998 -1 0  -0.25 -1 0  -0.2000000000000002 -1 0  -0.1500000000000004 -1 0  -0.09999999999999964 -1 0  -0.04999999999999982 -1 0  0 -1 0  0.04999999999999982 -1 0  0.09999999999999964 -1 0  0.1500000000000004 -1 0  0.2000000000000002 -1 0  0.25 -1 0  0.2999999999999998 -1 0  0.3499999999999996 -1 0  0.4000000000000004 -1 0  0.4500000000000002 -1 0  0.5 -1 0  0.5499999999999998 -1 0  0.5999999999999996 -1 0  0.6500000000000004 -1 0  0.7000000000000002 -1 0  0.75 -1 0  0.7999999999999998 -1 0  0.8499999999999996 -1 0  0.9000000000000004 -1 0  0.9500000000000002 -1 0  1 -1 0  1.05 -1 0  1.1 -1 0  1.15 -1 0  1.2 -1 0  1.25 -1 0  1.3 -1 0  1.35 -1 0  1.4 -1 0  1.45 -1 0  1.5 -1 0  1.55 -1 0  1.6 -1 0  1.65 -1 0  1.7 -1 0  1.75 -1 0  1.8 -1 0  1.85 -1 0  1.9 -1 0  1.95 -1 0  2 -1 0  2.05 -1 0  2.1 -1 0  2.15 -1 0  2.2 -1 0  2.25 -1 0  2.3 -1 0  2.35 -1 0  2.4 -1 0  2.45 -1 0  2.5 -1 0  2.55 -1 0  2.6 -1 0  2.65 -1 0  2.7 -1 0  2.75 -1 0  2.8 -1 0  2.85 -1 0  2.9 -1 0  2.95 -1 0  3 -1 0  3.050000000000001 -1 0  3.1 -1 0  3.15 -1 0  3.199999999999999 -1 0  3.25 -1 0  3.300000000000001 -1 0  3.35 -1 0  3.4 -1 0  3.449999999999999 -1 0  3.5 -1 0  3.550000000000001 -1 0  3.6 -1 0  3.65 -1 0  3.699999999999999 -1 0  3.75 -1 0  3.800000000000001 -1 0  3.85 -1 0  3.9 -1 0  3.949999999999999 -1 0  4 -1 0  4.050000000000001 -1 0  4.1 -1 0  4.15 -1 0  4.199999999999999 -1 0  4.25 -1 0  4.300000000000001 -1 0  4.35 -1 0  4.4 -1 0  4.449999999999999 -1 0  4.5 -1 0  4.550000000000001 -1 0  4.6 -1 0  4.65 -1 0  4.699999999999999 -1 0  4.75 -1 0  4.800000000000001 -1 0  4.85 -1 0  4.9 -1 0  4.949999999999999 -1 0  5 -1 0  -5 -0.95 0  -4.95 -0.95 0  -4.9 -0.95 0  -4.85 -0.95 0  -4.8 -0.95 0  -4.75 -0.95 0  -4.7 -0.95 0  -4.65 -0.95 0  -4.6 -0.95 0  -4.55 -0.95 0  -4.5 -0.95 0  -4.45 -0.95 0  -4.4 -0.95 0  -4.35 -0.95 0  -4.3 -0.95 0  -4.25 -0.95 0  -4.2 -0.95 0  -4.15 -0.95 0  -4.1 -0.95 0  -4.05 -0.95 0  -4 -0.95 0  -3.95 -0.95 0  -3.9 -0.95 0  -3.85 -0.95 0  -3.8 -0.95 0  -3.75 -0.95 0  -3.7 -0.95 0  -3.65 -0.95 0  -3.6 -0.95 0  -3.55 -0.95 0  -3.5 -0.95 0  -3.45 -0.95 0  -3.4 -0.95 0  -3.35 -0.95 0  -3.3 -0.95 0  -3.25 -0.95 0  -3.2 -0.95 0  -3.15 -0.95 0  -3.1 -0.95 0  -3.05 -0.95 0  -3 -0.95 0  -2.95 -0.95 0  -2.9 -0.95 0  -2.85 -0.95 0  -2.8 -0.95 0  -2.75 -0.95 0  -2.7 -0.95 0  -2.65 -0.95 0  -2.6 -0.95 0  -2.55 -0.95 0  -2.5 -0.95 0  -2.45 -0.95 0  -2.4 -0.95 0  -2.35 -0.95 0  -2.3 -0.95 0  -2.25 -0.95 0  -2.2 -0.95 0  -2.15 -0.95 0  -2.1 -0.95 0  -2.05 -0.95 0  -2 -0.95 0  -1.95 -0.95 0  -1.9 -0.95 0  -1.85 -0.95 0  -1.8 -0.95 0  -1.75 -0.95 0  -1.7 -0.95 0  -1.65 -0.95 0  -1.6 -0.95 0  -1.55 -0.95 0  -1.5 -0.95 0  -1.45 -0.95 0  -1.4 -0.95 0  -1.35 -0.95 0  -1.3 -0.95 0  -1.25 -0.95 0  -1.2 -0.95 0  -1.15 -0.95 0  -1.1 -0.95 0  -1.05 -0.95 0  -1 -0.95 0  -0.9500000000000002 -0.95 0  -0.9000000000000004 -0.95 0  -0.8499999999999996 -0.95 0  -0.7999999999999998 -0.95 0  -0.75 -0.95 0  -0.7000000000000002 -0.95 0  -0.6500000000000004 -0.95 0  -0.5999999999999996 -0.95 0  -0.5499999999999998 -0.95 0  -0.5 -0.95 0  -0.4500000000000002 -0.95 0  -0.4000000000000004 -0.95 0  -0.3499999999999996 -0.95 0  -0.2999999999999998 -0.95 0  -0.25 -0.95 0  -0.2000000000000002 -0.95 0  -0.1500000000000004 -0.95 0  -0.09999999999999964 -0.95 0  -0.04999999999999982 -0.95 0  0 -0.95 0  0.04999999999999982 -0.95 0  0.09999999999999964 -0.95 0  0.1500000000000004 -0.95 0  0.2000000000000002 -0.95 0  0.25 -0.95 0  0.2999999999999998 -0.95 0  0.3499999999999996 -0.95 0  0.4000000000000004 -0.95 0  0.4500000000000002 -0.95 0  0.5 -0.95 0  0.5499999999999998 -0.95 0  0.5999999999999996 -0.95 0  0.6500000000000004 -0.95 0  0.7000000000000002 -0.95 0  0.75 -0.95 0  0.7999999999999998 -0.95 0  0.8499999999999996 -0.95 0  0.9000000000000004 -0.95 0  0.9500000000000002 -0.95 0  1 -0.95 0  1.05 -0.95 0  1.1 -0.95 0  1.15 -0.95 0  1.2 -0.95 0  1.25 -0.95 0  1.3 -0.95 0  1.35 -0.95 0  1.4 -0.95 0  1.45 -0.95 0  1.5 -0.95 0  1.55 -0.95 0  1.6 -0.95 0  1.65 -0.95 0  1.7 -0.95 0  1.75 -0.95 0  1.8 -0.95 0  1.85 -0.95 0  1.9 -0.95 0  1.95 -0.95 0  2 -0.95 0  2.05 -0.95 0  2.1 -0.95 0  2.15 -0.95 0  2.2 -0.95 0  2.25 -0.95 0  2.3 -0.95 0  2.35 -0.95 0  2.4 -0.95 0  2.45 -0.95 0  2.5 -0.95 0  2.55 -0.95 0  2.6 -0.95 0  2.65 -0.95 0  2.7 -0.95 0  2.75 -0.95 0  2.8 -0.95 0  2.85 -0.95 0  2.9 -0.95 0  2.95 -0.95 0  3 -0.95 0  3.050000000000001 -0.95 0  3.1 -0.95 0  3.15 -0.95 0  3.199999999999999 -0.95 0  3.25 -0.95 0  3.300000000000001 -0.95 0  3.35 -0.95 0  3.4 -0.95 0  3.449999999999999 -0.95 0  3.5 -0.95 0  3.550000000000001 -0.95 0  3.6 -0.95 0  3.65 -0.95 0  3.699999999999999 -0.95 0  3.75 -0.95 0  3.800000000000001 -0.95 0  3.85 -0.95 0  3.9 -0.95 0  3.949999999999999 -0.95 0  4 -0.95 0  4.050000000000001 -0.95 0  4.1 -0.95 0  4.15 -0.95 0  4.199999999999999 -0.95 0  4.25 -0.95 0  4.300000000000001 -0.95 0  4.35 -0.95 0  4.4 -0.95 0  4.449999999999999 -0.95 0  4.5 -0.95 0  4.550000000000001 -0.95 0  4.6 -0.95 0  4.65 -0.95 0  4.699999999999999 -0.95 0  4.75 -0.95 0  4.800000000000001 -0.95 0  4.85 -0.95 0  4.9 -0.95 0  4.949999999999999 -0.95 0  5 -0.95 0  -5 -0.9 0  -4.95 -0.9 0  -4.9 -0.9 0  -4.85 -0.9 0  -4.8 -0.9 0  -4.75 -0.9 0  -4.7 -0.9 0  -4.65 -0.9 0  -4.6 -0.9 0  -4.55 -0.9 0  -4.5 -0.9 0  -4.45 -0.9 0  -4.4 -0.9 0  -4.35 -0.9 0  -4.3 -0.9 0  -4.25 -0.9 0  -4.2 -0.9 0  -4.15 -0.9 0  -4.1 -0.9 0  -4.05 -0.9 0  -4 -0.9 0  -3.95 -0.9 0  -3.9 -0.9 0  -3.85 -0.9 0  -3.8 -0.9 0  -3.75 -0.9 0  -3.7 -0.9 0  -3.65 -0.9 0  -3.6 -0.9 0  -3.55 -0.9 0  -3.5 -0.9 0  -3.45 -0.9 0  -3.4 -0.9 0  -3.35 -0.9 0  -3.3 -0.9 0  -3.25 -0.9 0  -3.2 -0.9 0  -3.15 -0.9 0  -3.1 -0.9 0  -3.05 -0.9 0  -3 -0.9 0  -2.95 -0.9 0  -2.9 -0.9 0  -2.85 -0.9 0  -2.8 -0.9 0  -2.75 -0.9 0  -2.7 -0.9 0  -2.65 -0.9 0  -2.6 -0.9 0  -2.55 -0.9 0  -2.5 -0.9 0  -2.45 -0.9 0  -2.4 -0.9 0  -2.35 -0.9 0  -2.3 -0.9 0  -2.25 -0.9 0  -2.2 -0.9 0  -2.15 -0.9 0  -2.1 -0.9 0  -2.05 -0.9 0  -2 -0.9 0  -1.95 -0.9 0  -1.9 -0.9 0  -1.85 -0.9 0  -1.8 -0.9 0  -1.75 -0.9 0  -1.7 -0.9 0  -1.65 -0.9 0  -1.6 -0.9 0  -1.55 -0.9 0  -1.5 -0.9 0  -1.45 -0.9 0  -1.4 -0.9 0  -1.35 -0.9 0  -1.3 -0.9 0  -1.25 -0.9 0  -1.2 -0.9 0  -1.15 -0.9 0  -1.1 -0.9 0  -1.05 -0.9 0  -1 -0.9 0  -0.9500000000000002 -0.9 0  -0.9000000000000004 -0.9 0  -0.8499999999999996 -0.9 0  -0.7999999999999998 -0.9 0  -0.75 -0.9 0  -0.7000000000000002 -0.9 0  -0.6500000000000004 -0.9 0  -0.5999999999999996 -0.9 0  -0.5499999999999998 -0.9 0  -0.5 -0.9 0  -0.4500000000000002 -0.9 0  -0.4000000000000004 -0.9 0  -0.3499999999999996 -0.9 0  -0.2999999999999998 -0.9 0  -0.25 -0.9 0  -0.2000000000000002 -0.9 0  -0.1500000000000004 -0.9 0  -0.09999999999999964 -0.9 0  -0.04999999999999982 -0.9 0  0 -0.9 0  0.04999999999999982 -0.9 0  0.09999999999999964 -0.9 0  0.1500000000000004 -0.9 0  0.2000000000000002 -0.9 0  0.25 -0.9 0  0.2999999999999998 -0.9 0  0.3499999999999996 -0.9 0  0.4000000000000004 -0.9 0  0.4500000000000002 -0.9 0  0.5 -0.9 0  0.5499999999999998 -0.9 0  0.5999999999999996 -0.9 0  0.6500000000000004 -0.9 0  0.7000000000000002 -0.9 0  0.75 -0.9 0  0.7999999999999998 -0.9 0  0.8499999999999996 -0.9 0  0.9000000000000004 -0.9 0  0.9500000000000002 -0.9 0  1 -0.9 0  1.05 -0.9 0  1.1 -0.9 0  1.15 -0.9 0  1.2 -0.9 0  1.25 -0.9 0  1.3 -0.9 0  1.35 -0.9 0  1.4 -0.9 0  1.45 -0.9 0  1.5 -0.9 0  1.55 -0.9 0  1.6 -0.9 0  1.65 -0.9 0  1.7 -0.9 0  1.75 -0.9 0  1.8 -0.9 0  1.85 -0.9 0  1.9 -0.9 0  1.95 -0.9 0  2 -0.9 0  2.05 -0.9 0  2.1 -0.9 0  2.15 -0.9 0  2.2 -0.9 0  2.25 -0.9 0  2.3 -0.9 0  2.35 -0.9 0  2.4 -0.9 0  2.45 -0.9 0  2.5 -0.9 0  2.55 -0.9 0  2.6 -0.9 0  2.65 -0.9 0  2.7 -0.9 0  2.75 -0.9 0  2.8 -0.9 0  2.85 -0.9 0  2.9 -0.9 0  2.95 -0.9 0  3 -0.9 0  3.050000000000001 -0.9 0  3.1 -0.9 0  3.15 -0.9 0  3.199999999999999 -0.9 0  3.25 -0.9 0  3.300000000000001 -0.9 0  3.35 -0.9 0  3.4 -0.9 0  3.449999999999999 -0.9 0  3.5 -0.9 0  3.550000000000001 -0.9 0  3.6 -0.9 0  3.65 -0.9 0  3.699999999999999 -0.9 0  3.75 -0.9 0  3.800000000000001 -0.9 0  3.85 -0.9 0  3.9 -0.9 0  3.949999999999999 -0.9 0  4 -0.9 0  4.050000000000001 -0.9 0  4.1 -0.9 0  4.15 -0.9 0  4.199999999999999 -0.9 0  4.25 -0.9 0  4.300000000000001 -0.9 0  4.35 -0.9 0  4.4 -0.9 0  4.449999999999999 -0.9 0  4.5 -0.9 0  4.550000000000001 -0.9 0  4.6 -0.9 0  4.65 -0.9 0  4.699999999999999 -0.9 0  4.75 -0.9 0  4.800000000000001 -0.9 0  4.85 -0.9 0  4.9 -0.9 0  4.949999999999999 -0.9 0  5 -0.9 0  -5 -0.85 0  -4.95 -0.85 0  -4.9 -0.85 0  -4.85 -0.85 0  -4.8 -0.85 0  -4.75 -0.85 0  -4.7 -0.85 0  -4.65 -0.85 0  -4.6 -0.85 0  -4.55 -0.85 0  -4.5 -0.85 0  -
[...]
<PointData  Vectors="f_15"> 
<DataArray  type="Float64"  Name="f_15"  NumberOfComponents="3" format="ascii">2.7712353075400546e+00 0.0000000000000000e+00 0.0000000000000000e+00  2.7689635226078964e+00 4.5841124746765355e-02 0.0000000000000000e+00  2.7708072522077631e+00 9.1696981633499861e-02 0.0000000000000000e+00  2.7690080090238660e+00 1.0306656792158264e-01 0.0000000000000000e+00  2.7709107414642564e+00 1.6755220014702765e-01 0.0000000000000000e+00  2.7683710122498004e+00 1.8277482496931441e-01 0.0000000000000000e+00  2.7710750874505266e+00 2.4165564024514308e-01 0.0000000000000000e+00  2.7681722067326020e+00 2.5977620468996521e-01 0.0000000000000000e+00  2.7706433731284532e+00 3.1713690187473720e-01 0.0000000000000000e+00  2.7679694244722843e+00 3.4000796031010938e-01 0.0000000000000000e+00  2.7706488975713328e+00 3.8707150111454769e-01 0.0000000000000000e+00  2.7673000527491189e+00 4.2836926128204150e-01 0.0000000000000000e+00  2.7704307431471977e+00 4.4655217240486733e-01 0.0000000000000000e+00  2.7673958088427466e+00 5.2483319330217104e-01 0.0000000000000000e+00  2.7693418345450547e+00 5.0860433381790349e-01 0.0000000000000000e+00  2.7676306993665238e+00 6.0183372954123915e-01 0.0000000000000000e+00  2.7689019952322025e+00 6.0378736809294298e-01 0.0000000000000000e+00  2.7669635214806521e+00 6.5142917169947334e-01 0.0000000000000000e+00  2.7688083157087751e+00 7.0000461233009070e-01 0.0000000000000000e+00  2.7666782245698709e+00 7.2561232872669390e-01 0.0000000000000000e+00  2.7680027746857094e+00 7.6861405064204202e-01 0.0000000000000000e+00  2.7667274109091569e+00 8.0143640505384894e-01 0.0000000000000000e+00  2.7674731705871265e+00 8.6673238565324651e-01 0.0000000000000000e+00  2.7662146652824644e+00 8.4687656003240719e-01 0.0000000000000000e+00  2.7671528839925057e+00 9.5858448638206462e-01 0.0000000000000000e+00  2.7660633903322340e+00 9.4324296903989790e-01 0.0000000000000000e+00  2.7663074071551383e+00 9.9120833356034166e-01 0.0000000000000000e+00  2.7661481593706383e+00 1.0609828938787016e+00 0.0000000000000000e+00  2.7656284198016059e+00 1.0540283366843239e+00 0.0000000000000000e+00  2.7658814961211808e+00 1.1257348221821117e+00 0.0000000000000000e+00  2.7650858058925691e+00 1.1496660101829184e+00 0.0000000000000000e+00  2.7657896707191432e+00 1.1960056477452785e+00 0.0000000000000000e+00  2.7642630163899762e+00 1.2197572607545610e+00 0.0000000000000000e+00  2.7657595733404770e+00 1.2822266707820971e+00 0.0000000000000000e+00  2.7635201817648323e+00 1.2951293167848512e+00 0.0000000000000000e+00  2.7656593013489297e+00 1.3527107608545197e+00 0.0000000000000000e+00  2.7626848340200856e+00 1.3795435715435953e+00 0.0000000000000000e+00  2.7656053796622135e+00 1.4259667881803082e+00 0.0000000000000000e+00  2.7618932172756931e+00 1.4569063387674339e+00 0.0000000000000000e+00  2.7654203886581046e+00 1.5026584658450393e+00 0.0000000000000000e+00  2.7609883497676475e+00 1.5356614169832408e+00 0.0000000000000000e+00  2.7654899918733609e+00 1.5772195682403134e+00 0.0000000000000000e+00  2.7599015328301340e+00 1.6141978924468325e+00 0.0000000000000000e+00  2.7652344201026429e+00 1.6539217301753135e+00 0.0000000000000000e+00  2.7593532108708687e+00 1.6899908646676134e+00 0.0000000000000000e+00  2.7646488622054952e+00 1.7324526948036789e+00 0.0000000000000000e+00  2.7584486817240261e+00 1.7656433234430144e+00 0.0000000000000000e+00  2.7646150547615758e+00 1.8096459549321269e+00 0.0000000000000000e+00  2.7573537800433465e+00 1.8431120080112195e+00 0.0000000000000000e+00  2.7639624133362979e+00 1.8857959209650186e+00 0.0000000000000000e+00  2.7570450065976218e+00 1.9208656317259618e+00 0.0000000000000000e+00  2.7629407539231230e+00 1.9614089254384945e+00 0.0000000000000000e+00  2.7563281520748242e+00 1.9992726272651884e+00 0.0000000000000000e+00  2.7624124386212920e+00 2.0369364284057525e+00 0.0000000000000000e+00  2.7554924070201099e+00 2.0760457620172388e+00 0.0000000000000000e+00  2.7614115273388120e+00 2.1148141400249032e+00 0.0000000000000000e+00  2.7550831395345727e+00 2.1510553623976287e+00 0.0000000000000000e+00  2.7602549459810408e+00 2.1931671323788131e+00 0.0000000000000000e+00  2.7544925930500628e+00 2.2258004702421244e+00 0.0000000000000000e+00  2.7591498646663384e+00 2.2723929571971477e+00 0.0000000000000000e+00  2.7538782456913498e+00 2.2997678699063275e+00 0.0000000000000000e+00  2.7581099484800187e+00 2.3507403037345322e+00 0.0000000000000000e+00  2.7529558691449507e+00 2.3762774608614210e+00 0.0000000000000000e+00  2.7571573658225392e+00 2.4266881149147936e+00 0.0000000000000000e+00  2.7523318682418276e+00 2.4533102628627175e+00 0.0000000000000000e+00  2.7556931179579318e+00 2.5029988646072683e+00 0.0000000000000000e+00  2.7515642165878837e+00 2.5311278996472990e+00 0.0000000000000000e+00  2.7552099319327685e+00 2.5767910107328111e+00 0.0000000000000000e+00  2.7496363110327109e+00 2.6107144656688801e+00 0.0000000000000000e+00  2.7546096608020756e+00 2.6520723208133279e+00 0.0000000000000000e+00  2.7492292523979827e+00 2.6865986335706338e+00 0.0000000000000000e+00  2.7521382412548427e+00 2.7294166880694797e+00 0.0000000000000000e+00  2.7486521350517252e+00 2.7653243418842255e+00 0.0000000000000000e+00  2.7515517013857069e+00 2.8020027261965845e+00 0.0000000000000000e+00  2.7455996282500394e+00 2.8461996542781307e+00 0.0000000000000000e+00  2.7501478367522916e+00 2.8792812004929247e+00 0.0000000000000000e+00  2.7453664273247589e+00 2.9206919998380574e+00 0.0000000000000000e+00  2.7454985328013528e+00 2.9600287087629726e+00 0.0000000000000000e+00  2.7434206404536385e+00 2.9975362192681536e+00 0.0000000000000000e+00  2.7462263634434794e+00 3.0403358591556540e+00 0.0000000000000000e+00  2.7435024240554529e+00 3.0517574104437251e+00 0.0000000000000000e+00  2.6797219779245451e+00 3.2670700377589537e+00 0.0000000000000000e+00  3.3486822121284838e+00 2.0085592672071995e+00 0.0000000000000000e+00  4.9820790911424062e+00 -8.2011305234645571e-01 0.0000000000000000e+00  6.0813419021922401e+00 -2.2739678346075740e+00 0.0000000000000000e+00  6.5302773847541467e+00 -2.7988490804556689e+00 0.0000000000000000e+00  6.6797425826083074e+00 -2.9442552842643592e+00 0.0000000000000000e+00  6.7452341868248959e+00 -2.9806168237150219e+00 0.0000000000000000e+00  6.7822121784929550e+00 -2.9777763035330085e+00 0.0000000000000000e+00  6.8080704128357166e+00 -2.9638681470397406e+00 0.0000000000000000e+00  6.8307426512157088e+00 -2.9417643510550868e+00 0.0000000000000000e+00  6.8494997948214209e+00 -2.9198976858125505e+00 0.0000000000000000e+00  6.8694432441043851e+00 -2.8928467940233311e+00 0.0000000000000000e+00  6.8895263541840333e+00 -2.8734106208776224e+00 0.0000000000000000e+00  6.9091181569421929e+00 -2.8453523604525977e+00 0.0000000000000000e+00  6.9277512189841941e+00 -2.8245775953037300e+00 0.0000000000000000e+00  6.9490599428099982e+00 -2.7979614685107017e+00 0.0000000000000000e+00  6.9671380573712760e+00 -2.7777880939450057e+00 0.0000000000000000e+00  6.9875117911691493e+00 -2.7490031473165102e+00 0.0000000000000000e+00  7.0071405867049723e+00 -2.7318621270649488e+00 0.0000000000000000e+00  7.0268563671528144e+00 -2.7016324008757797e+00 0.0000000000000000e+00  7.0458750049433263e+00 -2.6845234468057608e+00 0.0000000000000000e+00  7.0668072576680228e+00 -2.6555084470401238e+00 0.0000000000000000e+00  7.0853839076407601e+00 -2.6379882951604365e+00 0.0000000000000000e+00  7.1054736545302593e+00 -2.6085175563126533e+00 0.0000000000000000e+00  7.1257029848830253e+00 -2.5928152550679080e+00 0.0000000000000000e+00  7.1445605649578727e+00 -2.5614026128196059e+00 0.0000000000000000e+00  7.1650263648172912e+00 -2.5474933754976390e+00 0.0000000000000000e+00  7.1843691071700757e+00 -2.5154659987867984e+00 0.0000000000000000e+00  7.2046770638348088e+00 -2.5012348496811359e+00 0.0000000000000000e+00  7.2232192831205237e+00 -2.4707583330471374e+00 0.0000000000000000e+00  7.2451385154819494e+00 -2.4545707281478149e+00 0.0000000000000000e+00  7.2621360266853356e+00 -2.4265225133787194e+00 0.0000000000000000e+00  7.2848355080502953e+00 -2.4081802339628013e+00 0.0000000000000000e+00  7.3018557282744689e+00 -2.3821157456787283e+00 0.0000000000000000e+00  7.3243827226779104e+00 -2.3627748750134931e+00 0.0000000000000000e+00  7.3410449316834461e+00 -2.3369748305026410e+00 0.0000000000000000e+00  7.3645869990394743e+00 -2.3184017743619947e+00 0.0000000000000000e+00  7.3800414278117383e+00 -2.2916450021800956e+00 0.0000000000000000e+00  7.4043133496605140e+00 -2.2744092340305841e+00 0.0000000000000000e+00  7.4197126208059290e+00 -2.2461619809096107e+00 0.0000000000000000e+00  7.4436365809911926e+00 -2.2312910616765316e+00 0.0000000000000000e+00  7.4591242852320399e+00 -2.2000553311007875e+00 0.0000000000000000e+00  7.4834467008971961e+00 -2.1884814970686359e+00 0.0000000000000000e+00  7.4981346310565442e+00 -2.1548271331004356e+00 0.0000000000000000e+00  7.5230149775970236e+00 -2.1442727316750085e+00 0.0000000000000000e+00  7.5375887245860911e+00 -2.1106719992245178e+00 0.0000000000000000e+00  7.5620606249740998e+00 -2.0992191029311975e+00 0.0000000000000000e+00  7.5769072831774054e+00 -2.0666454837119943e+00 0.0000000000000000e+00  7.6013803905166020e+00 -2.0545079834300721e+00 0.0000000000000000e+00  7.6157061631227077e+00 -2.0230347101418551e+00 0.0000000000000000e+00  7.6405157264365826e+00 -2.0084392057688265e+00 0.0000000000000000e+00  7.6547169590114912e+00 -1.9797135726084345e+00 0.0000000000000000e+00  7.6790244195608057e+00 -1.9606282654235652e+00 0.0000000000000000e+00  7.6935859706785337e+00 -1.9357618167316264e+00 0.0000000000000000e+00  7.7175276271951940e+00 -1.9144771208650118e+00 0.0000000000000000e+00  7.7318715762707289e+00 -1.8909132804268536e+00 0.0000000000000000e+00  7.7557247697927449e+00 -1.8698655409871177e+00 0.0000000000000000e+00  7.7700897404283289e+00 -1.8448182984386123e+00 0.0000000000000000e+00  7.7932293187420170e+00 -1.8243513766845008e+00 0.0000000000000000e+00  7.8079764786047043e+00 -1.7983168888899945e+00 0.0000000000000000e+00  7.8304415477665215e+00 -1.7776084716805221e+00 0.0000000000000000e+00  7.8451748318141856e+00 -1.7514056824802904e+00 0.0000000000000000e+00  7.8671586345557181e+00 -1.7297580150055245e+00 0.0000000000000000e+00  7.8819281889163806e+00 -1.7044598438310579e+00 0.0000000000000000e+00  7.9031330905126804e+00 -1.6812610764530589e+00 0.0000000000000000e+00  7.9180232445251857e+00 -1.6574521760051097e+00 0.0000000000000000e+00  7.9385160923519393e+00 -1.6326156171729302e+00 0.0000000000000000e+00  7.9532779069951758e+00 -1.6095877314020850e+00 0.0000000000000000e+00  7.9731164558506462e+00 -1.5844210903649527e+00 0.0000000000000000e+00  7.9877499050414338e+00 -1.5600618731832314e+00 0.0000000000000000e+00  8.0068240928832601e+00 -1.5367163428518655e+00 0.0000000000000000e+00  8.0212354019025653e+00 -1.5078462509497945e+00 0.0000000000000000e+00  8.0396709296041688e+00 -1.4897980633208394e+00 0.0000000000000000e+00  8.0536510074683907e+00 -1.4531924642857945e+00 0.0000000000000000e+00  8.0714398621523564e+00 -1.4419246945359689e+00 0.0000000000000000e+00  8.0850476445115511e+00 -1.3990114787854082e+00 0.0000000000000000e+00  8.1020517689860192e+00 -1.3911356366938690e+00 0.0000000000000000e+00  8.1151859479919839e+00 -1.3461823422718082e+00 0.0000000000000000e+00  8.1316220444731293e+00 -1.3384479640959310e+00 0.0000000000000000e+00  8.1439714643203107e+00 -1.2934455134279847e+00 0.0000000000000000e+00  8.1598775821711858e+00 -1.2845260237735534e+00 0.0000000000000000e+00  8.1716274201484200e+00 -1.2410690027819096e+00 0.0000000000000000e+00  8.1866735843359546e+00 -1.2271460097316589e+00 0.0000000000000000e+00  8.1978796903728561e+00 -1.1895911158169763e+00 0.0000000000000000e+00  8.2123178630113323e+00 -1.1682831724437777e+00 0.0000000000000000e+00  8.2225612072284981e+00 -1.1353223042667415e+00 0.0000000000000000e+00  8.2364864989194491e+00 -1.1100962213605332e+00 0.0000000000000000e+00  8.2461006427283028e+00 -1.0791504681219866e+00 0.0000000000000000e+00  8.2589775091932509e+00 -1.0505309667300384e+00 0.0000000000000000e+00  8.2681406944271068e+00 -1.0243321955395848e+00 0.0000000000000000e+00  8.2803069547221586e+00 -9.9139879649022566e-01 0.0000000000000000e+00  8.2884559243288294e+00 -9.6622396610344019e-01 0.0000000000000000e+00  8.3001089083912643e+00 -9.3664385942106920e-01 0.0000000000000000e+00  8.3076095283025335e+00 -9.0450439084177303e-01 0.0000000000000000e+00  8.3181610335305152e+00 -8.8370937112570680e-01 0.0000000000000000e+00  8.3252050604269492e+00 -8.4372979741853971e-01 0.0000000000000000e+00  8.3350685543090783e+00 -8.2743853266833001e-01 0.0000000000000000e+00  8.3410087438773370e+00 -7.8375065790802956e-01 0.0000000000000000e+00  8.3504873695418578e+00 -7.6834508052777517e-01 0.0000000000000000e+00  8.3555792512685017e+00 -7.2289025659640083e-01 0.0000000000000000e+00  8.3641996086660644e+00 -7.0520938617014739e-01 0.0000000000000000e+00  8.3686367738228267e+00 -6.6086163971075396e-01 0.0000000000000000e+00  8.3766835674148492e+00 -6.4482599334730140e-01 0.0000000000000000e+00  8.3799958657127114e+00 -6.0280134491382031e-01 0.0000000000000000e+00  8.3876959486197613e+00 -5.9010450380911650e-01 0.0000000000000000e+00  8.3901387269369607e+00 -5.4653222384224331e-01 0.0000000000000000e+00  8.3971211796833103e+00 -5.2841286718498370e-01 0.0000000000000000e+00  8.3989308333669097e+00 -4.8572393089259874e-01 0.0000000000000000e+00  8.4053051780392636e+00 -4.6733720470464801e-01 0.0000000000000000e+00  8.4061611654674877e+00 -4.1541533286432614e-01 0.0000000000000000e+00  8.4121734896397271e+00 -3.9340476352702775e-01 0.0000000000000000e+00  8.4121599677764838e+00 -3.4273202486661086e-01 0.0000000000000000e+00  8.4174655487866215e+00 -3.1419477229051385e-01 0.0000000000000000e+00  8.4168086787514689e+00 -2.7627746017460220e-01 0.0000000000000000e+00  8.4214799632276662e+00 -2.3218470523162357e-01 0.0000000000000000e+00  8.4199013255727380e+00 -2.1028206083956377e-01 0.0000000000000000e+00  8.4241453548876510e+00 -1.5730754540308720e-01 0.0000000000000000e+00  8.4218604034372522e+00 -1.5104706480218874e-01 0.0000000000000000e+00  8.4255404900271955e+00 -4.7337919459291861e-02 0.0000000000000000e+00  8.4229404599562159e+00 0.0000000000000000e+00 0.0000000000000000e+00  2.7692611059646279e+00 0.0000000000000000e+00 8.7839391649328774e-03  2.7691520348709155e+00 3.2579537676856639e-02 -9.9013551100958740e-03  2.7696342375187752e+00 7.4509833706778494e-02 1.2656546324019639e-03  2.7692718767858180e+00 1.1704267622886064e-01 1.3409821975968241e-02  2.7693752027023066e+00 1.4640249280063841e-01 -1.6826445098523914e-02  2.7695013674940303e+00 1.9772965208937873e-01 1.8361286269225171e-02  2.7696285822616860e+00 2.2215965699953702e-01 -2.0274279634125952e-02  2.7691197433805033e+00 2.7946678490057492e-01 2.2093724976449233e-02  2.7698793208062016e+00 2.9499289263560630e-01 -2.0208121429834563e-02  2.7693309469764800e+00 3.5708608145601850e-01 1.3791396961901665e-02  2.7694861407116806e+00 3.7964442093953732e-01 -5.0277821702373847e-03  2.7695668859619800e+00 4.1927654795267350e-01 -2.2108839907967353e-03  2.7697269202374399e+00 4.7364302081287668e-01 5.4743417034875258e-03  2.7690550751650820e+00 4.8677799482060585e-01 -4.7294153704754913e-03  2.7700376638005797e+00 5.4652374927094027e-01 2.5886306471574225e-03  2.7691949386895010e+00 5.8156764809972472e-01 -1.5078503604336469e-03  2.7694386367411012e+00 6.0285091544514435e-01 1.5608394470534974e-03  2.7695899611534696e+00 6.6839249000771706e-01 -2.5475876742453800e-03  2.7693115593919817e+00 6.8916855014262268e-01 3.1158328073186917e-03  2.7690897765408309e+00 7.2659286754266550e-01 -2.1229431578517911e-03  2.7696056526329769e+00 7.7685629289134606e-01 4.6329261924746024e-04  2.7687835055863643e+00 8.1387045906878208e-01 1.9050602156416773e-03  2.7692700767452805e+00 8.3107839273529616e-01 -3.9960714835557739e-03  2.7687589978334888e+00 9.0420557905600063e-01 5.1291576350547896e-03  2.7690033856517489e+00 9.2129914645821198e-01 -4.0051325488437341e-03  2.7684178042137018e+00 9.4810660513075218e-01 4.2322013253495304e-04  2.7687481725459309e+00 1.0265746517080112e+00 3.4687255414338858e-03  2.7682189289762964e+00 1.0226980735202675e+00 -5.3820850048006729e-03  2.7682680157113517e+00 1.0819240501697680e+00 4.2510203445284252e-03  2.7678388598283945e+00 1.1252099235392516e+00 -1.1051116131816406e-03  2.7681202578400126e+00 1.1488580196448732e+00 -1.6329114678304802e-03  2.7671400905228238e+00 1.1949021827892130e+00 2.5469687415795614e-03  2.7678595428918897e+00 1.2373339571161486e+00 -2.3150056037798883e-03  2.7666495211273672e+00 1.2688993805899771e+00 2.6026403280311381e-03  2.7674314222818306e+00 1.3072372416028972e+00 -3.7899770448255534e-03  2.7660359345374470e+00 1.3547928104179086e+00 5.5045674284037536e-03  2.7670572006838707e+00 1.3804504106307252e+00 -6.1908834208127478e-03  2.7655068673711671e+00 1.4298952975508290e+00 5.8992856083887810e-03  2.7664034707979832e+00 1.4603950890547746e+00 -5.0411739498343426e-03  2.7650375883015670e+00 1.5057561686936765e+00 4.4738271984555390e-03  2.7658864665541789e+00 1.5365987890730408e+00 -4.1497640504526596e-03  2.7643940526995641e+00 1.5830867481337856e+00 3.8825665383695938e-03  2.7651517059089992e+00 1.6142491766317861e+00 -3.3171457749793681e-03  2.7641809387935110e+00 1.6582056561552103e+00 2.8398073852837517e-03  2.7641671668549521e+00 1.6928914529294314e+00 -2.2693993919215339e-03  2.7636074355240989e+00 1.7340314759319049e+00 1.8769458738739121e-03  2.7638022239101385e+00 1.7697626479322675e+00 -1.4089218359672859e-03  2.7627392367747405e+00 1.8114815957768884e+00 1.0488127434536575e-03  2.7630176656664016e+00 1.8462180190613515e+00 -8.3110325617611605e-04  2.7625172695928848e+00 1.8883204527013138e+00 7.2054691722321304e-04  2.7620346575721757e+00 1.9232164654526192e+00 -7.1327071623181540e-04  2.7617595555641206e+00 1.9654503077090337e+00 7.3374723306739793e-04  2.7617466320900448e+00 1.9998110206404824e+00 -7.2622875633157819e-04  2.7607967544335117e+00 2.0420891904333254e+00 6.7990269174049987e-04  2.7609987108695004e+00 2.0777880098309489e+00 -3.5323812318308393e-04  2.7604100941263825e+00 2.1176519596132337e+00 -1.8991524891190129e-04  2.7600189123254522e+00 2.1558649136941548e+00 1.0831316765642013e-03  2.7598723216541807e+00 2.1934434598285399e+00 -2.1095280877916852e-03  2.7591544240921251e+00 2.2344276119094220e+00 3.2824862002121574e-03  2.7593905378064205e+00 2.2683095019620962e+00 -4.4896591832498060e-03  2.7581810367598933e+00 2.3130518222852916e+00 5.6566078142188617e-03  2.7588273113750139e+00 2.3445031678477246e+00 -6.6701323881491340e-03  2.7572672087512715e+00 2.3902508438694077e+00 7.3501395831214273e-03  2.7584271577789106e+00 2.4207317991866986e+00 -7.7136150062290538e-03  2.7560219059106932e+00 2.4683077171849650e+00 7.7773396432677007e-03  2.7579239502473882e+00 2.4972270039240905e+00 -7.7050377729399816e-03  2.7555165189866346e+00 2.5441881911362403e+00 7.6156686709505537e-03  2.7565484335957029e+00 2.5756521106334969e+00 -7.6326618392151720e-03  2.7549036639700968e+00 2.6209927802769979e+00 7.7740996166127778e-03  2.7564963253382340e+00 2.6505179820434770e+00 -7.9846908922230845e-03  2.7528800644743066e+00 2.7000413221722774e+00 8.1485854999348312e-03  2.7563435393707678e+00 2.7272466241550530e+00 -8.0975694626108288e-03  2.7529770814703447e+00 2.7741238727980146e+00 8.0007903757051708e-03  2.7542014745105132e+00 2.8061892060269837e+00 -7.5434057639068427e-03  2.7531488365544172e+00 2.8508450154059806e+00 7.3771136174865144e-03  2.7550705874596062e+00 2.8792225755111671e+00 -6.4748073707888909e-03  2.7509574584158223e+00 2.9286999712046651e+00 6.2520329752754457e-03  2.7558661041972270e+00 2.9568291333576600e+00 -4.8316626170752325e-03  2.7527046863381783e+00 2.9985829936316786e+00 5.0809858913500108e-03  2.7539154195918853e+00 3.0384641601228783e+00 -5.4655922016160737e-03  2.7545191892502241e+00 3.0633239456276153e+00 1.1565919498745676e