<?xml version="1.0"?>
<VTKFile type="UnstructuredGrid"  version="0.1"  >
<UnstructuredGrid>
<Piece  NumberOfPoints="8241" NumberOfCells="16000">
<Points>
<DataArray  type="Float64"  NumberOfComponents="3"  format="ascii">-5 -1 0  -4.95 -1 0  -4.9 -1 0  -4.85 -1 0  -4.8 -1 0  -4.75 -1 0  -4.7 -1 0  -4.65 -1 0  -4.6 -1 0  -4.55 -1 0  -4.5 -1 0  -4.45 -1 0  -4.4 -1 0  -4.35 -1 0  -4.3 -1 0  -4.25 -1 0  -4.2 -1 0  -4.15 -1 0  -4.1 -1 0  -4.05 -1 0  -4 -1 0  -3.95 -1 0  -3.9 -1 0  -3.85 -1 0  -3.8 -1 0  -3.75 -1 0  -3.7 -1 0  -3.65 -1 0  -3.6 -1 0  -3.55 -1 0  -3.5 -1 0  -3.45 -1 0  -3.4 -1 0  -3.35 -1 0  -3.3 -1 0  -3.25 -1 0  -3.2 -1 0  -3.15 -1 0  -3.1 -1 0  -3.05 -1 0  -3 -1 0  -2.95 -1 0  -2.9 -1 0  -2.85 -1 0  -2.8 -1 0  -2.75 -1 0  -2.7 -1 0  -2.65 -1 0  -2.6 -1 0  -2.55 -1 0  -2.5 -1 0  -2.45 -1 0  -2.4 -1 0  -2.35 -1 0  -2.3 -1 0  -2.25 -1 0  -2.2 -1 0  -2.15 -1 0  -2.1 -1 0  -2.05 -1 0  -2 -1 0  -1.95 -1 0  -1.9 -1 0  -1.85 -1 0  -1.8 -1 0  -1.75 -1 0  -1.7 -1 0  -1.65 -1 0  -1.6 -1 0  -1.55 -1 0  -1.5 -1 0  -1.45 -1 0  -1.4 -1 0  -1.35 -1 0  -1.3 -1 0  -1.25 -1 0  -1.2 -1 0  -1.15 -1 0  -1.1 -1 0  -1.05 -1 0  -1 -1 0  -0.9500000000000002 -1 0  -0.9000000000000004 -1 0  -0.8499999999999996 -1 0  -0.7999999999999998 -1 0  -0.75 -1 0  -0.7000000000000002 -1 0  -0.6500000000000004 -1 0  -0.5999999999999996 -1 0  -0.5499999999999998 -1 0  -0.5 -1 0  -0.4500000000000002 -1 0  -0.4000000000000004 -1 0  -0.3499999999999996 -1 0  -0.2999999999999998 -1 0  -0.25 -1 0  -0.2000000000000002 -1 0  -0.1500000000000004 -1 0  -0.09999999999999964 -1 0  -0.04999999999999982 -1 0  0 -1 0  0.04999999999999982 -1 0  0.09999999999999964 -1 0  0.1500000000000004 -1 0  0.2000000000000002 -1 0  0.25 -1 0  0.2999999999999998 -1 0  0.3499999999999996 -1 0  0.4000000000000004 -1 0  0.4500000000000002 -1 0  0.5 -1 0  0.5499999999999998 -1 0  0.5999999999999996 -1 0  0.6500000000000004 -1 0  0.7000000000000002 -1 0  0.75 -1 0  0.7999999999999998 -1 0  0.8499999999999996 -1 0  0.9000000000000004 -1 0  0.9500000000000002 -1 0  1 -1 0  1.05 -1 0  1.1 -1 0  1.15 -1 0  1.2 -1 0  1.25 -1 0  1.3 -1 0  1.35 -1 0  1.4 -1 0  1.45 -1 0  1.5 -1 0  1.55 -1 0  1.6 -1 0  1.65 -1 0  1.7 -1 0  1.75 -1 0  1.8 -1 0  1.85 -1 0  1.9 -1 0  1.95 -1 0  2 -1 0  2.05 -1 0  2.1 -1 0  2.15 -1 0  2.2 -1 0  2.25 -1 0  2.3 -1 0  2.35 -1 0  2.4 -1 0  2.45 -1 0  2.5 -1 0  2.55 -1 0  2.6 -1 0  2.65 -1 0  2.7 -1 0  2.75 -1 0  2.8 -1 0  2.85 -1 0  2.9 -1 0  2.95 -1 0  3 -1 0  3.050000000000001 -1 0  3.1 -1 0  3.15 -1 0  3.199999999999999 -1 0  3.25 -1 0  3.300000000000001 -1 0  3.35 -1 0  3.4 -1 0  3.449999999999999 -1 0  3.5 -1 0  3.550000000000001 -1 0  3.6 -1 0  3.65 -1 0  3.699999999999999 -1 0  3.75 -1 0  3.800000000000001 -1 0  3.85 -1 0  3.9 -1 0  3.949999999999999 -1 0  4 -1 0  4.050000000000001 -1 0  4.1 -1 0  4.15 -1 0  4.199999999999999 -1 0  4.25 -1 0  4.300000000000001 -1 0  4.35 -1 0  4.4 -1 0  4.449999999999999 -1 0  4.5 -1 0  4.550000000000001 -1 0  4.6 -1 0  4.65 -1 0  4.699999999999999 -1 0  4.75 -1 0  4.800000000000001 -1 0  4.85 -1 0  4.9 -1 0  4.949999999999999 -1 0  5 -1 0  -5 -0.95 0  -4.95 -0.95 0  -4.9 -0.95 0  -4.85 -0.95 0  -4.8 -0.95 0  -4.75 -0.95 0  -4.7 -0.95 0  -4.65 -0.95 0  -4.6 -0.95 0  -4.55 -0.95 0  -4.5 -0.95 0  -4.45 -0.95 0  -4.4 -0.95 0  -4.35 -0.95 0  -4.3 -0.95 0  -4.25 -0.95 0  -4.2 -0.95 0  -4.15 -0.95 0  -4.1 -0.95 0  -4.05 -0.95 0  -4 -0.95 0  -3.95 -0.95 0  -3.9 -0.95 0  -3.85 -0.95 0  -3.8 -0.95 0  -3.75 -0.95 0  -3.7 -0.95 0  -3.65 -0.95 0  -3.6 -0.95 0  -3.55 -0.95 0  -3.5 -0.95 0  -3.45 -0.95 0  -3.4 -0.95 0  -3.35 -0.95 0  -3.3 -0.95 0  -3.25 -0.95 0  -3.2 -0.95 0  -3.15 -0.95 0  -3.1 -0.95 0  -3.05 -0.95 0  -3 -0.95 0  -2.95 -0.95 0  -2.9 -0.95 0  -2.85 -0.95 0  -2.8 -0.95 0  -2.75 -0.95 0  -2.7 -0.95 0  -2.65 -0.95 0  -2.6 -0.95 0  -2.55 -0.95 0  -2.5 -0.95 0  -2.45 -0.95 0  -2.4 -0.95 0  -2.35 -0.95 0  -2.3 -0.95 0  -2.25 -0.95 0  -2.2 -0.95 0  -2.15 -0.95 0  -2.1 -0.95 0  -2.05 -0.95 0  -2 -0.95 0  -1.95 -0.95 0  -1.9 -0.95 0  -1.85 -0.95 0  -1.8 -0.95 0  -1.75 -0.95 0  -1.7 -0.95 0  -1.65 -0.95 0  -1.6 -0.95 0  -1.55 -0.95 0  -1.5 -0.95 0  -1.45 -0.95 0  -1.4 -0.95 0  -1.35 -0.95 0  -1.3 -0.95 0  -1.25 -0.95 0  -1.2 -0.95 0  -1.15 -0.95 0  -1.1 -0.95 0  -1.05 -0.95 0  -1 -0.95 0  -0.9500000000000002 -0.95 0  -0.9000000000000004 -0.95 0  -0.8499999999999996 -0.95 0  -0.7999999999999998 -0.95 0  -0.75 -0.95 0  -0.7000000000000002 -0.95 0  -0.6500000000000004 -0.95 0  -0.5999999999999996 -0.95 0  -0.5499999999999998 -0.95 0  -0.5 -0.95 0  -0.4500000000000002 -0.95 0  -0.4000000000000004 -0.95 0  -0.3499999999999996 -0.95 0  -0.2999999999999998 -0.95 0  -0.25 -0.95 0  -0.2000000000000002 -0.95 0  -0.1500000000000004 -0.95 0  -0.09999999999999964 -0.95 0  -0.04999999999999982 -0.95 0  0 -0.95 0  0.04999999999999982 -0.95 0  0.09999999999999964 -0.95 0  0.1500000000000004 -0.95 0  0.2000000000000002 -0.95 0  0.25 -0.95 0  0.2999999999999998 -0.95 0  0.3499999999999996 -0.95 0  0.4000000000000004 -0.95 0  0.4500000000000002 -0.95 0  0.5 -0.95 0  0.5499999999999998 -0.95 0  0.5999999999999996 -0.95 0  0.6500000000000004 -0.95 0  0.7000000000000002 -0.95 0  0.75 -0.95 0  0.7999999999999998 -0.95 0  0.8499999999999996 -0.95 0  0.9000000000000004 -0.95 0  0.9500000000000002 -0.95 0  1 -0.95 0  1.05 -0.95 0  1.1 -0.95 0  1.15 -0.95 0  1.2 -0.95 0  1.25 -0.95 0  1.3 -0.95 0  1.35 -0.95 0  1.4 -0.95 0  1.45 -0.95 0  1.5 -0.95 0  1.55 -0.95 0  1.6 -0.95 0  1.65 -0.95 0  1.7 -0.95 0  1.75 -0.95 0  1.8 -0.95 0  1.85 -0.95 0  1.9 -0.95 0  1.95 -0.95 0  2 -0.95 0  2.05 -0.95 0  2.1 -0.95 0  2.15 -0.95 0  2.2 -0.95 0  2.25 -0.95 0  2.3 -0.95 0  2.35 -0.95 0  2.4 -0.95 0  2.45 -0.95 0  2.5 -0.95 0  2.55 -0.95 0  2.6 -0.95 0  2.65 -0.95 0  2.7 -0.95 0  2.75 -0.95 0  2.8 -0.95 0  2.85 -0.95 0  2.9 -0.95 0  2.95 -0.95 0  3 -0.95 0  3.050000000000001 -0.95 0  3.1 -0.95 0  3.15 -0.95 0  3.199999999999999 -0.95 0  3.25 -0.95 0  3.300000000000001 -0.95 0  3.35 -0.95 0  3.4 -0.95 0  3.449999999999999 -0.95 0  3.5 -0.95 0  3.550000000000001 -0.95 0  3.6 -0.95 0  3.65 -0.95 0  3.699999999999999 -0.95 0  3.75 -0.95 0  3.800000000000001 -0.95 0  3.85 -0.95 0  3.9 -0.95 0  3.949999999999999 -0.95 0  4 -0.95 0  4.050000000000001 -0.95 0  4.1 -0.95 0  4.15 -0.95 0  4.199999999999999 -0.95 0  4.25 -0.95 0  4.300000000000001 -0.95 0  4.35 -0.95 0  4.4 -0.95 0  4.449999999999999 -0.95 0  4.5 -0.95 0  4.550000000000001 -0.95 0  4.6 -0.95 0  4.65 -0.95 0  4.699999999999999 -0.95 0  4.75 -0.95 0  4.800000000000001 -0.95 0  4.85 -0.95 0  4.9 -0.95 0  4.949999999999999 -0.95 0  5 -0.95 0  -5 -0.9 0  -4.95 -0.9 0  -4.9 -0.9 0  -4.85 -0.9 0  -4.8 -0.9 0  -4.75 -0.9 0  -4.7 -0.9 0  -4.65 -0.9 0  -4.6 -0.9 0  -4.55 -0.9 0  -4.5 -0.9 0  -4.45 -0.9 0  -4.4 -0.9 0  -4.35 -0.9 0  -4.3 -0.9 0  -4.25 -0.9 0  -4.2 -0.9 0  -4.15 -0.9 0  -4.1 -0.9 0  -4.05 -0.9 0  -4 -0.9 0  -3.95 -0.9 0  -3.9 -0.9 0  -3.85 -0.9 0  -3.8 -0.9 0  -3.75 -0.9 0  -3.7 -0.9 0  -3.65 -0.9 0  -3.6 -0.9 0  -3.55 -0.9 0  -3.5 -0.9 0  -3.45 -0.9 0  -3.4 -0.9 0  -3.35 -0.9 0  -3.3 -0.9 0  -3.25 -0.9 0  -3.2 -0.9 0  -3.15 -0.9 0  -3.1 -0.9 0  -3.05 -0.9 0  -3 -0.9 0  -2.95 -0.9 0  -2.9 -0.9 0  -2.85 -0.9 0  -2.8 -0.9 0  -2.75 -0.9 0  -2.7 -0.9 0  -2.65 -0.9 0  -2.6 -0.9 0  -2.55 -0.9 0  -2.5 -0.9 0  -2.45 -0.9 0  -2.4 -0.9 0  -2.35 -0.9 0  -2.3 -0.9 0  -2.25 -0.9 0  -2.2 -0.9 0  -2.15 -0.9 0  -2.1 -0.9 0  -2.05 -0.9 0  -2 -0.9 0  -1.95 -0.9 0  -1.9 -0.9 0  -1.85 -0.9 0  -1.8 -0.9 0  -1.75 -0.9 0  -1.7 -0.9 0  -1.65 -0.9 0  -1.6 -0.9 0  -1.55 -0.9 0  -1.5 -0.9 0  -1.45 -0.9 0  -1.4 -0.9 0  -1.35 -0.9 0  -1.3 -0.9 0  -1.25 -0.9 0  -1.2 -0.9 0  -1.15 -0.9 0  -1.1 -0.9 0  -1.05 -0.9 0  -1 -0.9 0  -0.9500000000000002 -0.9 0  -0.9000000000000004 -0.9 0  -0.8499999999999996 -0.9 0  -0.7999999999999998 -0.9 0  -0.75 -0.9 0  -0.7000000000000002 -0.9 0  -0.6500000000000004 -0.9 0  -0.5999999999999996 -0.9 0  -0.5499999999999998 -0.9 0  -0.5 -0.9 0  -0.4500000000000002 -0.9 0  -0.4000000000000004 -0.9 0  -0.3499999999999996 -0.9 0  -0.2999999999999998 -0.9 0  -0.25 -0.9 0  -0.2000000000000002 -0.9 0  -0.1500000000000004 -0.9 0  -0.09999999999999964 -0.9 0  -0.04999999999999982 -0.9 0  0 -0.9 0  0.04999999999999982 -0.9 0  0.09999999999999964 -0.9 0  0.1500000000000004 -0.9 0  0.2000000000000002 -0.9 0  0.25 -0.9 0  0.2999999999999998 -0.9 0  0.3499999999999996 -0.9 0  0.4000000000000004 -0.9 0  0.4500000000000002 -0.9 0  0.5 -0.9 0  0.5499999999999998 -0.9 0  0.5999999999999996 -0.9 0  0.6500000000000004 -0.9 0  0.7000000000000002 -0.9 0  0.75 -0.9 0  0.7999999999999998 -0.9 0  0.8499999999999996 -0.9 0  0.9000000000000004 -0.9 0  0.9500000000000002 -0.9 0  1 -0.9 0  1.05 -0.9 0  1.1 -0.9 0  1.15 -0.9 0  1.2 -0.9 0  1.25 -0.9 0  1.3 -0.9 0  1.35 -0.9 0  1.4 -0.9 0  1.45 -0.9 0  1.5 -0.9 0  1.55 -0.9 0  1.6 -0.9 0  1.65 -0.9 0  1.7 -0.9 0  1.75 -0.9 0  1.8 -0.9 0  1.85 -0.9 0  1.9 -0.9 0  1.95 -0.9 0  2 -0.9 0  2.05 -0.9 0  2.1 -0.9 0  2.15 -0.9 0  2.2 -0.9 0  2.25 -0.9 0  2.3 -0.9 0  2.35 -0.9 0  2.4 -0.9 0  2.45 -0.9 0  2.5 -0.9 0  2.55 -0.9 0  2.6 -0.9 0  2.65 -0.9 0  2.7 -0.9 0  2.75 -0.9 0  2.8 -0.9 0  2.85 -0.9 0  2.9 -0.9 0  2.95 -0.9 0  3 -0.9 0  3.050000000000001 -0.9 0  3.1 -0.9 0  3.15 -0.9 0  3.199999999999999 -0.9 0  3.25 -0.9 0  3.300000000000001 -0.9 0  3.35 -0.9 0  3.4 -0.9 0  3.449999999999999 -0.9 0  3.5 -0.9 0  3.550000000000001 -0.9 0  3.6 -0.9 0  3.65 -0.9 0  3.699999999999999 -0.9 0  3.75 -0.9 0  3.800000000000001 -0.9 0  3.85 -0.9 0  3.9 -0.9 0  3.949999999999999 -0.9 0  4 -0.9 0  4.050000000000001 -0.9 0  4.1 -0.9 0  4.15 -0.9 0  4.199999999999999 -0.9 0  4.25 -0.9 0  4.300000000000001 -0.9 0  4.35 -0.9 0  4.4 -0.9 0  4.449999999999999 -0.9 0  4.5 -0.9 0  4.550000000000001 -0.9 0  4.6 -0.9 0  4.65 -0.9 0  4.699999999999999 -0.9 0  4.75 -0.9 0  4.800000000000001 -0.9 0  4.85 -0.9 0  4.9 -0.9 0  4.949999999999999 -0.9 0  5 -0.9 0  -5 -0.85 0  -4.95 -0.85 0  -4.9 -0.85 0  -4.85 -0.85 0  -4.8 -0.85 0  -4.75 -0.85 0  -4.7 -0.85 0  -4.65 -0.85 0  -4.6 -0.85 0  -4.55 -0.85 0  -4.5 -0.85 0  -
[...]
<PointData  Vectors="f_15"> 
<DataArray  type="Float64"  Name="f_15"  NumberOfComponents="3" format="ascii">4.0986472797045641e+00 0.0000000000000000e+00 0.0000000000000000e+00  4.1126521319955698e+00 6.9134922740425653e-02 0.0000000000000000e+00  4.0981567306876805e+00 1.0132660625863278e-01 0.0000000000000000e+00  4.1113151207224616e+00 1.6732474059381955e-01 0.0000000000000000e+00  4.0988628262216649e+00 2.1738466327719713e-01 0.0000000000000000e+00  4.1106235883634765e+00 2.7394556353554900e-01 0.0000000000000000e+00  4.0976263588528781e+00 3.3039619269134690e-01 0.0000000000000000e+00  4.1111415992362792e+00 3.8206411049008077e-01 0.0000000000000000e+00  4.0967577498394423e+00 4.4436248371147025e-01 0.0000000000000000e+00  4.1098727449536687e+00 4.9072948569593589e-01 0.0000000000000000e+00  4.0974703014547265e+00 5.5499846927303464e-01 0.0000000000000000e+00  4.1084316531949296e+00 6.0355821469682047e-01 0.0000000000000000e+00  4.0965252468325719e+00 6.6550331173709620e-01 0.0000000000000000e+00  4.1090673417371901e+00 7.1211218733991477e-01 0.0000000000000000e+00  4.0947007735189773e+00 7.8055076922770361e-01 0.0000000000000000e+00  4.1082270091869209e+00 8.2109559075543936e-01 0.0000000000000000e+00  4.0954589099823568e+00 8.9045980975262518e-01 0.0000000000000000e+00  4.1058172189449440e+00 9.3487017230206582e-01 0.0000000000000000e+00  4.0948768700918681e+00 1.0010528677782173e+00 0.0000000000000000e+00  4.1065569338656598e+00 1.0434579238419739e+00 0.0000000000000000e+00  4.0919579175102410e+00 1.1158744839746051e+00 0.0000000000000000e+00  4.1061989803573713e+00 1.1536642622837781e+00 0.0000000000000000e+00  4.0926281406776921e+00 1.2246657447440814e+00 0.0000000000000000e+00  4.1028626154182071e+00 1.2687157717889690e+00 0.0000000000000000e+00  4.0924382089374225e+00 1.3342446796384559e+00 0.0000000000000000e+00  4.1034203846384827e+00 1.3789980508090278e+00 0.0000000000000000e+00  4.0887221573047707e+00 1.4470710594226022e+00 0.0000000000000000e+00  4.1033553954675277e+00 1.4915539564628593e+00 0.0000000000000000e+00  4.0890953169667617e+00 1.5540710080372595e+00 0.0000000000000000e+00  4.0993005535490639e+00 1.6079901545292172e+00 0.0000000000000000e+00  4.0891985659958374e+00 1.6628214557186085e+00 0.0000000000000000e+00  4.0991521929002941e+00 1.7181496869342772e+00 0.0000000000000000e+00  4.0852655697798363e+00 1.7782591496554343e+00 0.0000000000000000e+00  4.0987275498328621e+00 1.8233698174225663e+00 0.0000000000000000e+00  4.0853353033299440e+00 1.8971877920865881e+00 0.0000000000000000e+00  4.0939073255549623e+00 1.9258586169018153e+00 0.0000000000000000e+00  4.0856613892241205e+00 2.0152059974315377e+00 0.0000000000000000e+00  4.0924541966678607e+00 2.0360887963322645e+00 0.0000000000000000e+00  4.0819587014011942e+00 2.1191964403687207e+00 0.0000000000000000e+00  4.0913161086867511e+00 2.1580485583107976e+00 0.0000000000000000e+00  4.0812053351137729e+00 2.2234159701430563e+00 0.0000000000000000e+00  4.0864465552750602e+00 2.2642000970648346e+00 0.0000000000000000e+00  4.0809241728793051e+00 2.3493195857043059e+00 0.0000000000000000e+00  4.0839052760673020e+00 2.3575099327309714e+00 0.0000000000000000e+00  4.0774310093719475e+00 2.4693153671301822e+00 0.0000000000000000e+00  4.0819255077499967e+00 2.4708811121794207e+00 0.0000000000000000e+00  4.0756322884780811e+00 2.5691699843850992e+00 0.0000000000000000e+00  4.0774805432298944e+00 2.5906507404632255e+00 0.0000000000000000e+00  4.0741096821075056e+00 2.6783398797463787e+00 0.0000000000000000e+00  4.0744869143428710e+00 2.6929695558607603e+00 0.0000000000000000e+00  4.0704151608959389e+00 2.7997462436660845e+00 0.0000000000000000e+00  4.0718522969097037e+00 2.7964397712597262e+00 0.0000000000000000e+00  4.0676802304914963e+00 2.9062325163632643e+00 0.0000000000000000e+00  4.0676637562178453e+00 2.9200643698685060e+00 0.0000000000000000e+00  4.0649755132598377e+00 2.9994012050963095e+00 0.0000000000000000e+00  4.0644667524567613e+00 3.0399979993803328e+00 0.0000000000000000e+00  4.0607350347628630e+00 3.1116930017890487e+00 0.0000000000000000e+00  4.0613996858795050e+00 3.1372846273801915e+00 0.0000000000000000e+00  4.0572098922104258e+00 3.2323965669429588e+00 0.0000000000000000e+00  4.0571168473833419e+00 3.2479479623913545e+00 0.0000000000000000e+00  4.0536380935595417e+00 3.3266414734949739e+00 0.0000000000000000e+00  4.0536985122490092e+00 3.3773374972061769e+00 0.0000000000000000e+00  4.0486277199068024e+00 3.4248037642147828e+00 0.0000000000000000e+00  4.0504964639814238e+00 3.4827208930988776e+00 0.0000000000000000e+00  4.0441205600110148e+00 3.5470473431420158e+00 0.0000000000000000e+00  4.0461675051093087e+00 3.5823472758882775e+00 0.0000000000000000e+00  4.0395947286165326e+00 3.6530073855247585e+00 0.0000000000000000e+00  4.0426109663488718e+00 3.7047213087036974e+00 0.0000000000000000e+00  4.0336316236372571e+00 3.7479196131308607e+00 0.0000000000000000e+00  4.0392862677906622e+00 3.8187422466843004e+00 0.0000000000000000e+00  4.0282742179187236e+00 3.8608196234117167e+00 0.0000000000000000e+00  4.0345290127305287e+00 3.9197990923151469e+00 0.0000000000000000e+00  4.0231727719822299e+00 3.9727420849911033e+00 0.0000000000000000e+00  4.0304523841186493e+00 4.0306293412848433e+00 0.0000000000000000e+00  4.0163527282972371e+00 4.0758207944846268e+00 0.0000000000000000e+00  4.0269580702949295e+00 4.1415940670787599e+00 0.0000000000000000e+00  4.0099805607960128e+00 4.1849725784499912e+00 0.0000000000000000e+00  4.0218605803572753e+00 4.2455384570989203e+00 0.0000000000000000e+00  4.0041061900977093e+00 4.2964522171134645e+00 0.0000000000000000e+00  4.0173994707759295e+00 4.3504215544968980e+00 0.0000000000000000e+00  3.9962118249690457e+00 4.4060292094219013e+00 0.0000000000000000e+00  4.0137452507826517e+00 4.4545629894027634e+00 0.0000000000000000e+00  3.9889456413776077e+00 4.5178490972057999e+00 0.0000000000000000e+00  4.0075090602435104e+00 4.5555503522089671e+00 0.0000000000000000e+00  3.9836536597526022e+00 4.6307777091950495e+00 0.0000000000000000e+00  4.0003646736170202e+00 4.6568660869267573e+00 0.0000000000000000e+00  3.9774999537234006e+00 4.7404863357537970e+00 0.0000000000000000e+00  3.9932747605377790e+00 4.7626105638966472e+00 0.0000000000000000e+00  3.9724295928129840e+00 4.8439583798888259e+00 0.0000000000000000e+00  3.9832245435639750e+00 4.8734349763595883e+00 0.0000000000000000e+00  3.9694013626547138e+00 4.9434949013943017e+00 0.0000000000000000e+00  3.9724147002575259e+00 4.9849841836905355e+00 0.0000000000000000e+00  3.9648250647251615e+00 5.0431198744227412e+00 0.0000000000000000e+00  3.9633365732713015e+00 5.0944249877102434e+00 0.0000000000000000e+00  3.9581127976048025e+00 5.1451559114406127e+00 0.0000000000000000e+00  3.9553123514802202e+00 5.1994180491541835e+00 0.0000000000000000e+00  3.9506788658686465e+00 5.2498648605407316e+00 0.0000000000000000e+00  3.9465014299569998e+00 5.3032191598883482e+00 0.0000000000000000e+00  3.9434277132530684e+00 5.3528100419538704e+00 0.0000000000000000e+00  3.9379764282999101e+00 5.4070270450553259e+00 0.0000000000000000e+00  3.9343763788309243e+00 5.4565129320184269e+00 0.0000000000000000e+00  3.9299988231308043e+00 5.5083131721244643e+00 0.0000000000000000e+00  3.9256824536497108e+00 5.5600359931618035e+00 0.0000000000000000e+00  3.9200506674817808e+00 5.6105057128952787e+00 0.0000000000000000e+00  3.9178486960735803e+00 5.6603691214315397e+00 0.0000000000000000e+00  3.9102391289740925e+00 5.7130286463796756e+00 0.0000000000000000e+00  3.9080214366912958e+00 5.7612151594293586e+00 0.0000000000000000e+00  3.9014318678116666e+00 5.8122770660263567e+00 0.0000000000000000e+00  3.8978011638871326e+00 5.8627860444843183e+00 0.0000000000000000e+00  3.8910913495284989e+00 5.9117653366284024e+00 0.0000000000000000e+00  3.8885292006110297e+00 5.9604058506603312e+00 0.0000000000000000e+00  3.8799324154464014e+00 6.0128349120249824e+00 0.0000000000000000e+00  3.8791751913912096e+00 6.0561198799672180e+00 0.0000000000000000e+00  3.8682394083866876e+00 6.1117033922566977e+00 0.0000000000000000e+00  3.8698323955993259e+00 6.1520489190186547e+00 0.0000000000000000e+00  3.8563329630249594e+00 6.2090491169951898e+00 0.0000000000000000e+00  3.8595521996401065e+00 6.2462352158787002e+00 0.0000000000000000e+00  3.8456974039560849e+00 6.3037653029722547e+00 0.0000000000000000e+00  3.8475899555239201e+00 6.3422639041054305e+00 0.0000000000000000e+00  3.8358986026677591e+00 6.3927550818573824e+00 0.0000000000000000e+00  3.8357596430361047e+00 6.4384105403496026e+00 0.0000000000000000e+00  3.8255887462620204e+00 6.4794211368959314e+00 0.0000000000000000e+00  3.8249580165956569e+00 6.5320556005722299e+00 0.0000000000000000e+00  3.8149939020329313e+00 6.5628503409333439e+00 0.0000000000000000e+00  3.8151467950899014e+00 6.6224331925161053e+00 0.0000000000000000e+00  3.8053502230618239e+00 6.6459649286422806e+00 0.0000000000000000e+00  3.8057418249971091e+00 6.7027703003141443e+00 0.0000000000000000e+00  3.7980093961809493e+00 6.7304147496877134e+00 0.0000000000000000e+00  3.7957746406932023e+00 6.7764626392733982e+00 0.0000000000000000e+00  3.7927957264419430e+00 6.8104619270830486e+00 0.0000000000000000e+00  3.7827190430511406e+00 6.8423660674309446e+00 0.0000000000000000e+00  3.7942701669183667e+00 6.9003811325461006e+00 0.0000000000000000e+00  3.7548756063771456e+00 6.8689852138926932e+00 0.0000000000000000e+00  3.8273843487758628e+00 7.0455294540908247e+00 0.0000000000000000e+00  3.6983847052024159e+00 6.7666303303314823e+00 0.0000000000000000e+00  3.8807618888174056e+00 7.3798857031589646e+00 0.0000000000000000e+00  3.7889683218240395e+00 6.2366579121658052e+00 0.0000000000000000e+00  3.4792607349453211e+00 8.4564756308275140e+00 0.0000000000000000e+00  5.5029253199494352e+00 3.7721382721256780e+00 0.0000000000000000e+00  8.9024065256405382e+00 1.1678710845891294e-01 0.0000000000000000e+00  9.3263461855077381e+00 -2.2998633813841096e-01 0.0000000000000000e+00  9.1970503890023867e+00 -1.9999157281878568e-01 0.0000000000000000e+00  9.2815050444890392e+00 -2.2250326821214647e-01 0.0000000000000000e+00  9.2927032961894085e+00 -1.9790260673279306e-01 0.0000000000000000e+00  9.3185431946450628e+00 -2.1692487594946511e-01 0.0000000000000000e+00  9.3351221475787227e+00 -1.9750678989088802e-01 0.0000000000000000e+00  9.3362976796222306e+00 -1.8036846428950540e-01 0.0000000000000000e+00  9.3503509837633700e+00 -1.6831171465214242e-01 0.0000000000000000e+00  9.3655221289510493e+00 -1.6378596042464652e-01 0.0000000000000000e+00  9.3764268036704834e+00 -1.5242118213882749e-01 0.0000000000000000e+00  9.3833905215560147e+00 -1.3832688772747673e-01 0.0000000000000000e+00  9.3934719658667252e+00 -1.3324215297655856e-01 0.0000000000000000e+00  9.4036261631153817e+00 -1.1938819704470384e-01 0.0000000000000000e+00  9.4117123378244845e+00 -1.1965883426537868e-01 0.0000000000000000e+00  9.4185486732667680e+00 -1.0083313886593127e-01 0.0000000000000000e+00  9.4272690287259948e+00 -1.0722541940587374e-01 0.0000000000000000e+00  9.4323265512892558e+00 -8.6173223666030196e-02 0.0000000000000000e+00  9.4406398987728757e+00 -9.6262055419915588e-02 0.0000000000000000e+00  9.4449934948045904e+00 -7.4117356451648159e-02 0.0000000000000000e+00  9.4511562637339193e+00 -8.5526605556003304e-02 0.0000000000000000e+00  9.4556998294237982e+00 -6.3750108456009813e-02 0.0000000000000000e+00  9.4611189272395233e+00 -7.6690536909981483e-02 0.0000000000000000e+00  9.4638836384077436e+00 -5.5725083983484122e-02 0.0000000000000000e+00  9.4696904726999875e+00 -6.8014218428430778e-02 0.0000000000000000e+00  9.4710040740033730e+00 -5.2057186243534705e-02 0.0000000000000000e+00  9.4761930524898776e+00 -5.9639425031819911e-02 0.0000000000000000e+00  9.4775225835042374e+00 -5.1134585331032094e-02 0.0000000000000000e+00  9.4812504292522544e+00 -5.2405703474621958e-02 0.0000000000000000e+00  9.4824574822303749e+00 -5.0294174190480816e-02 0.0000000000000000e+00  9.4860828944803188e+00 -4.7634001942857190e-02 0.0000000000000000e+00  9.4858632875052855e+00 -4.8728949747080592e-02 0.0000000000000000e+00  9.4899171579538368e+00 -4.4410951952371401e-02 0.0000000000000000e+00  9.4890949141530410e+00 -4.6909364029173242e-02 0.0000000000000000e+00  9.4923069524116350e+00 -4.3794903979580108e-02 0.0000000000000000e+00  9.4919280508649777e+00 -4.7256688755533800e-02 0.0000000000000000e+00  9.4943118450033932e+00 -4.5319902308769325e-02 0.0000000000000000e+00  9.4936600494929166e+00 -4.7922259970573686e-02 0.0000000000000000e+00  9.4963403546364589e+00 -5.0775013774060997e-02 0.0000000000000000e+00  9.4947113199120601e+00 -5.0384447503078980e-02 0.0000000000000000e+00  9.4977168764498359e+00 -5.7419506622744351e-02 0.0000000000000000e+00  9.4960796484728931e+00 -5.4527555556159076e-02 0.0000000000000000e+00  9.4980738233770072e+00 -6.3206261458722310e-02 0.0000000000000000e+00  9.4973189584617188e+00 -5.8229765578164304e-02 0.0000000000000000e+00  9.4988378761746706e+00 -6.6255056255862449e-02 0.0000000000000000e+00  9.4973967657511622e+00 -5.8156260662333030e-02 0.0000000000000000e+00  9.4998151294006306e+00 -7.3259695187185961e-02 0.0000000000000000e+00  9.4978540244689267e+00 -6.8124713042169091e-02 0.0000000000000000e+00  9.4995956822322380e+00 -8.3893998973150155e-02 0.0000000000000000e+00  9.4986857422704549e+00 -7.9772524612091777e-02 0.0000000000000000e+00  9.4996942127119794e+00 -9.3689930410778929e-02 0.0000000000000000e+00  9.4985950381415218e+00 -8.5444496176087181e-02 0.0000000000000000e+00  9.5000830947506909e+00 -9.9561070837802426e-02 0.0000000000000000e+00  9.4987352663313196e+00 -8.1812255048677909e-02 0.0000000000000000e+00  9.5000450789314499e+00 -8.8407684044939053e-02 0.0000000000000000e+00  9.4988814570759956e+00 -8.2261786137579507e-02 0.0000000000000000e+00  9.5001010058578323e+00 -7.5166191148729022e-02 0.0000000000000000e+00  9.4989921230358298e+00 -8.2429104688938812e-02 0.0000000000000000e+00  9.4998721621294475e+00 -6.3095450191824679e-02 0.0000000000000000e+00  9.4990728929489947e+00 -9.8297648168707688e-02 0.0000000000000000e+00  9.5000918662455529e+00 -2.1347787002307779e-02 0.0000000000000000e+00  9.4990464355875659e+00 0.0000000000000000e+00 0.0000000000000000e+00  4.1134764501321675e+00 0.0000000000000000e+00 -3.7481817581808347e-03  4.1121434400112591e+00 5.1916341340247099e-02 -6.4361140990653763e-03  4.1124373308930355e+00 1.1748308162805057e-01 1.2677683984681765e-02  4.1135460525412748e+00 1.6718711860496191e-01 -7.3507839890396068e-03  4.1123396845031062e+00 2.2829467623482044e-01 4.4138090616331034e-03  4.1126925807367103e+00 2.8063198631739239e-01 -1.5778919417896364e-03  4.1133593777493962e+00 3.3797339976618501e-01 -5.4383271512888662e-04  4.1122073016694181e+00 3.9515737129260103e-01 2.1005570587996725e-03  4.1124284898593251e+00 4.4725942332563090e-01 -3.3339691772672486e-03  4.1129913280299117e+00 5.0718447456336124e-01 4.2464047863456835e-03  4.1114285018410754e+00 5.5962131359978662e-01 -4.5692415806571646e-03  4.1119283115782324e+00 6.1791204681713086e-01 4.4809801640886106e-03  4.1121655043081713e+00 6.6976438474268984e-01 -4.4998354024643004e-03  4.1101360204237363e+00 7.3170905135469111e-01 5.0705362471981010e-03  4.1112619271607942e+00 7.7943458543078759e-01 -5.9116670155329601e-03  4.1105619727081883e+00 8.4186907340694084e-01 6.8698527954448255e-03  4.1089997955616067e+00 8.9290878220151848e-01 -7.6676441984162829e-03  4.1094431582906239e+00 9.5233446004989475e-01 8.7801719390776072e-03  4.1095959144915497e+00 1.0010807633472776e+00 -1.0052169292506683e-02  4.1061612240280105e+00 1.0678184604513679e+00 1.1576580372667754e-02  4.1089033392897560e+00 1.1093150125671716e+00 -1.2673792761156155e-02  4.1062110280022628e+00 1.1778342005771250e+00 1.3472045809183545e-02  4.1053593342844952e+00 1.2225491039087744e+00 -1.3728998770451828e-02  4.1052346546915874e+00 1.2878548316735912e+00 1.4016293075803751e-02  4.1054872139092682e+00 1.3309752324676281e+00 -1.4134119897568813e-02  4.1008737590961841e+00 1.4016399290845609e+00 1.4417569913987426e-02  4.1047879330075299e+00 1.4406176287356858e+00 -1.4318027169799743e-02  4.1005208200712282e+00 1.5099324525972502e+00 1.4055745897480713e-02  4.1001540726005521e+00 1.5542967218463086e+00 -1.3301516046672271e-02  4.0997768170911462e+00 1.6191328074726845e+00 1.2491294674313222e-02  4.0994357531561807e+00 1.6629906228472211e+00 -1.1404142412231989e-02  4.0950311780555770e+00 1.7324880612312543e+00 1.0316524948686321e-02  4.0983997159509507e+00 1.7711140686786024e+00 -8.8185421534443947e-03  4.0943347140798902e+00 1.8435587047339537e+00 7.2282688085894935e-03  4.0931107618923104e+00 1.8815709634873183e+00 -5.5712287003717833e-03  4.0936667311913713e+00 1.9525063512176153e+00 4.5541812354272159e-03  4.0916901671216381e+00 1.9956789068202714e+00 -4.3357470153945338e-03  4.0886158591973008e+00 2.0558261218800160e+00 5.0829101033158597e-03  4.0908959326037477e+00 2.1131873718032752e+00 -6.1826677003250022e-03  4.0866194731307823e+00 2.1636641212080177e+00 7.2029198250675120e-03  4.0863423341783855e+00 2.2173888302264468e+00 -7.6044959253581930e-03  4.0852117974808646e+00 2.2859879648659538e+00 7.7002815407553899e-03  4.0843712814054696e+00 2.3169542919830990e+00 -7.6820702640922577e-03  4.0804785558647980e+00 2.3981284498189330e+00 8.1956439975442615e-03  4.0831041377483706e+00 2.4347975143495129e+00 -9.1881492868786160e-03  4.0776517165689823e+00 2.4972660215866402e+00 1.0446129656920860e-02  4.0792095539237607e+00 2.5509135967415890e+00 -1.1407838521056474e-02  4.0753921146442593e+00 2.6105344236419938e+00 1.1620583098760675e-02  4.0766743440990254e+00 2.6515611902717851e+00 -1.0899817735853011e-02  4.0712113509453980e+00 2.7294082720680000e+00 9.8697124941614853e-03  4.0743426020230178e+00 2.7594597702002686e+00 -9.0712829216313597e-03  4.0681789559724368e+00 2.8333591573124881e+00 9.1822481980348980e-03  4.0705096680260517e+00 2.8801003465858779e+00 -1.0130653480652362e-02  4.0650555001859807e+00 2.9343636525492331e+00 1.1245040297281520e-02  4.0678207090301637e+00 2.9910875000671151e+00 -1.1901482547646862e-02  4.0605144105541724e+00 3.0525753717586475e+00 1.1859032138432320e-02  4.0649906454749720e+00 3.0874680410459767e+00 -1.1240744504923489e-02  4.0570992474166401e+00 3.1717041912846851e+00 1.0639632339581376e-02  4.0606005072369991e+00 3.1989456968977370e+00 -9.9643929124415935e-03  4.0539133209912901e+00 3.2685008645674842e+00 9.2267703255784674e-03  4.0568867254030980e+00 3.3231397753935505e+00 -8.3401260378282872e-03  4.0494436756851560e+00 3.3722300310529265e+00 7.5033826439475509e-03  4.0533464788480611e+00 3.4249668274593570e+00 -7.1468919799624929e-03  4.0454736910207778e+00 3.4958288519566141e+00 7.2009052227601953e-03  4.0485974826549480e+00 3.5248022468274058e+00 -7.1632624838085680e-03  4.0418279324273971e+00 3.6018813696952505e+00 6.4003273773976408e-03  4.0439938186715905e+00 3.6464912725258620e+00 -4.6859556269408928e-03  4.0374624435469002e+00 3.6983716811115550e+00 2.5571147423306758e-03  4.0391727731077003e+00 3.7590845180715449e+00 -8.2506762813053735e-04  4.0337098239360838e+00 3.8122901478893496e+00 -7.0842031768323619e-05  4.0332100326508531e+00 3.8602947666384195e+00 3.5988197946118554e-04  4.0299961775105944e+00 3.9231855916959271e+00 -7.7508020201970396e-04  4.0277989407128310e+00 3.9731565529685562e+00 1.7574241759367335e-03  4.0250368406669601e+00 4.0240670644921641e+00 -3.2434190345587526e-03  4.0224518603728159e+00 4.0865513490236927e+00 4.6792212505220509e-03  4.0207699050812762e+00 4.1311880856726084e+00 -5.6182227102469298e-03  4.0155373347795855e+00 4.1929508677246803e+00 6.0753200617218745e-03  4.0169135840751533e+00 4.2399156424356805e+00 -6.4205734937898776e-03  4.0091546294413165e+00 4.3017919249356718e+00 7.0509168604929329e-03  4.0114174803889497e+00 4.3447699903861619e+00 -8.0125643558320130e-03  4.0031921191422022e+00 4.4118963274484457e+00 9.0578025690076034e-03  4.0065783769336800e+00 4.4502003414225380e+00 -9.8