<?xml version="1.0"?>
<VTKFile type="UnstructuredGrid"  version="0.1"  >
<UnstructuredGrid>
<Piece  NumberOfPoints="8241" NumberOfCells="16000">
<Points>
<DataArray  type="Float64"  NumberOfComponents="3"  format="ascii">-5 -1 0  -4.95 -1 0  -4.9 -1 0  -4.85 -1 0  -4.8 -1 0  -4.75 -1 0  -4.7 -1 0  -4.65 -1 0  -4.6 -1 0  -4.55 -1 0  -4.5 -1 0  -4.45 -1 0  -4.4 -1 0  -4.35 -1 0  -4.3 -1 0  -4.25 -1 0  -4.2 -1 0  -4.15 -1 0  -4.1 -1 0  -4.05 -1 0  -4 -1 0  -3.95 -1 0  -3.9 -1 0  -3.85 -1 0  -3.8 -1 0  -3.75 -1 0  -3.7 -1 0  -3.65 -1 0  -3.6 -1 0  -3.55 -1 0  -3.5 -1 0  -3.45 -1 0  -3.4 -1 0  -3.35 -1 0  -3.3 -1 0  -3.25 -1 0  -3.2 -1 0  -3.15 -1 0  -3.1 -1 0  -3.05 -1 0  -3 -1 0  -2.95 -1 0  -2.9 -1 0  -2.85 -1 0  -2.8 -1 0  -2.75 -1 0  -2.7 -1 0  -2.65 -1 0  -2.6 -1 0  -2.55 -1 0  -2.5 -1 0  -2.45 -1 0  -2.4 -1 0  -2.35 -1 0  -2.3 -1 0  -2.25 -1 0  -2.2 -1 0  -2.15 -1 0  -2.1 -1 0  -2.05 -1 0  -2 -1 0  -1.95 -1 0  -1.9 -1 0  -1.85 -1 0  -1.8 -1 0  -1.75 -1 0  -1.7 -1 0  -1.65 -1 0  -1.6 -1 0  -1.55 -1 0  -1.5 -1 0  -1.45 -1 0  -1.4 -1 0  -1.35 -1 0  -1.3 -1 0  -1.25 -1 0  -1.2 -1 0  -1.15 -1 0  -1.1 -1 0  -1.05 -1 0  -1 -1 0  -0.9500000000000002 -1 0  -0.9000000000000004 -1 0  -0.8499999999999996 -1 0  -0.7999999999999998 -1 0  -0.75 -1 0  -0.7000000000000002 -1 0  -0.6500000000000004 -1 0  -0.5999999999999996 -1 0  -0.5499999999999998 -1 0  -0.5 -1 0  -0.4500000000000002 -1 0  -0.4000000000000004 -1 0  -0.3499999999999996 -1 0  -0.2999999999999998 -1 0  -0.25 -1 0  -0.2000000000000002 -1 0  -0.1500000000000004 -1 0  -0.09999999999999964 -1 0  -0.04999999999999982 -1 0  0 -1 0  0.04999999999999982 -1 0  0.09999999999999964 -1 0  0.1500000000000004 -1 0  0.2000000000000002 -1 0  0.25 -1 0  0.2999999999999998 -1 0  0.3499999999999996 -1 0  0.4000000000000004 -1 0  0.4500000000000002 -1 0  0.5 -1 0  0.5499999999999998 -1 0  0.5999999999999996 -1 0  0.6500000000000004 -1 0  0.7000000000000002 -1 0  0.75 -1 0  0.7999999999999998 -1 0  0.8499999999999996 -1 0  0.9000000000000004 -1 0  0.9500000000000002 -1 0  1 -1 0  1.05 -1 0  1.1 -1 0  1.15 -1 0  1.2 -1 0  1.25 -1 0  1.3 -1 0  1.35 -1 0  1.4 -1 0  1.45 -1 0  1.5 -1 0  1.55 -1 0  1.6 -1 0  1.65 -1 0  1.7 -1 0  1.75 -1 0  1.8 -1 0  1.85 -1 0  1.9 -1 0  1.95 -1 0  2 -1 0  2.05 -1 0  2.1 -1 0  2.15 -1 0  2.2 -1 0  2.25 -1 0  2.3 -1 0  2.35 -1 0  2.4 -1 0  2.45 -1 0  2.5 -1 0  2.55 -1 0  2.6 -1 0  2.65 -1 0  2.7 -1 0  2.75 -1 0  2.8 -1 0  2.85 -1 0  2.9 -1 0  2.95 -1 0  3 -1 0  3.050000000000001 -1 0  3.1 -1 0  3.15 -1 0  3.199999999999999 -1 0  3.25 -1 0  3.300000000000001 -1 0  3.35 -1 0  3.4 -1 0  3.449999999999999 -1 0  3.5 -1 0  3.550000000000001 -1 0  3.6 -1 0  3.65 -1 0  3.699999999999999 -1 0  3.75 -1 0  3.800000000000001 -1 0  3.85 -1 0  3.9 -1 0  3.949999999999999 -1 0  4 -1 0  4.050000000000001 -1 0  4.1 -1 0  4.15 -1 0  4.199999999999999 -1 0  4.25 -1 0  4.300000000000001 -1 0  4.35 -1 0  4.4 -1 0  4.449999999999999 -1 0  4.5 -1 0  4.550000000000001 -1 0  4.6 -1 0  4.65 -1 0  4.699999999999999 -1 0  4.75 -1 0  4.800000000000001 -1 0  4.85 -1 0  4.9 -1 0  4.949999999999999 -1 0  5 -1 0  -5 -0.95 0  -4.95 -0.95 0  -4.9 -0.95 0  -4.85 -0.95 0  -4.8 -0.95 0  -4.75 -0.95 0  -4.7 -0.95 0  -4.65 -0.95 0  -4.6 -0.95 0  -4.55 -0.95 0  -4.5 -0.95 0  -4.45 -0.95 0  -4.4 -0.95 0  -4.35 -0.95 0  -4.3 -0.95 0  -4.25 -0.95 0  -4.2 -0.95 0  -4.15 -0.95 0  -4.1 -0.95 0  -4.05 -0.95 0  -4 -0.95 0  -3.95 -0.95 0  -3.9 -0.95 0  -3.85 -0.95 0  -3.8 -0.95 0  -3.75 -0.95 0  -3.7 -0.95 0  -3.65 -0.95 0  -3.6 -0.95 0  -3.55 -0.95 0  -3.5 -0.95 0  -3.45 -0.95 0  -3.4 -0.95 0  -3.35 -0.95 0  -3.3 -0.95 0  -3.25 -0.95 0  -3.2 -0.95 0  -3.15 -0.95 0  -3.1 -0.95 0  -3.05 -0.95 0  -3 -0.95 0  -2.95 -0.95 0  -2.9 -0.95 0  -2.85 -0.95 0  -2.8 -0.95 0  -2.75 -0.95 0  -2.7 -0.95 0  -2.65 -0.95 0  -2.6 -0.95 0  -2.55 -0.95 0  -2.5 -0.95 0  -2.45 -0.95 0  -2.4 -0.95 0  -2.35 -0.95 0  -2.3 -0.95 0  -2.25 -0.95 0  -2.2 -0.95 0  -2.15 -0.95 0  -2.1 -0.95 0  -2.05 -0.95 0  -2 -0.95 0  -1.95 -0.95 0  -1.9 -0.95 0  -1.85 -0.95 0  -1.8 -0.95 0  -1.75 -0.95 0  -1.7 -0.95 0  -1.65 -0.95 0  -1.6 -0.95 0  -1.55 -0.95 0  -1.5 -0.95 0  -1.45 -0.95 0  -1.4 -0.95 0  -1.35 -0.95 0  -1.3 -0.95 0  -1.25 -0.95 0  -1.2 -0.95 0  -1.15 -0.95 0  -1.1 -0.95 0  -1.05 -0.95 0  -1 -0.95 0  -0.9500000000000002 -0.95 0  -0.9000000000000004 -0.95 0  -0.8499999999999996 -0.95 0  -0.7999999999999998 -0.95 0  -0.75 -0.95 0  -0.7000000000000002 -0.95 0  -0.6500000000000004 -0.95 0  -0.5999999999999996 -0.95 0  -0.5499999999999998 -0.95 0  -0.5 -0.95 0  -0.4500000000000002 -0.95 0  -0.4000000000000004 -0.95 0  -0.3499999999999996 -0.95 0  -0.2999999999999998 -0.95 0  -0.25 -0.95 0  -0.2000000000000002 -0.95 0  -0.1500000000000004 -0.95 0  -0.09999999999999964 -0.95 0  -0.04999999999999982 -0.95 0  0 -0.95 0  0.04999999999999982 -0.95 0  0.09999999999999964 -0.95 0  0.1500000000000004 -0.95 0  0.2000000000000002 -0.95 0  0.25 -0.95 0  0.2999999999999998 -0.95 0  0.3499999999999996 -0.95 0  0.4000000000000004 -0.95 0  0.4500000000000002 -0.95 0  0.5 -0.95 0  0.5499999999999998 -0.95 0  0.5999999999999996 -0.95 0  0.6500000000000004 -0.95 0  0.7000000000000002 -0.95 0  0.75 -0.95 0  0.7999999999999998 -0.95 0  0.8499999999999996 -0.95 0  0.9000000000000004 -0.95 0  0.9500000000000002 -0.95 0  1 -0.95 0  1.05 -0.95 0  1.1 -0.95 0  1.15 -0.95 0  1.2 -0.95 0  1.25 -0.95 0  1.3 -0.95 0  1.35 -0.95 0  1.4 -0.95 0  1.45 -0.95 0  1.5 -0.95 0  1.55 -0.95 0  1.6 -0.95 0  1.65 -0.95 0  1.7 -0.95 0  1.75 -0.95 0  1.8 -0.95 0  1.85 -0.95 0  1.9 -0.95 0  1.95 -0.95 0  2 -0.95 0  2.05 -0.95 0  2.1 -0.95 0  2.15 -0.95 0  2.2 -0.95 0  2.25 -0.95 0  2.3 -0.95 0  2.35 -0.95 0  2.4 -0.95 0  2.45 -0.95 0  2.5 -0.95 0  2.55 -0.95 0  2.6 -0.95 0  2.65 -0.95 0  2.7 -0.95 0  2.75 -0.95 0  2.8 -0.95 0  2.85 -0.95 0  2.9 -0.95 0  2.95 -0.95 0  3 -0.95 0  3.050000000000001 -0.95 0  3.1 -0.95 0  3.15 -0.95 0  3.199999999999999 -0.95 0  3.25 -0.95 0  3.300000000000001 -0.95 0  3.35 -0.95 0  3.4 -0.95 0  3.449999999999999 -0.95 0  3.5 -0.95 0  3.550000000000001 -0.95 0  3.6 -0.95 0  3.65 -0.95 0  3.699999999999999 -0.95 0  3.75 -0.95 0  3.800000000000001 -0.95 0  3.85 -0.95 0  3.9 -0.95 0  3.949999999999999 -0.95 0  4 -0.95 0  4.050000000000001 -0.95 0  4.1 -0.95 0  4.15 -0.95 0  4.199999999999999 -0.95 0  4.25 -0.95 0  4.300000000000001 -0.95 0  4.35 -0.95 0  4.4 -0.95 0  4.449999999999999 -0.95 0  4.5 -0.95 0  4.550000000000001 -0.95 0  4.6 -0.95 0  4.65 -0.95 0  4.699999999999999 -0.95 0  4.75 -0.95 0  4.800000000000001 -0.95 0  4.85 -0.95 0  4.9 -0.95 0  4.949999999999999 -0.95 0  5 -0.95 0  -5 -0.9 0  -4.95 -0.9 0  -4.9 -0.9 0  -4.85 -0.9 0  -4.8 -0.9 0  -4.75 -0.9 0  -4.7 -0.9 0  -4.65 -0.9 0  -4.6 -0.9 0  -4.55 -0.9 0  -4.5 -0.9 0  -4.45 -0.9 0  -4.4 -0.9 0  -4.35 -0.9 0  -4.3 -0.9 0  -4.25 -0.9 0  -4.2 -0.9 0  -4.15 -0.9 0  -4.1 -0.9 0  -4.05 -0.9 0  -4 -0.9 0  -3.95 -0.9 0  -3.9 -0.9 0  -3.85 -0.9 0  -3.8 -0.9 0  -3.75 -0.9 0  -3.7 -0.9 0  -3.65 -0.9 0  -3.6 -0.9 0  -3.55 -0.9 0  -3.5 -0.9 0  -3.45 -0.9 0  -3.4 -0.9 0  -3.35 -0.9 0  -3.3 -0.9 0  -3.25 -0.9 0  -3.2 -0.9 0  -3.15 -0.9 0  -3.1 -0.9 0  -3.05 -0.9 0  -3 -0.9 0  -2.95 -0.9 0  -2.9 -0.9 0  -2.85 -0.9 0  -2.8 -0.9 0  -2.75 -0.9 0  -2.7 -0.9 0  -2.65 -0.9 0  -2.6 -0.9 0  -2.55 -0.9 0  -2.5 -0.9 0  -2.45 -0.9 0  -2.4 -0.9 0  -2.35 -0.9 0  -2.3 -0.9 0  -2.25 -0.9 0  -2.2 -0.9 0  -2.15 -0.9 0  -2.1 -0.9 0  -2.05 -0.9 0  -2 -0.9 0  -1.95 -0.9 0  -1.9 -0.9 0  -1.85 -0.9 0  -1.8 -0.9 0  -1.75 -0.9 0  -1.7 -0.9 0  -1.65 -0.9 0  -1.6 -0.9 0  -1.55 -0.9 0  -1.5 -0.9 0  -1.45 -0.9 0  -1.4 -0.9 0  -1.35 -0.9 0  -1.3 -0.9 0  -1.25 -0.9 0  -1.2 -0.9 0  -1.15 -0.9 0  -1.1 -0.9 0  -1.05 -0.9 0  -1 -0.9 0  -0.9500000000000002 -0.9 0  -0.9000000000000004 -0.9 0  -0.8499999999999996 -0.9 0  -0.7999999999999998 -0.9 0  -0.75 -0.9 0  -0.7000000000000002 -0.9 0  -0.6500000000000004 -0.9 0  -0.5999999999999996 -0.9 0  -0.5499999999999998 -0.9 0  -0.5 -0.9 0  -0.4500000000000002 -0.9 0  -0.4000000000000004 -0.9 0  -0.3499999999999996 -0.9 0  -0.2999999999999998 -0.9 0  -0.25 -0.9 0  -0.2000000000000002 -0.9 0  -0.1500000000000004 -0.9 0  -0.09999999999999964 -0.9 0  -0.04999999999999982 -0.9 0  0 -0.9 0  0.04999999999999982 -0.9 0  0.09999999999999964 -0.9 0  0.1500000000000004 -0.9 0  0.2000000000000002 -0.9 0  0.25 -0.9 0  0.2999999999999998 -0.9 0  0.3499999999999996 -0.9 0  0.4000000000000004 -0.9 0  0.4500000000000002 -0.9 0  0.5 -0.9 0  0.5499999999999998 -0.9 0  0.5999999999999996 -0.9 0  0.6500000000000004 -0.9 0  0.7000000000000002 -0.9 0  0.75 -0.9 0  0.7999999999999998 -0.9 0  0.8499999999999996 -0.9 0  0.9000000000000004 -0.9 0  0.9500000000000002 -0.9 0  1 -0.9 0  1.05 -0.9 0  1.1 -0.9 0  1.15 -0.9 0  1.2 -0.9 0  1.25 -0.9 0  1.3 -0.9 0  1.35 -0.9 0  1.4 -0.9 0  1.45 -0.9 0  1.5 -0.9 0  1.55 -0.9 0  1.6 -0.9 0  1.65 -0.9 0  1.7 -0.9 0  1.75 -0.9 0  1.8 -0.9 0  1.85 -0.9 0  1.9 -0.9 0  1.95 -0.9 0  2 -0.9 0  2.05 -0.9 0  2.1 -0.9 0  2.15 -0.9 0  2.2 -0.9 0  2.25 -0.9 0  2.3 -0.9 0  2.35 -0.9 0  2.4 -0.9 0  2.45 -0.9 0  2.5 -0.9 0  2.55 -0.9 0  2.6 -0.9 0  2.65 -0.9 0  2.7 -0.9 0  2.75 -0.9 0  2.8 -0.9 0  2.85 -0.9 0  2.9 -0.9 0  2.95 -0.9 0  3 -0.9 0  3.050000000000001 -0.9 0  3.1 -0.9 0  3.15 -0.9 0  3.199999999999999 -0.9 0  3.25 -0.9 0  3.300000000000001 -0.9 0  3.35 -0.9 0  3.4 -0.9 0  3.449999999999999 -0.9 0  3.5 -0.9 0  3.550000000000001 -0.9 0  3.6 -0.9 0  3.65 -0.9 0  3.699999999999999 -0.9 0  3.75 -0.9 0  3.800000000000001 -0.9 0  3.85 -0.9 0  3.9 -0.9 0  3.949999999999999 -0.9 0  4 -0.9 0  4.050000000000001 -0.9 0  4.1 -0.9 0  4.15 -0.9 0  4.199999999999999 -0.9 0  4.25 -0.9 0  4.300000000000001 -0.9 0  4.35 -0.9 0  4.4 -0.9 0  4.449999999999999 -0.9 0  4.5 -0.9 0  4.550000000000001 -0.9 0  4.6 -0.9 0  4.65 -0.9 0  4.699999999999999 -0.9 0  4.75 -0.9 0  4.800000000000001 -0.9 0  4.85 -0.9 0  4.9 -0.9 0  4.949999999999999 -0.9 0  5 -0.9 0  -5 -0.85 0  -4.95 -0.85 0  -4.9 -0.85 0  -4.85 -0.85 0  -4.8 -0.85 0  -4.75 -0.85 0  -4.7 -0.85 0  -4.65 -0.85 0  -4.6 -0.85 0  -4.55 -0.85 0  -4.5 -0.85 0  -
[...]
<PointData  Vectors="f_15"> 
<DataArray  type="Float64"  Name="f_15"  NumberOfComponents="3" format="ascii">9.8618511390620256e+00 0.0000000000000000e+00 0.0000000000000000e+00  9.8604068612279807e+00 2.2507386991698158e-02 0.0000000000000000e+00  9.8561225009598807e+00 4.5235383505426295e-02 0.0000000000000000e+00  9.8490132657441105e+00 6.8349417441263050e-02 0.0000000000000000e+00  9.8390888065846820e+00 9.2073669659332696e-02 0.0000000000000000e+00  9.8263769064641906e+00 1.1658196650823711e-01 0.0000000000000000e+00  9.8109804774911993e+00 1.4202746964555132e-01 0.0000000000000000e+00  9.7928885788225042e+00 1.6860046008128191e-01 0.0000000000000000e+00  9.7722018632817171e+00 1.9638486172697275e-01 0.0000000000000000e+00  9.7490028137484313e+00 2.2555751023205445e-01 0.0000000000000000e+00  9.7233426747991025e+00 2.5614637140424745e-01 0.0000000000000000e+00  9.6953053213379086e+00 2.8830690805410841e-01 0.0000000000000000e+00  9.6650154307404996e+00 3.2200829611223425e-01 0.0000000000000000e+00  9.6325158034320442e+00 3.5738898175305295e-01 0.0000000000000000e+00  9.5979170519544521e+00 3.9436471015133989e-01 0.0000000000000000e+00  9.5613352376363867e+00 4.3305904387746957e-01 0.0000000000000000e+00  9.5228291218813101e+00 4.7333988616669126e-01 0.0000000000000000e+00  9.4825079909126071e+00 5.1532535663567847e-01 0.0000000000000000e+00  9.4404813367079257e+00 5.5884162858890707e-01 0.0000000000000000e+00  9.3968222592184265e+00 6.0400562199348229e-01 0.0000000000000000e+00  9.3516158461508763e+00 6.5060976119321912e-01 0.0000000000000000e+00  9.3049915525926270e+00 6.9878329528346883e-01 0.0000000000000000e+00  9.2569878104274519e+00 7.4827605343797909e-01 0.0000000000000000e+00  9.2077211537870998e+00 7.9924765254298014e-01 0.0000000000000000e+00  9.1572640791209707e+00 8.5141026060588088e-01 0.0000000000000000e+00  9.1057075647792640e+00 9.0494584970030734e-01 0.0000000000000000e+00  9.0530918574499708e+00 9.5954271652827205e-01 0.0000000000000000e+00  8.9995521420142079e+00 1.0154153420243714e+00 0.0000000000000000e+00  8.9450955309238029e+00 1.0722055802809711e+00 0.0000000000000000e+00  8.8898328891933183e+00 1.1301870268768763e+00 0.0000000000000000e+00  8.8338023287381837e+00 1.1889550917679574e+00 0.0000000000000000e+00  8.7770970300261464e+00 1.2488177333883461e+00 0.0000000000000000e+00  8.7197185941506437e+00 1.3093550114074564e+00 0.0000000000000000e+00  8.6617958999992624e+00 1.3709106632421315e+00 0.0000000000000000e+00  8.6033161290160294e+00 1.4330028530773973e+00 0.0000000000000000e+00  8.5443668937638400e+00 1.4960781913701240e+00 0.0000000000000000e+00  8.4849744297198288e+00 1.5595588039275450e+00 0.0000000000000000e+00  8.4252114363851156e+00 1.6239620599800793e+00 0.0000000000000000e+00  8.3650684406294396e+00 1.6886907027331630e+00 0.0000000000000000e+00  8.3046443197871387e+00 1.7542714622376991e+00 0.0000000000000000e+00  8.2439366107560303e+00 1.8200973640155078e+00 0.0000000000000000e+00  8.1829849590849335e+00 1.8867060445065387e+00 0.0000000000000000e+00  8.1218393515598830e+00 1.9535574412312349e+00 0.0000000000000000e+00  8.0605156592637250e+00 2.0209893584771170e+00 0.0000000000000000e+00  7.9990475640470446e+00 2.0888226638453786e+00 0.0000000000000000e+00  7.9374541394225533e+00 2.1569476114097847e+00 0.0000000000000000e+00  7.8757930178490421e+00 2.2256299757579940e+00 0.0000000000000000e+00  7.8140296126026456e+00 2.2944086969454012e+00 0.0000000000000000e+00  7.7522612107152540e+00 2.3637978787711398e+00 0.0000000000000000e+00  7.6904303529832649e+00 2.4331735289065248e+00 0.0000000000000000e+00  7.6286419000764667e+00 2.5031662618147950e+00 0.0000000000000000e+00  7.5668230637908591e+00 2.5731024725449352e+00 0.0000000000000000e+00  7.5050828425139358e+00 2.6435538520700130e+00 0.0000000000000000e+00  7.4433616939274785e+00 2.7140520695925496e+00 0.0000000000000000e+00  7.3817419929338204e+00 2.7848797330270396e+00 0.0000000000000000e+00  7.3201572802795578e+00 2.8558211516044500e+00 0.0000000000000000e+00  7.2587400524629615e+00 2.9270416512528303e+00 0.0000000000000000e+00  7.1973659984045355e+00 2.9983449317088398e+00 0.0000000000000000e+00  7.1361570479921257e+00 3.0698755887132791e+00 0.0000000000000000e+00  7.0750757250803176e+00 3.1415088350229641e+00 0.0000000000000000e+00  7.0141524273199574e+00 3.2133207863257001e+00 0.0000000000000000e+00  6.9533414034535292e+00 3.2852261196954915e+00 0.0000000000000000e+00  6.8927829305766393e+00 3.3572500411459028e+00 0.0000000000000000e+00  6.8323258837266758e+00 3.4293849854143725e+00 0.0000000000000000e+00  6.7720850843729172e+00 3.5016578965329779e+00 0.0000000000000000e+00  6.7120597673859468e+00 3.5739091711451358e+00 0.0000000000000000e+00  6.6522199414560799e+00 3.6463516222519949e+00 0.0000000000000000e+00  6.5925670582487195e+00 3.7188122331953815e+00 0.0000000000000000e+00  6.5332003599667932e+00 3.7913306946708580e+00 0.0000000000000000e+00  6.4739992116160021e+00 3.8638963896526590e+00 0.0000000000000000e+00  6.4150433455212283e+00 3.9365725194934398e+00 0.0000000000000000e+00  6.3563578335957267e+00 4.0091774180674786e+00 0.0000000000000000e+00  6.2978855337277153e+00 4.0819226385541691e+00 0.0000000000000000e+00  6.2396570259498105e+00 4.1546386901773023e+00 0.0000000000000000e+00  6.1817241245134840e+00 4.2273762411270992e+00 0.0000000000000000e+00  6.1240116815239203e+00 4.3001387614269229e+00 0.0000000000000000e+00  6.0665765392473530e+00 4.3729274763317321e+00 0.0000000000000000e+00  6.0094199001097008e+00 4.4456791074796431e+00 0.0000000000000000e+00  5.9525334681998796e+00 4.5184556990295945e+00 0.0000000000000000e+00  5.8959049711647769e+00 4.5912347026013087e+00 0.0000000000000000e+00  5.8395998288838866e+00 4.6639512118968618e+00 0.0000000000000000e+00  5.7835347352778337e+00 4.7367142515178955e+00 0.0000000000000000e+00  5.7278062623759443e+00 4.8093820837599717e+00 0.0000000000000000e+00  5.6723248112631675e+00 4.8820927784765544e+00 0.0000000000000000e+00  5.6172001128960733e+00 4.9546736227191532e+00 0.0000000000000000e+00  5.5623115478185445e+00 5.0273202904235461e+00 0.0000000000000000e+00  5.5078078331048719e+00 5.0997895571098342e+00 0.0000000000000000e+00  5.4535286643988314e+00 5.1723428999844963e+00 0.0000000000000000e+00  5.3996663482812464e+00 5.2446745879222121e+00 0.0000000000000000e+00  5.3460167170299959e+00 5.3171017663351474e+00 0.0000000000000000e+00  5.2927991718316045e+00 5.3892858334978371e+00 0.0000000000000000e+00  5.2397884673212411e+00 5.4615724956308904e+00 0.0000000000000000e+00  5.1872433799052757e+00 5.5335666704753059e+00 0.0000000000000000e+00  5.1348978696472578e+00 5.6056723497879402e+00 0.0000000000000000e+00  5.0830484941983478e+00 5.6774334882878374e+00 0.0000000000000000e+00  5.0314344861845619e+00 5.7492660645137681e+00 0.0000000000000000e+00  4.9802671235399547e+00 5.8207973129763166e+00 0.0000000000000000e+00  4.9294632504794613e+00 5.8922433197009569e+00 0.0000000000000000e+00  4.8790075645915021e+00 5.9635073672770664e+00 0.0000000000000000e+00  4.8289846424604388e+00 6.0345699628933920e+00 0.0000000000000000e+00  4.7793041177188300e+00 6.1054817962899088e+00 0.0000000000000000e+00  4.7301312180665862e+00 6.1760395135847039e+00 0.0000000000000000e+00  4.6814007571478404e+00 6.2463350582592394e+00 0.0000000000000000e+00  4.6331785869648066e+00 6.3162339189890124e+00 0.0000000000000000e+00  4.5854841242107272e+00 6.3857692402467956e+00 0.0000000000000000e+00  4.5383042643892386e+00 6.4548616996495412e+00 0.0000000000000000e+00  4.4917067530790220e+00 6.5235006516332099e+00 0.0000000000000000e+00  4.4457775868847298e+00 6.5914447545419534e+00 0.0000000000000000e+00  4.4003830931854724e+00 6.6589969410908605e+00 0.0000000000000000e+00  4.3559772799882186e+00 6.7253710785315173e+00 0.0000000000000000e+00  4.3125618882046748e+00 6.7906444015210470e+00 0.0000000000000000e+00  4.2702789284609270e+00 6.8544844705438237e+00 0.0000000000000000e+00  4.2293890095161801e+00 6.9165521310022724e+00 0.0000000000000000e+00  4.1902215604127449e+00 6.9762385772216176e+00 0.0000000000000000e+00  4.1532859325407694e+00 7.0328068719425607e+00 0.0000000000000000e+00  4.1191963148685415e+00 7.0852134959662250e+00 0.0000000000000000e+00  4.0886247525051358e+00 7.1324206735366982e+00 0.0000000000000000e+00  4.0621418215135288e+00 7.1734338154267485e+00 0.0000000000000000e+00  4.0399393118661786e+00 7.2079193779540933e+00 0.0000000000000000e+00  4.0217994599740834e+00 7.2361338928259613e+00 0.0000000000000000e+00  4.0071466864992651e+00 7.2589561999780212e+00 0.0000000000000000e+00  3.9954612233208606e+00 7.2771704955425145e+00 0.0000000000000000e+00  3.9862651420271238e+00 7.2915078601907091e+00 0.0000000000000000e+00  3.9792657472841921e+00 7.3024204476386760e+00 0.0000000000000000e+00  3.9740622263276895e+00 7.3105103990758247e+00 0.0000000000000000e+00  3.9703394197221953e+00 7.3162849697569019e+00 0.0000000000000000e+00  3.9676736510579627e+00 7.3203838811750694e+00 0.0000000000000000e+00  3.9658137824493864e+00 7.3232280054186063e+00 0.0000000000000000e+00  3.9644644982252322e+00 7.3252548453910178e+00 0.0000000000000000e+00  3.9635131378277508e+00 7.3266693896526904e+00 0.0000000000000000e+00  3.9627910621177693e+00 7.3277096687571683e+00 0.0000000000000000e+00  3.9622679163141057e+00 7.3284472242277445e+00 0.0000000000000000e+00  3.9618460245319893e+00 7.3290117740148144e+00 0.0000000000000000e+00  3.9615284308197647e+00 7.3294182750670034e+00 0.0000000000000000e+00  3.9612570098273014e+00 7.3297398128706597e+00 0.0000000000000000e+00  3.9610456831452594e+00 7.3299704333719085e+00 0.0000000000000000e+00  3.9608589168781307e+00 7.3301535108492386e+00 0.0000000000000000e+00  3.9607103444543790e+00 7.3302790917182463e+00 0.0000000000000000e+00  3.9605769079369684e+00 7.3303751307995331e+00 0.0000000000000000e+00  3.9604676168154396e+00 7.3304347487747696e+00 0.0000000000000000e+00  3.9603670131010933e+00 7.3304761792574489e+00 0.0000000000000000e+00  3.9602802967847857e+00 7.3304954438218290e+00 0.0000000000000000e+00  3.9601978016165891e+00 7.3305036782207260e+00 0.0000000000000000e+00  3.9601229047177835e+00 7.3304978846578841e+00 0.0000000000000000e+00  3.9600502290168609e+00 7.3304843866140663e+00 0.0000000000000000e+00  3.9599819066862838e+00 7.3304612509182787e+00 0.0000000000000000e+00  3.9599149596597347e+00 7.3304320186946859e+00 0.0000000000000000e+00  3.9598505750327013e+00 7.3303956483838748e+00 0.0000000000000000e+00  3.9597869022766479e+00 7.3303543176993138e+00 0.0000000000000000e+00  3.9597246641308148e+00 7.3303066985647121e+00 0.0000000000000000e+00  3.9596626742106467e+00 7.3302536850426332e+00 0.0000000000000000e+00  3.9596014013794858e+00 7.3301927821834099e+00 0.0000000000000000e+00  3.9595400307599613e+00 7.3301227918514451e+00 0.0000000000000000e+00  3.9594789285379108e+00 7.3300389257866065e+00 0.0000000000000000e+00  3.9594173706481253e+00 7.3299372512189729e+00 0.0000000000000000e+00  3.9593556856560812e+00 7.3298094352770198e+00 0.0000000000000000e+00  3.9592932051383740e+00 7.3296481445737047e+00 0.0000000000000000e+00  3.9592301531276659e+00 7.3294412306259531e+00 0.0000000000000000e+00  3.9591659611538828e+00 7.3291777744037017e+00 0.0000000000000000e+00  3.9591008061595008e+00 7.3288424405598862e+00 0.0000000000000000e+00  3.9590341733778964e+00 7.3284222463187483e+00 0.0000000000000000e+00  3.9589662713915064e+00 7.3279004563028449e+00 0.0000000000000000e+00  3.9588966570052140e+00 7.3272648773054323e+00 0.0000000000000000e+00  3.9588255214963408e+00 7.3265008311744726e+00 0.0000000000000000e+00  3.9587524661809415e+00 7.3256004402256671e+00 0.0000000000000000e+00  3.9586776832617874e+00 7.3245548559840081e+00 0.0000000000000000e+00  3.9586006795841819e+00 7.3233642280810853e+00 0.0000000000000000e+00  3.9585217100312562e+00 7.3220280466404919e+00 0.0000000000000000e+00  3.9584401526741515e+00 7.3205567283976318e+00 0.0000000000000000e+00  3.9583562724070438e+00 7.3189587311735531e+00 0.0000000000000000e+00  3.9582693008274044e+00 7.3172543819120275e+00 0.0000000000000000e+00  3.9581792725162570e+00 7.3154588887921577e+00 0.0000000000000000e+00  3.9580850935598182e+00 7.3136000841773185e+00 0.0000000000000000e+00  3.9579854151062510e+00 7.3116941394655894e+00 0.0000000000000000e+00  3.9578784675961454e+00 7.3097723665236121e+00 0.0000000000000000e+00  3.9577572949801247e+00 7.3078409179711876e+00 0.0000000000000000e+00  3.9576179464955690e+00 7.3059283863800681e+00 0.0000000000000000e+00  3.9574341427005271e+00 7.3040050776907490e+00 0.0000000000000000e+00  3.9571931709725710e+00 7.3020839536574975e+00 0.0000000000000000e+00  3.9568042781318780e+00 7.3000244462338886e+00 0.0000000000000000e+00  3.9562200114134156e+00 7.2977825102678411e+00 0.0000000000000000e+00  3.9551361028696133e+00 7.2948703982842487e+00 0.0000000000000000e+00  3.9533667364222267e+00 7.2910287211207283e+00 0.0000000000000000e+00  3.9498970896682097e+00 7.2846464378639260e+00 0.0000000000000000e+00  3.9440007248592379e+00 7.2746378808238905e+00 0.0000000000000000e+00  3.9322846677181769e+00 7.2556521944989321e+00 0.0000000000000000e+00  3.9119386903136695e+00 7.2233342409755474e+00 0.0000000000000000e+00  3.8717556158489526e+00 7.1597261246027486e+00 0.0000000000000000e+00  3.8019795242834689e+00 7.0483072592563456e+00 0.0000000000000000e+00  3.6675810240913624e+00 6.8280763562208113e+00 0.0000000000000000e+00  3.4424734189556521e+00 6.4405824952426611e+00 0.0000000000000000e+00  3.0429680766946299e+00 5.6899254026478738e+00 0.0000000000000000e+00  2.4655086312390169e+00 4.4266689598817726e+00 0.0000000000000000e+00  1.6379759326447978e+00 2.0932924417336247e+00 0.0000000000000000e+00  1.1011283053443053e+00 3.1357520351877266e-01 0.0000000000000000e+00  1.0062936158994593e+00 1.9923624802850103e-02 0.0000000000000000e+00  1.0001618352792658e+00 1.6463379327529026e-03 0.0000000000000000e+00  1.0000824907526493e+00 -6.5913570635584701e-05 0.0000000000000000e+00  9.9999469940624786e-01 2.6826971213949497e-05 0.0000000000000000e+00  9.9999734884362212e-01 1.0993753178817223e-05 0.0000000000000000e+00  1.0000049167664011e+00 0.0000000000000000e+00 0.0000000000000000e+00  9.8618473225461116e+00 0.0000000000000000e+00 7.9316462066511054e-06  9.8604011107698941e+00 2.2512681923816297e-02 3.7076565411436829e-06  9.8561399724365071e+00 4.5219033867719992e-02 -6.7131765932138170e-06  9.8490136923974507e+00 6.8345090244043255e-02 5.5235880403462236e-06  9.8390795574253129e+00 9.2064431191959450e-02 -5.8449873327452011e-06  9.8263971341377321e+00 1.1656639612534066e-01 4.8313279130526369e-06  9.8109759702240407e+00 1.4202008177779629e-01 -6.0536571485128625e-06  9.7928817203553589e+00 1.6858076861745536e-01 5.0501910675283565e-06  9.7722149393718176e+00 1.9637493594422029e-01 -6.6349517520956981e-06  9.7489981454797441e+00 2.2553334580681059e-01 5.4821967237016591e-06  9.7233293008621420e+00 2.5613616246942594e-01 -7.0613775991217826e-06  9.6953140273135059e+00 2.8827650710510705e-01 5.7194650589161535e-06  9.6650035828934602e+00 3.2199689238892759e-01 -7.0203315509516854e-06  9.6324968650296192e+00 3.5735335404659002e-01 5.5903309962833824e-06  9.5979164573834232e+00 3.9435185240523862e-01 -6.6245747175408260e-06  9.5613148612966228e+00 4.3301657763581086e-01 5.3046362041965570e-06  9.5228027769748103e+00 4.7332610512257106e-01 -6.0227709249389353e-06  9.4824938525529383e+00 5.1527659637988843e-01 4.7298845236339543e-06  9.4404541515008731e+00 5.5882554898445813e-01 -4.9199917465707128e-06  9.3967813969020888e+00 6.0394934026216984e-01 3.5331451083941048e-06  9.3515936083469775e+00 6.5059483227402759e-01 -3.1847085890555691e-06  9.3049477048606359e+00 6.9871568608527368e-01 1.7618155446683167e-06  9.2569418938287225e+00 7.4826228507346282e-01 -9.3509665111402575e-07  9.2076779611879438e+00 7.9917237564274890e-01 -6.6360292623912938e-07  9.1572177573022735e+00 8.5139401605403575e-01 2.1563093362083210e-06  9.1056406209997078e+00 9.0486155072234697e-01 -4.0573535423356230e-06  9.0530461425237458e+00 9.5953109494528976e-01 5.9440289690232160e-06  8.9994856139027153e+00 1.0153149740628027e+00 -7.8296225898478191e-06  8.9450290154927004e+00 1.0721995409897003e+00 1.0035766667941458e-05  8.8897657223353725e+00 1.1300783252895477e+00 -1.2282873755160943e-05  8.8337399459046431e+00 1.1889461431533330e+00 1.4823418852531547e-05  8.7770111833183613e+00 1.2487024229946329e+00 -1.6646600487017257e-05  8.7196556896413586e+00 1.3093544611304153e+00 1.8591292588395446e-05  8.6617189648918718e+00 1.3707737166658647e+00 -2.0750006136765822e-05  8.6032358112498262e+00 1.4330199469933602e+00 2.4996874925354611e-05  8.5442922299832809e+00 1.4959280771424714e+00 -3.0535606687709447e-05  8.4849046049342025e+00 1.5595768890155342e+00 3.7638539223174068e-05  8.4251256617619905e+00 1.6238121262679133e+00 -4.4814731538617912e-05  8.3649974413588151e+00 1.6887166964628886e+00 5.3824168735104270e-05  8.3045780611135562e+00 1.7541068649687490e+00 -6.4186996482699455e-05  8.2438510508533422e+00 1.8201358429136614e+00 7.6339977020349243e-05  8.1829259691252378e+00 1.8865575502760747e+00 -8.5727854990177535e-05  8.1217669265925103e+00 1.9535543519089429e+00 8.9994832288928361e-05  8.0604536810226453e+00 2.0209101866522383e+00 -8.4546664352539466e-05  7.9989765827972983e+00 2.0887595569554800e+00 7.0576280362422375e-05  7.9374084303152621e+00 2.1569239777944476e+00 -4.7357621130405533e-05  7.8757222268374045e+00 2.2255354155626330e+00 2.0344036377437934e-05  7.8139850945480438e+00 2.2944273241078679e+00 8.8228729510153250e-06  7.7522047186371745e+00 2.3636668616735661e+00 -3.3481169584048451e-05  7.6903883488123626e+00 2.4332430277726500e+00 5.4033031869028347e-05  7.6285922660904664e+00 2.5030176420647483e+00 -6.6052111333529117e-05  7.5667814735641761e+00 2.5731644085991281e+00 7.2222920177115102e-05  7.5050496463010896e+00 2.6434610331373030e+00 -6.9133448437011093e-05  7.4433231041830323e+00 2.7140712889635683e+00 6.3019372829616803e-05  7.3817011766993090e+00 2.7848072120932388e+00 -5.4456016075487107e-05  7.3201443054190607e+00 2.8558627929775442e+00 5.0351620444757840e-05  7.2587023917371694e+00 2.9269660373141417e+00 -4.4828418460309947e-05  7.1973353590049305e+00 2.9983664120060460e+00 3.8885525573396745e-05  7.1361531224103807e+00 3.0698354986180112e+00 -2.9338746488671786e-05  7.0750519374909810e+00 3.1415233716253366e+00 2.5433480810673050e-05  7.0141178400703312e+00 3.2132838548666207e+00 -2.3779516304800719e-05  6.9533614592738155e+00 3.2852189200412787e+00 2.3441425133550960e-05  6.8927560500102523e+00 3.3572340796644622e+00 -1.6420674272493259e-05  6.8323070495815061e+00 3.4294060489281013e+00 1.0973094562165198e-05  6.7721073620444319e+00 3.5015823199437208e+00 -7.0254377865384472e-06  6.7120486052719865e+00 3.5739359947592879e+00 6.9904186487097576e-06  6.6521995161301275e+00 3.6463424874813151e+00 -2.5593226844497994e-06  6.5926044217269100e+00 3.7187726830102084e+00 8.0139031952660742e-08  6.5331870262790863e+00 3.7913138457906044e+00 2.7141140552246825e-06  6.4739919550460119e+00 3.8639157459839204e+00 -2.1282611504261388e-06  6.4150748165611109e+00 3.9365130336409218e+00 4.9574402052453738e-06  6.3563534103679666e+00 4.0091923868042612e+00 -4.0671445488234759e-06  6.2978765401636014e+00 4.0819160020828349e+00 4.7159630026306750e-06  6.2396867011669128e+00 4.1546070864777800e+00 -3.3023749459452591e-06  6.1817163192572044e+00 4.2273820524548853e+00 5.1769923630708705e-06  6.1240074101811306e+00 4.3001500085901032e+00 -3.3167123292678616e-06  6.0665919173254981e+00 4.3729059040044609e+00 2.8247690960064482e-06  6.0094169119787519e+00 4.4456890313099322e+00 -9.6672087227537412e-07  5.9525243241946386e+00 4.5184695747760175e+00 3.6631089341923325e-07  5.8959182930475507e+00 4.5912186320129926e+00 2.2320517757934454e-07  5.8395904514558561e+00 4.6639723445731960e+00 -4.3873607688234287e-07  5.7835392201827007e+00 4.7367071021167373e+00 2.3062087519848419e-09  5.7278006716544398e+00 4.8093937552446144e