<?xml version="1.0"?>
<VTKFile type="UnstructuredGrid"  version="0.1"  >
<UnstructuredGrid>
<Piece  NumberOfPoints="8241" NumberOfCells="16000">
<Points>
<DataArray  type="Float64"  NumberOfComponents="3"  format="ascii">-5 -1 0  -4.95 -1 0  -4.9 -1 0  -4.85 -1 0  -4.8 -1 0  -4.75 -1 0  -4.7 -1 0  -4.65 -1 0  -4.6 -1 0  -4.55 -1 0  -4.5 -1 0  -4.45 -1 0  -4.4 -1 0  -4.35 -1 0  -4.3 -1 0  -4.25 -1 0  -4.2 -1 0  -4.15 -1 0  -4.1 -1 0  -4.05 -1 0  -4 -1 0  -3.95 -1 0  -3.9 -1 0  -3.85 -1 0  -3.8 -1 0  -3.75 -1 0  -3.7 -1 0  -3.65 -1 0  -3.6 -1 0  -3.55 -1 0  -3.5 -1 0  -3.45 -1 0  -3.4 -1 0  -3.35 -1 0  -3.3 -1 0  -3.25 -1 0  -3.2 -1 0  -3.15 -1 0  -3.1 -1 0  -3.05 -1 0  -3 -1 0  -2.95 -1 0  -2.9 -1 0  -2.85 -1 0  -2.8 -1 0  -2.75 -1 0  -2.7 -1 0  -2.65 -1 0  -2.6 -1 0  -2.55 -1 0  -2.5 -1 0  -2.45 -1 0  -2.4 -1 0  -2.35 -1 0  -2.3 -1 0  -2.25 -1 0  -2.2 -1 0  -2.15 -1 0  -2.1 -1 0  -2.05 -1 0  -2 -1 0  -1.95 -1 0  -1.9 -1 0  -1.85 -1 0  -1.8 -1 0  -1.75 -1 0  -1.7 -1 0  -1.65 -1 0  -1.6 -1 0  -1.55 -1 0  -1.5 -1 0  -1.45 -1 0  -1.4 -1 0  -1.35 -1 0  -1.3 -1 0  -1.25 -1 0  -1.2 -1 0  -1.15 -1 0  -1.1 -1 0  -1.05 -1 0  -1 -1 0  -0.9500000000000002 -1 0  -0.9000000000000004 -1 0  -0.8499999999999996 -1 0  -0.7999999999999998 -1 0  -0.75 -1 0  -0.7000000000000002 -1 0  -0.6500000000000004 -1 0  -0.5999999999999996 -1 0  -0.5499999999999998 -1 0  -0.5 -1 0  -0.4500000000000002 -1 0  -0.4000000000000004 -1 0  -0.3499999999999996 -1 0  -0.2999999999999998 -1 0  -0.25 -1 0  -0.2000000000000002 -1 0  -0.1500000000000004 -1 0  -0.09999999999999964 -1 0  -0.04999999999999982 -1 0  0 -1 0  0.04999999999999982 -1 0  0.09999999999999964 -1 0  0.1500000000000004 -1 0  0.2000000000000002 -1 0  0.25 -1 0  0.2999999999999998 -1 0  0.3499999999999996 -1 0  0.4000000000000004 -1 0  0.4500000000000002 -1 0  0.5 -1 0  0.5499999999999998 -1 0  0.5999999999999996 -1 0  0.6500000000000004 -1 0  0.7000000000000002 -1 0  0.75 -1 0  0.7999999999999998 -1 0  0.8499999999999996 -1 0  0.9000000000000004 -1 0  0.9500000000000002 -1 0  1 -1 0  1.05 -1 0  1.1 -1 0  1.15 -1 0  1.2 -1 0  1.25 -1 0  1.3 -1 0  1.35 -1 0  1.4 -1 0  1.45 -1 0  1.5 -1 0  1.55 -1 0  1.6 -1 0  1.65 -1 0  1.7 -1 0  1.75 -1 0  1.8 -1 0  1.85 -1 0  1.9 -1 0  1.95 -1 0  2 -1 0  2.05 -1 0  2.1 -1 0  2.15 -1 0  2.2 -1 0  2.25 -1 0  2.3 -1 0  2.35 -1 0  2.4 -1 0  2.45 -1 0  2.5 -1 0  2.55 -1 0  2.6 -1 0  2.65 -1 0  2.7 -1 0  2.75 -1 0  2.8 -1 0  2.85 -1 0  2.9 -1 0  2.95 -1 0  3 -1 0  3.050000000000001 -1 0  3.1 -1 0  3.15 -1 0  3.199999999999999 -1 0  3.25 -1 0  3.300000000000001 -1 0  3.35 -1 0  3.4 -1 0  3.449999999999999 -1 0  3.5 -1 0  3.550000000000001 -1 0  3.6 -1 0  3.65 -1 0  3.699999999999999 -1 0  3.75 -1 0  3.800000000000001 -1 0  3.85 -1 0  3.9 -1 0  3.949999999999999 -1 0  4 -1 0  4.050000000000001 -1 0  4.1 -1 0  4.15 -1 0  4.199999999999999 -1 0  4.25 -1 0  4.300000000000001 -1 0  4.35 -1 0  4.4 -1 0  4.449999999999999 -1 0  4.5 -1 0  4.550000000000001 -1 0  4.6 -1 0  4.65 -1 0  4.699999999999999 -1 0  4.75 -1 0  4.800000000000001 -1 0  4.85 -1 0  4.9 -1 0  4.949999999999999 -1 0  5 -1 0  -5 -0.95 0  -4.95 -0.95 0  -4.9 -0.95 0  -4.85 -0.95 0  -4.8 -0.95 0  -4.75 -0.95 0  -4.7 -0.95 0  -4.65 -0.95 0  -4.6 -0.95 0  -4.55 -0.95 0  -4.5 -0.95 0  -4.45 -0.95 0  -4.4 -0.95 0  -4.35 -0.95 0  -4.3 -0.95 0  -4.25 -0.95 0  -4.2 -0.95 0  -4.15 -0.95 0  -4.1 -0.95 0  -4.05 -0.95 0  -4 -0.95 0  -3.95 -0.95 0  -3.9 -0.95 0  -3.85 -0.95 0  -3.8 -0.95 0  -3.75 -0.95 0  -3.7 -0.95 0  -3.65 -0.95 0  -3.6 -0.95 0  -3.55 -0.95 0  -3.5 -0.95 0  -3.45 -0.95 0  -3.4 -0.95 0  -3.35 -0.95 0  -3.3 -0.95 0  -3.25 -0.95 0  -3.2 -0.95 0  -3.15 -0.95 0  -3.1 -0.95 0  -3.05 -0.95 0  -3 -0.95 0  -2.95 -0.95 0  -2.9 -0.95 0  -2.85 -0.95 0  -2.8 -0.95 0  -2.75 -0.95 0  -2.7 -0.95 0  -2.65 -0.95 0  -2.6 -0.95 0  -2.55 -0.95 0  -2.5 -0.95 0  -2.45 -0.95 0  -2.4 -0.95 0  -2.35 -0.95 0  -2.3 -0.95 0  -2.25 -0.95 0  -2.2 -0.95 0  -2.15 -0.95 0  -2.1 -0.95 0  -2.05 -0.95 0  -2 -0.95 0  -1.95 -0.95 0  -1.9 -0.95 0  -1.85 -0.95 0  -1.8 -0.95 0  -1.75 -0.95 0  -1.7 -0.95 0  -1.65 -0.95 0  -1.6 -0.95 0  -1.55 -0.95 0  -1.5 -0.95 0  -1.45 -0.95 0  -1.4 -0.95 0  -1.35 -0.95 0  -1.3 -0.95 0  -1.25 -0.95 0  -1.2 -0.95 0  -1.15 -0.95 0  -1.1 -0.95 0  -1.05 -0.95 0  -1 -0.95 0  -0.9500000000000002 -0.95 0  -0.9000000000000004 -0.95 0  -0.8499999999999996 -0.95 0  -0.7999999999999998 -0.95 0  -0.75 -0.95 0  -0.7000000000000002 -0.95 0  -0.6500000000000004 -0.95 0  -0.5999999999999996 -0.95 0  -0.5499999999999998 -0.95 0  -0.5 -0.95 0  -0.4500000000000002 -0.95 0  -0.4000000000000004 -0.95 0  -0.3499999999999996 -0.95 0  -0.2999999999999998 -0.95 0  -0.25 -0.95 0  -0.2000000000000002 -0.95 0  -0.1500000000000004 -0.95 0  -0.09999999999999964 -0.95 0  -0.04999999999999982 -0.95 0  0 -0.95 0  0.04999999999999982 -0.95 0  0.09999999999999964 -0.95 0  0.1500000000000004 -0.95 0  0.2000000000000002 -0.95 0  0.25 -0.95 0  0.2999999999999998 -0.95 0  0.3499999999999996 -0.95 0  0.4000000000000004 -0.95 0  0.4500000000000002 -0.95 0  0.5 -0.95 0  0.5499999999999998 -0.95 0  0.5999999999999996 -0.95 0  0.6500000000000004 -0.95 0  0.7000000000000002 -0.95 0  0.75 -0.95 0  0.7999999999999998 -0.95 0  0.8499999999999996 -0.95 0  0.9000000000000004 -0.95 0  0.9500000000000002 -0.95 0  1 -0.95 0  1.05 -0.95 0  1.1 -0.95 0  1.15 -0.95 0  1.2 -0.95 0  1.25 -0.95 0  1.3 -0.95 0  1.35 -0.95 0  1.4 -0.95 0  1.45 -0.95 0  1.5 -0.95 0  1.55 -0.95 0  1.6 -0.95 0  1.65 -0.95 0  1.7 -0.95 0  1.75 -0.95 0  1.8 -0.95 0  1.85 -0.95 0  1.9 -0.95 0  1.95 -0.95 0  2 -0.95 0  2.05 -0.95 0  2.1 -0.95 0  2.15 -0.95 0  2.2 -0.95 0  2.25 -0.95 0  2.3 -0.95 0  2.35 -0.95 0  2.4 -0.95 0  2.45 -0.95 0  2.5 -0.95 0  2.55 -0.95 0  2.6 -0.95 0  2.65 -0.95 0  2.7 -0.95 0  2.75 -0.95 0  2.8 -0.95 0  2.85 -0.95 0  2.9 -0.95 0  2.95 -0.95 0  3 -0.95 0  3.050000000000001 -0.95 0  3.1 -0.95 0  3.15 -0.95 0  3.199999999999999 -0.95 0  3.25 -0.95 0  3.300000000000001 -0.95 0  3.35 -0.95 0  3.4 -0.95 0  3.449999999999999 -0.95 0  3.5 -0.95 0  3.550000000000001 -0.95 0  3.6 -0.95 0  3.65 -0.95 0  3.699999999999999 -0.95 0  3.75 -0.95 0  3.800000000000001 -0.95 0  3.85 -0.95 0  3.9 -0.95 0  3.949999999999999 -0.95 0  4 -0.95 0  4.050000000000001 -0.95 0  4.1 -0.95 0  4.15 -0.95 0  4.199999999999999 -0.95 0  4.25 -0.95 0  4.300000000000001 -0.95 0  4.35 -0.95 0  4.4 -0.95 0  4.449999999999999 -0.95 0  4.5 -0.95 0  4.550000000000001 -0.95 0  4.6 -0.95 0  4.65 -0.95 0  4.699999999999999 -0.95 0  4.75 -0.95 0  4.800000000000001 -0.95 0  4.85 -0.95 0  4.9 -0.95 0  4.949999999999999 -0.95 0  5 -0.95 0  -5 -0.9 0  -4.95 -0.9 0  -4.9 -0.9 0  -4.85 -0.9 0  -4.8 -0.9 0  -4.75 -0.9 0  -4.7 -0.9 0  -4.65 -0.9 0  -4.6 -0.9 0  -4.55 -0.9 0  -4.5 -0.9 0  -4.45 -0.9 0  -4.4 -0.9 0  -4.35 -0.9 0  -4.3 -0.9 0  -4.25 -0.9 0  -4.2 -0.9 0  -4.15 -0.9 0  -4.1 -0.9 0  -4.05 -0.9 0  -4 -0.9 0  -3.95 -0.9 0  -3.9 -0.9 0  -3.85 -0.9 0  -3.8 -0.9 0  -3.75 -0.9 0  -3.7 -0.9 0  -3.65 -0.9 0  -3.6 -0.9 0  -3.55 -0.9 0  -3.5 -0.9 0  -3.45 -0.9 0  -3.4 -0.9 0  -3.35 -0.9 0  -3.3 -0.9 0  -3.25 -0.9 0  -3.2 -0.9 0  -3.15 -0.9 0  -3.1 -0.9 0  -3.05 -0.9 0  -3 -0.9 0  -2.95 -0.9 0  -2.9 -0.9 0  -2.85 -0.9 0  -2.8 -0.9 0  -2.75 -0.9 0  -2.7 -0.9 0  -2.65 -0.9 0  -2.6 -0.9 0  -2.55 -0.9 0  -2.5 -0.9 0  -2.45 -0.9 0  -2.4 -0.9 0  -2.35 -0.9 0  -2.3 -0.9 0  -2.25 -0.9 0  -2.2 -0.9 0  -2.15 -0.9 0  -2.1 -0.9 0  -2.05 -0.9 0  -2 -0.9 0  -1.95 -0.9 0  -1.9 -0.9 0  -1.85 -0.9 0  -1.8 -0.9 0  -1.75 -0.9 0  -1.7 -0.9 0  -1.65 -0.9 0  -1.6 -0.9 0  -1.55 -0.9 0  -1.5 -0.9 0  -1.45 -0.9 0  -1.4 -0.9 0  -1.35 -0.9 0  -1.3 -0.9 0  -1.25 -0.9 0  -1.2 -0.9 0  -1.15 -0.9 0  -1.1 -0.9 0  -1.05 -0.9 0  -1 -0.9 0  -0.9500000000000002 -0.9 0  -0.9000000000000004 -0.9 0  -0.8499999999999996 -0.9 0  -0.7999999999999998 -0.9 0  -0.75 -0.9 0  -0.7000000000000002 -0.9 0  -0.6500000000000004 -0.9 0  -0.5999999999999996 -0.9 0  -0.5499999999999998 -0.9 0  -0.5 -0.9 0  -0.4500000000000002 -0.9 0  -0.4000000000000004 -0.9 0  -0.3499999999999996 -0.9 0  -0.2999999999999998 -0.9 0  -0.25 -0.9 0  -0.2000000000000002 -0.9 0  -0.1500000000000004 -0.9 0  -0.09999999999999964 -0.9 0  -0.04999999999999982 -0.9 0  0 -0.9 0  0.04999999999999982 -0.9 0  0.09999999999999964 -0.9 0  0.1500000000000004 -0.9 0  0.2000000000000002 -0.9 0  0.25 -0.9 0  0.2999999999999998 -0.9 0  0.3499999999999996 -0.9 0  0.4000000000000004 -0.9 0  0.4500000000000002 -0.9 0  0.5 -0.9 0  0.5499999999999998 -0.9 0  0.5999999999999996 -0.9 0  0.6500000000000004 -0.9 0  0.7000000000000002 -0.9 0  0.75 -0.9 0  0.7999999999999998 -0.9 0  0.8499999999999996 -0.9 0  0.9000000000000004 -0.9 0  0.9500000000000002 -0.9 0  1 -0.9 0  1.05 -0.9 0  1.1 -0.9 0  1.15 -0.9 0  1.2 -0.9 0  1.25 -0.9 0  1.3 -0.9 0  1.35 -0.9 0  1.4 -0.9 0  1.45 -0.9 0  1.5 -0.9 0  1.55 -0.9 0  1.6 -0.9 0  1.65 -0.9 0  1.7 -0.9 0  1.75 -0.9 0  1.8 -0.9 0  1.85 -0.9 0  1.9 -0.9 0  1.95 -0.9 0  2 -0.9 0  2.05 -0.9 0  2.1 -0.9 0  2.15 -0.9 0  2.2 -0.9 0  2.25 -0.9 0  2.3 -0.9 0  2.35 -0.9 0  2.4 -0.9 0  2.45 -0.9 0  2.5 -0.9 0  2.55 -0.9 0  2.6 -0.9 0  2.65 -0.9 0  2.7 -0.9 0  2.75 -0.9 0  2.8 -0.9 0  2.85 -0.9 0  2.9 -0.9 0  2.95 -0.9 0  3 -0.9 0  3.050000000000001 -0.9 0  3.1 -0.9 0  3.15 -0.9 0  3.199999999999999 -0.9 0  3.25 -0.9 0  3.300000000000001 -0.9 0  3.35 -0.9 0  3.4 -0.9 0  3.449999999999999 -0.9 0  3.5 -0.9 0  3.550000000000001 -0.9 0  3.6 -0.9 0  3.65 -0.9 0  3.699999999999999 -0.9 0  3.75 -0.9 0  3.800000000000001 -0.9 0  3.85 -0.9 0  3.9 -0.9 0  3.949999999999999 -0.9 0  4 -0.9 0  4.050000000000001 -0.9 0  4.1 -0.9 0  4.15 -0.9 0  4.199999999999999 -0.9 0  4.25 -0.9 0  4.300000000000001 -0.9 0  4.35 -0.9 0  4.4 -0.9 0  4.449999999999999 -0.9 0  4.5 -0.9 0  4.550000000000001 -0.9 0  4.6 -0.9 0  4.65 -0.9 0  4.699999999999999 -0.9 0  4.75 -0.9 0  4.800000000000001 -0.9 0  4.85 -0.9 0  4.9 -0.9 0  4.949999999999999 -0.9 0  5 -0.9 0  -5 -0.85 0  -4.95 -0.85 0  -4.9 -0.85 0  -4.85 -0.85 0  -4.8 -0.85 0  -4.75 -0.85 0  -4.7 -0.85 0  -4.65 -0.85 0  -4.6 -0.85 0  -4.55 -0.85 0  -4.5 -0.85 0  -
[...]
<PointData  Vectors="f_15"> 
<DataArray  type="Float64"  Name="f_15"  NumberOfComponents="3" format="ascii">2.0487094404979893e+00 0.0000000000000000e+00 0.0000000000000000e+00  2.0495622485349991e+00 2.9174205560636456e-02 0.0000000000000000e+00  2.0463133814173253e+00 7.5182506319920031e-02 0.0000000000000000e+00  2.0505211340977643e+00 8.0654990182447109e-02 0.0000000000000000e+00  2.0589965029877986e+00 7.6684927404635325e-02 0.0000000000000000e+00  2.1566847838725924e+00 -7.3310767449678127e-02 0.0000000000000000e+00  2.5754313603493051e+00 -9.8902241896777232e-01 0.0000000000000000e+00  3.2763445874425448e+00 -2.3980381057902078e+00 0.0000000000000000e+00  3.9689300986208806e+00 -3.6312602613065561e+00 0.0000000000000000e+00  4.4600731926886246e+00 -4.3702057650111144e+00 0.0000000000000000e+00  4.7479288407632199e+00 -4.7708069888332938e+00 0.0000000000000000e+00  4.9148529158607390e+00 -4.9813422094286253e+00 0.0000000000000000e+00  5.0034308790490076e+00 -5.0730907712309561e+00 0.0000000000000000e+00  5.0621655853332994e+00 -5.0950136873282847e+00 0.0000000000000000e+00  5.0876642876767875e+00 -5.1442987126826258e+00 0.0000000000000000e+00  5.1170383135610340e+00 -5.0903759382608360e+00 0.0000000000000000e+00  5.1328787043635691e+00 -5.1211026454328810e+00 0.0000000000000000e+00  5.1462923028663088e+00 -5.0827646194723215e+00 0.0000000000000000e+00  5.1636093403315009e+00 -5.0712898194397074e+00 0.0000000000000000e+00  5.1747442274074738e+00 -5.0548213438917546e+00 0.0000000000000000e+00  5.1890358560694230e+00 -5.0359302765003671e+00 0.0000000000000000e+00  5.2012885518332546e+00 -5.0188703562267660e+00 0.0000000000000000e+00  5.2152812733354610e+00 -4.9893544784060673e+00 0.0000000000000000e+00  5.2270136061005283e+00 -4.9964971243272487e+00 0.0000000000000000e+00  5.2407578739771274e+00 -4.9437564059840291e+00 0.0000000000000000e+00  5.2529643585579198e+00 -4.9531567756685870e+00 0.0000000000000000e+00  5.2662937547380535e+00 -4.9266540442550655e+00 0.0000000000000000e+00  5.2784840603897623e+00 -4.8943236159446561e+00 0.0000000000000000e+00  5.2916856398322185e+00 -4.9007486779423655e+00 0.0000000000000000e+00  5.3046215264931291e+00 -4.8598580283283734e+00 0.0000000000000000e+00  5.3154000156789047e+00 -4.8539569683504391e+00 0.0000000000000000e+00  5.3318847463043726e+00 -4.8282475696449563e+00 0.0000000000000000e+00  5.3393100461821987e+00 -4.8174388278009070e+00 0.0000000000000000e+00  5.3569986462217170e+00 -4.7857431808838786e+00 0.0000000000000000e+00  5.3649121981054924e+00 -4.7797981858703880e+00 0.0000000000000000e+00  5.3814345760272291e+00 -4.7536026743865083e+00 0.0000000000000000e+00  5.3895527065689679e+00 -4.7306318588134388e+00 0.0000000000000000e+00  5.4063902322531181e+00 -4.7225774695189102e+00 0.0000000000000000e+00  5.4138889364151410e+00 -4.6904326597016128e+00 0.0000000000000000e+00  5.4304493345963811e+00 -4.6783062018290487e+00 0.0000000000000000e+00  5.4385865745191024e+00 -4.6566686920608964e+00 0.0000000000000000e+00  5.4541239470116114e+00 -4.6367175226813622e+00 0.0000000000000000e+00  5.4623674195385306e+00 -4.6142569121244810e+00 0.0000000000000000e+00  5.4780089912391725e+00 -4.6008459744806816e+00 0.0000000000000000e+00  5.4860605229323349e+00 -4.5722518963057883e+00 0.0000000000000000e+00  5.5004742553584514e+00 -4.5591262220229654e+00 0.0000000000000000e+00  5.5102458029092496e+00 -4.5348121870011457e+00 0.0000000000000000e+00  5.5225873561073806e+00 -4.5168143207802744e+00 0.0000000000000000e+00  5.5331483887506536e+00 -4.4928375474119271e+00 0.0000000000000000e+00  5.5451774006356489e+00 -4.4778514565152125e+00 0.0000000000000000e+00  5.5552291675388430e+00 -4.4503879869524843e+00 0.0000000000000000e+00  5.5671422456514916e+00 -4.4337958931238450e+00 0.0000000000000000e+00  5.5771807817378800e+00 -4.4119168013409169e+00 0.0000000000000000e+00  5.5884400854420919e+00 -4.3874068672323636e+00 0.0000000000000000e+00  5.5985854222122073e+00 -4.3701052899377650e+00 0.0000000000000000e+00  5.6093977000171931e+00 -4.3435058577219898e+00 0.0000000000000000e+00  5.6193898028702423e+00 -4.3258410024735898e+00 0.0000000000000000e+00  5.6298107297349880e+00 -4.2975252609033934e+00 0.0000000000000000e+00  5.6396935049668029e+00 -4.2823411063624022e+00 0.0000000000000000e+00  5.6497486068755034e+00 -4.2503895101957072e+00 0.0000000000000000e+00  5.6593811375887322e+00 -4.2362346500855015e+00 0.0000000000000000e+00  5.6691496489775739e+00 -4.2045159834527128e+00 0.0000000000000000e+00  5.6785508972681882e+00 -4.1885247715065335e+00 0.0000000000000000e+00  5.6879937680006245e+00 -4.1570369276424159e+00 0.0000000000000000e+00  5.6971434292010272e+00 -4.1415194939063698e+00 0.0000000000000000e+00  5.7062346482779507e+00 -4.1082221961385592e+00 0.0000000000000000e+00  5.7153190098925490e+00 -4.0935218847273607e+00 0.0000000000000000e+00  5.7237336793473581e+00 -4.0596391236964218e+00 0.0000000000000000e+00  5.7329618883269298e+00 -4.0444629916853119e+00 0.0000000000000000e+00  5.7408677644691748e+00 -4.0103970298119416e+00 0.0000000000000000e+00  5.7497392617117136e+00 -3.9951755752393296e+00 0.0000000000000000e+00  5.7575611832031655e+00 -3.9605576648914642e+00 0.0000000000000000e+00  5.7661129842532199e+00 -3.9448147694987385e+00 0.0000000000000000e+00  5.7734037849862085e+00 -3.9111007860428653e+00 0.0000000000000000e+00  5.7820441454037610e+00 -3.8927707821736437e+00 0.0000000000000000e+00  5.7888536206769485e+00 -3.8619675792011718e+00 0.0000000000000000e+00  5.7971418875292864e+00 -3.8396975204092376e+00 0.0000000000000000e+00  5.8038311540081589e+00 -3.8120789683504497e+00 0.0000000000000000e+00  5.8118943184297684e+00 -3.7866768541059814e+00 0.0000000000000000e+00  5.8179826942928203e+00 -3.7607257158480341e+00 0.0000000000000000e+00  5.8261361504926441e+00 -3.7338815900940467e+00 0.0000000000000000e+00  5.8318901701261492e+00 -3.7080814506247379e+00 0.0000000000000000e+00  5.8394523799800391e+00 -3.6811643573649357e+00 0.0000000000000000e+00  5.8454229486257923e+00 -3.6542500500859512e+00 0.0000000000000000e+00  5.8524232662718987e+00 -3.6282327460108350e+00 0.0000000000000000e+00  5.8581461315051548e+00 -3.6000465143015772e+00 0.0000000000000000e+00  5.8649621123680680e+00 -3.5740962529245648e+00 0.0000000000000000e+00  5.8705879843005064e+00 -3.5460476132955967e+00 0.0000000000000000e+00  5.8766796036782907e+00 -3.5191588278616659e+00 0.0000000000000000e+00  5.8826400120296478e+00 -3.4912652727248612e+00 0.0000000000000000e+00  5.8881164119939076e+00 -3.4642331845652907e+00 0.0000000000000000e+00  5.8939077871925605e+00 -3.4357291697769723e+00 0.0000000000000000e+00  5.8991704210770779e+00 -3.4087844584523666e+00 0.0000000000000000e+00  5.9049272401312729e+00 -3.3797856601917804e+00 0.0000000000000000e+00  5.9094557555575822e+00 -3.3531336181659279e+00 0.0000000000000000e+00  5.9155867988632771e+00 -3.3229107652649965e+00 0.0000000000000000e+00  5.9195170260666794e+00 -3.2972592512387147e+00 0.0000000000000000e+00  5.9255050282435153e+00 -3.2659883467748902e+00 0.0000000000000000e+00  5.9292324518338697e+00 -3.2400388592589140e+00 0.0000000000000000e+00  5.9352285530465121e+00 -3.2094276999103490e+00 0.0000000000000000e+00  5.9382435969707954e+00 -3.1822079053814036e+00 0.0000000000000000e+00  5.9445969151407372e+00 -3.1518926156277067e+00 0.0000000000000000e+00  5.9471262834308067e+00 -3.1246951084840440e+00 0.0000000000000000e+00  5.9532583821686060e+00 -3.0935069321613016e+00 0.0000000000000000e+00  5.9556838769347635e+00 -3.0666245837381170e+00 0.0000000000000000e+00  5.9618227593928204e+00 -3.0350633186533584e+00 0.0000000000000000e+00  5.9635686997251600e+00 -3.0079360815675766e+00 0.0000000000000000e+00  5.9700503779531884e+00 -2.9760009097595996e+00 0.0000000000000000e+00  5.9714321698487316e+00 -2.9490564195851769e+00 0.0000000000000000e+00  5.9775985540862591e+00 -2.9165103988208352e+00 0.0000000000000000e+00  5.9789815455220392e+00 -2.8893565718320544e+00 0.0000000000000000e+00  5.9851635504567762e+00 -2.8569935821393453e+00 0.0000000000000000e+00  5.9858909910694384e+00 -2.8293057973571365e+00 0.0000000000000000e+00  5.9923852450584301e+00 -2.7967142523491968e+00 0.0000000000000000e+00  5.9928916572528008e+00 -2.7694741373125233e+00 0.0000000000000000e+00  5.9989917777725816e+00 -2.7360825312905499e+00 0.0000000000000000e+00  5.9995220180854467e+00 -2.7091125174613775e+00 0.0000000000000000e+00  6.0057454648224669e+00 -2.6755561021241063e+00 0.0000000000000000e+00  6.0055994269182431e+00 -2.6482543093835713e+00 0.0000000000000000e+00  6.0120606289080776e+00 -2.6146412420672309e+00 0.0000000000000000e+00  6.0118956058892454e+00 -2.5869719078709310e+00 0.0000000000000000e+00  6.0178877551823371e+00 -2.5533273575494402e+00 0.0000000000000000e+00  6.0176865085901037e+00 -2.5252826593982745e+00 0.0000000000000000e+00  6.0239660864174525e+00 -2.4915600893656560e+00 0.0000000000000000e+00  6.0231113308118509e+00 -2.4633467445898325e+00 0.0000000000000000e+00  6.0294183490885667e+00 -2.4297728521297564e+00 0.0000000000000000e+00  6.0288385768159616e+00 -2.4011101676080271e+00 0.0000000000000000e+00  6.0346172346206552e+00 -2.3677438835618001e+00 0.0000000000000000e+00  6.0338422162787690e+00 -2.3392927111080808e+00 0.0000000000000000e+00  6.0401134676612775e+00 -2.3052008619793996e+00 0.0000000000000000e+00  6.0387667427735012e+00 -2.2772179657840743e+00 0.0000000000000000e+00  6.0447469433279446e+00 -2.2431355289523416e+00 0.0000000000000000e+00  6.0439932644107772e+00 -2.2146603046695450e+00 0.0000000000000000e+00  6.0494646652961750e+00 -2.1804660434436949e+00 0.0000000000000000e+00  6.0482494698893845e+00 -2.1528780288014211e+00 0.0000000000000000e+00  6.0544257458453181e+00 -2.1168915351645632e+00 0.0000000000000000e+00  6.0528146599233787e+00 -2.0905077891790240e+00 0.0000000000000000e+00  6.0582680599224945e+00 -2.0539849469516591e+00 0.0000000000000000e+00  6.0575826776947732e+00 -2.0274401316763191e+00 0.0000000000000000e+00  6.0626129318699853e+00 -1.9903260957473672e+00 0.0000000000000000e+00  6.0611365044160035e+00 -1.9651295911474898e+00 0.0000000000000000e+00  6.0670473878001623e+00 -1.9266589449670586e+00 0.0000000000000000e+00  6.0654445443097122e+00 -1.9011700656313160e+00 0.0000000000000000e+00  6.0701309668907646e+00 -1.8648538489389390e+00 0.0000000000000000e+00  6.0697725105996705e+00 -1.8368712830884018e+00 0.0000000000000000e+00  6.0741458248650844e+00 -1.8014801105845037e+00 0.0000000000000000e+00  6.0727018176862781e+00 -1.7745864675548693e+00 0.0000000000000000e+00  6.0780362452222549e+00 -1.7374913256450613e+00 0.0000000000000000e+00  6.0767784748193678e+00 -1.7112056832318703e+00 0.0000000000000000e+00  6.0804508309850238e+00 -1.6746369642251926e+00 0.0000000000000000e+00  6.0806465409415456e+00 -1.6475901616595208e+00 0.0000000000000000e+00  6.0841191812685329e+00 -1.6108012854438039e+00 0.0000000000000000e+00  6.0830789426454208e+00 -1.5838794496379882e+00 0.0000000000000000e+00  6.0874177044413447e+00 -1.5486313671886087e+00 0.0000000000000000e+00  6.0868978950064978e+00 -1.5176781648129398e+00 0.0000000000000000e+00  6.0893019796262626e+00 -1.4870951534753736e+00 0.0000000000000000e+00  6.0902393358396951e+00 -1.4533546670510646e+00 0.0000000000000000e+00  6.0926246801241879e+00 -1.4221898218658253e+00 0.0000000000000000e+00  6.0922374941519930e+00 -1.3918853012169845e+00 0.0000000000000000e+00  6.0953942755929464e+00 -1.3580332959393315e+00 0.0000000000000000e+00  6.0956305563643554e+00 -1.3282536636855444e+00 0.0000000000000000e+00  6.0969811838600245e+00 -1.2962344469180842e+00 0.0000000000000000e+00  6.0983768115857853e+00 -1.2654031849297467e+00 0.0000000000000000e+00  6.0999049346036571e+00 -1.2331199685944236e+00 0.0000000000000000e+00  6.1000787400038021e+00 -1.2033917304749866e+00 0.0000000000000000e+00  6.1021849190318225e+00 -1.1721823839105832e+00 0.0000000000000000e+00  6.1029371037915299e+00 -1.1396947718731067e+00 0.0000000000000000e+00  6.1036537223923153e+00 -1.1116502758106139e+00 0.0000000000000000e+00  6.1051022554854448e+00 -1.0776237279006657e+00 0.0000000000000000e+00  6.1061502202938094e+00 -1.0481882532751350e+00 0.0000000000000000e+00  6.1065919114120186e+00 -1.0161546455987154e+00 0.0000000000000000e+00  6.1080309964688162e+00 -9.8532242410046988e-01 0.0000000000000000e+00  6.1088523015711784e+00 -9.5292008268630302e-01 0.0000000000000000e+00  6.1094255209962460e+00 -9.2160017056897114e-01 0.0000000000000000e+00  6.1105515825357894e+00 -8.8947925878622147e-01 0.0000000000000000e+00  6.1113271077037323e+00 -8.5800559926181685e-01 0.0000000000000000e+00  6.1119187405412561e+00 -8.2552662931153820e-01 0.0000000000000000e+00  6.1127147697211779e+00 -7.9796299365346446e-01 0.0000000000000000e+00  6.1135565018865110e+00 -7.6230491767597219e-01 0.0000000000000000e+00  6.1138939232027827e+00 -7.4249019926987891e-01 0.0000000000000000e+00  6.1147995008381208e+00 -6.9952036600963885e-01 0.0000000000000000e+00  6.1151521957911283e+00 -6.8710995626303850e-01 0.0000000000000000e+00  6.1159818222231630e+00 -6.3653203112367929e-01 0.0000000000000000e+00  6.1162124936738200e+00 -6.2528183189126330e-01 0.0000000000000000e+00  6.1170171743734931e+00 -5.7407472966490003e-01 0.0000000000000000e+00  6.1173720465379171e+00 -5.5972323557746173e-01 0.0000000000000000e+00  6.1178873476004680e+00 -5.1204582438052071e-01 0.0000000000000000e+00  6.1182177317602289e+00 -4.8805577332346339e-01 0.0000000000000000e+00  6.1189210443533657e+00 -4.4425786444073301e-01 0.0000000000000000e+00  6.1189710338829642e+00 -4.1371012601858398e-01 0.0000000000000000e+00  6.1194739611678131e+00 -3.7460295331830662e-01 0.0000000000000000e+00  6.1198598781687181e+00 -3.4902643928883725e-01 0.0000000000000000e+00  6.1200183198042026e+00 -3.0886187899286838e-01 0.0000000000000000e+00  6.1202084059255419e+00 -2.7288719990349009e-01 0.0000000000000000e+00  6.1207795479243190e+00 -2.4189533166567295e-01 0.0000000000000000e+00  6.1205537365713312e+00 -2.0794767903573610e-01 0.0000000000000000e+00  6.1207405434242412e+00 -1.7740145088346665e-01 0.0000000000000000e+00  6.1211356284264644e+00 -1.3939445338497081e-01 0.0000000000000000e+00  6.1209652635673555e+00 -1.2114190396885660e-01 0.0000000000000000e+00  6.1210412632355746e+00 -3.3878196712795232e-02 0.0000000000000000e+00  6.1216466924634068e+00 0.0000000000000000e+00 0.0000000000000000e+00  2.0514592294437208e+00 0.0000000000000000e+00 -5.0436893106798504e-03  2.0489458440061292e+00 2.8455010224236098e-02 6.4624360289409826e-03  2.0511357200756701e+00 5.1527359235864517e-02 -2.6465629314274087e-02  2.0533998945175349e+00 9.5422911788458506e-02 4.1179170492264799e-02  2.0650055130890865e+00 6.8904481707492984e-02 -2.8319328585171739e-02  2.1673779116728187e+00 -9.4682909148323419e-02 6.9078526624617911e-03  2.5612060079714900e+00 -9.3621213029283545e-01 1.5029021620145916e-02  3.2805762963325300e+00 -2.3899365962531829e+00 -4.6831115894506925e-03  3.9899701958442200e+00 -3.6208478510319400e+00 1.3986731272202242e-02  4.4585524361493460e+00 -4.3646288737532037e+00 -1.9584414374708099e-02  4.7540149170459092e+00 -4.7513949454597544e+00 1.2024032300993857e-02  4.9085248149270617e+00 -4.9728051616616513e+00 -1.0284205381460318e-02  5.0135668916427569e+00 -5.0346310854405782e+00 8.3442261743455256e-03  5.0555799979150793e+00 -5.1145228454546636e+00 -2.7898000216215269e-03  5.0951859010177261e+00 -5.0928423527194919e+00 9.8745614938566405e-04  5.1192445755328997e+00 -5.1005646578936688e+00 4.7731360194926457e-04  5.1318619865671868e+00 -5.0994029668352781e+00 8.5502230105901831e-04  5.1506491937469141e+00 -5.0643509691884985e+00 -2.0019761458226833e-03  5.1652366099219895e+00 -5.0636233689171659e+00 2.7547279817591382e-03  5.1748693382712130e+00 -5.0430429712427953e+00 -3.2747218052150274e-03  5.1919496738766888e+00 -5.0195792030507276e+00 3.1476653605200691e-03  5.2021126009748437e+00 -5.0055569662735104e+00 -2.8945031447738176e-03  5.2161445635511994e+00 -4.9925813502248531e+00 1.8471004145514237e-03  5.2287946742506941e+00 -4.9618737741824779e+00 -4.7827840013852497e-04  5.2409478876267279e+00 -4.9523064079123555e+00 -4.4180342448956253e-04  5.2545759268572976e+00 -4.9377668249639921e+00 7.3093220490329323e-04  5.2665474141866193e+00 -4.9017273961282557e+00 1.2574973367775343e-04  5.2793190053007359e+00 -4.9035339786523862e+00 -9.2132951474612130e-04  5.2927720262933766e+00 -4.8722696326126105e+00 1.7562059453374410e-03  5.3033400917430900e+00 -4.8536339340385233e+00 -1.7234291314280807e-03  5.3191115631095247e+00 -4.8401123185708537e+00 1.7069212755182522e-03  5.3280644439998124e+00 -4.8186767837524185e+00 -1.5200896707060795e-03  5.3433812919103802e+00 -4.7948997737643992e+00 1.6907910157515128e-03  5.3542543859573746e+00 -4.7835727642467969e+00 -1.7249561345941088e-03  5.3674114767260424e+00 -4.7601535810823536e+00 1.5360360310261334e-03  5.3790171815056000e+00 -4.7377625315059166e+00 -1.1739853684748309e-03  5.3924486278568091e+00 -4.7261706371778791e+00 8.6543942820794541e-04  5.4032363447110603e+00 -4.7008006202529948e+00 -1.1030769937765525e-03  5.4168859918925838e+00 -4.6802667911070284e+00 1.6192197824641775e-03  5.4276138256177431e+00 -4.6683169355923280e+00 -2.3671842310391670e-03  5.4410752650526035e+00 -4.6387079541520668e+00 2.6826721810824855e-03  5.4513156055606649e+00 -4.6255972464814201e+00 -2.6522909307604169e-03  5.4652785369305974e+00 -4.6030992682755274e+00 2.3022231603031696e-03  5.4750584581915254e+00 -4.5829706550231659e+00 -2.0200091539955881e-03  5.4882501984542351e+00 -4.5608999956078513e+00 2.0685124862971642e-03  5.4991429598190500e+00 -4.5448865567857286e+00 -2.1713765917831702e-03  5.5111187770052892e+00 -4.5176366224466991e+00 2.3866729058931607e-03  5.5219164164343697e+00 -4.5019821103304229e+00 -2.1610403968420023e-03  5.5344059095006921e+00 -4.4781225431737175e+00 2.0094525990960216e-03  5.5442023137165792e+00 -4.4579168928357475e+00 -1.6991781136580606e-03  5.5568152411121439e+00 -4.4344114187009405e+00 1.8005699936615501e-03  5.5665710643562125e+00 -4.4176644369343183e+00 -1.9253956524315754e-03  5.5785729104393287e+00 -4.3891747386045044e+00 2.0687119992022955e-03  5.5884317400708410e+00 -4.3740959516562041e+00 -1.9997996909924820e-03  5.5999633114602787e+00 -4.3475894365881054e+00 1.5702248175872510e-03  5.6098233296284503e+00 -4.3283733455867903e+00 -1.2800160121751430e-03  5.6207445862753760e+00 -4.3043391317928856e+00 7.4973262857273924e-04  5.6307802993290750e+00 -4.2846836017702143e+00 -7.7973811976732906e-04  5.6410732971741551e+00 -4.2596842138616058e+00 3.6848170894206915e-04  5.6510808001899262e+00 -4.2395004606772524e+00 -4.9689902948178450e-04  5.6609123380619772e+00 -4.2162689180721538e+00 -6.4932359476105683e-05  5.6708729645610765e+00 -4.1932395303939236e+00 -5.2842354321497765e-06  5.6801773345923827e+00 -4.1711736671060811e+00 -5.5027497976375375e-04  5.6900577436040418e+00 -4.1479020816594563e+00 4.0303949405562768e-04  5.6989018447295194e+00 -4.1246967654089515e+00 -8.4177164292123985e-04  5.7087073275571782e+00 -4.1012581261170507e+00 6.8426213058132054e-04  5.7169854382430181e+00 -4.0783532881326341e+00 -9.9536349032106671e-04  5.7267178353320682e+00 -4.0533856728707089e+00 7.7818840613598853e-04  5.7347281484082631e+00 -4.0306877011200752e+00 -8.3753365719454022e-04  5.7438204267009807e+00 -4.0054349280604242e+00 5.3143751466817890e-04  5.7520221844463828e+00 -3.9816418808397445e+00 -4.1575622782676449e-04  5.7604854703043138e+00 -3.9565153545765201e+00 1.6068592642971494e-04  5.7684367560723873e+00 -3.9321925961844411e+00 3.8544332870521934e-06  5.7767004220489451e+00 -3.9062694093893500e+00 -1.3505654904009154e-04  5.7843952403436036e+00 -3.8821451840738752e+00 2.7207517920482300e-04  5.7921057904471072e+00 -3.8552809523988332e+00 -2.0342981446061094e-04  5.7998074431401285e+00 -3.8309972485208550e+00 2.3891440948629170e-04  5.8071926288100366e+00 -3.8039140234256879e+00 5.9347769226554352e-06  5.8143239558977236e+00 -3.7787957827134919e+00 3.1565502