<?xml version="1.0"?>
<VTKFile type="UnstructuredGrid"  version="0.1"  >
<UnstructuredGrid>
<Piece  NumberOfPoints="8241" NumberOfCells="16000">
<Points>
<DataArray  type="Float64"  NumberOfComponents="3"  format="ascii">-5 -1 0  -4.95 -1 0  -4.9 -1 0  -4.85 -1 0  -4.8 -1 0  -4.75 -1 0  -4.7 -1 0  -4.65 -1 0  -4.6 -1 0  -4.55 -1 0  -4.5 -1 0  -4.45 -1 0  -4.4 -1 0  -4.35 -1 0  -4.3 -1 0  -4.25 -1 0  -4.2 -1 0  -4.15 -1 0  -4.1 -1 0  -4.05 -1 0  -4 -1 0  -3.95 -1 0  -3.9 -1 0  -3.85 -1 0  -3.8 -1 0  -3.75 -1 0  -3.7 -1 0  -3.65 -1 0  -3.6 -1 0  -3.55 -1 0  -3.5 -1 0  -3.45 -1 0  -3.4 -1 0  -3.35 -1 0  -3.3 -1 0  -3.25 -1 0  -3.2 -1 0  -3.15 -1 0  -3.1 -1 0  -3.05 -1 0  -3 -1 0  -2.95 -1 0  -2.9 -1 0  -2.85 -1 0  -2.8 -1 0  -2.75 -1 0  -2.7 -1 0  -2.65 -1 0  -2.6 -1 0  -2.55 -1 0  -2.5 -1 0  -2.45 -1 0  -2.4 -1 0  -2.35 -1 0  -2.3 -1 0  -2.25 -1 0  -2.2 -1 0  -2.15 -1 0  -2.1 -1 0  -2.05 -1 0  -2 -1 0  -1.95 -1 0  -1.9 -1 0  -1.85 -1 0  -1.8 -1 0  -1.75 -1 0  -1.7 -1 0  -1.65 -1 0  -1.6 -1 0  -1.55 -1 0  -1.5 -1 0  -1.45 -1 0  -1.4 -1 0  -1.35 -1 0  -1.3 -1 0  -1.25 -1 0  -1.2 -1 0  -1.15 -1 0  -1.1 -1 0  -1.05 -1 0  -1 -1 0  -0.9500000000000002 -1 0  -0.9000000000000004 -1 0  -0.8499999999999996 -1 0  -0.7999999999999998 -1 0  -0.75 -1 0  -0.7000000000000002 -1 0  -0.6500000000000004 -1 0  -0.5999999999999996 -1 0  -0.5499999999999998 -1 0  -0.5 -1 0  -0.4500000000000002 -1 0  -0.4000000000000004 -1 0  -0.3499999999999996 -1 0  -0.2999999999999998 -1 0  -0.25 -1 0  -0.2000000000000002 -1 0  -0.1500000000000004 -1 0  -0.09999999999999964 -1 0  -0.04999999999999982 -1 0  0 -1 0  0.04999999999999982 -1 0  0.09999999999999964 -1 0  0.1500000000000004 -1 0  0.2000000000000002 -1 0  0.25 -1 0  0.2999999999999998 -1 0  0.3499999999999996 -1 0  0.4000000000000004 -1 0  0.4500000000000002 -1 0  0.5 -1 0  0.5499999999999998 -1 0  0.5999999999999996 -1 0  0.6500000000000004 -1 0  0.7000000000000002 -1 0  0.75 -1 0  0.7999999999999998 -1 0  0.8499999999999996 -1 0  0.9000000000000004 -1 0  0.9500000000000002 -1 0  1 -1 0  1.05 -1 0  1.1 -1 0  1.15 -1 0  1.2 -1 0  1.25 -1 0  1.3 -1 0  1.35 -1 0  1.4 -1 0  1.45 -1 0  1.5 -1 0  1.55 -1 0  1.6 -1 0  1.65 -1 0  1.7 -1 0  1.75 -1 0  1.8 -1 0  1.85 -1 0  1.9 -1 0  1.95 -1 0  2 -1 0  2.05 -1 0  2.1 -1 0  2.15 -1 0  2.2 -1 0  2.25 -1 0  2.3 -1 0  2.35 -1 0  2.4 -1 0  2.45 -1 0  2.5 -1 0  2.55 -1 0  2.6 -1 0  2.65 -1 0  2.7 -1 0  2.75 -1 0  2.8 -1 0  2.85 -1 0  2.9 -1 0  2.95 -1 0  3 -1 0  3.050000000000001 -1 0  3.1 -1 0  3.15 -1 0  3.199999999999999 -1 0  3.25 -1 0  3.300000000000001 -1 0  3.35 -1 0  3.4 -1 0  3.449999999999999 -1 0  3.5 -1 0  3.550000000000001 -1 0  3.6 -1 0  3.65 -1 0  3.699999999999999 -1 0  3.75 -1 0  3.800000000000001 -1 0  3.85 -1 0  3.9 -1 0  3.949999999999999 -1 0  4 -1 0  4.050000000000001 -1 0  4.1 -1 0  4.15 -1 0  4.199999999999999 -1 0  4.25 -1 0  4.300000000000001 -1 0  4.35 -1 0  4.4 -1 0  4.449999999999999 -1 0  4.5 -1 0  4.550000000000001 -1 0  4.6 -1 0  4.65 -1 0  4.699999999999999 -1 0  4.75 -1 0  4.800000000000001 -1 0  4.85 -1 0  4.9 -1 0  4.949999999999999 -1 0  5 -1 0  -5 -0.95 0  -4.95 -0.95 0  -4.9 -0.95 0  -4.85 -0.95 0  -4.8 -0.95 0  -4.75 -0.95 0  -4.7 -0.95 0  -4.65 -0.95 0  -4.6 -0.95 0  -4.55 -0.95 0  -4.5 -0.95 0  -4.45 -0.95 0  -4.4 -0.95 0  -4.35 -0.95 0  -4.3 -0.95 0  -4.25 -0.95 0  -4.2 -0.95 0  -4.15 -0.95 0  -4.1 -0.95 0  -4.05 -0.95 0  -4 -0.95 0  -3.95 -0.95 0  -3.9 -0.95 0  -3.85 -0.95 0  -3.8 -0.95 0  -3.75 -0.95 0  -3.7 -0.95 0  -3.65 -0.95 0  -3.6 -0.95 0  -3.55 -0.95 0  -3.5 -0.95 0  -3.45 -0.95 0  -3.4 -0.95 0  -3.35 -0.95 0  -3.3 -0.95 0  -3.25 -0.95 0  -3.2 -0.95 0  -3.15 -0.95 0  -3.1 -0.95 0  -3.05 -0.95 0  -3 -0.95 0  -2.95 -0.95 0  -2.9 -0.95 0  -2.85 -0.95 0  -2.8 -0.95 0  -2.75 -0.95 0  -2.7 -0.95 0  -2.65 -0.95 0  -2.6 -0.95 0  -2.55 -0.95 0  -2.5 -0.95 0  -2.45 -0.95 0  -2.4 -0.95 0  -2.35 -0.95 0  -2.3 -0.95 0  -2.25 -0.95 0  -2.2 -0.95 0  -2.15 -0.95 0  -2.1 -0.95 0  -2.05 -0.95 0  -2 -0.95 0  -1.95 -0.95 0  -1.9 -0.95 0  -1.85 -0.95 0  -1.8 -0.95 0  -1.75 -0.95 0  -1.7 -0.95 0  -1.65 -0.95 0  -1.6 -0.95 0  -1.55 -0.95 0  -1.5 -0.95 0  -1.45 -0.95 0  -1.4 -0.95 0  -1.35 -0.95 0  -1.3 -0.95 0  -1.25 -0.95 0  -1.2 -0.95 0  -1.15 -0.95 0  -1.1 -0.95 0  -1.05 -0.95 0  -1 -0.95 0  -0.9500000000000002 -0.95 0  -0.9000000000000004 -0.95 0  -0.8499999999999996 -0.95 0  -0.7999999999999998 -0.95 0  -0.75 -0.95 0  -0.7000000000000002 -0.95 0  -0.6500000000000004 -0.95 0  -0.5999999999999996 -0.95 0  -0.5499999999999998 -0.95 0  -0.5 -0.95 0  -0.4500000000000002 -0.95 0  -0.4000000000000004 -0.95 0  -0.3499999999999996 -0.95 0  -0.2999999999999998 -0.95 0  -0.25 -0.95 0  -0.2000000000000002 -0.95 0  -0.1500000000000004 -0.95 0  -0.09999999999999964 -0.95 0  -0.04999999999999982 -0.95 0  0 -0.95 0  0.04999999999999982 -0.95 0  0.09999999999999964 -0.95 0  0.1500000000000004 -0.95 0  0.2000000000000002 -0.95 0  0.25 -0.95 0  0.2999999999999998 -0.95 0  0.3499999999999996 -0.95 0  0.4000000000000004 -0.95 0  0.4500000000000002 -0.95 0  0.5 -0.95 0  0.5499999999999998 -0.95 0  0.5999999999999996 -0.95 0  0.6500000000000004 -0.95 0  0.7000000000000002 -0.95 0  0.75 -0.95 0  0.7999999999999998 -0.95 0  0.8499999999999996 -0.95 0  0.9000000000000004 -0.95 0  0.9500000000000002 -0.95 0  1 -0.95 0  1.05 -0.95 0  1.1 -0.95 0  1.15 -0.95 0  1.2 -0.95 0  1.25 -0.95 0  1.3 -0.95 0  1.35 -0.95 0  1.4 -0.95 0  1.45 -0.95 0  1.5 -0.95 0  1.55 -0.95 0  1.6 -0.95 0  1.65 -0.95 0  1.7 -0.95 0  1.75 -0.95 0  1.8 -0.95 0  1.85 -0.95 0  1.9 -0.95 0  1.95 -0.95 0  2 -0.95 0  2.05 -0.95 0  2.1 -0.95 0  2.15 -0.95 0  2.2 -0.95 0  2.25 -0.95 0  2.3 -0.95 0  2.35 -0.95 0  2.4 -0.95 0  2.45 -0.95 0  2.5 -0.95 0  2.55 -0.95 0  2.6 -0.95 0  2.65 -0.95 0  2.7 -0.95 0  2.75 -0.95 0  2.8 -0.95 0  2.85 -0.95 0  2.9 -0.95 0  2.95 -0.95 0  3 -0.95 0  3.050000000000001 -0.95 0  3.1 -0.95 0  3.15 -0.95 0  3.199999999999999 -0.95 0  3.25 -0.95 0  3.300000000000001 -0.95 0  3.35 -0.95 0  3.4 -0.95 0  3.449999999999999 -0.95 0  3.5 -0.95 0  3.550000000000001 -0.95 0  3.6 -0.95 0  3.65 -0.95 0  3.699999999999999 -0.95 0  3.75 -0.95 0  3.800000000000001 -0.95 0  3.85 -0.95 0  3.9 -0.95 0  3.949999999999999 -0.95 0  4 -0.95 0  4.050000000000001 -0.95 0  4.1 -0.95 0  4.15 -0.95 0  4.199999999999999 -0.95 0  4.25 -0.95 0  4.300000000000001 -0.95 0  4.35 -0.95 0  4.4 -0.95 0  4.449999999999999 -0.95 0  4.5 -0.95 0  4.550000000000001 -0.95 0  4.6 -0.95 0  4.65 -0.95 0  4.699999999999999 -0.95 0  4.75 -0.95 0  4.800000000000001 -0.95 0  4.85 -0.95 0  4.9 -0.95 0  4.949999999999999 -0.95 0  5 -0.95 0  -5 -0.9 0  -4.95 -0.9 0  -4.9 -0.9 0  -4.85 -0.9 0  -4.8 -0.9 0  -4.75 -0.9 0  -4.7 -0.9 0  -4.65 -0.9 0  -4.6 -0.9 0  -4.55 -0.9 0  -4.5 -0.9 0  -4.45 -0.9 0  -4.4 -0.9 0  -4.35 -0.9 0  -4.3 -0.9 0  -4.25 -0.9 0  -4.2 -0.9 0  -4.15 -0.9 0  -4.1 -0.9 0  -4.05 -0.9 0  -4 -0.9 0  -3.95 -0.9 0  -3.9 -0.9 0  -3.85 -0.9 0  -3.8 -0.9 0  -3.75 -0.9 0  -3.7 -0.9 0  -3.65 -0.9 0  -3.6 -0.9 0  -3.55 -0.9 0  -3.5 -0.9 0  -3.45 -0.9 0  -3.4 -0.9 0  -3.35 -0.9 0  -3.3 -0.9 0  -3.25 -0.9 0  -3.2 -0.9 0  -3.15 -0.9 0  -3.1 -0.9 0  -3.05 -0.9 0  -3 -0.9 0  -2.95 -0.9 0  -2.9 -0.9 0  -2.85 -0.9 0  -2.8 -0.9 0  -2.75 -0.9 0  -2.7 -0.9 0  -2.65 -0.9 0  -2.6 -0.9 0  -2.55 -0.9 0  -2.5 -0.9 0  -2.45 -0.9 0  -2.4 -0.9 0  -2.35 -0.9 0  -2.3 -0.9 0  -2.25 -0.9 0  -2.2 -0.9 0  -2.15 -0.9 0  -2.1 -0.9 0  -2.05 -0.9 0  -2 -0.9 0  -1.95 -0.9 0  -1.9 -0.9 0  -1.85 -0.9 0  -1.8 -0.9 0  -1.75 -0.9 0  -1.7 -0.9 0  -1.65 -0.9 0  -1.6 -0.9 0  -1.55 -0.9 0  -1.5 -0.9 0  -1.45 -0.9 0  -1.4 -0.9 0  -1.35 -0.9 0  -1.3 -0.9 0  -1.25 -0.9 0  -1.2 -0.9 0  -1.15 -0.9 0  -1.1 -0.9 0  -1.05 -0.9 0  -1 -0.9 0  -0.9500000000000002 -0.9 0  -0.9000000000000004 -0.9 0  -0.8499999999999996 -0.9 0  -0.7999999999999998 -0.9 0  -0.75 -0.9 0  -0.7000000000000002 -0.9 0  -0.6500000000000004 -0.9 0  -0.5999999999999996 -0.9 0  -0.5499999999999998 -0.9 0  -0.5 -0.9 0  -0.4500000000000002 -0.9 0  -0.4000000000000004 -0.9 0  -0.3499999999999996 -0.9 0  -0.2999999999999998 -0.9 0  -0.25 -0.9 0  -0.2000000000000002 -0.9 0  -0.1500000000000004 -0.9 0  -0.09999999999999964 -0.9 0  -0.04999999999999982 -0.9 0  0 -0.9 0  0.04999999999999982 -0.9 0  0.09999999999999964 -0.9 0  0.1500000000000004 -0.9 0  0.2000000000000002 -0.9 0  0.25 -0.9 0  0.2999999999999998 -0.9 0  0.3499999999999996 -0.9 0  0.4000000000000004 -0.9 0  0.4500000000000002 -0.9 0  0.5 -0.9 0  0.5499999999999998 -0.9 0  0.5999999999999996 -0.9 0  0.6500000000000004 -0.9 0  0.7000000000000002 -0.9 0  0.75 -0.9 0  0.7999999999999998 -0.9 0  0.8499999999999996 -0.9 0  0.9000000000000004 -0.9 0  0.9500000000000002 -0.9 0  1 -0.9 0  1.05 -0.9 0  1.1 -0.9 0  1.15 -0.9 0  1.2 -0.9 0  1.25 -0.9 0  1.3 -0.9 0  1.35 -0.9 0  1.4 -0.9 0  1.45 -0.9 0  1.5 -0.9 0  1.55 -0.9 0  1.6 -0.9 0  1.65 -0.9 0  1.7 -0.9 0  1.75 -0.9 0  1.8 -0.9 0  1.85 -0.9 0  1.9 -0.9 0  1.95 -0.9 0  2 -0.9 0  2.05 -0.9 0  2.1 -0.9 0  2.15 -0.9 0  2.2 -0.9 0  2.25 -0.9 0  2.3 -0.9 0  2.35 -0.9 0  2.4 -0.9 0  2.45 -0.9 0  2.5 -0.9 0  2.55 -0.9 0  2.6 -0.9 0  2.65 -0.9 0  2.7 -0.9 0  2.75 -0.9 0  2.8 -0.9 0  2.85 -0.9 0  2.9 -0.9 0  2.95 -0.9 0  3 -0.9 0  3.050000000000001 -0.9 0  3.1 -0.9 0  3.15 -0.9 0  3.199999999999999 -0.9 0  3.25 -0.9 0  3.300000000000001 -0.9 0  3.35 -0.9 0  3.4 -0.9 0  3.449999999999999 -0.9 0  3.5 -0.9 0  3.550000000000001 -0.9 0  3.6 -0.9 0  3.65 -0.9 0  3.699999999999999 -0.9 0  3.75 -0.9 0  3.800000000000001 -0.9 0  3.85 -0.9 0  3.9 -0.9 0  3.949999999999999 -0.9 0  4 -0.9 0  4.050000000000001 -0.9 0  4.1 -0.9 0  4.15 -0.9 0  4.199999999999999 -0.9 0  4.25 -0.9 0  4.300000000000001 -0.9 0  4.35 -0.9 0  4.4 -0.9 0  4.449999999999999 -0.9 0  4.5 -0.9 0  4.550000000000001 -0.9 0  4.6 -0.9 0  4.65 -0.9 0  4.699999999999999 -0.9 0  4.75 -0.9 0  4.800000000000001 -0.9 0  4.85 -0.9 0  4.9 -0.9 0  4.949999999999999 -0.9 0  5 -0.9 0  -5 -0.85 0  -4.95 -0.85 0  -4.9 -0.85 0  -4.85 -0.85 0  -4.8 -0.85 0  -4.75 -0.85 0  -4.7 -0.85 0  -4.65 -0.85 0  -4.6 -0.85 0  -4.55 -0.85 0  -4.5 -0.85 0  -
[...]
<PointData  Vectors="f_15"> 
<DataArray  type="Float64"  Name="f_15"  NumberOfComponents="3" format="ascii">2.5787664380669835e+00 0.0000000000000000e+00 0.0000000000000000e+00  2.5833617773531854e+00 4.4550307865263879e-02 0.0000000000000000e+00  2.5797806544209116e+00 8.6596385950585233e-02 0.0000000000000000e+00  2.5826263677757297e+00 9.6477197766270936e-02 0.0000000000000000e+00  2.5799059303102223e+00 1.5489593578487657e-01 0.0000000000000000e+00  2.5832128977171518e+00 1.7403259503238347e-01 0.0000000000000000e+00  2.5794224895336146e+00 2.2010798865066153e-01 0.0000000000000000e+00  2.5830767914504449e+00 2.5216020160020380e-01 0.0000000000000000e+00  2.5801968094234580e+00 2.8679524972275561e-01 0.0000000000000000e+00  2.5821397378764206e+00 3.2439902652815694e-01 0.0000000000000000e+00  2.5805310020701997e+00 3.6462613635521901e-01 0.0000000000000000e+00  2.5822987047709920e+00 3.9167981128425106e-01 0.0000000000000000e+00  2.5799461960161341e+00 4.2938809459647814e-01 0.0000000000000000e+00  2.5822580722506174e+00 4.8673724594872347e-01 0.0000000000000000e+00  2.5800495924505409e+00 4.7264297748634215e-01 0.0000000000000000e+00  2.5818339802129113e+00 5.7226538768206225e-01 0.0000000000000000e+00  2.5796639456744108e+00 5.5906879024364353e-01 0.0000000000000000e+00  2.5820859082250904e+00 6.1158233552047536e-01 0.0000000000000000e+00  2.5790406814191820e+00 6.5934443607725002e-01 0.0000000000000000e+00  2.5816855134668795e+00 6.7558818168436385e-01 0.0000000000000000e+00  2.5791891484575578e+00 7.2356013291253340e-01 0.0000000000000000e+00  2.5811189560707861e+00 7.4849016388280765e-01 0.0000000000000000e+00  2.5785349462376943e+00 8.1114455871661351e-01 0.0000000000000000e+00  2.5814356803813618e+00 7.9840390723632693e-01 0.0000000000000000e+00  2.5776013897106158e+00 8.8706156038300155e-01 0.0000000000000000e+00  2.5811409095331945e+00 8.9234678215249197e-01 0.0000000000000000e+00  2.5775360183752944e+00 9.2555235532832847e-01 0.0000000000000000e+00  2.5804428790040026e+00 9.8691448049896724e-01 0.0000000000000000e+00  2.5770617060118295e+00 9.9514451112072078e-01 0.0000000000000000e+00  2.5803246932675932e+00 1.0493372080833265e+00 0.0000000000000000e+00  2.5764321135023849e+00 1.0733981413417280e+00 0.0000000000000000e+00  2.5797321257226478e+00 1.1226295777319650e+00 0.0000000000000000e+00  2.5764094502576453e+00 1.1405614481837845e+00 0.0000000000000000e+00  2.5788594774953459e+00 1.1964981547959375e+00 0.0000000000000000e+00  2.5762250149881600e+00 1.2134049640018605e+00 0.0000000000000000e+00  2.5782247631389237e+00 1.2668838665817479e+00 0.0000000000000000e+00  2.5760110414962556e+00 1.2858663345240995e+00 0.0000000000000000e+00  2.5774253263652742e+00 1.3375976668653586e+00 0.0000000000000000e+00  2.5758650971910586e+00 1.3594371550467343e+00 0.0000000000000000e+00  2.5767329193959481e+00 1.4074404067108717e+00 0.0000000000000000e+00  2.5756244232710008e+00 1.4331897242891758e+00 0.0000000000000000e+00  2.5759120751619777e+00 1.4766669331032365e+00 0.0000000000000000e+00  2.5755412414383496e+00 1.5086739870860013e+00 0.0000000000000000e+00  2.5752827467601396e+00 1.5454034019801242e+00 0.0000000000000000e+00  2.5748476728167264e+00 1.5821913695939398e+00 0.0000000000000000e+00  2.5751105799261511e+00 1.6165313617026746e+00 0.0000000000000000e+00  2.5744066641763741e+00 1.6557893957694325e+00 0.0000000000000000e+00  2.5741589030189189e+00 1.6849080025973817e+00 0.0000000000000000e+00  2.5742370163580084e+00 1.7314944609226854e+00 0.0000000000000000e+00  2.5740850021429300e+00 1.7547159474126262e+00 0.0000000000000000e+00  2.5726631063518544e+00 1.8034703295983492e+00 0.0000000000000000e+00  2.5743923478666502e+00 1.8266541691072273e+00 0.0000000000000000e+00  2.5723400283831968e+00 1.8773324660722257e+00 0.0000000000000000e+00  2.5730901983426691e+00 1.8954263706160042e+00 0.0000000000000000e+00  2.5720343008005315e+00 1.9502153347259137e+00 0.0000000000000000e+00  2.5737922151950783e+00 1.9707095848587848e+00 0.0000000000000000e+00  2.5698874524557929e+00 2.0156709771024901e+00 0.0000000000000000e+00  2.5741847600556960e+00 2.0466619058347413e+00 0.0000000000000000e+00  2.5703052794731844e+00 2.0878760573216426e+00 0.0000000000000000e+00  2.5729172549693251e+00 2.1149338344003312e+00 0.0000000000000000e+00  2.5696247972117758e+00 2.1600722408363833e+00 0.0000000000000000e+00  2.5745663965325902e+00 2.1912617487633144e+00 0.0000000000000000e+00  2.5668582354821958e+00 2.2253872291489278e+00 0.0000000000000000e+00  2.5747108070298501e+00 2.2679367748154311e+00 0.0000000000000000e+00  2.5643489107993469e+00 2.2972257309092536e+00 0.0000000000000000e+00  2.5762490178763460e+00 2.3430933613685965e+00 0.0000000000000000e+00  2.5298965454143962e+00 2.4132330983140120e+00 0.0000000000000000e+00  2.8196862166508971e+00 1.9790728767142023e+00 0.0000000000000000e+00  4.0211142755560134e+00 -3.5690060022159054e-01 0.0000000000000000e+00  5.2241746151994537e+00 -2.2056981440135464e+00 0.0000000000000000e+00  5.8840210284169476e+00 -3.0525117920304408e+00 0.0000000000000000e+00  6.1549210081633614e+00 -3.3718784901671093e+00 0.0000000000000000e+00  6.2686227673257902e+00 -3.4714278564813905e+00 0.0000000000000000e+00  6.3237806984592524e+00 -3.4997359491836404e+00 0.0000000000000000e+00  6.3574811580475776e+00 -3.4988301073353663e+00 0.0000000000000000e+00  6.3804736189652322e+00 -3.4835924064481545e+00 0.0000000000000000e+00  6.3998398503235085e+00 -3.4664535824962535e+00 0.0000000000000000e+00  6.4188816305512360e+00 -3.4432833595803114e+00 0.0000000000000000e+00  6.4360780049497910e+00 -3.4253750138814074e+00 0.0000000000000000e+00  6.4550520190904930e+00 -3.3997400730433056e+00 0.0000000000000000e+00  6.4714447231700962e+00 -3.3823159929885924e+00 0.0000000000000000e+00  6.4908950293116128e+00 -3.3565230819689731e+00 0.0000000000000000e+00  6.5067139024583538e+00 -3.3372738222737186e+00 0.0000000000000000e+00  6.5271222173789827e+00 -3.3130464366054690e+00 0.0000000000000000e+00  6.5417547923639221e+00 -3.2918828231256172e+00 0.0000000000000000e+00  6.5633745355103343e+00 -3.2688193746575727e+00 0.0000000000000000e+00  6.5771785425280846e+00 -3.2462571172287982e+00 0.0000000000000000e+00  6.5993655445554440e+00 -3.2241861196073698e+00 0.0000000000000000e+00  6.6128211715751171e+00 -3.2005469408467961e+00 0.0000000000000000e+00  6.6355933342722260e+00 -3.1797858093014746e+00 0.0000000000000000e+00  6.6482257947916450e+00 -3.1545944272930906e+00 0.0000000000000000e+00  6.6720143980869295e+00 -3.1356838780535092e+00 0.0000000000000000e+00  6.6840334771924566e+00 -3.1096550447038886e+00 0.0000000000000000e+00  6.7078452384203722e+00 -3.0904139988336445e+00 0.0000000000000000e+00  6.7204311456201795e+00 -3.0663876030279198e+00 0.0000000000000000e+00  6.7437891889953701e+00 -3.0450747698443421e+00 0.0000000000000000e+00  6.7563236022986670e+00 -3.0225690881935154e+00 0.0000000000000000e+00  6.7802952120353881e+00 -3.0010034763125715e+00 0.0000000000000000e+00  6.7924595727915404e+00 -2.9789503754584925e+00 0.0000000000000000e+00  6.8159427496738170e+00 -2.9558131718514873e+00 0.0000000000000000e+00  6.8295291598085193e+00 -2.9370037574591028e+00 0.0000000000000000e+00  6.8515719292202908e+00 -2.9107249199029774e+00 0.0000000000000000e+00  6.8657225722185506e+00 -2.8929328574030433e+00 0.0000000000000000e+00  6.8882037261300395e+00 -2.8690596790859746e+00 0.0000000000000000e+00  6.9018802407998932e+00 -2.8465471347451627e+00 0.0000000000000000e+00  6.9237040663482636e+00 -2.8274636103286706e+00 0.0000000000000000e+00  6.9393095302102656e+00 -2.8018849529601515e+00 0.0000000000000000e+00  6.9589522769877439e+00 -2.7843451108532280e+00 0.0000000000000000e+00  6.9755011930192206e+00 -2.7572839536495111e+00 0.0000000000000000e+00  6.9956211644942945e+00 -2.7421129573873868e+00 0.0000000000000000e+00  7.0112658575514555e+00 -2.7124205700125206e+00 0.0000000000000000e+00  7.0309297479875328e+00 -2.6984856241837210e+00 0.0000000000000000e+00  7.0485591193777601e+00 -2.6696664564169486e+00 0.0000000000000000e+00  7.0656608734551591e+00 -2.6534879600418235e+00 0.0000000000000000e+00  7.0843136065493102e+00 -2.6264800820846235e+00 0.0000000000000000e+00  7.1020843085708494e+00 -2.6094331949319125e+00 0.0000000000000000e+00  7.1192165028239254e+00 -2.5829203571684238e+00 0.0000000000000000e+00  7.1369506422267772e+00 -2.5638832522194961e+00 0.0000000000000000e+00  7.1557689738574117e+00 -2.5408915665064447e+00 0.0000000000000000e+00  7.1708627779975966e+00 -2.5175142248259719e+00 0.0000000000000000e+00  7.1905852620323145e+00 -2.4970161440011442e+00 0.0000000000000000e+00  7.2065128364306492e+00 -2.4732580070181318e+00 0.0000000000000000e+00  7.2241550103103345e+00 -2.4509161091032028e+00 0.0000000000000000e+00  7.2404740523500655e+00 -2.4280527364942426e+00 0.0000000000000000e+00  7.2592936767601390e+00 -2.4062226510837683e+00 0.0000000000000000e+00  7.2731031112834446e+00 -2.3811536243187406e+00 0.0000000000000000e+00  7.2926355347278813e+00 -2.3600564407792977e+00 0.0000000000000000e+00  7.3072508716978568e+00 -2.3359678867676243e+00 0.0000000000000000e+00  7.3244108358496982e+00 -2.3107544611956019e+00 0.0000000000000000e+00  7.3396807633881833e+00 -2.2893126826710652e+00 0.0000000000000000e+00  7.3574660039774473e+00 -2.2628094896223696e+00 0.0000000000000000e+00  7.3704447071235668e+00 -2.2397581967177334e+00 0.0000000000000000e+00  7.3888192519473828e+00 -2.2149057271141808e+00 0.0000000000000000e+00  7.4022780306083389e+00 -2.1916082208953300e+00 0.0000000000000000e+00  7.4183722661396070e+00 -2.1644252702602040e+00 0.0000000000000000e+00  7.4325053013830011e+00 -2.1426022243310707e+00 0.0000000000000000e+00  7.4487178721128409e+00 -2.1140394602975192e+00 0.0000000000000000e+00  7.4608765336113310e+00 -2.0898921649167903e+00 0.0000000000000000e+00  7.4775217231495326e+00 -2.0636929304921088e+00 0.0000000000000000e+00  7.4898129854919571e+00 -2.0363990811555879e+00 0.0000000000000000e+00  7.5043489894385260e+00 -2.0109531449082341e+00 0.0000000000000000e+00  7.5173869704898433e+00 -1.9828620509795398e+00 0.0000000000000000e+00  7.5314091351153847e+00 -1.9574211472515199e+00 0.0000000000000000e+00  7.5430119602354173e+00 -1.9279863217175186e+00 0.0000000000000000e+00  7.5571775579964289e+00 -1.9033899966834178e+00 0.0000000000000000e+00  7.5686576853073833e+00 -1.8728256134423429e+00 0.0000000000000000e+00  7.5809671875761824e+00 -1.8475025107582770e+00 0.0000000000000000e+00  7.5931621172030459e+00 -1.8170976964558827e+00 0.0000000000000000e+00  7.6045164410800918e+00 -1.7909698629465376e+00 0.0000000000000000e+00  7.6157573821402700e+00 -1.7593587427618220e+00 0.0000000000000000e+00  7.6270015400761606e+00 -1.7331289927330396e+00 0.0000000000000000e+00  7.6379306566689813e+00 -1.7013257678596088e+00 0.0000000000000000e+00  7.6476413709526492e+00 -1.6728551321646792e+00 0.0000000000000000e+00  7.6591246583803327e+00 -1.6429910354994153e+00 0.0000000000000000e+00  7.6676835569788979e+00 -1.6113760814555746e+00 0.0000000000000000e+00  7.6785804192062486e+00 -1.5842783835023022e+00 0.0000000000000000e+00  7.6868086739841015e+00 -1.5482036950612004e+00 0.0000000000000000e+00  7.6972854637419719e+00 -1.5260758943123611e+00 0.0000000000000000e+00  7.7043341645169203e+00 -1.4838828891166498e+00 0.0000000000000000e+00  7.7151190444765616e+00 -1.4663624394838111e+00 0.0000000000000000e+00  7.7209849777762258e+00 -1.4205865433029925e+00 0.0000000000000000e+00  7.7314975293100652e+00 -1.4028963363442652e+00 0.0000000000000000e+00  7.7368260828419455e+00 -1.3585121792179609e+00 0.0000000000000000e+00  7.7468754112124083e+00 -1.3375223170142527e+00 0.0000000000000000e+00  7.7513942794243658e+00 -1.2957691343034596e+00 0.0000000000000000e+00  7.7614438694812149e+00 -1.2700816282454670e+00 0.0000000000000000e+00  7.7649418383191078e+00 -1.2341650106802182e+00 0.0000000000000000e+00  7.7748225692466582e+00 -1.2009602253473384e+00 0.0000000000000000e+00  7.7777959446148648e+00 -1.1721990325751284e+00 0.0000000000000000e+00  7.7870447478615361e+00 -1.1345421226127534e+00 0.0000000000000000e+00  7.7897060127423394e+00 -1.1072681532804916e+00 0.0000000000000000e+00  7.7984969655710268e+00 -1.0695924507438959e+00 0.0000000000000000e+00  7.8005676308294936e+00 -1.0428522411551677e+00 0.0000000000000000e+00  7.8090078765426849e+00 -1.0047888073516504e+00 0.0000000000000000e+00  7.8108064453510559e+00 -9.7739322413246355e-01 0.0000000000000000e+00  7.8183593702108096e+00 -9.4234912140802063e-01 0.0000000000000000e+00  7.8203190171911432e+00 -9.0785732619722936e-01 0.0000000000000000e+00  7.8270091081444120e+00 -8.8084351235945868e-01 0.0000000000000000e+00  7.8287703633339358e+00 -8.3730874037091418e-01 0.0000000000000000e+00  7.8349385497879744e+00 -8.1548909100883038e-01 0.0000000000000000e+00  7.8365700046509463e+00 -7.6804226352588323e-01 0.0000000000000000e+00  7.8417992325634875e+00 -7.4666422480205152e-01 0.0000000000000000e+00  7.8437225521672440e+00 -7.0324612816620169e-01 0.0000000000000000e+00  7.8479601234317968e+00 -6.8275541435783427e-01 0.0000000000000000e+00  7.8498830732486482e+00 -6.4158170296323802e-01 0.0000000000000000e+00  7.8535104798958475e+00 -6.2059751126428564e-01 0.0000000000000000e+00  7.8554120208870275e+00 -5.7677592231892094e-01 0.0000000000000000e+00  7.8581626325304477e+00 -5.5134254023576623e-01 0.0000000000000000e+00  7.8603620661921596e+00 -5.1002257418372832e-01 0.0000000000000000e+00  7.8621285794064830e+00 -4.8245052452966108e-01 0.0000000000000000e+00  7.8644091950282942e+00 -4.2986397735484300e-01 0.0000000000000000e+00  7.8655706265989140e+00 -4.0261491463165200e-01 0.0000000000000000e+00  7.8676742710936081e+00 -3.5533957581347742e-01 0.0000000000000000e+00  7.8681488653535379e+00 -3.1981375677732199e-01 0.0000000000000000e+00  7.8702679031128824e+00 -2.8363274047749099e-01 0.0000000000000000e+00  7.8700479638630583e+00 -2.3553879000578570e-01 0.0000000000000000e+00  7.8719076130456056e+00 -2.1403176825728157e-01 0.0000000000000000e+00  7.8713305009818395e+00 -1.5827986591559379e-01 0.0000000000000000e+00  7.8729205956916601e+00 -1.4916135864215632e-01 0.0000000000000000e+00  7.8720670832594530e+00 -4.5654884643149547e-02 0.0000000000000000e+00  7.8736294748511222e+00 0.0000000000000000e+00 0.0000000000000000e+00  2.5809935800387902e+00 0.0000000000000000e+00 6.4097556950599242e-03  2.5821652031439717e+00 2.9660826912957388e-02 -8.0767373226059008e-03  2.5805714893398335e+00 6.9503488385937479e-02 -2.8780946993600441e-03  2.5815595376054965e+00 1.1198908135435329e-01 1.9936181979304222e-02  2.5812740984444722e+00 1.3423326853260328e-01 -2.2858356225666919e-02  2.5807062337154738e+00 1.8729917286290390e-01 2.3594752776272456e-02  2.5811665420755876e+00 2.0484401636692159e-01 -2.2458279699851109e-02  2.5812394663630487e+00 2.6364355888169738e-01 1.6487969744614365e-02  2.5802025463102347e+00 2.7504290371543078e-01 -3.5201972897872364e-03  2.5814303670248009e+00 3.2998835375448515e-01 -1.1879578919957050e-02  2.5804081297141441e+00 3.6195044980469321e-01 2.1677684672787235e-02  2.5806763932538836e+00 3.8020669845466964e-01 -2.0715284072351247e-02  2.5806751132881751e+00 4.5425113338868089e-01 1.0198426535145556e-02  2.5805246436497922e+00 4.4393231969257291e-01 3.2160323416760947e-03  2.5805299879046735e+00 5.1440864017867849e-01 -1.2780711044212405e-02  2.5801311797577235e+00 5.4695887582219982e-01 1.5853434684695439e-02  2.5808920762195413e+00 5.5097498833819969e-01 -1.4845300838064504e-02  2.5797091752083077e+00 6.3756620108542517e-01 1.2278390146582437e-02  2.5805884561632406e+00 6.3101715383128587e-01 -1.1258222526245105e-02  2.5801053608089881e+00 6.8672515181976379e-01 1.1473296510936818e-02  2.5801625107930177e+00 7.1843944065466647e-01 -1.1969910769097852e-02  2.5797605106833390e+00 7.6529389674738690e-01 1.2784254704602122e-02  2.5806024429573089e+00 7.7199516417169523e-01 -1.2917149983717050e-02  2.5793052023806098e+00 8.4508889073499960e-01 1.1435098454828114e-02  2.5801943244039602e+00 8.6043572017291325e-01 -7.2414012258352556e-03  2.5799603468066437e+00 8.8802218936110677e-01 1.3558820204451257e-03  2.5794083582056482e+00 9.5162694026951133e-01 2.4620966828182191e-03  2.5798765268716464e+00 9.6316792534598450e-01 -3.1127964811641525e-03  2.5797267134277302e+00 1.0071422297387560e+00 3.0877580096414111e-04  2.5791668491363713e+00 1.0488722923078504e+00 2.9672659783864836e-03  2.5797656573987120e+00 1.0773161471490857e+00 -4.8845820311337511e-03  2.5790621113309493e+00 1.1163093761781369e+00 5.0549803669580696e-03  2.5794705612438751e+00 1.1523714015490563e+00 -5.2842319649426921e-03  2.5786615955760066e+00 1.1901794442640845e+00 6.1500129410400608e-03  2.5795973998682586e+00 1.2210642375402496e+00 -7.7339072671861846e-03  2.5780592956677149e+00 1.2644347121072890e+00 8.8424055754760290e-03  2.5794878009622852e+00 1.2920859245011425e+00 -9.3407229579637908e-03  2.5776806413214906e+00 1.3376193898569080e+00 9.3943122027030871e-03  2.5792533793074672e+00 1.3630894435284742e+00 -9.2082981886732699e-03  2.5772882783806765e+00 1.4099962045871579e+00 8.5992765693439898e-03  2.5787996591648223e+00 1.4353065962288285e+00 -7.6213253511438666e-03  2.5771394842441553e+00 1.4818229503472289e+00 6.3060770057027874e-03  2.5782593339241253e+00 1.5078893104853419e+00 -5.1969601855012147e-03  2.5766479581952857e+00 1.5519646909394178e+00 4.0979270311532964e-03  2.5779640935233936e+00 1.5824363219003157e+00 -3.1910570802852656e-03  2.5763790400656865e+00 1.6221343988080730e+00 2.3438224660683967e-03  2.5769293944273532e+00 1.6543171546586275e+00 -1.7042057054187463e-03  2.5764422737804211e+00 1.6947966807945289e+00 1.2311077223176141e-03  2.5764730247723038e+00 1.7266094020659479e+00 -8.5245402205235484e-04  2.5753520460390145e+00 1.7646087167635451e+00 4.2363931232031475e-04  2.5763278750785270e+00 1.8005610443244411e+00 -1.6823836756892099e-05  2.5753262647228863e+00 1.8363178257578225e+00 -5.2869984399661737e-04  2.5746065898662396e+00 1.8709638784639155e+00 9.8208331615217683e-04  2.5754488440443182e+00 1.9086508636266069e+00 -1.5877820377239922e-03  2.5744814395939875e+00 1.9456268345087284e+00 2.0458587501495226e-03  2.5736908638581455e+00 1.9757459084748130e+00 -2.6670825434257765e-03  2.5740767900314023e+00 2.0205702448001048e+00 2.9747801619808907e-03  2.5740377606646905e+00 2.0493205483339270e+00 -3.4569610817103791e-03  2.5717141252014004e+00 2.0882556582958207e+00 3.1930979075150208e-03  2.5734209023439960e+00 2.1238476785439508e+00 -3.3015364187750831e-03  2.5720225478727614e+00 2.1623736463557686e+00 2.3972722541354199e-03  2.5711139273463690e+00 2.1918198570660365e+00 -2.4099530446992242e-03  2.5711675115068617e+00 2.2350003948531554e+00 1.4594295564274791e-03  2.5720000988083251e+00 2.2670155615428818e+00 -8.4938460544709254e-04  2.5699890991884455e+00 2.3007769755497769e+00 -1.1003054307876546e-04  2.5732328994022238e+00 2.3381447280067311e+00 3.2663359922974755e-03  2.5609943433659987e+00 2.3890365058746963e+00 -4.9913636328603600e-03  2.7963555074379403e+00 1.9867430672337771e+00 -6.9627659878687314e-03  3.9990579158052677e+00 -2.7082227413683130e-01 3.4752245397935068e-02  5.2780144170950809e+00 -2.2463027860566656e+00 -1.4724852654554749e-02  5.8848555983411126e+00 -3.0463675408039390e+00 -7.8192426012395483e-03  6.1448903900374203e+00 -3.3429070774364202e+00 -2.3708621054442983e-04  6.2720439987814673e+00 -3.4486600777284311e+00 6.9388668822997109e-03  6.3306146796121476e+00 -3.4855855755442913e+00 -1.5039929059304255e-03  6.3641783976699351e+00 -3.4757188284556535e+00 4.2089088448164901e-03  6.3852980760897262e+00 -3.4637308058640084e+00 -2.9754692585758943e-03  6.4068956833329507e+00 -3.4385403719075542e+00 3.5610537891049001e-03  6.4235771606202210e+00 -3.4220421529972560e+00 -3.0184000658100814e-03  6.4434096899773303e+00 -3.3948206811584991e+00 3.1449464150280475e-03  6.4597058461336081e+00 -3.3773707829756012e+00 -2.8108146510260256e-03  6.4791901790194881e+00 -3.3512348459