<?xml version="1.0"?>
<VTKFile type="UnstructuredGrid"  version="0.1"  >
<UnstructuredGrid>
<Piece  NumberOfPoints="8241" NumberOfCells="16000">
<Points>
<DataArray  type="Float64"  NumberOfComponents="3"  format="ascii">-5 -1 0  -4.95 -1 0  -4.9 -1 0  -4.85 -1 0  -4.8 -1 0  -4.75 -1 0  -4.7 -1 0  -4.65 -1 0  -4.6 -1 0  -4.55 -1 0  -4.5 -1 0  -4.45 -1 0  -4.4 -1 0  -4.35 -1 0  -4.3 -1 0  -4.25 -1 0  -4.2 -1 0  -4.15 -1 0  -4.1 -1 0  -4.05 -1 0  -4 -1 0  -3.95 -1 0  -3.9 -1 0  -3.85 -1 0  -3.8 -1 0  -3.75 -1 0  -3.7 -1 0  -3.65 -1 0  -3.6 -1 0  -3.55 -1 0  -3.5 -1 0  -3.45 -1 0  -3.4 -1 0  -3.35 -1 0  -3.3 -1 0  -3.25 -1 0  -3.2 -1 0  -3.15 -1 0  -3.1 -1 0  -3.05 -1 0  -3 -1 0  -2.95 -1 0  -2.9 -1 0  -2.85 -1 0  -2.8 -1 0  -2.75 -1 0  -2.7 -1 0  -2.65 -1 0  -2.6 -1 0  -2.55 -1 0  -2.5 -1 0  -2.45 -1 0  -2.4 -1 0  -2.35 -1 0  -2.3 -1 0  -2.25 -1 0  -2.2 -1 0  -2.15 -1 0  -2.1 -1 0  -2.05 -1 0  -2 -1 0  -1.95 -1 0  -1.9 -1 0  -1.85 -1 0  -1.8 -1 0  -1.75 -1 0  -1.7 -1 0  -1.65 -1 0  -1.6 -1 0  -1.55 -1 0  -1.5 -1 0  -1.45 -1 0  -1.4 -1 0  -1.35 -1 0  -1.3 -1 0  -1.25 -1 0  -1.2 -1 0  -1.15 -1 0  -1.1 -1 0  -1.05 -1 0  -1 -1 0  -0.9500000000000002 -1 0  -0.9000000000000004 -1 0  -0.8499999999999996 -1 0  -0.7999999999999998 -1 0  -0.75 -1 0  -0.7000000000000002 -1 0  -0.6500000000000004 -1 0  -0.5999999999999996 -1 0  -0.5499999999999998 -1 0  -0.5 -1 0  -0.4500000000000002 -1 0  -0.4000000000000004 -1 0  -0.3499999999999996 -1 0  -0.2999999999999998 -1 0  -0.25 -1 0  -0.2000000000000002 -1 0  -0.1500000000000004 -1 0  -0.09999999999999964 -1 0  -0.04999999999999982 -1 0  0 -1 0  0.04999999999999982 -1 0  0.09999999999999964 -1 0  0.1500000000000004 -1 0  0.2000000000000002 -1 0  0.25 -1 0  0.2999999999999998 -1 0  0.3499999999999996 -1 0  0.4000000000000004 -1 0  0.4500000000000002 -1 0  0.5 -1 0  0.5499999999999998 -1 0  0.5999999999999996 -1 0  0.6500000000000004 -1 0  0.7000000000000002 -1 0  0.75 -1 0  0.7999999999999998 -1 0  0.8499999999999996 -1 0  0.9000000000000004 -1 0  0.9500000000000002 -1 0  1 -1 0  1.05 -1 0  1.1 -1 0  1.15 -1 0  1.2 -1 0  1.25 -1 0  1.3 -1 0  1.35 -1 0  1.4 -1 0  1.45 -1 0  1.5 -1 0  1.55 -1 0  1.6 -1 0  1.65 -1 0  1.7 -1 0  1.75 -1 0  1.8 -1 0  1.85 -1 0  1.9 -1 0  1.95 -1 0  2 -1 0  2.05 -1 0  2.1 -1 0  2.15 -1 0  2.2 -1 0  2.25 -1 0  2.3 -1 0  2.35 -1 0  2.4 -1 0  2.45 -1 0  2.5 -1 0  2.55 -1 0  2.6 -1 0  2.65 -1 0  2.7 -1 0  2.75 -1 0  2.8 -1 0  2.85 -1 0  2.9 -1 0  2.95 -1 0  3 -1 0  3.050000000000001 -1 0  3.1 -1 0  3.15 -1 0  3.199999999999999 -1 0  3.25 -1 0  3.300000000000001 -1 0  3.35 -1 0  3.4 -1 0  3.449999999999999 -1 0  3.5 -1 0  3.550000000000001 -1 0  3.6 -1 0  3.65 -1 0  3.699999999999999 -1 0  3.75 -1 0  3.800000000000001 -1 0  3.85 -1 0  3.9 -1 0  3.949999999999999 -1 0  4 -1 0  4.050000000000001 -1 0  4.1 -1 0  4.15 -1 0  4.199999999999999 -1 0  4.25 -1 0  4.300000000000001 -1 0  4.35 -1 0  4.4 -1 0  4.449999999999999 -1 0  4.5 -1 0  4.550000000000001 -1 0  4.6 -1 0  4.65 -1 0  4.699999999999999 -1 0  4.75 -1 0  4.800000000000001 -1 0  4.85 -1 0  4.9 -1 0  4.949999999999999 -1 0  5 -1 0  -5 -0.95 0  -4.95 -0.95 0  -4.9 -0.95 0  -4.85 -0.95 0  -4.8 -0.95 0  -4.75 -0.95 0  -4.7 -0.95 0  -4.65 -0.95 0  -4.6 -0.95 0  -4.55 -0.95 0  -4.5 -0.95 0  -4.45 -0.95 0  -4.4 -0.95 0  -4.35 -0.95 0  -4.3 -0.95 0  -4.25 -0.95 0  -4.2 -0.95 0  -4.15 -0.95 0  -4.1 -0.95 0  -4.05 -0.95 0  -4 -0.95 0  -3.95 -0.95 0  -3.9 -0.95 0  -3.85 -0.95 0  -3.8 -0.95 0  -3.75 -0.95 0  -3.7 -0.95 0  -3.65 -0.95 0  -3.6 -0.95 0  -3.55 -0.95 0  -3.5 -0.95 0  -3.45 -0.95 0  -3.4 -0.95 0  -3.35 -0.95 0  -3.3 -0.95 0  -3.25 -0.95 0  -3.2 -0.95 0  -3.15 -0.95 0  -3.1 -0.95 0  -3.05 -0.95 0  -3 -0.95 0  -2.95 -0.95 0  -2.9 -0.95 0  -2.85 -0.95 0  -2.8 -0.95 0  -2.75 -0.95 0  -2.7 -0.95 0  -2.65 -0.95 0  -2.6 -0.95 0  -2.55 -0.95 0  -2.5 -0.95 0  -2.45 -0.95 0  -2.4 -0.95 0  -2.35 -0.95 0  -2.3 -0.95 0  -2.25 -0.95 0  -2.2 -0.95 0  -2.15 -0.95 0  -2.1 -0.95 0  -2.05 -0.95 0  -2 -0.95 0  -1.95 -0.95 0  -1.9 -0.95 0  -1.85 -0.95 0  -1.8 -0.95 0  -1.75 -0.95 0  -1.7 -0.95 0  -1.65 -0.95 0  -1.6 -0.95 0  -1.55 -0.95 0  -1.5 -0.95 0  -1.45 -0.95 0  -1.4 -0.95 0  -1.35 -0.95 0  -1.3 -0.95 0  -1.25 -0.95 0  -1.2 -0.95 0  -1.15 -0.95 0  -1.1 -0.95 0  -1.05 -0.95 0  -1 -0.95 0  -0.9500000000000002 -0.95 0  -0.9000000000000004 -0.95 0  -0.8499999999999996 -0.95 0  -0.7999999999999998 -0.95 0  -0.75 -0.95 0  -0.7000000000000002 -0.95 0  -0.6500000000000004 -0.95 0  -0.5999999999999996 -0.95 0  -0.5499999999999998 -0.95 0  -0.5 -0.95 0  -0.4500000000000002 -0.95 0  -0.4000000000000004 -0.95 0  -0.3499999999999996 -0.95 0  -0.2999999999999998 -0.95 0  -0.25 -0.95 0  -0.2000000000000002 -0.95 0  -0.1500000000000004 -0.95 0  -0.09999999999999964 -0.95 0  -0.04999999999999982 -0.95 0  0 -0.95 0  0.04999999999999982 -0.95 0  0.09999999999999964 -0.95 0  0.1500000000000004 -0.95 0  0.2000000000000002 -0.95 0  0.25 -0.95 0  0.2999999999999998 -0.95 0  0.3499999999999996 -0.95 0  0.4000000000000004 -0.95 0  0.4500000000000002 -0.95 0  0.5 -0.95 0  0.5499999999999998 -0.95 0  0.5999999999999996 -0.95 0  0.6500000000000004 -0.95 0  0.7000000000000002 -0.95 0  0.75 -0.95 0  0.7999999999999998 -0.95 0  0.8499999999999996 -0.95 0  0.9000000000000004 -0.95 0  0.9500000000000002 -0.95 0  1 -0.95 0  1.05 -0.95 0  1.1 -0.95 0  1.15 -0.95 0  1.2 -0.95 0  1.25 -0.95 0  1.3 -0.95 0  1.35 -0.95 0  1.4 -0.95 0  1.45 -0.95 0  1.5 -0.95 0  1.55 -0.95 0  1.6 -0.95 0  1.65 -0.95 0  1.7 -0.95 0  1.75 -0.95 0  1.8 -0.95 0  1.85 -0.95 0  1.9 -0.95 0  1.95 -0.95 0  2 -0.95 0  2.05 -0.95 0  2.1 -0.95 0  2.15 -0.95 0  2.2 -0.95 0  2.25 -0.95 0  2.3 -0.95 0  2.35 -0.95 0  2.4 -0.95 0  2.45 -0.95 0  2.5 -0.95 0  2.55 -0.95 0  2.6 -0.95 0  2.65 -0.95 0  2.7 -0.95 0  2.75 -0.95 0  2.8 -0.95 0  2.85 -0.95 0  2.9 -0.95 0  2.95 -0.95 0  3 -0.95 0  3.050000000000001 -0.95 0  3.1 -0.95 0  3.15 -0.95 0  3.199999999999999 -0.95 0  3.25 -0.95 0  3.300000000000001 -0.95 0  3.35 -0.95 0  3.4 -0.95 0  3.449999999999999 -0.95 0  3.5 -0.95 0  3.550000000000001 -0.95 0  3.6 -0.95 0  3.65 -0.95 0  3.699999999999999 -0.95 0  3.75 -0.95 0  3.800000000000001 -0.95 0  3.85 -0.95 0  3.9 -0.95 0  3.949999999999999 -0.95 0  4 -0.95 0  4.050000000000001 -0.95 0  4.1 -0.95 0  4.15 -0.95 0  4.199999999999999 -0.95 0  4.25 -0.95 0  4.300000000000001 -0.95 0  4.35 -0.95 0  4.4 -0.95 0  4.449999999999999 -0.95 0  4.5 -0.95 0  4.550000000000001 -0.95 0  4.6 -0.95 0  4.65 -0.95 0  4.699999999999999 -0.95 0  4.75 -0.95 0  4.800000000000001 -0.95 0  4.85 -0.95 0  4.9 -0.95 0  4.949999999999999 -0.95 0  5 -0.95 0  -5 -0.9 0  -4.95 -0.9 0  -4.9 -0.9 0  -4.85 -0.9 0  -4.8 -0.9 0  -4.75 -0.9 0  -4.7 -0.9 0  -4.65 -0.9 0  -4.6 -0.9 0  -4.55 -0.9 0  -4.5 -0.9 0  -4.45 -0.9 0  -4.4 -0.9 0  -4.35 -0.9 0  -4.3 -0.9 0  -4.25 -0.9 0  -4.2 -0.9 0  -4.15 -0.9 0  -4.1 -0.9 0  -4.05 -0.9 0  -4 -0.9 0  -3.95 -0.9 0  -3.9 -0.9 0  -3.85 -0.9 0  -3.8 -0.9 0  -3.75 -0.9 0  -3.7 -0.9 0  -3.65 -0.9 0  -3.6 -0.9 0  -3.55 -0.9 0  -3.5 -0.9 0  -3.45 -0.9 0  -3.4 -0.9 0  -3.35 -0.9 0  -3.3 -0.9 0  -3.25 -0.9 0  -3.2 -0.9 0  -3.15 -0.9 0  -3.1 -0.9 0  -3.05 -0.9 0  -3 -0.9 0  -2.95 -0.9 0  -2.9 -0.9 0  -2.85 -0.9 0  -2.8 -0.9 0  -2.75 -0.9 0  -2.7 -0.9 0  -2.65 -0.9 0  -2.6 -0.9 0  -2.55 -0.9 0  -2.5 -0.9 0  -2.45 -0.9 0  -2.4 -0.9 0  -2.35 -0.9 0  -2.3 -0.9 0  -2.25 -0.9 0  -2.2 -0.9 0  -2.15 -0.9 0  -2.1 -0.9 0  -2.05 -0.9 0  -2 -0.9 0  -1.95 -0.9 0  -1.9 -0.9 0  -1.85 -0.9 0  -1.8 -0.9 0  -1.75 -0.9 0  -1.7 -0.9 0  -1.65 -0.9 0  -1.6 -0.9 0  -1.55 -0.9 0  -1.5 -0.9 0  -1.45 -0.9 0  -1.4 -0.9 0  -1.35 -0.9 0  -1.3 -0.9 0  -1.25 -0.9 0  -1.2 -0.9 0  -1.15 -0.9 0  -1.1 -0.9 0  -1.05 -0.9 0  -1 -0.9 0  -0.9500000000000002 -0.9 0  -0.9000000000000004 -0.9 0  -0.8499999999999996 -0.9 0  -0.7999999999999998 -0.9 0  -0.75 -0.9 0  -0.7000000000000002 -0.9 0  -0.6500000000000004 -0.9 0  -0.5999999999999996 -0.9 0  -0.5499999999999998 -0.9 0  -0.5 -0.9 0  -0.4500000000000002 -0.9 0  -0.4000000000000004 -0.9 0  -0.3499999999999996 -0.9 0  -0.2999999999999998 -0.9 0  -0.25 -0.9 0  -0.2000000000000002 -0.9 0  -0.1500000000000004 -0.9 0  -0.09999999999999964 -0.9 0  -0.04999999999999982 -0.9 0  0 -0.9 0  0.04999999999999982 -0.9 0  0.09999999999999964 -0.9 0  0.1500000000000004 -0.9 0  0.2000000000000002 -0.9 0  0.25 -0.9 0  0.2999999999999998 -0.9 0  0.3499999999999996 -0.9 0  0.4000000000000004 -0.9 0  0.4500000000000002 -0.9 0  0.5 -0.9 0  0.5499999999999998 -0.9 0  0.5999999999999996 -0.9 0  0.6500000000000004 -0.9 0  0.7000000000000002 -0.9 0  0.75 -0.9 0  0.7999999999999998 -0.9 0  0.8499999999999996 -0.9 0  0.9000000000000004 -0.9 0  0.9500000000000002 -0.9 0  1 -0.9 0  1.05 -0.9 0  1.1 -0.9 0  1.15 -0.9 0  1.2 -0.9 0  1.25 -0.9 0  1.3 -0.9 0  1.35 -0.9 0  1.4 -0.9 0  1.45 -0.9 0  1.5 -0.9 0  1.55 -0.9 0  1.6 -0.9 0  1.65 -0.9 0  1.7 -0.9 0  1.75 -0.9 0  1.8 -0.9 0  1.85 -0.9 0  1.9 -0.9 0  1.95 -0.9 0  2 -0.9 0  2.05 -0.9 0  2.1 -0.9 0  2.15 -0.9 0  2.2 -0.9 0  2.25 -0.9 0  2.3 -0.9 0  2.35 -0.9 0  2.4 -0.9 0  2.45 -0.9 0  2.5 -0.9 0  2.55 -0.9 0  2.6 -0.9 0  2.65 -0.9 0  2.7 -0.9 0  2.75 -0.9 0  2.8 -0.9 0  2.85 -0.9 0  2.9 -0.9 0  2.95 -0.9 0  3 -0.9 0  3.050000000000001 -0.9 0  3.1 -0.9 0  3.15 -0.9 0  3.199999999999999 -0.9 0  3.25 -0.9 0  3.300000000000001 -0.9 0  3.35 -0.9 0  3.4 -0.9 0  3.449999999999999 -0.9 0  3.5 -0.9 0  3.550000000000001 -0.9 0  3.6 -0.9 0  3.65 -0.9 0  3.699999999999999 -0.9 0  3.75 -0.9 0  3.800000000000001 -0.9 0  3.85 -0.9 0  3.9 -0.9 0  3.949999999999999 -0.9 0  4 -0.9 0  4.050000000000001 -0.9 0  4.1 -0.9 0  4.15 -0.9 0  4.199999999999999 -0.9 0  4.25 -0.9 0  4.300000000000001 -0.9 0  4.35 -0.9 0  4.4 -0.9 0  4.449999999999999 -0.9 0  4.5 -0.9 0  4.550000000000001 -0.9 0  4.6 -0.9 0  4.65 -0.9 0  4.699999999999999 -0.9 0  4.75 -0.9 0  4.800000000000001 -0.9 0  4.85 -0.9 0  4.9 -0.9 0  4.949999999999999 -0.9 0  5 -0.9 0  -5 -0.85 0  -4.95 -0.85 0  -4.9 -0.85 0  -4.85 -0.85 0  -4.8 -0.85 0  -4.75 -0.85 0  -4.7 -0.85 0  -4.65 -0.85 0  -4.6 -0.85 0  -4.55 -0.85 0  -4.5 -0.85 0  -
[...]
<PointData  Vectors="f_15"> 
<DataArray  type="Float64"  Name="f_15"  NumberOfComponents="3" format="ascii">2.4799391014432350e+00 0.0000000000000000e+00 0.0000000000000000e+00  2.4854350683496875e+00 4.6563816685742242e-02 0.0000000000000000e+00  2.4811186858692582e+00 8.0326464444142778e-02 0.0000000000000000e+00  2.4846294807836378e+00 9.5267567187923952e-02 0.0000000000000000e+00  2.4812126016621119e+00 1.4442750690072301e-01 0.0000000000000000e+00  2.4855565074476891e+00 1.7276142111042669e-01 0.0000000000000000e+00  2.4805171379543425e+00 2.0303351678669901e-01 0.0000000000000000e+00  2.4855708367991829e+00 2.5291333387235326e-01 0.0000000000000000e+00  2.4814016481010013e+00 2.6699551517174286e-01 0.0000000000000000e+00  2.4847186470607787e+00 3.1495078892139733e-01 0.0000000000000000e+00  2.4815788079735834e+00 3.5610459497160946e-01 0.0000000000000000e+00  2.4852693350331516e+00 3.6681856228487753e-01 0.0000000000000000e+00  2.4807951154296912e+00 4.2254458952814483e-01 0.0000000000000000e+00  2.4853546721212627e+00 4.6692972609426847e-01 0.0000000000000000e+00  2.4811382746437656e+00 4.4964713251825478e-01 0.0000000000000000e+00  2.4848778596616063e+00 5.6039697909700881e-01 0.0000000000000000e+00  2.4808811947071034e+00 5.3103550798551724e-01 0.0000000000000000e+00  2.4852052361721997e+00 5.9334503189297505e-01 0.0000000000000000e+00  2.4806009028957483e+00 6.3420614002352038e-01 0.0000000000000000e+00  2.4844064914205251e+00 6.5199935503982065e-01 0.0000000000000000e+00  2.4815244998778678e+00 6.9688560658350085e-01 0.0000000000000000e+00  2.4832862766766173e+00 7.2279379511708353e-01 0.0000000000000000e+00  2.4816472884207283e+00 7.8003370462097033e-01 0.0000000000000000e+00  2.4829401719054882e+00 7.7346896533562592e-01 0.0000000000000000e+00  2.4817414270692280e+00 8.5176779508964062e-01 0.0000000000000000e+00  2.4818397261529332e+00 8.6038340548428438e-01 0.0000000000000000e+00  2.4824665087520317e+00 8.9774433230539374e-01 0.0000000000000000e+00  2.4806447474835340e+00 9.4221094400072025e-01 0.0000000000000000e+00  2.4828116771293107e+00 9.6970304638429272e-01 0.0000000000000000e+00  2.4795877238846979e+00 1.0033355815133103e+00 0.0000000000000000e+00  2.4831710402918898e+00 1.0426719480251583e+00 0.0000000000000000e+00  2.4787116759558900e+00 1.0744195209697442e+00 0.0000000000000000e+00  2.4828749029504413e+00 1.1084689142603614e+00 0.0000000000000000e+00  2.4782437166640325e+00 1.1450488267717489e+00 0.0000000000000000e+00  2.4829892745586668e+00 1.1782399961138716e+00 0.0000000000000000e+00  2.4768268594900609e+00 1.2130616569015142e+00 0.0000000000000000e+00  2.4831975234016581e+00 1.2475821517748840e+00 0.0000000000000000e+00  2.4768279202387764e+00 1.2842191792291797e+00 0.0000000000000000e+00  2.4814904487809848e+00 1.3126787759557601e+00 0.0000000000000000e+00  2.4771958011115123e+00 1.3561734627010638e+00 0.0000000000000000e+00  2.4815202794119320e+00 1.3831048937614239e+00 0.0000000000000000e+00  2.4755770455941599e+00 1.4204424704715561e+00 0.0000000000000000e+00  2.4812782428578721e+00 1.4561769845101791e+00 0.0000000000000000e+00  2.4766633903670616e+00 1.4898911569857216e+00 0.0000000000000000e+00  2.4786550881690799e+00 1.5226882633078249e+00 0.0000000000000000e+00  2.4772774041415859e+00 1.5596315522000783e+00 0.0000000000000000e+00  2.4789881923807950e+00 1.5948116007486419e+00 0.0000000000000000e+00  2.4760464923738961e+00 1.6248710390347034e+00 0.0000000000000000e+00  2.4781944940670546e+00 1.6643824506411513e+00 0.0000000000000000e+00  2.4780668702305069e+00 1.6960500848840403e+00 0.0000000000000000e+00  2.4762134233605546e+00 1.7312792687457952e+00 0.0000000000000000e+00  2.4784063429644254e+00 1.7635647706194653e+00 0.0000000000000000e+00  2.4772044601602428e+00 1.8032718882163503e+00 0.0000000000000000e+00  2.4775367322671595e+00 1.8307388827567987e+00 0.0000000000000000e+00  2.4766948219387181e+00 1.8728082485124988e+00 0.0000000000000000e+00  2.4759293818108521e+00 1.8998736994404526e+00 0.0000000000000000e+00  2.4776959255031521e+00 1.9502441349841069e+00 0.0000000000000000e+00  2.4541151917373800e+00 1.9863867601467255e+00 0.0000000000000000e+00  2.6243731766551912e+00 1.7638254644893878e+00 0.0000000000000000e+00  3.5786205621329508e+00 -1.4711644205746635e-01 0.0000000000000000e+00  4.7508483960032857e+00 -2.1018566452688203e+00 0.0000000000000000e+00  5.5003289671887563e+00 -3.1332081375792562e+00 0.0000000000000000e+00  5.8533577029841144e+00 -3.5616080502859888e+00 0.0000000000000000e+00  6.0019277437480234e+00 -3.7224432616119292e+00 0.0000000000000000e+00  6.0780063559211763e+00 -3.7706034739847794e+00 0.0000000000000000e+00  6.1153805724483847e+00 -3.7841262406921503e+00 0.0000000000000000e+00  6.1434703389172780e+00 -3.7720743653552149e+00 0.0000000000000000e+00  6.1625981854637226e+00 -3.7576998632915588e+00 0.0000000000000000e+00  6.1823902008343321e+00 -3.7365742224343994e+00 0.0000000000000000e+00  6.1980978514686527e+00 -3.7178268641659722e+00 0.0000000000000000e+00  6.2164785005226486e+00 -3.6958572846481590e+00 0.0000000000000000e+00  6.2327685216661477e+00 -3.6763468056983037e+00 0.0000000000000000e+00  6.2501511829593541e+00 -3.6545220317046936e+00 0.0000000000000000e+00  6.2668009543804519e+00 -3.6337455618703944e+00 0.0000000000000000e+00  6.2840966272198564e+00 -3.6138074598713623e+00 0.0000000000000000e+00  6.3007456076458404e+00 -3.5911772303587988e+00 0.0000000000000000e+00  6.3177166636499251e+00 -3.5718303161294793e+00 0.0000000000000000e+00  6.3353163737699489e+00 -3.5485162395936158e+00 0.0000000000000000e+00  6.3513408302999030e+00 -3.5295591391641392e+00 0.0000000000000000e+00  6.3692583737112534e+00 -3.5052625499155892e+00 0.0000000000000000e+00  6.3856626960465555e+00 -3.4862241831772951e+00 0.0000000000000000e+00  6.4032566233882049e+00 -3.4626386671521101e+00 0.0000000000000000e+00  6.4194308150292638e+00 -3.4414984899505439e+00 0.0000000000000000e+00  6.4378168284978994e+00 -3.4198795346614501e+00 0.0000000000000000e+00  6.4533188586089647e+00 -3.3972707290515274e+00 0.0000000000000000e+00  6.4717483243291500e+00 -3.3762623734401656e+00 0.0000000000000000e+00  6.4878190899981254e+00 -3.3532251387607821e+00 0.0000000000000000e+00  6.5057515245640740e+00 -3.3333402343596577e+00 0.0000000000000000e+00  6.5217385599411593e+00 -3.3087027901984269e+00 0.0000000000000000e+00  6.5402600339669439e+00 -3.2906955392625434e+00 0.0000000000000000e+00  6.5557596728567384e+00 -3.2652457656932072e+00 0.0000000000000000e+00  6.5742070092456188e+00 -3.2468545255400842e+00 0.0000000000000000e+00  6.5902037346932607e+00 -3.2232676339704835e+00 0.0000000000000000e+00  6.6082477997343565e+00 -3.2025769931538783e+00 0.0000000000000000e+00  6.6241065129104353e+00 -3.1812359380087272e+00 0.0000000000000000e+00  6.6426184592262443e+00 -3.1589122616739433e+00 0.0000000000000000e+00  6.6580768838290387e+00 -3.1390890234850413e+00 0.0000000000000000e+00  6.6764778146772059e+00 -3.1146971058075983e+00 0.0000000000000000e+00  6.6922764024746364e+00 -3.0979574198420678e+00 0.0000000000000000e+00  6.7103194670026447e+00 -3.0696993991373671e+00 0.0000000000000000e+00  6.7260573203462224e+00 -3.0563802145908259e+00 0.0000000000000000e+00  6.7442017780330001e+00 -3.0261045428690165e+00 0.0000000000000000e+00  6.7598104165419244e+00 -3.0125278127374009e+00 0.0000000000000000e+00  6.7776428918550975e+00 -2.9841615536755794e+00 0.0000000000000000e+00  6.7935414781944541e+00 -2.9675621659621254e+00 0.0000000000000000e+00  6.8108597775157351e+00 -2.9419379406056958e+00 0.0000000000000000e+00  6.8269763300260795e+00 -2.9229306422199119e+00 0.0000000000000000e+00  6.8438187033253026e+00 -2.8988952109146213e+00 0.0000000000000000e+00  6.8601232360521553e+00 -2.8781412947311993e+00 0.0000000000000000e+00  6.8764786385561498e+00 -2.8557400741480796e+00 0.0000000000000000e+00  6.8929065904489368e+00 -2.8327891272713708e+00 0.0000000000000000e+00  6.9086448464562151e+00 -2.8120552020071177e+00 0.0000000000000000e+00  6.9254909326243093e+00 -2.7875111733058020e+00 0.0000000000000000e+00  6.9402582681024709e+00 -2.7673217026668842e+00 0.0000000000000000e+00  6.9574228798535893e+00 -2.7421536788911114e+00 0.0000000000000000e+00  6.9717293070780268e+00 -2.7216332353522330e+00 0.0000000000000000e+00  6.9886359832231424e+00 -2.6968412575184870e+00 0.0000000000000000e+00  7.0023732643953629e+00 -2.6743689128180850e+00 0.0000000000000000e+00  7.0197532266668761e+00 -2.6515705941515151e+00 0.0000000000000000e+00  7.0321574308701145e+00 -2.6261622839165413e+00 0.0000000000000000e+00  7.0498300459203538e+00 -2.6049200217940749e+00 0.0000000000000000e+00  7.0619478303046135e+00 -2.5779183886487176e+00 0.0000000000000000e+00  7.0788497978378082e+00 -2.5571568571434553e+00 0.0000000000000000e+00  7.0905614136649557e+00 -2.5285179135306639e+00 0.0000000000000000e+00  7.1079073075945569e+00 -2.5088253344528786e+00 0.0000000000000000e+00  7.1180169029759677e+00 -2.4781875544655274e+00 0.0000000000000000e+00  7.1355563149802883e+00 -2.4579289012917598e+00 0.0000000000000000e+00  7.1456806715251222e+00 -2.4282384175188128e+00 0.0000000000000000e+00  7.1618113296732604e+00 -2.4053052629909244e+00 0.0000000000000000e+00  7.1718774178869005e+00 -2.3765175113389412e+00 0.0000000000000000e+00  7.1882827834890888e+00 -2.3541728061452121e+00 0.0000000000000000e+00  7.1966456527194547e+00 -2.3227240694763562e+00 0.0000000000000000e+00  7.2130416843697107e+00 -2.3015955446180323e+00 0.0000000000000000e+00  7.2218755360964222e+00 -2.2696954447242912e+00 0.0000000000000000e+00  7.2361301376129985e+00 -2.2456527281952705e+00 0.0000000000000000e+00  7.2454030952885127e+00 -2.2152619673934275e+00 0.0000000000000000e+00  7.2597058642077101e+00 -2.1897791725147968e+00 0.0000000000000000e+00  7.2672393117347474e+00 -2.1585450460277436e+00 0.0000000000000000e+00  7.2814282393099079e+00 -2.1325027311109657e+00 0.0000000000000000e+00  7.2897438012906646e+00 -2.1023846074152472e+00 0.0000000000000000e+00  7.3013134200435861e+00 -2.0734019375946189e+00 0.0000000000000000e+00  7.3104308646975333e+00 -2.0445475537094153e+00 0.0000000000000000e+00  7.3218717344549633e+00 -2.0159055396791974e+00 0.0000000000000000e+00  7.3293202123874508e+00 -1.9841749660147900e+00 0.0000000000000000e+00  7.3405321777305614e+00 -1.9572925070037104e+00 0.0000000000000000e+00  7.3490009018864342e+00 -1.9246233759699822e+00 0.0000000000000000e+00  7.3573394977491642e+00 -1.8964101980921453e+00 0.0000000000000000e+00  7.3668398686390715e+00 -1.8633888784026411e+00 0.0000000000000000e+00  7.3749485104008983e+00 -1.8363198510766803e+00 0.0000000000000000e+00  7.3828279711016744e+00 -1.7997364428394935e+00 0.0000000000000000e+00  7.3908124581900223e+00 -1.7743605783534404e+00 0.0000000000000000e+00  7.3995543322646409e+00 -1.7377497939376472e+00 0.0000000000000000e+00  7.4049117302951597e+00 -1.7094341615290518e+00 0.0000000000000000e+00  7.4145741285108375e+00 -1.6751958931798661e+00 0.0000000000000000e+00  7.4197720536018350e+00 -1.6455865615684042e+00 0.0000000000000000e+00  7.4277926943658183e+00 -1.6108872206900957e+00 0.0000000000000000e+00  7.4331454479800128e+00 -1.5802619431335552e+00 0.0000000000000000e+00  7.4416130763349120e+00 -1.5490642667912367e+00 0.0000000000000000e+00  7.4448586568834081e+00 -1.5115578076063763e+00 0.0000000000000000e+00  7.4540264916723693e+00 -1.4867098455917938e+00 0.0000000000000000e+00  7.4571423581399587e+00 -1.4441626219184751e+00 0.0000000000000000e+00  7.4648047205047350e+00 -1.4208518317283623e+00 0.0000000000000000e+00  7.4682231774060419e+00 -1.3781101037877483e+00 0.0000000000000000e+00  7.4760048317498873e+00 -1.3533366163847820e+00 0.0000000000000000e+00  7.4777884646520016e+00 -1.3115890654085955e+00 0.0000000000000000e+00  7.4861459561258785e+00 -1.2849010168809645e+00 0.0000000000000000e+00  7.4876678621807056e+00 -1.2467617720281892e+00 0.0000000000000000e+00  7.4948474450035532e+00 -1.2146051694022144e+00 0.0000000000000000e+00  7.4966826133463789e+00 -1.1834948726140007e+00 0.0000000000000000e+00  7.5036842084348390e+00 -1.1454477708599491e+00 0.0000000000000000e+00  7.5044203385419834e+00 -1.1172451704148250e+00 0.0000000000000000e+00  7.5117515157261572e+00 -1.0801707781877599e+00 0.0000000000000000e+00  7.5122118781998148e+00 -1.0500480220355426e+00 0.0000000000000000e+00  7.5186025120965692e+00 -1.0145151205768914e+00 0.0000000000000000e+00  7.5194103076796406e+00 -9.8314501428530010e-01 0.0000000000000000e+00  7.5253250266948761e+00 -9.4929262426031313e-01 0.0000000000000000e+00  7.5255510856446906e+00 -9.1251218698804082e-01 0.0000000000000000e+00  7.5315318883074855e+00 -8.8613188636446893e-01 0.0000000000000000e+00  7.5314157573848233e+00 -8.3925498396262732e-01 0.0000000000000000e+00  7.5368315296912760e+00 -8.2008779697627832e-01 0.0000000000000000e+00  7.5367906057900642e+00 -7.6863578292797852e-01 0.0000000000000000e+00  7.5417701640898178e+00 -7.5227141010122589e-01 0.0000000000000000e+00  7.5413241704721949e+00 -7.0454698629577239e-01 0.0000000000000000e+00  7.5463345587761435e+00 -6.8835003694868890e-01 0.0000000000000000e+00  7.5453447236565756e+00 -6.4214208607205181e-01 0.0000000000000000e+00  7.5502830049465857e+00 -6.2305532721910917e-01 0.0000000000000000e+00  7.5490540033221176e+00 -5.7545779998311808e-01 0.0000000000000000e+00  7.5536620430852279e+00 -5.5235840087717403e-01 0.0000000000000000e+00  7.5522305642690908e+00 -5.0750671675645742e-01 0.0000000000000000e+00  7.5567183714976505e+00 -4.8033384885750874e-01 0.0000000000000000e+00  7.5547031793605681e+00 -4.2494780435527874e-01 0.0000000000000000e+00  7.5593661402142915e+00 -4.0045839213257250e-01 0.0000000000000000e+00  7.5568125479482005e+00 -3.5210428485557110e-01 0.0000000000000000e+00  7.5611575968497666e+00 -3.1698642267125099e-01 0.0000000000000000e+00  7.5585500549551430e+00 -2.7977979159068234e-01 0.0000000000000000e+00  7.5626628150747583e+00 -2.3374816999453904e-01 0.0000000000000000e+00  7.5593100616120248e+00 -2.1046501213194724e-01 0.0000000000000000e+00  7.5637957976232189e+00 -1.5660958674798453e-01 0.0000000000000000e+00  7.5599968475132888e+00 -1.4536065615946339e-01 0.0000000000000000e+00  7.5641717537301698e+00 -4.4064620423637083e-02 0.0000000000000000e+00  7.5607399458466116e+00 0.0000000000000000e+00 0.0000000000000000e+00  2.4833739327103079e+00 0.0000000000000000e+00 1.5676693249322127e-03  2.4843992722421535e+00 2.7459986826690489e-02 -6.4430069200857830e-03  2.4827676300702000e+00 6.8699513034135837e-02 -4.2080669811915801e-03  2.4837621704615440e+00 1.0953949020299528e-01 2.2781862645884405e-02  2.4836141956938986e+00 1.2927766829715667e-01 -2.5138576806539227e-02  2.4827260393954949e+00 1.8156385429625274e-01 2.4570290137979772e-02  2.4833569185416509e+00 1.9781265753464963e-01 -1.9885096369356085e-02  2.4835175429464633e+00 2.5400036608732768e-01 7.5898598045140509e-03  2.4820677583523612e+00 2.6749594630072665e-01 1.1397757503862838e-02  2.4837014357142060e+00 3.1519623942950531e-01 -2.8319010348506226e-02  2.4824155749152159e+00 3.5282746572434720e-01 3.3862828977296817e-02  2.4827107958181696e+00 3.6270110966122893e-01 -2.5192279583987100e-02  2.4826828718175431e+00 4.4244071801600954e-01 8.1481881251281654e-03  2.4826264789215990e+00 4.2264145174420853e-01 7.6326520816504132e-03  2.4823947890149487e+00 5.0030234590728218e-01 -1.6126236752651183e-02  2.4821008404870679e+00 5.2568365605939893e-01 1.7641335670094592e-02  2.4828931665897911e+00 5.2891955779692990e-01 -1.5969862458283829e-02  2.4815159715017243e+00 6.1816721596585300e-01 1.3810382940930685e-02  2.4824449493579381e+00 6.0443491876153987e-01 -1.2842174791569742e-02  2.4820534883634471e+00 6.6312895224740442e-01 1.1995737622575109e-02  2.4818281790903707e+00 6.9191147603524661e-01 -1.0965321261330981e-02  2.4816765480124059e+00 7.3596420842209609e-01 1.0508718358610732e-02  2.4821900334794464e+00 7.4587162327806000e-01 -9.4229126795702944e-03  2.4812857595438076e+00 8.1023367659766010e-01 6.9118036780634025e-03  2.4816288937924318e+00 8.3147169134353860e-01 -1.7594676637376280e-03  2.4818512745255292e+00 8.5468201796315557e-01 -3.9934643819864559e-03  2.4809712755982773e+00 9.1479050763893466e-01 7.1901692662922640e-03  2.4817306507156882e+00 9.2837135668340098e-01 -7.2243472782978994e-03  2.4809850537908211e+00 9.7151308036592188e-01 4.5237784151119379e-03  2.4814055360507736e+00 1.0059865981358040e+00 -2.0688571655860933e-03  2.4809974440939295e+00 1.0414916247857489e+00 8.3109103246185357e-04  2.4808782528955389e+00 1.0718461395722036e+00 -4.1385035963076500e-04  2.4811824740520811e+00 1.1121037269343741e+00 -4.8747594409627643e-04  2.4806917256315439e+00 1.1438152496478549e+00 1.8920523839200286e-03  2.4805704426690842e+00 1.1780549153472344e+00 -3.5350123324343116e-03  2.4807500938865994e+00 1.2158206437515080e+00 4.7385008713260283e-03  2.4808959250073497e+00 1.2469435537076021e+00 -5.8109110979783409e-03  2.4793583955288856e+00 1.2845861554064508e+00 6.6181567402435922e-03  2.4814007197721999e+00 1.3167163012719114e+00 -6.9605595865628615e-03  2.4796416666495311e+00 1.3562597383087713e+00 6.7799390363165778e-03  2.4798137516131784e+00 1.3819820516390124e+00 -6.4079720989126737e-03  2.4799925018068887e+00 1.4286619578199680e+00 6.1082380632714161e-03  2.4804420869729964e+00 1.4526915460609280e+00 -6.0211666140788690e-03  2.4780636649131846e+00 1.4941080983383059e+00 5.6634221319763140e-03  2.4806101971032697e+00 1.5245909582270498e+00 -5.4015352163446755e-03  2.4788917142058025e+00 1.5650489925262867e+00 5.0298242087923320e-03  2.4785109814965187e+00 1.5910460439681642e+00 -5.1289647181653264e-03  2.4786314290449418e+00 1.6351621364436799e+00 4.9191805826924581e-03  2.4793087999292331e+00 1.6634248473429118e+00 -4.9794392243917565e-03  2.4764836894022664e+00 1.7017332314783804e+00 4.1632306013078520e-03  2.4783702686743831e+00 1.7334289479299110e+00 -4.2184976706810731e-03  2.4770177839201279e+00 1.7735208625673557e+00 3.1652317366223340e-03  2.4763564768612496e+00 1.8021292599881680e+00 -3.3720395012132049e-03  2.4757413345897099e+00 1.8410581684687743e+00 1.8855989285922255e-03  2.4768508860610106e+00 1.8750963559044900e+00 -1.1930574900967594e-03  2.4749704376674520e+00 1.9071301017143756e+00 -2.4437598508084425e-05  2.4773754336132545e+00 1.9437981677405296e+00 2.1231435703575195e-03  2.4717578281254537e+00 1.9777103677447465e+00 -1.8419940352086038e-03  2.6234758429001341e+00 1.7418097870280904e+00 -9.0914257210837884e-03  3.5430047030508733e+00 -5.6229137930357019e-02 2.8454641432773490e-02  4.7953010147647328e+00 -2.1262278685519278e+00 -1.0487998939601557e-04  5.5127718228226099e+00 -3.1372378181531992e+00 -1.5190963436250799e-02  5.8438928943213098e+00 -3.5358254825882485e+00 3.1514775731652867e-03  6.0018747607329130e+00 -3.7022443808064724e+00 -6.7553758378192019e-04  6.0821847605701782e+00 -3.7549783599648414e+00 6.0254568486493611e-03  6.1202267273896549e+00 -3.7686892606314046e+00 -3.0458725978443671e-03  6.1486329300541946e+00 -3.7525273287158747e+00 4.2348268823451801e-03  6.1667103240022296e+00 -3.7409666864693807e+00 -3.6139877181922803e-03  6.1865738451894510e+00 -3.7157639800972890e+00 3.8928227120770941e-03  6.2022843935025724e+00 -3.6999012190572262e+00 -3.6122886357753386e-03  6.2216092347436236e+00 -3.6733784838056072e+00 3.6566380928348451e-03  6.2364167595876205e+00 -3.6564928400403032e+00 -3.2334023598663934e-03  6.2553951052973105e+00 -3.6299528252957334e+00 3.2001135998736283e-03  6.2708711102575521e+00 -3.6132591108871583e+00 -2.7087525783161693e-03  6.2892367952205390e+00 -3.5868079158102422e+00 2.6349308770847817e-03  6.3050363184604334e+00 -3.5692169837629906e+00 -2.2833168310525259e-03  6.3236332994525313e+00 -3.5443980796891048e+00 2.1071704400900306e-03  6.3391161895531427e+00 -3.5260837503123486e+00 -1.9687254711996949e-03  6.3575536203192868e+00 -3.5018369166632977e+00 1.7069565413152011e-03  6.3738794625861601e+00 -3.4834608005287553e+00 -1.8499129465750638e-03  6.3915904296582911