<?xml version="1.0"?>
<VTKFile type="UnstructuredGrid"  version="0.1"  >
<UnstructuredGrid>
<Piece  NumberOfPoints="8241" NumberOfCells="16000">
<Points>
<DataArray  type="Float64"  NumberOfComponents="3"  format="ascii">-5 -1 0  -4.95 -1 0  -4.9 -1 0  -4.85 -1 0  -4.8 -1 0  -4.75 -1 0  -4.7 -1 0  -4.65 -1 0  -4.6 -1 0  -4.55 -1 0  -4.5 -1 0  -4.45 -1 0  -4.4 -1 0  -4.35 -1 0  -4.3 -1 0  -4.25 -1 0  -4.2 -1 0  -4.15 -1 0  -4.1 -1 0  -4.05 -1 0  -4 -1 0  -3.95 -1 0  -3.9 -1 0  -3.85 -1 0  -3.8 -1 0  -3.75 -1 0  -3.7 -1 0  -3.65 -1 0  -3.6 -1 0  -3.55 -1 0  -3.5 -1 0  -3.45 -1 0  -3.4 -1 0  -3.35 -1 0  -3.3 -1 0  -3.25 -1 0  -3.2 -1 0  -3.15 -1 0  -3.1 -1 0  -3.05 -1 0  -3 -1 0  -2.95 -1 0  -2.9 -1 0  -2.85 -1 0  -2.8 -1 0  -2.75 -1 0  -2.7 -1 0  -2.65 -1 0  -2.6 -1 0  -2.55 -1 0  -2.5 -1 0  -2.45 -1 0  -2.4 -1 0  -2.35 -1 0  -2.3 -1 0  -2.25 -1 0  -2.2 -1 0  -2.15 -1 0  -2.1 -1 0  -2.05 -1 0  -2 -1 0  -1.95 -1 0  -1.9 -1 0  -1.85 -1 0  -1.8 -1 0  -1.75 -1 0  -1.7 -1 0  -1.65 -1 0  -1.6 -1 0  -1.55 -1 0  -1.5 -1 0  -1.45 -1 0  -1.4 -1 0  -1.35 -1 0  -1.3 -1 0  -1.25 -1 0  -1.2 -1 0  -1.15 -1 0  -1.1 -1 0  -1.05 -1 0  -1 -1 0  -0.9500000000000002 -1 0  -0.9000000000000004 -1 0  -0.8499999999999996 -1 0  -0.7999999999999998 -1 0  -0.75 -1 0  -0.7000000000000002 -1 0  -0.6500000000000004 -1 0  -0.5999999999999996 -1 0  -0.5499999999999998 -1 0  -0.5 -1 0  -0.4500000000000002 -1 0  -0.4000000000000004 -1 0  -0.3499999999999996 -1 0  -0.2999999999999998 -1 0  -0.25 -1 0  -0.2000000000000002 -1 0  -0.1500000000000004 -1 0  -0.09999999999999964 -1 0  -0.04999999999999982 -1 0  0 -1 0  0.04999999999999982 -1 0  0.09999999999999964 -1 0  0.1500000000000004 -1 0  0.2000000000000002 -1 0  0.25 -1 0  0.2999999999999998 -1 0  0.3499999999999996 -1 0  0.4000000000000004 -1 0  0.4500000000000002 -1 0  0.5 -1 0  0.5499999999999998 -1 0  0.5999999999999996 -1 0  0.6500000000000004 -1 0  0.7000000000000002 -1 0  0.75 -1 0  0.7999999999999998 -1 0  0.8499999999999996 -1 0  0.9000000000000004 -1 0  0.9500000000000002 -1 0  1 -1 0  1.05 -1 0  1.1 -1 0  1.15 -1 0  1.2 -1 0  1.25 -1 0  1.3 -1 0  1.35 -1 0  1.4 -1 0  1.45 -1 0  1.5 -1 0  1.55 -1 0  1.6 -1 0  1.65 -1 0  1.7 -1 0  1.75 -1 0  1.8 -1 0  1.85 -1 0  1.9 -1 0  1.95 -1 0  2 -1 0  2.05 -1 0  2.1 -1 0  2.15 -1 0  2.2 -1 0  2.25 -1 0  2.3 -1 0  2.35 -1 0  2.4 -1 0  2.45 -1 0  2.5 -1 0  2.55 -1 0  2.6 -1 0  2.65 -1 0  2.7 -1 0  2.75 -1 0  2.8 -1 0  2.85 -1 0  2.9 -1 0  2.95 -1 0  3 -1 0  3.050000000000001 -1 0  3.1 -1 0  3.15 -1 0  3.199999999999999 -1 0  3.25 -1 0  3.300000000000001 -1 0  3.35 -1 0  3.4 -1 0  3.449999999999999 -1 0  3.5 -1 0  3.550000000000001 -1 0  3.6 -1 0  3.65 -1 0  3.699999999999999 -1 0  3.75 -1 0  3.800000000000001 -1 0  3.85 -1 0  3.9 -1 0  3.949999999999999 -1 0  4 -1 0  4.050000000000001 -1 0  4.1 -1 0  4.15 -1 0  4.199999999999999 -1 0  4.25 -1 0  4.300000000000001 -1 0  4.35 -1 0  4.4 -1 0  4.449999999999999 -1 0  4.5 -1 0  4.550000000000001 -1 0  4.6 -1 0  4.65 -1 0  4.699999999999999 -1 0  4.75 -1 0  4.800000000000001 -1 0  4.85 -1 0  4.9 -1 0  4.949999999999999 -1 0  5 -1 0  -5 -0.95 0  -4.95 -0.95 0  -4.9 -0.95 0  -4.85 -0.95 0  -4.8 -0.95 0  -4.75 -0.95 0  -4.7 -0.95 0  -4.65 -0.95 0  -4.6 -0.95 0  -4.55 -0.95 0  -4.5 -0.95 0  -4.45 -0.95 0  -4.4 -0.95 0  -4.35 -0.95 0  -4.3 -0.95 0  -4.25 -0.95 0  -4.2 -0.95 0  -4.15 -0.95 0  -4.1 -0.95 0  -4.05 -0.95 0  -4 -0.95 0  -3.95 -0.95 0  -3.9 -0.95 0  -3.85 -0.95 0  -3.8 -0.95 0  -3.75 -0.95 0  -3.7 -0.95 0  -3.65 -0.95 0  -3.6 -0.95 0  -3.55 -0.95 0  -3.5 -0.95 0  -3.45 -0.95 0  -3.4 -0.95 0  -3.35 -0.95 0  -3.3 -0.95 0  -3.25 -0.95 0  -3.2 -0.95 0  -3.15 -0.95 0  -3.1 -0.95 0  -3.05 -0.95 0  -3 -0.95 0  -2.95 -0.95 0  -2.9 -0.95 0  -2.85 -0.95 0  -2.8 -0.95 0  -2.75 -0.95 0  -2.7 -0.95 0  -2.65 -0.95 0  -2.6 -0.95 0  -2.55 -0.95 0  -2.5 -0.95 0  -2.45 -0.95 0  -2.4 -0.95 0  -2.35 -0.95 0  -2.3 -0.95 0  -2.25 -0.95 0  -2.2 -0.95 0  -2.15 -0.95 0  -2.1 -0.95 0  -2.05 -0.95 0  -2 -0.95 0  -1.95 -0.95 0  -1.9 -0.95 0  -1.85 -0.95 0  -1.8 -0.95 0  -1.75 -0.95 0  -1.7 -0.95 0  -1.65 -0.95 0  -1.6 -0.95 0  -1.55 -0.95 0  -1.5 -0.95 0  -1.45 -0.95 0  -1.4 -0.95 0  -1.35 -0.95 0  -1.3 -0.95 0  -1.25 -0.95 0  -1.2 -0.95 0  -1.15 -0.95 0  -1.1 -0.95 0  -1.05 -0.95 0  -1 -0.95 0  -0.9500000000000002 -0.95 0  -0.9000000000000004 -0.95 0  -0.8499999999999996 -0.95 0  -0.7999999999999998 -0.95 0  -0.75 -0.95 0  -0.7000000000000002 -0.95 0  -0.6500000000000004 -0.95 0  -0.5999999999999996 -0.95 0  -0.5499999999999998 -0.95 0  -0.5 -0.95 0  -0.4500000000000002 -0.95 0  -0.4000000000000004 -0.95 0  -0.3499999999999996 -0.95 0  -0.2999999999999998 -0.95 0  -0.25 -0.95 0  -0.2000000000000002 -0.95 0  -0.1500000000000004 -0.95 0  -0.09999999999999964 -0.95 0  -0.04999999999999982 -0.95 0  0 -0.95 0  0.04999999999999982 -0.95 0  0.09999999999999964 -0.95 0  0.1500000000000004 -0.95 0  0.2000000000000002 -0.95 0  0.25 -0.95 0  0.2999999999999998 -0.95 0  0.3499999999999996 -0.95 0  0.4000000000000004 -0.95 0  0.4500000000000002 -0.95 0  0.5 -0.95 0  0.5499999999999998 -0.95 0  0.5999999999999996 -0.95 0  0.6500000000000004 -0.95 0  0.7000000000000002 -0.95 0  0.75 -0.95 0  0.7999999999999998 -0.95 0  0.8499999999999996 -0.95 0  0.9000000000000004 -0.95 0  0.9500000000000002 -0.95 0  1 -0.95 0  1.05 -0.95 0  1.1 -0.95 0  1.15 -0.95 0  1.2 -0.95 0  1.25 -0.95 0  1.3 -0.95 0  1.35 -0.95 0  1.4 -0.95 0  1.45 -0.95 0  1.5 -0.95 0  1.55 -0.95 0  1.6 -0.95 0  1.65 -0.95 0  1.7 -0.95 0  1.75 -0.95 0  1.8 -0.95 0  1.85 -0.95 0  1.9 -0.95 0  1.95 -0.95 0  2 -0.95 0  2.05 -0.95 0  2.1 -0.95 0  2.15 -0.95 0  2.2 -0.95 0  2.25 -0.95 0  2.3 -0.95 0  2.35 -0.95 0  2.4 -0.95 0  2.45 -0.95 0  2.5 -0.95 0  2.55 -0.95 0  2.6 -0.95 0  2.65 -0.95 0  2.7 -0.95 0  2.75 -0.95 0  2.8 -0.95 0  2.85 -0.95 0  2.9 -0.95 0  2.95 -0.95 0  3 -0.95 0  3.050000000000001 -0.95 0  3.1 -0.95 0  3.15 -0.95 0  3.199999999999999 -0.95 0  3.25 -0.95 0  3.300000000000001 -0.95 0  3.35 -0.95 0  3.4 -0.95 0  3.449999999999999 -0.95 0  3.5 -0.95 0  3.550000000000001 -0.95 0  3.6 -0.95 0  3.65 -0.95 0  3.699999999999999 -0.95 0  3.75 -0.95 0  3.800000000000001 -0.95 0  3.85 -0.95 0  3.9 -0.95 0  3.949999999999999 -0.95 0  4 -0.95 0  4.050000000000001 -0.95 0  4.1 -0.95 0  4.15 -0.95 0  4.199999999999999 -0.95 0  4.25 -0.95 0  4.300000000000001 -0.95 0  4.35 -0.95 0  4.4 -0.95 0  4.449999999999999 -0.95 0  4.5 -0.95 0  4.550000000000001 -0.95 0  4.6 -0.95 0  4.65 -0.95 0  4.699999999999999 -0.95 0  4.75 -0.95 0  4.800000000000001 -0.95 0  4.85 -0.95 0  4.9 -0.95 0  4.949999999999999 -0.95 0  5 -0.95 0  -5 -0.9 0  -4.95 -0.9 0  -4.9 -0.9 0  -4.85 -0.9 0  -4.8 -0.9 0  -4.75 -0.9 0  -4.7 -0.9 0  -4.65 -0.9 0  -4.6 -0.9 0  -4.55 -0.9 0  -4.5 -0.9 0  -4.45 -0.9 0  -4.4 -0.9 0  -4.35 -0.9 0  -4.3 -0.9 0  -4.25 -0.9 0  -4.2 -0.9 0  -4.15 -0.9 0  -4.1 -0.9 0  -4.05 -0.9 0  -4 -0.9 0  -3.95 -0.9 0  -3.9 -0.9 0  -3.85 -0.9 0  -3.8 -0.9 0  -3.75 -0.9 0  -3.7 -0.9 0  -3.65 -0.9 0  -3.6 -0.9 0  -3.55 -0.9 0  -3.5 -0.9 0  -3.45 -0.9 0  -3.4 -0.9 0  -3.35 -0.9 0  -3.3 -0.9 0  -3.25 -0.9 0  -3.2 -0.9 0  -3.15 -0.9 0  -3.1 -0.9 0  -3.05 -0.9 0  -3 -0.9 0  -2.95 -0.9 0  -2.9 -0.9 0  -2.85 -0.9 0  -2.8 -0.9 0  -2.75 -0.9 0  -2.7 -0.9 0  -2.65 -0.9 0  -2.6 -0.9 0  -2.55 -0.9 0  -2.5 -0.9 0  -2.45 -0.9 0  -2.4 -0.9 0  -2.35 -0.9 0  -2.3 -0.9 0  -2.25 -0.9 0  -2.2 -0.9 0  -2.15 -0.9 0  -2.1 -0.9 0  -2.05 -0.9 0  -2 -0.9 0  -1.95 -0.9 0  -1.9 -0.9 0  -1.85 -0.9 0  -1.8 -0.9 0  -1.75 -0.9 0  -1.7 -0.9 0  -1.65 -0.9 0  -1.6 -0.9 0  -1.55 -0.9 0  -1.5 -0.9 0  -1.45 -0.9 0  -1.4 -0.9 0  -1.35 -0.9 0  -1.3 -0.9 0  -1.25 -0.9 0  -1.2 -0.9 0  -1.15 -0.9 0  -1.1 -0.9 0  -1.05 -0.9 0  -1 -0.9 0  -0.9500000000000002 -0.9 0  -0.9000000000000004 -0.9 0  -0.8499999999999996 -0.9 0  -0.7999999999999998 -0.9 0  -0.75 -0.9 0  -0.7000000000000002 -0.9 0  -0.6500000000000004 -0.9 0  -0.5999999999999996 -0.9 0  -0.5499999999999998 -0.9 0  -0.5 -0.9 0  -0.4500000000000002 -0.9 0  -0.4000000000000004 -0.9 0  -0.3499999999999996 -0.9 0  -0.2999999999999998 -0.9 0  -0.25 -0.9 0  -0.2000000000000002 -0.9 0  -0.1500000000000004 -0.9 0  -0.09999999999999964 -0.9 0  -0.04999999999999982 -0.9 0  0 -0.9 0  0.04999999999999982 -0.9 0  0.09999999999999964 -0.9 0  0.1500000000000004 -0.9 0  0.2000000000000002 -0.9 0  0.25 -0.9 0  0.2999999999999998 -0.9 0  0.3499999999999996 -0.9 0  0.4000000000000004 -0.9 0  0.4500000000000002 -0.9 0  0.5 -0.9 0  0.5499999999999998 -0.9 0  0.5999999999999996 -0.9 0  0.6500000000000004 -0.9 0  0.7000000000000002 -0.9 0  0.75 -0.9 0  0.7999999999999998 -0.9 0  0.8499999999999996 -0.9 0  0.9000000000000004 -0.9 0  0.9500000000000002 -0.9 0  1 -0.9 0  1.05 -0.9 0  1.1 -0.9 0  1.15 -0.9 0  1.2 -0.9 0  1.25 -0.9 0  1.3 -0.9 0  1.35 -0.9 0  1.4 -0.9 0  1.45 -0.9 0  1.5 -0.9 0  1.55 -0.9 0  1.6 -0.9 0  1.65 -0.9 0  1.7 -0.9 0  1.75 -0.9 0  1.8 -0.9 0  1.85 -0.9 0  1.9 -0.9 0  1.95 -0.9 0  2 -0.9 0  2.05 -0.9 0  2.1 -0.9 0  2.15 -0.9 0  2.2 -0.9 0  2.25 -0.9 0  2.3 -0.9 0  2.35 -0.9 0  2.4 -0.9 0  2.45 -0.9 0  2.5 -0.9 0  2.55 -0.9 0  2.6 -0.9 0  2.65 -0.9 0  2.7 -0.9 0  2.75 -0.9 0  2.8 -0.9 0  2.85 -0.9 0  2.9 -0.9 0  2.95 -0.9 0  3 -0.9 0  3.050000000000001 -0.9 0  3.1 -0.9 0  3.15 -0.9 0  3.199999999999999 -0.9 0  3.25 -0.9 0  3.300000000000001 -0.9 0  3.35 -0.9 0  3.4 -0.9 0  3.449999999999999 -0.9 0  3.5 -0.9 0  3.550000000000001 -0.9 0  3.6 -0.9 0  3.65 -0.9 0  3.699999999999999 -0.9 0  3.75 -0.9 0  3.800000000000001 -0.9 0  3.85 -0.9 0  3.9 -0.9 0  3.949999999999999 -0.9 0  4 -0.9 0  4.050000000000001 -0.9 0  4.1 -0.9 0  4.15 -0.9 0  4.199999999999999 -0.9 0  4.25 -0.9 0  4.300000000000001 -0.9 0  4.35 -0.9 0  4.4 -0.9 0  4.449999999999999 -0.9 0  4.5 -0.9 0  4.550000000000001 -0.9 0  4.6 -0.9 0  4.65 -0.9 0  4.699999999999999 -0.9 0  4.75 -0.9 0  4.800000000000001 -0.9 0  4.85 -0.9 0  4.9 -0.9 0  4.949999999999999 -0.9 0  5 -0.9 0  -5 -0.85 0  -4.95 -0.85 0  -4.9 -0.85 0  -4.85 -0.85 0  -4.8 -0.85 0  -4.75 -0.85 0  -4.7 -0.85 0  -4.65 -0.85 0  -4.6 -0.85 0  -4.55 -0.85 0  -4.5 -0.85 0  -
[...]
<PointData  Vectors="f_15"> 
<DataArray  type="Float64"  Name="f_15"  NumberOfComponents="3" format="ascii">2.9291660960267150e+00 0.0000000000000000e+00 0.0000000000000000e+00  2.9249074286141492e+00 5.1696103662245439e-02 0.0000000000000000e+00  2.9277983415283004e+00 8.9042244148840724e-02 0.0000000000000000e+00  2.9253626582462560e+00 1.1328291972585647e-01 0.0000000000000000e+00  2.9279854398440532e+00 1.7116710602767926e-01 0.0000000000000000e+00  2.9241624027308393e+00 1.9491153517026433e-01 0.0000000000000000e+00  2.9283060727030628e+00 2.5097549352035214e-01 0.0000000000000000e+00  2.9241885436699482e+00 2.7426621158818804e-01 0.0000000000000000e+00  2.9272838442029334e+00 3.3299077241144892e-01 0.0000000000000000e+00  2.9242970206465899e+00 3.5635820382231737e-01 0.0000000000000000e+00  2.9273485120308389e+00 4.0771077078626738e-01 0.0000000000000000e+00  2.9233144670954023e+00 4.4950286134140610e-01 0.0000000000000000e+00  2.9272797822209498e+00 4.7060141495294167e-01 0.0000000000000000e+00  2.9235873045704426e+00 5.4970449190471382e-01 0.0000000000000000e+00  2.9259965241578714e+00 5.3838197056668291e-01 0.0000000000000000e+00  2.9239069734146348e+00 6.3077188573880238e-01 0.0000000000000000e+00  2.9257534868223507e+00 6.3425093314145531e-01 0.0000000000000000e+00  2.9231488681901010e+00 6.9045897913858700e-01 0.0000000000000000e+00  2.9256764606945005e+00 7.2911058522862104e-01 0.0000000000000000e+00  2.9230806237383744e+00 7.7237725295263626e-01 0.0000000000000000e+00  2.9247882529103797e+00 8.0100780850593012e-01 0.0000000000000000e+00  2.9231658999004093e+00 8.5317667455577018e-01 0.0000000000000000e+00  2.9243404674819211e+00 9.0369950151992007e-01 0.0000000000000000e+00  2.9227509868569204e+00 8.9990909474889380e-01 0.0000000000000000e+00  2.9239283406624406e+00 1.0067715323628494e+00 0.0000000000000000e+00  2.9226126292782313e+00 9.9341245012477952e-01 0.0000000000000000e+00  2.9231838645925161e+00 1.0445258600236778e+00 0.0000000000000000e+00  2.9225760192531212e+00 1.1220258407793440e+00 0.0000000000000000e+00  2.9223988318348000e+00 1.1030799780753970e+00 0.0000000000000000e+00  2.9224281184624710e+00 1.1936132362318443e+00 0.0000000000000000e+00  2.9217873353436326e+00 1.2080228579719359e+00 0.0000000000000000e+00  2.9219418255979890e+00 1.2613529731737225e+00 0.0000000000000000e+00  2.9214063399608099e+00 1.2833247230279325e+00 0.0000000000000000e+00  2.9213298809416979e+00 1.3563630612591548e+00 0.0000000000000000e+00  2.9208329463848024e+00 1.3586739256528471e+00 0.0000000000000000e+00  2.9208268267926654e+00 1.4285179407423911e+00 0.0000000000000000e+00  2.9203130136666182e+00 1.4550451194105338e+00 0.0000000000000000e+00  2.9199962863602100e+00 1.4995686666847869e+00 0.0000000000000000e+00  2.9199190379448461e+00 1.5367042377744895e+00 0.0000000000000000e+00  2.9191690192176711e+00 1.5844683514716476e+00 0.0000000000000000e+00  2.9193919859688586e+00 1.6160563555388319e+00 0.0000000000000000e+00  2.9181422679615903e+00 1.6628168382658635e+00 0.0000000000000000e+00  2.9191345929024215e+00 1.7007329340391943e+00 0.0000000000000000e+00  2.9169634916654248e+00 1.7419921080969505e+00 0.0000000000000000e+00  2.9185059521851655e+00 1.7808388368510937e+00 0.0000000000000000e+00  2.9161739152514876e+00 1.8247640489024672e+00 0.0000000000000000e+00  2.9178122655447094e+00 1.8604691418956594e+00 0.0000000000000000e+00  2.9148451899437928e+00 1.9061170765696556e+00 0.0000000000000000e+00  2.9174922643721044e+00 1.9415018230943097e+00 0.0000000000000000e+00  2.9137769334500407e+00 1.9866405170341646e+00 0.0000000000000000e+00  2.9161818663468364e+00 2.0226241732009753e+00 0.0000000000000000e+00  2.9133915635003014e+00 2.0669200529898650e+00 0.0000000000000000e+00  2.9150651609860230e+00 2.1041900746112101e+00 0.0000000000000000e+00  2.9120718756080168e+00 2.1463895810347449e+00 0.0000000000000000e+00  2.9143412821796590e+00 2.1863466867351633e+00 0.0000000000000000e+00  2.9115135452603909e+00 2.2259275122598523e+00 0.0000000000000000e+00  2.9121346257957752e+00 2.2675824918860683e+00 0.0000000000000000e+00  2.9116260144424500e+00 2.3071653078530874e+00 0.0000000000000000e+00  2.9106728424469646e+00 2.3467769807832988e+00 0.0000000000000000e+00  2.9103373700859643e+00 2.3902056917791819e+00 0.0000000000000000e+00  2.9095267968642937e+00 2.4250120305585106e+00 0.0000000000000000e+00  2.9102639964180823e+00 2.4732471031957499e+00 0.0000000000000000e+00  2.9068527279394920e+00 2.5031917661266605e+00 0.0000000000000000e+00  2.9100568065059691e+00 2.5574359456561910e+00 0.0000000000000000e+00  2.9061601857348678e+00 2.5793573797109044e+00 0.0000000000000000e+00  2.9078080668376920e+00 2.6418860671674627e+00 0.0000000000000000e+00  2.9053636018621418e+00 2.6596240093297308e+00 0.0000000000000000e+00  2.9076728904662317e+00 2.7187498471146503e+00 0.0000000000000000e+00  2.9028413279506027e+00 2.7458162183967447e+00 0.0000000000000000e+00  2.9065057996888850e+00 2.7965710738200449e+00 0.0000000000000000e+00  2.9035196912879329e+00 2.8248656346477108e+00 0.0000000000000000e+00  2.9029429217901441e+00 2.8808034499922361e+00 0.0000000000000000e+00  2.9032827885449204e+00 2.9047582178133102e+00 0.0000000000000000e+00  2.9026604117738004e+00 2.9578205919844365e+00 0.0000000000000000e+00  2.9007927165912313e+00 2.9903510793991215e+00 0.0000000000000000e+00  2.9011081361251172e+00 3.0370476819582173e+00 0.0000000000000000e+00  2.9019513014562146e+00 3.0675845778847792e+00 0.0000000000000000e+00  2.8969349842875940e+00 3.1224854709404175e+00 0.0000000000000000e+00  2.9021947918554587e+00 3.1468833908302831e+00 0.0000000000000000e+00  2.8960831841657484e+00 3.1997630545648534e+00 0.0000000000000000e+00  2.8994907859637631e+00 3.2331677064634246e+00 0.0000000000000000e+00  2.8949677717875439e+00 3.2772889043434277e+00 0.0000000000000000e+00  2.8988470206821728e+00 3.3143693138136592e+00 0.0000000000000000e+00  2.8908544409453576e+00 3.3602308646222134e+00 0.0000000000000000e+00  2.8984959317365697e+00 3.3959748712455271e+00 0.0000000000000000e+00  2.8870607765428264e+00 3.4392613339707241e+00 0.0000000000000000e+00  2.8965718100275657e+00 3.4831280076906639e+00 0.0000000000000000e+00  2.8827207457492756e+00 3.5152013147963608e+00 0.0000000000000000e+00  2.8979611207741280e+00 3.5716215630574943e+00 0.0000000000000000e+00  2.8729879236229952e+00 3.5870005935689520e+00 0.0000000000000000e+00  2.9157828041231051e+00 3.6535922477826510e+00 0.0000000000000000e+00  2.8219138075487398e+00 3.7147332404317597e+00 0.0000000000000000e+00  3.0787684071565922e+00 3.4871034152772480e+00 0.0000000000000000e+00  4.8490685951034402e+00 2.2380726660587993e-01 0.0000000000000000e+00  6.3003801146994656e+00 -1.7134834408582418e+00 0.0000000000000000e+00  6.8754045002157049e+00 -2.3738579697483577e+00 0.0000000000000000e+00  7.0393405799705127e+00 -2.5310614950536618e+00 0.0000000000000000e+00  7.0982167223286412e+00 -2.5583293299380574e+00 0.0000000000000000e+00  7.1379054275598124e+00 -2.5533368895088264e+00 0.0000000000000000e+00  7.1654730565409128e+00 -2.5393525081724113e+00 0.0000000000000000e+00  7.1878479558400876e+00 -2.5135738615216834e+00 0.0000000000000000e+00  7.2085460056232318e+00 -2.4927794111499231e+00 0.0000000000000000e+00  7.2296492979712159e+00 -2.4642679974226378e+00 0.0000000000000000e+00  7.2504537300675098e+00 -2.4432276002121882e+00 0.0000000000000000e+00  7.2714868738062108e+00 -2.4173803550394948e+00 0.0000000000000000e+00  7.2923527740560550e+00 -2.3936354454832518e+00 0.0000000000000000e+00  7.3132237033345699e+00 -2.3693233135628686e+00 0.0000000000000000e+00  7.3337800478533257e+00 -2.3456571777924826e+00 0.0000000000000000e+00  7.3553193016235037e+00 -2.3211563632028911e+00 0.0000000000000000e+00  7.3751804779885610e+00 -2.2976040030057971e+00 0.0000000000000000e+00  7.3971850886386781e+00 -2.2742875055076199e+00 0.0000000000000000e+00  7.4168569921001950e+00 -2.2488832578262077e+00 0.0000000000000000e+00  7.4389560763147697e+00 -2.2279795094360484e+00 0.0000000000000000e+00  7.4584637462626997e+00 -2.2009697062129319e+00 0.0000000000000000e+00  7.4807910716581540e+00 -2.1808114825562868e+00 0.0000000000000000e+00  7.5001503531570686e+00 -2.1546700472300486e+00 0.0000000000000000e+00  7.5224683921676840e+00 -2.1328567816601374e+00 0.0000000000000000e+00  7.5419455732281824e+00 -2.1090044545387068e+00 0.0000000000000000e+00  7.5642355856164540e+00 -2.0854788024794533e+00 0.0000000000000000e+00  7.5835230964839857e+00 -2.0630989960844133e+00 0.0000000000000000e+00  7.6061560091381351e+00 -2.0387219405589918e+00 0.0000000000000000e+00  7.6251861851251714e+00 -2.0175169613175177e+00 0.0000000000000000e+00  7.6477844673954021e+00 -1.9920589906790909e+00 0.0000000000000000e+00  7.6671204551112986e+00 -1.9721737775131896e+00 0.0000000000000000e+00  7.6893922298185231e+00 -1.9462753635653709e+00 0.0000000000000000e+00  7.7087740815494188e+00 -1.9257104144810697e+00 0.0000000000000000e+00  7.7313214403204142e+00 -1.9023005379163598e+00 0.0000000000000000e+00  7.7503250112638975e+00 -1.8785646176226622e+00 0.0000000000000000e+00  7.7729457867472425e+00 -1.8583476714784979e+00 0.0000000000000000e+00  7.7922999105403088e+00 -1.8318198926563467e+00 0.0000000000000000e+00  7.8142774134465460e+00 -1.8134153405502431e+00 0.0000000000000000e+00  7.8341070323121285e+00 -1.7864265957753793e+00 0.0000000000000000e+00  7.8559703051733862e+00 -1.7685910671448637e+00 0.0000000000000000e+00  7.8755464468734750e+00 -1.7416609420012734e+00 0.0000000000000000e+00  7.8975424432468149e+00 -1.7224474151152904e+00 0.0000000000000000e+00  7.9173182588509352e+00 -1.6958191914565994e+00 0.0000000000000000e+00  7.9386282357454210e+00 -1.6760010407284405e+00 0.0000000000000000e+00  7.9590805079816747e+00 -1.6505467829283991e+00 0.0000000000000000e+00  7.9799046020221365e+00 -1.6311408873635940e+00 0.0000000000000000e+00  8.0003056214386135e+00 -1.6054711405137350e+00 0.0000000000000000e+00  8.0212184963233337e+00 -1.5864002272549189e+00 0.0000000000000000e+00  8.0416017687718373e+00 -1.5594795711658516e+00 0.0000000000000000e+00  8.0619673233895028e+00 -1.5421251514203467e+00 0.0000000000000000e+00  8.0829114841976679e+00 -1.5121189893092459e+00 0.0000000000000000e+00  8.1027046627643653e+00 -1.4976592861278974e+00 0.0000000000000000e+00  8.1235427168145034e+00 -1.4648719453420813e+00 0.0000000000000000e+00  8.1435013193181387e+00 -1.4522074512249907e+00 0.0000000000000000e+00  8.1639466232502684e+00 -1.4193035439724062e+00 0.0000000000000000e+00  8.1836457244488354e+00 -1.4051538454533661e+00 0.0000000000000000e+00  8.2042522253617509e+00 -1.3760231179815141e+00 0.0000000000000000e+00  8.2235206469156612e+00 -1.3566918733223448e+00 0.0000000000000000e+00  8.2437397268862700e+00 -1.3339606367207686e+00 0.0000000000000000e+00  8.2632805501153470e+00 -1.3080172082885324e+00 0.0000000000000000e+00  8.2827354932676318e+00 -1.2910130303818301e+00 0.0000000000000000e+00  8.3021969729000933e+00 -1.2600321356209929e+00 0.0000000000000000e+00  8.3214417781167196e+00 -1.2464409358430302e+00 0.0000000000000000e+00  8.3404694353192408e+00 -1.2122010914105548e+00 0.0000000000000000e+00  8.3592163454533512e+00 -1.2012516597244376e+00 0.0000000000000000e+00  8.3782736011844534e+00 -1.1642191759845371e+00 0.0000000000000000e+00  8.3961621062638532e+00 -1.1555019356565399e+00 0.0000000000000000e+00  8.4150535620219316e+00 -1.1173018782368149e+00 0.0000000000000000e+00  8.4324463118741804e+00 -1.1079709682221444e+00 0.0000000000000000e+00  8.4507915578585955e+00 -1.0727103992176978e+00 0.0000000000000000e+00  8.4676351788247217e+00 -1.0583331600357828e+00 0.0000000000000000e+00  8.4856311137930671e+00 -1.0283044192124464e+00 0.0000000000000000e+00  8.5015966233324445e+00 -1.0081096913032230e+00 0.0000000000000000e+00  8.5192643213624795e+00 -9.8287400782151069e-01 0.0000000000000000e+00  8.5344542494767790e+00 -9.5710556802429037e-01 0.0000000000000000e+00  8.5514555742096423e+00 -9.3677814693923689e-01 0.0000000000000000e+00  8.5660015744250888e+00 -9.0525916080582036e-01 0.0000000000000000e+00  8.5823452335867696e+00 -8.8883455444044579e-01 0.0000000000000000e+00  8.5959003922094226e+00 -8.5690783697819051e-01 0.0000000000000000e+00  8.6118157307365024e+00 -8.3775008071460766e-01 0.0000000000000000e+00  8.6243061730389812e+00 -8.1134195419267496e-01 0.0000000000000000e+00  8.6394549494609176e+00 -7.8594715769284584e-01 0.0000000000000000e+00  8.6511947537892802e+00 -7.6509720554619975e-01 0.0000000000000000e+00  8.6654047410134361e+00 -7.3705935648580712e-01 0.0000000000000000e+00  8.6761526745223083e+00 -7.1748250637338606e-01 0.0000000000000000e+00  8.6896502398065572e+00 -6.8774801786862982e-01 0.0000000000000000e+00  8.6993697515233226e+00 -6.6883255037696754e-01 0.0000000000000000e+00  8.7117871710982655e+00 -6.3723033633550752e-01 0.0000000000000000e+00  8.7208146950629715e+00 -6.1733216594724949e-01 0.0000000000000000e+00  8.7320396915026262e+00 -5.8342825483068794e-01 0.0000000000000000e+00  8.7401030153705168e+00 -5.6523326916623551e-01 0.0000000000000000e+00  8.7503791549938086e+00 -5.3225648936995518e-01 0.0000000000000000e+00  8.7574061904063960e+00 -5.1970700341397624e-01 0.0000000000000000e+00  8.7665107711626558e+00 -4.8670333609533450e-01 0.0000000000000000e+00  8.7727123796996587e+00 -4.7019970785734383e-01 0.0000000000000000e+00  8.7806865129913305e+00 -4.3610570147068289e-01 0.0000000000000000e+00  8.7857762363168312e+00 -4.1983826101395033e-01 0.0000000000000000e+00  8.7928018485740420e+00 -3.7824114003218540e-01 0.0000000000000000e+00  8.7967666621152247e+00 -3.5812102176636712e-01 0.0000000000000000e+00  8.8027076990827613e+00 -3.1329323510212048e-01 0.0000000000000000e+00  8.8055680930134645e+00 -2.8754422163143656e-01 0.0000000000000000e+00  8.8104493306119842e+00 -2.5540597768828299e-01 0.0000000000000000e+00  8.8120524177630326e+00 -2.1414400559325339e-01 0.0000000000000000e+00  8.8159407238422496e+00 -1.9710272588844852e-01 0.0000000000000000e+00  8.8163152352909950e+00 -1.4681262208657889e-01 0.0000000000000000e+00  8.8192366437213412e+00 -1.4734545672353186e-01 0.0000000000000000e+00  8.8185812448838536e+00 -4.4785513636351686e-02 0.0000000000000000e+00  8.8207286618192100e+00 0.0000000000000000e+00 0.0000000000000000e+00  2.9266724462676130e+00 0.0000000000000000e+00 5.0246019182721754e-03  2.9255045389666225e+00 3.4182440971623970e-02 -9.8320879648549058e-03  2.9272476195356112e+00 8.1257073692119264e-02 5.0990142399594861e-03  2.9262196766496729e+00 1.2244629129011413e-01 8.5701512869797731e-03  2.9263796498637586e+00 1.5719219941823342e-01 -1.2413791101838793e-02  2.9268871025559409e+00 2.0794375665453818e-01 1.3975727777902541e-02  2.9268972085284379e+00 2.3758246803036975e-01 -1.5756234831494603e-02  2.9260177375490120e+00 2.9203814529391886e-01 1.9210215573401929e-02  2.9275242901346843e+00 3.1537097578955442e-01 -2.2102302411486162e-02  2.9262850977405295e+00 3.7650432002375228e-01 2.2526699328575907e-02  2.9268041916583809e+00 3.9765356169408356e-01 -1.9248142003092678e-02  2.9266712758674100e+00 4.5133607212857468e-01 1.3205849195540678e-02  2.9270192302262070e+00 4.8934864688947838e-01 -5.5544594939229749e-03  2.9260418797596359e+00 5.2351252713426777e-01 -1.7792783213667724e-03  2.9270192347610346e+00 5.7288245067097043e-01 8.2542232178831332e-03  2.9265250383179446e+00 6.1015316706430356e-01 -1.3402327971131556e-02  2.9258720124410078e+00 6.4651842220258682e-01 1.6516453371342523e-02  2.9269467789006778e+00 6.9258914249133474e-01 -1.7453952877988670e-02  2.9256777619832572e+00 7.3769000040432731e-01 1.7062619418169198e-02  2.9262164030387554e+00 7.5842599803411670e-01 -1.5517080201307010e-02  2.9257589868768799e+00 8.2582341615065880e-01 1.3851428057900923e-02  2.9258805116784523e+00 8.5040247252517198e-01 -1.1707293339819647e-02  2.9252605180189026e+00 8.8406971462150818e-01 9.0294773462401366e-03  2.9255616715376553e+00 9.4670268706246263e-01 -5.9430216739008810e-03  2.9250224252133767e+00 9.7400008446455644e-01 3.4463414689020560e-03  2.9249294804998294e+00 9.9783443448906672e-01 -2.7097928616198414e-03  2.9247200270941036e+00 1.0836523391674022e+00 3.6818668264161449e-03  2.9244413936222506e+00 1.0744128325223388e+00 -5.1162471233465170e-03  2.9242666303571547e+00 1.1422745366784166e+00 5.5180646464387303e-03  2.9239414741538612e+00 1.1857898905491826e+00 -4.4372493551759554e-03  2.9237388794393624e+00 1.2084774781449368e+00 2.8001151705120803e-03  2.9235357727167899e+00 1.2589716248626523e+00 -2.0278896941093257e-03  2.9231303978398318e+00 1.3069887719943607e+00 2.1292519665969518e-03  2.9229284968721529e+00 1.3315919115353005e+00 -1.9424906663988463e-03  2.9227918844685146e+00 1.3804344852946195e+00 8.7941791009408393e-04  2.9221714108242502e+00 1.4276820767939764e+00 9.5503500237325829e-04  2.9222856746369912e+00 1.4525279449693496e+00 -2.2535763008157727e-03  2.9216436244895196e+00 1.5062804364522979e+00 2.0416203656181907e-03  2.9216334969941951e+00 1.5420941709706675e+00 -8.3632668617682172e-04  2.9210819697810479e+00 1.5814587555829585e+00 -3.3113693834696214e-04  2.9209452548168717e+00 1.6229508427889148e+00 5.9715491167243657e-04  2.9206066844141740e+00 1.6657609374936764e+00 -1.3977871110823292e-04  2.9202456429786698e+00 1.7022514208213662e+00 -2.7315081808420167e-04  2.9198495668868043e+00 1.7457141116444652e+00 2.2675576492229985e-04  2.9198547395626151e+00 1.7856566731150072e+00 7.7703952322533425e-05  2.9191007608599939e+00 1.8253513034163285e+00 -5.2724440726395190e-04  2.9189628758414243e+00 1.8668234740922856e+00 7.4739724180764272e-04  2.9188110152280671e+00 1.9070597157956062e+00 -1.1832155655332184e-03  2.9181566846955351e+00 1.9476004212214673e+00 1.6091318309160837e-03  2.9178194178094237e+00 1.9879018018453563e+00 -2.2455617486166809e-03  2.9178516409749986e+00 2.0295072672448855e+00 2.7896034227623489e-03  2.9171112711625411e+00 2.0682444835846154e+00 -3.2204231736910156e-03  2.9165886951751183e+00 2.1110878825947883e+00 3.4139678172653504e-03  2.9169225928379161e+00 2.1493369183546953e+00 -3.3999455782473998e-03  2.9158648837389651e+00 2.1921171870533795e+00 3.2250927581848029e-03  2.9154837605255328e+00 2.2303376649814113e+00 -3.0520579849925081e-03  2.9156901893842289e+00 2.2737707599551191e+00 2.8438716331056027e-03  2.9148017476772052e+00 2.3105570917736453e+00 -2.7489684520848106e-03  2.9140595410462731e+00 2.3557406938140755e+00 2.6084089155833106e-03  2.9146034936159437e+00 2.3911896503445953e+00 -2.6810456619866473e-03  2.9133886722675575e+00 2.4367330354668533e+00 2.8923575329304289e-03  2.9129615435866238e+00 2.4723186184759700e+00 -3.4297105523764322e-03  2.9127390549597205e+00 2.5185893063853779e+00 4.0486141016914685e-03  2.9129173095933121e+00 2.5514113721870659e+00 -4.6444637315751214e-03  2.9103553363878323e+00 2.6014664822499691e+00 4.9798489013013021e-03  2.9125558279074575e+00 2.6326307615009883e+00 -5.0290977018811883e-03  2.9102313133513578e+00 2.6792659427895504e+00 4.7301011128150650e-03  2.9100756500120668e+00 2.7177989570194780e+00 -4.1819338881059582e-03  2.9096431180660676e+00 2.7582396809603997e+00 3.4027393139551112e-03  2.9101694805620038e+00 2.7967910201621393e+00 -2.6838447673790127e-03  2.9069772026295277e+00 2.8425383265329160e+00 2.1129322358718152e-03  2.9092412028396493e+00 2.8768255851575835e+00 -1.8244164479034018e-03  2.9075254166032507e+00 2.9199285232336107e+00 1.6672623770234017e-03  2.9060066132142350e+00 2.9622714379103567e+00 -1.5767921188191134e-03  2.9068330586707196e+00 2.9994137297223706e+00 1.4855411164661455e-03  2.9063649776910072e+00 3.0394189735913146e+00 -1.4223644341067689e-03  2.9035446796517856e+00 3.0850540646849103e+00 1.4179517266780150e-03  2.9056868811911629e+00 3.1185264698090056e+00 -1.3515063628550953e-03  2.9037750784009408e+00 3.1623080623483149e+00 1.2869122865385146e-03  2.9022575292218780e+00 3.2040785307228234e+00 -1.0643557524838106e-03  2.9036896973910693e+00 3.2403069788975998e+00 1.0557643863792615e-03  2.9017