<?xml version="1.0"?>
<VTKFile type="UnstructuredGrid"  version="0.1"  >
<UnstructuredGrid>
<Piece  NumberOfPoints="8241" NumberOfCells="16000">
<Points>
<DataArray  type="Float64"  NumberOfComponents="3"  format="ascii">-5 -1 0  -4.95 -1 0  -4.9 -1 0  -4.85 -1 0  -4.8 -1 0  -4.75 -1 0  -4.7 -1 0  -4.65 -1 0  -4.6 -1 0  -4.55 -1 0  -4.5 -1 0  -4.45 -1 0  -4.4 -1 0  -4.35 -1 0  -4.3 -1 0  -4.25 -1 0  -4.2 -1 0  -4.15 -1 0  -4.1 -1 0  -4.05 -1 0  -4 -1 0  -3.95 -1 0  -3.9 -1 0  -3.85 -1 0  -3.8 -1 0  -3.75 -1 0  -3.7 -1 0  -3.65 -1 0  -3.6 -1 0  -3.55 -1 0  -3.5 -1 0  -3.45 -1 0  -3.4 -1 0  -3.35 -1 0  -3.3 -1 0  -3.25 -1 0  -3.2 -1 0  -3.15 -1 0  -3.1 -1 0  -3.05 -1 0  -3 -1 0  -2.95 -1 0  -2.9 -1 0  -2.85 -1 0  -2.8 -1 0  -2.75 -1 0  -2.7 -1 0  -2.65 -1 0  -2.6 -1 0  -2.55 -1 0  -2.5 -1 0  -2.45 -1 0  -2.4 -1 0  -2.35 -1 0  -2.3 -1 0  -2.25 -1 0  -2.2 -1 0  -2.15 -1 0  -2.1 -1 0  -2.05 -1 0  -2 -1 0  -1.95 -1 0  -1.9 -1 0  -1.85 -1 0  -1.8 -1 0  -1.75 -1 0  -1.7 -1 0  -1.65 -1 0  -1.6 -1 0  -1.55 -1 0  -1.5 -1 0  -1.45 -1 0  -1.4 -1 0  -1.35 -1 0  -1.3 -1 0  -1.25 -1 0  -1.2 -1 0  -1.15 -1 0  -1.1 -1 0  -1.05 -1 0  -1 -1 0  -0.9500000000000002 -1 0  -0.9000000000000004 -1 0  -0.8499999999999996 -1 0  -0.7999999999999998 -1 0  -0.75 -1 0  -0.7000000000000002 -1 0  -0.6500000000000004 -1 0  -0.5999999999999996 -1 0  -0.5499999999999998 -1 0  -0.5 -1 0  -0.4500000000000002 -1 0  -0.4000000000000004 -1 0  -0.3499999999999996 -1 0  -0.2999999999999998 -1 0  -0.25 -1 0  -0.2000000000000002 -1 0  -0.1500000000000004 -1 0  -0.09999999999999964 -1 0  -0.04999999999999982 -1 0  0 -1 0  0.04999999999999982 -1 0  0.09999999999999964 -1 0  0.1500000000000004 -1 0  0.2000000000000002 -1 0  0.25 -1 0  0.2999999999999998 -1 0  0.3499999999999996 -1 0  0.4000000000000004 -1 0  0.4500000000000002 -1 0  0.5 -1 0  0.5499999999999998 -1 0  0.5999999999999996 -1 0  0.6500000000000004 -1 0  0.7000000000000002 -1 0  0.75 -1 0  0.7999999999999998 -1 0  0.8499999999999996 -1 0  0.9000000000000004 -1 0  0.9500000000000002 -1 0  1 -1 0  1.05 -1 0  1.1 -1 0  1.15 -1 0  1.2 -1 0  1.25 -1 0  1.3 -1 0  1.35 -1 0  1.4 -1 0  1.45 -1 0  1.5 -1 0  1.55 -1 0  1.6 -1 0  1.65 -1 0  1.7 -1 0  1.75 -1 0  1.8 -1 0  1.85 -1 0  1.9 -1 0  1.95 -1 0  2 -1 0  2.05 -1 0  2.1 -1 0  2.15 -1 0  2.2 -1 0  2.25 -1 0  2.3 -1 0  2.35 -1 0  2.4 -1 0  2.45 -1 0  2.5 -1 0  2.55 -1 0  2.6 -1 0  2.65 -1 0  2.7 -1 0  2.75 -1 0  2.8 -1 0  2.85 -1 0  2.9 -1 0  2.95 -1 0  3 -1 0  3.050000000000001 -1 0  3.1 -1 0  3.15 -1 0  3.199999999999999 -1 0  3.25 -1 0  3.300000000000001 -1 0  3.35 -1 0  3.4 -1 0  3.449999999999999 -1 0  3.5 -1 0  3.550000000000001 -1 0  3.6 -1 0  3.65 -1 0  3.699999999999999 -1 0  3.75 -1 0  3.800000000000001 -1 0  3.85 -1 0  3.9 -1 0  3.949999999999999 -1 0  4 -1 0  4.050000000000001 -1 0  4.1 -1 0  4.15 -1 0  4.199999999999999 -1 0  4.25 -1 0  4.300000000000001 -1 0  4.35 -1 0  4.4 -1 0  4.449999999999999 -1 0  4.5 -1 0  4.550000000000001 -1 0  4.6 -1 0  4.65 -1 0  4.699999999999999 -1 0  4.75 -1 0  4.800000000000001 -1 0  4.85 -1 0  4.9 -1 0  4.949999999999999 -1 0  5 -1 0  -5 -0.95 0  -4.95 -0.95 0  -4.9 -0.95 0  -4.85 -0.95 0  -4.8 -0.95 0  -4.75 -0.95 0  -4.7 -0.95 0  -4.65 -0.95 0  -4.6 -0.95 0  -4.55 -0.95 0  -4.5 -0.95 0  -4.45 -0.95 0  -4.4 -0.95 0  -4.35 -0.95 0  -4.3 -0.95 0  -4.25 -0.95 0  -4.2 -0.95 0  -4.15 -0.95 0  -4.1 -0.95 0  -4.05 -0.95 0  -4 -0.95 0  -3.95 -0.95 0  -3.9 -0.95 0  -3.85 -0.95 0  -3.8 -0.95 0  -3.75 -0.95 0  -3.7 -0.95 0  -3.65 -0.95 0  -3.6 -0.95 0  -3.55 -0.95 0  -3.5 -0.95 0  -3.45 -0.95 0  -3.4 -0.95 0  -3.35 -0.95 0  -3.3 -0.95 0  -3.25 -0.95 0  -3.2 -0.95 0  -3.15 -0.95 0  -3.1 -0.95 0  -3.05 -0.95 0  -3 -0.95 0  -2.95 -0.95 0  -2.9 -0.95 0  -2.85 -0.95 0  -2.8 -0.95 0  -2.75 -0.95 0  -2.7 -0.95 0  -2.65 -0.95 0  -2.6 -0.95 0  -2.55 -0.95 0  -2.5 -0.95 0  -2.45 -0.95 0  -2.4 -0.95 0  -2.35 -0.95 0  -2.3 -0.95 0  -2.25 -0.95 0  -2.2 -0.95 0  -2.15 -0.95 0  -2.1 -0.95 0  -2.05 -0.95 0  -2 -0.95 0  -1.95 -0.95 0  -1.9 -0.95 0  -1.85 -0.95 0  -1.8 -0.95 0  -1.75 -0.95 0  -1.7 -0.95 0  -1.65 -0.95 0  -1.6 -0.95 0  -1.55 -0.95 0  -1.5 -0.95 0  -1.45 -0.95 0  -1.4 -0.95 0  -1.35 -0.95 0  -1.3 -0.95 0  -1.25 -0.95 0  -1.2 -0.95 0  -1.15 -0.95 0  -1.1 -0.95 0  -1.05 -0.95 0  -1 -0.95 0  -0.9500000000000002 -0.95 0  -0.9000000000000004 -0.95 0  -0.8499999999999996 -0.95 0  -0.7999999999999998 -0.95 0  -0.75 -0.95 0  -0.7000000000000002 -0.95 0  -0.6500000000000004 -0.95 0  -0.5999999999999996 -0.95 0  -0.5499999999999998 -0.95 0  -0.5 -0.95 0  -0.4500000000000002 -0.95 0  -0.4000000000000004 -0.95 0  -0.3499999999999996 -0.95 0  -0.2999999999999998 -0.95 0  -0.25 -0.95 0  -0.2000000000000002 -0.95 0  -0.1500000000000004 -0.95 0  -0.09999999999999964 -0.95 0  -0.04999999999999982 -0.95 0  0 -0.95 0  0.04999999999999982 -0.95 0  0.09999999999999964 -0.95 0  0.1500000000000004 -0.95 0  0.2000000000000002 -0.95 0  0.25 -0.95 0  0.2999999999999998 -0.95 0  0.3499999999999996 -0.95 0  0.4000000000000004 -0.95 0  0.4500000000000002 -0.95 0  0.5 -0.95 0  0.5499999999999998 -0.95 0  0.5999999999999996 -0.95 0  0.6500000000000004 -0.95 0  0.7000000000000002 -0.95 0  0.75 -0.95 0  0.7999999999999998 -0.95 0  0.8499999999999996 -0.95 0  0.9000000000000004 -0.95 0  0.9500000000000002 -0.95 0  1 -0.95 0  1.05 -0.95 0  1.1 -0.95 0  1.15 -0.95 0  1.2 -0.95 0  1.25 -0.95 0  1.3 -0.95 0  1.35 -0.95 0  1.4 -0.95 0  1.45 -0.95 0  1.5 -0.95 0  1.55 -0.95 0  1.6 -0.95 0  1.65 -0.95 0  1.7 -0.95 0  1.75 -0.95 0  1.8 -0.95 0  1.85 -0.95 0  1.9 -0.95 0  1.95 -0.95 0  2 -0.95 0  2.05 -0.95 0  2.1 -0.95 0  2.15 -0.95 0  2.2 -0.95 0  2.25 -0.95 0  2.3 -0.95 0  2.35 -0.95 0  2.4 -0.95 0  2.45 -0.95 0  2.5 -0.95 0  2.55 -0.95 0  2.6 -0.95 0  2.65 -0.95 0  2.7 -0.95 0  2.75 -0.95 0  2.8 -0.95 0  2.85 -0.95 0  2.9 -0.95 0  2.95 -0.95 0  3 -0.95 0  3.050000000000001 -0.95 0  3.1 -0.95 0  3.15 -0.95 0  3.199999999999999 -0.95 0  3.25 -0.95 0  3.300000000000001 -0.95 0  3.35 -0.95 0  3.4 -0.95 0  3.449999999999999 -0.95 0  3.5 -0.95 0  3.550000000000001 -0.95 0  3.6 -0.95 0  3.65 -0.95 0  3.699999999999999 -0.95 0  3.75 -0.95 0  3.800000000000001 -0.95 0  3.85 -0.95 0  3.9 -0.95 0  3.949999999999999 -0.95 0  4 -0.95 0  4.050000000000001 -0.95 0  4.1 -0.95 0  4.15 -0.95 0  4.199999999999999 -0.95 0  4.25 -0.95 0  4.300000000000001 -0.95 0  4.35 -0.95 0  4.4 -0.95 0  4.449999999999999 -0.95 0  4.5 -0.95 0  4.550000000000001 -0.95 0  4.6 -0.95 0  4.65 -0.95 0  4.699999999999999 -0.95 0  4.75 -0.95 0  4.800000000000001 -0.95 0  4.85 -0.95 0  4.9 -0.95 0  4.949999999999999 -0.95 0  5 -0.95 0  -5 -0.9 0  -4.95 -0.9 0  -4.9 -0.9 0  -4.85 -0.9 0  -4.8 -0.9 0  -4.75 -0.9 0  -4.7 -0.9 0  -4.65 -0.9 0  -4.6 -0.9 0  -4.55 -0.9 0  -4.5 -0.9 0  -4.45 -0.9 0  -4.4 -0.9 0  -4.35 -0.9 0  -4.3 -0.9 0  -4.25 -0.9 0  -4.2 -0.9 0  -4.15 -0.9 0  -4.1 -0.9 0  -4.05 -0.9 0  -4 -0.9 0  -3.95 -0.9 0  -3.9 -0.9 0  -3.85 -0.9 0  -3.8 -0.9 0  -3.75 -0.9 0  -3.7 -0.9 0  -3.65 -0.9 0  -3.6 -0.9 0  -3.55 -0.9 0  -3.5 -0.9 0  -3.45 -0.9 0  -3.4 -0.9 0  -3.35 -0.9 0  -3.3 -0.9 0  -3.25 -0.9 0  -3.2 -0.9 0  -3.15 -0.9 0  -3.1 -0.9 0  -3.05 -0.9 0  -3 -0.9 0  -2.95 -0.9 0  -2.9 -0.9 0  -2.85 -0.9 0  -2.8 -0.9 0  -2.75 -0.9 0  -2.7 -0.9 0  -2.65 -0.9 0  -2.6 -0.9 0  -2.55 -0.9 0  -2.5 -0.9 0  -2.45 -0.9 0  -2.4 -0.9 0  -2.35 -0.9 0  -2.3 -0.9 0  -2.25 -0.9 0  -2.2 -0.9 0  -2.15 -0.9 0  -2.1 -0.9 0  -2.05 -0.9 0  -2 -0.9 0  -1.95 -0.9 0  -1.9 -0.9 0  -1.85 -0.9 0  -1.8 -0.9 0  -1.75 -0.9 0  -1.7 -0.9 0  -1.65 -0.9 0  -1.6 -0.9 0  -1.55 -0.9 0  -1.5 -0.9 0  -1.45 -0.9 0  -1.4 -0.9 0  -1.35 -0.9 0  -1.3 -0.9 0  -1.25 -0.9 0  -1.2 -0.9 0  -1.15 -0.9 0  -1.1 -0.9 0  -1.05 -0.9 0  -1 -0.9 0  -0.9500000000000002 -0.9 0  -0.9000000000000004 -0.9 0  -0.8499999999999996 -0.9 0  -0.7999999999999998 -0.9 0  -0.75 -0.9 0  -0.7000000000000002 -0.9 0  -0.6500000000000004 -0.9 0  -0.5999999999999996 -0.9 0  -0.5499999999999998 -0.9 0  -0.5 -0.9 0  -0.4500000000000002 -0.9 0  -0.4000000000000004 -0.9 0  -0.3499999999999996 -0.9 0  -0.2999999999999998 -0.9 0  -0.25 -0.9 0  -0.2000000000000002 -0.9 0  -0.1500000000000004 -0.9 0  -0.09999999999999964 -0.9 0  -0.04999999999999982 -0.9 0  0 -0.9 0  0.04999999999999982 -0.9 0  0.09999999999999964 -0.9 0  0.1500000000000004 -0.9 0  0.2000000000000002 -0.9 0  0.25 -0.9 0  0.2999999999999998 -0.9 0  0.3499999999999996 -0.9 0  0.4000000000000004 -0.9 0  0.4500000000000002 -0.9 0  0.5 -0.9 0  0.5499999999999998 -0.9 0  0.5999999999999996 -0.9 0  0.6500000000000004 -0.9 0  0.7000000000000002 -0.9 0  0.75 -0.9 0  0.7999999999999998 -0.9 0  0.8499999999999996 -0.9 0  0.9000000000000004 -0.9 0  0.9500000000000002 -0.9 0  1 -0.9 0  1.05 -0.9 0  1.1 -0.9 0  1.15 -0.9 0  1.2 -0.9 0  1.25 -0.9 0  1.3 -0.9 0  1.35 -0.9 0  1.4 -0.9 0  1.45 -0.9 0  1.5 -0.9 0  1.55 -0.9 0  1.6 -0.9 0  1.65 -0.9 0  1.7 -0.9 0  1.75 -0.9 0  1.8 -0.9 0  1.85 -0.9 0  1.9 -0.9 0  1.95 -0.9 0  2 -0.9 0  2.05 -0.9 0  2.1 -0.9 0  2.15 -0.9 0  2.2 -0.9 0  2.25 -0.9 0  2.3 -0.9 0  2.35 -0.9 0  2.4 -0.9 0  2.45 -0.9 0  2.5 -0.9 0  2.55 -0.9 0  2.6 -0.9 0  2.65 -0.9 0  2.7 -0.9 0  2.75 -0.9 0  2.8 -0.9 0  2.85 -0.9 0  2.9 -0.9 0  2.95 -0.9 0  3 -0.9 0  3.050000000000001 -0.9 0  3.1 -0.9 0  3.15 -0.9 0  3.199999999999999 -0.9 0  3.25 -0.9 0  3.300000000000001 -0.9 0  3.35 -0.9 0  3.4 -0.9 0  3.449999999999999 -0.9 0  3.5 -0.9 0  3.550000000000001 -0.9 0  3.6 -0.9 0  3.65 -0.9 0  3.699999999999999 -0.9 0  3.75 -0.9 0  3.800000000000001 -0.9 0  3.85 -0.9 0  3.9 -0.9 0  3.949999999999999 -0.9 0  4 -0.9 0  4.050000000000001 -0.9 0  4.1 -0.9 0  4.15 -0.9 0  4.199999999999999 -0.9 0  4.25 -0.9 0  4.300000000000001 -0.9 0  4.35 -0.9 0  4.4 -0.9 0  4.449999999999999 -0.9 0  4.5 -0.9 0  4.550000000000001 -0.9 0  4.6 -0.9 0  4.65 -0.9 0  4.699999999999999 -0.9 0  4.75 -0.9 0  4.800000000000001 -0.9 0  4.85 -0.9 0  4.9 -0.9 0  4.949999999999999 -0.9 0  5 -0.9 0  -5 -0.85 0  -4.95 -0.85 0  -4.9 -0.85 0  -4.85 -0.85 0  -4.8 -0.85 0  -4.75 -0.85 0  -4.7 -0.85 0  -4.65 -0.85 0  -4.6 -0.85 0  -4.55 -0.85 0  -4.5 -0.85 0  -
[...]
<PointData  Vectors="f_15"> 
<DataArray  type="Float64"  Name="f_15"  NumberOfComponents="3" format="ascii">4.3153023228120793e+00 0.0000000000000000e+00 0.0000000000000000e+00  4.3257769148032192e+00 7.4411014239707682e-02 0.0000000000000000e+00  4.3120952613581105e+00 1.0122677255853224e-01 0.0000000000000000e+00  4.3257292221942638e+00 1.7816263345023878e-01 0.0000000000000000e+00  4.3142222488672521e+00 2.2358346970931392e-01 0.0000000000000000e+00  4.3232567767123662e+00 2.8983274930447472e-01 0.0000000000000000e+00  4.3137202627994533e+00 3.4199974444097841e-01 0.0000000000000000e+00  4.3252496262090920e+00 4.0350055412396990e-01 0.0000000000000000e+00  4.3111857768208575e+00 4.6220012492286261e-01 0.0000000000000000e+00  4.3246956405042303e+00 5.1631465545231658e-01 0.0000000000000000e+00  4.3128715533859463e+00 5.7927357628114018e-01 0.0000000000000000e+00  4.3221558615691471e+00 6.3501490627844004e-01 0.0000000000000000e+00  4.3121533167794928e+00 6.9364034132087882e-01 0.0000000000000000e+00  4.3236646043034224e+00 7.5033569094924590e-01 0.0000000000000000e+00  4.3093812082588689e+00 8.1421948570352654e-01 0.0000000000000000e+00  4.3230831381473021e+00 8.6358268037005048e-01 0.0000000000000000e+00  4.3103680077986795e+00 9.3016262425499763e-01 0.0000000000000000e+00  4.3204558081536106e+00 9.8388426662817319e-01 0.0000000000000000e+00  4.3095651087734002e+00 1.0441387723742739e+00 0.0000000000000000e+00  4.3212683533117628e+00 1.0990930944626276e+00 0.0000000000000000e+00  4.3067024358377353e+00 1.1652539841565668e+00 0.0000000000000000e+00  4.3205858669319470e+00 1.2125147151314446e+00 0.0000000000000000e+00  4.3069745225612719e+00 1.2810312466246903e+00 0.0000000000000000e+00  4.3177273080579530e+00 1.3330629996250529e+00 0.0000000000000000e+00  4.3062052894416949e+00 1.3946213541017958e+00 0.0000000000000000e+00  4.3174518805121282e+00 1.4493327745991929e+00 0.0000000000000000e+00  4.3033847472731308e+00 1.5137996618457270e+00 0.0000000000000000e+00  4.3163264676257906e+00 1.5644826952759321e+00 0.0000000000000000e+00  4.3028514438222851e+00 1.6283323255738678e+00 0.0000000000000000e+00  4.3130433245436457e+00 1.6849216303001175e+00 0.0000000000000000e+00  4.3019464434730956e+00 1.7418488311516087e+00 0.0000000000000000e+00  4.3114223976907509e+00 1.8005865283993658e+00 0.0000000000000000e+00  4.2991657233648075e+00 1.8618024071441834e+00 0.0000000000000000e+00  4.3095120293674336e+00 1.9117652570197081e+00 0.0000000000000000e+00  4.2978420701726199e+00 1.9824498305297922e+00 0.0000000000000000e+00  4.3056440569356589e+00 2.0243265305080778e+00 0.0000000000000000e+00  4.2966788101856137e+00 2.0997479227017166e+00 0.0000000000000000e+00  4.3027155480701369e+00 2.1419972725633607e+00 0.0000000000000000e+00  4.2937591610496204e+00 2.2101891156649565e+00 0.0000000000000000e+00  4.3001759063160794e+00 2.2639095547065593e+00 0.0000000000000000e+00  4.2914343624303273e+00 2.3232034172815199e+00 0.0000000000000000e+00  4.2959755248797329e+00 2.3749245913004171e+00 0.0000000000000000e+00  4.2897947509393424e+00 2.4490297846596105e+00 0.0000000000000000e+00  4.2919211268430013e+00 2.4795845405850634e+00 0.0000000000000000e+00  4.2867847870802631e+00 2.5696562548697286e+00 0.0000000000000000e+00  4.2885711518586502e+00 2.5961858685607386e+00 0.0000000000000000e+00  4.2837478981931714e+00 2.6806373054580814e+00 0.0000000000000000e+00  4.2840111072205582e+00 2.7129243552507525e+00 0.0000000000000000e+00  4.2813725334560147e+00 2.7984290904639297e+00 0.0000000000000000e+00  4.2793882879842808e+00 2.8231517108255408e+00 0.0000000000000000e+00  4.2778247489406205e+00 2.9153753405238829e+00 0.0000000000000000e+00  4.2754240098622285e+00 2.9409534764554484e+00 0.0000000000000000e+00  4.2741814759289998e+00 3.0229116962117661e+00 0.0000000000000000e+00  4.2703912999800071e+00 3.0636542275841525e+00 0.0000000000000000e+00  4.2709543980587874e+00 3.1318660617337013e+00 0.0000000000000000e+00  4.2655776284533955e+00 3.1783796938200530e+00 0.0000000000000000e+00  4.2662928692086455e+00 3.2519813159878312e+00 0.0000000000000000e+00  4.2614714816220394e+00 3.2828949438609580e+00 0.0000000000000000e+00  4.2616028284540279e+00 3.3739049132161334e+00 0.0000000000000000e+00  4.2561805360105920e+00 3.3981304666389565e+00 0.0000000000000000e+00  4.2573225727916180e+00 3.4752474770021013e+00 0.0000000000000000e+00  4.2512248740655085e+00 3.5302326501181955e+00 0.0000000000000000e+00  4.2514532877221365e+00 3.5768503864446584e+00 0.0000000000000000e+00  4.2470222429574971e+00 3.6409301511524297e+00 0.0000000000000000e+00  4.2454994919198485e+00 3.7062266675385036e+00 0.0000000000000000e+00  4.2416618206574279e+00 3.7379785277500468e+00 0.0000000000000000e+00  4.2397705095161733e+00 3.8226114395341946e+00 0.0000000000000000e+00  4.2368517942559958e+00 3.8644860245214629e+00 0.0000000000000000e+00  4.2321844077713013e+00 3.9152824371600947e+00 0.0000000000000000e+00  4.2329377352929916e+00 3.9898747796338050e+00 0.0000000000000000e+00  4.2245209943842905e+00 4.0309773726039753e+00 0.0000000000000000e+00  4.2275203141618034e+00 4.0885325647450026e+00 0.0000000000000000e+00  4.2176019939563041e+00 4.1557628557535784e+00 0.0000000000000000e+00  4.2220847960517309e+00 4.1991058793978588e+00 0.0000000000000000e+00  4.2089939313571048e+00 4.2589475544048820e+00 0.0000000000000000e+00  4.2176870221607494e+00 4.3217997885856470e+00 0.0000000000000000e+00  4.1999985864422378e+00 4.3664320677927924e+00 0.0000000000000000e+00  4.2116867297913796e+00 4.4283754360794765e+00 0.0000000000000000e+00  4.1923434510450841e+00 4.4872724535420616e+00 0.0000000000000000e+00  4.2046816469431096e+00 4.5317493743644857e+00 0.0000000000000000e+00  4.1838353762682967e+00 4.6002577774544759e+00 0.0000000000000000e+00  4.1981152577033862e+00 4.6447337573777858e+00 0.0000000000000000e+00  4.1753831551884026e+00 4.7073605154105431e+00 0.0000000000000000e+00  4.1890562564893736e+00 4.7560498320439235e+00 0.0000000000000000e+00  4.1695238492464135e+00 4.8187934270845503e+00 0.0000000000000000e+00  4.1775582428853202e+00 4.8630456323702358e+00 0.0000000000000000e+00  4.1635282626883630e+00 4.9295940358404149e+00 0.0000000000000000e+00  4.1668734357717918e+00 4.9732290969189030e+00 0.0000000000000000e+00  4.1561043949601366e+00 5.0347558975647422e+00 0.0000000000000000e+00  4.1554433933604873e+00 5.0867088516635937e+00 0.0000000000000000e+00  4.1498322610874503e+00 5.1378774893869545e+00 0.0000000000000000e+00  4.1423829533512748e+00 5.1987814907363479e+00 0.0000000000000000e+00  4.1421876651885139e+00 5.2427444229308007e+00 0.0000000000000000e+00  4.1323060168653267e+00 5.3067280451746788e+00 0.0000000000000000e+00  4.1301880408328770e+00 5.3504279209925567e+00 0.0000000000000000e+00  4.1233941897603703e+00 5.4117879404316227e+00 0.0000000000000000e+00  4.1196428112469325e+00 5.4570583984883285e+00 0.0000000000000000e+00  4.1107000265002958e+00 5.5175943861223136e+00 0.0000000000000000e+00  4.1100756593825771e+00 5.5622651017632450e+00 0.0000000000000000e+00  4.0990783892104803e+00 5.6213644685684754e+00 0.0000000000000000e+00  4.0974580236094109e+00 5.6682007985628635e+00 0.0000000000000000e+00  4.0878345226886861e+00 5.7238621798630573e+00 0.0000000000000000e+00  4.0857028943424210e+00 5.7720613697837209e+00 0.0000000000000000e+00  4.0739697205039009e+00 5.8271800408307524e+00 0.0000000000000000e+00  4.0743039984977862e+00 5.8735061790168546e+00 0.0000000000000000e+00  4.0605855781791051e+00 5.9294627616773923e+00 0.0000000000000000e+00  4.0607831003769306e+00 5.9748294947965555e+00 0.0000000000000000e+00  4.0475209447024572e+00 6.0291585411507729e+00 0.0000000000000000e+00  4.0467295924981865e+00 6.0760445480239555e+00 0.0000000000000000e+00  4.0336775125051592e+00 6.1276471550962484e+00 0.0000000000000000e+00  4.0317822718069891e+00 6.1750489754696929e+00 0.0000000000000000e+00  4.0197647228921243e+00 6.2260856374183966e+00 0.0000000000000000e+00  4.0170746369976458e+00 6.2707540975584903e+00 0.0000000000000000e+00  4.0036971983680587e+00 6.3242606483217596e+00 0.0000000000000000e+00  4.0032668761926704e+00 6.3644874004919982e+00 0.0000000000000000e+00  3.9873193613989257e+00 6.4200478650532702e+00 0.0000000000000000e+00  3.9874091688031772e+00 6.4576780615427625e+00 0.0000000000000000e+00  3.9727191616451698e+00 6.5121751263826813e+00 0.0000000000000000e+00  3.9697830741802975e+00 6.5503565677020834e+00 0.0000000000000000e+00  3.9584824285035762e+00 6.6008136797653139e+00 0.0000000000000000e+00  3.9519324545141248e+00 6.6410737268494895e+00 0.0000000000000000e+00  3.9447633070038868e+00 6.6861650180920797e+00 0.0000000000000000e+00  3.9337067754251720e+00 6.7288712153452774e+00 0.0000000000000000e+00  3.9314079954428838e+00 6.7687617194182037e+00 0.0000000000000000e+00  3.9171134622326251e+00 6.8110404677191960e+00 0.0000000000000000e+00  3.9174686469516922e+00 6.8492090673345514e+00 0.0000000000000000e+00  3.9035368938912800e+00 6.8854685250353569e+00 0.0000000000000000e+00  3.9043274254821805e+00 6.9263671480097431e+00 0.0000000000000000e+00  3.8924646151635369e+00 6.9514470543092433e+00 0.0000000000000000e+00  3.8936443158221792e+00 6.9958776506878122e+00 0.0000000000000000e+00  3.8856563764748842e+00 7.0150523399453615e+00 0.0000000000000000e+00  3.8820595499529564e+00 7.0467336926180577e+00 0.0000000000000000e+00  3.8878508408254500e+00 7.0843138262734300e+00 0.0000000000000000e+00  3.8662388764667757e+00 7.0788957800218490e+00 0.0000000000000000e+00  3.8961818077609762e+00 7.1518620461087270e+00 0.0000000000000000e+00  3.8482202039038302e+00 7.1022376797618358e+00 0.0000000000000000e+00  3.9079639387598495e+00 7.2233910740788234e+00 0.0000000000000000e+00  3.8225099101178168e+00 7.0860238749185811e+00 0.0000000000000000e+00  3.9426205271039390e+00 7.3556735357487284e+00 0.0000000000000000e+00  3.7845749335121974e+00 6.9202342419795499e+00 0.0000000000000000e+00  3.9585917373010231e+00 7.7250005177112060e+00 0.0000000000000000e+00  3.9915483743389824e+00 6.2286998549821293e+00 0.0000000000000000e+00  3.3521090905039150e+00 9.0056932953801869e+00 0.0000000000000000e+00  6.5901528486258476e+00 2.7169362059610305e+00 0.0000000000000000e+00  9.2535615665967370e+00 1.3848133674217952e-01 0.0000000000000000e+00  9.4824687625308410e+00 -9.5252736560709039e-02 0.0000000000000000e+00  9.3383109161256694e+00 -4.8484331606194149e-02 0.0000000000000000e+00  9.4322000435286508e+00 -7.5391506884190121e-02 0.0000000000000000e+00  9.4291645119893204e+00 -7.0814285298666582e-02 0.0000000000000000e+00  9.4485734809656439e+00 -8.6057751752114442e-02 0.0000000000000000e+00  9.4543791744751111e+00 -7.5801581197060708e-02 0.0000000000000000e+00  9.4505106400707533e+00 -6.3059006866320252e-02 0.0000000000000000e+00  9.4555589990644862e+00 -5.8472339264884925e-02 0.0000000000000000e+00  9.4701401189735037e+00 -6.8503535018190745e-02 0.0000000000000000e+00  9.4661224435439202e+00 -4.9444275893512767e-02 0.0000000000000000e+00  9.4723705237337104e+00 -6.0177175270815723e-02 0.0000000000000000e+00  9.4737245049190335e+00 -4.3442914348701359e-02 0.0000000000000000e+00  9.4796455226812331e+00 -5.6423292422746192e-02 0.0000000000000000e+00  9.4790956651785834e+00 -3.8751855442656968e-02 0.0000000000000000e+00  9.4849483576159468e+00 -5.3329979450677356e-02 0.0000000000000000e+00  9.4823787686178154e+00 -3.2238280633031260e-02 0.0000000000000000e+00  9.4890630742714048e+00 -5.1232451004698656e-02 0.0000000000000000e+00  9.4869996269765942e+00 -3.0710062140694189e-02 0.0000000000000000e+00  9.4906425258932945e+00 -4.5681715531048613e-02 0.0000000000000000e+00  9.4904266036557114e+00 -3.2770835693334950e-02 0.0000000000000000e+00  9.4931249959974320e+00 -4.1653087527508854e-02 0.0000000000000000e+00  9.4916850213829473e+00 -3.4780898166895176e-02 0.0000000000000000e+00  9.4959000174210537e+00 -3.9322172707371331e-02 0.0000000000000000e+00  9.4929512062828145e+00 -3.6500422559092388e-02 0.0000000000000000e+00  9.4964891616640106e+00 -3.7248757238269183e-02 0.0000000000000000e+00  9.4955534360121501e+00 -3.8831017518537091e-02 0.0000000000000000e+00  9.4965643511387015e+00 -3.5261563798006546e-02 0.0000000000000000e+00  9.4964075831641583e+00 -3.9723693470179927e-02 0.0000000000000000e+00  9.4981581910972590e+00 -3.7158103679737244e-02 0.0000000000000000e+00  9.4963731526546855e+00 -4.0652332507693387e-02 0.0000000000000000e+00  9.4987802737219944e+00 -4.1177637643527561e-02 0.0000000000000000e+00  9.4975794704018615e+00 -4.2764019657785146e-02 0.0000000000000000e+00  9.4983253308197728e+00 -4.6839381428707375e-02 0.0000000000000000e+00  9.4985593803144468e+00 -4.7404140343598265e-02 0.0000000000000000e+00  9.4986223210447545e+00 -5.4058281304515066e-02 0.0000000000000000e+00  9.4984951437176086e+00 -5.1906768865095911e-02 0.0000000000000000e+00  9.4992816471405046e+00 -6.1392407011293171e-02 0.0000000000000000e+00  9.4986118042594416e+00 -5.5767916480769134e-02 0.0000000000000000e+00  9.4991741695473113e+00 -6.5049986054928219e-02 0.0000000000000000e+00  9.4993582473293809e+00 -5.6384174324928690e-02 0.0000000000000000e+00  9.4988879294385953e+00 -7.1830112906101001e-02 0.0000000000000000e+00  9.4995611281323331e+00 -6.7162299918790011e-02 0.0000000000000000e+00  9.4991980989101226e+00 -8.2437743832124100e-02 0.0000000000000000e+00  9.4994365566148904e+00 -7.8798017964802111e-02 0.0000000000000000e+00  9.4992836093620205e+00 -9.3496991840979302e-02 0.0000000000000000e+00  9.4995880905846999e+00 -8.4084474751060401e-02 0.0000000000000000e+00  9.4992766653940190e+00 -9.9742328269312494e-02 0.0000000000000000e+00  9.4996790199894168e+00 -8.1907309370664400e-02 0.0000000000000000e+00  9.4991520024895717e+00 -8.7996546461666117e-02 0.0000000000000000e+00  9.5000530472519085e+00 -8.2353060041328738e-02 0.0000000000000000e+00  9.4990672790262494e+00 -7.5880985937796422e-02 0.0000000000000000e+00  9.4996474761439398e+00 -8.1847812655470031e-02 0.0000000000000000e+00  9.4997549432837580e+00 -6.3405491716494733e-02 0.0000000000000000e+00  9.4993641207817490e+00 -9.9080085147566804e-02 0.0000000000000000e+00  9.4991995936799345e+00 -2.1826512529696068e-02 0.0000000000000000e+00  9.5006275025274896e+00 0.0000000000000000e+00 0.0000000000000000e+00  4.3298401117647529e+00 0.0000000000000000e+00 -7.1383786863403490e-03  4.3251787064882325e+00 5.5133206338851326e-02 -4.8676318526567714e-03  4.3293152305642417e+00 1.2395695078567880e-01 1.3620006698882910e-02  4.3282676238294657e+00 1.7692235920539418e-01 -8.3483020786601914e-03  4.3266661565939302e+00 2.3919386969792109e-01 6.4725015549370489e-03  4.3279674306970533e+00 2.9421140049446903e-01 -3.8126777835713185e-03  4.3286629106085721e+00 3.5491012584897075e-01 2.4553488476252538e-03  4.3253299149616886e+00 4.1314703466542679e-01 -8.0584835181319887e-04  4.3279629594153164e+00 4.6886722642109008e-01 -1.0685527534471237e-04  4.3268769247642513e+00 5.3020347242338217e-01 1.5598474400275312e-03  4.3251564951839647e+00 5.8656056243674615e-01 -2.1204965963518966e-03  4.3258774370181543e+00 6.4518196482167001e-01 2.4991461909832082e-03  4.3263616301625536e+00 7.0197021993641218e-01 -2.0472059613470027e-03  4.3227759668465788e+00 7.6432278032704593e-01 2.0812391860375850e-03  4.3252494636650072e+00 8.1585267066178535e-01 -2.0582818837504794e-03  4.3234632557122135e+00 8.7957223100867254e-01 2.5367716183557452e-03  4.3219911805789533e+00 9.3540717417719876e-01 -2.5642881764923247e-03  4.3221294908119088e+00 9.9282251251745179e-01 2.7921222350536954e-03  4.3222424620204611e+00 1.0503379788814848e+00 -2.9237084423575864e-03  4.3186034190326668e+00 1.1127475715180977e+00 3.6315752734941949e-03  4.3208454983467499e+00 1.1627395902845525e+00 -4.3352170219585415e-03  4.3182339423312266e+00 1.2282361821830419e+00 5.2100913307468822e-03  4.3172865037656374e+00 1.2815664326723424e+00 -5.6866904578589577e-03  4.3165790541884759e+00 1.3415851669365735e+00 6.2176427410699023e-03  4.3165508497943641e+00 1.3959376388099081e+00 -6.5897757423795736e-03  4.3127888878801235e+00 1.4610313164724111e+00 7.1626651455760941e-03  4.3149245615671914e+00 1.5085049143559850e+00 -7.5366617229796788e-03  4.3114640630432479e+00 1.5762665072347308e+00 7.7796165806431573e-03  4.3111963464638015e+00 1.6267491001273422e+00 -7.5579773651372178e-03  4.3096970406094908e+00 1.6897315037247085e+00 7.1429229710724034e-03  4.3094281649561070e+00 1.7415237308617704e+00 -6.4677589988415959e-03  4.3060603547396372e+00 1.8081096071434568e+00 5.8030392923108390e-03  4.3074195647268700e+00 1.8544017254380589e+00 -5.0312364437755915e-03  4.3040691472878336e+00 1.9242684749477819e+00 4.3481715256329491e-03  4.3036322191001508e+00 1.9711645889303751e+00 -3.8417959118869226e-03  4.3020562250862504e+00 2.0374632019799086e+00 3.8704539431551202e-03  4.3012542733480554e+00 2.0894243990290384e+00 -4.4703371190558490e-03  4.2981333817538765e+00 2.1499443396416256e+00 5.5274281501833163e-03  4.2993653730918888e+00 2.2069100415531513e+00 -6.4906490094658632e-03  4.2950379421892579e+00 2.2662657070100232e+00 6.9591313504442998e-03  4.2957422551026987e+00 2.3173892994026111e+00 -6.7289555992558082e-03  4.2927107920957868e+00 2.3886765939369585e+00 6.1930882794748671e-03  4.2924482917996354e+00 2.4277992690222705e+00 -5.8703984665797564e-03  4.2888674066865535e+00 2.5033483228621760e+00 6.2279780886634415e-03  4.2900813993915152e+00 2.5484300119313588e+00 -7.2226797894784610e-03  4.2849178814055415e+00 2.6130497954736502e+00 8.4280976389259250e-03  4.2865273509432722e+00 2.6645197693888067e+00 -9.2275712847233824e-03  4.2818028237818959e+00 2.7322311186430754e+00 9.2891770919491020e-03  4.2826967275145034e+00 2.7744058753778895e+00 -8.6314393691470492e-03  4.2777290876497780e+00 2.8485575875839828e+00 7.8689044567540698e-03  4.2795378714854815e+00 2.8930456110860185e+00 -7.6845191620467856e-03  4.2733087037835817e+00 2.9573442159859957e+00 8.5728811287836375e-03  4.2757156455707586e+00 3.0115315537400322e+00 -1.0428382731307339e-02  4.2690280595799202e+00 3.0731258105762436e+00 1.2537436826034417e-02  4.2720582904395137e+00 3.1202948160073394e+00 -1.3931001719756170e-02  4.2637750015843210e+00 3.1958130193307981e+00 1.4202566495172719e-02  4.2684358533511721e+00 3.2270745221231323e+00 -1.3447325476551175e-02  4.2591362862996069e+00 3.3136297504474488e+00 1.2477656254463775e-02  4.2632071376661651e+00 3.3446028570321213e+00 -1.1798797609757597e-02  4.2551047072857031e+00 3.4176011846376366e+00 1.1475286549784275e-02  4.2581870253322585e+00 3.4704236679011116e+00 -1.1155332347701488e-02  4.2496754930521590e+00 3.5258122952940347e+00 1.0505230412361824e-02  4.2536544203822908e+00 3.5784418646910092e+00 -9.6282528904307902e-03  4.2444837014918093e+00 3.6534506930142152e+00 8.8655520835501968e-03  4.2476237118681945e+00 3.6801190547059033e+00 -8.2665802285123730e-03  4.2399267174068633e+00 3.7663920704577762e+00 7.6320691033998182e-03  4.2415979513054642e+00 3.8071683426301224e+00 -6.5485891201861731e-03  4.2341296149210788e+00 3.8617933185346458e+00 5.0590817109978543e-03  4.2359990431518639e+00 3.9290520773221256e+00 -3.6646770141766901e-03  4.2284127195140266e+00 3.9799838999415900e+00 2.8591333933935775e-03  4.2290524203085313e+00 4.0279095621637397e+00 -2.7070249046510920e-03  4.2232499277836952e+00 4.1028071428794775e+00 2.6169884084588048e-03  4.2219706676045003e+00 4.1415789517737203e+00 -1.8770390346040282e-03  4.2169813810453238e+00 4.2036053362021919e+00 2.6013914993547462e-04  4.2151689100935483e+00 4.2661671025188985e+00 1.7711198240806228e-03  4.2108287303762424e+00 4.3099309937263559e+00 -3.3945462303325495e-03  4.2068603809141996e+00 4.3746790381294751e+00 4.1181408203147607e-03  4.2053350963905487e+00 4.4282210451225090e+00 -4.1062510140037834e-03  4.1984479357747873e+00 4.4818485256410279e+00 3.9633657625286201e-03  4.1982271365717816e+00 4.5376595931685815e+00 -4.2473323427362460e-03  4.1911173505595176e+00 4.5980714702980503e+00 4.9764381247492627e-03  4.1904152604764215e+00 4.6431382402423464e+00 -5.7646941