<?xml version="1.0"?>
<VTKFile type="UnstructuredGrid"  version="0.1"  >
<UnstructuredGrid>
<Piece  NumberOfPoints="8241" NumberOfCells="16000">
<Points>
<DataArray  type="Float64"  NumberOfComponents="3"  format="ascii">-5 -1 0  -4.95 -1 0  -4.9 -1 0  -4.85 -1 0  -4.8 -1 0  -4.75 -1 0  -4.7 -1 0  -4.65 -1 0  -4.6 -1 0  -4.55 -1 0  -4.5 -1 0  -4.45 -1 0  -4.4 -1 0  -4.35 -1 0  -4.3 -1 0  -4.25 -1 0  -4.2 -1 0  -4.15 -1 0  -4.1 -1 0  -4.05 -1 0  -4 -1 0  -3.95 -1 0  -3.9 -1 0  -3.85 -1 0  -3.8 -1 0  -3.75 -1 0  -3.7 -1 0  -3.65 -1 0  -3.6 -1 0  -3.55 -1 0  -3.5 -1 0  -3.45 -1 0  -3.4 -1 0  -3.35 -1 0  -3.3 -1 0  -3.25 -1 0  -3.2 -1 0  -3.15 -1 0  -3.1 -1 0  -3.05 -1 0  -3 -1 0  -2.95 -1 0  -2.9 -1 0  -2.85 -1 0  -2.8 -1 0  -2.75 -1 0  -2.7 -1 0  -2.65 -1 0  -2.6 -1 0  -2.55 -1 0  -2.5 -1 0  -2.45 -1 0  -2.4 -1 0  -2.35 -1 0  -2.3 -1 0  -2.25 -1 0  -2.2 -1 0  -2.15 -1 0  -2.1 -1 0  -2.05 -1 0  -2 -1 0  -1.95 -1 0  -1.9 -1 0  -1.85 -1 0  -1.8 -1 0  -1.75 -1 0  -1.7 -1 0  -1.65 -1 0  -1.6 -1 0  -1.55 -1 0  -1.5 -1 0  -1.45 -1 0  -1.4 -1 0  -1.35 -1 0  -1.3 -1 0  -1.25 -1 0  -1.2 -1 0  -1.15 -1 0  -1.1 -1 0  -1.05 -1 0  -1 -1 0  -0.9500000000000002 -1 0  -0.9000000000000004 -1 0  -0.8499999999999996 -1 0  -0.7999999999999998 -1 0  -0.75 -1 0  -0.7000000000000002 -1 0  -0.6500000000000004 -1 0  -0.5999999999999996 -1 0  -0.5499999999999998 -1 0  -0.5 -1 0  -0.4500000000000002 -1 0  -0.4000000000000004 -1 0  -0.3499999999999996 -1 0  -0.2999999999999998 -1 0  -0.25 -1 0  -0.2000000000000002 -1 0  -0.1500000000000004 -1 0  -0.09999999999999964 -1 0  -0.04999999999999982 -1 0  0 -1 0  0.04999999999999982 -1 0  0.09999999999999964 -1 0  0.1500000000000004 -1 0  0.2000000000000002 -1 0  0.25 -1 0  0.2999999999999998 -1 0  0.3499999999999996 -1 0  0.4000000000000004 -1 0  0.4500000000000002 -1 0  0.5 -1 0  0.5499999999999998 -1 0  0.5999999999999996 -1 0  0.6500000000000004 -1 0  0.7000000000000002 -1 0  0.75 -1 0  0.7999999999999998 -1 0  0.8499999999999996 -1 0  0.9000000000000004 -1 0  0.9500000000000002 -1 0  1 -1 0  1.05 -1 0  1.1 -1 0  1.15 -1 0  1.2 -1 0  1.25 -1 0  1.3 -1 0  1.35 -1 0  1.4 -1 0  1.45 -1 0  1.5 -1 0  1.55 -1 0  1.6 -1 0  1.65 -1 0  1.7 -1 0  1.75 -1 0  1.8 -1 0  1.85 -1 0  1.9 -1 0  1.95 -1 0  2 -1 0  2.05 -1 0  2.1 -1 0  2.15 -1 0  2.2 -1 0  2.25 -1 0  2.3 -1 0  2.35 -1 0  2.4 -1 0  2.45 -1 0  2.5 -1 0  2.55 -1 0  2.6 -1 0  2.65 -1 0  2.7 -1 0  2.75 -1 0  2.8 -1 0  2.85 -1 0  2.9 -1 0  2.95 -1 0  3 -1 0  3.050000000000001 -1 0  3.1 -1 0  3.15 -1 0  3.199999999999999 -1 0  3.25 -1 0  3.300000000000001 -1 0  3.35 -1 0  3.4 -1 0  3.449999999999999 -1 0  3.5 -1 0  3.550000000000001 -1 0  3.6 -1 0  3.65 -1 0  3.699999999999999 -1 0  3.75 -1 0  3.800000000000001 -1 0  3.85 -1 0  3.9 -1 0  3.949999999999999 -1 0  4 -1 0  4.050000000000001 -1 0  4.1 -1 0  4.15 -1 0  4.199999999999999 -1 0  4.25 -1 0  4.300000000000001 -1 0  4.35 -1 0  4.4 -1 0  4.449999999999999 -1 0  4.5 -1 0  4.550000000000001 -1 0  4.6 -1 0  4.65 -1 0  4.699999999999999 -1 0  4.75 -1 0  4.800000000000001 -1 0  4.85 -1 0  4.9 -1 0  4.949999999999999 -1 0  5 -1 0  -5 -0.95 0  -4.95 -0.95 0  -4.9 -0.95 0  -4.85 -0.95 0  -4.8 -0.95 0  -4.75 -0.95 0  -4.7 -0.95 0  -4.65 -0.95 0  -4.6 -0.95 0  -4.55 -0.95 0  -4.5 -0.95 0  -4.45 -0.95 0  -4.4 -0.95 0  -4.35 -0.95 0  -4.3 -0.95 0  -4.25 -0.95 0  -4.2 -0.95 0  -4.15 -0.95 0  -4.1 -0.95 0  -4.05 -0.95 0  -4 -0.95 0  -3.95 -0.95 0  -3.9 -0.95 0  -3.85 -0.95 0  -3.8 -0.95 0  -3.75 -0.95 0  -3.7 -0.95 0  -3.65 -0.95 0  -3.6 -0.95 0  -3.55 -0.95 0  -3.5 -0.95 0  -3.45 -0.95 0  -3.4 -0.95 0  -3.35 -0.95 0  -3.3 -0.95 0  -3.25 -0.95 0  -3.2 -0.95 0  -3.15 -0.95 0  -3.1 -0.95 0  -3.05 -0.95 0  -3 -0.95 0  -2.95 -0.95 0  -2.9 -0.95 0  -2.85 -0.95 0  -2.8 -0.95 0  -2.75 -0.95 0  -2.7 -0.95 0  -2.65 -0.95 0  -2.6 -0.95 0  -2.55 -0.95 0  -2.5 -0.95 0  -2.45 -0.95 0  -2.4 -0.95 0  -2.35 -0.95 0  -2.3 -0.95 0  -2.25 -0.95 0  -2.2 -0.95 0  -2.15 -0.95 0  -2.1 -0.95 0  -2.05 -0.95 0  -2 -0.95 0  -1.95 -0.95 0  -1.9 -0.95 0  -1.85 -0.95 0  -1.8 -0.95 0  -1.75 -0.95 0  -1.7 -0.95 0  -1.65 -0.95 0  -1.6 -0.95 0  -1.55 -0.95 0  -1.5 -0.95 0  -1.45 -0.95 0  -1.4 -0.95 0  -1.35 -0.95 0  -1.3 -0.95 0  -1.25 -0.95 0  -1.2 -0.95 0  -1.15 -0.95 0  -1.1 -0.95 0  -1.05 -0.95 0  -1 -0.95 0  -0.9500000000000002 -0.95 0  -0.9000000000000004 -0.95 0  -0.8499999999999996 -0.95 0  -0.7999999999999998 -0.95 0  -0.75 -0.95 0  -0.7000000000000002 -0.95 0  -0.6500000000000004 -0.95 0  -0.5999999999999996 -0.95 0  -0.5499999999999998 -0.95 0  -0.5 -0.95 0  -0.4500000000000002 -0.95 0  -0.4000000000000004 -0.95 0  -0.3499999999999996 -0.95 0  -0.2999999999999998 -0.95 0  -0.25 -0.95 0  -0.2000000000000002 -0.95 0  -0.1500000000000004 -0.95 0  -0.09999999999999964 -0.95 0  -0.04999999999999982 -0.95 0  0 -0.95 0  0.04999999999999982 -0.95 0  0.09999999999999964 -0.95 0  0.1500000000000004 -0.95 0  0.2000000000000002 -0.95 0  0.25 -0.95 0  0.2999999999999998 -0.95 0  0.3499999999999996 -0.95 0  0.4000000000000004 -0.95 0  0.4500000000000002 -0.95 0  0.5 -0.95 0  0.5499999999999998 -0.95 0  0.5999999999999996 -0.95 0  0.6500000000000004 -0.95 0  0.7000000000000002 -0.95 0  0.75 -0.95 0  0.7999999999999998 -0.95 0  0.8499999999999996 -0.95 0  0.9000000000000004 -0.95 0  0.9500000000000002 -0.95 0  1 -0.95 0  1.05 -0.95 0  1.1 -0.95 0  1.15 -0.95 0  1.2 -0.95 0  1.25 -0.95 0  1.3 -0.95 0  1.35 -0.95 0  1.4 -0.95 0  1.45 -0.95 0  1.5 -0.95 0  1.55 -0.95 0  1.6 -0.95 0  1.65 -0.95 0  1.7 -0.95 0  1.75 -0.95 0  1.8 -0.95 0  1.85 -0.95 0  1.9 -0.95 0  1.95 -0.95 0  2 -0.95 0  2.05 -0.95 0  2.1 -0.95 0  2.15 -0.95 0  2.2 -0.95 0  2.25 -0.95 0  2.3 -0.95 0  2.35 -0.95 0  2.4 -0.95 0  2.45 -0.95 0  2.5 -0.95 0  2.55 -0.95 0  2.6 -0.95 0  2.65 -0.95 0  2.7 -0.95 0  2.75 -0.95 0  2.8 -0.95 0  2.85 -0.95 0  2.9 -0.95 0  2.95 -0.95 0  3 -0.95 0  3.050000000000001 -0.95 0  3.1 -0.95 0  3.15 -0.95 0  3.199999999999999 -0.95 0  3.25 -0.95 0  3.300000000000001 -0.95 0  3.35 -0.95 0  3.4 -0.95 0  3.449999999999999 -0.95 0  3.5 -0.95 0  3.550000000000001 -0.95 0  3.6 -0.95 0  3.65 -0.95 0  3.699999999999999 -0.95 0  3.75 -0.95 0  3.800000000000001 -0.95 0  3.85 -0.95 0  3.9 -0.95 0  3.949999999999999 -0.95 0  4 -0.95 0  4.050000000000001 -0.95 0  4.1 -0.95 0  4.15 -0.95 0  4.199999999999999 -0.95 0  4.25 -0.95 0  4.300000000000001 -0.95 0  4.35 -0.95 0  4.4 -0.95 0  4.449999999999999 -0.95 0  4.5 -0.95 0  4.550000000000001 -0.95 0  4.6 -0.95 0  4.65 -0.95 0  4.699999999999999 -0.95 0  4.75 -0.95 0  4.800000000000001 -0.95 0  4.85 -0.95 0  4.9 -0.95 0  4.949999999999999 -0.95 0  5 -0.95 0  -5 -0.9 0  -4.95 -0.9 0  -4.9 -0.9 0  -4.85 -0.9 0  -4.8 -0.9 0  -4.75 -0.9 0  -4.7 -0.9 0  -4.65 -0.9 0  -4.6 -0.9 0  -4.55 -0.9 0  -4.5 -0.9 0  -4.45 -0.9 0  -4.4 -0.9 0  -4.35 -0.9 0  -4.3 -0.9 0  -4.25 -0.9 0  -4.2 -0.9 0  -4.15 -0.9 0  -4.1 -0.9 0  -4.05 -0.9 0  -4 -0.9 0  -3.95 -0.9 0  -3.9 -0.9 0  -3.85 -0.9 0  -3.8 -0.9 0  -3.75 -0.9 0  -3.7 -0.9 0  -3.65 -0.9 0  -3.6 -0.9 0  -3.55 -0.9 0  -3.5 -0.9 0  -3.45 -0.9 0  -3.4 -0.9 0  -3.35 -0.9 0  -3.3 -0.9 0  -3.25 -0.9 0  -3.2 -0.9 0  -3.15 -0.9 0  -3.1 -0.9 0  -3.05 -0.9 0  -3 -0.9 0  -2.95 -0.9 0  -2.9 -0.9 0  -2.85 -0.9 0  -2.8 -0.9 0  -2.75 -0.9 0  -2.7 -0.9 0  -2.65 -0.9 0  -2.6 -0.9 0  -2.55 -0.9 0  -2.5 -0.9 0  -2.45 -0.9 0  -2.4 -0.9 0  -2.35 -0.9 0  -2.3 -0.9 0  -2.25 -0.9 0  -2.2 -0.9 0  -2.15 -0.9 0  -2.1 -0.9 0  -2.05 -0.9 0  -2 -0.9 0  -1.95 -0.9 0  -1.9 -0.9 0  -1.85 -0.9 0  -1.8 -0.9 0  -1.75 -0.9 0  -1.7 -0.9 0  -1.65 -0.9 0  -1.6 -0.9 0  -1.55 -0.9 0  -1.5 -0.9 0  -1.45 -0.9 0  -1.4 -0.9 0  -1.35 -0.9 0  -1.3 -0.9 0  -1.25 -0.9 0  -1.2 -0.9 0  -1.15 -0.9 0  -1.1 -0.9 0  -1.05 -0.9 0  -1 -0.9 0  -0.9500000000000002 -0.9 0  -0.9000000000000004 -0.9 0  -0.8499999999999996 -0.9 0  -0.7999999999999998 -0.9 0  -0.75 -0.9 0  -0.7000000000000002 -0.9 0  -0.6500000000000004 -0.9 0  -0.5999999999999996 -0.9 0  -0.5499999999999998 -0.9 0  -0.5 -0.9 0  -0.4500000000000002 -0.9 0  -0.4000000000000004 -0.9 0  -0.3499999999999996 -0.9 0  -0.2999999999999998 -0.9 0  -0.25 -0.9 0  -0.2000000000000002 -0.9 0  -0.1500000000000004 -0.9 0  -0.09999999999999964 -0.9 0  -0.04999999999999982 -0.9 0  0 -0.9 0  0.04999999999999982 -0.9 0  0.09999999999999964 -0.9 0  0.1500000000000004 -0.9 0  0.2000000000000002 -0.9 0  0.25 -0.9 0  0.2999999999999998 -0.9 0  0.3499999999999996 -0.9 0  0.4000000000000004 -0.9 0  0.4500000000000002 -0.9 0  0.5 -0.9 0  0.5499999999999998 -0.9 0  0.5999999999999996 -0.9 0  0.6500000000000004 -0.9 0  0.7000000000000002 -0.9 0  0.75 -0.9 0  0.7999999999999998 -0.9 0  0.8499999999999996 -0.9 0  0.9000000000000004 -0.9 0  0.9500000000000002 -0.9 0  1 -0.9 0  1.05 -0.9 0  1.1 -0.9 0  1.15 -0.9 0  1.2 -0.9 0  1.25 -0.9 0  1.3 -0.9 0  1.35 -0.9 0  1.4 -0.9 0  1.45 -0.9 0  1.5 -0.9 0  1.55 -0.9 0  1.6 -0.9 0  1.65 -0.9 0  1.7 -0.9 0  1.75 -0.9 0  1.8 -0.9 0  1.85 -0.9 0  1.9 -0.9 0  1.95 -0.9 0  2 -0.9 0  2.05 -0.9 0  2.1 -0.9 0  2.15 -0.9 0  2.2 -0.9 0  2.25 -0.9 0  2.3 -0.9 0  2.35 -0.9 0  2.4 -0.9 0  2.45 -0.9 0  2.5 -0.9 0  2.55 -0.9 0  2.6 -0.9 0  2.65 -0.9 0  2.7 -0.9 0  2.75 -0.9 0  2.8 -0.9 0  2.85 -0.9 0  2.9 -0.9 0  2.95 -0.9 0  3 -0.9 0  3.050000000000001 -0.9 0  3.1 -0.9 0  3.15 -0.9 0  3.199999999999999 -0.9 0  3.25 -0.9 0  3.300000000000001 -0.9 0  3.35 -0.9 0  3.4 -0.9 0  3.449999999999999 -0.9 0  3.5 -0.9 0  3.550000000000001 -0.9 0  3.6 -0.9 0  3.65 -0.9 0  3.699999999999999 -0.9 0  3.75 -0.9 0  3.800000000000001 -0.9 0  3.85 -0.9 0  3.9 -0.9 0  3.949999999999999 -0.9 0  4 -0.9 0  4.050000000000001 -0.9 0  4.1 -0.9 0  4.15 -0.9 0  4.199999999999999 -0.9 0  4.25 -0.9 0  4.300000000000001 -0.9 0  4.35 -0.9 0  4.4 -0.9 0  4.449999999999999 -0.9 0  4.5 -0.9 0  4.550000000000001 -0.9 0  4.6 -0.9 0  4.65 -0.9 0  4.699999999999999 -0.9 0  4.75 -0.9 0  4.800000000000001 -0.9 0  4.85 -0.9 0  4.9 -0.9 0  4.949999999999999 -0.9 0  5 -0.9 0  -5 -0.85 0  -4.95 -0.85 0  -4.9 -0.85 0  -4.85 -0.85 0  -4.8 -0.85 0  -4.75 -0.85 0  -4.7 -0.85 0  -4.65 -0.85 0  -4.6 -0.85 0  -4.55 -0.85 0  -4.5 -0.85 0  -
[...]
<PointData  Vectors="f_15"> 
<DataArray  type="Float64"  Name="f_15"  NumberOfComponents="3" format="ascii">7.8392427925201469e+00 0.0000000000000000e+00 0.0000000000000000e+00  7.8388035737327444e+00 8.5825208055403557e-02 0.0000000000000000e+00  7.8374743776757674e+00 1.7169634866067152e-01 0.0000000000000000e+00  7.8352739303847247e+00 2.5738543981126483e-01 0.0000000000000000e+00  7.8321776756054522e+00 3.4302985837478028e-01 0.0000000000000000e+00  7.8281856828531486e+00 4.2843476728848850e-01 0.0000000000000000e+00  7.8233076806780515e+00 5.1368882965055607e-01 0.0000000000000000e+00  7.8175150266598061e+00 5.9863116378161785e-01 0.0000000000000000e+00  7.8108092707737935e+00 6.8333494538006490e-01 0.0000000000000000e+00  7.8031873496191446e+00 7.6764051540688283e-01 0.0000000000000000e+00  7.7946317298927843e+00 8.5162283483702195e-01 0.0000000000000000e+00  7.7851222453449855e+00 9.3512381850822790e-01 0.0000000000000000e+00  7.7746774790344428e+00 1.0182202748110656e+00 0.0000000000000000e+00  7.7632483484429580e+00 1.1007377916451910e+00 0.0000000000000000e+00  7.7508488128256454e+00 1.1827892954976387e+00 0.0000000000000000e+00  7.7374550829658801e+00 1.2641652150852170e+00 0.0000000000000000e+00  7.7230633851314456e+00 1.3449849659201303e+00 0.0000000000000000e+00  7.7076404074177391e+00 1.4250888995297135e+00 0.0000000000000000e+00  7.6912104304059028e+00 1.5045054891223459e+00 0.0000000000000000e+00  7.6737259511948492e+00 1.5831808754384609e+00 0.0000000000000000e+00  7.6551998589640080e+00 1.6610627079994398e+00 0.0000000000000000e+00  7.6356180972785230e+00 1.7381764336266672e+00 0.0000000000000000e+00  7.6149761322303124e+00 1.8143521195261652e+00 0.0000000000000000e+00  7.5932582214652413e+00 1.8898477181621354e+00 0.0000000000000000e+00  7.5704839828904147e+00 1.9641579566199368e+00 0.0000000000000000e+00  7.5466340285503808e+00 2.0379275522354581e+00 0.0000000000000000e+00  7.5217187518941415e+00 2.1103626521920060e+00 0.0000000000000000e+00  7.4957491334249111e+00 2.1822239151869036e+00 0.0000000000000000e+00  7.4687330421884255e+00 2.2528162956210371e+00 0.0000000000000000e+00  7.4406721023570679e+00 2.3226958324859557e+00 0.0000000000000000e+00  7.4116081898555155e+00 2.3914082840919342e+00 0.0000000000000000e+00  7.3815362847193695e+00 2.4593265859432440e+00 0.0000000000000000e+00  7.3504998617477808e+00 2.5261533492990051e+00 0.0000000000000000e+00  7.3185109626566334e+00 2.5921637549464247e+00 0.0000000000000000e+00  7.2856292163638114e+00 2.6571196335682634e+00 0.0000000000000000e+00  7.2518410697849429e+00 2.7213131485383508e+00 0.0000000000000000e+00  7.2172525221427328e+00 2.7845109489034381e+00 0.0000000000000000e+00  7.1818284697743264e+00 2.8469193840650053e+00 0.0000000000000000e+00  7.1456936688357535e+00 2.9085228097563305e+00 0.0000000000000000e+00  7.1087997222012351e+00 2.9693078352168714e+00 0.0000000000000000e+00  7.0713170653858786e+00 3.0293875638874836e+00 0.0000000000000000e+00  7.0331311457928845e+00 3.0887309949937785e+00 0.0000000000000000e+00  6.9944941940913603e+00 3.1474975222907289e+00 0.0000000000000000e+00  6.9552177748054502e+00 3.2055035176945252e+00 0.0000000000000000e+00  6.9156236899802330e+00 3.2631436498286619e+00 0.0000000000000000e+00  6.8754380036638576e+00 3.3200113657413390e+00 0.0000000000000000e+00  6.8351032951728410e+00 3.3766881441703722e+00 0.0000000000000000e+00  6.7941731449189664e+00 3.4325720576225827e+00 0.0000000000000000e+00  6.7532919860279588e+00 3.4884797692583991e+00 0.0000000000000000e+00  6.7117870150118462e+00 3.5435144823606390e+00 0.0000000000000000e+00  6.6705338932619016e+00 3.5988507662140665e+00 0.0000000000000000e+00  6.6285875256267888e+00 3.6531426937260068e+00 0.0000000000000000e+00  6.5871453869816445e+00 3.7080699865945532e+00 0.0000000000000000e+00  6.5448574957695964e+00 3.7617320577638340e+00 0.0000000000000000e+00  6.5033786861114775e+00 3.8164160304955854e+00 0.0000000000000000e+00  6.4608482636200399e+00 3.8694859944336009e+00 0.0000000000000000e+00  6.4194596794738805e+00 3.9240978859533824e+00 0.0000000000000000e+00  6.3767434141521147e+00 3.9766144490396536e+00 0.0000000000000000e+00  6.3355871513437449e+00 4.0312764379621777e+00 0.0000000000000000e+00  6.2927068313495376e+00 4.0832678879497255e+00 0.0000000000000000e+00  6.2518899928960199e+00 4.1381044528784967e+00 0.0000000000000000e+00  6.2088837860708370e+00 4.1895394257955747e+00 0.0000000000000000e+00  6.1684901420521090e+00 4.2446949548258912e+00 0.0000000000000000e+00  6.1253498897382599e+00 4.2955368267545833e+00 0.0000000000000000e+00  6.0854957717366140e+00 4.3511018159135357e+00 0.0000000000000000e+00  6.0421930663377470e+00 4.4013190416035028e+00 0.0000000000000000e+00  6.0029460589299699e+00 4.4574037901069685e+00 0.0000000000000000e+00  5.9594865232383931e+00 4.5069176354930010e+00 0.0000000000000000e+00  5.9209140906985800e+00 4.5636210491940608e+00 0.0000000000000000e+00  5.8772409143562925e+00 4.6123860550915259e+00 0.0000000000000000e+00  5.8394440517127917e+00 4.6697764182063350e+00 0.0000000000000000e+00  5.7955253596372751e+00 4.7177119175112612e+00 0.0000000000000000e+00  5.7585287561468448e+00 4.7758978805657666e+00 0.0000000000000000e+00  5.7143619746723333e+00 4.8229340791511897e+00 0.0000000000000000e+00  5.6782293480580162e+00 4.8819456337078302e+00 0.0000000000000000e+00  5.6337485618310152e+00 4.9280478237381624e+00 0.0000000000000000e+00  5.5985406007194669e+00 4.9879793263594516e+00 0.0000000000000000e+00  5.5537435481511377e+00 5.0330157967720446e+00 0.0000000000000000e+00  5.5194632673587805e+00 5.0939293532202878e+00 0.0000000000000000e+00  5.4743457296200058e+00 5.1379495434385145e+00 0.0000000000000000e+00  5.4410149443654685e+00 5.1997455111498896e+00 0.0000000000000000e+00  5.3955967256099502e+00 5.2427349687014670e+00 0.0000000000000000e+00  5.3631844050530946e+00 5.3055491575987990e+00 0.0000000000000000e+00  5.3174960467620940e+00 5.3473694099798337e+00 0.0000000000000000e+00  5.2860138603223454e+00 5.4111102225178902e+00 0.0000000000000000e+00  5.2400827516381332e+00 5.4520824264327423e+00 0.0000000000000000e+00  5.2094262711366985e+00 5.5163607584213707e+00 0.0000000000000000e+00  5.1634314739095846e+00 5.5566613464427324e+00 0.0000000000000000e+00  5.1334750296306950e+00 5.6215454304156074e+00 0.0000000000000000e+00  5.0874411327455356e+00 5.6610526688308020e+00 0.0000000000000000e+00  5.0582207988430703e+00 5.7263209647868418e+00 0.0000000000000000e+00  5.0122819943398964e+00 5.7656603923693339e+00 0.0000000000000000e+00  4.9834669100184632e+00 5.8304449429805096e+00 0.0000000000000000e+00  4.9379915448748051e+00 5.8702535564323233e+00 0.0000000000000000e+00  4.9094885366344219e+00 5.9343737942951345e+00 0.0000000000000000e+00  4.8643146705824538e+00 5.9744092846677441e+00 0.0000000000000000e+00  4.8362692768988591e+00 6.0379350168950658e+00 0.0000000000000000e+00  4.7916393589128097e+00 6.0788315098291559e+00 0.0000000000000000e+00  4.7634583908420369e+00 6.1403594162202868e+00 0.0000000000000000e+00  4.7199716158564984e+00 6.1833667215914287e+00 0.0000000000000000e+00  4.6917211291792036e+00 6.2425063170600188e+00 0.0000000000000000e+00  4.6488421910763797e+00 6.2866262377742688e+00 0.0000000000000000e+00  4.6210882458534508e+00 6.3445228025985889e+00 0.0000000000000000e+00  4.5789703407413818e+00 6.3897952292253475e+00 0.0000000000000000e+00  4.5507329520888424e+00 6.4448358137191821e+00 0.0000000000000000e+00  4.5104216677712223e+00 6.4930788459150568e+00 0.0000000000000000e+00  4.4818246866858562e+00 6.5448431784819201e+00 0.0000000000000000e+00  4.4422583098035844e+00 6.5937915258597082e+00 0.0000000000000000e+00  4.4146707639704124e+00 6.6449639601676571e+00 0.0000000000000000e+00  4.3755457085733411e+00 6.6941428295928311e+00 0.0000000000000000e+00  4.3479032534731745e+00 6.7419224343377291e+00 0.0000000000000000e+00  4.3113194552895724e+00 6.7937836235757416e+00 0.0000000000000000e+00  4.2834207560568300e+00 6.8378019253751150e+00 0.0000000000000000e+00  4.2478831718060732e+00 6.8884194937455554e+00 0.0000000000000000e+00  4.2224815665050075e+00 6.9319931125422576e+00 0.0000000000000000e+00  4.1876707345501014e+00 6.9812584276399940e+00 0.0000000000000000e+00  4.1633067178571235e+00 7.0175008966677836e+00 0.0000000000000000e+00  4.1330685317304772e+00 7.0709758802854017e+00 0.0000000000000000e+00  4.1098538428779818e+00 7.0970884954497286e+00 0.0000000000000000e+00  4.0828053293229836e+00 7.1462029427595128e+00 0.0000000000000000e+00  4.0662345883769797e+00 7.1687430608031368e+00 0.0000000000000000e+00  4.0412858179775002e+00 7.2103226088226871e+00 0.0000000000000000e+00  4.0308762748731546e+00 7.2171494895958226e+00 0.0000000000000000e+00  4.0112305781563009e+00 7.2678085533588304e+00 0.0000000000000000e+00  4.0057443625009732e+00 7.2479528938902584e+00 0.0000000000000000e+00  3.9877929176018161e+00 7.3059984349512987e+00 0.0000000000000000e+00  3.9909480111509197e+00 7.2755366834557353e+00 0.0000000000000000e+00  3.9715892033224560e+00 7.3251656427568905e+00 0.0000000000000000e+00  3.9820134194960950e+00 7.2940989544545802e+00 0.0000000000000000e+00  3.9611273402950862e+00 7.3381827162567594e+00 0.0000000000000000e+00  3.9807012164077364e+00 7.2996902531782810e+00 0.0000000000000000e+00  3.9507525043208167e+00 7.3519376582007379e+00 0.0000000000000000e+00  3.9836001526470879e+00 7.2919644528204879e+00 0.0000000000000000e+00  3.9449114844722866e+00 7.3724631551629480e+00 0.0000000000000000e+00  3.9832756862098821e+00 7.2767774546527635e+00 0.0000000000000000e+00  3.9427519594516895e+00 7.3856376514514457e+00 0.0000000000000000e+00  3.9849170817657171e+00 7.2781677457087079e+00 0.0000000000000000e+00  3.9377043584411258e+00 7.3765440561848781e+00 0.0000000000000000e+00  3.9887261397572602e+00 7.2922818551896551e+00 0.0000000000000000e+00  3.9343007469661537e+00 7.3681944324920741e+00 0.0000000000000000e+00  3.9904996827335228e+00 7.2945844443180876e+00 0.0000000000000000e+00  3.9307750206164385e+00 7.3708100292920040e+00 0.0000000000000000e+00  3.9953654305290076e+00 7.2926604853338706e+00 0.0000000000000000e+00  3.9254501567411197e+00 7.3724939570809118e+00 0.0000000000000000e+00  3.9972009911565887e+00 7.2889877989461054e+00 0.0000000000000000e+00  3.9276234496372577e+00 7.3810420863160768e+00 0.0000000000000000e+00  3.9926506311425833e+00 7.2787301166816780e+00 0.0000000000000000e+00  3.9303179653616613e+00 7.3871263064236175e+00 0.0000000000000000e+00  3.9929311044584956e+00 7.2812840152556468e+00 0.0000000000000000e+00  3.9285661581624951e+00 7.3787619940339306e+00 0.0000000000000000e+00  3.9924626977805833e+00 7.2885358660473489e+00 0.0000000000000000e+00  3.9317434815081125e+00 7.3779970265581047e+00 0.0000000000000000e+00  3.9888729654304433e+00 7.2846420259110305e+00 0.0000000000000000e+00  3.9320844499559566e+00 7.3798643793982830e+00 0.0000000000000000e+00  3.9916174761828072e+00 7.2901941530539807e+00 0.0000000000000000e+00  3.9293339317545097e+00 7.3685393049637105e+00 0.0000000000000000e+00  3.9902609441931070e+00 7.3008852351499289e+00 0.0000000000000000e+00  3.9348842192230378e+00 7.3637568688469033e+00 0.0000000000000000e+00  3.9836313536510382e+00 7.3002031385949637e+00 0.0000000000000000e+00  3.9388273051448381e+00 7.3644060624653296e+00 0.0000000000000000e+00  3.9821925816563359e+00 7.3043508046146641e+00 0.0000000000000000e+00  3.9404636095180878e+00 7.3550576701758814e+00 0.0000000000000000e+00  3.9774164573060502e+00 7.3148658407456395e+00 0.0000000000000000e+00  3.9476760075387185e+00 7.3469722387659333e+00 0.0000000000000000e+00  3.9706925922452281e+00 7.3189988395125916e+00 0.0000000000000000e+00  3.9512328148294928e+00 7.3448044251977977e+00 0.0000000000000000e+00  3.9693085327046114e+00 7.3212553988542846e+00 0.0000000000000000e+00  3.9527825908799041e+00 7.3408462676973381e+00 0.0000000000000000e+00  3.9656487402596809e+00 7.3270494341261010e+00 0.0000000000000000e+00  3.9572457385726092e+00 7.3328112995577586e+00 0.0000000000000000e+00  3.9628444035660433e+00 7.3360103935515966e+00 0.0000000000000000e+00  3.9566387597128081e+00 7.3253609531143828e+00 0.0000000000000000e+00  3.9646910665417936e+00 7.3381276282771024e+00 0.0000000000000000e+00  3.9570528389050006e+00 7.3299831877811634e+00 0.0000000000000000e+00  3.9585534908751105e+00 7.3286371934085874e+00 0.0000000000000000e+00  3.9679079040132894e+00 7.3401582300048291e+00 0.0000000000000000e+00  3.9440099940935922e+00 7.3205117024945752e+00 0.0000000000000000e+00  3.9773254912841431e+00 7.3536350754113364e+00 0.0000000000000000e+00  3.9297075323088166e+00 7.3022233800771357e+00 0.0000000000000000e+00  3.9890760265600789e+00 7.3900393937618363e+00 0.0000000000000000e+00  3.8985817306125954e+00 7.2473787422254263e+00 0.0000000000000000e+00  4.0287470746361516e+00 7.4918187456686152e+00 0.0000000000000000e+00  3.8436938724386991e+00 7.0563936256643833e+00 0.0000000000000000e+00  4.0394811218098470e+00 7.8459366256404932e+00 0.0000000000000000e+00  4.0153004838427808e+00 6.3528066480806320e+00 0.0000000000000000e+00  3.4133793402655628e+00 9.1378408667207314e+00 0.0000000000000000e+00  6.3990129313833393e+00 3.0573620974631699e+00 0.0000000000000000e+00  9.3402463978741999e+00 1.6869226256279396e-01 0.0000000000000000e+00  9.5574768082385262e+00 -6.2847062158668296e-02 0.0000000000000000e+00  9.3920938821339242e+00 -3.2847083951733858e-02 0.0000000000000000e+00  9.5018161837838750e+00 -7.8542635156476595e-02 0.0000000000000000e+00  9.4781718084353006e+00 -8.2274732713099999e-02 0.0000000000000000e+00  9.4971559907502137e+00 -9.7136857717231642e-02 0.0000000000000000e+00  9.4981221731543819e+00 -9.2177091083512658e-02 0.0000000000000000e+00  9.4822246013325522e+00 -7.8161337448013263e-02 0.0000000000000000e+00  9.4915481973705287e+00 -7.6371910381233810e-02 0.0000000000000000e+00  9.4945669582379217e+00 -8.7111881558370394e-02 0.0000000000000000e+00  9.4911264204315771e+00 -5.8944178618776662e-02 0.0000000000000000e+00  9.4903850270538346e+00 -1.0523557898994869e-01 0.0000000000000000e+00  9.4954325235807318e+00 -2.1368019041084776e-02 0.0000000000000000e+00  9.4893573320412727e+00 0.0000000000000000e+00 0.0000000000000000e+00  7.8392385730910359e+00 0.0000000000000000e+00 -7.7385740100215852e-06  7.8387962155964148e+00 8.5880466397632221e-02 1.9705394766336708e-05  7.8374764371393653e+00 1.7167025939083144e-01 -2.9216983716995455e-05  7.8352692916981121e+00 2.5742667919120771e-01 2.5562683437696305e-05  7.8321685184994365e+00 3.4301309237863481e-01 -2.5054915339875007e-05  7.8281881091577388e+00 4.2846894829336218e-01 2.4444842681732613e-05  7.8233013689573383e+00 5.1367310834589164e-01 -2.4352052847381005e-05  7.8175066079733853e+00 5.9866691441719333e-01 2.4543542410040428e-05  7.8108097493520550e+00 6.8331650147856826e-01 -2.5012259431745567e-05  7.8031824077634644e+00 7.6767495249142703e-01 2.5902130784989897e-05  7.7946210090641168e+00 8.5160456751442337e-01 -2.7167523867658484e-05  7.7851245721378284e+00 9.3515896418346911e-01 2.8996713407404344e-05  7.7746697896778265e+00 1.0181928036500487e+00 -3.1610292484344975e-05  7.7632399132823702e+00 1.1007817724406908e+00 3.5939448814827387e-05  7.7508485872859811e+00 1.1827542790627037e+00 -4.2464595684663006e-05  7.7374483104704197e+00 1.2642034236077075e+00 5.1431542722541024e-05  7.7230551380376422e+00 1.3449594535011589e+00 -6.1338148919453118e-05  7.7076374103499630e+00 1.4251159606719610e+00 7.1133812117679296e-05  7.6912077075572531e+00 1.5044776518360237e+00 -7.9307479989793793e-05  7.6737111881024536e+00 1.5832138972182876e+00 8.6964479441036422e-05  7.6552047451281799e+00 1.6610322011268013e+00 -9.4104039895207003e-05  7.6356042384025757e+00 1.7381867713473143e+00 1.0194826447043606e-04  7.6149745831299409e+00 1.8143669501639497e+00 -1.0745275327881645e-04  7.5932466003544503e+00 1.8897993450789186e+00 1.0929581824618309e-04  7.5704873209446228e+00 1.9642142789261616e+00 -1.0390661460430150e-04  7.5466139283407516e+00 2.0378702652570624e+00 9.4517538025420389e-05  7.5217245323939501e+00 2.1103930743452382e+00 -8.2762145713193334e-05  7.4957344964240109e+00 2.1822049466761220e+00 7.4667388851767390e-05  7.4687293030981321e+00 2.2528165809960785e+00 -6.7842261910857401e-05  7.4406616199864324e+00 2.3226915834398398e+00 6.2326993868784295e-05  7.4116066176529065e+00 2.3914017707046926e+00 -5.2468004472065540e-05  7.3815212844066904e+00 2.4593278987278255e+00 4.2446877274951142e-05  7.3504963628914384e+00 2.5261526614523926e+00 -3.2726532776518708e-05  7.3185041578461538e+00 2.5921427730033861e+00 2.9630176830671717e-05  7.2856157087604290e+00 2.6571460009258887e+00 -2.8844827803918316e-05  7.2518377880681388e+00 2.7212972460272051e+00 3.0864666833749624e-05  7.2172409919035738e+00 2.7844913249199315e+00 -2.9987304098393174e-05  7.1818226616284173e+00 2.8469608172088985e+00 2.9351014403238362e-05  7.1456771638470835e+00 2.9084871585003023e+00 -2.6031649763083821e-05  7.1088054520310342e+00 2.9693228321577383e+00 2.3961364613146255e-05  7.0712869780896721e+00 3.0293749544448465e+00 -2.1319261650782841e-05  7.0331452814017066e+00 3.0887697599456660e+00 2.1405391753463185e-05  6.9944596246541488e+00 3.1474319136741586e+00 -1.9572110688990751e-05  6.9552372684852175e+00 3.2055779184998698e+00 1.5422951175244822e-05  6.9155746551217989e+00 3.2630706263418308e+00 -7.2490343687374579e-06  6.8754814130571269e+00 3.3200880200305924e+00 4.6777657423075002e-07  6.8350242085388455e+00 3.3765932206916793e+00 4.7247204348340302e-06  6.7942444203215411e+00 3.4326762506462596e+00 -9.0747090678854837e-06  6.7531874304744610e+00 3.4883462931597453e+00 1.5749015107550130e-05  6.7118845880154510e+00 3.5436648887841877e+00 -2.2867285254900040e-05  6.6703919098299043e+00 3.5986517985860189e+00 2.9608418023831887e-05  6.6287344995123405e+00 3.6533460745217563e+00 -3.6356470667710016e-05  6.5869430861405087e+00 3.7078110759665917e+00 4.4315291205497655e-05  6.5450646568536941e+00 3.7620041064674634e+00 -5.2596050270046436e-05  6.5031149778941719e+00 3.8160479487837669e+00 6.0578404613445547e-05  6.4611187000234329e+00 3.8698711733004916e+00 -6.9480530773864942e-05  6.4191148179877926e+00 3.9236010709530897e+00 7.9334322992408545e-05  6.3771109367239198e+00 3.9771197022725637e+00 -8.9381864576195403e-05  6.3351269906245422e+00 4.0306374760820232e+00 9.8741438062107851e-05  6.2931867212362720e+00 4.0839212390216391e+00 -1.0856794606569675e-04  6.2513140550294919e+00 4.1372757818591106e+00 1.1826509291474051e-04  6.2094793722505388e+00 4.1904003985724190e+00 -1.2770762152309012e-04  6.1677692213530682e+00 4.2436362924811029e+00 1.3643240324465660e-04  6.1261076627176516e+00 4.2966222008717843e+00 -1.4522038380875122e-04  6.0845898985278373e+00 4.3497966610837127e+00 1.5312537575710994e-04  6.0431220813334701e+00 4.4026760977105006e+00 -1.6044978758678399e-04  6.0018606319942389e+00 4.4557919816811644e+00 1.6670148596744746e-04  5.9605985456633199e+00 4.5085962696525019e+00 -1.7227102267316957e-04  5.9196007590859852e+00 4.5616818511793671e+00 1.7624597472629187e-04  5.8785920943362386e+00 4.6144069120922770e+00 -1.7957395986372836e-04  5.8378787344368792e+00 4.6674634083083362e+00 1.8117712526133980e-04  5.7971016277397798e+00 4.7201478731692017e+00 -1.8169359872235847e-04  5.7567239257068179e+00 4.7731614843545920e+00 1.7976816756557138e-04  5.7161940758743333e+00 4.8257891298154423e+00 -1.7761885182450578e-04  5.6761278918560594e+00 4.8787838754981045e+00 1.7380312328670565e-04  5.6358781230770205e+00 4.9313780419808921e+00 -1.7078229458201220e-04  5.5961503394029206e+00 4.9842866098852312e+00 1.6485958559702530e-04  5.5561544278741497e+00 5.0368767705152546e+00 -1.5791624856833429e-04  5.5167851447583214e+00 5.0897479691887701e+00 1.4579628456931230e-04  5.4770639730243049e+00 5.1422459571625865e+00 -1.3333036741883459e-04  5.4380511071150659e+00 5.1950689579712623e+00 1.1729883932980877e-04  5.3986002852601525e+00 5.2476058785078266e+00 -1.0176829354124416e-04  5.3599522150600665e+00 5.3002