<?xml version="1.0"?>
<VTKFile type="UnstructuredGrid"  version="0.1"  >
<UnstructuredGrid>
<Piece  NumberOfPoints="8241" NumberOfCells="16000">
<Points>
<DataArray  type="Float64"  NumberOfComponents="3"  format="ascii">-5 -1 0  -4.95 -1 0  -4.9 -1 0  -4.85 -1 0  -4.8 -1 0  -4.75 -1 0  -4.7 -1 0  -4.65 -1 0  -4.6 -1 0  -4.55 -1 0  -4.5 -1 0  -4.45 -1 0  -4.4 -1 0  -4.35 -1 0  -4.3 -1 0  -4.25 -1 0  -4.2 -1 0  -4.15 -1 0  -4.1 -1 0  -4.05 -1 0  -4 -1 0  -3.95 -1 0  -3.9 -1 0  -3.85 -1 0  -3.8 -1 0  -3.75 -1 0  -3.7 -1 0  -3.65 -1 0  -3.6 -1 0  -3.55 -1 0  -3.5 -1 0  -3.45 -1 0  -3.4 -1 0  -3.35 -1 0  -3.3 -1 0  -3.25 -1 0  -3.2 -1 0  -3.15 -1 0  -3.1 -1 0  -3.05 -1 0  -3 -1 0  -2.95 -1 0  -2.9 -1 0  -2.85 -1 0  -2.8 -1 0  -2.75 -1 0  -2.7 -1 0  -2.65 -1 0  -2.6 -1 0  -2.55 -1 0  -2.5 -1 0  -2.45 -1 0  -2.4 -1 0  -2.35 -1 0  -2.3 -1 0  -2.25 -1 0  -2.2 -1 0  -2.15 -1 0  -2.1 -1 0  -2.05 -1 0  -2 -1 0  -1.95 -1 0  -1.9 -1 0  -1.85 -1 0  -1.8 -1 0  -1.75 -1 0  -1.7 -1 0  -1.65 -1 0  -1.6 -1 0  -1.55 -1 0  -1.5 -1 0  -1.45 -1 0  -1.4 -1 0  -1.35 -1 0  -1.3 -1 0  -1.25 -1 0  -1.2 -1 0  -1.15 -1 0  -1.1 -1 0  -1.05 -1 0  -1 -1 0  -0.9500000000000002 -1 0  -0.9000000000000004 -1 0  -0.8499999999999996 -1 0  -0.7999999999999998 -1 0  -0.75 -1 0  -0.7000000000000002 -1 0  -0.6500000000000004 -1 0  -0.5999999999999996 -1 0  -0.5499999999999998 -1 0  -0.5 -1 0  -0.4500000000000002 -1 0  -0.4000000000000004 -1 0  -0.3499999999999996 -1 0  -0.2999999999999998 -1 0  -0.25 -1 0  -0.2000000000000002 -1 0  -0.1500000000000004 -1 0  -0.09999999999999964 -1 0  -0.04999999999999982 -1 0  0 -1 0  0.04999999999999982 -1 0  0.09999999999999964 -1 0  0.1500000000000004 -1 0  0.2000000000000002 -1 0  0.25 -1 0  0.2999999999999998 -1 0  0.3499999999999996 -1 0  0.4000000000000004 -1 0  0.4500000000000002 -1 0  0.5 -1 0  0.5499999999999998 -1 0  0.5999999999999996 -1 0  0.6500000000000004 -1 0  0.7000000000000002 -1 0  0.75 -1 0  0.7999999999999998 -1 0  0.8499999999999996 -1 0  0.9000000000000004 -1 0  0.9500000000000002 -1 0  1 -1 0  1.05 -1 0  1.1 -1 0  1.15 -1 0  1.2 -1 0  1.25 -1 0  1.3 -1 0  1.35 -1 0  1.4 -1 0  1.45 -1 0  1.5 -1 0  1.55 -1 0  1.6 -1 0  1.65 -1 0  1.7 -1 0  1.75 -1 0  1.8 -1 0  1.85 -1 0  1.9 -1 0  1.95 -1 0  2 -1 0  2.05 -1 0  2.1 -1 0  2.15 -1 0  2.2 -1 0  2.25 -1 0  2.3 -1 0  2.35 -1 0  2.4 -1 0  2.45 -1 0  2.5 -1 0  2.55 -1 0  2.6 -1 0  2.65 -1 0  2.7 -1 0  2.75 -1 0  2.8 -1 0  2.85 -1 0  2.9 -1 0  2.95 -1 0  3 -1 0  3.050000000000001 -1 0  3.1 -1 0  3.15 -1 0  3.199999999999999 -1 0  3.25 -1 0  3.300000000000001 -1 0  3.35 -1 0  3.4 -1 0  3.449999999999999 -1 0  3.5 -1 0  3.550000000000001 -1 0  3.6 -1 0  3.65 -1 0  3.699999999999999 -1 0  3.75 -1 0  3.800000000000001 -1 0  3.85 -1 0  3.9 -1 0  3.949999999999999 -1 0  4 -1 0  4.050000000000001 -1 0  4.1 -1 0  4.15 -1 0  4.199999999999999 -1 0  4.25 -1 0  4.300000000000001 -1 0  4.35 -1 0  4.4 -1 0  4.449999999999999 -1 0  4.5 -1 0  4.550000000000001 -1 0  4.6 -1 0  4.65 -1 0  4.699999999999999 -1 0  4.75 -1 0  4.800000000000001 -1 0  4.85 -1 0  4.9 -1 0  4.949999999999999 -1 0  5 -1 0  -5 -0.95 0  -4.95 -0.95 0  -4.9 -0.95 0  -4.85 -0.95 0  -4.8 -0.95 0  -4.75 -0.95 0  -4.7 -0.95 0  -4.65 -0.95 0  -4.6 -0.95 0  -4.55 -0.95 0  -4.5 -0.95 0  -4.45 -0.95 0  -4.4 -0.95 0  -4.35 -0.95 0  -4.3 -0.95 0  -4.25 -0.95 0  -4.2 -0.95 0  -4.15 -0.95 0  -4.1 -0.95 0  -4.05 -0.95 0  -4 -0.95 0  -3.95 -0.95 0  -3.9 -0.95 0  -3.85 -0.95 0  -3.8 -0.95 0  -3.75 -0.95 0  -3.7 -0.95 0  -3.65 -0.95 0  -3.6 -0.95 0  -3.55 -0.95 0  -3.5 -0.95 0  -3.45 -0.95 0  -3.4 -0.95 0  -3.35 -0.95 0  -3.3 -0.95 0  -3.25 -0.95 0  -3.2 -0.95 0  -3.15 -0.95 0  -3.1 -0.95 0  -3.05 -0.95 0  -3 -0.95 0  -2.95 -0.95 0  -2.9 -0.95 0  -2.85 -0.95 0  -2.8 -0.95 0  -2.75 -0.95 0  -2.7 -0.95 0  -2.65 -0.95 0  -2.6 -0.95 0  -2.55 -0.95 0  -2.5 -0.95 0  -2.45 -0.95 0  -2.4 -0.95 0  -2.35 -0.95 0  -2.3 -0.95 0  -2.25 -0.95 0  -2.2 -0.95 0  -2.15 -0.95 0  -2.1 -0.95 0  -2.05 -0.95 0  -2 -0.95 0  -1.95 -0.95 0  -1.9 -0.95 0  -1.85 -0.95 0  -1.8 -0.95 0  -1.75 -0.95 0  -1.7 -0.95 0  -1.65 -0.95 0  -1.6 -0.95 0  -1.55 -0.95 0  -1.5 -0.95 0  -1.45 -0.95 0  -1.4 -0.95 0  -1.35 -0.95 0  -1.3 -0.95 0  -1.25 -0.95 0  -1.2 -0.95 0  -1.15 -0.95 0  -1.1 -0.95 0  -1.05 -0.95 0  -1 -0.95 0  -0.9500000000000002 -0.95 0  -0.9000000000000004 -0.95 0  -0.8499999999999996 -0.95 0  -0.7999999999999998 -0.95 0  -0.75 -0.95 0  -0.7000000000000002 -0.95 0  -0.6500000000000004 -0.95 0  -0.5999999999999996 -0.95 0  -0.5499999999999998 -0.95 0  -0.5 -0.95 0  -0.4500000000000002 -0.95 0  -0.4000000000000004 -0.95 0  -0.3499999999999996 -0.95 0  -0.2999999999999998 -0.95 0  -0.25 -0.95 0  -0.2000000000000002 -0.95 0  -0.1500000000000004 -0.95 0  -0.09999999999999964 -0.95 0  -0.04999999999999982 -0.95 0  0 -0.95 0  0.04999999999999982 -0.95 0  0.09999999999999964 -0.95 0  0.1500000000000004 -0.95 0  0.2000000000000002 -0.95 0  0.25 -0.95 0  0.2999999999999998 -0.95 0  0.3499999999999996 -0.95 0  0.4000000000000004 -0.95 0  0.4500000000000002 -0.95 0  0.5 -0.95 0  0.5499999999999998 -0.95 0  0.5999999999999996 -0.95 0  0.6500000000000004 -0.95 0  0.7000000000000002 -0.95 0  0.75 -0.95 0  0.7999999999999998 -0.95 0  0.8499999999999996 -0.95 0  0.9000000000000004 -0.95 0  0.9500000000000002 -0.95 0  1 -0.95 0  1.05 -0.95 0  1.1 -0.95 0  1.15 -0.95 0  1.2 -0.95 0  1.25 -0.95 0  1.3 -0.95 0  1.35 -0.95 0  1.4 -0.95 0  1.45 -0.95 0  1.5 -0.95 0  1.55 -0.95 0  1.6 -0.95 0  1.65 -0.95 0  1.7 -0.95 0  1.75 -0.95 0  1.8 -0.95 0  1.85 -0.95 0  1.9 -0.95 0  1.95 -0.95 0  2 -0.95 0  2.05 -0.95 0  2.1 -0.95 0  2.15 -0.95 0  2.2 -0.95 0  2.25 -0.95 0  2.3 -0.95 0  2.35 -0.95 0  2.4 -0.95 0  2.45 -0.95 0  2.5 -0.95 0  2.55 -0.95 0  2.6 -0.95 0  2.65 -0.95 0  2.7 -0.95 0  2.75 -0.95 0  2.8 -0.95 0  2.85 -0.95 0  2.9 -0.95 0  2.95 -0.95 0  3 -0.95 0  3.050000000000001 -0.95 0  3.1 -0.95 0  3.15 -0.95 0  3.199999999999999 -0.95 0  3.25 -0.95 0  3.300000000000001 -0.95 0  3.35 -0.95 0  3.4 -0.95 0  3.449999999999999 -0.95 0  3.5 -0.95 0  3.550000000000001 -0.95 0  3.6 -0.95 0  3.65 -0.95 0  3.699999999999999 -0.95 0  3.75 -0.95 0  3.800000000000001 -0.95 0  3.85 -0.95 0  3.9 -0.95 0  3.949999999999999 -0.95 0  4 -0.95 0  4.050000000000001 -0.95 0  4.1 -0.95 0  4.15 -0.95 0  4.199999999999999 -0.95 0  4.25 -0.95 0  4.300000000000001 -0.95 0  4.35 -0.95 0  4.4 -0.95 0  4.449999999999999 -0.95 0  4.5 -0.95 0  4.550000000000001 -0.95 0  4.6 -0.95 0  4.65 -0.95 0  4.699999999999999 -0.95 0  4.75 -0.95 0  4.800000000000001 -0.95 0  4.85 -0.95 0  4.9 -0.95 0  4.949999999999999 -0.95 0  5 -0.95 0  -5 -0.9 0  -4.95 -0.9 0  -4.9 -0.9 0  -4.85 -0.9 0  -4.8 -0.9 0  -4.75 -0.9 0  -4.7 -0.9 0  -4.65 -0.9 0  -4.6 -0.9 0  -4.55 -0.9 0  -4.5 -0.9 0  -4.45 -0.9 0  -4.4 -0.9 0  -4.35 -0.9 0  -4.3 -0.9 0  -4.25 -0.9 0  -4.2 -0.9 0  -4.15 -0.9 0  -4.1 -0.9 0  -4.05 -0.9 0  -4 -0.9 0  -3.95 -0.9 0  -3.9 -0.9 0  -3.85 -0.9 0  -3.8 -0.9 0  -3.75 -0.9 0  -3.7 -0.9 0  -3.65 -0.9 0  -3.6 -0.9 0  -3.55 -0.9 0  -3.5 -0.9 0  -3.45 -0.9 0  -3.4 -0.9 0  -3.35 -0.9 0  -3.3 -0.9 0  -3.25 -0.9 0  -3.2 -0.9 0  -3.15 -0.9 0  -3.1 -0.9 0  -3.05 -0.9 0  -3 -0.9 0  -2.95 -0.9 0  -2.9 -0.9 0  -2.85 -0.9 0  -2.8 -0.9 0  -2.75 -0.9 0  -2.7 -0.9 0  -2.65 -0.9 0  -2.6 -0.9 0  -2.55 -0.9 0  -2.5 -0.9 0  -2.45 -0.9 0  -2.4 -0.9 0  -2.35 -0.9 0  -2.3 -0.9 0  -2.25 -0.9 0  -2.2 -0.9 0  -2.15 -0.9 0  -2.1 -0.9 0  -2.05 -0.9 0  -2 -0.9 0  -1.95 -0.9 0  -1.9 -0.9 0  -1.85 -0.9 0  -1.8 -0.9 0  -1.75 -0.9 0  -1.7 -0.9 0  -1.65 -0.9 0  -1.6 -0.9 0  -1.55 -0.9 0  -1.5 -0.9 0  -1.45 -0.9 0  -1.4 -0.9 0  -1.35 -0.9 0  -1.3 -0.9 0  -1.25 -0.9 0  -1.2 -0.9 0  -1.15 -0.9 0  -1.1 -0.9 0  -1.05 -0.9 0  -1 -0.9 0  -0.9500000000000002 -0.9 0  -0.9000000000000004 -0.9 0  -0.8499999999999996 -0.9 0  -0.7999999999999998 -0.9 0  -0.75 -0.9 0  -0.7000000000000002 -0.9 0  -0.6500000000000004 -0.9 0  -0.5999999999999996 -0.9 0  -0.5499999999999998 -0.9 0  -0.5 -0.9 0  -0.4500000000000002 -0.9 0  -0.4000000000000004 -0.9 0  -0.3499999999999996 -0.9 0  -0.2999999999999998 -0.9 0  -0.25 -0.9 0  -0.2000000000000002 -0.9 0  -0.1500000000000004 -0.9 0  -0.09999999999999964 -0.9 0  -0.04999999999999982 -0.9 0  0 -0.9 0  0.04999999999999982 -0.9 0  0.09999999999999964 -0.9 0  0.1500000000000004 -0.9 0  0.2000000000000002 -0.9 0  0.25 -0.9 0  0.2999999999999998 -0.9 0  0.3499999999999996 -0.9 0  0.4000000000000004 -0.9 0  0.4500000000000002 -0.9 0  0.5 -0.9 0  0.5499999999999998 -0.9 0  0.5999999999999996 -0.9 0  0.6500000000000004 -0.9 0  0.7000000000000002 -0.9 0  0.75 -0.9 0  0.7999999999999998 -0.9 0  0.8499999999999996 -0.9 0  0.9000000000000004 -0.9 0  0.9500000000000002 -0.9 0  1 -0.9 0  1.05 -0.9 0  1.1 -0.9 0  1.15 -0.9 0  1.2 -0.9 0  1.25 -0.9 0  1.3 -0.9 0  1.35 -0.9 0  1.4 -0.9 0  1.45 -0.9 0  1.5 -0.9 0  1.55 -0.9 0  1.6 -0.9 0  1.65 -0.9 0  1.7 -0.9 0  1.75 -0.9 0  1.8 -0.9 0  1.85 -0.9 0  1.9 -0.9 0  1.95 -0.9 0  2 -0.9 0  2.05 -0.9 0  2.1 -0.9 0  2.15 -0.9 0  2.2 -0.9 0  2.25 -0.9 0  2.3 -0.9 0  2.35 -0.9 0  2.4 -0.9 0  2.45 -0.9 0  2.5 -0.9 0  2.55 -0.9 0  2.6 -0.9 0  2.65 -0.9 0  2.7 -0.9 0  2.75 -0.9 0  2.8 -0.9 0  2.85 -0.9 0  2.9 -0.9 0  2.95 -0.9 0  3 -0.9 0  3.050000000000001 -0.9 0  3.1 -0.9 0  3.15 -0.9 0  3.199999999999999 -0.9 0  3.25 -0.9 0  3.300000000000001 -0.9 0  3.35 -0.9 0  3.4 -0.9 0  3.449999999999999 -0.9 0  3.5 -0.9 0  3.550000000000001 -0.9 0  3.6 -0.9 0  3.65 -0.9 0  3.699999999999999 -0.9 0  3.75 -0.9 0  3.800000000000001 -0.9 0  3.85 -0.9 0  3.9 -0.9 0  3.949999999999999 -0.9 0  4 -0.9 0  4.050000000000001 -0.9 0  4.1 -0.9 0  4.15 -0.9 0  4.199999999999999 -0.9 0  4.25 -0.9 0  4.300000000000001 -0.9 0  4.35 -0.9 0  4.4 -0.9 0  4.449999999999999 -0.9 0  4.5 -0.9 0  4.550000000000001 -0.9 0  4.6 -0.9 0  4.65 -0.9 0  4.699999999999999 -0.9 0  4.75 -0.9 0  4.800000000000001 -0.9 0  4.85 -0.9 0  4.9 -0.9 0  4.949999999999999 -0.9 0  5 -0.9 0  -5 -0.85 0  -4.95 -0.85 0  -4.9 -0.85 0  -4.85 -0.85 0  -4.8 -0.85 0  -4.75 -0.85 0  -4.7 -0.85 0  -4.65 -0.85 0  -4.6 -0.85 0  -4.55 -0.85 0  -4.5 -0.85 0  -
[...]
<PointData  Vectors="f_15"> 
<DataArray  type="Float64"  Name="f_15"  NumberOfComponents="3" format="ascii">4.1676062632935285e+00 0.0000000000000000e+00 0.0000000000000000e+00  4.1816837918604683e+00 6.9947972278934650e-02 0.0000000000000000e+00  4.1664193809670813e+00 1.0214111471576845e-01 0.0000000000000000e+00  4.1805677208602177e+00 1.6978031580166700e-01 0.0000000000000000e+00  4.1676120283926430e+00 2.2010723509758057e-01 0.0000000000000000e+00  4.1794293418614155e+00 2.7826023730390970e-01 0.0000000000000000e+00  4.1665357624166113e+00 3.3470732540771841e-01 0.0000000000000000e+00  4.1804042218843485e+00 3.8807109649856608e-01 0.0000000000000000e+00  4.1653323813987599e+00 4.5099910748146477e-01 0.0000000000000000e+00  4.1792510400883307e+00 4.9789246381722191e-01 0.0000000000000000e+00  4.1664442665214443e+00 5.6360403712520857e-01 0.0000000000000000e+00  4.1775461622916659e+00 6.1303641425583077e-01 0.0000000000000000e+00  4.1655610436696442e+00 6.7507333453538643e-01 0.0000000000000000e+00  4.1784954821098443e+00 7.2374055843485119e-01 0.0000000000000000e+00  4.1635222950008908e+00 7.9222395567652693e-01 0.0000000000000000e+00  4.1777112292059551e+00 8.3397132572199417e-01 0.0000000000000000e+00  4.1644185019234579e+00 9.0384926690505163e-01 0.0000000000000000e+00  4.1752463807837348e+00 9.5030751226278642e-01 0.0000000000000000e+00  4.1637885673598625e+00 1.0153340186739002e+00 0.0000000000000000e+00  4.1760566083507804e+00 1.0608351710514203e+00 0.0000000000000000e+00  4.1608691321982452e+00 1.1326259067353845e+00 0.0000000000000000e+00  4.1756624418069883e+00 1.1718823905881326e+00 0.0000000000000000e+00  4.1614396067860406e+00 1.2435412906226442e+00 0.0000000000000000e+00  4.1724544747664938e+00 1.2890781150121582e+00 0.0000000000000000e+00  4.1611624867371084e+00 1.3542530790516334e+00 0.0000000000000000e+00  4.1727740080274556e+00 1.4012486918434193e+00 0.0000000000000000e+00  4.1576861987899898e+00 1.4693903156384573e+00 0.0000000000000000e+00  4.1725104783173252e+00 1.5145848223229215e+00 0.0000000000000000e+00  4.1577817669585881e+00 1.5787873370503229e+00 0.0000000000000000e+00  4.1686399480402372e+00 1.6324986402174455e+00 0.0000000000000000e+00  4.1577399047511401e+00 1.6891089787506226e+00 0.0000000000000000e+00  4.1679934804879339e+00 1.7443355436664605e+00 0.0000000000000000e+00  4.1541336295740132e+00 1.8062391651719369e+00 0.0000000000000000e+00  4.1672345477622734e+00 1.8514215617879215e+00 0.0000000000000000e+00  4.1537657617281818e+00 1.9257066857907990e+00 0.0000000000000000e+00  4.1626111613392158e+00 1.9573982325069490e+00 0.0000000000000000e+00  4.1538070492352723e+00 2.0431720372903417e+00 0.0000000000000000e+00  4.1606255443979707e+00 2.0705139789475488e+00 0.0000000000000000e+00  4.1503011850828777e+00 2.1488077160943511e+00 0.0000000000000000e+00  4.1591486868262599e+00 2.1926915549985702e+00 0.0000000000000000e+00  4.1490568483448307e+00 2.2560352315070458e+00 0.0000000000000000e+00  4.1543547919045114e+00 2.2999844487761356e+00 0.0000000000000000e+00  4.1485207493424330e+00 2.3823148826379676e+00 0.0000000000000000e+00  4.1512542654863784e+00 2.3969411208056677e+00 0.0000000000000000e+00  4.1451450025839174e+00 2.5021988401895543e+00 0.0000000000000000e+00  4.1488895653905882e+00 2.5117012243636117e+00 0.0000000000000000e+00  4.1430006653278157e+00 2.6056545075280129e+00 0.0000000000000000e+00  4.1442635629414895e+00 2.6300854009561796e+00 0.0000000000000000e+00  4.1413434222642813e+00 2.7181145008923684e+00 0.0000000000000000e+00  4.1407250005351619e+00 2.7347161217420699e+00 0.0000000000000000e+00  4.1376556885314750e+00 2.8380470457657516e+00 0.0000000000000000e+00  4.1376826978969383e+00 2.8429624110233380e+00 0.0000000000000000e+00  4.1347441097460660e+00 2.9448585436096506e+00 0.0000000000000000e+00  4.1330707301629452e+00 2.9663464443157141e+00 0.0000000000000000e+00  4.1319822626489602e+00 3.0428231089413336e+00 0.0000000000000000e+00  4.1293952732393260e+00 3.0851823963617337e+00 0.0000000000000000e+00  4.1275460250711511e+00 3.1572023058319449e+00 0.0000000000000000e+00  4.1260090184041189e+00 3.1847743287334933e+00 0.0000000000000000e+00  4.1237985677952977e+00 3.2788147626215838e+00 0.0000000000000000e+00  4.1212431260976246e+00 3.2966140535419526e+00 0.0000000000000000e+00  4.1201199567643929e+00 3.3750766928664184e+00 0.0000000000000000e+00  4.1173962443243939e+00 3.4277827055939381e+00 0.0000000000000000e+00  4.1147552209360754e+00 3.4736612397346343e+00 0.0000000000000000e+00  4.1139568533117341e+00 3.5349109225767656e+00 0.0000000000000000e+00  4.1098462432722709e+00 3.5989258348633584e+00 0.0000000000000000e+00  4.1092628566403802e+00 3.6330484919306216e+00 0.0000000000000000e+00  4.1049554335360874e+00 3.7084029330877453e+00 0.0000000000000000e+00  4.1054653004595245e+00 3.7572810425410603e+00 0.0000000000000000e+00  4.0983152153781326e+00 3.8020937505247892e+00 0.0000000000000000e+00  4.1021447639706228e+00 3.8751881472233634e+00 0.0000000000000000e+00  4.0921829652823734e+00 3.9161328758236933e+00 0.0000000000000000e+00  4.0972354235995327e+00 3.9754468886298846e+00 0.0000000000000000e+00  4.0864906225060871e+00 4.0319438416999205e+00 0.0000000000000000e+00  4.0929008267330911e+00 4.0867839964333150e+00 0.0000000000000000e+00  4.0789345085331874e+00 4.1349037607159369e+00 0.0000000000000000e+00  4.0893568995741436e+00 4.2011908813541696e+00 0.0000000000000000e+00  4.0716320898669300e+00 4.2443863814826779e+00 0.0000000000000000e+00  4.0841060990476787e+00 4.3054389550533356e+00 0.0000000000000000e+00  4.0651214652503791e+00 4.3589936778392682e+00 0.0000000000000000e+00  4.0791056103195107e+00 4.4103110249645132e+00 0.0000000000000000e+00  4.0567637246031634e+00 4.4694209907810603e+00 0.0000000000000000e+00  4.0748950750333393e+00 4.5172651032229796e+00 0.0000000000000000e+00  4.0489744689350076e+00 4.5803726406165834e+00 0.0000000000000000e+00  4.0678135100893602e+00 4.6210515319706698e+00 0.0000000000000000e+00  4.0437216047712052e+00 4.6932854276697293e+00 0.0000000000000000e+00  4.0591164008297351e+00 4.7242629737101201e+00 0.0000000000000000e+00  4.0379164217005794e+00 4.8032794055962436e+00 0.0000000000000000e+00  4.0506932336437247e+00 4.8317048258315367e+00 0.0000000000000000e+00  4.0324921471614665e+00 4.9073594966420497e+00 0.0000000000000000e+00  4.0398557246128624e+00 4.9434640631216888e+00 0.0000000000000000e+00  4.0289652621525089e+00 5.0080552754146224e+00 0.0000000000000000e+00  4.0279848856805209e+00 5.0557977737487159e+00 0.0000000000000000e+00  4.0237204945779945e+00 5.1087106428849260e+00 0.0000000000000000e+00  4.0187423866796497e+00 5.1654874209386268e+00 0.0000000000000000e+00  4.0150497866072206e+00 5.2127611458458043e+00 0.0000000000000000e+00  4.0109324179995083e+00 5.2700141814341173e+00 0.0000000000000000e+00  4.0065166838294601e+00 5.3188196556396390e+00 0.0000000000000000e+00  4.0009204353275072e+00 5.3745593154721698e+00 0.0000000000000000e+00  3.9987190908030303e+00 5.4223113572277786e+00 0.0000000000000000e+00  3.9915594881292189e+00 5.4787343039705316e+00 0.0000000000000000e+00  3.9884705190237146e+00 5.5270753104029948e+00 0.0000000000000000e+00  3.9827316851634729e+00 5.5802278738252964e+00 0.0000000000000000e+00  3.9789942002570382e+00 5.6310489682279314e+00 0.0000000000000000e+00  3.9714224429005309e+00 5.6831441866656904e+00 0.0000000000000000e+00  3.9703493779598622e+00 5.7316417754111688e+00 0.0000000000000000e+00  3.9605142498579413e+00 5.7858838502917553e+00 0.0000000000000000e+00  3.9593842691324865e+00 5.8329695794439722e+00 0.0000000000000000e+00  3.9506041884338834e+00 5.8853141435810894e+00 0.0000000000000000e+00  3.9480202489055429e+00 5.9347129361340309e+00 0.0000000000000000e+00  3.9391569870060819e+00 5.9846884999332941e+00 0.0000000000000000e+00  3.9372453135804739e+00 6.0330190737433007e+00 0.0000000000000000e+00  3.9271747473371721e+00 6.0851756640944972e+00 0.0000000000000000e+00  3.9262504003904266e+00 6.1287755161713804e+00 0.0000000000000000e+00  3.9142625550019590e+00 6.1843034156212413e+00 0.0000000000000000e+00  3.9157881650297934e+00 6.2241743735508344e+00 0.0000000000000000e+00  3.9007380623778536e+00 6.2811917260001797e+00 0.0000000000000000e+00  3.9040673307780343e+00 6.3185609979495032e+00 0.0000000000000000e+00  3.8890719487281569e+00 6.3752278351755081e+00 0.0000000000000000e+00  3.8902000954192055e+00 6.4137094766150993e+00 0.0000000000000000e+00  3.8781279083005469e+00 6.4644485962898965e+00 0.0000000000000000e+00  3.8764254607925683e+00 6.5080407243252560e+00 0.0000000000000000e+00  3.8675319512884347e+00 6.5520987095501484e+00 0.0000000000000000e+00  3.8619294139733351e+00 6.5979187134119623e+00 0.0000000000000000e+00  3.8579762003004765e+00 6.6379301444042138e+00 0.0000000000000000e+00  3.8487621014439615e+00 6.6845033244721535e+00 0.0000000000000000e+00  3.8475935601421303e+00 6.7207112898521082e+00 0.0000000000000000e+00  3.8377628358762284e+00 6.7623797709056896e+00 0.0000000000000000e+00  3.8406014012105687e+00 6.8068448693632115e+00 0.0000000000000000e+00  3.8234189013628193e+00 6.8241306532517028e+00 0.0000000000000000e+00  3.8428280160844430e+00 6.8977920686562229e+00 0.0000000000000000e+00  3.8023108658843214e+00 6.8703664074517707e+00 0.0000000000000000e+00  3.8525901935975604e+00 6.9912245447860570e+00 0.0000000000000000e+00  3.7778735799976824e+00 6.9066609747839589e+00 0.0000000000000000e+00  3.8609329112810049e+00 7.0799935029327727e+00 0.0000000000000000e+00  3.7606074003167773e+00 6.9291397309661109e+00 0.0000000000000000e+00  3.8686407534922114e+00 7.1941647335371766e+00 0.0000000000000000e+00  3.7643472383386598e+00 6.8366914036473982e+00 0.0000000000000000e+00  3.8262275510932926e+00 7.5016617373828360e+00 0.0000000000000000e+00  4.0209904713503226e+00 6.3211248411751102e+00 0.0000000000000000e+00  3.3018781851866041e+00 8.4253686815592950e+00 0.0000000000000000e+00  7.4782830138042842e+00 1.5778331654735924e+00 0.0000000000000000e+00  9.2412825555521252e+00 -6.9040602956252804e-03 0.0000000000000000e+00  9.3518084770486247e+00 -1.9137900429245056e-01 0.0000000000000000e+00  9.2779824372251909e+00 -1.4209575862374016e-01 0.0000000000000000e+00  9.3448267742972515e+00 -1.5234970020271521e-01 0.0000000000000000e+00  9.3589966671861315e+00 -1.5233062038201176e-01 0.0000000000000000e+00  9.3777517846141869e+00 -1.6027781548848730e-01 0.0000000000000000e+00  9.3869450185991266e+00 -1.3980716419004294e-01 0.0000000000000000e+00  9.3854099877274351e+00 -1.2555433044389658e-01 0.0000000000000000e+00  9.4036129830609116e+00 -1.2331594667600604e-01 0.0000000000000000e+00  9.4113700675027783e+00 -1.1392685262999276e-01 0.0000000000000000e+00  9.4198431012855899e+00 -1.0959206228130186e-01 0.0000000000000000e+00  9.4243791419551286e+00 -9.3518011499802267e-02 0.0000000000000000e+00  9.4330005229510530e+00 -9.7394268047340610e-02 0.0000000000000000e+00  9.4396164797856805e+00 -8.1023868849308150e-02 0.0000000000000000e+00  9.4461850099686639e+00 -8.7891047202799749e-02 0.0000000000000000e+00  9.4491465284970833e+00 -6.8249386046773927e-02 0.0000000000000000e+00  9.4573377847379518e+00 -7.9718146029758422e-02 0.0000000000000000e+00  9.4590977131629934e+00 -5.8447150775768661e-02 0.0000000000000000e+00  9.4657170221535285e+00 -7.2379353009390010e-02 0.0000000000000000e+00  9.4677164766886772e+00 -5.0187191368093367e-02 0.0000000000000000e+00  9.4725621854707285e+00 -6.5030851708408610e-02 0.0000000000000000e+00  9.4744030249588924e+00 -4.5155557287291682e-02 0.0000000000000000e+00  9.4791507549085701e+00 -5.8116146626669848e-02 0.0000000000000000e+00  9.4791924486913448e+00 -4.3038567975317611e-02 0.0000000000000000e+00  9.4844047116604511e+00 -5.2064253432152548e-02 0.0000000000000000e+00  9.4837360966876467e+00 -4.3298351742789835e-02 0.0000000000000000e+00  9.4877995893125036e+00 -4.6473696663434746e-02 0.0000000000000000e+00  9.4878847246553573e+00 -4.4202859057340456e-02 0.0000000000000000e+00  9.4906343721178423e+00 -4.2460481039295929e-02 0.0000000000000000e+00  9.4903727210080842e+00 -4.4256215577479170e-02 0.0000000000000000e+00  9.4937003986620656e+00 -4.0308434359505561e-02 0.0000000000000000e+00  9.4920675730780051e+00 -4.3052774115134612e-02 0.0000000000000000e+00  9.4955440402630575e+00 -4.1116026665552308e-02 0.0000000000000000e+00  9.4942349526482470e+00 -4.3929639933607240e-02 0.0000000000000000e+00  9.4963483001108937e+00 -4.3147023882663622e-02 0.0000000000000000e+00  9.4958839427138155e+00 -4.5829475020165607e-02 0.0000000000000000e+00  9.4974926781271165e+00 -4.8677125267318086e-02 0.0000000000000000e+00  9.4964017635632345e+00 -4.8836982106711974e-02 0.0000000000000000e+00  9.4987785762379655e+00 -5.6166358815639118e-02 0.0000000000000000e+00  9.4969700017512722e+00 -5.2963102526015757e-02 0.0000000000000000e+00  9.4989751416027701e+00 -6.2444025928824878e-02 0.0000000000000000e+00  9.4982048956072642e+00 -5.7172433431496493e-02 0.0000000000000000e+00  9.4988976806825676e+00 -6.5480517547826869e-02 0.0000000000000000e+00  9.4985346049952408e+00 -5.7538846737785823e-02 0.0000000000000000e+00  9.4997434898147031e+00 -7.2510176324894884e-02 0.0000000000000000e+00  9.4983509318585444e+00 -6.7656055218108607e-02 0.0000000000000000e+00  9.4998543665219728e+00 -8.3475338993377099e-02 0.0000000000000000e+00  9.4990489096599475e+00 -7.9117578592845961e-02 0.0000000000000000e+00  9.4995130111666022e+00 -9.3662007497825495e-02 0.0000000000000000e+00  9.4992158858651958e+00 -8.5094942344773369e-02 0.0000000000000000e+00  9.4997885933334967e+00 -9.9260855875514545e-02 0.0000000000000000e+00  9.4991722657679780e+00 -8.2009400763207715e-02 0.0000000000000000e+00  9.4998004804269875e+00 -8.8333749252134205e-02 0.0000000000000000e+00  9.4992530579179810e+00 -8.2019116951143528e-02 0.0000000000000000e+00  9.4999589952593109e+00 -7.5548380776479837e-02 0.0000000000000000e+00  9.4991305663101748e+00 -8.2304195819258741e-02 0.0000000000000000e+00  9.4997636694266561e+00 -6.3029955985022590e-02 0.0000000000000000e+00  9.4995120303335909e+00 -9.8621492228413335e-02 0.0000000000000000e+00  9.4995714462100409e+00 -2.1563527435757204e-02 0.0000000000000000e+00  9.4995133636721736e+00 0.0000000000000000e+00 0.0000000000000000e+00  4.1836443467856403e+00 0.0000000000000000e+00 -4.1857487077416053e-03  4.1812499961942189e+00 5.3295791761720529e-02 -6.0163646758038302e-03  4.1826147227016364e+00 1.1936947064060545e-01 1.2855540868352458e-02  4.1832208990090463e+00 1.7047845733245270e-01 -7.6485751568215197e-03  4.1818582230566621e+00 2.3206618130134060e-01 5.1148572216732245e-03  4.1823990212137403e+00 2.8501146653900883e-01 -2.3179839041543651e-03  4.1831744216594986e+00 3.4365104534552854e-01 4.3758147448247044e-04  4.1813361924824601e+00 4.0124876241770641e-01 1.2262290131957057e-03  4.1821705556266515e+00 4.5425174595159867e-01 -2.3833594929448935e-03  4.1823294829701112e+00 5.1485486557899696e-01 3.5597228962943677e-03  4.1806598572829774e+00 5.6856744133912818e-01 -3.9403949307494027e-03  4.1811490598683729e+00 6.2678605411261912e-01 3.9911028117318361e-03  4.1815320281406434e+00 6.8031484495012484e-01 -3.7338714365032621e-03  4.1789494429890830e+00 7.4256000320708571e-01 4.0930360063962746e-03  4.1804761588220520e+00 7.9122048258949540e-01 -4.5824493017620621e-03  4.1794495934226026e+00 8.5416331063610729e-01 5.3925329415422489e-03  4.1778835800206533e+00 9.0705744631180774e-01 -5.8613194316537876e-03  4.1782152195058773e+00 9.6529113538668421e-01 6.6626190141931500e-03  4.1783790982361229e+00 1.0172921045491421e+00 -7.5156206027654311e-03  4.1748037405936564e+00 1.0825570130722304e+00 8.8373483544698771e-03  4.1774725604767529e+00 1.1266700887217296e+00 -9.8679187421494147e-03  4.1747066220697251e+00 1.1942241948880414e+00 1.0814324115963650e-02  4.1738639079130424e+00 1.2419773751510890e+00 -1.1220984525301458e-02  4.1735432166280324e+00 1.3052194852587835e+00 1.1692481725041367e-02  4.1737027989808455e+00 1.3520886159268739e+00 -1.1950860539197618e-02  4.1692653697639583e+00 1.4211943586514018e+00 1.2401100009878908e-02  4.1727826917428521e+00 1.4624145900554397e+00 -1.2483443341897616e-02  4.1685576571093232e+00 1.5316985348674166e+00 1.2410029337814165e-02  4.1683297173168805e+00 1.5776885877153515e+00 -1.1810538468918743e-02  4.1675908242790385e+00 1.6421878594259662e+00 1.1109221220014372e-02  4.1672120990599524e+00 1.6882405825679199e+00 -1.0110718148888325e-02  4.1630993167883670e+00 1.7572798364036442e+00 9.1240478299672526e-03  4.1659777252895971e+00 1.7978490922078874e+00 -7.8208245275148049e-03  4.1619385925237866e+00 1.8698678151687831e+00 6.5115365231299231e-03  4.1610658121935131e+00 1.9105312072198972e+00 -5.2453183289971166e-03  4.1609692429456970e+00 1.9799946707854479e+00 4.6293435143816772e-03  4.1593103143039070e+00 2.0261032631641851e+00 -4.7618082870261114e-03  4.1561669986112113e+00 2.0862751023133441e+00 5.6918536946453484e-03  4.1583264905000279e+00 2.1434479745009556e+00 -6.7811151680549535e-03  4.1537864902405008e+00 2.1972178558692317e+00 7.6023542764563495e-03  4.1539832339407718e+00 2.2493061799448899e+00 -7.7330882986038569e-03  4.1522399183130192e+00 2.3197798832146339e+00 7.5623136578740965e-03  4.1515778662663285e+00 2.3525798186414835e+00 -7.4460434721274451e-03  4.1477056010641844e+00 2.4323458853903408e+00 7.9814326287254087e-03  4.1501252864254567e+00 2.4716601184518567e+00 -9.1159284019961487e-03  4.1444899335868737e+00 2.5350742625921909e+00 1.0506482803392453e-02  4.1463122893260964e+00 2.5872457410402787e+00 -1.1517107214737426e-02  4.1420444984282954e+00 2.6508879015082001e+00 1.1713769680288663e-02  4.1434164751480003e+00 2.6906958045561402e+00 -1.0971859062023619e-02  4.1378254950934075e+00 2.7687433261067476e+00 9.9591279056996211e-03  4.1409252351826833e+00 2.8024869685801095e+00 -9.3389653073541676e-03  4.1343951710999711e+00 2.8741122104834753e+00 9.7641745407825910e-03  4.1370635094368620e+00 2.9223734582675815e+00 -1.1173739740325119e-02  4.1309164182615516e+00 2.9801046152815567e+00 1.2818521349820439e-02  4.1342222572771554e+00 3.0326045621789541e+00 -1.3850657333480131e-02  4.1260092455476549e+00 3.0998808269264138e+00 1.3940850481387514e-02  4.1312281242920719e+00 3.1320965050572980e+00 -1.3180803925936060e-02  4.1223207711842589e+00 3.2190778218593428e+00 1.2325805636958620e-02  4.1264418043044495e+00 3.2453233633627470e+00 -1.1531983094631850e-02  4.1189713904068395e+00 3.3179120836647300e+00 1.0839497246294568e-02  4.1223937953091632e+00 3.3708391946664928e+00 -1.0075410773211224e-02  4.1141068721837009e+00 3.4225177348851479e+00 9.2428527106058755e-03  4.1186285124233741e+00 3.4746418720377235e+00 -8.6956978774543996e-03  4.1098110295182071e+00 3.5481440969044944e+00 8.5088690960367971e-03  4.1134196605856257e+00 3.5744377163421706e+00 -8.3192605010012129e-03  4.1059353941272443e+00 3.6565551808090895e+00 7.5886524171006687e-03  4.1084353339467299e+00 3.6984422425975896e+00 -5.9738367723101565e-03  4.1010888663809411e+00 3.7520649517622462e+00 3.8869314017557139e-03  4.1033861365856152e+00 3.8144058145745672e+00 -2.1049314591610690e-03  4.0968499254164996e+00 3.8674861476425568e+00 1.1423591285596702e-03  4.0969942861521895e+00 3.9148195824371204e+00 -8.6574618810305595e-04  4.0928214557880302e+00 3.9820638776131538e+00 5.2354824802108954e-04  4.0910607625794402e+00 4.0284538652276973e+00 4.6182950254233882e-04  4.0874599030906680e+00 4.0826752141458496e+00 -2.1203104634036993e-03  4.0852901702314188e+00 4.1454130836438523e+00 3.8771447422641398e-03  4.0826967850011666e+00 4.1899779602164244e+00 -5.1034771249151949e-03  4.0778516054783047e+00 4.2523894447601212e+00 5.6644348494500054e-03  4.0784815240773549e+00 4.3015382431549121e+00 -5.9056286971360021e-03  4.0708075750794084e+00 4.3614394316415179e+00 6.3420248176624932e-03  4.0725414402569102e+00 4.4073470202877845e+00 -7.1794096083806387e-03  4.0644248303926949e+00 4.4737752266866000e+00 8.2032758638222996e-03  4.0669055728216099e+00 4.5130962345677776e+00 -9.0020