<?xml version="1.0"?>
<VTKFile type="UnstructuredGrid"  version="0.1"  >
<UnstructuredGrid>
<Piece  NumberOfPoints="8241" NumberOfCells="16000">
<Points>
<DataArray  type="Float64"  NumberOfComponents="3"  format="ascii">-5 -1 0  -4.95 -1 0  -4.9 -1 0  -4.85 -1 0  -4.8 -1 0  -4.75 -1 0  -4.7 -1 0  -4.65 -1 0  -4.6 -1 0  -4.55 -1 0  -4.5 -1 0  -4.45 -1 0  -4.4 -1 0  -4.35 -1 0  -4.3 -1 0  -4.25 -1 0  -4.2 -1 0  -4.15 -1 0  -4.1 -1 0  -4.05 -1 0  -4 -1 0  -3.95 -1 0  -3.9 -1 0  -3.85 -1 0  -3.8 -1 0  -3.75 -1 0  -3.7 -1 0  -3.65 -1 0  -3.6 -1 0  -3.55 -1 0  -3.5 -1 0  -3.45 -1 0  -3.4 -1 0  -3.35 -1 0  -3.3 -1 0  -3.25 -1 0  -3.2 -1 0  -3.15 -1 0  -3.1 -1 0  -3.05 -1 0  -3 -1 0  -2.95 -1 0  -2.9 -1 0  -2.85 -1 0  -2.8 -1 0  -2.75 -1 0  -2.7 -1 0  -2.65 -1 0  -2.6 -1 0  -2.55 -1 0  -2.5 -1 0  -2.45 -1 0  -2.4 -1 0  -2.35 -1 0  -2.3 -1 0  -2.25 -1 0  -2.2 -1 0  -2.15 -1 0  -2.1 -1 0  -2.05 -1 0  -2 -1 0  -1.95 -1 0  -1.9 -1 0  -1.85 -1 0  -1.8 -1 0  -1.75 -1 0  -1.7 -1 0  -1.65 -1 0  -1.6 -1 0  -1.55 -1 0  -1.5 -1 0  -1.45 -1 0  -1.4 -1 0  -1.35 -1 0  -1.3 -1 0  -1.25 -1 0  -1.2 -1 0  -1.15 -1 0  -1.1 -1 0  -1.05 -1 0  -1 -1 0  -0.9500000000000002 -1 0  -0.9000000000000004 -1 0  -0.8499999999999996 -1 0  -0.7999999999999998 -1 0  -0.75 -1 0  -0.7000000000000002 -1 0  -0.6500000000000004 -1 0  -0.5999999999999996 -1 0  -0.5499999999999998 -1 0  -0.5 -1 0  -0.4500000000000002 -1 0  -0.4000000000000004 -1 0  -0.3499999999999996 -1 0  -0.2999999999999998 -1 0  -0.25 -1 0  -0.2000000000000002 -1 0  -0.1500000000000004 -1 0  -0.09999999999999964 -1 0  -0.04999999999999982 -1 0  0 -1 0  0.04999999999999982 -1 0  0.09999999999999964 -1 0  0.1500000000000004 -1 0  0.2000000000000002 -1 0  0.25 -1 0  0.2999999999999998 -1 0  0.3499999999999996 -1 0  0.4000000000000004 -1 0  0.4500000000000002 -1 0  0.5 -1 0  0.5499999999999998 -1 0  0.5999999999999996 -1 0  0.6500000000000004 -1 0  0.7000000000000002 -1 0  0.75 -1 0  0.7999999999999998 -1 0  0.8499999999999996 -1 0  0.9000000000000004 -1 0  0.9500000000000002 -1 0  1 -1 0  1.05 -1 0  1.1 -1 0  1.15 -1 0  1.2 -1 0  1.25 -1 0  1.3 -1 0  1.35 -1 0  1.4 -1 0  1.45 -1 0  1.5 -1 0  1.55 -1 0  1.6 -1 0  1.65 -1 0  1.7 -1 0  1.75 -1 0  1.8 -1 0  1.85 -1 0  1.9 -1 0  1.95 -1 0  2 -1 0  2.05 -1 0  2.1 -1 0  2.15 -1 0  2.2 -1 0  2.25 -1 0  2.3 -1 0  2.35 -1 0  2.4 -1 0  2.45 -1 0  2.5 -1 0  2.55 -1 0  2.6 -1 0  2.65 -1 0  2.7 -1 0  2.75 -1 0  2.8 -1 0  2.85 -1 0  2.9 -1 0  2.95 -1 0  3 -1 0  3.050000000000001 -1 0  3.1 -1 0  3.15 -1 0  3.199999999999999 -1 0  3.25 -1 0  3.300000000000001 -1 0  3.35 -1 0  3.4 -1 0  3.449999999999999 -1 0  3.5 -1 0  3.550000000000001 -1 0  3.6 -1 0  3.65 -1 0  3.699999999999999 -1 0  3.75 -1 0  3.800000000000001 -1 0  3.85 -1 0  3.9 -1 0  3.949999999999999 -1 0  4 -1 0  4.050000000000001 -1 0  4.1 -1 0  4.15 -1 0  4.199999999999999 -1 0  4.25 -1 0  4.300000000000001 -1 0  4.35 -1 0  4.4 -1 0  4.449999999999999 -1 0  4.5 -1 0  4.550000000000001 -1 0  4.6 -1 0  4.65 -1 0  4.699999999999999 -1 0  4.75 -1 0  4.800000000000001 -1 0  4.85 -1 0  4.9 -1 0  4.949999999999999 -1 0  5 -1 0  -5 -0.95 0  -4.95 -0.95 0  -4.9 -0.95 0  -4.85 -0.95 0  -4.8 -0.95 0  -4.75 -0.95 0  -4.7 -0.95 0  -4.65 -0.95 0  -4.6 -0.95 0  -4.55 -0.95 0  -4.5 -0.95 0  -4.45 -0.95 0  -4.4 -0.95 0  -4.35 -0.95 0  -4.3 -0.95 0  -4.25 -0.95 0  -4.2 -0.95 0  -4.15 -0.95 0  -4.1 -0.95 0  -4.05 -0.95 0  -4 -0.95 0  -3.95 -0.95 0  -3.9 -0.95 0  -3.85 -0.95 0  -3.8 -0.95 0  -3.75 -0.95 0  -3.7 -0.95 0  -3.65 -0.95 0  -3.6 -0.95 0  -3.55 -0.95 0  -3.5 -0.95 0  -3.45 -0.95 0  -3.4 -0.95 0  -3.35 -0.95 0  -3.3 -0.95 0  -3.25 -0.95 0  -3.2 -0.95 0  -3.15 -0.95 0  -3.1 -0.95 0  -3.05 -0.95 0  -3 -0.95 0  -2.95 -0.95 0  -2.9 -0.95 0  -2.85 -0.95 0  -2.8 -0.95 0  -2.75 -0.95 0  -2.7 -0.95 0  -2.65 -0.95 0  -2.6 -0.95 0  -2.55 -0.95 0  -2.5 -0.95 0  -2.45 -0.95 0  -2.4 -0.95 0  -2.35 -0.95 0  -2.3 -0.95 0  -2.25 -0.95 0  -2.2 -0.95 0  -2.15 -0.95 0  -2.1 -0.95 0  -2.05 -0.95 0  -2 -0.95 0  -1.95 -0.95 0  -1.9 -0.95 0  -1.85 -0.95 0  -1.8 -0.95 0  -1.75 -0.95 0  -1.7 -0.95 0  -1.65 -0.95 0  -1.6 -0.95 0  -1.55 -0.95 0  -1.5 -0.95 0  -1.45 -0.95 0  -1.4 -0.95 0  -1.35 -0.95 0  -1.3 -0.95 0  -1.25 -0.95 0  -1.2 -0.95 0  -1.15 -0.95 0  -1.1 -0.95 0  -1.05 -0.95 0  -1 -0.95 0  -0.9500000000000002 -0.95 0  -0.9000000000000004 -0.95 0  -0.8499999999999996 -0.95 0  -0.7999999999999998 -0.95 0  -0.75 -0.95 0  -0.7000000000000002 -0.95 0  -0.6500000000000004 -0.95 0  -0.5999999999999996 -0.95 0  -0.5499999999999998 -0.95 0  -0.5 -0.95 0  -0.4500000000000002 -0.95 0  -0.4000000000000004 -0.95 0  -0.3499999999999996 -0.95 0  -0.2999999999999998 -0.95 0  -0.25 -0.95 0  -0.2000000000000002 -0.95 0  -0.1500000000000004 -0.95 0  -0.09999999999999964 -0.95 0  -0.04999999999999982 -0.95 0  0 -0.95 0  0.04999999999999982 -0.95 0  0.09999999999999964 -0.95 0  0.1500000000000004 -0.95 0  0.2000000000000002 -0.95 0  0.25 -0.95 0  0.2999999999999998 -0.95 0  0.3499999999999996 -0.95 0  0.4000000000000004 -0.95 0  0.4500000000000002 -0.95 0  0.5 -0.95 0  0.5499999999999998 -0.95 0  0.5999999999999996 -0.95 0  0.6500000000000004 -0.95 0  0.7000000000000002 -0.95 0  0.75 -0.95 0  0.7999999999999998 -0.95 0  0.8499999999999996 -0.95 0  0.9000000000000004 -0.95 0  0.9500000000000002 -0.95 0  1 -0.95 0  1.05 -0.95 0  1.1 -0.95 0  1.15 -0.95 0  1.2 -0.95 0  1.25 -0.95 0  1.3 -0.95 0  1.35 -0.95 0  1.4 -0.95 0  1.45 -0.95 0  1.5 -0.95 0  1.55 -0.95 0  1.6 -0.95 0  1.65 -0.95 0  1.7 -0.95 0  1.75 -0.95 0  1.8 -0.95 0  1.85 -0.95 0  1.9 -0.95 0  1.95 -0.95 0  2 -0.95 0  2.05 -0.95 0  2.1 -0.95 0  2.15 -0.95 0  2.2 -0.95 0  2.25 -0.95 0  2.3 -0.95 0  2.35 -0.95 0  2.4 -0.95 0  2.45 -0.95 0  2.5 -0.95 0  2.55 -0.95 0  2.6 -0.95 0  2.65 -0.95 0  2.7 -0.95 0  2.75 -0.95 0  2.8 -0.95 0  2.85 -0.95 0  2.9 -0.95 0  2.95 -0.95 0  3 -0.95 0  3.050000000000001 -0.95 0  3.1 -0.95 0  3.15 -0.95 0  3.199999999999999 -0.95 0  3.25 -0.95 0  3.300000000000001 -0.95 0  3.35 -0.95 0  3.4 -0.95 0  3.449999999999999 -0.95 0  3.5 -0.95 0  3.550000000000001 -0.95 0  3.6 -0.95 0  3.65 -0.95 0  3.699999999999999 -0.95 0  3.75 -0.95 0  3.800000000000001 -0.95 0  3.85 -0.95 0  3.9 -0.95 0  3.949999999999999 -0.95 0  4 -0.95 0  4.050000000000001 -0.95 0  4.1 -0.95 0  4.15 -0.95 0  4.199999999999999 -0.95 0  4.25 -0.95 0  4.300000000000001 -0.95 0  4.35 -0.95 0  4.4 -0.95 0  4.449999999999999 -0.95 0  4.5 -0.95 0  4.550000000000001 -0.95 0  4.6 -0.95 0  4.65 -0.95 0  4.699999999999999 -0.95 0  4.75 -0.95 0  4.800000000000001 -0.95 0  4.85 -0.95 0  4.9 -0.95 0  4.949999999999999 -0.95 0  5 -0.95 0  -5 -0.9 0  -4.95 -0.9 0  -4.9 -0.9 0  -4.85 -0.9 0  -4.8 -0.9 0  -4.75 -0.9 0  -4.7 -0.9 0  -4.65 -0.9 0  -4.6 -0.9 0  -4.55 -0.9 0  -4.5 -0.9 0  -4.45 -0.9 0  -4.4 -0.9 0  -4.35 -0.9 0  -4.3 -0.9 0  -4.25 -0.9 0  -4.2 -0.9 0  -4.15 -0.9 0  -4.1 -0.9 0  -4.05 -0.9 0  -4 -0.9 0  -3.95 -0.9 0  -3.9 -0.9 0  -3.85 -0.9 0  -3.8 -0.9 0  -3.75 -0.9 0  -3.7 -0.9 0  -3.65 -0.9 0  -3.6 -0.9 0  -3.55 -0.9 0  -3.5 -0.9 0  -3.45 -0.9 0  -3.4 -0.9 0  -3.35 -0.9 0  -3.3 -0.9 0  -3.25 -0.9 0  -3.2 -0.9 0  -3.15 -0.9 0  -3.1 -0.9 0  -3.05 -0.9 0  -3 -0.9 0  -2.95 -0.9 0  -2.9 -0.9 0  -2.85 -0.9 0  -2.8 -0.9 0  -2.75 -0.9 0  -2.7 -0.9 0  -2.65 -0.9 0  -2.6 -0.9 0  -2.55 -0.9 0  -2.5 -0.9 0  -2.45 -0.9 0  -2.4 -0.9 0  -2.35 -0.9 0  -2.3 -0.9 0  -2.25 -0.9 0  -2.2 -0.9 0  -2.15 -0.9 0  -2.1 -0.9 0  -2.05 -0.9 0  -2 -0.9 0  -1.95 -0.9 0  -1.9 -0.9 0  -1.85 -0.9 0  -1.8 -0.9 0  -1.75 -0.9 0  -1.7 -0.9 0  -1.65 -0.9 0  -1.6 -0.9 0  -1.55 -0.9 0  -1.5 -0.9 0  -1.45 -0.9 0  -1.4 -0.9 0  -1.35 -0.9 0  -1.3 -0.9 0  -1.25 -0.9 0  -1.2 -0.9 0  -1.15 -0.9 0  -1.1 -0.9 0  -1.05 -0.9 0  -1 -0.9 0  -0.9500000000000002 -0.9 0  -0.9000000000000004 -0.9 0  -0.8499999999999996 -0.9 0  -0.7999999999999998 -0.9 0  -0.75 -0.9 0  -0.7000000000000002 -0.9 0  -0.6500000000000004 -0.9 0  -0.5999999999999996 -0.9 0  -0.5499999999999998 -0.9 0  -0.5 -0.9 0  -0.4500000000000002 -0.9 0  -0.4000000000000004 -0.9 0  -0.3499999999999996 -0.9 0  -0.2999999999999998 -0.9 0  -0.25 -0.9 0  -0.2000000000000002 -0.9 0  -0.1500000000000004 -0.9 0  -0.09999999999999964 -0.9 0  -0.04999999999999982 -0.9 0  0 -0.9 0  0.04999999999999982 -0.9 0  0.09999999999999964 -0.9 0  0.1500000000000004 -0.9 0  0.2000000000000002 -0.9 0  0.25 -0.9 0  0.2999999999999998 -0.9 0  0.3499999999999996 -0.9 0  0.4000000000000004 -0.9 0  0.4500000000000002 -0.9 0  0.5 -0.9 0  0.5499999999999998 -0.9 0  0.5999999999999996 -0.9 0  0.6500000000000004 -0.9 0  0.7000000000000002 -0.9 0  0.75 -0.9 0  0.7999999999999998 -0.9 0  0.8499999999999996 -0.9 0  0.9000000000000004 -0.9 0  0.9500000000000002 -0.9 0  1 -0.9 0  1.05 -0.9 0  1.1 -0.9 0  1.15 -0.9 0  1.2 -0.9 0  1.25 -0.9 0  1.3 -0.9 0  1.35 -0.9 0  1.4 -0.9 0  1.45 -0.9 0  1.5 -0.9 0  1.55 -0.9 0  1.6 -0.9 0  1.65 -0.9 0  1.7 -0.9 0  1.75 -0.9 0  1.8 -0.9 0  1.85 -0.9 0  1.9 -0.9 0  1.95 -0.9 0  2 -0.9 0  2.05 -0.9 0  2.1 -0.9 0  2.15 -0.9 0  2.2 -0.9 0  2.25 -0.9 0  2.3 -0.9 0  2.35 -0.9 0  2.4 -0.9 0  2.45 -0.9 0  2.5 -0.9 0  2.55 -0.9 0  2.6 -0.9 0  2.65 -0.9 0  2.7 -0.9 0  2.75 -0.9 0  2.8 -0.9 0  2.85 -0.9 0  2.9 -0.9 0  2.95 -0.9 0  3 -0.9 0  3.050000000000001 -0.9 0  3.1 -0.9 0  3.15 -0.9 0  3.199999999999999 -0.9 0  3.25 -0.9 0  3.300000000000001 -0.9 0  3.35 -0.9 0  3.4 -0.9 0  3.449999999999999 -0.9 0  3.5 -0.9 0  3.550000000000001 -0.9 0  3.6 -0.9 0  3.65 -0.9 0  3.699999999999999 -0.9 0  3.75 -0.9 0  3.800000000000001 -0.9 0  3.85 -0.9 0  3.9 -0.9 0  3.949999999999999 -0.9 0  4 -0.9 0  4.050000000000001 -0.9 0  4.1 -0.9 0  4.15 -0.9 0  4.199999999999999 -0.9 0  4.25 -0.9 0  4.300000000000001 -0.9 0  4.35 -0.9 0  4.4 -0.9 0  4.449999999999999 -0.9 0  4.5 -0.9 0  4.550000000000001 -0.9 0  4.6 -0.9 0  4.65 -0.9 0  4.699999999999999 -0.9 0  4.75 -0.9 0  4.800000000000001 -0.9 0  4.85 -0.9 0  4.9 -0.9 0  4.949999999999999 -0.9 0  5 -0.9 0  -5 -0.85 0  -4.95 -0.85 0  -4.9 -0.85 0  -4.85 -0.85 0  -4.8 -0.85 0  -4.75 -0.85 0  -4.7 -0.85 0  -4.65 -0.85 0  -4.6 -0.85 0  -4.55 -0.85 0  -4.5 -0.85 0  -
[...]
<PointData  Vectors="f_15"> 
<DataArray  type="Float64"  Name="f_15"  NumberOfComponents="3" format="ascii">4.0325760201019634e+00 0.0000000000000000e+00 0.0000000000000000e+00  4.0455267994172495e+00 6.9116463086124305e-02 0.0000000000000000e+00  4.0324987183240442e+00 9.9752980477547534e-02 0.0000000000000000e+00  4.0442214295425583e+00 1.6579467599494332e-01 0.0000000000000000e+00  4.0328094142212993e+00 2.1412555593562252e-01 0.0000000000000000e+00  4.0437976637156616e+00 2.7050038050407160e-01 0.0000000000000000e+00  4.0315501785934940e+00 3.2569116821239474e-01 0.0000000000000000e+00  4.0439782230644612e+00 3.7710998568528836e-01 0.0000000000000000e+00  4.0308012878672406e+00 4.3723647638403906e-01 0.0000000000000000e+00  4.0427332351422987e+00 4.8474441056064321e-01 0.0000000000000000e+00  4.0311203875354256e+00 5.4608292427699034e-01 0.0000000000000000e+00  4.0414500795605335e+00 5.9507639709764293e-01 0.0000000000000000e+00  4.0301322114942364e+00 6.5576506063982065e-01 0.0000000000000000e+00  4.0417873458073368e+00 7.0163770923456670e-01 0.0000000000000000e+00  4.0284325175939095e+00 7.6854293700660925e-01 0.0000000000000000e+00  4.0409034998118969e+00 8.0943086539080022e-01 0.0000000000000000e+00  4.0289908162957522e+00 8.7697738331924635e-01 0.0000000000000000e+00  4.0385734595463507e+00 9.2046291571468375e-01 0.0000000000000000e+00  4.0283889162735038e+00 9.8666802340523307e-01 0.0000000000000000e+00  4.0391857361240389e+00 1.0274741610537823e+00 0.0000000000000000e+00  4.0255433033565522e+00 1.0987188006042703e+00 0.0000000000000000e+00  4.0387655971211762e+00 1.1369426252786388e+00 0.0000000000000000e+00  4.0262361453406958e+00 1.2056444597150826e+00 0.0000000000000000e+00  4.0354190283245188e+00 1.2496010418273711e+00 0.0000000000000000e+00  4.0260043019765721e+00 1.3142346196260168e+00 0.0000000000000000e+00  4.0361094280908123e+00 1.3580951337295486e+00 0.0000000000000000e+00  4.0222228459508740e+00 1.4246799959379086e+00 0.0000000000000000e+00  4.0360459076907924e+00 1.4698394742708072e+00 0.0000000000000000e+00  4.0227997303380123e+00 1.5294573220818164e+00 0.0000000000000000e+00  4.0319552650057879e+00 1.5846609160592819e+00 0.0000000000000000e+00  4.0228632261335964e+00 1.6366579907892354e+00 0.0000000000000000e+00  4.0322033425881703e+00 1.6932591499389738e+00 0.0000000000000000e+00  4.0187745673360808e+00 1.7502246935535586e+00 0.0000000000000000e+00  4.0319155580544210e+00 1.7968085037664869e+00 0.0000000000000000e+00  4.0191832998381534e+00 1.8684671499185601e+00 0.0000000000000000e+00  4.0270792222964493e+00 1.8958125832872306e+00 0.0000000000000000e+00  4.0195820995218963e+00 1.9873127838721534e+00 0.0000000000000000e+00  4.0261152605450246e+00 2.0026280089530406e+00 0.0000000000000000e+00  4.0157870586492450e+00 2.0902772449236307e+00 0.0000000000000000e+00  4.0252102424223315e+00 2.1240760081060364e+00 0.0000000000000000e+00  4.0154060351134975e+00 2.1913341756762676e+00 0.0000000000000000e+00  4.0204386555861173e+00 2.2296902657833715e+00 0.0000000000000000e+00  4.0152195763153555e+00 2.3163078006365940e+00 0.0000000000000000e+00  4.0184418306129910e+00 2.3196023474863670e+00 0.0000000000000000e+00  4.0116604376024130e+00 2.4366387664172566e+00 0.0000000000000000e+00  4.0168183162069511e+00 2.4312687286185892e+00 0.0000000000000000e+00  4.0101123585608427e+00 2.5331304142106350e+00 0.0000000000000000e+00  4.0126448843871412e+00 2.5525310529290044e+00 0.0000000000000000e+00  4.0086806812370801e+00 2.6388576590745343e+00 0.0000000000000000e+00  4.0101294359022930e+00 2.6528286646013952e+00 0.0000000000000000e+00  4.0050216097189324e+00 2.7614621339000514e+00 0.0000000000000000e+00  4.0079070719533281e+00 2.7519456984089246e+00 0.0000000000000000e+00  4.0023689946085721e+00 2.8673924662256893e+00 0.0000000000000000e+00  4.0041839105703145e+00 2.8756096419828285e+00 0.0000000000000000e+00  3.9997364423713386e+00 2.9566516251719137e+00 0.0000000000000000e+00  4.0013538454195068e+00 2.9956171365726334e+00 0.0000000000000000e+00  3.9957304359004162e+00 3.0675123500850838e+00 0.0000000000000000e+00  3.9986294477971844e+00 3.0908204070424383e+00 0.0000000000000000e+00  3.9922864432521199e+00 3.1867098750055032e+00 0.0000000000000000e+00  3.9948988419674021e+00 3.2006739342820842e+00 0.0000000000000000e+00  3.9887995535245819e+00 3.2792936559378596e+00 0.0000000000000000e+00  3.9917892650903517e+00 3.3275689584049113e+00 0.0000000000000000e+00  3.9841990171927550e+00 3.3774990344406235e+00 0.0000000000000000e+00  3.9887926097440971e+00 3.4313653847693595e+00 0.0000000000000000e+00  3.9799822586375724e+00 3.4962865256343201e+00 0.0000000000000000e+00  3.9848714374729024e+00 3.5326725999837190e+00 0.0000000000000000e+00  3.9757863489387995e+00 3.5990624440575076e+00 0.0000000000000000e+00  3.9814307311216703e+00 3.6527045910474896e+00 0.0000000000000000e+00  3.9705545320509947e+00 3.6953863717092750e+00 0.0000000000000000e+00  3.9780420032169537e+00 3.7630656958415218e+00 0.0000000000000000e+00  3.9658593969943916e+00 3.8069074564051113e+00 0.0000000000000000e+00  3.9734683020715753e+00 3.8647142980815778e+00 0.0000000000000000e+00  3.9613048071223189e+00 3.9155579125624995e+00 0.0000000000000000e+00  3.9694958933230109e+00 3.9745014646571337e+00 0.0000000000000000e+00  3.9553138715792797e+00 4.0186393543391299e+00 0.0000000000000000e+00  3.9659194778833662e+00 4.0827336277429582e+00 0.0000000000000000e+00  3.9498087778578941e+00 4.1266651670005778e+00 0.0000000000000000e+00  3.9609419127033347e+00 4.1866167713349602e+00 0.0000000000000000e+00  3.9445774743289421e+00 4.2353843395033826e+00 0.0000000000000000e+00  3.9567433032803048e+00 4.2909014311787814e+00 0.0000000000000000e+00  3.9374036021470586e+00 4.3443357700430392e+00 0.0000000000000000e+00  3.9532740894344416e+00 4.3925104562806006e+00 0.0000000000000000e+00  3.9308142901540655e+00 4.4562630647286001e+00 0.0000000000000000e+00  3.9476953442700982e+00 4.4914575836720658e+00 0.0000000000000000e+00  3.9254913385106085e+00 4.5685043401493273e+00 0.0000000000000000e+00  3.9419503969401504e+00 4.5913299671587700e+00 0.0000000000000000e+00  3.9189229634667804e+00 4.6775001851108824e+00 0.0000000000000000e+00  3.9362974884255260e+00 4.6955698952153666e+00 0.0000000000000000e+00  3.9137093846815261e+00 4.7802762768347717e+00 0.0000000000000000e+00  3.9274510123418027e+00 4.8051577500659040e+00 0.0000000000000000e+00  3.9107231263974493e+00 4.8791102071378791e+00 0.0000000000000000e+00  3.9178026587577621e+00 4.9150949965281203e+00 0.0000000000000000e+00  3.9065783978391222e+00 4.9784997040622940e+00 0.0000000000000000e+00  3.9089682283190026e+00 5.0235413816578331e+00 0.0000000000000000e+00  3.9016494499344714e+00 5.0786097783114705e+00 0.0000000000000000e+00  3.9004366843520990e+00 5.1292337179376970e+00 0.0000000000000000e+00  3.8955843964639563e+00 5.1814477728967567e+00 0.0000000000000000e+00  3.8924411129661682e+00 5.2323683101104415e+00 0.0000000000000000e+00  3.8887758764556022e+00 5.2837999824545614e+00 0.0000000000000000e+00  3.8847806457626564e+00 5.3356593161593215e+00 0.0000000000000000e+00  3.8807225247416182e+00 5.3862429306410684e+00 0.0000000000000000e+00  3.8774801080566319e+00 5.4367094441873975e+00 0.0000000000000000e+00  3.8727448737178549e+00 5.4891611789433679e+00 0.0000000000000000e+00  3.8688425307907335e+00 5.5379989455751826e+00 0.0000000000000000e+00  3.8653894739753172e+00 5.5892002876698959e+00 0.0000000000000000e+00  3.8600985948396342e+00 5.6400061405998025e+00 0.0000000000000000e+00  3.8566639090312620e+00 5.6895098213606996e+00 0.0000000000000000e+00  3.8520240439107254e+00 5.7390172289838350e+00 0.0000000000000000e+00  3.8475621269628375e+00 5.7904300822707633e+00 0.0000000000000000e+00  3.8427085519611106e+00 5.8386258520526697e+00 0.0000000000000000e+00  3.8394688930842125e+00 5.8874163953153440e+00 0.0000000000000000e+00  3.8323466977839260e+00 5.9396055207032346e+00 0.0000000000000000e+00  3.8314511816353725e+00 5.9830250799185114e+00 0.0000000000000000e+00  3.8219466091726169e+00 6.0385497661527845e+00 0.0000000000000000e+00  3.8227312921619419e+00 6.0784701291459768e+00 0.0000000000000000e+00  3.8117304887575729e+00 6.1364305898916109e+00 0.0000000000000000e+00  3.8136404105574475e+00 6.1726230253457537e+00 0.0000000000000000e+00  3.8019125237327200e+00 6.2310664869783281e+00 0.0000000000000000e+00  3.8034175136277346e+00 6.2693399065623199e+00 0.0000000000000000e+00  3.7931129749018067e+00 6.3200192074225763e+00 0.0000000000000000e+00  3.7930998389687778e+00 6.3661901018310099e+00 0.0000000000000000e+00  3.7837852302872030e+00 6.4071731449923819e+00 0.0000000000000000e+00  3.7839853832724897e+00 6.4601530261676752e+00 0.0000000000000000e+00  3.7740124450239865e+00 6.4913493762822272e+00 0.0000000000000000e+00  3.7770396617529758e+00 6.5540902338985392e+00 0.0000000000000000e+00  3.7607039959070336e+00 6.5671836074356404e+00 0.0000000000000000e+00  3.7775357587400871e+00 6.6528216271921332e+00 0.0000000000000000e+00  3.7397611760997185e+00 6.6309054745973812e+00 0.0000000000000000e+00  3.7815968252804839e+00 6.7537479758389765e+00 0.0000000000000000e+00  3.7211561970312927e+00 6.6961944677751699e+00 0.0000000000000000e+00  3.7735552578693148e+00 6.8330859708385328e+00 0.0000000000000000e+00  3.7245858092549438e+00 6.7803912953390846e+00 0.0000000000000000e+00  3.7445369707899983e+00 6.8814667218993808e+00 0.0000000000000000e+00  3.7675154756758462e+00 6.8630147160575836e+00 0.0000000000000000e+00  3.6961610806905805e+00 6.9040805563504080e+00 0.0000000000000000e+00  3.8498331603661344e+00 6.9548934840081653e+00 0.0000000000000000e+00  3.8323357753174059e+00 6.5900408019227905e+00 0.0000000000000000e+00  8.1555445960226223e+00 6.3651710935794159e-01 0.0000000000000000e+00  9.1803986169293683e+00 -2.1081228670859656e-01 0.0000000000000000e+00  9.1712332143028359e+00 -3.0464240831922051e-01 0.0000000000000000e+00  9.1811012751405716e+00 -2.8665383984237935e-01 0.0000000000000000e+00  9.2206361911341350e+00 -2.6670891990501600e-01 0.0000000000000000e+00  9.2473928135966297e+00 -2.8137216913770402e-01 0.0000000000000000e+00  9.2667783129848527e+00 -2.6460504355424519e-01 0.0000000000000000e+00  9.2777229269436887e+00 -2.4996007843921011e-01 0.0000000000000000e+00  9.2853806628835134e+00 -2.2580683471602916e-01 0.0000000000000000e+00  9.3063025044918994e+00 -2.2476175288447645e-01 0.0000000000000000e+00  9.3200011864113623e+00 -2.0798515245804935e-01 0.0000000000000000e+00  9.3305145962424501e+00 -1.9610789521451794e-01 0.0000000000000000e+00  9.3420238910028530e+00 -1.8276053240164225e-01 0.0000000000000000e+00  9.3548231911013087e+00 -1.7063357388274564e-01 0.0000000000000000e+00  9.3654301481517237e+00 -1.6349442825716204e-01 0.0000000000000000e+00  9.3761273358990920e+00 -1.4697590192744914e-01 0.0000000000000000e+00  9.3855842556975997e+00 -1.4558668999764710e-01 0.0000000000000000e+00  9.3944742099774636e+00 -1.2553523658490051e-01 0.0000000000000000e+00  9.4043875609372272e+00 -1.3094550694151252e-01 0.0000000000000000e+00  9.4117778106037875e+00 -1.0828507328010112e-01 0.0000000000000000e+00  9.4196517284769623e+00 -1.1586644582828498e-01 0.0000000000000000e+00  9.4270974295008241e+00 -9.3871074488101294e-02 0.0000000000000000e+00  9.4337887703662222e+00 -1.0291554791833307e-01 0.0000000000000000e+00  9.4397334319375776e+00 -8.0174001646757462e-02 0.0000000000000000e+00  9.4464269278462378e+00 -9.1975807048992442e-02 0.0000000000000000e+00  9.4504942918656667e+00 -6.9627619109047120e-02 0.0000000000000000e+00  9.4569367449995401e+00 -8.0649327534552048e-02 0.0000000000000000e+00  9.4602818102951964e+00 -6.4331330813198612e-02 0.0000000000000000e+00  9.4653010723964002e+00 -6.9738109518803854e-02 0.0000000000000000e+00  9.4685127935808051e+00 -6.1400107764516140e-02 0.0000000000000000e+00  9.4727938256562823e+00 -6.0997755433559224e-02 0.0000000000000000e+00  9.4746760790640003e+00 -5.8350706526396047e-02 0.0000000000000000e+00  9.4793294968411370e+00 -5.4852893912977395e-02 0.0000000000000000e+00  9.4799057607460213e+00 -5.5298378184245101e-02 0.0000000000000000e+00  9.4841056424903343e+00 -4.9857745704600880e-02 0.0000000000000000e+00  9.4845950271876784e+00 -5.2625988761531232e-02 0.0000000000000000e+00  9.4878682771995013e+00 -4.7858475522938586e-02 0.0000000000000000e+00  9.4880531108661437e+00 -5.1629370922318528e-02 0.0000000000000000e+00  9.4912281907444846e+00 -4.8929259237320506e-02 0.0000000000000000e+00  9.4904879474912018e+00 -5.0997740729412787e-02 0.0000000000000000e+00  9.4939671093837106e+00 -5.3538035302092876e-02 0.0000000000000000e+00  9.4924929839754792e+00 -5.3139244014064120e-02 0.0000000000000000e+00  9.4956871786323482e+00 -5.9136880864564333e-02 0.0000000000000000e+00  9.4945156974779135e+00 -5.6740995435942992e-02 0.0000000000000000e+00  9.4967907924348438e+00 -6.4667864778315876e-02 0.0000000000000000e+00  9.4956676579746233e+00 -5.9631848318454264e-02 0.0000000000000000e+00  9.4983499822755260e+00 -6.7486935615924420e-02 0.0000000000000000e+00  9.4961093897207309e+00 -5.9210003043750598e-02 0.0000000000000000e+00  9.4991645667905473e+00 -7.4147826467080277e-02 0.0000000000000000e+00  9.4972460456143075e+00 -6.9094912695698535e-02 0.0000000000000000e+00  9.4991527220042791e+00 -8.4347822505980066e-02 0.0000000000000000e+00  9.4978552586188698e+00 -8.0625308099425516e-02 0.0000000000000000e+00  9.4998249172836591e+00 -9.4084254762603389e-02 0.0000000000000000e+00  9.4977995014275525e+00 -8.5689181408322962e-02 0.0000000000000000e+00  9.5001392523160693e+00 -9.9998869397727258e-02 0.0000000000000000e+00  9.4982342003680742e+00 -8.1951781246152211e-02 0.0000000000000000e+00  9.5001026180237957e+00 -8.8253906817818861e-02 0.0000000000000000e+00  9.4984684275342204e+00 -8.2654112492877935e-02 0.0000000000000000e+00  9.5001629304697630e+00 -7.4982028385595645e-02 0.0000000000000000e+00  9.4985751601607333e+00 -8.2393675662592855e-02 0.0000000000000000e+00  9.5001821430689404e+00 -6.3195825642919062e-02 0.0000000000000000e+00  9.4984248481768478e+00 -9.8094585690228581e-02 0.0000000000000000e+00  9.5003574782598452e+00 -2.1069491775420869e-02 0.0000000000000000e+00  9.4988101487031003e+00 0.0000000000000000e+00 0.0000000000000000e+00  4.0453247691528738e+00 0.0000000000000000e+00 -3.9228138337735179e-03  4.0448456712790550e+00 5.0386196628482677e-02 -6.7058849813828652e-03  4.0444274535517941e+00 1.1581461188857010e-01 1.2629729811253411e-02  4.0457348192898186e+00 1.6399379647821730e-01 -7.0313863467545085e-03  4.0446920859391851e+00 2.2439623496402081e-01 3.6962443498539813e-03  4.0449710655801736e+00 2.7642285089153007e-01 -8.0186597687391869e-04  4.0454642431152523e+00 3.3224318395284125e-01 -1.4926643841291437e-03  4.0448269770925336e+00 3.8905541690400974e-01 2.9023643843414850e-03  4.0447141846765469e+00 4.4033626910411700e-01 -4.1389655249897354e-03  4.0454536401829824e+00 4.9953973344697439e-01 4.7592212517583495e-03  4.0440711742101279e+00 5.5067978932508377e-01 -5.0344001860718121e-03  4.0446025436381987e+00 6.0914991938386365e-01 4.8717422098074371e-03  4.0447061421699626e+00 6.5932807411224914e-01 -5.2424728893033217e-03  4.0431648729750327e+00 7.2090809896507713e-01 6.0491624592279337e-03  4.0440028688966452e+00 7.6781928119706289e-01 -7.2516722374952741e-03  4.0435390191483807e+00 8.2984677587558764e-01 8.3456585169582338e-03  4.0420840368410911e+00 8.7876691207486779e-01 -9.5023046488729532e-03  4.0425556574538151e+00 9.3974388920279017e-01 1.0903191510859108e-02  4.0427503465637562e+00 9.8513612039967635e-01 -1.2550174382334302e-02  4.0395134997983613e+00 1.0532074732862207e+00 1.4141049639547649e-02  4.0422088535844622e+00 1.0923902253716964e+00 -1.5182677534563293e-02  4.0396962887178880e+00 1.1617301555568673e+00 1.5682267512950376e-02  4.0388548602979757e+00 1.2034621995255435e+00 -1.5696171952969153e-02  4.0388435360176862e+00 1.2707605366450074e+00 1.5692983463535301e-02  4.0392107691401788e+00 1.3105368591303646e+00 -1.5627708665830135e-02  4.0346036370855716e+00 1.3821140055101537e+00 1.5698122565022583e-02  4.0386105489532929e+00 1.4196625339008002e+00 -1.5439706665188416e-02  4.0345683071209262e+00 1.4883529379034912e+00 1.5011295481704210e-02  4.0340173463505442e+00 1.5316677489826609e+00 -1.4170710647785842e-02  4.0339059398448569e+00 1.5963781525961260e+00 1.3304798104180397e-02  4.0336793536015003e+00 1.6386445232195026e+00 -1.2219786323547659e-02  4.0291160670699178e+00 1.7079822523262402e+00 1.1117706382214348e-02  4.0327225577163688e+00 1.7453672856183970e+00 -9.5479775596891865e-03  4.0288297848868684e+00 1.8177066891072629e+00 7.7741608818629755e-03  4.0272970643812078e+00 1.8534680365433145e+00 -5.8022888975695084e-03  4.0283074090920357e+00 1.9258409545660571e+00 4.3923026228295577e-03  4.0261822630250101e+00 1.9658424372403838e+00 -3.7904279089454539e-03  4.0232030712519737e+00 2.0264991228153089e+00 4.2916226382894865e-03  4.0254395756498900e+00 2.0836101870973507e+00 -5.3655227788762267e-03  4.0215529316150320e+00 2.1309146808709643e+00 6.5721008176586578e-03  4.0208246057399100e+00 2.1867303263389277e+00 -7.2730647123946529e-03  4.0201759337190008e+00 2.2526904869264590e+00 7.6487252054500705e-03  4.0192225139746238e+00 2.2825791318414428e+00 -7.7002330904385871e-03  4.0153724118556315e+00 2.3648105367813259e+00 8.1060938592452808e-03  4.0180221590526690e+00 2.3988655188162844e+00 -8.8175318900823307e-03  4.0129082745711013e+00 2.4603913811945297e+00 9.7983913533253256e-03  4.0140676453910045e+00 2.5158901894294887e+00 -1.0600006449391361e-02  4.0108172077879187e+00 2.5706705963009173e+00 1.0772072429434707e-02  4.0117808735665763e+00 2.6140560626889440e+00 -1.0096139586316938e-02  4.0067206775213240e+00 2.6904901983908966e+00 9.1116377208908823e-03  4.0095780368745082e+00 2.7180750715411124e+00 -8.1874227276372367e-03  4.0039852619488467e+00 2.7930751021616742e+00 7.9878865465018781e-03  4.0057822346826457e+00 2.8393027738403140e+00 -8.3980322911574191e-03  4.0012353541249386e+00 2.8894936633293695e+00 8.8904545283617145e-03  4.0030949654538821e+00 2.9506401374732638e+00 -9.1250079599068425e-03  3.9971039430823145e+00 3.0062014425434844e+00 8.9696407844407130e-03  4.0004198811334755e+00 3.0444095443696622e+00 -8.5778016284716648e-03  3.9938247345352527e+00 3.1245485083607973e+00 8.3052540919348397e-03  3.9964676693844661e+00 3.1545054378087745e+00 -7.8156946528193869e-03  3.9907802650635880e+00 3.2196445061844003e+00 7.1012723069141213e-03  3.9929604568860548e+00 3.2766779371659442e+00 -6.1640761452893883e-03  3.9867424511885270e+00 3.3229650809663513e+00 5.3986693706375910e-03  3.9896132703100098e+00 3.3766925125804002e+00 -5.2470409174811047e-03  3.9829889034210213e+00 3.4440128387563913e+00 5.5057346761279947e-03  3.9853483071579721e+00 3.4769109960548743e+00 -5.5733862300285071e-03  3.9795396647383492e+00 3.5478662334499087e+00 4.7893893626260644e-03  3.9810242452889106e+00 3.5958557674007139e+00 -3.0825582735098550e-03  3.9756458546518854e+00 3.6456145344677569e+00 1.0690164730977902e-03  3.9764531992940184e+00 3.7051287219706328e+00 4.6901755192618315e-04  3.9721837348542390e+00 3.7579259208217395e+00 -1.2109004258161933e-03  3.9710311403106471e+00 3.8069180495232411e+00 1.4672916038018162e-03  3.9686579549002814e+00 3.8657094092438760e+00 -1.8951357596766302e-03  3.9660833161960669e+00 3.9184659230479313e+00 2.7878849418933823e-03  3.9640885851429304e+00 3.9669220645832559e+00 -4.0123155824814231e-03  3.9611353746518025e+00 4.0286883414207502e+00 5.0898994885959486e-03  3.9601652637278564e+00 4.0734035212066306e+00 -5.7718760035407116e-03  3.9548090991354230e+00 4.1345001006892321e+00 6.1708628397832170e-03  3.9565513823728309e+00 4.1797960482255991e+00 -6.6254420976990256e-03  3.9490010101923105e+00 4.2424618959658291e+00 7.3816466923220447e-03  3.9514852501137785e+00 4.2840358821012821e+00 -8.3611435652966287e-03  3.9434372384539222e+00 4.3503483664743081e+00 9.3254144466111636e-03  3.9472084407788248e+00 4.3888985095632425e+00 -9.