<?xml version="1.0"?>
<VTKFile type="UnstructuredGrid"  version="0.1"  >
<UnstructuredGrid>
<Piece  NumberOfPoints="8241" NumberOfCells="16000">
<Points>
<DataArray  type="Float64"  NumberOfComponents="3"  format="ascii">-5 -1 0  -4.95 -1 0  -4.9 -1 0  -4.85 -1 0  -4.8 -1 0  -4.75 -1 0  -4.7 -1 0  -4.65 -1 0  -4.6 -1 0  -4.55 -1 0  -4.5 -1 0  -4.45 -1 0  -4.4 -1 0  -4.35 -1 0  -4.3 -1 0  -4.25 -1 0  -4.2 -1 0  -4.15 -1 0  -4.1 -1 0  -4.05 -1 0  -4 -1 0  -3.95 -1 0  -3.9 -1 0  -3.85 -1 0  -3.8 -1 0  -3.75 -1 0  -3.7 -1 0  -3.65 -1 0  -3.6 -1 0  -3.55 -1 0  -3.5 -1 0  -3.45 -1 0  -3.4 -1 0  -3.35 -1 0  -3.3 -1 0  -3.25 -1 0  -3.2 -1 0  -3.15 -1 0  -3.1 -1 0  -3.05 -1 0  -3 -1 0  -2.95 -1 0  -2.9 -1 0  -2.85 -1 0  -2.8 -1 0  -2.75 -1 0  -2.7 -1 0  -2.65 -1 0  -2.6 -1 0  -2.55 -1 0  -2.5 -1 0  -2.45 -1 0  -2.4 -1 0  -2.35 -1 0  -2.3 -1 0  -2.25 -1 0  -2.2 -1 0  -2.15 -1 0  -2.1 -1 0  -2.05 -1 0  -2 -1 0  -1.95 -1 0  -1.9 -1 0  -1.85 -1 0  -1.8 -1 0  -1.75 -1 0  -1.7 -1 0  -1.65 -1 0  -1.6 -1 0  -1.55 -1 0  -1.5 -1 0  -1.45 -1 0  -1.4 -1 0  -1.35 -1 0  -1.3 -1 0  -1.25 -1 0  -1.2 -1 0  -1.15 -1 0  -1.1 -1 0  -1.05 -1 0  -1 -1 0  -0.9500000000000002 -1 0  -0.9000000000000004 -1 0  -0.8499999999999996 -1 0  -0.7999999999999998 -1 0  -0.75 -1 0  -0.7000000000000002 -1 0  -0.6500000000000004 -1 0  -0.5999999999999996 -1 0  -0.5499999999999998 -1 0  -0.5 -1 0  -0.4500000000000002 -1 0  -0.4000000000000004 -1 0  -0.3499999999999996 -1 0  -0.2999999999999998 -1 0  -0.25 -1 0  -0.2000000000000002 -1 0  -0.1500000000000004 -1 0  -0.09999999999999964 -1 0  -0.04999999999999982 -1 0  0 -1 0  0.04999999999999982 -1 0  0.09999999999999964 -1 0  0.1500000000000004 -1 0  0.2000000000000002 -1 0  0.25 -1 0  0.2999999999999998 -1 0  0.3499999999999996 -1 0  0.4000000000000004 -1 0  0.4500000000000002 -1 0  0.5 -1 0  0.5499999999999998 -1 0  0.5999999999999996 -1 0  0.6500000000000004 -1 0  0.7000000000000002 -1 0  0.75 -1 0  0.7999999999999998 -1 0  0.8499999999999996 -1 0  0.9000000000000004 -1 0  0.9500000000000002 -1 0  1 -1 0  1.05 -1 0  1.1 -1 0  1.15 -1 0  1.2 -1 0  1.25 -1 0  1.3 -1 0  1.35 -1 0  1.4 -1 0  1.45 -1 0  1.5 -1 0  1.55 -1 0  1.6 -1 0  1.65 -1 0  1.7 -1 0  1.75 -1 0  1.8 -1 0  1.85 -1 0  1.9 -1 0  1.95 -1 0  2 -1 0  2.05 -1 0  2.1 -1 0  2.15 -1 0  2.2 -1 0  2.25 -1 0  2.3 -1 0  2.35 -1 0  2.4 -1 0  2.45 -1 0  2.5 -1 0  2.55 -1 0  2.6 -1 0  2.65 -1 0  2.7 -1 0  2.75 -1 0  2.8 -1 0  2.85 -1 0  2.9 -1 0  2.95 -1 0  3 -1 0  3.050000000000001 -1 0  3.1 -1 0  3.15 -1 0  3.199999999999999 -1 0  3.25 -1 0  3.300000000000001 -1 0  3.35 -1 0  3.4 -1 0  3.449999999999999 -1 0  3.5 -1 0  3.550000000000001 -1 0  3.6 -1 0  3.65 -1 0  3.699999999999999 -1 0  3.75 -1 0  3.800000000000001 -1 0  3.85 -1 0  3.9 -1 0  3.949999999999999 -1 0  4 -1 0  4.050000000000001 -1 0  4.1 -1 0  4.15 -1 0  4.199999999999999 -1 0  4.25 -1 0  4.300000000000001 -1 0  4.35 -1 0  4.4 -1 0  4.449999999999999 -1 0  4.5 -1 0  4.550000000000001 -1 0  4.6 -1 0  4.65 -1 0  4.699999999999999 -1 0  4.75 -1 0  4.800000000000001 -1 0  4.85 -1 0  4.9 -1 0  4.949999999999999 -1 0  5 -1 0  -5 -0.95 0  -4.95 -0.95 0  -4.9 -0.95 0  -4.85 -0.95 0  -4.8 -0.95 0  -4.75 -0.95 0  -4.7 -0.95 0  -4.65 -0.95 0  -4.6 -0.95 0  -4.55 -0.95 0  -4.5 -0.95 0  -4.45 -0.95 0  -4.4 -0.95 0  -4.35 -0.95 0  -4.3 -0.95 0  -4.25 -0.95 0  -4.2 -0.95 0  -4.15 -0.95 0  -4.1 -0.95 0  -4.05 -0.95 0  -4 -0.95 0  -3.95 -0.95 0  -3.9 -0.95 0  -3.85 -0.95 0  -3.8 -0.95 0  -3.75 -0.95 0  -3.7 -0.95 0  -3.65 -0.95 0  -3.6 -0.95 0  -3.55 -0.95 0  -3.5 -0.95 0  -3.45 -0.95 0  -3.4 -0.95 0  -3.35 -0.95 0  -3.3 -0.95 0  -3.25 -0.95 0  -3.2 -0.95 0  -3.15 -0.95 0  -3.1 -0.95 0  -3.05 -0.95 0  -3 -0.95 0  -2.95 -0.95 0  -2.9 -0.95 0  -2.85 -0.95 0  -2.8 -0.95 0  -2.75 -0.95 0  -2.7 -0.95 0  -2.65 -0.95 0  -2.6 -0.95 0  -2.55 -0.95 0  -2.5 -0.95 0  -2.45 -0.95 0  -2.4 -0.95 0  -2.35 -0.95 0  -2.3 -0.95 0  -2.25 -0.95 0  -2.2 -0.95 0  -2.15 -0.95 0  -2.1 -0.95 0  -2.05 -0.95 0  -2 -0.95 0  -1.95 -0.95 0  -1.9 -0.95 0  -1.85 -0.95 0  -1.8 -0.95 0  -1.75 -0.95 0  -1.7 -0.95 0  -1.65 -0.95 0  -1.6 -0.95 0  -1.55 -0.95 0  -1.5 -0.95 0  -1.45 -0.95 0  -1.4 -0.95 0  -1.35 -0.95 0  -1.3 -0.95 0  -1.25 -0.95 0  -1.2 -0.95 0  -1.15 -0.95 0  -1.1 -0.95 0  -1.05 -0.95 0  -1 -0.95 0  -0.9500000000000002 -0.95 0  -0.9000000000000004 -0.95 0  -0.8499999999999996 -0.95 0  -0.7999999999999998 -0.95 0  -0.75 -0.95 0  -0.7000000000000002 -0.95 0  -0.6500000000000004 -0.95 0  -0.5999999999999996 -0.95 0  -0.5499999999999998 -0.95 0  -0.5 -0.95 0  -0.4500000000000002 -0.95 0  -0.4000000000000004 -0.95 0  -0.3499999999999996 -0.95 0  -0.2999999999999998 -0.95 0  -0.25 -0.95 0  -0.2000000000000002 -0.95 0  -0.1500000000000004 -0.95 0  -0.09999999999999964 -0.95 0  -0.04999999999999982 -0.95 0  0 -0.95 0  0.04999999999999982 -0.95 0  0.09999999999999964 -0.95 0  0.1500000000000004 -0.95 0  0.2000000000000002 -0.95 0  0.25 -0.95 0  0.2999999999999998 -0.95 0  0.3499999999999996 -0.95 0  0.4000000000000004 -0.95 0  0.4500000000000002 -0.95 0  0.5 -0.95 0  0.5499999999999998 -0.95 0  0.5999999999999996 -0.95 0  0.6500000000000004 -0.95 0  0.7000000000000002 -0.95 0  0.75 -0.95 0  0.7999999999999998 -0.95 0  0.8499999999999996 -0.95 0  0.9000000000000004 -0.95 0  0.9500000000000002 -0.95 0  1 -0.95 0  1.05 -0.95 0  1.1 -0.95 0  1.15 -0.95 0  1.2 -0.95 0  1.25 -0.95 0  1.3 -0.95 0  1.35 -0.95 0  1.4 -0.95 0  1.45 -0.95 0  1.5 -0.95 0  1.55 -0.95 0  1.6 -0.95 0  1.65 -0.95 0  1.7 -0.95 0  1.75 -0.95 0  1.8 -0.95 0  1.85 -0.95 0  1.9 -0.95 0  1.95 -0.95 0  2 -0.95 0  2.05 -0.95 0  2.1 -0.95 0  2.15 -0.95 0  2.2 -0.95 0  2.25 -0.95 0  2.3 -0.95 0  2.35 -0.95 0  2.4 -0.95 0  2.45 -0.95 0  2.5 -0.95 0  2.55 -0.95 0  2.6 -0.95 0  2.65 -0.95 0  2.7 -0.95 0  2.75 -0.95 0  2.8 -0.95 0  2.85 -0.95 0  2.9 -0.95 0  2.95 -0.95 0  3 -0.95 0  3.050000000000001 -0.95 0  3.1 -0.95 0  3.15 -0.95 0  3.199999999999999 -0.95 0  3.25 -0.95 0  3.300000000000001 -0.95 0  3.35 -0.95 0  3.4 -0.95 0  3.449999999999999 -0.95 0  3.5 -0.95 0  3.550000000000001 -0.95 0  3.6 -0.95 0  3.65 -0.95 0  3.699999999999999 -0.95 0  3.75 -0.95 0  3.800000000000001 -0.95 0  3.85 -0.95 0  3.9 -0.95 0  3.949999999999999 -0.95 0  4 -0.95 0  4.050000000000001 -0.95 0  4.1 -0.95 0  4.15 -0.95 0  4.199999999999999 -0.95 0  4.25 -0.95 0  4.300000000000001 -0.95 0  4.35 -0.95 0  4.4 -0.95 0  4.449999999999999 -0.95 0  4.5 -0.95 0  4.550000000000001 -0.95 0  4.6 -0.95 0  4.65 -0.95 0  4.699999999999999 -0.95 0  4.75 -0.95 0  4.800000000000001 -0.95 0  4.85 -0.95 0  4.9 -0.95 0  4.949999999999999 -0.95 0  5 -0.95 0  -5 -0.9 0  -4.95 -0.9 0  -4.9 -0.9 0  -4.85 -0.9 0  -4.8 -0.9 0  -4.75 -0.9 0  -4.7 -0.9 0  -4.65 -0.9 0  -4.6 -0.9 0  -4.55 -0.9 0  -4.5 -0.9 0  -4.45 -0.9 0  -4.4 -0.9 0  -4.35 -0.9 0  -4.3 -0.9 0  -4.25 -0.9 0  -4.2 -0.9 0  -4.15 -0.9 0  -4.1 -0.9 0  -4.05 -0.9 0  -4 -0.9 0  -3.95 -0.9 0  -3.9 -0.9 0  -3.85 -0.9 0  -3.8 -0.9 0  -3.75 -0.9 0  -3.7 -0.9 0  -3.65 -0.9 0  -3.6 -0.9 0  -3.55 -0.9 0  -3.5 -0.9 0  -3.45 -0.9 0  -3.4 -0.9 0  -3.35 -0.9 0  -3.3 -0.9 0  -3.25 -0.9 0  -3.2 -0.9 0  -3.15 -0.9 0  -3.1 -0.9 0  -3.05 -0.9 0  -3 -0.9 0  -2.95 -0.9 0  -2.9 -0.9 0  -2.85 -0.9 0  -2.8 -0.9 0  -2.75 -0.9 0  -2.7 -0.9 0  -2.65 -0.9 0  -2.6 -0.9 0  -2.55 -0.9 0  -2.5 -0.9 0  -2.45 -0.9 0  -2.4 -0.9 0  -2.35 -0.9 0  -2.3 -0.9 0  -2.25 -0.9 0  -2.2 -0.9 0  -2.15 -0.9 0  -2.1 -0.9 0  -2.05 -0.9 0  -2 -0.9 0  -1.95 -0.9 0  -1.9 -0.9 0  -1.85 -0.9 0  -1.8 -0.9 0  -1.75 -0.9 0  -1.7 -0.9 0  -1.65 -0.9 0  -1.6 -0.9 0  -1.55 -0.9 0  -1.5 -0.9 0  -1.45 -0.9 0  -1.4 -0.9 0  -1.35 -0.9 0  -1.3 -0.9 0  -1.25 -0.9 0  -1.2 -0.9 0  -1.15 -0.9 0  -1.1 -0.9 0  -1.05 -0.9 0  -1 -0.9 0  -0.9500000000000002 -0.9 0  -0.9000000000000004 -0.9 0  -0.8499999999999996 -0.9 0  -0.7999999999999998 -0.9 0  -0.75 -0.9 0  -0.7000000000000002 -0.9 0  -0.6500000000000004 -0.9 0  -0.5999999999999996 -0.9 0  -0.5499999999999998 -0.9 0  -0.5 -0.9 0  -0.4500000000000002 -0.9 0  -0.4000000000000004 -0.9 0  -0.3499999999999996 -0.9 0  -0.2999999999999998 -0.9 0  -0.25 -0.9 0  -0.2000000000000002 -0.9 0  -0.1500000000000004 -0.9 0  -0.09999999999999964 -0.9 0  -0.04999999999999982 -0.9 0  0 -0.9 0  0.04999999999999982 -0.9 0  0.09999999999999964 -0.9 0  0.1500000000000004 -0.9 0  0.2000000000000002 -0.9 0  0.25 -0.9 0  0.2999999999999998 -0.9 0  0.3499999999999996 -0.9 0  0.4000000000000004 -0.9 0  0.4500000000000002 -0.9 0  0.5 -0.9 0  0.5499999999999998 -0.9 0  0.5999999999999996 -0.9 0  0.6500000000000004 -0.9 0  0.7000000000000002 -0.9 0  0.75 -0.9 0  0.7999999999999998 -0.9 0  0.8499999999999996 -0.9 0  0.9000000000000004 -0.9 0  0.9500000000000002 -0.9 0  1 -0.9 0  1.05 -0.9 0  1.1 -0.9 0  1.15 -0.9 0  1.2 -0.9 0  1.25 -0.9 0  1.3 -0.9 0  1.35 -0.9 0  1.4 -0.9 0  1.45 -0.9 0  1.5 -0.9 0  1.55 -0.9 0  1.6 -0.9 0  1.65 -0.9 0  1.7 -0.9 0  1.75 -0.9 0  1.8 -0.9 0  1.85 -0.9 0  1.9 -0.9 0  1.95 -0.9 0  2 -0.9 0  2.05 -0.9 0  2.1 -0.9 0  2.15 -0.9 0  2.2 -0.9 0  2.25 -0.9 0  2.3 -0.9 0  2.35 -0.9 0  2.4 -0.9 0  2.45 -0.9 0  2.5 -0.9 0  2.55 -0.9 0  2.6 -0.9 0  2.65 -0.9 0  2.7 -0.9 0  2.75 -0.9 0  2.8 -0.9 0  2.85 -0.9 0  2.9 -0.9 0  2.95 -0.9 0  3 -0.9 0  3.050000000000001 -0.9 0  3.1 -0.9 0  3.15 -0.9 0  3.199999999999999 -0.9 0  3.25 -0.9 0  3.300000000000001 -0.9 0  3.35 -0.9 0  3.4 -0.9 0  3.449999999999999 -0.9 0  3.5 -0.9 0  3.550000000000001 -0.9 0  3.6 -0.9 0  3.65 -0.9 0  3.699999999999999 -0.9 0  3.75 -0.9 0  3.800000000000001 -0.9 0  3.85 -0.9 0  3.9 -0.9 0  3.949999999999999 -0.9 0  4 -0.9 0  4.050000000000001 -0.9 0  4.1 -0.9 0  4.15 -0.9 0  4.199999999999999 -0.9 0  4.25 -0.9 0  4.300000000000001 -0.9 0  4.35 -0.9 0  4.4 -0.9 0  4.449999999999999 -0.9 0  4.5 -0.9 0  4.550000000000001 -0.9 0  4.6 -0.9 0  4.65 -0.9 0  4.699999999999999 -0.9 0  4.75 -0.9 0  4.800000000000001 -0.9 0  4.85 -0.9 0  4.9 -0.9 0  4.949999999999999 -0.9 0  5 -0.9 0  -5 -0.85 0  -4.95 -0.85 0  -4.9 -0.85 0  -4.85 -0.85 0  -4.8 -0.85 0  -4.75 -0.85 0  -4.7 -0.85 0  -4.65 -0.85 0  -4.6 -0.85 0  -4.55 -0.85 0  -4.5 -0.85 0  -
[...]
<PointData  Vectors="f_15"> 
<DataArray  type="Float64"  Name="f_15"  NumberOfComponents="3" format="ascii">8.8712788292441189e+00 0.0000000000000000e+00 0.0000000000000000e+00  8.8701942387274961e+00 7.5512849369049700e-02 0.0000000000000000e+00  8.8668981958291280e+00 1.5104868374459418e-01 0.0000000000000000e+00  8.8614261804329946e+00 2.2629558947930797e-01 0.0000000000000000e+00  8.8537669759195712e+00 3.0140644711261255e-01 0.0000000000000000e+00  8.8439492462930733e+00 3.7611046895228273e-01 0.0000000000000000e+00  8.8319521811936443e+00 4.5049496722148180e-01 0.0000000000000000e+00  8.8178482561847442e+00 5.2435314586560444e-01 0.0000000000000000e+00  8.8015957393152053e+00 5.9774356527352746e-01 0.0000000000000000e+00  8.7832751336637642e+00 6.7049727903704748e-01 0.0000000000000000e+00  8.7628759719283256e+00 7.4265775018243640e-01 0.0000000000000000e+00  8.7404730327584090e+00 8.1409837553298559e-01 0.0000000000000000e+00  8.7160535838224664e+00 8.8485056458028855e-01 0.0000000000000000e+00  8.6897379309241138e+00 9.5482333529633101e-01 0.0000000000000000e+00  8.6614959099947288e+00 1.0240463974089737e+00 0.0000000000000000e+00  8.6314599437441988e+00 1.0924697717374605e+00 0.0000000000000000e+00  8.5996336518317342e+00 1.1601016446789625e+00 0.0000000000000000e+00  8.5661418272183028e+00 1.2269595400883546e+00 0.0000000000000000e+00  8.5309910371891977e+00 1.2930129074252208e+00 0.0000000000000000e+00  8.4943464847674974e+00 1.3583463088317116e+00 0.0000000000000000e+00  8.4561944152230843e+00 1.4228943047397293e+00 0.0000000000000000e+00  8.4167117060448451e+00 1.4868139059936381e+00 0.0000000000000000e+00  8.3759097644144660e+00 1.5499683064337964e+00 0.0000000000000000e+00  8.3339487324122015e+00 1.6126362626208375e+00 0.0000000000000000e+00  8.2908422378126687e+00 1.6745599371919595e+00 0.0000000000000000e+00  8.2467738053154456e+00 1.7361489545074911e+00 0.0000000000000000e+00  8.2017297587734426e+00 1.7970493741465323e+00 0.0000000000000000e+00  8.1558970528836614e+00 1.8577413437587034e+00 0.0000000000000000e+00  8.1092765170569727e+00 1.9178321895618924e+00 0.0000000000000000e+00  8.0620195078180039e+00 1.9778144740350052e+00 0.0000000000000000e+00  8.0141373578965265e+00 2.0373056433497330e+00 0.0000000000000000e+00  7.9657773316797629e+00 2.0967568199312705e+00 0.0000000000000000e+00  7.9169255198323336e+00 2.1558201491894793e+00 0.0000000000000000e+00  7.8677269116544721e+00 2.2149410545732331e+00 0.0000000000000000e+00  7.8181726360062429e+00 2.2736896978517716e+00 0.0000000000000000e+00  7.7683669758652618e+00 2.3326334454494662e+00 0.0000000000000000e+00  7.7183165212719267e+00 2.3912519924731761e+00 0.0000000000000000e+00  7.6681137718806394e+00 2.4500123930300539e+00 0.0000000000000000e+00  7.6177374989023345e+00 2.5087170384676170e+00 0.0000000000000000e+00  7.5672900181102243e+00 2.5673480584686739e+00 0.0000000000000000e+00  7.5167442513429430e+00 2.6261292533489295e+00 0.0000000000000000e+00  7.4661722854393995e+00 2.6848235367877917e+00 0.0000000000000000e+00  7.4155616741670167e+00 2.7436536464143164e+00 0.0000000000000000e+00  7.3649805694662334e+00 2.8024304587643414e+00 0.0000000000000000e+00  7.3143866480254802e+00 2.8613932838742637e+00 0.0000000000000000e+00  7.2638624695593039e+00 2.9202857072081145e+00 0.0000000000000000e+00  7.2133754732076127e+00 2.9793167260917670e+00 0.0000000000000000e+00  7.1629562095219246e+00 3.0383893826010251e+00 0.0000000000000000e+00  7.1126210410468751e+00 3.0975424693695590e+00 0.0000000000000000e+00  7.0623751697503865e+00 3.1566926632043133e+00 0.0000000000000000e+00  7.0122203456486112e+00 3.2160098647196054e+00 0.0000000000000000e+00  6.9621772890605182e+00 3.2752812880378839e+00 0.0000000000000000e+00  6.9122566699226464e+00 3.3346910108876116e+00 0.0000000000000000e+00  6.8624351342586731e+00 3.3940809924536768e+00 0.0000000000000000e+00  6.8127643423223923e+00 3.4536071794343148e+00 0.0000000000000000e+00  6.7632101296332721e+00 3.5130817484339123e+00 0.0000000000000000e+00  6.7138057080624520e+00 3.5727089938198922e+00 0.0000000000000000e+00  6.6645188656315950e+00 3.6322723033293971e+00 0.0000000000000000e+00  6.6154247339773162e+00 3.6919607749810512e+00 0.0000000000000000e+00  6.5664227803681010e+00 3.7516212358344543e+00 0.0000000000000000e+00  6.5176257723761406e+00 3.8113707780965362e+00 0.0000000000000000e+00  6.4689503026683495e+00 3.8710780033812524e+00 0.0000000000000000e+00  6.4204715973543989e+00 3.9308835576748260e+00 0.0000000000000000e+00  6.3721017033579317e+00 3.9906627211533912e+00 0.0000000000000000e+00  6.3239752312813371e+00 4.0504796994985650e+00 0.0000000000000000e+00  6.2759388457597245e+00 4.1103042909538745e+00 0.0000000000000000e+00  6.2281419418000938e+00 4.1701539717072382e+00 0.0000000000000000e+00  6.1804591441485375e+00 4.2300073821908972e+00 0.0000000000000000e+00  6.1330268108598531e+00 4.2898527792507064e+00 0.0000000000000000e+00  6.0856839943808909e+00 4.3497396629386680e+00 0.0000000000000000e+00  6.0386107150602868e+00 4.4095953793304998e+00 0.0000000000000000e+00  5.9916543766957959e+00 4.4694593422289195e+00 0.0000000000000000e+00  5.9449400892284983e+00 4.5293200988657780e+00 0.0000000000000000e+00  5.8983376992832612e+00 4.5892071754685624e+00 0.0000000000000000e+00  5.8520337261827784e+00 4.6490100317209588e+00 0.0000000000000000e+00  5.8058099791567592e+00 4.7088774428254121e+00 0.0000000000000000e+00  5.7598503118710278e+00 4.7687173311939315e+00 0.0000000000000000e+00  5.7140652283892610e+00 4.8284849195128920e+00 0.0000000000000000e+00  5.6684920482817684e+00 4.8883007191612196e+00 0.0000000000000000e+00  5.6230593275221841e+00 4.9480891651123740e+00 0.0000000000000000e+00  5.5779330230642001e+00 5.0077940973849175e+00 0.0000000000000000e+00  5.5329092147655734e+00 5.0675270584853527e+00 0.0000000000000000e+00  5.4881346527331036e+00 5.1272508700984663e+00 0.0000000000000000e+00  5.4435789273973771e+00 5.1868435854802852e+00 0.0000000000000000e+00  5.3992160112458114e+00 5.2465036652673316e+00 0.0000000000000000e+00  5.3550423579152708e+00 5.3060759954138863e+00 0.0000000000000000e+00  5.3111430944287106e+00 5.3655909144186245e+00 0.0000000000000000e+00  5.2674013926643610e+00 5.4250783742899493e+00 0.0000000000000000e+00  5.2239035030387662e+00 5.4845342378773578e+00 0.0000000000000000e+00  5.1806198081815520e+00 5.5438920427752718e+00 0.0000000000000000e+00  5.1375647904312274e+00 5.6032341655064215e+00 0.0000000000000000e+00  5.0947259757444581e+00 5.6624787459461352e+00 0.0000000000000000e+00  5.0521360464224623e+00 5.7216684091503867e+00 0.0000000000000000e+00  5.0097666622971460e+00 5.7807649076013732e+00 0.0000000000000000e+00  4.9676558908053456e+00 5.8397802565801733e+00 0.0000000000000000e+00  4.9257727219984799e+00 5.8986907158907211e+00 0.0000000000000000e+00  4.8841527915786429e+00 5.9575242793910599e+00 0.0000000000000000e+00  4.8427354187880391e+00 6.0162629982736986e+00 0.0000000000000000e+00  4.8016594656820102e+00 6.0748323425410193e+00 0.0000000000000000e+00  4.7607354488147253e+00 6.1333709134625920e+00 0.0000000000000000e+00  4.7202024875672430e+00 6.1916495207750959e+00 0.0000000000000000e+00  4.6799785127119682e+00 6.2496948372462979e+00 0.0000000000000000e+00  4.6399736144127184e+00 6.3077051891697220e+00 0.0000000000000000e+00  4.6004444972065803e+00 6.3652340692927085e+00 0.0000000000000000e+00  4.5610412728966025e+00 6.4228744358219840e+00 0.0000000000000000e+00  4.5221337830649224e+00 6.4799624680458479e+00 0.0000000000000000e+00  4.4835103149309710e+00 6.5369688718053602e+00 0.0000000000000000e+00  4.4454057342483067e+00 6.5933386895924366e+00 0.0000000000000000e+00  4.4075923224829232e+00 6.6496582294044844e+00 0.0000000000000000e+00  4.3703370362779612e+00 6.7052197558670921e+00 0.0000000000000000e+00  4.3336999069001552e+00 6.7602668768400891e+00 0.0000000000000000e+00  4.2975962974103421e+00 6.8145267338542368e+00 0.0000000000000000e+00  4.2624017845471069e+00 6.8678730428008237e+00 0.0000000000000000e+00  4.2279946208321570e+00 6.9199963137813603e+00 0.0000000000000000e+00  4.1948511733166418e+00 6.9706711577250724e+00 0.0000000000000000e+00  4.1629005907524874e+00 7.0194279034615539e+00 0.0000000000000000e+00  4.1328059627468896e+00 7.0658079244343543e+00 0.0000000000000000e+00  4.1046724267705530e+00 7.1089824659908203e+00 0.0000000000000000e+00  4.0793218182826303e+00 7.1483874519973147e+00 0.0000000000000000e+00  4.0567568266080691e+00 7.1831319951806742e+00 0.0000000000000000e+00  4.0375341905951236e+00 7.2133111058555324e+00 0.0000000000000000e+00  4.0211123269175211e+00 7.2385061399304744e+00 0.0000000000000000e+00  4.0077118904913203e+00 7.2599132066138949e+00 0.0000000000000000e+00  3.9964165263629403e+00 7.2768029207837346e+00 0.0000000000000000e+00  3.9877456980829535e+00 7.2914035878069550e+00 0.0000000000000000e+00  3.9804397586731186e+00 7.3013147013202513e+00 0.0000000000000000e+00  3.9755892165230247e+00 7.3109627116534863e+00 0.0000000000000000e+00  3.9711523170964842e+00 7.3150098509344685e+00 0.0000000000000000e+00  3.9690895660275105e+00 7.3221338203921658e+00 0.0000000000000000e+00  3.9661623340710297e+00 7.3213139746584979e+00 0.0000000000000000e+00  3.9659705457735703e+00 7.3287298893841450e+00 0.0000000000000000e+00  3.9634590087680199e+00 7.3233235104858228e+00 0.0000000000000000e+00  3.9644803618271793e+00 7.3334066824373974e+00 0.0000000000000000e+00  3.9618919603117395e+00 7.3228865030365622e+00 0.0000000000000000e+00  3.9637239498090051e+00 7.3377434865483195e+00 0.0000000000000000e+00  3.9608568887536317e+00 7.3205449907888083e+00 0.0000000000000000e+00  3.9633757222823873e+00 7.3425188307279114e+00 0.0000000000000000e+00  3.9602135992499390e+00 7.3168858276016238e+00 0.0000000000000000e+00  3.9629947118206550e+00 7.3473228267155699e+00 0.0000000000000000e+00  3.9601050247419005e+00 7.3130552651737206e+00 0.0000000000000000e+00  3.9623695128282210e+00 7.3516083186781218e+00 0.0000000000000000e+00  3.9602785251152692e+00 7.3094976966720555e+00 0.0000000000000000e+00  3.9617298413081472e+00 7.3551253118869004e+00 0.0000000000000000e+00  3.9607025575333830e+00 7.3072548566024045e+00 0.0000000000000000e+00  3.9605768954331837e+00 7.3559652434612790e+00 0.0000000000000000e+00  3.9620879194573870e+00 7.3085954043251808e+00 0.0000000000000000e+00  3.9585009151916140e+00 7.3529420962030461e+00 0.0000000000000000e+00  3.9640498933411514e+00 7.3129242407873987e+00 0.0000000000000000e+00  3.9563520127261409e+00 7.3477702714002078e+00 0.0000000000000000e+00  3.9661482016689034e+00 7.3194745248931667e+00 0.0000000000000000e+00  3.9532999408818461e+00 7.3387857433077288e+00 0.0000000000000000e+00  3.9702606794885149e+00 7.3315783162305310e+00 0.0000000000000000e+00  3.9477406812020859e+00 7.3240233120169371e+00 0.0000000000000000e+00  3.9762679302528858e+00 7.3470784749684315e+00 0.0000000000000000e+00  3.9415938449422865e+00 7.3091464719636718e+00 0.0000000000000000e+00  3.9821519568668506e+00 7.3611275004406860e+00 0.0000000000000000e+00  3.9347628463606692e+00 7.2935896095181363e+00 0.0000000000000000e+00  3.9906517003891295e+00 7.3798231906014928e+00 0.0000000000000000e+00  3.9240326134775394e+00 7.2713005232307921e+00 0.0000000000000000e+00  4.0021062706807848e+00 7.4018769129185085e+00 0.0000000000000000e+00  3.9133798085356015e+00 7.2525698333865360e+00 0.0000000000000000e+00  4.0104601277342038e+00 7.4150952826002765e+00 0.0000000000000000e+00  3.9063569568366878e+00 7.2412489843098173e+00 0.0000000000000000e+00  4.0176919068776185e+00 7.4284207924791410e+00 0.0000000000000000e+00  3.8972481981885649e+00 7.2227057540640303e+00 0.0000000000000000e+00  4.0276582799890210e+00 7.4474951908156335e+00 0.0000000000000000e+00  3.8886833305360153e+00 7.2088295388698178e+00 0.0000000000000000e+00  4.0316082893832537e+00 7.4500921512982359e+00 0.0000000000000000e+00  3.8895322298877204e+00 7.2148115226011491e+00 0.0000000000000000e+00  4.0276993692454548e+00 7.4427222242557614e+00 0.0000000000000000e+00  3.8929658575630586e+00 7.2154638488306624e+00 0.0000000000000000e+00  4.0261921794218809e+00 7.4467827656650094e+00 0.0000000000000000e+00  3.8933679555952243e+00 7.2138348716154068e+00 0.0000000000000000e+00  4.0227369632253245e+00 7.4342765837558451e+00 0.0000000000000000e+00  3.9021206098720933e+00 7.2402444496557887e+00 0.0000000000000000e+00  4.0081877754815443e+00 7.4019782379236894e+00 0.0000000000000000e+00  3.9189021354195877e+00 7.2621361016670276e+00 0.0000000000000000e+00  3.9934720928570111e+00 7.3912821124918766e+00 0.0000000000000000e+00  3.9280745707212046e+00 7.2650668658921331e+00 0.0000000000000000e+00  3.9889710452845066e+00 7.3764209795528384e+00 0.0000000000000000e+00  3.9296538812630155e+00 7.2896270696731280e+00 0.0000000000000000e+00  3.9860610141360602e+00 7.3468131784066584e+00 0.0000000000000000e+00  3.9350538951692027e+00 7.2968838131973923e+00 0.0000000000000000e+00  3.9806650601931928e+00 7.3590896624946689e+00 0.0000000000000000e+00  3.9335639057064635e+00 7.2631169291435018e+00 0.0000000000000000e+00  3.9952161464136560e+00 7.3848152239162381e+00 0.0000000000000000e+00  3.9026344770086761e+00 7.2397739623656170e+00 0.0000000000000000e+00  4.0333476749420321e+00 7.4025021567761407e+00 0.0000000000000000e+00  3.8716602309638155e+00 7.1904866921543080e+00 0.0000000000000000e+00  4.0488468510803477e+00 7.4884061471433281e+00 0.0000000000000000e+00  3.8775819999003298e+00 7.0135666362370959e+00 0.0000000000000000e+00  3.9972037392404305e+00 7.7992183459216342e+00 0.0000000000000000e+00  4.1349411652020995e+00 6.3551194805067182e+00 0.0000000000000000e+00  3.3230177564505401e+00 9.0059051202364415e+00 0.0000000000000000e+00  7.2139919185647541e+00 2.1797017958573424e+00 0.0000000000000000e+00  9.3377572697284812e+00 1.8600635906034343e-01 0.0000000000000000e+00  9.5039616142245684e+00 -2.8847184894687641e-02 0.0000000000000000e+00  9.3728404837722632e+00 3.9631762206991980e-02 0.0000000000000000e+00  9.5018281455388554e+00 -9.1153721436718516e-02 0.0000000000000000e+00  9.4967105684033370e+00 5.0006857185763325e-03 0.0000000000000000e+00  9.4983935868276781e+00 0.0000000000000000e+00 0.0000000000000000e+00  8.8712903076290939e+00 0.0000000000000000e+00 8.5913224883194615e-06  8.8701911497150832e+00 7.5564682750049683e-02 8.3669096241082928e-06  8.8668991307350975e+00 1.5100634778786978e-01 -2.2593007143421012e-05  8.8614264303788186e+00 2.2632831589141852e-01 1.7337115127126809e-05  8.8537697779003537e+00 3.0138152182056882e-01 -1.6452160843319787e-05  8.8439367316390207e+00 3.7613343312216696e-01 1.5025577895394428e-05  8.8319610337404626e+00 4.5047473529086296e-01 -1.4971199776366387e-05  8.8178352717279935e+00 5.2437535090553433e-01 1.5041852828740820e-05  8.8015942448447539e+00 5.9772648480231605e-01 -1.5492252772782299e-05  8.7832666555236685e+00 6.7051580610844042e-01 1.5919945089407061e-05  8.7628760679391444e+00 7.4264455168467380e-01 -1.6247035805540806e-05  8.7404527467971604e+00 8.1411516801122819e-01 1.6841845956978368e-05  8.7160607965786507e+00 8.8483770499855363e-01 -1.7383053358084284e-05  8.6897173413296311e+00 9.5483828182484332e-01 1.8639565893568322e-05  8.6614939377426232e+00 1.0240376467796763e+00 -1.9624976302021656e-05  8.6314453318611228e+00 1.0924770740172289e+00 2.1299663053856500e-05  8.5996330280905990e+00 1.1600995883251126e+00 -2.2265288347750016e-05  8.5661172432005266e+00 1.2269609135669037e+00 2.3986760796794264e-05  8.5309986753156988e+00 1.2930133287150014e+00 -2.4889327670162391e-05  8.4943211612443452e+00 1.3583427282780280e+00 2.6706057909302057e-05  8.4561947899872969e+00 1.4229027574050230e+00 -2.7425068690959661e-05  8.4166934253082868e+00 1.4867943207762528e+00 2.8768377907946076e-05  8.3759099200160279e+00 1.5499947359512547e+00 -2.8415860969006919e-05  8.3339232316591332e+00 1.6125983201468763e+00 2.8125571150888922e-05  8.2908499456988505e+00 1.6745972311710366e+00 -2.5337851786141632e-05  8.2467467866865682e+00 1.7361035114651129e+00 2.1912082950845245e-05  8.2017304170725609e+00 1.7970902215631828e+00 -1.5828676910519114e-05  8.1558786681387492e+00 1.8576889981040492e+00 1.0391716485178722e-05  8.1092715673831908e+00 1.9178767609641654e+00 -5.0133489999381181e-06  8.0619974174490565e+00 1.9777605823424023e+00 3.5850718485843534e-06  8.0141376766678452e+00 2.0373430286498126e+00 -4.3924264010048620e-06  7.9657493891056257e+00 2.0967048486930708e+00 9.3747597770118014e-06  7.9169214628009330e+00 2.1558648212016736e+00 -1.4773322202892380e-05  7.8677034347798465e+00 2.2148626935587910e+00 2.1856292898867702e-05  7.8181610135453354e+00 2.2737535390578314e+00 -2.7631488311551225e-05  7.7683378043214093e+00 2.3325645200265526e+00 3.6090268946378658e-05  7.7183109669779322e+00 2.3912467558298589e+00 -4.6759790405872369e-05  7.6680710028960704e+00 2.4500462128009310e+00 6.3833498921914047e-05  7.6177313808815050e+00 2.5086104408135577e+00 -8.2245395679735487e-05  7.5672466006067189e+00 2.5674233999250560e+00 9.9344248032054452e-05  7.5167290188503797e+00 2.6260282847181209e+00 -1.0566090401078173e-04  7.4661228921324234e+00 2.6848739005559330e+00 1.0167909227235176e-04  7.4155489374345338e+00 2.7435404957004992e+00 -8.7148165107899886e-05  7.3649208700513817e+00 2.8025014774215999e+00 7.1633423938581177e-05  7.3143643655077124e+00 2.8612837821163160e+00 -5.7191414565089453e-05  7.2638128300656177e+00 2.9202878599579511e+00 4.9236418227695302e-05  7.2133335482419669e+00 2.9792739111635642e+00 -4.4817726725367744e-05  7.1629065849543014e+00 3.0383746812277135e+00 4.6403908838469295e-05  7.1125826361525295e+00 3.0974414781702908e+00 -4.8086933423955114e-05  7.0623124544284757e+00 3.1567226819823588e+00 4.8167305186853465e-05  7.0121778830904526e+00 3.2159079290931687e+00 -4.1629783745301545e-05  6.9621243863799416e+00 3.2752669438701933e+00 3.4803654162003814e-05  6.9121985211537460e+00 3.3346037790161525e+00 -2.9913580214924703e-05  6.8623826774322554e+00 3.3940697740631252e+00 2.9110501975405948e-05  6.8127139587053600e+00 3.4535016560736689e+00 -2.6011501079796212e-05  6.7631515221977709e+00 3.5130662632931484e+00 2.1969465540299022e-05  6.7137459330593749e+00 3.5726050632516566e+00 -1.7918383267585065e-05  6.6644808507600688e+00 3.6322347677399418e+00 1.6710600116747526e-05  6.6153550291582555e+00 3.6918757627123946e+00 -1.4585203247574073e-05  6.5663781810107258e+00 3.7515709795539753e+00 1.2904835771584371e-05  6.5175754423623049e+00 3.8112670228665455e+00 -1.2075893102644372e-05  6.4689045358599016e+00 3.8710356333495786e+00 1.3290111232752259e-05  6.4204073127685630e+00 3.9307965495355517e+00 -1.3102745244483267e-05  6.3720791967113586e+00 3.9905912005073350e+00 1.2699599566419533e-05  6.3239117448865798e+00 4.0503996735293724e+00 -1.2248322398379054e-05  6.2759035172384419e+00 4.1102462429353634e+00 1.3066092930922038e-05  6.2280924210695394e+00 4.1700732942758689e+00 -1.3408051374823959e-05  6.1804351921230198e+00 4.2299390281038161e+00 1.4700167802720314e-05  6.1329618440977010e+00 4.2897951601451929e+00 -1.5158574257305805e-05  6.0856622869746815e+00 4.3496816342056617e+00 1.4784575702535583e-05  6.0385665182850721e+00 4.4095221004746605e+00 -1.2737349719087131e-05  5.9916201804758469e+00 4.4694233361889459e+00 1.1306296624285745e-05  5.9448792657310472e+00 4.5292850219457899e+00 -9.9455545909264803e-06  5.8983370852545383e+00 4.5891359551907289e+00 8.9265733602931498e-06  5.8519645542416709e+00 4.6489932088180561e+00 -7.6873034351725092e-06  5.8057751765168417e+00 4.7088678436061651e+00 5.5901603375206592e-06  5.7598271519596977e+00 4.7686480194296097e+00 -3.2388526253380615e-06  5.7140278394033688e+00 4.8284880153399863e+00 2.6691927882177912e-07  5.6684246305602857e+00 4.8883037537204261e+00 1.1411268883786797e-06  5.6230770367613978e+00 4.9480228598290497e+00 -3.3178145038160260e-06  5.5778715408398893e+00 5.0078011048719189e+00 3.6092734158640470e-06  5.5328809919180930e+00 5.0675303967200023e+00 -4.8556761209183384e-06  5.4881351592241341e+00 5.127181569874063