<?xml version="1.0"?>
<VTKFile type="UnstructuredGrid"  version="0.1"  >
<UnstructuredGrid>
<Piece  NumberOfPoints="8241" NumberOfCells="16000">
<Points>
<DataArray  type="Float64"  NumberOfComponents="3"  format="ascii">-5 -1 0  -4.95 -1 0  -4.9 -1 0  -4.85 -1 0  -4.8 -1 0  -4.75 -1 0  -4.7 -1 0  -4.65 -1 0  -4.6 -1 0  -4.55 -1 0  -4.5 -1 0  -4.45 -1 0  -4.4 -1 0  -4.35 -1 0  -4.3 -1 0  -4.25 -1 0  -4.2 -1 0  -4.15 -1 0  -4.1 -1 0  -4.05 -1 0  -4 -1 0  -3.95 -1 0  -3.9 -1 0  -3.85 -1 0  -3.8 -1 0  -3.75 -1 0  -3.7 -1 0  -3.65 -1 0  -3.6 -1 0  -3.55 -1 0  -3.5 -1 0  -3.45 -1 0  -3.4 -1 0  -3.35 -1 0  -3.3 -1 0  -3.25 -1 0  -3.2 -1 0  -3.15 -1 0  -3.1 -1 0  -3.05 -1 0  -3 -1 0  -2.95 -1 0  -2.9 -1 0  -2.85 -1 0  -2.8 -1 0  -2.75 -1 0  -2.7 -1 0  -2.65 -1 0  -2.6 -1 0  -2.55 -1 0  -2.5 -1 0  -2.45 -1 0  -2.4 -1 0  -2.35 -1 0  -2.3 -1 0  -2.25 -1 0  -2.2 -1 0  -2.15 -1 0  -2.1 -1 0  -2.05 -1 0  -2 -1 0  -1.95 -1 0  -1.9 -1 0  -1.85 -1 0  -1.8 -1 0  -1.75 -1 0  -1.7 -1 0  -1.65 -1 0  -1.6 -1 0  -1.55 -1 0  -1.5 -1 0  -1.45 -1 0  -1.4 -1 0  -1.35 -1 0  -1.3 -1 0  -1.25 -1 0  -1.2 -1 0  -1.15 -1 0  -1.1 -1 0  -1.05 -1 0  -1 -1 0  -0.9500000000000002 -1 0  -0.9000000000000004 -1 0  -0.8499999999999996 -1 0  -0.7999999999999998 -1 0  -0.75 -1 0  -0.7000000000000002 -1 0  -0.6500000000000004 -1 0  -0.5999999999999996 -1 0  -0.5499999999999998 -1 0  -0.5 -1 0  -0.4500000000000002 -1 0  -0.4000000000000004 -1 0  -0.3499999999999996 -1 0  -0.2999999999999998 -1 0  -0.25 -1 0  -0.2000000000000002 -1 0  -0.1500000000000004 -1 0  -0.09999999999999964 -1 0  -0.04999999999999982 -1 0  0 -1 0  0.04999999999999982 -1 0  0.09999999999999964 -1 0  0.1500000000000004 -1 0  0.2000000000000002 -1 0  0.25 -1 0  0.2999999999999998 -1 0  0.3499999999999996 -1 0  0.4000000000000004 -1 0  0.4500000000000002 -1 0  0.5 -1 0  0.5499999999999998 -1 0  0.5999999999999996 -1 0  0.6500000000000004 -1 0  0.7000000000000002 -1 0  0.75 -1 0  0.7999999999999998 -1 0  0.8499999999999996 -1 0  0.9000000000000004 -1 0  0.9500000000000002 -1 0  1 -1 0  1.05 -1 0  1.1 -1 0  1.15 -1 0  1.2 -1 0  1.25 -1 0  1.3 -1 0  1.35 -1 0  1.4 -1 0  1.45 -1 0  1.5 -1 0  1.55 -1 0  1.6 -1 0  1.65 -1 0  1.7 -1 0  1.75 -1 0  1.8 -1 0  1.85 -1 0  1.9 -1 0  1.95 -1 0  2 -1 0  2.05 -1 0  2.1 -1 0  2.15 -1 0  2.2 -1 0  2.25 -1 0  2.3 -1 0  2.35 -1 0  2.4 -1 0  2.45 -1 0  2.5 -1 0  2.55 -1 0  2.6 -1 0  2.65 -1 0  2.7 -1 0  2.75 -1 0  2.8 -1 0  2.85 -1 0  2.9 -1 0  2.95 -1 0  3 -1 0  3.050000000000001 -1 0  3.1 -1 0  3.15 -1 0  3.199999999999999 -1 0  3.25 -1 0  3.300000000000001 -1 0  3.35 -1 0  3.4 -1 0  3.449999999999999 -1 0  3.5 -1 0  3.550000000000001 -1 0  3.6 -1 0  3.65 -1 0  3.699999999999999 -1 0  3.75 -1 0  3.800000000000001 -1 0  3.85 -1 0  3.9 -1 0  3.949999999999999 -1 0  4 -1 0  4.050000000000001 -1 0  4.1 -1 0  4.15 -1 0  4.199999999999999 -1 0  4.25 -1 0  4.300000000000001 -1 0  4.35 -1 0  4.4 -1 0  4.449999999999999 -1 0  4.5 -1 0  4.550000000000001 -1 0  4.6 -1 0  4.65 -1 0  4.699999999999999 -1 0  4.75 -1 0  4.800000000000001 -1 0  4.85 -1 0  4.9 -1 0  4.949999999999999 -1 0  5 -1 0  -5 -0.95 0  -4.95 -0.95 0  -4.9 -0.95 0  -4.85 -0.95 0  -4.8 -0.95 0  -4.75 -0.95 0  -4.7 -0.95 0  -4.65 -0.95 0  -4.6 -0.95 0  -4.55 -0.95 0  -4.5 -0.95 0  -4.45 -0.95 0  -4.4 -0.95 0  -4.35 -0.95 0  -4.3 -0.95 0  -4.25 -0.95 0  -4.2 -0.95 0  -4.15 -0.95 0  -4.1 -0.95 0  -4.05 -0.95 0  -4 -0.95 0  -3.95 -0.95 0  -3.9 -0.95 0  -3.85 -0.95 0  -3.8 -0.95 0  -3.75 -0.95 0  -3.7 -0.95 0  -3.65 -0.95 0  -3.6 -0.95 0  -3.55 -0.95 0  -3.5 -0.95 0  -3.45 -0.95 0  -3.4 -0.95 0  -3.35 -0.95 0  -3.3 -0.95 0  -3.25 -0.95 0  -3.2 -0.95 0  -3.15 -0.95 0  -3.1 -0.95 0  -3.05 -0.95 0  -3 -0.95 0  -2.95 -0.95 0  -2.9 -0.95 0  -2.85 -0.95 0  -2.8 -0.95 0  -2.75 -0.95 0  -2.7 -0.95 0  -2.65 -0.95 0  -2.6 -0.95 0  -2.55 -0.95 0  -2.5 -0.95 0  -2.45 -0.95 0  -2.4 -0.95 0  -2.35 -0.95 0  -2.3 -0.95 0  -2.25 -0.95 0  -2.2 -0.95 0  -2.15 -0.95 0  -2.1 -0.95 0  -2.05 -0.95 0  -2 -0.95 0  -1.95 -0.95 0  -1.9 -0.95 0  -1.85 -0.95 0  -1.8 -0.95 0  -1.75 -0.95 0  -1.7 -0.95 0  -1.65 -0.95 0  -1.6 -0.95 0  -1.55 -0.95 0  -1.5 -0.95 0  -1.45 -0.95 0  -1.4 -0.95 0  -1.35 -0.95 0  -1.3 -0.95 0  -1.25 -0.95 0  -1.2 -0.95 0  -1.15 -0.95 0  -1.1 -0.95 0  -1.05 -0.95 0  -1 -0.95 0  -0.9500000000000002 -0.95 0  -0.9000000000000004 -0.95 0  -0.8499999999999996 -0.95 0  -0.7999999999999998 -0.95 0  -0.75 -0.95 0  -0.7000000000000002 -0.95 0  -0.6500000000000004 -0.95 0  -0.5999999999999996 -0.95 0  -0.5499999999999998 -0.95 0  -0.5 -0.95 0  -0.4500000000000002 -0.95 0  -0.4000000000000004 -0.95 0  -0.3499999999999996 -0.95 0  -0.2999999999999998 -0.95 0  -0.25 -0.95 0  -0.2000000000000002 -0.95 0  -0.1500000000000004 -0.95 0  -0.09999999999999964 -0.95 0  -0.04999999999999982 -0.95 0  0 -0.95 0  0.04999999999999982 -0.95 0  0.09999999999999964 -0.95 0  0.1500000000000004 -0.95 0  0.2000000000000002 -0.95 0  0.25 -0.95 0  0.2999999999999998 -0.95 0  0.3499999999999996 -0.95 0  0.4000000000000004 -0.95 0  0.4500000000000002 -0.95 0  0.5 -0.95 0  0.5499999999999998 -0.95 0  0.5999999999999996 -0.95 0  0.6500000000000004 -0.95 0  0.7000000000000002 -0.95 0  0.75 -0.95 0  0.7999999999999998 -0.95 0  0.8499999999999996 -0.95 0  0.9000000000000004 -0.95 0  0.9500000000000002 -0.95 0  1 -0.95 0  1.05 -0.95 0  1.1 -0.95 0  1.15 -0.95 0  1.2 -0.95 0  1.25 -0.95 0  1.3 -0.95 0  1.35 -0.95 0  1.4 -0.95 0  1.45 -0.95 0  1.5 -0.95 0  1.55 -0.95 0  1.6 -0.95 0  1.65 -0.95 0  1.7 -0.95 0  1.75 -0.95 0  1.8 -0.95 0  1.85 -0.95 0  1.9 -0.95 0  1.95 -0.95 0  2 -0.95 0  2.05 -0.95 0  2.1 -0.95 0  2.15 -0.95 0  2.2 -0.95 0  2.25 -0.95 0  2.3 -0.95 0  2.35 -0.95 0  2.4 -0.95 0  2.45 -0.95 0  2.5 -0.95 0  2.55 -0.95 0  2.6 -0.95 0  2.65 -0.95 0  2.7 -0.95 0  2.75 -0.95 0  2.8 -0.95 0  2.85 -0.95 0  2.9 -0.95 0  2.95 -0.95 0  3 -0.95 0  3.050000000000001 -0.95 0  3.1 -0.95 0  3.15 -0.95 0  3.199999999999999 -0.95 0  3.25 -0.95 0  3.300000000000001 -0.95 0  3.35 -0.95 0  3.4 -0.95 0  3.449999999999999 -0.95 0  3.5 -0.95 0  3.550000000000001 -0.95 0  3.6 -0.95 0  3.65 -0.95 0  3.699999999999999 -0.95 0  3.75 -0.95 0  3.800000000000001 -0.95 0  3.85 -0.95 0  3.9 -0.95 0  3.949999999999999 -0.95 0  4 -0.95 0  4.050000000000001 -0.95 0  4.1 -0.95 0  4.15 -0.95 0  4.199999999999999 -0.95 0  4.25 -0.95 0  4.300000000000001 -0.95 0  4.35 -0.95 0  4.4 -0.95 0  4.449999999999999 -0.95 0  4.5 -0.95 0  4.550000000000001 -0.95 0  4.6 -0.95 0  4.65 -0.95 0  4.699999999999999 -0.95 0  4.75 -0.95 0  4.800000000000001 -0.95 0  4.85 -0.95 0  4.9 -0.95 0  4.949999999999999 -0.95 0  5 -0.95 0  -5 -0.9 0  -4.95 -0.9 0  -4.9 -0.9 0  -4.85 -0.9 0  -4.8 -0.9 0  -4.75 -0.9 0  -4.7 -0.9 0  -4.65 -0.9 0  -4.6 -0.9 0  -4.55 -0.9 0  -4.5 -0.9 0  -4.45 -0.9 0  -4.4 -0.9 0  -4.35 -0.9 0  -4.3 -0.9 0  -4.25 -0.9 0  -4.2 -0.9 0  -4.15 -0.9 0  -4.1 -0.9 0  -4.05 -0.9 0  -4 -0.9 0  -3.95 -0.9 0  -3.9 -0.9 0  -3.85 -0.9 0  -3.8 -0.9 0  -3.75 -0.9 0  -3.7 -0.9 0  -3.65 -0.9 0  -3.6 -0.9 0  -3.55 -0.9 0  -3.5 -0.9 0  -3.45 -0.9 0  -3.4 -0.9 0  -3.35 -0.9 0  -3.3 -0.9 0  -3.25 -0.9 0  -3.2 -0.9 0  -3.15 -0.9 0  -3.1 -0.9 0  -3.05 -0.9 0  -3 -0.9 0  -2.95 -0.9 0  -2.9 -0.9 0  -2.85 -0.9 0  -2.8 -0.9 0  -2.75 -0.9 0  -2.7 -0.9 0  -2.65 -0.9 0  -2.6 -0.9 0  -2.55 -0.9 0  -2.5 -0.9 0  -2.45 -0.9 0  -2.4 -0.9 0  -2.35 -0.9 0  -2.3 -0.9 0  -2.25 -0.9 0  -2.2 -0.9 0  -2.15 -0.9 0  -2.1 -0.9 0  -2.05 -0.9 0  -2 -0.9 0  -1.95 -0.9 0  -1.9 -0.9 0  -1.85 -0.9 0  -1.8 -0.9 0  -1.75 -0.9 0  -1.7 -0.9 0  -1.65 -0.9 0  -1.6 -0.9 0  -1.55 -0.9 0  -1.5 -0.9 0  -1.45 -0.9 0  -1.4 -0.9 0  -1.35 -0.9 0  -1.3 -0.9 0  -1.25 -0.9 0  -1.2 -0.9 0  -1.15 -0.9 0  -1.1 -0.9 0  -1.05 -0.9 0  -1 -0.9 0  -0.9500000000000002 -0.9 0  -0.9000000000000004 -0.9 0  -0.8499999999999996 -0.9 0  -0.7999999999999998 -0.9 0  -0.75 -0.9 0  -0.7000000000000002 -0.9 0  -0.6500000000000004 -0.9 0  -0.5999999999999996 -0.9 0  -0.5499999999999998 -0.9 0  -0.5 -0.9 0  -0.4500000000000002 -0.9 0  -0.4000000000000004 -0.9 0  -0.3499999999999996 -0.9 0  -0.2999999999999998 -0.9 0  -0.25 -0.9 0  -0.2000000000000002 -0.9 0  -0.1500000000000004 -0.9 0  -0.09999999999999964 -0.9 0  -0.04999999999999982 -0.9 0  0 -0.9 0  0.04999999999999982 -0.9 0  0.09999999999999964 -0.9 0  0.1500000000000004 -0.9 0  0.2000000000000002 -0.9 0  0.25 -0.9 0  0.2999999999999998 -0.9 0  0.3499999999999996 -0.9 0  0.4000000000000004 -0.9 0  0.4500000000000002 -0.9 0  0.5 -0.9 0  0.5499999999999998 -0.9 0  0.5999999999999996 -0.9 0  0.6500000000000004 -0.9 0  0.7000000000000002 -0.9 0  0.75 -0.9 0  0.7999999999999998 -0.9 0  0.8499999999999996 -0.9 0  0.9000000000000004 -0.9 0  0.9500000000000002 -0.9 0  1 -0.9 0  1.05 -0.9 0  1.1 -0.9 0  1.15 -0.9 0  1.2 -0.9 0  1.25 -0.9 0  1.3 -0.9 0  1.35 -0.9 0  1.4 -0.9 0  1.45 -0.9 0  1.5 -0.9 0  1.55 -0.9 0  1.6 -0.9 0  1.65 -0.9 0  1.7 -0.9 0  1.75 -0.9 0  1.8 -0.9 0  1.85 -0.9 0  1.9 -0.9 0  1.95 -0.9 0  2 -0.9 0  2.05 -0.9 0  2.1 -0.9 0  2.15 -0.9 0  2.2 -0.9 0  2.25 -0.9 0  2.3 -0.9 0  2.35 -0.9 0  2.4 -0.9 0  2.45 -0.9 0  2.5 -0.9 0  2.55 -0.9 0  2.6 -0.9 0  2.65 -0.9 0  2.7 -0.9 0  2.75 -0.9 0  2.8 -0.9 0  2.85 -0.9 0  2.9 -0.9 0  2.95 -0.9 0  3 -0.9 0  3.050000000000001 -0.9 0  3.1 -0.9 0  3.15 -0.9 0  3.199999999999999 -0.9 0  3.25 -0.9 0  3.300000000000001 -0.9 0  3.35 -0.9 0  3.4 -0.9 0  3.449999999999999 -0.9 0  3.5 -0.9 0  3.550000000000001 -0.9 0  3.6 -0.9 0  3.65 -0.9 0  3.699999999999999 -0.9 0  3.75 -0.9 0  3.800000000000001 -0.9 0  3.85 -0.9 0  3.9 -0.9 0  3.949999999999999 -0.9 0  4 -0.9 0  4.050000000000001 -0.9 0  4.1 -0.9 0  4.15 -0.9 0  4.199999999999999 -0.9 0  4.25 -0.9 0  4.300000000000001 -0.9 0  4.35 -0.9 0  4.4 -0.9 0  4.449999999999999 -0.9 0  4.5 -0.9 0  4.550000000000001 -0.9 0  4.6 -0.9 0  4.65 -0.9 0  4.699999999999999 -0.9 0  4.75 -0.9 0  4.800000000000001 -0.9 0  4.85 -0.9 0  4.9 -0.9 0  4.949999999999999 -0.9 0  5 -0.9 0  -5 -0.85 0  -4.95 -0.85 0  -4.9 -0.85 0  -4.85 -0.85 0  -4.8 -0.85 0  -4.75 -0.85 0  -4.7 -0.85 0  -4.65 -0.85 0  -4.6 -0.85 0  -4.55 -0.85 0  -4.5 -0.85 0  -
[...]
<PointData  Vectors="f_15"> 
<DataArray  type="Float64"  Name="f_15"  NumberOfComponents="3" format="ascii">2.0674589695240231e+00 0.0000000000000000e+00 0.0000000000000000e+00  2.0667208462049542e+00 2.8999334892934148e-02 0.0000000000000000e+00  2.0653779775600025e+00 7.7177078817359787e-02 0.0000000000000000e+00  2.0679920552089888e+00 7.8871656043130151e-02 0.0000000000000000e+00  2.0657482086802510e+00 1.0109850878110142e-01 0.0000000000000000e+00  2.0656571138690381e+00 1.7395446530013384e-01 0.0000000000000000e+00  2.0694830837904226e+00 1.2919484973430259e-01 0.0000000000000000e+00  2.0838727702200988e+00 1.8925283234363346e-01 0.0000000000000000e+00  2.2509585774932646e+00 -1.6481491432242426e-01 0.0000000000000000e+00  2.7818082345402702e+00 -1.2975553146109502e+00 0.0000000000000000e+00  3.5248391516996276e+00 -2.7358072448034778e+00 0.0000000000000000e+00  4.1854086992564676e+00 -3.8529473982164499e+00 0.0000000000000000e+00  4.6062718303635588e+00 -4.4683504956417410e+00 0.0000000000000000e+00  4.8608334075439270e+00 -4.7871475155500995e+00 0.0000000000000000e+00  4.9885641641548899e+00 -4.9832806243920302e+00 0.0000000000000000e+00  5.0729050013901640e+00 -5.0028560257088071e+00 0.0000000000000000e+00  5.1150119678012143e+00 -5.0767131819694464e+00 0.0000000000000000e+00  5.1409771794556134e+00 -5.0528899996397811e+00 0.0000000000000000e+00  5.1679625279763508e+00 -5.0547327473163453e+00 0.0000000000000000e+00  5.1793558166379441e+00 -5.0393339082475883e+00 0.0000000000000000e+00  5.1982253450699032e+00 -5.0246453811397105e+00 0.0000000000000000e+00  5.2084502414826002e+00 -5.0088440686848976e+00 0.0000000000000000e+00  5.2266320702240394e+00 -4.9771405086218348e+00 0.0000000000000000e+00  5.2347524989025418e+00 -4.9865047074810898e+00 0.0000000000000000e+00  5.2523748436425812e+00 -4.9346702146636199e+00 0.0000000000000000e+00  5.2622948797343083e+00 -4.9400132553950717e+00 0.0000000000000000e+00  5.2773483985093277e+00 -4.9181341889550456e+00 0.0000000000000000e+00  5.2893695814114841e+00 -4.8834371949690327e+00 0.0000000000000000e+00  5.3024302416946361e+00 -4.8894664567248043e+00 0.0000000000000000e+00  5.3165745192484763e+00 -4.8503596557258657e+00 0.0000000000000000e+00  5.3266151887631876e+00 -4.8437025496277801e+00 0.0000000000000000e+00  5.3443482207458324e+00 -4.8177238465674508e+00 0.0000000000000000e+00  5.3512378357340022e+00 -4.8076285759057100e+00 0.0000000000000000e+00  5.3699930821028907e+00 -4.7770611145881654e+00 0.0000000000000000e+00  5.3776583449200350e+00 -4.7688529009130463e+00 0.0000000000000000e+00  5.3950315915112927e+00 -4.7452218982782499e+00 0.0000000000000000e+00  5.4029495928514946e+00 -4.7221086073129355e+00 0.0000000000000000e+00  5.4209145443435691e+00 -4.7123998101234079e+00 0.0000000000000000e+00  5.4278244013315842e+00 -4.6829503153896015e+00 0.0000000000000000e+00  5.4459700562864155e+00 -4.6699749452385344e+00 0.0000000000000000e+00  5.4532699842595962e+00 -4.6473849391733806e+00 0.0000000000000000e+00  5.4702968760823714e+00 -4.6301602813049856e+00 0.0000000000000000e+00  5.4783359178496340e+00 -4.6057137901434926e+00 0.0000000000000000e+00  5.4946694149617858e+00 -4.5933862457345453e+00 0.0000000000000000e+00  5.5031123275814320e+00 -4.5652007500757446e+00 0.0000000000000000e+00  5.5181812954307636e+00 -4.5524931352580680e+00 0.0000000000000000e+00  5.5280203640015610e+00 -4.5270821258321998e+00 0.0000000000000000e+00  5.5415148868880282e+00 -4.5118240939797003e+00 0.0000000000000000e+00  5.5518268162510944e+00 -4.4860705586642879e+00 0.0000000000000000e+00  5.5650979078648399e+00 -4.4724412047714539e+00 0.0000000000000000e+00  5.5751128276831272e+00 -4.4455429902102095e+00 0.0000000000000000e+00  5.5880017473821164e+00 -4.4293856173445576e+00 0.0000000000000000e+00  5.5982404332422542e+00 -4.4069319715002679e+00 0.0000000000000000e+00  5.6103857529301697e+00 -4.3853281924581813e+00 0.0000000000000000e+00  5.6208539558078732e+00 -4.3656347138311054e+00 0.0000000000000000e+00  5.6324044156763771e+00 -4.3421687890447345e+00 0.0000000000000000e+00  5.6428895028247625e+00 -4.3231709661898545e+00 0.0000000000000000e+00  5.6540612119669404e+00 -4.2969431185264062e+00 0.0000000000000000e+00  5.6642665334345903e+00 -4.2805341073347210e+00 0.0000000000000000e+00  5.6753622467402325e+00 -4.2512834251682845e+00 0.0000000000000000e+00  5.6851197559670785e+00 -4.2353485633177437e+00 0.0000000000000000e+00  5.6959632996377483e+00 -4.2061214956020709e+00 0.0000000000000000e+00  5.7056400287313505e+00 -4.1890290013356681e+00 0.0000000000000000e+00  5.7160088016801103e+00 -4.1593359451033267e+00 0.0000000000000000e+00  5.7254478208766164e+00 -4.1429537152386393e+00 0.0000000000000000e+00  5.7356351498119276e+00 -4.1113863059859623e+00 0.0000000000000000e+00  5.7447708683868326e+00 -4.0960194254529769e+00 0.0000000000000000e+00  5.7544598098809381e+00 -4.0632590299821105e+00 0.0000000000000000e+00  5.7636833741868845e+00 -4.0481413890483671e+00 0.0000000000000000e+00  5.7728371733122144e+00 -4.0146902882498789e+00 0.0000000000000000e+00  5.7816945250650047e+00 -3.9996143247539759e+00 0.0000000000000000e+00  5.7908350813808758e+00 -3.9657972723961641e+00 0.0000000000000000e+00  5.7992822907363797e+00 -3.9499427221293688e+00 0.0000000000000000e+00  5.8078630354311835e+00 -3.9172498560094877e+00 0.0000000000000000e+00  5.8165492291556120e+00 -3.8985658595359989e+00 0.0000000000000000e+00  5.8244136965623632e+00 -3.8690652425716903e+00 0.0000000000000000e+00  5.8328917513536132e+00 -3.8461857330475335e+00 0.0000000000000000e+00  5.8405987710054204e+00 -3.8199242428366520e+00 0.0000000000000000e+00  5.8487891334343312e+00 -3.7940724516944844e+00 0.0000000000000000e+00  5.8558775176752418e+00 -3.7691631389734148e+00 0.0000000000000000e+00  5.8642648497193743e+00 -3.7421304602053387e+00 0.0000000000000000e+00  5.8708026785312857e+00 -3.7171846252204479e+00 0.0000000000000000e+00  5.8787600545037186e+00 -3.6901521651008355e+00 0.0000000000000000e+00  5.8853967233037592e+00 -3.6639974592628826e+00 0.0000000000000000e+00  5.8928323930101021e+00 -3.6379190635855743e+00 0.0000000000000000e+00  5.8991027714763336e+00 -3.6104195094051788e+00 0.0000000000000000e+00  5.9065188861960829e+00 -3.5844030537325624e+00 0.0000000000000000e+00  5.9124489397587254e+00 -3.5570134510258327e+00 0.0000000000000000e+00  5.9192975294871930e+00 -3.5300521597388905e+00 0.0000000000000000e+00  5.9254710986091581e+00 -3.5027867207030852e+00 0.0000000000000000e+00  5.9316744535387613e+00 -3.4756178759410172e+00 0.0000000000000000e+00  5.9376737014520282e+00 -3.4478376071615111e+00 0.0000000000000000e+00  5.9436860538812413e+00 -3.4205740523532446e+00 0.0000000000000000e+00  5.9495382484102848e+00 -3.3924219033728700e+00 0.0000000000000000e+00  5.9548733223770371e+00 -3.3653582705961256e+00 0.0000000000000000e+00  5.9610825418621411e+00 -3.3359494704690538e+00 0.0000000000000000e+00  5.9657163023168946e+00 -3.3099517581398876e+00 0.0000000000000000e+00  5.9718651453598639e+00 -3.2793555461162383e+00 0.0000000000000000e+00  5.9762265500799092e+00 -3.2531562344936980e+00 0.0000000000000000e+00  5.9823465031881966e+00 -3.2231343887983610e+00 0.0000000000000000e+00  5.9860098075304178e+00 -3.1956424603861793e+00 0.0000000000000000e+00  5.9924927326336057e+00 -3.1659587010049273e+00 0.0000000000000000e+00  5.9955444582509578e+00 -3.1383850779527895e+00 0.0000000000000000e+00  6.0019305017670739e+00 -3.1078727831780810e+00 0.0000000000000000e+00  6.0047627159348291e+00 -3.0805763638723556e+00 0.0000000000000000e+00  6.0111530840873932e+00 -3.0496298049784776e+00 0.0000000000000000e+00  6.0133146025373918e+00 -3.0221906081701650e+00 0.0000000000000000e+00  6.0200468170214849e+00 -2.9906812407832457e+00 0.0000000000000000e+00  6.0217262219007495e+00 -2.9635813199524854e+00 0.0000000000000000e+00  6.0282697151023701e+00 -2.9313450693943026e+00 0.0000000000000000e+00  6.0298419551358515e+00 -2.9039878480642138e+00 0.0000000000000000e+00  6.0363814219606322e+00 -2.8719697118582039e+00 0.0000000000000000e+00  6.0373325796311459e+00 -2.8440265622372078e+00 0.0000000000000000e+00  6.0441719822365751e+00 -2.8116346112731168e+00 0.0000000000000000e+00  6.0447945282758910e+00 -2.7842815988881369e+00 0.0000000000000000e+00  6.0513410543601411e+00 -2.7509462531066085e+00 0.0000000000000000e+00  6.0519398806055200e+00 -2.7238835586555008e+00 0.0000000000000000e+00  6.0585265024607526e+00 -2.6904044598616310e+00 0.0000000000000000e+00  6.0585177370641938e+00 -2.6630606218458066e+00 0.0000000000000000e+00  6.0653416887106690e+00 -2.6294195259785780e+00 0.0000000000000000e+00  6.0651989990363351e+00 -2.6017859183064784e+00 0.0000000000000000e+00  6.0716165611572812e+00 -2.5681315825705378e+00 0.0000000000000000e+00  6.0714818668424950e+00 -2.5399495449787723e+00 0.0000000000000000e+00  6.0780276805884732e+00 -2.5062441997099167e+00 0.0000000000000000e+00  6.0773222513130083e+00 -2.4779845397830846e+00 0.0000000000000000e+00  6.0839401704508287e+00 -2.4440878274770474e+00 0.0000000000000000e+00  6.0833703506628423e+00 -2.4156079536370281e+00 0.0000000000000000e+00  6.0894834506307474e+00 -2.3819147645657135e+00 0.0000000000000000e+00  6.0888477655576096e+00 -2.3533858613719274e+00 0.0000000000000000e+00  6.0952495233823143e+00 -2.3191959908632884e+00 0.0000000000000000e+00  6.0940925488790718e+00 -2.2912217466962912e+00 0.0000000000000000e+00  6.1003255552885589e+00 -2.2565795604379231e+00 0.0000000000000000e+00  6.0995890095819130e+00 -2.2286537557245865e+00 0.0000000000000000e+00  6.1052975641086862e+00 -2.1936409059264248e+00 0.0000000000000000e+00  6.1042976800563196e+00 -2.1665164295073875e+00 0.0000000000000000e+00  6.1104961206340489e+00 -2.1299402186107783e+00 0.0000000000000000e+00  6.1090858161328399e+00 -2.1039067946232244e+00 0.0000000000000000e+00  6.1147729545941045e+00 -2.0667105415636677e+00 0.0000000000000000e+00  6.1140845631414056e+00 -2.0405601360398147e+00 0.0000000000000000e+00  6.1192957606212586e+00 -2.0028550626243589e+00 0.0000000000000000e+00  6.1180651838601232e+00 -1.9778170107622113e+00 0.0000000000000000e+00  6.1239491940478077e+00 -1.9388893323182177e+00 0.0000000000000000e+00  6.1225135918473743e+00 -1.9135634026918142e+00 0.0000000000000000e+00  6.1274506887126208e+00 -1.8766704518885891e+00 0.0000000000000000e+00  6.1270406412269809e+00 -1.8488437439671577e+00 0.0000000000000000e+00  6.1315937720666138e+00 -1.8130383491911048e+00 0.0000000000000000e+00  6.1303473135304198e+00 -1.7862492861112915e+00 0.0000000000000000e+00  6.1356935168501066e+00 -1.7483123579140805e+00 0.0000000000000000e+00  6.1345200181551869e+00 -1.7231276504822413e+00 0.0000000000000000e+00  6.1384641619073630e+00 -1.6846417806891583e+00 0.0000000000000000e+00  6.1385824143064482e+00 -1.6592549211403973e+00 0.0000000000000000e+00  6.1422315997385670e+00 -1.6208199632984961e+00 0.0000000000000000e+00  6.1413190829232285e+00 -1.5946603847542373e+00 0.0000000000000000e+00  6.1457262094701246e+00 -1.5586535151823786e+00 0.0000000000000000e+00  6.1452420957260889e+00 -1.5279890828521037e+00 0.0000000000000000e+00  6.1478519951442339e+00 -1.4967237609613673e+00 0.0000000000000000e+00  6.1487954905823914e+00 -1.4634056232685533e+00 0.0000000000000000e+00  6.1512588451411165e+00 -1.4310358957232046e+00 0.0000000000000000e+00  6.1510168091125372e+00 -1.4018784204071657e+00 0.0000000000000000e+00  6.1541867744416159e+00 -1.3661021582256796e+00 0.0000000000000000e+00  6.1545614293317783e+00 -1.3378795516011288e+00 0.0000000000000000e+00  6.1558757095679670e+00 -1.3039634517949756e+00 0.0000000000000000e+00  6.1575250763558182e+00 -1.2743175960067203e+00 0.0000000000000000e+00  6.1588871399838983e+00 -1.2406820022763609e+00 0.0000000000000000e+00  6.1593617001987511e+00 -1.2116305343139511e+00 0.0000000000000000e+00  6.1612680459582725e+00 -1.1793727308183601e+00 0.0000000000000000e+00  6.1624302085946905e+00 -1.1474236294300049e+00 0.0000000000000000e+00  6.1627131537798512e+00 -1.1186623002671330e+00 0.0000000000000000e+00  6.1647813026931075e+00 -1.0849184328758206e+00 0.0000000000000000e+00  6.1653270867246182e+00 -1.0548260875566688e+00 0.0000000000000000e+00  6.1663191686679477e+00 -1.0232934267842286e+00 0.0000000000000000e+00  6.1672540172917341e+00 -9.9142568000719544e-01 0.0000000000000000e+00  6.1688269263925148e+00 -9.5981509689531030e-01 0.0000000000000000e+00  6.1685576787403686e+00 -9.2763585962129280e-01 0.0000000000000000e+00  6.1706521508145098e+00 -8.9569491094388587e-01 0.0000000000000000e+00  6.1706231709622417e+00 -8.6367194863059615e-01 0.0000000000000000e+00  6.1720052046322831e+00 -8.3122529649335497e-01 0.0000000000000000e+00  6.1720305718561255e+00 -8.0295127002356148e-01 0.0000000000000000e+00  6.1738894956383357e+00 -7.6706944353391637e-01 0.0000000000000000e+00  6.1731248532517249e+00 -7.4735249994560671e-01 0.0000000000000000e+00  6.1751815393893059e+00 -7.0370520191372987e-01 0.0000000000000000e+00  6.1745870324514147e+00 -6.9165019151914342e-01 0.0000000000000000e+00  6.1763027221510818e+00 -6.4101856551216851e-01 0.0000000000000000e+00  6.1756640409114940e+00 -6.2940962397212197e-01 0.0000000000000000e+00  6.1775347612593228e+00 -5.7816775953605681e-01 0.0000000000000000e+00  6.1767794847505666e+00 -5.6369775731705873e-01 0.0000000000000000e+00  6.1783850323396079e+00 -5.1587849026591859e-01 0.0000000000000000e+00  6.1778385477740185e+00 -4.9197107582415389e-01 0.0000000000000000e+00  6.1793361285143815e+00 -4.4791400576697882e-01 0.0000000000000000e+00  6.1786146439298282e+00 -4.1707543544670822e-01 0.0000000000000000e+00  6.1800258206600667e+00 -3.7705088740281584e-01 0.0000000000000000e+00  6.1794965143826985e+00 -3.5199635725123352e-01 0.0000000000000000e+00  6.1805033323160785e+00 -3.1102081937696535e-01 0.0000000000000000e+00  6.1800462354547543e+00 -2.7523460194090243e-01 0.0000000000000000e+00  6.1811729318579918e+00 -2.4373429083218753e-01 0.0000000000000000e+00  6.1804207520473557e+00 -2.0925449139617766e-01 0.0000000000000000e+00  6.1812250650816400e+00 -1.7906740355842074e-01 0.0000000000000000e+00  6.1810164125849463e+00 -1.4025750851692129e-01 0.0000000000000000e+00  6.1813804060377251e+00 -1.2223543594457414e-01 0.0000000000000000e+00  6.1811170324601195e+00 -3.4385256286921614e-02 0.0000000000000000e+00  6.1819832540504143e+00 0.0000000000000000e+00 0.0000000000000000e+00  2.0696858449359001e+00 0.0000000000000000e+00 -2.6980790198945894e-03  2.0661358369770704e+00 2.8113141076743731e-02 3.7853146337323363e-03  2.0689707968354991e+00 5.4270286386919039e-02 -2.4187600712668730e-02  2.0675850273322287e+00 9.9148744256560215e-02 4.1157046252568427e-02  2.0671984625141384e+00 1.1041296315006559e-01 -3.0108872844057551e-02  2.0692649988014042e+00 1.4863440613150733e-01 1.3649505592679486e-02  2.0713462700875218e+00 1.6671796658181098e-01 9.3883732417885304e-03  2.0928496048280469e+00 1.4552328837304282e-01 -3.0095732818719165e-02  2.2551126231352843e+00 -1.5697320440925497e-01 2.5486887138871255e-02  2.7627011375386101e+00 -1.2431246082710876e+00 -3.7635235807196573e-04  3.5449271315317579e+00 -2.7412833657883220e+00 9.8928545545448176e-03  4.1917994596381734e+00 -3.8484958585329792e+00 -4.9284782699162179e-03  4.6154096061975993e+00 -4.4415973860926954e+00 -4.4820618191817180e-03  4.8524441789796624e+00 -4.8028009957032092e+00 1.4210548455487568e-03  4.9947232366051058e+00 -4.9295788511019794e+00 -2.8542879854138213e-03  5.0747602983509879e+00 -5.0152625890970688e+00 6.0073208859654512e-03  5.1107731918075467e+00 -5.0557268822952643e+00 -3.6659521782372584e-03  5.1505627831820338e+00 -5.0319553799086183e+00 3.3888182035452913e-03  5.1650953872442082e+00 -5.0486865479028999e+00 -1.4283691914072701e-03  5.1825958945034385e+00 -5.0254387016992448e+00 7.7672549230994208e-04  5.1988761601473783e+00 -5.0106982520084387e+00 -4.1731141393573965e-04  5.2118985584906685e+00 -4.9907848669062878e+00 3.2242934434700729e-04  5.2248629675198170e+00 -4.9843324302925778e+00 -1.0264368480719769e-03  5.2385956594880554e+00 -4.9508379216811997e+00 1.6153874562444849e-03  5.2515697831036592e+00 -4.9414297071673214e+00 -1.6092933635705497e-03  5.2640288217454403e+00 -4.9282558903059632e+00 6.9165903879641298e-04  5.2782013172995610e+00 -4.8919875482610768e+00 1.0943653876440641e-03  5.2890758690831898e+00 -4.8932023744272213e+00 -2.3461033960830479e-03  5.3049224612670063e+00 -4.8623718676422376e+00 3.1031796638412283e-03  5.3140563230131086e+00 -4.8451022030292323e+00 -2.6649340594454246e-03  5.3312713164527850e+00 -4.8290394440959350e+00 2.3134587599537640e-03  5.3398599306774628e+00 -4.8099170241127833e+00 -1.8130616706429055e-03  5.3558097107760032e+00 -4.7859181385116161e+00 1.8687270341125593e-03  5.3670183510205387e+00 -4.7729457254539778e+00 -1.7183883447325458e-03  5.3802575647172048e+00 -4.7516870699880069e+00 1.4974702074950046e-03  5.3925384094785418e+00 -4.7288194845905922e+00 -1.0862926686902364e-03  5.4061412293261712e+00 -4.7161401883030232e+00 8.9231117016509091e-04  5.4173207957620075e+00 -4.6925557631555126e+00 -1.2040997039701644e-03  5.4314557642951176e+00 -4.6719776101143742e+00 1.7662079390145099e-03  5.4425423229454948e+00 -4.6586174370780400e+00 -2.4547262617408551e-03  5.4562269498338045e+00 -4.6318043944655063e+00 2.6551944969572618e-03  5.4674666370107552e+00 -4.6171577908118842e+00 -2.5915381646353765e-03  5.4810248075451256e+00 -4.5952789835388996e+00 2.2219656132610151e-03  5.4921010810710431e+00 -4.5762880441146701e+00 -2.0374857975405912e-03  5.5052170386112209e+00 -4.5539393536942745e+00 2.0754764508417720e-03  5.5167831772690636e+00 -4.5378470970908475e+00 -2.2084610323036677e-03  5.5293134633418877e+00 -4.5122236643244191e+00 2.3917940555059462e-03  5.5404831057595745e+00 -4.4959976874063523e+00 -2.2518347245967952e-03  5.5535912546632638e+00 -4.4721397162258336e+00 2.2516221825256170e-03  5.5639040103941975e+00 -4.4537810403423750e+00 -2.1082477170956812e-03  5.5770418360188749e+00 -4.4290044056428046e+00 2.3523841648738645e-03  5.5873305571041074e+00 -4.4132975972400255e+00 -2.4408678059513311e-03  5.5999891817323784e+00 -4.3854281432064761e+00 2.5733883770496244e-03  5.6102971195351294e+00 -4.3701286744162502e+00 -2.3931923888113114e-03  5.6225107234975704e+00 -4.3438461109050532e+00 2.0468170866260005e-03  5.6328587429267367e+00 -4.3259934938473750e+00 -1.7568935766129274e-03  5.6445493116437016e+00 -4.3008090763942182e+00 1.3362628319477901e-03  5.6548903804857638e+00 -4.2827658136648727e+00 -1.2902525126909604e-03  5.6661597632233462e+00 -4.2574564244808846e+00 8.3647637343707050e-04  5.6764382068206913e+00 -4.2380265621632107e+00 -8.2026343590032506e-04  5.6870891068048364e+00 -4.2147825821596516e+00 1.9049614207177108e-04  5.6976260119145046e+00 -4.1928530856243009e+00 -2.0069610334034536e-04  5.7074938183733233e+00 -4.1705794736483774e+00 -3.8858989287766330e-04  5.7180266985793589e+00 -4.1482399107846968e+00 2.4269775562216184e-04  5.7275624470680908e+00 -4.1253519859013883e+00 -7.1878376951765854e-04  5.7378341135954543e+00 -4.1025784813288846e+00 5.1602709523459252e-04  5.7469104732940020e+00 -4.0798703077226248e+00 -8.3786449405627312e-04  5.7571319626846993e+00 -4.0559779277105212e+00 5.3405689250226956e-04  5.7658467616941547e+00 -4.0332395054059518e+00 -6.0979867065435154e-04  5.7754794830858076e+00 -4.0089488603669761e+00 2.5282080177120402e-04  5.7844102612271717e+00 -3.9854370943736539e+00 -2.0994708779959991e-04  5.7933590084187232e+00 -3.9609612113258557e+00 -3.7935270302477146e-05  5.8019952507224914e+00 -3.9370598211395209e+00 9.7901513216216496e-05  5.8108943394864179e+00 -3.9116594273492793e+00 -2.0331212605833395e-04  5.8190708988886461e+00 -3.8880866893769874e+00 2.5046231510858101e-04  5.8275083323911092e+00 -3.8615407154404777e+00 -1.8033449870118190e-04  5.8357350527165339e+00 -3.8378534477144353e+00 1.8187233563571307e-04  5.8436860843182190e+00 -3.8111788296528175e+00 8.5830863117537332e-06  5.8514463651313422e+00 -3.7863903916790340e+00 5.981545700222