<?xml version="1.0"?>
<VTKFile type="UnstructuredGrid"  version="0.1"  >
<UnstructuredGrid>
<Piece  NumberOfPoints="8241" NumberOfCells="16000">
<Points>
<DataArray  type="Float64"  NumberOfComponents="3"  format="ascii">-5 -1 0  -4.95 -1 0  -4.9 -1 0  -4.85 -1 0  -4.8 -1 0  -4.75 -1 0  -4.7 -1 0  -4.65 -1 0  -4.6 -1 0  -4.55 -1 0  -4.5 -1 0  -4.45 -1 0  -4.4 -1 0  -4.35 -1 0  -4.3 -1 0  -4.25 -1 0  -4.2 -1 0  -4.15 -1 0  -4.1 -1 0  -4.05 -1 0  -4 -1 0  -3.95 -1 0  -3.9 -1 0  -3.85 -1 0  -3.8 -1 0  -3.75 -1 0  -3.7 -1 0  -3.65 -1 0  -3.6 -1 0  -3.55 -1 0  -3.5 -1 0  -3.45 -1 0  -3.4 -1 0  -3.35 -1 0  -3.3 -1 0  -3.25 -1 0  -3.2 -1 0  -3.15 -1 0  -3.1 -1 0  -3.05 -1 0  -3 -1 0  -2.95 -1 0  -2.9 -1 0  -2.85 -1 0  -2.8 -1 0  -2.75 -1 0  -2.7 -1 0  -2.65 -1 0  -2.6 -1 0  -2.55 -1 0  -2.5 -1 0  -2.45 -1 0  -2.4 -1 0  -2.35 -1 0  -2.3 -1 0  -2.25 -1 0  -2.2 -1 0  -2.15 -1 0  -2.1 -1 0  -2.05 -1 0  -2 -1 0  -1.95 -1 0  -1.9 -1 0  -1.85 -1 0  -1.8 -1 0  -1.75 -1 0  -1.7 -1 0  -1.65 -1 0  -1.6 -1 0  -1.55 -1 0  -1.5 -1 0  -1.45 -1 0  -1.4 -1 0  -1.35 -1 0  -1.3 -1 0  -1.25 -1 0  -1.2 -1 0  -1.15 -1 0  -1.1 -1 0  -1.05 -1 0  -1 -1 0  -0.9500000000000002 -1 0  -0.9000000000000004 -1 0  -0.8499999999999996 -1 0  -0.7999999999999998 -1 0  -0.75 -1 0  -0.7000000000000002 -1 0  -0.6500000000000004 -1 0  -0.5999999999999996 -1 0  -0.5499999999999998 -1 0  -0.5 -1 0  -0.4500000000000002 -1 0  -0.4000000000000004 -1 0  -0.3499999999999996 -1 0  -0.2999999999999998 -1 0  -0.25 -1 0  -0.2000000000000002 -1 0  -0.1500000000000004 -1 0  -0.09999999999999964 -1 0  -0.04999999999999982 -1 0  0 -1 0  0.04999999999999982 -1 0  0.09999999999999964 -1 0  0.1500000000000004 -1 0  0.2000000000000002 -1 0  0.25 -1 0  0.2999999999999998 -1 0  0.3499999999999996 -1 0  0.4000000000000004 -1 0  0.4500000000000002 -1 0  0.5 -1 0  0.5499999999999998 -1 0  0.5999999999999996 -1 0  0.6500000000000004 -1 0  0.7000000000000002 -1 0  0.75 -1 0  0.7999999999999998 -1 0  0.8499999999999996 -1 0  0.9000000000000004 -1 0  0.9500000000000002 -1 0  1 -1 0  1.05 -1 0  1.1 -1 0  1.15 -1 0  1.2 -1 0  1.25 -1 0  1.3 -1 0  1.35 -1 0  1.4 -1 0  1.45 -1 0  1.5 -1 0  1.55 -1 0  1.6 -1 0  1.65 -1 0  1.7 -1 0  1.75 -1 0  1.8 -1 0  1.85 -1 0  1.9 -1 0  1.95 -1 0  2 -1 0  2.05 -1 0  2.1 -1 0  2.15 -1 0  2.2 -1 0  2.25 -1 0  2.3 -1 0  2.35 -1 0  2.4 -1 0  2.45 -1 0  2.5 -1 0  2.55 -1 0  2.6 -1 0  2.65 -1 0  2.7 -1 0  2.75 -1 0  2.8 -1 0  2.85 -1 0  2.9 -1 0  2.95 -1 0  3 -1 0  3.050000000000001 -1 0  3.1 -1 0  3.15 -1 0  3.199999999999999 -1 0  3.25 -1 0  3.300000000000001 -1 0  3.35 -1 0  3.4 -1 0  3.449999999999999 -1 0  3.5 -1 0  3.550000000000001 -1 0  3.6 -1 0  3.65 -1 0  3.699999999999999 -1 0  3.75 -1 0  3.800000000000001 -1 0  3.85 -1 0  3.9 -1 0  3.949999999999999 -1 0  4 -1 0  4.050000000000001 -1 0  4.1 -1 0  4.15 -1 0  4.199999999999999 -1 0  4.25 -1 0  4.300000000000001 -1 0  4.35 -1 0  4.4 -1 0  4.449999999999999 -1 0  4.5 -1 0  4.550000000000001 -1 0  4.6 -1 0  4.65 -1 0  4.699999999999999 -1 0  4.75 -1 0  4.800000000000001 -1 0  4.85 -1 0  4.9 -1 0  4.949999999999999 -1 0  5 -1 0  -5 -0.95 0  -4.95 -0.95 0  -4.9 -0.95 0  -4.85 -0.95 0  -4.8 -0.95 0  -4.75 -0.95 0  -4.7 -0.95 0  -4.65 -0.95 0  -4.6 -0.95 0  -4.55 -0.95 0  -4.5 -0.95 0  -4.45 -0.95 0  -4.4 -0.95 0  -4.35 -0.95 0  -4.3 -0.95 0  -4.25 -0.95 0  -4.2 -0.95 0  -4.15 -0.95 0  -4.1 -0.95 0  -4.05 -0.95 0  -4 -0.95 0  -3.95 -0.95 0  -3.9 -0.95 0  -3.85 -0.95 0  -3.8 -0.95 0  -3.75 -0.95 0  -3.7 -0.95 0  -3.65 -0.95 0  -3.6 -0.95 0  -3.55 -0.95 0  -3.5 -0.95 0  -3.45 -0.95 0  -3.4 -0.95 0  -3.35 -0.95 0  -3.3 -0.95 0  -3.25 -0.95 0  -3.2 -0.95 0  -3.15 -0.95 0  -3.1 -0.95 0  -3.05 -0.95 0  -3 -0.95 0  -2.95 -0.95 0  -2.9 -0.95 0  -2.85 -0.95 0  -2.8 -0.95 0  -2.75 -0.95 0  -2.7 -0.95 0  -2.65 -0.95 0  -2.6 -0.95 0  -2.55 -0.95 0  -2.5 -0.95 0  -2.45 -0.95 0  -2.4 -0.95 0  -2.35 -0.95 0  -2.3 -0.95 0  -2.25 -0.95 0  -2.2 -0.95 0  -2.15 -0.95 0  -2.1 -0.95 0  -2.05 -0.95 0  -2 -0.95 0  -1.95 -0.95 0  -1.9 -0.95 0  -1.85 -0.95 0  -1.8 -0.95 0  -1.75 -0.95 0  -1.7 -0.95 0  -1.65 -0.95 0  -1.6 -0.95 0  -1.55 -0.95 0  -1.5 -0.95 0  -1.45 -0.95 0  -1.4 -0.95 0  -1.35 -0.95 0  -1.3 -0.95 0  -1.25 -0.95 0  -1.2 -0.95 0  -1.15 -0.95 0  -1.1 -0.95 0  -1.05 -0.95 0  -1 -0.95 0  -0.9500000000000002 -0.95 0  -0.9000000000000004 -0.95 0  -0.8499999999999996 -0.95 0  -0.7999999999999998 -0.95 0  -0.75 -0.95 0  -0.7000000000000002 -0.95 0  -0.6500000000000004 -0.95 0  -0.5999999999999996 -0.95 0  -0.5499999999999998 -0.95 0  -0.5 -0.95 0  -0.4500000000000002 -0.95 0  -0.4000000000000004 -0.95 0  -0.3499999999999996 -0.95 0  -0.2999999999999998 -0.95 0  -0.25 -0.95 0  -0.2000000000000002 -0.95 0  -0.1500000000000004 -0.95 0  -0.09999999999999964 -0.95 0  -0.04999999999999982 -0.95 0  0 -0.95 0  0.04999999999999982 -0.95 0  0.09999999999999964 -0.95 0  0.1500000000000004 -0.95 0  0.2000000000000002 -0.95 0  0.25 -0.95 0  0.2999999999999998 -0.95 0  0.3499999999999996 -0.95 0  0.4000000000000004 -0.95 0  0.4500000000000002 -0.95 0  0.5 -0.95 0  0.5499999999999998 -0.95 0  0.5999999999999996 -0.95 0  0.6500000000000004 -0.95 0  0.7000000000000002 -0.95 0  0.75 -0.95 0  0.7999999999999998 -0.95 0  0.8499999999999996 -0.95 0  0.9000000000000004 -0.95 0  0.9500000000000002 -0.95 0  1 -0.95 0  1.05 -0.95 0  1.1 -0.95 0  1.15 -0.95 0  1.2 -0.95 0  1.25 -0.95 0  1.3 -0.95 0  1.35 -0.95 0  1.4 -0.95 0  1.45 -0.95 0  1.5 -0.95 0  1.55 -0.95 0  1.6 -0.95 0  1.65 -0.95 0  1.7 -0.95 0  1.75 -0.95 0  1.8 -0.95 0  1.85 -0.95 0  1.9 -0.95 0  1.95 -0.95 0  2 -0.95 0  2.05 -0.95 0  2.1 -0.95 0  2.15 -0.95 0  2.2 -0.95 0  2.25 -0.95 0  2.3 -0.95 0  2.35 -0.95 0  2.4 -0.95 0  2.45 -0.95 0  2.5 -0.95 0  2.55 -0.95 0  2.6 -0.95 0  2.65 -0.95 0  2.7 -0.95 0  2.75 -0.95 0  2.8 -0.95 0  2.85 -0.95 0  2.9 -0.95 0  2.95 -0.95 0  3 -0.95 0  3.050000000000001 -0.95 0  3.1 -0.95 0  3.15 -0.95 0  3.199999999999999 -0.95 0  3.25 -0.95 0  3.300000000000001 -0.95 0  3.35 -0.95 0  3.4 -0.95 0  3.449999999999999 -0.95 0  3.5 -0.95 0  3.550000000000001 -0.95 0  3.6 -0.95 0  3.65 -0.95 0  3.699999999999999 -0.95 0  3.75 -0.95 0  3.800000000000001 -0.95 0  3.85 -0.95 0  3.9 -0.95 0  3.949999999999999 -0.95 0  4 -0.95 0  4.050000000000001 -0.95 0  4.1 -0.95 0  4.15 -0.95 0  4.199999999999999 -0.95 0  4.25 -0.95 0  4.300000000000001 -0.95 0  4.35 -0.95 0  4.4 -0.95 0  4.449999999999999 -0.95 0  4.5 -0.95 0  4.550000000000001 -0.95 0  4.6 -0.95 0  4.65 -0.95 0  4.699999999999999 -0.95 0  4.75 -0.95 0  4.800000000000001 -0.95 0  4.85 -0.95 0  4.9 -0.95 0  4.949999999999999 -0.95 0  5 -0.95 0  -5 -0.9 0  -4.95 -0.9 0  -4.9 -0.9 0  -4.85 -0.9 0  -4.8 -0.9 0  -4.75 -0.9 0  -4.7 -0.9 0  -4.65 -0.9 0  -4.6 -0.9 0  -4.55 -0.9 0  -4.5 -0.9 0  -4.45 -0.9 0  -4.4 -0.9 0  -4.35 -0.9 0  -4.3 -0.9 0  -4.25 -0.9 0  -4.2 -0.9 0  -4.15 -0.9 0  -4.1 -0.9 0  -4.05 -0.9 0  -4 -0.9 0  -3.95 -0.9 0  -3.9 -0.9 0  -3.85 -0.9 0  -3.8 -0.9 0  -3.75 -0.9 0  -3.7 -0.9 0  -3.65 -0.9 0  -3.6 -0.9 0  -3.55 -0.9 0  -3.5 -0.9 0  -3.45 -0.9 0  -3.4 -0.9 0  -3.35 -0.9 0  -3.3 -0.9 0  -3.25 -0.9 0  -3.2 -0.9 0  -3.15 -0.9 0  -3.1 -0.9 0  -3.05 -0.9 0  -3 -0.9 0  -2.95 -0.9 0  -2.9 -0.9 0  -2.85 -0.9 0  -2.8 -0.9 0  -2.75 -0.9 0  -2.7 -0.9 0  -2.65 -0.9 0  -2.6 -0.9 0  -2.55 -0.9 0  -2.5 -0.9 0  -2.45 -0.9 0  -2.4 -0.9 0  -2.35 -0.9 0  -2.3 -0.9 0  -2.25 -0.9 0  -2.2 -0.9 0  -2.15 -0.9 0  -2.1 -0.9 0  -2.05 -0.9 0  -2 -0.9 0  -1.95 -0.9 0  -1.9 -0.9 0  -1.85 -0.9 0  -1.8 -0.9 0  -1.75 -0.9 0  -1.7 -0.9 0  -1.65 -0.9 0  -1.6 -0.9 0  -1.55 -0.9 0  -1.5 -0.9 0  -1.45 -0.9 0  -1.4 -0.9 0  -1.35 -0.9 0  -1.3 -0.9 0  -1.25 -0.9 0  -1.2 -0.9 0  -1.15 -0.9 0  -1.1 -0.9 0  -1.05 -0.9 0  -1 -0.9 0  -0.9500000000000002 -0.9 0  -0.9000000000000004 -0.9 0  -0.8499999999999996 -0.9 0  -0.7999999999999998 -0.9 0  -0.75 -0.9 0  -0.7000000000000002 -0.9 0  -0.6500000000000004 -0.9 0  -0.5999999999999996 -0.9 0  -0.5499999999999998 -0.9 0  -0.5 -0.9 0  -0.4500000000000002 -0.9 0  -0.4000000000000004 -0.9 0  -0.3499999999999996 -0.9 0  -0.2999999999999998 -0.9 0  -0.25 -0.9 0  -0.2000000000000002 -0.9 0  -0.1500000000000004 -0.9 0  -0.09999999999999964 -0.9 0  -0.04999999999999982 -0.9 0  0 -0.9 0  0.04999999999999982 -0.9 0  0.09999999999999964 -0.9 0  0.1500000000000004 -0.9 0  0.2000000000000002 -0.9 0  0.25 -0.9 0  0.2999999999999998 -0.9 0  0.3499999999999996 -0.9 0  0.4000000000000004 -0.9 0  0.4500000000000002 -0.9 0  0.5 -0.9 0  0.5499999999999998 -0.9 0  0.5999999999999996 -0.9 0  0.6500000000000004 -0.9 0  0.7000000000000002 -0.9 0  0.75 -0.9 0  0.7999999999999998 -0.9 0  0.8499999999999996 -0.9 0  0.9000000000000004 -0.9 0  0.9500000000000002 -0.9 0  1 -0.9 0  1.05 -0.9 0  1.1 -0.9 0  1.15 -0.9 0  1.2 -0.9 0  1.25 -0.9 0  1.3 -0.9 0  1.35 -0.9 0  1.4 -0.9 0  1.45 -0.9 0  1.5 -0.9 0  1.55 -0.9 0  1.6 -0.9 0  1.65 -0.9 0  1.7 -0.9 0  1.75 -0.9 0  1.8 -0.9 0  1.85 -0.9 0  1.9 -0.9 0  1.95 -0.9 0  2 -0.9 0  2.05 -0.9 0  2.1 -0.9 0  2.15 -0.9 0  2.2 -0.9 0  2.25 -0.9 0  2.3 -0.9 0  2.35 -0.9 0  2.4 -0.9 0  2.45 -0.9 0  2.5 -0.9 0  2.55 -0.9 0  2.6 -0.9 0  2.65 -0.9 0  2.7 -0.9 0  2.75 -0.9 0  2.8 -0.9 0  2.85 -0.9 0  2.9 -0.9 0  2.95 -0.9 0  3 -0.9 0  3.050000000000001 -0.9 0  3.1 -0.9 0  3.15 -0.9 0  3.199999999999999 -0.9 0  3.25 -0.9 0  3.300000000000001 -0.9 0  3.35 -0.9 0  3.4 -0.9 0  3.449999999999999 -0.9 0  3.5 -0.9 0  3.550000000000001 -0.9 0  3.6 -0.9 0  3.65 -0.9 0  3.699999999999999 -0.9 0  3.75 -0.9 0  3.800000000000001 -0.9 0  3.85 -0.9 0  3.9 -0.9 0  3.949999999999999 -0.9 0  4 -0.9 0  4.050000000000001 -0.9 0  4.1 -0.9 0  4.15 -0.9 0  4.199999999999999 -0.9 0  4.25 -0.9 0  4.300000000000001 -0.9 0  4.35 -0.9 0  4.4 -0.9 0  4.449999999999999 -0.9 0  4.5 -0.9 0  4.550000000000001 -0.9 0  4.6 -0.9 0  4.65 -0.9 0  4.699999999999999 -0.9 0  4.75 -0.9 0  4.800000000000001 -0.9 0  4.85 -0.9 0  4.9 -0.9 0  4.949999999999999 -0.9 0  5 -0.9 0  -5 -0.85 0  -4.95 -0.85 0  -4.9 -0.85 0  -4.85 -0.85 0  -4.8 -0.85 0  -4.75 -0.85 0  -4.7 -0.85 0  -4.65 -0.85 0  -4.6 -0.85 0  -4.55 -0.85 0  -4.5 -0.85 0  -
[...]
<PointData  Vectors="f_15"> 
<DataArray  type="Float64"  Name="f_15"  NumberOfComponents="3" format="ascii">4.1442758017146755e+00 0.0000000000000000e+00 0.0000000000000000e+00  4.1584580305755399e+00 6.9576712205265845e-02 0.0000000000000000e+00  4.1433509984627399e+00 1.0196214406233998e-01 0.0000000000000000e+00  4.1572401553855212e+00 1.6884146487402726e-01 0.0000000000000000e+00  4.1443754546834048e+00 2.1926850041023932e-01 0.0000000000000000e+00  4.1562703323522472e+00 2.7671375886568572e-01 0.0000000000000000e+00  4.1432321405235317e+00 3.3331943920234663e-01 0.0000000000000000e+00  4.1570827738963443e+00 3.8594059832786443e-01 0.0000000000000000e+00  4.1421662540111237e+00 4.4885536065169718e-01 0.0000000000000000e+00  4.1558757255980607e+00 4.9535739126436890e-01 0.0000000000000000e+00  4.1431483110286793e+00 5.6078390428202496e-01 0.0000000000000000e+00  4.1542714953287696e+00 6.0976019870760256e-01 0.0000000000000000e+00  4.1422428881268321e+00 6.7190678662900183e-01 0.0000000000000000e+00  4.1551166656952967e+00 7.1973259794417166e-01 0.0000000000000000e+00  4.1402867799094816e+00 7.8838079530933547e-01 0.0000000000000000e+00  4.1543119050019737e+00 8.2953602475649468e-01 0.0000000000000000e+00  4.1411444134997453e+00 8.9940312527876010e-01 0.0000000000000000e+00  4.1518644076506765e+00 9.4505053739390932e-01 0.0000000000000000e+00  4.1405368424307030e+00 1.0105794821934206e+00 0.0000000000000000e+00  4.1526571359440361e+00 1.0548946790104827e+00 0.0000000000000000e+00  4.1376114446297017e+00 1.1270859747893391e+00 0.0000000000000000e+00  4.1522854776869895e+00 1.1656440545936730e+00 0.0000000000000000e+00  4.1382219585397610e+00 1.2372658601964395e+00 0.0000000000000000e+00  4.1490245598463407e+00 1.2821563442591404e+00 0.0000000000000000e+00  4.1379884219993892e+00 1.3475815469449233e+00 0.0000000000000000e+00  4.1494321371489225e+00 1.3936850294050374e+00 0.0000000000000000e+00  4.1344171065404014e+00 1.4619621480570031e+00 0.0000000000000000e+00  4.1492562683267407e+00 1.5067603041571935e+00 0.0000000000000000e+00  4.1346109776183919e+00 1.5705427625807094e+00 0.0000000000000000e+00  4.1453102749675654e+00 1.6241967958580936e+00 0.0000000000000000e+00  4.1346398992650890e+00 1.6803402780445975e+00 0.0000000000000000e+00  4.1448361060132983e+00 1.7354587264776877e+00 0.0000000000000000e+00  4.1309097218281092e+00 1.7969263853184865e+00 0.0000000000000000e+00  4.1442105317873628e+00 1.8419061031096726e+00 0.0000000000000000e+00  4.1306953268491329e+00 1.9162215753164427e+00 0.0000000000000000e+00  4.1395030091517642e+00 1.9467259533213208e+00 0.0000000000000000e+00  4.1308563952404667e+00 2.0338389898867204e+00 0.0000000000000000e+00  4.1376960073580795e+00 2.0589347438139307e+00 0.0000000000000000e+00  4.1272738953802284e+00 2.1388593497666726e+00 0.0000000000000000e+00  4.1363456414202053e+00 2.1810721783581122e+00 0.0000000000000000e+00  4.1262030759303947e+00 2.2450979098805486e+00 0.0000000000000000e+00  4.1315068485813269e+00 2.2879203527846976e+00 0.0000000000000000e+00  4.1257721599754849e+00 2.3713094982654930e+00 0.0000000000000000e+00  4.1285917241485635e+00 2.3836384366387660e+00 0.0000000000000000e+00  4.1223506999978516e+00 2.4911992164929013e+00 0.0000000000000000e+00  4.1263604581239832e+00 2.4979725626062619e+00 0.0000000000000000e+00  4.1203318925892392e+00 2.5934334660425775e+00 0.0000000000000000e+00  4.1217810916694608e+00 2.6167926139029785e+00 0.0000000000000000e+00  4.1187288933619062e+00 2.7048275678918898e+00 0.0000000000000000e+00  4.1184297916547461e+00 2.7206173656226520e+00 0.0000000000000000e+00  4.1150330638038550e+00 2.8252712989383331e+00 0.0000000000000000e+00  4.1155241447235928e+00 2.8272418154758672e+00 0.0000000000000000e+00  4.1121937935937583e+00 2.9319903819782906e+00 0.0000000000000000e+00  4.1110430000169309e+00 2.9507223533492506e+00 0.0000000000000000e+00  4.1094547560183692e+00 3.0282728807906669e+00 0.0000000000000000e+00  4.1075383521731208e+00 3.0700264099921495e+00 0.0000000000000000e+00  4.1050781939775982e+00 3.1418846868154766e+00 0.0000000000000000e+00  4.1042569994009943e+00 3.1688311203173769e+00 0.0000000000000000e+00  4.1014236001589470e+00 3.2632588182260389e+00 0.0000000000000000e+00  4.0996394897682258e+00 3.2802366275048773e+00 0.0000000000000000e+00  4.0977879991039963e+00 3.3588088530929716e+00 0.0000000000000000e+00  4.0959478270979330e+00 3.4109015246344847e+00 0.0000000000000000e+00  4.0925341474990136e+00 3.4571870098826754e+00 0.0000000000000000e+00  4.0925937383799580e+00 3.5174370907239791e+00 0.0000000000000000e+00  4.0877708256919743e+00 3.5815026693365177e+00 0.0000000000000000e+00  4.0880169254924397e+00 3.6160300379289505e+00 0.0000000000000000e+00  4.0830057291944675e+00 3.6897859890691072e+00 0.0000000000000000e+00  4.0843164453380201e+00 3.7396978269998344e+00 0.0000000000000000e+00  4.0765808004863793e+00 3.7838502983406270e+00 0.0000000000000000e+00  4.0810076490015925e+00 3.8562969629828765e+00 0.0000000000000000e+00  4.0707145371855509e+00 3.8975370438767767e+00 0.0000000000000000e+00  4.0761493133127713e+00 3.9568355509049402e+00 0.0000000000000000e+00  4.0652225449536701e+00 4.0119900959450936e+00 0.0000000000000000e+00  4.0719209155761789e+00 4.0680693276953717e+00 0.0000000000000000e+00  4.0578978329294095e+00 4.1149900451949843e+00 0.0000000000000000e+00  4.0684137398313336e+00 4.1812563540839305e+00 0.0000000000000000e+00  4.0509082695148901e+00 4.2244612660125549e+00 0.0000000000000000e+00  4.0632215437382833e+00 4.2853572659275327e+00 0.0000000000000000e+00  4.0446073479685909e+00 4.3380017626754457e+00 0.0000000000000000e+00  4.0584347644424357e+00 4.3902968714107597e+00 0.0000000000000000e+00  4.0363726942660980e+00 4.4481185734950346e+00 0.0000000000000000e+00  4.0544552432405094e+00 4.4962854760532975e+00 0.0000000000000000e+00  4.0287402278148541e+00 4.5594447474363031e+00 0.0000000000000000e+00  4.0476728291672250e+00 4.5990588843548847e+00 0.0000000000000000e+00  4.0234834094474712e+00 4.6724310423300661e+00 0.0000000000000000e+00  4.0394999652513564e+00 4.7016072702349332e+00 0.0000000000000000e+00  4.0175785615910753e+00 4.7823563907527333e+00 0.0000000000000000e+00  4.0315074763255216e+00 4.8084798776811146e+00 0.0000000000000000e+00  4.0123285122028980e+00 4.8862405731936391e+00 0.0000000000000000e+00  4.0208839612279945e+00 4.9199495727328975e+00 0.0000000000000000e+00  4.0090288280603046e+00 4.9865180389971915e+00 0.0000000000000000e+00  4.0093455906228401e+00 5.0321078485665920e+00 0.0000000000000000e+00  4.0040355495540636e+00 5.0867361406942493e+00 0.0000000000000000e+00  4.0001628722854043e+00 5.1418042276838891e+00 0.0000000000000000e+00  3.9960202622957519e+00 5.1901174124675560e+00 0.0000000000000000e+00  3.9923226236150433e+00 5.2464409250303179e+00 0.0000000000000000e+00  3.9878314611003414e+00 5.2957945189361029e+00 0.0000000000000000e+00  3.9827456152077070e+00 5.3507446247438493e+00 0.0000000000000000e+00  3.9802285972006413e+00 5.3990889999204184e+00 0.0000000000000000e+00  3.9736682985171794e+00 5.4548197707857717e+00 0.0000000000000000e+00  3.9704004182955286e+00 5.5035429555949280e+00 0.0000000000000000e+00  3.9651365396506484e+00 5.5562233903145337e+00 0.0000000000000000e+00  3.9612051052453454e+00 5.6073933995756828e+00 0.0000000000000000e+00  3.9542795136156954e+00 5.6589290933687098e+00 0.0000000000000000e+00  3.9528728566601528e+00 5.7079015767385490e+00 0.0000000000000000e+00  3.9437396826819571e+00 5.7616169268962603e+00 0.0000000000000000e+00  3.9422928212768489e+00 5.8090961504720875e+00 0.0000000000000000e+00  3.9342384379570623e+00 5.8609871989856810e+00 0.0000000000000000e+00  3.9313245707449984e+00 5.9108438848510794e+00 0.0000000000000000e+00  3.9231446687752296e+00 5.9603660531709712e+00 0.0000000000000000e+00  3.9211193304614866e+00 6.0089770804243381e+00 0.0000000000000000e+00  3.9114322708336915e+00 6.0610956151847564e+00 0.0000000000000000e+00  3.9106660372200142e+00 6.1046574422517352e+00 0.0000000000000000e+00  3.8990205907722917e+00 6.1602941518987659e+00 0.0000000000000000e+00  3.9004699484326815e+00 6.2000578663565769e+00 0.0000000000000000e+00  3.8862636017347101e+00 6.2576957902492580e+00 0.0000000000000000e+00  3.8889458286693279e+00 6.2939094873677179e+00 0.0000000000000000e+00  3.8753380464147194e+00 6.3525863418191078e+00 0.0000000000000000e+00  3.8753259474118278e+00 6.3887350643687508e+00 0.0000000000000000e+00  3.8652882292556310e+00 6.4425656096929087e+00 0.0000000000000000e+00  3.8614676066356290e+00 6.4823962332743283e+00 0.0000000000000000e+00  3.8560588577797632e+00 6.5321085081282693e+00 0.0000000000000000e+00  3.8463650575721902e+00 6.5703712062636441e+00 0.0000000000000000e+00  3.8485021614337014e+00 6.6210245591971528e+00 0.0000000000000000e+00  3.8320009009627363e+00 6.6545364029018081e+00 0.0000000000000000e+00  3.8400043082531212e+00 6.7063895094329764e+00 0.0000000000000000e+00  3.8216026706273123e+00 6.7333265242540170e+00 0.0000000000000000e+00  3.8305100449751959e+00 6.7883184046470646e+00 0.0000000000000000e+00  3.8141243166925065e+00 6.8065597983812802e+00 0.0000000000000000e+00  3.8224739233088894e+00 6.8642386819585441e+00 0.0000000000000000e+00  3.8064452090681860e+00 6.8751998348103323e+00 0.0000000000000000e+00  3.8145606203907843e+00 6.9324273518479371e+00 0.0000000000000000e+00  3.8042149881431575e+00 6.9514787035824721e+00 0.0000000000000000e+00  3.7906520976286364e+00 6.9603845268017093e+00 0.0000000000000000e+00  3.8370411407665768e+00 7.0837993607188272e+00 0.0000000000000000e+00  3.7325417820657081e+00 6.8709269237643502e+00 0.0000000000000000e+00  3.9027550909952171e+00 7.3682063835668314e+00 0.0000000000000000e+00  3.7767736774101945e+00 6.4327182264222058e+00 0.0000000000000000e+00  3.6183676229824742e+00 8.2575429449676765e+00 0.0000000000000000e+00  5.1057876039525905e+00 4.4341438762920458e+00 0.0000000000000000e+00  8.8668826490780042e+00 2.2008095361801419e-01 0.0000000000000000e+00  9.3672463298518736e+00 -1.6819149937865568e-01 0.0000000000000000e+00  9.2390162564065204e+00 -1.6484664108533559e-01 0.0000000000000000e+00  9.3192870294138626e+00 -1.7962032440871306e-01 0.0000000000000000e+00  9.3278499512870336e+00 -1.6213079133339911e-01 0.0000000000000000e+00  9.3542552513245010e+00 -1.7584325143801052e-01 0.0000000000000000e+00  9.3697842875761399e+00 -1.6897472841033825e-01 0.0000000000000000e+00  9.3695946112205082e+00 -1.4356457597418690e-01 0.0000000000000000e+00  9.3794575303418544e+00 -1.3852904215484377e-01 0.0000000000000000e+00  9.3969193409022509e+00 -1.3408778617915948e-01 0.0000000000000000e+00  9.4024109938731613e+00 -1.2154375782312474e-01 0.0000000000000000e+00  9.4108278716776361e+00 -1.1639438690162085e-01 0.0000000000000000e+00  9.4179322736484661e+00 -1.0158789668882805e-01 0.0000000000000000e+00  9.4265676494651878e+00 -1.0460634306695418e-01 0.0000000000000000e+00  9.4331855566651832e+00 -8.7355702843767313e-02 0.0000000000000000e+00  9.4401700725197912e+00 -9.3687609161707402e-02 0.0000000000000000e+00  9.4438308529104606e+00 -7.3698420250985830e-02 0.0000000000000000e+00  9.4523194798137258e+00 -8.4986466506374522e-02 0.0000000000000000e+00  9.4548068761850868e+00 -6.3236907350554400e-02 0.0000000000000000e+00  9.4611602396722763e+00 -7.6339927986396855e-02 0.0000000000000000e+00  9.4641005232336823e+00 -5.4367543416738343e-02 0.0000000000000000e+00  9.4690666042388969e+00 -6.8531418395166757e-02 0.0000000000000000e+00  9.4712277764572015e+00 -4.8381853877172941e-02 0.0000000000000000e+00  9.4763310878523512e+00 -6.1119637845555859e-02 0.0000000000000000e+00  9.4766838696113194e+00 -4.5691287735180212e-02 0.0000000000000000e+00  9.4819680028341615e+00 -5.4365588311453439e-02 0.0000000000000000e+00  9.4819321228489457e+00 -4.5650947417864747e-02 0.0000000000000000e+00  9.4857951168905164e+00 -4.8192418925252403e-02 0.0000000000000000e+00  9.4863259256515970e+00 -4.6047346167550018e-02 0.0000000000000000e+00  9.4893151388101984e+00 -4.3971376854193542e-02 0.0000000000000000e+00  9.4890028330961762e+00 -4.5554054531393530e-02 0.0000000000000000e+00  9.4926619288258980e+00 -4.1555938689041970e-02 0.0000000000000000e+00  9.4911897296165098e+00 -4.4136805853041819e-02 0.0000000000000000e+00  9.4945918144210957e+00 -4.1905787388739929e-02 0.0000000000000000e+00  9.4936211312980170e+00 -4.4929687231476730e-02 0.0000000000000000e+00  9.4957469931924443e+00 -4.3727906563400629e-02 0.0000000000000000e+00  9.4952461499313152e+00 -4.6459851703437686e-02 0.0000000000000000e+00  9.4972163531981995e+00 -4.9301627545532495e-02 0.0000000000000000e+00  9.4958755355870998e+00 -4.9237067772928404e-02 0.0000000000000000e+00  9.4985325147741477e+00 -5.6565664654198253e-02 0.0000000000000000e+00  9.4967142915417817e+00 -5.3406384556599240e-02 0.0000000000000000e+00  9.4987134052317703e+00 -6.2642884996236298e-02 0.0000000000000000e+00  9.4979927846425678e+00 -5.7503229946489001e-02 0.0000000000000000e+00  9.4988898859750694e+00 -6.5686017643587905e-02 0.0000000000000000e+00  9.4981847420558356e+00 -5.7719351341030095e-02 0.0000000000000000e+00  9.4998360849985382e+00 -7.2742982653811961e-02 0.0000000000000000e+00  9.4981746009965473e+00 -6.7766380864060657e-02 0.0000000000000000e+00  9.4997999114283331e+00 -8.3626824025308202e-02 0.0000000000000000e+00  9.4989702219098415e+00 -7.9303754770433166e-02 0.0000000000000000e+00  9.4995625893454907e+00 -9.3644851164955009e-02 0.0000000000000000e+00  9.4990388167817201e+00 -8.5236764703672238e-02 0.0000000000000000e+00  9.4998997236630451e+00 -9.9326234496430757e-02 0.0000000000000000e+00  9.4990335854842982e+00 -8.1927178316546626e-02 0.0000000000000000e+00  9.4998989081766929e+00 -8.8388706339310494e-02 0.0000000000000000e+00  9.4991259204182512e+00 -8.2068317912940308e-02 0.0000000000000000e+00  9.5000233807013892e+00 -7.5413389236644562e-02 0.0000000000000000e+00  9.4991022940185061e+00 -8.2368604496317013e-02 0.0000000000000000e+00  9.4997708300655841e+00 -6.3036092534785093e-02 0.0000000000000000e+00  9.4994064194717804e+00 -9.8506748616305206e-02 0.0000000000000000e+00  9.4997519239678230e+00 -2.1501188585992308e-02 0.0000000000000000e+00  9.4993258096070576e+00 0.0000000000000000e+00 0.0000000000000000e+00  4.1600358506649942e+00 0.0000000000000000e+00 -3.9651830642194047e-03  4.1580122627677287e+00 5.2861332345271253e-02 -6.1715289618748427e-03  4.1589847286966997e+00 1.1871380277763623e-01 1.2780762727153441e-02  4.1597904400156986e+00 1.6937801133344704e-01 -7.5491835184482723e-03  4.1584782364360766e+00 2.3082593108892852e-01 4.8828970231140018e-03  4.1589423321896790e+00 2.8353430472635721e-01 -2.0736157571115362e-03  4.1596906301429835e+00 3.4176572868919453e-01 1.0747391857407334e-04  4.1580954062259456e+00 3.9922507814944724e-01 1.5268611632182432e-03  4.1586962373281997e+00 4.5190830477312471e-01 -2.7158304595388924e-03  4.1590127661787655e+00 5.1229743160925212e-01 3.8102689949393487e-03  4.1573706778159698e+00 5.6558586966406965e-01 -4.1700380088946516e-03  4.1578579438156131e+00 6.2381088592643053e-01 4.1695796369471232e-03  4.1581940373120316e+00 6.7678332900797400e-01 -3.9935300162783479e-03  4.1557986536787643e+00 7.3893977742920347e-01 4.4203094427509746e-03  4.1571814138169225e+00 7.8726464229403048e-01 -5.0231935305311082e-03  4.1562714837294434e+00 8.5003461708267103e-01 5.8843441477851527e-03  4.1546976359542231e+00 9.0234146074564126e-01 -6.4570012261520020e-03  4.1550721439573568e+00 9.6092231925158744e-01 7.3626509655729411e-03  4.1552292017203420e+00 1.0118619455402607e+00 -8.3557179099114226e-03  4.1516935089586813e+00 1.0776248478000559e+00 9.7572763372866540e-03  4.1543995563548561e+00 1.1208365484744951e+00 -1.0820971899482890e-02  4.1516458198301516e+00 1.1887223246969012e+00 1.1734070455285841e-02  4.1508006237135699e+00 1.2354691000449214e+00 -1.2100652200635545e-02  4.1505514768118719e+00 1.2993881181128484e+00 1.2522991482003877e-02  4.1507397441957092e+00 1.3449818508741240e+00 -1.2740077461238387e-02  4.1462264882617399e+00 1.4146638657511565e+00 1.3141449722714148e-02  4.1499064449462812e+00 1.4550556943836714e+00 -1.3162877068489480e-02  4.1456377168385412e+00 1.5244153567362178e+00 1.3026034188537114e-02  4.1453718436023506e+00 1.5698061899094649e+00 -1.2369119581839647e-02  4.1447611612511492e+00 1.6344624089511102e+00 1.1626679246263791e-02  4.1443857857079571e+00 1.6797210308589086e+00 -1.0590106336679356e-02  4.1401646288161045e+00 1.7489784892270515e+00 9.5621435282612077e-03  4.1432323212171944e+00 1.7888257620635180e+00 -8.1836386546284088e-03  4.1391604079506923e+00 1.8610400873891804e+00 6.7732749398498491e-03  4.1381719000516846e+00 1.9007799577175239e+00 -5.3721478645570326e-03  4.1383096774827459e+00 1.9707397138788754e+00 4.6244923271726926e-03  4.1365291581861774e+00 2.0158852565198320e+00 -4.6459486784716430e-03  4.1334046038994758e+00 2.0760081369378591e+00 5.5230289963221638e-03  4.1356265953833899e+00 2.1332721206906098e+00 -6.6197547844001918e-03  4.1311542022119241e+00 2.1859501756448236e+00 7.5072102263775966e-03  4.1311975604833311e+00 2.2385182313530878e+00 -7.7232080417121369e-03  4.1296694759091173e+00 2.3084644261172285e+00 7.6375996499054733e-03  4.1289423301657813e+00 2.3405613027827386e+00 -7.5563343576432636e-03  4.1250546026733561e+00 2.4208406651648229e+00 8.0942541986648749e-03  4.1275683212461196e+00 2.4592660830922690e+00 -9.1982247097536878e-03  4.1219702802493270e+00 2.5223742379110079e+00 1.0562126056273392e-02  4.1237245186673936e+00 2.5749766335413189e+00 -1.1569184607301648e-02  4.1195922035254027e+00 2.6373983826062313e+00 1.1776775534790992e-02  4.1209610266033705e+00 2.6774573782878788e+00 -1.1038217628835129e-02  4.1153785101599336e+00 2.7555902013569007e+00 1.0011869874040888e-02  4.1185299659898851e+00 2.7879649560388033e+00 -9.3274551729300263e-03  4.1120919144358670e+00 2.8604742228973419e+00 9.6502263780539974e-03  4.1146749604152406e+00 2.9081124149000388e+00 -1.0918837639206966e-02  4.1087310428991914e+00 2.9647790638013380e+00 1.2402545085521325e-02  4.1119038174454801e+00 3.0186237885310589e+00 -1.3318656679323963e-02  4.1039362331041467e+00 3.0840322453567968e+00 1.3364631848036629e-02  4.1089688245871860e+00 3.1170276283459288e+00 -1.2641332186870564e-02  4.1003555400338740e+00 3.2032800726300263e+00 1.1859531803650769e-02  4.1043055829762061e+00 3.2296325785149467e+00 -1.1094932107284152e-02  4.0970670246575915e+00 3.3013961022537961e+00 1.0378047418743685e-02  4.1003830662308776e+00 3.3547922468910563e+00 -9.5647728819164279e-03  4.0923276221803393e+00 3.4056480284198787e+00 8.7225783640017644e-03  4.0966993693800875e+00 3.4579221738740720e+00 -8.2369722807461090e-03  4.0881520366041215e+00 3.5306647617429241e+00 8.1343245761946008e-03  4.0916400988477992e+00 3.5576783391420181e+00 -8.0002073796493038e-03  4.0843584753552653e+00 3.6382813427209140e+00 7.2576959193583158e-03  4.0867939690370800e+00 3.6809642047381841e+00 -5.5972199051011690e-03  4.0796723915395292e+00 3.7340711921095759e+00 3.4776248421098050e-03  4.0818203244581426e+00 3.7958130410001099e+00 -1.6947842623708008e-03  4.0756172155907064e+00 3.8490018716983685e+00 7.4382193142122203e-04  4.0755581662983822e+00 3.8965077030573521e+00 -4.5829707489033648e-04  4.0717103472429361e+00 3.9622975087888728e+00 8.5704708502970273e-05  4.0698044416159291e+00 4.0099468250874102e+00 9.0882354879883560e-04  4.0664846860170050e+00 4.0629822394184636e+00 -2.5221854139421641e-03  4.0641790361935941e+00 4.1256825195638092e+00 4.1802279518682152e-03  4.0619040480319697e+00 4.1702785329531196e+00 -5.3109354834282828e-03  4.0569072604829373e+00 4.2324593942060851e+00 5.8341529620591004e-03  4.0578241095343648e+00 4.2808444210597658e+00 -6.1098361877011641e-03  4.0500917150262712e+00 4.3415211547558679e+00 6.6183666876436916e-03  4.0520356623413756e+00 4.3862851711901483e+00 -7.5090916705739200e-03  4.0438518478803225e+00 4.4531206164230497e+00 8.5506397433718108e-03  4.0466913853207842e+00 4.4919581186971884e+00 -9.3405