<?xml version="1.0"?>
<VTKFile type="UnstructuredGrid"  version="0.1"  >
<UnstructuredGrid>
<Piece  NumberOfPoints="8241" NumberOfCells="16000">
<Points>
<DataArray  type="Float64"  NumberOfComponents="3"  format="ascii">-5 -1 0  -4.95 -1 0  -4.9 -1 0  -4.85 -1 0  -4.8 -1 0  -4.75 -1 0  -4.7 -1 0  -4.65 -1 0  -4.6 -1 0  -4.55 -1 0  -4.5 -1 0  -4.45 -1 0  -4.4 -1 0  -4.35 -1 0  -4.3 -1 0  -4.25 -1 0  -4.2 -1 0  -4.15 -1 0  -4.1 -1 0  -4.05 -1 0  -4 -1 0  -3.95 -1 0  -3.9 -1 0  -3.85 -1 0  -3.8 -1 0  -3.75 -1 0  -3.7 -1 0  -3.65 -1 0  -3.6 -1 0  -3.55 -1 0  -3.5 -1 0  -3.45 -1 0  -3.4 -1 0  -3.35 -1 0  -3.3 -1 0  -3.25 -1 0  -3.2 -1 0  -3.15 -1 0  -3.1 -1 0  -3.05 -1 0  -3 -1 0  -2.95 -1 0  -2.9 -1 0  -2.85 -1 0  -2.8 -1 0  -2.75 -1 0  -2.7 -1 0  -2.65 -1 0  -2.6 -1 0  -2.55 -1 0  -2.5 -1 0  -2.45 -1 0  -2.4 -1 0  -2.35 -1 0  -2.3 -1 0  -2.25 -1 0  -2.2 -1 0  -2.15 -1 0  -2.1 -1 0  -2.05 -1 0  -2 -1 0  -1.95 -1 0  -1.9 -1 0  -1.85 -1 0  -1.8 -1 0  -1.75 -1 0  -1.7 -1 0  -1.65 -1 0  -1.6 -1 0  -1.55 -1 0  -1.5 -1 0  -1.45 -1 0  -1.4 -1 0  -1.35 -1 0  -1.3 -1 0  -1.25 -1 0  -1.2 -1 0  -1.15 -1 0  -1.1 -1 0  -1.05 -1 0  -1 -1 0  -0.9500000000000002 -1 0  -0.9000000000000004 -1 0  -0.8499999999999996 -1 0  -0.7999999999999998 -1 0  -0.75 -1 0  -0.7000000000000002 -1 0  -0.6500000000000004 -1 0  -0.5999999999999996 -1 0  -0.5499999999999998 -1 0  -0.5 -1 0  -0.4500000000000002 -1 0  -0.4000000000000004 -1 0  -0.3499999999999996 -1 0  -0.2999999999999998 -1 0  -0.25 -1 0  -0.2000000000000002 -1 0  -0.1500000000000004 -1 0  -0.09999999999999964 -1 0  -0.04999999999999982 -1 0  0 -1 0  0.04999999999999982 -1 0  0.09999999999999964 -1 0  0.1500000000000004 -1 0  0.2000000000000002 -1 0  0.25 -1 0  0.2999999999999998 -1 0  0.3499999999999996 -1 0  0.4000000000000004 -1 0  0.4500000000000002 -1 0  0.5 -1 0  0.5499999999999998 -1 0  0.5999999999999996 -1 0  0.6500000000000004 -1 0  0.7000000000000002 -1 0  0.75 -1 0  0.7999999999999998 -1 0  0.8499999999999996 -1 0  0.9000000000000004 -1 0  0.9500000000000002 -1 0  1 -1 0  1.05 -1 0  1.1 -1 0  1.15 -1 0  1.2 -1 0  1.25 -1 0  1.3 -1 0  1.35 -1 0  1.4 -1 0  1.45 -1 0  1.5 -1 0  1.55 -1 0  1.6 -1 0  1.65 -1 0  1.7 -1 0  1.75 -1 0  1.8 -1 0  1.85 -1 0  1.9 -1 0  1.95 -1 0  2 -1 0  2.05 -1 0  2.1 -1 0  2.15 -1 0  2.2 -1 0  2.25 -1 0  2.3 -1 0  2.35 -1 0  2.4 -1 0  2.45 -1 0  2.5 -1 0  2.55 -1 0  2.6 -1 0  2.65 -1 0  2.7 -1 0  2.75 -1 0  2.8 -1 0  2.85 -1 0  2.9 -1 0  2.95 -1 0  3 -1 0  3.050000000000001 -1 0  3.1 -1 0  3.15 -1 0  3.199999999999999 -1 0  3.25 -1 0  3.300000000000001 -1 0  3.35 -1 0  3.4 -1 0  3.449999999999999 -1 0  3.5 -1 0  3.550000000000001 -1 0  3.6 -1 0  3.65 -1 0  3.699999999999999 -1 0  3.75 -1 0  3.800000000000001 -1 0  3.85 -1 0  3.9 -1 0  3.949999999999999 -1 0  4 -1 0  4.050000000000001 -1 0  4.1 -1 0  4.15 -1 0  4.199999999999999 -1 0  4.25 -1 0  4.300000000000001 -1 0  4.35 -1 0  4.4 -1 0  4.449999999999999 -1 0  4.5 -1 0  4.550000000000001 -1 0  4.6 -1 0  4.65 -1 0  4.699999999999999 -1 0  4.75 -1 0  4.800000000000001 -1 0  4.85 -1 0  4.9 -1 0  4.949999999999999 -1 0  5 -1 0  -5 -0.95 0  -4.95 -0.95 0  -4.9 -0.95 0  -4.85 -0.95 0  -4.8 -0.95 0  -4.75 -0.95 0  -4.7 -0.95 0  -4.65 -0.95 0  -4.6 -0.95 0  -4.55 -0.95 0  -4.5 -0.95 0  -4.45 -0.95 0  -4.4 -0.95 0  -4.35 -0.95 0  -4.3 -0.95 0  -4.25 -0.95 0  -4.2 -0.95 0  -4.15 -0.95 0  -4.1 -0.95 0  -4.05 -0.95 0  -4 -0.95 0  -3.95 -0.95 0  -3.9 -0.95 0  -3.85 -0.95 0  -3.8 -0.95 0  -3.75 -0.95 0  -3.7 -0.95 0  -3.65 -0.95 0  -3.6 -0.95 0  -3.55 -0.95 0  -3.5 -0.95 0  -3.45 -0.95 0  -3.4 -0.95 0  -3.35 -0.95 0  -3.3 -0.95 0  -3.25 -0.95 0  -3.2 -0.95 0  -3.15 -0.95 0  -3.1 -0.95 0  -3.05 -0.95 0  -3 -0.95 0  -2.95 -0.95 0  -2.9 -0.95 0  -2.85 -0.95 0  -2.8 -0.95 0  -2.75 -0.95 0  -2.7 -0.95 0  -2.65 -0.95 0  -2.6 -0.95 0  -2.55 -0.95 0  -2.5 -0.95 0  -2.45 -0.95 0  -2.4 -0.95 0  -2.35 -0.95 0  -2.3 -0.95 0  -2.25 -0.95 0  -2.2 -0.95 0  -2.15 -0.95 0  -2.1 -0.95 0  -2.05 -0.95 0  -2 -0.95 0  -1.95 -0.95 0  -1.9 -0.95 0  -1.85 -0.95 0  -1.8 -0.95 0  -1.75 -0.95 0  -1.7 -0.95 0  -1.65 -0.95 0  -1.6 -0.95 0  -1.55 -0.95 0  -1.5 -0.95 0  -1.45 -0.95 0  -1.4 -0.95 0  -1.35 -0.95 0  -1.3 -0.95 0  -1.25 -0.95 0  -1.2 -0.95 0  -1.15 -0.95 0  -1.1 -0.95 0  -1.05 -0.95 0  -1 -0.95 0  -0.9500000000000002 -0.95 0  -0.9000000000000004 -0.95 0  -0.8499999999999996 -0.95 0  -0.7999999999999998 -0.95 0  -0.75 -0.95 0  -0.7000000000000002 -0.95 0  -0.6500000000000004 -0.95 0  -0.5999999999999996 -0.95 0  -0.5499999999999998 -0.95 0  -0.5 -0.95 0  -0.4500000000000002 -0.95 0  -0.4000000000000004 -0.95 0  -0.3499999999999996 -0.95 0  -0.2999999999999998 -0.95 0  -0.25 -0.95 0  -0.2000000000000002 -0.95 0  -0.1500000000000004 -0.95 0  -0.09999999999999964 -0.95 0  -0.04999999999999982 -0.95 0  0 -0.95 0  0.04999999999999982 -0.95 0  0.09999999999999964 -0.95 0  0.1500000000000004 -0.95 0  0.2000000000000002 -0.95 0  0.25 -0.95 0  0.2999999999999998 -0.95 0  0.3499999999999996 -0.95 0  0.4000000000000004 -0.95 0  0.4500000000000002 -0.95 0  0.5 -0.95 0  0.5499999999999998 -0.95 0  0.5999999999999996 -0.95 0  0.6500000000000004 -0.95 0  0.7000000000000002 -0.95 0  0.75 -0.95 0  0.7999999999999998 -0.95 0  0.8499999999999996 -0.95 0  0.9000000000000004 -0.95 0  0.9500000000000002 -0.95 0  1 -0.95 0  1.05 -0.95 0  1.1 -0.95 0  1.15 -0.95 0  1.2 -0.95 0  1.25 -0.95 0  1.3 -0.95 0  1.35 -0.95 0  1.4 -0.95 0  1.45 -0.95 0  1.5 -0.95 0  1.55 -0.95 0  1.6 -0.95 0  1.65 -0.95 0  1.7 -0.95 0  1.75 -0.95 0  1.8 -0.95 0  1.85 -0.95 0  1.9 -0.95 0  1.95 -0.95 0  2 -0.95 0  2.05 -0.95 0  2.1 -0.95 0  2.15 -0.95 0  2.2 -0.95 0  2.25 -0.95 0  2.3 -0.95 0  2.35 -0.95 0  2.4 -0.95 0  2.45 -0.95 0  2.5 -0.95 0  2.55 -0.95 0  2.6 -0.95 0  2.65 -0.95 0  2.7 -0.95 0  2.75 -0.95 0  2.8 -0.95 0  2.85 -0.95 0  2.9 -0.95 0  2.95 -0.95 0  3 -0.95 0  3.050000000000001 -0.95 0  3.1 -0.95 0  3.15 -0.95 0  3.199999999999999 -0.95 0  3.25 -0.95 0  3.300000000000001 -0.95 0  3.35 -0.95 0  3.4 -0.95 0  3.449999999999999 -0.95 0  3.5 -0.95 0  3.550000000000001 -0.95 0  3.6 -0.95 0  3.65 -0.95 0  3.699999999999999 -0.95 0  3.75 -0.95 0  3.800000000000001 -0.95 0  3.85 -0.95 0  3.9 -0.95 0  3.949999999999999 -0.95 0  4 -0.95 0  4.050000000000001 -0.95 0  4.1 -0.95 0  4.15 -0.95 0  4.199999999999999 -0.95 0  4.25 -0.95 0  4.300000000000001 -0.95 0  4.35 -0.95 0  4.4 -0.95 0  4.449999999999999 -0.95 0  4.5 -0.95 0  4.550000000000001 -0.95 0  4.6 -0.95 0  4.65 -0.95 0  4.699999999999999 -0.95 0  4.75 -0.95 0  4.800000000000001 -0.95 0  4.85 -0.95 0  4.9 -0.95 0  4.949999999999999 -0.95 0  5 -0.95 0  -5 -0.9 0  -4.95 -0.9 0  -4.9 -0.9 0  -4.85 -0.9 0  -4.8 -0.9 0  -4.75 -0.9 0  -4.7 -0.9 0  -4.65 -0.9 0  -4.6 -0.9 0  -4.55 -0.9 0  -4.5 -0.9 0  -4.45 -0.9 0  -4.4 -0.9 0  -4.35 -0.9 0  -4.3 -0.9 0  -4.25 -0.9 0  -4.2 -0.9 0  -4.15 -0.9 0  -4.1 -0.9 0  -4.05 -0.9 0  -4 -0.9 0  -3.95 -0.9 0  -3.9 -0.9 0  -3.85 -0.9 0  -3.8 -0.9 0  -3.75 -0.9 0  -3.7 -0.9 0  -3.65 -0.9 0  -3.6 -0.9 0  -3.55 -0.9 0  -3.5 -0.9 0  -3.45 -0.9 0  -3.4 -0.9 0  -3.35 -0.9 0  -3.3 -0.9 0  -3.25 -0.9 0  -3.2 -0.9 0  -3.15 -0.9 0  -3.1 -0.9 0  -3.05 -0.9 0  -3 -0.9 0  -2.95 -0.9 0  -2.9 -0.9 0  -2.85 -0.9 0  -2.8 -0.9 0  -2.75 -0.9 0  -2.7 -0.9 0  -2.65 -0.9 0  -2.6 -0.9 0  -2.55 -0.9 0  -2.5 -0.9 0  -2.45 -0.9 0  -2.4 -0.9 0  -2.35 -0.9 0  -2.3 -0.9 0  -2.25 -0.9 0  -2.2 -0.9 0  -2.15 -0.9 0  -2.1 -0.9 0  -2.05 -0.9 0  -2 -0.9 0  -1.95 -0.9 0  -1.9 -0.9 0  -1.85 -0.9 0  -1.8 -0.9 0  -1.75 -0.9 0  -1.7 -0.9 0  -1.65 -0.9 0  -1.6 -0.9 0  -1.55 -0.9 0  -1.5 -0.9 0  -1.45 -0.9 0  -1.4 -0.9 0  -1.35 -0.9 0  -1.3 -0.9 0  -1.25 -0.9 0  -1.2 -0.9 0  -1.15 -0.9 0  -1.1 -0.9 0  -1.05 -0.9 0  -1 -0.9 0  -0.9500000000000002 -0.9 0  -0.9000000000000004 -0.9 0  -0.8499999999999996 -0.9 0  -0.7999999999999998 -0.9 0  -0.75 -0.9 0  -0.7000000000000002 -0.9 0  -0.6500000000000004 -0.9 0  -0.5999999999999996 -0.9 0  -0.5499999999999998 -0.9 0  -0.5 -0.9 0  -0.4500000000000002 -0.9 0  -0.4000000000000004 -0.9 0  -0.3499999999999996 -0.9 0  -0.2999999999999998 -0.9 0  -0.25 -0.9 0  -0.2000000000000002 -0.9 0  -0.1500000000000004 -0.9 0  -0.09999999999999964 -0.9 0  -0.04999999999999982 -0.9 0  0 -0.9 0  0.04999999999999982 -0.9 0  0.09999999999999964 -0.9 0  0.1500000000000004 -0.9 0  0.2000000000000002 -0.9 0  0.25 -0.9 0  0.2999999999999998 -0.9 0  0.3499999999999996 -0.9 0  0.4000000000000004 -0.9 0  0.4500000000000002 -0.9 0  0.5 -0.9 0  0.5499999999999998 -0.9 0  0.5999999999999996 -0.9 0  0.6500000000000004 -0.9 0  0.7000000000000002 -0.9 0  0.75 -0.9 0  0.7999999999999998 -0.9 0  0.8499999999999996 -0.9 0  0.9000000000000004 -0.9 0  0.9500000000000002 -0.9 0  1 -0.9 0  1.05 -0.9 0  1.1 -0.9 0  1.15 -0.9 0  1.2 -0.9 0  1.25 -0.9 0  1.3 -0.9 0  1.35 -0.9 0  1.4 -0.9 0  1.45 -0.9 0  1.5 -0.9 0  1.55 -0.9 0  1.6 -0.9 0  1.65 -0.9 0  1.7 -0.9 0  1.75 -0.9 0  1.8 -0.9 0  1.85 -0.9 0  1.9 -0.9 0  1.95 -0.9 0  2 -0.9 0  2.05 -0.9 0  2.1 -0.9 0  2.15 -0.9 0  2.2 -0.9 0  2.25 -0.9 0  2.3 -0.9 0  2.35 -0.9 0  2.4 -0.9 0  2.45 -0.9 0  2.5 -0.9 0  2.55 -0.9 0  2.6 -0.9 0  2.65 -0.9 0  2.7 -0.9 0  2.75 -0.9 0  2.8 -0.9 0  2.85 -0.9 0  2.9 -0.9 0  2.95 -0.9 0  3 -0.9 0  3.050000000000001 -0.9 0  3.1 -0.9 0  3.15 -0.9 0  3.199999999999999 -0.9 0  3.25 -0.9 0  3.300000000000001 -0.9 0  3.35 -0.9 0  3.4 -0.9 0  3.449999999999999 -0.9 0  3.5 -0.9 0  3.550000000000001 -0.9 0  3.6 -0.9 0  3.65 -0.9 0  3.699999999999999 -0.9 0  3.75 -0.9 0  3.800000000000001 -0.9 0  3.85 -0.9 0  3.9 -0.9 0  3.949999999999999 -0.9 0  4 -0.9 0  4.050000000000001 -0.9 0  4.1 -0.9 0  4.15 -0.9 0  4.199999999999999 -0.9 0  4.25 -0.9 0  4.300000000000001 -0.9 0  4.35 -0.9 0  4.4 -0.9 0  4.449999999999999 -0.9 0  4.5 -0.9 0  4.550000000000001 -0.9 0  4.6 -0.9 0  4.65 -0.9 0  4.699999999999999 -0.9 0  4.75 -0.9 0  4.800000000000001 -0.9 0  4.85 -0.9 0  4.9 -0.9 0  4.949999999999999 -0.9 0  5 -0.9 0  -5 -0.85 0  -4.95 -0.85 0  -4.9 -0.85 0  -4.85 -0.85 0  -4.8 -0.85 0  -4.75 -0.85 0  -4.7 -0.85 0  -4.65 -0.85 0  -4.6 -0.85 0  -4.55 -0.85 0  -4.5 -0.85 0  -
[...]
<PointData  Vectors="f_15"> 
<DataArray  type="Float64"  Name="f_15"  NumberOfComponents="3" format="ascii">7.6405264087262408e+00 0.0000000000000000e+00 0.0000000000000000e+00  7.6401572183212281e+00 8.5911367827674778e-02 0.0000000000000000e+00  7.6390507960064769e+00 1.7186656930754612e-01 0.0000000000000000e+00  7.6372150982084737e+00 2.5766775075957005e-01 0.0000000000000000e+00  7.6346348293731463e+00 3.4343422877538266e-01 0.0000000000000000e+00  7.6313024221573675e+00 4.2900126287957530e-01 0.0000000000000000e+00  7.6272375592838433e+00 5.1444528796117794e-01 0.0000000000000000e+00  7.6224007225022943e+00 5.9962864611659616e-01 0.0000000000000000e+00  7.6168065295967109e+00 6.8461858039149337e-01 0.0000000000000000e+00  7.6104414742033626e+00 7.6927127573117782e-01 0.0000000000000000e+00  7.6032977911582460e+00 8.5366341510328614e-01 0.0000000000000000e+00  7.5953470536005749e+00 9.3764197573663355e-01 0.0000000000000000e+00  7.5866191842984581e+00 1.0212997167273721e+00 0.0000000000000000e+00  7.5770513352100712e+00 1.1044436843143104e+00 0.0000000000000000e+00  7.5666723475574589e+00 1.1872332563971977e+00 0.0000000000000000e+00  7.5554445164731474e+00 1.2694055825086876e+00 0.0000000000000000e+00  7.5433742098301702e+00 1.3511486920368168e+00 0.0000000000000000e+00  7.5304157633859612e+00 1.4322469156041870e+00 0.0000000000000000e+00  7.5166047501867181e+00 1.5127742690533754e+00 0.0000000000000000e+00  7.5018746383207020e+00 1.5926514564541701e+00 0.0000000000000000e+00  7.4862512296643713e+00 1.6718425622649518e+00 0.0000000000000000e+00  7.4697020777494263e+00 1.7503636395942599e+00 0.0000000000000000e+00  7.4522291429452983e+00 1.8280360437135750e+00 0.0000000000000000e+00  7.4337966934882358e+00 1.9051533109769903e+00 0.0000000000000000e+00  7.4144364485120349e+00 1.9811260582230457e+00 0.0000000000000000e+00  7.3940947093820242e+00 2.0567011060987972e+00 0.0000000000000000e+00  7.3728017992197596e+00 2.1309747770307945e+00 0.0000000000000000e+00  7.3505274122345252e+00 2.2047669460159218e+00 0.0000000000000000e+00  7.3273019649969413e+00 2.2773451041699291e+00 0.0000000000000000e+00  7.3030710720319103e+00 2.3492631963894044e+00 0.0000000000000000e+00  7.2779216752129035e+00 2.4200468936955706e+00 0.0000000000000000e+00  7.2517598077465291e+00 2.4900548547555537e+00 0.0000000000000000e+00  7.2247042551167997e+00 2.5590172563634459e+00 0.0000000000000000e+00  7.1966466848033139e+00 2.6270903835724990e+00 0.0000000000000000e+00  7.1677575767171939e+00 2.6941847919400002e+00 0.0000000000000000e+00  7.1378527333955590e+00 2.7603723092971384e+00 0.0000000000000000e+00  7.1072161502330164e+00 2.8256439990403694e+00 0.0000000000000000e+00  7.0755632460654354e+00 2.8899079747863774e+00 0.0000000000000000e+00  7.0432860500519805e+00 2.9534768542787395e+00 0.0000000000000000e+00  7.0099902236102185e+00 3.0159068436774974e+00 0.0000000000000000e+00  6.9762314303986663e+00 3.0778104973742790e+00 0.0000000000000000e+00  6.9414102470032644e+00 3.1385179027327541e+00 0.0000000000000000e+00  6.9063368986461668e+00 3.1989332338478009e+00 0.0000000000000000e+00  6.8701433122024991e+00 3.2579788125858071e+00 0.0000000000000000e+00  6.8339382384825083e+00 3.3170833690050339e+00 0.0000000000000000e+00  6.7965137695105344e+00 3.3745951681641890e+00 0.0000000000000000e+00  6.7593969538159753e+00 3.4325779308317328e+00 0.0000000000000000e+00  6.7208777265915742e+00 3.4886734105076322e+00 0.0000000000000000e+00  6.6830588516270861e+00 3.5457478993274867e+00 0.0000000000000000e+00  6.6435970311748669e+00 3.6005233876123763e+00 0.0000000000000000e+00  6.6052815943100036e+00 3.6569420269921711e+00 0.0000000000000000e+00  6.5649983038358055e+00 3.7104794965856551e+00 0.0000000000000000e+00  6.5264111453738991e+00 3.7664608659236603e+00 0.0000000000000000e+00  6.4854026495560584e+00 3.8188483394937784e+00 0.0000000000000000e+00  6.4467423975652496e+00 3.8746301632619504e+00 0.0000000000000000e+00  6.4051098766041514e+00 3.9258990223257526e+00 0.0000000000000000e+00  6.3665522614310373e+00 3.9817183416529693e+00 0.0000000000000000e+00  6.3243583900315441e+00 4.0318919119242205e+00 0.0000000000000000e+00  6.2860925156903322e+00 4.0879518306937328e+00 0.0000000000000000e+00  6.2433690524171466e+00 4.1370520659136893e+00 0.0000000000000000e+00  6.2055414440805983e+00 4.1935335828675298e+00 0.0000000000000000e+00  6.1623451268569127e+00 4.2415460543607280e+00 0.0000000000000000e+00  6.1250642315368049e+00 4.2986286285813584e+00 0.0000000000000000e+00  6.0814107582489259e+00 4.3455339227784293e+00 0.0000000000000000e+00  6.0448150094020479e+00 4.4033496952807702e+00 0.0000000000000000e+00  6.0006943681868208e+00 4.4491357322942386e+00 0.0000000000000000e+00  5.9648562019846363e+00 4.5077898522088713e+00 0.0000000000000000e+00  5.9203274114802005e+00 4.5524560886182144e+00 0.0000000000000000e+00  5.8852704571637533e+00 4.6119916460763593e+00 0.0000000000000000e+00  5.8403444064379118e+00 4.6555762676307690e+00 0.0000000000000000e+00  5.8061464235433258e+00 4.7160240488356502e+00 0.0000000000000000e+00  5.7608252834016929e+00 4.7585128509515107e+00 0.0000000000000000e+00  5.7274652086236859e+00 4.8198949498947812e+00 0.0000000000000000e+00  5.6818667271757155e+00 4.8614018065736850e+00 0.0000000000000000e+00  5.6492591397651042e+00 4.9235197384539608e+00 0.0000000000000000e+00  5.6034626346491425e+00 4.9642515217599552e+00 0.0000000000000000e+00  5.5715903853702518e+00 5.0270456277543492e+00 0.0000000000000000e+00  5.5256445491048289e+00 5.0669667701925105e+00 0.0000000000000000e+00  5.4944207170458572e+00 5.1303704066240750e+00 0.0000000000000000e+00  5.4485285211232100e+00 5.1698449919680947e+00 0.0000000000000000e+00  5.4176835448086216e+00 5.2332661402195670e+00 0.0000000000000000e+00  5.3721373012518967e+00 5.2727874593337907e+00 0.0000000000000000e+00  5.3415019574838194e+00 5.3360724770312675e+00 0.0000000000000000e+00  5.2963491687243032e+00 5.3755514642932969e+00 0.0000000000000000e+00  5.2658954215832043e+00 5.4385558991643377e+00 0.0000000000000000e+00  5.2213968769193837e+00 5.4787113221324963e+00 0.0000000000000000e+00  5.1905822031676658e+00 5.5402556894681050e+00 0.0000000000000000e+00  5.1473545991745695e+00 5.5820909483779371e+00 0.0000000000000000e+00  5.1158854630673387e+00 5.6418857822351827e+00 0.0000000000000000e+00  5.0737950163268914e+00 5.6850283132521824e+00 0.0000000000000000e+00  5.0419352817551335e+00 5.7432520724050704e+00 0.0000000000000000e+00  5.0011904592300045e+00 5.7884784882152287e+00 0.0000000000000000e+00  4.9681121223527063e+00 5.8433595698197855e+00 0.0000000000000000e+00  4.9296645356437097e+00 5.8923633377862563e+00 0.0000000000000000e+00  4.8951330836986040e+00 5.9434691205147852e+00 0.0000000000000000e+00  4.8583295994483233e+00 5.9950818616498278e+00 0.0000000000000000e+00  4.8231892363791999e+00 6.0438954865668260e+00 0.0000000000000000e+00  4.7880535882028372e+00 6.0980923153405007e+00 0.0000000000000000e+00  4.7511810552852189e+00 6.1425386811804081e+00 0.0000000000000000e+00  4.7190970655315914e+00 6.2017752920183842e+00 0.0000000000000000e+00  4.6803770279566681e+00 6.2412420527078734e+00 0.0000000000000000e+00  4.6500219825549660e+00 6.3030150779163048e+00 0.0000000000000000e+00  4.6111437913470992e+00 6.3410789913622025e+00 0.0000000000000000e+00  4.5822231558405617e+00 6.4038555437567410e+00 0.0000000000000000e+00  4.5415634687774089e+00 6.4386617758462892e+00 0.0000000000000000e+00  4.5161614028733998e+00 6.5054668883950653e+00 0.0000000000000000e+00  4.4735794406386313e+00 6.5362360141304627e+00 0.0000000000000000e+00  4.4497001101608227e+00 6.6034444135236710e+00 0.0000000000000000e+00  4.4078586174935541e+00 6.6349548795432423e+00 0.0000000000000000e+00  4.3847103154105902e+00 6.7012471206353226e+00 0.0000000000000000e+00  4.3418437675778954e+00 6.7297158251715077e+00 0.0000000000000000e+00  4.3224822616328771e+00 6.7988648079141480e+00 0.0000000000000000e+00  4.2784118657088204e+00 6.8243403616899396e+00 0.0000000000000000e+00  4.2599449434358121e+00 6.8904294830013253e+00 0.0000000000000000e+00  4.2190603359405090e+00 6.9175394836781949e+00 0.0000000000000000e+00  4.2003814160136921e+00 6.9825203225825945e+00 0.0000000000000000e+00  4.1608797633226331e+00 6.9997101294947264e+00 0.0000000000000000e+00  4.1459496982635251e+00 7.0730636241971903e+00 0.0000000000000000e+00  4.1087791380211200e+00 7.0787318616269301e+00 0.0000000000000000e+00  4.0941849438479174e+00 7.1461450916878864e+00 0.0000000000000000e+00  4.0665024685709614e+00 7.1537262435768145e+00 0.0000000000000000e+00  4.0503772982695017e+00 7.2092548630572075e+00 0.0000000000000000e+00  4.0322150583769956e+00 7.2036227959521826e+00 0.0000000000000000e+00  4.0167723854089141e+00 7.2694760138747290e+00 0.0000000000000000e+00  4.0089642442022972e+00 7.2345624121217922e+00 0.0000000000000000e+00  3.9896844693525351e+00 7.3102560894613227e+00 0.0000000000000000e+00  3.9947170398915590e+00 7.2640602887296923e+00 0.0000000000000000e+00  3.9716940283105000e+00 7.3287656900238130e+00 0.0000000000000000e+00  3.9858260913852446e+00 7.2888344637830205e+00 0.0000000000000000e+00  3.9585782354940822e+00 7.3360755399042521e+00 0.0000000000000000e+00  3.9864188298229246e+00 7.3025070519009558e+00 0.0000000000000000e+00  3.9455516050880859e+00 7.3461478265662450e+00 0.0000000000000000e+00  3.9900767373289803e+00 7.2955338839734045e+00 0.0000000000000000e+00  3.9388708893794728e+00 7.3700194534568206e+00 0.0000000000000000e+00  3.9908968394386024e+00 7.2773656698095319e+00 0.0000000000000000e+00  3.9338276722753394e+00 7.3849154347603001e+00 0.0000000000000000e+00  3.9957736397383852e+00 7.2785281668404167e+00 0.0000000000000000e+00  3.9264505796291389e+00 7.3779322680836019e+00 0.0000000000000000e+00  3.9996991958712109e+00 7.2871836009992483e+00 0.0000000000000000e+00  3.9245377391099936e+00 7.3778058841810594e+00 0.0000000000000000e+00  3.9994268161122100e+00 7.2821343203837330e+00 0.0000000000000000e+00  3.9230347545294171e+00 7.3840760480031777e+00 0.0000000000000000e+00  4.0017001107334238e+00 7.2809974557891985e+00 0.0000000000000000e+00  3.9214518956244535e+00 7.3823420102352655e+00 0.0000000000000000e+00  3.9991403106183809e+00 7.2815197276206067e+00 0.0000000000000000e+00  3.9272115825122400e+00 7.3865788467315676e+00 0.0000000000000000e+00  3.9927468538777973e+00 7.2758145077688425e+00 0.0000000000000000e+00  3.9308304525921751e+00 7.3879676797648184e+00 0.0000000000000000e+00  3.9912007551351700e+00 7.2822805120402352e+00 0.0000000000000000e+00  3.9326714972336902e+00 7.3770076658623243e+00 0.0000000000000000e+00  3.9866914558481832e+00 7.2912172960576553e+00 0.0000000000000000e+00  3.9381088029004911e+00 7.3745398701651483e+00 0.0000000000000000e+00  3.9836538221124571e+00 7.2888018521686204e+00 0.0000000000000000e+00  3.9364039485903435e+00 7.3765858798770179e+00 0.0000000000000000e+00  3.9877739121477607e+00 7.2913588898962587e+00 0.0000000000000000e+00  3.9335696912921803e+00 7.3701538391676706e+00 0.0000000000000000e+00  3.9867606944784839e+00 7.2980962925959556e+00 0.0000000000000000e+00  3.9365066107512723e+00 7.3663797691151860e+00 0.0000000000000000e+00  3.9851194876724279e+00 7.2988932369805344e+00 0.0000000000000000e+00  3.9352180239239245e+00 7.3661192919004046e+00 0.0000000000000000e+00  3.9866884322946374e+00 7.3011038224552260e+00 0.0000000000000000e+00  3.9366997511989932e+00 7.3612051874019269e+00 0.0000000000000000e+00  3.9807708469250147e+00 7.3077375535708207e+00 0.0000000000000000e+00  3.9443425903667992e+00 7.3536125678965574e+00 0.0000000000000000e+00  3.9750679577779091e+00 7.3152786421769687e+00 0.0000000000000000e+00  3.9462581447609657e+00 7.3464063271284781e+00 0.0000000000000000e+00  3.9748016437378659e+00 7.3213798323448449e+00 0.0000000000000000e+00  3.9476587234476739e+00 7.3408266533475315e+00 0.0000000000000000e+00  3.9708987926974495e+00 7.3278281536680971e+00 0.0000000000000000e+00  3.9519860604889949e+00 7.3309802957657579e+00 0.0000000000000000e+00  3.9688584409793366e+00 7.3407477026819619e+00 0.0000000000000000e+00  3.9499995263253864e+00 7.3178034941739112e+00 0.0000000000000000e+00  3.9733508841359213e+00 7.3506687266632227e+00 0.0000000000000000e+00  3.9442288978006230e+00 7.3101752504902544e+00 0.0000000000000000e+00  3.9784196941305683e+00 7.3626419965437551e+00 0.0000000000000000e+00  3.9350021580858581e+00 7.2910972240267258e+00 0.0000000000000000e+00  3.9842396225708940e+00 7.3911099411230001e+00 0.0000000000000000e+00  3.9227668823120823e+00 7.2765510873894677e+00 0.0000000000000000e+00  3.9773000736309911e+00 7.3880066184545967e+00 0.0000000000000000e+00  3.9431875574736521e+00 7.3140753575714550e+00 0.0000000000000000e+00  3.9228189969669178e+00 7.3283992007704164e+00 0.0000000000000000e+00  4.0194913962897747e+00 7.3956530310495445e+00 0.0000000000000000e+00  3.8317032378453657e+00 7.2093171697477780e+00 0.0000000000000000e+00  4.0442158177921810e+00 7.6171600710320604e+00 0.0000000000000000e+00  4.1516799597340368e+00 6.4933514515002893e+00 0.0000000000000000e+00  8.7845384986534025e+00 6.2597704948877597e-01 0.0000000000000000e+00  9.5457572561535073e+00 3.4160775934183617e-02 0.0000000000000000e+00  9.4262233719967181e+00 -4.0074206731014604e-02 0.0000000000000000e+00  9.4752918577178669e+00 -6.6646105035002165e-02 0.0000000000000000e+00  9.4782273976327378e+00 -6.0668120638077597e-02 0.0000000000000000e+00  9.4939945342734617e+00 -9.3507260338774809e-02 0.0000000000000000e+00  9.4979824007506402e+00 -1.0601818372225340e-01 0.0000000000000000e+00  9.4864006799367946e+00 -8.0520323511941369e-02 0.0000000000000000e+00  9.4874836911331712e+00 -8.5620242117021364e-02 0.0000000000000000e+00  9.4912621635383445e+00 -8.7641965816679643e-02 0.0000000000000000e+00  9.4925624569187530e+00 -7.8765838898511242e-02 0.0000000000000000e+00  9.4900263334907180e+00 -8.3293328926788812e-02 0.0000000000000000e+00  9.4906366307562511e+00 -6.0612727214489528e-02 0.0000000000000000e+00  9.4891810326859449e+00 -1.0611658935456282e-01 0.0000000000000000e+00  9.4962560104964595e+00 -2.3038458788157752e-02 0.0000000000000000e+00  9.4872203476638344e+00 0.0000000000000000e+00 0.0000000000000000e+00  7.6405195600846625e+00 0.0000000000000000e+00 -1.0840267753212950e-05  7.6401504899256070e+00 8.5963174490874511e-02 2.0916063548609406e-05  7.6390514029733056e+00 1.7184506623356674e-01 -2.8973820827529466e-05  7.6372104166214578e+00 2.5770654303904966e-01 2.5633879386297522e-05  7.6346242925820453e+00 3.4341998948161034e-01 -2.4978127370506547e-05  7.6313061646049789e+00 4.2903393610229401e-01 2.4476226987756733e-05  7.6272291450669627e+00 5.1443111630997662e-01 -2.4264826355776643e-05  7.6223937706835718e+00 5.9966364379717163e-01 2.4553776131816927e-05  7.6168063320027457e+00 6.8460065528273106e-01 -2.4874214720628338e-05  7.6104373392542737e+00 7.6930605723892675e-01 2.5783039690232777e-05  7.6032863035706750e+00 8.5364422087561831e-01 -2.6943634516533275e-05  7.5953518827619408e+00 9.3768030612225917e-01 2.9099625463774774e-05  7.5866098852385351e+00 1.0212667456256566e+00 -3.2464845062630617e-05  7.5770451117567559e+00 1.1044969755986807e+00 3.8613814297706993e-05  7.5666724812933746e+00 1.1871878051342435e+00 -4.7904952210612139e-05  7.5554386475047588e+00 1.2694549245316922e+00 6.0553709363305476e-05  7.5433663408972045e+00 1.3511149124958206e+00 -7.4274324658487933e-05  7.5304149886015992e+00 1.4322822346610986e+00 8.7413798772251764e-05  7.5166018627749134e+00 1.5127384609264938e+00 -9.7809993555690342e-05  7.5018610004395967e+00 1.5926962857130591e+00 1.0627980345630980e-04  7.4862579325911076e+00 1.6718012955848516e+00 -1.1273160656981655e-04  7.4696887001587635e+00 1.7503813794773251e+00 1.1811983962966294e-04  7.4522273437438438e+00 1.8280545059458633e+00 -1.1936569214604694e-04  7.4337890693316355e+00 1.9050939354817922e+00 1.1510590523805353e-04  7.4144367580350981e+00 1.9811969643624647e+00 -1.0310797123193299e-04  7.3940789978613752e+00 2.0566359047598963e+00 8.8054234806798700e-05  7.3728048139020261e+00 2.1310077039988449e+00 -7.3290833105385227e-05  7.3505184233059735e+00 2.2047473043909922e+00 6.4093118807129239e-05  7.3272909668310975e+00 2.2773523697456288e+00 -5.6695565196531252e-05  7.3030719098232861e+00 2.3492488765406514e+00 4.9269880366893391e-05  7.2779080498421562e+00 2.4200460840516729e+00 -3.7250658307072080e-05  7.2517587443345226e+00 2.4900624930213939e+00 2.6208459437132331e-05  7.2246857857143612e+00 2.5590003104584342e+00 -1.7606581811879779e-05  7.1966593738678357e+00 2.6270890874823007e+00 1.5505100160522943e-05  7.1677197831701545e+00 2.6941902090054057e+00 -1.3756104084417754e-05  7.1378800899635051e+00 2.7603805556035206e+00 1.2406127879975473e-05  7.1071693098599438e+00 2.8255933354043097e+00 -7.8181106339537638e-06  7.0755991001819787e+00 2.8899860518634077e+00 4.0690236086943100e-06  7.0432213592025734e+00 2.9533948044826936e+00 2.0459933806920658e-06  7.0100550697741664e+00 3.0159822064813078e+00 -7.7828321370140407e-06  6.9761315163398416e+00 3.0777203488952898e+00 1.5393059409105321e-05  6.9415093012636389e+00 3.1386447084682487e+00 -2.1833741544506378e-05  6.9062046363091998e+00 3.1987699535609675e+00 3.1391680641205694e-05  6.8702800640139143e+00 3.2581700238986357e+00 -4.3301492541932618e-05  6.8337553211834852e+00 3.3168627399352624e+00 5.8361396606830222e-05  6.7967171378524212e+00 3.3748527733698959e+00 -7.2341737401037453e-05  6.7591380106773107e+00 3.4322751799600724e+00 8.6961092039628885e-05  6.7211607051681055e+00 3.4890202928972296e+00 -1.0283816718453321e-04  6.6827189895550267e+00 3.5453319894511006e+00 1.2083301948773699e-04  6.6439700170862679e+00 3.6010072514572351e+00 -1.3855037869998360e-04  6.6048353356837382e+00 3.6563668292400671e+00 1.5629845807137480e-04  6.5654976478243938e+00 3.7111194886618728e+00 -1.7526195059417628e-04  6.5258236695409835e+00 3.7657087234373945e+00 1.9505940309052497e-04  6.4860503802536957e+00 3.8196883366997501e+00 -2.1477057129033034e-04  6.4460010245162973e+00 3.8736366269490459e+00 2.3392870243920573e-04  6.4059206616450846e+00 3.9269953282031724e+00 -2.5410143100242728e-04  6.3656258633830793e+00 3.9804374227042527e+00 2.7376034888025629e-04  6.3253761793622001e+00 4.0332852048310528e+00 -2.9285600764129480e-04  6.2849377126505717e+00 4.0863470308806917e+00 3.1012396388456406e-04  6.2446158970909513e+00 4.1387825821970914e+00 -3.2677824161863526e-04  6.2041539673417025e+00 4.1915493384560687e+00 3.4091705658028434e-04  6.1638242218022770e+00 4.2436784190738592e+00 -3.5373019005621606e-04  6.1234148344057120e+00 4.2962148997325968e+00 3.6416101119689850e-04  6.0831720948219195e+00 4.3481044084981484e+00 -3.7318972568468634e-04  6.0428574207563264e+00 4.4004737328754455e+00 3.7866766979011986e-04  6.0027449588435537e+00 4.4521839766834335e+00 -3.8164165249466691e-04  5.9626160047525030e+00 4.5044211158828071e+00 3.8049539399046597e-04  5.9226435119279275e+00 4.5559957146645909e+00 -3.7656481498384080e-04  5.8827294959475855e+00 4.6081339625212383e+00 3.6871227681589187e-04  5.8429746762114760e+00 4.6596202053609073e+00 -3.5877155528013803e-04  5.8032738013451777e+00 4.7116327737154693e+00 3.4425124711168941e-04  5.7637413930493757e+00 4.7631023394351413e+00 -3.2593525764505852e-04  5.7243369292032833e+00 4.8150065792354111e+00 3.0127502227239047e-04  5.6850015823613536e+00 4.8664078658609844e+00 -2.7347454667119670e-04  5.6458975497917532e+00 4.9182573138649719e+00 2.4144326997091835e-04  5.6068375670842956e+00 4.9696704054350791e+00 -2.0916675783239330e-04  5.5679860785495352e+00 5.0212924773248515e+00 1.7165429685101779e-04  5.5292236532660883e+00 5.0728437025379147e+00 -1.2977653744749974e-04  5.4906924579823828e+00 5.1243180122937817e+00 7.7588001621371308e-05  5.4521436562697581e+00 5.1757780543287142e+00 -2.1025382522652452e-05  5.4140004670651685e+00 5.2272272864183176e+00 -4.1027190051436013e-05  5.3757226109315122e+00 5.2787824872411537e+00 1.0120388329083992e-04  5.3378096084957605e+00 5.329