<?xml version="1.0"?>
<VTKFile type="UnstructuredGrid"  version="0.1"  >
<UnstructuredGrid>
<Piece  NumberOfPoints="8241" NumberOfCells="16000">
<Points>
<DataArray  type="Float64"  NumberOfComponents="3"  format="ascii">-5 -1 0  -4.95 -1 0  -4.9 -1 0  -4.85 -1 0  -4.8 -1 0  -4.75 -1 0  -4.7 -1 0  -4.65 -1 0  -4.6 -1 0  -4.55 -1 0  -4.5 -1 0  -4.45 -1 0  -4.4 -1 0  -4.35 -1 0  -4.3 -1 0  -4.25 -1 0  -4.2 -1 0  -4.15 -1 0  -4.1 -1 0  -4.05 -1 0  -4 -1 0  -3.95 -1 0  -3.9 -1 0  -3.85 -1 0  -3.8 -1 0  -3.75 -1 0  -3.7 -1 0  -3.65 -1 0  -3.6 -1 0  -3.55 -1 0  -3.5 -1 0  -3.45 -1 0  -3.4 -1 0  -3.35 -1 0  -3.3 -1 0  -3.25 -1 0  -3.2 -1 0  -3.15 -1 0  -3.1 -1 0  -3.05 -1 0  -3 -1 0  -2.95 -1 0  -2.9 -1 0  -2.85 -1 0  -2.8 -1 0  -2.75 -1 0  -2.7 -1 0  -2.65 -1 0  -2.6 -1 0  -2.55 -1 0  -2.5 -1 0  -2.45 -1 0  -2.4 -1 0  -2.35 -1 0  -2.3 -1 0  -2.25 -1 0  -2.2 -1 0  -2.15 -1 0  -2.1 -1 0  -2.05 -1 0  -2 -1 0  -1.95 -1 0  -1.9 -1 0  -1.85 -1 0  -1.8 -1 0  -1.75 -1 0  -1.7 -1 0  -1.65 -1 0  -1.6 -1 0  -1.55 -1 0  -1.5 -1 0  -1.45 -1 0  -1.4 -1 0  -1.35 -1 0  -1.3 -1 0  -1.25 -1 0  -1.2 -1 0  -1.15 -1 0  -1.1 -1 0  -1.05 -1 0  -1 -1 0  -0.9500000000000002 -1 0  -0.9000000000000004 -1 0  -0.8499999999999996 -1 0  -0.7999999999999998 -1 0  -0.75 -1 0  -0.7000000000000002 -1 0  -0.6500000000000004 -1 0  -0.5999999999999996 -1 0  -0.5499999999999998 -1 0  -0.5 -1 0  -0.4500000000000002 -1 0  -0.4000000000000004 -1 0  -0.3499999999999996 -1 0  -0.2999999999999998 -1 0  -0.25 -1 0  -0.2000000000000002 -1 0  -0.1500000000000004 -1 0  -0.09999999999999964 -1 0  -0.04999999999999982 -1 0  0 -1 0  0.04999999999999982 -1 0  0.09999999999999964 -1 0  0.1500000000000004 -1 0  0.2000000000000002 -1 0  0.25 -1 0  0.2999999999999998 -1 0  0.3499999999999996 -1 0  0.4000000000000004 -1 0  0.4500000000000002 -1 0  0.5 -1 0  0.5499999999999998 -1 0  0.5999999999999996 -1 0  0.6500000000000004 -1 0  0.7000000000000002 -1 0  0.75 -1 0  0.7999999999999998 -1 0  0.8499999999999996 -1 0  0.9000000000000004 -1 0  0.9500000000000002 -1 0  1 -1 0  1.05 -1 0  1.1 -1 0  1.15 -1 0  1.2 -1 0  1.25 -1 0  1.3 -1 0  1.35 -1 0  1.4 -1 0  1.45 -1 0  1.5 -1 0  1.55 -1 0  1.6 -1 0  1.65 -1 0  1.7 -1 0  1.75 -1 0  1.8 -1 0  1.85 -1 0  1.9 -1 0  1.95 -1 0  2 -1 0  2.05 -1 0  2.1 -1 0  2.15 -1 0  2.2 -1 0  2.25 -1 0  2.3 -1 0  2.35 -1 0  2.4 -1 0  2.45 -1 0  2.5 -1 0  2.55 -1 0  2.6 -1 0  2.65 -1 0  2.7 -1 0  2.75 -1 0  2.8 -1 0  2.85 -1 0  2.9 -1 0  2.95 -1 0  3 -1 0  3.050000000000001 -1 0  3.1 -1 0  3.15 -1 0  3.199999999999999 -1 0  3.25 -1 0  3.300000000000001 -1 0  3.35 -1 0  3.4 -1 0  3.449999999999999 -1 0  3.5 -1 0  3.550000000000001 -1 0  3.6 -1 0  3.65 -1 0  3.699999999999999 -1 0  3.75 -1 0  3.800000000000001 -1 0  3.85 -1 0  3.9 -1 0  3.949999999999999 -1 0  4 -1 0  4.050000000000001 -1 0  4.1 -1 0  4.15 -1 0  4.199999999999999 -1 0  4.25 -1 0  4.300000000000001 -1 0  4.35 -1 0  4.4 -1 0  4.449999999999999 -1 0  4.5 -1 0  4.550000000000001 -1 0  4.6 -1 0  4.65 -1 0  4.699999999999999 -1 0  4.75 -1 0  4.800000000000001 -1 0  4.85 -1 0  4.9 -1 0  4.949999999999999 -1 0  5 -1 0  -5 -0.95 0  -4.95 -0.95 0  -4.9 -0.95 0  -4.85 -0.95 0  -4.8 -0.95 0  -4.75 -0.95 0  -4.7 -0.95 0  -4.65 -0.95 0  -4.6 -0.95 0  -4.55 -0.95 0  -4.5 -0.95 0  -4.45 -0.95 0  -4.4 -0.95 0  -4.35 -0.95 0  -4.3 -0.95 0  -4.25 -0.95 0  -4.2 -0.95 0  -4.15 -0.95 0  -4.1 -0.95 0  -4.05 -0.95 0  -4 -0.95 0  -3.95 -0.95 0  -3.9 -0.95 0  -3.85 -0.95 0  -3.8 -0.95 0  -3.75 -0.95 0  -3.7 -0.95 0  -3.65 -0.95 0  -3.6 -0.95 0  -3.55 -0.95 0  -3.5 -0.95 0  -3.45 -0.95 0  -3.4 -0.95 0  -3.35 -0.95 0  -3.3 -0.95 0  -3.25 -0.95 0  -3.2 -0.95 0  -3.15 -0.95 0  -3.1 -0.95 0  -3.05 -0.95 0  -3 -0.95 0  -2.95 -0.95 0  -2.9 -0.95 0  -2.85 -0.95 0  -2.8 -0.95 0  -2.75 -0.95 0  -2.7 -0.95 0  -2.65 -0.95 0  -2.6 -0.95 0  -2.55 -0.95 0  -2.5 -0.95 0  -2.45 -0.95 0  -2.4 -0.95 0  -2.35 -0.95 0  -2.3 -0.95 0  -2.25 -0.95 0  -2.2 -0.95 0  -2.15 -0.95 0  -2.1 -0.95 0  -2.05 -0.95 0  -2 -0.95 0  -1.95 -0.95 0  -1.9 -0.95 0  -1.85 -0.95 0  -1.8 -0.95 0  -1.75 -0.95 0  -1.7 -0.95 0  -1.65 -0.95 0  -1.6 -0.95 0  -1.55 -0.95 0  -1.5 -0.95 0  -1.45 -0.95 0  -1.4 -0.95 0  -1.35 -0.95 0  -1.3 -0.95 0  -1.25 -0.95 0  -1.2 -0.95 0  -1.15 -0.95 0  -1.1 -0.95 0  -1.05 -0.95 0  -1 -0.95 0  -0.9500000000000002 -0.95 0  -0.9000000000000004 -0.95 0  -0.8499999999999996 -0.95 0  -0.7999999999999998 -0.95 0  -0.75 -0.95 0  -0.7000000000000002 -0.95 0  -0.6500000000000004 -0.95 0  -0.5999999999999996 -0.95 0  -0.5499999999999998 -0.95 0  -0.5 -0.95 0  -0.4500000000000002 -0.95 0  -0.4000000000000004 -0.95 0  -0.3499999999999996 -0.95 0  -0.2999999999999998 -0.95 0  -0.25 -0.95 0  -0.2000000000000002 -0.95 0  -0.1500000000000004 -0.95 0  -0.09999999999999964 -0.95 0  -0.04999999999999982 -0.95 0  0 -0.95 0  0.04999999999999982 -0.95 0  0.09999999999999964 -0.95 0  0.1500000000000004 -0.95 0  0.2000000000000002 -0.95 0  0.25 -0.95 0  0.2999999999999998 -0.95 0  0.3499999999999996 -0.95 0  0.4000000000000004 -0.95 0  0.4500000000000002 -0.95 0  0.5 -0.95 0  0.5499999999999998 -0.95 0  0.5999999999999996 -0.95 0  0.6500000000000004 -0.95 0  0.7000000000000002 -0.95 0  0.75 -0.95 0  0.7999999999999998 -0.95 0  0.8499999999999996 -0.95 0  0.9000000000000004 -0.95 0  0.9500000000000002 -0.95 0  1 -0.95 0  1.05 -0.95 0  1.1 -0.95 0  1.15 -0.95 0  1.2 -0.95 0  1.25 -0.95 0  1.3 -0.95 0  1.35 -0.95 0  1.4 -0.95 0  1.45 -0.95 0  1.5 -0.95 0  1.55 -0.95 0  1.6 -0.95 0  1.65 -0.95 0  1.7 -0.95 0  1.75 -0.95 0  1.8 -0.95 0  1.85 -0.95 0  1.9 -0.95 0  1.95 -0.95 0  2 -0.95 0  2.05 -0.95 0  2.1 -0.95 0  2.15 -0.95 0  2.2 -0.95 0  2.25 -0.95 0  2.3 -0.95 0  2.35 -0.95 0  2.4 -0.95 0  2.45 -0.95 0  2.5 -0.95 0  2.55 -0.95 0  2.6 -0.95 0  2.65 -0.95 0  2.7 -0.95 0  2.75 -0.95 0  2.8 -0.95 0  2.85 -0.95 0  2.9 -0.95 0  2.95 -0.95 0  3 -0.95 0  3.050000000000001 -0.95 0  3.1 -0.95 0  3.15 -0.95 0  3.199999999999999 -0.95 0  3.25 -0.95 0  3.300000000000001 -0.95 0  3.35 -0.95 0  3.4 -0.95 0  3.449999999999999 -0.95 0  3.5 -0.95 0  3.550000000000001 -0.95 0  3.6 -0.95 0  3.65 -0.95 0  3.699999999999999 -0.95 0  3.75 -0.95 0  3.800000000000001 -0.95 0  3.85 -0.95 0  3.9 -0.95 0  3.949999999999999 -0.95 0  4 -0.95 0  4.050000000000001 -0.95 0  4.1 -0.95 0  4.15 -0.95 0  4.199999999999999 -0.95 0  4.25 -0.95 0  4.300000000000001 -0.95 0  4.35 -0.95 0  4.4 -0.95 0  4.449999999999999 -0.95 0  4.5 -0.95 0  4.550000000000001 -0.95 0  4.6 -0.95 0  4.65 -0.95 0  4.699999999999999 -0.95 0  4.75 -0.95 0  4.800000000000001 -0.95 0  4.85 -0.95 0  4.9 -0.95 0  4.949999999999999 -0.95 0  5 -0.95 0  -5 -0.9 0  -4.95 -0.9 0  -4.9 -0.9 0  -4.85 -0.9 0  -4.8 -0.9 0  -4.75 -0.9 0  -4.7 -0.9 0  -4.65 -0.9 0  -4.6 -0.9 0  -4.55 -0.9 0  -4.5 -0.9 0  -4.45 -0.9 0  -4.4 -0.9 0  -4.35 -0.9 0  -4.3 -0.9 0  -4.25 -0.9 0  -4.2 -0.9 0  -4.15 -0.9 0  -4.1 -0.9 0  -4.05 -0.9 0  -4 -0.9 0  -3.95 -0.9 0  -3.9 -0.9 0  -3.85 -0.9 0  -3.8 -0.9 0  -3.75 -0.9 0  -3.7 -0.9 0  -3.65 -0.9 0  -3.6 -0.9 0  -3.55 -0.9 0  -3.5 -0.9 0  -3.45 -0.9 0  -3.4 -0.9 0  -3.35 -0.9 0  -3.3 -0.9 0  -3.25 -0.9 0  -3.2 -0.9 0  -3.15 -0.9 0  -3.1 -0.9 0  -3.05 -0.9 0  -3 -0.9 0  -2.95 -0.9 0  -2.9 -0.9 0  -2.85 -0.9 0  -2.8 -0.9 0  -2.75 -0.9 0  -2.7 -0.9 0  -2.65 -0.9 0  -2.6 -0.9 0  -2.55 -0.9 0  -2.5 -0.9 0  -2.45 -0.9 0  -2.4 -0.9 0  -2.35 -0.9 0  -2.3 -0.9 0  -2.25 -0.9 0  -2.2 -0.9 0  -2.15 -0.9 0  -2.1 -0.9 0  -2.05 -0.9 0  -2 -0.9 0  -1.95 -0.9 0  -1.9 -0.9 0  -1.85 -0.9 0  -1.8 -0.9 0  -1.75 -0.9 0  -1.7 -0.9 0  -1.65 -0.9 0  -1.6 -0.9 0  -1.55 -0.9 0  -1.5 -0.9 0  -1.45 -0.9 0  -1.4 -0.9 0  -1.35 -0.9 0  -1.3 -0.9 0  -1.25 -0.9 0  -1.2 -0.9 0  -1.15 -0.9 0  -1.1 -0.9 0  -1.05 -0.9 0  -1 -0.9 0  -0.9500000000000002 -0.9 0  -0.9000000000000004 -0.9 0  -0.8499999999999996 -0.9 0  -0.7999999999999998 -0.9 0  -0.75 -0.9 0  -0.7000000000000002 -0.9 0  -0.6500000000000004 -0.9 0  -0.5999999999999996 -0.9 0  -0.5499999999999998 -0.9 0  -0.5 -0.9 0  -0.4500000000000002 -0.9 0  -0.4000000000000004 -0.9 0  -0.3499999999999996 -0.9 0  -0.2999999999999998 -0.9 0  -0.25 -0.9 0  -0.2000000000000002 -0.9 0  -0.1500000000000004 -0.9 0  -0.09999999999999964 -0.9 0  -0.04999999999999982 -0.9 0  0 -0.9 0  0.04999999999999982 -0.9 0  0.09999999999999964 -0.9 0  0.1500000000000004 -0.9 0  0.2000000000000002 -0.9 0  0.25 -0.9 0  0.2999999999999998 -0.9 0  0.3499999999999996 -0.9 0  0.4000000000000004 -0.9 0  0.4500000000000002 -0.9 0  0.5 -0.9 0  0.5499999999999998 -0.9 0  0.5999999999999996 -0.9 0  0.6500000000000004 -0.9 0  0.7000000000000002 -0.9 0  0.75 -0.9 0  0.7999999999999998 -0.9 0  0.8499999999999996 -0.9 0  0.9000000000000004 -0.9 0  0.9500000000000002 -0.9 0  1 -0.9 0  1.05 -0.9 0  1.1 -0.9 0  1.15 -0.9 0  1.2 -0.9 0  1.25 -0.9 0  1.3 -0.9 0  1.35 -0.9 0  1.4 -0.9 0  1.45 -0.9 0  1.5 -0.9 0  1.55 -0.9 0  1.6 -0.9 0  1.65 -0.9 0  1.7 -0.9 0  1.75 -0.9 0  1.8 -0.9 0  1.85 -0.9 0  1.9 -0.9 0  1.95 -0.9 0  2 -0.9 0  2.05 -0.9 0  2.1 -0.9 0  2.15 -0.9 0  2.2 -0.9 0  2.25 -0.9 0  2.3 -0.9 0  2.35 -0.9 0  2.4 -0.9 0  2.45 -0.9 0  2.5 -0.9 0  2.55 -0.9 0  2.6 -0.9 0  2.65 -0.9 0  2.7 -0.9 0  2.75 -0.9 0  2.8 -0.9 0  2.85 -0.9 0  2.9 -0.9 0  2.95 -0.9 0  3 -0.9 0  3.050000000000001 -0.9 0  3.1 -0.9 0  3.15 -0.9 0  3.199999999999999 -0.9 0  3.25 -0.9 0  3.300000000000001 -0.9 0  3.35 -0.9 0  3.4 -0.9 0  3.449999999999999 -0.9 0  3.5 -0.9 0  3.550000000000001 -0.9 0  3.6 -0.9 0  3.65 -0.9 0  3.699999999999999 -0.9 0  3.75 -0.9 0  3.800000000000001 -0.9 0  3.85 -0.9 0  3.9 -0.9 0  3.949999999999999 -0.9 0  4 -0.9 0  4.050000000000001 -0.9 0  4.1 -0.9 0  4.15 -0.9 0  4.199999999999999 -0.9 0  4.25 -0.9 0  4.300000000000001 -0.9 0  4.35 -0.9 0  4.4 -0.9 0  4.449999999999999 -0.9 0  4.5 -0.9 0  4.550000000000001 -0.9 0  4.6 -0.9 0  4.65 -0.9 0  4.699999999999999 -0.9 0  4.75 -0.9 0  4.800000000000001 -0.9 0  4.85 -0.9 0  4.9 -0.9 0  4.949999999999999 -0.9 0  5 -0.9 0  -5 -0.85 0  -4.95 -0.85 0  -4.9 -0.85 0  -4.85 -0.85 0  -4.8 -0.85 0  -4.75 -0.85 0  -4.7 -0.85 0  -4.65 -0.85 0  -4.6 -0.85 0  -4.55 -0.85 0  -4.5 -0.85 0  -
[...]
<PointData  Vectors="f_15"> 
<DataArray  type="Float64"  Name="f_15"  NumberOfComponents="3" format="ascii">4.8526786447229835e+00 0.0000000000000000e+00 0.0000000000000000e+00  4.8528404813433275e+00 1.0019902246198453e-01 0.0000000000000000e+00  4.8469885417486775e+00 8.7614523145358503e-02 0.0000000000000000e+00  4.8552285031946747e+00 2.1828605013459818e-01 0.0000000000000000e+00  4.8486280912456570e+00 2.2881258414922545e-01 0.0000000000000000e+00  4.8510459186555428e+00 3.3521726757157705e-01 0.0000000000000000e+00  4.8500503257377181e+00 3.6640512829868715e-01 0.0000000000000000e+00  4.8529356035042648e+00 4.6187467815317285e-01 0.0000000000000000e+00  4.8456278923030460e+00 4.9695259052417368e-01 0.0000000000000000e+00  4.8543245321053403e+00 5.9001403996935065e-01 0.0000000000000000e+00  4.8469812371770145e+00 6.3036112892688478e-01 0.0000000000000000e+00  4.8500933775036028e+00 7.1552819331251849e-01 0.0000000000000000e+00  4.8476868512580147e+00 7.6212027201503585e-01 0.0000000000000000e+00  4.8510987287819889e+00 8.4551190128171405e-01 0.0000000000000000e+00  4.8432883373015603e+00 8.9006103106684054e-01 0.0000000000000000e+00  4.8511345901952234e+00 9.7452773523363645e-01 0.0000000000000000e+00  4.8437617804359441e+00 1.0217251887624235e+00 0.0000000000000000e+00  4.8465337750209674e+00 1.1008213282742785e+00 0.0000000000000000e+00  4.8431594154719564e+00 1.1511411616827514e+00 0.0000000000000000e+00  4.8462659505197490e+00 1.2317128901816037e+00 0.0000000000000000e+00  4.8385722370957032e+00 1.2774109512775957e+00 0.0000000000000000e+00  4.8448193997300262e+00 1.3605012298113288e+00 0.0000000000000000e+00  4.8377634872727073e+00 1.4081060116965258e+00 0.0000000000000000e+00  4.8401076553162934e+00 1.4866217423926902e+00 0.0000000000000000e+00  4.8356586847134686e+00 1.5364608335710566e+00 0.0000000000000000e+00  4.8386539052510154e+00 1.6170719117307826e+00 0.0000000000000000e+00  4.8309127826059211e+00 1.6623511352181453e+00 0.0000000000000000e+00  4.8359176628455192e+00 1.7451405791508405e+00 0.0000000000000000e+00  4.8287791677543108e+00 1.7924313721122065e+00 0.0000000000000000e+00  4.8312702702285240e+00 1.8709491832460643e+00 0.0000000000000000e+00  4.8252347643182798e+00 1.9202857896307550e+00 0.0000000000000000e+00  4.8287466224408391e+00 2.0004333060240818e+00 0.0000000000000000e+00  4.8203057852648925e+00 2.0463756568366218e+00 0.0000000000000000e+00  4.8248414105006994e+00 2.1274616499639207e+00 0.0000000000000000e+00  4.8168912158158292e+00 2.1759983035843615e+00 0.0000000000000000e+00  4.8201938814327763e+00 2.2529393847582782e+00 0.0000000000000000e+00  4.8119345289209949e+00 2.3031105362838922e+00 0.0000000000000000e+00  4.8166854252556304e+00 2.3818858912758372e+00 0.0000000000000000e+00  4.8066067932457743e+00 2.4284949713481709e+00 0.0000000000000000e+00  4.8116992709493793e+00 2.5085262021459438e+00 0.0000000000000000e+00  4.8018731996506352e+00 2.5574935738525419e+00 0.0000000000000000e+00  4.8068663088884032e+00 2.6323756693337010e+00 0.0000000000000000e+00  4.7955428872969188e+00 2.6860574233106176e+00 0.0000000000000000e+00  4.8022621691234075e+00 2.7576796879108016e+00 0.0000000000000000e+00  4.7897344324122004e+00 2.8133629930208479e+00 0.0000000000000000e+00  4.7960220090265100e+00 2.8817597393767120e+00 0.0000000000000000e+00  4.7837819663274024e+00 2.9422165618823333e+00 0.0000000000000000e+00  4.7906619662493624e+00 3.0050348924756047e+00 0.0000000000000000e+00  4.7761280701356776e+00 3.0681953858668543e+00 0.0000000000000000e+00  4.7848188857884608e+00 3.1333656640500389e+00 0.0000000000000000e+00  4.7696890579879749e+00 3.1878862729890707e+00 0.0000000000000000e+00  4.7771648439525221e+00 3.2645021422171996e+00 0.0000000000000000e+00  4.7625548827123998e+00 3.3092024560149520e+00 0.0000000000000000e+00  4.7708711335324745e+00 3.3883195281342591e+00 0.0000000000000000e+00  4.7537416062462743e+00 3.4387436202168886e+00 0.0000000000000000e+00  4.7633513318099343e+00 3.5058578290353024e+00 0.0000000000000000e+00  4.7468592478404723e+00 3.5682559780881444e+00 0.0000000000000000e+00  4.7537182167078935e+00 3.6267906257854654e+00 0.0000000000000000e+00  4.7388562393070295e+00 3.6928984290986775e+00 0.0000000000000000e+00  4.7459555215402762e+00 3.7490407776842378e+00 0.0000000000000000e+00  4.7288199033343687e+00 3.8176695485361587e+00 0.0000000000000000e+00  4.7368025803684137e+00 3.8701237376248718e+00 0.0000000000000000e+00  4.7208776907917311e+00 3.9410280350517266e+00 0.0000000000000000e+00  4.7253871766992521e+00 3.9916877290485888e+00 0.0000000000000000e+00  4.7116751343779910e+00 4.0646469057441612e+00 0.0000000000000000e+00  4.7157550403204747e+00 4.1105451270378222e+00 0.0000000000000000e+00  4.7006179304334159e+00 4.1867835458998988e+00 0.0000000000000000e+00  4.7042332243355451e+00 4.2355542094642598e+00 0.0000000000000000e+00  4.6919312270355800e+00 4.2986838003788508e+00 0.0000000000000000e+00  4.6902121120961695e+00 4.3629180668929530e+00 0.0000000000000000e+00  4.6818906163357079e+00 4.4203310362343169e+00 0.0000000000000000e+00  4.6779606403791423e+00 4.4690446847305036e+00 0.0000000000000000e+00  4.6697970350303368e+00 4.5569452839696440e+00 0.0000000000000000e+00  4.6638490516025568e+00 4.5779461957367307e+00 0.0000000000000000e+00  4.6598632609129327e+00 4.6683601266648926e+00 0.0000000000000000e+00  4.6471567638625437e+00 4.7152257269613074e+00 0.0000000000000000e+00  4.6485876555269865e+00 4.7663631351854656e+00 0.0000000000000000e+00  4.6320899019642212e+00 4.8366828938090904e+00 0.0000000000000000e+00  4.6348469462480901e+00 4.8953826858210387e+00 0.0000000000000000e+00  4.6157810735171703e+00 4.9313000770957300e+00 0.0000000000000000e+00  4.6221635072968779e+00 5.0239162643425113e+00 0.0000000000000000e+00  4.5977105095356654e+00 5.0497930620594040e+00 0.0000000000000000e+00  4.6072769946379850e+00 5.1184916254422079e+00 0.0000000000000000e+00  4.5819108022902846e+00 5.1854475805313438e+00 0.0000000000000000e+00  4.5890143042686917e+00 5.2188095317411083e+00 0.0000000000000000e+00  4.5653451129915457e+00 5.2942776276459886e+00 0.0000000000000000e+00  4.5717463102597140e+00 5.3438810758250224e+00 0.0000000000000000e+00  4.5461271029265884e+00 5.3912865246126707e+00 0.0000000000000000e+00  4.5529305788208569e+00 5.4582619187766621e+00 0.0000000000000000e+00  4.5291522116166902e+00 5.5070668582159010e+00 0.0000000000000000e+00  4.5295478858680749e+00 5.5541215302111455e+00 0.0000000000000000e+00  4.5123950784189377e+00 5.6252464365918966e+00 0.0000000000000000e+00  4.5075645011893428e+00 5.6578609717825303e+00 0.0000000000000000e+00  4.4900693208770592e+00 5.7268796930532968e+00 0.0000000000000000e+00  4.4879293284590922e+00 5.7708962267391675e+00 0.0000000000000000e+00  4.4669374491236162e+00 5.8249942723249113e+00 0.0000000000000000e+00  4.4637445006818108e+00 5.8762368511964338e+00 0.0000000000000000e+00  4.4466055743645851e+00 5.9295319925658996e+00 0.0000000000000000e+00  4.4374118801574003e+00 5.9745045892341606e+00 0.0000000000000000e+00  4.4231018463740259e+00 6.0317963600691336e+00 0.0000000000000000e+00  4.4130188172773659e+00 6.0761101297189475e+00 0.0000000000000000e+00  4.3971054017043416e+00 6.1253356020461229e+00 0.0000000000000000e+00  4.3869421985742738e+00 6.1803015273574653e+00 0.0000000000000000e+00  4.3710569522041727e+00 6.2167344062016845e+00 0.0000000000000000e+00  4.3597462425805507e+00 6.2786737842818212e+00 0.0000000000000000e+00  4.3434766774768701e+00 6.3113065658370928e+00 0.0000000000000000e+00  4.3309163682915823e+00 6.3708122883660954e+00 0.0000000000000000e+00  4.3172336249461205e+00 6.4054105848808369e+00 0.0000000000000000e+00  4.2986685265257156e+00 6.4609980313274775e+00 0.0000000000000000e+00  4.2900407311823070e+00 6.4966121369785093e+00 0.0000000000000000e+00  4.2684406224407239e+00 6.5493157807700584e+00 0.0000000000000000e+00  4.2576710650959599e+00 6.5862865502461148e+00 0.0000000000000000e+00  4.2403144559984334e+00 6.6334118053809705e+00 0.0000000000000000e+00  4.2250350207461702e+00 6.6746455164880043e+00 0.0000000000000000e+00  4.2089151827148390e+00 6.7155822801000467e+00 0.0000000000000000e+00  4.1938128856044052e+00 6.7584239190412569e+00 0.0000000000000000e+00  4.1775219246967890e+00 6.7968218003631318e+00 0.0000000000000000e+00  4.1603476258526326e+00 6.8390184286589717e+00 0.0000000000000000e+00  4.1469304922148451e+00 6.8743718147134585e+00 0.0000000000000000e+00  4.1278253990436227e+00 6.9170811636150624e+00 0.0000000000000000e+00  4.1148933577755935e+00 6.9488696639209202e+00 0.0000000000000000e+00  4.0969251571811398e+00 6.9893859922959773e+00 0.0000000000000000e+00  4.0836494763729769e+00 7.0215041424391975e+00 0.0000000000000000e+00  4.0674516191598595e+00 7.0552805623050494e+00 0.0000000000000000e+00  4.0534854005212120e+00 7.0885364073700332e+00 0.0000000000000000e+00  4.0409263322650020e+00 7.1164830733011275e+00 0.0000000000000000e+00  4.0271724040171692e+00 7.1460514851986652e+00 0.0000000000000000e+00  4.0151640470122913e+00 7.1724627580961906e+00 0.0000000000000000e+00  4.0077830803597791e+00 7.1928433489433923e+00 0.0000000000000000e+00  3.9932374655633396e+00 7.2198839363254939e+00 0.0000000000000000e+00  3.9899715772467457e+00 7.2323975098048292e+00 0.0000000000000000e+00  3.9800888364912548e+00 7.2554306726718689e+00 0.0000000000000000e+00  3.9745291109467020e+00 7.2639495240240777e+00 0.0000000000000000e+00  3.9697343405556400e+00 7.2839143158649371e+00 0.0000000000000000e+00  3.9676505188247830e+00 7.2835144253807131e+00 0.0000000000000000e+00  3.9608921209007879e+00 7.3057876390498944e+00 0.0000000000000000e+00  3.9635089929908163e+00 7.2962233955863818e+00 0.0000000000000000e+00  3.9599169048287441e+00 7.3189466807773540e+00 0.0000000000000000e+00  3.9579741375930553e+00 7.3047169000253636e+00 0.0000000000000000e+00  3.9610285388802753e+00 7.3258378969575269e+00 0.0000000000000000e+00  3.9590454810488636e+00 7.3146438259083517e+00 0.0000000000000000e+00  3.9547704370595724e+00 7.3212481047566245e+00 0.0000000000000000e+00  3.9685319846248506e+00 7.3333020378873250e+00 0.0000000000000000e+00  3.9414454296122150e+00 7.3081379061238865e+00 0.0000000000000000e+00  3.9806320049800537e+00 7.3576084120526648e+00 0.0000000000000000e+00  3.9214481557310203e+00 7.2898955641123209e+00 0.0000000000000000e+00  3.9934264570628195e+00 7.3980877992677021e+00 0.0000000000000000e+00  3.8915619548556522e+00 7.2409215291535531e+00 0.0000000000000000e+00  4.0228682472557029e+00 7.5021540349761144e+00 0.0000000000000000e+00  3.8487879136232155e+00 7.0477140522895638e+00 0.0000000000000000e+00  4.0302296570811800e+00 7.8631477800662539e+00 0.0000000000000000e+00  4.0557394084379919e+00 6.3139589842158310e+00 0.0000000000000000e+00  3.3934879746571140e+00 9.1548314483716400e+00 0.0000000000000000e+00  6.6785464058730657e+00 2.7909607699766785e+00 0.0000000000000000e+00  9.3528634021423791e+00 2.1180566261258016e-01 0.0000000000000000e+00  9.5650182533767474e+00 -1.9415721392158632e-02 0.0000000000000000e+00  9.4045818322909049e+00 2.6764470696605917e-02 0.0000000000000000e+00  9.4996282714077847e+00 -1.4050636785244928e-02 0.0000000000000000e+00  9.4848041771287619e+00 -9.3917933867223372e-03 0.0000000000000000e+00  9.5036742481910697e+00 -4.0074243323282674e-02 0.0000000000000000e+00  9.4982371803422172e+00 -2.4048193336791479e-02 0.0000000000000000e+00  9.4938608886146127e+00 -2.8085051425023013e-02 0.0000000000000000e+00  9.4926051097022004e+00 -2.0114004153522481e-02 0.0000000000000000e+00  9.5022239188056989e+00 -3.7148643887338829e-02 0.0000000000000000e+00  9.4969397826963302e+00 -2.6669083179474768e-02 0.0000000000000000e+00  9.4969576267224749e+00 -3.0935480224750997e-02 0.0000000000000000e+00  9.4967532184316124e+00 -3.1022395599811473e-02 0.0000000000000000e+00  9.5002657942666193e+00 -3.3165458440208684e-02 0.0000000000000000e+00  9.4958382578842819e+00 -3.3032626698409819e-02 0.0000000000000000e+00  9.5001290944231851e+00 -3.3627284065956747e-02 0.0000000000000000e+00  9.4968200814708084e+00 -3.5553541117163127e-02 0.0000000000000000e+00  9.4985115397952757e+00 -3.2595775686542518e-02 0.0000000000000000e+00  9.4989065375857926e+00 -3.8485048469908981e-02 0.0000000000000000e+00  9.4978018890083895e+00 -3.4329224844615709e-02 0.0000000000000000e+00  9.4980490391408487e+00 -3.9514641140463415e-02 0.0000000000000000e+00  9.4992328229822363e+00 -3.9818246963929202e-02 0.0000000000000000e+00  9.4973138919118014e+00 -4.0918209096657152e-02 0.0000000000000000e+00  9.4987283403882614e+00 -4.6078341293073227e-02 0.0000000000000000e+00  9.4987335956831007e+00 -4.5742206199415124e-02 0.0000000000000000e+00  9.4971048763078691e+00 -5.2906691639222930e-02 0.0000000000000000e+00  9.4993927355889873e+00 -5.0742203994577677e-02 0.0000000000000000e+00  9.4977072938392464e+00 -6.0112718910295314e-02 0.0000000000000000e+00  9.4980450384159099e+00 -5.4451253265258237e-02 0.0000000000000000e+00  9.4984957531405190e+00 -6.4195865999532559e-02 0.0000000000000000e+00  9.4985103021892758e+00 -5.4370404719572898e-02 0.0000000000000000e+00  9.4972426997983668e+00 -7.0933271190496250e-02 0.0000000000000000e+00  9.4995340687008483e+00 -6.4989720765106743e-02 0.0000000000000000e+00  9.4972635546633093e+00 -8.0876184240204110e-02 0.0000000000000000e+00  9.4988214617515396e+00 -7.7302273626305124e-02 0.0000000000000000e+00  9.4979810803888114e+00 -9.1988759232049896e-02 0.0000000000000000e+00  9.4988053974702478e+00 -8.2513824929432614e-02 0.0000000000000000e+00  9.4977071332318150e+00 -9.9651600448348893e-02 0.0000000000000000e+00  9.4991148210311636e+00 -8.0749192029120717e-02 0.0000000000000000e+00  9.4978253078653232e+00 -8.8015712690818926e-02 0.0000000000000000e+00  9.4992256192581941e+00 -8.1856883236454750e-02 0.0000000000000000e+00  9.4977327646108858e+00 -7.5898734240193888e-02 0.0000000000000000e+00  9.4992896627272412e+00 -8.1324082219795327e-02 0.0000000000000000e+00  9.4982872290264648e+00 -6.3022270313728368e-02 0.0000000000000000e+00  9.4986044223769106e+00 -1.0006221728213702e-01 0.0000000000000000e+00  9.4985660322286787e+00 -2.2221604215187409e-02 0.0000000000000000e+00  9.4996248609331353e+00 0.0000000000000000e+00 0.0000000000000000e+00  4.8582442638891612e+00 0.0000000000000000e+00 -2.9013362770276906e-02  4.8530448531219621e+00 5.5989417933314599e-02 2.9836087544517513e-04  4.8597966696422192e+00 1.4568748319661179e-01 1.6748135847604231e-02  4.8560159254083217e+00 1.9696743141734221e-01 -1.1043720829931953e-02  4.8548790563289286e+00 2.6338418152276560e-01 9.0526460448065605e-03  4.8577250774847434e+00 3.2805929560316011e-01 -7.8638378901753417e-03  4.8560478274859840e+00 3.9369409553904705e-01 7.3252079591145172e-03  4.8529636461233192e+00 4.5199882160973093e-01 -7.4943778150578493e-03  4.8565736189112769e+00 5.2356955566480257e-01 7.3512308603490128e-03  4.8537968858958997e+00 5.8052964288198849e-01 -7.2252158148424115e-03  4.8512859757068645e+00 6.4937938489390878e-01 6.4997462041309056e-03  4.8538837223984332e+00 7.0930981951701622e-01 -5.8739343439219265e-03  4.8514810810953755e+00 7.7834745785061754e-01 5.1705939783934975e-03  4.8486326494258840e+00 8.3547318146561123e-01 -4.7663219396273703e-03  4.8509489499021639e+00 9.0649088628463859e-01 4.3393548890678412e-03  4.8485005395610870e+00 9.6557420868342203e-01 -3.9338624308392018e-03  4.8457393544590452e+00 1.0318187484299344e+00 3.4372438852350046e-03  4.8474910138678791e+00 1.0944907252359493e+00 -3.1402554824797794e-03  4.8452511824071074e+00 1.1616195750990137e+00 3.0133216506091653e-03  4.8424029866859568e+00 1.2203465148469170e+00 -3.0480616862055953e-03  4.8437728499889356e+00 1.2900942916546132e+00 3.0590552129882635e-03  4.8414900183788951e+00 1.3506380039412953e+00 -3.0066262960025494e-03  4.8388504572997402e+00 1.4158080221269094e+00 2.9580330420412248e-03  4.8394721483043117e+00 1.4790321856027400e+00 -3.0537806896231991e-03  4.8374756407351684e+00 1.5461624742577633e+00 3.2376865720260399e-03  4.8346730071342696e+00 1.6046543592899958e+00 -3.4501611847194569e-03  4.8348585891965854e+00 1.6745554973228631e+00 3.6179317268292392e-03  4.8328336666122702e+00 1.7345878881813559e+00 -3.7691362749026746e-03  4.8300471808085854e+00 1.8005095403109950e+00 3.9791744349122679e-03  4.8297092103257171e+00 1.8623340049872978e+00 -4.3084691888152461e-03  4.8275376176465734e+00 1.9305984660999087e+00 4.7026015135903316e-03  4.8250443839711892e+00 1.9877792273200416e+00 -5.1219930865198980e-03  4.8236105752765370e+00 2.0586080216663385e+00 5.5302006341024839e-03  4.8221790954653159e+00 2.1167819136480195e+00 -5.9391144415856046e-03  4.8186482350658295e+00 2.1848808413165854e+00 6.3685095046414836e-03  4.8178744649183418e+00 2.2433885676706224e+00 -6.8010555598530236e-03  4.8149331739287549e+00 2.3146303181856798e+00 7.1968884263017624e-03  4.8130852658695087e+00 2.3683072057851153e+00 -7.5740464917001095e-03  4.8096576835605385e+00 2.4420655238571229e+00 8.0279417487316811e-03  4.8091754398140836e+00 2.4965474596980264e+00 -8.6306665000732228e-03  4.8042350859165204e+00 2.5675978815439375e+00 9.3916937199774609e-03  4.8037775247891439e+00 2.6229541086222232e+00 -1.0167197942840843e-02  4.7991627850099530e+00 2.6960018089233171e+00 1.0797934661758820e-02  4.7987102135047808e+00 2.7473080780337744e+00 -1.1169032361867184e-02  4.7925359350985222e+00 2.8232035189449958e+00 1.1365794526569838e-02  4.7935806099274352e+00 2.8737831888927468e+00 -1.1453419221465162e-02  4.7866846780782479e+00 2.9486524744343106e+00 1.1520775156180703e-02  4.7867278095294008e+00 2.9988990609249893e+00 -1.1452749727260882e-02  4.7805613482119682e+00 3.0767094072740422e+00 1.1178309938429779e-02  4.7808319509370598e+00 3.1210608789972643e+00 -1.0673812571821952e-02  4.7727808686011768e+00 3.2044321201509356e+00 1.0162903780543669e-02  4.7742855217154885e+00 3.2462194707075542e+00 -9.8592713411179821e-03  4.7662308918239003e+00 3.3264050221582369e+00 9.9283491907639059e-03  4.7661326180110049e+00 3.3753956458065666e+00 -1.0244184848110025e-02  4.7585811156460061e+00 3.4472954086545347e+00 1.0537356581164913e-02  4.7596196352588196e+00 3.5005085802041829e+00 -1.0515225006332339e-02  4.7492193295322540e+00 3.5732278823246184e+00 1.0060892672446191e-02  4.7516033827914033e+00 3.6217200560786726e+00 -9.1616945596187192e-03  4.7420842085276114e+00 3.6977660198670406e+00 8.0248762195301981e-03  4.7413113055388267e+00 3.7463976077378520e+00 -6.8510825987555812e-03  4.7336778344838235e+00 3.8184576089977051e+00 5.9544744594139656e-03  4.7331971624093265e+00 3.8706142814484767e+00 -5.5695870421284639e-03  4.7228243525105089e+00 3.9409151992166187e+00 5.7214759378528624e-03  4.7239700200211825e+00 3.9925364553403542e+00 -6.1230509154537299e-03  4.7139145646211498e+00 4.0623451770566676e+00 6.2608672227644413e-03  4.7123906711458163e+00 4.1144747915891760e+00 -5.7469483873770436e-03  4.7038852395165547e+00 4.1850658041618685e+00 4.6238837202947150e-03  4.7024784055229034e+00 4.2318455351223179e+00 -3.3812287384050589e-03  4.6918031028955260e+00 4.3078972588878486e+00 2.5614562028120225e-03  4.6911200254447110e+00 4.3553157740945885e+00 -2.3810139973992448e-03  4.6814774772319829e+00 4.4177197879316816e+00 2.4965623197348999e-03  4.6776375805618384e+00 4.4860445385149248e+00 -2.3842793029686992e-03  4.6697217294326760e+00 4.5322307084627775e+00 1.6939334832455058e-03  4.6655911425309133e+00 4.5975591596288892e+00 -5.2538862295413652e-04  4.6562875068162635e+00 4.6643450377270215e+00 -7.6859371743573130e-04  4.6514038167996521e+00 4.7052037151777242e+00 1.8544994398946813e-03  4.6450207845635072e+00 4.7779074286616341e+00 -2.7111680552157698e-03  4.6347426469145567e+00 4.8386696672121072e+00 3.4254543497407759e-03  4.6320427197493323e+00 4.8743400286795868e+00 -4.0315572638195581e-03  4.6200845978618714e+00 4.9638164997166170e+00 4.4658563885298617e-03  4.6161303021734383e+00 4.9958368831076978e+00 -4.5571118975931274e-03  4.6043821574381578e+00 5.0612683004619212e+00 4.3501204028157459e-0