<?xml version="1.0"?>
<VTKFile type="UnstructuredGrid"  version="0.1"  >
<UnstructuredGrid>
<Piece  NumberOfPoints="8241" NumberOfCells="16000">
<Points>
<DataArray  type="Float64"  NumberOfComponents="3"  format="ascii">-5 -1 0  -4.95 -1 0  -4.9 -1 0  -4.85 -1 0  -4.8 -1 0  -4.75 -1 0  -4.7 -1 0  -4.65 -1 0  -4.6 -1 0  -4.55 -1 0  -4.5 -1 0  -4.45 -1 0  -4.4 -1 0  -4.35 -1 0  -4.3 -1 0  -4.25 -1 0  -4.2 -1 0  -4.15 -1 0  -4.1 -1 0  -4.05 -1 0  -4 -1 0  -3.95 -1 0  -3.9 -1 0  -3.85 -1 0  -3.8 -1 0  -3.75 -1 0  -3.7 -1 0  -3.65 -1 0  -3.6 -1 0  -3.55 -1 0  -3.5 -1 0  -3.45 -1 0  -3.4 -1 0  -3.35 -1 0  -3.3 -1 0  -3.25 -1 0  -3.2 -1 0  -3.15 -1 0  -3.1 -1 0  -3.05 -1 0  -3 -1 0  -2.95 -1 0  -2.9 -1 0  -2.85 -1 0  -2.8 -1 0  -2.75 -1 0  -2.7 -1 0  -2.65 -1 0  -2.6 -1 0  -2.55 -1 0  -2.5 -1 0  -2.45 -1 0  -2.4 -1 0  -2.35 -1 0  -2.3 -1 0  -2.25 -1 0  -2.2 -1 0  -2.15 -1 0  -2.1 -1 0  -2.05 -1 0  -2 -1 0  -1.95 -1 0  -1.9 -1 0  -1.85 -1 0  -1.8 -1 0  -1.75 -1 0  -1.7 -1 0  -1.65 -1 0  -1.6 -1 0  -1.55 -1 0  -1.5 -1 0  -1.45 -1 0  -1.4 -1 0  -1.35 -1 0  -1.3 -1 0  -1.25 -1 0  -1.2 -1 0  -1.15 -1 0  -1.1 -1 0  -1.05 -1 0  -1 -1 0  -0.9500000000000002 -1 0  -0.9000000000000004 -1 0  -0.8499999999999996 -1 0  -0.7999999999999998 -1 0  -0.75 -1 0  -0.7000000000000002 -1 0  -0.6500000000000004 -1 0  -0.5999999999999996 -1 0  -0.5499999999999998 -1 0  -0.5 -1 0  -0.4500000000000002 -1 0  -0.4000000000000004 -1 0  -0.3499999999999996 -1 0  -0.2999999999999998 -1 0  -0.25 -1 0  -0.2000000000000002 -1 0  -0.1500000000000004 -1 0  -0.09999999999999964 -1 0  -0.04999999999999982 -1 0  0 -1 0  0.04999999999999982 -1 0  0.09999999999999964 -1 0  0.1500000000000004 -1 0  0.2000000000000002 -1 0  0.25 -1 0  0.2999999999999998 -1 0  0.3499999999999996 -1 0  0.4000000000000004 -1 0  0.4500000000000002 -1 0  0.5 -1 0  0.5499999999999998 -1 0  0.5999999999999996 -1 0  0.6500000000000004 -1 0  0.7000000000000002 -1 0  0.75 -1 0  0.7999999999999998 -1 0  0.8499999999999996 -1 0  0.9000000000000004 -1 0  0.9500000000000002 -1 0  1 -1 0  1.05 -1 0  1.1 -1 0  1.15 -1 0  1.2 -1 0  1.25 -1 0  1.3 -1 0  1.35 -1 0  1.4 -1 0  1.45 -1 0  1.5 -1 0  1.55 -1 0  1.6 -1 0  1.65 -1 0  1.7 -1 0  1.75 -1 0  1.8 -1 0  1.85 -1 0  1.9 -1 0  1.95 -1 0  2 -1 0  2.05 -1 0  2.1 -1 0  2.15 -1 0  2.2 -1 0  2.25 -1 0  2.3 -1 0  2.35 -1 0  2.4 -1 0  2.45 -1 0  2.5 -1 0  2.55 -1 0  2.6 -1 0  2.65 -1 0  2.7 -1 0  2.75 -1 0  2.8 -1 0  2.85 -1 0  2.9 -1 0  2.95 -1 0  3 -1 0  3.050000000000001 -1 0  3.1 -1 0  3.15 -1 0  3.199999999999999 -1 0  3.25 -1 0  3.300000000000001 -1 0  3.35 -1 0  3.4 -1 0  3.449999999999999 -1 0  3.5 -1 0  3.550000000000001 -1 0  3.6 -1 0  3.65 -1 0  3.699999999999999 -1 0  3.75 -1 0  3.800000000000001 -1 0  3.85 -1 0  3.9 -1 0  3.949999999999999 -1 0  4 -1 0  4.050000000000001 -1 0  4.1 -1 0  4.15 -1 0  4.199999999999999 -1 0  4.25 -1 0  4.300000000000001 -1 0  4.35 -1 0  4.4 -1 0  4.449999999999999 -1 0  4.5 -1 0  4.550000000000001 -1 0  4.6 -1 0  4.65 -1 0  4.699999999999999 -1 0  4.75 -1 0  4.800000000000001 -1 0  4.85 -1 0  4.9 -1 0  4.949999999999999 -1 0  5 -1 0  -5 -0.95 0  -4.95 -0.95 0  -4.9 -0.95 0  -4.85 -0.95 0  -4.8 -0.95 0  -4.75 -0.95 0  -4.7 -0.95 0  -4.65 -0.95 0  -4.6 -0.95 0  -4.55 -0.95 0  -4.5 -0.95 0  -4.45 -0.95 0  -4.4 -0.95 0  -4.35 -0.95 0  -4.3 -0.95 0  -4.25 -0.95 0  -4.2 -0.95 0  -4.15 -0.95 0  -4.1 -0.95 0  -4.05 -0.95 0  -4 -0.95 0  -3.95 -0.95 0  -3.9 -0.95 0  -3.85 -0.95 0  -3.8 -0.95 0  -3.75 -0.95 0  -3.7 -0.95 0  -3.65 -0.95 0  -3.6 -0.95 0  -3.55 -0.95 0  -3.5 -0.95 0  -3.45 -0.95 0  -3.4 -0.95 0  -3.35 -0.95 0  -3.3 -0.95 0  -3.25 -0.95 0  -3.2 -0.95 0  -3.15 -0.95 0  -3.1 -0.95 0  -3.05 -0.95 0  -3 -0.95 0  -2.95 -0.95 0  -2.9 -0.95 0  -2.85 -0.95 0  -2.8 -0.95 0  -2.75 -0.95 0  -2.7 -0.95 0  -2.65 -0.95 0  -2.6 -0.95 0  -2.55 -0.95 0  -2.5 -0.95 0  -2.45 -0.95 0  -2.4 -0.95 0  -2.35 -0.95 0  -2.3 -0.95 0  -2.25 -0.95 0  -2.2 -0.95 0  -2.15 -0.95 0  -2.1 -0.95 0  -2.05 -0.95 0  -2 -0.95 0  -1.95 -0.95 0  -1.9 -0.95 0  -1.85 -0.95 0  -1.8 -0.95 0  -1.75 -0.95 0  -1.7 -0.95 0  -1.65 -0.95 0  -1.6 -0.95 0  -1.55 -0.95 0  -1.5 -0.95 0  -1.45 -0.95 0  -1.4 -0.95 0  -1.35 -0.95 0  -1.3 -0.95 0  -1.25 -0.95 0  -1.2 -0.95 0  -1.15 -0.95 0  -1.1 -0.95 0  -1.05 -0.95 0  -1 -0.95 0  -0.9500000000000002 -0.95 0  -0.9000000000000004 -0.95 0  -0.8499999999999996 -0.95 0  -0.7999999999999998 -0.95 0  -0.75 -0.95 0  -0.7000000000000002 -0.95 0  -0.6500000000000004 -0.95 0  -0.5999999999999996 -0.95 0  -0.5499999999999998 -0.95 0  -0.5 -0.95 0  -0.4500000000000002 -0.95 0  -0.4000000000000004 -0.95 0  -0.3499999999999996 -0.95 0  -0.2999999999999998 -0.95 0  -0.25 -0.95 0  -0.2000000000000002 -0.95 0  -0.1500000000000004 -0.95 0  -0.09999999999999964 -0.95 0  -0.04999999999999982 -0.95 0  0 -0.95 0  0.04999999999999982 -0.95 0  0.09999999999999964 -0.95 0  0.1500000000000004 -0.95 0  0.2000000000000002 -0.95 0  0.25 -0.95 0  0.2999999999999998 -0.95 0  0.3499999999999996 -0.95 0  0.4000000000000004 -0.95 0  0.4500000000000002 -0.95 0  0.5 -0.95 0  0.5499999999999998 -0.95 0  0.5999999999999996 -0.95 0  0.6500000000000004 -0.95 0  0.7000000000000002 -0.95 0  0.75 -0.95 0  0.7999999999999998 -0.95 0  0.8499999999999996 -0.95 0  0.9000000000000004 -0.95 0  0.9500000000000002 -0.95 0  1 -0.95 0  1.05 -0.95 0  1.1 -0.95 0  1.15 -0.95 0  1.2 -0.95 0  1.25 -0.95 0  1.3 -0.95 0  1.35 -0.95 0  1.4 -0.95 0  1.45 -0.95 0  1.5 -0.95 0  1.55 -0.95 0  1.6 -0.95 0  1.65 -0.95 0  1.7 -0.95 0  1.75 -0.95 0  1.8 -0.95 0  1.85 -0.95 0  1.9 -0.95 0  1.95 -0.95 0  2 -0.95 0  2.05 -0.95 0  2.1 -0.95 0  2.15 -0.95 0  2.2 -0.95 0  2.25 -0.95 0  2.3 -0.95 0  2.35 -0.95 0  2.4 -0.95 0  2.45 -0.95 0  2.5 -0.95 0  2.55 -0.95 0  2.6 -0.95 0  2.65 -0.95 0  2.7 -0.95 0  2.75 -0.95 0  2.8 -0.95 0  2.85 -0.95 0  2.9 -0.95 0  2.95 -0.95 0  3 -0.95 0  3.050000000000001 -0.95 0  3.1 -0.95 0  3.15 -0.95 0  3.199999999999999 -0.95 0  3.25 -0.95 0  3.300000000000001 -0.95 0  3.35 -0.95 0  3.4 -0.95 0  3.449999999999999 -0.95 0  3.5 -0.95 0  3.550000000000001 -0.95 0  3.6 -0.95 0  3.65 -0.95 0  3.699999999999999 -0.95 0  3.75 -0.95 0  3.800000000000001 -0.95 0  3.85 -0.95 0  3.9 -0.95 0  3.949999999999999 -0.95 0  4 -0.95 0  4.050000000000001 -0.95 0  4.1 -0.95 0  4.15 -0.95 0  4.199999999999999 -0.95 0  4.25 -0.95 0  4.300000000000001 -0.95 0  4.35 -0.95 0  4.4 -0.95 0  4.449999999999999 -0.95 0  4.5 -0.95 0  4.550000000000001 -0.95 0  4.6 -0.95 0  4.65 -0.95 0  4.699999999999999 -0.95 0  4.75 -0.95 0  4.800000000000001 -0.95 0  4.85 -0.95 0  4.9 -0.95 0  4.949999999999999 -0.95 0  5 -0.95 0  -5 -0.9 0  -4.95 -0.9 0  -4.9 -0.9 0  -4.85 -0.9 0  -4.8 -0.9 0  -4.75 -0.9 0  -4.7 -0.9 0  -4.65 -0.9 0  -4.6 -0.9 0  -4.55 -0.9 0  -4.5 -0.9 0  -4.45 -0.9 0  -4.4 -0.9 0  -4.35 -0.9 0  -4.3 -0.9 0  -4.25 -0.9 0  -4.2 -0.9 0  -4.15 -0.9 0  -4.1 -0.9 0  -4.05 -0.9 0  -4 -0.9 0  -3.95 -0.9 0  -3.9 -0.9 0  -3.85 -0.9 0  -3.8 -0.9 0  -3.75 -0.9 0  -3.7 -0.9 0  -3.65 -0.9 0  -3.6 -0.9 0  -3.55 -0.9 0  -3.5 -0.9 0  -3.45 -0.9 0  -3.4 -0.9 0  -3.35 -0.9 0  -3.3 -0.9 0  -3.25 -0.9 0  -3.2 -0.9 0  -3.15 -0.9 0  -3.1 -0.9 0  -3.05 -0.9 0  -3 -0.9 0  -2.95 -0.9 0  -2.9 -0.9 0  -2.85 -0.9 0  -2.8 -0.9 0  -2.75 -0.9 0  -2.7 -0.9 0  -2.65 -0.9 0  -2.6 -0.9 0  -2.55 -0.9 0  -2.5 -0.9 0  -2.45 -0.9 0  -2.4 -0.9 0  -2.35 -0.9 0  -2.3 -0.9 0  -2.25 -0.9 0  -2.2 -0.9 0  -2.15 -0.9 0  -2.1 -0.9 0  -2.05 -0.9 0  -2 -0.9 0  -1.95 -0.9 0  -1.9 -0.9 0  -1.85 -0.9 0  -1.8 -0.9 0  -1.75 -0.9 0  -1.7 -0.9 0  -1.65 -0.9 0  -1.6 -0.9 0  -1.55 -0.9 0  -1.5 -0.9 0  -1.45 -0.9 0  -1.4 -0.9 0  -1.35 -0.9 0  -1.3 -0.9 0  -1.25 -0.9 0  -1.2 -0.9 0  -1.15 -0.9 0  -1.1 -0.9 0  -1.05 -0.9 0  -1 -0.9 0  -0.9500000000000002 -0.9 0  -0.9000000000000004 -0.9 0  -0.8499999999999996 -0.9 0  -0.7999999999999998 -0.9 0  -0.75 -0.9 0  -0.7000000000000002 -0.9 0  -0.6500000000000004 -0.9 0  -0.5999999999999996 -0.9 0  -0.5499999999999998 -0.9 0  -0.5 -0.9 0  -0.4500000000000002 -0.9 0  -0.4000000000000004 -0.9 0  -0.3499999999999996 -0.9 0  -0.2999999999999998 -0.9 0  -0.25 -0.9 0  -0.2000000000000002 -0.9 0  -0.1500000000000004 -0.9 0  -0.09999999999999964 -0.9 0  -0.04999999999999982 -0.9 0  0 -0.9 0  0.04999999999999982 -0.9 0  0.09999999999999964 -0.9 0  0.1500000000000004 -0.9 0  0.2000000000000002 -0.9 0  0.25 -0.9 0  0.2999999999999998 -0.9 0  0.3499999999999996 -0.9 0  0.4000000000000004 -0.9 0  0.4500000000000002 -0.9 0  0.5 -0.9 0  0.5499999999999998 -0.9 0  0.5999999999999996 -0.9 0  0.6500000000000004 -0.9 0  0.7000000000000002 -0.9 0  0.75 -0.9 0  0.7999999999999998 -0.9 0  0.8499999999999996 -0.9 0  0.9000000000000004 -0.9 0  0.9500000000000002 -0.9 0  1 -0.9 0  1.05 -0.9 0  1.1 -0.9 0  1.15 -0.9 0  1.2 -0.9 0  1.25 -0.9 0  1.3 -0.9 0  1.35 -0.9 0  1.4 -0.9 0  1.45 -0.9 0  1.5 -0.9 0  1.55 -0.9 0  1.6 -0.9 0  1.65 -0.9 0  1.7 -0.9 0  1.75 -0.9 0  1.8 -0.9 0  1.85 -0.9 0  1.9 -0.9 0  1.95 -0.9 0  2 -0.9 0  2.05 -0.9 0  2.1 -0.9 0  2.15 -0.9 0  2.2 -0.9 0  2.25 -0.9 0  2.3 -0.9 0  2.35 -0.9 0  2.4 -0.9 0  2.45 -0.9 0  2.5 -0.9 0  2.55 -0.9 0  2.6 -0.9 0  2.65 -0.9 0  2.7 -0.9 0  2.75 -0.9 0  2.8 -0.9 0  2.85 -0.9 0  2.9 -0.9 0  2.95 -0.9 0  3 -0.9 0  3.050000000000001 -0.9 0  3.1 -0.9 0  3.15 -0.9 0  3.199999999999999 -0.9 0  3.25 -0.9 0  3.300000000000001 -0.9 0  3.35 -0.9 0  3.4 -0.9 0  3.449999999999999 -0.9 0  3.5 -0.9 0  3.550000000000001 -0.9 0  3.6 -0.9 0  3.65 -0.9 0  3.699999999999999 -0.9 0  3.75 -0.9 0  3.800000000000001 -0.9 0  3.85 -0.9 0  3.9 -0.9 0  3.949999999999999 -0.9 0  4 -0.9 0  4.050000000000001 -0.9 0  4.1 -0.9 0  4.15 -0.9 0  4.199999999999999 -0.9 0  4.25 -0.9 0  4.300000000000001 -0.9 0  4.35 -0.9 0  4.4 -0.9 0  4.449999999999999 -0.9 0  4.5 -0.9 0  4.550000000000001 -0.9 0  4.6 -0.9 0  4.65 -0.9 0  4.699999999999999 -0.9 0  4.75 -0.9 0  4.800000000000001 -0.9 0  4.85 -0.9 0  4.9 -0.9 0  4.949999999999999 -0.9 0  5 -0.9 0  -5 -0.85 0  -4.95 -0.85 0  -4.9 -0.85 0  -4.85 -0.85 0  -4.8 -0.85 0  -4.75 -0.85 0  -4.7 -0.85 0  -4.65 -0.85 0  -4.6 -0.85 0  -4.55 -0.85 0  -4.5 -0.85 0  -
[...]
<PointData  Vectors="f_15"> 
<DataArray  type="Float64"  Name="f_15"  NumberOfComponents="3" format="ascii">9.0044571510147247e+00 0.0000000000000000e+00 0.0000000000000000e+00  9.0032494221855757e+00 7.2236141540448703e-02 0.0000000000000000e+00  8.9995840835587391e+00 1.4449229059712446e-01 0.0000000000000000e+00  8.9934997302463113e+00 2.1646735346519544e-01 0.0000000000000000e+00  8.9849918482051336e+00 2.8830713634334282e-01 0.0000000000000000e+00  8.9740961936604897e+00 3.5975391712550808e-01 0.0000000000000000e+00  8.9608011168943840e+00 4.3088752312154716e-01 0.0000000000000000e+00  8.9451925662299505e+00 5.0151830435997125e-01 0.0000000000000000e+00  8.9272415438487425e+00 5.7169816443307897e-01 0.0000000000000000e+00  8.9070440867188037e+00 6.4127801493737402e-01 0.0000000000000000e+00  8.8846078669008275e+00 7.1029689888667868e-01 0.0000000000000000e+00  8.8600256671983644e+00 7.7865191618360385e-01 0.0000000000000000e+00  8.8333044270333527e+00 8.4636905487179259e-01 0.0000000000000000e+00  8.8045858685752272e+00 9.1338675068385389e-01 0.0000000000000000e+00  8.7738600371244431e+00 9.7972897315709784e-01 0.0000000000000000e+00  8.7412817939197804e+00 1.0453749689488705e+00 0.0000000000000000e+00  8.7068746721446999e+00 1.1103309530474696e+00 0.0000000000000000e+00  8.6707852838144817e+00 1.1746411112026298e+00 0.0000000000000000e+00  8.6330386928061209e+00 1.2382722306795404e+00 0.0000000000000000e+00  8.5938196427782820e+00 1.3013346081447543e+00 0.0000000000000000e+00  8.5531287141786088e+00 1.3637606444112906e+00 0.0000000000000000e+00  8.5111615616822967e+00 1.4257221602626471e+00 0.0000000000000000e+00  8.4679370086650483e+00 1.4870895674834417e+00 0.0000000000000000e+00  8.4236305226017922e+00 1.5481393895352547e+00 0.0000000000000000e+00  8.3782601199953408e+00 1.6086293286996145e+00 0.0000000000000000e+00  8.3320183581850351e+00 1.6689508891387739e+00 0.0000000000000000e+00  8.2848902569935987e+00 1.7287745266529748e+00 0.0000000000000000e+00  8.2370718414675199e+00 1.7885476932859159e+00 0.0000000000000000e+00  8.1885541258252807e+00 1.8478994493512455e+00 0.0000000000000000e+00  8.1394951664935551e+00 1.9073022923433711e+00 0.0000000000000000e+00  8.0898958326402024e+00 1.9663613294677029e+00 0.0000000000000000e+00  8.0399048093575907e+00 2.0255414319656198e+00 0.0000000000000000e+00  7.9894954496253856e+00 2.0844536794804780e+00 0.0000000000000000e+00  7.9388158054915081e+00 2.1435667333325310e+00 0.0000000000000000e+00  7.8878409412396522e+00 2.2024098749889967e+00 0.0000000000000000e+00  7.8366762931790861e+00 2.2615750170592439e+00 0.0000000000000000e+00  7.7853171439196904e+00 2.3204831440834051e+00 0.0000000000000000e+00  7.7338521957887005e+00 2.3796627791314142e+00 0.0000000000000000e+00  7.6822528598469138e+00 2.4388208533746760e+00 0.0000000000000000e+00  7.6306161258591576e+00 2.4980090747708781e+00 0.0000000000000000e+00  7.5789114939410327e+00 2.5574062725955575e+00 0.0000000000000000e+00  7.5272028165382272e+00 2.6167428632945793e+00 0.0000000000000000e+00  7.4754775169062242e+00 2.6763189050353469e+00 0.0000000000000000e+00  7.4237984986078116e+00 2.7358233496593054e+00 0.0000000000000000e+00  7.3721183866331605e+00 2.7956077873036183e+00 0.0000000000000000e+00  7.3205224299032903e+00 2.8553121304116025e+00 0.0000000000000000e+00  7.2689686284357160e+00 2.9152132956077499e+00 0.0000000000000000e+00  7.2174944050615579e+00 2.9751666550126594e+00 0.0000000000000000e+00  7.1661048455937291e+00 3.0352339004885680e+00 0.0000000000000000e+00  7.1148137527616235e+00 3.0952983946965387e+00 0.0000000000000000e+00  7.0636156691986880e+00 3.1555812927428657e+00 0.0000000000000000e+00  7.0125307889741215e+00 3.2157985559920288e+00 0.0000000000000000e+00  6.9615744605202288e+00 3.2761907545105351e+00 0.0000000000000000e+00  6.9107180894884630e+00 3.3365625442363664e+00 0.0000000000000000e+00  6.8600122920267799e+00 3.3970987613190311e+00 0.0000000000000000e+00  6.8094304218986421e+00 3.4575681569408094e+00 0.0000000000000000e+00  6.7589961144497375e+00 3.5182209693533419e+00 0.0000000000000000e+00  6.7086833587432357e+00 3.5788054573831345e+00 0.0000000000000000e+00  6.6585660340681061e+00 3.6395299061276765e+00 0.0000000000000000e+00  6.6085439085978424e+00 3.7002257437867154e+00 0.0000000000000000e+00  6.5587276900887765e+00 3.7610198599195006e+00 0.0000000000000000e+00  6.5090379143043515e+00 3.8217789556295028e+00 0.0000000000000000e+00  6.4595479370153628e+00 3.8826374653588194e+00 0.0000000000000000e+00  6.4101706710243747e+00 3.9434767989201229e+00 0.0000000000000000e+00  6.3610368963291233e+00 4.0043568675035726e+00 0.0000000000000000e+00  6.3120047452149635e+00 4.0652465484060967e+00 0.0000000000000000e+00  6.2632094028059786e+00 4.1261663596832774e+00 0.0000000000000000e+00  6.2145344971060004e+00 4.1870968618646973e+00 0.0000000000000000e+00  6.1661167891657476e+00 4.2480133256187553e+00 0.0000000000000000e+00  6.1177944178511057e+00 4.3089770695903935e+00 0.0000000000000000e+00  6.0697375946471954e+00 4.3699212474641254e+00 0.0000000000000000e+00  6.0218180609039420e+00 4.4308569398444844e+00 0.0000000000000000e+00  5.9741327005074796e+00 4.4918095631364245e+00 0.0000000000000000e+00  5.9265717321459856e+00 4.5527782551533633e+00 0.0000000000000000e+00  5.8793119768836748e+00 4.6136710611165643e+00 0.0000000000000000e+00  5.8321442260581620e+00 4.6746195561432478e+00 0.0000000000000000e+00  5.7852349575742599e+00 4.7355586157445488e+00 0.0000000000000000e+00  5.7385216853046783e+00 4.7964052368025936e+00 0.0000000000000000e+00  5.6920123253669317e+00 4.8573198499618844e+00 0.0000000000000000e+00  5.6456626731776813e+00 4.9181910713022843e+00 0.0000000000000000e+00  5.5996136759224555e+00 4.9789934620914211e+00 0.0000000000000000e+00  5.5536865914673914e+00 5.0398118501601497e+00 0.0000000000000000e+00  5.5080048555925369e+00 5.1006280139881852e+00 0.0000000000000000e+00  5.4625566243530193e+00 5.1613123052998775e+00 0.0000000000000000e+00  5.4173014244040907e+00 5.2220609151978383e+00 0.0000000000000000e+00  5.3722529486992068e+00 5.2827210008046999e+00 0.0000000000000000e+00  5.3274716789214231e+00 5.3433270676372100e+00 0.0000000000000000e+00  5.2828707097363390e+00 5.4039011907989511e+00 0.0000000000000000e+00  5.2385113222480681e+00 5.4644370522558949e+00 0.0000000000000000e+00  5.1943784336363157e+00 5.5248880361764554e+00 0.0000000000000000e+00  5.1504764238783052e+00 5.5853060927640827e+00 0.0000000000000000e+00  5.1068069099746669e+00 5.6456397689000726e+00 0.0000000000000000e+00  5.0633836328542570e+00 5.7059021090946702e+00 0.0000000000000000e+00  5.0201997186020151e+00 5.7660860135194891e+00 0.0000000000000000e+00  4.9772751112532871e+00 5.8261640561364034e+00 0.0000000000000000e+00  4.9345932443079308e+00 5.8861601865679694e+00 0.0000000000000000e+00  4.8921828609272922e+00 5.9460380854216019e+00 0.0000000000000000e+00  4.8499827530469313e+00 6.0058657805724280e+00 0.0000000000000000e+00  4.8081271029927244e+00 6.0654708476279380e+00 0.0000000000000000e+00  4.7664539453408974e+00 6.1250815614116423e+00 0.0000000000000000e+00  4.7251385314739940e+00 6.1844078926196424e+00 0.0000000000000000e+00  4.6841956715731774e+00 6.2435068132591311e+00 0.0000000000000000e+00  4.6434385646150407e+00 6.3025347050140441e+00 0.0000000000000000e+00  4.6032093307802340e+00 6.3611143677347961e+00 0.0000000000000000e+00  4.5630920393692724e+00 6.4197277750745663e+00 0.0000000000000000e+00  4.5235051929484573e+00 6.4778612611201360e+00 0.0000000000000000e+00  4.4841906623422787e+00 6.5358145766488311e+00 0.0000000000000000e+00  4.4454409157131529e+00 6.5932054359801375e+00 0.0000000000000000e+00  4.4069696324423102e+00 6.6504305310018621e+00 0.0000000000000000e+00  4.3691264399504144e+00 6.7069562518082231e+00 0.0000000000000000e+00  4.3318836633152804e+00 6.7628361783802564e+00 0.0000000000000000e+00  4.2952576475402520e+00 6.8179880951251803e+00 0.0000000000000000e+00  4.2595175090803883e+00 6.8720743162410471e+00 0.0000000000000000e+00  4.2246898711049665e+00 6.9249577074589359e+00 0.0000000000000000e+00  4.1911283677098536e+00 6.9761822703749674e+00 0.0000000000000000e+00  4.1589405141670355e+00 7.0254388766557225e+00 0.0000000000000000e+00  4.1286440260277866e+00 7.0720278554089244e+00 0.0000000000000000e+00  4.1005492493401539e+00 7.1153033346993828e+00 0.0000000000000000e+00  4.0752899336377730e+00 7.1544166225912385e+00 0.0000000000000000e+00  4.0530825782380147e+00 7.1888140898775150e+00 0.0000000000000000e+00  4.0341842784696880e+00 7.2182672025680388e+00 0.0000000000000000e+00  4.0182743485030183e+00 7.2429637260621611e+00 0.0000000000000000e+00  4.0051994802329123e+00 7.2634767879573650e+00 0.0000000000000000e+00  3.9944375920651161e+00 7.2800865395878924e+00 0.0000000000000000e+00  3.9859786066340974e+00 7.2935708963121453e+00 0.0000000000000000e+00  3.9792514630048519e+00 7.3036577841329295e+00 0.0000000000000000e+00  3.9744402409151021e+00 7.3117832125026583e+00 0.0000000000000000e+00  3.9705990054026636e+00 7.3168279842830710e+00 0.0000000000000000e+00  3.9683209395292973e+00 7.3217410096101574e+00 0.0000000000000000e+00  3.9660303546310725e+00 7.3232392365105756e+00 0.0000000000000000e+00  3.9653552635944589e+00 7.3271866465692419e+00 0.0000000000000000e+00  3.9635338758676699e+00 7.3258554376566609e+00 0.0000000000000000e+00  3.9640146941602978e+00 7.3307529433707810e+00 0.0000000000000000e+00  3.9619047400797958e+00 7.3262507501587963e+00 0.0000000000000000e+00  3.9635753324781096e+00 7.3339679700799731e+00 0.0000000000000000e+00  3.9605304845225251e+00 7.3249298064300756e+00 0.0000000000000000e+00  3.9637928852587891e+00 7.3376168264773698e+00 0.0000000000000000e+00  3.9591354706445294e+00 7.3220940042093892e+00 0.0000000000000000e+00  3.9645396329076337e+00 7.3419916476480713e+00 0.0000000000000000e+00  3.9575291134501320e+00 7.3179704994601016e+00 0.0000000000000000e+00  3.9658311980559251e+00 7.3472299062171462e+00 0.0000000000000000e+00  3.9554711295103604e+00 7.3127177953976714e+00 0.0000000000000000e+00  3.9677498589776858e+00 7.3531548001421108e+00 0.0000000000000000e+00  3.9529552021916108e+00 7.3069899367525792e+00 0.0000000000000000e+00  3.9700862191333495e+00 7.3588542262720678e+00 0.0000000000000000e+00  3.9502155866899771e+00 7.3017944769726535e+00 0.0000000000000000e+00  3.9726816985891857e+00 7.3637246113192978e+00 0.0000000000000000e+00  3.9472361136263037e+00 7.2973424205244406e+00 0.0000000000000000e+00  3.9754691271877580e+00 7.3676156441128233e+00 0.0000000000000000e+00  3.9444513155667664e+00 7.2944351184105880e+00 0.0000000000000000e+00  3.9774728326814039e+00 7.3689383028193012e+00 0.0000000000000000e+00  3.9430449696601944e+00 7.2948246072063379e+00 0.0000000000000000e+00  3.9778929696754992e+00 7.3670351706918842e+00 0.0000000000000000e+00  3.9430348006779834e+00 7.2975237197787433e+00 0.0000000000000000e+00  3.9771523320517512e+00 7.3635904599642350e+00 0.0000000000000000e+00  3.9444755409691616e+00 7.3022148941795937e+00 0.0000000000000000e+00  3.9739929036259873e+00 7.3562608559313736e+00 0.0000000000000000e+00  3.9494301101737190e+00 7.3127616512386151e+00 0.0000000000000000e+00  3.9670445714420719e+00 7.3429797832429387e+00 0.0000000000000000e+00  3.9571963985871195e+00 7.3267938420982990e+00 0.0000000000000000e+00  3.9588551278232118e+00 7.3292903536863641e+00 0.0000000000000000e+00  3.9654897741330082e+00 7.3404932479861316e+00 0.0000000000000000e+00  3.9490335291415906e+00 7.3125599247913691e+00 0.0000000000000000e+00  3.9776529178198037e+00 7.3621474459883132e+00 0.0000000000000000e+00  3.9340566301954718e+00 7.2857791054299046e+00 0.0000000000000000e+00  3.9936001944400994e+00 7.3892769536451715e+00 0.0000000000000000e+00  3.9189701959229488e+00 7.2616270926608451e+00 0.0000000000000000e+00  4.0062917697377536e+00 7.4080128212736014e+00 0.0000000000000000e+00  3.9073384139974321e+00 7.2428823852470900e+00 0.0000000000000000e+00  4.0189407741765439e+00 7.4306974838299960e+00 0.0000000000000000e+00  3.8916831987355787e+00 7.2116875906736864e+00 0.0000000000000000e+00  4.0363008917743830e+00 7.4621361311910031e+00 0.0000000000000000e+00  3.8758520323008749e+00 7.1858239687125565e+00 0.0000000000000000e+00  4.0461045134586939e+00 7.4718284299156403e+00 0.0000000000000000e+00  3.8729559322923546e+00 7.1858561791994466e+00 0.0000000000000000e+00  4.0442670217465695e+00 7.4683417274437174e+00 0.0000000000000000e+00  3.8744967625817597e+00 7.1778639039532788e+00 0.0000000000000000e+00  4.0459780831641465e+00 7.4805561129158429e+00 0.0000000000000000e+00  3.8705641832337263e+00 7.1671030621200593e+00 0.0000000000000000e+00  4.0450956609495021e+00 7.4663085282279065e+00 0.0000000000000000e+00  3.8818580703573189e+00 7.2033286303582562e+00 0.0000000000000000e+00  4.0205825724484088e+00 7.4136187991040234e+00 0.0000000000000000e+00  3.9144624709663995e+00 7.2435485910141031e+00 0.0000000000000000e+00  3.9885395309182470e+00 7.3840426149570506e+00 0.0000000000000000e+00  3.9394038020591249e+00 7.2631219534457685e+00 0.0000000000000000e+00  3.9688007849162235e+00 7.3387586063683612e+00 0.0000000000000000e+00  3.9593088471704614e+00 7.3332749385125435e+00 0.0000000000000000e+00  3.9387367216471469e+00 7.2460623568471005e+00 0.0000000000000000e+00  4.0028112453466322e+00 7.4072402150169561e+00 0.0000000000000000e+00  3.8875696078179507e+00 7.1794550097433474e+00 0.0000000000000000e+00  4.0467977738203214e+00 7.4851267321345967e+00 0.0000000000000000e+00  3.8750681099567901e+00 6.9957517083223602e+00 0.0000000000000000e+00  3.9811606119857976e+00 7.8351593950699270e+00 0.0000000000000000e+00  4.1774667588201293e+00 6.2940662691424913e+00 0.0000000000000000e+00  3.2611296100503391e+00 9.0700377137965251e+00 0.0000000000000000e+00  7.0835011503155929e+00 2.4154737299794968e+00 0.0000000000000000e+00  9.2725015909032305e+00 1.7470628055368334e-01 0.0000000000000000e+00  9.5164592005252153e+00 9.8915323992719559e-02 0.0000000000000000e+00  9.3158369440280548e+00 -5.6425217809212259e-02 0.0000000000000000e+00  9.5478434602606335e+00 4.1248477163882614e-02 0.0000000000000000e+00  9.4235812034436446e+00 0.0000000000000000e+00 0.0000000000000000e+00  9.0044698571169146e+00 0.0000000000000000e+00 1.0209535003671778e-05  9.0032469116557508e+00 7.2283908852156575e-02 6.5449032546398681e-06  8.9995853057642616e+00 1.4444998383650615e-01 -2.0641330640571001e-05  8.9935007890794108e+00 2.1649590129570248e-01 1.5378466457026329e-05  8.9849954677942403e+00 2.8828281110635101e-01 -1.4318281411779492e-05  8.9740836658740424e+00 3.5977243931387931e-01 1.2910350560306642e-05  8.9608107733857949e+00 4.3086823508134997e-01 -1.2829040606218028e-05  8.9451800503447600e+00 5.0153646897585558e-01 1.3047936622254528e-05  8.9272400094801529e+00 5.7168208784237906e-01 -1.3411769658776288e-05  8.9070360363780914e+00 6.4129267309695104e-01 1.3827102093202527e-05  8.8846081202633034e+00 7.1028567406775645e-01 -1.3924541991398064e-05  8.8600051926134231e+00 7.7866430131592868e-01 1.4454453573762991e-05  8.8333116750386420e+00 8.4635892908594701e-01 -1.4832053345777563e-05  8.8045650205170940e+00 9.1339796947035812e-01 1.6018455736564112e-05  8.7738577958714163e+00 9.7972244108240925e-01 -1.6787059615421876e-05  8.7412667260204167e+00 1.0453792332581786e+00 1.8167622193838471e-05  8.7068734417925722e+00 1.1103318409791678e+00 -1.8785220104243680e-05  8.6707602375018151e+00 1.1746386634713011e+00 2.0112248160563242e-05  8.6330455211396249e+00 1.2382760549825591e+00 -2.0797641210563291e-05  8.5937931002616814e+00 1.3013283354527214e+00 2.2327467008011891e-05  8.5531286693279043e+00 1.3637704015847709e+00 -2.2960933989155036e-05  8.5111416727976206e+00 1.4257017440895812e+00 2.3958014058151724e-05  8.4679357117424807e+00 1.4871160375917696e+00 -2.3463201510294893e-05  8.4236039082286638e+00 1.5481010342413610e+00 2.2877161675666102e-05  8.3782660257659440e+00 1.6086650151668112e+00 -2.0375892934215101e-05  8.3319886366085480e+00 1.6689065840925408e+00 1.7414276715681574e-05  8.2848899796954267e+00 1.7288121029953685e+00 -1.2334601965763260e-05  8.2370499907600880e+00 1.7884941898717457e+00 7.5478710905275458e-06  8.1885467285418354e+00 1.8479450092076191e+00 -2.4860541061233928e-06  8.1394702140456943e+00 1.9072403882582665e+00 4.4907408633596650e-07  8.0898929807705873e+00 1.9664032750171880e+00 -1.6386314514426291e-07  8.0398725959415458e+00 2.0254796044714656e+00 3.5711780041656246e-06  7.9894882358104145e+00 2.0845009179493301e+00 -7.3902849893586522e-06  7.9387881579757389e+00 2.1434780014963906e+00 1.2808841143347335e-05  7.8878238122172997e+00 2.2024790788415860e+00 -1.6739937531099094e-05  7.8366441018662281e+00 2.2614860168344211e+00 2.2987948863833373e-05  7.7853048037746078e+00 2.3204941810120738e+00 -3.1545204435013396e-05  7.7338058786760664e+00 2.3796679665505289e+00 4.8111778885728715e-05  7.6822396905431463e+00 2.4387257093909369e+00 -6.9408653431483154e-05  7.6305685095900930e+00 2.4980745846518784e+00 9.3884605453127708e-05  7.5788898962399882e+00 2.5572874357119231e+00 -1.1081377929100366e-04  7.5271465666086748e+00 2.6168093896723454e+00 1.1763101686500464e-04  7.4754613997966652e+00 2.6761722690928536e+00 -1.1005560087768332e-04  7.4237292230508150e+00 2.7359144137623335e+00 9.5533028517521510e-05  7.3720935250040061e+00 2.7954682717060311e+00 -7.6421634428820939e-05  7.3204638991333280e+00 2.8553241294429599e+00 6.1014818372193643e-05  7.2689231428253755e+00 2.9151572350777801e+00 -4.9262932902966835e-05  7.2174370085834880e+00 2.9751476790977813e+00 4.6139081177371276e-05  7.1660618560694953e+00 3.0351212323525623e+00 -4.6498049693820694e-05  7.1147461789443867e+00 3.0953353901815253e+00 4.7917504754194112e-05  7.0635660386715697e+00 3.1554636379961170e+00 -4.2549020945153335e-05  7.0124751201558535e+00 3.2157815617475105e+00 3.4834967323254923e-05  6.9615114608430506e+00 3.2761011421478661e+00 -2.7692293041246737e-05  6.9106600532994076e+00 3.3365522631592346e+00 2.5967916882047473e-05  6.8599603798886246e+00 3.3969819771558711e+00 -2.3623981578223749e-05  6.8093680877882798e+00 3.4575542109014310e+00 2.0250092619500947e-05  6.7589328414013528e+00 3.5181177361497720e+00 -1.5791881200889664e-05  6.7086447849593833e+00 3.5787658877188258e+00 1.4483343882012721e-05  6.6584948707524427e+00 3.6394437668569903e+00 -1.3072271525727703e-05  6.6084978954953373e+00 3.7001746911193716e+00 1.1927023650015122e-05  6.5586778205207708e+00 3.7609207714148400e+00 -1.1160235012975067e-05  6.5089934559248777e+00 3.8217362139106470e+00 1.2961360361011788e-05  6.4594850651019886e+00 3.8825527309390342e+00 -1.3697403592676585e-05  6.4101481332929060e+00 3.9434083167474689e+00 1.3422094090065598e-05  6.3609797398516834e+00 4.0042782439402842e+00 -1.2527675684642683e-05  6.3119710358701377e+00 4.0651930777970797e+00 1.3266005275814949e-05  6.2631624149913092e+00 4.1260923575859252e+00 -1.3663816327014738e-05  6.2145177802339546e+00 4.1870274416346875e+00 1.4601046589893394e-05  6.1660573792041404e+00 4.2479599327399118e+00 -1.4678737767347591e-05  6.1177735661790758e+00 4.3089296953571008e+00 1.4082228256299702e-05  6.0697050532330143e+00 4.3698450407218719e+00 -1.1539945259059766e-05  6.0217878316016913e+00 4.4308290656453790e+00 9.5048235793246340e-06  5.9740765132074687e+00 4.4917804325935196e+00 -7.7478933920092095e-06  5.9265800503863213e+00 4.5527090647793029e+00 6.4257216533039144e-06  5.8792501805898594e+00 4.6136585990945500e+00 -4.9171180044130230e-06  5.8321121288376281e+00 4.6746195428198067e+00 2.9280586746444364e-06  5.7852223139808059e+00 4.7354898140986323e+00 -8.8620963226860228e-07  5.7384878780023563e+00 4.7964160609777116e+00 -1.8580538630908539e-06  5.6919522922680006e+00 4.8573268311636157e+00 2.9469710182843769e-06  5.6456833395038881e+00 4.9181322438849380e+00 -4.8788690554245025e-06  5.5995595686425430e+00 4.9790053044767477e+00 4.8951278675609691e-06  5.5536606464158984e+00 5.0398209743872178e+00 -5.8891564424745549e-06  5.5080094036980913e+00 5.100567623329872