<?xml version="1.0"?>
<VTKFile type="UnstructuredGrid"  version="0.1"  >
<UnstructuredGrid>
<Piece  NumberOfPoints="8241" NumberOfCells="16000">
<Points>
<DataArray  type="Float64"  NumberOfComponents="3"  format="ascii">-5 -1 0  -4.95 -1 0  -4.9 -1 0  -4.85 -1 0  -4.8 -1 0  -4.75 -1 0  -4.7 -1 0  -4.65 -1 0  -4.6 -1 0  -4.55 -1 0  -4.5 -1 0  -4.45 -1 0  -4.4 -1 0  -4.35 -1 0  -4.3 -1 0  -4.25 -1 0  -4.2 -1 0  -4.15 -1 0  -4.1 -1 0  -4.05 -1 0  -4 -1 0  -3.95 -1 0  -3.9 -1 0  -3.85 -1 0  -3.8 -1 0  -3.75 -1 0  -3.7 -1 0  -3.65 -1 0  -3.6 -1 0  -3.55 -1 0  -3.5 -1 0  -3.45 -1 0  -3.4 -1 0  -3.35 -1 0  -3.3 -1 0  -3.25 -1 0  -3.2 -1 0  -3.15 -1 0  -3.1 -1 0  -3.05 -1 0  -3 -1 0  -2.95 -1 0  -2.9 -1 0  -2.85 -1 0  -2.8 -1 0  -2.75 -1 0  -2.7 -1 0  -2.65 -1 0  -2.6 -1 0  -2.55 -1 0  -2.5 -1 0  -2.45 -1 0  -2.4 -1 0  -2.35 -1 0  -2.3 -1 0  -2.25 -1 0  -2.2 -1 0  -2.15 -1 0  -2.1 -1 0  -2.05 -1 0  -2 -1 0  -1.95 -1 0  -1.9 -1 0  -1.85 -1 0  -1.8 -1 0  -1.75 -1 0  -1.7 -1 0  -1.65 -1 0  -1.6 -1 0  -1.55 -1 0  -1.5 -1 0  -1.45 -1 0  -1.4 -1 0  -1.35 -1 0  -1.3 -1 0  -1.25 -1 0  -1.2 -1 0  -1.15 -1 0  -1.1 -1 0  -1.05 -1 0  -1 -1 0  -0.9500000000000002 -1 0  -0.9000000000000004 -1 0  -0.8499999999999996 -1 0  -0.7999999999999998 -1 0  -0.75 -1 0  -0.7000000000000002 -1 0  -0.6500000000000004 -1 0  -0.5999999999999996 -1 0  -0.5499999999999998 -1 0  -0.5 -1 0  -0.4500000000000002 -1 0  -0.4000000000000004 -1 0  -0.3499999999999996 -1 0  -0.2999999999999998 -1 0  -0.25 -1 0  -0.2000000000000002 -1 0  -0.1500000000000004 -1 0  -0.09999999999999964 -1 0  -0.04999999999999982 -1 0  0 -1 0  0.04999999999999982 -1 0  0.09999999999999964 -1 0  0.1500000000000004 -1 0  0.2000000000000002 -1 0  0.25 -1 0  0.2999999999999998 -1 0  0.3499999999999996 -1 0  0.4000000000000004 -1 0  0.4500000000000002 -1 0  0.5 -1 0  0.5499999999999998 -1 0  0.5999999999999996 -1 0  0.6500000000000004 -1 0  0.7000000000000002 -1 0  0.75 -1 0  0.7999999999999998 -1 0  0.8499999999999996 -1 0  0.9000000000000004 -1 0  0.9500000000000002 -1 0  1 -1 0  1.05 -1 0  1.1 -1 0  1.15 -1 0  1.2 -1 0  1.25 -1 0  1.3 -1 0  1.35 -1 0  1.4 -1 0  1.45 -1 0  1.5 -1 0  1.55 -1 0  1.6 -1 0  1.65 -1 0  1.7 -1 0  1.75 -1 0  1.8 -1 0  1.85 -1 0  1.9 -1 0  1.95 -1 0  2 -1 0  2.05 -1 0  2.1 -1 0  2.15 -1 0  2.2 -1 0  2.25 -1 0  2.3 -1 0  2.35 -1 0  2.4 -1 0  2.45 -1 0  2.5 -1 0  2.55 -1 0  2.6 -1 0  2.65 -1 0  2.7 -1 0  2.75 -1 0  2.8 -1 0  2.85 -1 0  2.9 -1 0  2.95 -1 0  3 -1 0  3.050000000000001 -1 0  3.1 -1 0  3.15 -1 0  3.199999999999999 -1 0  3.25 -1 0  3.300000000000001 -1 0  3.35 -1 0  3.4 -1 0  3.449999999999999 -1 0  3.5 -1 0  3.550000000000001 -1 0  3.6 -1 0  3.65 -1 0  3.699999999999999 -1 0  3.75 -1 0  3.800000000000001 -1 0  3.85 -1 0  3.9 -1 0  3.949999999999999 -1 0  4 -1 0  4.050000000000001 -1 0  4.1 -1 0  4.15 -1 0  4.199999999999999 -1 0  4.25 -1 0  4.300000000000001 -1 0  4.35 -1 0  4.4 -1 0  4.449999999999999 -1 0  4.5 -1 0  4.550000000000001 -1 0  4.6 -1 0  4.65 -1 0  4.699999999999999 -1 0  4.75 -1 0  4.800000000000001 -1 0  4.85 -1 0  4.9 -1 0  4.949999999999999 -1 0  5 -1 0  -5 -0.95 0  -4.95 -0.95 0  -4.9 -0.95 0  -4.85 -0.95 0  -4.8 -0.95 0  -4.75 -0.95 0  -4.7 -0.95 0  -4.65 -0.95 0  -4.6 -0.95 0  -4.55 -0.95 0  -4.5 -0.95 0  -4.45 -0.95 0  -4.4 -0.95 0  -4.35 -0.95 0  -4.3 -0.95 0  -4.25 -0.95 0  -4.2 -0.95 0  -4.15 -0.95 0  -4.1 -0.95 0  -4.05 -0.95 0  -4 -0.95 0  -3.95 -0.95 0  -3.9 -0.95 0  -3.85 -0.95 0  -3.8 -0.95 0  -3.75 -0.95 0  -3.7 -0.95 0  -3.65 -0.95 0  -3.6 -0.95 0  -3.55 -0.95 0  -3.5 -0.95 0  -3.45 -0.95 0  -3.4 -0.95 0  -3.35 -0.95 0  -3.3 -0.95 0  -3.25 -0.95 0  -3.2 -0.95 0  -3.15 -0.95 0  -3.1 -0.95 0  -3.05 -0.95 0  -3 -0.95 0  -2.95 -0.95 0  -2.9 -0.95 0  -2.85 -0.95 0  -2.8 -0.95 0  -2.75 -0.95 0  -2.7 -0.95 0  -2.65 -0.95 0  -2.6 -0.95 0  -2.55 -0.95 0  -2.5 -0.95 0  -2.45 -0.95 0  -2.4 -0.95 0  -2.35 -0.95 0  -2.3 -0.95 0  -2.25 -0.95 0  -2.2 -0.95 0  -2.15 -0.95 0  -2.1 -0.95 0  -2.05 -0.95 0  -2 -0.95 0  -1.95 -0.95 0  -1.9 -0.95 0  -1.85 -0.95 0  -1.8 -0.95 0  -1.75 -0.95 0  -1.7 -0.95 0  -1.65 -0.95 0  -1.6 -0.95 0  -1.55 -0.95 0  -1.5 -0.95 0  -1.45 -0.95 0  -1.4 -0.95 0  -1.35 -0.95 0  -1.3 -0.95 0  -1.25 -0.95 0  -1.2 -0.95 0  -1.15 -0.95 0  -1.1 -0.95 0  -1.05 -0.95 0  -1 -0.95 0  -0.9500000000000002 -0.95 0  -0.9000000000000004 -0.95 0  -0.8499999999999996 -0.95 0  -0.7999999999999998 -0.95 0  -0.75 -0.95 0  -0.7000000000000002 -0.95 0  -0.6500000000000004 -0.95 0  -0.5999999999999996 -0.95 0  -0.5499999999999998 -0.95 0  -0.5 -0.95 0  -0.4500000000000002 -0.95 0  -0.4000000000000004 -0.95 0  -0.3499999999999996 -0.95 0  -0.2999999999999998 -0.95 0  -0.25 -0.95 0  -0.2000000000000002 -0.95 0  -0.1500000000000004 -0.95 0  -0.09999999999999964 -0.95 0  -0.04999999999999982 -0.95 0  0 -0.95 0  0.04999999999999982 -0.95 0  0.09999999999999964 -0.95 0  0.1500000000000004 -0.95 0  0.2000000000000002 -0.95 0  0.25 -0.95 0  0.2999999999999998 -0.95 0  0.3499999999999996 -0.95 0  0.4000000000000004 -0.95 0  0.4500000000000002 -0.95 0  0.5 -0.95 0  0.5499999999999998 -0.95 0  0.5999999999999996 -0.95 0  0.6500000000000004 -0.95 0  0.7000000000000002 -0.95 0  0.75 -0.95 0  0.7999999999999998 -0.95 0  0.8499999999999996 -0.95 0  0.9000000000000004 -0.95 0  0.9500000000000002 -0.95 0  1 -0.95 0  1.05 -0.95 0  1.1 -0.95 0  1.15 -0.95 0  1.2 -0.95 0  1.25 -0.95 0  1.3 -0.95 0  1.35 -0.95 0  1.4 -0.95 0  1.45 -0.95 0  1.5 -0.95 0  1.55 -0.95 0  1.6 -0.95 0  1.65 -0.95 0  1.7 -0.95 0  1.75 -0.95 0  1.8 -0.95 0  1.85 -0.95 0  1.9 -0.95 0  1.95 -0.95 0  2 -0.95 0  2.05 -0.95 0  2.1 -0.95 0  2.15 -0.95 0  2.2 -0.95 0  2.25 -0.95 0  2.3 -0.95 0  2.35 -0.95 0  2.4 -0.95 0  2.45 -0.95 0  2.5 -0.95 0  2.55 -0.95 0  2.6 -0.95 0  2.65 -0.95 0  2.7 -0.95 0  2.75 -0.95 0  2.8 -0.95 0  2.85 -0.95 0  2.9 -0.95 0  2.95 -0.95 0  3 -0.95 0  3.050000000000001 -0.95 0  3.1 -0.95 0  3.15 -0.95 0  3.199999999999999 -0.95 0  3.25 -0.95 0  3.300000000000001 -0.95 0  3.35 -0.95 0  3.4 -0.95 0  3.449999999999999 -0.95 0  3.5 -0.95 0  3.550000000000001 -0.95 0  3.6 -0.95 0  3.65 -0.95 0  3.699999999999999 -0.95 0  3.75 -0.95 0  3.800000000000001 -0.95 0  3.85 -0.95 0  3.9 -0.95 0  3.949999999999999 -0.95 0  4 -0.95 0  4.050000000000001 -0.95 0  4.1 -0.95 0  4.15 -0.95 0  4.199999999999999 -0.95 0  4.25 -0.95 0  4.300000000000001 -0.95 0  4.35 -0.95 0  4.4 -0.95 0  4.449999999999999 -0.95 0  4.5 -0.95 0  4.550000000000001 -0.95 0  4.6 -0.95 0  4.65 -0.95 0  4.699999999999999 -0.95 0  4.75 -0.95 0  4.800000000000001 -0.95 0  4.85 -0.95 0  4.9 -0.95 0  4.949999999999999 -0.95 0  5 -0.95 0  -5 -0.9 0  -4.95 -0.9 0  -4.9 -0.9 0  -4.85 -0.9 0  -4.8 -0.9 0  -4.75 -0.9 0  -4.7 -0.9 0  -4.65 -0.9 0  -4.6 -0.9 0  -4.55 -0.9 0  -4.5 -0.9 0  -4.45 -0.9 0  -4.4 -0.9 0  -4.35 -0.9 0  -4.3 -0.9 0  -4.25 -0.9 0  -4.2 -0.9 0  -4.15 -0.9 0  -4.1 -0.9 0  -4.05 -0.9 0  -4 -0.9 0  -3.95 -0.9 0  -3.9 -0.9 0  -3.85 -0.9 0  -3.8 -0.9 0  -3.75 -0.9 0  -3.7 -0.9 0  -3.65 -0.9 0  -3.6 -0.9 0  -3.55 -0.9 0  -3.5 -0.9 0  -3.45 -0.9 0  -3.4 -0.9 0  -3.35 -0.9 0  -3.3 -0.9 0  -3.25 -0.9 0  -3.2 -0.9 0  -3.15 -0.9 0  -3.1 -0.9 0  -3.05 -0.9 0  -3 -0.9 0  -2.95 -0.9 0  -2.9 -0.9 0  -2.85 -0.9 0  -2.8 -0.9 0  -2.75 -0.9 0  -2.7 -0.9 0  -2.65 -0.9 0  -2.6 -0.9 0  -2.55 -0.9 0  -2.5 -0.9 0  -2.45 -0.9 0  -2.4 -0.9 0  -2.35 -0.9 0  -2.3 -0.9 0  -2.25 -0.9 0  -2.2 -0.9 0  -2.15 -0.9 0  -2.1 -0.9 0  -2.05 -0.9 0  -2 -0.9 0  -1.95 -0.9 0  -1.9 -0.9 0  -1.85 -0.9 0  -1.8 -0.9 0  -1.75 -0.9 0  -1.7 -0.9 0  -1.65 -0.9 0  -1.6 -0.9 0  -1.55 -0.9 0  -1.5 -0.9 0  -1.45 -0.9 0  -1.4 -0.9 0  -1.35 -0.9 0  -1.3 -0.9 0  -1.25 -0.9 0  -1.2 -0.9 0  -1.15 -0.9 0  -1.1 -0.9 0  -1.05 -0.9 0  -1 -0.9 0  -0.9500000000000002 -0.9 0  -0.9000000000000004 -0.9 0  -0.8499999999999996 -0.9 0  -0.7999999999999998 -0.9 0  -0.75 -0.9 0  -0.7000000000000002 -0.9 0  -0.6500000000000004 -0.9 0  -0.5999999999999996 -0.9 0  -0.5499999999999998 -0.9 0  -0.5 -0.9 0  -0.4500000000000002 -0.9 0  -0.4000000000000004 -0.9 0  -0.3499999999999996 -0.9 0  -0.2999999999999998 -0.9 0  -0.25 -0.9 0  -0.2000000000000002 -0.9 0  -0.1500000000000004 -0.9 0  -0.09999999999999964 -0.9 0  -0.04999999999999982 -0.9 0  0 -0.9 0  0.04999999999999982 -0.9 0  0.09999999999999964 -0.9 0  0.1500000000000004 -0.9 0  0.2000000000000002 -0.9 0  0.25 -0.9 0  0.2999999999999998 -0.9 0  0.3499999999999996 -0.9 0  0.4000000000000004 -0.9 0  0.4500000000000002 -0.9 0  0.5 -0.9 0  0.5499999999999998 -0.9 0  0.5999999999999996 -0.9 0  0.6500000000000004 -0.9 0  0.7000000000000002 -0.9 0  0.75 -0.9 0  0.7999999999999998 -0.9 0  0.8499999999999996 -0.9 0  0.9000000000000004 -0.9 0  0.9500000000000002 -0.9 0  1 -0.9 0  1.05 -0.9 0  1.1 -0.9 0  1.15 -0.9 0  1.2 -0.9 0  1.25 -0.9 0  1.3 -0.9 0  1.35 -0.9 0  1.4 -0.9 0  1.45 -0.9 0  1.5 -0.9 0  1.55 -0.9 0  1.6 -0.9 0  1.65 -0.9 0  1.7 -0.9 0  1.75 -0.9 0  1.8 -0.9 0  1.85 -0.9 0  1.9 -0.9 0  1.95 -0.9 0  2 -0.9 0  2.05 -0.9 0  2.1 -0.9 0  2.15 -0.9 0  2.2 -0.9 0  2.25 -0.9 0  2.3 -0.9 0  2.35 -0.9 0  2.4 -0.9 0  2.45 -0.9 0  2.5 -0.9 0  2.55 -0.9 0  2.6 -0.9 0  2.65 -0.9 0  2.7 -0.9 0  2.75 -0.9 0  2.8 -0.9 0  2.85 -0.9 0  2.9 -0.9 0  2.95 -0.9 0  3 -0.9 0  3.050000000000001 -0.9 0  3.1 -0.9 0  3.15 -0.9 0  3.199999999999999 -0.9 0  3.25 -0.9 0  3.300000000000001 -0.9 0  3.35 -0.9 0  3.4 -0.9 0  3.449999999999999 -0.9 0  3.5 -0.9 0  3.550000000000001 -0.9 0  3.6 -0.9 0  3.65 -0.9 0  3.699999999999999 -0.9 0  3.75 -0.9 0  3.800000000000001 -0.9 0  3.85 -0.9 0  3.9 -0.9 0  3.949999999999999 -0.9 0  4 -0.9 0  4.050000000000001 -0.9 0  4.1 -0.9 0  4.15 -0.9 0  4.199999999999999 -0.9 0  4.25 -0.9 0  4.300000000000001 -0.9 0  4.35 -0.9 0  4.4 -0.9 0  4.449999999999999 -0.9 0  4.5 -0.9 0  4.550000000000001 -0.9 0  4.6 -0.9 0  4.65 -0.9 0  4.699999999999999 -0.9 0  4.75 -0.9 0  4.800000000000001 -0.9 0  4.85 -0.9 0  4.9 -0.9 0  4.949999999999999 -0.9 0  5 -0.9 0  -5 -0.85 0  -4.95 -0.85 0  -4.9 -0.85 0  -4.85 -0.85 0  -4.8 -0.85 0  -4.75 -0.85 0  -4.7 -0.85 0  -4.65 -0.85 0  -4.6 -0.85 0  -4.55 -0.85 0  -4.5 -0.85 0  -
[...]
<PointData  Vectors="f_15"> 
<DataArray  type="Float64"  Name="f_15"  NumberOfComponents="3" format="ascii">9.9999081445883711e+00 0.0000000000000000e+00 0.0000000000000000e+00  9.9998609110362935e+00 6.6126687214094926e-05 0.0000000000000000e+00  9.9998699189471481e+00 1.5005843730815269e-04 0.0000000000000000e+00  9.9997742691280997e+00 2.1080010667638542e-04 0.0000000000000000e+00  9.9997564497336935e+00 3.1439957945787283e-04 0.0000000000000000e+00  9.9995779448621764e+00 4.4665894225124015e-04 0.0000000000000000e+00  9.9994684179555922e+00 6.0275392711790494e-04 0.0000000000000000e+00  9.9992054307274199e+00 8.5463122855267430e-04 0.0000000000000000e+00  9.9989325316434172e+00 1.1425860019544127e-03 0.0000000000000000e+00  9.9984760520847598e+00 1.5752466529649714e-03 0.0000000000000000e+00  9.9979718531496395e+00 2.1102749135668568e-03 0.0000000000000000e+00  9.9971919823712732e+00 2.8564198647730125e-03 0.0000000000000000e+00  9.9962709247165105e+00 3.7808509382586584e-03 0.0000000000000000e+00  9.9949839345272551e+00 5.0538049819090335e-03 0.0000000000000000e+00  9.9934222370461629e+00 6.6060579173530106e-03 0.0000000000000000e+00  9.9913164208874896e+00 8.6711887465699151e-03 0.0000000000000000e+00  9.9887684403909844e+00 1.1216979354163397e-02 0.0000000000000000e+00  9.9854782147656280e+00 1.4458708833048678e-02 0.0000000000000000e+00  9.9814700034355717e+00 1.8429635280064114e-02 0.0000000000000000e+00  9.9764518774932149e+00 2.3400322217208246e-02 0.0000000000000000e+00  9.9704588292219043e+00 2.9345230994011227e-02 0.0000000000000000e+00  9.9630717470484900e+00 3.6647899776070886e-02 0.0000000000000000e+00  9.9543722546949969e+00 4.5291739430148061e-02 0.0000000000000000e+00  9.9439694580759426e+00 5.5602593845416645e-02 0.0000000000000000e+00  9.9318200511687760e+00 6.7658379745993036e-02 0.0000000000000000e+00  9.9175935479688331e+00 8.1791732706022358e-02 0.0000000000000000e+00  9.9013333353110031e+00 9.7955713308139167e-02 0.0000000000000000e+00  9.8825691421878261e+00 1.1661141314236605e-01 0.0000000000000000e+00  9.8614509707880877e+00 1.3764547399658184e-01 0.0000000000000000e+00  9.8376246277121471e+00 1.6139768193459963e-01 0.0000000000000000e+00  9.8111132316862708e+00 1.8784178696362558e-01 0.0000000000000000e+00  9.7816895212950659e+00 2.1726083651835770e-01 0.0000000000000000e+00  9.7495187514671713e+00 2.4944453459877103e-01 0.0000000000000000e+00  9.7142502868905858e+00 2.8480929694381535e-01 0.0000000000000000e+00  9.6761798777683659e+00 3.2302773618739494e-01 0.0000000000000000e+00  9.6351089320093717e+00 3.6437597313451980e-01 0.0000000000000000e+00  9.5911988145908342e+00 4.0862317068920156e-01 0.0000000000000000e+00  9.5443792126448219e+00 4.5597430632809977e-01 0.0000000000000000e+00  9.4949431307266767e+00 5.0602809014470418e-01 0.0000000000000000e+00  9.4426864776946680e+00 5.5913812553130116e-01 0.0000000000000000e+00  9.3880043418493582e+00 6.1480644617692093e-01 0.0000000000000000e+00  9.3308069232712256e+00 6.7326819794981851e-01 0.0000000000000000e+00  9.2713504580452888e+00 7.3416067972995902e-01 0.0000000000000000e+00  9.2096225071445161e+00 7.9764421725855073e-01 0.0000000000000000e+00  9.1459773152310415e+00 8.6327115078146177e-01 0.0000000000000000e+00  9.0802542989619699e+00 9.3130872430824851e-01 0.0000000000000000e+00  9.0128825142138069e+00 1.0012931038858979e+00 0.0000000000000000e+00  8.9437569016544423e+00 1.0733693715274593e+00 0.0000000000000000e+00  8.8731935552458019e+00 1.1472455555197154e+00 0.0000000000000000e+00  8.8011170742227751e+00 1.2229731051944424e+00 0.0000000000000000e+00  8.7279167356651222e+00 1.3002608728279368e+00 0.0000000000000000e+00  8.6533784294358256e+00 1.3792059198171838e+00 0.0000000000000000e+00  8.5779545623442743e+00 1.4595390581506493e+00 0.0000000000000000e+00  8.5014433122946969e+00 1.5412845832309645e+00 0.0000000000000000e+00  8.4242236532380321e+00 1.6242710163083200e+00 0.0000000000000000e+00  8.3460987776643840e+00 1.7084948895776011e+00 0.0000000000000000e+00  8.2675028310009928e+00 1.7937757708090387e+00 0.0000000000000000e+00  8.1881240421271446e+00 1.8801488088395497e+00 0.0000000000000000e+00  8.1084583491792142e+00 1.9674263269956727e+00 0.0000000000000000e+00  8.0281769317586953e+00 2.0556704939541857e+00 0.0000000000000000e+00  7.9477390197619027e+00 2.1446550674027618e+00 0.0000000000000000e+00  7.8668120405994770e+00 2.2345033363877111e+00 0.0000000000000000e+00  7.7858936889606536e+00 2.3249898835680920e+00 0.0000000000000000e+00  7.7045638055064822e+00 2.4161921352717752e+00 0.0000000000000000e+00  7.6233785618409105e+00 2.5079188802716263e+00 0.0000000000000000e+00  7.5418891546552134e+00 2.6003596548694041e+00 0.0000000000000000e+00  7.4606299697117322e+00 2.6931000236144182e+00 0.0000000000000000e+00  7.3791618304560842e+00 2.7865133058157956e+00 0.0000000000000000e+00  7.2980273880098849e+00 2.8802215569079137e+00 0.0000000000000000e+00  7.2167378828854165e+00 2.9744313307929158e+00 0.0000000000000000e+00  7.1358744116469568e+00 3.0688249932133029e+00 0.0000000000000000e+00  7.0549327205000312e+00 3.1638007061848992e+00 0.0000000000000000e+00  6.9744609856076965e+00 3.2587910501137043e+00 0.0000000000000000e+00  6.8939920234794876e+00 3.3542629847974172e+00 0.0000000000000000e+00  6.8140468521206286e+00 3.4497818851444837e+00 0.0000000000000000e+00  6.7341508002813244e+00 3.5456981370146923e+00 0.0000000000000000e+00  6.6548293896257071e+00 3.6415822134686540e+00 0.0000000000000000e+00  6.5756216464313022e+00 3.7378276346457651e+00 0.0000000000000000e+00  6.4969947432366366e+00 3.8340057295327523e+00 0.0000000000000000e+00  6.4185601058981616e+00 3.9304857759764515e+00 0.0000000000000000e+00  6.3407188394000302e+00 4.0268834999477976e+00 0.0000000000000000e+00  6.2631108697733993e+00 4.1235103287213484e+00 0.0000000000000000e+00  6.1861228308932263e+00 4.2200377326197502e+00 0.0000000000000000e+00  6.1094240282242263e+00 4.3167431996658161e+00 0.0000000000000000e+00  6.0333239676772132e+00 4.4133447883709538e+00 0.0000000000000000e+00  5.9576027748130604e+00 4.5100450582244065e+00 0.0000000000000000e+00  5.8824614228179843e+00 4.6066448708103964e+00 0.0000000000000000e+00  5.8077488571632925e+00 4.7032696229034308e+00 0.0000000000000000e+00  5.7336314789271450e+00 4.7997867491130526e+00 0.0000000000000000e+00  5.6599911246858481e+00 4.8962710552313533e+00 0.0000000000000000e+00  5.5869202838411871e+00 4.9926643693873851e+00 0.0000000000000000e+00  5.5144146506259952e+00 5.0889055595299340e+00 0.0000000000000000e+00  5.4424662957361152e+00 5.1850785715235368e+00 0.0000000000000000e+00  5.3710984883943427e+00 5.2810533465816141e+00 0.0000000000000000e+00  5.3003336575932165e+00 5.3769172105148542e+00 0.0000000000000000e+00  5.2301519313752358e+00 5.4725548136894968e+00 0.0000000000000000e+00  5.1606343514944175e+00 5.5679931070194497e+00 0.0000000000000000e+00  5.0917154443951285e+00 5.6631823446285185e+00 0.0000000000000000e+00  5.0235151636167652e+00 5.7580697851885168e+00 0.0000000000000000e+00  4.9559771467133560e+00 5.8526249541877338e+00 0.0000000000000000e+00  4.8891664411628302e+00 5.9468418722416763e+00 0.0000000000000000e+00  4.8231061182237696e+00 6.0406059106199681e+00 0.0000000000000000e+00  4.7578834140197150e+00 6.1338343077413011e+00 0.0000000000000000e+00  4.6935224539323004e+00 6.2264413028924839e+00 0.0000000000000000e+00  4.6301025131186000e+00 6.3183235731769756e+00 0.0000000000000000e+00  4.5677305891254942e+00 6.4092999183131996e+00 0.0000000000000000e+00  4.5064383271282500e+00 6.4993111198053786e+00 0.0000000000000000e+00  4.4465410846325941e+00 6.5878622616002236e+00 0.0000000000000000e+00  4.3876814670234694e+00 6.6754551751320728e+00 0.0000000000000000e+00  4.3308601609912998e+00 6.7605746995461189e+00 0.0000000000000000e+00  4.2760426103724045e+00 6.8432093628362871e+00 0.0000000000000000e+00  4.2240609173274430e+00 6.9220684075935290e+00 0.0000000000000000e+00  4.1754904549921150e+00 6.9961807703427352e+00 0.0000000000000000e+00  4.1315516794600757e+00 7.0636005605150389e+00 0.0000000000000000e+00  4.0932608954412375e+00 7.1226229717887533e+00 0.0000000000000000e+00  4.0616266576127771e+00 7.1715795606004651e+00 0.0000000000000000e+00  4.0365365183263764e+00 7.2104932065757161e+00 0.0000000000000000e+00  4.0171751037738792e+00 7.2405663014437165e+00 0.0000000000000000e+00  4.0021919167617961e+00 7.2638371298181070e+00 0.0000000000000000e+00  3.9906874594634418e+00 7.2817078868866556e+00 0.0000000000000000e+00  3.9819465899266735e+00 7.2952601761015030e+00 0.0000000000000000e+00  3.9755589716043191e+00 7.3051438660533439e+00 0.0000000000000000e+00  3.9709762108200861e+00 7.3121887855802052e+00 0.0000000000000000e+00  3.9677905261697539e+00 7.3170496707666510e+00 0.0000000000000000e+00  3.9655405376926676e+00 7.3204292911907771e+00 0.0000000000000000e+00  3.9639703828572075e+00 7.3227448453743387e+00 0.0000000000000000e+00  3.9628210835432394e+00 7.3243871433634045e+00 0.0000000000000000e+00  3.9619891043065296e+00 7.3255332087166716e+00 0.0000000000000000e+00  3.9613487525853830e+00 7.3263677591732845e+00 0.0000000000000000e+00  3.9608656030931861e+00 7.3269560969873044e+00 0.0000000000000000e+00  3.9604758489791565e+00 7.3273892317754186e+00 0.0000000000000000e+00  3.9601689538485370e+00 7.3276906339961254e+00 0.0000000000000000e+00  3.9599112969695822e+00 7.3279076928233726e+00 0.0000000000000000e+00  3.9596991510013466e+00 7.3280508235205453e+00 0.0000000000000000e+00  3.9595145387115651e+00 7.3281440302246592e+00 0.0000000000000000e+00  3.9593550794144328e+00 7.3281928409882600e+00 0.0000000000000000e+00  3.9592105868054066e+00 7.3282086395025337e+00 0.0000000000000000e+00  3.9590793916264064e+00 7.3281912423809388e+00 0.0000000000000000e+00  3.9589559978921298e+00 7.3281425531061961e+00 0.0000000000000000e+00  3.9588389782950029e+00 7.3280575002246469e+00 0.0000000000000000e+00  3.9587256942318572e+00 7.3279290422685674e+00 0.0000000000000000e+00  3.9586149934900088e+00 7.3277469810971994e+00 0.0000000000000000e+00  3.9585053061761313e+00 7.3274980520421407e+00 0.0000000000000000e+00  3.9583959072801531e+00 7.3271660963428200e+00 0.0000000000000000e+00  3.9582858095905791e+00 7.3267333780031816e+00 0.0000000000000000e+00  3.9581742280785299e+00 7.3261810077193434e+00 0.0000000000000000e+00  3.9580607202835880e+00 7.3254890537407640e+00 0.0000000000000000e+00  3.9579445204733985e+00 7.3246408285726856e+00 0.0000000000000000e+00  3.9578249819884355e+00 7.3236207713974464e+00 0.0000000000000000e+00  3.9577015917987941e+00 7.3224199467073889e+00 0.0000000000000000e+00  3.9575725470560212e+00 7.3210326853423151e+00 0.0000000000000000e+00  3.9574370641066166e+00 7.3194636879050510e+00 0.0000000000000000e+00  3.9572893007633345e+00 7.3177153929471945e+00 0.0000000000000000e+00  3.9571269902300674e+00 7.3158053355281156e+00 0.0000000000000000e+00  3.9569300816884652e+00 7.3137279072543411e+00 0.0000000000000000e+00  3.9566891764089975e+00 7.3114988818430655e+00 0.0000000000000000e+00  3.9563380432414186e+00 7.3090492235489091e+00 0.0000000000000000e+00  3.9558354803281865e+00 7.3063475050405327e+00 0.0000000000000000e+00  3.9549659025820354e+00 7.3030924496537999e+00 0.0000000000000000e+00  3.9535594726055230e+00 7.2990491102173847e+00 0.0000000000000000e+00  3.9509093628309855e+00 7.2931469273807297e+00 0.0000000000000000e+00  3.9463496361533408e+00 7.2843786629601563e+00 0.0000000000000000e+00  3.9375454905941281e+00 7.2691243915758745e+00 0.0000000000000000e+00  3.9219412129988172e+00 7.2434142601588896e+00 0.0000000000000000e+00  3.8918176507738313e+00 7.1950150985089554e+00 0.0000000000000000e+00  3.8381280924339634e+00 7.1091224258255723e+00 0.0000000000000000e+00  3.7365028508814184e+00 6.9440916405067110e+00 0.0000000000000000e+00  3.5592034021780092e+00 6.6463988128977816e+00 0.0000000000000000e+00  3.2454213293119523e+00 6.0811721681235698e+00 0.0000000000000000e+00  2.7531589356651640e+00 5.0896505172250093e+00 0.0000000000000000e+00  2.0253377007338003e+00 3.2637039977225690e+00 0.0000000000000000e+00  1.2672172836216562e+00 8.6627453663219078e-01 0.0000000000000000e+00  1.0233553169625944e+00 7.3473063166098723e-02 0.0000000000000000e+00  1.0012659495923404e+00 3.4226774086316505e-03 0.0000000000000000e+00  1.0000105428314310e+00 5.9989439050432648e-04 0.0000000000000000e+00  1.0000254778077806e+00 -5.1136828866247013e-05 0.0000000000000000e+00  1.0000020131886502e+00 4.8955424229166488e-06 0.0000000000000000e+00  9.9999702609058660e-01 7.8599140721490966e-06 0.0000000000000000e+00  1.0000012871467581e+00 -3.4990849005287145e-06 0.0000000000000000e+00  9.9999991221267559e-01 3.5445907240866823e-07 0.0000000000000000e+00  9.9999972109926882e-01 7.1973924034476349e-07 0.0000000000000000e+00  1.0000002888330046e+00 -7.8216516246204149e-07 0.0000000000000000e+00  9.9999978269515166e-01 5.9757501252008320e-07 0.0000000000000000e+00  1.0000001545560904e+00 -4.2634584220387687e-07 0.0000000000000000e+00  9.9999988766890990e-01 3.0911675712499130e-07 0.0000000000000000e+00  1.0000000841737240e+00 -2.3080068068201876e-07 0.0000000000000000e+00  9.9999993597364267e-01 1.7509460663270099e-07 0.0000000000000000e+00  1.0000000486907261e+00 -1.3296385260759237e-07 0.0000000000000000e+00  9.9999996324089624e-01 1.0026721225900891e-07 0.0000000000000000e+00  1.0000000274972476e+00 -7.4902878246693502e-08 0.0000000000000000e+00  9.9999997952998876e-01 5.5583070351888150e-08 0.0000000000000000e+00  1.0000000151473869e+00 -4.0986649727307294e-08 0.0000000000000000e+00  9.9999998872934259e-01 3.0212675795183307e-08 0.0000000000000000e+00  1.0000000082613745e+00 -2.2005473649537769e-08 0.0000000000000000e+00  9.9999999376785798e-01 1.6094973564272595e-08 0.0000000000000000e+00  1.0000000044254267e+00 -1.1247366793588491e-08 0.0000000000000000e+00  9.9999999641987014e-01 8.0747462200085507e-09 0.0000000000000000e+00  1.0000000023140145e+00 -4.8570457905291954e-09 0.0000000000000000e+00  9.9999999757449243e-01 3.4078438536708676e-09 0.0000000000000000e+00  1.0000000011324544e+00 -7.8047343573400109e-10 0.0000000000000000e+00  9.9999999767278092e-01 0.0000000000000000e+00 0.0000000000000000e+00  9.9998301009493407e+00 0.0000000000000000e+00 4.4849115042242514e-05  9.9998190324462062e+00 2.7564986451835895e-05 -2.7681564247476933e-05  9.9997818227324569e+00 9.2265733675379779e-05 1.3977899567960517e-05  9.9997415878581979e+00 1.4777534918287521e-04 -1.7724888461398712e-05  9.9996394665699402e+00 2.6396250747294319e-04 1.8018601166032457e-05  9.9995270888536858e+00 3.6057509379520090e-04 -1.7627136439495690e-05  9.9993680762319830e+00 5.5474576325766653e-04 1.5754290598688927e-05  9.9991268356682692e+00 7.6277708722087328e-04 -1.3457716033693531e-05  9.9988204860636625e+00 1.0814323469793140e-03 1.1632962151476882e-05  9.9984103155811770e+00 1.4877344900008018e-03 -9.9083016982644823e-06  9.9978490678789846e+00 2.0429675826701250e-03 8.5224847956100019e-06  9.9971148266955154e+00 2.7579860052249273e-03 -6.1648843922270516e-06  9.9961607655453264e+00 3.7222472402340563e-03 4.1513181538302317e-06  9.9949135134748737e+00 4.9468265876150891e-03 -1.5148610222517007e-06  9.9933021143799152e+00 6.5390690780408774e-03 4.7742953634931752e-07  9.9912566181853233e+00 8.5795347995464982e-03 1.2096867219005360e-06  9.9886719239508270e+00 1.1136185358617873e-02 -1.8158844937878781e-06  9.9854103704896602e+00 1.4364446948618917e-02 4.2639442983746295e-06  9.9813773989055363e+00 1.8371175398243393e-02 -5.6434006036668494e-06  9.9764253281906488e+00 2.3287135616842952e-02 7.7497480091612925e-06  9.9703543280449267e+00 2.9291516338989024e-02 -7.7433439554941611e-06  9.9630442978809342e+00 3.6564350641499439e-02 8.1638677282816941e-06  9.9543184915005991e+00 4.5215366150616366e-02 -8.3292003657694364e-06  9.9439285969479592e+00 5.5529191659735376e-02 9.6640531282747264e-06  9.9317551616721911e+00 6.7621626737417645e-02 -1.1190237453790656e-05  9.9176123171525870e+00 8.1687580546551050e-02 1.1297447071712564e-05  9.9012493623600975e+00 9.7938473632648640e-02 -1.0949738711550830e-05  9.8825694740038266e+00 1.1654852268673281e-01 8.8728186270930854e-06  9.8614295979388569e+00 1.3759648199028873e-01 -9.2268073523087620e-06  9.8376023223848961e+00 1.6135315086536067e-01 8.6311907545392641e-06  9.8110667564070031e+00 1.8784233786983698e-01 -1.0083725645208858e-05  9.7817300709385595e+00 2.1717318014433187e-01 7.7061081919108073e-06  9.7494481657046492e+00 2.4947200652411927e-01 -6.1439383149034441e-06  9.7142602737936503e+00 2.8476367821268311e-01 1.9160610340214745e-06  9.6761718467432924e+00 3.2301608507615837e-01 -1.0153377373010976e-06  9.6350932183082953e+00 3.6434884781135840e-01 -1.1724075078610198e-06  9.5911594431841003e+00 4.0866023106268390e-01 2.0849717438186112e-06  9.5444219626896754e+00 4.5589677202925089e-01 -6.6759377026473581e-06  9.4948799870266978e+00 5.0609175838516995e-01 1.1308130062103253e-05  9.4426979511362692e+00 5.5909631696415407e-01 -1.7093790571935265e-05  9.3879952090293362e+00 6.1482851812750672e-01 2.0514985573509059e-05  9.3307976618898696e+00 6.7324303710750177e-01 -2.4048360522975542e-05  9.2713109695254872e+00 7.3421982584917433e-01 2.7547269280488677e-05  9.2096642359857714e+00 7.9757530666118404e-01 -3.3034195443503960e-05  9.1459171638549890e+00 8.6334631600686729e-01 3.8266445287525849e-05  9.0802727739323341e+00 9.3127085758301320e-01 -4.2565712216007250e-05  9.0128636635595161e+00 1.0013269860709346e+00 4.4189740862318725e-05  8.9437622667290917e+00 1.0733482001528309e+00 -4.5022010006862354e-05  8.8731505457121020e+00 1.1472977602115004e+00 4.5259146942897732e-05  8.8011635209161856e+00 1.2229256660931787e+00 -4.6313837858944234e-05  8.7278569819847061e+00 1.3003161915783845e+00 4.5975981835300561e-05  8.6534113400712958e+00 1.3791807310453827e+00 -4.4724767660237556e-05  8.5779233231354794e+00 1.4595673109102245e+00 4.1319766407000724e-05  8.5014678312016088e+00 1.5412668701966143e+00 -3.8604357159363830e-05  8.4241756624045188e+00 1.6243087565732861e+00 3.5875941711500132e-05  8.3461532344987894e+00 1.7084668356506547e+00 -3.4650357346136028e-05  8.2674395205958326e+00 1.7938119779014514e+00 3.1978207791112717e-05  8.1881727847923038e+00 1.8801272490365963e+00 -2.8873905239362300e-05  8.1084117561680529e+00 1.9674658904475926e+00 2.4031588763113106e-05  8.0282182436754379e+00 2.0556382187832440e+00 -2.0764716783906487e-05  7.9476821291598281e+00 2.1446974770627829e+00 1.8003156164833415e-05  7.8668732607038807e+00 2.2344914446754318e+00 -1.6302666795352034e-05  7.7858224318588096e+00 2.3250087033017444e+00 1.1560147861734539e-05  7.7046249475906246e+00 2.4161725806603398e+00 -5.4115935878049698e-06  7.6233185605239608e+00 2.5079878863906195e+00 -8.8721730832177474e-07  7.5419422237137921e+00 2.6002905006214307e+00 2.2113448951392431e-06  7.4605694710560559e+00 2.6931525646477503e+00 -1.5433564160611697e-06  7.3792293073331487e+00 2.7865128199105311e+00 8.2190007436141612e-07  7.2979569175738979e+00 2.8802284629633128e+00 -2.2771074320821546e-06  7.2168116509382925e+00 2.9743719110131455e+00 5.3913553359931646e-07  7.1358157457070890e+00 3.0689222030362457e+00 3.3429298485388282e-06  7.0549987136081818e+00 3.1637125990553572e+00 -4.2146278853880280e-06  6.9744100296367364e+00 3.2588190596368287e+00 -4.2133076840393064e-07  6.8940658239546533e+00 3.3542256503297465e+00 4.2620799708363411e-06  6.8139894493211930e+00 3.4498245911289533e+00 4.5507804242586017e-07  6.7342258998706255e+00 3.5456252669677246e+00 -4.6927816451130607e-06  6.6547800134777573e+00 3.6416304339436505e+00 6.3678285780301031e-06  6.5756786523128143e+00 3.7377714041841950e+00 -2.4709453885692758e-06  6.4969523105124773e+00 3.8340601291811094e+00 5.7188641879769282e-06  6.4186127332291818e+00 3.9304453882376875e+00 -4.9697141390452694e-06  6.3406657731234732e+00 4.0269322800876202e+00 7.8071597094265732e-06  6.2631641033410039e+00 4.1234703162184942e+00 -7.3295126645959953e-06  6.1860816483100489e+00 4.2200