<?xml version="1.0"?>
<VTKFile type="UnstructuredGrid"  version="0.1"  >
<UnstructuredGrid>
<Piece  NumberOfPoints="8241" NumberOfCells="16000">
<Points>
<DataArray  type="Float64"  NumberOfComponents="3"  format="ascii">-5 -1 0  -4.95 -1 0  -4.9 -1 0  -4.85 -1 0  -4.8 -1 0  -4.75 -1 0  -4.7 -1 0  -4.65 -1 0  -4.6 -1 0  -4.55 -1 0  -4.5 -1 0  -4.45 -1 0  -4.4 -1 0  -4.35 -1 0  -4.3 -1 0  -4.25 -1 0  -4.2 -1 0  -4.15 -1 0  -4.1 -1 0  -4.05 -1 0  -4 -1 0  -3.95 -1 0  -3.9 -1 0  -3.85 -1 0  -3.8 -1 0  -3.75 -1 0  -3.7 -1 0  -3.65 -1 0  -3.6 -1 0  -3.55 -1 0  -3.5 -1 0  -3.45 -1 0  -3.4 -1 0  -3.35 -1 0  -3.3 -1 0  -3.25 -1 0  -3.2 -1 0  -3.15 -1 0  -3.1 -1 0  -3.05 -1 0  -3 -1 0  -2.95 -1 0  -2.9 -1 0  -2.85 -1 0  -2.8 -1 0  -2.75 -1 0  -2.7 -1 0  -2.65 -1 0  -2.6 -1 0  -2.55 -1 0  -2.5 -1 0  -2.45 -1 0  -2.4 -1 0  -2.35 -1 0  -2.3 -1 0  -2.25 -1 0  -2.2 -1 0  -2.15 -1 0  -2.1 -1 0  -2.05 -1 0  -2 -1 0  -1.95 -1 0  -1.9 -1 0  -1.85 -1 0  -1.8 -1 0  -1.75 -1 0  -1.7 -1 0  -1.65 -1 0  -1.6 -1 0  -1.55 -1 0  -1.5 -1 0  -1.45 -1 0  -1.4 -1 0  -1.35 -1 0  -1.3 -1 0  -1.25 -1 0  -1.2 -1 0  -1.15 -1 0  -1.1 -1 0  -1.05 -1 0  -1 -1 0  -0.9500000000000002 -1 0  -0.9000000000000004 -1 0  -0.8499999999999996 -1 0  -0.7999999999999998 -1 0  -0.75 -1 0  -0.7000000000000002 -1 0  -0.6500000000000004 -1 0  -0.5999999999999996 -1 0  -0.5499999999999998 -1 0  -0.5 -1 0  -0.4500000000000002 -1 0  -0.4000000000000004 -1 0  -0.3499999999999996 -1 0  -0.2999999999999998 -1 0  -0.25 -1 0  -0.2000000000000002 -1 0  -0.1500000000000004 -1 0  -0.09999999999999964 -1 0  -0.04999999999999982 -1 0  0 -1 0  0.04999999999999982 -1 0  0.09999999999999964 -1 0  0.1500000000000004 -1 0  0.2000000000000002 -1 0  0.25 -1 0  0.2999999999999998 -1 0  0.3499999999999996 -1 0  0.4000000000000004 -1 0  0.4500000000000002 -1 0  0.5 -1 0  0.5499999999999998 -1 0  0.5999999999999996 -1 0  0.6500000000000004 -1 0  0.7000000000000002 -1 0  0.75 -1 0  0.7999999999999998 -1 0  0.8499999999999996 -1 0  0.9000000000000004 -1 0  0.9500000000000002 -1 0  1 -1 0  1.05 -1 0  1.1 -1 0  1.15 -1 0  1.2 -1 0  1.25 -1 0  1.3 -1 0  1.35 -1 0  1.4 -1 0  1.45 -1 0  1.5 -1 0  1.55 -1 0  1.6 -1 0  1.65 -1 0  1.7 -1 0  1.75 -1 0  1.8 -1 0  1.85 -1 0  1.9 -1 0  1.95 -1 0  2 -1 0  2.05 -1 0  2.1 -1 0  2.15 -1 0  2.2 -1 0  2.25 -1 0  2.3 -1 0  2.35 -1 0  2.4 -1 0  2.45 -1 0  2.5 -1 0  2.55 -1 0  2.6 -1 0  2.65 -1 0  2.7 -1 0  2.75 -1 0  2.8 -1 0  2.85 -1 0  2.9 -1 0  2.95 -1 0  3 -1 0  3.050000000000001 -1 0  3.1 -1 0  3.15 -1 0  3.199999999999999 -1 0  3.25 -1 0  3.300000000000001 -1 0  3.35 -1 0  3.4 -1 0  3.449999999999999 -1 0  3.5 -1 0  3.550000000000001 -1 0  3.6 -1 0  3.65 -1 0  3.699999999999999 -1 0  3.75 -1 0  3.800000000000001 -1 0  3.85 -1 0  3.9 -1 0  3.949999999999999 -1 0  4 -1 0  4.050000000000001 -1 0  4.1 -1 0  4.15 -1 0  4.199999999999999 -1 0  4.25 -1 0  4.300000000000001 -1 0  4.35 -1 0  4.4 -1 0  4.449999999999999 -1 0  4.5 -1 0  4.550000000000001 -1 0  4.6 -1 0  4.65 -1 0  4.699999999999999 -1 0  4.75 -1 0  4.800000000000001 -1 0  4.85 -1 0  4.9 -1 0  4.949999999999999 -1 0  5 -1 0  -5 -0.95 0  -4.95 -0.95 0  -4.9 -0.95 0  -4.85 -0.95 0  -4.8 -0.95 0  -4.75 -0.95 0  -4.7 -0.95 0  -4.65 -0.95 0  -4.6 -0.95 0  -4.55 -0.95 0  -4.5 -0.95 0  -4.45 -0.95 0  -4.4 -0.95 0  -4.35 -0.95 0  -4.3 -0.95 0  -4.25 -0.95 0  -4.2 -0.95 0  -4.15 -0.95 0  -4.1 -0.95 0  -4.05 -0.95 0  -4 -0.95 0  -3.95 -0.95 0  -3.9 -0.95 0  -3.85 -0.95 0  -3.8 -0.95 0  -3.75 -0.95 0  -3.7 -0.95 0  -3.65 -0.95 0  -3.6 -0.95 0  -3.55 -0.95 0  -3.5 -0.95 0  -3.45 -0.95 0  -3.4 -0.95 0  -3.35 -0.95 0  -3.3 -0.95 0  -3.25 -0.95 0  -3.2 -0.95 0  -3.15 -0.95 0  -3.1 -0.95 0  -3.05 -0.95 0  -3 -0.95 0  -2.95 -0.95 0  -2.9 -0.95 0  -2.85 -0.95 0  -2.8 -0.95 0  -2.75 -0.95 0  -2.7 -0.95 0  -2.65 -0.95 0  -2.6 -0.95 0  -2.55 -0.95 0  -2.5 -0.95 0  -2.45 -0.95 0  -2.4 -0.95 0  -2.35 -0.95 0  -2.3 -0.95 0  -2.25 -0.95 0  -2.2 -0.95 0  -2.15 -0.95 0  -2.1 -0.95 0  -2.05 -0.95 0  -2 -0.95 0  -1.95 -0.95 0  -1.9 -0.95 0  -1.85 -0.95 0  -1.8 -0.95 0  -1.75 -0.95 0  -1.7 -0.95 0  -1.65 -0.95 0  -1.6 -0.95 0  -1.55 -0.95 0  -1.5 -0.95 0  -1.45 -0.95 0  -1.4 -0.95 0  -1.35 -0.95 0  -1.3 -0.95 0  -1.25 -0.95 0  -1.2 -0.95 0  -1.15 -0.95 0  -1.1 -0.95 0  -1.05 -0.95 0  -1 -0.95 0  -0.9500000000000002 -0.95 0  -0.9000000000000004 -0.95 0  -0.8499999999999996 -0.95 0  -0.7999999999999998 -0.95 0  -0.75 -0.95 0  -0.7000000000000002 -0.95 0  -0.6500000000000004 -0.95 0  -0.5999999999999996 -0.95 0  -0.5499999999999998 -0.95 0  -0.5 -0.95 0  -0.4500000000000002 -0.95 0  -0.4000000000000004 -0.95 0  -0.3499999999999996 -0.95 0  -0.2999999999999998 -0.95 0  -0.25 -0.95 0  -0.2000000000000002 -0.95 0  -0.1500000000000004 -0.95 0  -0.09999999999999964 -0.95 0  -0.04999999999999982 -0.95 0  0 -0.95 0  0.04999999999999982 -0.95 0  0.09999999999999964 -0.95 0  0.1500000000000004 -0.95 0  0.2000000000000002 -0.95 0  0.25 -0.95 0  0.2999999999999998 -0.95 0  0.3499999999999996 -0.95 0  0.4000000000000004 -0.95 0  0.4500000000000002 -0.95 0  0.5 -0.95 0  0.5499999999999998 -0.95 0  0.5999999999999996 -0.95 0  0.6500000000000004 -0.95 0  0.7000000000000002 -0.95 0  0.75 -0.95 0  0.7999999999999998 -0.95 0  0.8499999999999996 -0.95 0  0.9000000000000004 -0.95 0  0.9500000000000002 -0.95 0  1 -0.95 0  1.05 -0.95 0  1.1 -0.95 0  1.15 -0.95 0  1.2 -0.95 0  1.25 -0.95 0  1.3 -0.95 0  1.35 -0.95 0  1.4 -0.95 0  1.45 -0.95 0  1.5 -0.95 0  1.55 -0.95 0  1.6 -0.95 0  1.65 -0.95 0  1.7 -0.95 0  1.75 -0.95 0  1.8 -0.95 0  1.85 -0.95 0  1.9 -0.95 0  1.95 -0.95 0  2 -0.95 0  2.05 -0.95 0  2.1 -0.95 0  2.15 -0.95 0  2.2 -0.95 0  2.25 -0.95 0  2.3 -0.95 0  2.35 -0.95 0  2.4 -0.95 0  2.45 -0.95 0  2.5 -0.95 0  2.55 -0.95 0  2.6 -0.95 0  2.65 -0.95 0  2.7 -0.95 0  2.75 -0.95 0  2.8 -0.95 0  2.85 -0.95 0  2.9 -0.95 0  2.95 -0.95 0  3 -0.95 0  3.050000000000001 -0.95 0  3.1 -0.95 0  3.15 -0.95 0  3.199999999999999 -0.95 0  3.25 -0.95 0  3.300000000000001 -0.95 0  3.35 -0.95 0  3.4 -0.95 0  3.449999999999999 -0.95 0  3.5 -0.95 0  3.550000000000001 -0.95 0  3.6 -0.95 0  3.65 -0.95 0  3.699999999999999 -0.95 0  3.75 -0.95 0  3.800000000000001 -0.95 0  3.85 -0.95 0  3.9 -0.95 0  3.949999999999999 -0.95 0  4 -0.95 0  4.050000000000001 -0.95 0  4.1 -0.95 0  4.15 -0.95 0  4.199999999999999 -0.95 0  4.25 -0.95 0  4.300000000000001 -0.95 0  4.35 -0.95 0  4.4 -0.95 0  4.449999999999999 -0.95 0  4.5 -0.95 0  4.550000000000001 -0.95 0  4.6 -0.95 0  4.65 -0.95 0  4.699999999999999 -0.95 0  4.75 -0.95 0  4.800000000000001 -0.95 0  4.85 -0.95 0  4.9 -0.95 0  4.949999999999999 -0.95 0  5 -0.95 0  -5 -0.9 0  -4.95 -0.9 0  -4.9 -0.9 0  -4.85 -0.9 0  -4.8 -0.9 0  -4.75 -0.9 0  -4.7 -0.9 0  -4.65 -0.9 0  -4.6 -0.9 0  -4.55 -0.9 0  -4.5 -0.9 0  -4.45 -0.9 0  -4.4 -0.9 0  -4.35 -0.9 0  -4.3 -0.9 0  -4.25 -0.9 0  -4.2 -0.9 0  -4.15 -0.9 0  -4.1 -0.9 0  -4.05 -0.9 0  -4 -0.9 0  -3.95 -0.9 0  -3.9 -0.9 0  -3.85 -0.9 0  -3.8 -0.9 0  -3.75 -0.9 0  -3.7 -0.9 0  -3.65 -0.9 0  -3.6 -0.9 0  -3.55 -0.9 0  -3.5 -0.9 0  -3.45 -0.9 0  -3.4 -0.9 0  -3.35 -0.9 0  -3.3 -0.9 0  -3.25 -0.9 0  -3.2 -0.9 0  -3.15 -0.9 0  -3.1 -0.9 0  -3.05 -0.9 0  -3 -0.9 0  -2.95 -0.9 0  -2.9 -0.9 0  -2.85 -0.9 0  -2.8 -0.9 0  -2.75 -0.9 0  -2.7 -0.9 0  -2.65 -0.9 0  -2.6 -0.9 0  -2.55 -0.9 0  -2.5 -0.9 0  -2.45 -0.9 0  -2.4 -0.9 0  -2.35 -0.9 0  -2.3 -0.9 0  -2.25 -0.9 0  -2.2 -0.9 0  -2.15 -0.9 0  -2.1 -0.9 0  -2.05 -0.9 0  -2 -0.9 0  -1.95 -0.9 0  -1.9 -0.9 0  -1.85 -0.9 0  -1.8 -0.9 0  -1.75 -0.9 0  -1.7 -0.9 0  -1.65 -0.9 0  -1.6 -0.9 0  -1.55 -0.9 0  -1.5 -0.9 0  -1.45 -0.9 0  -1.4 -0.9 0  -1.35 -0.9 0  -1.3 -0.9 0  -1.25 -0.9 0  -1.2 -0.9 0  -1.15 -0.9 0  -1.1 -0.9 0  -1.05 -0.9 0  -1 -0.9 0  -0.9500000000000002 -0.9 0  -0.9000000000000004 -0.9 0  -0.8499999999999996 -0.9 0  -0.7999999999999998 -0.9 0  -0.75 -0.9 0  -0.7000000000000002 -0.9 0  -0.6500000000000004 -0.9 0  -0.5999999999999996 -0.9 0  -0.5499999999999998 -0.9 0  -0.5 -0.9 0  -0.4500000000000002 -0.9 0  -0.4000000000000004 -0.9 0  -0.3499999999999996 -0.9 0  -0.2999999999999998 -0.9 0  -0.25 -0.9 0  -0.2000000000000002 -0.9 0  -0.1500000000000004 -0.9 0  -0.09999999999999964 -0.9 0  -0.04999999999999982 -0.9 0  0 -0.9 0  0.04999999999999982 -0.9 0  0.09999999999999964 -0.9 0  0.1500000000000004 -0.9 0  0.2000000000000002 -0.9 0  0.25 -0.9 0  0.2999999999999998 -0.9 0  0.3499999999999996 -0.9 0  0.4000000000000004 -0.9 0  0.4500000000000002 -0.9 0  0.5 -0.9 0  0.5499999999999998 -0.9 0  0.5999999999999996 -0.9 0  0.6500000000000004 -0.9 0  0.7000000000000002 -0.9 0  0.75 -0.9 0  0.7999999999999998 -0.9 0  0.8499999999999996 -0.9 0  0.9000000000000004 -0.9 0  0.9500000000000002 -0.9 0  1 -0.9 0  1.05 -0.9 0  1.1 -0.9 0  1.15 -0.9 0  1.2 -0.9 0  1.25 -0.9 0  1.3 -0.9 0  1.35 -0.9 0  1.4 -0.9 0  1.45 -0.9 0  1.5 -0.9 0  1.55 -0.9 0  1.6 -0.9 0  1.65 -0.9 0  1.7 -0.9 0  1.75 -0.9 0  1.8 -0.9 0  1.85 -0.9 0  1.9 -0.9 0  1.95 -0.9 0  2 -0.9 0  2.05 -0.9 0  2.1 -0.9 0  2.15 -0.9 0  2.2 -0.9 0  2.25 -0.9 0  2.3 -0.9 0  2.35 -0.9 0  2.4 -0.9 0  2.45 -0.9 0  2.5 -0.9 0  2.55 -0.9 0  2.6 -0.9 0  2.65 -0.9 0  2.7 -0.9 0  2.75 -0.9 0  2.8 -0.9 0  2.85 -0.9 0  2.9 -0.9 0  2.95 -0.9 0  3 -0.9 0  3.050000000000001 -0.9 0  3.1 -0.9 0  3.15 -0.9 0  3.199999999999999 -0.9 0  3.25 -0.9 0  3.300000000000001 -0.9 0  3.35 -0.9 0  3.4 -0.9 0  3.449999999999999 -0.9 0  3.5 -0.9 0  3.550000000000001 -0.9 0  3.6 -0.9 0  3.65 -0.9 0  3.699999999999999 -0.9 0  3.75 -0.9 0  3.800000000000001 -0.9 0  3.85 -0.9 0  3.9 -0.9 0  3.949999999999999 -0.9 0  4 -0.9 0  4.050000000000001 -0.9 0  4.1 -0.9 0  4.15 -0.9 0  4.199999999999999 -0.9 0  4.25 -0.9 0  4.300000000000001 -0.9 0  4.35 -0.9 0  4.4 -0.9 0  4.449999999999999 -0.9 0  4.5 -0.9 0  4.550000000000001 -0.9 0  4.6 -0.9 0  4.65 -0.9 0  4.699999999999999 -0.9 0  4.75 -0.9 0  4.800000000000001 -0.9 0  4.85 -0.9 0  4.9 -0.9 0  4.949999999999999 -0.9 0  5 -0.9 0  -5 -0.85 0  -4.95 -0.85 0  -4.9 -0.85 0  -4.85 -0.85 0  -4.8 -0.85 0  -4.75 -0.85 0  -4.7 -0.85 0  -4.65 -0.85 0  -4.6 -0.85 0  -4.55 -0.85 0  -4.5 -0.85 0  -
[...]
<PointData  Vectors="f_15"> 
<DataArray  type="Float64"  Name="f_15"  NumberOfComponents="3" format="ascii">2.7392646170196375e+00 0.0000000000000000e+00 0.0000000000000000e+00  2.7377668040385155e+00 4.5006910066456789e-02 0.0000000000000000e+00  2.7390923511513172e+00 9.1719279426054665e-02 0.0000000000000000e+00  2.7376961994352307e+00 1.0131897937732336e-01 0.0000000000000000e+00  2.7391586742533498e+00 1.6635430381873442e-01 0.0000000000000000e+00  2.7372976005750500e+00 1.8060657951623310e-01 0.0000000000000000e+00  2.7392107602149434e+00 2.3919885699865615e-01 0.0000000000000000e+00  2.7370966366570251e+00 2.5750636804727056e-01 0.0000000000000000e+00  2.7389597926240383e+00 3.1313086236170118e-01 0.0000000000000000e+00  2.7368210332668959e+00 3.3715102272719671e-01 0.0000000000000000e+00  2.7389441088420190e+00 3.8308975048172128e-01 0.0000000000000000e+00  2.7363175154679893e+00 4.2322819265602918e-01 0.0000000000000000e+00  2.7386540963157509e+00 4.4291904177303626e-01 0.0000000000000000e+00  2.7363779042425023e+00 5.1892351508583789e-01 0.0000000000000000e+00  2.7377066481594605e+00 5.0294534206161134e-01 0.0000000000000000e+00  2.7365375529003537e+00 5.9632546812075715e-01 0.0000000000000000e+00  2.7372545991819925e+00 5.9715829048271907e-01 0.0000000000000000e+00  2.7359331787873198e+00 6.4413852006232464e-01 0.0000000000000000e+00  2.7371548498172702e+00 6.9392415108806260e-01 0.0000000000000000e+00  2.7355442224653288e+00 7.1652194528236668e-01 0.0000000000000000e+00  2.7365007415264944e+00 7.6193122315247708e-01 0.0000000000000000e+00  2.7354616108212335e+00 7.9155402116835794e-01 0.0000000000000000e+00  2.7360090315196803e+00 8.5865661390171877e-01 0.0000000000000000e+00  2.7349310014984329e+00 8.3729877267817665e-01 0.0000000000000000e+00  2.7356962387216726e+00 9.4792937046525361e-01 0.0000000000000000e+00  2.7347076369068049e+00 9.3375842170449797e-01 0.0000000000000000e+00  2.7349335816369207e+00 9.8074652768031201e-01 0.0000000000000000e+00  2.7346933791043249e+00 1.0480372362016408e+00 0.0000000000000000e+00  2.7342971545510868e+00 1.0448847461338879e+00 0.0000000000000000e+00  2.7344188064232200e+00 1.1119015397850345e+00 0.0000000000000000e+00  2.7336989960399269e+00 1.1377348712498272e+00 0.0000000000000000e+00  2.7343958313946866e+00 1.1831262130011821e+00 0.0000000000000000e+00  2.7327954449066429e+00 1.2068094274210486e+00 0.0000000000000000e+00  2.7344443088995916e+00 1.2674899106954443e+00 0.0000000000000000e+00  2.7319583229140600e+00 1.2817678711383926e+00 0.0000000000000000e+00  2.7344947925944534e+00 1.3383163447067654e+00 0.0000000000000000e+00  2.7309285140389559e+00 1.3633308266313977e+00 0.0000000000000000e+00  2.7346800593172369e+00 1.4119853061325505e+00 0.0000000000000000e+00  2.7299338535282387e+00 1.4397807710733106e+00 0.0000000000000000e+00  2.7347112663604913e+00 1.4874951735244824e+00 0.0000000000000000e+00  2.7288329581106834e+00 1.5175075810362155e+00 0.0000000000000000e+00  2.7350577961960387e+00 1.5619622129713007e+00 0.0000000000000000e+00  2.7275050898949731e+00 1.5946280991992576e+00 0.0000000000000000e+00  2.7350404427482791e+00 1.6379593691102263e+00 0.0000000000000000e+00  2.7268690358946910e+00 1.6698205253434542e+00 0.0000000000000000e+00  2.7345497132711314e+00 1.7153989355719736e+00 0.0000000000000000e+00  2.7259250064881022e+00 1.7449049062111530e+00 0.0000000000000000e+00  2.7346593828638257e+00 1.7913907733506564e+00 0.0000000000000000e+00  2.7248107068194876e+00 1.8220843712800889e+00 0.0000000000000000e+00  2.7339676940935811e+00 1.8661057456686547e+00 0.0000000000000000e+00  2.7247765061709619e+00 1.8996735450369231e+00 0.0000000000000000e+00  2.7327262843585456e+00 1.9403492084979956e+00 0.0000000000000000e+00  2.7242878838995366e+00 1.9777898773659857e+00 0.0000000000000000e+00  2.7321499332615811e+00 2.0147115391712682e+00 0.0000000000000000e+00  2.7236493011507847e+00 2.0540186445919995e+00 0.0000000000000000e+00  2.7308834220547178e+00 2.0916660053557488e+00 0.0000000000000000e+00  2.7237345031536089e+00 2.1283057064325828e+00 0.0000000000000000e+00  2.7293870453176390e+00 2.1690728672982691e+00 0.0000000000000000e+00  2.7234100141336248e+00 2.2025907228589876e+00 0.0000000000000000e+00  2.7282306415045929e+00 2.2468514149247127e+00 0.0000000000000000e+00  2.7230146645044360e+00 2.2765707004060358e+00 0.0000000000000000e+00  2.7269479660881970e+00 2.3236914230686820e+00 0.0000000000000000e+00  2.7224179678871980e+00 2.3525784776919179e+00 0.0000000000000000e+00  2.7259748404641431e+00 2.3988479885004494e+00 0.0000000000000000e+00  2.7217328708626964e+00 2.4288311481994596e+00 0.0000000000000000e+00  2.7246276494089705e+00 2.4741435321093608e+00 0.0000000000000000e+00  2.7211058819121772e+00 2.5058775072591253e+00 0.0000000000000000e+00  2.7240899988675675e+00 2.5478534686417240e+00 0.0000000000000000e+00  2.7189806350571861e+00 2.5832991073909639e+00 0.0000000000000000e+00  2.7240232694077080e+00 2.6235321273628576e+00 0.0000000000000000e+00  2.7180354482194669e+00 2.6584877983066959e+00 0.0000000000000000e+00  2.7216906050726597e+00 2.6993787137452983e+00 0.0000000000000000e+00  2.7170757356890549e+00 2.7367309090770564e+00 0.0000000000000000e+00  2.7218961539301443e+00 2.7736942871397225e+00 0.0000000000000000e+00  2.7116804693890599e+00 2.8126598490044383e+00 0.0000000000000000e+00  2.7232900734258321e+00 2.8561366914872450e+00 0.0000000000000000e+00  2.7071066183141750e+00 2.8799162195676513e+00 0.0000000000000000e+00  2.7249284756140946e+00 2.9462826692833448e+00 0.0000000000000000e+00  2.6954740898751686e+00 2.9378275014352981e+00 0.0000000000000000e+00  2.7041487306255632e+00 3.1170472722280311e+00 0.0000000000000000e+00  3.7095942855599540e+00 1.1142718846023250e+00 0.0000000000000000e+00  5.2624253049439975e+00 -1.3844159221893371e+00 0.0000000000000000e+00  6.1557888847746813e+00 -2.5330060027590018e+00 0.0000000000000000e+00  6.5024032540083212e+00 -2.9289698138580174e+00 0.0000000000000000e+00  6.6246759134219158e+00 -3.0425395329382301e+00 0.0000000000000000e+00  6.6826445943816548e+00 -3.0673012052466175e+00 0.0000000000000000e+00  6.7148794794384914e+00 -3.0615808597229837e+00 0.0000000000000000e+00  6.7421214876857425e+00 -3.0478520300847181e+00 0.0000000000000000e+00  6.7612873036298069e+00 -3.0249993043863603e+00 0.0000000000000000e+00  6.7806515808293097e+00 -3.0016227741383648e+00 0.0000000000000000e+00  6.8010706568767230e+00 -2.9786344763270800e+00 0.0000000000000000e+00  6.8200748800913074e+00 -2.9561433276040345e+00 0.0000000000000000e+00  6.8386149788068895e+00 -2.9292243121016166e+00 0.0000000000000000e+00  6.8591562446379370e+00 -2.9094822669638134e+00 0.0000000000000000e+00  6.8780301009255647e+00 -2.8824300019619060e+00 0.0000000000000000e+00  6.8964089210701944e+00 -2.8608911331053530e+00 0.0000000000000000e+00  6.9175066522897835e+00 -2.8355764058093200e+00 0.0000000000000000e+00  6.9356333512741219e+00 -2.8150306397874747e+00 0.0000000000000000e+00  6.9550690224241078e+00 -2.7869334682676610e+00 0.0000000000000000e+00  6.9752211924777558e+00 -2.7695118812793575e+00 0.0000000000000000e+00  6.9942216962225423e+00 -2.7406528557948779e+00 0.0000000000000000e+00  7.0130798116773292e+00 -2.7222700796920125e+00 0.0000000000000000e+00  7.0337901299518375e+00 -2.6950376357266350e+00 0.0000000000000000e+00  7.0524041568462685e+00 -2.6768525504615432e+00 0.0000000000000000e+00  7.0715879531085628e+00 -2.6477015460778248e+00 0.0000000000000000e+00  7.0923813768677615e+00 -2.6327667354284010e+00 0.0000000000000000e+00  7.1104643856243612e+00 -2.6008509918387057e+00 0.0000000000000000e+00  7.1308256178062903e+00 -2.5878943408515038e+00 0.0000000000000000e+00  7.1499827316369764e+00 -2.5552213243559665e+00 0.0000000000000000e+00  7.1702036090279853e+00 -2.5424710782762356e+00 0.0000000000000000e+00  7.1879973299237312e+00 -2.5104133904453345e+00 0.0000000000000000e+00  7.2103907681307371e+00 -2.4965549114074128e+00 0.0000000000000000e+00  7.2265889928553113e+00 -2.4665262781520068e+00 0.0000000000000000e+00  7.2492960042256138e+00 -2.4503901189807764e+00 0.0000000000000000e+00  7.2659842187942694e+00 -2.4226713713023029e+00 0.0000000000000000e+00  7.2885435859940335e+00 -2.4052710460579858e+00 0.0000000000000000e+00  7.3042820753700184e+00 -2.3779182343237739e+00 0.0000000000000000e+00  7.3285576784276625e+00 -2.3610896875719791e+00 0.0000000000000000e+00  7.3427523532368859e+00 -2.3332256708028862e+00 0.0000000000000000e+00  7.3675615248749518e+00 -2.3169777481355061e+00 0.0000000000000000e+00  7.3820539506764966e+00 -2.2883306692389263e+00 0.0000000000000000e+00  7.4064252616086437e+00 -2.2739671314818186e+00 0.0000000000000000e+00  7.4206115027348956e+00 -2.2424261769356528e+00 0.0000000000000000e+00  7.4459372315440868e+00 -2.2314054724791164e+00 0.0000000000000000e+00  7.4589709067240157e+00 -2.1972814589497505e+00 0.0000000000000000e+00  7.4847170375322971e+00 -2.1872812998057083e+00 0.0000000000000000e+00  7.4979904202281906e+00 -2.1529582459653138e+00 0.0000000000000000e+00  7.5230642006676831e+00 -2.1428745360707229e+00 0.0000000000000000e+00  7.5364480004340431e+00 -2.1083503325795938e+00 0.0000000000000000e+00  7.5618811337789209e+00 -2.0987943230691433e+00 0.0000000000000000e+00  7.5744169346872985e+00 -2.0641050198657860e+00 0.0000000000000000e+00  7.6001212540498857e+00 -2.0524880568608541e+00 0.0000000000000000e+00  7.6127806839549130e+00 -2.0205576044460738e+00 0.0000000000000000e+00  7.6377042952889420e+00 -2.0043077218547509e+00 0.0000000000000000e+00  7.6506505078457385e+00 -1.9769310183443574e+00 0.0000000000000000e+00  7.6754434777536451e+00 -1.9577193552961458e+00 0.0000000000000000e+00  7.6878381660836510e+00 -1.9322419470626824e+00 0.0000000000000000e+00  7.7125904551692335e+00 -1.9121525381658522e+00 0.0000000000000000e+00  7.7250852762337363e+00 -1.8858435419535751e+00 0.0000000000000000e+00  7.7488761717458461e+00 -1.8658963438298821e+00 0.0000000000000000e+00  7.7618088329699999e+00 -1.8386203779592931e+00 0.0000000000000000e+00  7.7849050161925435e+00 -1.8185318636401413e+00 0.0000000000000000e+00  7.7976792103953549e+00 -1.7909031540600246e+00 0.0000000000000000e+00  7.8202720861097408e+00 -1.7699760948650256e+00 0.0000000000000000e+00  7.8331364106683585e+00 -1.7431993707452129e+00 0.0000000000000000e+00  7.8546542334019431e+00 -1.7207119906503239e+00 0.0000000000000000e+00  7.8678909147914275e+00 -1.6952439012730309e+00 0.0000000000000000e+00  7.8883751658426151e+00 -1.6711546703514604e+00 0.0000000000000000e+00  7.9016105871109774e+00 -1.6464085232997459e+00 0.0000000000000000e+00  7.9212731452279126e+00 -1.6216058137804445e+00 0.0000000000000000e+00  7.9344889351149543e+00 -1.5960358597163635e+00 0.0000000000000000e+00  7.9530606721624526e+00 -1.5719988216452379e+00 0.0000000000000000e+00  7.9664065108340800e+00 -1.5430791140366196e+00 0.0000000000000000e+00  7.9838940213063179e+00 -1.5231371052596678e+00 0.0000000000000000e+00  7.9970784463015345e+00 -1.4871349194178942e+00 0.0000000000000000e+00  8.0136945488480382e+00 -1.4740596049583894e+00 0.0000000000000000e+00  8.0266306866074881e+00 -1.4309521299332841e+00 0.0000000000000000e+00  8.0422314549744858e+00 -1.4222729024982927e+00 0.0000000000000000e+00  8.0549439044915108e+00 -1.3763791576482720e+00 0.0000000000000000e+00  8.0696827830488349e+00 -1.3679317024878896e+00 0.0000000000000000e+00  8.0818135116902177e+00 -1.3223103496088580e+00 0.0000000000000000e+00  8.0958862873487938e+00 -1.3122070546612197e+00 0.0000000000000000e+00  8.1074713383951451e+00 -1.2679738616706391e+00 0.0000000000000000e+00  8.1206759085600275e+00 -1.2534020879851526e+00 0.0000000000000000e+00  8.1317125900769653e+00 -1.2147786293455411e+00 0.0000000000000000e+00  8.1443178962737814e+00 -1.1923147172015400e+00 0.0000000000000000e+00  8.1544414686397761e+00 -1.1592824260134305e+00 0.0000000000000000e+00  8.1665080220001833e+00 -1.1321828912062610e+00 0.0000000000000000e+00  8.1760129308257312e+00 -1.1012142500859932e+00 0.0000000000000000e+00  8.1871725858336308e+00 -1.0715817684952624e+00 0.0000000000000000e+00  8.1960691150975418e+00 -1.0445895462738324e+00 0.0000000000000000e+00  8.2067098436423080e+00 -1.0104963928117709e+00 0.0000000000000000e+00  8.2145687763352111e+00 -9.8558160261144734e-01 0.0000000000000000e+00  8.2247280833081451e+00 -9.5353684823843177e-01 0.0000000000000000e+00  8.2319402872465961e+00 -9.2263480951551680e-01 0.0000000000000000e+00  8.2412039645682000e+00 -8.9915738193402561e-01 0.0000000000000000e+00  8.2477571625001520e+00 -8.5962240975389481e-01 0.0000000000000000e+00  8.2566096083474463e+00 -8.4169779077297435e-01 0.0000000000000000e+00  8.2619764710758741e+00 -7.9757335841287591e-01 0.0000000000000000e+00  8.2705659749309675e+00 -7.8095466447700201e-01 0.0000000000000000e+00  8.2750453192258462e+00 -7.3494070788651611e-01 0.0000000000000000e+00  8.2830203409103635e+00 -7.1607976318808875e-01 0.0000000000000000e+00  8.2866480771188158e+00 -6.7187339513472288e-01 0.0000000000000000e+00  8.2943756938747804e+00 -6.5466638817006084e-01 0.0000000000000000e+00  8.2967267435053405e+00 -6.1287859806892764e-01 0.0000000000000000e+00  8.3043467943426812e+00 -5.9841943284233201e-01 0.0000000000000000e+00  8.3057630305027246e+00 -5.5485617446926350e-01 0.0000000000000000e+00  8.3128660829098315e+00 -5.3489869198901119e-01 0.0000000000000000e+00  8.3135795743249972e+00 -4.9255492767280395e-01 0.0000000000000000e+00  8.3203043526825642e+00 -4.7228902532237454e-01 0.0000000000000000e+00  8.3199755993002338e+00 -4.2015556058492959e-01 0.0000000000000000e+00  8.3265275202850439e+00 -3.9671997101143619e-01 0.0000000000000000e+00  8.3253726689200818e+00 -3.4666279985481729e-01 0.0000000000000000e+00  8.3312109442418105e+00 -3.1652965517761966e-01 0.0000000000000000e+00  8.3295943399044727e+00 -2.7892651322153272e-01 0.0000000000000000e+00  8.3348001816143249e+00 -2.3368260616103337e-01 0.0000000000000000e+00  8.3323286223540531e+00 -2.1189691995570431e-01 0.0000000000000000e+00  8.3371547270923880e+00 -1.5803913095762298e-01 0.0000000000000000e+00  8.3341712209514949e+00 -1.5126273547423008e-01 0.0000000000000000e+00  8.3382377693887637e+00 -4.7261378693917416e-02 0.0000000000000000e+00  8.3352773727295091e+00 0.0000000000000000e+00 0.0000000000000000e+00  2.7377362037287267e+00 0.0000000000000000e+00 9.1673364923383262e-03  2.7378302809078496e+00 3.2186149087595269e-02 -9.8387188736504382e-03  2.7379861691525615e+00 7.3377990351116862e-02 5.6045982324055691e-04  2.7378101783166722e+00 1.1606501056462933e-01 1.4416317957366380e-02  2.7379110963524274e+00 1.4427467857593546e-01 -1.7770343805187164e-02  2.7378695407306490e+00 1.9583275892665866e-01 1.9275216252538391e-02  2.7380779766565335e+00 2.1910209545698500e-01 -2.1005846456153152e-02  2.7376528764325001e+00 2.7689916886965038e-01 2.2023003641135311e-02  2.7381554782481254e+00 2.9120800481058695e-01 -1.8651244397256864e-02  2.7378341019794807e+00 3.5280544952685655e-01 1.0606076429055372e-02  2.7378694162825328e+00 3.7639770975510251e-01 -1.0636720959607019e-03  2.7379554698912694e+00 4.1259322648927221e-01 -5.5913794690524094e-03  2.7380900908029560e+00 4.7050297661813606e-01 6.9806984309808947e-03  2.7375053241927199e+00 4.7945753844748551e-01 -3.9550197147781314e-03  2.7383913851861492e+00 5.4092749629007963e-01 -4.1703143857614972e-05  2.7375457804299352e+00 5.7611626780381808e-01 2.0264595633583235e-03  2.7379422987025137e+00 5.9359470373986867e-01 -2.1039043130780481e-03  2.7378784150906759e+00 6.6374747646500554e-01 7.5446802902927215e-04  2.7377907424438392e+00 6.7904145447078279e-01 6.1264127584677308e-05  2.7374978402349832e+00 7.2027020791746654e-01 7.7733524707445246e-04  2.7380496628850173e+00 7.6677721626812667e-01 -2.3483857406829223e-03  2.7371945799985600e+00 8.0630122288758521e-01 4.5549423118718541e-03  2.7378056852406583e+00 8.2062730365450531e-01 -6.3471265839267939e-03  2.7371735850305576e+00 8.9505317903718784e-01 6.9531485502417178e-03  2.7375372968407978e+00 9.1086145770939664e-01 -5.1352346531883209e-03  2.7369525943276432e+00 9.3813446836934433e-01 8.6034634121512745e-04  2.7372538172898855e+00 1.0144070704970229e+00 3.2686770557246998e-03  2.7368068329475683e+00 1.0127512372543888e+00 -5.0423085664528565e-03  2.7368519100050119e+00 1.0694334525054379e+00 3.4909695821077917e-03  2.7364027044818453e+00 1.1128116441376428e+00 -4.9803712026439596e-05  2.7367946704247634e+00 1.1369030901004344e+00 -2.7792326937870369e-03  2.7357166329926548e+00 1.1820083075896495e+00 3.6489788500825731e-03  2.7365707856832437e+00 1.2230173285806756e+00 -3.4966465972327328e-03  2.7352653055099361e+00 1.2563476403839533e+00 3.9022881281324476e-03  2.7361919595633561e+00 1.2925086221704374e+00 -5.2273627493157442e-03  2.7346445249733562e+00 1.3400805376478255e+00 6.9193585801394378e-03  2.7358906680429365e+00 1.3656540249426974e+00 -7.5621839222564623e-03  2.7341253127345300e+00 1.4149465766308336e+00 7.3256003120280352e-03  2.7352585848537458e+00 1.4436017837221125e+00 -6.6147122625718861e-03  2.7336866956920276e+00 1.4905862343985072e+00 6.1270660262788797e-03  2.7347844905788019e+00 1.5192679296545062e+00 -5.7170215605859926e-03  2.7330367480372444e+00 1.5665654964270044e+00 5.2036764587783261e-03  2.7340627345025301e+00 1.5962566054204652e+00 -4.4029954936461169e-03  2.7329090511465433e+00 1.6409827959173595e+00 3.7043947845586639e-03  2.7330039245131710e+00 1.6740212513449382e+00 -2.9209792991478803e-03  2.7323981444572087e+00 1.7157564418255040e+00 2.3075449682882550e-03  2.7326749808346005e+00 1.7503688070996519e+00 -1.6028988586968640e-03  2.7315104479260652e+00 1.7920976747131281e+00 1.0691544017725732e-03  2.7318580055617412e+00 1.8261605837367865e+00 -6.7936626778497967e-04  2.7314361239256222e+00 1.8679170180654643e+00 4.2145029381776544e-04  2.7307469771411599e+00 1.9024909215382177e+00 -2.4992498159599730e-04  2.7307203221986192e+00 1.9439691367627774e+00 9.3169945293225209e-05  2.7305400481756350e+00 1.9785070699403886e+00 1.0370921697530806e-04  2.7297144220724694e+00 2.0194016102843864e+00 -3.4736558407568461e-04  2.7297120332201197e+00 2.0560203261427681e+00 8.5571840148418443e-04  2.7295371953316612e+00 2.0937552786996103e+00 -1.5172476903230659e-03  2.7285923305196507e+00 2.1334492150699869e+00 2.4742442475232146e-03  2.7289780797027734e+00 2.1687025096310064e+00 -3.4655336803748773e-03  2.7278987249451618e+00 2.2109135241505240e+00 4.5606683978158301e-03  2.7283927788499986e+00 2.2431028178774541e+00 -5.5747370176802711e-03  2.7269173618871996e+00 2.2883307203596255e+00 6.4875310478965734e-03  2.7278959443860895e+00 2.3186255294160274e+00 -7.1589454464108917e-03  2.7261098538755033e+00 2.3646022732944121e+00 7.5370650828596088e-03  2.7272786666578948e+00 2.3942385719675321e+00 -7.6812207778739769e-03  2.7250671434149676e+00 2.4413256482307606e+00 7.6631068827754207e-03  2.7268319616676546e+00 2.4702924618502449e+00 -7.6070329385893587e-03  2.7244439965147147e+00 2.5165615750628958e+00 7.5896749215693411e-03  2.7254803219233863e+00 2.5470332168291412e+00 -7.6805433248989452e-03  2.7241123123444244e+00 2.5932222710656201e+00 7.8813916005254780e-03  2.7253117769989079e+00 2.6212700951576169e+00 -8.0784449038097065e-03  2.7220099403486313e+00 2.6701702680119364e+00 8.1741442502392854e-03  2.7256825285408541e+00 2.6979708080570695e+00 -7.9247253428946906e-03  2.7221387617878259e+00 2.7436179159302081e+00 7.6144594121748460e-03  2.7234615261931050e+00 2.7744242542185620e+00 -6.8103656051366028e-03  2.7228979098086601e+00 2.8197709434056328e+00 6.3670938395973837e-03  2.7251390315050887e+00 2.8478514768852894e+00 -4.9919212035117125e-03  2.7195141150672058e+00 2.8931231523225605e+00 4.7755870183646817e-03  2.7289965127239872e+00 2.9278415824545760e+00 -4.5972147930107218e-03  2.7161396034155199e+00 2.9588202763364460e+00 1.1273212790709204e-02  2.7291002579983639e+00 3.0304153832140903e+00 -3.1023250419239069e-02  3.6347825695313887e+00 1.2817942235529725e+00 3.9522381300519042