<?xml version="1.0"?>
<VTKFile type="UnstructuredGrid"  version="0.1"  >
<UnstructuredGrid>
<Piece  NumberOfPoints="8241" NumberOfCells="16000">
<Points>
<DataArray  type="Float64"  NumberOfComponents="3"  format="ascii">-5 -1 0  -4.95 -1 0  -4.9 -1 0  -4.85 -1 0  -4.8 -1 0  -4.75 -1 0  -4.7 -1 0  -4.65 -1 0  -4.6 -1 0  -4.55 -1 0  -4.5 -1 0  -4.45 -1 0  -4.4 -1 0  -4.35 -1 0  -4.3 -1 0  -4.25 -1 0  -4.2 -1 0  -4.15 -1 0  -4.1 -1 0  -4.05 -1 0  -4 -1 0  -3.95 -1 0  -3.9 -1 0  -3.85 -1 0  -3.8 -1 0  -3.75 -1 0  -3.7 -1 0  -3.65 -1 0  -3.6 -1 0  -3.55 -1 0  -3.5 -1 0  -3.45 -1 0  -3.4 -1 0  -3.35 -1 0  -3.3 -1 0  -3.25 -1 0  -3.2 -1 0  -3.15 -1 0  -3.1 -1 0  -3.05 -1 0  -3 -1 0  -2.95 -1 0  -2.9 -1 0  -2.85 -1 0  -2.8 -1 0  -2.75 -1 0  -2.7 -1 0  -2.65 -1 0  -2.6 -1 0  -2.55 -1 0  -2.5 -1 0  -2.45 -1 0  -2.4 -1 0  -2.35 -1 0  -2.3 -1 0  -2.25 -1 0  -2.2 -1 0  -2.15 -1 0  -2.1 -1 0  -2.05 -1 0  -2 -1 0  -1.95 -1 0  -1.9 -1 0  -1.85 -1 0  -1.8 -1 0  -1.75 -1 0  -1.7 -1 0  -1.65 -1 0  -1.6 -1 0  -1.55 -1 0  -1.5 -1 0  -1.45 -1 0  -1.4 -1 0  -1.35 -1 0  -1.3 -1 0  -1.25 -1 0  -1.2 -1 0  -1.15 -1 0  -1.1 -1 0  -1.05 -1 0  -1 -1 0  -0.9500000000000002 -1 0  -0.9000000000000004 -1 0  -0.8499999999999996 -1 0  -0.7999999999999998 -1 0  -0.75 -1 0  -0.7000000000000002 -1 0  -0.6500000000000004 -1 0  -0.5999999999999996 -1 0  -0.5499999999999998 -1 0  -0.5 -1 0  -0.4500000000000002 -1 0  -0.4000000000000004 -1 0  -0.3499999999999996 -1 0  -0.2999999999999998 -1 0  -0.25 -1 0  -0.2000000000000002 -1 0  -0.1500000000000004 -1 0  -0.09999999999999964 -1 0  -0.04999999999999982 -1 0  0 -1 0  0.04999999999999982 -1 0  0.09999999999999964 -1 0  0.1500000000000004 -1 0  0.2000000000000002 -1 0  0.25 -1 0  0.2999999999999998 -1 0  0.3499999999999996 -1 0  0.4000000000000004 -1 0  0.4500000000000002 -1 0  0.5 -1 0  0.5499999999999998 -1 0  0.5999999999999996 -1 0  0.6500000000000004 -1 0  0.7000000000000002 -1 0  0.75 -1 0  0.7999999999999998 -1 0  0.8499999999999996 -1 0  0.9000000000000004 -1 0  0.9500000000000002 -1 0  1 -1 0  1.05 -1 0  1.1 -1 0  1.15 -1 0  1.2 -1 0  1.25 -1 0  1.3 -1 0  1.35 -1 0  1.4 -1 0  1.45 -1 0  1.5 -1 0  1.55 -1 0  1.6 -1 0  1.65 -1 0  1.7 -1 0  1.75 -1 0  1.8 -1 0  1.85 -1 0  1.9 -1 0  1.95 -1 0  2 -1 0  2.05 -1 0  2.1 -1 0  2.15 -1 0  2.2 -1 0  2.25 -1 0  2.3 -1 0  2.35 -1 0  2.4 -1 0  2.45 -1 0  2.5 -1 0  2.55 -1 0  2.6 -1 0  2.65 -1 0  2.7 -1 0  2.75 -1 0  2.8 -1 0  2.85 -1 0  2.9 -1 0  2.95 -1 0  3 -1 0  3.050000000000001 -1 0  3.1 -1 0  3.15 -1 0  3.199999999999999 -1 0  3.25 -1 0  3.300000000000001 -1 0  3.35 -1 0  3.4 -1 0  3.449999999999999 -1 0  3.5 -1 0  3.550000000000001 -1 0  3.6 -1 0  3.65 -1 0  3.699999999999999 -1 0  3.75 -1 0  3.800000000000001 -1 0  3.85 -1 0  3.9 -1 0  3.949999999999999 -1 0  4 -1 0  4.050000000000001 -1 0  4.1 -1 0  4.15 -1 0  4.199999999999999 -1 0  4.25 -1 0  4.300000000000001 -1 0  4.35 -1 0  4.4 -1 0  4.449999999999999 -1 0  4.5 -1 0  4.550000000000001 -1 0  4.6 -1 0  4.65 -1 0  4.699999999999999 -1 0  4.75 -1 0  4.800000000000001 -1 0  4.85 -1 0  4.9 -1 0  4.949999999999999 -1 0  5 -1 0  -5 -0.95 0  -4.95 -0.95 0  -4.9 -0.95 0  -4.85 -0.95 0  -4.8 -0.95 0  -4.75 -0.95 0  -4.7 -0.95 0  -4.65 -0.95 0  -4.6 -0.95 0  -4.55 -0.95 0  -4.5 -0.95 0  -4.45 -0.95 0  -4.4 -0.95 0  -4.35 -0.95 0  -4.3 -0.95 0  -4.25 -0.95 0  -4.2 -0.95 0  -4.15 -0.95 0  -4.1 -0.95 0  -4.05 -0.95 0  -4 -0.95 0  -3.95 -0.95 0  -3.9 -0.95 0  -3.85 -0.95 0  -3.8 -0.95 0  -3.75 -0.95 0  -3.7 -0.95 0  -3.65 -0.95 0  -3.6 -0.95 0  -3.55 -0.95 0  -3.5 -0.95 0  -3.45 -0.95 0  -3.4 -0.95 0  -3.35 -0.95 0  -3.3 -0.95 0  -3.25 -0.95 0  -3.2 -0.95 0  -3.15 -0.95 0  -3.1 -0.95 0  -3.05 -0.95 0  -3 -0.95 0  -2.95 -0.95 0  -2.9 -0.95 0  -2.85 -0.95 0  -2.8 -0.95 0  -2.75 -0.95 0  -2.7 -0.95 0  -2.65 -0.95 0  -2.6 -0.95 0  -2.55 -0.95 0  -2.5 -0.95 0  -2.45 -0.95 0  -2.4 -0.95 0  -2.35 -0.95 0  -2.3 -0.95 0  -2.25 -0.95 0  -2.2 -0.95 0  -2.15 -0.95 0  -2.1 -0.95 0  -2.05 -0.95 0  -2 -0.95 0  -1.95 -0.95 0  -1.9 -0.95 0  -1.85 -0.95 0  -1.8 -0.95 0  -1.75 -0.95 0  -1.7 -0.95 0  -1.65 -0.95 0  -1.6 -0.95 0  -1.55 -0.95 0  -1.5 -0.95 0  -1.45 -0.95 0  -1.4 -0.95 0  -1.35 -0.95 0  -1.3 -0.95 0  -1.25 -0.95 0  -1.2 -0.95 0  -1.15 -0.95 0  -1.1 -0.95 0  -1.05 -0.95 0  -1 -0.95 0  -0.9500000000000002 -0.95 0  -0.9000000000000004 -0.95 0  -0.8499999999999996 -0.95 0  -0.7999999999999998 -0.95 0  -0.75 -0.95 0  -0.7000000000000002 -0.95 0  -0.6500000000000004 -0.95 0  -0.5999999999999996 -0.95 0  -0.5499999999999998 -0.95 0  -0.5 -0.95 0  -0.4500000000000002 -0.95 0  -0.4000000000000004 -0.95 0  -0.3499999999999996 -0.95 0  -0.2999999999999998 -0.95 0  -0.25 -0.95 0  -0.2000000000000002 -0.95 0  -0.1500000000000004 -0.95 0  -0.09999999999999964 -0.95 0  -0.04999999999999982 -0.95 0  0 -0.95 0  0.04999999999999982 -0.95 0  0.09999999999999964 -0.95 0  0.1500000000000004 -0.95 0  0.2000000000000002 -0.95 0  0.25 -0.95 0  0.2999999999999998 -0.95 0  0.3499999999999996 -0.95 0  0.4000000000000004 -0.95 0  0.4500000000000002 -0.95 0  0.5 -0.95 0  0.5499999999999998 -0.95 0  0.5999999999999996 -0.95 0  0.6500000000000004 -0.95 0  0.7000000000000002 -0.95 0  0.75 -0.95 0  0.7999999999999998 -0.95 0  0.8499999999999996 -0.95 0  0.9000000000000004 -0.95 0  0.9500000000000002 -0.95 0  1 -0.95 0  1.05 -0.95 0  1.1 -0.95 0  1.15 -0.95 0  1.2 -0.95 0  1.25 -0.95 0  1.3 -0.95 0  1.35 -0.95 0  1.4 -0.95 0  1.45 -0.95 0  1.5 -0.95 0  1.55 -0.95 0  1.6 -0.95 0  1.65 -0.95 0  1.7 -0.95 0  1.75 -0.95 0  1.8 -0.95 0  1.85 -0.95 0  1.9 -0.95 0  1.95 -0.95 0  2 -0.95 0  2.05 -0.95 0  2.1 -0.95 0  2.15 -0.95 0  2.2 -0.95 0  2.25 -0.95 0  2.3 -0.95 0  2.35 -0.95 0  2.4 -0.95 0  2.45 -0.95 0  2.5 -0.95 0  2.55 -0.95 0  2.6 -0.95 0  2.65 -0.95 0  2.7 -0.95 0  2.75 -0.95 0  2.8 -0.95 0  2.85 -0.95 0  2.9 -0.95 0  2.95 -0.95 0  3 -0.95 0  3.050000000000001 -0.95 0  3.1 -0.95 0  3.15 -0.95 0  3.199999999999999 -0.95 0  3.25 -0.95 0  3.300000000000001 -0.95 0  3.35 -0.95 0  3.4 -0.95 0  3.449999999999999 -0.95 0  3.5 -0.95 0  3.550000000000001 -0.95 0  3.6 -0.95 0  3.65 -0.95 0  3.699999999999999 -0.95 0  3.75 -0.95 0  3.800000000000001 -0.95 0  3.85 -0.95 0  3.9 -0.95 0  3.949999999999999 -0.95 0  4 -0.95 0  4.050000000000001 -0.95 0  4.1 -0.95 0  4.15 -0.95 0  4.199999999999999 -0.95 0  4.25 -0.95 0  4.300000000000001 -0.95 0  4.35 -0.95 0  4.4 -0.95 0  4.449999999999999 -0.95 0  4.5 -0.95 0  4.550000000000001 -0.95 0  4.6 -0.95 0  4.65 -0.95 0  4.699999999999999 -0.95 0  4.75 -0.95 0  4.800000000000001 -0.95 0  4.85 -0.95 0  4.9 -0.95 0  4.949999999999999 -0.95 0  5 -0.95 0  -5 -0.9 0  -4.95 -0.9 0  -4.9 -0.9 0  -4.85 -0.9 0  -4.8 -0.9 0  -4.75 -0.9 0  -4.7 -0.9 0  -4.65 -0.9 0  -4.6 -0.9 0  -4.55 -0.9 0  -4.5 -0.9 0  -4.45 -0.9 0  -4.4 -0.9 0  -4.35 -0.9 0  -4.3 -0.9 0  -4.25 -0.9 0  -4.2 -0.9 0  -4.15 -0.9 0  -4.1 -0.9 0  -4.05 -0.9 0  -4 -0.9 0  -3.95 -0.9 0  -3.9 -0.9 0  -3.85 -0.9 0  -3.8 -0.9 0  -3.75 -0.9 0  -3.7 -0.9 0  -3.65 -0.9 0  -3.6 -0.9 0  -3.55 -0.9 0  -3.5 -0.9 0  -3.45 -0.9 0  -3.4 -0.9 0  -3.35 -0.9 0  -3.3 -0.9 0  -3.25 -0.9 0  -3.2 -0.9 0  -3.15 -0.9 0  -3.1 -0.9 0  -3.05 -0.9 0  -3 -0.9 0  -2.95 -0.9 0  -2.9 -0.9 0  -2.85 -0.9 0  -2.8 -0.9 0  -2.75 -0.9 0  -2.7 -0.9 0  -2.65 -0.9 0  -2.6 -0.9 0  -2.55 -0.9 0  -2.5 -0.9 0  -2.45 -0.9 0  -2.4 -0.9 0  -2.35 -0.9 0  -2.3 -0.9 0  -2.25 -0.9 0  -2.2 -0.9 0  -2.15 -0.9 0  -2.1 -0.9 0  -2.05 -0.9 0  -2 -0.9 0  -1.95 -0.9 0  -1.9 -0.9 0  -1.85 -0.9 0  -1.8 -0.9 0  -1.75 -0.9 0  -1.7 -0.9 0  -1.65 -0.9 0  -1.6 -0.9 0  -1.55 -0.9 0  -1.5 -0.9 0  -1.45 -0.9 0  -1.4 -0.9 0  -1.35 -0.9 0  -1.3 -0.9 0  -1.25 -0.9 0  -1.2 -0.9 0  -1.15 -0.9 0  -1.1 -0.9 0  -1.05 -0.9 0  -1 -0.9 0  -0.9500000000000002 -0.9 0  -0.9000000000000004 -0.9 0  -0.8499999999999996 -0.9 0  -0.7999999999999998 -0.9 0  -0.75 -0.9 0  -0.7000000000000002 -0.9 0  -0.6500000000000004 -0.9 0  -0.5999999999999996 -0.9 0  -0.5499999999999998 -0.9 0  -0.5 -0.9 0  -0.4500000000000002 -0.9 0  -0.4000000000000004 -0.9 0  -0.3499999999999996 -0.9 0  -0.2999999999999998 -0.9 0  -0.25 -0.9 0  -0.2000000000000002 -0.9 0  -0.1500000000000004 -0.9 0  -0.09999999999999964 -0.9 0  -0.04999999999999982 -0.9 0  0 -0.9 0  0.04999999999999982 -0.9 0  0.09999999999999964 -0.9 0  0.1500000000000004 -0.9 0  0.2000000000000002 -0.9 0  0.25 -0.9 0  0.2999999999999998 -0.9 0  0.3499999999999996 -0.9 0  0.4000000000000004 -0.9 0  0.4500000000000002 -0.9 0  0.5 -0.9 0  0.5499999999999998 -0.9 0  0.5999999999999996 -0.9 0  0.6500000000000004 -0.9 0  0.7000000000000002 -0.9 0  0.75 -0.9 0  0.7999999999999998 -0.9 0  0.8499999999999996 -0.9 0  0.9000000000000004 -0.9 0  0.9500000000000002 -0.9 0  1 -0.9 0  1.05 -0.9 0  1.1 -0.9 0  1.15 -0.9 0  1.2 -0.9 0  1.25 -0.9 0  1.3 -0.9 0  1.35 -0.9 0  1.4 -0.9 0  1.45 -0.9 0  1.5 -0.9 0  1.55 -0.9 0  1.6 -0.9 0  1.65 -0.9 0  1.7 -0.9 0  1.75 -0.9 0  1.8 -0.9 0  1.85 -0.9 0  1.9 -0.9 0  1.95 -0.9 0  2 -0.9 0  2.05 -0.9 0  2.1 -0.9 0  2.15 -0.9 0  2.2 -0.9 0  2.25 -0.9 0  2.3 -0.9 0  2.35 -0.9 0  2.4 -0.9 0  2.45 -0.9 0  2.5 -0.9 0  2.55 -0.9 0  2.6 -0.9 0  2.65 -0.9 0  2.7 -0.9 0  2.75 -0.9 0  2.8 -0.9 0  2.85 -0.9 0  2.9 -0.9 0  2.95 -0.9 0  3 -0.9 0  3.050000000000001 -0.9 0  3.1 -0.9 0  3.15 -0.9 0  3.199999999999999 -0.9 0  3.25 -0.9 0  3.300000000000001 -0.9 0  3.35 -0.9 0  3.4 -0.9 0  3.449999999999999 -0.9 0  3.5 -0.9 0  3.550000000000001 -0.9 0  3.6 -0.9 0  3.65 -0.9 0  3.699999999999999 -0.9 0  3.75 -0.9 0  3.800000000000001 -0.9 0  3.85 -0.9 0  3.9 -0.9 0  3.949999999999999 -0.9 0  4 -0.9 0  4.050000000000001 -0.9 0  4.1 -0.9 0  4.15 -0.9 0  4.199999999999999 -0.9 0  4.25 -0.9 0  4.300000000000001 -0.9 0  4.35 -0.9 0  4.4 -0.9 0  4.449999999999999 -0.9 0  4.5 -0.9 0  4.550000000000001 -0.9 0  4.6 -0.9 0  4.65 -0.9 0  4.699999999999999 -0.9 0  4.75 -0.9 0  4.800000000000001 -0.9 0  4.85 -0.9 0  4.9 -0.9 0  4.949999999999999 -0.9 0  5 -0.9 0  -5 -0.85 0  -4.95 -0.85 0  -4.9 -0.85 0  -4.85 -0.85 0  -4.8 -0.85 0  -4.75 -0.85 0  -4.7 -0.85 0  -4.65 -0.85 0  -4.6 -0.85 0  -4.55 -0.85 0  -4.5 -0.85 0  -
[...]
<PointData  Vectors="f_15"> 
<DataArray  type="Float64"  Name="f_15"  NumberOfComponents="3" format="ascii">9.9476277417256220e+00 0.0000000000000000e+00 0.0000000000000000e+00  9.9466967087649927e+00 1.0622684278605072e-02 0.0000000000000000e+00  9.9439665279770928e+00 2.1450812217286144e-02 0.0000000000000000e+00  9.9393866153181829e+00 3.2754008838501235e-02 0.0000000000000000e+00  9.9329527829701334e+00 4.4695513113687774e-02 0.0000000000000000e+00  9.9245923655978512e+00 5.7538727256428862e-02 0.0000000000000000e+00  9.9143360859801373e+00 7.1423198039489641e-02 0.0000000000000000e+00  9.9020719078671799e+00 8.6592078201314759e-02 0.0000000000000000e+00  9.8877995139927464e+00 1.0314536558052652e-01 0.0000000000000000e+00  9.8714712367313844e+00 1.2131185742898869e-01 0.0000000000000000e+00  9.8530473945436778e+00 1.4113545837627509e-01 0.0000000000000000e+00  9.8324823216267312e+00 1.6281806241781405e-01 0.0000000000000000e+00  9.8097904373720013e+00 1.8636833178601697e-01 0.0000000000000000e+00  9.7849241298156162e+00 2.1194069497989981e-01 0.0000000000000000e+00  9.7578860884553773e+00 2.3950115375468672e-01 0.0000000000000000e+00  9.7287093049324174e+00 2.6919126321620590e-01 0.0000000000000000e+00  9.6973818363333795e+00 3.0090649874271624e-01 0.0000000000000000e+00  9.6639462383430619e+00 3.3478064795040108e-01 0.0000000000000000e+00  9.6284480136229043e+00 3.7067413082420364e-01 0.0000000000000000e+00  9.5909377679770245e+00 4.0868659507372912e-01 0.0000000000000000e+00  9.5514438173900729e+00 4.4865063925106863e-01 0.0000000000000000e+00  9.5100859785955336e+00 4.9067507211769029e-01 0.0000000000000000e+00  9.4668829971042676e+00 5.3452420630826847e-01 0.0000000000000000e+00  9.4219394395649516e+00 5.8034212418418762e-01 0.0000000000000000e+00  9.3753261454365067e+00 6.2785303571233608e-01 0.0000000000000000e+00  9.3271430276802754e+00 6.7720035943934198e-01 0.0000000000000000e+00  9.2774280289245592e+00 7.2809388738954872e-01 0.0000000000000000e+00  9.2263316955889714e+00 7.8070543498322387e-01 0.0000000000000000e+00  9.1738843212087957e+00 8.3468096811137327e-01 0.0000000000000000e+00  9.1201901566265171e+00 8.9026377474609031e-01 0.0000000000000000e+00  9.0653347969353870e+00 9.4704631671716422e-01 0.0000000000000000e+00  9.0094022889659193e+00 1.0053006951944403e+00 0.0000000000000000e+00  8.9524389726155142e+00 1.0646069681390171e+00 0.0000000000000000e+00  8.8945670223075428e+00 1.1252743758248485e+00 0.0000000000000000e+00  8.8358288578786048e+00 1.1868217916302237e+00 0.0000000000000000e+00  8.7762862816883231e+00 1.2496481099334720e+00 0.0000000000000000e+00  8.7160394022149212e+00 1.3132008799664152e+00 0.0000000000000000e+00  8.6551198385759989e+00 1.3779345362903934e+00 0.0000000000000000e+00  8.5935999945694430e+00 1.4432733316979152e+00 0.0000000000000000e+00  8.5315330362457118e+00 1.5096989105568683e+00 0.0000000000000000e+00  8.4689911114922403e+00 1.5766209208806248e+00 0.0000000000000000e+00  8.4059794180584912e+00 1.6445300976461701e+00 0.0000000000000000e+00  8.3426137340068625e+00 1.7128746001209956e+00 0.0000000000000000e+00  8.2788613738767740e+00 1.7820638291430659e+00 0.0000000000000000e+00  8.2148482419494009e+00 1.8516962112247326e+00 0.0000000000000000e+00  8.1505268775907194e+00 1.9219755235322595e+00 0.0000000000000000e+00  8.0860237753495170e+00 1.9927772598957318e+00 0.0000000000000000e+00  8.0212896041479613e+00 2.0639987050971804e+00 0.0000000000000000e+00  7.9564470462482966e+00 2.1358133409061812e+00 0.0000000000000000e+00  7.8914138471018749e+00 2.2078966858409954e+00 0.0000000000000000e+00  7.8263709039879794e+00 2.2805726390650634e+00 0.0000000000000000e+00  7.7611772334607094e+00 2.3534152347808690e+00 0.0000000000000000e+00  7.6960025160430954e+00 2.4268410322921206e+00 0.0000000000000000e+00  7.6307796996408319e+00 2.5003800296878245e+00 0.0000000000000000e+00  7.5655979864183882e+00 2.5744020031990411e+00 0.0000000000000000e+00  7.5003808789030995e+00 2.6485800183066739e+00 0.0000000000000000e+00  7.4353113436875837e+00 2.7231424166053033e+00 0.0000000000000000e+00  7.3702199761723239e+00 2.7978266559507223e+00 0.0000000000000000e+00  7.3052641075778686e+00 2.8728670713899596e+00 0.0000000000000000e+00  7.2404117901837912e+00 2.9480196156318463e+00 0.0000000000000000e+00  7.1756808834157431e+00 3.0234429376614029e+00 0.0000000000000000e+00  7.1110474336693059e+00 3.0989870286314436e+00 0.0000000000000000e+00  7.0466455970938933e+00 3.1747527653005010e+00 0.0000000000000000e+00  6.9823341267334937e+00 3.2506238694325806e+00 0.0000000000000000e+00  6.9182289553631691e+00 3.3266959732297225e+00 0.0000000000000000e+00  6.8543309961252161e+00 3.4027991990388968e+00 0.0000000000000000e+00  6.7906171323646163e+00 3.4791280324117868e+00 0.0000000000000000e+00  6.7270960520310039e+00 3.5554927908348781e+00 0.0000000000000000e+00  6.6638528257166829e+00 3.6319618764592394e+00 0.0000000000000000e+00  6.6007883205072204e+00 3.7085107255078515e+00 0.0000000000000000e+00  6.5379873586884374e+00 3.7851733038439379e+00 0.0000000000000000e+00  6.4754410932632291e+00 3.8618354848704741e+00 0.0000000000000000e+00  6.4131510387185031e+00 3.9385960580438999e+00 0.0000000000000000e+00  6.3511000812654794e+00 4.0154022748925238e+00 0.0000000000000000e+00  6.2893735196541636e+00 4.0922103569956718e+00 0.0000000000000000e+00  6.2278675197028308e+00 4.1691018267451421e+00 0.0000000000000000e+00  6.1666974162867385e+00 4.2459641398654622e+00 0.0000000000000000e+00  6.1057723582837982e+00 4.3228939220614260e+00 0.0000000000000000e+00  6.0451993309700551e+00 4.3997614923413915e+00 0.0000000000000000e+00  5.9848570314371203e+00 4.4767308108759494e+00 0.0000000000000000e+00  5.9249110751413632e+00 4.5535685959974046e+00 0.0000000000000000e+00  5.8651795438756631e+00 4.6305369761447874e+00 0.0000000000000000e+00  5.8058746671812855e+00 4.7073273753159492e+00 0.0000000000000000e+00  5.7467798927713467e+00 4.7842566090455509e+00 0.0000000000000000e+00  5.6881355900137258e+00 4.8609739060401065e+00 0.0000000000000000e+00  5.6296987784169987e+00 4.9378363520893105e+00 0.0000000000000000e+00  5.5717405205727060e+00 5.0144459564649679e+00 0.0000000000000000e+00  5.5139747164098436e+00 5.0912139919638637e+00 0.0000000000000000e+00  5.4567230427807161e+00 5.1676863750861832e+00 0.0000000000000000e+00  5.3996649096787230e+00 5.2443104640510692e+00 0.0000000000000000e+00  5.3431220714230543e+00 5.3206345500163410e+00 0.0000000000000000e+00  5.2867872476913007e+00 5.3970942847656023e+00 0.0000000000000000e+00  5.2309731902645504e+00 5.4732352765748171e+00 0.0000000000000000e+00  5.1753876983949860e+00 5.5494880609718118e+00 0.0000000000000000e+00  5.1203291507268016e+00 5.6253991193740784e+00 0.0000000000000000e+00  5.0655741266747913e+00 5.7013298509885963e+00 0.0000000000000000e+00  5.0112553978332652e+00 5.7770235587553520e+00 0.0000000000000000e+00  4.9573933817468596e+00 5.8525263499745357e+00 0.0000000000000000e+00  4.9039083996312200e+00 5.9278863602786327e+00 0.0000000000000000e+00  4.8509009001752679e+00 6.0029813681617030e+00 0.0000000000000000e+00  4.7983059265521106e+00 6.0779151709257579e+00 0.0000000000000000e+00  4.7462137571149547e+00 6.1525014754977532e+00 0.0000000000000000e+00  4.6946722334283058e+00 6.2267491833796598e+00 0.0000000000000000e+00  4.6436479930071455e+00 6.3005987500382510e+00 0.0000000000000000e+00  4.5932536053981572e+00 6.3740005942090994e+00 0.0000000000000000e+00  4.5434450157547355e+00 6.4468848825688374e+00 0.0000000000000000e+00  4.4942976836700668e+00 6.5192506701730739e+00 0.0000000000000000e+00  4.4459200034319952e+00 6.5908049759598999e+00 0.0000000000000000e+00  4.3981286027839470e+00 6.6619253461853791e+00 0.0000000000000000e+00  4.3514905076667070e+00 6.7316582354452406e+00 0.0000000000000000e+00  4.3059735551814686e+00 6.8001238589159350e+00 0.0000000000000000e+00  4.2618475804346287e+00 6.8668088871856909e+00 0.0000000000000000e+00  4.2193604901503647e+00 6.9313666756829146e+00 0.0000000000000000e+00  4.1789865226058689e+00 6.9929764115432089e+00 0.0000000000000000e+00  4.1412774270586699e+00 7.0507931879612258e+00 0.0000000000000000e+00  4.1070367512579322e+00 7.1035010327094135e+00 0.0000000000000000e+00  4.0769515870357846e+00 7.1499992589887258e+00 0.0000000000000000e+00  4.0515640452240076e+00 7.1893657223113108e+00 0.0000000000000000e+00  4.0307550371783440e+00 7.2217099206409650e+00 0.0000000000000000e+00  4.0140645872259739e+00 7.2476970072183224e+00 0.0000000000000000e+00  4.0007235218238977e+00 7.2684761764216868e+00 0.0000000000000000e+00  3.9902358165100402e+00 7.2848244241536451e+00 0.0000000000000000e+00  3.9821190347976545e+00 7.2974592827686191e+00 0.0000000000000000e+00  3.9760880599916617e+00 7.3068459774359553e+00 0.0000000000000000e+00  3.9716891917073736e+00 7.3136597059637447e+00 0.0000000000000000e+00  3.9685945474222080e+00 7.3184391922120771e+00 0.0000000000000000e+00  3.9663863244248394e+00 7.3218096681444624e+00 0.0000000000000000e+00  3.9648440410328516e+00 7.3241438920499391e+00 0.0000000000000000e+00  3.9637132096406646e+00 7.3258167692223575e+00 0.0000000000000000e+00  3.9629063463984284e+00 7.3269897134378095e+00 0.0000000000000000e+00  3.9622872572312091e+00 7.3278564399898576e+00 0.0000000000000000e+00  3.9618325249717334e+00 7.3284713307119844e+00 0.0000000000000000e+00  3.9614644349738430e+00 7.3289398883757739e+00 0.0000000000000000e+00  3.9611825254138529e+00 7.3292755207015565e+00 0.0000000000000000e+00  3.9609412383151299e+00 7.3295374734271661e+00 0.0000000000000000e+00  3.9607481742954667e+00 7.3297237968250890e+00 0.0000000000000000e+00  3.9605766249505825e+00 7.3298685499180296e+00 0.0000000000000000e+00  3.9604347733890735e+00 7.3299660424321367e+00 0.0000000000000000e+00  3.9603063754770296e+00 7.3300369243103747e+00 0.0000000000000000e+00  3.9601968831524181e+00 7.3300773001228947e+00 0.0000000000000000e+00  3.9600960572540052e+00 7.3300997471180951e+00 0.0000000000000000e+00  3.9600066697137311e+00 7.3301027098166056e+00 0.0000000000000000e+00  3.9599222648016199e+00 7.3300939489091732e+00 0.0000000000000000e+00  3.9598442087579437e+00 7.3300727005956876e+00 0.0000000000000000e+00  3.9597688297745406e+00 7.3300434547126532e+00 0.0000000000000000e+00  3.9596968444780973e+00 7.3300056468349659e+00 0.0000000000000000e+00  3.9596263310580158e+00 7.3299610723886452e+00 0.0000000000000000e+00  3.9595576599614755e+00 7.3299084847803302e+00 0.0000000000000000e+00  3.9594896401536928e+00 7.3298474702631431e+00 0.0000000000000000e+00  3.9594224533723201e+00 7.3297744811576058e+00 0.0000000000000000e+00  3.9593552756919372e+00 7.3296862465003549e+00 0.0000000000000000e+00  3.9592881081584030e+00 7.3295759866219532e+00 0.0000000000000000e+00  3.9592203835817368e+00 7.3294364661070368e+00 0.0000000000000000e+00  3.9591520538384506e+00 7.3292569684956339e+00 0.0000000000000000e+00  3.9590826491577302e+00 7.3290264298372172e+00 0.0000000000000000e+00  3.9590121529607281e+00 7.3287300951004557e+00 0.0000000000000000e+00  3.9589402314324191e+00 7.3283541372981009e+00 0.0000000000000000e+00  3.9588667994486437e+00 7.3278816875130390e+00 0.0000000000000000e+00  3.9587916820765812e+00 7.3272983335614263e+00 0.0000000000000000e+00  3.9587147514980687e+00 7.3265884052864214e+00 0.0000000000000000e+00  3.9586358096208567e+00 7.3257409612840734e+00 0.0000000000000000e+00  3.9585547714213352e+00 7.3247453162919616e+00 0.0000000000000000e+00  3.9584713501009392e+00 7.3235982824929522e+00 0.0000000000000000e+00  3.9583855094440157e+00 7.3222979086312971e+00 0.0000000000000000e+00  3.9582967584656337e+00 7.3208513004961526e+00 0.0000000000000000e+00  3.9582053074942967e+00 7.3192669067619773e+00 0.0000000000000000e+00  3.9581098633361540e+00 7.3175620332567854e+00 0.0000000000000000e+00  3.9580111391529020e+00 7.3157539718017190e+00 0.0000000000000000e+00  3.9579056037068825e+00 7.3138659212637052e+00 0.0000000000000000e+00  3.9577944372557474e+00 7.3119202508414984e+00 0.0000000000000000e+00  3.9576675366803080e+00 7.3099350369794003e+00 0.0000000000000000e+00  3.9575258439300578e+00 7.3079318670847035e+00 0.0000000000000000e+00  3.9573385627332160e+00 7.3058976218511988e+00 0.0000000000000000e+00  3.9571021166219005e+00 7.3038415482402002e+00 0.0000000000000000e+00  3.9567197610744311e+00 7.3016452154571354e+00 0.0000000000000000e+00  3.9561628763753873e+00 7.2992704864147502e+00 0.0000000000000000e+00  3.9551224465960666e+00 7.2962620418209312e+00 0.0000000000000000e+00  3.9534568771117877e+00 7.2923984747836670e+00 0.0000000000000000e+00  3.9501611632478690e+00 7.2861315682715961e+00 0.0000000000000000e+00  3.9446281967374524e+00 7.2765208797659486e+00 0.0000000000000000e+00  3.9335475541487930e+00 7.2583996428044033e+00 0.0000000000000000e+00  3.9144562494946733e+00 7.2279121321898332e+00 0.0000000000000000e+00  3.8764985918852988e+00 7.1677530209173961e+00 0.0000000000000000e+00  3.8109034639090567e+00 7.0630839273471313e+00 0.0000000000000000e+00  3.6837619506094579e+00 6.8553126199131009e+00 0.0000000000000000e+00  3.4707685995011515e+00 6.4909831312461987e+00 0.0000000000000000e+00  3.0894875922942204e+00 5.7816430191370713e+00 0.0000000000000000e+00  2.5332081589043391e+00 4.5894224977797320e+00 0.0000000000000000e+00  1.7189933240084745e+00 2.3489107130441162e+00 0.0000000000000000e+00  1.1272497490820459e+00 3.9813593450807822e-01 0.0000000000000000e+00  1.0083476713555324e+00 2.6854563259544700e-02 0.0000000000000000e+00  1.0003005636374644e+00 1.8045525136862414e-03 0.0000000000000000e+00  1.0000744417894509e+00 1.8583944640938702e-05 0.0000000000000000e+00  9.9999971579356828e-01 2.2030734900151592e-05 0.0000000000000000e+00  9.9999712102123528e-01 9.7386510839876651e-06 0.0000000000000000e+00  1.0000023095004493e+00 -6.0475812362699532e-06 0.0000000000000000e+00  9.9999882814186480e-01 2.8185198322805413e-06 0.0000000000000000e+00  1.0000004945171788e+00 -8.7923309493257371e-07 0.0000000000000000e+00  9.9999943247418988e-01 5.2952659776051594e-07 0.0000000000000000e+00  1.0000002427010746e+00 3.3919260538268061e-08 0.0000000000000000e+00  9.9999941697202976e-01 0.0000000000000000e+00 0.0000000000000000e+00  9.9476189461444626e+00 0.0000000000000000e+00 6.2891446259460291e-07  9.9466931063260162e+00 1.0612713510301703e-02 3.1576902704890848e-06  9.9439739030096099e+00 2.1452088682289268e-02 -4.8607231791595014e-07  9.9393901991366427e+00 3.2740305849259889e-02 1.5293398448601705e-06  9.9329411902071829e+00 4.4691607555303547e-02 -2.5815563730569888e-06  9.9246083946624655e+00 5.7519832050948273e-02 2.2038343258053829e-06  9.9143307365213431e+00 7.1414217311777772e-02 -3.2842400066606297e-06  9.9020667096181345e+00 8.6563798488627108e-02 2.1686424328846353e-06  9.8878043748279474e+00 1.0313414617187248e-01 -3.6250651445940310e-06  9.8714679186368830e+00 1.2127530702302911e-01 2.6165534626310785e-06  9.8530315563957060e+00 1.4111489037436153e-01 -4.3072763180836565e-06  9.8324827134632820e+00 1.6277882569966898e-01 3.0419622589651228e-06  9.8097767813747154e+00 1.8634016044285487e-01 -4.3446729467241556e-06  9.7848996104585133e+00 2.1188908628617378e-01 2.9400402094511766e-06  9.7578749171268306e+00 2.3947422456106032e-01 -4.0998912169787913e-06  9.7286829717724927e+00 2.6912776958157947e-01 2.9831405755098772e-06  9.6973470310425096e+00 3.0087128715634409e-01 -3.8816152120023386e-06  9.6639169588281089e+00 3.3471552389581211e-01 2.8268047564093372e-06  9.6284135384860186e+00 3.7063086157234754e-01 -3.1626943510265068e-06  9.5908821281649086e+00 4.0860977457743930e-01 2.1802461494892953e-06  9.5514065107309509e+00 4.4861303626628035e-01 -2.1005895109367440e-06  9.5100304818226729e+00 4.9058307820443126e-01 1.2412855468501210e-06  9.4668207481057216e+00 5.3448552367211744e-01 -6.4092940641983508e-07  9.4218799324924909e+00 5.8024887279425974e-01 -4.2511339905417662e-07  9.3752674704195442e+00 6.2780853528976144e-01 1.6777490919180856e-06  9.3270594585933644e+00 6.7709972977146271e-01 -2.9457102013784993e-06  9.2773662672936759e+00 7.2806055791012869e-01 4.4512784689347393e-06  9.2262563616188906e+00 7.8058791284122586e-01 -5.7450751176422514e-06  9.1737993262218112e+00 8.3465662628567017e-01 7.6532364531733180e-06  9.1201156598394153e+00 8.9014539724422970e-01 -9.7332193265785356e-06  9.0652603052265590e+00 9.4702073442070067e-01 1.2442467396175805e-05  9.0093099468790516e+00 1.0051793730730150e+00 -1.4714415499819812e-05  8.9523655115513545e+00 1.0645974736740913e+00 1.6694348098061233e-05  8.8944918995795650e+00 1.1251373531005087e+00 -1.8556396440017942e-05  8.8357381069880940e+00 1.1868292151363535e+00 2.1563597734185146e-05  8.7762190753695055e+00 1.2495088636757481e+00 -2.6262024956212515e-05  8.7159632453796121e+00 1.3132153123469159e+00 3.1927279913365477e-05  8.6550454706627704e+00 1.3777941473905406e+00 -3.7627590276077661e-05  8.5935285948630824e+00 1.4433022359666436e+00 4.3007109154323137e-05  8.5314783183710645e+00 1.5095563731865222e+00 -4.9805749741850887e-05  8.4689122396705283e+00 1.5766568723773744e+00 5.8999441309471282e-05  8.4059379394361944e+00 1.6443985130682499e+00 -7.0207887033204498e-05  8.3425424743022170e+00 1.7129077925986023e+00 8.0393682309329941e-05  8.2788276392958480e+00 1.7819544779849810e+00 -8.6691222569645183e-05  8.2147828276488202e+00 1.8517076740054161e+00 8.7731948920309521e-05  8.1504996469252209e+00 1.9219143463796986e+00 -8.3404874365445827e-05  8.0859691706203947e+00 1.9927518678727365e+00 7.4674254768241724e-05  8.0212708111168851e+00 2.0639755168719787e+00 -6.0892121785242175e-05  7.9563872102221724e+00 2.1357773810264593e+00 4.3295438439174185e-05  7.8914139975756346e+00 2.2078985714497628e+00 -2.1461698747807343e-05  7.8263208991771647e+00 2.2805089388746547e+00 -6.7549502482974425e-07  7.7611560884138200e+00 2.3534639034244988e+00 2.1971813630529375e-05  7.6959863625464591e+00 2.4267632092123224e+00 -3.6582077728344225e-05  7.6307599160038730e+00 2.5004206243968610e+00 4.5574836894856192e-05  7.5655572532429947e+00 2.5743527091949128e+00 -4.7074790088811423e-05  7.5003958786008775e+00 2.6486253523600829e+00 4.7672171070836120e-05  7.4352771314848729e+00 2.7230726280429529e+00 -4.5144217242908368e-05  7.3701973240517287e+00 2.7978869378598992e+00 4.2137784581991098e-05  7.3052747041806088e+00 2.8728224304017917e+00 -3.3260100723578719e-05  7.2403925220051057e+00 2.9480461504538606e+00 2.5908134837493174e-05  7.1756516472132086e+00 3.0234149744780940e+00 -1.9427697909628671e-05  7.1110746872350132e+00 3.0990110610020376e+00 1.8018655353009232e-05  7.0466214206121549e+00 3.1747316487126480e+00 -1.1952056473510357e-05  6.9823204696627119e+00 3.2506437086430870e+00 6.0410572212785072e-06  6.9182511718848927e+00 3.3266501421962440e+00 -2.1070160386896313e-07  6.8543224253219357e+00 3.4028333081290083e+00 2.4214733421764515e-06  6.7906024898782986e+00 3.4791123130950603e+00 -1.6210125210324187e-06  6.7271277760161015e+00 3.5554641057447358e+00 1.5536381514769867e-07  6.6638431982162309e+00 3.6319567097069125e+00 4.8425950308331170e-06  6.6007884280349023e+00 3.7085242791171664e+00 -2.7350971350294562e-06  6.5380087748515452e+00 3.7851330668730818e+00 3.2769988672181279e-06  6.4754444892556347e+00 3.8618319927274318e+00 -1.2904265704002629e-06  6.4131451009236828e+00 3.9385977640891259e+00 3.2250544674892182e-06  6.3511260894983117e+00 4.0153759707371570e+00 2.2619587308267273e-07  6.2893648585783568e+00 4.0922206776773802e+00 1.6260367171682445e-06  6.2278764831664368e+00 4.1690919538879001e+00 4.3881646772594874e-07  6.1666968967061520e+00 4.2459675703595714e+00 5.5961104734337800e-07  6.1057832614949241e+00 4.3228816921984086e+00 2.5190048733986405e-06  6.0451839813814123e+00 4.3997905626658023e+00 -9.3870921970739935e-07  5.9848780421813990e+00 4.4767048047416882e+00 2.1279610041762161e-06  5.9248913238876266e+00 4.5536026050650387e+00 -1.4227426394494703e-06  5.8652031359004599e+00 4.6305044793693124e+00 1.4965712834570983e-06  5.8058542542688265e+00 4.7073600417278856e