<?xml version="1.0"?>
<VTKFile type="UnstructuredGrid"  version="0.1"  >
<UnstructuredGrid>
<Piece  NumberOfPoints="8241" NumberOfCells="16000">
<Points>
<DataArray  type="Float64"  NumberOfComponents="3"  format="ascii">-5 -1 0  -4.95 -1 0  -4.9 -1 0  -4.85 -1 0  -4.8 -1 0  -4.75 -1 0  -4.7 -1 0  -4.65 -1 0  -4.6 -1 0  -4.55 -1 0  -4.5 -1 0  -4.45 -1 0  -4.4 -1 0  -4.35 -1 0  -4.3 -1 0  -4.25 -1 0  -4.2 -1 0  -4.15 -1 0  -4.1 -1 0  -4.05 -1 0  -4 -1 0  -3.95 -1 0  -3.9 -1 0  -3.85 -1 0  -3.8 -1 0  -3.75 -1 0  -3.7 -1 0  -3.65 -1 0  -3.6 -1 0  -3.55 -1 0  -3.5 -1 0  -3.45 -1 0  -3.4 -1 0  -3.35 -1 0  -3.3 -1 0  -3.25 -1 0  -3.2 -1 0  -3.15 -1 0  -3.1 -1 0  -3.05 -1 0  -3 -1 0  -2.95 -1 0  -2.9 -1 0  -2.85 -1 0  -2.8 -1 0  -2.75 -1 0  -2.7 -1 0  -2.65 -1 0  -2.6 -1 0  -2.55 -1 0  -2.5 -1 0  -2.45 -1 0  -2.4 -1 0  -2.35 -1 0  -2.3 -1 0  -2.25 -1 0  -2.2 -1 0  -2.15 -1 0  -2.1 -1 0  -2.05 -1 0  -2 -1 0  -1.95 -1 0  -1.9 -1 0  -1.85 -1 0  -1.8 -1 0  -1.75 -1 0  -1.7 -1 0  -1.65 -1 0  -1.6 -1 0  -1.55 -1 0  -1.5 -1 0  -1.45 -1 0  -1.4 -1 0  -1.35 -1 0  -1.3 -1 0  -1.25 -1 0  -1.2 -1 0  -1.15 -1 0  -1.1 -1 0  -1.05 -1 0  -1 -1 0  -0.9500000000000002 -1 0  -0.9000000000000004 -1 0  -0.8499999999999996 -1 0  -0.7999999999999998 -1 0  -0.75 -1 0  -0.7000000000000002 -1 0  -0.6500000000000004 -1 0  -0.5999999999999996 -1 0  -0.5499999999999998 -1 0  -0.5 -1 0  -0.4500000000000002 -1 0  -0.4000000000000004 -1 0  -0.3499999999999996 -1 0  -0.2999999999999998 -1 0  -0.25 -1 0  -0.2000000000000002 -1 0  -0.1500000000000004 -1 0  -0.09999999999999964 -1 0  -0.04999999999999982 -1 0  0 -1 0  0.04999999999999982 -1 0  0.09999999999999964 -1 0  0.1500000000000004 -1 0  0.2000000000000002 -1 0  0.25 -1 0  0.2999999999999998 -1 0  0.3499999999999996 -1 0  0.4000000000000004 -1 0  0.4500000000000002 -1 0  0.5 -1 0  0.5499999999999998 -1 0  0.5999999999999996 -1 0  0.6500000000000004 -1 0  0.7000000000000002 -1 0  0.75 -1 0  0.7999999999999998 -1 0  0.8499999999999996 -1 0  0.9000000000000004 -1 0  0.9500000000000002 -1 0  1 -1 0  1.05 -1 0  1.1 -1 0  1.15 -1 0  1.2 -1 0  1.25 -1 0  1.3 -1 0  1.35 -1 0  1.4 -1 0  1.45 -1 0  1.5 -1 0  1.55 -1 0  1.6 -1 0  1.65 -1 0  1.7 -1 0  1.75 -1 0  1.8 -1 0  1.85 -1 0  1.9 -1 0  1.95 -1 0  2 -1 0  2.05 -1 0  2.1 -1 0  2.15 -1 0  2.2 -1 0  2.25 -1 0  2.3 -1 0  2.35 -1 0  2.4 -1 0  2.45 -1 0  2.5 -1 0  2.55 -1 0  2.6 -1 0  2.65 -1 0  2.7 -1 0  2.75 -1 0  2.8 -1 0  2.85 -1 0  2.9 -1 0  2.95 -1 0  3 -1 0  3.050000000000001 -1 0  3.1 -1 0  3.15 -1 0  3.199999999999999 -1 0  3.25 -1 0  3.300000000000001 -1 0  3.35 -1 0  3.4 -1 0  3.449999999999999 -1 0  3.5 -1 0  3.550000000000001 -1 0  3.6 -1 0  3.65 -1 0  3.699999999999999 -1 0  3.75 -1 0  3.800000000000001 -1 0  3.85 -1 0  3.9 -1 0  3.949999999999999 -1 0  4 -1 0  4.050000000000001 -1 0  4.1 -1 0  4.15 -1 0  4.199999999999999 -1 0  4.25 -1 0  4.300000000000001 -1 0  4.35 -1 0  4.4 -1 0  4.449999999999999 -1 0  4.5 -1 0  4.550000000000001 -1 0  4.6 -1 0  4.65 -1 0  4.699999999999999 -1 0  4.75 -1 0  4.800000000000001 -1 0  4.85 -1 0  4.9 -1 0  4.949999999999999 -1 0  5 -1 0  -5 -0.95 0  -4.95 -0.95 0  -4.9 -0.95 0  -4.85 -0.95 0  -4.8 -0.95 0  -4.75 -0.95 0  -4.7 -0.95 0  -4.65 -0.95 0  -4.6 -0.95 0  -4.55 -0.95 0  -4.5 -0.95 0  -4.45 -0.95 0  -4.4 -0.95 0  -4.35 -0.95 0  -4.3 -0.95 0  -4.25 -0.95 0  -4.2 -0.95 0  -4.15 -0.95 0  -4.1 -0.95 0  -4.05 -0.95 0  -4 -0.95 0  -3.95 -0.95 0  -3.9 -0.95 0  -3.85 -0.95 0  -3.8 -0.95 0  -3.75 -0.95 0  -3.7 -0.95 0  -3.65 -0.95 0  -3.6 -0.95 0  -3.55 -0.95 0  -3.5 -0.95 0  -3.45 -0.95 0  -3.4 -0.95 0  -3.35 -0.95 0  -3.3 -0.95 0  -3.25 -0.95 0  -3.2 -0.95 0  -3.15 -0.95 0  -3.1 -0.95 0  -3.05 -0.95 0  -3 -0.95 0  -2.95 -0.95 0  -2.9 -0.95 0  -2.85 -0.95 0  -2.8 -0.95 0  -2.75 -0.95 0  -2.7 -0.95 0  -2.65 -0.95 0  -2.6 -0.95 0  -2.55 -0.95 0  -2.5 -0.95 0  -2.45 -0.95 0  -2.4 -0.95 0  -2.35 -0.95 0  -2.3 -0.95 0  -2.25 -0.95 0  -2.2 -0.95 0  -2.15 -0.95 0  -2.1 -0.95 0  -2.05 -0.95 0  -2 -0.95 0  -1.95 -0.95 0  -1.9 -0.95 0  -1.85 -0.95 0  -1.8 -0.95 0  -1.75 -0.95 0  -1.7 -0.95 0  -1.65 -0.95 0  -1.6 -0.95 0  -1.55 -0.95 0  -1.5 -0.95 0  -1.45 -0.95 0  -1.4 -0.95 0  -1.35 -0.95 0  -1.3 -0.95 0  -1.25 -0.95 0  -1.2 -0.95 0  -1.15 -0.95 0  -1.1 -0.95 0  -1.05 -0.95 0  -1 -0.95 0  -0.9500000000000002 -0.95 0  -0.9000000000000004 -0.95 0  -0.8499999999999996 -0.95 0  -0.7999999999999998 -0.95 0  -0.75 -0.95 0  -0.7000000000000002 -0.95 0  -0.6500000000000004 -0.95 0  -0.5999999999999996 -0.95 0  -0.5499999999999998 -0.95 0  -0.5 -0.95 0  -0.4500000000000002 -0.95 0  -0.4000000000000004 -0.95 0  -0.3499999999999996 -0.95 0  -0.2999999999999998 -0.95 0  -0.25 -0.95 0  -0.2000000000000002 -0.95 0  -0.1500000000000004 -0.95 0  -0.09999999999999964 -0.95 0  -0.04999999999999982 -0.95 0  0 -0.95 0  0.04999999999999982 -0.95 0  0.09999999999999964 -0.95 0  0.1500000000000004 -0.95 0  0.2000000000000002 -0.95 0  0.25 -0.95 0  0.2999999999999998 -0.95 0  0.3499999999999996 -0.95 0  0.4000000000000004 -0.95 0  0.4500000000000002 -0.95 0  0.5 -0.95 0  0.5499999999999998 -0.95 0  0.5999999999999996 -0.95 0  0.6500000000000004 -0.95 0  0.7000000000000002 -0.95 0  0.75 -0.95 0  0.7999999999999998 -0.95 0  0.8499999999999996 -0.95 0  0.9000000000000004 -0.95 0  0.9500000000000002 -0.95 0  1 -0.95 0  1.05 -0.95 0  1.1 -0.95 0  1.15 -0.95 0  1.2 -0.95 0  1.25 -0.95 0  1.3 -0.95 0  1.35 -0.95 0  1.4 -0.95 0  1.45 -0.95 0  1.5 -0.95 0  1.55 -0.95 0  1.6 -0.95 0  1.65 -0.95 0  1.7 -0.95 0  1.75 -0.95 0  1.8 -0.95 0  1.85 -0.95 0  1.9 -0.95 0  1.95 -0.95 0  2 -0.95 0  2.05 -0.95 0  2.1 -0.95 0  2.15 -0.95 0  2.2 -0.95 0  2.25 -0.95 0  2.3 -0.95 0  2.35 -0.95 0  2.4 -0.95 0  2.45 -0.95 0  2.5 -0.95 0  2.55 -0.95 0  2.6 -0.95 0  2.65 -0.95 0  2.7 -0.95 0  2.75 -0.95 0  2.8 -0.95 0  2.85 -0.95 0  2.9 -0.95 0  2.95 -0.95 0  3 -0.95 0  3.050000000000001 -0.95 0  3.1 -0.95 0  3.15 -0.95 0  3.199999999999999 -0.95 0  3.25 -0.95 0  3.300000000000001 -0.95 0  3.35 -0.95 0  3.4 -0.95 0  3.449999999999999 -0.95 0  3.5 -0.95 0  3.550000000000001 -0.95 0  3.6 -0.95 0  3.65 -0.95 0  3.699999999999999 -0.95 0  3.75 -0.95 0  3.800000000000001 -0.95 0  3.85 -0.95 0  3.9 -0.95 0  3.949999999999999 -0.95 0  4 -0.95 0  4.050000000000001 -0.95 0  4.1 -0.95 0  4.15 -0.95 0  4.199999999999999 -0.95 0  4.25 -0.95 0  4.300000000000001 -0.95 0  4.35 -0.95 0  4.4 -0.95 0  4.449999999999999 -0.95 0  4.5 -0.95 0  4.550000000000001 -0.95 0  4.6 -0.95 0  4.65 -0.95 0  4.699999999999999 -0.95 0  4.75 -0.95 0  4.800000000000001 -0.95 0  4.85 -0.95 0  4.9 -0.95 0  4.949999999999999 -0.95 0  5 -0.95 0  -5 -0.9 0  -4.95 -0.9 0  -4.9 -0.9 0  -4.85 -0.9 0  -4.8 -0.9 0  -4.75 -0.9 0  -4.7 -0.9 0  -4.65 -0.9 0  -4.6 -0.9 0  -4.55 -0.9 0  -4.5 -0.9 0  -4.45 -0.9 0  -4.4 -0.9 0  -4.35 -0.9 0  -4.3 -0.9 0  -4.25 -0.9 0  -4.2 -0.9 0  -4.15 -0.9 0  -4.1 -0.9 0  -4.05 -0.9 0  -4 -0.9 0  -3.95 -0.9 0  -3.9 -0.9 0  -3.85 -0.9 0  -3.8 -0.9 0  -3.75 -0.9 0  -3.7 -0.9 0  -3.65 -0.9 0  -3.6 -0.9 0  -3.55 -0.9 0  -3.5 -0.9 0  -3.45 -0.9 0  -3.4 -0.9 0  -3.35 -0.9 0  -3.3 -0.9 0  -3.25 -0.9 0  -3.2 -0.9 0  -3.15 -0.9 0  -3.1 -0.9 0  -3.05 -0.9 0  -3 -0.9 0  -2.95 -0.9 0  -2.9 -0.9 0  -2.85 -0.9 0  -2.8 -0.9 0  -2.75 -0.9 0  -2.7 -0.9 0  -2.65 -0.9 0  -2.6 -0.9 0  -2.55 -0.9 0  -2.5 -0.9 0  -2.45 -0.9 0  -2.4 -0.9 0  -2.35 -0.9 0  -2.3 -0.9 0  -2.25 -0.9 0  -2.2 -0.9 0  -2.15 -0.9 0  -2.1 -0.9 0  -2.05 -0.9 0  -2 -0.9 0  -1.95 -0.9 0  -1.9 -0.9 0  -1.85 -0.9 0  -1.8 -0.9 0  -1.75 -0.9 0  -1.7 -0.9 0  -1.65 -0.9 0  -1.6 -0.9 0  -1.55 -0.9 0  -1.5 -0.9 0  -1.45 -0.9 0  -1.4 -0.9 0  -1.35 -0.9 0  -1.3 -0.9 0  -1.25 -0.9 0  -1.2 -0.9 0  -1.15 -0.9 0  -1.1 -0.9 0  -1.05 -0.9 0  -1 -0.9 0  -0.9500000000000002 -0.9 0  -0.9000000000000004 -0.9 0  -0.8499999999999996 -0.9 0  -0.7999999999999998 -0.9 0  -0.75 -0.9 0  -0.7000000000000002 -0.9 0  -0.6500000000000004 -0.9 0  -0.5999999999999996 -0.9 0  -0.5499999999999998 -0.9 0  -0.5 -0.9 0  -0.4500000000000002 -0.9 0  -0.4000000000000004 -0.9 0  -0.3499999999999996 -0.9 0  -0.2999999999999998 -0.9 0  -0.25 -0.9 0  -0.2000000000000002 -0.9 0  -0.1500000000000004 -0.9 0  -0.09999999999999964 -0.9 0  -0.04999999999999982 -0.9 0  0 -0.9 0  0.04999999999999982 -0.9 0  0.09999999999999964 -0.9 0  0.1500000000000004 -0.9 0  0.2000000000000002 -0.9 0  0.25 -0.9 0  0.2999999999999998 -0.9 0  0.3499999999999996 -0.9 0  0.4000000000000004 -0.9 0  0.4500000000000002 -0.9 0  0.5 -0.9 0  0.5499999999999998 -0.9 0  0.5999999999999996 -0.9 0  0.6500000000000004 -0.9 0  0.7000000000000002 -0.9 0  0.75 -0.9 0  0.7999999999999998 -0.9 0  0.8499999999999996 -0.9 0  0.9000000000000004 -0.9 0  0.9500000000000002 -0.9 0  1 -0.9 0  1.05 -0.9 0  1.1 -0.9 0  1.15 -0.9 0  1.2 -0.9 0  1.25 -0.9 0  1.3 -0.9 0  1.35 -0.9 0  1.4 -0.9 0  1.45 -0.9 0  1.5 -0.9 0  1.55 -0.9 0  1.6 -0.9 0  1.65 -0.9 0  1.7 -0.9 0  1.75 -0.9 0  1.8 -0.9 0  1.85 -0.9 0  1.9 -0.9 0  1.95 -0.9 0  2 -0.9 0  2.05 -0.9 0  2.1 -0.9 0  2.15 -0.9 0  2.2 -0.9 0  2.25 -0.9 0  2.3 -0.9 0  2.35 -0.9 0  2.4 -0.9 0  2.45 -0.9 0  2.5 -0.9 0  2.55 -0.9 0  2.6 -0.9 0  2.65 -0.9 0  2.7 -0.9 0  2.75 -0.9 0  2.8 -0.9 0  2.85 -0.9 0  2.9 -0.9 0  2.95 -0.9 0  3 -0.9 0  3.050000000000001 -0.9 0  3.1 -0.9 0  3.15 -0.9 0  3.199999999999999 -0.9 0  3.25 -0.9 0  3.300000000000001 -0.9 0  3.35 -0.9 0  3.4 -0.9 0  3.449999999999999 -0.9 0  3.5 -0.9 0  3.550000000000001 -0.9 0  3.6 -0.9 0  3.65 -0.9 0  3.699999999999999 -0.9 0  3.75 -0.9 0  3.800000000000001 -0.9 0  3.85 -0.9 0  3.9 -0.9 0  3.949999999999999 -0.9 0  4 -0.9 0  4.050000000000001 -0.9 0  4.1 -0.9 0  4.15 -0.9 0  4.199999999999999 -0.9 0  4.25 -0.9 0  4.300000000000001 -0.9 0  4.35 -0.9 0  4.4 -0.9 0  4.449999999999999 -0.9 0  4.5 -0.9 0  4.550000000000001 -0.9 0  4.6 -0.9 0  4.65 -0.9 0  4.699999999999999 -0.9 0  4.75 -0.9 0  4.800000000000001 -0.9 0  4.85 -0.9 0  4.9 -0.9 0  4.949999999999999 -0.9 0  5 -0.9 0  -5 -0.85 0  -4.95 -0.85 0  -4.9 -0.85 0  -4.85 -0.85 0  -4.8 -0.85 0  -4.75 -0.85 0  -4.7 -0.85 0  -4.65 -0.85 0  -4.6 -0.85 0  -4.55 -0.85 0  -4.5 -0.85 0  -
[...]
<PointData  Vectors="f_15"> 
<DataArray  type="Float64"  Name="f_15"  NumberOfComponents="3" format="ascii">2.4971004666417835e+00 0.0000000000000000e+00 0.0000000000000000e+00  2.5028851137267827e+00 4.6316105274798701e-02 0.0000000000000000e+00  2.4983538321659364e+00 8.1354321284369271e-02 0.0000000000000000e+00  2.5020065761737791e+00 9.5519943182976894e-02 0.0000000000000000e+00  2.4985272405080168e+00 1.4636720426966626e-01 0.0000000000000000e+00  2.5028561772799192e+00 1.7282658915800617e-01 0.0000000000000000e+00  2.4978887023003002e+00 2.0633923479590457e-01 0.0000000000000000e+00  2.5028136909704082e+00 2.5252884878864906e-01 0.0000000000000000e+00  2.4988248869980478e+00 2.7064848970927763e-01 0.0000000000000000e+00  2.5018858913734676e+00 3.1671125688281027e-01 0.0000000000000000e+00  2.4990479857057748e+00 3.5743148207484143e-01 0.0000000000000000e+00  2.5024290131043729e+00 3.7142690551068663e-01 0.0000000000000000e+00  2.4982122248353518e+00 4.2371450909785779e-01 0.0000000000000000e+00  2.5025634704473680e+00 4.7040290503427606e-01 0.0000000000000000e+00  2.4984903322879810e+00 4.5376571890603878e-01 0.0000000000000000e+00  2.5021359131571566e+00 5.6261770327644822e-01 0.0000000000000000e+00  2.4981151557184109e+00 5.3575753946882010e-01 0.0000000000000000e+00  2.5026185335665896e+00 5.9698262358971765e-01 0.0000000000000000e+00  2.4976149405803612e+00 6.3823886945067621e-01 0.0000000000000000e+00  2.5019760552886989e+00 6.5670198895641152e-01 0.0000000000000000e+00  2.4984051535158804e+00 7.0108413861783114e-01 0.0000000000000000e+00  2.5009385414380731e+00 7.2795701905151122e-01 0.0000000000000000e+00  2.4983476076770588e+00 7.8490103125484967e-01 0.0000000000000000e+00  2.5007968832297252e+00 7.7866468370752517e-01 0.0000000000000000e+00  2.4982178573964862e+00 8.5716152666519640e-01 0.0000000000000000e+00  2.4997467893016037e+00 8.6689457376209678e-01 0.0000000000000000e+00  2.4989937195576331e+00 9.0203557217058850e-01 0.0000000000000000e+00  2.4984514580628061e+00 9.5053321290649739e-01 0.0000000000000000e+00  2.4992797197090764e+00 9.7395952417626153e-01 0.0000000000000000e+00  2.4975195842152789e+00 1.0117299000809992e+00 0.0000000000000000e+00  2.4995650550949100e+00 1.0478808837945055e+00 0.0000000000000000e+00  2.4964538069047029e+00 1.0829423180427806e+00 0.0000000000000000e+00  2.4995892263381267e+00 1.1144552152759530e+00 0.0000000000000000e+00  2.4957318684664171e+00 1.1536175290539610e+00 0.0000000000000000e+00  2.4996900633927197e+00 1.1849354759519020e+00 0.0000000000000000e+00  2.4944179266940347e+00 1.2221049788882568e+00 0.0000000000000000e+00  2.4999529378303005e+00 1.2549396971527085e+00 0.0000000000000000e+00  2.4940754705569819e+00 1.2927670944168757e+00 0.0000000000000000e+00  2.4986191734808085e+00 1.3218510463729898e+00 0.0000000000000000e+00  2.4943052212836472e+00 1.3644240423919782e+00 0.0000000000000000e+00  2.4985196112179868e+00 1.3925907797800554e+00 0.0000000000000000e+00  2.4927557776700811e+00 1.4295530394624314e+00 0.0000000000000000e+00  2.4984521293352873e+00 1.4664484657151537e+00 0.0000000000000000e+00  2.4935086603662211e+00 1.4987079978638840e+00 0.0000000000000000e+00  2.4959150559621874e+00 1.5338839130895772e+00 0.0000000000000000e+00  2.4942257969863566e+00 1.5692653987733258e+00 0.0000000000000000e+00  2.4960365139882255e+00 1.6062265758078818e+00 0.0000000000000000e+00  2.4927705382417811e+00 1.6346925091268008e+00 0.0000000000000000e+00  2.4953344450681580e+00 1.6772376716225537e+00 0.0000000000000000e+00  2.4946704441224767e+00 1.7062445588827002e+00 0.0000000000000000e+00  2.4927725434776220e+00 1.7440146957974019e+00 0.0000000000000000e+00  2.4953173953029242e+00 1.7753063705658980e+00 0.0000000000000000e+00  2.4935403139140222e+00 1.8161069083718604e+00 0.0000000000000000e+00  2.4947800916364402e+00 1.8428456156155020e+00 0.0000000000000000e+00  2.4924925282517711e+00 1.8838356329251518e+00 0.0000000000000000e+00  2.4963540239974376e+00 1.9164790038885342e+00 0.0000000000000000e+00  2.4908402863462218e+00 1.9516975247253694e+00 0.0000000000000000e+00  2.4941909940476812e+00 1.9863358186587485e+00 0.0000000000000000e+00  2.4888612722077910e+00 2.0294058927746459e+00 0.0000000000000000e+00  2.4747405581075821e+00 2.0897345168106756e+00 0.0000000000000000e+00  2.9082386192048313e+00 1.2882654569271910e+00 0.0000000000000000e+00  4.0967233396224962e+00 -9.6288435373887071e-01 0.0000000000000000e+00  5.1467436229352819e+00 -2.5625436638863821e+00 0.0000000000000000e+00  5.7199435991320806e+00 -3.3117819794692922e+00 0.0000000000000000e+00  5.9729370824729173e+00 -3.5975779343667402e+00 0.0000000000000000e+00  6.0791751950652015e+00 -3.7030322662494051e+00 0.0000000000000000e+00  6.1370984965039028e+00 -3.7285128414803252e+00 0.0000000000000000e+00  6.1685596351807011e+00 -3.7304291986637739e+00 0.0000000000000000e+00  6.1934255988553950e+00 -3.7155108469114095e+00 0.0000000000000000e+00  6.2107140425652254e+00 -3.6989842338816836e+00 0.0000000000000000e+00  6.2300574272403422e+00 -3.6773272741185914e+00 0.0000000000000000e+00  6.2467300245443260e+00 -3.6583439155444921e+00 0.0000000000000000e+00  6.2644094683032661e+00 -3.6363200308742161e+00 0.0000000000000000e+00  6.2809459785309505e+00 -3.6156699328728483e+00 0.0000000000000000e+00  6.2987157254442776e+00 -3.5956935379605537e+00 0.0000000000000000e+00  6.3152274685923455e+00 -3.5728820650423931e+00 0.0000000000000000e+00  6.3325157997085073e+00 -3.5536366930065908e+00 0.0000000000000000e+00  6.3501916207683369e+00 -3.5302219605380598e+00 0.0000000000000000e+00  6.3662455660112007e+00 -3.5113588809063061e+00 0.0000000000000000e+00  6.3844842092558709e+00 -3.4868898962508688e+00 0.0000000000000000e+00  6.4008293642970431e+00 -3.4679314149495286e+00 0.0000000000000000e+00  6.4187903869046847e+00 -3.4442405130502038e+00 0.0000000000000000e+00  6.4347777571380842e+00 -3.4230363245810533e+00 0.0000000000000000e+00  6.4537839155370822e+00 -3.4013815707430863e+00 0.0000000000000000e+00  6.4688201195947173e+00 -3.3785635632788558e+00 0.0000000000000000e+00  6.4881123263210370e+00 -3.3575861204279263e+00 0.0000000000000000e+00  6.5035855277778563e+00 -3.3342219695654642e+00 0.0000000000000000e+00  6.5224667859487804e+00 -3.3144110018345931e+00 0.0000000000000000e+00  6.5377634398225695e+00 -3.2894191770099077e+00 0.0000000000000000e+00  6.5574117916702885e+00 -3.2715283085872913e+00 0.0000000000000000e+00  6.5720385125447116e+00 -3.2455960883346382e+00 0.0000000000000000e+00  6.5917621314302020e+00 -3.2275852433447958e+00 0.0000000000000000e+00  6.6068569289187540e+00 -3.2032907765908942e+00 0.0000000000000000e+00  6.6261515344430899e+00 -3.1830866597438536e+00 0.0000000000000000e+00  6.6411757012519246e+00 -3.1611912315912254e+00 0.0000000000000000e+00  6.6609424328865314e+00 -3.1391263102174638e+00 0.0000000000000000e+00  6.6755475715857457e+00 -3.1189497051114725e+00 0.0000000000000000e+00  6.6952378486579978e+00 -3.0948790016255727e+00 0.0000000000000000e+00  6.7102714796115839e+00 -3.0776241551055579e+00 0.0000000000000000e+00  6.7294432388857190e+00 -3.0498445376257903e+00 0.0000000000000000e+00  6.7446661291032104e+00 -3.0361398757536042e+00 0.0000000000000000e+00  6.7637815655711586e+00 -3.0060622857837984e+00 0.0000000000000000e+00  6.7789640038481354e+00 -2.9923958779596531e+00 0.0000000000000000e+00  6.7977896025651408e+00 -2.9642586565054669e+00 0.0000000000000000e+00  6.8133425930241920e+00 -2.9473016249454131e+00 0.0000000000000000e+00  6.8314718149503078e+00 -2.9223229919645504e+00 0.0000000000000000e+00  6.8475881607465210e+00 -2.9027329737051910e+00 0.0000000000000000e+00  6.8649880948569679e+00 -2.8794617526750885e+00 0.0000000000000000e+00  6.8814183558189752e+00 -2.8581027980227054e+00 0.0000000000000000e+00  6.8984203834895128e+00 -2.8366282502797961e+00 0.0000000000000000e+00  6.9149608889945426e+00 -2.8129846533976548e+00 0.0000000000000000e+00  6.9312143358352705e+00 -2.7931470104350997e+00 0.0000000000000000e+00  6.9485535688535105e+00 -2.7682838424736178e+00 0.0000000000000000e+00  6.9635357637929314e+00 -2.7485657863211497e+00 0.0000000000000000e+00  6.9813031984840777e+00 -2.7234886131584117e+00 0.0000000000000000e+00  6.9960216091895715e+00 -2.7032944864443609e+00 0.0000000000000000e+00  7.0133842326888205e+00 -2.6787503178618057e+00 0.0000000000000000e+00  7.0274806596270816e+00 -2.6564212014284019e+00 0.0000000000000000e+00  7.0456867231547209e+00 -2.6343118072566565e+00 0.0000000000000000e+00  7.0581390466657234e+00 -2.6086888621034436e+00 0.0000000000000000e+00  7.0767081595626768e+00 -2.5882794515998961e+00 0.0000000000000000e+00  7.0891540821679238e+00 -2.5613370074466020e+00 0.0000000000000000e+00  7.1067062946641659e+00 -2.5409548312653132e+00 0.0000000000000000e+00  7.1187505816426269e+00 -2.5128325252061354e+00 0.0000000000000000e+00  7.1370811619062442e+00 -2.4935096670290013e+00 0.0000000000000000e+00  7.1472190622856724e+00 -2.4632692409611399e+00 0.0000000000000000e+00  7.1657947847983889e+00 -2.4434977073076753e+00 0.0000000000000000e+00  7.1762261965075362e+00 -2.4143492338613162e+00 0.0000000000000000e+00  7.1931212988505466e+00 -2.3914329278731503e+00 0.0000000000000000e+00  7.2035316160803831e+00 -2.3634875851775274e+00 0.0000000000000000e+00  7.2209596321117937e+00 -2.3411720416248651e+00 0.0000000000000000e+00  7.2293973546451138e+00 -2.3104069682770403e+00 0.0000000000000000e+00  7.2468766341878856e+00 -2.2895477746791650e+00 0.0000000000000000e+00  7.2559726053026186e+00 -2.2585996977830907e+00 0.0000000000000000e+00  7.2710975589523938e+00 -2.2342833652786092e+00 0.0000000000000000e+00  7.2806628453050255e+00 -2.2053783678818988e+00 0.0000000000000000e+00  7.2960149309884033e+00 -2.1792411692216249e+00 0.0000000000000000e+00  7.3036050281423037e+00 -2.1494530398362928e+00 0.0000000000000000e+00  7.3189441126456334e+00 -2.1230546138732524e+00 0.0000000000000000e+00  7.3273691703110764e+00 -2.0938176571279521e+00 0.0000000000000000e+00  7.3399524765617485e+00 -2.0651225703759364e+00 0.0000000000000000e+00  7.3492413906080207e+00 -2.0364366413797961e+00 0.0000000000000000e+00  7.3617114320982830e+00 -2.0086310969784051e+00 0.0000000000000000e+00  7.3692379859973620e+00 -1.9768038502595109e+00 0.0000000000000000e+00  7.3815271082786413e+00 -1.9507868599437761e+00 0.0000000000000000e+00  7.3900543100777041e+00 -1.9180934229466655e+00 0.0000000000000000e+00  7.3993988016228158e+00 -1.8906485923486083e+00 0.0000000000000000e+00  7.4090360834570186e+00 -1.8577704481106225e+00 0.0000000000000000e+00  7.4180234134842475e+00 -1.8311534527540623e+00 0.0000000000000000e+00  7.4261030523087603e+00 -1.7950189696695560e+00 0.0000000000000000e+00  7.4349218465653903e+00 -1.7698105058292082e+00 0.0000000000000000e+00  7.4438227894977462e+00 -1.7336774553556173e+00 0.0000000000000000e+00  7.4499866691217775e+00 -1.7055174256228356e+00 0.0000000000000000e+00  7.4598990157887703e+00 -1.6717794612442689e+00 0.0000000000000000e+00  7.4656534983066924e+00 -1.6420263585146955e+00 0.0000000000000000e+00  7.4741455223177145e+00 -1.6082535277311223e+00 0.0000000000000000e+00  7.4798970641651534e+00 -1.5770245806181526e+00 0.0000000000000000e+00  7.4887975366074668e+00 -1.5469983648578287e+00 0.0000000000000000e+00  7.4924734755648679e+00 -1.5089011555973497e+00 0.0000000000000000e+00  7.5021161041755224e+00 -1.4851112813210017e+00 0.0000000000000000e+00  7.5053879949028035e+00 -1.4419807933271371e+00 0.0000000000000000e+00  7.5138108246981732e+00 -1.4195572364718423e+00 0.0000000000000000e+00  7.5171958495268703e+00 -1.3766426006178616e+00 0.0000000000000000e+00  7.5256423564935675e+00 -1.3521598466806490e+00 0.0000000000000000e+00  7.5275536363217475e+00 -1.3105970515212002e+00 0.0000000000000000e+00  7.5364758405213639e+00 -1.2839282603353266e+00 0.0000000000000000e+00  7.5379684598740431e+00 -1.2460611672944724e+00 0.0000000000000000e+00  7.5459077569688739e+00 -1.2136787293108946e+00 0.0000000000000000e+00  7.5476205292626446e+00 -1.1831004834468799e+00 0.0000000000000000e+00  7.5551745492515261e+00 -1.1447946456301294e+00 0.0000000000000000e+00  7.5560866047024051e+00 -1.1168206029709504e+00 0.0000000000000000e+00  7.5637236892297732e+00 -1.0797399213183858e+00 0.0000000000000000e+00  7.5643588626721208e+00 -1.0498113264112525e+00 0.0000000000000000e+00  7.5711172781875264e+00 -1.0142158009892548e+00 0.0000000000000000e+00  7.5721024217385375e+00 -9.8316186261848693e-01 0.0000000000000000e+00  7.5781361021482931e+00 -9.4927124187199774e-01 0.0000000000000000e+00  7.5788650884083362e+00 -9.1265921849608755e-01 0.0000000000000000e+00  7.5846733758933338e+00 -8.8640587719238562e-01 0.0000000000000000e+00  7.5851412756126573e+00 -8.3964334779696659e-01 0.0000000000000000e+00  7.5903758711794307e+00 -8.2045146494917076e-01 0.0000000000000000e+00  7.5909309095343360e+00 -7.6908279751007425e-01 0.0000000000000000e+00  7.5955534625769845e+00 -7.5226726484780315e-01 0.0000000000000000e+00  7.5959307600664596e+00 -7.0486089432154497e-01 0.0000000000000000e+00  7.6003422199274508e+00 -6.8830478854044330e-01 0.0000000000000000e+00  7.6002713096313617e+00 -6.4251163336903561e-01 0.0000000000000000e+00  7.6045737790947134e+00 -6.2356888690599999e-01 0.0000000000000000e+00  7.6042377345850696e+00 -5.7602864968308232e-01 0.0000000000000000e+00  7.6081512784271625e+00 -5.5294682913320559e-01 0.0000000000000000e+00  7.6077090292731828e+00 -5.0832045190852160e-01 0.0000000000000000e+00  7.6113311628395444e+00 -4.8138399917695751e-01 0.0000000000000000e+00  7.6104076186803686e+00 -4.2603375852290243e-01 0.0000000000000000e+00  7.6141470085275751e+00 -4.0136374057379215e-01 0.0000000000000000e+00  7.6126377084793306e+00 -3.5284837750775355e-01 0.0000000000000000e+00  7.6160720586365356e+00 -3.1787735570190706e-01 0.0000000000000000e+00  7.6145240547028941e+00 -2.8062080578198356e-01 0.0000000000000000e+00  7.6175856995111948e+00 -2.3429835285538622e-01 0.0000000000000000e+00  7.6154228561777968e+00 -2.1120099468165943e-01 0.0000000000000000e+00  7.6187568342893295e+00 -1.5704739611669560e-01 0.0000000000000000e+00  7.6161031525244338e+00 -1.4607317138999770e-01 0.0000000000000000e+00  7.6191806705378013e+00 -4.4371306367096380e-02 0.0000000000000000e+00  7.6168746742521494e+00 0.0000000000000000e+00 0.0000000000000000e+00  2.5005524785644848e+00 0.0000000000000000e+00 2.3366386306542235e-03  2.5017246193333449e+00 2.7816959153383874e-02 -6.7311522411090639e-03  2.4999552365016857e+00 6.8874416142752234e-02 -3.9057830523039471e-03  2.5010539528613789e+00 1.0996198299758962e-01 2.2224081036877511e-02  2.5008096065593066e+00 1.3011448123227554e-01 -2.4699162953501951e-02  2.4999891448407729e+00 1.8258657282791063e-01 2.4415674439093434e-02  2.5005887490272678e+00 1.9899785163707981e-01 -2.0440202514694025e-02  2.5007506314740260e+00 2.5573295196830859e-01 9.3156760010912523e-03  2.4993170872245081e+00 2.6878108156957120e-01 8.7125837933923461e-03  2.5009371429224956e+00 3.1769142952538149e-01 -2.5619025257283577e-02  2.4996760979000983e+00 3.5464659653595526e-01 3.2138156563929182e-02  2.4999268498462723e+00 3.6546961492428326e-01 -2.4826479640550948e-02  2.4999607799152939e+00 4.4471116584991621e-01 8.6555193108056264e-03  2.4998557140611863e+00 4.2637375783848591e-01 7.1178813948621208e-03  2.4996533043261526e+00 5.0258741454478684e-01 -1.6104121218630731e-02  2.4993418815063633e+00 5.2968543073363517e-01 1.8005353391560106e-02  2.5001847402447637e+00 5.3249971503979432e-01 -1.6437318458585922e-02  2.4987199401506635e+00 6.2183379023347296e-01 1.4194335543352242e-02  2.4997558924417209e+00 6.0877064315310725e-01 -1.3266984125295703e-02  2.4993004836345332e+00 6.6763849912323103e-01 1.2652679259826310e-02  2.4991036946330976e+00 6.9615789853333432e-01 -1.1884415057776777e-02  2.4989203768754749e+00 7.4147847751417983e-01 1.1609239067888090e-02  2.4995585574720742e+00 7.5013879019210594e-01 -1.0679809262617246e-02  2.4984548862929228e+00 8.1659010569261259e-01 8.2662179684862887e-03  2.4989973717736067e+00 8.3636531513073054e-01 -3.1612319437716303e-03  2.4991449074348853e+00 8.6074166535600394e-01 -2.7660942945862770e-03  2.4982415314066055e+00 9.2101770342471956e-01 6.1878167801242695e-03  2.4990044049967310e+00 9.3469797468235205e-01 -6.4271201722729552e-03  2.4984188681986987e+00 9.7772565639129561e-01 3.7685235213762345e-03  2.4985597411201188e+00 1.0134386915517182e+00 -1.2482696739040942e-03  2.4983762039919881e+00 1.0479340330712426e+00 -1.1494243560794646e-05  2.4982349664650365e+00 1.0796569169526531e+00 3.0082355004787073e-04  2.4984394974613489e+00 1.1191975820206643e+00 -1.0705833672462015e-03  2.4979321974412541e+00 1.1518964408534427e+00 2.4080583937351975e-03  2.4980714347856328e+00 1.1859151102456584e+00 -4.0896350896204043e-03  2.4978808788352413e+00 1.2241644932907250e+00 5.2913643878842453e-03  2.4982221379248224e+00 1.2549922437531524e+00 -6.3001658770198022e-03  2.4967374218880245e+00 1.2940169018256700e+00 7.0380067894670285e-03  2.4986690112144712e+00 1.3249455423620735e+00 -7.3600865972797231e-03  2.4968006276485610e+00 1.3656180271361484e+00 7.1182149110835943e-03  2.4972705977919092e+00 1.3915080800570385e+00 -6.6084177171546526e-03  2.4972139148899624e+00 1.4381590441394825e+00 6.0903966489928348e-03  2.4976243185568126e+00 1.4623153889817480e+00 -5.8346774535733611e-03  2.4954239369866769e+00 1.5042810726368703e+00 5.3840780455952720e-03  2.4979248946026535e+00 1.5350314531225298e+00 -5.0224856379489395e-03  2.4960983868252047e+00 1.5749952157172429e+00 4.5842088555261822e-03  2.4957924654153030e+00 1.6019648822516954e+00 -4.5079472439456189e-03  2.4961698521082258e+00 1.6459539559999841e+00 4.3370725450750996e-03  2.4965679032642432e+00 1.6743667975038965e+00 -4.2756909350251419e-03  2.4939556484329413e+00 1.7124176087449416e+00 3.6582156260527615e-03  2.4959953813449731e+00 1.7453229512235866e+00 -3.5202057329601173e-03  2.4947320021000881e+00 1.7845877636846252e+00 2.6676966880099990e-03  2.4936354753750209e+00 1.8136035207716403e+00 -2.8467842216271721e-03  2.4936356708702911e+00 1.8534239240452983e+00 1.5774493710267903e-03  2.4940040836665704e+00 1.8876484421400173e+00 -1.4865587032012633e-03  2.4920807648487973e+00 1.9201096895953669e+00 3.2844204324301245e-05  2.4925783768445791e+00 1.9570127446876404e+00 4.5967136587084933e-04  2.4938230817944516e+00 1.9915264077290151e+00 -1.1001965604134246e-03  2.4919240113060406e+00 2.0231927246139247e+00 4.8213947927689413e-03  2.4979360505989141e+00 2.0531885048574581e+00 -1.1548121048748651e-02  2.8773380276182432e+00 1.3401008737580418e+00 8.7401439297127865e-03  4.0963245490472397e+00 -9.2005936115828713e-01 2.1980258538666170e-02  5.1867670687542198e+00 -2.5914995667471423e+00 -1.0219990512206333e-02  5.7201005270432992e+00 -3.2991024079382631e+00 -1.0744342361158093e-02  5.9641558890572979e+00 -3.5725457691300089e+00 5.9124283860833285e-03  6.0816761121701095e+00 -3.6858083164193567e+00 -8.4174477154912034e-04  6.1433466566078989e+00 -3.7115268919754731e+00 5.4561154067417532e-03  6.1732367712528911e+00 -3.7152968039695402e+00 -3.2710232408423683e-03  6.1975185742668168e+00 -3.6951716867176514e+00 4.2229245424990824e-03  6.2152079412408350e+00 -3.6811497035800742e+00 -3.6898832030277775e-03  6.2354115428284693e+00 -3.6555400926136579e+00 3.8409637055359953e-03  6.2504102028493858e+00 -3.6390006127155283e+00 -3.3912392625818581e-03  6.2696297609229452e+00 -3.6120818549374527e+00 3.4069712829282771e-03  6.2853219398214693e+00 -3.5956558984085474e+00 -2.9211379341521444e-03  6.3038653872558310e+00 -3.5685831278812490e+00 2.8911522926228219e-03  6.3196636392580912e+00 -3.5512203871505479e+00 -2.4788727970625930e-03  6.3386058426943448e+00 -3.5259249349251647e+00 2.3485394272057774e-03  6.3539615663236608e+00 -3.5076484231875091e+00 -2.1177632134136192e-03  6.3728225229626707e+00 -3.4829144119267981e+00 1.8814006985309894e-03  6.3890972079567039e+00 -3.4645619607907827e+00 -1.9281145956303292e-03  6.4070581133800628e+00 -