<?xml version="1.0"?>
<VTKFile type="UnstructuredGrid"  version="0.1"  >
<UnstructuredGrid>
<Piece  NumberOfPoints="8241" NumberOfCells="16000">
<Points>
<DataArray  type="Float64"  NumberOfComponents="3"  format="ascii">-5 -1 0  -4.95 -1 0  -4.9 -1 0  -4.85 -1 0  -4.8 -1 0  -4.75 -1 0  -4.7 -1 0  -4.65 -1 0  -4.6 -1 0  -4.55 -1 0  -4.5 -1 0  -4.45 -1 0  -4.4 -1 0  -4.35 -1 0  -4.3 -1 0  -4.25 -1 0  -4.2 -1 0  -4.15 -1 0  -4.1 -1 0  -4.05 -1 0  -4 -1 0  -3.95 -1 0  -3.9 -1 0  -3.85 -1 0  -3.8 -1 0  -3.75 -1 0  -3.7 -1 0  -3.65 -1 0  -3.6 -1 0  -3.55 -1 0  -3.5 -1 0  -3.45 -1 0  -3.4 -1 0  -3.35 -1 0  -3.3 -1 0  -3.25 -1 0  -3.2 -1 0  -3.15 -1 0  -3.1 -1 0  -3.05 -1 0  -3 -1 0  -2.95 -1 0  -2.9 -1 0  -2.85 -1 0  -2.8 -1 0  -2.75 -1 0  -2.7 -1 0  -2.65 -1 0  -2.6 -1 0  -2.55 -1 0  -2.5 -1 0  -2.45 -1 0  -2.4 -1 0  -2.35 -1 0  -2.3 -1 0  -2.25 -1 0  -2.2 -1 0  -2.15 -1 0  -2.1 -1 0  -2.05 -1 0  -2 -1 0  -1.95 -1 0  -1.9 -1 0  -1.85 -1 0  -1.8 -1 0  -1.75 -1 0  -1.7 -1 0  -1.65 -1 0  -1.6 -1 0  -1.55 -1 0  -1.5 -1 0  -1.45 -1 0  -1.4 -1 0  -1.35 -1 0  -1.3 -1 0  -1.25 -1 0  -1.2 -1 0  -1.15 -1 0  -1.1 -1 0  -1.05 -1 0  -1 -1 0  -0.9500000000000002 -1 0  -0.9000000000000004 -1 0  -0.8499999999999996 -1 0  -0.7999999999999998 -1 0  -0.75 -1 0  -0.7000000000000002 -1 0  -0.6500000000000004 -1 0  -0.5999999999999996 -1 0  -0.5499999999999998 -1 0  -0.5 -1 0  -0.4500000000000002 -1 0  -0.4000000000000004 -1 0  -0.3499999999999996 -1 0  -0.2999999999999998 -1 0  -0.25 -1 0  -0.2000000000000002 -1 0  -0.1500000000000004 -1 0  -0.09999999999999964 -1 0  -0.04999999999999982 -1 0  0 -1 0  0.04999999999999982 -1 0  0.09999999999999964 -1 0  0.1500000000000004 -1 0  0.2000000000000002 -1 0  0.25 -1 0  0.2999999999999998 -1 0  0.3499999999999996 -1 0  0.4000000000000004 -1 0  0.4500000000000002 -1 0  0.5 -1 0  0.5499999999999998 -1 0  0.5999999999999996 -1 0  0.6500000000000004 -1 0  0.7000000000000002 -1 0  0.75 -1 0  0.7999999999999998 -1 0  0.8499999999999996 -1 0  0.9000000000000004 -1 0  0.9500000000000002 -1 0  1 -1 0  1.05 -1 0  1.1 -1 0  1.15 -1 0  1.2 -1 0  1.25 -1 0  1.3 -1 0  1.35 -1 0  1.4 -1 0  1.45 -1 0  1.5 -1 0  1.55 -1 0  1.6 -1 0  1.65 -1 0  1.7 -1 0  1.75 -1 0  1.8 -1 0  1.85 -1 0  1.9 -1 0  1.95 -1 0  2 -1 0  2.05 -1 0  2.1 -1 0  2.15 -1 0  2.2 -1 0  2.25 -1 0  2.3 -1 0  2.35 -1 0  2.4 -1 0  2.45 -1 0  2.5 -1 0  2.55 -1 0  2.6 -1 0  2.65 -1 0  2.7 -1 0  2.75 -1 0  2.8 -1 0  2.85 -1 0  2.9 -1 0  2.95 -1 0  3 -1 0  3.050000000000001 -1 0  3.1 -1 0  3.15 -1 0  3.199999999999999 -1 0  3.25 -1 0  3.300000000000001 -1 0  3.35 -1 0  3.4 -1 0  3.449999999999999 -1 0  3.5 -1 0  3.550000000000001 -1 0  3.6 -1 0  3.65 -1 0  3.699999999999999 -1 0  3.75 -1 0  3.800000000000001 -1 0  3.85 -1 0  3.9 -1 0  3.949999999999999 -1 0  4 -1 0  4.050000000000001 -1 0  4.1 -1 0  4.15 -1 0  4.199999999999999 -1 0  4.25 -1 0  4.300000000000001 -1 0  4.35 -1 0  4.4 -1 0  4.449999999999999 -1 0  4.5 -1 0  4.550000000000001 -1 0  4.6 -1 0  4.65 -1 0  4.699999999999999 -1 0  4.75 -1 0  4.800000000000001 -1 0  4.85 -1 0  4.9 -1 0  4.949999999999999 -1 0  5 -1 0  -5 -0.95 0  -4.95 -0.95 0  -4.9 -0.95 0  -4.85 -0.95 0  -4.8 -0.95 0  -4.75 -0.95 0  -4.7 -0.95 0  -4.65 -0.95 0  -4.6 -0.95 0  -4.55 -0.95 0  -4.5 -0.95 0  -4.45 -0.95 0  -4.4 -0.95 0  -4.35 -0.95 0  -4.3 -0.95 0  -4.25 -0.95 0  -4.2 -0.95 0  -4.15 -0.95 0  -4.1 -0.95 0  -4.05 -0.95 0  -4 -0.95 0  -3.95 -0.95 0  -3.9 -0.95 0  -3.85 -0.95 0  -3.8 -0.95 0  -3.75 -0.95 0  -3.7 -0.95 0  -3.65 -0.95 0  -3.6 -0.95 0  -3.55 -0.95 0  -3.5 -0.95 0  -3.45 -0.95 0  -3.4 -0.95 0  -3.35 -0.95 0  -3.3 -0.95 0  -3.25 -0.95 0  -3.2 -0.95 0  -3.15 -0.95 0  -3.1 -0.95 0  -3.05 -0.95 0  -3 -0.95 0  -2.95 -0.95 0  -2.9 -0.95 0  -2.85 -0.95 0  -2.8 -0.95 0  -2.75 -0.95 0  -2.7 -0.95 0  -2.65 -0.95 0  -2.6 -0.95 0  -2.55 -0.95 0  -2.5 -0.95 0  -2.45 -0.95 0  -2.4 -0.95 0  -2.35 -0.95 0  -2.3 -0.95 0  -2.25 -0.95 0  -2.2 -0.95 0  -2.15 -0.95 0  -2.1 -0.95 0  -2.05 -0.95 0  -2 -0.95 0  -1.95 -0.95 0  -1.9 -0.95 0  -1.85 -0.95 0  -1.8 -0.95 0  -1.75 -0.95 0  -1.7 -0.95 0  -1.65 -0.95 0  -1.6 -0.95 0  -1.55 -0.95 0  -1.5 -0.95 0  -1.45 -0.95 0  -1.4 -0.95 0  -1.35 -0.95 0  -1.3 -0.95 0  -1.25 -0.95 0  -1.2 -0.95 0  -1.15 -0.95 0  -1.1 -0.95 0  -1.05 -0.95 0  -1 -0.95 0  -0.9500000000000002 -0.95 0  -0.9000000000000004 -0.95 0  -0.8499999999999996 -0.95 0  -0.7999999999999998 -0.95 0  -0.75 -0.95 0  -0.7000000000000002 -0.95 0  -0.6500000000000004 -0.95 0  -0.5999999999999996 -0.95 0  -0.5499999999999998 -0.95 0  -0.5 -0.95 0  -0.4500000000000002 -0.95 0  -0.4000000000000004 -0.95 0  -0.3499999999999996 -0.95 0  -0.2999999999999998 -0.95 0  -0.25 -0.95 0  -0.2000000000000002 -0.95 0  -0.1500000000000004 -0.95 0  -0.09999999999999964 -0.95 0  -0.04999999999999982 -0.95 0  0 -0.95 0  0.04999999999999982 -0.95 0  0.09999999999999964 -0.95 0  0.1500000000000004 -0.95 0  0.2000000000000002 -0.95 0  0.25 -0.95 0  0.2999999999999998 -0.95 0  0.3499999999999996 -0.95 0  0.4000000000000004 -0.95 0  0.4500000000000002 -0.95 0  0.5 -0.95 0  0.5499999999999998 -0.95 0  0.5999999999999996 -0.95 0  0.6500000000000004 -0.95 0  0.7000000000000002 -0.95 0  0.75 -0.95 0  0.7999999999999998 -0.95 0  0.8499999999999996 -0.95 0  0.9000000000000004 -0.95 0  0.9500000000000002 -0.95 0  1 -0.95 0  1.05 -0.95 0  1.1 -0.95 0  1.15 -0.95 0  1.2 -0.95 0  1.25 -0.95 0  1.3 -0.95 0  1.35 -0.95 0  1.4 -0.95 0  1.45 -0.95 0  1.5 -0.95 0  1.55 -0.95 0  1.6 -0.95 0  1.65 -0.95 0  1.7 -0.95 0  1.75 -0.95 0  1.8 -0.95 0  1.85 -0.95 0  1.9 -0.95 0  1.95 -0.95 0  2 -0.95 0  2.05 -0.95 0  2.1 -0.95 0  2.15 -0.95 0  2.2 -0.95 0  2.25 -0.95 0  2.3 -0.95 0  2.35 -0.95 0  2.4 -0.95 0  2.45 -0.95 0  2.5 -0.95 0  2.55 -0.95 0  2.6 -0.95 0  2.65 -0.95 0  2.7 -0.95 0  2.75 -0.95 0  2.8 -0.95 0  2.85 -0.95 0  2.9 -0.95 0  2.95 -0.95 0  3 -0.95 0  3.050000000000001 -0.95 0  3.1 -0.95 0  3.15 -0.95 0  3.199999999999999 -0.95 0  3.25 -0.95 0  3.300000000000001 -0.95 0  3.35 -0.95 0  3.4 -0.95 0  3.449999999999999 -0.95 0  3.5 -0.95 0  3.550000000000001 -0.95 0  3.6 -0.95 0  3.65 -0.95 0  3.699999999999999 -0.95 0  3.75 -0.95 0  3.800000000000001 -0.95 0  3.85 -0.95 0  3.9 -0.95 0  3.949999999999999 -0.95 0  4 -0.95 0  4.050000000000001 -0.95 0  4.1 -0.95 0  4.15 -0.95 0  4.199999999999999 -0.95 0  4.25 -0.95 0  4.300000000000001 -0.95 0  4.35 -0.95 0  4.4 -0.95 0  4.449999999999999 -0.95 0  4.5 -0.95 0  4.550000000000001 -0.95 0  4.6 -0.95 0  4.65 -0.95 0  4.699999999999999 -0.95 0  4.75 -0.95 0  4.800000000000001 -0.95 0  4.85 -0.95 0  4.9 -0.95 0  4.949999999999999 -0.95 0  5 -0.95 0  -5 -0.9 0  -4.95 -0.9 0  -4.9 -0.9 0  -4.85 -0.9 0  -4.8 -0.9 0  -4.75 -0.9 0  -4.7 -0.9 0  -4.65 -0.9 0  -4.6 -0.9 0  -4.55 -0.9 0  -4.5 -0.9 0  -4.45 -0.9 0  -4.4 -0.9 0  -4.35 -0.9 0  -4.3 -0.9 0  -4.25 -0.9 0  -4.2 -0.9 0  -4.15 -0.9 0  -4.1 -0.9 0  -4.05 -0.9 0  -4 -0.9 0  -3.95 -0.9 0  -3.9 -0.9 0  -3.85 -0.9 0  -3.8 -0.9 0  -3.75 -0.9 0  -3.7 -0.9 0  -3.65 -0.9 0  -3.6 -0.9 0  -3.55 -0.9 0  -3.5 -0.9 0  -3.45 -0.9 0  -3.4 -0.9 0  -3.35 -0.9 0  -3.3 -0.9 0  -3.25 -0.9 0  -3.2 -0.9 0  -3.15 -0.9 0  -3.1 -0.9 0  -3.05 -0.9 0  -3 -0.9 0  -2.95 -0.9 0  -2.9 -0.9 0  -2.85 -0.9 0  -2.8 -0.9 0  -2.75 -0.9 0  -2.7 -0.9 0  -2.65 -0.9 0  -2.6 -0.9 0  -2.55 -0.9 0  -2.5 -0.9 0  -2.45 -0.9 0  -2.4 -0.9 0  -2.35 -0.9 0  -2.3 -0.9 0  -2.25 -0.9 0  -2.2 -0.9 0  -2.15 -0.9 0  -2.1 -0.9 0  -2.05 -0.9 0  -2 -0.9 0  -1.95 -0.9 0  -1.9 -0.9 0  -1.85 -0.9 0  -1.8 -0.9 0  -1.75 -0.9 0  -1.7 -0.9 0  -1.65 -0.9 0  -1.6 -0.9 0  -1.55 -0.9 0  -1.5 -0.9 0  -1.45 -0.9 0  -1.4 -0.9 0  -1.35 -0.9 0  -1.3 -0.9 0  -1.25 -0.9 0  -1.2 -0.9 0  -1.15 -0.9 0  -1.1 -0.9 0  -1.05 -0.9 0  -1 -0.9 0  -0.9500000000000002 -0.9 0  -0.9000000000000004 -0.9 0  -0.8499999999999996 -0.9 0  -0.7999999999999998 -0.9 0  -0.75 -0.9 0  -0.7000000000000002 -0.9 0  -0.6500000000000004 -0.9 0  -0.5999999999999996 -0.9 0  -0.5499999999999998 -0.9 0  -0.5 -0.9 0  -0.4500000000000002 -0.9 0  -0.4000000000000004 -0.9 0  -0.3499999999999996 -0.9 0  -0.2999999999999998 -0.9 0  -0.25 -0.9 0  -0.2000000000000002 -0.9 0  -0.1500000000000004 -0.9 0  -0.09999999999999964 -0.9 0  -0.04999999999999982 -0.9 0  0 -0.9 0  0.04999999999999982 -0.9 0  0.09999999999999964 -0.9 0  0.1500000000000004 -0.9 0  0.2000000000000002 -0.9 0  0.25 -0.9 0  0.2999999999999998 -0.9 0  0.3499999999999996 -0.9 0  0.4000000000000004 -0.9 0  0.4500000000000002 -0.9 0  0.5 -0.9 0  0.5499999999999998 -0.9 0  0.5999999999999996 -0.9 0  0.6500000000000004 -0.9 0  0.7000000000000002 -0.9 0  0.75 -0.9 0  0.7999999999999998 -0.9 0  0.8499999999999996 -0.9 0  0.9000000000000004 -0.9 0  0.9500000000000002 -0.9 0  1 -0.9 0  1.05 -0.9 0  1.1 -0.9 0  1.15 -0.9 0  1.2 -0.9 0  1.25 -0.9 0  1.3 -0.9 0  1.35 -0.9 0  1.4 -0.9 0  1.45 -0.9 0  1.5 -0.9 0  1.55 -0.9 0  1.6 -0.9 0  1.65 -0.9 0  1.7 -0.9 0  1.75 -0.9 0  1.8 -0.9 0  1.85 -0.9 0  1.9 -0.9 0  1.95 -0.9 0  2 -0.9 0  2.05 -0.9 0  2.1 -0.9 0  2.15 -0.9 0  2.2 -0.9 0  2.25 -0.9 0  2.3 -0.9 0  2.35 -0.9 0  2.4 -0.9 0  2.45 -0.9 0  2.5 -0.9 0  2.55 -0.9 0  2.6 -0.9 0  2.65 -0.9 0  2.7 -0.9 0  2.75 -0.9 0  2.8 -0.9 0  2.85 -0.9 0  2.9 -0.9 0  2.95 -0.9 0  3 -0.9 0  3.050000000000001 -0.9 0  3.1 -0.9 0  3.15 -0.9 0  3.199999999999999 -0.9 0  3.25 -0.9 0  3.300000000000001 -0.9 0  3.35 -0.9 0  3.4 -0.9 0  3.449999999999999 -0.9 0  3.5 -0.9 0  3.550000000000001 -0.9 0  3.6 -0.9 0  3.65 -0.9 0  3.699999999999999 -0.9 0  3.75 -0.9 0  3.800000000000001 -0.9 0  3.85 -0.9 0  3.9 -0.9 0  3.949999999999999 -0.9 0  4 -0.9 0  4.050000000000001 -0.9 0  4.1 -0.9 0  4.15 -0.9 0  4.199999999999999 -0.9 0  4.25 -0.9 0  4.300000000000001 -0.9 0  4.35 -0.9 0  4.4 -0.9 0  4.449999999999999 -0.9 0  4.5 -0.9 0  4.550000000000001 -0.9 0  4.6 -0.9 0  4.65 -0.9 0  4.699999999999999 -0.9 0  4.75 -0.9 0  4.800000000000001 -0.9 0  4.85 -0.9 0  4.9 -0.9 0  4.949999999999999 -0.9 0  5 -0.9 0  -5 -0.85 0  -4.95 -0.85 0  -4.9 -0.85 0  -4.85 -0.85 0  -4.8 -0.85 0  -4.75 -0.85 0  -4.7 -0.85 0  -4.65 -0.85 0  -4.6 -0.85 0  -4.55 -0.85 0  -4.5 -0.85 0  -
[...]
<PointData  Vectors="f_15"> 
<DataArray  type="Float64"  Name="f_15"  NumberOfComponents="3" format="ascii">2.5507172414420389e+00 0.0000000000000000e+00 0.0000000000000000e+00  2.5561964694630559e+00 4.5177120266895285e-02 0.0000000000000000e+00  2.5519003508342957e+00 8.4807785845999767e-02 0.0000000000000000e+00  2.5553446501430015e+00 9.6193220340441268e-02 0.0000000000000000e+00  2.5520938555315604e+00 1.5207339286798244e-01 0.0000000000000000e+00  2.5560073042315072e+00 1.7351531457345673e-01 0.0000000000000000e+00  2.5515776577974485e+00 2.1568256991920526e-01 0.0000000000000000e+00  2.5558628418778810e+00 2.5206873013023112e-01 0.0000000000000000e+00  2.5524897438933536e+00 2.8145187733959687e-01 0.0000000000000000e+00  2.5548470056998194e+00 3.2189455837667302e-01 0.0000000000000000e+00  2.5528425120330298e+00 3.6200815255987173e-01 0.0000000000000000e+00  2.5551464992949335e+00 3.8500370146133589e-01 0.0000000000000000e+00  2.5521430133150655e+00 4.2748594534204859e-01 0.0000000000000000e+00  2.5551886805637634e+00 4.8105227264992545e-01 0.0000000000000000e+00  2.5523158144575153e+00 4.6647572906667306e-01 0.0000000000000000e+00  2.5547768553029520e+00 5.6888565886041909e-01 0.0000000000000000e+00  2.5518647092641493e+00 5.5119947843432626e-01 0.0000000000000000e+00  2.5552498117370259e+00 6.0675811268695523e-01 0.0000000000000000e+00  2.5511271727358569e+00 6.5205084696451565e-01 0.0000000000000000e+00  2.5548818055278684e+00 6.6946472511392696e-01 0.0000000000000000e+00  2.5514343790385579e+00 7.1560268559075835e-01 0.0000000000000000e+00  2.5542096144222839e+00 7.4200458711183614e-01 0.0000000000000000e+00  2.5508736011158457e+00 8.0167766580890465e-01 0.0000000000000000e+00  2.5545195726230210e+00 7.9246472717221761e-01 0.0000000000000000e+00  2.5500861616559396e+00 8.7598017209292067e-01 0.0000000000000000e+00  2.5539830891004325e+00 8.8477086402975558e-01 0.0000000000000000e+00  2.5503850659358775e+00 9.1659866420613101e-01 0.0000000000000000e+00  2.5529709585698672e+00 9.7538210572217299e-01 0.0000000000000000e+00  2.5502125746397981e+00 9.8725786382737357e-01 0.0000000000000000e+00  2.5525655967972560e+00 1.0372947889069775e+00 0.0000000000000000e+00  2.5499471195754353e+00 1.0639496476407666e+00 0.0000000000000000e+00  2.5516147908449232e+00 1.1097568225865193e+00 0.0000000000000000e+00  2.5502162088043581e+00 1.1313985055295699e+00 0.0000000000000000e+00  2.5505482562642223e+00 1.1819115712932631e+00 0.0000000000000000e+00  2.5502377837901991e+00 1.2037674728435848e+00 0.0000000000000000e+00  2.5496238063674750e+00 1.2516449478347118e+00 0.0000000000000000e+00  2.5503133190855860e+00 1.2754808769469195e+00 0.0000000000000000e+00  2.5487243391991754e+00 1.3218306869709260e+00 0.0000000000000000e+00  2.5500060332074823e+00 1.3474434921815837e+00 0.0000000000000000e+00  2.5482448607121890e+00 1.3919673134523545e+00 0.0000000000000000e+00  2.5497762955845364e+00 1.4200489381549870e+00 0.0000000000000000e+00  2.5471676533260288e+00 1.4599199103643374e+00 0.0000000000000000e+00  2.5498378756160291e+00 1.4952449152000922e+00 0.0000000000000000e+00  2.5468451946676733e+00 1.5283608917057767e+00 0.0000000000000000e+00  2.5484922361992517e+00 1.5668481029829775e+00 0.0000000000000000e+00  2.5471482590962276e+00 1.5995654657843512e+00 0.0000000000000000e+00  2.5481235391252572e+00 1.6398356372293617e+00 0.0000000000000000e+00  2.5458645511357441e+00 1.6666942566201417e+00 0.0000000000000000e+00  2.5479217280450879e+00 1.7144746712695200e+00 0.0000000000000000e+00  2.5464964323989614e+00 1.7371582389531923e+00 0.0000000000000000e+00  2.5455263443146778e+00 1.7840569678590028e+00 0.0000000000000000e+00  2.5471782652807526e+00 1.8089419654453291e+00 0.0000000000000000e+00  2.5455209955132556e+00 1.8574338893436531e+00 0.0000000000000000e+00  2.5458063901695995e+00 1.8767230496903216e+00 0.0000000000000000e+00  2.5449340204180908e+00 1.9286737404829559e+00 0.0000000000000000e+00  2.5474458011726639e+00 1.9521883891108678e+00 0.0000000000000000e+00  2.5426631116989236e+00 1.9932027018441343e+00 0.0000000000000000e+00  2.5477758890087778e+00 2.0260501868453513e+00 0.0000000000000000e+00  2.5436076158251431e+00 2.0659961455814613e+00 0.0000000000000000e+00  2.5464553521176616e+00 2.0932387904705050e+00 0.0000000000000000e+00  2.5428669211530210e+00 2.1386163390832977e+00 0.0000000000000000e+00  2.5460137120612587e+00 2.1668093904640928e+00 0.0000000000000000e+00  2.5421152554816411e+00 2.2108631517001789e+00 0.0000000000000000e+00  2.5378381422818537e+00 2.2387882740106457e+00 0.0000000000000000e+00  2.5304279613509011e+00 2.3265059954289478e+00 0.0000000000000000e+00  3.1603377220255959e+00 1.1033668516097903e+00 0.0000000000000000e+00  4.4633276611278365e+00 -1.2472918348455595e+00 0.0000000000000000e+00  5.4528960842618028e+00 -2.6665541732223423e+00 0.0000000000000000e+00  5.9397376806272320e+00 -3.2736493210148074e+00 0.0000000000000000e+00  6.1370954722078874e+00 -3.4943887970275100e+00 0.0000000000000000e+00  6.2273082528160471e+00 -3.5608469214025611e+00 0.0000000000000000e+00  6.2718867996335135e+00 -3.5806470012928311e+00 0.0000000000000000e+00  6.3016082577846655e+00 -3.5724184339047120e+00 0.0000000000000000e+00  6.3227755181261793e+00 -3.5567960355782109e+00 0.0000000000000000e+00  6.3425059894705687e+00 -3.5381640377645716e+00 0.0000000000000000e+00  6.3597645650435899e+00 -3.5159707473859099e+00 0.0000000000000000e+00  6.3778078795200193e+00 -3.4971231284431070e+00 0.0000000000000000e+00  6.3956680758626945e+00 -3.4732322489519882e+00 0.0000000000000000e+00  6.4124194174871558e+00 -3.4550543401712455e+00 0.0000000000000000e+00  6.4311105956820338e+00 -3.4294164185432807e+00 0.0000000000000000e+00  6.4475094122533729e+00 -3.4116037527237459e+00 0.0000000000000000e+00  6.4663879128900827e+00 -3.3866037553493036e+00 0.0000000000000000e+00  6.4821932591674472e+00 -3.3664173532498061e+00 0.0000000000000000e+00  6.5023618959005542e+00 -3.3433866506434806e+00 0.0000000000000000e+00  6.5168276435789299e+00 -3.3212722135202011e+00 0.0000000000000000e+00  6.5379546039121763e+00 -3.2992315530874694e+00 0.0000000000000000e+00  6.5520755619922237e+00 -3.2760465426653105e+00 0.0000000000000000e+00  6.5734428552292652e+00 -3.2551425739309114e+00 0.0000000000000000e+00  6.5871030191635436e+00 -3.2305037237122685e+00 0.0000000000000000e+00  6.6094175892526730e+00 -3.2113559234299531e+00 0.0000000000000000e+00  6.6220736940949596e+00 -3.1852939273657759e+00 0.0000000000000000e+00  6.6451160846814021e+00 -3.1672645774849277e+00 0.0000000000000000e+00  6.6576629770299780e+00 -3.1414043564654390e+00 0.0000000000000000e+00  6.6804746759565363e+00 -3.1222124162530975e+00 0.0000000000000000e+00  6.6933146834720398e+00 -3.0986571973624089e+00 0.0000000000000000e+00  6.7161684434072040e+00 -3.0773293007472926e+00 0.0000000000000000e+00  6.7287228392693033e+00 -3.0555565644996037e+00 0.0000000000000000e+00  6.7518727154870506e+00 -3.0331281972424353e+00 0.0000000000000000e+00  6.7645852783757165e+00 -3.0129384605745142e+00 0.0000000000000000e+00  6.7870050738967018e+00 -2.9879645710952882e+00 0.0000000000000000e+00  6.8008057318453368e+00 -2.9713130174503046e+00 0.0000000000000000e+00  6.8223198421262463e+00 -2.9433545320113295e+00 0.0000000000000000e+00  6.8364385914540673e+00 -2.9274871313695310e+00 0.0000000000000000e+00  6.8580509545456625e+00 -2.9017290773124973e+00 0.0000000000000000e+00  6.8722332763771012e+00 -2.8816279553819806e+00 0.0000000000000000e+00  6.8929136200652810e+00 -2.8601692105628689e+00 0.0000000000000000e+00  6.9087270619819643e+00 -2.8370763313367098e+00 0.0000000000000000e+00  6.9277040154851361e+00 -2.8173005676742475e+00 0.0000000000000000e+00  6.9442180604129646e+00 -2.7925552219090886e+00 0.0000000000000000e+00  6.9633535767141366e+00 -2.7750478112100034e+00 0.0000000000000000e+00  6.9794686411549804e+00 -2.7477205199048691e+00 0.0000000000000000e+00  6.9978116263080477e+00 -2.7316200009119136e+00 0.0000000000000000e+00  7.0157332638139378e+00 -2.7044824721042691e+00 0.0000000000000000e+00  7.0318672007022762e+00 -2.6869197158997409e+00 0.0000000000000000e+00  7.0505640948880810e+00 -2.6609093377593909e+00 0.0000000000000000e+00  7.0671386573759349e+00 -2.6426162373698201e+00 0.0000000000000000e+00  7.0847249760287880e+00 -2.6172000653988405e+00 0.0000000000000000e+00  7.1008650016719548e+00 -2.5966585342908419e+00 0.0000000000000000e+00  7.1201276482988085e+00 -2.5746960418687919e+00 0.0000000000000000e+00  7.1338096011056980e+00 -2.5499426310070832e+00 0.0000000000000000e+00  7.1537273415191125e+00 -2.5302349450016322e+00 0.0000000000000000e+00  7.1681501352291663e+00 -2.5048772795723013e+00 0.0000000000000000e+00  7.1862529675967490e+00 -2.4838191397226126e+00 0.0000000000000000e+00  7.2006476754232205e+00 -2.4587058467688947e+00 0.0000000000000000e+00  7.2200910062974604e+00 -2.4385024534851358e+00 0.0000000000000000e+00  7.2319683264947550e+00 -2.4110505546503607e+00 0.0000000000000000e+00  7.2519030361496100e+00 -2.3911689995623129e+00 0.0000000000000000e+00  7.2646543815396178e+00 -2.3648423099504634e+00 0.0000000000000000e+00  7.2822595052107246e+00 -2.3409183155352484e+00 0.0000000000000000e+00  7.2953630730429166e+00 -2.3167320642062355e+00 0.0000000000000000e+00  7.3138136746257025e+00 -2.2924838739466051e+00 0.0000000000000000e+00  7.3245134688719293e+00 -2.2659984612157782e+00 0.0000000000000000e+00  7.3433334675237356e+00 -2.2433957457399782e+00 0.0000000000000000e+00  7.3547935811482450e+00 -2.2171222800871129e+00 0.0000000000000000e+00  7.3710899192858355e+00 -2.1910041018639350e+00 0.0000000000000000e+00  7.3831373724955096e+00 -2.1669994911055803e+00 0.0000000000000000e+00  7.3997903018462150e+00 -2.1389591924010904e+00 0.0000000000000000e+00  7.4096265476676830e+00 -2.1132322262572885e+00 0.0000000000000000e+00  7.4266010626053047e+00 -2.0866733972712090e+00 0.0000000000000000e+00  7.4369418128550189e+00 -2.0589085832345804e+00 0.0000000000000000e+00  7.4513855613685598e+00 -2.0323849613310405e+00 0.0000000000000000e+00  7.4625749352339659e+00 -2.0037639539612768e+00 0.0000000000000000e+00  7.4767173039121957e+00 -1.9780695777671125e+00 0.0000000000000000e+00  7.4862159729261695e+00 -1.9472004226053636e+00 0.0000000000000000e+00  7.5004212604779283e+00 -1.9226575373308816e+00 0.0000000000000000e+00  7.5102788242806602e+00 -1.8909110607270201e+00 0.0000000000000000e+00  7.5220703245231624e+00 -1.8652219393636669e+00 0.0000000000000000e+00  7.5329034208110999e+00 -1.8336270584402115e+00 0.0000000000000000e+00  7.5439001178839087e+00 -1.8075843719349056e+00 0.0000000000000000e+00  7.5535544734819480e+00 -1.7741301591917844e+00 0.0000000000000000e+00  7.5643872034488844e+00 -1.7484419069051418e+00 0.0000000000000000e+00  7.5742273345247275e+00 -1.7148980218504943e+00 0.0000000000000000e+00  7.5829578511191054e+00 -1.6866609412091087e+00 0.0000000000000000e+00  7.5936893714888232e+00 -1.6552645547621239e+00 0.0000000000000000e+00  7.6013650301938505e+00 -1.6244087300623984e+00 0.0000000000000000e+00  7.6113423982594561e+00 -1.5947541974395640e+00 0.0000000000000000e+00  7.6186826287278748e+00 -1.5605564558801586e+00 0.0000000000000000e+00  7.6286423796214784e+00 -1.5353996586962924e+00 0.0000000000000000e+00  7.6343546307548813e+00 -1.4947988865135540e+00 0.0000000000000000e+00  7.6449285725530407e+00 -1.4749494589133831e+00 0.0000000000000000e+00  7.6495443774734060e+00 -1.4300240282753356e+00 0.0000000000000000e+00  7.6596878844644305e+00 -1.4106141359382922e+00 0.0000000000000000e+00  7.6638749286304151e+00 -1.3668808936087371e+00 0.0000000000000000e+00  7.6737580608448805e+00 -1.3443084248584154e+00 0.0000000000000000e+00  7.6769118917879045e+00 -1.3027844602208793e+00 0.0000000000000000e+00  7.6869799646120018e+00 -1.2766065666498994e+00 0.0000000000000000e+00  7.6892459699262794e+00 -1.2399613275829819e+00 0.0000000000000000e+00  7.6989448397085258e+00 -1.2068408246322966e+00 0.0000000000000000e+00  7.7009501380756573e+00 -1.1777419688818926e+00 0.0000000000000000e+00  7.7099806961959745e+00 -1.1394158525090201e+00 0.0000000000000000e+00  7.7116915115273468e+00 -1.1120307545092041e+00 0.0000000000000000e+00  7.7203123244240164e+00 -1.0745523672752892e+00 0.0000000000000000e+00  7.7216046996685348e+00 -1.0464878753509124e+00 0.0000000000000000e+00  7.7296614735254883e+00 -1.0093971961316586e+00 0.0000000000000000e+00  7.7310041635067348e+00 -9.8064486511800542e-01 0.0000000000000000e+00  7.7380284190535313e+00 -9.4590159102040638e-01 0.0000000000000000e+00  7.7396386396775254e+00 -9.1066522022262120e-01 0.0000000000000000e+00  7.7458320136294692e+00 -8.8394585594912067e-01 0.0000000000000000e+00  7.7473229931507754e+00 -8.3903606153695998e-01 0.0000000000000000e+00  7.7529320646565321e+00 -8.1835796655164872e-01 0.0000000000000000e+00  7.7544447561646823e+00 -7.6911174145568184e-01 0.0000000000000000e+00  7.7590979972820451e+00 -7.4957685036826449e-01 0.0000000000000000e+00  7.7608983621441210e+00 -7.0446090641747983e-01 0.0000000000000000e+00  7.7647088132045763e+00 -6.8559498797138096e-01 0.0000000000000000e+00  7.7664112208471616e+00 -6.4249126019514591e-01 0.0000000000000000e+00  7.7697824122351848e+00 -6.2257473408923958e-01 0.0000000000000000e+00  7.7713685049693435e+00 -5.7695751185709676e-01 0.0000000000000000e+00  7.7740266378094649e+00 -5.5269471851563345e-01 0.0000000000000000e+00  7.7758078558534516e+00 -5.0988270120616697e-01 0.0000000000000000e+00  7.7776658256735285e+00 -4.8280273221490294e-01 0.0000000000000000e+00  7.7793781972262526e+00 -4.2885855170414122e-01 0.0000000000000000e+00  7.7808834649775642e+00 -4.0274753303804078e-01 0.0000000000000000e+00  7.7822270475130164e+00 -3.5471349788052109e-01 0.0000000000000000e+00  7.7832371863714274e+00 -3.1959825055801200e-01 0.0000000000000000e+00  7.7845663858599714e+00 -2.8280595106584827e-01 0.0000000000000000e+00  7.7849375444367110e+00 -2.3539312470420509e-01 0.0000000000000000e+00  7.7859675535847330e+00 -2.1321015936305390e-01 0.0000000000000000e+00  7.7861628589183027e+00 -1.5804303239730441e-01 0.0000000000000000e+00  7.7868102112795228e+00 -1.4817150935906764e-01 0.0000000000000000e+00  7.7868032495867983e+00 -4.5281204798185669e-02 0.0000000000000000e+00  7.7875436562518576e+00 0.0000000000000000e+00 0.0000000000000000e+00  2.5535862005775738e+00 0.0000000000000000e+00 5.0123200998687658e-03  2.5548804364352917e+00 2.9045132579301153e-02 -7.5876012660930220e-03  2.5530814834949251e+00 6.9243144687151009e-02 -3.2664834774103861e-03  2.5542096475139493e+00 1.1131125890120500e-01 2.0755210558087087e-02  2.5538686357715559e+00 1.3273857723783442e-01 -2.3539712965173230e-02  2.5532345900297910e+00 1.8574458342633063e-01 2.3975928776415825e-02  2.5537306267537292e+00 2.0274181110498743e-01 -2.1957092000030060e-02  2.5538619721472058e+00 2.6102799738753141e-01 1.4298567713814226e-02  2.5526262769729633e+00 2.7281046663253156e-01 4.8104246291509319e-04  2.5540558737449919e+00 3.2574693494704798e-01 -1.6662006296981082e-02  2.5529101995283425e+00 3.5961210909081381e-01 2.5625403125190235e-02  2.5531634319715035e+00 3.7490127339368384e-01 -2.2591285912883508e-02  2.5531985524831353e+00 4.5119964889205666e-01 9.9513576848894083e-03  2.5530545070913777e+00 4.3788007167251253e-01 4.6382199673038627e-03  2.5529649299570196e+00 5.1023571226819431e-01 -1.4318647757879631e-02  2.5526085212311886e+00 5.4127876074219516e-01 1.7117187641543435e-02  2.5534320256860816e+00 5.4441076075096717e-01 -1.5908136560352924e-02  2.5520625082512378e+00 6.3240417727735332e-01 1.3427950810552083e-02  2.5530875507207220e+00 6.2317060073345965e-01 -1.2500824580666632e-02  2.5525709494136621e+00 6.8049025629242310e-01 1.2520875102301135e-02  2.5525319486381042e+00 7.1049117275189655e-01 -1.2644047292811099e-02  2.5522108673685606e+00 7.5751702587533243e-01 1.3104144458387165e-02  2.5530412555075599e+00 7.6419381689273069e-01 -1.2875650751416475e-02  2.5516973308206636e+00 8.3566326340121555e-01 1.1047605260472756e-02  2.5525724755351695e+00 8.5198150531171801e-01 -6.4824006445752804e-03  2.5524498074000070e+00 8.7898314615296580e-01 4.7764336947290033e-04  2.5517299880894977e+00 9.4086974875405294e-01 3.2793994452841079e-03  2.5523398092818614e+00 9.5382207784654138e-01 -3.8560286828392635e-03  2.5520941730800191e+00 9.9688696435695945e-01 1.1379345622784512e-03  2.5516590809196051e+00 1.0369038629043050e+00 1.8121741969363229e-03  2.5520779701419785e+00 1.0673012488207381e+00 -3.3985639231582320e-03  2.5515964645896378e+00 1.1039666455114556e+00 3.4827919912738211e-03  2.5518415531738876e+00 1.1409142847662022e+00 -3.8246080129819720e-03  2.5511837636783885e+00 1.1772590337442248e+00 4.8165114956642214e-03  2.5519253069762704e+00 1.2092684744402085e+00 -6.4342981330576410e-03  2.5507267267203626e+00 1.2505435964702456e+00 7.5419593305461417e-03  2.5518245391214323e+00 1.2795662256076457e+00 -8.1977000045951407e-03  2.5502140181551241e+00 1.3229446997954577e+00 8.4930415909633544e-03  2.5518159138861320e+00 1.3500477157153974e+00 -8.5224221841387147e-03  2.5498698888194289e+00 1.3948384380520753e+00 8.0463838845223432e-03  2.5511290053554716e+00 1.4206597989552534e+00 -7.2029871680223149e-03  2.5499807943098860e+00 1.4669157368664343e+00 6.1059494255534521e-03  2.5507602288486559e+00 1.4923555565018432e+00 -5.2799398616543468e-03  2.5490735938042604e+00 1.5358310899800278e+00 4.4150658179511375e-03  2.5508093831355549e+00 1.5664852985205573e+00 -3.7250272089398217e-03  2.5490323554934680e+00 1.6059218518404716e+00 3.0275942081464881e-03  2.5493042522261078e+00 1.6365549355224895e+00 -2.5631154649595556e-03  2.5493401260854087e+00 1.6783834565944975e+00 2.2127102994663485e-03  2.5492700470916758e+00 1.7086946547449253e+00 -1.9314019445325211e-03  2.5476610979179304e+00 1.7466096857842455e+00 1.5149237441055841e-03  2.5492910779662692e+00 1.7820604267899909e+00 -1.1210103060661073e-03  2.5481071459558167e+00 1.8184783743344470e+00 5.4468685980642458e-04  2.5470472831572146e+00 1.8509589061637657e+00 -1.9483363637854675e-04  2.5481094153015031e+00 1.8900754583069712e+00 -4.6761655812546887e-04  2.5473762540972267e+00 1.9257556978382799e+00 7.7707122279977489e-04  2.5459292422734627e+00 1.9563234832250922e+00 -1.6380212958601011e-03  2.5465295386957312e+00 1.9994054342478984e+00 1.6777216041622119e-03  2.5465207168496722e+00 2.0302241671180559e+00 -2.3613949445729326e-03  2.5441188256017373e+00 2.0664628052673994e+00 1.7153546223481835e-03  2.5453718548742823e+00 2.1030867999803866e+00 -2.0074857027318452e-03  2.5448815506321054e+00 2.1401109442996002e+00 1.3255397626861772e-03  2.5436852660912286e+00 2.1697861661829361e+00 -1.0714185544830645e-03  2.5455190273145316e+00 2.2112324061356894e+00 6.5398373388908483e-04  2.5427865797101386e+00 2.2413130534368801e+00 4.2653926227675830e-03  2.5580525718381946e+00 2.2661919130826669e+00 -1.5283706733928931e-02  3.1091134748054343e+00 1.1977836842207166e+00 1.7383521318736134e-02  4.4881231608215941e+00 -1.2329975563691342e+00 1.8322245260483649e-02  5.4863626325055090e+00 -2.6949665233718920e+00 -1.9348824320934124e-02  5.9321974208931723e+00 -3.2522434784079199e+00 -1.0707158013549759e-03  6.1322070681264051e+00 -3.4686845645910176e+00 1.4705192809399151e-04  6.2315845042674187e+00 -3.5441734349774316e+00 6.5164392342799042e-03  6.2777072746831921e+00 -3.5651592217858199e+00 -2.1780601091721473e-03  6.3079634321882256e+00 -3.5501446957697098e+00 3.9767451850807210e-03  6.3276633403528733e+00 -3.5380961105356956e+00 -3.0214131437315403e-03  6.3479579580104941e+00 -3.5122100789595256e+00 3.5401238088389421e-03  6.3645529775309875e+00 -3.4957585595876370e+00 -3.0715049795875431e-03  6.3843407336940805e+00 -3.4688172910696995e+00 3.2458806221225063e-03  6.3999611429799295e+00 -3.4513079791402155e+00 -2.8583052260165876e-03  6.4195839959016432e+00 -3.4246072672280152e+00 2.7612587350721481e-03  6.4356964930566729e+00 -3.4069128491532479e+00 -2.5113411125131891e-03  6.4546928205561676e+00 -3.3817849041