<?xml version="1.0"?>
<VTKFile type="UnstructuredGrid"  version="0.1"  >
<UnstructuredGrid>
<Piece  NumberOfPoints="8241" NumberOfCells="16000">
<Points>
<DataArray  type="Float64"  NumberOfComponents="3"  format="ascii">-5 -1 0  -4.95 -1 0  -4.9 -1 0  -4.85 -1 0  -4.8 -1 0  -4.75 -1 0  -4.7 -1 0  -4.65 -1 0  -4.6 -1 0  -4.55 -1 0  -4.5 -1 0  -4.45 -1 0  -4.4 -1 0  -4.35 -1 0  -4.3 -1 0  -4.25 -1 0  -4.2 -1 0  -4.15 -1 0  -4.1 -1 0  -4.05 -1 0  -4 -1 0  -3.95 -1 0  -3.9 -1 0  -3.85 -1 0  -3.8 -1 0  -3.75 -1 0  -3.7 -1 0  -3.65 -1 0  -3.6 -1 0  -3.55 -1 0  -3.5 -1 0  -3.45 -1 0  -3.4 -1 0  -3.35 -1 0  -3.3 -1 0  -3.25 -1 0  -3.2 -1 0  -3.15 -1 0  -3.1 -1 0  -3.05 -1 0  -3 -1 0  -2.95 -1 0  -2.9 -1 0  -2.85 -1 0  -2.8 -1 0  -2.75 -1 0  -2.7 -1 0  -2.65 -1 0  -2.6 -1 0  -2.55 -1 0  -2.5 -1 0  -2.45 -1 0  -2.4 -1 0  -2.35 -1 0  -2.3 -1 0  -2.25 -1 0  -2.2 -1 0  -2.15 -1 0  -2.1 -1 0  -2.05 -1 0  -2 -1 0  -1.95 -1 0  -1.9 -1 0  -1.85 -1 0  -1.8 -1 0  -1.75 -1 0  -1.7 -1 0  -1.65 -1 0  -1.6 -1 0  -1.55 -1 0  -1.5 -1 0  -1.45 -1 0  -1.4 -1 0  -1.35 -1 0  -1.3 -1 0  -1.25 -1 0  -1.2 -1 0  -1.15 -1 0  -1.1 -1 0  -1.05 -1 0  -1 -1 0  -0.9500000000000002 -1 0  -0.9000000000000004 -1 0  -0.8499999999999996 -1 0  -0.7999999999999998 -1 0  -0.75 -1 0  -0.7000000000000002 -1 0  -0.6500000000000004 -1 0  -0.5999999999999996 -1 0  -0.5499999999999998 -1 0  -0.5 -1 0  -0.4500000000000002 -1 0  -0.4000000000000004 -1 0  -0.3499999999999996 -1 0  -0.2999999999999998 -1 0  -0.25 -1 0  -0.2000000000000002 -1 0  -0.1500000000000004 -1 0  -0.09999999999999964 -1 0  -0.04999999999999982 -1 0  0 -1 0  0.04999999999999982 -1 0  0.09999999999999964 -1 0  0.1500000000000004 -1 0  0.2000000000000002 -1 0  0.25 -1 0  0.2999999999999998 -1 0  0.3499999999999996 -1 0  0.4000000000000004 -1 0  0.4500000000000002 -1 0  0.5 -1 0  0.5499999999999998 -1 0  0.5999999999999996 -1 0  0.6500000000000004 -1 0  0.7000000000000002 -1 0  0.75 -1 0  0.7999999999999998 -1 0  0.8499999999999996 -1 0  0.9000000000000004 -1 0  0.9500000000000002 -1 0  1 -1 0  1.05 -1 0  1.1 -1 0  1.15 -1 0  1.2 -1 0  1.25 -1 0  1.3 -1 0  1.35 -1 0  1.4 -1 0  1.45 -1 0  1.5 -1 0  1.55 -1 0  1.6 -1 0  1.65 -1 0  1.7 -1 0  1.75 -1 0  1.8 -1 0  1.85 -1 0  1.9 -1 0  1.95 -1 0  2 -1 0  2.05 -1 0  2.1 -1 0  2.15 -1 0  2.2 -1 0  2.25 -1 0  2.3 -1 0  2.35 -1 0  2.4 -1 0  2.45 -1 0  2.5 -1 0  2.55 -1 0  2.6 -1 0  2.65 -1 0  2.7 -1 0  2.75 -1 0  2.8 -1 0  2.85 -1 0  2.9 -1 0  2.95 -1 0  3 -1 0  3.050000000000001 -1 0  3.1 -1 0  3.15 -1 0  3.199999999999999 -1 0  3.25 -1 0  3.300000000000001 -1 0  3.35 -1 0  3.4 -1 0  3.449999999999999 -1 0  3.5 -1 0  3.550000000000001 -1 0  3.6 -1 0  3.65 -1 0  3.699999999999999 -1 0  3.75 -1 0  3.800000000000001 -1 0  3.85 -1 0  3.9 -1 0  3.949999999999999 -1 0  4 -1 0  4.050000000000001 -1 0  4.1 -1 0  4.15 -1 0  4.199999999999999 -1 0  4.25 -1 0  4.300000000000001 -1 0  4.35 -1 0  4.4 -1 0  4.449999999999999 -1 0  4.5 -1 0  4.550000000000001 -1 0  4.6 -1 0  4.65 -1 0  4.699999999999999 -1 0  4.75 -1 0  4.800000000000001 -1 0  4.85 -1 0  4.9 -1 0  4.949999999999999 -1 0  5 -1 0  -5 -0.95 0  -4.95 -0.95 0  -4.9 -0.95 0  -4.85 -0.95 0  -4.8 -0.95 0  -4.75 -0.95 0  -4.7 -0.95 0  -4.65 -0.95 0  -4.6 -0.95 0  -4.55 -0.95 0  -4.5 -0.95 0  -4.45 -0.95 0  -4.4 -0.95 0  -4.35 -0.95 0  -4.3 -0.95 0  -4.25 -0.95 0  -4.2 -0.95 0  -4.15 -0.95 0  -4.1 -0.95 0  -4.05 -0.95 0  -4 -0.95 0  -3.95 -0.95 0  -3.9 -0.95 0  -3.85 -0.95 0  -3.8 -0.95 0  -3.75 -0.95 0  -3.7 -0.95 0  -3.65 -0.95 0  -3.6 -0.95 0  -3.55 -0.95 0  -3.5 -0.95 0  -3.45 -0.95 0  -3.4 -0.95 0  -3.35 -0.95 0  -3.3 -0.95 0  -3.25 -0.95 0  -3.2 -0.95 0  -3.15 -0.95 0  -3.1 -0.95 0  -3.05 -0.95 0  -3 -0.95 0  -2.95 -0.95 0  -2.9 -0.95 0  -2.85 -0.95 0  -2.8 -0.95 0  -2.75 -0.95 0  -2.7 -0.95 0  -2.65 -0.95 0  -2.6 -0.95 0  -2.55 -0.95 0  -2.5 -0.95 0  -2.45 -0.95 0  -2.4 -0.95 0  -2.35 -0.95 0  -2.3 -0.95 0  -2.25 -0.95 0  -2.2 -0.95 0  -2.15 -0.95 0  -2.1 -0.95 0  -2.05 -0.95 0  -2 -0.95 0  -1.95 -0.95 0  -1.9 -0.95 0  -1.85 -0.95 0  -1.8 -0.95 0  -1.75 -0.95 0  -1.7 -0.95 0  -1.65 -0.95 0  -1.6 -0.95 0  -1.55 -0.95 0  -1.5 -0.95 0  -1.45 -0.95 0  -1.4 -0.95 0  -1.35 -0.95 0  -1.3 -0.95 0  -1.25 -0.95 0  -1.2 -0.95 0  -1.15 -0.95 0  -1.1 -0.95 0  -1.05 -0.95 0  -1 -0.95 0  -0.9500000000000002 -0.95 0  -0.9000000000000004 -0.95 0  -0.8499999999999996 -0.95 0  -0.7999999999999998 -0.95 0  -0.75 -0.95 0  -0.7000000000000002 -0.95 0  -0.6500000000000004 -0.95 0  -0.5999999999999996 -0.95 0  -0.5499999999999998 -0.95 0  -0.5 -0.95 0  -0.4500000000000002 -0.95 0  -0.4000000000000004 -0.95 0  -0.3499999999999996 -0.95 0  -0.2999999999999998 -0.95 0  -0.25 -0.95 0  -0.2000000000000002 -0.95 0  -0.1500000000000004 -0.95 0  -0.09999999999999964 -0.95 0  -0.04999999999999982 -0.95 0  0 -0.95 0  0.04999999999999982 -0.95 0  0.09999999999999964 -0.95 0  0.1500000000000004 -0.95 0  0.2000000000000002 -0.95 0  0.25 -0.95 0  0.2999999999999998 -0.95 0  0.3499999999999996 -0.95 0  0.4000000000000004 -0.95 0  0.4500000000000002 -0.95 0  0.5 -0.95 0  0.5499999999999998 -0.95 0  0.5999999999999996 -0.95 0  0.6500000000000004 -0.95 0  0.7000000000000002 -0.95 0  0.75 -0.95 0  0.7999999999999998 -0.95 0  0.8499999999999996 -0.95 0  0.9000000000000004 -0.95 0  0.9500000000000002 -0.95 0  1 -0.95 0  1.05 -0.95 0  1.1 -0.95 0  1.15 -0.95 0  1.2 -0.95 0  1.25 -0.95 0  1.3 -0.95 0  1.35 -0.95 0  1.4 -0.95 0  1.45 -0.95 0  1.5 -0.95 0  1.55 -0.95 0  1.6 -0.95 0  1.65 -0.95 0  1.7 -0.95 0  1.75 -0.95 0  1.8 -0.95 0  1.85 -0.95 0  1.9 -0.95 0  1.95 -0.95 0  2 -0.95 0  2.05 -0.95 0  2.1 -0.95 0  2.15 -0.95 0  2.2 -0.95 0  2.25 -0.95 0  2.3 -0.95 0  2.35 -0.95 0  2.4 -0.95 0  2.45 -0.95 0  2.5 -0.95 0  2.55 -0.95 0  2.6 -0.95 0  2.65 -0.95 0  2.7 -0.95 0  2.75 -0.95 0  2.8 -0.95 0  2.85 -0.95 0  2.9 -0.95 0  2.95 -0.95 0  3 -0.95 0  3.050000000000001 -0.95 0  3.1 -0.95 0  3.15 -0.95 0  3.199999999999999 -0.95 0  3.25 -0.95 0  3.300000000000001 -0.95 0  3.35 -0.95 0  3.4 -0.95 0  3.449999999999999 -0.95 0  3.5 -0.95 0  3.550000000000001 -0.95 0  3.6 -0.95 0  3.65 -0.95 0  3.699999999999999 -0.95 0  3.75 -0.95 0  3.800000000000001 -0.95 0  3.85 -0.95 0  3.9 -0.95 0  3.949999999999999 -0.95 0  4 -0.95 0  4.050000000000001 -0.95 0  4.1 -0.95 0  4.15 -0.95 0  4.199999999999999 -0.95 0  4.25 -0.95 0  4.300000000000001 -0.95 0  4.35 -0.95 0  4.4 -0.95 0  4.449999999999999 -0.95 0  4.5 -0.95 0  4.550000000000001 -0.95 0  4.6 -0.95 0  4.65 -0.95 0  4.699999999999999 -0.95 0  4.75 -0.95 0  4.800000000000001 -0.95 0  4.85 -0.95 0  4.9 -0.95 0  4.949999999999999 -0.95 0  5 -0.95 0  -5 -0.9 0  -4.95 -0.9 0  -4.9 -0.9 0  -4.85 -0.9 0  -4.8 -0.9 0  -4.75 -0.9 0  -4.7 -0.9 0  -4.65 -0.9 0  -4.6 -0.9 0  -4.55 -0.9 0  -4.5 -0.9 0  -4.45 -0.9 0  -4.4 -0.9 0  -4.35 -0.9 0  -4.3 -0.9 0  -4.25 -0.9 0  -4.2 -0.9 0  -4.15 -0.9 0  -4.1 -0.9 0  -4.05 -0.9 0  -4 -0.9 0  -3.95 -0.9 0  -3.9 -0.9 0  -3.85 -0.9 0  -3.8 -0.9 0  -3.75 -0.9 0  -3.7 -0.9 0  -3.65 -0.9 0  -3.6 -0.9 0  -3.55 -0.9 0  -3.5 -0.9 0  -3.45 -0.9 0  -3.4 -0.9 0  -3.35 -0.9 0  -3.3 -0.9 0  -3.25 -0.9 0  -3.2 -0.9 0  -3.15 -0.9 0  -3.1 -0.9 0  -3.05 -0.9 0  -3 -0.9 0  -2.95 -0.9 0  -2.9 -0.9 0  -2.85 -0.9 0  -2.8 -0.9 0  -2.75 -0.9 0  -2.7 -0.9 0  -2.65 -0.9 0  -2.6 -0.9 0  -2.55 -0.9 0  -2.5 -0.9 0  -2.45 -0.9 0  -2.4 -0.9 0  -2.35 -0.9 0  -2.3 -0.9 0  -2.25 -0.9 0  -2.2 -0.9 0  -2.15 -0.9 0  -2.1 -0.9 0  -2.05 -0.9 0  -2 -0.9 0  -1.95 -0.9 0  -1.9 -0.9 0  -1.85 -0.9 0  -1.8 -0.9 0  -1.75 -0.9 0  -1.7 -0.9 0  -1.65 -0.9 0  -1.6 -0.9 0  -1.55 -0.9 0  -1.5 -0.9 0  -1.45 -0.9 0  -1.4 -0.9 0  -1.35 -0.9 0  -1.3 -0.9 0  -1.25 -0.9 0  -1.2 -0.9 0  -1.15 -0.9 0  -1.1 -0.9 0  -1.05 -0.9 0  -1 -0.9 0  -0.9500000000000002 -0.9 0  -0.9000000000000004 -0.9 0  -0.8499999999999996 -0.9 0  -0.7999999999999998 -0.9 0  -0.75 -0.9 0  -0.7000000000000002 -0.9 0  -0.6500000000000004 -0.9 0  -0.5999999999999996 -0.9 0  -0.5499999999999998 -0.9 0  -0.5 -0.9 0  -0.4500000000000002 -0.9 0  -0.4000000000000004 -0.9 0  -0.3499999999999996 -0.9 0  -0.2999999999999998 -0.9 0  -0.25 -0.9 0  -0.2000000000000002 -0.9 0  -0.1500000000000004 -0.9 0  -0.09999999999999964 -0.9 0  -0.04999999999999982 -0.9 0  0 -0.9 0  0.04999999999999982 -0.9 0  0.09999999999999964 -0.9 0  0.1500000000000004 -0.9 0  0.2000000000000002 -0.9 0  0.25 -0.9 0  0.2999999999999998 -0.9 0  0.3499999999999996 -0.9 0  0.4000000000000004 -0.9 0  0.4500000000000002 -0.9 0  0.5 -0.9 0  0.5499999999999998 -0.9 0  0.5999999999999996 -0.9 0  0.6500000000000004 -0.9 0  0.7000000000000002 -0.9 0  0.75 -0.9 0  0.7999999999999998 -0.9 0  0.8499999999999996 -0.9 0  0.9000000000000004 -0.9 0  0.9500000000000002 -0.9 0  1 -0.9 0  1.05 -0.9 0  1.1 -0.9 0  1.15 -0.9 0  1.2 -0.9 0  1.25 -0.9 0  1.3 -0.9 0  1.35 -0.9 0  1.4 -0.9 0  1.45 -0.9 0  1.5 -0.9 0  1.55 -0.9 0  1.6 -0.9 0  1.65 -0.9 0  1.7 -0.9 0  1.75 -0.9 0  1.8 -0.9 0  1.85 -0.9 0  1.9 -0.9 0  1.95 -0.9 0  2 -0.9 0  2.05 -0.9 0  2.1 -0.9 0  2.15 -0.9 0  2.2 -0.9 0  2.25 -0.9 0  2.3 -0.9 0  2.35 -0.9 0  2.4 -0.9 0  2.45 -0.9 0  2.5 -0.9 0  2.55 -0.9 0  2.6 -0.9 0  2.65 -0.9 0  2.7 -0.9 0  2.75 -0.9 0  2.8 -0.9 0  2.85 -0.9 0  2.9 -0.9 0  2.95 -0.9 0  3 -0.9 0  3.050000000000001 -0.9 0  3.1 -0.9 0  3.15 -0.9 0  3.199999999999999 -0.9 0  3.25 -0.9 0  3.300000000000001 -0.9 0  3.35 -0.9 0  3.4 -0.9 0  3.449999999999999 -0.9 0  3.5 -0.9 0  3.550000000000001 -0.9 0  3.6 -0.9 0  3.65 -0.9 0  3.699999999999999 -0.9 0  3.75 -0.9 0  3.800000000000001 -0.9 0  3.85 -0.9 0  3.9 -0.9 0  3.949999999999999 -0.9 0  4 -0.9 0  4.050000000000001 -0.9 0  4.1 -0.9 0  4.15 -0.9 0  4.199999999999999 -0.9 0  4.25 -0.9 0  4.300000000000001 -0.9 0  4.35 -0.9 0  4.4 -0.9 0  4.449999999999999 -0.9 0  4.5 -0.9 0  4.550000000000001 -0.9 0  4.6 -0.9 0  4.65 -0.9 0  4.699999999999999 -0.9 0  4.75 -0.9 0  4.800000000000001 -0.9 0  4.85 -0.9 0  4.9 -0.9 0  4.949999999999999 -0.9 0  5 -0.9 0  -5 -0.85 0  -4.95 -0.85 0  -4.9 -0.85 0  -4.85 -0.85 0  -4.8 -0.85 0  -4.75 -0.85 0  -4.7 -0.85 0  -4.65 -0.85 0  -4.6 -0.85 0  -4.55 -0.85 0  -4.5 -0.85 0  -
[...]
<PointData  Vectors="f_15"> 
<DataArray  type="Float64"  Name="f_15"  NumberOfComponents="3" format="ascii">9.9996979763580569e+00 0.0000000000000000e+00 0.0000000000000000e+00  9.9996513697309055e+00 1.3944022545304963e-04 0.0000000000000000e+00  9.9996211709979868e+00 2.7653656591704388e-04 0.0000000000000000e+00  9.9994718567104677e+00 4.3968662820462575e-04 0.0000000000000000e+00  9.9993604698541958e+00 6.3702449237260897e-04 0.0000000000000000e+00  9.9990743178270769e+00 9.1606052580251352e-04 0.0000000000000000e+00  9.9987824564908561e+00 1.2387958114716377e-03 0.0000000000000000e+00  9.9983184740189355e+00 1.7158958802879487e-03 0.0000000000000000e+00  9.9977482271783220e+00 2.2958388705925001e-03 0.0000000000000000e+00  9.9969366472003109e+00 3.0900567456903505e-03 0.0000000000000000e+00  9.9959576038974092e+00 4.0890700224133032e-03 0.0000000000000000e+00  9.9946052402458623e+00 5.4215349394962434e-03 0.0000000000000000e+00  9.9929425612120522e+00 7.0652617572177544e-03 0.0000000000000000e+00  9.9907785202849659e+00 9.2220672569017885e-03 0.0000000000000000e+00  9.9881100853166416e+00 1.1865788506855048e-02 0.0000000000000000e+00  9.9847101981329640e+00 1.5220346198137637e-02 0.0000000000000000e+00  9.9805925847115660e+00 1.9316169980376417e-02 0.0000000000000000e+00  9.9754768061791594e+00 2.4380550812893385e-02 0.0000000000000000e+00  9.9693284607099351e+00 3.0465079666504573e-02 0.0000000000000000e+00  9.9618778513596453e+00 3.7861695189861808e-02 0.0000000000000000e+00  9.9530866355387300e+00 4.6579407369939770e-02 0.0000000000000000e+00  9.9426034687818330e+00 5.6969709986430736e-02 0.0000000000000000e+00  9.9304418266100125e+00 6.9052825218967787e-02 0.0000000000000000e+00  9.9162685660612926e+00 8.3129146016933886e-02 0.0000000000000000e+00  9.9000317882065882e+00 9.9259459831657015e-02 0.0000000000000000e+00  9.8814575159303057e+00 1.1774792056596746e-01 0.0000000000000000e+00  9.8605774436012208e+00 1.3853240743868389e-01 0.0000000000000000e+00  9.8370332882464275e+00 1.6200193579191341e-01 0.0000000000000000e+00  9.8109554247826427e+00 1.8802452739375952e-01 0.0000000000000000e+00  9.7820938563630548e+00 2.1687340860939702e-01 0.0000000000000000e+00  9.7504987702413164e+00 2.4847706205589817e-01 0.0000000000000000e+00  9.7160218959343982e+00 2.8305488138714729e-01 0.0000000000000000e+00  9.6788486698007148e+00 3.2036041107923446e-01 0.0000000000000000e+00  9.6387323559209133e+00 3.6074189468124551e-01 0.0000000000000000e+00  9.5959574780108596e+00 4.0384166074746913e-01 0.0000000000000000e+00  9.5504175786110181e+00 4.4988040137409202e-01 0.0000000000000000e+00  9.5022767328841695e+00 4.9860819484386804e-01 0.0000000000000000e+00  9.4515166286283474e+00 5.5018186026899796e-01 0.0000000000000000e+00  9.3984307292113805e+00 6.0419048253635366e-01 0.0000000000000000e+00  9.3428656034776445e+00 6.6096106405218980e-01 0.0000000000000000e+00  9.2851828879203033e+00 7.1999145464859182e-01 0.0000000000000000e+00  9.2253469092885325e+00 7.8148991895779951e-01 0.0000000000000000e+00  9.1635738686139412e+00 8.4512177964631674e-01 0.0000000000000000e+00  9.0998776042981540e+00 9.1101267847144762e-01 0.0000000000000000e+00  9.0345837502017190e+00 9.7874709811890193e-01 0.0000000000000000e+00  8.9675493169403655e+00 1.0485757167104184e+00 0.0000000000000000e+00  8.8991509056700551e+00 1.1200741718232694e+00 0.0000000000000000e+00  8.8293241203246176e+00 1.1933462151920848e+00 0.0000000000000000e+00  8.7583146721913412e+00 1.2681823770980534e+00 0.0000000000000000e+00  8.6860791753735764e+00 1.3445700947115589e+00 0.0000000000000000e+00  8.6129528463339806e+00 1.4223001907638952e+00 0.0000000000000000e+00  8.5387461257802180e+00 1.5014198789309989e+00 0.0000000000000000e+00  8.4638412835898524e+00 1.5817422239713284e+00 0.0000000000000000e+00  8.3880909460942625e+00 1.6632203340915614e+00 0.0000000000000000e+00  8.3117833553572833e+00 1.7457909952598936e+00 0.0000000000000000e+00  8.2347769113824238e+00 1.8293687330298996e+00 0.0000000000000000e+00  8.1574301604420967e+00 1.9138706970380277e+00 0.0000000000000000e+00  8.0794795700004212e+00 1.9992630758364476e+00 0.0000000000000000e+00  8.0013376310799043e+00 2.0854525064494438e+00 0.0000000000000000e+00  7.9227443993616866e+00 2.1724232272504338e+00 0.0000000000000000e+00  7.8440650161073870e+00 2.2600461242229906e+00 0.0000000000000000e+00  7.7650323287859546e+00 2.3483723063153028e+00 0.0000000000000000e+00  7.6860662495541181e+00 2.4372626455323454e+00 0.0000000000000000e+00  7.6068023921280430e+00 2.5267273022386454e+00 0.0000000000000000e+00  7.5277205254785997e+00 2.6166492994887758e+00 0.0000000000000000e+00  7.4484328938188344e+00 2.7071777623814861e+00 0.0000000000000000e+00  7.3694017671514223e+00 2.7979358475715976e+00 0.0000000000000000e+00  7.2902352540277393e+00 2.8892786087994211e+00 0.0000000000000000e+00  7.2114247200576838e+00 2.9808524456379697e+00 0.0000000000000000e+00  7.1325146440444707e+00 3.0728715340751243e+00 0.0000000000000000e+00  7.0540429068307100e+00 3.1650021626635998e+00 0.0000000000000000e+00  6.9755331269433327e+00 3.2576623537460798e+00 0.0000000000000000e+00  6.8975047266900127e+00 3.3502949032853651e+00 0.0000000000000000e+00  6.8194970690262160e+00 3.4433731788424207e+00 0.0000000000000000e+00  6.7420256761198036e+00 3.5364264161127625e+00 0.0000000000000000e+00  6.6646077032658839e+00 3.6298739738874861e+00 0.0000000000000000e+00  6.5877718876421891e+00 3.7232343132857153e+00 0.0000000000000000e+00  6.5110423283675827e+00 3.8169484332816053e+00 0.0000000000000000e+00  6.4349028244846025e+00 3.9105390491439516e+00 0.0000000000000000e+00  6.3589311763515326e+00 4.0044414378819333e+00 0.0000000000000000e+00  6.2835665130906619e+00 4.0982058409870739e+00 0.0000000000000000e+00  6.2084006172422708e+00 4.1922213115023128e+00 0.0000000000000000e+00  6.1338640840549168e+00 4.2860823404183241e+00 0.0000000000000000e+00  6.0595791115437985e+00 4.3801418613856384e+00 0.0000000000000000e+00  5.9859012485887497e+00 4.4740495944356180e+00 0.0000000000000000e+00  5.9125545245934106e+00 4.5680844366694080e+00 0.0000000000000000e+00  5.8397998864030463e+00 4.6619715820469976e+00 0.0000000000000000e+00  5.7674208661115731e+00 4.7559197276190925e+00 0.0000000000000000e+00  5.6956405415426374e+00 4.8497121196905590e+00 0.0000000000000000e+00  5.6242916747468970e+00 4.9435043847844282e+00 0.0000000000000000e+00  5.5535029329283025e+00 5.0371753930671259e+00 0.0000000000000000e+00  5.4832419727880630e+00 5.1307192374121691e+00 0.0000000000000000e+00  5.4135135238726804e+00 5.2241807455265441e+00 0.0000000000000000e+00  5.3443339319355170e+00 5.3174624791598744e+00 0.0000000000000000e+00  5.2757235217643021e+00 5.4106295797252715e+00 0.0000000000000000e+00  5.2076752547416421e+00 5.5035716937948429e+00 0.0000000000000000e+00  5.1402479003919677e+00 5.5963363168306435e+00 0.0000000000000000e+00  5.0733958305177191e+00 5.6888452392885451e+00 0.0000000000000000e+00  5.0072220126366442e+00 5.7810790966056711e+00 0.0000000000000000e+00  4.9416738924986987e+00 5.8729868536469318e+00 0.0000000000000000e+00  4.8768229310911719e+00 5.9645743621497713e+00 0.0000000000000000e+00  4.8126696534907110e+00 6.0557338552797182e+00 0.0000000000000000e+00  4.7493200094695167e+00 6.1463828274713581e+00 0.0000000000000000e+00  4.6867758663330896e+00 6.2364461341352051e+00 0.0000000000000000e+00  4.6251247143444738e+00 6.3258290856765509e+00 0.0000000000000000e+00  4.5644609840476091e+00 6.4143533855531594e+00 0.0000000000000000e+00  4.5048061192043880e+00 6.5019892991013037e+00 0.0000000000000000e+00  4.4464640251593828e+00 6.5882512314717472e+00 0.0000000000000000e+00  4.3890700238808282e+00 6.6736591682091140e+00 0.0000000000000000e+00  4.3335887289845303e+00 6.7567542114969115e+00 0.0000000000000000e+00  4.2799534572981575e+00 6.8375785091392318e+00 0.0000000000000000e+00  4.2289363833769347e+00 6.9149395345048008e+00 0.0000000000000000e+00  4.1810321132231145e+00 6.9879950301415557e+00 0.0000000000000000e+00  4.1373622878222784e+00 7.0549621420859419e+00 0.0000000000000000e+00  4.0988758681632937e+00 7.1142467030758771e+00 0.0000000000000000e+00  4.0666396084306733e+00 7.1641053420752643e+00 0.0000000000000000e+00  4.0407467404840718e+00 7.2042473448904838e+00 0.0000000000000000e+00  4.0206069799237314e+00 7.2355260149032716e+00 0.0000000000000000e+00  4.0049653002135868e+00 7.2598252155670826e+00 0.0000000000000000e+00  3.9929035147898908e+00 7.2785741194310116e+00 0.0000000000000000e+00  3.9836745508401346e+00 7.2929012723856346e+00 0.0000000000000000e+00  3.9768679717654698e+00 7.3034543089788784e+00 0.0000000000000000e+00  3.9719490039645979e+00 7.3110392641439415e+00 0.0000000000000000e+00  3.9685127560901550e+00 7.3163048904050454e+00 0.0000000000000000e+00  3.9660853200323052e+00 7.3199730906957470e+00 0.0000000000000000e+00  3.9643943781976212e+00 7.3224875346574780e+00 0.0000000000000000e+00  3.9631628501922593e+00 7.3242676571267280e+00 0.0000000000000000e+00  3.9622766353320737e+00 7.3255081847218912e+00 0.0000000000000000e+00  3.9615987571572635e+00 7.3264111466253432e+00 0.0000000000000000e+00  3.9610912115924775e+00 7.3270483426203352e+00 0.0000000000000000e+00  3.9606839770685931e+00 7.3275196541359966e+00 0.0000000000000000e+00  3.9603664572505748e+00 7.3278495407304192e+00 0.0000000000000000e+00  3.9601014154408656e+00 7.3280901782490595e+00 0.0000000000000000e+00  3.9598859002542368e+00 7.3282515516324045e+00 0.0000000000000000e+00  3.9596994392511329e+00 7.3283612274719756e+00 0.0000000000000000e+00  3.9595403274685443e+00 7.3284249076161023e+00 0.0000000000000000e+00  3.9593969168438456e+00 7.3284571092208113e+00 0.0000000000000000e+00  3.9592680711338493e+00 7.3284591549716396e+00 0.0000000000000000e+00  3.9591475968890317e+00 7.3284362151744356e+00 0.0000000000000000e+00  3.9590344248566334e+00 7.3283858630641525e+00 0.0000000000000000e+00  3.9589255691412784e+00 7.3283047898321749e+00 0.0000000000000000e+00  3.9588200687373005e+00 7.3281860862087154e+00 0.0000000000000000e+00  3.9587162239630320e+00 7.3280202866670816e+00 0.0000000000000000e+00  3.9586133854266707e+00 7.3277945744521595e+00 0.0000000000000000e+00  3.9585105277648944e+00 7.3274942501733511e+00 0.0000000000000000e+00  3.9584068936817780e+00 7.3271023628548697e+00 0.0000000000000000e+00  3.9583020427201716e+00 7.3265998276505142e+00 0.0000000000000000e+00  3.9581951802347621e+00 7.3259684587794842e+00 0.0000000000000000e+00  3.9580859478245554e+00 7.3251897550844056e+00 0.0000000000000000e+00  3.9579737824702814e+00 7.3242486432746379e+00 0.0000000000000000e+00  3.9578580914533115e+00 7.3231332084419760e+00 0.0000000000000000e+00  3.9577383205468868e+00 7.3218385312592682e+00 0.0000000000000000e+00  3.9576127426334047e+00 7.3203627135925595e+00 0.0000000000000000e+00  3.9574807330730208e+00 7.3187150823961282e+00 0.0000000000000000e+00  3.9573358720464515e+00 7.3169015035557674e+00 0.0000000000000000e+00  3.9571765929766229e+00 7.3149423679555898e+00 0.0000000000000000e+00  3.9569812038696544e+00 7.3128324194944332e+00 0.0000000000000000e+00  3.9567418095386309e+00 7.3105898129923421e+00 0.0000000000000000e+00  3.9563874544986946e+00 7.3081382789276876e+00 0.0000000000000000e+00  3.9558811696895750e+00 7.3054511411422807e+00 0.0000000000000000e+00  3.9549927370276166e+00 7.3022037763728145e+00 0.0000000000000000e+00  3.9535639645315821e+00 7.2981758166780777e+00 0.0000000000000000e+00  3.9508431568787556e+00 7.2922258203133472e+00 0.0000000000000000e+00  3.9461951555457877e+00 7.2833923696687553e+00 0.0000000000000000e+00  3.9371450799363013e+00 7.2678334684421717e+00 0.0000000000000000e+00  3.9212163381048755e+00 7.2417021926746168e+00 0.0000000000000000e+00  3.8902535102553184e+00 7.1920643234414507e+00 0.0000000000000000e+00  3.8354359110461211e+00 7.1044357045388846e+00 0.0000000000000000e+00  3.7310764219253265e+00 6.9348972575763046e+00 0.0000000000000000e+00  3.5502964143171312e+00 6.6308549726835508e+00 0.0000000000000000e+00  3.2290897430675791e+00 6.0503244981927633e+00 0.0000000000000000e+00  2.7303100307191199e+00 5.0396252912430768e+00 0.0000000000000000e+00  1.9910737112182588e+00 3.1655888640611534e+00 0.0000000000000000e+00  1.2477463566454996e+00 8.0046272160336374e-01 0.0000000000000000e+00  1.0208504588528948e+00 6.5924053765430493e-02 0.0000000000000000e+00  1.0011122078096040e+00 3.0838581259921474e-03 0.0000000000000000e+00  1.0000190020467854e+00 5.1786887990317365e-04 0.0000000000000000e+00  1.0000208417166032e+00 -3.9065541688458011e-05 0.0000000000000000e+00  1.0000018138847555e+00 4.2869102975119806e-06 0.0000000000000000e+00  9.9999762390279412e-01 6.2632250724514719e-06 0.0000000000000000e+00  1.0000009774709862e+00 -2.6212766725093877e-06 0.0000000000000000e+00  1.0000000038491514e+00 7.2732906583577401e-08 0.0000000000000000e+00  9.9999970724631393e-01 7.7062949183022063e-07 0.0000000000000000e+00  1.0000002888820505e+00 -7.8602341078365728e-07 0.0000000000000000e+00  9.9999977974867216e-01 6.0602200905848350e-07 0.0000000000000000e+00  1.0000001607783158e+00 -4.4316998440798021e-07 0.0000000000000000e+00  9.9999988064811052e-01 3.2837990792908303e-07 0.0000000000000000e+00  1.0000000902780513e+00 -2.4783273796070360e-07 0.0000000000000000e+00  9.9999993130529419e-01 1.8818673104633161e-07 0.0000000000000000e+00  1.0000000520696850e+00 -1.4235095406260444e-07 0.0000000000000000e+00  9.9999996065369412e-01 1.0714387055707442e-07 0.0000000000000000e+00  1.0000000295270461e+00 -8.0087672193795391e-08 0.0000000000000000e+00  9.9999997770941862e-01 5.9820038259488551e-08 0.0000000000000000e+00  1.0000000165231293e+00 -4.4032975920454091e-08 0.0000000000000000e+00  9.9999998735061968e-01 3.2566626595866625e-08 0.0000000000000000e+00  1.0000000090521279e+00 -2.2894956274990447e-08 0.0000000000000000e+00  9.9999999253343330e-01 1.6622204380237617e-08 0.0000000000000000e+00  1.0000000048416338e+00 -9.9764392729959913e-09 0.0000000000000000e+00  9.9999999480617530e-01 7.1237849757329742e-09 0.0000000000000000e+00  1.0000000024223619e+00 -1.5339784319487891e-09 0.0000000000000000e+00  9.9999999498673231e-01 0.0000000000000000e+00 0.0000000000000000e+00  9.9996391502907436e+00 0.0000000000000000e+00 3.0830569486213464e-05  9.9996149586195706e+00 9.8258254226642566e-05 -2.2427593077746199e-05  9.9995421313338397e+00 2.4010394256573662e-04 1.5528456499238531e-05  9.9994455636146071e+00 3.8239821952619854e-04 -1.6650116302203035e-05  9.9992612082331309e+00 6.0261510639360869e-04 1.6432717276774256e-05  9.9990195510757882e+00 8.3768683906161026e-04 -1.5279534903809594e-05  9.9987011510940640e+00 1.1986073050644496e-03 1.4134603028752134e-05  9.9982413226869369e+00 1.6374035215145398e-03 -1.2108202413656208e-05  9.9976471683265853e+00 2.2356926841310006e-03 1.1008302889939384e-05  9.9968741501049081e+00 3.0071889594204758e-03 -8.9767572935649728e-06  9.9958469961405285e+00 4.0292258127070718e-03 7.9657546837476837e-06  9.9945256047170670e+00 5.3201612766223877e-03 -5.7059307683878052e-06  9.9928475982881988e+00 7.0031793496256366e-03 4.6732889321470778e-06  9.9907015823639842e+00 9.1212181242794413e-03 -2.4237617685943768e-06  9.9880015639910305e+00 1.1787329370599490e-02 1.6719119822770743e-06  9.9846480810278155e+00 1.5123852321540657e-02 3.0882643195758988e-07  9.9804979267955254e+00 1.9234910521891333e-02 -1.0401648614127601e-06  9.9754054407271848e+00 2.4274278004447918e-02 3.0904614456787492e-06  9.9692419521475006e+00 3.0396190993203020e-02 -4.1171630280881400e-06  9.9618343525110138e+00 3.7748452550456932e-02 5.6601738310554299e-06  9.9529885952469836e+00 4.6509701823242572e-02 -6.2122162283270678e-06  9.9425641178293969e+00 5.6877425868031573e-02 6.7374327219034433e-06  9.9303787191868853e+00 6.8972255312619038e-02 -7.6441230702357617e-06  9.9162190871772840e+00 8.3043251248145780e-02 8.4373701418371607e-06  9.8999624718198849e+00 9.9211347274801104e-02 -1.0128245815847427e-05  9.8814528470089478e+00 1.1764166634865951e-01 9.8408894828812377e-06  9.8604945222047000e+00 1.3850190962711334e-01 -1.0199766012845792e-05  9.8370156015471739e+00 1.6193166983851451e-01 8.3882340793593995e-06  9.8109220570254045e+00 1.8797000972395517e-01 -9.1719559595733240e-06  9.7820618372441164e+00 2.1682177711355338e-01 8.4710953082134400e-06  9.7504442973404029e+00 2.4846861200690989e-01 -9.7257902348427936e-06  9.7160435435627015e+00 2.8296478415025261e-01 7.4377468651264671e-06  9.6787789396655839e+00 3.2038093477372015e-01 -5.8198184250015263e-06  9.6387264077916370e+00 3.6069230867514612e-01 1.9678529034593953e-06  9.5959437817476942e+00 4.0382435993589849e-01 -7.6047943812486210e-07  9.5503955980964488e+00 4.4985250889050121e-01 -1.3693336662179195e-06  9.5022315714571999e+00 4.9864017728564353e-01 2.9297689483295313e-06  9.4515504491026139e+00 5.5010120066425183e-01 -7.6632831716724976e-06  9.3983701137044431e+00 6.0425323309641599e-01 1.2933970596404361e-05  9.3428659418569513e+00 6.6091817172393807e-01 -1.8893886961052676e-05  9.2851761102813839e+00 7.2000730914775402e-01 2.2826258253609813e-05  9.2253337730435110e+00 7.8146831855157861e-01 -2.6652922443789306e-05  9.1635322518694391e+00 8.4517741351067965e-01 3.0697552532083388e-05  9.0999174171128558e+00 9.1094107570222849e-01 -3.6666805067143841e-05  9.0345276679200097e+00 9.7882156870916792e-01 4.2272663392052057e-05  8.9675591669815145e+00 1.0485410787990967e+00 -4.6767539437978723e-05  8.8991404737333912e+00 1.1200973978678985e+00 4.8274846277042888e-05  8.8293245986439732e+00 1.1933337486630327e+00 -4.9061272205931335e-05  8.7582737716921795e+00 1.2682273084104947e+00 4.9136928051774696e-05  8.6861243006505138e+00 1.3445246301881042e+00 -5.0253385872492733e-05  8.6128994768417133e+00 1.4223502183825028e+00 4.9769916600448087e-05  8.5387693021808460e+00 1.5014028967595769e+00 -4.8427495060680441e-05  8.4638219863522757e+00 1.5817572890743028e+00 4.4747721936940069e-05  8.3881071411239656e+00 1.6632137269796170e+00 -4.1952437406160941e-05  8.3117411901189620e+00 1.7458202265747269e+00 3.9262872821941720e-05  8.2348263197740987e+00 1.8293466469788653e+00 -3.8158197959885595e-05  8.1573752417538792e+00 1.9138991960381324e+00 3.5344454004372297e-05  8.0795165416505235e+00 1.9992519047263884e+00 -3.1501209261871790e-05  8.0013032564205719e+00 2.0854813874535698e+00 2.5654629340269702e-05  7.9227753886828678e+00 2.1724003321780732e+00 -2.1334247447835808e-05  7.8440155564810832e+00 2.2600800970841872e+00 1.8093480098456281e-05  7.7650859085960047e+00 2.3483707979889372e+00 -1.5808888200611640e-05  7.6860040708045032e+00 2.4372702136224351e+00 1.0796604795729741e-05  7.6068528036364711e+00 2.5267148662789691e+00 -4.5175051879238985e-06  7.5276706358789598e+00 2.6167152266717064e+00 -5.3708381444325547e-07  7.4484785755715697e+00 2.7071097629787273e+00 1.0096130509431245e-06  7.3693472462741356e+00 2.7979823210202666e+00 -2.6574935076081969e-07  7.2902979181789327e+00 2.8892789503094560e+00 1.2339639199831681e-06  7.2113610360022173e+00 2.9808631678363939e+00 -2.7522319945522544e-06  7.1325824800873612e+00 3.0728052134394028e+00 6.2984731726773928e-07  7.0539895334328691e+00 3.1650921085281243e+00 3.7401997804618429e-06  6.9755971012304734e+00 3.2575829086764831e+00 -2.5023981834922971e-06  6.8974541262561182e+00 3.3503255020929457e+00 -2.0319174285309517e-06  6.8195701386860428e+00 3.4433203451582814e+00 4.9365167090185581e-06  6.7419683116285807e+00 3.5364773925061459e+00 8.4330072980493725e-07  6.6646808890689391e+00 3.6298044221654235e+00 -2.3296373769288463e-06  6.5877203989969821e+00 3.7232850181561798e+00 3.5613228003456430e-06  6.5111006777072102e+00 3.8168850224406485e+00 -4.1723878013954594e-07  6.4348540204106444e+00 3.9106009439634533e+00 4.8332192894567216e-06  6.3589882291305049e+00 4.0043955795280999e+00 -2.3745410791320651e-06  6.2835080429667318e+00 4.0982645358149314e+00 5.5034498531283806e-06  6.2084575506027484e+00 4.1921726381408959e+00 -4.8055901319471938e-06  6.1338194622832471e+00 4.28613