<?xml version="1.0"?>
<VTKFile type="UnstructuredGrid"  version="0.1"  >
<UnstructuredGrid>
<Piece  NumberOfPoints="8241" NumberOfCells="16000">
<Points>
<DataArray  type="Float64"  NumberOfComponents="3"  format="ascii">-5 -1 0  -4.95 -1 0  -4.9 -1 0  -4.85 -1 0  -4.8 -1 0  -4.75 -1 0  -4.7 -1 0  -4.65 -1 0  -4.6 -1 0  -4.55 -1 0  -4.5 -1 0  -4.45 -1 0  -4.4 -1 0  -4.35 -1 0  -4.3 -1 0  -4.25 -1 0  -4.2 -1 0  -4.15 -1 0  -4.1 -1 0  -4.05 -1 0  -4 -1 0  -3.95 -1 0  -3.9 -1 0  -3.85 -1 0  -3.8 -1 0  -3.75 -1 0  -3.7 -1 0  -3.65 -1 0  -3.6 -1 0  -3.55 -1 0  -3.5 -1 0  -3.45 -1 0  -3.4 -1 0  -3.35 -1 0  -3.3 -1 0  -3.25 -1 0  -3.2 -1 0  -3.15 -1 0  -3.1 -1 0  -3.05 -1 0  -3 -1 0  -2.95 -1 0  -2.9 -1 0  -2.85 -1 0  -2.8 -1 0  -2.75 -1 0  -2.7 -1 0  -2.65 -1 0  -2.6 -1 0  -2.55 -1 0  -2.5 -1 0  -2.45 -1 0  -2.4 -1 0  -2.35 -1 0  -2.3 -1 0  -2.25 -1 0  -2.2 -1 0  -2.15 -1 0  -2.1 -1 0  -2.05 -1 0  -2 -1 0  -1.95 -1 0  -1.9 -1 0  -1.85 -1 0  -1.8 -1 0  -1.75 -1 0  -1.7 -1 0  -1.65 -1 0  -1.6 -1 0  -1.55 -1 0  -1.5 -1 0  -1.45 -1 0  -1.4 -1 0  -1.35 -1 0  -1.3 -1 0  -1.25 -1 0  -1.2 -1 0  -1.15 -1 0  -1.1 -1 0  -1.05 -1 0  -1 -1 0  -0.9500000000000002 -1 0  -0.9000000000000004 -1 0  -0.8499999999999996 -1 0  -0.7999999999999998 -1 0  -0.75 -1 0  -0.7000000000000002 -1 0  -0.6500000000000004 -1 0  -0.5999999999999996 -1 0  -0.5499999999999998 -1 0  -0.5 -1 0  -0.4500000000000002 -1 0  -0.4000000000000004 -1 0  -0.3499999999999996 -1 0  -0.2999999999999998 -1 0  -0.25 -1 0  -0.2000000000000002 -1 0  -0.1500000000000004 -1 0  -0.09999999999999964 -1 0  -0.04999999999999982 -1 0  0 -1 0  0.04999999999999982 -1 0  0.09999999999999964 -1 0  0.1500000000000004 -1 0  0.2000000000000002 -1 0  0.25 -1 0  0.2999999999999998 -1 0  0.3499999999999996 -1 0  0.4000000000000004 -1 0  0.4500000000000002 -1 0  0.5 -1 0  0.5499999999999998 -1 0  0.5999999999999996 -1 0  0.6500000000000004 -1 0  0.7000000000000002 -1 0  0.75 -1 0  0.7999999999999998 -1 0  0.8499999999999996 -1 0  0.9000000000000004 -1 0  0.9500000000000002 -1 0  1 -1 0  1.05 -1 0  1.1 -1 0  1.15 -1 0  1.2 -1 0  1.25 -1 0  1.3 -1 0  1.35 -1 0  1.4 -1 0  1.45 -1 0  1.5 -1 0  1.55 -1 0  1.6 -1 0  1.65 -1 0  1.7 -1 0  1.75 -1 0  1.8 -1 0  1.85 -1 0  1.9 -1 0  1.95 -1 0  2 -1 0  2.05 -1 0  2.1 -1 0  2.15 -1 0  2.2 -1 0  2.25 -1 0  2.3 -1 0  2.35 -1 0  2.4 -1 0  2.45 -1 0  2.5 -1 0  2.55 -1 0  2.6 -1 0  2.65 -1 0  2.7 -1 0  2.75 -1 0  2.8 -1 0  2.85 -1 0  2.9 -1 0  2.95 -1 0  3 -1 0  3.050000000000001 -1 0  3.1 -1 0  3.15 -1 0  3.199999999999999 -1 0  3.25 -1 0  3.300000000000001 -1 0  3.35 -1 0  3.4 -1 0  3.449999999999999 -1 0  3.5 -1 0  3.550000000000001 -1 0  3.6 -1 0  3.65 -1 0  3.699999999999999 -1 0  3.75 -1 0  3.800000000000001 -1 0  3.85 -1 0  3.9 -1 0  3.949999999999999 -1 0  4 -1 0  4.050000000000001 -1 0  4.1 -1 0  4.15 -1 0  4.199999999999999 -1 0  4.25 -1 0  4.300000000000001 -1 0  4.35 -1 0  4.4 -1 0  4.449999999999999 -1 0  4.5 -1 0  4.550000000000001 -1 0  4.6 -1 0  4.65 -1 0  4.699999999999999 -1 0  4.75 -1 0  4.800000000000001 -1 0  4.85 -1 0  4.9 -1 0  4.949999999999999 -1 0  5 -1 0  -5 -0.95 0  -4.95 -0.95 0  -4.9 -0.95 0  -4.85 -0.95 0  -4.8 -0.95 0  -4.75 -0.95 0  -4.7 -0.95 0  -4.65 -0.95 0  -4.6 -0.95 0  -4.55 -0.95 0  -4.5 -0.95 0  -4.45 -0.95 0  -4.4 -0.95 0  -4.35 -0.95 0  -4.3 -0.95 0  -4.25 -0.95 0  -4.2 -0.95 0  -4.15 -0.95 0  -4.1 -0.95 0  -4.05 -0.95 0  -4 -0.95 0  -3.95 -0.95 0  -3.9 -0.95 0  -3.85 -0.95 0  -3.8 -0.95 0  -3.75 -0.95 0  -3.7 -0.95 0  -3.65 -0.95 0  -3.6 -0.95 0  -3.55 -0.95 0  -3.5 -0.95 0  -3.45 -0.95 0  -3.4 -0.95 0  -3.35 -0.95 0  -3.3 -0.95 0  -3.25 -0.95 0  -3.2 -0.95 0  -3.15 -0.95 0  -3.1 -0.95 0  -3.05 -0.95 0  -3 -0.95 0  -2.95 -0.95 0  -2.9 -0.95 0  -2.85 -0.95 0  -2.8 -0.95 0  -2.75 -0.95 0  -2.7 -0.95 0  -2.65 -0.95 0  -2.6 -0.95 0  -2.55 -0.95 0  -2.5 -0.95 0  -2.45 -0.95 0  -2.4 -0.95 0  -2.35 -0.95 0  -2.3 -0.95 0  -2.25 -0.95 0  -2.2 -0.95 0  -2.15 -0.95 0  -2.1 -0.95 0  -2.05 -0.95 0  -2 -0.95 0  -1.95 -0.95 0  -1.9 -0.95 0  -1.85 -0.95 0  -1.8 -0.95 0  -1.75 -0.95 0  -1.7 -0.95 0  -1.65 -0.95 0  -1.6 -0.95 0  -1.55 -0.95 0  -1.5 -0.95 0  -1.45 -0.95 0  -1.4 -0.95 0  -1.35 -0.95 0  -1.3 -0.95 0  -1.25 -0.95 0  -1.2 -0.95 0  -1.15 -0.95 0  -1.1 -0.95 0  -1.05 -0.95 0  -1 -0.95 0  -0.9500000000000002 -0.95 0  -0.9000000000000004 -0.95 0  -0.8499999999999996 -0.95 0  -0.7999999999999998 -0.95 0  -0.75 -0.95 0  -0.7000000000000002 -0.95 0  -0.6500000000000004 -0.95 0  -0.5999999999999996 -0.95 0  -0.5499999999999998 -0.95 0  -0.5 -0.95 0  -0.4500000000000002 -0.95 0  -0.4000000000000004 -0.95 0  -0.3499999999999996 -0.95 0  -0.2999999999999998 -0.95 0  -0.25 -0.95 0  -0.2000000000000002 -0.95 0  -0.1500000000000004 -0.95 0  -0.09999999999999964 -0.95 0  -0.04999999999999982 -0.95 0  0 -0.95 0  0.04999999999999982 -0.95 0  0.09999999999999964 -0.95 0  0.1500000000000004 -0.95 0  0.2000000000000002 -0.95 0  0.25 -0.95 0  0.2999999999999998 -0.95 0  0.3499999999999996 -0.95 0  0.4000000000000004 -0.95 0  0.4500000000000002 -0.95 0  0.5 -0.95 0  0.5499999999999998 -0.95 0  0.5999999999999996 -0.95 0  0.6500000000000004 -0.95 0  0.7000000000000002 -0.95 0  0.75 -0.95 0  0.7999999999999998 -0.95 0  0.8499999999999996 -0.95 0  0.9000000000000004 -0.95 0  0.9500000000000002 -0.95 0  1 -0.95 0  1.05 -0.95 0  1.1 -0.95 0  1.15 -0.95 0  1.2 -0.95 0  1.25 -0.95 0  1.3 -0.95 0  1.35 -0.95 0  1.4 -0.95 0  1.45 -0.95 0  1.5 -0.95 0  1.55 -0.95 0  1.6 -0.95 0  1.65 -0.95 0  1.7 -0.95 0  1.75 -0.95 0  1.8 -0.95 0  1.85 -0.95 0  1.9 -0.95 0  1.95 -0.95 0  2 -0.95 0  2.05 -0.95 0  2.1 -0.95 0  2.15 -0.95 0  2.2 -0.95 0  2.25 -0.95 0  2.3 -0.95 0  2.35 -0.95 0  2.4 -0.95 0  2.45 -0.95 0  2.5 -0.95 0  2.55 -0.95 0  2.6 -0.95 0  2.65 -0.95 0  2.7 -0.95 0  2.75 -0.95 0  2.8 -0.95 0  2.85 -0.95 0  2.9 -0.95 0  2.95 -0.95 0  3 -0.95 0  3.050000000000001 -0.95 0  3.1 -0.95 0  3.15 -0.95 0  3.199999999999999 -0.95 0  3.25 -0.95 0  3.300000000000001 -0.95 0  3.35 -0.95 0  3.4 -0.95 0  3.449999999999999 -0.95 0  3.5 -0.95 0  3.550000000000001 -0.95 0  3.6 -0.95 0  3.65 -0.95 0  3.699999999999999 -0.95 0  3.75 -0.95 0  3.800000000000001 -0.95 0  3.85 -0.95 0  3.9 -0.95 0  3.949999999999999 -0.95 0  4 -0.95 0  4.050000000000001 -0.95 0  4.1 -0.95 0  4.15 -0.95 0  4.199999999999999 -0.95 0  4.25 -0.95 0  4.300000000000001 -0.95 0  4.35 -0.95 0  4.4 -0.95 0  4.449999999999999 -0.95 0  4.5 -0.95 0  4.550000000000001 -0.95 0  4.6 -0.95 0  4.65 -0.95 0  4.699999999999999 -0.95 0  4.75 -0.95 0  4.800000000000001 -0.95 0  4.85 -0.95 0  4.9 -0.95 0  4.949999999999999 -0.95 0  5 -0.95 0  -5 -0.9 0  -4.95 -0.9 0  -4.9 -0.9 0  -4.85 -0.9 0  -4.8 -0.9 0  -4.75 -0.9 0  -4.7 -0.9 0  -4.65 -0.9 0  -4.6 -0.9 0  -4.55 -0.9 0  -4.5 -0.9 0  -4.45 -0.9 0  -4.4 -0.9 0  -4.35 -0.9 0  -4.3 -0.9 0  -4.25 -0.9 0  -4.2 -0.9 0  -4.15 -0.9 0  -4.1 -0.9 0  -4.05 -0.9 0  -4 -0.9 0  -3.95 -0.9 0  -3.9 -0.9 0  -3.85 -0.9 0  -3.8 -0.9 0  -3.75 -0.9 0  -3.7 -0.9 0  -3.65 -0.9 0  -3.6 -0.9 0  -3.55 -0.9 0  -3.5 -0.9 0  -3.45 -0.9 0  -3.4 -0.9 0  -3.35 -0.9 0  -3.3 -0.9 0  -3.25 -0.9 0  -3.2 -0.9 0  -3.15 -0.9 0  -3.1 -0.9 0  -3.05 -0.9 0  -3 -0.9 0  -2.95 -0.9 0  -2.9 -0.9 0  -2.85 -0.9 0  -2.8 -0.9 0  -2.75 -0.9 0  -2.7 -0.9 0  -2.65 -0.9 0  -2.6 -0.9 0  -2.55 -0.9 0  -2.5 -0.9 0  -2.45 -0.9 0  -2.4 -0.9 0  -2.35 -0.9 0  -2.3 -0.9 0  -2.25 -0.9 0  -2.2 -0.9 0  -2.15 -0.9 0  -2.1 -0.9 0  -2.05 -0.9 0  -2 -0.9 0  -1.95 -0.9 0  -1.9 -0.9 0  -1.85 -0.9 0  -1.8 -0.9 0  -1.75 -0.9 0  -1.7 -0.9 0  -1.65 -0.9 0  -1.6 -0.9 0  -1.55 -0.9 0  -1.5 -0.9 0  -1.45 -0.9 0  -1.4 -0.9 0  -1.35 -0.9 0  -1.3 -0.9 0  -1.25 -0.9 0  -1.2 -0.9 0  -1.15 -0.9 0  -1.1 -0.9 0  -1.05 -0.9 0  -1 -0.9 0  -0.9500000000000002 -0.9 0  -0.9000000000000004 -0.9 0  -0.8499999999999996 -0.9 0  -0.7999999999999998 -0.9 0  -0.75 -0.9 0  -0.7000000000000002 -0.9 0  -0.6500000000000004 -0.9 0  -0.5999999999999996 -0.9 0  -0.5499999999999998 -0.9 0  -0.5 -0.9 0  -0.4500000000000002 -0.9 0  -0.4000000000000004 -0.9 0  -0.3499999999999996 -0.9 0  -0.2999999999999998 -0.9 0  -0.25 -0.9 0  -0.2000000000000002 -0.9 0  -0.1500000000000004 -0.9 0  -0.09999999999999964 -0.9 0  -0.04999999999999982 -0.9 0  0 -0.9 0  0.04999999999999982 -0.9 0  0.09999999999999964 -0.9 0  0.1500000000000004 -0.9 0  0.2000000000000002 -0.9 0  0.25 -0.9 0  0.2999999999999998 -0.9 0  0.3499999999999996 -0.9 0  0.4000000000000004 -0.9 0  0.4500000000000002 -0.9 0  0.5 -0.9 0  0.5499999999999998 -0.9 0  0.5999999999999996 -0.9 0  0.6500000000000004 -0.9 0  0.7000000000000002 -0.9 0  0.75 -0.9 0  0.7999999999999998 -0.9 0  0.8499999999999996 -0.9 0  0.9000000000000004 -0.9 0  0.9500000000000002 -0.9 0  1 -0.9 0  1.05 -0.9 0  1.1 -0.9 0  1.15 -0.9 0  1.2 -0.9 0  1.25 -0.9 0  1.3 -0.9 0  1.35 -0.9 0  1.4 -0.9 0  1.45 -0.9 0  1.5 -0.9 0  1.55 -0.9 0  1.6 -0.9 0  1.65 -0.9 0  1.7 -0.9 0  1.75 -0.9 0  1.8 -0.9 0  1.85 -0.9 0  1.9 -0.9 0  1.95 -0.9 0  2 -0.9 0  2.05 -0.9 0  2.1 -0.9 0  2.15 -0.9 0  2.2 -0.9 0  2.25 -0.9 0  2.3 -0.9 0  2.35 -0.9 0  2.4 -0.9 0  2.45 -0.9 0  2.5 -0.9 0  2.55 -0.9 0  2.6 -0.9 0  2.65 -0.9 0  2.7 -0.9 0  2.75 -0.9 0  2.8 -0.9 0  2.85 -0.9 0  2.9 -0.9 0  2.95 -0.9 0  3 -0.9 0  3.050000000000001 -0.9 0  3.1 -0.9 0  3.15 -0.9 0  3.199999999999999 -0.9 0  3.25 -0.9 0  3.300000000000001 -0.9 0  3.35 -0.9 0  3.4 -0.9 0  3.449999999999999 -0.9 0  3.5 -0.9 0  3.550000000000001 -0.9 0  3.6 -0.9 0  3.65 -0.9 0  3.699999999999999 -0.9 0  3.75 -0.9 0  3.800000000000001 -0.9 0  3.85 -0.9 0  3.9 -0.9 0  3.949999999999999 -0.9 0  4 -0.9 0  4.050000000000001 -0.9 0  4.1 -0.9 0  4.15 -0.9 0  4.199999999999999 -0.9 0  4.25 -0.9 0  4.300000000000001 -0.9 0  4.35 -0.9 0  4.4 -0.9 0  4.449999999999999 -0.9 0  4.5 -0.9 0  4.550000000000001 -0.9 0  4.6 -0.9 0  4.65 -0.9 0  4.699999999999999 -0.9 0  4.75 -0.9 0  4.800000000000001 -0.9 0  4.85 -0.9 0  4.9 -0.9 0  4.949999999999999 -0.9 0  5 -0.9 0  -5 -0.85 0  -4.95 -0.85 0  -4.9 -0.85 0  -4.85 -0.85 0  -4.8 -0.85 0  -4.75 -0.85 0  -4.7 -0.85 0  -4.65 -0.85 0  -4.6 -0.85 0  -4.55 -0.85 0  -4.5 -0.85 0  -
[...]
<PointData  Vectors="f_15"> 
<DataArray  type="Float64"  Name="f_15"  NumberOfComponents="3" format="ascii">3.3244694509819364e+00 0.0000000000000000e+00 0.0000000000000000e+00  3.3291613062849246e+00 6.9201593294748925e-02 0.0000000000000000e+00  3.3251038817799303e+00 8.0029395181747912e-02 0.0000000000000000e+00  3.3283716898792504e+00 1.4185342196887077e-01 0.0000000000000000e+00  3.3247580396035206e+00 1.7872613864137527e-01 0.0000000000000000e+00  3.3291693921253542e+00 2.2853917042856348e-01 0.0000000000000000e+00  3.3239996940849204e+00 2.7202787756876745e-01 0.0000000000000000e+00  3.3286033445958330e+00 3.1861057828486777e-01 0.0000000000000000e+00  3.3249262076226471e+00 3.6591610054878576e-01 0.0000000000000000e+00  3.3275506268200807e+00 4.0749313433092504e-01 0.0000000000000000e+00  3.3246700264032589e+00 4.5967738318812135e-01 0.0000000000000000e+00  3.3279512713645842e+00 4.9848882303417125e-01 0.0000000000000000e+00  3.3239769774023977e+00 5.4895122542609498e-01 0.0000000000000000e+00  3.3273238839838113e+00 5.9476669406526139e-01 0.0000000000000000e+00  3.3245004145436479e+00 6.3547565041528120e-01 0.0000000000000000e+00  3.3262613586153584e+00 6.8948077580541833e-01 0.0000000000000000e+00  3.3242756876180959e+00 7.2617295495010559e-01 0.0000000000000000e+00  3.3261001745848588e+00 7.8129856411624976e-01 0.0000000000000000e+00  3.3236715315665748e+00 8.1520983453256701e-01 0.0000000000000000e+00  3.3254348740658863e+00 8.7878702379742257e-01 0.0000000000000000e+00  3.3236209135724031e+00 8.9984117079170245e-01 0.0000000000000000e+00  3.3244850951312550e+00 9.7170143704604428e-01 0.0000000000000000e+00  3.3232177125148192e+00 1.0002529246237697e+00 0.0000000000000000e+00  3.3239255174323108e+00 1.0459081104886836e+00 0.0000000000000000e+00  3.3224509467065859e+00 1.1068021327090349e+00 0.0000000000000000e+00  3.3233483096342478e+00 1.1360401565458644e+00 0.0000000000000000e+00  3.3216404876742458e+00 1.1823093200405204e+00 0.0000000000000000e+00  3.3227360503434475e+00 1.2508163288676606e+00 0.0000000000000000e+00  3.3206030217377642e+00 1.2581562699020925e+00 0.0000000000000000e+00  3.3222806585506279e+00 1.3410066335385329e+00 0.0000000000000000e+00  3.3193345874447857e+00 1.3612400514007619e+00 0.0000000000000000e+00  3.3217279403150810e+00 1.4245959947332361e+00 0.0000000000000000e+00  3.3182781186702717e+00 1.4464786424362821e+00 0.0000000000000000e+00  3.3207775220049394e+00 1.5298614894664249e+00 0.0000000000000000e+00  3.3172292899668006e+00 1.5311592439277546e+00 0.0000000000000000e+00  3.3201477544461149e+00 1.6087065308961750e+00 0.0000000000000000e+00  3.3155346719976309e+00 1.6499116322559422e+00 0.0000000000000000e+00  3.3197231289413085e+00 1.6740197300849895e+00 0.0000000000000000e+00  3.3142256817948486e+00 1.7491783951281337e+00 0.0000000000000000e+00  3.3183396126477160e+00 1.7771641801840170e+00 0.0000000000000000e+00  3.3135476916328330e+00 1.8211056766043272e+00 0.0000000000000000e+00  3.3171582807833651e+00 1.8787255125929436e+00 0.0000000000000000e+00  3.3117376022214673e+00 1.9185135486573408e+00 0.0000000000000000e+00  3.3169165789423833e+00 1.9544210412980247e+00 0.0000000000000000e+00  3.3100741237118894e+00 2.0212616792685640e+00 0.0000000000000000e+00  3.3151432959640510e+00 2.0462289990989171e+00 0.0000000000000000e+00  3.3100384843990880e+00 2.1029478407852431e+00 0.0000000000000000e+00  3.3130922892403745e+00 2.1452657134067836e+00 0.0000000000000000e+00  3.3083108061123192e+00 2.1953607732308473e+00 0.0000000000000000e+00  3.3131902774909805e+00 2.2280226142658441e+00 0.0000000000000000e+00  3.3060344297046362e+00 2.2940710859648510e+00 0.0000000000000000e+00  3.3112260000724278e+00 2.3197594958830741e+00 0.0000000000000000e+00  3.3067174778826307e+00 2.3775809451626535e+00 0.0000000000000000e+00  3.3081424025358035e+00 2.4195056872713012e+00 0.0000000000000000e+00  3.3052674001935509e+00 2.4660699765658802e+00 0.0000000000000000e+00  3.3085030475073260e+00 2.5075186457559786e+00 0.0000000000000000e+00  3.3023883559640139e+00 2.5615596851211286e+00 0.0000000000000000e+00  3.3065068464989671e+00 2.5989052547035065e+00 0.0000000000000000e+00  3.3035377335057090e+00 2.6480066083584237e+00 0.0000000000000000e+00  3.3025627913473703e+00 2.6952986825333118e+00 0.0000000000000000e+00  3.3025308455036884e+00 2.7387879586808359e+00 0.0000000000000000e+00  3.3026823625057058e+00 2.7822269545420650e+00 0.0000000000000000e+00  3.2993949304130843e+00 2.8355239713218698e+00 0.0000000000000000e+00  3.3009587190986371e+00 2.8716731181481343e+00 0.0000000000000000e+00  3.2999075114601113e+00 2.9242464537662718e+00 0.0000000000000000e+00  3.2973405967385396e+00 2.9673279789600508e+00 0.0000000000000000e+00  3.2987708378743843e+00 3.0126242505213088e+00 0.0000000000000000e+00  3.2968581969252009e+00 3.0592360972649599e+00 0.0000000000000000e+00  3.2959774563812738e+00 3.1035397426765705e+00 0.0000000000000000e+00  3.2951653625911455e+00 3.1523442359457996e+00 0.0000000000000000e+00  3.2953977188518575e+00 3.1912674463342401e+00 0.0000000000000000e+00  3.2923599622268744e+00 3.2466402944924204e+00 0.0000000000000000e+00  3.2939865317485846e+00 3.2814603433631926e+00 0.0000000000000000e+00  3.2907491949295884e+00 3.3361449676073454e+00 0.0000000000000000e+00  3.2921923822056534e+00 3.3757377379455202e+00 0.0000000000000000e+00  3.2885686634356315e+00 3.4236203406236347e+00 0.0000000000000000e+00  3.2904896549147638e+00 3.4697499824657956e+00 0.0000000000000000e+00  3.2870762894656491e+00 3.5126721559010767e+00 0.0000000000000000e+00  3.2877534992434043e+00 3.5612113099916853e+00 0.0000000000000000e+00  3.2855182088328490e+00 3.6040922743070953e+00 0.0000000000000000e+00  3.2858873951727516e+00 3.6513184534167049e+00 0.0000000000000000e+00  3.2831912940557979e+00 3.6947813687252413e+00 0.0000000000000000e+00  3.2834039396482626e+00 3.7430494570286768e+00 0.0000000000000000e+00  3.2821055475054863e+00 3.7843026887376308e+00 0.0000000000000000e+00  3.2802805605845564e+00 3.8339793610515951e+00 0.0000000000000000e+00  3.2799466108627566e+00 3.8754476186682463e+00 0.0000000000000000e+00  3.2787831805895946e+00 3.9236987903169940e+00 0.0000000000000000e+00  3.2770624184269024e+00 3.9659455276621416e+00 0.0000000000000000e+00  3.2760470891371356e+00 4.0149732747486402e+00 0.0000000000000000e+00  3.2758051662247398e+00 4.0551854653415349e+00 0.0000000000000000e+00  3.2730341774244578e+00 4.1054054590192450e+00 0.0000000000000000e+00  3.2729209189449708e+00 4.1462078948579419e+00 0.0000000000000000e+00  3.2713738046660237e+00 4.1945500869932344e+00 0.0000000000000000e+00  3.2704771480823531e+00 4.2366116194337247e+00 0.0000000000000000e+00  3.2673533975828395e+00 4.2850359740578243e+00 0.0000000000000000e+00  3.2707615514579169e+00 4.3246531107799946e+00 0.0000000000000000e+00  3.2611571822557610e+00 4.3784996501344526e+00 0.0000000000000000e+00  3.2717348718124248e+00 4.4095911823014990e+00 0.0000000000000000e+00  3.2555328162981976e+00 4.4727662653096605e+00 0.0000000000000000e+00  3.2710982671773361e+00 4.4960709383962962e+00 0.0000000000000000e+00  3.2516902451937466e+00 4.5638310250301419e+00 0.0000000000000000e+00  3.2677993551333087e+00 4.5862276895416434e+00 0.0000000000000000e+00  3.2501076122073211e+00 4.6513367634602885e+00 0.0000000000000000e+00  3.2616170433616123e+00 4.6805299507099249e+00 0.0000000000000000e+00  3.2479736636443626e+00 4.7370616340454532e+00 0.0000000000000000e+00  3.2550121936645344e+00 4.7759756637774942e+00 0.0000000000000000e+00  3.2449109857087284e+00 4.8260138248040620e+00 0.0000000000000000e+00  3.2448527384757271e+00 4.8639116199291461e+00 0.0000000000000000e+00  3.2484561169187915e+00 4.9304120784047223e+00 0.0000000000000000e+00  3.2293075453663618e+00 4.9192766422938128e+00 0.0000000000000000e+00  3.2547152605109160e+00 5.0903855943983185e+00 0.0000000000000000e+00  3.2683536206505810e+00 4.8172110461670554e+00 0.0000000000000000e+00  3.0577949661901309e+00 5.6578572401069955e+00 0.0000000000000000e+00  4.2126622948571919e+00 3.2814556125547685e+00 0.0000000000000000e+00  6.8174418484922583e+00 -4.1079124586524807e-01 0.0000000000000000e+00  7.7694978295262063e+00 -1.3989265575213194e+00 0.0000000000000000e+00  7.9308335930692833e+00 -1.5706540647649887e+00 0.0000000000000000e+00  7.9682031441530956e+00 -1.5729344626141935e+00 0.0000000000000000e+00  8.0079183158153118e+00 -1.5601700985050753e+00 0.0000000000000000e+00  8.0383089337835454e+00 -1.5449482340509186e+00 0.0000000000000000e+00  8.0669310493686055e+00 -1.5266236320423654e+00 0.0000000000000000e+00  8.0848159531932478e+00 -1.4957396006148593e+00 0.0000000000000000e+00  8.1102206427666612e+00 -1.4733496312135754e+00 0.0000000000000000e+00  8.1313475422221533e+00 -1.4468285488541164e+00 0.0000000000000000e+00  8.1572555704434055e+00 -1.4249971361944056e+00 0.0000000000000000e+00  8.1779805724022356e+00 -1.3983533421985019e+00 0.0000000000000000e+00  8.2030539128712885e+00 -1.3759860733697513e+00 0.0000000000000000e+00  8.2235735045380505e+00 -1.3494358664443282e+00 0.0000000000000000e+00  8.2487261991087522e+00 -1.3279905801702494e+00 0.0000000000000000e+00  8.2702700864315926e+00 -1.3012826399967146e+00 0.0000000000000000e+00  8.2934653641127003e+00 -1.2801443443737488e+00 0.0000000000000000e+00  8.3163310373672363e+00 -1.2540923856387309e+00 0.0000000000000000e+00  8.3388621628200372e+00 -1.2329316547840032e+00 0.0000000000000000e+00  8.3615645861450076e+00 -1.2058734514778642e+00 0.0000000000000000e+00  8.3840911900865631e+00 -1.1853308891108261e+00 0.0000000000000000e+00  8.4070444684252532e+00 -1.1593723982629651e+00 0.0000000000000000e+00  8.4285341578510984e+00 -1.1404255587680416e+00 0.0000000000000000e+00  8.4522220632907210e+00 -1.1116926736121158e+00 0.0000000000000000e+00  8.4733153568802155e+00 -1.0938518253345313e+00 0.0000000000000000e+00  8.4964351215753560e+00 -1.0635747669216771e+00 0.0000000000000000e+00  8.5179919622997584e+00 -1.0477771893505925e+00 0.0000000000000000e+00  8.5406249596092092e+00 -1.0171349421109763e+00 0.0000000000000000e+00  8.5619128772373649e+00 -1.0024942849747940e+00 0.0000000000000000e+00  8.5845135988544268e+00 -9.7210936221834776e-01 0.0000000000000000e+00  8.6057942986207454e+00 -9.5692274765864360e-01 0.0000000000000000e+00  8.6276614847934958e+00 -9.2750060297265147e-01 0.0000000000000000e+00  8.6492271347399807e+00 -9.1081580078134516e-01 0.0000000000000000e+00  8.6707636445652980e+00 -8.8305951066117339e-01 0.0000000000000000e+00  8.6918793546557662e+00 -8.6435300662851000e-01 0.0000000000000000e+00  8.7133335060054939e+00 -8.3986377113192390e-01 0.0000000000000000e+00  8.7343733641912635e+00 -8.1750799956385478e-01 0.0000000000000000e+00  8.7551821804525414e+00 -7.9879227946925657e-01 0.0000000000000000e+00  8.7761337104356301e+00 -7.7110462276966962e-01 0.0000000000000000e+00  8.7968578165097835e+00 -7.5882890721325480e-01 0.0000000000000000e+00  8.8171274467804732e+00 -7.2634386380578841e-01 0.0000000000000000e+00  8.8376639027383970e+00 -7.1880062902794495e-01 0.0000000000000000e+00  8.8578891739117278e+00 -6.8328988137110847e-01 0.0000000000000000e+00  8.8776350103710335e+00 -6.7819752057155902e-01 0.0000000000000000e+00  8.8976742464211949e+00 -6.4137298914302521e-01 0.0000000000000000e+00  8.9172666186433052e+00 -6.3790810816272936e-01 0.0000000000000000e+00  8.9365533978561444e+00 -6.0031371978466574e-01 0.0000000000000000e+00  8.9557953060652160e+00 -5.9814639882074283e-01 0.0000000000000000e+00  8.9749894819001224e+00 -5.6197047892012231e-01 0.0000000000000000e+00  8.9932959753019013e+00 -5.5766811308883280e-01 0.0000000000000000e+00  9.0122250944713098e+00 -5.2753783454985037e-01 0.0000000000000000e+00  9.0302173827353247e+00 -5.1720416000694824e-01 0.0000000000000000e+00  9.0483001155923848e+00 -4.9436547974759337e-01 0.0000000000000000e+00  9.0658349381263861e+00 -4.7833394864481077e-01 0.0000000000000000e+00  9.0836419109763664e+00 -4.6101661211031997e-01 0.0000000000000000e+00  9.1001428711019532e+00 -4.4195573137607552e-01 0.0000000000000000e+00  9.1175650479898938e+00 -4.2700136254291288e-01 0.0000000000000000e+00  9.1335323498013281e+00 -4.0754068533481708e-01 0.0000000000000000e+00  9.1500307109761270e+00 -3.9393659103855577e-01 0.0000000000000000e+00  9.1653593517645024e+00 -3.7689253882320745e-01 0.0000000000000000e+00  9.1813656698111199e+00 -3.6279852235475035e-01 0.0000000000000000e+00  9.1955820619137754e+00 -3.4877048424550716e-01 0.0000000000000000e+00  9.2109748670492682e+00 -3.3392880288796239e-01 0.0000000000000000e+00  9.2244559181622670e+00 -3.2445993187440231e-01 0.0000000000000000e+00  9.2388165322923914e+00 -3.0777760726212433e-01 0.0000000000000000e+00  9.2514246703777836e+00 -3.0213932823347756e-01 0.0000000000000000e+00  9.2650727185899235e+00 -2.8319043811626221e-01 0.0000000000000000e+00  9.2764671392301850e+00 -2.8032449127518944e-01 0.0000000000000000e+00  9.2892440225654500e+00 -2.5884447172985159e-01 0.0000000000000000e+00  9.2996740414032981e+00 -2.5635334970156792e-01 0.0000000000000000e+00  9.3113368378738617e+00 -2.3408561075487808e-01 0.0000000000000000e+00  9.3205955811533805e+00 -2.3914617383114259e-01 0.0000000000000000e+00  9.3313031065074803e+00 -2.2016519426943443e-01 0.0000000000000000e+00  9.3392349092383888e+00 -2.2527005628097288e-01 0.0000000000000000e+00  9.3488428780975035e+00 -2.0706778539287402e-01 0.0000000000000000e+00  9.3555391384191324e+00 -2.1093879817186828e-01 0.0000000000000000e+00  9.3639451058763505e+00 -1.8864306555710839e-01 0.0000000000000000e+00  9.3692668607202449e+00 -1.9181620698417112e-01 0.0000000000000000e+00  9.3765069339338201e+00 -1.6181776421547056e-01 0.0000000000000000e+00  9.3804397228096104e+00 -1.5810246593264013e-01 0.0000000000000000e+00  9.3863269754439767e+00 -1.4177291959534383e-01 0.0000000000000000e+00  9.3888548800160336e+00 -1.2356242436411141e-01 0.0000000000000000e+00  9.3933802833501012e+00 -1.2144816473603845e-01 0.0000000000000000e+00  9.3944441311952271e+00 -9.3089306431327179e-02 0.0000000000000000e+00  9.3976225908797488e+00 -1.1431065408000465e-01 0.0000000000000000e+00  9.3973264591481147e+00 -2.9767671982849672e-02 0.0000000000000000e+00  9.3993964308172639e+00 0.0000000000000000e+00 0.0000000000000000e+00  3.3305117868368797e+00 0.0000000000000000e+00 -6.6047416737617121e-03  3.3300645553262003e+00 3.7354756092605537e-02 -8.6966515467902499e-03  3.3296551476072502e+00 9.8764901698956506e-02 1.3707583320776543e-02  3.3300287549169472e+00 1.3727822593433117e-01 -1.6863806978584393e-03  3.3305985686748407e+00 1.8301996532353132e-01 -3.3287854663832332e-03  3.3292675540584331e+00 2.3413726592055864e-01 5.8457665619343737e-03  3.3302226292217161e+00 2.7315393207844912e-01 -6.3789814540053053e-03  3.3300906548017997e+00 3.2589698282596657e-01 7.0354003172992084e-03  3.3294079646754944e+00 3.6439189200457861e-01 -8.8482732209280782e-03  3.3295451936855085e+00 4.1843412246608452e-01 1.1875999343060013e-02  3.3301805381652438e+00 4.5394868250752379e-01 -1.5465578634119553e-02  3.3285021878109462e+00 5.1246420380051771e-01 1.8654673736340027e-02  3.3297909258656317e+00 5.4315798860192477e-01 -1.9880280771000815e-02  3.3289032656355277e+00 6.0540759167839675e-01 1.8602695963521390e-02  3.3287889978589149e+00 6.3401519233189441e-01 -1.4992570387711264e-02  3.3286364901602323e+00 6.9672705400106139e-01 9.8786246842988007e-03  3.3286632827675215e+00 7.2783164917624477e-01 -4.1481642582699855e-03  3.3280688955760667e+00 7.8244988900759593e-01 -8.9740251771368296e-04  3.3279412621548659e+00 8.2820072003895584e-01 4.4507392275060951e-03  3.3281571151254798e+00 8.6548779535964637e-01 -6.5166766329644299e-03  3.3270024768117845e+00 9.2342780384418299e-01 8.0030894173185093e-03  3.3277810005929624e+00 9.6068718201321179e-01 -9.1690768528179187e-03  3.3266352534221180e+00 1.0066187481433089e+00 9.6409997653807405e-03  3.3269809050333321e+00 1.0584178063445357e+00 -8.3874400739164922e-03  3.3263393236021552e+00 1.1010565204932670e+00 5.2434975018836117e-03  3.3261595370435337e+00 1.1383263165213875e+00 -9.8646076945963878e-04  3.3260000380182246e+00 1.2048935007220285e+00 -2.5645060102861424e-03  3.3253080161416930e+00 1.2280166638858523e+00 4.2261097834526973e-03  3.3255645298089442e+00 1.2849634945673816e+00 -3.8127648245444177e-03  3.3245533584698324e+00 1.3366104050192296e+00 2.6991598186619568e-03  3.3249008836942862e+00 1.3678693430227813e+00 -2.1507242730638746e-03  3.3239603465474761e+00 1.4222979463514542e+00 2.9598220397432664e-03  3.3240951301265462e+00 1.4733377971677548e+00 -4.5738418463536464e-03  3.3231783328324207e+00 1.5075448092531776e+00 6.4611042693313867e-03  3.3236568262648669e+00 1.5550017461761620e+00 -7.7204649273665341e-03  3.3219201720660370e+00 1.6203379127658877e+00 8.2271116187519391e-03  3.3231452524540885e+00 1.6302665808636003e+00 -7.8242736040168466e-03  3.3212991218061316e+00 1.7105621122095163e+00 6.7749505661219575e-03  3.3215311430876024e+00 1.7403451768239639e+00 -5.0076098100987352e-03  3.3212822875199786e+00 1.7804207936741387e+00 3.2121653015078026e-03  3.3201945953086835e+00 1.8417262882365919e+00 -1.9556917112158326e-03  3.3200155335687578e+00 1.8789556457940775e+00 1.4933994261251901e-03  3.3198475432644869e+00 1.9180485655212698e+00 -1.7715038021148459e-03  3.3187785395675529e+00 1.9802037004614403e+00 1.8687128745588681e-03  3.3180700553174822e+00 2.0129301431099749e+00 -1.2005758008397922e-03  3.3189815757964203e+00 2.0593610773445814e+00 -2.2395257263495265e-05  3.3160765004731605e+00 2.1146607934983406e+00 1.1859646541816226e-03  3.3174379326250283e+00 2.1504578946459989e+00 -1.3222129871280628e-03  3.3161892797100827e+00 2.1980317419164530e+00 6.1469256486928689e-04  3.3151947140310374e+00 2.2496204593408264e+00 2.8987795345340202e-04  3.3144197744433419e+00 2.2890726017958358e+00 -5.7352055793266318e-04  3.3156149156026551e+00 2.3339136422372704e+00 9.4855978463686809e-05  3.3115717374128200e+00 2.3878943582890026e+00 6.2755000015019306e-04  3.3139433630244985e+00 2.4235232606454340e+00 -1.0867042122378709e-03  3.3119586687772156e+00 2.4742510397896371e+00 1.1657095951472793e-03  3.3108316206516508e+00 2.5204912773451320e+00 -1.1515243684240557e-03  3.3100392502172054e+00 2.5643415535381249e+00 1.4852835613637584e-03  3.3115361114722450e+00 2.6070055034823021e+00 -2.0986895638805702e-03  3.3062229867787725e+00 2.6608959737672984e+00 2.8498656502078954e-03  3.3099752986661164e+00 2.6966228901890363e+00 -3.3241833097121692e-03  3.3064851684262875e+00 2.7482636893572918e+00 3.4659522307239495e-03  3.3061843600873484e+00 2.7920965810244112e+00 -3.3339196684360928e-03  3.3048201333657539e+00 2.8380626597173304e+00 3.1069800429390040e-03  3.3061495195876534e+00 2.8796958558077108e+00 -2.8703571217792417e-03  3.3011145702998141e+00 2.9331913895606014e+00 2.6666447364861218e-03  3.3043491493898554e+00 2.9687189246742101e+00 -2.4066182868270631e-03  3.3007611228075340e+00 3.0222926839424664e+00 2.2080006225708789e-03  3.3007420741216436e+00 3.0620658394697555e+00 -1.9909433732660221e-03  3.2990024314127484e+00 3.1119722699490882e+00 1.9806691998303905e-03  3.2997267990747718e+00 3.1515493022340690e+00 -2.0077990918925580e-03  3.2959034055301175e+00 3.2041729117458542e+00 2.1347209499167595e-03  3.2976563701410089e+00 3.2420639751071154e+00 -2.0242807955435714e-03  3.2945641930911251e+00 3.2928608667959471e+00 1.6319271878929998e-03  3.2947054451376130e+00 3.3355027869887852e+00 -7.9160656074251171e-04  3.2927968456501282e+00 3.3805377874706521e+00 -3.2376215660577626e-04  3.2921409983857677e+00 3.4282101231942290e+00 1.5579998662842800e-03  3.2913385583380594e+00 3.4695270303460863e+00 -2.5952072436850613e-03  3.2888913116479519e+00 3.5192840342028791e+00 3.2950064287978432e-03  3.2896047382137792e+00 3.5601717795161663e+00 -3.5318056738757328e-03  3.2868295973105872e+00 3.6091773019480629e+00 3.4781034307107368e-03  3.2866867204438357e+00 3.6507080773550804e+00 -3.2357941985463714e-03  3.2846923813507161e+00 