<?xml version="1.0"?>
<VTKFile type="UnstructuredGrid"  version="0.1"  >
<UnstructuredGrid>
<Piece  NumberOfPoints="8241" NumberOfCells="16000">
<Points>
<DataArray  type="Float64"  NumberOfComponents="3"  format="ascii">-5 -1 0  -4.95 -1 0  -4.9 -1 0  -4.85 -1 0  -4.8 -1 0  -4.75 -1 0  -4.7 -1 0  -4.65 -1 0  -4.6 -1 0  -4.55 -1 0  -4.5 -1 0  -4.45 -1 0  -4.4 -1 0  -4.35 -1 0  -4.3 -1 0  -4.25 -1 0  -4.2 -1 0  -4.15 -1 0  -4.1 -1 0  -4.05 -1 0  -4 -1 0  -3.95 -1 0  -3.9 -1 0  -3.85 -1 0  -3.8 -1 0  -3.75 -1 0  -3.7 -1 0  -3.65 -1 0  -3.6 -1 0  -3.55 -1 0  -3.5 -1 0  -3.45 -1 0  -3.4 -1 0  -3.35 -1 0  -3.3 -1 0  -3.25 -1 0  -3.2 -1 0  -3.15 -1 0  -3.1 -1 0  -3.05 -1 0  -3 -1 0  -2.95 -1 0  -2.9 -1 0  -2.85 -1 0  -2.8 -1 0  -2.75 -1 0  -2.7 -1 0  -2.65 -1 0  -2.6 -1 0  -2.55 -1 0  -2.5 -1 0  -2.45 -1 0  -2.4 -1 0  -2.35 -1 0  -2.3 -1 0  -2.25 -1 0  -2.2 -1 0  -2.15 -1 0  -2.1 -1 0  -2.05 -1 0  -2 -1 0  -1.95 -1 0  -1.9 -1 0  -1.85 -1 0  -1.8 -1 0  -1.75 -1 0  -1.7 -1 0  -1.65 -1 0  -1.6 -1 0  -1.55 -1 0  -1.5 -1 0  -1.45 -1 0  -1.4 -1 0  -1.35 -1 0  -1.3 -1 0  -1.25 -1 0  -1.2 -1 0  -1.15 -1 0  -1.1 -1 0  -1.05 -1 0  -1 -1 0  -0.9500000000000002 -1 0  -0.9000000000000004 -1 0  -0.8499999999999996 -1 0  -0.7999999999999998 -1 0  -0.75 -1 0  -0.7000000000000002 -1 0  -0.6500000000000004 -1 0  -0.5999999999999996 -1 0  -0.5499999999999998 -1 0  -0.5 -1 0  -0.4500000000000002 -1 0  -0.4000000000000004 -1 0  -0.3499999999999996 -1 0  -0.2999999999999998 -1 0  -0.25 -1 0  -0.2000000000000002 -1 0  -0.1500000000000004 -1 0  -0.09999999999999964 -1 0  -0.04999999999999982 -1 0  0 -1 0  0.04999999999999982 -1 0  0.09999999999999964 -1 0  0.1500000000000004 -1 0  0.2000000000000002 -1 0  0.25 -1 0  0.2999999999999998 -1 0  0.3499999999999996 -1 0  0.4000000000000004 -1 0  0.4500000000000002 -1 0  0.5 -1 0  0.5499999999999998 -1 0  0.5999999999999996 -1 0  0.6500000000000004 -1 0  0.7000000000000002 -1 0  0.75 -1 0  0.7999999999999998 -1 0  0.8499999999999996 -1 0  0.9000000000000004 -1 0  0.9500000000000002 -1 0  1 -1 0  1.05 -1 0  1.1 -1 0  1.15 -1 0  1.2 -1 0  1.25 -1 0  1.3 -1 0  1.35 -1 0  1.4 -1 0  1.45 -1 0  1.5 -1 0  1.55 -1 0  1.6 -1 0  1.65 -1 0  1.7 -1 0  1.75 -1 0  1.8 -1 0  1.85 -1 0  1.9 -1 0  1.95 -1 0  2 -1 0  2.05 -1 0  2.1 -1 0  2.15 -1 0  2.2 -1 0  2.25 -1 0  2.3 -1 0  2.35 -1 0  2.4 -1 0  2.45 -1 0  2.5 -1 0  2.55 -1 0  2.6 -1 0  2.65 -1 0  2.7 -1 0  2.75 -1 0  2.8 -1 0  2.85 -1 0  2.9 -1 0  2.95 -1 0  3 -1 0  3.050000000000001 -1 0  3.1 -1 0  3.15 -1 0  3.199999999999999 -1 0  3.25 -1 0  3.300000000000001 -1 0  3.35 -1 0  3.4 -1 0  3.449999999999999 -1 0  3.5 -1 0  3.550000000000001 -1 0  3.6 -1 0  3.65 -1 0  3.699999999999999 -1 0  3.75 -1 0  3.800000000000001 -1 0  3.85 -1 0  3.9 -1 0  3.949999999999999 -1 0  4 -1 0  4.050000000000001 -1 0  4.1 -1 0  4.15 -1 0  4.199999999999999 -1 0  4.25 -1 0  4.300000000000001 -1 0  4.35 -1 0  4.4 -1 0  4.449999999999999 -1 0  4.5 -1 0  4.550000000000001 -1 0  4.6 -1 0  4.65 -1 0  4.699999999999999 -1 0  4.75 -1 0  4.800000000000001 -1 0  4.85 -1 0  4.9 -1 0  4.949999999999999 -1 0  5 -1 0  -5 -0.95 0  -4.95 -0.95 0  -4.9 -0.95 0  -4.85 -0.95 0  -4.8 -0.95 0  -4.75 -0.95 0  -4.7 -0.95 0  -4.65 -0.95 0  -4.6 -0.95 0  -4.55 -0.95 0  -4.5 -0.95 0  -4.45 -0.95 0  -4.4 -0.95 0  -4.35 -0.95 0  -4.3 -0.95 0  -4.25 -0.95 0  -4.2 -0.95 0  -4.15 -0.95 0  -4.1 -0.95 0  -4.05 -0.95 0  -4 -0.95 0  -3.95 -0.95 0  -3.9 -0.95 0  -3.85 -0.95 0  -3.8 -0.95 0  -3.75 -0.95 0  -3.7 -0.95 0  -3.65 -0.95 0  -3.6 -0.95 0  -3.55 -0.95 0  -3.5 -0.95 0  -3.45 -0.95 0  -3.4 -0.95 0  -3.35 -0.95 0  -3.3 -0.95 0  -3.25 -0.95 0  -3.2 -0.95 0  -3.15 -0.95 0  -3.1 -0.95 0  -3.05 -0.95 0  -3 -0.95 0  -2.95 -0.95 0  -2.9 -0.95 0  -2.85 -0.95 0  -2.8 -0.95 0  -2.75 -0.95 0  -2.7 -0.95 0  -2.65 -0.95 0  -2.6 -0.95 0  -2.55 -0.95 0  -2.5 -0.95 0  -2.45 -0.95 0  -2.4 -0.95 0  -2.35 -0.95 0  -2.3 -0.95 0  -2.25 -0.95 0  -2.2 -0.95 0  -2.15 -0.95 0  -2.1 -0.95 0  -2.05 -0.95 0  -2 -0.95 0  -1.95 -0.95 0  -1.9 -0.95 0  -1.85 -0.95 0  -1.8 -0.95 0  -1.75 -0.95 0  -1.7 -0.95 0  -1.65 -0.95 0  -1.6 -0.95 0  -1.55 -0.95 0  -1.5 -0.95 0  -1.45 -0.95 0  -1.4 -0.95 0  -1.35 -0.95 0  -1.3 -0.95 0  -1.25 -0.95 0  -1.2 -0.95 0  -1.15 -0.95 0  -1.1 -0.95 0  -1.05 -0.95 0  -1 -0.95 0  -0.9500000000000002 -0.95 0  -0.9000000000000004 -0.95 0  -0.8499999999999996 -0.95 0  -0.7999999999999998 -0.95 0  -0.75 -0.95 0  -0.7000000000000002 -0.95 0  -0.6500000000000004 -0.95 0  -0.5999999999999996 -0.95 0  -0.5499999999999998 -0.95 0  -0.5 -0.95 0  -0.4500000000000002 -0.95 0  -0.4000000000000004 -0.95 0  -0.3499999999999996 -0.95 0  -0.2999999999999998 -0.95 0  -0.25 -0.95 0  -0.2000000000000002 -0.95 0  -0.1500000000000004 -0.95 0  -0.09999999999999964 -0.95 0  -0.04999999999999982 -0.95 0  0 -0.95 0  0.04999999999999982 -0.95 0  0.09999999999999964 -0.95 0  0.1500000000000004 -0.95 0  0.2000000000000002 -0.95 0  0.25 -0.95 0  0.2999999999999998 -0.95 0  0.3499999999999996 -0.95 0  0.4000000000000004 -0.95 0  0.4500000000000002 -0.95 0  0.5 -0.95 0  0.5499999999999998 -0.95 0  0.5999999999999996 -0.95 0  0.6500000000000004 -0.95 0  0.7000000000000002 -0.95 0  0.75 -0.95 0  0.7999999999999998 -0.95 0  0.8499999999999996 -0.95 0  0.9000000000000004 -0.95 0  0.9500000000000002 -0.95 0  1 -0.95 0  1.05 -0.95 0  1.1 -0.95 0  1.15 -0.95 0  1.2 -0.95 0  1.25 -0.95 0  1.3 -0.95 0  1.35 -0.95 0  1.4 -0.95 0  1.45 -0.95 0  1.5 -0.95 0  1.55 -0.95 0  1.6 -0.95 0  1.65 -0.95 0  1.7 -0.95 0  1.75 -0.95 0  1.8 -0.95 0  1.85 -0.95 0  1.9 -0.95 0  1.95 -0.95 0  2 -0.95 0  2.05 -0.95 0  2.1 -0.95 0  2.15 -0.95 0  2.2 -0.95 0  2.25 -0.95 0  2.3 -0.95 0  2.35 -0.95 0  2.4 -0.95 0  2.45 -0.95 0  2.5 -0.95 0  2.55 -0.95 0  2.6 -0.95 0  2.65 -0.95 0  2.7 -0.95 0  2.75 -0.95 0  2.8 -0.95 0  2.85 -0.95 0  2.9 -0.95 0  2.95 -0.95 0  3 -0.95 0  3.050000000000001 -0.95 0  3.1 -0.95 0  3.15 -0.95 0  3.199999999999999 -0.95 0  3.25 -0.95 0  3.300000000000001 -0.95 0  3.35 -0.95 0  3.4 -0.95 0  3.449999999999999 -0.95 0  3.5 -0.95 0  3.550000000000001 -0.95 0  3.6 -0.95 0  3.65 -0.95 0  3.699999999999999 -0.95 0  3.75 -0.95 0  3.800000000000001 -0.95 0  3.85 -0.95 0  3.9 -0.95 0  3.949999999999999 -0.95 0  4 -0.95 0  4.050000000000001 -0.95 0  4.1 -0.95 0  4.15 -0.95 0  4.199999999999999 -0.95 0  4.25 -0.95 0  4.300000000000001 -0.95 0  4.35 -0.95 0  4.4 -0.95 0  4.449999999999999 -0.95 0  4.5 -0.95 0  4.550000000000001 -0.95 0  4.6 -0.95 0  4.65 -0.95 0  4.699999999999999 -0.95 0  4.75 -0.95 0  4.800000000000001 -0.95 0  4.85 -0.95 0  4.9 -0.95 0  4.949999999999999 -0.95 0  5 -0.95 0  -5 -0.9 0  -4.95 -0.9 0  -4.9 -0.9 0  -4.85 -0.9 0  -4.8 -0.9 0  -4.75 -0.9 0  -4.7 -0.9 0  -4.65 -0.9 0  -4.6 -0.9 0  -4.55 -0.9 0  -4.5 -0.9 0  -4.45 -0.9 0  -4.4 -0.9 0  -4.35 -0.9 0  -4.3 -0.9 0  -4.25 -0.9 0  -4.2 -0.9 0  -4.15 -0.9 0  -4.1 -0.9 0  -4.05 -0.9 0  -4 -0.9 0  -3.95 -0.9 0  -3.9 -0.9 0  -3.85 -0.9 0  -3.8 -0.9 0  -3.75 -0.9 0  -3.7 -0.9 0  -3.65 -0.9 0  -3.6 -0.9 0  -3.55 -0.9 0  -3.5 -0.9 0  -3.45 -0.9 0  -3.4 -0.9 0  -3.35 -0.9 0  -3.3 -0.9 0  -3.25 -0.9 0  -3.2 -0.9 0  -3.15 -0.9 0  -3.1 -0.9 0  -3.05 -0.9 0  -3 -0.9 0  -2.95 -0.9 0  -2.9 -0.9 0  -2.85 -0.9 0  -2.8 -0.9 0  -2.75 -0.9 0  -2.7 -0.9 0  -2.65 -0.9 0  -2.6 -0.9 0  -2.55 -0.9 0  -2.5 -0.9 0  -2.45 -0.9 0  -2.4 -0.9 0  -2.35 -0.9 0  -2.3 -0.9 0  -2.25 -0.9 0  -2.2 -0.9 0  -2.15 -0.9 0  -2.1 -0.9 0  -2.05 -0.9 0  -2 -0.9 0  -1.95 -0.9 0  -1.9 -0.9 0  -1.85 -0.9 0  -1.8 -0.9 0  -1.75 -0.9 0  -1.7 -0.9 0  -1.65 -0.9 0  -1.6 -0.9 0  -1.55 -0.9 0  -1.5 -0.9 0  -1.45 -0.9 0  -1.4 -0.9 0  -1.35 -0.9 0  -1.3 -0.9 0  -1.25 -0.9 0  -1.2 -0.9 0  -1.15 -0.9 0  -1.1 -0.9 0  -1.05 -0.9 0  -1 -0.9 0  -0.9500000000000002 -0.9 0  -0.9000000000000004 -0.9 0  -0.8499999999999996 -0.9 0  -0.7999999999999998 -0.9 0  -0.75 -0.9 0  -0.7000000000000002 -0.9 0  -0.6500000000000004 -0.9 0  -0.5999999999999996 -0.9 0  -0.5499999999999998 -0.9 0  -0.5 -0.9 0  -0.4500000000000002 -0.9 0  -0.4000000000000004 -0.9 0  -0.3499999999999996 -0.9 0  -0.2999999999999998 -0.9 0  -0.25 -0.9 0  -0.2000000000000002 -0.9 0  -0.1500000000000004 -0.9 0  -0.09999999999999964 -0.9 0  -0.04999999999999982 -0.9 0  0 -0.9 0  0.04999999999999982 -0.9 0  0.09999999999999964 -0.9 0  0.1500000000000004 -0.9 0  0.2000000000000002 -0.9 0  0.25 -0.9 0  0.2999999999999998 -0.9 0  0.3499999999999996 -0.9 0  0.4000000000000004 -0.9 0  0.4500000000000002 -0.9 0  0.5 -0.9 0  0.5499999999999998 -0.9 0  0.5999999999999996 -0.9 0  0.6500000000000004 -0.9 0  0.7000000000000002 -0.9 0  0.75 -0.9 0  0.7999999999999998 -0.9 0  0.8499999999999996 -0.9 0  0.9000000000000004 -0.9 0  0.9500000000000002 -0.9 0  1 -0.9 0  1.05 -0.9 0  1.1 -0.9 0  1.15 -0.9 0  1.2 -0.9 0  1.25 -0.9 0  1.3 -0.9 0  1.35 -0.9 0  1.4 -0.9 0  1.45 -0.9 0  1.5 -0.9 0  1.55 -0.9 0  1.6 -0.9 0  1.65 -0.9 0  1.7 -0.9 0  1.75 -0.9 0  1.8 -0.9 0  1.85 -0.9 0  1.9 -0.9 0  1.95 -0.9 0  2 -0.9 0  2.05 -0.9 0  2.1 -0.9 0  2.15 -0.9 0  2.2 -0.9 0  2.25 -0.9 0  2.3 -0.9 0  2.35 -0.9 0  2.4 -0.9 0  2.45 -0.9 0  2.5 -0.9 0  2.55 -0.9 0  2.6 -0.9 0  2.65 -0.9 0  2.7 -0.9 0  2.75 -0.9 0  2.8 -0.9 0  2.85 -0.9 0  2.9 -0.9 0  2.95 -0.9 0  3 -0.9 0  3.050000000000001 -0.9 0  3.1 -0.9 0  3.15 -0.9 0  3.199999999999999 -0.9 0  3.25 -0.9 0  3.300000000000001 -0.9 0  3.35 -0.9 0  3.4 -0.9 0  3.449999999999999 -0.9 0  3.5 -0.9 0  3.550000000000001 -0.9 0  3.6 -0.9 0  3.65 -0.9 0  3.699999999999999 -0.9 0  3.75 -0.9 0  3.800000000000001 -0.9 0  3.85 -0.9 0  3.9 -0.9 0  3.949999999999999 -0.9 0  4 -0.9 0  4.050000000000001 -0.9 0  4.1 -0.9 0  4.15 -0.9 0  4.199999999999999 -0.9 0  4.25 -0.9 0  4.300000000000001 -0.9 0  4.35 -0.9 0  4.4 -0.9 0  4.449999999999999 -0.9 0  4.5 -0.9 0  4.550000000000001 -0.9 0  4.6 -0.9 0  4.65 -0.9 0  4.699999999999999 -0.9 0  4.75 -0.9 0  4.800000000000001 -0.9 0  4.85 -0.9 0  4.9 -0.9 0  4.949999999999999 -0.9 0  5 -0.9 0  -5 -0.85 0  -4.95 -0.85 0  -4.9 -0.85 0  -4.85 -0.85 0  -4.8 -0.85 0  -4.75 -0.85 0  -4.7 -0.85 0  -4.65 -0.85 0  -4.6 -0.85 0  -4.55 -0.85 0  -4.5 -0.85 0  -
[...]
<PointData  Vectors="f_15"> 
<DataArray  type="Float64"  Name="f_15"  NumberOfComponents="3" format="ascii">2.8259693751993167e+00 0.0000000000000000e+00 0.0000000000000000e+00  2.8226355876108755e+00 4.7560329952716723e-02 0.0000000000000000e+00  2.8251125282568776e+00 9.1192488648369555e-02 0.0000000000000000e+00  2.8228681198904426e+00 1.0634763321508982e-01 0.0000000000000000e+00  2.8252773155358231e+00 1.6913631937576210e-01 0.0000000000000000e+00  2.8218917370308998e+00 1.8678111354416527e-01 0.0000000000000000e+00  2.8255751427362150e+00 2.4527099397085905e-01 0.0000000000000000e+00  2.8217551424254848e+00 2.6428392848815191e-01 0.0000000000000000e+00  2.8248495117283281e+00 3.2323080691163947e-01 0.0000000000000000e+00  2.8216799645301145e+00 3.4527728373054328e-01 0.0000000000000000e+00  2.8249048947560120e+00 3.9401720052025940e-01 0.0000000000000000e+00  2.8207800317168172e+00 4.3643349693537853e-01 0.0000000000000000e+00  2.8247912603919558e+00 4.5369479593488310e-01 0.0000000000000000e+00  2.8209454817149191e+00 5.3434358208915567e-01 0.0000000000000000e+00  2.8235423882468225e+00 5.1837024740854132e-01 0.0000000000000000e+00  2.8212506777498163e+00 6.1170572247895605e-01 0.0000000000000000e+00  2.8231784124796655e+00 6.1458766713222235e-01 0.0000000000000000e+00  2.8204940600664545e+00 6.6446828320600471e-01 0.0000000000000000e+00  2.8231057825874366e+00 7.1016364735208914e-01 0.0000000000000000e+00  2.8203414765110035e+00 7.4154390203275478e-01 0.0000000000000000e+00  2.8221650249898662e+00 7.7985992372221158e-01 0.0000000000000000e+00  2.8205078980780383e+00 8.1888448524554036e-01 0.0000000000000000e+00  2.8216200796788775e+00 8.8005888261758414e-01 0.0000000000000000e+00  2.8200575227351559e+00 8.6418130539601046e-01 0.0000000000000000e+00  2.8212490787545237e+00 9.7617449528737488e-01 0.0000000000000000e+00  2.8199987614901940e+00 9.5994723858944253e-01 0.0000000000000000e+00  2.8203467021718209e+00 1.0094113844728629e+00 0.0000000000000000e+00  2.8201659772991441e+00 1.0827765739765067e+00 0.0000000000000000e+00  2.8195732443666248e+00 1.0701329165886684e+00 0.0000000000000000e+00  2.8200017676670326e+00 1.1495928048149009e+00 0.0000000000000000e+00  2.8190009640232216e+00 1.1698018728873532e+00 0.0000000000000000e+00  2.8198245521612875e+00 1.2185495496989842e+00 0.0000000000000000e+00  2.8183114832504690e+00 1.2416292020228861e+00 0.0000000000000000e+00  2.8196495197426414e+00 1.3080319981162298e+00 0.0000000000000000e+00  2.8176305969366346e+00 1.3171993079051474e+00 0.0000000000000000e+00  2.8194106603887921e+00 1.3785628067509414e+00 0.0000000000000000e+00  2.8169833316985970e+00 1.4061444060732951e+00 0.0000000000000000e+00  2.8190075565294248e+00 1.4511231753188996e+00 0.0000000000000000e+00  2.8164681395019726e+00 1.4849115762741185e+00 0.0000000000000000e+00  2.8184856516603491e+00 1.5303395854336086e+00 0.0000000000000000e+00  2.8158464092274325e+00 1.5647114702333642e+00 0.0000000000000000e+00  2.8180362872005529e+00 1.6054382398580154e+00 0.0000000000000000e+00  2.8152394583758991e+00 1.6457078218947718e+00 0.0000000000000000e+00  2.8172664083058789e+00 1.6830345264872704e+00 0.0000000000000000e+00  2.8148895946424664e+00 1.7229069641067762e+00 0.0000000000000000e+00  2.8164085279829085e+00 1.7629879187598609e+00 0.0000000000000000e+00  2.8142490039022863e+00 1.8000616300917032e+00 0.0000000000000000e+00  2.8157860645570927e+00 1.8415987472217876e+00 0.0000000000000000e+00  2.8135139035408572e+00 1.8786740374864350e+00 0.0000000000000000e+00  2.8149560265784488e+00 1.9194967025389953e+00 0.0000000000000000e+00  2.8128501427856292e+00 1.9573521456016634e+00 0.0000000000000000e+00  2.8141877152779844e+00 1.9968796233327630e+00 0.0000000000000000e+00  2.8119131697478634e+00 2.0367363563154566e+00 0.0000000000000000e+00  2.8135306910498881e+00 2.0739310089502538e+00 0.0000000000000000e+00  2.8108736038211721e+00 2.1149735988420031e+00 0.0000000000000000e+00  2.8129719861294582e+00 2.1529033308772614e+00 0.0000000000000000e+00  2.8095183958105294e+00 2.1915513583670205e+00 0.0000000000000000e+00  2.8125552967411771e+00 2.2327757490594644e+00 0.0000000000000000e+00  2.8083139485570414e+00 2.2671847926399340e+00 0.0000000000000000e+00  2.8116600370273575e+00 2.3141897560468632e+00 0.0000000000000000e+00  2.8072668579319275e+00 2.3415757473904439e+00 0.0000000000000000e+00  2.8111151764724815e+00 2.3950006465703946e+00 0.0000000000000000e+00  2.8056124780029004e+00 2.4183361213337276e+00 0.0000000000000000e+00  2.8104871905613655e+00 2.4735181365009700e+00 0.0000000000000000e+00  2.8049114107355875e+00 2.4956468193417409e+00 0.0000000000000000e+00  2.8087345551232978e+00 2.5519224653988388e+00 0.0000000000000000e+00  2.8041923810202465e+00 2.5750430995243159e+00 0.0000000000000000e+00  2.8082343582568190e+00 2.6259418354348427e+00 0.0000000000000000e+00  2.8022705960249938e+00 2.6576164666634585e+00 0.0000000000000000e+00  2.8071549302793026e+00 2.7016651371742859e+00 0.0000000000000000e+00  2.8025691100644505e+00 2.7344977703508015e+00 0.0000000000000000e+00  2.8041764264798905e+00 2.7815965318941229e+00 0.0000000000000000e+00  2.8022618334692084e+00 2.8132924959990140e+00 0.0000000000000000e+00  2.8037291122798926e+00 2.8552984364552709e+00 0.0000000000000000e+00  2.7999609345153358e+00 2.8961242695245741e+00 0.0000000000000000e+00  2.8018840275487213e+00 2.9325532969917676e+00 0.0000000000000000e+00  2.8008804264756639e+00 2.9711136004621705e+00 0.0000000000000000e+00  2.7973214226888419e+00 3.0151707518568154e+00 0.0000000000000000e+00  2.7999375690344217e+00 3.0495919364435427e+00 0.0000000000000000e+00  2.7967369750149640e+00 3.0907715780805773e+00 0.0000000000000000e+00  2.7944174679642164e+00 3.1310704066130186e+00 0.0000000000000000e+00  2.7975666482262640e+00 3.1748239711089137e+00 0.0000000000000000e+00  2.7886465359534145e+00 3.1956104296920120e+00 0.0000000000000000e+00  2.8014413586208682e+00 3.2761799089634764e+00 0.0000000000000000e+00  2.7828067929683389e+00 3.2323511940858389e+00 0.0000000000000000e+00  2.7493985745250011e+00 3.5144083159780335e+00 0.0000000000000000e+00  3.8494674034879668e+00 1.3524668724431437e+00 0.0000000000000000e+00  5.5121543572545537e+00 -1.2685303004968447e+00 0.0000000000000000e+00  6.4123425812548289e+00 -2.3797763816958910e+00 0.0000000000000000e+00  6.7272882297514656e+00 -2.7337695992473834e+00 0.0000000000000000e+00  6.8342634714972990e+00 -2.8195485460828289e+00 0.0000000000000000e+00  6.8827596689427128e+00 -2.8355545197587908e+00 0.0000000000000000e+00  6.9168534367361900e+00 -2.8239378169597802e+00 0.0000000000000000e+00  6.9408169502552131e+00 -2.8094478140761718e+00 0.0000000000000000e+00  6.9619131799374436e+00 -2.7816680049941787e+00 0.0000000000000000e+00  6.9813348476843586e+00 -2.7615225684690059e+00 0.0000000000000000e+00  7.0027425889301300e+00 -2.7336825143379566e+00 0.0000000000000000e+00  7.0216401858209414e+00 -2.7137872463706718e+00 0.0000000000000000e+00  7.0426617218595817e+00 -2.6844020622529396e+00 0.0000000000000000e+00  7.0623022852759449e+00 -2.6669087035048253e+00 0.0000000000000000e+00  7.0825400893565682e+00 -2.6354461774079834e+00 0.0000000000000000e+00  7.1023817138888319e+00 -2.6194470545505286e+00 0.0000000000000000e+00  7.1230056063652158e+00 -2.5882502933809608e+00 0.0000000000000000e+00  7.1424854160822520e+00 -2.5713087357756734e+00 0.0000000000000000e+00  7.1630106536508604e+00 -2.5416640753868229e+00 0.0000000000000000e+00  7.1832107398649887e+00 -2.5241723215793423e+00 0.0000000000000000e+00  7.2027998569727529e+00 -2.4943400154119222e+00 0.0000000000000000e+00  7.2237611694530388e+00 -2.4779332232687259e+00 0.0000000000000000e+00  7.2430327229765696e+00 -2.4477543108363125e+00 0.0000000000000000e+00  7.2640351907701772e+00 -2.4306419466175364e+00 0.0000000000000000e+00  7.2832476385442977e+00 -2.4028032014364182e+00 0.0000000000000000e+00  7.3046201439888652e+00 -2.3828670530953788e+00 0.0000000000000000e+00  7.3232357867427922e+00 -2.3579784494646243e+00 0.0000000000000000e+00  7.3451909284723795e+00 -2.3360136709594213e+00 0.0000000000000000e+00  7.3635208868136832e+00 -2.3125085510510144e+00 0.0000000000000000e+00  7.3854492005846648e+00 -2.2903194855884803e+00 0.0000000000000000e+00  7.4039352808098338e+00 -2.2664563357039373e+00 0.0000000000000000e+00  7.4258532925007961e+00 -2.2455044500595638e+00 0.0000000000000000e+00  7.4441146604607376e+00 -2.2203182134182504e+00 0.0000000000000000e+00  7.4663445516182687e+00 -2.2011548733394859e+00 0.0000000000000000e+00  7.4844406440774298e+00 -2.1741168632528258e+00 0.0000000000000000e+00  7.5065578547873457e+00 -2.1575019886329088e+00 0.0000000000000000e+00  7.5249148867276441e+00 -2.1277948402684954e+00 0.0000000000000000e+00  7.5468271969304608e+00 -2.1137601702620437e+00 0.0000000000000000e+00  7.5651419154026529e+00 -2.0826525312487760e+00 0.0000000000000000e+00  7.5872280023469116e+00 -2.0687625762116557e+00 0.0000000000000000e+00  7.6053800348541829e+00 -2.0389566109703701e+00 0.0000000000000000e+00  7.6273694544143567e+00 -2.0226419732884513e+00 0.0000000000000000e+00  7.6457494822386112e+00 -1.9953716927436034e+00 0.0000000000000000e+00  7.6674454974428334e+00 -1.9768155224039050e+00 0.0000000000000000e+00  7.6858872302660926e+00 -1.9521831379874270e+00 0.0000000000000000e+00  7.7075734924602024e+00 -1.9309191808804447e+00 0.0000000000000000e+00  7.7259309194767276e+00 -1.9088853780675952e+00 0.0000000000000000e+00  7.7474404289969732e+00 -1.8842519269780000e+00 0.0000000000000000e+00  7.7659596491554792e+00 -1.8636513259717080e+00 0.0000000000000000e+00  7.7871584866490231e+00 -1.8388107419453681e+00 0.0000000000000000e+00  7.8057233581480912e+00 -1.8181640152258278e+00 0.0000000000000000e+00  7.8267162353848816e+00 -1.7946452608476833e+00 0.0000000000000000e+00  7.8453111673966847e+00 -1.7728908934353336e+00 0.0000000000000000e+00  7.8659814725237709e+00 -1.7496842410365188e+00 0.0000000000000000e+00  7.8845572607899070e+00 -1.7270953272884557e+00 0.0000000000000000e+00  7.9051066131204690e+00 -1.7039262557414867e+00 0.0000000000000000e+00  7.9233595737044036e+00 -1.6810851690110413e+00 0.0000000000000000e+00  7.9437929615796214e+00 -1.6567215471261139e+00 0.0000000000000000e+00  7.9619193888583544e+00 -1.6353588090845468e+00 0.0000000000000000e+00  7.9819860266408096e+00 -1.6089381985439095e+00 0.0000000000000000e+00  7.9998155420531711e+00 -1.5894152681461531e+00 0.0000000000000000e+00  8.0199314582352610e+00 -1.5617223002209808e+00 0.0000000000000000e+00  8.0370264869998405e+00 -1.5423696039016810e+00 0.0000000000000000e+00  8.0571100639270732e+00 -1.5157124593117870e+00 0.0000000000000000e+00  8.0738607511453591e+00 -1.4935990085799133e+00 0.0000000000000000e+00  8.0934620800204993e+00 -1.4708476859904074e+00 0.0000000000000000e+00  8.1097973056974979e+00 -1.4425468399128387e+00 0.0000000000000000e+00  8.1292926356585902e+00 -1.4263566404641517e+00 0.0000000000000000e+00  8.1447599450191799e+00 -1.3903375049276030e+00 0.0000000000000000e+00  8.1640860114454163e+00 -1.3799625418317389e+00 0.0000000000000000e+00  8.1790687421894237e+00 -1.3392209417291794e+00 0.0000000000000000e+00  8.1977058240698799e+00 -1.3309974137083547e+00 0.0000000000000000e+00  8.2122689253797532e+00 -1.2887504515219346e+00 0.0000000000000000e+00  8.2304728806284135e+00 -1.2811920124829164e+00 0.0000000000000000e+00  8.2441534807100361e+00 -1.2380559479386939e+00 0.0000000000000000e+00  8.2620182100551993e+00 -1.2301044300959334e+00 0.0000000000000000e+00  8.2750570963257584e+00 -1.1888518149362757e+00 0.0000000000000000e+00  8.2920494086034893e+00 -1.1753745781651872e+00 0.0000000000000000e+00  8.3047098676097111e+00 -1.1401018311947890e+00 0.0000000000000000e+00  8.3209279011354216e+00 -1.1201086643001812e+00 0.0000000000000000e+00  8.3327247172845169e+00 -1.0885235947328924e+00 0.0000000000000000e+00  8.3484726055522707e+00 -1.0647980459959925e+00 0.0000000000000000e+00  8.3594993140848803e+00 -1.0360498781748340e+00 0.0000000000000000e+00  8.3742227981258335e+00 -1.0073433856157814e+00 0.0000000000000000e+00  8.3849267109918291e+00 -9.8405311602035117e-01 0.0000000000000000e+00  8.3986058439704561e+00 -9.5193155241930960e-01 0.0000000000000000e+00  8.4084993055319934e+00 -9.2792727241159445e-01 0.0000000000000000e+00  8.4215607586978791e+00 -9.0067054115091405e-01 0.0000000000000000e+00  8.4306813447806057e+00 -8.6917150871970261e-01 0.0000000000000000e+00  8.4425615975880213e+00 -8.4994387981595743e-01 0.0000000000000000e+00  8.4514200431531599e+00 -8.1263557875123316e-01 0.0000000000000000e+00  8.4620940259884563e+00 -7.9605219979669617e-01 0.0000000000000000e+00  8.4701975609469695e+00 -7.5644095766577568e-01 0.0000000000000000e+00  8.4801483461710951e+00 -7.4009027626931756e-01 0.0000000000000000e+00  8.4874510815670305e+00 -6.9898294498936375e-01 0.0000000000000000e+00  8.4962659586276352e+00 -6.8048551381396716e-01 0.0000000000000000e+00  8.5031778076917224e+00 -6.3926062663850547e-01 0.0000000000000000e+00  8.5108207411391135e+00 -6.2236402346544295e-01 0.0000000000000000e+00  8.5169916223663176e+00 -5.8322355186423647e-01 0.0000000000000000e+00  8.5238069237389720e+00 -5.7048951120969960e-01 0.0000000000000000e+00  8.5291978696778727e+00 -5.3028283855453195e-01 0.0000000000000000e+00  8.5350417322355110e+00 -5.1256924265460446e-01 0.0000000000000000e+00  8.5398177960715458e+00 -4.7238896581651796e-01 0.0000000000000000e+00  8.5447164710149579e+00 -4.5468400002089149e-01 0.0000000000000000e+00  8.5486568274882000e+00 -4.0595441423477457e-01 0.0000000000000000e+00  8.5528557849389415e+00 -3.8429973970709963e-01 0.0000000000000000e+00  8.5558409141183418e+00 -3.3511188866767094e-01 0.0000000000000000e+00  8.5593460593832766e+00 -3.0748016986901078e-01 0.0000000000000000e+00  8.5613093734988830e+00 -2.7101829061705152e-01 0.0000000000000000e+00  8.5642170561209117e+00 -2.2769347253839742e-01 0.0000000000000000e+00  8.5651036126171665e+00 -2.0704342664831890e-01 0.0000000000000000e+00  8.5674289624382798e+00 -1.5476023615601278e-01 0.0000000000000000e+00  8.5673692338819727e+00 -1.5043612931445341e-01 0.0000000000000000e+00  8.5693395132110091e+00 -4.6843688491683522e-02 0.0000000000000000e+00  8.5684109315680530e+00 0.0000000000000000e+00 0.0000000000000000e+00  2.8234786026716452e+00 0.0000000000000000e+00 7.7788447817706934e-03  2.8229855121057668e+00 3.3214105581990297e-02 -9.9158599106480769e-03  2.8240085125072034e+00 7.6647120977726788e-02 2.5033843768424596e-03  2.8233572210019111e+00 1.1883252798101980e-01 1.1741401474118901e-02  2.8234478933109317e+00 1.5009847495002690e-01 -1.5279690505377037e-02  2.8238300960120024e+00 2.0114880125487702e-01 1.6834763819273700e-02  2.8238436211258260e+00 2.2745978261872063e-01 -1.8860924526147644e-02  2.8231898594649301e+00 2.8385454916591690e-01 2.1656119293576515e-02  2.8243237636009799e+00 3.0178701745184805e-01 -2.1911002732942372e-02  2.8234569939679144e+00 3.6416373660745399e-01 1.8165850554291499e-02  2.8237522052896114e+00 3.8549187508055965e-01 -1.1091008590855647e-02  2.8238285344343597e+00 4.3069058825198470e-01 3.5707938475495735e-03  2.8240209491862158e+00 4.7896775953290899e-01 2.1734998690068870e-03  2.8232230504459412e+00 4.9947949440733264e-01 -4.9782074326536032e-03  2.8242838376568828e+00 5.5595931394194387e-01 6.1427585706393169e-03  2.8235230752216323e+00 5.9105115743464021e-01 -7.0425442051347464e-03  2.8234439577020076e+00 6.1859332065247907e-01 7.7617436034877136e-03  2.8239684901392086e+00 6.7634004371593548e-01 -8.3506412405452667e-03  2.8233380915400881e+00 7.0646559261517816e-01 8.4819922068735572e-03  2.8233117985261496e+00 7.3734970094584851e-01 -7.2434945829212179e-03  2.8236177356805894e+00 7.9413916096701365e-01 5.5289076647281965e-03  2.8229956086612815e+00 8.2651901461925215e-01 -3.0635214601656179e-03  2.8231796710795027e+00 8.4934426914907668e-01 5.9514726143436664e-04  2.8228960071687905e+00 9.1926957578788004e-01 1.3833715600472579e-03  2.8229171237324850e+00 9.3945892847710943e-01 -1.5399532931817275e-03  2.8224114572767385e+00 9.6512495559001277e-01 -6.3490837562031458e-04  2.8226536922070302e+00 1.0470021141136401e+00 3.7975512488775888e-03  2.8221122731278658e+00 1.0399944675113040e+00 -5.7557136661312118e-03  2.8221275947817737e+00 1.1031646513978470e+00 5.2818478174373089e-03  2.8217115586618307e+00 1.1462352645938991e+00 -2.7650499590445099e-03  2.8218216715900284e+00 1.1694010278600273e+00 2.9408065060958840e-04  2.8210858655800770e+00 1.2169773819726961e+00 6.6067811110330694e-04  2.8214392115085438e+00 1.2616972556073627e+00 -4.0738120347569366e-04  2.8205351340518772e+00 1.2903754604782787e+00 6.0046267849200787e-04  2.8210103570252638e+00 1.3325336362149849e+00 -1.6657952460863189e-03  2.8198869314985973e+00 1.3799933258492323e+00 3.4480275945776542e-03  2.8205372564553932e+00 1.4055336203699493e+00 -4.3139291915287618e-03  2.8193754411531917e+00 1.4558775400853137e+00 4.0098625070679669e-03  2.8198575111627902e+00 1.4889151684678077e+00 -2.9706385134006530e-03  2.8188534427677987e+00 1.5318271275907280e+00 2.2187950860956102e-03  2.8192858593542098e+00 1.5662789495206915e+00 -1.9711073384371018e-03  2.8182520818389287e+00 1.6115954478283077e+00 2.0315086916141874e-03  2.8185459054245601e+00 1.6448320251187543e+00 -1.8191732008010391e-03  2.8178533694316239e+00 1.6880362660113901e+00 1.5736087815712307e-03  2.8177677351838391e+00 1.7251249648324392e+00 -1.2109531601499958e-03  2.8171852289753558e+00 1.7654269200965471e+00 9.7561839874036932e-04  2.8172682050433213e+00 1.8031816704628356e+00 -7.4568512402292458e-04  2.8164502579119675e+00 1.8445254441416150e+00 4.9130719834834986e-04  2.8165523129847965e+00 1.8810433816527687e+00 -3.6650853542785416e-04  2.8158928250175270e+00 1.9228511804689246e+00 2.7083130228887245e-04  2.8158644073347507e+00 1.9595237205585481e+00 -3.1405419428060264e-04  2.8151132996325963e+00 2.0014459994023035e+00 4.2459360929114425e-04  2.8153066892388847e+00 2.0374763893208683e+00 -5.9686551922378769e-04  2.8143419491889397e+00 2.0799189140380379e+00 8.0354807293656170e-04  2.8146739553457509e+00 2.1163439872578338e+00 -8.2349942935392643e-04  2.8135397890430442e+00 2.1575157187036136e+00 6.0636940604338473e-04  2.8140003499775132e+00 2.1955409877089385e+00 -5.8572613265141747e-05  2.8129950745143644e+00 2.2348768082497812e+00 -7.3250032030292434e-04  2.8128317996935834e+00 2.2755366413206226e+00 1.6899591615820457e-03  2.8127147693513899e+00 2.3112587687300654e+00 -2.8618973173893869e-03  2.8118538427035413e+00 2.3555509255960008e+00 4.1217031949112564e-03  2.8119450019890602e+00 2.3888181615503892e+00 -5.4495553501463642e-03  2.8109145571881937e+00 2.4345109461107870e+00 6.5079638336451020e-03  2.8117845666279413e+00 2.4659750178366107e+00 -7.2311920504723225e-03  2.8092224575752174e+00 2.5144433953351952e+00 7.4975230553124845e-03  2.8114118818676586e+00 2.5439246731194487e+00 -7.4506183729780235e-03  2.8088006994884975e+00 2.5910152174236853e+00 7.1888666407146640e-03  2.8097459864160865e+00 2.6249090715532835e+00 -6.9047121180068113e-03  2.8081140982685389e+00 2.6684384991001409e+00 6.6539209708845540e-03  2.8098192244488480e+00 2.7011190889153043e+00 -6.5552123589254531e-03  2.8058757698680927e+00 2.7497037325542397e+00 6.4722028000099045e-03  2.8092416192937453e+00 2.7788493726395860e+00 -6.3852943322982936e-03  2.8061727533005136e+00 2.8248326404919619e+00 6.1777996928326969e-03  2.8067202595768173e+00 2.8608111108030854e+00 -5.8733603970614135e-03  2.8056126373116852e+00 2.9021916965026540e+00 5.6073226054625227e-03  2.8074289786602709e+00 2.9355122903362623e+00 -5.0965847945178893e-03  2.8030322891103339e+00 2.9835653636843085e+00 4.9322099096610512e-03  2.8071273074040488e+00 3.0134231637472051e+00 -3.9987397484474154e-03  2.8046131030345340e+00 3.0559079039787811e+00 3.9084351541269170e-03  2.8043940765549125e+00 3.0959675790446091e+00 -2.3462418115953853e-03  2.8056057516411665e+00 3.1313154268651968e+00 2.2838479918818040e-03  