<?xml version="1.0"?>
<VTKFile type="UnstructuredGrid"  version="0.1"  >
<UnstructuredGrid>
<Piece  NumberOfPoints="8241" NumberOfCells="16000">
<Points>
<DataArray  type="Float64"  NumberOfComponents="3"  format="ascii">-5 -1 0  -4.95 -1 0  -4.9 -1 0  -4.85 -1 0  -4.8 -1 0  -4.75 -1 0  -4.7 -1 0  -4.65 -1 0  -4.6 -1 0  -4.55 -1 0  -4.5 -1 0  -4.45 -1 0  -4.4 -1 0  -4.35 -1 0  -4.3 -1 0  -4.25 -1 0  -4.2 -1 0  -4.15 -1 0  -4.1 -1 0  -4.05 -1 0  -4 -1 0  -3.95 -1 0  -3.9 -1 0  -3.85 -1 0  -3.8 -1 0  -3.75 -1 0  -3.7 -1 0  -3.65 -1 0  -3.6 -1 0  -3.55 -1 0  -3.5 -1 0  -3.45 -1 0  -3.4 -1 0  -3.35 -1 0  -3.3 -1 0  -3.25 -1 0  -3.2 -1 0  -3.15 -1 0  -3.1 -1 0  -3.05 -1 0  -3 -1 0  -2.95 -1 0  -2.9 -1 0  -2.85 -1 0  -2.8 -1 0  -2.75 -1 0  -2.7 -1 0  -2.65 -1 0  -2.6 -1 0  -2.55 -1 0  -2.5 -1 0  -2.45 -1 0  -2.4 -1 0  -2.35 -1 0  -2.3 -1 0  -2.25 -1 0  -2.2 -1 0  -2.15 -1 0  -2.1 -1 0  -2.05 -1 0  -2 -1 0  -1.95 -1 0  -1.9 -1 0  -1.85 -1 0  -1.8 -1 0  -1.75 -1 0  -1.7 -1 0  -1.65 -1 0  -1.6 -1 0  -1.55 -1 0  -1.5 -1 0  -1.45 -1 0  -1.4 -1 0  -1.35 -1 0  -1.3 -1 0  -1.25 -1 0  -1.2 -1 0  -1.15 -1 0  -1.1 -1 0  -1.05 -1 0  -1 -1 0  -0.9500000000000002 -1 0  -0.9000000000000004 -1 0  -0.8499999999999996 -1 0  -0.7999999999999998 -1 0  -0.75 -1 0  -0.7000000000000002 -1 0  -0.6500000000000004 -1 0  -0.5999999999999996 -1 0  -0.5499999999999998 -1 0  -0.5 -1 0  -0.4500000000000002 -1 0  -0.4000000000000004 -1 0  -0.3499999999999996 -1 0  -0.2999999999999998 -1 0  -0.25 -1 0  -0.2000000000000002 -1 0  -0.1500000000000004 -1 0  -0.09999999999999964 -1 0  -0.04999999999999982 -1 0  0 -1 0  0.04999999999999982 -1 0  0.09999999999999964 -1 0  0.1500000000000004 -1 0  0.2000000000000002 -1 0  0.25 -1 0  0.2999999999999998 -1 0  0.3499999999999996 -1 0  0.4000000000000004 -1 0  0.4500000000000002 -1 0  0.5 -1 0  0.5499999999999998 -1 0  0.5999999999999996 -1 0  0.6500000000000004 -1 0  0.7000000000000002 -1 0  0.75 -1 0  0.7999999999999998 -1 0  0.8499999999999996 -1 0  0.9000000000000004 -1 0  0.9500000000000002 -1 0  1 -1 0  1.05 -1 0  1.1 -1 0  1.15 -1 0  1.2 -1 0  1.25 -1 0  1.3 -1 0  1.35 -1 0  1.4 -1 0  1.45 -1 0  1.5 -1 0  1.55 -1 0  1.6 -1 0  1.65 -1 0  1.7 -1 0  1.75 -1 0  1.8 -1 0  1.85 -1 0  1.9 -1 0  1.95 -1 0  2 -1 0  2.05 -1 0  2.1 -1 0  2.15 -1 0  2.2 -1 0  2.25 -1 0  2.3 -1 0  2.35 -1 0  2.4 -1 0  2.45 -1 0  2.5 -1 0  2.55 -1 0  2.6 -1 0  2.65 -1 0  2.7 -1 0  2.75 -1 0  2.8 -1 0  2.85 -1 0  2.9 -1 0  2.95 -1 0  3 -1 0  3.050000000000001 -1 0  3.1 -1 0  3.15 -1 0  3.199999999999999 -1 0  3.25 -1 0  3.300000000000001 -1 0  3.35 -1 0  3.4 -1 0  3.449999999999999 -1 0  3.5 -1 0  3.550000000000001 -1 0  3.6 -1 0  3.65 -1 0  3.699999999999999 -1 0  3.75 -1 0  3.800000000000001 -1 0  3.85 -1 0  3.9 -1 0  3.949999999999999 -1 0  4 -1 0  4.050000000000001 -1 0  4.1 -1 0  4.15 -1 0  4.199999999999999 -1 0  4.25 -1 0  4.300000000000001 -1 0  4.35 -1 0  4.4 -1 0  4.449999999999999 -1 0  4.5 -1 0  4.550000000000001 -1 0  4.6 -1 0  4.65 -1 0  4.699999999999999 -1 0  4.75 -1 0  4.800000000000001 -1 0  4.85 -1 0  4.9 -1 0  4.949999999999999 -1 0  5 -1 0  -5 -0.95 0  -4.95 -0.95 0  -4.9 -0.95 0  -4.85 -0.95 0  -4.8 -0.95 0  -4.75 -0.95 0  -4.7 -0.95 0  -4.65 -0.95 0  -4.6 -0.95 0  -4.55 -0.95 0  -4.5 -0.95 0  -4.45 -0.95 0  -4.4 -0.95 0  -4.35 -0.95 0  -4.3 -0.95 0  -4.25 -0.95 0  -4.2 -0.95 0  -4.15 -0.95 0  -4.1 -0.95 0  -4.05 -0.95 0  -4 -0.95 0  -3.95 -0.95 0  -3.9 -0.95 0  -3.85 -0.95 0  -3.8 -0.95 0  -3.75 -0.95 0  -3.7 -0.95 0  -3.65 -0.95 0  -3.6 -0.95 0  -3.55 -0.95 0  -3.5 -0.95 0  -3.45 -0.95 0  -3.4 -0.95 0  -3.35 -0.95 0  -3.3 -0.95 0  -3.25 -0.95 0  -3.2 -0.95 0  -3.15 -0.95 0  -3.1 -0.95 0  -3.05 -0.95 0  -3 -0.95 0  -2.95 -0.95 0  -2.9 -0.95 0  -2.85 -0.95 0  -2.8 -0.95 0  -2.75 -0.95 0  -2.7 -0.95 0  -2.65 -0.95 0  -2.6 -0.95 0  -2.55 -0.95 0  -2.5 -0.95 0  -2.45 -0.95 0  -2.4 -0.95 0  -2.35 -0.95 0  -2.3 -0.95 0  -2.25 -0.95 0  -2.2 -0.95 0  -2.15 -0.95 0  -2.1 -0.95 0  -2.05 -0.95 0  -2 -0.95 0  -1.95 -0.95 0  -1.9 -0.95 0  -1.85 -0.95 0  -1.8 -0.95 0  -1.75 -0.95 0  -1.7 -0.95 0  -1.65 -0.95 0  -1.6 -0.95 0  -1.55 -0.95 0  -1.5 -0.95 0  -1.45 -0.95 0  -1.4 -0.95 0  -1.35 -0.95 0  -1.3 -0.95 0  -1.25 -0.95 0  -1.2 -0.95 0  -1.15 -0.95 0  -1.1 -0.95 0  -1.05 -0.95 0  -1 -0.95 0  -0.9500000000000002 -0.95 0  -0.9000000000000004 -0.95 0  -0.8499999999999996 -0.95 0  -0.7999999999999998 -0.95 0  -0.75 -0.95 0  -0.7000000000000002 -0.95 0  -0.6500000000000004 -0.95 0  -0.5999999999999996 -0.95 0  -0.5499999999999998 -0.95 0  -0.5 -0.95 0  -0.4500000000000002 -0.95 0  -0.4000000000000004 -0.95 0  -0.3499999999999996 -0.95 0  -0.2999999999999998 -0.95 0  -0.25 -0.95 0  -0.2000000000000002 -0.95 0  -0.1500000000000004 -0.95 0  -0.09999999999999964 -0.95 0  -0.04999999999999982 -0.95 0  0 -0.95 0  0.04999999999999982 -0.95 0  0.09999999999999964 -0.95 0  0.1500000000000004 -0.95 0  0.2000000000000002 -0.95 0  0.25 -0.95 0  0.2999999999999998 -0.95 0  0.3499999999999996 -0.95 0  0.4000000000000004 -0.95 0  0.4500000000000002 -0.95 0  0.5 -0.95 0  0.5499999999999998 -0.95 0  0.5999999999999996 -0.95 0  0.6500000000000004 -0.95 0  0.7000000000000002 -0.95 0  0.75 -0.95 0  0.7999999999999998 -0.95 0  0.8499999999999996 -0.95 0  0.9000000000000004 -0.95 0  0.9500000000000002 -0.95 0  1 -0.95 0  1.05 -0.95 0  1.1 -0.95 0  1.15 -0.95 0  1.2 -0.95 0  1.25 -0.95 0  1.3 -0.95 0  1.35 -0.95 0  1.4 -0.95 0  1.45 -0.95 0  1.5 -0.95 0  1.55 -0.95 0  1.6 -0.95 0  1.65 -0.95 0  1.7 -0.95 0  1.75 -0.95 0  1.8 -0.95 0  1.85 -0.95 0  1.9 -0.95 0  1.95 -0.95 0  2 -0.95 0  2.05 -0.95 0  2.1 -0.95 0  2.15 -0.95 0  2.2 -0.95 0  2.25 -0.95 0  2.3 -0.95 0  2.35 -0.95 0  2.4 -0.95 0  2.45 -0.95 0  2.5 -0.95 0  2.55 -0.95 0  2.6 -0.95 0  2.65 -0.95 0  2.7 -0.95 0  2.75 -0.95 0  2.8 -0.95 0  2.85 -0.95 0  2.9 -0.95 0  2.95 -0.95 0  3 -0.95 0  3.050000000000001 -0.95 0  3.1 -0.95 0  3.15 -0.95 0  3.199999999999999 -0.95 0  3.25 -0.95 0  3.300000000000001 -0.95 0  3.35 -0.95 0  3.4 -0.95 0  3.449999999999999 -0.95 0  3.5 -0.95 0  3.550000000000001 -0.95 0  3.6 -0.95 0  3.65 -0.95 0  3.699999999999999 -0.95 0  3.75 -0.95 0  3.800000000000001 -0.95 0  3.85 -0.95 0  3.9 -0.95 0  3.949999999999999 -0.95 0  4 -0.95 0  4.050000000000001 -0.95 0  4.1 -0.95 0  4.15 -0.95 0  4.199999999999999 -0.95 0  4.25 -0.95 0  4.300000000000001 -0.95 0  4.35 -0.95 0  4.4 -0.95 0  4.449999999999999 -0.95 0  4.5 -0.95 0  4.550000000000001 -0.95 0  4.6 -0.95 0  4.65 -0.95 0  4.699999999999999 -0.95 0  4.75 -0.95 0  4.800000000000001 -0.95 0  4.85 -0.95 0  4.9 -0.95 0  4.949999999999999 -0.95 0  5 -0.95 0  -5 -0.9 0  -4.95 -0.9 0  -4.9 -0.9 0  -4.85 -0.9 0  -4.8 -0.9 0  -4.75 -0.9 0  -4.7 -0.9 0  -4.65 -0.9 0  -4.6 -0.9 0  -4.55 -0.9 0  -4.5 -0.9 0  -4.45 -0.9 0  -4.4 -0.9 0  -4.35 -0.9 0  -4.3 -0.9 0  -4.25 -0.9 0  -4.2 -0.9 0  -4.15 -0.9 0  -4.1 -0.9 0  -4.05 -0.9 0  -4 -0.9 0  -3.95 -0.9 0  -3.9 -0.9 0  -3.85 -0.9 0  -3.8 -0.9 0  -3.75 -0.9 0  -3.7 -0.9 0  -3.65 -0.9 0  -3.6 -0.9 0  -3.55 -0.9 0  -3.5 -0.9 0  -3.45 -0.9 0  -3.4 -0.9 0  -3.35 -0.9 0  -3.3 -0.9 0  -3.25 -0.9 0  -3.2 -0.9 0  -3.15 -0.9 0  -3.1 -0.9 0  -3.05 -0.9 0  -3 -0.9 0  -2.95 -0.9 0  -2.9 -0.9 0  -2.85 -0.9 0  -2.8 -0.9 0  -2.75 -0.9 0  -2.7 -0.9 0  -2.65 -0.9 0  -2.6 -0.9 0  -2.55 -0.9 0  -2.5 -0.9 0  -2.45 -0.9 0  -2.4 -0.9 0  -2.35 -0.9 0  -2.3 -0.9 0  -2.25 -0.9 0  -2.2 -0.9 0  -2.15 -0.9 0  -2.1 -0.9 0  -2.05 -0.9 0  -2 -0.9 0  -1.95 -0.9 0  -1.9 -0.9 0  -1.85 -0.9 0  -1.8 -0.9 0  -1.75 -0.9 0  -1.7 -0.9 0  -1.65 -0.9 0  -1.6 -0.9 0  -1.55 -0.9 0  -1.5 -0.9 0  -1.45 -0.9 0  -1.4 -0.9 0  -1.35 -0.9 0  -1.3 -0.9 0  -1.25 -0.9 0  -1.2 -0.9 0  -1.15 -0.9 0  -1.1 -0.9 0  -1.05 -0.9 0  -1 -0.9 0  -0.9500000000000002 -0.9 0  -0.9000000000000004 -0.9 0  -0.8499999999999996 -0.9 0  -0.7999999999999998 -0.9 0  -0.75 -0.9 0  -0.7000000000000002 -0.9 0  -0.6500000000000004 -0.9 0  -0.5999999999999996 -0.9 0  -0.5499999999999998 -0.9 0  -0.5 -0.9 0  -0.4500000000000002 -0.9 0  -0.4000000000000004 -0.9 0  -0.3499999999999996 -0.9 0  -0.2999999999999998 -0.9 0  -0.25 -0.9 0  -0.2000000000000002 -0.9 0  -0.1500000000000004 -0.9 0  -0.09999999999999964 -0.9 0  -0.04999999999999982 -0.9 0  0 -0.9 0  0.04999999999999982 -0.9 0  0.09999999999999964 -0.9 0  0.1500000000000004 -0.9 0  0.2000000000000002 -0.9 0  0.25 -0.9 0  0.2999999999999998 -0.9 0  0.3499999999999996 -0.9 0  0.4000000000000004 -0.9 0  0.4500000000000002 -0.9 0  0.5 -0.9 0  0.5499999999999998 -0.9 0  0.5999999999999996 -0.9 0  0.6500000000000004 -0.9 0  0.7000000000000002 -0.9 0  0.75 -0.9 0  0.7999999999999998 -0.9 0  0.8499999999999996 -0.9 0  0.9000000000000004 -0.9 0  0.9500000000000002 -0.9 0  1 -0.9 0  1.05 -0.9 0  1.1 -0.9 0  1.15 -0.9 0  1.2 -0.9 0  1.25 -0.9 0  1.3 -0.9 0  1.35 -0.9 0  1.4 -0.9 0  1.45 -0.9 0  1.5 -0.9 0  1.55 -0.9 0  1.6 -0.9 0  1.65 -0.9 0  1.7 -0.9 0  1.75 -0.9 0  1.8 -0.9 0  1.85 -0.9 0  1.9 -0.9 0  1.95 -0.9 0  2 -0.9 0  2.05 -0.9 0  2.1 -0.9 0  2.15 -0.9 0  2.2 -0.9 0  2.25 -0.9 0  2.3 -0.9 0  2.35 -0.9 0  2.4 -0.9 0  2.45 -0.9 0  2.5 -0.9 0  2.55 -0.9 0  2.6 -0.9 0  2.65 -0.9 0  2.7 -0.9 0  2.75 -0.9 0  2.8 -0.9 0  2.85 -0.9 0  2.9 -0.9 0  2.95 -0.9 0  3 -0.9 0  3.050000000000001 -0.9 0  3.1 -0.9 0  3.15 -0.9 0  3.199999999999999 -0.9 0  3.25 -0.9 0  3.300000000000001 -0.9 0  3.35 -0.9 0  3.4 -0.9 0  3.449999999999999 -0.9 0  3.5 -0.9 0  3.550000000000001 -0.9 0  3.6 -0.9 0  3.65 -0.9 0  3.699999999999999 -0.9 0  3.75 -0.9 0  3.800000000000001 -0.9 0  3.85 -0.9 0  3.9 -0.9 0  3.949999999999999 -0.9 0  4 -0.9 0  4.050000000000001 -0.9 0  4.1 -0.9 0  4.15 -0.9 0  4.199999999999999 -0.9 0  4.25 -0.9 0  4.300000000000001 -0.9 0  4.35 -0.9 0  4.4 -0.9 0  4.449999999999999 -0.9 0  4.5 -0.9 0  4.550000000000001 -0.9 0  4.6 -0.9 0  4.65 -0.9 0  4.699999999999999 -0.9 0  4.75 -0.9 0  4.800000000000001 -0.9 0  4.85 -0.9 0  4.9 -0.9 0  4.949999999999999 -0.9 0  5 -0.9 0  -5 -0.85 0  -4.95 -0.85 0  -4.9 -0.85 0  -4.85 -0.85 0  -4.8 -0.85 0  -4.75 -0.85 0  -4.7 -0.85 0  -4.65 -0.85 0  -4.6 -0.85 0  -4.55 -0.85 0  -4.5 -0.85 0  -
[...]
<PointData  Vectors="f_15"> 
<DataArray  type="Float64"  Name="f_15"  NumberOfComponents="3" format="ascii">2.1678821544230820e+00 0.0000000000000000e+00 0.0000000000000000e+00  2.1683350989422174e+00 4.2959487817007647e-02 0.0000000000000000e+00  2.1648542558532493e+00 7.1889883345292199e-02 0.0000000000000000e+00  2.1696223560543682e+00 8.8362230235684722e-02 0.0000000000000000e+00  2.1660409115117196e+00 1.0905533922471453e-01 0.0000000000000000e+00  2.1676067022917302e+00 1.7906296930320806e-01 0.0000000000000000e+00  2.1662084067214047e+00 1.3542841502781836e-01 0.0000000000000000e+00  2.1695410196575318e+00 2.6004713810870150e-01 0.0000000000000000e+00  2.1638288989898800e+00 2.1501049994919189e-01 0.0000000000000000e+00  2.1703585474789495e+00 2.5906394950270761e-01 0.0000000000000000e+00  2.1649811679671682e+00 3.4997043429968688e-01 0.0000000000000000e+00  2.1689101563163460e+00 2.7959044918374076e-01 0.0000000000000000e+00  2.1654864255502067e+00 3.8755698618528645e-01 0.0000000000000000e+00  2.1702345478404630e+00 4.1634591149453931e-01 0.0000000000000000e+00  2.1642936201552074e+00 3.6917782938601945e-01 0.0000000000000000e+00  2.1713758751317158e+00 5.1004717658427456e-01 0.0000000000000000e+00  2.1646806793439026e+00 4.5398688922482050e-01 0.0000000000000000e+00  2.1713927466648157e+00 5.2143644760680719e-01 0.0000000000000000e+00  2.1649538121918490e+00 5.4979775882823234e-01 0.0000000000000000e+00  2.1713738833226328e+00 5.7743764417915244e-01 0.0000000000000000e+00  2.1638108451071236e+00 6.0467044097578870e-01 0.0000000000000000e+00  2.1740651660206280e+00 6.3294971302796021e-01 0.0000000000000000e+00  2.2488643730218318e+00 4.9785303883103943e-01 0.0000000000000000e+00  2.7180282891709444e+00 -4.5415956689176151e-01 0.0000000000000000e+00  3.5350018130778595e+00 -2.0929219632220351e+00 0.0000000000000000e+00  4.3084633667624157e+00 -3.3685663726041883e+00 0.0000000000000000e+00  4.8081988488122480e+00 -4.1123069105305570e+00 0.0000000000000000e+00  5.0911494591439608e+00 -4.4675073023544485e+00 0.0000000000000000e+00  5.2340401792132605e+00 -4.6417706802420255e+00 0.0000000000000000e+00  5.3155007129462088e+00 -4.7070942251136367e+00 0.0000000000000000e+00  5.3583508262023098e+00 -4.7380116678105884e+00 0.0000000000000000e+00  5.3893854210954082e+00 -4.7314373750623853e+00 0.0000000000000000e+00  5.4080150828232219e+00 -4.7299982835301941e+00 0.0000000000000000e+00  5.4274227986219579e+00 -4.7076701329495796e+00 0.0000000000000000e+00  5.4407834785743177e+00 -4.6980274963969650e+00 0.0000000000000000e+00  5.4571063066914629e+00 -4.6734127312499147e+00 0.0000000000000000e+00  5.4701944544343624e+00 -4.6610789837234190e+00 0.0000000000000000e+00  5.4854837651024377e+00 -4.6372273427251418e+00 0.0000000000000000e+00  5.4983082019237504e+00 -4.6220524168915613e+00 0.0000000000000000e+00  5.5135212204390918e+00 -4.6018707199705853e+00 0.0000000000000000e+00  5.5266294927385884e+00 -4.5816059389629054e+00 0.0000000000000000e+00  5.5413059159573050e+00 -4.5659733059438325e+00 0.0000000000000000e+00  5.5546196980269800e+00 -4.5419098563331506e+00 0.0000000000000000e+00  5.5693661296699641e+00 -4.5285161627698880e+00 0.0000000000000000e+00  5.5823429530154467e+00 -4.5029237989205537e+00 0.0000000000000000e+00  5.5973930635193030e+00 -4.4901501925852809e+00 0.0000000000000000e+00  5.6101723211380934e+00 -4.4638214289699949e+00 0.0000000000000000e+00  5.6249420189532113e+00 -4.4520688329635947e+00 0.0000000000000000e+00  5.6381559323942518e+00 -4.4241730748791337e+00 0.0000000000000000e+00  5.6525871101944203e+00 -4.4136772808165663e+00 0.0000000000000000e+00  5.6656045244004245e+00 -4.3851175127752855e+00 0.0000000000000000e+00  5.6802254681572597e+00 -4.3751455584581347e+00 0.0000000000000000e+00  5.6932147453093291e+00 -4.3455800474399187e+00 0.0000000000000000e+00  5.7074471893262189e+00 -4.3368981243647733e+00 0.0000000000000000e+00  5.7206029928828013e+00 -4.3066219113960011e+00 0.0000000000000000e+00  5.7347265902835201e+00 -4.2971398014558773e+00 0.0000000000000000e+00  5.7478151491676597e+00 -4.2685326270344577e+00 0.0000000000000000e+00  5.7615982251059652e+00 -4.2567043433604974e+00 0.0000000000000000e+00  5.7749441435338422e+00 -4.2298239663316020e+00 0.0000000000000000e+00  5.7883655389426645e+00 -4.2157744660662226e+00 0.0000000000000000e+00  5.8016342652824928e+00 -4.1907809557770719e+00 0.0000000000000000e+00  5.8149837481499365e+00 -4.1734606118801647e+00 0.0000000000000000e+00  5.8281022238857458e+00 -4.1515289688637811e+00 0.0000000000000000e+00  5.8411693940746412e+00 -4.1300680223251653e+00 0.0000000000000000e+00  5.8543288672981824e+00 -4.1112512644748129e+00 0.0000000000000000e+00  5.8671508421938885e+00 -4.0861614655206093e+00 0.0000000000000000e+00  5.8799676554407778e+00 -4.0695896800575762e+00 0.0000000000000000e+00  5.8928707030960865e+00 -4.0423535643916342e+00 0.0000000000000000e+00  5.9053036612442869e+00 -4.0258939026084049e+00 0.0000000000000000e+00  5.9180282452613593e+00 -3.9990632767260688e+00 0.0000000000000000e+00  5.9302369090314002e+00 -3.9807866269356280e+00 0.0000000000000000e+00  5.9428523130173110e+00 -3.9553740697338999e+00 0.0000000000000000e+00  5.9545379699219820e+00 -3.9351540906304145e+00 0.0000000000000000e+00  5.9672031760418314e+00 -3.9113253739414913e+00 0.0000000000000000e+00  5.9784791956413574e+00 -3.8886777931280223e+00 0.0000000000000000e+00  5.9908610369558879e+00 -3.8668935575855232e+00 0.0000000000000000e+00  6.0018547709614962e+00 -3.8422654735922510e+00 0.0000000000000000e+00  6.0141592356573925e+00 -3.8209256567885888e+00 0.0000000000000000e+00  6.0244662456310971e+00 -3.7962052763827052e+00 0.0000000000000000e+00  6.0368410356022828e+00 -3.7742387374356556e+00 0.0000000000000000e+00  6.0466928162740468e+00 -3.7491620435330257e+00 0.0000000000000000e+00  6.0587119167679315e+00 -3.7273630614988393e+00 0.0000000000000000e+00  6.0682480492039321e+00 -3.7016190114751852e+00 0.0000000000000000e+00  6.0801859438149535e+00 -3.6792934994653921e+00 0.0000000000000000e+00  6.0889671093344253e+00 -3.6538683157364429e+00 0.0000000000000000e+00  6.1009301503872706e+00 -3.6306001125062402e+00 0.0000000000000000e+00  6.1092992774367874e+00 -3.6049653336913607e+00 0.0000000000000000e+00  6.1207926045979599e+00 -3.5815895953243304e+00 0.0000000000000000e+00  6.1288927157286990e+00 -3.5553860767656076e+00 0.0000000000000000e+00  6.1402475916244184e+00 -3.5314847667572935e+00 0.0000000000000000e+00  6.1476090928245268e+00 -3.5054103393958416e+00 0.0000000000000000e+00  6.1589308538064067e+00 -3.4806999896576953e+00 0.0000000000000000e+00  6.1659369028806257e+00 -3.4543918360235648e+00 0.0000000000000000e+00  6.1767220570384032e+00 -3.4294505602199270e+00 0.0000000000000000e+00  6.1834915511817776e+00 -3.4028331848035873e+00 0.0000000000000000e+00  6.1941372585373040e+00 -3.3769312765632860e+00 0.0000000000000000e+00  6.2001659078155225e+00 -3.3511234596102328e+00 0.0000000000000000e+00  6.2107602978900740e+00 -3.3236768770515424e+00 0.0000000000000000e+00  6.2165189024286507e+00 -3.2980740103424200e+00 0.0000000000000000e+00  6.2264867282664937e+00 -3.2707082856537966e+00 0.0000000000000000e+00  6.2321004909662845e+00 -3.2436229199259503e+00 0.0000000000000000e+00  6.2419170922695404e+00 -3.2171130814749072e+00 0.0000000000000000e+00  6.2468182286500236e+00 -3.1888912993359098e+00 0.0000000000000000e+00  6.2565541913230129e+00 -3.1623716923940570e+00 0.0000000000000000e+00  6.2613159169883357e+00 -3.1336651491579541e+00 0.0000000000000000e+00  6.2703236340314126e+00 -3.1067899357147466e+00 0.0000000000000000e+00  6.2750448482115750e+00 -3.0780744406253406e+00 0.0000000000000000e+00  6.2839048090353646e+00 -3.0499478248110830e+00 0.0000000000000000e+00  6.2879538215547273e+00 -3.0221094326971953e+00 0.0000000000000000e+00  6.2967043257778377e+00 -2.9926489797740095e+00 0.0000000000000000e+00  6.3007407352741778e+00 -2.9647128515435948e+00 0.0000000000000000e+00  6.3087013701665606e+00 -2.9353586245251049e+00 0.0000000000000000e+00  6.3127762916408390e+00 -2.9063408593495668e+00 0.0000000000000000e+00  6.3205936811779395e+00 -2.8771795882989046e+00 0.0000000000000000e+00  6.3240760434986232e+00 -2.8474365277561002e+00 0.0000000000000000e+00  6.3317262533130974e+00 -2.8182154572991878e+00 0.0000000000000000e+00  6.3353176251616254e+00 -2.7877575254167759e+00 0.0000000000000000e+00  6.3421702943840339e+00 -2.7585506471835961e+00 0.0000000000000000e+00  6.3458034095978091e+00 -2.7277078141869029e+00 0.0000000000000000e+00  6.3525969162841411e+00 -2.6982583515045109e+00 0.0000000000000000e+00  6.3556472134987994e+00 -2.6671846032069531e+00 0.0000000000000000e+00  6.3622792358666134e+00 -2.6376742884278448e+00 0.0000000000000000e+00  6.3654958764360385e+00 -2.6061885258353472e+00 0.0000000000000000e+00  6.3713967040440620e+00 -2.5762266181418405e+00 0.0000000000000000e+00  6.3745745873291444e+00 -2.5449002572206258e+00 0.0000000000000000e+00  6.3805769865245070e+00 -2.5139357089765766e+00 0.0000000000000000e+00  6.3831314503808816e+00 -2.4825680357039497e+00 0.0000000000000000e+00  6.3889949249953268e+00 -2.4515312349131793e+00 0.0000000000000000e+00  6.3917653656223807e+00 -2.4195453835323502e+00 0.0000000000000000e+00  6.3969706786142799e+00 -2.3882107927700345e+00 0.0000000000000000e+00  6.3996104801394225e+00 -2.3572140135316211e+00 0.0000000000000000e+00  6.4050595106170505e+00 -2.3238203140899025e+00 0.0000000000000000e+00  6.4070632168416957e+00 -2.2948092437374452e+00 0.0000000000000000e+00  6.4123740458224692e+00 -2.2596228506958091e+00 0.0000000000000000e+00  6.4146208221651060e+00 -2.2315182307424544e+00 0.0000000000000000e+00  6.4193669347377407e+00 -2.1957572535257053e+00 0.0000000000000000e+00  6.4214250738727578e+00 -2.1676544863479132e+00 0.0000000000000000e+00  6.4264259734811588e+00 -2.1317191730373679e+00 0.0000000000000000e+00  6.4279977052797728e+00 -2.1034261204046105e+00 0.0000000000000000e+00  6.4327430037649620e+00 -2.0672697822707304e+00 0.0000000000000000e+00  6.4346058902815013e+00 -2.0386204893848943e+00 0.0000000000000000e+00  6.4388799800552645e+00 -2.0029191982487307e+00 0.0000000000000000e+00  6.4405359718501982e+00 -1.9729807622560311e+00 0.0000000000000000e+00  6.4449657283315345e+00 -1.9382730718205496e+00 0.0000000000000000e+00  6.4463592314440135e+00 -1.9080454429140328e+00 0.0000000000000000e+00  6.4504294941316340e+00 -1.8716790236125509e+00 0.0000000000000000e+00  6.4520551705297819e+00 -1.8450243888036213e+00 0.0000000000000000e+00  6.4558141702176552e+00 -1.8039659458719652e+00 0.0000000000000000e+00  6.4572417230774173e+00 -1.7812568537087068e+00 0.0000000000000000e+00  6.4609471591295105e+00 -1.7387468246194180e+00 0.0000000000000000e+00  6.4624032429765705e+00 -1.7142002512432610e+00 0.0000000000000000e+00  6.4656516589151511e+00 -1.6759861473577109e+00 0.0000000000000000e+00  6.4672538869545928e+00 -1.6460679328727319e+00 0.0000000000000000e+00  6.4702727684003225e+00 -1.6124157065548115e+00 0.0000000000000000e+00  6.4718772682311574e+00 -1.5790263943406264e+00 0.0000000000000000e+00  6.4744220505172407e+00 -1.5468776423057931e+00 0.0000000000000000e+00  6.4764306028249301e+00 -1.5142163175620984e+00 0.0000000000000000e+00  6.4784877097682330e+00 -1.4788243916825856e+00 0.0000000000000000e+00  6.4804128068744360e+00 -1.4503341818438298e+00 0.0000000000000000e+00  6.4824234578024313e+00 -1.4113384998573266e+00 0.0000000000000000e+00  6.4845313408632235e+00 -1.3847330267429849e+00 0.0000000000000000e+00  6.4856303854639741e+00 -1.3467828846546688e+00 0.0000000000000000e+00  6.4884958132653257e+00 -1.3174902437389178e+00 0.0000000000000000e+00  6.4891594557485330e+00 -1.2832943884394981e+00 0.0000000000000000e+00  6.4916339939016714e+00 -1.2514312070950249e+00 0.0000000000000000e+00  6.4924459806080304e+00 -1.2191566252671939e+00 0.0000000000000000e+00  6.4953232157877254e+00 -1.1859773914486809e+00 0.0000000000000000e+00  6.4947999850413600e+00 -1.1557714335382194e+00 0.0000000000000000e+00  6.4986818217134958e+00 -1.1217753498817529e+00 0.0000000000000000e+00  6.4979215645108113e+00 -1.0903755370422057e+00 0.0000000000000000e+00  6.5010275385388949e+00 -1.0594751406070937e+00 0.0000000000000000e+00  6.5005974738704806e+00 -1.0236193422978670e+00 0.0000000000000000e+00  6.5043731620913219e+00 -9.9541301197545107e-01 0.0000000000000000e+00  6.5021548241313045e+00 -9.5931791630968000e-01 0.0000000000000000e+00  6.5071824723759777e+00 -9.2805582337681913e-01 0.0000000000000000e+00  6.5048719130366477e+00 -8.9421604880734440e-01 0.0000000000000000e+00  6.5088395150205614e+00 -8.6123956435260696e-01 0.0000000000000000e+00  6.5068890516944249e+00 -8.2964512304442317e-01 0.0000000000000000e+00  6.5118206337009701e+00 -7.9277550237037886e-01 0.0000000000000000e+00  6.5077256644405246e+00 -7.7200434921998229e-01 0.0000000000000000e+00  6.5139342747318398e+00 -7.2606655778785179e-01 0.0000000000000000e+00  6.5101120945756623e+00 -7.1404048285275934e-01 0.0000000000000000e+00  6.5148089354068341e+00 -6.6497469060402303e-01 0.0000000000000000e+00  6.5116719334201543e+00 -6.4982515606330193e-01 0.0000000000000000e+00  6.5172875622250368e+00 -6.0104716647119760e-01 0.0000000000000000e+00  6.5121491863204675e+00 -5.8297444344228411e-01 0.0000000000000000e+00  6.5187046868105094e+00 -5.3680145457861861e-01 0.0000000000000000e+00  6.5143926887295489e+00 -5.1142441963169827e-01 0.0000000000000000e+00  6.5189532921712008e+00 -4.6844008271223492e-01 0.0000000000000000e+00  6.5155438703855708e+00 -4.3449854747657135e-01 0.0000000000000000e+00  6.5209665469035132e+00 -3.9137745686875142e-01 0.0000000000000000e+00  6.5155506490029564e+00 -3.6644847375851680e-01 0.0000000000000000e+00  6.5216878655060864e+00 -3.2371502520921791e-01 0.0000000000000000e+00  6.5174713280548442e+00 -2.8663107662108273e-01 0.0000000000000000e+00  6.5212700269141095e+00 -2.5472731971550833e-01 0.0000000000000000e+00  6.5181244109160099e+00 -2.1505182696196465e-01 0.0000000000000000e+00  6.5225508983390306e+00 -1.8870154723702107e-01 0.0000000000000000e+00  6.5177112327488294e+00 -1.4373372646473298e-01 0.0000000000000000e+00  6.5227007176847431e+00 -1.2857908921111302e-01 0.0000000000000000e+00  6.5192759320531692e+00 -3.5926270237204322e-02 0.0000000000000000e+00  6.5220244580400255e+00 0.0000000000000000e+00 0.0000000000000000e+00  2.1685181998166030e+00 0.0000000000000000e+00 -1.6395967892816176e-03  2.1662853935438875e+00 2.2708012732290762e-02 -2.6642992182554751e-03  2.1694982943214640e+00 6.0057937419096076e-02 -1.3159328981843348e-02  2.1678340095713087e+00 9.9660613903520517e-02 3.3194159016412726e-02  2.1669873857161552e+00 1.1510545336980978e-01 -2.8089136292182244e-02  2.1687296348528990e+00 1.5550029558654802e-01 1.6806772045929296e-02  2.1684078985934487e+00 1.8248546189268028e-01 3.6778564098825487e-03  2.1667940622159714e+00 2.1519538824390594e-01 -2.9052927851210317e-02  2.1686016459123447e+00 2.4073128601760413e-01 4.3575367240782044e-02  2.1683349298404315e+00 2.8517707179189800e-01 -3.8870550358588239e-02  2.1666266133976597e+00 2.9575388860255991e-01 2.3026066090065765e-02  2.1685964535494819e+00 3.2975689280489073e-01 -8.9741422884898319e-03  2.1674809564598445e+00 3.9620646975903950e-01 4.4839897120771540e-03  2.1668419026082493e+00 3.5023816470020336e-01 -8.4431541598844265e-03  2.1675984410951195e+00 4.6325187635241011e-01 1.2668590055258784e-02  2.1668285909732217e+00 4.4997187533403671e-01 -1.4753052947784054e-02  2.1663527557331785e+00 4.7250437133668927e-01 1.2368677171882968e-02  2.1666516031852581e+00 5.3675435639255042e-01 -9.3946661639939533e-03  2.1662258338610925e+00 5.4500440898306091e-01 5.4840007061912922e-03  2.1659486472382072e+00 5.7262296742331309e-01 -3.4373948504242257e-03  2.1675356089168356e+00 6.1394958625727059e-01 3.2565909406070750e-03  2.1739262072712200e+00 6.2163829302050178e-01 -3.6082635685256654e-03  2.2588265484793233e+00 4.7746261964477610e-01 -2.8135312387441123e-03  2.6932114447695534e+00 -4.1415144913520585e-01 8.7096670860279269e-03  3.5431494470618778e+00 -2.0687569748879957e+00 1.5018451154229760e-02  4.3221335362634452e+00 -3.3887353215360605e+00 -9.1560558981122718e-03  4.8129591381584644e+00 -4.0978201779653878e+00 -1.1044118683145895e-03  5.0827457676314198e+00 -4.4623309382767511e+00 -4.1379446619241953e-03  5.2345465826574840e+00 -4.6254439454606473e+00 3.7906869851866954e-03  5.3124390220774913e+00 -4.7041999187003896e+00 -6.0997518343425554e-04  5.3607981518287708e+00 -4.7222625829337899e+00 2.2756652762356928e-03  5.3875274009055039e+00 -4.7286343102567834e+00 -7.6571207983771813e-04  5.4099021084903667e+00 -4.7152284807932521e+00 1.0944039190049981e-03  5.4261259714677230e+00 -4.7023091334956790e+00 -1.4797054103542952e-04  5.4418446798696039e+00 -4.6841729996284034e+00 9.2530053249411103e-05  5.4567044190008875e+00 -4.6657165947429924e+00 5.0234495959800799e-04  5.4707872244482409e+00 -4.6472539485379345e+00 -3.9679535578570951e-04  5.4849114827713805e+00 -4.6268569700978803e+00 7.6962644474712284e-04  5.4991501704490009e+00 -4.6096617378909288e+00 -6.7224013483689312e-04  5.5133996882547924e+00 -4.5870302392839619e+00 8.5836646296886295e-04  5.5269691426810246e+00 -4.5714123809120109e+00 -6.3753775346601395e-04  5.5415964442301107e+00 -4.5484811845687476e+00 5.0439190922660078e-04  5.5552994243019356e+00 -4.5318432582107553e+00 -2.6524288560517622e-04  5.5694540866532307e+00 -4.5106268047631808e+00 8.5435528664431972e-05  5.5836020867743876e+00 -4.4923324350952409e+00 -4.1044840094177250e-05  5.5975011414110085e+00 -4.4722276900296150e+00 -8.8685128311670231e-05  5.6115175799281234e+00 -4.4535833790748605e+00 6.4096421913883243e-05  5.6257492511881821e+00 -4.4330163069036583e+00 -2.5683970157252932e-04  5.6395038825465935e+00 -4.4145060940553789e+00 2.5991660867414864e-04  5.6534967070911462e+00 -4.3942025498976003e+00 -4.1935828300118937e-04  5.6676022080365343e+00 -4.3746651426846030e+00 4.3324090378112621e-04  5.6813802553348509e+00 -4.3545459007954213e+00 -4.6554381866854524e-04  5.6952133135468399e+00 -4.3349895966198968e+00 4.9404806660911652e-04  5.7091490255015946e+00 -4.3144613894853991e+00 -3.7037017406673094e-04  5.7228858547473802e+00 -4.2941148305020063e+00 4.0378898226812250e-04  5.7366469298778382e+00 -4.2745198468093486e+00 -2.0065368216015694e-04  5.7501762487716332e+00 -4.2530479929140821e+00 2.6545484510401621e-04  5.7640766443244038e+00 -4.2335700873436313e+00 -6.7368030596968789e-05  5.7773148659036266e+00 -4.2122266458047424e+00 8.6478836125696153e-05  5.7910328947078451e+00 -4.1924228850327543e+00 7.0533674999595522e-05  5.8042590576567168e+00 -4.1709435651444009e+00 -1.2694605653832430e-04  5.8177707335819315e+00 -4.1514712589755849e+00 1.1606276453928542e-04  5.8307547364077923e+00 -4.1295744318160956e+00 -1.8129754839096471e-04  5.8442167019814306e+00 -4.1102371373157869e+00 -8.0607464297972813e-05  5.8570260474097591e+00 -4.0883434843200774e+00 5.4698926068655749e-06  5.8700599823485193e+00 -4.0688585625114664e+00 -4.4262561880513212e-04  5.8830237270767389e+00 -4.0470550640516203e+00 2.8965516314828372e-04  5.8956152305168796e+00 -4.0269795695427479e+00 -7.6766856343137154e-04  5.9083898289385051e+00 -4.0058011412282299e+00 4.8877401780110638e-04  5.9208329216618196e+00 -3.9846967054007769e+00 -8.7734824402866329e-04  5.9333657982581700e+00 -3.9637526977145572e+00 4.7399935517163794e-04  5.9454816790090987e+00 -3.9422154014595008e+00 -7.1551264786898271e-04  5.9578450775073621e+00 -3.9210112870951552e+00 2.7130340290637686e-04  5.9697905547239758e+00 -3.8986894039397013e+00 -4.0096067575640928e-04  5.9816452264491531e+00 -3.8777335397457606e+00 4.1845195369883781e-05  5.9935519805950275e+00 -3.8545420072594387e+00 -1.5228254060272654e-04  6.0051266907571446e+00 -3.8328884139423343e+00 -3.2716569807408012e-06  6.0165300835471269e+00 -3.8100629690080745e+00 -1.6738373712164381e-04  6.0280777626713435e+00 -3.7871024029237743e+00 2.4680144384255076e-04  6.039082250146258