<?xml version="1.0"?>
<VTKFile type="UnstructuredGrid"  version="0.1"  >
<UnstructuredGrid>
<Piece  NumberOfPoints="8241" NumberOfCells="16000">
<Points>
<DataArray  type="Float64"  NumberOfComponents="3"  format="ascii">-5 -1 0  -4.95 -1 0  -4.9 -1 0  -4.85 -1 0  -4.8 -1 0  -4.75 -1 0  -4.7 -1 0  -4.65 -1 0  -4.6 -1 0  -4.55 -1 0  -4.5 -1 0  -4.45 -1 0  -4.4 -1 0  -4.35 -1 0  -4.3 -1 0  -4.25 -1 0  -4.2 -1 0  -4.15 -1 0  -4.1 -1 0  -4.05 -1 0  -4 -1 0  -3.95 -1 0  -3.9 -1 0  -3.85 -1 0  -3.8 -1 0  -3.75 -1 0  -3.7 -1 0  -3.65 -1 0  -3.6 -1 0  -3.55 -1 0  -3.5 -1 0  -3.45 -1 0  -3.4 -1 0  -3.35 -1 0  -3.3 -1 0  -3.25 -1 0  -3.2 -1 0  -3.15 -1 0  -3.1 -1 0  -3.05 -1 0  -3 -1 0  -2.95 -1 0  -2.9 -1 0  -2.85 -1 0  -2.8 -1 0  -2.75 -1 0  -2.7 -1 0  -2.65 -1 0  -2.6 -1 0  -2.55 -1 0  -2.5 -1 0  -2.45 -1 0  -2.4 -1 0  -2.35 -1 0  -2.3 -1 0  -2.25 -1 0  -2.2 -1 0  -2.15 -1 0  -2.1 -1 0  -2.05 -1 0  -2 -1 0  -1.95 -1 0  -1.9 -1 0  -1.85 -1 0  -1.8 -1 0  -1.75 -1 0  -1.7 -1 0  -1.65 -1 0  -1.6 -1 0  -1.55 -1 0  -1.5 -1 0  -1.45 -1 0  -1.4 -1 0  -1.35 -1 0  -1.3 -1 0  -1.25 -1 0  -1.2 -1 0  -1.15 -1 0  -1.1 -1 0  -1.05 -1 0  -1 -1 0  -0.9500000000000002 -1 0  -0.9000000000000004 -1 0  -0.8499999999999996 -1 0  -0.7999999999999998 -1 0  -0.75 -1 0  -0.7000000000000002 -1 0  -0.6500000000000004 -1 0  -0.5999999999999996 -1 0  -0.5499999999999998 -1 0  -0.5 -1 0  -0.4500000000000002 -1 0  -0.4000000000000004 -1 0  -0.3499999999999996 -1 0  -0.2999999999999998 -1 0  -0.25 -1 0  -0.2000000000000002 -1 0  -0.1500000000000004 -1 0  -0.09999999999999964 -1 0  -0.04999999999999982 -1 0  0 -1 0  0.04999999999999982 -1 0  0.09999999999999964 -1 0  0.1500000000000004 -1 0  0.2000000000000002 -1 0  0.25 -1 0  0.2999999999999998 -1 0  0.3499999999999996 -1 0  0.4000000000000004 -1 0  0.4500000000000002 -1 0  0.5 -1 0  0.5499999999999998 -1 0  0.5999999999999996 -1 0  0.6500000000000004 -1 0  0.7000000000000002 -1 0  0.75 -1 0  0.7999999999999998 -1 0  0.8499999999999996 -1 0  0.9000000000000004 -1 0  0.9500000000000002 -1 0  1 -1 0  1.05 -1 0  1.1 -1 0  1.15 -1 0  1.2 -1 0  1.25 -1 0  1.3 -1 0  1.35 -1 0  1.4 -1 0  1.45 -1 0  1.5 -1 0  1.55 -1 0  1.6 -1 0  1.65 -1 0  1.7 -1 0  1.75 -1 0  1.8 -1 0  1.85 -1 0  1.9 -1 0  1.95 -1 0  2 -1 0  2.05 -1 0  2.1 -1 0  2.15 -1 0  2.2 -1 0  2.25 -1 0  2.3 -1 0  2.35 -1 0  2.4 -1 0  2.45 -1 0  2.5 -1 0  2.55 -1 0  2.6 -1 0  2.65 -1 0  2.7 -1 0  2.75 -1 0  2.8 -1 0  2.85 -1 0  2.9 -1 0  2.95 -1 0  3 -1 0  3.050000000000001 -1 0  3.1 -1 0  3.15 -1 0  3.199999999999999 -1 0  3.25 -1 0  3.300000000000001 -1 0  3.35 -1 0  3.4 -1 0  3.449999999999999 -1 0  3.5 -1 0  3.550000000000001 -1 0  3.6 -1 0  3.65 -1 0  3.699999999999999 -1 0  3.75 -1 0  3.800000000000001 -1 0  3.85 -1 0  3.9 -1 0  3.949999999999999 -1 0  4 -1 0  4.050000000000001 -1 0  4.1 -1 0  4.15 -1 0  4.199999999999999 -1 0  4.25 -1 0  4.300000000000001 -1 0  4.35 -1 0  4.4 -1 0  4.449999999999999 -1 0  4.5 -1 0  4.550000000000001 -1 0  4.6 -1 0  4.65 -1 0  4.699999999999999 -1 0  4.75 -1 0  4.800000000000001 -1 0  4.85 -1 0  4.9 -1 0  4.949999999999999 -1 0  5 -1 0  -5 -0.95 0  -4.95 -0.95 0  -4.9 -0.95 0  -4.85 -0.95 0  -4.8 -0.95 0  -4.75 -0.95 0  -4.7 -0.95 0  -4.65 -0.95 0  -4.6 -0.95 0  -4.55 -0.95 0  -4.5 -0.95 0  -4.45 -0.95 0  -4.4 -0.95 0  -4.35 -0.95 0  -4.3 -0.95 0  -4.25 -0.95 0  -4.2 -0.95 0  -4.15 -0.95 0  -4.1 -0.95 0  -4.05 -0.95 0  -4 -0.95 0  -3.95 -0.95 0  -3.9 -0.95 0  -3.85 -0.95 0  -3.8 -0.95 0  -3.75 -0.95 0  -3.7 -0.95 0  -3.65 -0.95 0  -3.6 -0.95 0  -3.55 -0.95 0  -3.5 -0.95 0  -3.45 -0.95 0  -3.4 -0.95 0  -3.35 -0.95 0  -3.3 -0.95 0  -3.25 -0.95 0  -3.2 -0.95 0  -3.15 -0.95 0  -3.1 -0.95 0  -3.05 -0.95 0  -3 -0.95 0  -2.95 -0.95 0  -2.9 -0.95 0  -2.85 -0.95 0  -2.8 -0.95 0  -2.75 -0.95 0  -2.7 -0.95 0  -2.65 -0.95 0  -2.6 -0.95 0  -2.55 -0.95 0  -2.5 -0.95 0  -2.45 -0.95 0  -2.4 -0.95 0  -2.35 -0.95 0  -2.3 -0.95 0  -2.25 -0.95 0  -2.2 -0.95 0  -2.15 -0.95 0  -2.1 -0.95 0  -2.05 -0.95 0  -2 -0.95 0  -1.95 -0.95 0  -1.9 -0.95 0  -1.85 -0.95 0  -1.8 -0.95 0  -1.75 -0.95 0  -1.7 -0.95 0  -1.65 -0.95 0  -1.6 -0.95 0  -1.55 -0.95 0  -1.5 -0.95 0  -1.45 -0.95 0  -1.4 -0.95 0  -1.35 -0.95 0  -1.3 -0.95 0  -1.25 -0.95 0  -1.2 -0.95 0  -1.15 -0.95 0  -1.1 -0.95 0  -1.05 -0.95 0  -1 -0.95 0  -0.9500000000000002 -0.95 0  -0.9000000000000004 -0.95 0  -0.8499999999999996 -0.95 0  -0.7999999999999998 -0.95 0  -0.75 -0.95 0  -0.7000000000000002 -0.95 0  -0.6500000000000004 -0.95 0  -0.5999999999999996 -0.95 0  -0.5499999999999998 -0.95 0  -0.5 -0.95 0  -0.4500000000000002 -0.95 0  -0.4000000000000004 -0.95 0  -0.3499999999999996 -0.95 0  -0.2999999999999998 -0.95 0  -0.25 -0.95 0  -0.2000000000000002 -0.95 0  -0.1500000000000004 -0.95 0  -0.09999999999999964 -0.95 0  -0.04999999999999982 -0.95 0  0 -0.95 0  0.04999999999999982 -0.95 0  0.09999999999999964 -0.95 0  0.1500000000000004 -0.95 0  0.2000000000000002 -0.95 0  0.25 -0.95 0  0.2999999999999998 -0.95 0  0.3499999999999996 -0.95 0  0.4000000000000004 -0.95 0  0.4500000000000002 -0.95 0  0.5 -0.95 0  0.5499999999999998 -0.95 0  0.5999999999999996 -0.95 0  0.6500000000000004 -0.95 0  0.7000000000000002 -0.95 0  0.75 -0.95 0  0.7999999999999998 -0.95 0  0.8499999999999996 -0.95 0  0.9000000000000004 -0.95 0  0.9500000000000002 -0.95 0  1 -0.95 0  1.05 -0.95 0  1.1 -0.95 0  1.15 -0.95 0  1.2 -0.95 0  1.25 -0.95 0  1.3 -0.95 0  1.35 -0.95 0  1.4 -0.95 0  1.45 -0.95 0  1.5 -0.95 0  1.55 -0.95 0  1.6 -0.95 0  1.65 -0.95 0  1.7 -0.95 0  1.75 -0.95 0  1.8 -0.95 0  1.85 -0.95 0  1.9 -0.95 0  1.95 -0.95 0  2 -0.95 0  2.05 -0.95 0  2.1 -0.95 0  2.15 -0.95 0  2.2 -0.95 0  2.25 -0.95 0  2.3 -0.95 0  2.35 -0.95 0  2.4 -0.95 0  2.45 -0.95 0  2.5 -0.95 0  2.55 -0.95 0  2.6 -0.95 0  2.65 -0.95 0  2.7 -0.95 0  2.75 -0.95 0  2.8 -0.95 0  2.85 -0.95 0  2.9 -0.95 0  2.95 -0.95 0  3 -0.95 0  3.050000000000001 -0.95 0  3.1 -0.95 0  3.15 -0.95 0  3.199999999999999 -0.95 0  3.25 -0.95 0  3.300000000000001 -0.95 0  3.35 -0.95 0  3.4 -0.95 0  3.449999999999999 -0.95 0  3.5 -0.95 0  3.550000000000001 -0.95 0  3.6 -0.95 0  3.65 -0.95 0  3.699999999999999 -0.95 0  3.75 -0.95 0  3.800000000000001 -0.95 0  3.85 -0.95 0  3.9 -0.95 0  3.949999999999999 -0.95 0  4 -0.95 0  4.050000000000001 -0.95 0  4.1 -0.95 0  4.15 -0.95 0  4.199999999999999 -0.95 0  4.25 -0.95 0  4.300000000000001 -0.95 0  4.35 -0.95 0  4.4 -0.95 0  4.449999999999999 -0.95 0  4.5 -0.95 0  4.550000000000001 -0.95 0  4.6 -0.95 0  4.65 -0.95 0  4.699999999999999 -0.95 0  4.75 -0.95 0  4.800000000000001 -0.95 0  4.85 -0.95 0  4.9 -0.95 0  4.949999999999999 -0.95 0  5 -0.95 0  -5 -0.9 0  -4.95 -0.9 0  -4.9 -0.9 0  -4.85 -0.9 0  -4.8 -0.9 0  -4.75 -0.9 0  -4.7 -0.9 0  -4.65 -0.9 0  -4.6 -0.9 0  -4.55 -0.9 0  -4.5 -0.9 0  -4.45 -0.9 0  -4.4 -0.9 0  -4.35 -0.9 0  -4.3 -0.9 0  -4.25 -0.9 0  -4.2 -0.9 0  -4.15 -0.9 0  -4.1 -0.9 0  -4.05 -0.9 0  -4 -0.9 0  -3.95 -0.9 0  -3.9 -0.9 0  -3.85 -0.9 0  -3.8 -0.9 0  -3.75 -0.9 0  -3.7 -0.9 0  -3.65 -0.9 0  -3.6 -0.9 0  -3.55 -0.9 0  -3.5 -0.9 0  -3.45 -0.9 0  -3.4 -0.9 0  -3.35 -0.9 0  -3.3 -0.9 0  -3.25 -0.9 0  -3.2 -0.9 0  -3.15 -0.9 0  -3.1 -0.9 0  -3.05 -0.9 0  -3 -0.9 0  -2.95 -0.9 0  -2.9 -0.9 0  -2.85 -0.9 0  -2.8 -0.9 0  -2.75 -0.9 0  -2.7 -0.9 0  -2.65 -0.9 0  -2.6 -0.9 0  -2.55 -0.9 0  -2.5 -0.9 0  -2.45 -0.9 0  -2.4 -0.9 0  -2.35 -0.9 0  -2.3 -0.9 0  -2.25 -0.9 0  -2.2 -0.9 0  -2.15 -0.9 0  -2.1 -0.9 0  -2.05 -0.9 0  -2 -0.9 0  -1.95 -0.9 0  -1.9 -0.9 0  -1.85 -0.9 0  -1.8 -0.9 0  -1.75 -0.9 0  -1.7 -0.9 0  -1.65 -0.9 0  -1.6 -0.9 0  -1.55 -0.9 0  -1.5 -0.9 0  -1.45 -0.9 0  -1.4 -0.9 0  -1.35 -0.9 0  -1.3 -0.9 0  -1.25 -0.9 0  -1.2 -0.9 0  -1.15 -0.9 0  -1.1 -0.9 0  -1.05 -0.9 0  -1 -0.9 0  -0.9500000000000002 -0.9 0  -0.9000000000000004 -0.9 0  -0.8499999999999996 -0.9 0  -0.7999999999999998 -0.9 0  -0.75 -0.9 0  -0.7000000000000002 -0.9 0  -0.6500000000000004 -0.9 0  -0.5999999999999996 -0.9 0  -0.5499999999999998 -0.9 0  -0.5 -0.9 0  -0.4500000000000002 -0.9 0  -0.4000000000000004 -0.9 0  -0.3499999999999996 -0.9 0  -0.2999999999999998 -0.9 0  -0.25 -0.9 0  -0.2000000000000002 -0.9 0  -0.1500000000000004 -0.9 0  -0.09999999999999964 -0.9 0  -0.04999999999999982 -0.9 0  0 -0.9 0  0.04999999999999982 -0.9 0  0.09999999999999964 -0.9 0  0.1500000000000004 -0.9 0  0.2000000000000002 -0.9 0  0.25 -0.9 0  0.2999999999999998 -0.9 0  0.3499999999999996 -0.9 0  0.4000000000000004 -0.9 0  0.4500000000000002 -0.9 0  0.5 -0.9 0  0.5499999999999998 -0.9 0  0.5999999999999996 -0.9 0  0.6500000000000004 -0.9 0  0.7000000000000002 -0.9 0  0.75 -0.9 0  0.7999999999999998 -0.9 0  0.8499999999999996 -0.9 0  0.9000000000000004 -0.9 0  0.9500000000000002 -0.9 0  1 -0.9 0  1.05 -0.9 0  1.1 -0.9 0  1.15 -0.9 0  1.2 -0.9 0  1.25 -0.9 0  1.3 -0.9 0  1.35 -0.9 0  1.4 -0.9 0  1.45 -0.9 0  1.5 -0.9 0  1.55 -0.9 0  1.6 -0.9 0  1.65 -0.9 0  1.7 -0.9 0  1.75 -0.9 0  1.8 -0.9 0  1.85 -0.9 0  1.9 -0.9 0  1.95 -0.9 0  2 -0.9 0  2.05 -0.9 0  2.1 -0.9 0  2.15 -0.9 0  2.2 -0.9 0  2.25 -0.9 0  2.3 -0.9 0  2.35 -0.9 0  2.4 -0.9 0  2.45 -0.9 0  2.5 -0.9 0  2.55 -0.9 0  2.6 -0.9 0  2.65 -0.9 0  2.7 -0.9 0  2.75 -0.9 0  2.8 -0.9 0  2.85 -0.9 0  2.9 -0.9 0  2.95 -0.9 0  3 -0.9 0  3.050000000000001 -0.9 0  3.1 -0.9 0  3.15 -0.9 0  3.199999999999999 -0.9 0  3.25 -0.9 0  3.300000000000001 -0.9 0  3.35 -0.9 0  3.4 -0.9 0  3.449999999999999 -0.9 0  3.5 -0.9 0  3.550000000000001 -0.9 0  3.6 -0.9 0  3.65 -0.9 0  3.699999999999999 -0.9 0  3.75 -0.9 0  3.800000000000001 -0.9 0  3.85 -0.9 0  3.9 -0.9 0  3.949999999999999 -0.9 0  4 -0.9 0  4.050000000000001 -0.9 0  4.1 -0.9 0  4.15 -0.9 0  4.199999999999999 -0.9 0  4.25 -0.9 0  4.300000000000001 -0.9 0  4.35 -0.9 0  4.4 -0.9 0  4.449999999999999 -0.9 0  4.5 -0.9 0  4.550000000000001 -0.9 0  4.6 -0.9 0  4.65 -0.9 0  4.699999999999999 -0.9 0  4.75 -0.9 0  4.800000000000001 -0.9 0  4.85 -0.9 0  4.9 -0.9 0  4.949999999999999 -0.9 0  5 -0.9 0  -5 -0.85 0  -4.95 -0.85 0  -4.9 -0.85 0  -4.85 -0.85 0  -4.8 -0.85 0  -4.75 -0.85 0  -4.7 -0.85 0  -4.65 -0.85 0  -4.6 -0.85 0  -4.55 -0.85 0  -4.5 -0.85 0  -
[...]
<PointData  Vectors="f_15"> 
<DataArray  type="Float64"  Name="f_15"  NumberOfComponents="3" format="ascii">9.6680880165754086e+00 0.0000000000000000e+00 0.0000000000000000e+00  9.6663661267133811e+00 4.1031738778899145e-02 0.0000000000000000e+00  9.6612044029223050e+00 8.2191383771600096e-02 0.0000000000000000e+00  9.6526656890931104e+00 1.2343243522944375e-01 0.0000000000000000e+00  9.6407734254381374e+00 1.6494566637969710e-01 0.0000000000000000e+00  9.6256152411224019e+00 2.0672099076563016e-01 0.0000000000000000e+00  9.6073064267995019e+00 2.4887178810046581e-01 0.0000000000000000e+00  9.5859363193486047e+00 2.9145146797021604e-01 0.0000000000000000e+00  9.5616324597367051e+00 3.3452144482106655e-01 0.0000000000000000e+00  9.5345609855164497e+00 3.7815212697188683e-01 0.0000000000000000e+00  9.5048353351127481e+00 4.2237997144216277e-01 0.0000000000000000e+00  9.4726179866547646e+00 4.6729146755361295e-01 0.0000000000000000e+00  9.4380815920361467e+00 5.1287349017964479e-01 0.0000000000000000e+00  9.4013589835671691e+00 5.5924058162809709e-01 0.0000000000000000e+00  9.3626030463271963e+00 6.0634150804296805e-01 0.0000000000000000e+00  9.3219938469395860e+00 6.5428695611991150e-01 0.0000000000000000e+00  9.2796386368136119e+00 7.0300417773058721e-01 0.0000000000000000e+00  9.2356943745538231e+00 7.5261570635053643e-01 0.0000000000000000e+00  9.1902979013109345e+00 8.0299167582748443e-01 0.0000000000000000e+00  9.1435652074110418e+00 8.5428934321548244e-01 0.0000000000000000e+00  9.0955951181553463e+00 9.0633585152628371e-01 0.0000000000000000e+00  9.0465411772160760e+00 9.5929363947096202e-01 0.0000000000000000e+00  8.9964475363304164e+00 1.0129623484022330e+00 0.0000000000000000e+00  8.9454469863694985e+00 1.0675361460187145e+00 0.0000000000000000e+00  8.8936007403091448e+00 1.1227472420129396e+00 0.0000000000000000e+00  8.8410117542423183e+00 1.1788452350603893e+00 0.0000000000000000e+00  8.7877025606283414e+00 1.2355162379662816e+00 0.0000000000000000e+00  8.7338125791587107e+00 1.2930296834501369e+00 0.0000000000000000e+00  8.6793217024288403e+00 1.3510447232761664e+00 0.0000000000000000e+00  8.6243523793443462e+00 1.4098729164019703e+00 0.0000000000000000e+00  8.5689013710057456e+00 1.4691143364072330e+00 0.0000000000000000e+00  8.5130739654772896e+00 1.5291329530975017e+00 0.0000000000000000e+00  8.4568350700369148e+00 1.5894948121970660e+00 0.0000000000000000e+00  8.4003192769552157e+00 1.6505977775569505e+00 0.0000000000000000e+00  8.3434714964765639e+00 1.7119446831900176e+00 0.0000000000000000e+00  8.2864016967118914e+00 1.7740464561578086e+00 0.0000000000000000e+00  8.2290777511772344e+00 1.8362760275270615e+00 0.0000000000000000e+00  8.1715995425849233e+00 1.8992438026828069e+00 0.0000000000000000e+00  8.1139100790158754e+00 1.9623013575650525e+00 0.0000000000000000e+00  8.0561227421781272e+00 2.0260104783108654e+00 0.0000000000000000e+00  7.9981946471121832e+00 2.0898288236401559e+00 0.0000000000000000e+00  7.9401856295933708e+00 2.1541566093755606e+00 0.0000000000000000e+00  7.8820971922220675e+00 2.2187294244420430e+00 0.0000000000000000e+00  7.8239745582100912e+00 2.2835045066808073e+00 0.0000000000000000e+00  7.7658001388427449e+00 2.3488140427553921e+00 0.0000000000000000e+00  7.7076221224943824e+00 2.4140069620435716e+00 0.0000000000000000e+00  7.6494556457692893e+00 2.4798510782936418e+00 0.0000000000000000e+00  7.5912888377143002e+00 2.5455556249366964e+00 0.0000000000000000e+00  7.5331687519556114e+00 2.6117932021750652e+00 0.0000000000000000e+00  7.4750990992906230e+00 2.6779275404886835e+00 0.0000000000000000e+00  7.4170820398889958e+00 2.7445652610257047e+00 0.0000000000000000e+00  7.3591376446221961e+00 2.8110832829114525e+00 0.0000000000000000e+00  7.3012966497741543e+00 2.8779849437845790e+00 0.0000000000000000e+00  7.2435280491918173e+00 2.9449120998033473e+00 0.0000000000000000e+00  7.1858886022541633e+00 3.0120717382800359e+00 0.0000000000000000e+00  7.1283477625031653e+00 3.0792528405476070e+00 0.0000000000000000e+00  7.0709616321686291e+00 3.1466888363722907e+00 0.0000000000000000e+00  7.0136744223735743e+00 3.2141344529946227e+00 0.0000000000000000e+00  6.9565692429393415e+00 3.2817439133753732e+00 0.0000000000000000e+00  6.8995908205735770e+00 3.3494091476353733e+00 0.0000000000000000e+00  6.8427969296939954e+00 3.4172071277958267e+00 0.0000000000000000e+00  6.7861301206732865e+00 3.4850634990403275e+00 0.0000000000000000e+00  6.7297033169899505e+00 3.5529805579170737e+00 0.0000000000000000e+00  6.6733908302829104e+00 3.6209803308878667e+00 0.0000000000000000e+00  6.6173036256150848e+00 3.6890713834223483e+00 0.0000000000000000e+00  6.5614071268265226e+00 3.7571420933605832e+00 0.0000000000000000e+00  6.5057112401234631e+00 3.8253292690412790e+00 0.0000000000000000e+00  6.4501789796813620e+00 3.8935397703790309e+00 0.0000000000000000e+00  6.3949370928167548e+00 3.9617613009934978e+00 0.0000000000000000e+00  6.3398329020808184e+00 4.0300316311249844e+00 0.0000000000000000e+00  6.2849709963336071e+00 4.0983764965783802e+00 0.0000000000000000e+00  6.2303596373885064e+00 4.1666236289823564e+00 0.0000000000000000e+00  6.1759456467450304e+00 4.2350110098195266e+00 0.0000000000000000e+00  6.1217450613852726e+00 4.3033492949085623e+00 0.0000000000000000e+00  6.0678396533859535e+00 4.3716907729782966e+00 0.0000000000000000e+00  6.0141164655077981e+00 4.4400396448326473e+00 0.0000000000000000e+00  5.9606421304532713e+00 4.5084377627501864e+00 0.0000000000000000e+00  5.9074481129316876e+00 4.5767242543076749e+00 0.0000000000000000e+00  5.8544666731727242e+00 4.6451032841707667e+00 0.0000000000000000e+00  5.8017368563378904e+00 4.7134174656094396e+00 0.0000000000000000e+00  5.7492920154946612e+00 4.7817083838614014e+00 0.0000000000000000e+00  5.6970746743384222e+00 4.8499894445826826e+00 0.0000000000000000e+00  5.6451276414286911e+00 4.9182466749323428e+00 0.0000000000000000e+00  5.5934497842122193e+00 4.9864507162237670e+00 0.0000000000000000e+00  5.5420409297303435e+00 5.0546217836250831e+00 0.0000000000000000e+00  5.4908855412618367e+00 5.1227711931929525e+00 0.0000000000000000e+00  5.4400333099489169e+00 5.1908243410201909e+00 0.0000000000000000e+00  5.3894273747340442e+00 5.2588786340703031e+00 0.0000000000000000e+00  5.3391389358247405e+00 5.3268071432896571e+00 0.0000000000000000e+00  5.2890905717952155e+00 5.3947489858046156e+00 0.0000000000000000e+00  5.2393738440055548e+00 5.4625402359170714e+00 0.0000000000000000e+00  5.1898943286798316e+00 5.5303505654226575e+00 0.0000000000000000e+00  5.1407804777189590e+00 5.5979585296170562e+00 0.0000000000000000e+00  5.0918865968286848e+00 5.6656065956338679e+00 0.0000000000000000e+00  5.0434051832743139e+00 5.7329859304817719e+00 0.0000000000000000e+00  4.9951396878660956e+00 5.8004093670641321e+00 0.0000000000000000e+00  4.9472972701922941e+00 5.8675358569540359e+00 0.0000000000000000e+00  4.8997121696627799e+00 5.9346701039089602e+00 0.0000000000000000e+00  4.8524857505940684e+00 6.0015564054550783e+00 0.0000000000000000e+00  4.8056125421073759e+00 6.0683379308621141e+00 0.0000000000000000e+00  4.7590393758000733e+00 6.1349430799113707e+00 0.0000000000000000e+00  4.7129758722217749e+00 6.2011988831401688e+00 0.0000000000000000e+00  4.6672230526831759e+00 6.2672882328792063e+00 0.0000000000000000e+00  4.6220009127450625e+00 6.3329560061650492e+00 0.0000000000000000e+00  4.5771561178767586e+00 6.3983898159678807e+00 0.0000000000000000e+00  4.5327917813051544e+00 6.4634228344355211e+00 0.0000000000000000e+00  4.4889159307474946e+00 6.5280716940200341e+00 0.0000000000000000e+00  4.4456323274212828e+00 6.5921240272203443e+00 0.0000000000000000e+00  4.4028214508372390e+00 6.6558254556033987e+00 0.0000000000000000e+00  4.3608350258029915e+00 6.7185678643240427e+00 0.0000000000000000e+00  4.3197008614051100e+00 6.7803704288859947e+00 0.0000000000000000e+00  4.2794560567609681e+00 6.8410726961041846e+00 0.0000000000000000e+00  4.2403871840758001e+00 6.9003052161664682e+00 0.0000000000000000e+00  4.2026913454649177e+00 6.9576719441364121e+00 0.0000000000000000e+00  4.1668283368117764e+00 7.0125291248323531e+00 0.0000000000000000e+00  4.1332049510926883e+00 7.0641451145021010e+00 0.0000000000000000e+00  4.1024326702650269e+00 7.1115967537993203e+00 0.0000000000000000e+00  4.0750283141620676e+00 7.1539639781677202e+00 0.0000000000000000e+00  4.0514376080948873e+00 7.1905595214784412e+00 0.0000000000000000e+00  4.0316925971296573e+00 7.2212337689503814e+00 0.0000000000000000e+00  4.0155122965900052e+00 7.2464356318602388e+00 0.0000000000000000e+00  4.0023955156547171e+00 7.2668783232892640e+00 0.0000000000000000e+00  3.9918968093470903e+00 7.2832676872952886e+00 0.0000000000000000e+00  3.9836722185483331e+00 7.2960966450378102e+00 0.0000000000000000e+00  3.9774111297091319e+00 7.3058581273312493e+00 0.0000000000000000e+00  3.9728099830887778e+00 7.3130112465481707e+00 0.0000000000000000e+00  3.9694929618678212e+00 7.3181482642692357e+00 0.0000000000000000e+00  3.9671586635132279e+00 7.3217452671535570e+00 0.0000000000000000e+00  3.9654873446861503e+00 7.3242943639887175e+00 0.0000000000000000e+00  3.9643115297722815e+00 7.3260726369184122e+00 0.0000000000000000e+00  3.9634354429368721e+00 7.3273680304185529e+00 0.0000000000000000e+00  3.9628056179434226e+00 7.3282858045926922e+00 0.0000000000000000e+00  3.9623051351307792e+00 7.3289854999105941e+00 0.0000000000000000e+00  3.9619351835160170e+00 7.3294894276354574e+00 0.0000000000000000e+00  3.9616213335051196e+00 7.3298902481567154e+00 0.0000000000000000e+00  3.9613856827336611e+00 7.3301770991613662e+00 0.0000000000000000e+00  3.9611779521366910e+00 7.3304083384484384e+00 0.0000000000000000e+00  3.9610217301012538e+00 7.3305667569453830e+00 0.0000000000000000e+00  3.9608801733424830e+00 7.3306935582244774e+00 0.0000000000000000e+00  3.9607705636963235e+00 7.3307755122312219e+00 0.0000000000000000e+00  3.9606666996845177e+00 7.3308409528754748e+00 0.0000000000000000e+00  3.9605809470054765e+00 7.3308797360849747e+00 0.0000000000000000e+00  3.9604969991931553e+00 7.3309092230515267e+00 0.0000000000000000e+00  3.9604237623659979e+00 7.3309214764822777e+00 0.0000000000000000e+00  3.9603516947520720e+00 7.3309268406080816e+00 0.0000000000000000e+00  3.9602862446644425e+00 7.3309203770463220e+00 0.0000000000000000e+00  3.9602216621438684e+00 7.3309083326592770e+00 0.0000000000000000e+00  3.9601609912610813e+00 7.3308879564778380e+00 0.0000000000000000e+00  3.9601007368183549e+00 7.3308631249046208e+00 0.0000000000000000e+00  3.9600427447292450e+00 7.3308319688747998e+00 0.0000000000000000e+00  3.9599848640530735e+00 7.3307970297948470e+00 0.0000000000000000e+00  3.9599283155358833e+00 7.3307568784418535e+00 0.0000000000000000e+00  3.9598716152675655e+00 7.3307130222292445e+00 0.0000000000000000e+00  3.9598157771915878e+00 7.3306638635681223e+00 0.0000000000000000e+00  3.9597595296974339e+00 7.3306098735057432e+00 0.0000000000000000e+00  3.9597039125567854e+00 7.3305482966244302e+00 0.0000000000000000e+00  3.9596476713934039e+00 7.3304779593851190e+00 0.0000000000000000e+00  3.9595918972995299e+00 7.3303941872110805e+00 0.0000000000000000e+00  3.9595352277655471e+00 7.3302930502085628e+00 0.0000000000000000e+00  3.9594789248281081e+00 7.3301672092816021e+00 0.0000000000000000e+00  3.9594213379524170e+00 7.3300092034814650e+00 0.0000000000000000e+00  3.9593640492324802e+00 7.3298086060525742e+00 0.0000000000000000e+00  3.9593050197628354e+00 7.3295541984039021e+00 0.0000000000000000e+00  3.9592462604985239e+00 7.3292333045380085e+00 0.0000000000000000e+00  3.9591851753834382e+00 7.3288316095754125e+00 0.0000000000000000e+00  3.9591245305636824e+00 7.3283364836301770e+00 0.0000000000000000e+00  3.9590607715441832e+00 7.3277325229976658e+00 0.0000000000000000e+00  3.9589978713140366e+00 7.3270105635991811e+00 0.0000000000000000e+00  3.9589309456928987e+00 7.3261569932804509e+00 0.0000000000000000e+00  3.9588655380488742e+00 7.3251701511348308e+00 0.0000000000000000e+00  3.9587948143936464e+00 7.3240403242417065e+00 0.0000000000000000e+00  3.9587268862207230e+00 7.3227776947423173e+00 0.0000000000000000e+00  3.9586515480059004e+00 7.3213762307970889e+00 0.0000000000000000e+00  3.9585807454506430e+00 7.3198605806866750e+00 0.0000000000000000e+00  3.9585002983619910e+00 7.3182278312872793e+00 0.0000000000000000e+00  3.9584259693925312e+00 7.3165155330568572e+00 0.0000000000000000e+00  3.9583388997095943e+00 7.3147207271996901e+00 0.0000000000000000e+00  3.9582612869061964e+00 7.3128959144455896e+00 0.0000000000000000e+00  3.9581643551171584e+00 7.3110256342855244e+00 0.0000000000000000e+00  3.9580794190408786e+00 7.3091777844228760e+00 0.0000000000000000e+00  3.9579694054763186e+00 7.3073255561759165e+00 0.0000000000000000e+00  3.9578612805384759e+00 7.3055239332062856e+00 0.0000000000000000e+00  3.9577159720402033e+00 7.3037420438252179e+00 0.0000000000000000e+00  3.9575474471768399e+00 7.3020108261162520e+00 0.0000000000000000e+00  3.9572841226822169e+00 7.3002351684074940e+00 0.0000000000000000e+00  3.9568974841622246e+00 7.2983753707228010e+00 0.0000000000000000e+00  3.9562803740307841e+00 7.2962851476653903e+00 0.0000000000000000e+00  3.9551162253425236e+00 7.2934347791844303e+00 0.0000000000000000e+00  3.9532449277622344e+00 7.2896193049085722e+00 0.0000000000000000e+00  3.9495335921526311e+00 7.2830449472140950e+00 0.0000000000000000e+00  3.9431709852053429e+00 7.2724337942384647e+00 0.0000000000000000e+00  3.9306143759734633e+00 7.2522662886790874e+00 0.0000000000000000e+00  3.9088002476016337e+00 7.2178152567524450e+00 0.0000000000000000e+00  3.8654799157786042e+00 7.1492126604034469e+00 0.0000000000000000e+00  3.7907426569818679e+00 7.0296784087758342e+00 0.0000000000000000e+00  3.6468854401440556e+00 6.7934519010766081e+00 0.0000000000000000e+00  3.4066535951370041e+00 6.3755603271029555e+00 0.0000000000000000e+00  2.9839053754735296e+00 5.5741723044356890e+00 0.0000000000000000e+00  2.3852180781483638e+00 4.2169760353182797e+00 0.0000000000000000e+00  1.5302647148345023e+00 1.7945554628353813e+00 0.0000000000000000e+00  1.1886497542320331e+00 0.0000000000000000e+00 0.0000000000000000e+00  9.6680940664206148e+00 0.0000000000000000e+00 1.2762350096081852e-05  9.6663605923004017e+00 4.1052513339843305e-02 2.5615565103450865e-06  9.6612194606420196e+00 8.2159547118994369e-02 -1.1483773502778776e-05  9.6526658463920505e+00 1.2343777161791855e-01 8.1692370604950042e-06  9.6407692094168596e+00 1.6492966793526237e-01 -7.1883242240567462e-06  9.6256248915694744e+00 2.0671293668647528e-01 6.1799036075616252e-06  9.6073065696297064e+00 2.4886162101303902e-01 -6.5997648708954728e-06  9.5859266972725656e+00 2.9144364389784938e-01 6.6780343641749411e-06  9.5616414855745813e+00 3.3450995416194756e-01 -7.3790445020302364e-06  9.5345548736205625e+00 3.7814206638993914e-01 6.9821656024648578e-06  9.5048247224305893e+00 4.2237546012571897e-01 -7.4214133944631804e-06  9.4726201045109413e+00 4.6727347234322431e-01 6.8372245864867140e-06  9.4380738991399209e+00 5.1287190732253962e-01 -7.5529799551137055e-06  9.4013406984243932e+00 5.5922392481599992e-01 7.0318069668420713e-06  9.3626034318055851e+00 6.0633662929575904e-01 -7.7532581551252422e-06  9.3219768053291254e+00 6.5426621995557377e-01 6.9567385385426420e-06  9.2796194727093795e+00 7.0300680274968375e-01 -7.4319461715211495e-06  9.2356830914065942e+00 7.5258358847767770e-01 6.4667563880023940e-06  9.1902806338676744e+00 8.0299635338492770e-01 -6.7635415515067783e-06  9.1435328205203454e+00 8.5425626305295588e-01 5.7378820767208627e-06  9.0955841063341865e+00 9.0633677660662559e-01 -5.7803046632256725e-06  9.0465080171015817e+00 9.5925164304845978e-01 4.6618600964172157e-06  8.9964180807971736e+00 1.0129721327694134e+00 -4.2292880210251958e-06  8.9454162205844501e+00 1.0674781925261860e+00 2.7158011625938405e-06  8.8935725058372608e+00 1.1227587154876457e+00 -1.4814135350284423e-06  8.8409611172448361e+00 1.1787828946586756e+00 -3.6696379670210651e-07  8.7876772018926452e+00 1.2355240053370176e+00 1.9788734648451802e-06  8.7337613115544777e+00 1.2929545785189116e+00 -3.7734556374404201e-06  8.6792794327064531e+00 1.3510607204350324e+00 5.8083785196258530e-06  8.6243007787972346e+00 1.4097808087548831e+00 -7.7542435479754515e-06  8.5688605644850000e+00 1.4691294438255595e+00 9.8649541655424916e-06  8.5130058353078883e+00 1.5290346656259612e+00 -1.1185351122094555e-05  8.4567931190692551e+00 1.5895111051687780e+00 1.3375941105460378e-05  8.4002539929637035e+00 1.6504745416056052e+00 -1.5976199537417396e-05  8.3434141214231214e+00 1.7119831252137263e+00 2.1315153394067906e-05  8.2863352819919047e+00 1.7738967691172591e+00 -2.7520815952536051e-05  8.2290234704644334e+00 1.8363148763602477e+00 3.6240198562727626e-05  8.1715225747561977e+00 1.8990976259887495e+00 -4.4253720145852197e-05  8.1138493908026064e+00 1.9623274849082735e+00 5.2369046030685129e-05  8.0560571993840888e+00 2.0258674418127840e+00 -5.5088531693756533e-05  7.9981198654287846e+00 2.0898330661669160e+00 5.2195289877475130e-05  7.9401173167376031e+00 2.1540680266640759e+00 -3.8434326996467445e-05  7.8820349962761140e+00 2.2186306030183323e+00 1.6592692917221031e-05  7.8238941483962083e+00 2.2835383995939198e+00 1.4898130675215388e-05  7.7657370995561674e+00 2.3486175326475536e+00 -4.8064074426369004e-05  7.7075531224407694e+00 2.4140813727270674e+00 7.9288063742401755e-05  7.6493893099227588e+00 2.4796674510103309e+00 -9.7186017056199051e-05  7.5912117999083319e+00 2.5456141679178304e+00 1.0146842151059806e-04  7.5331222563835141e+00 2.6116024172610954e+00 -9.0757217283932273e-05  7.4750187626049875e+00 2.6780157602390657e+00 7.5817788372214119e-05  7.4170278075249234e+00 2.7443882766914003e+00 -5.8814011371574096e-05  7.3590806016048544e+00 2.8111017112684231e+00 4.5638845251453315e-05  7.3012382268778584e+00 2.8779097548346759e+00 -3.2862619788349906e-05  7.2434722411261605e+00 2.9448903075774049e+00 2.6309052949150173e-05  7.1858413044483687e+00 3.0119737384049747e+00 -2.4162054926176769e-05  7.1283034267679577e+00 3.0792727719988711e+00 2.7341058610959237e-05  7.0709109708152056e+00 3.1466107579310445e+00 -2.6523333676941644e-05  7.0136382772033619e+00 3.2141093113595107e+00 2.3472631326913858e-05  6.9565362687329504e+00 3.2816887482725812e+00 -1.9468823681086086e-05  6.8995567641547106e+00 3.3494022444794669e+00 2.0911682561460095e-05  6.8427584449923362e+00 3.4171572692097563e+00 -2.1780468039361819e-05  6.7861264172768054e+00 3.4850252657484120e+00 2.1274819462019193e-05  6.7296678945729731e+00 3.5529429848268248e+00 -1.7998676362441731e-05  6.6733693425813234e+00 3.6209848294381306e+00 1.7010039247652625e-05  6.6173076071722932e+00 3.6889914557276824e+00 -1.4218722263419813e-05  6.5613911553196740e+00 3.7571381680032330e+00 1.0958454955202396e-05  6.5056824843584913e+00 3.8253061759239997e+00 -6.9597238020892241e-06  6.4502106659065630e+00 3.8934910115299357e+00 6.2915951961993763e-06  6.3949134718482732e+00 3.9617383902593475e+00 -3.9552792458701706e-06  6.3398199126888324e+00 4.0300422192372043e+00 1.6692975869601766e-06  6.2849982646694382e+00 4.0982963550142060e+00 1.4864647547821021e-06  6.2303493150514146e+00 4.1666418005242072e+00 -2.1150424999375509e-06  6.1759234143754576e+00 4.2350050589977517e+00 4.2588563706540118e-06  6.1217811770962998e+00 4.3033053682764288e+00 -5.1290800472035792e-06  6.0678199642439798e+00 4.3716940981994066e+00 6.1675279078327616e-06  6.0141024963771708e+00 4.4400613001180265e+00 -5.9374749222460010e-06  5.9606641186344014e+00 4.5083922750759706e+00 5.6456437711357263e-06  5.9074340407288757e+00 4.5767517983231842e+00 -4.7464769436559687e-06  5.8544495139289809e+00 4.6451145167103443e+00 3.3835724443749265e-06  5.8017531810780989e+00 4.7133976243958315e+00 -4.0124213180975472e-06  5.7492779630858930e+00 4.7817238581267079e+00 2.6411342329850287e-06  5.6970642144734462e+00 4.8500019031112398e+00 -2.9464207787465046e-06  5.6451338155245692e+00 4.9182357007740958e