<?xml version="1.0"?>
<VTKFile type="UnstructuredGrid"  version="0.1"  >
<UnstructuredGrid>
<Piece  NumberOfPoints="8241" NumberOfCells="16000">
<Points>
<DataArray  type="Float64"  NumberOfComponents="3"  format="ascii">-5 -1 0  -4.95 -1 0  -4.9 -1 0  -4.85 -1 0  -4.8 -1 0  -4.75 -1 0  -4.7 -1 0  -4.65 -1 0  -4.6 -1 0  -4.55 -1 0  -4.5 -1 0  -4.45 -1 0  -4.4 -1 0  -4.35 -1 0  -4.3 -1 0  -4.25 -1 0  -4.2 -1 0  -4.15 -1 0  -4.1 -1 0  -4.05 -1 0  -4 -1 0  -3.95 -1 0  -3.9 -1 0  -3.85 -1 0  -3.8 -1 0  -3.75 -1 0  -3.7 -1 0  -3.65 -1 0  -3.6 -1 0  -3.55 -1 0  -3.5 -1 0  -3.45 -1 0  -3.4 -1 0  -3.35 -1 0  -3.3 -1 0  -3.25 -1 0  -3.2 -1 0  -3.15 -1 0  -3.1 -1 0  -3.05 -1 0  -3 -1 0  -2.95 -1 0  -2.9 -1 0  -2.85 -1 0  -2.8 -1 0  -2.75 -1 0  -2.7 -1 0  -2.65 -1 0  -2.6 -1 0  -2.55 -1 0  -2.5 -1 0  -2.45 -1 0  -2.4 -1 0  -2.35 -1 0  -2.3 -1 0  -2.25 -1 0  -2.2 -1 0  -2.15 -1 0  -2.1 -1 0  -2.05 -1 0  -2 -1 0  -1.95 -1 0  -1.9 -1 0  -1.85 -1 0  -1.8 -1 0  -1.75 -1 0  -1.7 -1 0  -1.65 -1 0  -1.6 -1 0  -1.55 -1 0  -1.5 -1 0  -1.45 -1 0  -1.4 -1 0  -1.35 -1 0  -1.3 -1 0  -1.25 -1 0  -1.2 -1 0  -1.15 -1 0  -1.1 -1 0  -1.05 -1 0  -1 -1 0  -0.9500000000000002 -1 0  -0.9000000000000004 -1 0  -0.8499999999999996 -1 0  -0.7999999999999998 -1 0  -0.75 -1 0  -0.7000000000000002 -1 0  -0.6500000000000004 -1 0  -0.5999999999999996 -1 0  -0.5499999999999998 -1 0  -0.5 -1 0  -0.4500000000000002 -1 0  -0.4000000000000004 -1 0  -0.3499999999999996 -1 0  -0.2999999999999998 -1 0  -0.25 -1 0  -0.2000000000000002 -1 0  -0.1500000000000004 -1 0  -0.09999999999999964 -1 0  -0.04999999999999982 -1 0  0 -1 0  0.04999999999999982 -1 0  0.09999999999999964 -1 0  0.1500000000000004 -1 0  0.2000000000000002 -1 0  0.25 -1 0  0.2999999999999998 -1 0  0.3499999999999996 -1 0  0.4000000000000004 -1 0  0.4500000000000002 -1 0  0.5 -1 0  0.5499999999999998 -1 0  0.5999999999999996 -1 0  0.6500000000000004 -1 0  0.7000000000000002 -1 0  0.75 -1 0  0.7999999999999998 -1 0  0.8499999999999996 -1 0  0.9000000000000004 -1 0  0.9500000000000002 -1 0  1 -1 0  1.05 -1 0  1.1 -1 0  1.15 -1 0  1.2 -1 0  1.25 -1 0  1.3 -1 0  1.35 -1 0  1.4 -1 0  1.45 -1 0  1.5 -1 0  1.55 -1 0  1.6 -1 0  1.65 -1 0  1.7 -1 0  1.75 -1 0  1.8 -1 0  1.85 -1 0  1.9 -1 0  1.95 -1 0  2 -1 0  2.05 -1 0  2.1 -1 0  2.15 -1 0  2.2 -1 0  2.25 -1 0  2.3 -1 0  2.35 -1 0  2.4 -1 0  2.45 -1 0  2.5 -1 0  2.55 -1 0  2.6 -1 0  2.65 -1 0  2.7 -1 0  2.75 -1 0  2.8 -1 0  2.85 -1 0  2.9 -1 0  2.95 -1 0  3 -1 0  3.050000000000001 -1 0  3.1 -1 0  3.15 -1 0  3.199999999999999 -1 0  3.25 -1 0  3.300000000000001 -1 0  3.35 -1 0  3.4 -1 0  3.449999999999999 -1 0  3.5 -1 0  3.550000000000001 -1 0  3.6 -1 0  3.65 -1 0  3.699999999999999 -1 0  3.75 -1 0  3.800000000000001 -1 0  3.85 -1 0  3.9 -1 0  3.949999999999999 -1 0  4 -1 0  4.050000000000001 -1 0  4.1 -1 0  4.15 -1 0  4.199999999999999 -1 0  4.25 -1 0  4.300000000000001 -1 0  4.35 -1 0  4.4 -1 0  4.449999999999999 -1 0  4.5 -1 0  4.550000000000001 -1 0  4.6 -1 0  4.65 -1 0  4.699999999999999 -1 0  4.75 -1 0  4.800000000000001 -1 0  4.85 -1 0  4.9 -1 0  4.949999999999999 -1 0  5 -1 0  -5 -0.95 0  -4.95 -0.95 0  -4.9 -0.95 0  -4.85 -0.95 0  -4.8 -0.95 0  -4.75 -0.95 0  -4.7 -0.95 0  -4.65 -0.95 0  -4.6 -0.95 0  -4.55 -0.95 0  -4.5 -0.95 0  -4.45 -0.95 0  -4.4 -0.95 0  -4.35 -0.95 0  -4.3 -0.95 0  -4.25 -0.95 0  -4.2 -0.95 0  -4.15 -0.95 0  -4.1 -0.95 0  -4.05 -0.95 0  -4 -0.95 0  -3.95 -0.95 0  -3.9 -0.95 0  -3.85 -0.95 0  -3.8 -0.95 0  -3.75 -0.95 0  -3.7 -0.95 0  -3.65 -0.95 0  -3.6 -0.95 0  -3.55 -0.95 0  -3.5 -0.95 0  -3.45 -0.95 0  -3.4 -0.95 0  -3.35 -0.95 0  -3.3 -0.95 0  -3.25 -0.95 0  -3.2 -0.95 0  -3.15 -0.95 0  -3.1 -0.95 0  -3.05 -0.95 0  -3 -0.95 0  -2.95 -0.95 0  -2.9 -0.95 0  -2.85 -0.95 0  -2.8 -0.95 0  -2.75 -0.95 0  -2.7 -0.95 0  -2.65 -0.95 0  -2.6 -0.95 0  -2.55 -0.95 0  -2.5 -0.95 0  -2.45 -0.95 0  -2.4 -0.95 0  -2.35 -0.95 0  -2.3 -0.95 0  -2.25 -0.95 0  -2.2 -0.95 0  -2.15 -0.95 0  -2.1 -0.95 0  -2.05 -0.95 0  -2 -0.95 0  -1.95 -0.95 0  -1.9 -0.95 0  -1.85 -0.95 0  -1.8 -0.95 0  -1.75 -0.95 0  -1.7 -0.95 0  -1.65 -0.95 0  -1.6 -0.95 0  -1.55 -0.95 0  -1.5 -0.95 0  -1.45 -0.95 0  -1.4 -0.95 0  -1.35 -0.95 0  -1.3 -0.95 0  -1.25 -0.95 0  -1.2 -0.95 0  -1.15 -0.95 0  -1.1 -0.95 0  -1.05 -0.95 0  -1 -0.95 0  -0.9500000000000002 -0.95 0  -0.9000000000000004 -0.95 0  -0.8499999999999996 -0.95 0  -0.7999999999999998 -0.95 0  -0.75 -0.95 0  -0.7000000000000002 -0.95 0  -0.6500000000000004 -0.95 0  -0.5999999999999996 -0.95 0  -0.5499999999999998 -0.95 0  -0.5 -0.95 0  -0.4500000000000002 -0.95 0  -0.4000000000000004 -0.95 0  -0.3499999999999996 -0.95 0  -0.2999999999999998 -0.95 0  -0.25 -0.95 0  -0.2000000000000002 -0.95 0  -0.1500000000000004 -0.95 0  -0.09999999999999964 -0.95 0  -0.04999999999999982 -0.95 0  0 -0.95 0  0.04999999999999982 -0.95 0  0.09999999999999964 -0.95 0  0.1500000000000004 -0.95 0  0.2000000000000002 -0.95 0  0.25 -0.95 0  0.2999999999999998 -0.95 0  0.3499999999999996 -0.95 0  0.4000000000000004 -0.95 0  0.4500000000000002 -0.95 0  0.5 -0.95 0  0.5499999999999998 -0.95 0  0.5999999999999996 -0.95 0  0.6500000000000004 -0.95 0  0.7000000000000002 -0.95 0  0.75 -0.95 0  0.7999999999999998 -0.95 0  0.8499999999999996 -0.95 0  0.9000000000000004 -0.95 0  0.9500000000000002 -0.95 0  1 -0.95 0  1.05 -0.95 0  1.1 -0.95 0  1.15 -0.95 0  1.2 -0.95 0  1.25 -0.95 0  1.3 -0.95 0  1.35 -0.95 0  1.4 -0.95 0  1.45 -0.95 0  1.5 -0.95 0  1.55 -0.95 0  1.6 -0.95 0  1.65 -0.95 0  1.7 -0.95 0  1.75 -0.95 0  1.8 -0.95 0  1.85 -0.95 0  1.9 -0.95 0  1.95 -0.95 0  2 -0.95 0  2.05 -0.95 0  2.1 -0.95 0  2.15 -0.95 0  2.2 -0.95 0  2.25 -0.95 0  2.3 -0.95 0  2.35 -0.95 0  2.4 -0.95 0  2.45 -0.95 0  2.5 -0.95 0  2.55 -0.95 0  2.6 -0.95 0  2.65 -0.95 0  2.7 -0.95 0  2.75 -0.95 0  2.8 -0.95 0  2.85 -0.95 0  2.9 -0.95 0  2.95 -0.95 0  3 -0.95 0  3.050000000000001 -0.95 0  3.1 -0.95 0  3.15 -0.95 0  3.199999999999999 -0.95 0  3.25 -0.95 0  3.300000000000001 -0.95 0  3.35 -0.95 0  3.4 -0.95 0  3.449999999999999 -0.95 0  3.5 -0.95 0  3.550000000000001 -0.95 0  3.6 -0.95 0  3.65 -0.95 0  3.699999999999999 -0.95 0  3.75 -0.95 0  3.800000000000001 -0.95 0  3.85 -0.95 0  3.9 -0.95 0  3.949999999999999 -0.95 0  4 -0.95 0  4.050000000000001 -0.95 0  4.1 -0.95 0  4.15 -0.95 0  4.199999999999999 -0.95 0  4.25 -0.95 0  4.300000000000001 -0.95 0  4.35 -0.95 0  4.4 -0.95 0  4.449999999999999 -0.95 0  4.5 -0.95 0  4.550000000000001 -0.95 0  4.6 -0.95 0  4.65 -0.95 0  4.699999999999999 -0.95 0  4.75 -0.95 0  4.800000000000001 -0.95 0  4.85 -0.95 0  4.9 -0.95 0  4.949999999999999 -0.95 0  5 -0.95 0  -5 -0.9 0  -4.95 -0.9 0  -4.9 -0.9 0  -4.85 -0.9 0  -4.8 -0.9 0  -4.75 -0.9 0  -4.7 -0.9 0  -4.65 -0.9 0  -4.6 -0.9 0  -4.55 -0.9 0  -4.5 -0.9 0  -4.45 -0.9 0  -4.4 -0.9 0  -4.35 -0.9 0  -4.3 -0.9 0  -4.25 -0.9 0  -4.2 -0.9 0  -4.15 -0.9 0  -4.1 -0.9 0  -4.05 -0.9 0  -4 -0.9 0  -3.95 -0.9 0  -3.9 -0.9 0  -3.85 -0.9 0  -3.8 -0.9 0  -3.75 -0.9 0  -3.7 -0.9 0  -3.65 -0.9 0  -3.6 -0.9 0  -3.55 -0.9 0  -3.5 -0.9 0  -3.45 -0.9 0  -3.4 -0.9 0  -3.35 -0.9 0  -3.3 -0.9 0  -3.25 -0.9 0  -3.2 -0.9 0  -3.15 -0.9 0  -3.1 -0.9 0  -3.05 -0.9 0  -3 -0.9 0  -2.95 -0.9 0  -2.9 -0.9 0  -2.85 -0.9 0  -2.8 -0.9 0  -2.75 -0.9 0  -2.7 -0.9 0  -2.65 -0.9 0  -2.6 -0.9 0  -2.55 -0.9 0  -2.5 -0.9 0  -2.45 -0.9 0  -2.4 -0.9 0  -2.35 -0.9 0  -2.3 -0.9 0  -2.25 -0.9 0  -2.2 -0.9 0  -2.15 -0.9 0  -2.1 -0.9 0  -2.05 -0.9 0  -2 -0.9 0  -1.95 -0.9 0  -1.9 -0.9 0  -1.85 -0.9 0  -1.8 -0.9 0  -1.75 -0.9 0  -1.7 -0.9 0  -1.65 -0.9 0  -1.6 -0.9 0  -1.55 -0.9 0  -1.5 -0.9 0  -1.45 -0.9 0  -1.4 -0.9 0  -1.35 -0.9 0  -1.3 -0.9 0  -1.25 -0.9 0  -1.2 -0.9 0  -1.15 -0.9 0  -1.1 -0.9 0  -1.05 -0.9 0  -1 -0.9 0  -0.9500000000000002 -0.9 0  -0.9000000000000004 -0.9 0  -0.8499999999999996 -0.9 0  -0.7999999999999998 -0.9 0  -0.75 -0.9 0  -0.7000000000000002 -0.9 0  -0.6500000000000004 -0.9 0  -0.5999999999999996 -0.9 0  -0.5499999999999998 -0.9 0  -0.5 -0.9 0  -0.4500000000000002 -0.9 0  -0.4000000000000004 -0.9 0  -0.3499999999999996 -0.9 0  -0.2999999999999998 -0.9 0  -0.25 -0.9 0  -0.2000000000000002 -0.9 0  -0.1500000000000004 -0.9 0  -0.09999999999999964 -0.9 0  -0.04999999999999982 -0.9 0  0 -0.9 0  0.04999999999999982 -0.9 0  0.09999999999999964 -0.9 0  0.1500000000000004 -0.9 0  0.2000000000000002 -0.9 0  0.25 -0.9 0  0.2999999999999998 -0.9 0  0.3499999999999996 -0.9 0  0.4000000000000004 -0.9 0  0.4500000000000002 -0.9 0  0.5 -0.9 0  0.5499999999999998 -0.9 0  0.5999999999999996 -0.9 0  0.6500000000000004 -0.9 0  0.7000000000000002 -0.9 0  0.75 -0.9 0  0.7999999999999998 -0.9 0  0.8499999999999996 -0.9 0  0.9000000000000004 -0.9 0  0.9500000000000002 -0.9 0  1 -0.9 0  1.05 -0.9 0  1.1 -0.9 0  1.15 -0.9 0  1.2 -0.9 0  1.25 -0.9 0  1.3 -0.9 0  1.35 -0.9 0  1.4 -0.9 0  1.45 -0.9 0  1.5 -0.9 0  1.55 -0.9 0  1.6 -0.9 0  1.65 -0.9 0  1.7 -0.9 0  1.75 -0.9 0  1.8 -0.9 0  1.85 -0.9 0  1.9 -0.9 0  1.95 -0.9 0  2 -0.9 0  2.05 -0.9 0  2.1 -0.9 0  2.15 -0.9 0  2.2 -0.9 0  2.25 -0.9 0  2.3 -0.9 0  2.35 -0.9 0  2.4 -0.9 0  2.45 -0.9 0  2.5 -0.9 0  2.55 -0.9 0  2.6 -0.9 0  2.65 -0.9 0  2.7 -0.9 0  2.75 -0.9 0  2.8 -0.9 0  2.85 -0.9 0  2.9 -0.9 0  2.95 -0.9 0  3 -0.9 0  3.050000000000001 -0.9 0  3.1 -0.9 0  3.15 -0.9 0  3.199999999999999 -0.9 0  3.25 -0.9 0  3.300000000000001 -0.9 0  3.35 -0.9 0  3.4 -0.9 0  3.449999999999999 -0.9 0  3.5 -0.9 0  3.550000000000001 -0.9 0  3.6 -0.9 0  3.65 -0.9 0  3.699999999999999 -0.9 0  3.75 -0.9 0  3.800000000000001 -0.9 0  3.85 -0.9 0  3.9 -0.9 0  3.949999999999999 -0.9 0  4 -0.9 0  4.050000000000001 -0.9 0  4.1 -0.9 0  4.15 -0.9 0  4.199999999999999 -0.9 0  4.25 -0.9 0  4.300000000000001 -0.9 0  4.35 -0.9 0  4.4 -0.9 0  4.449999999999999 -0.9 0  4.5 -0.9 0  4.550000000000001 -0.9 0  4.6 -0.9 0  4.65 -0.9 0  4.699999999999999 -0.9 0  4.75 -0.9 0  4.800000000000001 -0.9 0  4.85 -0.9 0  4.9 -0.9 0  4.949999999999999 -0.9 0  5 -0.9 0  -5 -0.85 0  -4.95 -0.85 0  -4.9 -0.85 0  -4.85 -0.85 0  -4.8 -0.85 0  -4.75 -0.85 0  -4.7 -0.85 0  -4.65 -0.85 0  -4.6 -0.85 0  -4.55 -0.85 0  -4.5 -0.85 0  -
[...]
<PointData  Vectors="f_15"> 
<DataArray  type="Float64"  Name="f_15"  NumberOfComponents="3" format="ascii">9.9936765759505786e+00 0.0000000000000000e+00 0.0000000000000000e+00  9.9934450145132150e+00 1.7656609539895051e-03 0.0000000000000000e+00  9.9927979893612235e+00 3.5739465485122414e-03 0.0000000000000000e+00  9.9916314282030445e+00 5.6396711861611678e-03 0.0000000000000000e+00  9.9900052539799109e+00 7.9419972676881539e-03 0.0000000000000000e+00  9.9877596178535413e+00 1.0696861297470415e-02 0.0000000000000000e+00  9.9848895573937888e+00 1.3919514336925834e-02 0.0000000000000000e+00  9.9812759489591301e+00 1.7811620124127479e-02 0.0000000000000000e+00  9.9768265837825858e+00 2.2430271512953379e-02 0.0000000000000000e+00  9.9714035286942071e+00 2.7972569800318963e-02 0.0000000000000000e+00  9.9649280954438115e+00 3.4510588126300833e-02 0.0000000000000000e+00  9.9572083061771970e+00 4.2265120260800322e-02 0.0000000000000000e+00  9.9481464262279289e+00 5.1305196114066184e-02 0.0000000000000000e+00  9.9375929188812258e+00 6.1850405771063779e-02 0.0000000000000000e+00  9.9253885956770631e+00 7.3987164392762581e-02 0.0000000000000000e+00  9.9114137938288156e+00 8.7917395649468266e-02 0.0000000000000000e+00  9.8955459984972975e+00 1.0370272282307585e-01 0.0000000000000000e+00  9.8776327019953030e+00 1.2156124016083217e-01 0.0000000000000000e+00  9.8576028333845880e+00 1.4150171412658952e-01 0.0000000000000000e+00  9.8353532878100935e+00 1.6372432508458198e-01 0.0000000000000000e+00  9.8107916131733113e+00 1.8821387028786932e-01 0.0000000000000000e+00  9.7838883952507274e+00 2.1513951738417689e-01 0.0000000000000000e+00  9.7546006582758995e+00 2.4442319795605993e-01 0.0000000000000000e+00  9.7228832350492560e+00 2.7624260658457783e-01 0.0000000000000000e+00  9.6887799422907843e+00 3.1044657670587938e-01 0.0000000000000000e+00  9.6522748126353033e+00 3.4719983272563748e-01 0.0000000000000000e+00  9.6134138711124599e+00 3.8630094953219957e-01 0.0000000000000000e+00  9.5722432200432106e+00 4.2791752018414364e-01 0.0000000000000000e+00  9.5288401411699208e+00 4.7177778117862434e-01 0.0000000000000000e+00  9.4832373694947201e+00 5.1806149908847532e-01 0.0000000000000000e+00  9.4355753424817586e+00 5.6645816365790991e-01 0.0000000000000000e+00  9.3858777807656946e+00 6.1715566916492104e-01 0.0000000000000000e+00  9.3343057610939297e+00 6.6977382025734666e-01 0.0000000000000000e+00  9.2808902826366335e+00 7.2457234458418129e-01 0.0000000000000000e+00  9.2257996524670691e+00 7.8110472536449593e-01 0.0000000000000000e+00  9.1690697511767176e+00 8.3962837240773514e-01 0.0000000000000000e+00  9.1108740410823170e+00 8.9972376382424368e-01 0.0000000000000000e+00  9.0512189453425247e+00 9.6166232681833896e-01 0.0000000000000000e+00  8.9903308798236381e+00 1.0249301900306507e+00 0.0000000000000000e+00  8.9281601594543805e+00 1.0899251949175002e+00 0.0000000000000000e+00  8.8649301577728892e+00 1.1560954389722251e+00 0.0000000000000000e+00  8.8006380560994515e+00 1.2237556620029433e+00 0.0000000000000000e+00  8.7354471712114314e+00 1.2925047268881773e+00 0.0000000000000000e+00  8.6693283270790733e+00 1.3625893483969536e+00 0.0000000000000000e+00  8.6025365291395950e+00 1.4335747474075637e+00 0.0000000000000000e+00  8.5349344125714257e+00 1.5057671674456607e+00 0.0000000000000000e+00  8.4667739735736784e+00 1.5788214051410041e+00 0.0000000000000000e+00  8.3980117505680489e+00 1.6527945288440093e+00 0.0000000000000000e+00  8.3287824363083018e+00 1.7276495421003235e+00 0.0000000000000000e+00  8.2590383305463444e+00 1.8032712846897718e+00 0.0000000000000000e+00  8.1890218949534876e+00 1.8796415244234652e+00 0.0000000000000000e+00  8.1185578648566210e+00 1.9566818225466596e+00 0.0000000000000000e+00  8.0478832006083731e+00 2.0344551144087761e+00 0.0000000000000000e+00  7.9769457326560680e+00 2.1126900976523091e+00 0.0000000000000000e+00  7.9058363463253256e+00 2.1916457970088716e+00 0.0000000000000000e+00  7.8345188621111541e+00 2.2709970589781228e+00 0.0000000000000000e+00  7.7631870188146879e+00 2.3509495039334789e+00 0.0000000000000000e+00  7.6916782441145157e+00 2.4312312729812997e+00 0.0000000000000000e+00  7.6201936091068569e+00 2.5120861474559861e+00 0.0000000000000000e+00  7.5486727603797634e+00 2.5931907868796600e+00 0.0000000000000000e+00  7.4771947720714458e+00 2.6747660577877133e+00 0.0000000000000000e+00  7.4057141396966362e+00 2.7565927586949486e+00 0.0000000000000000e+00  7.3343955034928809e+00 2.8388259064546686e+00 0.0000000000000000e+00  7.2630841102796104e+00 2.9212435733005639e+00 0.0000000000000000e+00  7.1919716294307223e+00 3.0039853138916479e+00 0.0000000000000000e+00  7.1209525475184989e+00 3.0869696387609897e+00 0.0000000000000000e+00  7.0501553443478704e+00 3.1701433688638052e+00 0.0000000000000000e+00  6.9794666555541367e+00 3.2535384672631307e+00 0.0000000000000000e+00  6.9090882709263814e+00 3.3370911937710446e+00 0.0000000000000000e+00  6.8388152283962542e+00 3.4208676937863980e+00 0.0000000000000000e+00  6.7688952391898436e+00 3.5046960969866490e+00 0.0000000000000000e+00  6.6991172249939019e+00 3.5887627269405029e+00 0.0000000000000000e+00  6.6297256440512209e+00 3.6728223301266230e+00 0.0000000000000000e+00  6.5604795559229734e+00 3.7571373929155225e+00 0.0000000000000000e+00  6.4916803634131872e+00 3.8413618464326968e+00 0.0000000000000000e+00  6.4230188541652025e+00 3.9258462439367867e+00 0.0000000000000000e+00  6.3548468437961096e+00 4.0101985237613480e+00 0.0000000000000000e+00  6.2868237801619697e+00 4.0948154138512747e+00 0.0000000000000000e+00  6.2193157103843797e+00 4.1792439866166600e+00 0.0000000000000000e+00  6.1519650034036655e+00 4.2639390451086028e+00 0.0000000000000000e+00  6.0851649909976055e+00 4.3484058868182869e+00 0.0000000000000000e+00  6.0185179341873551e+00 4.4331339497355113e+00 0.0000000000000000e+00  5.9524523144187587e+00 4.5176055362671361e+00 0.0000000000000000e+00  5.8865585385295480e+00 4.6023159130682263e+00 0.0000000000000000e+00  5.8212466392709690e+00 4.6867578728430184e+00 0.0000000000000000e+00  5.7561372051548192e+00 4.7713993152581704e+00 0.0000000000000000e+00  5.6916245976817477e+00 4.8557581386780031e+00 0.0000000000000000e+00  5.6273200379757586e+00 4.9403044324189933e+00 0.0000000000000000e+00  5.5636252072445957e+00 5.0245467422955201e+00 0.0000000000000000e+00  5.5001839335599811e+00 5.1089219387460023e+00 0.0000000000000000e+00  5.4373115836073138e+00 5.1930283857253956e+00 0.0000000000000000e+00  5.3747717523876988e+00 5.2771759810681207e+00 0.0000000000000000e+00  5.3127525908507289e+00 5.3611066837671988e+00 0.0000000000000000e+00  5.2511122968365793e+00 5.4450153361538041e+00 0.0000000000000000e+00  5.1899891659655175e+00 5.5287073393749715e+00 0.0000000000000000e+00  5.1293273310282483e+00 5.6122526701089450e+00 0.0000000000000000e+00  5.0691314697268028e+00 5.6956595661275715e+00 0.0000000000000000e+00  5.0094713771983566e+00 5.7787857805169178e+00 0.0000000000000000e+00  4.9503187919426326e+00 5.8617414860555925e+00 0.0000000000000000e+00  4.8917002803886023e+00 5.9443841094703478e+00 0.0000000000000000e+00  4.8336401590486355e+00 6.0267955585490895e+00 0.0000000000000000e+00  4.7761249760098874e+00 6.1088506902839130e+00 0.0000000000000000e+00  4.7193022895124468e+00 6.1904700057718181e+00 0.0000000000000000e+00  4.6630914091586808e+00 6.2716299482084210e+00 0.0000000000000000e+00  4.6076385650717073e+00 6.3522346153257327e+00 0.0000000000000000e+00  4.5529446065210060e+00 6.4321638654164248e+00 0.0000000000000000e+00  4.4990577808525716e+00 6.5114299806414868e+00 0.0000000000000000e+00  4.4461768960185273e+00 6.5896352053843144e+00 0.0000000000000000e+00  4.3940033807315340e+00 6.6672733002816003e+00 0.0000000000000000e+00  4.3433151045983163e+00 6.7431218872236913e+00 0.0000000000000000e+00  4.2940179427464056e+00 6.8173281214908403e+00 0.0000000000000000e+00  4.2466400905101169e+00 6.8890464712133586e+00 0.0000000000000000e+00  4.2014680892066663e+00 6.9577974725995047e+00 0.0000000000000000e+00  4.1592777740181166e+00 7.0223391534345598e+00 0.0000000000000000e+00  4.1207521953217636e+00 7.0815311149763867e+00 0.0000000000000000e+00  4.0869440352881163e+00 7.1336949448137350e+00 0.0000000000000000e+00  4.0584228420658706e+00 7.1778373551354333e+00 0.0000000000000000e+00  4.0353753160753181e+00 7.2136174815336380e+00 0.0000000000000000e+00  4.0170864430527411e+00 7.2420507901326232e+00 0.0000000000000000e+00  4.0027490314207244e+00 7.2643809038311362e+00 0.0000000000000000e+00  3.9915064210546696e+00 7.2818862149070922e+00 0.0000000000000000e+00  3.9829133902344704e+00 7.2952696324062734e+00 0.0000000000000000e+00  3.9764821496298932e+00 7.3052540621802171e+00 0.0000000000000000e+00  3.9718633657933440e+00 7.3124049310600983e+00 0.0000000000000000e+00  3.9685703483270056e+00 7.3174604869461390e+00 0.0000000000000000e+00  3.9662805276193875e+00 7.3209475354479805e+00 0.0000000000000000e+00  3.9646414549507174e+00 7.3234004091890235e+00 0.0000000000000000e+00  3.9634845971276804e+00 7.3251014302112933e+00 0.0000000000000000e+00  3.9626206760969236e+00 7.3263310886636441e+00 0.0000000000000000e+00  3.9619900034696136e+00 7.3271981568332061e+00 0.0000000000000000e+00  3.9614954372144124e+00 7.3278424284842218e+00 0.0000000000000000e+00  3.9611225354659276e+00 7.3282981876543536e+00 0.0000000000000000e+00  3.9608171001170098e+00 7.3286408203900528e+00 0.0000000000000000e+00  3.9605776381540196e+00 7.3288805782971922e+00 0.0000000000000000e+00  3.9603721075784768e+00 7.3290597493424929e+00 0.0000000000000000e+00  3.9602025341998148e+00 7.3291806762475380e+00 0.0000000000000000e+00  3.9600506963678543e+00 7.3292668285327416e+00 0.0000000000000000e+00  3.9599193523249809e+00 7.3293176121763706e+00 0.0000000000000000e+00  3.9597985739804371e+00 7.3293460894716667e+00 0.0000000000000000e+00  3.9596900080831157e+00 7.3293522114770306e+00 0.0000000000000000e+00  3.9595882790534036e+00 7.3293425959220855e+00 0.0000000000000000e+00  3.9594938983275565e+00 7.3293174776824230e+00 0.0000000000000000e+00  3.9594037056007214e+00 7.3292793938906362e+00 0.0000000000000000e+00  3.9593175932460745e+00 7.3292265755731538e+00 0.0000000000000000e+00  3.9592336555100531e+00 7.3291575219389093e+00 0.0000000000000000e+00  3.9591513955848412e+00 7.3290673841805356e+00 0.0000000000000000e+00  3.9590697912745734e+00 7.3289495783447585e+00 0.0000000000000000e+00  3.9589883310099800e+00 7.3287950935872583e+00 0.0000000000000000e+00  3.9589063990651114e+00 7.3285927519871086e+00 0.0000000000000000e+00  3.9588236363728355e+00 7.3283286684271163e+00 0.0000000000000000e+00  3.9587397086732725e+00 7.3279878511394863e+00 0.0000000000000000e+00  3.9586541647293623e+00 7.3275533229133147e+00 0.0000000000000000e+00  3.9585669431838473e+00 7.3270078865314812e+00 0.0000000000000000e+00  3.9584775145168152e+00 7.3263346918932530e+00 0.0000000000000000e+00  3.9583858403747905e+00 7.3255188608485735e+00 0.0000000000000000e+00  3.9582914668000151e+00 7.3245478997297253e+00 0.0000000000000000e+00  3.9581942615514083e+00 7.3234145040290590e+00 0.0000000000000000e+00  3.9580938457332286e+00 7.3221157560011036e+00 0.0000000000000000e+00  3.9579896266943182e+00 7.3206550803275174e+00 0.0000000000000000e+00  3.9578815162957466e+00 7.3190419436852343e+00 0.0000000000000000e+00  3.9577669758424845e+00 7.3172899298963658e+00 0.0000000000000000e+00  3.9576464369750877e+00 7.3154192088100780e+00 0.0000000000000000e+00  3.9575113470097971e+00 7.3134448999484247e+00 0.0000000000000000e+00  3.9573620800845464e+00 7.3113926764124075e+00 0.0000000000000000e+00  3.9571712458222517e+00 7.3092539015570965e+00 0.0000000000000000e+00  3.9569354743754550e+00 7.3070481782856271e+00 0.0000000000000000e+00  3.9565671740428856e+00 7.3046738327876000e+00 0.0000000000000000e+00  3.9560407246197511e+00 7.3021101984566750e+00 0.0000000000000000e+00  3.9550758768142780e+00 7.2989519259712852e+00 0.0000000000000000e+00  3.9535433482009905e+00 7.2950107231742418e+00 0.0000000000000000e+00  3.9505351219102183e+00 7.2888957501973675e+00 0.0000000000000000e+00  3.9454898585788967e+00 7.2797508513678366e+00 0.0000000000000000e+00  3.9354325070987413e+00 7.2629413375301803e+00 0.0000000000000000e+00  3.9180648029609308e+00 7.2348886971590511e+00 0.0000000000000000e+00  3.8836483274436686e+00 7.1801059964671818e+00 0.0000000000000000e+00  3.8238809443070343e+00 7.0847468002884435e+00 0.0000000000000000e+00  3.7082733133120311e+00 6.8964858014963779e+00 0.0000000000000000e+00  3.5124892821601383e+00 6.5646653175717837e+00 0.0000000000000000e+00  3.1611714455521223e+00 5.9207806095626845e+00 0.0000000000000000e+00  2.6352009769533815e+00 4.8266921791864430e+00 0.0000000000000000e+00  1.8537288032700614e+00 2.7615729987417756e+00 0.0000000000000000e+00  1.1799522410026588e+00 5.7244902102966322e-01 0.0000000000000000e+00  1.0131938228208712e+00 4.2434756392946811e-02 0.0000000000000000e+00  1.0006246003120089e+00 2.2161877016359925e-03 0.0000000000000000e+00  1.0000524645192190e+00 2.2637706445633016e-04 0.0000000000000000e+00  1.0000066279404574e+00 6.8978690505754306e-07 0.0000000000000000e+00  9.9999995136282716e-01 5.3170724131209310e-06 0.0000000000000000e+00  1.0000001332009287e+00 -4.9247511594245660e-07 0.0000000000000000e+00  9.9999982202094184e-01 6.6335387510429649e-07 0.0000000000000000e+00  1.0000003126684989e+00 -8.7353733737849868e-07 0.0000000000000000e+00  9.9999966670018592e-01 9.1094705124843978e-07 0.0000000000000000e+00  1.0000002903769329e+00 -7.8898809181551748e-07 0.0000000000000000e+00  9.9999976337471863e-01 6.3346901521278812e-07 0.0000000000000000e+00  1.0000001816837589e+00 -4.8203812916626742e-07 0.0000000000000000e+00  9.9999985283853909e-01 3.7006590992947282e-07 0.0000000000000000e+00  1.0000001077447145e+00 -2.6379280553483621e-07 0.0000000000000000e+00  9.9999990302242892e-01 2.0126647625608104e-07 0.0000000000000000e+00  1.0000000632748027e+00 -1.1817327066241213e-07 0.0000000000000000e+00  9.9999992503961233e-01 9.1855123871246371e-08 0.0000000000000000e+00  1.0000000346280911e+00 -1.3480693570206324e-08 0.0000000000000000e+00  9.9999992630379808e-01 0.0000000000000000e+00 0.0000000000000000e+00  9.9936612601959709e+00 0.0000000000000000e+00 -2.8287354876622796e-06  9.9934377021223408e+00 1.7351087038687395e-03 -3.8739986073801376e-06  9.9927628651763190e+00 3.5858840484097971e-03 1.0191299077008967e-05  9.9916309623416009e+00 5.6088901396913063e-03 -6.9009490811593065e-06  9.9899743857748522e+00 7.9388577756213472e-03 5.9417325904526214e-06  9.9877347196912947e+00 1.0661720385959066e-02 -4.4693148979710926e-06  9.9848692584453467e+00 1.3900347786282992e-02 4.8715376636891246e-06  9.9812475444595989e+00 1.7768613136011146e-02 -4.4245526586699480e-06  9.9767863940239696e+00 2.2399493295448301e-02 4.7335315477390861e-06  9.9713821393901778e+00 2.7912982524936736e-02 -3.6571989419936698e-06  9.9648823084513367e+00 3.4470844838535651e-02 3.4672566835838936e-06  9.9571658250856938e+00 4.2194763937007697e-02 -2.8353614891197090e-06  9.9481100985968656e+00 5.1247208673010594e-02 3.0278454955941691e-06  9.9375374744059908e+00 6.1773230923437665e-02 -2.7754863640052961e-06  9.9253353359589642e+00 7.3920778916507002e-02 2.1759368382565275e-06  9.9113670847651960e+00 8.7822202334400509e-02 -1.4895121623479107e-06  9.8954765996861020e+00 1.0363444176820877e-01 4.1655185058696498e-07  9.8775721431197656e+00 1.2145941073095279e-01 -3.5261928763473420e-07  9.8575436183338798e+00 1.4142113904207373e-01 -4.8889313660905626e-07  9.8352747770456368e+00 1.6362163206904023e-01 4.5496393494078416e-07  9.8107229273484631e+00 1.8813493114718602e-01 -1.8921737243966537e-06  9.7838221660210660e+00 2.1502567156066446e-01 2.1424269428453945e-06  9.7545138371849642e+00 2.4435092444275952e-01 -3.3560680422220597e-06  9.7228143292763836e+00 2.7613086609802540e-01 3.0408643335808944e-06  9.6887043147455856e+00 3.1037508065540137e-01 -3.6790272542612235e-06  9.6521937327703977e+00 3.4708943532433911e-01 3.3148733801566941e-06  9.6133381095127994e+00 3.8624411591930213e-01 -3.7947980321746503e-06  9.5721754674063071e+00 4.2780714660669800e-01 3.3164577572972487e-06  9.5287553835574030e+00 4.7172869709417165e-01 -3.1768575293107197e-06  9.4831768361279405e+00 5.1796164022480118e-01 2.1367644294357578e-06  9.4354976343194750e+00 5.6642621405862048e-01 -1.0967319429448594e-06  9.3858201204886988e+00 6.1704739612312609e-01 -8.2744871693927697e-07  9.3342338296571210e+00 6.6976776647622505e-01 2.7212234554022584e-06  9.2808387801774348e+00 7.2447603544342742e-01 -5.0226958064520950e-06  9.2257355821743428e+00 7.8109461626200272e-01 7.0670787466692520e-06  9.1690291589074562e+00 8.3954667523776372e-01 -1.0165728814338522e-05  9.1108048369119317e+00 8.9974637637979293e-01 1.4050893757416328e-05  9.0512000503049901e+00 9.6155204809320460e-01 -1.9525506405324711e-05  8.9902676287083914e+00 1.0249808348539555e+00 2.4587508746083794e-05  8.9281323154674155e+00 1.0898429013980453e+00 -2.9716085915277715e-05  8.8648931222646290e+00 1.1561147386687296e+00 3.3858888303199580e-05  8.8006190527067396e+00 1.2236954513133302e+00 -3.9541964519988834e-05  8.7353882461377985e+00 1.2925580859903016e+00 4.5590117518354655e-05  8.6693474508467805e+00 1.3624928856284422e+00 -5.2641669133806272e-05  8.6024804500134486e+00 1.4336373861926415e+00 5.7205064293412024e-05  8.5349271410717495e+00 1.5057254883783511e+00 -6.0042924716080596e-05  8.4667591279325141e+00 1.5788198043305912e+00 6.0019455706187666e-05  8.3980067660162501e+00 1.6527850278408087e+00 -5.9988741085149677e-05  8.3287341486558990e+00 1.7276763209906090e+00 5.8920041719858584e-05  8.2590776685635863e+00 1.8032263310027181e+00 -5.7240279413260630e-05  8.1889747605562757e+00 1.8796666062043497e+00 5.2488039280355671e-05  8.1185578238138909e+00 1.9566933258070569e+00 -4.5267124894347758e-05  8.0478839026299003e+00 2.0344237363892228e+00 3.6583366181095285e-05  7.9769411784764905e+00 2.1127178981108843e+00 -2.9107727392870628e-05  7.9058009272451919e+00 2.1916437437643439e+00 2.3997814978394717e-05  7.8345558252754355e+00 2.2710050673394582e+00 -1.9313787758179146e-05  7.7631499718871568e+00 2.3509307563582862e+00 1.3272531883819311e-05  7.6916773629649517e+00 2.4312787369945639e+00 -4.2883157725905447e-06  7.6201979174703602e+00 2.5120572717722034e+00 -3.0497020111536691e-06  7.5486663896389201e+00 2.5932147351878574e+00 7.1981761774593716e-06  7.4771694325564519e+00 2.6747556221436888e+00 -6.1572342539366107e-06  7.4057420764228166e+00 2.7566347596456211e+00 5.8473499110941954e-06  7.3343661440992767e+00 2.8387910530799050e+00 -4.7231181155544266e-06  7.2630904029908976e+00 2.9212603770611092e+00 3.9510166072823311e-06  7.1919688603060257e+00 3.0040066804653742e+00 6.2617108413146212e-07  7.1209600518070069e+00 3.0869548647861507e+00 -9.6463595629648105e-07  7.0501337479074957e+00 3.1701361684571365e+00 -9.9965078940331266e-07  6.9795002659231260e+00 3.2535406760594947e+00 5.5185253362654934e-06  6.9090631580025867e+00 3.3371045908534707e+00 -1.8889783433930620e-06  6.8388429398530466e+00 3.4208297785221196e+00 -4.4203651090432461e-07  6.7688814462696500e+00 3.5047098402589305e+00 1.9058587177684290e-06  6.6991491627355710e+00 3.5887281282997550e+00 3.8842317245006120e-06  6.6297004966530055e+00 3.6728528888519811e+00 -2.1981592747510301e-06  6.5605245839478581e+00 3.7570833244389132e+00 3.3341530551143751e-06  6.4916464055740066e+00 3.8413923788703790e+00 -5.2266634596223884e-07  6.4230632301166368e+00 3.9258003074751917e+00 4.6542902586574531e-06  6.3548113322107724e+00 4.0102480103591365e+00 -3.1476904090956364e-07  6.2868653761068209e+00 4.0947625985469802e+00 2.6698233073176134e-06  6.2192728741339103e+00 4.1793013846003628e+00 4.6523107435239103e-07  6.1520137108654929e+00 4.2638847556196664e+00 2.4971097360361767e-06  6.0851134429495426e+00 4.3484703095395405e+00 1.4579875517422362e-06  6.0185719201854635e+00 4.4330771471522441e+00 1.2767129957976584e-06  5.9524089493141865e+00 4.517663757