<?xml version="1.0"?>
<VTKFile type="UnstructuredGrid"  version="0.1"  >
<UnstructuredGrid>
<Piece  NumberOfPoints="201" NumberOfCells="200">
<Points>
<DataArray  type="Float64"  NumberOfComponents="3"  format="ascii">-5 0 0  -4.95 0 0  -4.9 0 0  -4.85 0 0  -4.8 0 0  -4.75 0 0  -4.7 0 0  -4.65 0 0  -4.6 0 0  -4.55 0 0  -4.5 0 0  -4.45 0 0  -4.4 0 0  -4.35 0 0  -4.3 0 0  -4.25 0 0  -4.2 0 0  -4.15 0 0  -4.1 0 0  -4.05 0 0  -4 0 0  -3.95 0 0  -3.9 0 0  -3.85 0 0  -3.8 0 0  -3.75 0 0  -3.7 0 0  -3.65 0 0  -3.6 0 0  -3.55 0 0  -3.5 0 0  -3.45 0 0  -3.4 0 0  -3.35 0 0  -3.3 0 0  -3.25 0 0  -3.2 0 0  -3.15 0 0  -3.1 0 0  -3.05 0 0  -3 0 0  -2.95 0 0  -2.9 0 0  -2.85 0 0  -2.8 0 0  -2.75 0 0  -2.7 0 0  -2.65 0 0  -2.6 0 0  -2.55 0 0  -2.5 0 0  -2.45 0 0  -2.4 0 0  -2.35 0 0  -2.3 0 0  -2.25 0 0  -2.2 0 0  -2.15 0 0  -2.1 0 0  -2.05 0 0  -2 0 0  -1.95 0 0  -1.9 0 0  -1.85 0 0  -1.8 0 0  -1.75 0 0  -1.7 0 0  -1.65 0 0  -1.6 0 0  -1.55 0 0  -1.5 0 0  -1.45 0 0  -1.4 0 0  -1.35 0 0  -1.3 0 0  -1.25 0 0  -1.2 0 0  -1.15 0 0  -1.1 0 0  -1.05 0 0  -1 0 0  -0.9500000000000002 0 0  -0.9000000000000004 0 0  -0.8499999999999996 0 0  -0.7999999999999998 0 0  -0.75 0 0  -0.7000000000000002 0 0  -0.6500000000000004 0 0  -0.5999999999999996 0 0  -0.5499999999999998 0 0  -0.5 0 0  -0.4500000000000002 0 0  -0.4000000000000004 0 0  -0.3499999999999996 0 0  -0.2999999999999998 0 0  -0.25 0 0  -0.2000000000000002 0 0  -0.1500000000000004 0 0  -0.09999999999999964 0 0  -0.04999999999999982 0 0  0 0 0  0.04999999999999982 0 0  0.09999999999999964 0 0  0.1500000000000004 0 0  0.2000000000000002 0 0  0.25 0 0  0.2999999999999998 0 0  0.3499999999999996 0 0  0.4000000000000004 0 0  0.4500000000000002 0 0  0.5 0 0  0.5499999999999998 0 0  0.5999999999999996 0 0  0.6500000000000004 0 0  0.7000000000000002 0 0  0.75 0 0  0.7999999999999998 0 0  0.8499999999999996 0 0  0.9000000000000004 0 0  0.9500000000000002 0 0  1 0 0  1.05 0 0  1.1 0 0  1.15 0 0  1.2 0 0  1.25 0 0  1.3 0 0  1.35 0 0  1.4 0 0  1.45 0 0  1.5 0 0  1.55 0 0  1.6 0 0  1.65 0 0  1.7 0 0  1.75 0 0  1.8 0 0  1.85 0 0  1.9 0 0  1.95 0 0  2 0 0  2.05 0 0  2.1 0 0  2.15 0 0  2.2 0 0  2.25 0 0  2.3 0 0  2.35 0 0  2.4 0 0  2.45 0 0  2.5 0 0  2.55 0 0  2.6 0 0  2.65 0 0  2.7 0 0  2.75 0 0  2.8 0 0  2.85 0 0  2.9 0 0  2.95 0 0  3 0 0  3.050000000000001 0 0  3.1 0 0  3.15 0 0  3.199999999999999 0 0  3.25 0 0  3.300000000000001 0 0  3.35 0 0  3.4 0 0  3.449999999999999 0 0  3.5 0 0  3.550000000000001 0 0  3.6 0 0  3.65 0 0  3.699999999999999 0 0  3.75 0 0  3.800000000000001 0 0  3.85 0 0  3.9 0 0  3.949999999999999 0 0  4 0 0  4.050000000000001 0 0  4.1 0 0  4.15 0 0  4.199999999999999 0 0  4.25 0 0  4.300000000000001 0 0  4.35 0 0  4.4 0 0  4.449999999999999 0 0  4.5 0 0  4.550000000000001 0 0  4.6 0 0  4.65 0 0  4.699999999999999 0 0  4.75 0 0  4.800000000000001 0 0  4.85 0 0  4.9 0 0  4.949999999999999 0 0  5 0 0  </DataArray>
</Points>
<Cells>
<DataArray  type="UInt32"  Name="connectivity"  format="ascii">0 1  1 2  2 3  3 4  4 5  5 6  6 7  7 8  8 9  9 10  10 11  11 12  12 13  13 14  14 15  15 16  16 17  17 18  18 19  19 20  20 21  21 22  22 23  23 24  24 25  25 26  26 27  27 28  28 29  29 30  30 31  31 32  32 33  33 34  34 35  35 36  36 37  37 38  38 39  39 40  40 41  41 42  42 43  43 44  44 45  45 46  46 47  47 48  48 49  49 50  50 51  51 52  52 53  53 54  54 55  55 56  56 57  57 58  58 59  59 60  60 61  61 62  62 63  63 64  64 65  65 66  66 67  67 68  68 69  69 70  70 71  71 72  72 73  73 74  74 75  75 76  76 77  77 78  78 79  79 80  80 81  81 82  82 83  83 84  84 85  85 86  86 87  87 88  88 89  89 90  90 91  91 92  92 93  93 94  94 95  95 96  96 97  97 98  98 99  99 100  100 101  101 102  102 103  103 104  104 105  105 106  106 107  107 108  108 109  109 110  110 111  111 112  112 113  113 114  114 115  115 116  116 117  117 118  118 119  119 120  120 121  121 122  122 123  123 124  124 125  125 126  126 127  127 128  128 129  129 130  130 131  131 132  132 133  133 134  134 135  135 136  136 137  137 138  138 139  139 140  140 141  141 142  142 143  143 144  144 145  145 146  146 147  147 148  148 149  149 150  150 151  151 152  152 153  153 154  154 155  155 156  156 157  157 158  158 159  159 160  160 161  161 162  162 163  163 164  164 165  165 166  166 167  167 168  168 169  169 170  170 171  171 172  172 173  173 174  174 175  175 176  176 177  177 178  178 179  179 180  180 181  181 182  182 183  183 184  184 185  185 186  186 187  187 188  188 189  189 190  190 191  191 192  192 193  193 194  194 195  195 196  196 197  197 198  198 199  199 200  </DataArray>
<DataArray  type="UInt32"  Name="offsets"  format="ascii">2 4 6 8 10 12 14 16 18 20 22 24 26 28 30 32 34 36 38 40 42 44 46 48 50 52 54 56 58 60 62 64 66 68 70 72 74 76 78 80 82 84 86 88 90 92 94 96 98 100 102 104 106 108 110 112 114 116 118 120 122 124 126 128 130 132 134 136 138 140 142 144 146 148 150 152 154 156 158 160 162 164 166 168 170 172 174 176 178 180 182 184 186 188 190 192 194 196 198 200 202 204 206 208 210 212 214 216 218 220 222 224 226 228 230 232 234 236 238 240 242 244 246 248 250 252 254 256 258 260 262 264 266 268 270 272 274 276 278 280 282 284 286 288 290 292 294 296 298 300 302 304 306 308 310 312 314 316 318 320 322 324 326 328 330 332 334 336 338 340 342 344 346 348 350 352 354 356 358 360 362 364 366 368 370 372 374 376 378 380 382 384 386 388 390 392 394 396 398 400 </DataArray>
<DataArray  type="UInt8"  Name="types"  format="ascii">3 3 3 3 3 3 3 3 3 3 3 3 3 3 3 3 3 3 3 3 3 3 3 3 3 3 3 3 3 3 3 3 3 3 3 3 3 3 3 3 3 3 3 3 3 3 3 3 3 3 3 3 3 3 3 3 3 3 3 3 3 3 3 3 3 3 3 3 3 3 3 3 3 3 3 3 3 3 3 3 3 3 3 3 3 3 3 3 3 3 3 3 3 3 3 3 3 3 3 3 3 3 3 3 3 3 3 3 3 3 3 3 3 3 3 3 3 3 3 3 3 3 3 3 3 3 3 3 3 3 3 3 3 3 3 3 3 3 3 3 3 3 3 3 3 3 3 3 3 3 3 3 3 3 3 3 3 3 3 3 3 3 3 3 3 3 3 3 3 3 3 3 3 3 3 3 3 3 3 3 3 3 3 3 3 3 3 3 3 3 3 3 3 3 3 3 3 3 3 3 </DataArray>
</Cells>
<PointData  Vectors="f_5"> 
<DataArray  type="Float64"  Name="f_5"  NumberOfComponents="3" format="ascii">1.0000000000000002e+01 -3.4849355544176723e-19 0.0000000000000000e+00  1.0000000000000000e+01 6.9698711088353474e-19 0.0000000000000000e+00  1.0000000000000004e+01 -2.4394548880923727e-18 0.0000000000000000e+00  9.9967056379960937e+00 3.2626270352670017e-03 0.0000000000000000e+00  9.9281403706749760e+00 7.1289837919620652e-02 0.0000000000000000e+00  9.8598110504622305e+00 1.3931704880397439e-01 0.0000000000000000e+00  9.7917176773578625e+00 2.0734425968832798e-01 0.0000000000000000e+00  9.7238602513618648e+00 2.7537147057268169e-01 0.0000000000000000e+00  9.6562387724742518e+00 3.4339868145703656e-01 0.0000000000000000e+00  9.5888532406950002e+00 4.1142589234138999e-01 0.0000000000000000e+00  9.5217036560241386e+00 4.7945310322574280e-01 0.0000000000000000e+00  9.4547900184616473e+00 5.4748031411009646e-01 0.0000000000000000e+00  9.3881123280075318e+00 6.1550752499444994e-01 0.0000000000000000e+00  9.3216705846617920e+00 6.8353473587880476e-01 0.0000000000000000e+00  9.2554647884244261e+00 7.5156194676315846e-01 0.0000000000000000e+00  9.1894949392954359e+00 8.1958915764751239e-01 0.0000000000000000e+00  9.1237610372748232e+00 8.8761636853186587e-01 0.0000000000000000e+00  9.0582630823625934e+00 9.5564357941621880e-01 0.0000000000000000e+00  8.9930010745587232e+00 1.0236707903005733e+00 0.0000000000000000e+00  8.9279750138632394e+00 1.0916980011849267e+00 0.0000000000000000e+00  8.8631849002761331e+00 1.1597252120692807e+00 0.0000000000000000e+00  8.7986307337973972e+00 1.2277524229536343e+00 0.0000000000000000e+00  8.7343125144270388e+00 1.2957796338379883e+00 0.0000000000000000e+00  8.6702302421650526e+00 1.3638068447223415e+00 0.0000000000000000e+00  8.6063839170114438e+00 1.4318340556066960e+00 0.0000000000000000e+00  8.5427735389662125e+00 1.4998612664910496e+00 0.0000000000000000e+00  8.4793991080293569e+00 1.5678884773754023e+00 0.0000000000000000e+00  8.4162606242008788e+00 1.6359156882597568e+00 0.0000000000000000e+00  8.3533580874807694e+00 1.7039428991441103e+00 0.0000000000000000e+00  8.2906914978690409e+00 1.7719701100284653e+00 0.0000000000000000e+00  8.2282608553656864e+00 1.8399973209128178e+00 0.0000000000000000e+00  8.1660661599707058e+00 1.9080245317971722e+00 0.0000000000000000e+00  8.1041074116841134e+00 1.9760517426815254e+00 0.0000000000000000e+00  8.0423846105058807e+00 2.0440789535658790e+00 0.0000000000000000e+00  7.9808977564360299e+00 2.1121061644502332e+00 0.0000000000000000e+00  7.9196468494745549e+00 2.1801333753345871e+00 0.0000000000000000e+00  7.8586318896214538e+00 2.2481605862189409e+00 0.0000000000000000e+00  7.7978528768767292e+00 2.3161877971032938e+00 0.0000000000000000e+00  7.7373098112403831e+00 2.3842150079876481e+00 0.0000000000000000e+00  7.6770026927124091e+00 2.4522422188720019e+00 0.0000000000000000e+00  7.6169315212928126e+00 2.5202694297563561e+00 0.0000000000000000e+00  7.5570962969815882e+00 2.5882966406407077e+00 0.0000000000000000e+00  7.4974970197787467e+00 2.6563238515250638e+00 0.0000000000000000e+00  7.4381336896842747e+00 2.7243510624094172e+00 0.0000000000000000e+00  7.3790063066981819e+00 2.7923782732937705e+00 0.0000000000000000e+00  7.3201148708204613e+00 2.8604054841781235e+00 0.0000000000000000e+00  7.2614593820511173e+00 2.9284326950624791e+00 0.0000000000000000e+00  7.2030398403901525e+00 2.9964599059468315e+00 0.0000000000000000e+00  7.1448562458375591e+00 3.0644871168311849e+00 0.0000000000000000e+00  7.0869085983933431e+00 3.1325143277155405e+00 0.0000000000000000e+00  7.0291968980575064e+00 3.2005415385998939e+00 0.0000000000000000e+00  6.9717211448300382e+00 3.2685687494842450e+00 0.0000000000000000e+00  6.9144813387109476e+00 3.3365959603686006e+00 0.0000000000000000e+00  6.8574774797002345e+00 3.4046231712529540e+00 0.0000000000000000e+00  6.8007095677978961e+00 3.4726503821373100e+00 0.0000000000000000e+00  6.7441776030039353e+00 3.5406775930216621e+00 0.0000000000000000e+00  6.6878815853183475e+00 3.6087048039060137e+00 0.0000000000000000e+00  6.6318215147411381e+00 3.6767320147903710e+00 0.0000000000000000e+00  6.5759973912723027e+00 3.7447592256747226e+00 0.0000000000000000e+00  6.5204092149118429e+00 3.8127864365590760e+00 0.0000000000000000e+00  6.4650569856597606e+00 3.8808136474434307e+00 0.0000000000000000e+00  6.4099407035160496e+00 3.9488408583277836e+00 0.0000000000000000e+00  6.3550603684807179e+00 4.0168680692121388e+00 0.0000000000000000e+00  6.3004159805537654e+00 4.0848952800964922e+00 0.0000000000000000e+00  6.2460075397351789e+00 4.1529224909808464e+00 0.0000000000000000e+00  6.1918350460249778e+00 4.2209497018652007e+00 0.0000000000000000e+00  6.1378984994231409e+00 4.2889769127495505e+00 0.0000000000000000e+00  6.0841978999296922e+00 4.3570041236339092e+00 0.0000000000000000e+00  6.0307332475446085e+00 4.4250313345182599e+00 0.0000000000000000e+00  5.9775045422679076e+00 4.4930585454026142e+00 0.0000000000000000e+00  5.9245117840995833e+00 4.5610857562869693e+00 0.0000000000000000e+00  5.8717549730396268e+00 4.6291129671713209e+00 0.0000000000000000e+00  5.8192341090880539e+00 4.6971401780556761e+00 0.0000000000000000e+00  5.7669491922448541e+00 4.7651673889400294e+00 0.0000000000000000e+00  5.7149002225100283e+00 4.8331945998243828e+00 0.0000000000000000e+00  5.6630871998835790e+00 4.9012218107087362e+00 0.0000000000000000e+00  5.6115101243655054e+00 4.9692490215930905e+00 0.0000000000000000e+00  5.5601689959558103e+00 5.0372762324774438e+00 0.0000000000000000e+00  5.5090638146544872e+00 5.1053034433618008e+00 0.0000000000000000e+00  5.4581945804615390e+00 5.1733306542461506e+00 0.0000000000000000e+00  5.4075612933769701e+00 5.2413578651305075e+00 0.0000000000000000e+00  5.3571639534007733e+00 5.3093850760148564e+00 0.0000000000000000e+00  5.3070025605329558e+00 5.3774122868992160e+00 0.0000000000000000e+00  5.2570771147735105e+00 5.4454394977835650e+00 0.0000000000000000e+00  5.2073876161224435e+00 5.5134667086679210e+00 0.0000000000000000e+00  5.1579340645797505e+00 5.5814939195522735e+00 0.0000000000000000e+00  5.1087164601454340e+00 5.6495211304366277e+00 0.0000000000000000e+00  5.0597348028194933e+00 5.7175483413209811e+00 0.0000000000000000e+00  5.0109890926019274e+00 5.7855755522053354e+00 0.0000000000000000e+00  4.9624793294927381e+00 5.8536027630896914e+00 0.0000000000000000e+00  4.9142055134919227e+00 5.9216299739740421e+00 0.0000000000000000e+00  4.8661676445994857e+00 5.9896571848583973e+00 0.0000000000000000e+00  4.8183657228154226e+00 6.0576843957427498e+00 0.0000000000000000e+00  4.7707997481397353e+00 6.1257116066271040e+00 0.0000000000000000e+00  4.7234697205724219e+00 6.1937388175114583e+00 0.0000000000000000e+00  4.6763756401134904e+00 6.2617660283958143e+00 0.0000000000000000e+00  4.6295175067629275e+00 6.3297932392801641e+00 0.0000000000000000e+00  4.5828953205207439e+00 6.3978204501645175e+00 0.0000000000000000e+00  4.5365090813869360e+00 6.4658476610488727e+00 0.0000000000000000e+00  4.4903587893615011e+00 6.5338748719332287e+00 0.0000000000000000e+00  4.4444444444444446e+00 6.6019020828175767e+00 0.0000000000000000e+00  4.3987660466357630e+00 6.6699292937019372e+00 0.0000000000000000e+00  4.3533235959354570e+00 6.7379565045862861e+00 0.0000000000000000e+00  4.3081170923435259e+00 6.8059837154706440e+00 0.0000000000000000e+00  4.2631465358599714e+00 6.8740109263549938e+00 0.0000000000000000e+00  4.2184119264847917e+00 6.9420381372393498e+00 0.0000000000000000e+00  4.1739132642179877e+00 7.0100653481237005e+00 0.0000000000000000e+00  4.1296505490595612e+00 7.0780925590080583e+00 0.0000000000000000e+00  4.0856237810095095e+00 7.1461197698924082e+00 0.0000000000000000e+00  4.0418329600678309e+00 7.2141469807767669e+00 0.0000000000000000e+00  3.9982780862345311e+00 7.2821741916611176e+00 0.0000000000000000e+00  3.9618000000000007e+00 7.3396343122977878e+00 0.0000000000000000e+00  3.9618000000000011e+00 7.3396343122977870e+00 0.0000000000000000e+00  3.9618000000000007e+00 7.3396343122977870e+00 0.0000000000000000e+00  3.9618000000000011e+00 7.3396343122977861e+00 0.0000000000000000e+00  3.9618000000000007e+00 7.3396343122977878e+00 0.0000000000000000e+00  3.9618000000000007e+00 7.3396343122977878e+00 0.0000000000000000e+00  3.9618000000000011e+00 7.3396343122977870e+00 0.0000000000000000e+00  3.9618000000000007e+00 7.3396343122977870e+00 0.0000000000000000e+00  3.9618000000000011e+00 7.3396343122977861e+00 0.0000000000000000e+00  3.9618000000000007e+00 7.3396343122977878e+00 0.0000000000000000e+00  3.9618000000000007e+00 7.3396343122977878e+00 0.0000000000000000e+00  3.9618000000000011e+00 7.3396343122977870e+00 0.0000000000000000e+00  3.9618000000000007e+00 7.3396343122977870e+00 0.0000000000000000e+00  3.9618000000000011e+00 7.3396343122977861e+00 0.0000000000000000e+00  3.9618000000000007e+00 7.3396343122977878e+00 0.0000000000000000e+00  3.9618000000000007e+00 7.3396343122977878e+00 0.0000000000000000e+00  3.9618000000000011e+00 7.3396343122977870e+00 0.0000000000000000e+00  3.9618000000000007e+00 7.3396343122977870e+00 0.0000000000000000e+00  3.9618000000000011e+00 7.3396343122977861e+00 0.0000000000000000e+00  3.9618000000000007e+00 7.3396343122977878e+00 0.0000000000000000e+00  3.9618000000000007e+00 7.3396343122977878e+00 0.0000000000000000e+00  3.9618000000000011e+00 7.3396343122977870e+00 0.0000000000000000e+00  3.9618000000000007e+00 7.3396343122977870e+00 0.0000000000000000e+00  3.9618000000000011e+00 7.3396343122977861e+00 0.0000000000000000e+00  3.9618000000000007e+00 7.3396343122977878e+00 0.0000000000000000e+00  3.9618000000000007e+00 7.3396343122977878e+00 0.0000000000000000e+00  3.9618000000000011e+00 7.3396343122977870e+00 0.0000000000000000e+00  3.9618000000000007e+00 7.3396343122977870e+00 0.0000000000000000e+00  3.9618000000000011e+00 7.3396343122977861e+00 0.0000000000000000e+00  3.9618000000000007e+00 7.3396343122977878e+00 0.0000000000000000e+00  3.9618000000000007e+00 7.3396343122977878e+00 0.0000000000000000e+00  3.9618000000000011e+00 7.3396343122977870e+00 0.0000000000000000e+00  3.9618000000000007e+00 7.3396343122977870e+00 0.0000000000000000e+00  3.9618000000000011e+00 7.3396343122977861e+00 0.0000000000000000e+00  3.9618000000000007e+00 7.3396343122977878e+00 0.0000000000000000e+00  3.9618000000000007e+00 7.3396343122977878e+00 0.0000000000000000e+00  3.9618000000000011e+00 7.3396343122977870e+00 0.0000000000000000e+00  3.9618000000000007e+00 7.3396343122977870e+00 0.0000000000000000e+00  3.9618000000000011e+00 7.3396343122977861e+00 0.0000000000000000e+00  3.9618000000000007e+00 7.3396343122977878e+00 0.0000000000000000e+00  3.9618000000000007e+00 7.3396343122977878e+00 0.0000000000000000e+00  3.9618000000000011e+00 7.3396343122977870e+00 0.0000000000000000e+00  3.9618000000000007e+00 7.3396343122977870e+00 0.0000000000000000e+00  3.9618000000000011e+00 7.3396343122977861e+00 0.0000000000000000e+00  3.9618000000000007e+00 7.3396343122977878e+00 0.0000000000000000e+00  3.9618000000000007e+00 7.3396343122977878e+00 0.0000000000000000e+00  3.9618000000000011e+00 7.3396343122977870e+00 0.0000000000000000e+00  3.9618000000000007e+00 7.3396343122977870e+00 0.0000000000000000e+00  3.9618000000000007e+00 7.3396343122977861e+00 0.0000000000000000e+00  3.9618000000000011e+00 7.3396343122977870e+00 0.0000000000000000e+00  3.9618000000000011e+00 7.3396343122977887e+00 0.0000000000000000e+00  3.9618000000000007e+00 7.3396343122977878e+00 0.0000000000000000e+00  3.9618000000000007e+00 7.3396343122977887e+00 0.0000000000000000e+00  3.9618000000000007e+00 7.3396343122977878e+00 0.0000000000000000e+00  3.9618000000000007e+00 7.3396343122977870e+00 0.0000000000000000e+00  3.9618000000000007e+00 7.3396343122977878e+00 0.0000000000000000e+00  3.9618000000000007e+00 7.3396343122977878e+00 0.0000000000000000e+00  3.9618000000000007e+00 7.3396343122977887e+00 0.0000000000000000e+00  3.9618000000000007e+00 7.3396343122977878e+00 0.0000000000000000e+00  3.9618000000000007e+00 7.3396343122977870e+00 0.0000000000000000e+00  3.9618000000000007e+00 7.3396343122977878e+00 0.0000000000000000e+00  3.9618000000000007e+00 7.3396343122977878e+00 0.0000000000000000e+00  3.9618000000000007e+00 7.3396343122977887e+00 0.0000000000000000e+00  3.9618000000000007e+00 7.3396343122977878e+00 0.0000000000000000e+00  3.9618000000000007e+00 7.3396343122977870e+00 0.0000000000000000e+00  3.9618000000000007e+00 7.3396343122977878e+00 0.0000000000000000e+00  3.9618000000000007e+00 7.3396343122977878e+00 0.0000000000000000e+00  3.9618000000000007e+00 7.3396343122977887e+00 0.0000000000000000e+00  3.9618000000000007e+00 7.3396343122977878e+00 0.0000000000000000e+00  3.9618000000000007e+00 7.3396343122977870e+00 0.0000000000000000e+00  3.9618000000000007e+00 7.3396343122977878e+00 0.0000000000000000e+00  3.9618000000000007e+00 7.3396343122977878e+00 0.0000000000000000e+00  3.9618000000000007e+00 7.3396343122977887e+00 0.0000000000000000e+00  3.9618000000000007e+00 7.3396343122977878e+00 0.0000000000000000e+00  3.9618000000000007e+00 7.3396343122977870e+00 0.0000000000000000e+00  3.9618000000000007e+00 7.3396343122977878e+00 0.0000000000000000e+00  3.9618000000000007e+00 7.3396343122977878e+00 0.0000000000000000e+00  3.9618000000000007e+00 7.3396343122977887e+00 0.0000000000000000e+00  3.9618000000000007e+00 7.3396343122977878e+00 0.0000000000000000e+00  3.9618000000000007e+00 7.3396343122977870e+00 0.0000000000000000e+00  3.9618000000000007e+00 7.3396343122977878e+00 0.0000000000000000e+00  3.9618000000000007e+00 7.3396343122977878e+00 0.0000000000000000e+00  3.9618000000000007e+00 7.3396343122977887e+00 0.0000000000000000e+00  3.9618000000000007e+00 7.3396343122977878e+00 0.0000000000000000e+00  3.9618000000000007e+00 7.3396343122977870e+00 0.0000000000000000e+00  3.9618000000000007e+00 7.3396343122977878e+00 0.0000000000000000e+00  9.9999999999999989e-01 2.4045929596401657e-16 0.0000000000000000e+00  1.0000000000000004e+00 -6.4739041221082349e-17 0.0000000000000000e+00  1.0000000000000000e+00 1.8496868920308951e-17 0.0000000000000000e+00  1.0000000000000002e+00 -9.2484344601544710e-18 0.0000000000000000e+00  </DataArray> 
</PointData> 
</Piece>
</UnstructuredGrid>
</VTKFile>