<?xml version="1.0"?>
<VTKFile type="UnstructuredGrid"  version="0.1"  >
<UnstructuredGrid>
<Piece  NumberOfPoints="201" NumberOfCells="200">
<Points>
<DataArray  type="Float64"  NumberOfComponents="3"  format="ascii">-5 0 0  -4.95 0 0  -4.9 0 0  -4.85 0 0  -4.8 0 0  -4.75 0 0  -4.7 0 0  -4.65 0 0  -4.6 0 0  -4.55 0 0  -4.5 0 0  -4.45 0 0  -4.4 0 0  -4.35 0 0  -4.3 0 0  -4.25 0 0  -4.2 0 0  -4.15 0 0  -4.1 0 0  -4.05 0 0  -4 0 0  -3.95 0 0  -3.9 0 0  -3.85 0 0  -3.8 0 0  -3.75 0 0  -3.7 0 0  -3.65 0 0  -3.6 0 0  -3.55 0 0  -3.5 0 0  -3.45 0 0  -3.4 0 0  -3.35 0 0  -3.3 0 0  -3.25 0 0  -3.2 0 0  -3.15 0 0  -3.1 0 0  -3.05 0 0  -3 0 0  -2.95 0 0  -2.9 0 0  -2.85 0 0  -2.8 0 0  -2.75 0 0  -2.7 0 0  -2.65 0 0  -2.6 0 0  -2.55 0 0  -2.5 0 0  -2.45 0 0  -2.4 0 0  -2.35 0 0  -2.3 0 0  -2.25 0 0  -2.2 0 0  -2.15 0 0  -2.1 0 0  -2.05 0 0  -2 0 0  -1.95 0 0  -1.9 0 0  -1.85 0 0  -1.8 0 0  -1.75 0 0  -1.7 0 0  -1.65 0 0  -1.6 0 0  -1.55 0 0  -1.5 0 0  -1.45 0 0  -1.4 0 0  -1.35 0 0  -1.3 0 0  -1.25 0 0  -1.2 0 0  -1.15 0 0  -1.1 0 0  -1.05 0 0  -1 0 0  -0.9500000000000002 0 0  -0.9000000000000004 0 0  -0.8499999999999996 0 0  -0.7999999999999998 0 0  -0.75 0 0  -0.7000000000000002 0 0  -0.6500000000000004 0 0  -0.5999999999999996 0 0  -0.5499999999999998 0 0  -0.5 0 0  -0.4500000000000002 0 0  -0.4000000000000004 0 0  -0.3499999999999996 0 0  -0.2999999999999998 0 0  -0.25 0 0  -0.2000000000000002 0 0  -0.1500000000000004 0 0  -0.09999999999999964 0 0  -0.04999999999999982 0 0  0 0 0  0.04999999999999982 0 0  0.09999999999999964 0 0  0.1500000000000004 0 0  0.2000000000000002 0 0  0.25 0 0  0.2999999999999998 0 0  0.3499999999999996 0 0  0.4000000000000004 0 0  0.4500000000000002 0 0  0.5 0 0  0.5499999999999998 0 0  0.5999999999999996 0 0  0.6500000000000004 0 0  0.7000000000000002 0 0  0.75 0 0  0.7999999999999998 0 0  0.8499999999999996 0 0  0.9000000000000004 0 0  0.9500000000000002 0 0  1 0 0  1.05 0 0  1.1 0 0  1.15 0 0  1.2 0 0  1.25 0 0  1.3 0 0  1.35 0 0  1.4 0 0  1.45 0 0  1.5 0 0  1.55 0 0  1.6 0 0  1.65 0 0  1.7 0 0  1.75 0 0  1.8 0 0  1.85 0 0  1.9 0 0  1.95 0 0  2 0 0  2.05 0 0  2.1 0 0  2.15 0 0  2.2 0 0  2.25 0 0  2.3 0 0  2.35 0 0  2.4 0 0  2.45 0 0  2.5 0 0  2.55 0 0  2.6 0 0  2.65 0 0  2.7 0 0  2.75 0 0  2.8 0 0  2.85 0 0  2.9 0 0  2.95 0 0  3 0 0  3.050000000000001 0 0  3.1 0 0  3.15 0 0  3.199999999999999 0 0  3.25 0 0  3.300000000000001 0 0  3.35 0 0  3.4 0 0  3.449999999999999 0 0  3.5 0 0  3.550000000000001 0 0  3.6 0 0  3.65 0 0  3.699999999999999 0 0  3.75 0 0  3.800000000000001 0 0  3.85 0 0  3.9 0 0  3.949999999999999 0 0  4 0 0  4.050000000000001 0 0  4.1 0 0  4.15 0 0  4.199999999999999 0 0  4.25 0 0  4.300000000000001 0 0  4.35 0 0  4.4 0 0  4.449999999999999 0 0  4.5 0 0  4.550000000000001 0 0  4.6 0 0  4.65 0 0  4.699999999999999 0 0  4.75 0 0  4.800000000000001 0 0  4.85 0 0  4.9 0 0  4.949999999999999 0 0  5 0 0  </DataArray>
</Points>
<Cells>
<DataArray  type="UInt32"  Name="connectivity"  format="ascii">0 1  1 2  2 3  3 4  4 5  5 6  6 7  7 8  8 9  9 10  10 11  11 12  12 13  13 14  14 15  15 16  16 17  17 18  18 19  19 20  20 21  21 22  22 23  23 24  24 25  25 26  26 27  27 28  28 29  29 30  30 31  31 32  32 33  33 34  34 35  35 36  36 37  37 38  38 39  39 40  40 41  41 42  42 43  43 44  44 45  45 46  46 47  47 48  48 49  49 50  50 51  51 52  52 53  53 54  54 55  55 56  56 57  57 58  58 59  59 60  60 61  61 62  62 63  63 64  64 65  65 66  66 67  67 68  68 69  69 70  70 71  71 72  72 73  73 74  74 75  75 76  76 77  77 78  78 79  79 80  80 81  81 82  82 83  83 84  84 85  85 86  86 87  87 88  88 89  89 90  90 91  91 92  92 93  93 94  94 95  95 96  96 97  97 98  98 99  99 100  100 101  101 102  102 103  103 104  104 105  105 106  106 107  107 108  108 109  109 110  110 111  111 112  112 113  113 114  114 115  115 116  116 117  117 118  118 119  119 120  120 121  121 122  122 123  123 124  124 125  125 126  126 127  127 128  128 129  129 130  130 131  131 132  132 133  133 134  134 135  135 136  136 137  137 138  138 139  139 140  140 141  141 142  142 143  143 144  144 145  145 146  146 147  147 148  148 149  149 150  150 151  151 152  152 153  153 154  154 155  155 156  156 157  157 158  158 159  159 160  160 161  161 162  162 163  163 164  164 165  165 166  166 167  167 168  168 169  169 170  170 171  171 172  172 173  173 174  174 175  175 176  176 177  177 178  178 179  179 180  180 181  181 182  182 183  183 184  184 185  185 186  186 187  187 188  188 189  189 190  190 191  191 192  192 193  193 194  194 195  195 196  196 197  197 198  198 199  199 200  </DataArray>
<DataArray  type="UInt32"  Name="offsets"  format="ascii">2 4 6 8 10 12 14 16 18 20 22 24 26 28 30 32 34 36 38 40 42 44 46 48 50 52 54 56 58 60 62 64 66 68 70 72 74 76 78 80 82 84 86 88 90 92 94 96 98 100 102 104 106 108 110 112 114 116 118 120 122 124 126 128 130 132 134 136 138 140 142 144 146 148 150 152 154 156 158 160 162 164 166 168 170 172 174 176 178 180 182 184 186 188 190 192 194 196 198 200 202 204 206 208 210 212 214 216 218 220 222 224 226 228 230 232 234 236 238 240 242 244 246 248 250 252 254 256 258 260 262 264 266 268 270 272 274 276 278 280 282 284 286 288 290 292 294 296 298 300 302 304 306 308 310 312 314 316 318 320 322 324 326 328 330 332 334 336 338 340 342 344 346 348 350 352 354 356 358 360 362 364 366 368 370 372 374 376 378 380 382 384 386 388 390 392 394 396 398 400 </DataArray>
<DataArray  type="UInt8"  Name="types"  format="ascii">3 3 3 3 3 3 3 3 3 3 3 3 3 3 3 3 3 3 3 3 3 3 3 3 3 3 3 3 3 3 3 3 3 3 3 3 3 3 3 3 3 3 3 3 3 3 3 3 3 3 3 3 3 3 3 3 3 3 3 3 3 3 3 3 3 3 3 3 3 3 3 3 3 3 3 3 3 3 3 3 3 3 3 3 3 3 3 3 3 3 3 3 3 3 3 3 3 3 3 3 3 3 3 3 3 3 3 3 3 3 3 3 3 3 3 3 3 3 3 3 3 3 3 3 3 3 3 3 3 3 3 3 3 3 3 3 3 3 3 3 3 3 3 3 3 3 3 3 3 3 3 3 3 3 3 3 3 3 3 3 3 3 3 3 3 3 3 3 3 3 3 3 3 3 3 3 3 3 3 3 3 3 3 3 3 3 3 3 3 3 3 3 3 3 3 3 3 3 3 3 </DataArray>
</Cells>
<PointData  Vectors="f_5"> 
<DataArray  type="Float64"  Name="f_5"  NumberOfComponents="3" format="ascii">1.0000000000000002e+01 -2.4075547871624845e-21 0.0000000000000000e+00  1.0000000000000002e+01 4.8151095743249698e-21 0.0000000000000000e+00  1.0000000000000002e+01 -1.6852883510137401e-20 0.0000000000000000e+00  1.0000000000000002e+01 6.2596424466224157e-20 0.0000000000000000e+00  1.0000000000000002e+01 -2.3353281435476121e-19 0.0000000000000000e+00  1.0000000000000004e+01 8.7153483295282114e-19 0.0000000000000000e+00  1.0000000000000000e+01 -3.2526065174565249e-18 0.0000000000000000e+00  9.9937831605184790e+00 6.1574019665163512e-03 0.0000000000000000e+00  9.9223159235716132e+00 7.7079387782119313e-02 0.0000000000000000e+00  9.8511051415850179e+00 1.4800137359772239e-01 0.0000000000000000e+00  9.7801508145586737e+00 2.1892335941332536e-01 0.0000000000000000e+00  9.7094529424925877e+00 2.8984534522892719e-01 0.0000000000000000e+00  9.6390115253867634e+00 3.6076733104453018e-01 0.0000000000000000e+00  9.5688265632411955e+00 4.3168931686013434e-01 0.0000000000000000e+00  9.4988980560558840e+00 5.0261130267573639e-01 0.0000000000000000e+00  9.4292260038308360e+00 5.7353328849133933e-01 0.0000000000000000e+00  9.3598104065660355e+00 6.4445527430694238e-01 0.0000000000000000e+00  9.2906512642615020e+00 7.1537726012254432e-01 0.0000000000000000e+00  9.2217485769172249e+00 7.8629924593814859e-01 0.0000000000000000e+00  9.1531023445332025e+00 8.5722123175375142e-01 0.0000000000000000e+00  9.0847125671094417e+00 9.2814321756935303e-01 0.0000000000000000e+00  9.0165792446459374e+00 9.9906520338495652e-01 0.0000000000000000e+00  8.9487023771426912e+00 1.0699871892005590e+00 0.0000000000000000e+00  8.8810819645997050e+00 1.1409091750161622e+00 0.0000000000000000e+00  8.8137180070169734e+00 1.2118311608317651e+00 0.0000000000000000e+00  8.7466105043944999e+00 1.2827531466473678e+00 0.0000000000000000e+00  8.6797594567322829e+00 1.3536751324629701e+00 0.0000000000000000e+00  8.6131648640303329e+00 1.4245971182785733e+00 0.0000000000000000e+00  8.5468267262886304e+00 1.4955191040941760e+00 0.0000000000000000e+00  8.4807450435071932e+00 1.5664410899097796e+00 0.0000000000000000e+00  8.4149198156860141e+00 1.6373630757253814e+00 0.0000000000000000e+00  8.3493510428250879e+00 1.7082850615409850e+00 0.0000000000000000e+00  8.2840387249244198e+00 1.7792070473565875e+00 0.0000000000000000e+00  8.2189828619840153e+00 1.8501290331721902e+00 0.0000000000000000e+00  8.1541834540038636e+00 1.9210510189877934e+00 0.0000000000000000e+00  8.0896405009839700e+00 1.9919730048033959e+00 0.0000000000000000e+00  8.0253540029243382e+00 2.0628949906189993e+00 0.0000000000000000e+00  7.9613239598249610e+00 2.1338169764346007e+00 0.0000000000000000e+00  7.8975503716858446e+00 2.2047389622502047e+00 0.0000000000000000e+00  7.8340332385069811e+00 2.2756609480658074e+00 0.0000000000000000e+00  7.7707725602883810e+00 2.3465829338814106e+00 0.0000000000000000e+00  7.7077683370300365e+00 2.4175049196970129e+00 0.0000000000000000e+00  7.6450205687319528e+00 2.4884269055126156e+00 0.0000000000000000e+00  7.5825292553941237e+00 2.5593488913282183e+00 0.0000000000000000e+00  7.5202943970165537e+00 2.6302708771438219e+00 0.0000000000000000e+00  7.4583159935992427e+00 2.7011928629594237e+00 0.0000000000000000e+00  7.3965940451421917e+00 2.7721148487750265e+00 0.0000000000000000e+00  7.3351285516453961e+00 2.8430368345906301e+00 0.0000000000000000e+00  7.2739195131088543e+00 2.9139588204062328e+00 0.0000000000000000e+00  7.2129669295325769e+00 2.9848808062218359e+00 0.0000000000000000e+00  7.1522708009165550e+00 3.0558027920374395e+00 0.0000000000000000e+00  7.0918311272607912e+00 3.1267247778530405e+00 0.0000000000000000e+00  7.0316479085652848e+00 3.1976467636686445e+00 0.0000000000000000e+00  6.9717211448300382e+00 3.2685687494842481e+00 0.0000000000000000e+00  6.9120508360550463e+00 3.3394907352998495e+00 0.0000000000000000e+00  6.8526369822403179e+00 3.4104127211154531e+00 0.0000000000000000e+00  6.7934795833858423e+00 3.4813347069310541e+00 0.0000000000000000e+00  6.7345786394916285e+00 3.5522566927466594e+00 0.0000000000000000e+00  6.6759341505576684e+00 3.6231786785622608e+00 0.0000000000000000e+00  6.6175461165839700e+00 3.6941006643778644e+00 0.0000000000000000e+00  6.5594145375705288e+00 3.7650226501934663e+00 0.0000000000000000e+00  6.5015394135173468e+00 3.8359446360090694e+00 0.0000000000000000e+00  6.4439207444244193e+00 3.9068666218246739e+00 0.0000000000000000e+00  6.3865585302917536e+00 3.9777886076402740e+00 0.0000000000000000e+00  6.3294527711193433e+00 4.0487105934558789e+00 0.0000000000000000e+00  6.2726034669071922e+00 4.1196325792714799e+00 0.0000000000000000e+00  6.2160106176552974e+00 4.1905545650870843e+00 0.0000000000000000e+00  6.1596742233636652e+00 4.2614765509026871e+00 0.0000000000000000e+00  6.1035942840322859e+00 4.3323985367182907e+00 0.0000000000000000e+00  6.0477707996611665e+00 4.4033205225338925e+00 0.0000000000000000e+00  5.9922037702503070e+00 4.4742425083494952e+00 0.0000000000000000e+00  5.9368931957996995e+00 4.5451644941650970e+00 0.0000000000000000e+00  5.8818390763093573e+00 4.6160864799807015e+00 0.0000000000000000e+00  5.8270414117792662e+00 4.6870084657963034e+00 0.0000000000000000e+00  5.7725002022094412e+00 4.7579304516119079e+00 0.0000000000000000e+00  5.7182154475998708e+00 4.8288524374275097e+00 0.0000000000000000e+00  5.6641871479505559e+00 4.8997744232431124e+00 0.0000000000000000e+00  5.6104153032615027e+00 4.9706964090587142e+00 0.0000000000000000e+00  5.5568999135327024e+00 5.0416183948743170e+00 0.0000000000000000e+00  5.5036409787641656e+00 5.1125403806899223e+00 0.0000000000000000e+00  5.4506384989558834e+00 5.1834623665055251e+00 0.0000000000000000e+00  5.3978924741078611e+00 5.2543843523211242e+00 0.0000000000000000e+00  5.3454029042200961e+00 5.3253063381367305e+00 0.0000000000000000e+00  5.2931697892925857e+00 5.3962283239523314e+00 0.0000000000000000e+00  5.2411931293253406e+00 5.4671503097679359e+00 0.0000000000000000e+00  5.1894729243183466e+00 5.5380722955835378e+00 0.0000000000000000e+00  5.1380091742716143e+00 5.6089942813991387e+00 0.0000000000000000e+00  5.0868018791851428e+00 5.6799162672147450e+00 0.0000000000000000e+00  5.0358510390589224e+00 5.7508382530303459e+00 0.0000000000000000e+00  4.9851566538929637e+00 5.8217602388459495e+00 0.0000000000000000e+00  4.9347187236872632e+00 5.8926822246615513e+00 0.0000000000000000e+00  4.8845372484418199e+00 5.9636042104771549e+00 0.0000000000000000e+00  4.8346122281566375e+00 6.0345261962927568e+00 0.0000000000000000e+00  4.7849436628317088e+00 6.1054481821083622e+00 0.0000000000000000e+00  4.7355315524670374e+00 6.1763701679239631e+00 0.0000000000000000e+00  4.6863758970626286e+00 6.2472921537395676e+00 0.0000000000000000e+00  4.6374766966184744e+00 6.3182141395551676e+00 0.0000000000000000e+00  4.5888339511345801e+00 6.3891361253707730e+00 0.0000000000000000e+00  4.5404476606109441e+00 6.4600581111863740e+00 0.0000000000000000e+00  4.4923178250475644e+00 6.5309800970019767e+00 0.0000000000000000e+00  4.4444444444444438e+00 6.6019020828175794e+00 0.0000000000000000e+00  4.3968275188015813e+00 6.6728240686331848e+00 0.0000000000000000e+00  4.3494670481189761e+00 6.7437460544487866e+00 0.0000000000000000e+00  4.3023630323966309e+00 6.8146680402643902e+00 0.0000000000000000e+00  4.2555154716345394e+00 6.8855900260799912e+00 0.0000000000000000e+00  4.2089243658327113e+00 6.9565120118955948e+00 0.0000000000000000e+00  4.1625897149911397e+00 7.0274339977111975e+00 0.0000000000000000e+00  4.1165115191098227e+00 7.0983559835267993e+00 0.0000000000000000e+00  4.0706897781887657e+00 7.1692779693424029e+00 0.0000000000000000e+00  4.0251244922279685e+00 7.2401999551580065e+00 0.0000000000000000e+00  3.9798156612274278e+00 7.3111219409736101e+00 0.0000000000000000e+00  3.9618000000000007e+00 7.3396343122977878e+00 0.0000000000000000e+00  3.9618000000000011e+00 7.3396343122977870e+00 0.0000000000000000e+00  3.9618000000000007e+00 7.3396343122977870e+00 0.0000000000000000e+00  3.9618000000000011e+00 7.3396343122977861e+00 0.0000000000000000e+00  3.9618000000000007e+00 7.3396343122977878e+00 0.0000000000000000e+00  3.9618000000000007e+00 7.3396343122977878e+00 0.0000000000000000e+00  3.9618000000000011e+00 7.3396343122977870e+00 0.0000000000000000e+00  3.9618000000000007e+00 7.3396343122977870e+00 0.0000000000000000e+00  3.9618000000000011e+00 7.3396343122977861e+00 0.0000000000000000e+00  3.9618000000000007e+00 7.3396343122977878e+00 0.0000000000000000e+00  3.9618000000000007e+00 7.3396343122977878e+00 0.0000000000000000e+00  3.9618000000000011e+00 7.3396343122977870e+00 0.0000000000000000e+00  3.9618000000000007e+00 7.3396343122977870e+00 0.0000000000000000e+00  3.9618000000000011e+00 7.3396343122977861e+00 0.0000000000000000e+00  3.9618000000000007e+00 7.3396343122977878e+00 0.0000000000000000e+00  3.9618000000000007e+00 7.3396343122977878e+00 0.0000000000000000e+00  3.9618000000000011e+00 7.3396343122977870e+00 0.0000000000000000e+00  3.9618000000000007e+00 7.3396343122977870e+00 0.0000000000000000e+00  3.9618000000000011e+00 7.3396343122977861e+00 0.0000000000000000e+00  3.9618000000000007e+00 7.3396343122977878e+00 0.0000000000000000e+00  3.9618000000000007e+00 7.3396343122977878e+00 0.0000000000000000e+00  3.9618000000000011e+00 7.3396343122977870e+00 0.0000000000000000e+00  3.9618000000000007e+00 7.3396343122977870e+00 0.0000000000000000e+00  3.9618000000000011e+00 7.3396343122977861e+00 0.0000000000000000e+00  3.9618000000000007e+00 7.3396343122977878e+00 0.0000000000000000e+00  3.9618000000000007e+00 7.3396343122977878e+00 0.0000000000000000e+00  3.9618000000000011e+00 7.3396343122977870e+00 0.0000000000000000e+00  3.9618000000000007e+00 7.3396343122977870e+00 0.0000000000000000e+00  3.9618000000000011e+00 7.3396343122977861e+00 0.0000000000000000e+00  3.9618000000000007e+00 7.3396343122977878e+00 0.0000000000000000e+00  3.9618000000000007e+00 7.3396343122977878e+00 0.0000000000000000e+00  3.9618000000000011e+00 7.3396343122977870e+00 0.0000000000000000e+00  3.9618000000000007e+00 7.3396343122977870e+00 0.0000000000000000e+00  3.9618000000000011e+00 7.3396343122977861e+00 0.0000000000000000e+00  3.9618000000000007e+00 7.3396343122977878e+00 0.0000000000000000e+00  3.9618000000000007e+00 7.3396343122977878e+00 0.0000000000000000e+00  3.9618000000000011e+00 7.3396343122977870e+00 0.0000000000000000e+00  3.9618000000000007e+00 7.3396343122977870e+00 0.0000000000000000e+00  3.9618000000000011e+00 7.3396343122977861e+00 0.0000000000000000e+00  3.9618000000000007e+00 7.3396343122977878e+00 0.0000000000000000e+00  3.9618000000000007e+00 7.3396343122977878e+00 0.0000000000000000e+00  3.9618000000000011e+00 7.3396343122977870e+00 0.0000000000000000e+00  3.9618000000000007e+00 7.3396343122977870e+00 0.0000000000000000e+00  3.9618000000000011e+00 7.3396343122977861e+00 0.0000000000000000e+00  3.9618000000000007e+00 7.3396343122977878e+00 0.0000000000000000e+00  3.9618000000000007e+00 7.3396343122977878e+00 0.0000000000000000e+00  3.9618000000000011e+00 7.3396343122977870e+00 0.0000000000000000e+00  3.9618000000000007e+00 7.3396343122977870e+00 0.0000000000000000e+00  3.9618000000000007e+00 7.3396343122977861e+00 0.0000000000000000e+00  3.9618000000000011e+00 7.3396343122977870e+00 0.0000000000000000e+00  3.9618000000000011e+00 7.3396343122977887e+00 0.0000000000000000e+00  3.9618000000000007e+00 7.3396343122977878e+00 0.0000000000000000e+00  3.9618000000000007e+00 7.3396343122977887e+00 0.0000000000000000e+00  3.9618000000000007e+00 7.3396343122977878e+00 0.0000000000000000e+00  3.9618000000000007e+00 7.3396343122977870e+00 0.0000000000000000e+00  3.9618000000000007e+00 7.3396343122977878e+00 0.0000000000000000e+00  3.9618000000000007e+00 7.3396343122977878e+00 0.0000000000000000e+00  3.9618000000000007e+00 7.3396343122977887e+00 0.0000000000000000e+00  3.9618000000000007e+00 7.3396343122977878e+00 0.0000000000000000e+00  3.9618000000000007e+00 7.3396343122977870e+00 0.0000000000000000e+00  3.9618000000000007e+00 7.3396343122977878e+00 0.0000000000000000e+00  3.9618000000000007e+00 7.3396343122977878e+00 0.0000000000000000e+00  3.9618000000000007e+00 7.3396343122977887e+00 0.0000000000000000e+00  3.9618000000000007e+00 7.3396343122977878e+00 0.0000000000000000e+00  3.9618000000000007e+00 7.3396343122977870e+00 0.0000000000000000e+00  3.9618000000000007e+00 7.3396343122977878e+00 0.0000000000000000e+00  3.9618000000000007e+00 7.3396343122977878e+00 0.0000000000000000e+00  3.9618000000000007e+00 7.3396343122977887e+00 0.0000000000000000e+00  3.9618000000000007e+00 7.3396343122977878e+00 0.0000000000000000e+00  3.9618000000000007e+00 7.3396343122977870e+00 0.0000000000000000e+00  3.9618000000000007e+00 7.3396343122977878e+00 0.0000000000000000e+00  3.9618000000000007e+00 7.3396343122977878e+00 0.0000000000000000e+00  3.9618000000000007e+00 7.3396343122977887e+00 0.0000000000000000e+00  3.9618000000000007e+00 7.3396343122977878e+00 0.0000000000000000e+00  3.9618000000000007e+00 7.3396343122977870e+00 0.0000000000000000e+00  3.9618000000000007e+00 7.3396343122977878e+00 0.0000000000000000e+00  3.9618000000000007e+00 7.3396343122977878e+00 0.0000000000000000e+00  3.9618000000000007e+00 7.3396343122977887e+00 0.0000000000000000e+00  3.9618000000000007e+00 7.3396343122977878e+00 0.0000000000000000e+00  3.9618000000000007e+00 7.3396343122977870e+00 0.0000000000000000e+00  3.9618000000000011e+00 7.3396343122977887e+00 0.0000000000000000e+00  3.9618000000000002e+00 7.3396343122977870e+00 0.0000000000000000e+00  1.0000000000000007e+00 7.2111101448531205e-16 0.0000000000000000e+00  1.0000000000000000e+00 -1.9322113855010716e-16 0.0000000000000000e+00  1.0000000000000002e+00 5.1773539715128669e-17 0.0000000000000000e+00  1.0000000000000002e+00 -1.3873020310407611e-17 0.0000000000000000e+00  9.9999999999999989e-01 3.7185415265009505e-18 0.0000000000000000e+00  1.0000000000000004e+00 -1.0011457955964248e-18 0.0000000000000000e+00  1.0000000000000000e+00 2.8604165588468825e-19 0.0000000000000000e+00  1.0000000000000002e+00 -1.4302082794234405e-19 0.0000000000000000e+00  </DataArray> 
</PointData> 
</Piece>
</UnstructuredGrid>
</VTKFile>