<?xml version="1.0"?>
<VTKFile type="UnstructuredGrid"  version="0.1"  >
<UnstructuredGrid>
<Piece  NumberOfPoints="201" NumberOfCells="200">
<Points>
<DataArray  type="Float64"  NumberOfComponents="3"  format="ascii">-5 0 0  -4.95 0 0  -4.9 0 0  -4.85 0 0  -4.8 0 0  -4.75 0 0  -4.7 0 0  -4.65 0 0  -4.6 0 0  -4.55 0 0  -4.5 0 0  -4.45 0 0  -4.4 0 0  -4.35 0 0  -4.3 0 0  -4.25 0 0  -4.2 0 0  -4.15 0 0  -4.1 0 0  -4.05 0 0  -4 0 0  -3.95 0 0  -3.9 0 0  -3.85 0 0  -3.8 0 0  -3.75 0 0  -3.7 0 0  -3.65 0 0  -3.6 0 0  -3.55 0 0  -3.5 0 0  -3.45 0 0  -3.4 0 0  -3.35 0 0  -3.3 0 0  -3.25 0 0  -3.2 0 0  -3.15 0 0  -3.1 0 0  -3.05 0 0  -3 0 0  -2.95 0 0  -2.9 0 0  -2.85 0 0  -2.8 0 0  -2.75 0 0  -2.7 0 0  -2.65 0 0  -2.6 0 0  -2.55 0 0  -2.5 0 0  -2.45 0 0  -2.4 0 0  -2.35 0 0  -2.3 0 0  -2.25 0 0  -2.2 0 0  -2.15 0 0  -2.1 0 0  -2.05 0 0  -2 0 0  -1.95 0 0  -1.9 0 0  -1.85 0 0  -1.8 0 0  -1.75 0 0  -1.7 0 0  -1.65 0 0  -1.6 0 0  -1.55 0 0  -1.5 0 0  -1.45 0 0  -1.4 0 0  -1.35 0 0  -1.3 0 0  -1.25 0 0  -1.2 0 0  -1.15 0 0  -1.1 0 0  -1.05 0 0  -1 0 0  -0.9500000000000002 0 0  -0.9000000000000004 0 0  -0.8499999999999996 0 0  -0.7999999999999998 0 0  -0.75 0 0  -0.7000000000000002 0 0  -0.6500000000000004 0 0  -0.5999999999999996 0 0  -0.5499999999999998 0 0  -0.5 0 0  -0.4500000000000002 0 0  -0.4000000000000004 0 0  -0.3499999999999996 0 0  -0.2999999999999998 0 0  -0.25 0 0  -0.2000000000000002 0 0  -0.1500000000000004 0 0  -0.09999999999999964 0 0  -0.04999999999999982 0 0  0 0 0  0.04999999999999982 0 0  0.09999999999999964 0 0  0.1500000000000004 0 0  0.2000000000000002 0 0  0.25 0 0  0.2999999999999998 0 0  0.3499999999999996 0 0  0.4000000000000004 0 0  0.4500000000000002 0 0  0.5 0 0  0.5499999999999998 0 0  0.5999999999999996 0 0  0.6500000000000004 0 0  0.7000000000000002 0 0  0.75 0 0  0.7999999999999998 0 0  0.8499999999999996 0 0  0.9000000000000004 0 0  0.9500000000000002 0 0  1 0 0  1.05 0 0  1.1 0 0  1.15 0 0  1.2 0 0  1.25 0 0  1.3 0 0  1.35 0 0  1.4 0 0  1.45 0 0  1.5 0 0  1.55 0 0  1.6 0 0  1.65 0 0  1.7 0 0  1.75 0 0  1.8 0 0  1.85 0 0  1.9 0 0  1.95 0 0  2 0 0  2.05 0 0  2.1 0 0  2.15 0 0  2.2 0 0  2.25 0 0  2.3 0 0  2.35 0 0  2.4 0 0  2.45 0 0  2.5 0 0  2.55 0 0  2.6 0 0  2.65 0 0  2.7 0 0  2.75 0 0  2.8 0 0  2.85 0 0  2.9 0 0  2.95 0 0  3 0 0  3.050000000000001 0 0  3.1 0 0  3.15 0 0  3.199999999999999 0 0  3.25 0 0  3.300000000000001 0 0  3.35 0 0  3.4 0 0  3.449999999999999 0 0  3.5 0 0  3.550000000000001 0 0  3.6 0 0  3.65 0 0  3.699999999999999 0 0  3.75 0 0  3.800000000000001 0 0  3.85 0 0  3.9 0 0  3.949999999999999 0 0  4 0 0  4.050000000000001 0 0  4.1 0 0  4.15 0 0  4.199999999999999 0 0  4.25 0 0  4.300000000000001 0 0  4.35 0 0  4.4 0 0  4.449999999999999 0 0  4.5 0 0  4.550000000000001 0 0  4.6 0 0  4.65 0 0  4.699999999999999 0 0  4.75 0 0  4.800000000000001 0 0  4.85 0 0  4.9 0 0  4.949999999999999 0 0  5 0 0  </DataArray>
</Points>
<Cells>
<DataArray  type="UInt32"  Name="connectivity"  format="ascii">0 1  1 2  2 3  3 4  4 5  5 6  6 7  7 8  8 9  9 10  10 11  11 12  12 13  13 14  14 15  15 16  16 17  17 18  18 19  19 20  20 21  21 22  22 23  23 24  24 25  25 26  26 27  27 28  28 29  29 30  30 31  31 32  32 33  33 34  34 35  35 36  36 37  37 38  38 39  39 40  40 41  41 42  42 43  43 44  44 45  45 46  46 47  47 48  48 49  49 50  50 51  51 52  52 53  53 54  54 55  55 56  56 57  57 58  58 59  59 60  60 61  61 62  62 63  63 64  64 65  65 66  66 67  67 68  68 69  69 70  70 71  71 72  72 73  73 74  74 75  75 76  76 77  77 78  78 79  79 80  80 81  81 82  82 83  83 84  84 85  85 86  86 87  87 88  88 89  89 90  90 91  91 92  92 93  93 94  94 95  95 96  96 97  97 98  98 99  99 100  100 101  101 102  102 103  103 104  104 105  105 106  106 107  107 108  108 109  109 110  110 111  111 112  112 113  113 114  114 115  115 116  116 117  117 118  118 119  119 120  120 121  121 122  122 123  123 124  124 125  125 126  126 127  127 128  128 129  129 130  130 131  131 132  132 133  133 134  134 135  135 136  136 137  137 138  138 139  139 140  140 141  141 142  142 143  143 144  144 145  145 146  146 147  147 148  148 149  149 150  150 151  151 152  152 153  153 154  154 155  155 156  156 157  157 158  158 159  159 160  160 161  161 162  162 163  163 164  164 165  165 166  166 167  167 168  168 169  169 170  170 171  171 172  172 173  173 174  174 175  175 176  176 177  177 178  178 179  179 180  180 181  181 182  182 183  183 184  184 185  185 186  186 187  187 188  188 189  189 190  190 191  191 192  192 193  193 194  194 195  195 196  196 197  197 198  198 199  199 200  </DataArray>
<DataArray  type="UInt32"  Name="offsets"  format="ascii">2 4 6 8 10 12 14 16 18 20 22 24 26 28 30 32 34 36 38 40 42 44 46 48 50 52 54 56 58 60 62 64 66 68 70 72 74 76 78 80 82 84 86 88 90 92 94 96 98 100 102 104 106 108 110 112 114 116 118 120 122 124 126 128 130 132 134 136 138 140 142 144 146 148 150 152 154 156 158 160 162 164 166 168 170 172 174 176 178 180 182 184 186 188 190 192 194 196 198 200 202 204 206 208 210 212 214 216 218 220 222 224 226 228 230 232 234 236 238 240 242 244 246 248 250 252 254 256 258 260 262 264 266 268 270 272 274 276 278 280 282 284 286 288 290 292 294 296 298 300 302 304 306 308 310 312 314 316 318 320 322 324 326 328 330 332 334 336 338 340 342 344 346 348 350 352 354 356 358 360 362 364 366 368 370 372 374 376 378 380 382 384 386 388 390 392 394 396 398 400 </DataArray>
<DataArray  type="UInt8"  Name="types"  format="ascii">3 3 3 3 3 3 3 3 3 3 3 3 3 3 3 3 3 3 3 3 3 3 3 3 3 3 3 3 3 3 3 3 3 3 3 3 3 3 3 3 3 3 3 3 3 3 3 3 3 3 3 3 3 3 3 3 3 3 3 3 3 3 3 3 3 3 3 3 3 3 3 3 3 3 3 3 3 3 3 3 3 3 3 3 3 3 3 3 3 3 3 3 3 3 3 3 3 3 3 3 3 3 3 3 3 3 3 3 3 3 3 3 3 3 3 3 3 3 3 3 3 3 3 3 3 3 3 3 3 3 3 3 3 3 3 3 3 3 3 3 3 3 3 3 3 3 3 3 3 3 3 3 3 3 3 3 3 3 3 3 3 3 3 3 3 3 3 3 3 3 3 3 3 3 3 3 3 3 3 3 3 3 3 3 3 3 3 3 3 3 3 3 3 3 3 3 3 3 3 3 </DataArray>
</Cells>
<PointData  Vectors="f_5"> 
<DataArray  type="Float64"  Name="f_5"  NumberOfComponents="3" format="ascii">1.0000000000000002e+01 3.3614071177103215e-52 0.0000000000000000e+00  1.0000000000000002e+01 -6.7228142354206444e-52 0.0000000000000000e+00  1.0000000000000002e+01 2.3529849823972266e-51 0.0000000000000000e+00  1.0000000000000002e+01 -8.7396585060467740e-51 0.0000000000000000e+00  1.0000000000000002e+01 3.2605649041790151e-50 0.0000000000000000e+00  1.0000000000000004e+01 -1.2168293766111387e-49 0.0000000000000000e+00  1.0000000000000002e+01 4.5412610160266557e-49 0.0000000000000000e+00  1.0000000000000004e+01 -1.6948214687495488e-48 0.0000000000000000e+00  1.0000000000000002e+01 6.3251597733954805e-48 0.0000000000000000e+00  1.0000000000000002e+01 -2.3605817624832579e-47 0.0000000000000000e+00  1.0000000000000004e+01 8.8098110725934867e-47 0.0000000000000000e+00  1.0000000000000000e+01 -3.2878662527890700e-46 0.0000000000000000e+00  1.0000000000000002e+01 1.2270483903896936e-45 0.0000000000000000e+00  1.0000000000000002e+01 -4.5794069362798315e-45 0.0000000000000000e+00  1.0000000000000004e+01 1.7090579354729782e-44 0.0000000000000000e+00  1.0000000000000002e+01 -6.3782910482639326e-44 0.0000000000000000e+00  1.0000000000000002e+01 2.3804106257582758e-43 0.0000000000000000e+00  1.0000000000000004e+01 -8.8838133982067140e-43 0.0000000000000000e+00  1.0000000000000002e+01 3.3154842967068320e-42 0.0000000000000000e+00  9.9999999999999982e+00 -1.2373555847006765e-41 0.0000000000000000e+00  1.0000000000000002e+01 4.6178739091320241e-41 0.0000000000000000e+00  1.0000000000000004e+01 -1.7234140051827427e-40 0.0000000000000000e+00  1.0000000000000002e+01 6.4318686298177426e-40 0.0000000000000000e+00  1.0000000000000002e+01 -2.4004060514088336e-39 0.0000000000000000e+00  1.0000000000000004e+01 8.9584373426535264e-39 0.0000000000000000e+00  1.0000000000000004e+01 -3.3433343319205421e-38 0.0000000000000000e+00  1.0000000000000002e+01 1.2477493593416821e-37 0.0000000000000000e+00  1.0000000000000004e+01 -4.6566640041746564e-37 0.0000000000000000e+00  1.0000000000000002e+01 1.7378906657357023e-36 0.0000000000000000e+00  1.0000000000000004e+01 -6.4858962625253185e-36 0.0000000000000000e+00  1.0000000000000004e+01 2.4205694384365674e-35 0.0000000000000000e+00  1.0000000000000002e+01 -9.0336881274937419e-35 0.0000000000000000e+00  1.0000000000000004e+01 3.3714183071538276e-34 0.0000000000000000e+00  1.0000000000000002e+01 -1.2582304415865992e-33 0.0000000000000000e+00  1.0000000000000004e+01 4.6957799356309963e-33 0.0000000000000000e+00  1.0000000000000004e+01 -1.7524889300937460e-32 0.0000000000000000e+00  1.0000000000000002e+01 6.5403777268118875e-32 0.0000000000000000e+00  1.0000000000000004e+01 -2.4409021977153715e-31 0.0000000000000000e+00  1.0000000000000002e+01 9.1095710181803369e-31 0.0000000000000000e+00  1.0000000000000004e+01 -3.3997381875005850e-30 0.0000000000000000e+00  1.0000000000000004e+01 1.2687995648184360e-29 0.0000000000000000e+00  1.0000000000000002e+01 -4.7352244405236878e-29 0.0000000000000000e+00  1.0000000000000004e+01 1.7672098197276249e-28 0.0000000000000000e+00  1.0000000000000002e+01 -6.5953168348581601e-28 0.0000000000000000e+00  1.0000000000000004e+01 2.4614057519704920e-27 0.0000000000000000e+00  1.0000000000000004e+01 -9.1860913243961920e-27 0.0000000000000000e+00  1.0000000000000002e+01 3.4282959545614291e-26 0.0000000000000000e+00  1.0000000000000004e+01 -1.2794574685806048e-25 0.0000000000000000e+00  1.0000000000000002e+01 4.7750002788662977e-25 0.0000000000000000e+00  1.0000000000000004e+01 -1.7820543646884518e-24 0.0000000000000000e+00  1.0000000000000004e+01 6.6507174308672066e-24 0.0000000000000000e+00  1.0000000000000002e+01 -2.4820815358780385e-23 0.0000000000000000e+00  1.0000000000000004e+01 9.2632544004253983e-23 0.0000000000000000e+00  1.0000000000000002e+01 -3.4570936065823708e-22 0.0000000000000000e+00  1.0000000000000004e+01 1.2902048986286895e-21 0.0000000000000000e+00  1.0000000000000004e+01 -4.8151102338565421e-21 0.0000000000000000e+00  1.0000000000000002e+01 1.7970236036797486e-20 0.0000000000000000e+00  1.0000000000000004e+01 -6.7065833913333144e-20 0.0000000000000000e+00  1.0000000000000002e+01 2.5029309961653623e-19 0.0000000000000000e+00  1.0000000000000004e+01 -9.3410656455280816e-19 0.0000000000000000e+00  1.0000000000000004e+01 3.4861331585947122e-18 0.0000000000000000e+00  1.0000000000000002e+01 -1.3010426069826047e-17 0.0000000000000000e+00  9.8930702196450397e+00 1.0617558709108491e-01 0.0000000000000000e+00  9.7221234198880477e+00 2.7711575803125515e-01 0.0000000000000000e+00  9.5526664531546199e+00 4.4805592897142665e-01 0.0000000000000000e+00  9.3846993194447634e+00 6.1899609991159721e-01 0.0000000000000000e+00  9.2182220187584534e+00 7.8993627085176732e-01 0.0000000000000000e+00  9.0532345510957217e+00 9.6087644179193898e-01 0.0000000000000000e+00  8.8897369164565490e+00 1.1318166127321094e+00 0.0000000000000000e+00  8.7277291148409368e+00 1.3027567836722818e+00 0.0000000000000000e+00  8.5672111462488889e+00 1.4736969546124525e+00 0.0000000000000000e+00  8.4081830106804105e+00 1.6446371255526226e+00 0.0000000000000000e+00  8.2506447081354892e+00 1.8155772964927945e+00 0.0000000000000000e+00  8.0945962386141286e+00 1.9865174674329651e+00 0.0000000000000000e+00  7.9400376021163392e+00 2.1574576383731365e+00 0.0000000000000000e+00  7.7869687986421079e+00 2.3283978093133078e+00 0.0000000000000000e+00  7.6353898281914390e+00 2.4993379802534776e+00 0.0000000000000000e+00  7.4853006907643369e+00 2.6702781511936489e+00 0.0000000000000000e+00  7.3367013863608008e+00 2.8412183221338192e+00 0.0000000000000000e+00  7.1895919149808227e+00 3.0121584930739909e+00 0.0000000000000000e+00  7.0439722766244053e+00 3.1830986640141612e+00 0.0000000000000000e+00  6.8998424712915574e+00 3.3540388349543324e+00 0.0000000000000000e+00  6.7572024989822728e+00 3.5249790058945023e+00 0.0000000000000000e+00  6.6160523596965461e+00 3.6959191768346757e+00 0.0000000000000000e+00  6.4763920534343882e+00 3.8668593477748456e+00 0.0000000000000000e+00  6.3382215801957926e+00 4.0377995187150173e+00 0.0000000000000000e+00  6.2015409399807595e+00 4.2087396896551850e+00 0.0000000000000000e+00  6.0663501327892897e+00 4.3796798605953580e+00 0.0000000000000000e+00  5.9326491586213823e+00 4.5506200315355319e+00 0.0000000000000000e+00  5.8004380174770400e+00 4.7215602024756995e+00 0.0000000000000000e+00  5.6697167093562610e+00 4.8925003734158734e+00 0.0000000000000000e+00  5.5404852342590427e+00 5.0634405443560411e+00 0.0000000000000000e+00  5.4127435921853913e+00 5.2343807152962114e+00 0.0000000000000000e+00  5.2864917831353004e+00 5.4053208862363844e+00 0.0000000000000000e+00  5.1617298071087729e+00 5.5762610571765521e+00 0.0000000000000000e+00  5.0384576641058088e+00 5.7472012281167242e+00 0.0000000000000000e+00  4.9166753541264097e+00 5.9181413990568954e+00 0.0000000000000000e+00  4.7963828771705757e+00 6.0890815699970666e+00 0.0000000000000000e+00  4.6775802332382987e+00 6.2600217409372378e+00 0.0000000000000000e+00  4.5602674223295896e+00 6.4309619118774117e+00 0.0000000000000000e+00  4.4444444444444446e+00 6.6019020828175794e+00 0.0000000000000000e+00  4.3301112995828621e+00 6.7728422537577488e+00 0.0000000000000000e+00  4.2172679877448420e+00 6.9437824246979218e+00 0.0000000000000000e+00  4.1059145089303861e+00 7.1147225956380931e+00 0.0000000000000000e+00  3.9960508631394895e+00 7.2856627665782661e+00 0.0000000000000000e+00  3.9618000000000015e+00 7.3396343122977878e+00 0.0000000000000000e+00  3.9618000000000007e+00 7.3396343122977878e+00 0.0000000000000000e+00  3.9618000000000011e+00 7.3396343122977870e+00 0.0000000000000000e+00  3.9618000000000007e+00 7.3396343122977870e+00 0.0000000000000000e+00  3.9618000000000011e+00 7.3396343122977861e+00 0.0000000000000000e+00  3.9618000000000007e+00 7.3396343122977878e+00 0.0000000000000000e+00  3.9618000000000007e+00 7.3396343122977878e+00 0.0000000000000000e+00  3.9618000000000011e+00 7.3396343122977870e+00 0.0000000000000000e+00  3.9618000000000007e+00 7.3396343122977870e+00 0.0000000000000000e+00  3.9618000000000011e+00 7.3396343122977861e+00 0.0000000000000000e+00  3.9618000000000007e+00 7.3396343122977878e+00 0.0000000000000000e+00  3.9618000000000007e+00 7.3396343122977878e+00 0.0000000000000000e+00  3.9618000000000011e+00 7.3396343122977870e+00 0.0000000000000000e+00  3.9618000000000007e+00 7.3396343122977870e+00 0.0000000000000000e+00  3.9618000000000011e+00 7.3396343122977861e+00 0.0000000000000000e+00  3.9618000000000007e+00 7.3396343122977878e+00 0.0000000000000000e+00  3.9618000000000007e+00 7.3396343122977878e+00 0.0000000000000000e+00  3.9618000000000011e+00 7.3396343122977870e+00 0.0000000000000000e+00  3.9618000000000007e+00 7.3396343122977870e+00 0.0000000000000000e+00  3.9618000000000011e+00 7.3396343122977861e+00 0.0000000000000000e+00  3.9618000000000007e+00 7.3396343122977878e+00 0.0000000000000000e+00  3.9618000000000007e+00 7.3396343122977878e+00 0.0000000000000000e+00  3.9618000000000011e+00 7.3396343122977870e+00 0.0000000000000000e+00  3.9618000000000007e+00 7.3396343122977870e+00 0.0000000000000000e+00  3.9618000000000011e+00 7.3396343122977861e+00 0.0000000000000000e+00  3.9618000000000007e+00 7.3396343122977878e+00 0.0000000000000000e+00  3.9618000000000007e+00 7.3396343122977878e+00 0.0000000000000000e+00  3.9618000000000011e+00 7.3396343122977870e+00 0.0000000000000000e+00  3.9618000000000007e+00 7.3396343122977870e+00 0.0000000000000000e+00  3.9618000000000011e+00 7.3396343122977861e+00 0.0000000000000000e+00  3.9618000000000007e+00 7.3396343122977878e+00 0.0000000000000000e+00  3.9618000000000007e+00 7.3396343122977878e+00 0.0000000000000000e+00  3.9618000000000007e+00 7.3396343122977870e+00 0.0000000000000000e+00  3.9618000000000015e+00 7.3396343122977870e+00 0.0000000000000000e+00  9.9999999999999989e-01 2.4037033579794615e-16 0.0000000000000000e+00  1.0000000000000002e+00 -6.4407037361457424e-17 0.0000000000000000e+00  1.0000000000000000e+00 1.7257813647883649e-17 0.0000000000000000e+00  1.0000000000000000e+00 -4.6242172300771946e-18 0.0000000000000000e+00  1.0000000000000002e+00 1.2390552724252770e-18 0.0000000000000000e+00  1.0000000000000002e+00 -3.3200385962387764e-19 0.0000000000000000e+00  1.0000000000000000e+00 8.8960166070233796e-20 0.0000000000000000e+00  1.0000000000000000e+00 -2.3836804657057682e-20 0.0000000000000000e+00  1.0000000000000000e+00 6.3870525579969808e-21 0.0000000000000000e+00  1.0000000000000002e+00 -1.7114055749304404e-21 0.0000000000000000e+00  1.0000000000000002e+00 4.5856974172473264e-22 0.0000000000000000e+00  1.0000000000000000e+00 -1.2287339196849057e-22 0.0000000000000000e+00  1.0000000000000000e+00 3.2923826149229808e-23 0.0000000000000000e+00  1.0000000000000000e+00 -8.8219126284287366e-24 0.0000000000000000e+00  1.0000000000000002e+00 2.3638243644854215e-24 0.0000000000000000e+00  1.0000000000000002e+00 -6.3338482951288043e-25 0.0000000000000000e+00  1.0000000000000000e+00 1.6971495356610057e-25 0.0000000000000000e+00  1.0000000000000000e+00 -4.5474984751522084e-26 0.0000000000000000e+00  1.0000000000000000e+00 1.2184985439987867e-26 0.0000000000000000e+00  1.0000000000000002e+00 -3.2649570084297623e-27 0.0000000000000000e+00  1.0000000000000002e+00 8.7484259373108848e-28 0.0000000000000000e+00  9.9999999999999989e-01 -2.3441336649459219e-28 0.0000000000000000e+00  1.0000000000000004e+00 6.2810872247287709e-29 0.0000000000000000e+00  9.9999999999999989e-01 -1.6830122494554895e-29 0.0000000000000000e+00  1.0000000000000004e+00 4.5096177309329240e-30 0.0000000000000000e+00  1.0000000000000000e+00 -1.2083484291765287e-30 0.0000000000000000e+00  1.0000000000000002e+00 3.2377598577326668e-31 0.0000000000000000e+00  1.0000000000000002e+00 -8.6755513916538757e-32 0.0000000000000000e+00  9.9999999999999989e-01 2.3246069892883225e-32 0.0000000000000000e+00  1.0000000000000004e+00 -6.2287656549955881e-33 0.0000000000000000e+00  1.0000000000000000e+00 1.6689927270987531e-33 0.0000000000000000e+00  1.0000000000000002e+00 -4.4720525339952842e-34 0.0000000000000000e+00  1.0000000000000002e+00 1.1982828649936102e-34 0.0000000000000000e+00  9.9999999999999989e-01 -3.2107892597908481e-35 0.0000000000000000e+00  1.0000000000000004e+00 8.6032838922749280e-36 0.0000000000000000e+00  1.0000000000000000e+00 -2.3052429711907148e-36 0.0000000000000000e+00  1.0000000000000002e+00 6.1768799248807417e-37 0.0000000000000000e+00  1.0000000000000002e+00 -1.6550899876158334e-37 0.0000000000000000e+00  9.9999999999999989e-01 4.4348002558249245e-38 0.0000000000000000e+00  1.0000000000000004e+00 -1.1883011471416428e-38 0.0000000000000000e+00  1.0000000000000000e+00 3.1840433274157459e-39 0.0000000000000000e+00  1.0000000000000002e+00 -8.5316183824675432e-40 0.0000000000000000e+00  1.0000000000000002e+00 2.2860402557127336e-40 0.0000000000000000e+00  9.9999999999999989e-01 -6.1254264038325464e-41 0.0000000000000000e+00  1.0000000000000004e+00 1.6413030582032311e-41 0.0000000000000000e+00  1.0000000000000000e+00 -4.3978582898028045e-42 0.0000000000000000e+00  1.0000000000000002e+00 1.1784025771791805e-42 0.0000000000000000e+00  1.0000000000000002e+00 -3.1575201891391988e-43 0.0000000000000000e+00  9.9999999999999989e-01 8.4605498476480194e-44 0.0000000000000000e+00  1.0000000000000004e+00 -2.2669974992006181e-44 0.0000000000000000e+00  1.0000000000000000e+00 6.0744014915431768e-45 0.0000000000000000e+00  1.0000000000000002e+00 -1.6276309741669010e-45 0.0000000000000000e+00  1.0000000000000002e+00 4.3612240512442995e-46 0.0000000000000000e+00  9.9999999999999989e-01 -1.1685864633079302e-46 0.0000000000000000e+00  1.0000000000000004e+00 3.1312180198749387e-47 0.0000000000000000e+00  1.0000000000000000e+00 -8.3900744642026412e-48 0.0000000000000000e+00  1.0000000000000002e+00 2.2481176580617005e-48 0.0000000000000000e+00  1.0000000000000002e+00 -6.0239616804416625e-49 0.0000000000000000e+00  9.9999999999999989e-01 1.6146701411492863e-49 0.0000000000000000e+00  1.0000000000000004e+00 -4.3471888415558357e-50 0.0000000000000000e+00  1.0000000000000000e+00 1.2420539547302193e-50 0.0000000000000000e+00  1.0000000000000002e+00 -6.2102697736510927e-51 0.0000000000000000e+00  </DataArray> 
</PointData> 
</Piece>
</UnstructuredGrid>
</VTKFile>