<?xml version="1.0"?>
<VTKFile type="UnstructuredGrid"  version="0.1"  >
<UnstructuredGrid>
<Piece  NumberOfPoints="201" NumberOfCells="200">
<Points>
<DataArray  type="Float64"  NumberOfComponents="3"  format="ascii">-5 0 0  -4.95 0 0  -4.9 0 0  -4.85 0 0  -4.8 0 0  -4.75 0 0  -4.7 0 0  -4.65 0 0  -4.6 0 0  -4.55 0 0  -4.5 0 0  -4.45 0 0  -4.4 0 0  -4.35 0 0  -4.3 0 0  -4.25 0 0  -4.2 0 0  -4.15 0 0  -4.1 0 0  -4.05 0 0  -4 0 0  -3.95 0 0  -3.9 0 0  -3.85 0 0  -3.8 0 0  -3.75 0 0  -3.7 0 0  -3.65 0 0  -3.6 0 0  -3.55 0 0  -3.5 0 0  -3.45 0 0  -3.4 0 0  -3.35 0 0  -3.3 0 0  -3.25 0 0  -3.2 0 0  -3.15 0 0  -3.1 0 0  -3.05 0 0  -3 0 0  -2.95 0 0  -2.9 0 0  -2.85 0 0  -2.8 0 0  -2.75 0 0  -2.7 0 0  -2.65 0 0  -2.6 0 0  -2.55 0 0  -2.5 0 0  -2.45 0 0  -2.4 0 0  -2.35 0 0  -2.3 0 0  -2.25 0 0  -2.2 0 0  -2.15 0 0  -2.1 0 0  -2.05 0 0  -2 0 0  -1.95 0 0  -1.9 0 0  -1.85 0 0  -1.8 0 0  -1.75 0 0  -1.7 0 0  -1.65 0 0  -1.6 0 0  -1.55 0 0  -1.5 0 0  -1.45 0 0  -1.4 0 0  -1.35 0 0  -1.3 0 0  -1.25 0 0  -1.2 0 0  -1.15 0 0  -1.1 0 0  -1.05 0 0  -1 0 0  -0.9500000000000002 0 0  -0.9000000000000004 0 0  -0.8499999999999996 0 0  -0.7999999999999998 0 0  -0.75 0 0  -0.7000000000000002 0 0  -0.6500000000000004 0 0  -0.5999999999999996 0 0  -0.5499999999999998 0 0  -0.5 0 0  -0.4500000000000002 0 0  -0.4000000000000004 0 0  -0.3499999999999996 0 0  -0.2999999999999998 0 0  -0.25 0 0  -0.2000000000000002 0 0  -0.1500000000000004 0 0  -0.09999999999999964 0 0  -0.04999999999999982 0 0  0 0 0  0.04999999999999982 0 0  0.09999999999999964 0 0  0.1500000000000004 0 0  0.2000000000000002 0 0  0.25 0 0  0.2999999999999998 0 0  0.3499999999999996 0 0  0.4000000000000004 0 0  0.4500000000000002 0 0  0.5 0 0  0.5499999999999998 0 0  0.5999999999999996 0 0  0.6500000000000004 0 0  0.7000000000000002 0 0  0.75 0 0  0.7999999999999998 0 0  0.8499999999999996 0 0  0.9000000000000004 0 0  0.9500000000000002 0 0  1 0 0  1.05 0 0  1.1 0 0  1.15 0 0  1.2 0 0  1.25 0 0  1.3 0 0  1.35 0 0  1.4 0 0  1.45 0 0  1.5 0 0  1.55 0 0  1.6 0 0  1.65 0 0  1.7 0 0  1.75 0 0  1.8 0 0  1.85 0 0  1.9 0 0  1.95 0 0  2 0 0  2.05 0 0  2.1 0 0  2.15 0 0  2.2 0 0  2.25 0 0  2.3 0 0  2.35 0 0  2.4 0 0  2.45 0 0  2.5 0 0  2.55 0 0  2.6 0 0  2.65 0 0  2.7 0 0  2.75 0 0  2.8 0 0  2.85 0 0  2.9 0 0  2.95 0 0  3 0 0  3.050000000000001 0 0  3.1 0 0  3.15 0 0  3.199999999999999 0 0  3.25 0 0  3.300000000000001 0 0  3.35 0 0  3.4 0 0  3.449999999999999 0 0  3.5 0 0  3.550000000000001 0 0  3.6 0 0  3.65 0 0  3.699999999999999 0 0  3.75 0 0  3.800000000000001 0 0  3.85 0 0  3.9 0 0  3.949999999999999 0 0  4 0 0  4.050000000000001 0 0  4.1 0 0  4.15 0 0  4.199999999999999 0 0  4.25 0 0  4.300000000000001 0 0  4.35 0 0  4.4 0 0  4.449999999999999 0 0  4.5 0 0  4.550000000000001 0 0  4.6 0 0  4.65 0 0  4.699999999999999 0 0  4.75 0 0  4.800000000000001 0 0  4.85 0 0  4.9 0 0  4.949999999999999 0 0  5 0 0  </DataArray>
</Points>
<Cells>
<DataArray  type="UInt32"  Name="connectivity"  format="ascii">0 1  1 2  2 3  3 4  4 5  5 6  6 7  7 8  8 9  9 10  10 11  11 12  12 13  13 14  14 15  15 16  16 17  17 18  18 19  19 20  20 21  21 22  22 23  23 24  24 25  25 26  26 27  27 28  28 29  29 30  30 31  31 32  32 33  33 34  34 35  35 36  36 37  37 38  38 39  39 40  40 41  41 42  42 43  43 44  44 45  45 46  46 47  47 48  48 49  49 50  50 51  51 52  52 53  53 54  54 55  55 56  56 57  57 58  58 59  59 60  60 61  61 62  62 63  63 64  64 65  65 66  66 67  67 68  68 69  69 70  70 71  71 72  72 73  73 74  74 75  75 76  76 77  77 78  78 79  79 80  80 81  81 82  82 83  83 84  84 85  85 86  86 87  87 88  88 89  89 90  90 91  91 92  92 93  93 94  94 95  95 96  96 97  97 98  98 99  99 100  100 101  101 102  102 103  103 104  104 105  105 106  106 107  107 108  108 109  109 110  110 111  111 112  112 113  113 114  114 115  115 116  116 117  117 118  118 119  119 120  120 121  121 122  122 123  123 124  124 125  125 126  126 127  127 128  128 129  129 130  130 131  131 132  132 133  133 134  134 135  135 136  136 137  137 138  138 139  139 140  140 141  141 142  142 143  143 144  144 145  145 146  146 147  147 148  148 149  149 150  150 151  151 152  152 153  153 154  154 155  155 156  156 157  157 158  158 159  159 160  160 161  161 162  162 163  163 164  164 165  165 166  166 167  167 168  168 169  169 170  170 171  171 172  172 173  173 174  174 175  175 176  176 177  177 178  178 179  179 180  180 181  181 182  182 183  183 184  184 185  185 186  186 187  187 188  188 189  189 190  190 191  191 192  192 193  193 194  194 195  195 196  196 197  197 198  198 199  199 200  </DataArray>
<DataArray  type="UInt32"  Name="offsets"  format="ascii">2 4 6 8 10 12 14 16 18 20 22 24 26 28 30 32 34 36 38 40 42 44 46 48 50 52 54 56 58 60 62 64 66 68 70 72 74 76 78 80 82 84 86 88 90 92 94 96 98 100 102 104 106 108 110 112 114 116 118 120 122 124 126 128 130 132 134 136 138 140 142 144 146 148 150 152 154 156 158 160 162 164 166 168 170 172 174 176 178 180 182 184 186 188 190 192 194 196 198 200 202 204 206 208 210 212 214 216 218 220 222 224 226 228 230 232 234 236 238 240 242 244 246 248 250 252 254 256 258 260 262 264 266 268 270 272 274 276 278 280 282 284 286 288 290 292 294 296 298 300 302 304 306 308 310 312 314 316 318 320 322 324 326 328 330 332 334 336 338 340 342 344 346 348 350 352 354 356 358 360 362 364 366 368 370 372 374 376 378 380 382 384 386 388 390 392 394 396 398 400 </DataArray>
<DataArray  type="UInt8"  Name="types"  format="ascii">3 3 3 3 3 3 3 3 3 3 3 3 3 3 3 3 3 3 3 3 3 3 3 3 3 3 3 3 3 3 3 3 3 3 3 3 3 3 3 3 3 3 3 3 3 3 3 3 3 3 3 3 3 3 3 3 3 3 3 3 3 3 3 3 3 3 3 3 3 3 3 3 3 3 3 3 3 3 3 3 3 3 3 3 3 3 3 3 3 3 3 3 3 3 3 3 3 3 3 3 3 3 3 3 3 3 3 3 3 3 3 3 3 3 3 3 3 3 3 3 3 3 3 3 3 3 3 3 3 3 3 3 3 3 3 3 3 3 3 3 3 3 3 3 3 3 3 3 3 3 3 3 3 3 3 3 3 3 3 3 3 3 3 3 3 3 3 3 3 3 3 3 3 3 3 3 3 3 3 3 3 3 3 3 3 3 3 3 3 3 3 3 3 3 3 3 3 3 3 3 </DataArray>
</Cells>
<PointData  Vectors="f_5"> 
<DataArray  type="Float64"  Name="f_5"  NumberOfComponents="3" format="ascii">1.0000000000000002e+01 -1.2833148589731544e-70 0.0000000000000000e+00  1.0000000000000002e+01 2.5666297179463095e-70 0.0000000000000000e+00  1.0000000000000002e+01 -8.9832040128120877e-70 0.0000000000000000e+00  1.0000000000000002e+01 3.3366186333301780e-69 0.0000000000000000e+00  1.0000000000000002e+01 -1.2448154132039609e-68 0.0000000000000000e+00  1.0000000000000004e+01 4.6455997894828276e-68 0.0000000000000000e+00  1.0000000000000002e+01 -1.7337583744727356e-67 0.0000000000000000e+00  1.0000000000000004e+01 6.4704735189426613e-67 0.0000000000000000e+00  1.0000000000000002e+01 -2.4148135701297725e-66 0.0000000000000000e+00  1.0000000000000002e+01 9.0122069286249014e-66 0.0000000000000000e+00  1.0000000000000004e+01 -3.3634014144369846e-65 0.0000000000000000e+00  1.0000000000000000e+01 1.2552384964885451e-64 0.0000000000000000e+00  1.0000000000000002e+01 -4.6846138445104839e-64 0.0000000000000000e+00  1.0000000000000002e+01 1.7483216881553253e-63 0.0000000000000000e+00  1.0000000000000004e+01 -6.5248253681703097e-63 0.0000000000000000e+00  1.0000000000000002e+01 2.4350979784525920e-62 0.0000000000000000e+00  1.0000000000000002e+01 -9.0879093769933395e-62 0.0000000000000000e+00  1.0000000000000004e+01 3.3916539529520783e-61 0.0000000000000000e+00  1.0000000000000002e+01 -1.2657824874108879e-60 0.0000000000000000e+00  9.9999999999999982e+00 4.7239645543483849e-60 0.0000000000000000e+00  1.0000000000000002e+01 -1.7630075729982657e-59 0.0000000000000000e+00  1.0000000000000004e+01 6.5796338365582274e-59 0.0000000000000000e+00  1.0000000000000002e+01 -2.4555527773234548e-58 0.0000000000000000e+00  1.0000000000000002e+01 9.1642477256380370e-58 0.0000000000000000e+00  1.0000000000000004e+01 -3.4201438125228566e-57 0.0000000000000000e+00  1.0000000000000004e+01 1.2764150477527679e-56 0.0000000000000000e+00  1.0000000000000002e+01 -4.7636458097587873e-56 0.0000000000000000e+00  1.0000000000000004e+01 1.7778168191282315e-55 0.0000000000000000e+00  1.0000000000000002e+01 -6.6349026955370777e-55 0.0000000000000000e+00  1.0000000000000004e+01 2.4761793963019982e-54 0.0000000000000000e+00  1.0000000000000004e+01 -9.2412273156543265e-54 0.0000000000000000e+00  1.0000000000000002e+01 3.4488729866315322e-53 0.0000000000000000e+00  1.0000000000000004e+01 -1.2871369214960649e-52 0.0000000000000000e+00  1.0000000000000002e+01 4.8036603873211274e-52 0.0000000000000000e+00  1.0000000000000004e+01 -1.7927504627788378e-51 0.0000000000000000e+00  1.0000000000000004e+01 6.6906358123832677e-51 0.0000000000000000e+00  1.0000000000000002e+01 -2.4969792786754246e-50 0.0000000000000000e+00  1.0000000000000004e+01 9.3188535334633381e-50 0.0000000000000000e+00  1.0000000000000002e+01 -3.4778434855178082e-49 0.0000000000000000e+00  1.0000000000000004e+01 1.2979488588724850e-48 0.0000000000000000e+00  1.0000000000000004e+01 -4.8440110869381806e-48 0.0000000000000000e+00  1.0000000000000002e+01 1.8078095488880245e-47 0.0000000000000000e+00  1.0000000000000004e+01 -6.7468370868582553e-47 0.0000000000000000e+00  1.0000000000000002e+01 2.5179538798545105e-46 0.0000000000000000e+00  1.0000000000000004e+01 -9.3971318107321826e-46 0.0000000000000000e+00  1.0000000000000004e+01 3.5070573363074378e-45 0.0000000000000000e+00  1.0000000000000002e+01 -1.3088516164156538e-44 0.0000000000000000e+00  1.0000000000000004e+01 4.8847007320318525e-44 0.0000000000000000e+00  1.0000000000000002e+01 -1.8229951311711838e-43 0.0000000000000000e+00  1.0000000000000004e+01 6.8035104514815241e-43 0.0000000000000000e+00  1.0000000000000004e+01 -2.5391046674755022e-42 0.0000000000000000e+00  1.0000000000000002e+01 9.4760676247538605e-42 0.0000000000000000e+00  1.0000000000000004e+01 -3.5365165831539810e-41 0.0000000000000000e+00  1.0000000000000002e+01 1.3198459570140597e-40 0.0000000000000000e+00  1.0000000000000004e+01 -4.9257321697408225e-40 0.0000000000000000e+00  1.0000000000000004e+01 1.8383082721949307e-39 0.0000000000000000e+00  1.0000000000000002e+01 -6.8606598718056439e-39 0.0000000000000000e+00  1.0000000000000004e+01 2.5604331215027551e-38 0.0000000000000000e+00  1.0000000000000002e+01 -9.5556664988304984e-38 0.0000000000000000e+00  1.0000000000000004e+01 3.5662232873819101e-37 0.0000000000000000e+00  1.0000000000000004e+01 -1.3309326499644649e-36 0.0000000000000000e+00  1.0000000000000002e+01 4.9671082711196709e-36 0.0000000000000000e+00  1.0000000000000004e+01 -1.8537500434514147e-35 0.0000000000000000e+00  1.0000000000000002e+01 6.9182893466937229e-35 0.0000000000000000e+00  1.0000000000000004e+01 -2.5819407343323383e-34 0.0000000000000000e+00  1.0000000000000004e+01 9.6359340026600232e-34 0.0000000000000000e+00  1.0000000000000002e+01 -3.5961795276307766e-33 0.0000000000000000e+00  1.0000000000000004e+01 1.3421124710257054e-32 0.0000000000000000e+00  1.0000000000000002e+01 -5.0088319313397666e-32 0.0000000000000000e+00  1.0000000000000004e+01 1.8693215254333290e-31 0.0000000000000000e+00  1.0000000000000004e+01 -6.9764029085993694e-31 0.0000000000000000e+00  1.0000000000000002e+01 2.6036290108964162e-30 0.0000000000000000e+00  1.0000000000000004e+01 -9.7168757527256913e-30 0.0000000000000000e+00  1.0000000000000002e+01 3.6263874000006513e-29 0.0000000000000000e+00  1.0000000000000004e+01 -1.3533862024729985e-28 0.0000000000000000e+00  1.0000000000000004e+01 5.0509060698919507e-28 0.0000000000000000e+00  1.0000000000000002e+01 -1.8850238077094810e-27 0.0000000000000000e+00  1.0000000000000004e+01 7.0350046238487026e-27 0.0000000000000000e+00  1.0000000000000002e+01 -2.6254994687685447e-26 0.0000000000000000e+00  1.0000000000000004e+01 9.7984974126892715e-26 0.0000000000000000e+00  1.0000000000000002e+01 -3.6568490181988698e-25 0.0000000000000000e+00  1.0000000000000002e+01 1.3647546331526557e-24 0.0000000000000000e+00  1.0000000000000004e+01 -5.0933336307907376e-24 0.0000000000000000e+00  1.0000000000000002e+01 1.9008579890010144e-23 0.0000000000000000e+00  9.9999999999999982e+00 -7.0940985929250455e-23 0.0000000000000000e+00  1.0000000000000002e+01 2.6475536382699173e-22 0.0000000000000000e+00  1.0000000000000002e+01 -9.8808046937871705e-22 0.0000000000000000e+00  1.0000000000000004e+01 3.6875665136878775e-21 0.0000000000000000e+00  1.0000000000000002e+01 -1.3762185585372684e-20 0.0000000000000000e+00  9.9999999999999982e+00 5.1361175827803312e-20 0.0000000000000000e+00  1.0000000000000002e+01 -1.9168251772584064e-19 0.0000000000000000e+00  1.0000000000000002e+01 7.1536889507555944e-19 0.0000000000000000e+00  1.0000000000000004e+01 -2.6697930625763980e-18 0.0000000000000000e+00  1.0000000000000002e+01 9.9638033552299553e-18 0.0000000000000000e+00  9.9999999999999982e+00 -3.7185420358343744e-17 0.0000000000000000e+00  1.0000000000000004e+01 1.3877787807814506e-16 0.0000000000000000e+00  8.7600114885221778e+00 1.2685687494842419e+00 0.0000000000000000e+00  7.5451575657723602e+00 2.6019020828175714e+00 0.0000000000000000e+00  6.4209450841761129e+00 3.9352354161509235e+00 0.0000000000000000e+00  5.3873740437334821e+00 5.2685687494842526e+00 0.0000000000000000e+00  4.4444444444444455e+00 6.6019020828175794e+00 0.0000000000000000e+00  3.9618000000000007e+00 7.3396343122977896e+00 0.0000000000000000e+00  3.9618000000000011e+00 7.3396343122977870e+00 0.0000000000000000e+00  3.9618000000000007e+00 7.3396343122977870e+00 0.0000000000000000e+00  3.9618000000000007e+00 7.3396343122977852e+00 0.0000000000000000e+00  1.0000000000000002e+00 7.2111100739383896e-16 0.0000000000000000e+00  1.0000000000000000e+00 -1.9322111208437232e-16 0.0000000000000000e+00  1.0000000000000000e+00 5.1773440943650592e-17 0.0000000000000000e+00  1.0000000000000002e+00 -1.3872651690231707e-17 0.0000000000000000e+00  1.0000000000000002e+00 3.7171658172758344e-18 0.0000000000000000e+00  1.0000000000000000e+00 -9.9601157887163344e-19 0.0000000000000000e+00  1.0000000000000000e+00 2.6688049821070144e-19 0.0000000000000000e+00  1.0000000000000000e+00 -7.1510413971172556e-20 0.0000000000000000e+00  1.0000000000000002e+00 1.9161157673991110e-20 0.0000000000000000e+00  1.0000000000000002e+00 -5.1342167247913258e-21 0.0000000000000000e+00  1.0000000000000000e+00 1.3757092251741991e-21 0.0000000000000000e+00  1.0000000000000000e+00 -3.6862017590547182e-22 0.0000000000000000e+00  1.0000000000000000e+00 9.8771478447688772e-23 0.0000000000000000e+00  1.0000000000000002e+00 -2.6465737885286454e-23 0.0000000000000000e+00  1.0000000000000002e+00 7.0914730934562729e-24 0.0000000000000000e+00  1.0000000000000000e+00 -1.9001544885386432e-24 0.0000000000000000e+00  1.0000000000000000e+00 5.0914486069830186e-25 0.0000000000000000e+00  1.0000000000000000e+00 -1.3642495425456535e-25 0.0000000000000000e+00  1.0000000000000002e+00 3.6554956319963928e-26 0.0000000000000000e+00  1.0000000000000002e+00 -9.7948710252892954e-27 0.0000000000000000e+00  1.0000000000000000e+00 2.6245277811932687e-27 0.0000000000000000e+00  1.0000000000000000e+00 -7.0324009948378195e-28 0.0000000000000000e+00  1.0000000000000000e+00 1.8843261674186029e-28 0.0000000000000000e+00  1.0000000000000002e+00 -5.0490367483665114e-29 0.0000000000000000e+00  1.0000000000000002e+00 1.3528853192798678e-29 0.0000000000000000e+00  1.0000000000000000e+00 -3.6250452875296200e-30 0.0000000000000000e+00  1.0000000000000000e+00 9.7132795731980797e-31 0.0000000000000000e+00  1.0000000000000000e+00 -2.6026654174961245e-31 0.0000000000000000e+00  1.0000000000000002e+00 6.9738209678650287e-32 0.0000000000000000e+00  1.0000000000000002e+00 -1.8686296964986645e-32 0.0000000000000000e+00  1.0000000000000000e+00 5.0069781812963083e-33 0.0000000000000000e+00  1.0000000000000000e+00 -1.3416157601985961e-33 0.0000000000000000e+00  1.0000000000000000e+00 3.5948485949807773e-34 0.0000000000000000e+00  1.0000000000000002e+00 -9.6323677793726272e-35 0.0000000000000000e+00  1.0000000000000002e+00 2.5809851676824618e-35 0.0000000000000000e+00  1.0000000000000000e+00 -6.9157289135722112e-36 0.0000000000000000e+00  1.0000000000000000e+00 1.8530639774642378e-36 0.0000000000000000e+00  1.0000000000000000e+00 -4.9652699628474262e-37 0.0000000000000000e+00  1.0000000000000002e+00 1.3304400767474889e-37 0.0000000000000000e+00  1.0000000000000002e+00 -3.5649034414249053e-38 0.0000000000000000e+00  1.0000000000000000e+00 9.5521299822473291e-39 0.0000000000000000e+00  1.0000000000000000e+00 -2.5594855147402840e-39 0.0000000000000000e+00  1.0000000000000000e+00 6.8581207671381010e-40 0.0000000000000000e+00  1.0000000000000002e+00 -1.8376279211497801e-40 0.0000000000000000e+00  1.0000000000000002e+00 4.9239091746096623e-41 0.0000000000000000e+00  1.0000000000000000e+00 -1.3193574869408543e-41 0.0000000000000000e+00  1.0000000000000000e+00 3.5352077315375713e-42 0.0000000000000000e+00  1.0000000000000000e+00 -9.4725605674174601e-43 0.0000000000000000e+00  1.0000000000000002e+00 2.5381649542944253e-43 0.0000000000000000e+00  1.0000000000000002e+00 -6.8009924976016847e-44 0.0000000000000000e+00  1.0000000000000000e+00 1.8223204474624952e-44 0.0000000000000000e+00  1.0000000000000000e+00 -4.8828929224829724e-45 0.0000000000000000e+00  1.0000000000000000e+00 1.3083672153069466e-45 0.0000000000000000e+00  1.0000000000000002e+00 -3.5057593874485594e-46 0.0000000000000000e+00  1.0000000000000002e+00 9.3936539672466796e-47 0.0000000000000000e+00  9.9999999999999989e-01 -2.5170219945011415e-47 0.0000000000000000e+00  1.0000000000000004e+00 6.7443401075796469e-48 0.0000000000000000e+00  9.9999999999999989e-01 -1.8071404853067694e-48 0.0000000000000000e+00  1.0000000000000004e+00 4.8422183364754320e-49 0.0000000000000000e+00  1.0000000000000000e+00 -1.2974684928337449e-49 0.0000000000000000e+00  1.0000000000000002e+00 3.4765563485962804e-50 0.0000000000000000e+00  1.0000000000000002e+00 -9.3154046604767994e-51 0.0000000000000000e+00  9.9999999999999989e-01 2.4960551559438363e-51 0.0000000000000000e+00  1.0000000000000004e+00 -6.6881596329870090e-52 0.0000000000000000e+00  1.0000000000000000e+00 1.7920869725092732e-52 0.0000000000000000e+00  1.0000000000000002e+00 -4.8018825705019558e-53 0.0000000000000000e+00  1.0000000000000002e+00 1.2866605569151019e-53 0.0000000000000000e+00  9.9999999999999989e-01 -3.4475965715837472e-54 0.0000000000000000e+00  1.0000000000000004e+00 9.2378071718418619e-55 0.0000000000000000e+00  1.0000000000000000e+00 -2.4752629715294189e-55 0.0000000000000000e+00  1.0000000000000002e+00 6.6324471427596931e-56 0.0000000000000000e+00  1.0000000000000002e+00 -1.7771588557445937e-56 0.0000000000000000e+00  9.9999999999999989e-01 4.7618828021857460e-57 0.0000000000000000e+00  1.0000000000000004e+00 -1.2759426512973413e-57 0.0000000000000000e+00  1.0000000000000000e+00 3.4188780300354247e-58 0.0000000000000000e+00  1.0000000000000002e+00 -9.1608560716850028e-59 0.0000000000000000e+00  1.0000000000000002e+00 2.4546439863857802e-59 0.0000000000000000e+00  9.9999999999999989e-01 -6.5771987385797132e-60 0.0000000000000000e+00  1.0000000000000004e+00 1.7623550904614595e-60 0.0000000000000000e+00  1.0000000000000000e+00 -4.7222162326601833e-61 0.0000000000000000e+00  1.0000000000000002e+00 1.2653140260264354e-61 0.0000000000000000e+00  1.0000000000000002e+00 -3.3903987144556108e-62 0.0000000000000000e+00  9.9999999999999989e-01 9.0845459755788443e-63 0.0000000000000000e+00  1.0000000000000004e+00 -2.4341967577598355e-63 0.0000000000000000e+00  1.0000000000000000e+00 6.5224105546035249e-64 0.0000000000000000e+00  1.0000000000000002e+00 -1.7476746408161510e-64 0.0000000000000000e+00  1.0000000000000002e+00 4.6828800866108145e-65 0.0000000000000000e+00  9.9999999999999989e-01 -1.2547739382814674e-65 0.0000000000000000e+00  1.0000000000000004e+00 3.3621566651513273e-66 0.0000000000000000e+00  1.0000000000000000e+00 -9.0088727779043367e-67 0.0000000000000000e+00  1.0000000000000002e+00 2.4139244601046424e-67 0.0000000000000000e+00  1.0000000000000002e+00 -6.4682506251423699e-68 0.0000000000000000e+00  9.9999999999999989e-01 1.7337578995226699e-68 0.0000000000000000e+00  1.0000000000000004e+00 -4.6678097294841800e-69 0.0000000000000000e+00  1.0000000000000000e+00 1.3336599227097449e-69 0.0000000000000000e+00  1.0000000000000002e+00 -6.6682996135487217e-70 0.0000000000000000e+00  </DataArray> 
</PointData> 
</Piece>
</UnstructuredGrid>
</VTKFile>