<?xml version="1.0"?>
<VTKFile type="UnstructuredGrid"  version="0.1"  >
<UnstructuredGrid>
<Piece  NumberOfPoints="201" NumberOfCells="200">
<Points>
<DataArray  type="Float64"  NumberOfComponents="3"  format="ascii">-5 0 0  -4.95 0 0  -4.9 0 0  -4.85 0 0  -4.8 0 0  -4.75 0 0  -4.7 0 0  -4.65 0 0  -4.6 0 0  -4.55 0 0  -4.5 0 0  -4.45 0 0  -4.4 0 0  -4.35 0 0  -4.3 0 0  -4.25 0 0  -4.2 0 0  -4.15 0 0  -4.1 0 0  -4.05 0 0  -4 0 0  -3.95 0 0  -3.9 0 0  -3.85 0 0  -3.8 0 0  -3.75 0 0  -3.7 0 0  -3.65 0 0  -3.6 0 0  -3.55 0 0  -3.5 0 0  -3.45 0 0  -3.4 0 0  -3.35 0 0  -3.3 0 0  -3.25 0 0  -3.2 0 0  -3.15 0 0  -3.1 0 0  -3.05 0 0  -3 0 0  -2.95 0 0  -2.9 0 0  -2.85 0 0  -2.8 0 0  -2.75 0 0  -2.7 0 0  -2.65 0 0  -2.6 0 0  -2.55 0 0  -2.5 0 0  -2.45 0 0  -2.4 0 0  -2.35 0 0  -2.3 0 0  -2.25 0 0  -2.2 0 0  -2.15 0 0  -2.1 0 0  -2.05 0 0  -2 0 0  -1.95 0 0  -1.9 0 0  -1.85 0 0  -1.8 0 0  -1.75 0 0  -1.7 0 0  -1.65 0 0  -1.6 0 0  -1.55 0 0  -1.5 0 0  -1.45 0 0  -1.4 0 0  -1.35 0 0  -1.3 0 0  -1.25 0 0  -1.2 0 0  -1.15 0 0  -1.1 0 0  -1.05 0 0  -1 0 0  -0.9500000000000002 0 0  -0.9000000000000004 0 0  -0.8499999999999996 0 0  -0.7999999999999998 0 0  -0.75 0 0  -0.7000000000000002 0 0  -0.6500000000000004 0 0  -0.5999999999999996 0 0  -0.5499999999999998 0 0  -0.5 0 0  -0.4500000000000002 0 0  -0.4000000000000004 0 0  -0.3499999999999996 0 0  -0.2999999999999998 0 0  -0.25 0 0  -0.2000000000000002 0 0  -0.1500000000000004 0 0  -0.09999999999999964 0 0  -0.04999999999999982 0 0  0 0 0  0.04999999999999982 0 0  0.09999999999999964 0 0  0.1500000000000004 0 0  0.2000000000000002 0 0  0.25 0 0  0.2999999999999998 0 0  0.3499999999999996 0 0  0.4000000000000004 0 0  0.4500000000000002 0 0  0.5 0 0  0.5499999999999998 0 0  0.5999999999999996 0 0  0.6500000000000004 0 0  0.7000000000000002 0 0  0.75 0 0  0.7999999999999998 0 0  0.8499999999999996 0 0  0.9000000000000004 0 0  0.9500000000000002 0 0  1 0 0  1.05 0 0  1.1 0 0  1.15 0 0  1.2 0 0  1.25 0 0  1.3 0 0  1.35 0 0  1.4 0 0  1.45 0 0  1.5 0 0  1.55 0 0  1.6 0 0  1.65 0 0  1.7 0 0  1.75 0 0  1.8 0 0  1.85 0 0  1.9 0 0  1.95 0 0  2 0 0  2.05 0 0  2.1 0 0  2.15 0 0  2.2 0 0  2.25 0 0  2.3 0 0  2.35 0 0  2.4 0 0  2.45 0 0  2.5 0 0  2.55 0 0  2.6 0 0  2.65 0 0  2.7 0 0  2.75 0 0  2.8 0 0  2.85 0 0  2.9 0 0  2.95 0 0  3 0 0  3.050000000000001 0 0  3.1 0 0  3.15 0 0  3.199999999999999 0 0  3.25 0 0  3.300000000000001 0 0  3.35 0 0  3.4 0 0  3.449999999999999 0 0  3.5 0 0  3.550000000000001 0 0  3.6 0 0  3.65 0 0  3.699999999999999 0 0  3.75 0 0  3.800000000000001 0 0  3.85 0 0  3.9 0 0  3.949999999999999 0 0  4 0 0  4.050000000000001 0 0  4.1 0 0  4.15 0 0  4.199999999999999 0 0  4.25 0 0  4.300000000000001 0 0  4.35 0 0  4.4 0 0  4.449999999999999 0 0  4.5 0 0  4.550000000000001 0 0  4.6 0 0  4.65 0 0  4.699999999999999 0 0  4.75 0 0  4.800000000000001 0 0  4.85 0 0  4.9 0 0  4.949999999999999 0 0  5 0 0  </DataArray>
</Points>
<Cells>
<DataArray  type="UInt32"  Name="connectivity"  format="ascii">0 1  1 2  2 3  3 4  4 5  5 6  6 7  7 8  8 9  9 10  10 11  11 12  12 13  13 14  14 15  15 16  16 17  17 18  18 19  19 20  20 21  21 22  22 23  23 24  24 25  25 26  26 27  27 28  28 29  29 30  30 31  31 32  32 33  33 34  34 35  35 36  36 37  37 38  38 39  39 40  40 41  41 42  42 43  43 44  44 45  45 46  46 47  47 48  48 49  49 50  50 51  51 52  52 53  53 54  54 55  55 56  56 57  57 58  58 59  59 60  60 61  61 62  62 63  63 64  64 65  65 66  66 67  67 68  68 69  69 70  70 71  71 72  72 73  73 74  74 75  75 76  76 77  77 78  78 79  79 80  80 81  81 82  82 83  83 84  84 85  85 86  86 87  87 88  88 89  89 90  90 91  91 92  92 93  93 94  94 95  95 96  96 97  97 98  98 99  99 100  100 101  101 102  102 103  103 104  104 105  105 106  106 107  107 108  108 109  109 110  110 111  111 112  112 113  113 114  114 115  115 116  116 117  117 118  118 119  119 120  120 121  121 122  122 123  123 124  124 125  125 126  126 127  127 128  128 129  129 130  130 131  131 132  132 133  133 134  134 135  135 136  136 137  137 138  138 139  139 140  140 141  141 142  142 143  143 144  144 145  145 146  146 147  147 148  148 149  149 150  150 151  151 152  152 153  153 154  154 155  155 156  156 157  157 158  158 159  159 160  160 161  161 162  162 163  163 164  164 165  165 166  166 167  167 168  168 169  169 170  170 171  171 172  172 173  173 174  174 175  175 176  176 177  177 178  178 179  179 180  180 181  181 182  182 183  183 184  184 185  185 186  186 187  187 188  188 189  189 190  190 191  191 192  192 193  193 194  194 195  195 196  196 197  197 198  198 199  199 200  </DataArray>
<DataArray  type="UInt32"  Name="offsets"  format="ascii">2 4 6 8 10 12 14 16 18 20 22 24 26 28 30 32 34 36 38 40 42 44 46 48 50 52 54 56 58 60 62 64 66 68 70 72 74 76 78 80 82 84 86 88 90 92 94 96 98 100 102 104 106 108 110 112 114 116 118 120 122 124 126 128 130 132 134 136 138 140 142 144 146 148 150 152 154 156 158 160 162 164 166 168 170 172 174 176 178 180 182 184 186 188 190 192 194 196 198 200 202 204 206 208 210 212 214 216 218 220 222 224 226 228 230 232 234 236 238 240 242 244 246 248 250 252 254 256 258 260 262 264 266 268 270 272 274 276 278 280 282 284 286 288 290 292 294 296 298 300 302 304 306 308 310 312 314 316 318 320 322 324 326 328 330 332 334 336 338 340 342 344 346 348 350 352 354 356 358 360 362 364 366 368 370 372 374 376 378 380 382 384 386 388 390 392 394 396 398 400 </DataArray>
<DataArray  type="UInt8"  Name="types"  format="ascii">3 3 3 3 3 3 3 3 3 3 3 3 3 3 3 3 3 3 3 3 3 3 3 3 3 3 3 3 3 3 3 3 3 3 3 3 3 3 3 3 3 3 3 3 3 3 3 3 3 3 3 3 3 3 3 3 3 3 3 3 3 3 3 3 3 3 3 3 3 3 3 3 3 3 3 3 3 3 3 3 3 3 3 3 3 3 3 3 3 3 3 3 3 3 3 3 3 3 3 3 3 3 3 3 3 3 3 3 3 3 3 3 3 3 3 3 3 3 3 3 3 3 3 3 3 3 3 3 3 3 3 3 3 3 3 3 3 3 3 3 3 3 3 3 3 3 3 3 3 3 3 3 3 3 3 3 3 3 3 3 3 3 3 3 3 3 3 3 3 3 3 3 3 3 3 3 3 3 3 3 3 3 3 3 3 3 3 3 3 3 3 3 3 3 3 3 3 3 3 3 </DataArray>
</Cells>
<PointData  Vectors="f_5"> 
<DataArray  type="Float64"  Name="f_5"  NumberOfComponents="3" format="ascii">1.0000000000000002e+01 -4.0657581468206551e-19 0.0000000000000000e+00  1.0000000000000002e+01 8.1315162936413121e-19 0.0000000000000000e+00  9.9973994201428393e+00 2.5754834909802070e-03 0.0000000000000000e+00  9.9295231924339866e+00 6.9915550831048306e-02 0.0000000000000000e+00  9.8618781692990396e+00 1.3725561817111515e-01 0.0000000000000000e+00  9.7944643507379983e+00 2.0459568551118201e-01 0.0000000000000000e+00  9.7272817367508573e+00 2.7193575285125016e-01 0.0000000000000000e+00  9.6603303273376309e+00 3.3927582019131697e-01 0.0000000000000000e+00  9.5936101224983030e+00 4.0661588753138517e-01 0.0000000000000000e+00  9.5271211222328791e+00 4.7395595487145187e-01 0.0000000000000000e+00  9.4608633265413573e+00 5.4129602221151896e-01 0.0000000000000000e+00  9.3948367354237519e+00 6.0863608955158699e-01 0.0000000000000000e+00  9.3290413488800361e+00 6.7597615689165369e-01 0.0000000000000000e+00  9.2634771669102332e+00 7.4331622423172183e-01 0.0000000000000000e+00  9.1981441895143359e+00 8.1065629157178920e-01 0.0000000000000000e+00  9.1330424166923425e+00 8.7799635891185535e-01 0.0000000000000000e+00  9.0681718484442513e+00 9.4533642625192393e-01 0.0000000000000000e+00  9.0035324847700675e+00 1.0126764935919905e+00 0.0000000000000000e+00  8.9391243256697877e+00 1.0800165609320591e+00 0.0000000000000000e+00  8.8749473711434135e+00 1.1473566282721253e+00 0.0000000000000000e+00  8.8110016211909379e+00 1.2146966956121923e+00 0.0000000000000000e+00  8.7472870758123769e+00 1.2820367629522602e+00 0.0000000000000000e+00  8.6838037350077126e+00 1.3493768302923277e+00 0.0000000000000000e+00  8.6205515987769559e+00 1.4167168976323949e+00 0.0000000000000000e+00  8.5575306671201030e+00 1.4840569649724624e+00 0.0000000000000000e+00  8.4947409400371559e+00 1.5513970323125297e+00 0.0000000000000000e+00  8.4321824175281126e+00 1.6187370996525963e+00 0.0000000000000000e+00  8.3698550995929732e+00 1.6860771669926651e+00 0.0000000000000000e+00  8.3077589862317431e+00 1.7534172343327306e+00 0.0000000000000000e+00  8.2458940774444134e+00 1.8207573016727991e+00 0.0000000000000000e+00  8.1842603732309875e+00 1.8880973690128662e+00 0.0000000000000000e+00  8.1228578735914674e+00 1.9554374363529337e+00 0.0000000000000000e+00  8.0616865785258565e+00 2.0227775036930020e+00 0.0000000000000000e+00  8.0007464880341459e+00 2.0901175710330673e+00 0.0000000000000000e+00  7.9400376021163330e+00 2.1574576383731365e+00 0.0000000000000000e+00  7.8795599207724383e+00 2.2247977057132040e+00 0.0000000000000000e+00  7.8193134440024421e+00 2.2921377730532693e+00 0.0000000000000000e+00  7.7592981718063498e+00 2.3594778403933381e+00 0.0000000000000000e+00  7.6995141041841597e+00 2.4268179077334051e+00 0.0000000000000000e+00  7.6399612411358842e+00 2.4941579750734730e+00 0.0000000000000000e+00  7.5806395826615036e+00 2.5614980424135405e+00 0.0000000000000000e+00  7.5215491287610314e+00 2.6288381097536058e+00 0.0000000000000000e+00  7.4626898794344640e+00 2.6961781770936759e+00 0.0000000000000000e+00  7.4040618346818041e+00 2.7635182444337412e+00 0.0000000000000000e+00  7.3456649945030410e+00 2.8308583117738086e+00 0.0000000000000000e+00  7.2874993588981880e+00 2.8981983791138770e+00 0.0000000000000000e+00  7.2295649278672371e+00 2.9655384464539432e+00 0.0000000000000000e+00  7.1718617014101955e+00 3.0328785137940106e+00 0.0000000000000000e+00  7.1143896795270543e+00 3.1002185811340794e+00 0.0000000000000000e+00  7.0571488622178222e+00 3.1675586484741469e+00 0.0000000000000000e+00  7.0001392494824870e+00 3.2348987158142122e+00 0.0000000000000000e+00  6.9433608413210619e+00 3.3022387831542792e+00 0.0000000000000000e+00  6.8868136377335452e+00 3.3695788504943489e+00 0.0000000000000000e+00  6.8304976387199243e+00 3.4369189178344155e+00 0.0000000000000000e+00  6.7744128442802154e+00 3.5042589851744834e+00 0.0000000000000000e+00  6.7185592544144077e+00 3.5715990525145500e+00 0.0000000000000000e+00  6.6629368691225057e+00 3.6389391198546175e+00 0.0000000000000000e+00  6.6075456884045076e+00 3.7062791871946859e+00 0.0000000000000000e+00  6.5523857122604143e+00 3.7736192545347511e+00 0.0000000000000000e+00  6.4974569406902258e+00 3.8409593218748195e+00 0.0000000000000000e+00  6.4427593736939421e+00 3.9082993892148870e+00 0.0000000000000000e+00  6.3882930112715659e+00 3.9756394565549535e+00 0.0000000000000000e+00  6.3340578534230882e+00 4.0429795238950215e+00 0.0000000000000000e+00  6.2800539001485225e+00 4.1103195912350898e+00 0.0000000000000000e+00  6.2262811514478544e+00 4.1776596585751564e+00 0.0000000000000000e+00  6.1727396073210956e+00 4.2449997259152230e+00 0.0000000000000000e+00  6.1194292677682380e+00 4.3123397932552905e+00 0.0000000000000000e+00  6.0663501327892888e+00 4.3796798605953589e+00 0.0000000000000000e+00  6.0135022023842426e+00 4.4470199279354254e+00 0.0000000000000000e+00  5.9608854765530994e+00 4.5143599952754920e+00 0.0000000000000000e+00  5.9084999552958681e+00 4.5817000626155613e+00 0.0000000000000000e+00  5.8563456386125328e+00 4.6490401299556270e+00 0.0000000000000000e+00  5.8044225265031049e+00 4.7163801972956936e+00 0.0000000000000000e+00  5.7527306189675826e+00 4.7837202646357628e+00 0.0000000000000000e+00  5.7012699160059661e+00 4.8510603319758276e+00 0.0000000000000000e+00  5.6500404176182517e+00 4.9184003993158978e+00 0.0000000000000000e+00  5.5990421238044457e+00 4.9857404666559644e+00 0.0000000000000000e+00  5.5482750345645400e+00 5.0530805339960319e+00 0.0000000000000000e+00  5.4977391498985391e+00 5.1204206013360967e+00 0.0000000000000000e+00  5.4474344698064447e+00 5.1877606686761677e+00 0.0000000000000000e+00  5.3973609942882597e+00 5.2551007360162334e+00 0.0000000000000000e+00  5.3475187233439705e+00 5.3224408033563000e+00 0.0000000000000000e+00  5.2979076569735932e+00 5.3897808706963701e+00 0.0000000000000000e+00  5.2485277951771137e+00 5.4571209380364358e+00 0.0000000000000000e+00  5.1993791379545433e+00 5.5244610053765015e+00 0.0000000000000000e+00  5.1504616853058778e+00 5.5918010727165699e+00 0.0000000000000000e+00  5.1017754372311144e+00 5.6591411400566365e+00 0.0000000000000000e+00  5.0533203937302602e+00 5.7264812073967049e+00 0.0000000000000000e+00  5.0050965548033064e+00 5.7938212747367723e+00 0.0000000000000000e+00  4.9571039204502574e+00 5.8611613420768398e+00 0.0000000000000000e+00  4.9093424906711167e+00 5.9285014094169082e+00 0.0000000000000000e+00  4.8618122654658773e+00 5.9958414767569712e+00 0.0000000000000000e+00  4.8145132448345471e+00 6.0631815440970440e+00 0.0000000000000000e+00  4.7674454287771146e+00 6.1305216114371088e+00 0.0000000000000000e+00  4.7206088172935905e+00 6.1978616787771781e+00 0.0000000000000000e+00  4.6740034103839720e+00 6.2652017461172438e+00 0.0000000000000000e+00  4.6276292080482575e+00 6.3325418134573086e+00 0.0000000000000000e+00  4.5814862102864460e+00 6.3998818807973796e+00 0.0000000000000000e+00  4.5355744170985410e+00 6.4672219481374462e+00 0.0000000000000000e+00  4.4898938284845391e+00 6.5345620154775137e+00 0.0000000000000000e+00  4.4444444444444446e+00 6.6019020828175794e+00 0.0000000000000000e+00  4.3992262649782523e+00 6.6692421501576460e+00 0.0000000000000000e+00  4.3542392900859666e+00 6.7365822174977126e+00 0.0000000000000000e+00  4.3094835197675838e+00 6.8039222848377854e+00 0.0000000000000000e+00  4.2649589540231059e+00 6.8712623521778484e+00 0.0000000000000000e+00  4.2206655928525345e+00 6.9386024195179186e+00 0.0000000000000000e+00  4.1766034362558671e+00 7.0059424868579843e+00 0.0000000000000000e+00  4.1327724842331044e+00 7.0732825541980526e+00 0.0000000000000000e+00  4.0891727367842430e+00 7.1406226215381174e+00 0.0000000000000000e+00  4.0458041939092917e+00 7.2079626888781894e+00 0.0000000000000000e+00  4.0026668556082425e+00 7.2753027562182542e+00 0.0000000000000000e+00  3.9618000000000007e+00 7.3396343122977878e+00 0.0000000000000000e+00  3.9618000000000011e+00 7.3396343122977870e+00 0.0000000000000000e+00  3.9618000000000007e+00 7.3396343122977870e+00 0.0000000000000000e+00  3.9618000000000011e+00 7.3396343122977861e+00 0.0000000000000000e+00  3.9618000000000007e+00 7.3396343122977878e+00 0.0000000000000000e+00  3.9618000000000007e+00 7.3396343122977878e+00 0.0000000000000000e+00  3.9618000000000011e+00 7.3396343122977870e+00 0.0000000000000000e+00  3.9618000000000007e+00 7.3396343122977870e+00 0.0000000000000000e+00  3.9618000000000011e+00 7.3396343122977861e+00 0.0000000000000000e+00  3.9618000000000007e+00 7.3396343122977878e+00 0.0000000000000000e+00  3.9618000000000007e+00 7.3396343122977878e+00 0.0000000000000000e+00  3.9618000000000011e+00 7.3396343122977870e+00 0.0000000000000000e+00  3.9618000000000007e+00 7.3396343122977870e+00 0.0000000000000000e+00  3.9618000000000011e+00 7.3396343122977861e+00 0.0000000000000000e+00  3.9618000000000007e+00 7.3396343122977878e+00 0.0000000000000000e+00  3.9618000000000007e+00 7.3396343122977878e+00 0.0000000000000000e+00  3.9618000000000011e+00 7.3396343122977870e+00 0.0000000000000000e+00  3.9618000000000007e+00 7.3396343122977870e+00 0.0000000000000000e+00  3.9618000000000011e+00 7.3396343122977861e+00 0.0000000000000000e+00  3.9618000000000007e+00 7.3396343122977878e+00 0.0000000000000000e+00  3.9618000000000007e+00 7.3396343122977878e+00 0.0000000000000000e+00  3.9618000000000011e+00 7.3396343122977870e+00 0.0000000000000000e+00  3.9618000000000007e+00 7.3396343122977870e+00 0.0000000000000000e+00  3.9618000000000011e+00 7.3396343122977861e+00 0.0000000000000000e+00  3.9618000000000007e+00 7.3396343122977878e+00 0.0000000000000000e+00  3.9618000000000007e+00 7.3396343122977878e+00 0.0000000000000000e+00  3.9618000000000011e+00 7.3396343122977870e+00 0.0000000000000000e+00  3.9618000000000007e+00 7.3396343122977870e+00 0.0000000000000000e+00  3.9618000000000011e+00 7.3396343122977861e+00 0.0000000000000000e+00  3.9618000000000007e+00 7.3396343122977878e+00 0.0000000000000000e+00  3.9618000000000007e+00 7.3396343122977878e+00 0.0000000000000000e+00  3.9618000000000011e+00 7.3396343122977870e+00 0.0000000000000000e+00  3.9618000000000007e+00 7.3396343122977870e+00 0.0000000000000000e+00  3.9618000000000011e+00 7.3396343122977861e+00 0.0000000000000000e+00  3.9618000000000007e+00 7.3396343122977878e+00 0.0000000000000000e+00  3.9618000000000007e+00 7.3396343122977878e+00 0.0000000000000000e+00  3.9618000000000011e+00 7.3396343122977870e+00 0.0000000000000000e+00  3.9618000000000007e+00 7.3396343122977870e+00 0.0000000000000000e+00  3.9618000000000011e+00 7.3396343122977861e+00 0.0000000000000000e+00  3.9618000000000007e+00 7.3396343122977878e+00 0.0000000000000000e+00  3.9618000000000007e+00 7.3396343122977878e+00 0.0000000000000000e+00  3.9618000000000011e+00 7.3396343122977870e+00 0.0000000000000000e+00  3.9618000000000007e+00 7.3396343122977870e+00 0.0000000000000000e+00  3.9618000000000011e+00 7.3396343122977861e+00 0.0000000000000000e+00  3.9618000000000007e+00 7.3396343122977878e+00 0.0000000000000000e+00  3.9618000000000007e+00 7.3396343122977878e+00 0.0000000000000000e+00  3.9618000000000011e+00 7.3396343122977870e+00 0.0000000000000000e+00  3.9618000000000007e+00 7.3396343122977870e+00 0.0000000000000000e+00  3.9618000000000007e+00 7.3396343122977861e+00 0.0000000000000000e+00  3.9618000000000011e+00 7.3396343122977870e+00 0.0000000000000000e+00  3.9618000000000011e+00 7.3396343122977887e+00 0.0000000000000000e+00  3.9618000000000007e+00 7.3396343122977878e+00 0.0000000000000000e+00  3.9618000000000007e+00 7.3396343122977887e+00 0.0000000000000000e+00  3.9618000000000007e+00 7.3396343122977878e+00 0.0000000000000000e+00  3.9618000000000007e+00 7.3396343122977870e+00 0.0000000000000000e+00  3.9618000000000007e+00 7.3396343122977878e+00 0.0000000000000000e+00  3.9618000000000007e+00 7.3396343122977878e+00 0.0000000000000000e+00  3.9618000000000007e+00 7.3396343122977887e+00 0.0000000000000000e+00  3.9618000000000007e+00 7.3396343122977878e+00 0.0000000000000000e+00  3.9618000000000007e+00 7.3396343122977870e+00 0.0000000000000000e+00  3.9618000000000007e+00 7.3396343122977878e+00 0.0000000000000000e+00  3.9618000000000007e+00 7.3396343122977878e+00 0.0000000000000000e+00  3.9618000000000007e+00 7.3396343122977887e+00 0.0000000000000000e+00  3.9618000000000007e+00 7.3396343122977878e+00 0.0000000000000000e+00  3.9618000000000007e+00 7.3396343122977870e+00 0.0000000000000000e+00  3.9618000000000007e+00 7.3396343122977878e+00 0.0000000000000000e+00  3.9618000000000007e+00 7.3396343122977878e+00 0.0000000000000000e+00  3.9618000000000007e+00 7.3396343122977887e+00 0.0000000000000000e+00  3.9618000000000007e+00 7.3396343122977878e+00 0.0000000000000000e+00  3.9618000000000007e+00 7.3396343122977870e+00 0.0000000000000000e+00  3.9618000000000007e+00 7.3396343122977878e+00 0.0000000000000000e+00  3.9618000000000007e+00 7.3396343122977878e+00 0.0000000000000000e+00  3.9618000000000007e+00 7.3396343122977887e+00 0.0000000000000000e+00  3.9618000000000007e+00 7.3396343122977878e+00 0.0000000000000000e+00  3.9618000000000007e+00 7.3396343122977870e+00 0.0000000000000000e+00  3.9618000000000007e+00 7.3396343122977878e+00 0.0000000000000000e+00  3.9618000000000007e+00 7.3396343122977878e+00 0.0000000000000000e+00  3.9618000000000007e+00 7.3396343122977887e+00 0.0000000000000000e+00  3.9618000000000007e+00 7.3396343122977878e+00 0.0000000000000000e+00  3.9618000000000007e+00 7.3396343122977870e+00 0.0000000000000000e+00  3.9618000000000007e+00 7.3396343122977878e+00 0.0000000000000000e+00  3.9618000000000007e+00 7.3396343122977878e+00 0.0000000000000000e+00  3.9618000000000007e+00 7.3396343122977887e+00 0.0000000000000000e+00  3.9618000000000007e+00 7.3396343122977878e+00 0.0000000000000000e+00  3.9618000000000007e+00 7.3396343122977870e+00 0.0000000000000000e+00  3.9618000000000011e+00 7.3396343122977887e+00 0.0000000000000000e+00  3.9618000000000002e+00 7.3396343122977870e+00 0.0000000000000000e+00  1.0000000000000007e+00 7.2482817321111474e-16 0.0000000000000000e+00  1.0000000000000000e+00 -2.0709376377460096e-16 0.0000000000000000e+00  1.0000000000000002e+00 1.0354688188730043e-16 0.0000000000000000e+00  </DataArray> 
</PointData> 
</Piece>
</UnstructuredGrid>
</VTKFile>