<?xml version="1.0"?>
<VTKFile type="UnstructuredGrid"  version="0.1"  >
<UnstructuredGrid>
<Piece  NumberOfPoints="201" NumberOfCells="200">
<Points>
<DataArray  type="Float64"  NumberOfComponents="3"  format="ascii">-5 0 0  -4.95 0 0  -4.9 0 0  -4.85 0 0  -4.8 0 0  -4.75 0 0  -4.7 0 0  -4.65 0 0  -4.6 0 0  -4.55 0 0  -4.5 0 0  -4.45 0 0  -4.4 0 0  -4.35 0 0  -4.3 0 0  -4.25 0 0  -4.2 0 0  -4.15 0 0  -4.1 0 0  -4.05 0 0  -4 0 0  -3.95 0 0  -3.9 0 0  -3.85 0 0  -3.8 0 0  -3.75 0 0  -3.7 0 0  -3.65 0 0  -3.6 0 0  -3.55 0 0  -3.5 0 0  -3.45 0 0  -3.4 0 0  -3.35 0 0  -3.3 0 0  -3.25 0 0  -3.2 0 0  -3.15 0 0  -3.1 0 0  -3.05 0 0  -3 0 0  -2.95 0 0  -2.9 0 0  -2.85 0 0  -2.8 0 0  -2.75 0 0  -2.7 0 0  -2.65 0 0  -2.6 0 0  -2.55 0 0  -2.5 0 0  -2.45 0 0  -2.4 0 0  -2.35 0 0  -2.3 0 0  -2.25 0 0  -2.2 0 0  -2.15 0 0  -2.1 0 0  -2.05 0 0  -2 0 0  -1.95 0 0  -1.9 0 0  -1.85 0 0  -1.8 0 0  -1.75 0 0  -1.7 0 0  -1.65 0 0  -1.6 0 0  -1.55 0 0  -1.5 0 0  -1.45 0 0  -1.4 0 0  -1.35 0 0  -1.3 0 0  -1.25 0 0  -1.2 0 0  -1.15 0 0  -1.1 0 0  -1.05 0 0  -1 0 0  -0.9500000000000002 0 0  -0.9000000000000004 0 0  -0.8499999999999996 0 0  -0.7999999999999998 0 0  -0.75 0 0  -0.7000000000000002 0 0  -0.6500000000000004 0 0  -0.5999999999999996 0 0  -0.5499999999999998 0 0  -0.5 0 0  -0.4500000000000002 0 0  -0.4000000000000004 0 0  -0.3499999999999996 0 0  -0.2999999999999998 0 0  -0.25 0 0  -0.2000000000000002 0 0  -0.1500000000000004 0 0  -0.09999999999999964 0 0  -0.04999999999999982 0 0  0 0 0  0.04999999999999982 0 0  0.09999999999999964 0 0  0.1500000000000004 0 0  0.2000000000000002 0 0  0.25 0 0  0.2999999999999998 0 0  0.3499999999999996 0 0  0.4000000000000004 0 0  0.4500000000000002 0 0  0.5 0 0  0.5499999999999998 0 0  0.5999999999999996 0 0  0.6500000000000004 0 0  0.7000000000000002 0 0  0.75 0 0  0.7999999999999998 0 0  0.8499999999999996 0 0  0.9000000000000004 0 0  0.9500000000000002 0 0  1 0 0  1.05 0 0  1.1 0 0  1.15 0 0  1.2 0 0  1.25 0 0  1.3 0 0  1.35 0 0  1.4 0 0  1.45 0 0  1.5 0 0  1.55 0 0  1.6 0 0  1.65 0 0  1.7 0 0  1.75 0 0  1.8 0 0  1.85 0 0  1.9 0 0  1.95 0 0  2 0 0  2.05 0 0  2.1 0 0  2.15 0 0  2.2 0 0  2.25 0 0  2.3 0 0  2.35 0 0  2.4 0 0  2.45 0 0  2.5 0 0  2.55 0 0  2.6 0 0  2.65 0 0  2.7 0 0  2.75 0 0  2.8 0 0  2.85 0 0  2.9 0 0  2.95 0 0  3 0 0  3.050000000000001 0 0  3.1 0 0  3.15 0 0  3.199999999999999 0 0  3.25 0 0  3.300000000000001 0 0  3.35 0 0  3.4 0 0  3.449999999999999 0 0  3.5 0 0  3.550000000000001 0 0  3.6 0 0  3.65 0 0  3.699999999999999 0 0  3.75 0 0  3.800000000000001 0 0  3.85 0 0  3.9 0 0  3.949999999999999 0 0  4 0 0  4.050000000000001 0 0  4.1 0 0  4.15 0 0  4.199999999999999 0 0  4.25 0 0  4.300000000000001 0 0  4.35 0 0  4.4 0 0  4.449999999999999 0 0  4.5 0 0  4.550000000000001 0 0  4.6 0 0  4.65 0 0  4.699999999999999 0 0  4.75 0 0  4.800000000000001 0 0  4.85 0 0  4.9 0 0  4.949999999999999 0 0  5 0 0  </DataArray>
</Points>
<Cells>
<DataArray  type="UInt32"  Name="connectivity"  format="ascii">0 1  1 2  2 3  3 4  4 5  5 6  6 7  7 8  8 9  9 10  10 11  11 12  12 13  13 14  14 15  15 16  16 17  17 18  18 19  19 20  20 21  21 22  22 23  23 24  24 25  25 26  26 27  27 28  28 29  29 30  30 31  31 32  32 33  33 34  34 35  35 36  36 37  37 38  38 39  39 40  40 41  41 42  42 43  43 44  44 45  45 46  46 47  47 48  48 49  49 50  50 51  51 52  52 53  53 54  54 55  55 56  56 57  57 58  58 59  59 60  60 61  61 62  62 63  63 64  64 65  65 66  66 67  67 68  68 69  69 70  70 71  71 72  72 73  73 74  74 75  75 76  76 77  77 78  78 79  79 80  80 81  81 82  82 83  83 84  84 85  85 86  86 87  87 88  88 89  89 90  90 91  91 92  92 93  93 94  94 95  95 96  96 97  97 98  98 99  99 100  100 101  101 102  102 103  103 104  104 105  105 106  106 107  107 108  108 109  109 110  110 111  111 112  112 113  113 114  114 115  115 116  116 117  117 118  118 119  119 120  120 121  121 122  122 123  123 124  124 125  125 126  126 127  127 128  128 129  129 130  130 131  131 132  132 133  133 134  134 135  135 136  136 137  137 138  138 139  139 140  140 141  141 142  142 143  143 144  144 145  145 146  146 147  147 148  148 149  149 150  150 151  151 152  152 153  153 154  154 155  155 156  156 157  157 158  158 159  159 160  160 161  161 162  162 163  163 164  164 165  165 166  166 167  167 168  168 169  169 170  170 171  171 172  172 173  173 174  174 175  175 176  176 177  177 178  178 179  179 180  180 181  181 182  182 183  183 184  184 185  185 186  186 187  187 188  188 189  189 190  190 191  191 192  192 193  193 194  194 195  195 196  196 197  197 198  198 199  199 200  </DataArray>
<DataArray  type="UInt32"  Name="offsets"  format="ascii">2 4 6 8 10 12 14 16 18 20 22 24 26 28 30 32 34 36 38 40 42 44 46 48 50 52 54 56 58 60 62 64 66 68 70 72 74 76 78 80 82 84 86 88 90 92 94 96 98 100 102 104 106 108 110 112 114 116 118 120 122 124 126 128 130 132 134 136 138 140 142 144 146 148 150 152 154 156 158 160 162 164 166 168 170 172 174 176 178 180 182 184 186 188 190 192 194 196 198 200 202 204 206 208 210 212 214 216 218 220 222 224 226 228 230 232 234 236 238 240 242 244 246 248 250 252 254 256 258 260 262 264 266 268 270 272 274 276 278 280 282 284 286 288 290 292 294 296 298 300 302 304 306 308 310 312 314 316 318 320 322 324 326 328 330 332 334 336 338 340 342 344 346 348 350 352 354 356 358 360 362 364 366 368 370 372 374 376 378 380 382 384 386 388 390 392 394 396 398 400 </DataArray>
<DataArray  type="UInt8"  Name="types"  format="ascii">3 3 3 3 3 3 3 3 3 3 3 3 3 3 3 3 3 3 3 3 3 3 3 3 3 3 3 3 3 3 3 3 3 3 3 3 3 3 3 3 3 3 3 3 3 3 3 3 3 3 3 3 3 3 3 3 3 3 3 3 3 3 3 3 3 3 3 3 3 3 3 3 3 3 3 3 3 3 3 3 3 3 3 3 3 3 3 3 3 3 3 3 3 3 3 3 3 3 3 3 3 3 3 3 3 3 3 3 3 3 3 3 3 3 3 3 3 3 3 3 3 3 3 3 3 3 3 3 3 3 3 3 3 3 3 3 3 3 3 3 3 3 3 3 3 3 3 3 3 3 3 3 3 3 3 3 3 3 3 3 3 3 3 3 3 3 3 3 3 3 3 3 3 3 3 3 3 3 3 3 3 3 3 3 3 3 3 3 3 3 3 3 3 3 3 3 3 3 3 3 </DataArray>
</Cells>
<PointData  Vectors="f_5"> 
<DataArray  type="Float64"  Name="f_5"  NumberOfComponents="3" format="ascii">1.0000000000000002e+01 0.0000000000000000e+00 0.0000000000000000e+00  1.0000000000000002e+01 0.0000000000000000e+00 0.0000000000000000e+00  1.0000000000000002e+01 0.0000000000000000e+00 0.0000000000000000e+00  1.0000000000000002e+01 0.0000000000000000e+00 0.0000000000000000e+00  1.0000000000000002e+01 0.0000000000000000e+00 0.0000000000000000e+00  1.0000000000000004e+01 0.0000000000000000e+00 0.0000000000000000e+00  1.0000000000000002e+01 0.0000000000000000e+00 0.0000000000000000e+00  1.0000000000000004e+01 0.0000000000000000e+00 0.0000000000000000e+00  1.0000000000000002e+01 0.0000000000000000e+00 0.0000000000000000e+00  1.0000000000000002e+01 0.0000000000000000e+00 0.0000000000000000e+00  1.0000000000000004e+01 0.0000000000000000e+00 0.0000000000000000e+00  1.0000000000000000e+01 0.0000000000000000e+00 0.0000000000000000e+00  1.0000000000000002e+01 0.0000000000000000e+00 0.0000000000000000e+00  1.0000000000000002e+01 0.0000000000000000e+00 0.0000000000000000e+00  1.0000000000000004e+01 0.0000000000000000e+00 0.0000000000000000e+00  1.0000000000000002e+01 0.0000000000000000e+00 0.0000000000000000e+00  1.0000000000000002e+01 0.0000000000000000e+00 0.0000000000000000e+00  1.0000000000000004e+01 0.0000000000000000e+00 0.0000000000000000e+00  1.0000000000000002e+01 0.0000000000000000e+00 0.0000000000000000e+00  9.9999999999999982e+00 0.0000000000000000e+00 0.0000000000000000e+00  1.0000000000000002e+01 0.0000000000000000e+00 0.0000000000000000e+00  1.0000000000000004e+01 0.0000000000000000e+00 0.0000000000000000e+00  1.0000000000000002e+01 0.0000000000000000e+00 0.0000000000000000e+00  1.0000000000000002e+01 0.0000000000000000e+00 0.0000000000000000e+00  1.0000000000000004e+01 0.0000000000000000e+00 0.0000000000000000e+00  1.0000000000000004e+01 0.0000000000000000e+00 0.0000000000000000e+00  1.0000000000000002e+01 0.0000000000000000e+00 0.0000000000000000e+00  1.0000000000000004e+01 0.0000000000000000e+00 0.0000000000000000e+00  1.0000000000000002e+01 0.0000000000000000e+00 0.0000000000000000e+00  1.0000000000000004e+01 0.0000000000000000e+00 0.0000000000000000e+00  1.0000000000000004e+01 0.0000000000000000e+00 0.0000000000000000e+00  1.0000000000000002e+01 0.0000000000000000e+00 0.0000000000000000e+00  1.0000000000000004e+01 0.0000000000000000e+00 0.0000000000000000e+00  1.0000000000000002e+01 0.0000000000000000e+00 0.0000000000000000e+00  1.0000000000000004e+01 0.0000000000000000e+00 0.0000000000000000e+00  1.0000000000000004e+01 0.0000000000000000e+00 0.0000000000000000e+00  1.0000000000000002e+01 0.0000000000000000e+00 0.0000000000000000e+00  1.0000000000000004e+01 0.0000000000000000e+00 0.0000000000000000e+00  1.0000000000000002e+01 0.0000000000000000e+00 0.0000000000000000e+00  1.0000000000000004e+01 0.0000000000000000e+00 0.0000000000000000e+00  1.0000000000000004e+01 0.0000000000000000e+00 0.0000000000000000e+00  1.0000000000000002e+01 0.0000000000000000e+00 0.0000000000000000e+00  1.0000000000000004e+01 0.0000000000000000e+00 0.0000000000000000e+00  1.0000000000000002e+01 0.0000000000000000e+00 0.0000000000000000e+00  1.0000000000000004e+01 0.0000000000000000e+00 0.0000000000000000e+00  1.0000000000000004e+01 0.0000000000000000e+00 0.0000000000000000e+00  1.0000000000000002e+01 0.0000000000000000e+00 0.0000000000000000e+00  1.0000000000000004e+01 0.0000000000000000e+00 0.0000000000000000e+00  1.0000000000000002e+01 0.0000000000000000e+00 0.0000000000000000e+00  1.0000000000000004e+01 0.0000000000000000e+00 0.0000000000000000e+00  1.0000000000000004e+01 0.0000000000000000e+00 0.0000000000000000e+00  1.0000000000000002e+01 0.0000000000000000e+00 0.0000000000000000e+00  1.0000000000000004e+01 0.0000000000000000e+00 0.0000000000000000e+00  1.0000000000000002e+01 0.0000000000000000e+00 0.0000000000000000e+00  1.0000000000000004e+01 0.0000000000000000e+00 0.0000000000000000e+00  1.0000000000000004e+01 0.0000000000000000e+00 0.0000000000000000e+00  1.0000000000000002e+01 0.0000000000000000e+00 0.0000000000000000e+00  1.0000000000000004e+01 0.0000000000000000e+00 0.0000000000000000e+00  1.0000000000000002e+01 0.0000000000000000e+00 0.0000000000000000e+00  1.0000000000000004e+01 0.0000000000000000e+00 0.0000000000000000e+00  1.0000000000000004e+01 0.0000000000000000e+00 0.0000000000000000e+00  1.0000000000000002e+01 0.0000000000000000e+00 0.0000000000000000e+00  1.0000000000000004e+01 0.0000000000000000e+00 0.0000000000000000e+00  1.0000000000000002e+01 0.0000000000000000e+00 0.0000000000000000e+00  1.0000000000000004e+01 0.0000000000000000e+00 0.0000000000000000e+00  1.0000000000000004e+01 0.0000000000000000e+00 0.0000000000000000e+00  1.0000000000000002e+01 0.0000000000000000e+00 0.0000000000000000e+00  1.0000000000000004e+01 0.0000000000000000e+00 0.0000000000000000e+00  1.0000000000000002e+01 0.0000000000000000e+00 0.0000000000000000e+00  1.0000000000000004e+01 0.0000000000000000e+00 0.0000000000000000e+00  1.0000000000000004e+01 0.0000000000000000e+00 0.0000000000000000e+00  1.0000000000000002e+01 0.0000000000000000e+00 0.0000000000000000e+00  1.0000000000000004e+01 0.0000000000000000e+00 0.0000000000000000e+00  1.0000000000000002e+01 0.0000000000000000e+00 0.0000000000000000e+00  1.0000000000000004e+01 0.0000000000000000e+00 0.0000000000000000e+00  1.0000000000000004e+01 0.0000000000000000e+00 0.0000000000000000e+00  1.0000000000000002e+01 0.0000000000000000e+00 0.0000000000000000e+00  1.0000000000000004e+01 0.0000000000000000e+00 0.0000000000000000e+00  1.0000000000000002e+01 0.0000000000000000e+00 0.0000000000000000e+00  1.0000000000000004e+01 0.0000000000000000e+00 0.0000000000000000e+00  1.0000000000000002e+01 0.0000000000000000e+00 0.0000000000000000e+00  1.0000000000000002e+01 0.0000000000000000e+00 0.0000000000000000e+00  1.0000000000000004e+01 0.0000000000000000e+00 0.0000000000000000e+00  1.0000000000000002e+01 0.0000000000000000e+00 0.0000000000000000e+00  9.9999999999999982e+00 0.0000000000000000e+00 0.0000000000000000e+00  1.0000000000000002e+01 0.0000000000000000e+00 0.0000000000000000e+00  1.0000000000000002e+01 0.0000000000000000e+00 0.0000000000000000e+00  1.0000000000000004e+01 0.0000000000000000e+00 0.0000000000000000e+00  1.0000000000000002e+01 0.0000000000000000e+00 0.0000000000000000e+00  9.9999999999999982e+00 0.0000000000000000e+00 0.0000000000000000e+00  1.0000000000000002e+01 0.0000000000000000e+00 0.0000000000000000e+00  1.0000000000000002e+01 0.0000000000000000e+00 0.0000000000000000e+00  1.0000000000000004e+01 0.0000000000000000e+00 0.0000000000000000e+00  1.0000000000000002e+01 0.0000000000000000e+00 0.0000000000000000e+00  9.9999999999999982e+00 0.0000000000000000e+00 0.0000000000000000e+00  1.0000000000000002e+01 0.0000000000000000e+00 0.0000000000000000e+00  1.0000000000000000e+01 0.0000000000000000e+00 0.0000000000000000e+00  8.4478003727265811e+00 1.6019020828175687e+00 0.0000000000000000e+00  6.9717211448300276e+00 3.2685687494842575e+00 0.0000000000000000e+00  5.6372691687359904e+00 4.9352354161509213e+00 0.0000000000000000e+00  4.4444444444444438e+00 6.6019020828175794e+00 0.0000000000000000e+00  3.9618000000000015e+00 7.3396343122977896e+00 0.0000000000000000e+00  3.9618000000000007e+00 7.3396343122977870e+00 0.0000000000000000e+00  3.9618000000000015e+00 7.3396343122977870e+00 0.0000000000000000e+00  9.9999999999999989e-01 2.4037033579794615e-16 0.0000000000000000e+00  1.0000000000000002e+00 -6.4407037361457424e-17 0.0000000000000000e+00  1.0000000000000000e+00 1.7257813647883649e-17 0.0000000000000000e+00  1.0000000000000000e+00 -4.6242172300771946e-18 0.0000000000000000e+00  1.0000000000000002e+00 1.2390552724252770e-18 0.0000000000000000e+00  1.0000000000000002e+00 -3.3200385962387764e-19 0.0000000000000000e+00  1.0000000000000000e+00 8.8960166070233796e-20 0.0000000000000000e+00  1.0000000000000000e+00 -2.3836804657057682e-20 0.0000000000000000e+00  1.0000000000000000e+00 6.3870525579969808e-21 0.0000000000000000e+00  1.0000000000000002e+00 -1.7114055749304404e-21 0.0000000000000000e+00  1.0000000000000002e+00 4.5856974172473264e-22 0.0000000000000000e+00  1.0000000000000000e+00 -1.2287339196849057e-22 0.0000000000000000e+00  1.0000000000000000e+00 3.2923826149229808e-23 0.0000000000000000e+00  1.0000000000000000e+00 -8.8219126284287366e-24 0.0000000000000000e+00  1.0000000000000002e+00 2.3638243644854215e-24 0.0000000000000000e+00  1.0000000000000002e+00 -6.3338482951288043e-25 0.0000000000000000e+00  1.0000000000000000e+00 1.6971495356610057e-25 0.0000000000000000e+00  1.0000000000000000e+00 -4.5474984751522084e-26 0.0000000000000000e+00  1.0000000000000000e+00 1.2184985439987867e-26 0.0000000000000000e+00  1.0000000000000002e+00 -3.2649570084297623e-27 0.0000000000000000e+00  1.0000000000000002e+00 8.7484259373108902e-28 0.0000000000000000e+00  1.0000000000000000e+00 -2.3441336649459394e-28 0.0000000000000000e+00  1.0000000000000000e+00 6.2810872247287193e-29 0.0000000000000000e+00  1.0000000000000000e+00 -1.6830122494554887e-29 0.0000000000000000e+00  1.0000000000000002e+00 4.5096177309328897e-30 0.0000000000000000e+00  1.0000000000000002e+00 -1.2083484291765395e-30 0.0000000000000000e+00  1.0000000000000000e+00 3.2377598577326931e-31 0.0000000000000000e+00  1.0000000000000000e+00 -8.6755513916538101e-32 0.0000000000000000e+00  1.0000000000000000e+00 2.3246069892883225e-32 0.0000000000000000e+00  1.0000000000000002e+00 -6.2287656549955443e-33 0.0000000000000000e+00  1.0000000000000002e+00 1.6689927270987685e-33 0.0000000000000000e+00  1.0000000000000000e+00 -4.4720525339953201e-34 0.0000000000000000e+00  1.0000000000000000e+00 1.1982828649936008e-34 0.0000000000000000e+00  1.0000000000000000e+00 -3.2107892597908487e-35 0.0000000000000000e+00  1.0000000000000002e+00 8.6032838922748665e-36 0.0000000000000000e+00  1.0000000000000002e+00 -2.3052429711907359e-36 0.0000000000000000e+00  1.0000000000000000e+00 6.1768799248807918e-37 0.0000000000000000e+00  1.0000000000000000e+00 -1.6550899876158202e-37 0.0000000000000000e+00  1.0000000000000000e+00 4.4348002558249245e-38 0.0000000000000000e+00  1.0000000000000002e+00 -1.1883011471416341e-38 0.0000000000000000e+00  1.0000000000000002e+00 3.1840433274157746e-39 0.0000000000000000e+00  1.0000000000000000e+00 -8.5316183824676117e-40 0.0000000000000000e+00  1.0000000000000000e+00 2.2860402557127161e-40 0.0000000000000000e+00  1.0000000000000000e+00 -6.1254264038325464e-41 0.0000000000000000e+00  1.0000000000000002e+00 1.6413030582032198e-41 0.0000000000000000e+00  1.0000000000000002e+00 -4.3978582898028459e-42 0.0000000000000000e+00  1.0000000000000000e+00 1.1784025771791905e-42 0.0000000000000000e+00  1.0000000000000000e+00 -3.1575201891391753e-43 0.0000000000000000e+00  1.0000000000000000e+00 8.4605498476480104e-44 0.0000000000000000e+00  1.0000000000000002e+00 -2.2669974992005604e-44 0.0000000000000000e+00  1.0000000000000002e+00 6.0744014915416472e-45 0.0000000000000000e+00  1.0000000000000000e+00 -1.6276309741609910e-45 0.0000000000000000e+00  1.0000000000000000e+00 4.3612240510231872e-46 0.0000000000000000e+00  1.0000000000000000e+00 -1.1685864624828431e-46 0.0000000000000000e+00  1.0000000000000002e+00 3.1312179890822272e-47 0.0000000000000000e+00  1.0000000000000002e+00 -8.3900733150038610e-48 0.0000000000000000e+00  9.9999999999999989e-01 2.2481133691931802e-48 0.0000000000000000e+00  1.0000000000000004e+00 -6.0238016176893212e-49 0.0000000000000000e+00  9.9999999999999989e-01 1.6140727788251187e-49 0.0000000000000000e+00  1.0000000000000004e+00 -4.3248949761125516e-50 0.0000000000000000e+00  1.0000000000000000e+00 1.1588521161987585e-50 0.0000000000000000e+00  1.0000000000000002e+00 -3.1051348868255505e-51 0.0000000000000000e+00  1.0000000000000002e+00 8.3201838531462422e-52 0.0000000000000000e+00  9.9999999999999989e-01 -2.2293865443289683e-52 0.0000000000000000e+00  1.0000000000000004e+00 5.9736232416976719e-53 0.0000000000000000e+00  1.0000000000000000e+00 -1.6006275235006498e-53 0.0000000000000000e+00  1.0000000000000002e+00 4.2888685230502726e-54 0.0000000000000000e+00  1.0000000000000002e+00 -1.1491988571945998e-54 0.0000000000000000e+00  9.9999999999999989e-01 3.0792690572805729e-55 0.0000000000000000e+00  1.0000000000000004e+00 -8.2508765717648620e-56 0.0000000000000000e+00  1.0000000000000000e+00 2.2108157142532280e-56 0.0000000000000000e+00  1.0000000000000002e+00 -5.9238628524818863e-57 0.0000000000000000e+00  1.0000000000000002e+00 1.5872942673952721e-57 0.0000000000000000e+00  9.9999999999999989e-01 -4.2531421709910709e-58 0.0000000000000000e+00  1.0000000000000004e+00 1.1396260100118266e-58 0.0000000000000000e+00  1.0000000000000000e+00 -3.0536186905616642e-59 0.0000000000000000e+00  1.0000000000000002e+00 8.1821466212858072e-60 0.0000000000000000e+00  1.0000000000000002e+00 -2.1923995795266040e-60 0.0000000000000000e+00  9.9999999999999989e-01 5.8745169682047738e-61 0.0000000000000000e+00  1.0000000000000004e+00 -1.5740720775534198e-61 0.0000000000000000e+00  1.0000000000000000e+00 4.2177134200881133e-62 0.0000000000000000e+00  1.0000000000000002e+00 -1.1301329048185192e-62 0.0000000000000000e+00  1.0000000000000002e+00 3.0281819918596560e-63 0.0000000000000000e+00  9.9999999999999989e-01 -8.1139891925325182e-64 0.0000000000000000e+00  1.0000000000000004e+00 2.1741368515340160e-64 0.0000000000000000e+00  1.0000000000000000e+00 -5.8255821360341488e-65 0.0000000000000000e+00  1.0000000000000002e+00 1.5609600287967992e-65 0.0000000000000000e+00  1.0000000000000002e+00 -4.1825797915305090e-66 0.0000000000000000e+00  9.9999999999999989e-01 1.1207188781537944e-66 0.0000000000000000e+00  1.0000000000000004e+00 -3.0029572108473802e-67 0.0000000000000000e+00  1.0000000000000000e+00 8.0464006185139691e-68 0.0000000000000000e+00  1.0000000000000002e+00 -2.1560303655825749e-68 0.0000000000000000e+00  1.0000000000000002e+00 5.7772084381633389e-69 0.0000000000000000e+00  9.9999999999999989e-01 -1.5485300968272627e-69 0.0000000000000000e+00  1.0000000000000004e+00 4.1691194914580758e-70 0.0000000000000000e+00  1.0000000000000000e+00 -1.1911769975594317e-70 0.0000000000000000e+00  1.0000000000000002e+00 5.9558849877971555e-71 0.0000000000000000e+00  </DataArray> 
</PointData> 
</Piece>
</UnstructuredGrid>
</VTKFile>