<?xml version="1.0"?>
<VTKFile type="UnstructuredGrid"  version="0.1"  >
<UnstructuredGrid>
<Piece  NumberOfPoints="201" NumberOfCells="200">
<Points>
<DataArray  type="Float64"  NumberOfComponents="3"  format="ascii">-5 0 0  -4.95 0 0  -4.9 0 0  -4.85 0 0  -4.8 0 0  -4.75 0 0  -4.7 0 0  -4.65 0 0  -4.6 0 0  -4.55 0 0  -4.5 0 0  -4.45 0 0  -4.4 0 0  -4.35 0 0  -4.3 0 0  -4.25 0 0  -4.2 0 0  -4.15 0 0  -4.1 0 0  -4.05 0 0  -4 0 0  -3.95 0 0  -3.9 0 0  -3.85 0 0  -3.8 0 0  -3.75 0 0  -3.7 0 0  -3.65 0 0  -3.6 0 0  -3.55 0 0  -3.5 0 0  -3.45 0 0  -3.4 0 0  -3.35 0 0  -3.3 0 0  -3.25 0 0  -3.2 0 0  -3.15 0 0  -3.1 0 0  -3.05 0 0  -3 0 0  -2.95 0 0  -2.9 0 0  -2.85 0 0  -2.8 0 0  -2.75 0 0  -2.7 0 0  -2.65 0 0  -2.6 0 0  -2.55 0 0  -2.5 0 0  -2.45 0 0  -2.4 0 0  -2.35 0 0  -2.3 0 0  -2.25 0 0  -2.2 0 0  -2.15 0 0  -2.1 0 0  -2.05 0 0  -2 0 0  -1.95 0 0  -1.9 0 0  -1.85 0 0  -1.8 0 0  -1.75 0 0  -1.7 0 0  -1.65 0 0  -1.6 0 0  -1.55 0 0  -1.5 0 0  -1.45 0 0  -1.4 0 0  -1.35 0 0  -1.3 0 0  -1.25 0 0  -1.2 0 0  -1.15 0 0  -1.1 0 0  -1.05 0 0  -1 0 0  -0.9500000000000002 0 0  -0.9000000000000004 0 0  -0.8499999999999996 0 0  -0.7999999999999998 0 0  -0.75 0 0  -0.7000000000000002 0 0  -0.6500000000000004 0 0  -0.5999999999999996 0 0  -0.5499999999999998 0 0  -0.5 0 0  -0.4500000000000002 0 0  -0.4000000000000004 0 0  -0.3499999999999996 0 0  -0.2999999999999998 0 0  -0.25 0 0  -0.2000000000000002 0 0  -0.1500000000000004 0 0  -0.09999999999999964 0 0  -0.04999999999999982 0 0  0 0 0  0.04999999999999982 0 0  0.09999999999999964 0 0  0.1500000000000004 0 0  0.2000000000000002 0 0  0.25 0 0  0.2999999999999998 0 0  0.3499999999999996 0 0  0.4000000000000004 0 0  0.4500000000000002 0 0  0.5 0 0  0.5499999999999998 0 0  0.5999999999999996 0 0  0.6500000000000004 0 0  0.7000000000000002 0 0  0.75 0 0  0.7999999999999998 0 0  0.8499999999999996 0 0  0.9000000000000004 0 0  0.9500000000000002 0 0  1 0 0  1.05 0 0  1.1 0 0  1.15 0 0  1.2 0 0  1.25 0 0  1.3 0 0  1.35 0 0  1.4 0 0  1.45 0 0  1.5 0 0  1.55 0 0  1.6 0 0  1.65 0 0  1.7 0 0  1.75 0 0  1.8 0 0  1.85 0 0  1.9 0 0  1.95 0 0  2 0 0  2.05 0 0  2.1 0 0  2.15 0 0  2.2 0 0  2.25 0 0  2.3 0 0  2.35 0 0  2.4 0 0  2.45 0 0  2.5 0 0  2.55 0 0  2.6 0 0  2.65 0 0  2.7 0 0  2.75 0 0  2.8 0 0  2.85 0 0  2.9 0 0  2.95 0 0  3 0 0  3.050000000000001 0 0  3.1 0 0  3.15 0 0  3.199999999999999 0 0  3.25 0 0  3.300000000000001 0 0  3.35 0 0  3.4 0 0  3.449999999999999 0 0  3.5 0 0  3.550000000000001 0 0  3.6 0 0  3.65 0 0  3.699999999999999 0 0  3.75 0 0  3.800000000000001 0 0  3.85 0 0  3.9 0 0  3.949999999999999 0 0  4 0 0  4.050000000000001 0 0  4.1 0 0  4.15 0 0  4.199999999999999 0 0  4.25 0 0  4.300000000000001 0 0  4.35 0 0  4.4 0 0  4.449999999999999 0 0  4.5 0 0  4.550000000000001 0 0  4.6 0 0  4.65 0 0  4.699999999999999 0 0  4.75 0 0  4.800000000000001 0 0  4.85 0 0  4.9 0 0  4.949999999999999 0 0  5 0 0  </DataArray>
</Points>
<Cells>
<DataArray  type="UInt32"  Name="connectivity"  format="ascii">0 1  1 2  2 3  3 4  4 5  5 6  6 7  7 8  8 9  9 10  10 11  11 12  12 13  13 14  14 15  15 16  16 17  17 18  18 19  19 20  20 21  21 22  22 23  23 24  24 25  25 26  26 27  27 28  28 29  29 30  30 31  31 32  32 33  33 34  34 35  35 36  36 37  37 38  38 39  39 40  40 41  41 42  42 43  43 44  44 45  45 46  46 47  47 48  48 49  49 50  50 51  51 52  52 53  53 54  54 55  55 56  56 57  57 58  58 59  59 60  60 61  61 62  62 63  63 64  64 65  65 66  66 67  67 68  68 69  69 70  70 71  71 72  72 73  73 74  74 75  75 76  76 77  77 78  78 79  79 80  80 81  81 82  82 83  83 84  84 85  85 86  86 87  87 88  88 89  89 90  90 91  91 92  92 93  93 94  94 95  95 96  96 97  97 98  98 99  99 100  100 101  101 102  102 103  103 104  104 105  105 106  106 107  107 108  108 109  109 110  110 111  111 112  112 113  113 114  114 115  115 116  116 117  117 118  118 119  119 120  120 121  121 122  122 123  123 124  124 125  125 126  126 127  127 128  128 129  129 130  130 131  131 132  132 133  133 134  134 135  135 136  136 137  137 138  138 139  139 140  140 141  141 142  142 143  143 144  144 145  145 146  146 147  147 148  148 149  149 150  150 151  151 152  152 153  153 154  154 155  155 156  156 157  157 158  158 159  159 160  160 161  161 162  162 163  163 164  164 165  165 166  166 167  167 168  168 169  169 170  170 171  171 172  172 173  173 174  174 175  175 176  176 177  177 178  178 179  179 180  180 181  181 182  182 183  183 184  184 185  185 186  186 187  187 188  188 189  189 190  190 191  191 192  192 193  193 194  194 195  195 196  196 197  197 198  198 199  199 200  </DataArray>
<DataArray  type="UInt32"  Name="offsets"  format="ascii">2 4 6 8 10 12 14 16 18 20 22 24 26 28 30 32 34 36 38 40 42 44 46 48 50 52 54 56 58 60 62 64 66 68 70 72 74 76 78 80 82 84 86 88 90 92 94 96 98 100 102 104 106 108 110 112 114 116 118 120 122 124 126 128 130 132 134 136 138 140 142 144 146 148 150 152 154 156 158 160 162 164 166 168 170 172 174 176 178 180 182 184 186 188 190 192 194 196 198 200 202 204 206 208 210 212 214 216 218 220 222 224 226 228 230 232 234 236 238 240 242 244 246 248 250 252 254 256 258 260 262 264 266 268 270 272 274 276 278 280 282 284 286 288 290 292 294 296 298 300 302 304 306 308 310 312 314 316 318 320 322 324 326 328 330 332 334 336 338 340 342 344 346 348 350 352 354 356 358 360 362 364 366 368 370 372 374 376 378 380 382 384 386 388 390 392 394 396 398 400 </DataArray>
<DataArray  type="UInt8"  Name="types"  format="ascii">3 3 3 3 3 3 3 3 3 3 3 3 3 3 3 3 3 3 3 3 3 3 3 3 3 3 3 3 3 3 3 3 3 3 3 3 3 3 3 3 3 3 3 3 3 3 3 3 3 3 3 3 3 3 3 3 3 3 3 3 3 3 3 3 3 3 3 3 3 3 3 3 3 3 3 3 3 3 3 3 3 3 3 3 3 3 3 3 3 3 3 3 3 3 3 3 3 3 3 3 3 3 3 3 3 3 3 3 3 3 3 3 3 3 3 3 3 3 3 3 3 3 3 3 3 3 3 3 3 3 3 3 3 3 3 3 3 3 3 3 3 3 3 3 3 3 3 3 3 3 3 3 3 3 3 3 3 3 3 3 3 3 3 3 3 3 3 3 3 3 3 3 3 3 3 3 3 3 3 3 3 3 3 3 3 3 3 3 3 3 3 3 3 3 3 3 3 3 3 3 </DataArray>
</Cells>
<PointData  Vectors="f_5"> 
<DataArray  type="Float64"  Name="f_5"  NumberOfComponents="3" format="ascii">1.0000000000000002e+01 -1.1551534144567907e-54 0.0000000000000000e+00  1.0000000000000002e+01 2.3103068289135819e-54 0.0000000000000000e+00  1.0000000000000002e+01 -8.0860739011975417e-54 0.0000000000000000e+00  1.0000000000000002e+01 3.0033988775876347e-53 0.0000000000000000e+00  1.0000000000000002e+01 -1.1204988120230881e-52 0.0000000000000000e+00  1.0000000000000004e+01 4.1816553603335908e-52 0.0000000000000000e+00  1.0000000000000002e+01 -1.5606122629311282e-51 0.0000000000000000e+00  1.0000000000000004e+01 5.8242835156911566e-51 0.0000000000000000e+00  1.0000000000000002e+01 -2.1736521799833327e-50 0.0000000000000000e+00  1.0000000000000002e+01 8.1121803683642854e-50 0.0000000000000000e+00  1.0000000000000004e+01 -3.0275069293473819e-49 0.0000000000000000e+00  1.0000000000000000e+01 1.1298809680553102e-48 0.0000000000000000e+00  1.0000000000000002e+01 -4.2167731792865044e-48 0.0000000000000000e+00  1.0000000000000002e+01 1.5737211749090586e-47 0.0000000000000000e+00  1.0000000000000004e+01 -5.8732073817076346e-47 0.0000000000000000e+00  1.0000000000000002e+01 2.1919108351921490e-46 0.0000000000000000e+00  1.0000000000000002e+01 -8.1803226025978345e-46 0.0000000000000000e+00  1.0000000000000004e+01 3.0529379575199203e-45 0.0000000000000000e+00  1.0000000000000002e+01 -1.1393719569819807e-44 0.0000000000000000e+00  9.9999999999999982e+00 4.2521940321759680e-44 0.0000000000000000e+00  1.0000000000000002e+01 -1.5869404171721897e-43 0.0000000000000000e+00  1.0000000000000004e+01 5.9225422654711644e-43 0.0000000000000000e+00  1.0000000000000002e+01 -2.2103228644712381e-42 0.0000000000000000e+00  1.0000000000000002e+01 8.2490372313378732e-42 0.0000000000000000e+00  1.0000000000000004e+01 -3.0785826060880140e-41 0.0000000000000000e+00  1.0000000000000004e+01 1.1489426701218317e-40 0.0000000000000000e+00  1.0000000000000002e+01 -4.2879124198785275e-40 0.0000000000000000e+00  1.0000000000000004e+01 1.6002707009392219e-39 0.0000000000000000e+00  1.0000000000000002e+01 -5.9722915617690615e-39 0.0000000000000000e+00  1.0000000000000004e+01 2.2288895546136938e-38 0.0000000000000000e+00  1.0000000000000004e+01 -8.3183290622779055e-38 0.0000000000000000e+00  1.0000000000000002e+01 3.1044426694497943e-37 0.0000000000000000e+00  1.0000000000000004e+01 -1.1585937771571342e-36 0.0000000000000000e+00  1.0000000000000002e+01 4.3239308416835768e-36 0.0000000000000000e+00  1.0000000000000004e+01 -1.6137129589577114e-35 0.0000000000000000e+00  1.0000000000000004e+01 6.0224587516625145e-35 0.0000000000000000e+00  1.0000000000000002e+01 -2.2476122047692354e-34 0.0000000000000000e+00  1.0000000000000004e+01 8.3882029439106603e-34 0.0000000000000000e+00  1.0000000000000002e+01 -3.1305199570873541e-33 0.0000000000000000e+00  1.0000000000000004e+01 1.1683259533958307e-32 0.0000000000000000e+00  1.0000000000000004e+01 -4.3602518178746070e-32 0.0000000000000000e+00  1.0000000000000002e+01 1.6272681318102603e-31 0.0000000000000000e+00  1.0000000000000004e+01 -6.0730473454535579e-31 0.0000000000000000e+00  1.0000000000000002e+01 2.2664921250004074e-30 0.0000000000000000e+00  1.0000000000000004e+01 -8.4586637654562420e-30 0.0000000000000000e+00  1.0000000000000004e+01 3.1568162936824698e-29 0.0000000000000000e+00  1.0000000000000002e+01 -1.1781398798184260e-28 0.0000000000000000e+00  1.0000000000000004e+01 4.3968778899054409e-28 0.0000000000000000e+00  1.0000000000000002e+01 -1.6409371679803412e-27 0.0000000000000000e+00  1.0000000000000004e+01 6.1240608829307975e-27 0.0000000000000000e+00  1.0000000000000004e+01 -2.2855306363742948e-26 0.0000000000000000e+00  1.0000000000000002e+01 8.5297164572041038e-26 0.0000000000000000e+00  1.0000000000000004e+01 -3.1833335192442000e-25 0.0000000000000000e+00  1.0000000000000002e+01 1.1880362431256441e-24 0.0000000000000000e+00  1.0000000000000004e+01 -4.4338116205781402e-24 0.0000000000000000e+00  1.0000000000000004e+01 1.6547210239186986e-23 0.0000000000000000e+00  1.0000000000000002e+01 -6.1755029336169839e-23 0.0000000000000000e+00  1.0000000000000004e+01 2.3047290710549150e-22 0.0000000000000000e+00  1.0000000000000002e+01 -8.6013659908580009e-22 0.0000000000000000e+00  1.0000000000000004e+01 3.2100734892376965e-21 0.0000000000000000e+00  1.0000000000000004e+01 -1.1980157357865040e-20 0.0000000000000000e+00  1.0000000000000002e+01 4.4710555942222483e-20 0.0000000000000000e+00  1.0000000000000004e+01 -1.6686206641102428e-19 0.0000000000000000e+00  1.0000000000000002e+01 6.2273770970187741e-19 0.0000000000000000e+00  1.0000000000000004e+01 -2.3240887723964763e-18 0.0000000000000000e+00  1.0000000000000002e+01 8.6736173798840663e-18 0.0000000000000000e+00  9.8734580387361071e+00 1.2571160662710429e-01 0.0000000000000000e+00  9.6832590503762894e+00 3.1618779710329525e-01 0.0000000000000000e+00  9.4949098873461359e+00 5.0666398757948505e-01 0.0000000000000000e+00  9.3084105496456484e+00 6.9714017805567619e-01 0.0000000000000000e+00  9.1237610372748286e+00 8.8761636853186621e-01 0.0000000000000000e+00  8.9409613502336676e+00 1.0780925590080557e+00 0.0000000000000000e+00  8.7600114885221760e+00 1.2685687494842477e+00 0.0000000000000000e+00  8.5809114521403469e+00 1.4590449399604373e+00 0.0000000000000000e+00  8.4036612410881855e+00 1.6495211304366284e+00 0.0000000000000000e+00  8.2282608553656864e+00 1.8399973209128191e+00 0.0000000000000000e+00  8.0547102949728551e+00 2.0304735113890078e+00 0.0000000000000000e+00  7.8830095599096897e+00 2.2209497018652007e+00 0.0000000000000000e+00  7.7131586501761884e+00 2.4114258923413892e+00 0.0000000000000000e+00  7.5451575657723495e+00 2.6019020828175825e+00 0.0000000000000000e+00  7.3790063066981801e+00 2.7923782732937719e+00 0.0000000000000000e+00  7.2147048729536731e+00 2.9828544637699599e+00 0.0000000000000000e+00  7.0522532645388338e+00 3.1733306542461510e+00 0.0000000000000000e+00  6.8916514814536560e+00 3.3638068447223435e+00 0.0000000000000000e+00  6.7328995236981486e+00 3.5542830351985324e+00 0.0000000000000000e+00  6.5759973912723000e+00 3.7447592256747235e+00 0.0000000000000000e+00  6.4209450841761226e+00 3.9352354161509124e+00 0.0000000000000000e+00  6.2677426024096068e+00 4.1257116066271031e+00 0.0000000000000000e+00  6.1163899459727578e+00 4.3161877971032974e+00 0.0000000000000000e+00  5.9668871148655720e+00 4.5066639875794845e+00 0.0000000000000000e+00  5.8192341090880557e+00 4.6971401780556770e+00 0.0000000000000000e+00  5.6734309286402000e+00 4.8876163685318650e+00 0.0000000000000000e+00  5.5294775735220103e+00 5.0780925590080566e+00 0.0000000000000000e+00  5.3873740437334874e+00 5.2685687494842490e+00 0.0000000000000000e+00  5.2471203392746251e+00 5.4590449399604370e+00 0.0000000000000000e+00  5.1087164601454331e+00 5.6495211304366260e+00 0.0000000000000000e+00  4.9721624063459045e+00 5.8399973209128184e+00 0.0000000000000000e+00  4.8374581778760417e+00 6.0304735113890073e+00 0.0000000000000000e+00  4.7046037747358449e+00 6.2209497018652016e+00 0.0000000000000000e+00  4.5735991969253096e+00 6.4114258923413887e+00 0.0000000000000000e+00  4.4444444444444455e+00 6.6019020828175794e+00 0.0000000000000000e+00  4.3171395172932421e+00 6.7923782732937692e+00 0.0000000000000000e+00  4.1916844154717054e+00 6.9828544637699608e+00 0.0000000000000000e+00  4.0680791389798330e+00 7.1733306542461532e+00 0.0000000000000000e+00  3.9618000000000011e+00 7.3396343122977843e+00 0.0000000000000000e+00  3.9618000000000007e+00 7.3396343122977896e+00 0.0000000000000000e+00  3.9618000000000007e+00 7.3396343122977878e+00 0.0000000000000000e+00  3.9618000000000011e+00 7.3396343122977870e+00 0.0000000000000000e+00  3.9618000000000007e+00 7.3396343122977870e+00 0.0000000000000000e+00  3.9618000000000011e+00 7.3396343122977861e+00 0.0000000000000000e+00  3.9618000000000007e+00 7.3396343122977878e+00 0.0000000000000000e+00  3.9618000000000007e+00 7.3396343122977878e+00 0.0000000000000000e+00  3.9618000000000011e+00 7.3396343122977870e+00 0.0000000000000000e+00  3.9618000000000007e+00 7.3396343122977870e+00 0.0000000000000000e+00  3.9618000000000011e+00 7.3396343122977861e+00 0.0000000000000000e+00  3.9618000000000007e+00 7.3396343122977878e+00 0.0000000000000000e+00  3.9618000000000007e+00 7.3396343122977878e+00 0.0000000000000000e+00  3.9618000000000011e+00 7.3396343122977870e+00 0.0000000000000000e+00  3.9618000000000007e+00 7.3396343122977870e+00 0.0000000000000000e+00  3.9618000000000011e+00 7.3396343122977861e+00 0.0000000000000000e+00  3.9618000000000007e+00 7.3396343122977878e+00 0.0000000000000000e+00  3.9618000000000007e+00 7.3396343122977878e+00 0.0000000000000000e+00  3.9618000000000011e+00 7.3396343122977870e+00 0.0000000000000000e+00  3.9618000000000007e+00 7.3396343122977870e+00 0.0000000000000000e+00  3.9618000000000011e+00 7.3396343122977861e+00 0.0000000000000000e+00  3.9618000000000007e+00 7.3396343122977878e+00 0.0000000000000000e+00  3.9618000000000007e+00 7.3396343122977878e+00 0.0000000000000000e+00  3.9618000000000011e+00 7.3396343122977870e+00 0.0000000000000000e+00  3.9618000000000007e+00 7.3396343122977870e+00 0.0000000000000000e+00  3.9618000000000011e+00 7.3396343122977861e+00 0.0000000000000000e+00  3.9618000000000007e+00 7.3396343122977878e+00 0.0000000000000000e+00  3.9618000000000007e+00 7.3396343122977878e+00 0.0000000000000000e+00  3.9618000000000011e+00 7.3396343122977870e+00 0.0000000000000000e+00  3.9618000000000007e+00 7.3396343122977870e+00 0.0000000000000000e+00  3.9618000000000007e+00 7.3396343122977852e+00 0.0000000000000000e+00  1.0000000000000002e+00 7.2111100739383896e-16 0.0000000000000000e+00  1.0000000000000000e+00 -1.9322111208437232e-16 0.0000000000000000e+00  1.0000000000000000e+00 5.1773440943650592e-17 0.0000000000000000e+00  1.0000000000000002e+00 -1.3872651690231707e-17 0.0000000000000000e+00  1.0000000000000002e+00 3.7171658172758344e-18 0.0000000000000000e+00  1.0000000000000000e+00 -9.9601157887163344e-19 0.0000000000000000e+00  1.0000000000000000e+00 2.6688049821070144e-19 0.0000000000000000e+00  1.0000000000000000e+00 -7.1510413971172556e-20 0.0000000000000000e+00  1.0000000000000002e+00 1.9161157673991110e-20 0.0000000000000000e+00  1.0000000000000002e+00 -5.1342167247913258e-21 0.0000000000000000e+00  1.0000000000000000e+00 1.3757092251741991e-21 0.0000000000000000e+00  1.0000000000000000e+00 -3.6862017590547182e-22 0.0000000000000000e+00  1.0000000000000000e+00 9.8771478447688772e-23 0.0000000000000000e+00  1.0000000000000002e+00 -2.6465737885286454e-23 0.0000000000000000e+00  1.0000000000000002e+00 7.0914730934562729e-24 0.0000000000000000e+00  1.0000000000000000e+00 -1.9001544885386432e-24 0.0000000000000000e+00  1.0000000000000000e+00 5.0914486069830186e-25 0.0000000000000000e+00  1.0000000000000000e+00 -1.3642495425456535e-25 0.0000000000000000e+00  1.0000000000000002e+00 3.6554956319963928e-26 0.0000000000000000e+00  1.0000000000000002e+00 -9.7948710252892954e-27 0.0000000000000000e+00  1.0000000000000000e+00 2.6245277811932687e-27 0.0000000000000000e+00  1.0000000000000000e+00 -7.0324009948378195e-28 0.0000000000000000e+00  1.0000000000000000e+00 1.8843261674186029e-28 0.0000000000000000e+00  1.0000000000000002e+00 -5.0490367483665114e-29 0.0000000000000000e+00  1.0000000000000002e+00 1.3528853192798670e-29 0.0000000000000000e+00  9.9999999999999989e-01 -3.6250452875295926e-30 0.0000000000000000e+00  1.0000000000000004e+00 9.7132795731981603e-31 0.0000000000000000e+00  9.9999999999999989e-01 -2.6026654174961267e-31 0.0000000000000000e+00  1.0000000000000004e+00 6.9738209678650835e-32 0.0000000000000000e+00  1.0000000000000000e+00 -1.8686296964986487e-32 0.0000000000000000e+00  1.0000000000000002e+00 5.0069781812962706e-33 0.0000000000000000e+00  1.0000000000000002e+00 -1.3416157601986072e-33 0.0000000000000000e+00  9.9999999999999989e-01 3.5948485949807799e-34 0.0000000000000000e+00  1.0000000000000004e+00 -9.6323677793727021e-35 0.0000000000000000e+00  1.0000000000000000e+00 2.5809851676824394e-35 0.0000000000000000e+00  1.0000000000000002e+00 -6.9157289135721578e-36 0.0000000000000000e+00  1.0000000000000002e+00 1.8530639774642528e-36 0.0000000000000000e+00  9.9999999999999989e-01 -4.9652699628474295e-37 0.0000000000000000e+00  1.0000000000000004e+00 1.3304400767474994e-37 0.0000000000000000e+00  1.0000000000000000e+00 -3.5649034414248745e-38 0.0000000000000000e+00  1.0000000000000002e+00 9.5521299822472561e-39 0.0000000000000000e+00  1.0000000000000002e+00 -2.5594855147403049e-39 0.0000000000000000e+00  9.9999999999999989e-01 6.8581207671381043e-40 0.0000000000000000e+00  1.0000000000000004e+00 -1.8376279211497944e-40 0.0000000000000000e+00  1.0000000000000000e+00 4.9239091746096195e-41 0.0000000000000000e+00  1.0000000000000002e+00 -1.3193574869408443e-41 0.0000000000000000e+00  1.0000000000000002e+00 3.5352077315376000e-42 0.0000000000000000e+00  9.9999999999999989e-01 -9.4725605674174648e-43 0.0000000000000000e+00  1.0000000000000004e+00 2.5381649542944456e-43 0.0000000000000000e+00  1.0000000000000000e+00 -6.8009924976016269e-44 0.0000000000000000e+00  1.0000000000000002e+00 1.8223204474624815e-44 0.0000000000000000e+00  1.0000000000000002e+00 -4.8828929224830147e-45 0.0000000000000000e+00  9.9999999999999989e-01 1.3083672153069495e-45 0.0000000000000000e+00  1.0000000000000004e+00 -3.5057593874486527e-46 0.0000000000000000e+00  1.0000000000000000e+00 9.3936539672490618e-47 0.0000000000000000e+00  1.0000000000000002e+00 -2.5170219945103030e-47 0.0000000000000000e+00  1.0000000000000002e+00 6.7443401079215360e-48 0.0000000000000000e+00  9.9999999999999989e-01 -1.8071404865827124e-48 0.0000000000000000e+00  1.0000000000000004e+00 4.8422183840942625e-49 0.0000000000000000e+00  1.0000000000000000e+00 -1.2974686705496309e-49 0.0000000000000000e+00  1.0000000000000002e+00 3.4765629810434243e-50 0.0000000000000000e+00  1.0000000000000002e+00 -9.3156521867739555e-51 0.0000000000000000e+00  9.9999999999999989e-01 2.4969789366610209e-51 0.0000000000000000e+00  1.0000000000000004e+00 -6.7226355987028490e-52 0.0000000000000000e+00  1.0000000000000000e+00 1.9207530282007838e-52 0.0000000000000000e+00  1.0000000000000002e+00 -9.6037651410039153e-53 0.0000000000000000e+00  </DataArray> 
</PointData> 
</Piece>
</UnstructuredGrid>
</VTKFile>