<?xml version="1.0"?>
<VTKFile type="UnstructuredGrid"  version="0.1"  >
<UnstructuredGrid>
<Piece  NumberOfPoints="201" NumberOfCells="200">
<Points>
<DataArray  type="Float64"  NumberOfComponents="3"  format="ascii">-5 0 0  -4.95 0 0  -4.9 0 0  -4.85 0 0  -4.8 0 0  -4.75 0 0  -4.7 0 0  -4.65 0 0  -4.6 0 0  -4.55 0 0  -4.5 0 0  -4.45 0 0  -4.4 0 0  -4.35 0 0  -4.3 0 0  -4.25 0 0  -4.2 0 0  -4.15 0 0  -4.1 0 0  -4.05 0 0  -4 0 0  -3.95 0 0  -3.9 0 0  -3.85 0 0  -3.8 0 0  -3.75 0 0  -3.7 0 0  -3.65 0 0  -3.6 0 0  -3.55 0 0  -3.5 0 0  -3.45 0 0  -3.4 0 0  -3.35 0 0  -3.3 0 0  -3.25 0 0  -3.2 0 0  -3.15 0 0  -3.1 0 0  -3.05 0 0  -3 0 0  -2.95 0 0  -2.9 0 0  -2.85 0 0  -2.8 0 0  -2.75 0 0  -2.7 0 0  -2.65 0 0  -2.6 0 0  -2.55 0 0  -2.5 0 0  -2.45 0 0  -2.4 0 0  -2.35 0 0  -2.3 0 0  -2.25 0 0  -2.2 0 0  -2.15 0 0  -2.1 0 0  -2.05 0 0  -2 0 0  -1.95 0 0  -1.9 0 0  -1.85 0 0  -1.8 0 0  -1.75 0 0  -1.7 0 0  -1.65 0 0  -1.6 0 0  -1.55 0 0  -1.5 0 0  -1.45 0 0  -1.4 0 0  -1.35 0 0  -1.3 0 0  -1.25 0 0  -1.2 0 0  -1.15 0 0  -1.1 0 0  -1.05 0 0  -1 0 0  -0.9500000000000002 0 0  -0.9000000000000004 0 0  -0.8499999999999996 0 0  -0.7999999999999998 0 0  -0.75 0 0  -0.7000000000000002 0 0  -0.6500000000000004 0 0  -0.5999999999999996 0 0  -0.5499999999999998 0 0  -0.5 0 0  -0.4500000000000002 0 0  -0.4000000000000004 0 0  -0.3499999999999996 0 0  -0.2999999999999998 0 0  -0.25 0 0  -0.2000000000000002 0 0  -0.1500000000000004 0 0  -0.09999999999999964 0 0  -0.04999999999999982 0 0  0 0 0  0.04999999999999982 0 0  0.09999999999999964 0 0  0.1500000000000004 0 0  0.2000000000000002 0 0  0.25 0 0  0.2999999999999998 0 0  0.3499999999999996 0 0  0.4000000000000004 0 0  0.4500000000000002 0 0  0.5 0 0  0.5499999999999998 0 0  0.5999999999999996 0 0  0.6500000000000004 0 0  0.7000000000000002 0 0  0.75 0 0  0.7999999999999998 0 0  0.8499999999999996 0 0  0.9000000000000004 0 0  0.9500000000000002 0 0  1 0 0  1.05 0 0  1.1 0 0  1.15 0 0  1.2 0 0  1.25 0 0  1.3 0 0  1.35 0 0  1.4 0 0  1.45 0 0  1.5 0 0  1.55 0 0  1.6 0 0  1.65 0 0  1.7 0 0  1.75 0 0  1.8 0 0  1.85 0 0  1.9 0 0  1.95 0 0  2 0 0  2.05 0 0  2.1 0 0  2.15 0 0  2.2 0 0  2.25 0 0  2.3 0 0  2.35 0 0  2.4 0 0  2.45 0 0  2.5 0 0  2.55 0 0  2.6 0 0  2.65 0 0  2.7 0 0  2.75 0 0  2.8 0 0  2.85 0 0  2.9 0 0  2.95 0 0  3 0 0  3.050000000000001 0 0  3.1 0 0  3.15 0 0  3.199999999999999 0 0  3.25 0 0  3.300000000000001 0 0  3.35 0 0  3.4 0 0  3.449999999999999 0 0  3.5 0 0  3.550000000000001 0 0  3.6 0 0  3.65 0 0  3.699999999999999 0 0  3.75 0 0  3.800000000000001 0 0  3.85 0 0  3.9 0 0  3.949999999999999 0 0  4 0 0  4.050000000000001 0 0  4.1 0 0  4.15 0 0  4.199999999999999 0 0  4.25 0 0  4.300000000000001 0 0  4.35 0 0  4.4 0 0  4.449999999999999 0 0  4.5 0 0  4.550000000000001 0 0  4.6 0 0  4.65 0 0  4.699999999999999 0 0  4.75 0 0  4.800000000000001 0 0  4.85 0 0  4.9 0 0  4.949999999999999 0 0  5 0 0  </DataArray>
</Points>
<Cells>
<DataArray  type="UInt32"  Name="connectivity"  format="ascii">0 1  1 2  2 3  3 4  4 5  5 6  6 7  7 8  8 9  9 10  10 11  11 12  12 13  13 14  14 15  15 16  16 17  17 18  18 19  19 20  20 21  21 22  22 23  23 24  24 25  25 26  26 27  27 28  28 29  29 30  30 31  31 32  32 33  33 34  34 35  35 36  36 37  37 38  38 39  39 40  40 41  41 42  42 43  43 44  44 45  45 46  46 47  47 48  48 49  49 50  50 51  51 52  52 53  53 54  54 55  55 56  56 57  57 58  58 59  59 60  60 61  61 62  62 63  63 64  64 65  65 66  66 67  67 68  68 69  69 70  70 71  71 72  72 73  73 74  74 75  75 76  76 77  77 78  78 79  79 80  80 81  81 82  82 83  83 84  84 85  85 86  86 87  87 88  88 89  89 90  90 91  91 92  92 93  93 94  94 95  95 96  96 97  97 98  98 99  99 100  100 101  101 102  102 103  103 104  104 105  105 106  106 107  107 108  108 109  109 110  110 111  111 112  112 113  113 114  114 115  115 116  116 117  117 118  118 119  119 120  120 121  121 122  122 123  123 124  124 125  125 126  126 127  127 128  128 129  129 130  130 131  131 132  132 133  133 134  134 135  135 136  136 137  137 138  138 139  139 140  140 141  141 142  142 143  143 144  144 145  145 146  146 147  147 148  148 149  149 150  150 151  151 152  152 153  153 154  154 155  155 156  156 157  157 158  158 159  159 160  160 161  161 162  162 163  163 164  164 165  165 166  166 167  167 168  168 169  169 170  170 171  171 172  172 173  173 174  174 175  175 176  176 177  177 178  178 179  179 180  180 181  181 182  182 183  183 184  184 185  185 186  186 187  187 188  188 189  189 190  190 191  191 192  192 193  193 194  194 195  195 196  196 197  197 198  198 199  199 200  </DataArray>
<DataArray  type="UInt32"  Name="offsets"  format="ascii">2 4 6 8 10 12 14 16 18 20 22 24 26 28 30 32 34 36 38 40 42 44 46 48 50 52 54 56 58 60 62 64 66 68 70 72 74 76 78 80 82 84 86 88 90 92 94 96 98 100 102 104 106 108 110 112 114 116 118 120 122 124 126 128 130 132 134 136 138 140 142 144 146 148 150 152 154 156 158 160 162 164 166 168 170 172 174 176 178 180 182 184 186 188 190 192 194 196 198 200 202 204 206 208 210 212 214 216 218 220 222 224 226 228 230 232 234 236 238 240 242 244 246 248 250 252 254 256 258 260 262 264 266 268 270 272 274 276 278 280 282 284 286 288 290 292 294 296 298 300 302 304 306 308 310 312 314 316 318 320 322 324 326 328 330 332 334 336 338 340 342 344 346 348 350 352 354 356 358 360 362 364 366 368 370 372 374 376 378 380 382 384 386 388 390 392 394 396 398 400 </DataArray>
<DataArray  type="UInt8"  Name="types"  format="ascii">3 3 3 3 3 3 3 3 3 3 3 3 3 3 3 3 3 3 3 3 3 3 3 3 3 3 3 3 3 3 3 3 3 3 3 3 3 3 3 3 3 3 3 3 3 3 3 3 3 3 3 3 3 3 3 3 3 3 3 3 3 3 3 3 3 3 3 3 3 3 3 3 3 3 3 3 3 3 3 3 3 3 3 3 3 3 3 3 3 3 3 3 3 3 3 3 3 3 3 3 3 3 3 3 3 3 3 3 3 3 3 3 3 3 3 3 3 3 3 3 3 3 3 3 3 3 3 3 3 3 3 3 3 3 3 3 3 3 3 3 3 3 3 3 3 3 3 3 3 3 3 3 3 3 3 3 3 3 3 3 3 3 3 3 3 3 3 3 3 3 3 3 3 3 3 3 3 3 3 3 3 3 3 3 3 3 3 3 3 3 3 3 3 3 3 3 3 3 3 3 </DataArray>
</Cells>
<PointData  Vectors="f_5"> 
<DataArray  type="Float64"  Name="f_5"  NumberOfComponents="3" format="ascii">1.0000000000000002e+01 1.6224360735906053e-49 0.0000000000000000e+00  1.0000000000000002e+01 -3.2448721471812114e-49 0.0000000000000000e+00  1.0000000000000002e+01 1.1357052515134246e-48 0.0000000000000000e+00  1.0000000000000002e+01 -4.2183337913355440e-48 0.0000000000000000e+00  1.0000000000000002e+01 1.5737629913828889e-47 0.0000000000000000e+00  1.0000000000000004e+01 -5.8732185863980036e-47 0.0000000000000000e+00  1.0000000000000002e+01 2.1919111354209140e-46 0.0000000000000000e+00  1.0000000000000004e+01 -8.1803226830438576e-46 0.0000000000000000e+00  1.0000000000000002e+01 3.0529379596754278e-45 0.0000000000000000e+00  1.0000000000000002e+01 -1.1393719570397424e-44 0.0000000000000000e+00  1.0000000000000004e+01 4.2521940321914280e-44 0.0000000000000000e+00  1.0000000000000000e+01 -1.5869404171725975e-43 0.0000000000000000e+00  1.0000000000000002e+01 5.9225422654712489e-43 0.0000000000000000e+00  1.0000000000000002e+01 -2.2103228644712228e-42 0.0000000000000000e+00  1.0000000000000004e+01 8.2490372313378375e-42 0.0000000000000000e+00  1.0000000000000002e+01 -3.0785826060880140e-41 0.0000000000000000e+00  1.0000000000000002e+01 1.1489426701218276e-40 0.0000000000000000e+00  1.0000000000000004e+01 -4.2879124198785111e-40 0.0000000000000000e+00  1.0000000000000002e+01 1.6002707009392092e-39 0.0000000000000000e+00  9.9999999999999982e+00 -5.9722915617690380e-39 0.0000000000000000e+00  1.0000000000000002e+01 2.2288895546136946e-38 0.0000000000000000e+00  1.0000000000000004e+01 -8.3183290622778783e-38 0.0000000000000000e+00  1.0000000000000002e+01 3.1044426694497697e-37 0.0000000000000000e+00  1.0000000000000002e+01 -1.1585937771571342e-36 0.0000000000000000e+00  1.0000000000000004e+01 4.3239308416835434e-36 0.0000000000000000e+00  1.0000000000000004e+01 -1.6137129589577109e-35 0.0000000000000000e+00  1.0000000000000002e+01 6.0224587516624921e-35 0.0000000000000000e+00  1.0000000000000004e+01 -2.2476122047692174e-34 0.0000000000000000e+00  1.0000000000000002e+01 8.3882029439106586e-34 0.0000000000000000e+00  1.0000000000000004e+01 -3.1305199570873295e-33 0.0000000000000000e+00  1.0000000000000004e+01 1.1683259533958305e-32 0.0000000000000000e+00  1.0000000000000002e+01 -4.3602518178745905e-32 0.0000000000000000e+00  1.0000000000000004e+01 1.6272681318102470e-31 0.0000000000000000e+00  1.0000000000000002e+01 -6.0730473454535562e-31 0.0000000000000000e+00  1.0000000000000004e+01 2.2664921250003892e-30 0.0000000000000000e+00  1.0000000000000004e+01 -8.4586637654562378e-30 0.0000000000000000e+00  1.0000000000000002e+01 3.1568162936824574e-29 0.0000000000000000e+00  1.0000000000000004e+01 -1.1781398798184164e-28 0.0000000000000000e+00  1.0000000000000002e+01 4.3968778899054392e-28 0.0000000000000000e+00  1.0000000000000004e+01 -1.6409371679803279e-27 0.0000000000000000e+00  1.0000000000000004e+01 6.1240608829307947e-27 0.0000000000000000e+00  1.0000000000000002e+01 -2.2855306363742862e-26 0.0000000000000000e+00  1.0000000000000004e+01 8.5297164572040326e-26 0.0000000000000000e+00  1.0000000000000002e+01 -3.1833335192441986e-25 0.0000000000000000e+00  1.0000000000000004e+01 1.1880362431256347e-24 0.0000000000000000e+00  1.0000000000000004e+01 -4.4338116205781387e-24 0.0000000000000000e+00  1.0000000000000002e+01 1.6547210239186928e-23 0.0000000000000000e+00  1.0000000000000004e+01 -6.1755029336169333e-23 0.0000000000000000e+00  1.0000000000000002e+01 2.3047290710549141e-22 0.0000000000000000e+00  1.0000000000000004e+01 -8.6013659908579313e-22 0.0000000000000000e+00  1.0000000000000004e+01 3.2100734892376953e-21 0.0000000000000000e+00  1.0000000000000002e+01 -1.1980157357864992e-20 0.0000000000000000e+00  1.0000000000000004e+01 4.4710555942222104e-20 0.0000000000000000e+00  1.0000000000000002e+01 -1.6686206641102418e-19 0.0000000000000000e+00  1.0000000000000004e+01 6.2273770970187221e-19 0.0000000000000000e+00  1.0000000000000002e+01 -2.3240887723964748e-18 0.0000000000000000e+00  1.0000000000000004e+01 8.6736173798840308e-18 0.0000000000000000e+00  9.9125902612214425e+00 8.6750567666065592e-02 0.0000000000000000e+00  9.7608441431726902e+00 2.3826571918121675e-01 0.0000000000000000e+00  9.6102684982793285e+00 3.8978087069636891e-01 0.0000000000000000e+00  9.4608633265413626e+00 5.4129602221151896e-01 0.0000000000000000e+00  9.3126286279587820e+00 6.9281117372667000e-01 0.0000000000000000e+00  9.1655644025316025e+00 8.4432632524182238e-01 0.0000000000000000e+00  9.0196706502598101e+00 9.9584147675697299e-01 0.0000000000000000e+00  8.8749473711434135e+00 1.1473566282721259e+00 0.0000000000000000e+00  8.7313945651824056e+00 1.2988717797872769e+00 0.0000000000000000e+00  8.5890122323767937e+00 1.4503869313024276e+00 0.0000000000000000e+00  8.4478003727265722e+00 1.6019020828175801e+00 0.0000000000000000e+00  8.3077589862317431e+00 1.7534172343327306e+00 0.0000000000000000e+00  8.1688880728923028e+00 1.9049323858478837e+00 0.0000000000000000e+00  8.0311876327082619e+00 2.0564475373630353e+00 0.0000000000000000e+00  7.8946576656796079e+00 2.2079626888781849e+00 0.0000000000000000e+00  7.7592981718063481e+00 2.3594778403933385e+00 0.0000000000000000e+00  7.6251091510884832e+00 2.5109929919084881e+00 0.0000000000000000e+00  7.4920906035260080e+00 2.6625081434236400e+00 0.0000000000000000e+00  7.3602425291189313e+00 2.8140232949387940e+00 0.0000000000000000e+00  7.2295649278672407e+00 2.9655384464539427e+00 0.0000000000000000e+00  7.1000577997709433e+00 3.1170535979690954e+00 0.0000000000000000e+00  6.9717211448300365e+00 3.2685687494842468e+00 0.0000000000000000e+00  6.8445549630445290e+00 3.4200839009993991e+00 0.0000000000000000e+00  6.7185592544144077e+00 3.5715990525145509e+00 0.0000000000000000e+00  6.5937340189396823e+00 3.7231142040297005e+00 0.0000000000000000e+00  6.4700792566203482e+00 3.8746293555448514e+00 0.0000000000000000e+00  6.3475949674564038e+00 4.0261445070600059e+00 0.0000000000000000e+00  6.2262811514478580e+00 4.1776596585751564e+00 0.0000000000000000e+00  6.1061378085946956e+00 4.3291748100903078e+00 0.0000000000000000e+00  5.9871649388969352e+00 4.4806899616054574e+00 0.0000000000000000e+00  5.8693625423545637e+00 4.6322051131206106e+00 0.0000000000000000e+00  5.7527306189675826e+00 4.7837202646357637e+00 0.0000000000000000e+00  5.6372691687359948e+00 4.9352354161509133e+00 0.0000000000000000e+00  5.5229781916598020e+00 5.0867505676660629e+00 0.0000000000000000e+00  5.4098576877389997e+00 5.2382657191812161e+00 0.0000000000000000e+00  5.2979076569735923e+00 5.3897808706963692e+00 0.0000000000000000e+00  5.1871280993635729e+00 5.5412960222115206e+00 0.0000000000000000e+00  5.0775190149089493e+00 5.6928111737266720e+00 0.0000000000000000e+00  4.9690804036097171e+00 5.8443263252418207e+00 0.0000000000000000e+00  4.8618122654658782e+00 5.9958414767569739e+00 0.0000000000000000e+00  4.7557146004774316e+00 6.1473566282721261e+00 0.0000000000000000e+00  4.6507874086443755e+00 6.2988717797872793e+00 0.0000000000000000e+00  4.5470306899667126e+00 6.4503869313024280e+00 0.0000000000000000e+00  4.4444444444444438e+00 6.6019020828175803e+00 0.0000000000000000e+00  4.3430286720775690e+00 6.7534172343327299e+00 0.0000000000000000e+00  4.2427833728660822e+00 6.9049323858478839e+00 0.0000000000000000e+00  4.1437085468099895e+00 7.0564475373630344e+00 0.0000000000000000e+00  4.0458041939092899e+00 7.2079626888781867e+00 0.0000000000000000e+00  3.9618000000000015e+00 7.3396343122977861e+00 0.0000000000000000e+00  3.9618000000000007e+00 7.3396343122977878e+00 0.0000000000000000e+00  3.9618000000000011e+00 7.3396343122977870e+00 0.0000000000000000e+00  3.9618000000000007e+00 7.3396343122977870e+00 0.0000000000000000e+00  3.9618000000000011e+00 7.3396343122977861e+00 0.0000000000000000e+00  3.9618000000000007e+00 7.3396343122977878e+00 0.0000000000000000e+00  3.9618000000000007e+00 7.3396343122977878e+00 0.0000000000000000e+00  3.9618000000000011e+00 7.3396343122977870e+00 0.0000000000000000e+00  3.9618000000000007e+00 7.3396343122977870e+00 0.0000000000000000e+00  3.9618000000000011e+00 7.3396343122977861e+00 0.0000000000000000e+00  3.9618000000000007e+00 7.3396343122977878e+00 0.0000000000000000e+00  3.9618000000000007e+00 7.3396343122977878e+00 0.0000000000000000e+00  3.9618000000000011e+00 7.3396343122977870e+00 0.0000000000000000e+00  3.9618000000000007e+00 7.3396343122977870e+00 0.0000000000000000e+00  3.9618000000000011e+00 7.3396343122977861e+00 0.0000000000000000e+00  3.9618000000000007e+00 7.3396343122977878e+00 0.0000000000000000e+00  3.9618000000000007e+00 7.3396343122977878e+00 0.0000000000000000e+00  3.9618000000000011e+00 7.3396343122977870e+00 0.0000000000000000e+00  3.9618000000000007e+00 7.3396343122977870e+00 0.0000000000000000e+00  3.9618000000000011e+00 7.3396343122977861e+00 0.0000000000000000e+00  3.9618000000000007e+00 7.3396343122977878e+00 0.0000000000000000e+00  3.9618000000000007e+00 7.3396343122977878e+00 0.0000000000000000e+00  3.9618000000000011e+00 7.3396343122977870e+00 0.0000000000000000e+00  3.9618000000000007e+00 7.3396343122977870e+00 0.0000000000000000e+00  3.9618000000000011e+00 7.3396343122977861e+00 0.0000000000000000e+00  3.9618000000000007e+00 7.3396343122977878e+00 0.0000000000000000e+00  3.9618000000000007e+00 7.3396343122977878e+00 0.0000000000000000e+00  3.9618000000000011e+00 7.3396343122977870e+00 0.0000000000000000e+00  3.9618000000000007e+00 7.3396343122977870e+00 0.0000000000000000e+00  3.9618000000000011e+00 7.3396343122977861e+00 0.0000000000000000e+00  3.9618000000000007e+00 7.3396343122977878e+00 0.0000000000000000e+00  3.9618000000000007e+00 7.3396343122977878e+00 0.0000000000000000e+00  3.9618000000000011e+00 7.3396343122977870e+00 0.0000000000000000e+00  3.9618000000000007e+00 7.3396343122977870e+00 0.0000000000000000e+00  3.9618000000000011e+00 7.3396343122977861e+00 0.0000000000000000e+00  3.9618000000000007e+00 7.3396343122977878e+00 0.0000000000000000e+00  3.9618000000000007e+00 7.3396343122977878e+00 0.0000000000000000e+00  3.9618000000000007e+00 7.3396343122977870e+00 0.0000000000000000e+00  3.9618000000000015e+00 7.3396343122977870e+00 0.0000000000000000e+00  9.9999999999999989e-01 2.4037033579794615e-16 0.0000000000000000e+00  1.0000000000000002e+00 -6.4407037361457424e-17 0.0000000000000000e+00  1.0000000000000000e+00 1.7257813647883649e-17 0.0000000000000000e+00  1.0000000000000000e+00 -4.6242172300771946e-18 0.0000000000000000e+00  1.0000000000000002e+00 1.2390552724252770e-18 0.0000000000000000e+00  1.0000000000000002e+00 -3.3200385962387764e-19 0.0000000000000000e+00  1.0000000000000000e+00 8.8960166070233796e-20 0.0000000000000000e+00  1.0000000000000000e+00 -2.3836804657057682e-20 0.0000000000000000e+00  1.0000000000000000e+00 6.3870525579969808e-21 0.0000000000000000e+00  1.0000000000000002e+00 -1.7114055749304404e-21 0.0000000000000000e+00  1.0000000000000002e+00 4.5856974172473264e-22 0.0000000000000000e+00  1.0000000000000000e+00 -1.2287339196849057e-22 0.0000000000000000e+00  1.0000000000000000e+00 3.2923826149229808e-23 0.0000000000000000e+00  1.0000000000000000e+00 -8.8219126284287366e-24 0.0000000000000000e+00  1.0000000000000002e+00 2.3638243644854215e-24 0.0000000000000000e+00  1.0000000000000002e+00 -6.3338482951288006e-25 0.0000000000000000e+00  9.9999999999999989e-01 1.6971495356609928e-25 0.0000000000000000e+00  1.0000000000000004e+00 -4.5474984751522469e-26 0.0000000000000000e+00  9.9999999999999989e-01 1.2184985439987874e-26 0.0000000000000000e+00  1.0000000000000004e+00 -3.2649570084297874e-27 0.0000000000000000e+00  1.0000000000000000e+00 8.7484259373108112e-28 0.0000000000000000e+00  1.0000000000000002e+00 -2.3441336649459210e-28 0.0000000000000000e+00  1.0000000000000002e+00 6.2810872247287687e-29 0.0000000000000000e+00  9.9999999999999989e-01 -1.6830122494554890e-29 0.0000000000000000e+00  1.0000000000000004e+00 4.5096177309329226e-30 0.0000000000000000e+00  1.0000000000000000e+00 -1.2083484291765287e-30 0.0000000000000000e+00  1.0000000000000002e+00 3.2377598577326668e-31 0.0000000000000000e+00  1.0000000000000002e+00 -8.6755513916538757e-32 0.0000000000000000e+00  9.9999999999999989e-01 2.3246069892883225e-32 0.0000000000000000e+00  1.0000000000000004e+00 -6.2287656549955881e-33 0.0000000000000000e+00  1.0000000000000000e+00 1.6689927270987531e-33 0.0000000000000000e+00  1.0000000000000002e+00 -4.4720525339952842e-34 0.0000000000000000e+00  1.0000000000000002e+00 1.1982828649936102e-34 0.0000000000000000e+00  9.9999999999999989e-01 -3.2107892597908481e-35 0.0000000000000000e+00  1.0000000000000004e+00 8.6032838922749280e-36 0.0000000000000000e+00  1.0000000000000000e+00 -2.3052429711907148e-36 0.0000000000000000e+00  1.0000000000000002e+00 6.1768799248807417e-37 0.0000000000000000e+00  1.0000000000000002e+00 -1.6550899876158334e-37 0.0000000000000000e+00  9.9999999999999989e-01 4.4348002558249245e-38 0.0000000000000000e+00  1.0000000000000004e+00 -1.1883011471416428e-38 0.0000000000000000e+00  1.0000000000000000e+00 3.1840433274157459e-39 0.0000000000000000e+00  1.0000000000000002e+00 -8.5316183824675432e-40 0.0000000000000000e+00  1.0000000000000002e+00 2.2860402557127341e-40 0.0000000000000000e+00  9.9999999999999989e-01 -6.1254264038325555e-41 0.0000000000000000e+00  1.0000000000000004e+00 1.6413030582032622e-41 0.0000000000000000e+00  1.0000000000000000e+00 -4.3978582898039534e-42 0.0000000000000000e+00  1.0000000000000002e+00 1.1784025771834693e-42 0.0000000000000000e+00  1.0000000000000002e+00 -3.1575201892992615e-43 0.0000000000000000e+00  9.9999999999999989e-01 8.4605498536216321e-44 0.0000000000000000e+00  1.0000000000000004e+00 -2.2669975214944414e-44 0.0000000000000000e+00  1.0000000000000000e+00 6.0744023235599747e-45 0.0000000000000000e+00  1.0000000000000002e+00 -1.6276340792958640e-45 0.0000000000000000e+00  1.0000000000000002e+00 4.3613399362348380e-46 0.0000000000000000e+00  9.9999999999999989e-01 -1.1690189519804537e-46 0.0000000000000000e+00  1.0000000000000004e+00 3.1473587168704990e-47 0.0000000000000000e+00  1.0000000000000000e+00 -8.9924534767727146e-48 0.0000000000000000e+00  1.0000000000000002e+00 4.4962267383863549e-48 0.0000000000000000e+00  </DataArray> 
</PointData> 
</Piece>
</UnstructuredGrid>
</VTKFile>