<?xml version="1.0"?>
<VTKFile type="UnstructuredGrid"  version="0.1"  >
<UnstructuredGrid>
<Piece  NumberOfPoints="201" NumberOfCells="200">
<Points>
<DataArray  type="Float64"  NumberOfComponents="3"  format="ascii">-5 0 0  -4.95 0 0  -4.9 0 0  -4.85 0 0  -4.8 0 0  -4.75 0 0  -4.7 0 0  -4.65 0 0  -4.6 0 0  -4.55 0 0  -4.5 0 0  -4.45 0 0  -4.4 0 0  -4.35 0 0  -4.3 0 0  -4.25 0 0  -4.2 0 0  -4.15 0 0  -4.1 0 0  -4.05 0 0  -4 0 0  -3.95 0 0  -3.9 0 0  -3.85 0 0  -3.8 0 0  -3.75 0 0  -3.7 0 0  -3.65 0 0  -3.6 0 0  -3.55 0 0  -3.5 0 0  -3.45 0 0  -3.4 0 0  -3.35 0 0  -3.3 0 0  -3.25 0 0  -3.2 0 0  -3.15 0 0  -3.1 0 0  -3.05 0 0  -3 0 0  -2.95 0 0  -2.9 0 0  -2.85 0 0  -2.8 0 0  -2.75 0 0  -2.7 0 0  -2.65 0 0  -2.6 0 0  -2.55 0 0  -2.5 0 0  -2.45 0 0  -2.4 0 0  -2.35 0 0  -2.3 0 0  -2.25 0 0  -2.2 0 0  -2.15 0 0  -2.1 0 0  -2.05 0 0  -2 0 0  -1.95 0 0  -1.9 0 0  -1.85 0 0  -1.8 0 0  -1.75 0 0  -1.7 0 0  -1.65 0 0  -1.6 0 0  -1.55 0 0  -1.5 0 0  -1.45 0 0  -1.4 0 0  -1.35 0 0  -1.3 0 0  -1.25 0 0  -1.2 0 0  -1.15 0 0  -1.1 0 0  -1.05 0 0  -1 0 0  -0.9500000000000002 0 0  -0.9000000000000004 0 0  -0.8499999999999996 0 0  -0.7999999999999998 0 0  -0.75 0 0  -0.7000000000000002 0 0  -0.6500000000000004 0 0  -0.5999999999999996 0 0  -0.5499999999999998 0 0  -0.5 0 0  -0.4500000000000002 0 0  -0.4000000000000004 0 0  -0.3499999999999996 0 0  -0.2999999999999998 0 0  -0.25 0 0  -0.2000000000000002 0 0  -0.1500000000000004 0 0  -0.09999999999999964 0 0  -0.04999999999999982 0 0  0 0 0  0.04999999999999982 0 0  0.09999999999999964 0 0  0.1500000000000004 0 0  0.2000000000000002 0 0  0.25 0 0  0.2999999999999998 0 0  0.3499999999999996 0 0  0.4000000000000004 0 0  0.4500000000000002 0 0  0.5 0 0  0.5499999999999998 0 0  0.5999999999999996 0 0  0.6500000000000004 0 0  0.7000000000000002 0 0  0.75 0 0  0.7999999999999998 0 0  0.8499999999999996 0 0  0.9000000000000004 0 0  0.9500000000000002 0 0  1 0 0  1.05 0 0  1.1 0 0  1.15 0 0  1.2 0 0  1.25 0 0  1.3 0 0  1.35 0 0  1.4 0 0  1.45 0 0  1.5 0 0  1.55 0 0  1.6 0 0  1.65 0 0  1.7 0 0  1.75 0 0  1.8 0 0  1.85 0 0  1.9 0 0  1.95 0 0  2 0 0  2.05 0 0  2.1 0 0  2.15 0 0  2.2 0 0  2.25 0 0  2.3 0 0  2.35 0 0  2.4 0 0  2.45 0 0  2.5 0 0  2.55 0 0  2.6 0 0  2.65 0 0  2.7 0 0  2.75 0 0  2.8 0 0  2.85 0 0  2.9 0 0  2.95 0 0  3 0 0  3.050000000000001 0 0  3.1 0 0  3.15 0 0  3.199999999999999 0 0  3.25 0 0  3.300000000000001 0 0  3.35 0 0  3.4 0 0  3.449999999999999 0 0  3.5 0 0  3.550000000000001 0 0  3.6 0 0  3.65 0 0  3.699999999999999 0 0  3.75 0 0  3.800000000000001 0 0  3.85 0 0  3.9 0 0  3.949999999999999 0 0  4 0 0  4.050000000000001 0 0  4.1 0 0  4.15 0 0  4.199999999999999 0 0  4.25 0 0  4.300000000000001 0 0  4.35 0 0  4.4 0 0  4.449999999999999 0 0  4.5 0 0  4.550000000000001 0 0  4.6 0 0  4.65 0 0  4.699999999999999 0 0  4.75 0 0  4.800000000000001 0 0  4.85 0 0  4.9 0 0  4.949999999999999 0 0  5 0 0  </DataArray>
</Points>
<Cells>
<DataArray  type="UInt32"  Name="connectivity"  format="ascii">0 1  1 2  2 3  3 4  4 5  5 6  6 7  7 8  8 9  9 10  10 11  11 12  12 13  13 14  14 15  15 16  16 17  17 18  18 19  19 20  20 21  21 22  22 23  23 24  24 25  25 26  26 27  27 28  28 29  29 30  30 31  31 32  32 33  33 34  34 35  35 36  36 37  37 38  38 39  39 40  40 41  41 42  42 43  43 44  44 45  45 46  46 47  47 48  48 49  49 50  50 51  51 52  52 53  53 54  54 55  55 56  56 57  57 58  58 59  59 60  60 61  61 62  62 63  63 64  64 65  65 66  66 67  67 68  68 69  69 70  70 71  71 72  72 73  73 74  74 75  75 76  76 77  77 78  78 79  79 80  80 81  81 82  82 83  83 84  84 85  85 86  86 87  87 88  88 89  89 90  90 91  91 92  92 93  93 94  94 95  95 96  96 97  97 98  98 99  99 100  100 101  101 102  102 103  103 104  104 105  105 106  106 107  107 108  108 109  109 110  110 111  111 112  112 113  113 114  114 115  115 116  116 117  117 118  118 119  119 120  120 121  121 122  122 123  123 124  124 125  125 126  126 127  127 128  128 129  129 130  130 131  131 132  132 133  133 134  134 135  135 136  136 137  137 138  138 139  139 140  140 141  141 142  142 143  143 144  144 145  145 146  146 147  147 148  148 149  149 150  150 151  151 152  152 153  153 154  154 155  155 156  156 157  157 158  158 159  159 160  160 161  161 162  162 163  163 164  164 165  165 166  166 167  167 168  168 169  169 170  170 171  171 172  172 173  173 174  174 175  175 176  176 177  177 178  178 179  179 180  180 181  181 182  182 183  183 184  184 185  185 186  186 187  187 188  188 189  189 190  190 191  191 192  192 193  193 194  194 195  195 196  196 197  197 198  198 199  199 200  </DataArray>
<DataArray  type="UInt32"  Name="offsets"  format="ascii">2 4 6 8 10 12 14 16 18 20 22 24 26 28 30 32 34 36 38 40 42 44 46 48 50 52 54 56 58 60 62 64 66 68 70 72 74 76 78 80 82 84 86 88 90 92 94 96 98 100 102 104 106 108 110 112 114 116 118 120 122 124 126 128 130 132 134 136 138 140 142 144 146 148 150 152 154 156 158 160 162 164 166 168 170 172 174 176 178 180 182 184 186 188 190 192 194 196 198 200 202 204 206 208 210 212 214 216 218 220 222 224 226 228 230 232 234 236 238 240 242 244 246 248 250 252 254 256 258 260 262 264 266 268 270 272 274 276 278 280 282 284 286 288 290 292 294 296 298 300 302 304 306 308 310 312 314 316 318 320 322 324 326 328 330 332 334 336 338 340 342 344 346 348 350 352 354 356 358 360 362 364 366 368 370 372 374 376 378 380 382 384 386 388 390 392 394 396 398 400 </DataArray>
<DataArray  type="UInt8"  Name="types"  format="ascii">3 3 3 3 3 3 3 3 3 3 3 3 3 3 3 3 3 3 3 3 3 3 3 3 3 3 3 3 3 3 3 3 3 3 3 3 3 3 3 3 3 3 3 3 3 3 3 3 3 3 3 3 3 3 3 3 3 3 3 3 3 3 3 3 3 3 3 3 3 3 3 3 3 3 3 3 3 3 3 3 3 3 3 3 3 3 3 3 3 3 3 3 3 3 3 3 3 3 3 3 3 3 3 3 3 3 3 3 3 3 3 3 3 3 3 3 3 3 3 3 3 3 3 3 3 3 3 3 3 3 3 3 3 3 3 3 3 3 3 3 3 3 3 3 3 3 3 3 3 3 3 3 3 3 3 3 3 3 3 3 3 3 3 3 3 3 3 3 3 3 3 3 3 3 3 3 3 3 3 3 3 3 3 3 3 3 3 3 3 3 3 3 3 3 3 3 3 3 3 3 </DataArray>
</Cells>
<PointData  Vectors="f_5"> 
<DataArray  type="Float64"  Name="f_5"  NumberOfComponents="3" format="ascii">1.0000000000000002e+01 -3.6326361449256679e-20 0.0000000000000000e+00  1.0000000000000002e+01 7.2652722898513383e-20 0.0000000000000000e+00  1.0000000000000002e+01 -2.5428453014479697e-19 0.0000000000000000e+00  1.0000000000000002e+01 9.4448539768066707e-19 0.0000000000000000e+00  1.0000000000000002e+01 -3.5236570605779017e-18 0.0000000000000000e+00  9.9952747883483273e+00 4.6798605953573876e-03 0.0000000000000000e+00  9.9252886049165490e+00 7.4124305039801414e-02 0.0000000000000000e+00  9.8555483021302699e+00 1.4356874948424556e-01 0.0000000000000000e+00  9.7860538799894670e+00 2.1301319392869181e-01 0.0000000000000000e+00  9.7168053384941686e+00 2.8245763837313598e-01 0.0000000000000000e+00  9.6478026776443535e+00 3.5190208281757995e-01 0.0000000000000000e+00  9.5790458974400288e+00 4.2134652726202404e-01 0.0000000000000000e+00  9.5105349978811979e+00 4.9079097170646813e-01 0.0000000000000000e+00  9.4422699789678521e+00 5.6023541615091355e-01 0.0000000000000000e+00  9.3742508407000020e+00 6.2967986059535741e-01 0.0000000000000000e+00  9.3064775830776423e+00 6.9912430503980161e-01 0.0000000000000000e+00  9.2389502061007676e+00 7.6856874948424658e-01 0.0000000000000000e+00  9.1716687097693885e+00 8.3801319392869078e-01 0.0000000000000000e+00  9.1046330940834999e+00 9.0745763837313620e-01 0.0000000000000000e+00  9.0378433590430998e+00 9.7690208281757995e-01 0.0000000000000000e+00  8.9712995046481883e+00 1.0463465272620243e+00 0.0000000000000000e+00  8.9050015308987707e+00 1.1157909717064685e+00 0.0000000000000000e+00  8.8389494377948434e+00 1.1852354161509133e+00 0.0000000000000000e+00  8.7731432253364030e+00 1.2546798605953573e+00 0.0000000000000000e+00  8.7075828935234583e+00 1.3241243050398017e+00 0.0000000000000000e+00  8.6422684423559968e+00 1.3935687494842468e+00 0.0000000000000000e+00  8.5771998718340328e+00 1.4630131939286908e+00 0.0000000000000000e+00  8.5123771819575555e+00 1.5324576383731356e+00 0.0000000000000000e+00  8.4478003727265705e+00 1.6019020828175798e+00 0.0000000000000000e+00  8.3834694441410722e+00 1.6713465272620249e+00 0.0000000000000000e+00  8.3193843962010732e+00 1.7407909717064689e+00 0.0000000000000000e+00  8.2555452289065521e+00 1.8102354161509131e+00 0.0000000000000000e+00  8.1919519422575302e+00 1.8796798605953580e+00 0.0000000000000000e+00  8.1286045362539969e+00 1.9491243050398028e+00 0.0000000000000000e+00  8.0655030108959540e+00 2.0185687494842459e+00 0.0000000000000000e+00  8.0026473661834014e+00 2.0880131939286914e+00 0.0000000000000000e+00  7.9400376021163357e+00 2.1574576383731348e+00 0.0000000000000000e+00  7.8776737186947692e+00 2.2269020828175798e+00 0.0000000000000000e+00  7.8155557159186806e+00 2.2963465272620254e+00 0.0000000000000000e+00  7.7536835937880983e+00 2.3657909717064687e+00 0.0000000000000000e+00  7.6920573523029923e+00 2.4352354161509133e+00 0.0000000000000000e+00  7.6306769914633827e+00 2.5046798605953575e+00 0.0000000000000000e+00  7.5695425112692627e+00 2.5741243050398017e+00 0.0000000000000000e+00  7.5086539117206330e+00 2.6435687494842468e+00 0.0000000000000000e+00  7.4480111928174946e+00 2.7130131939286919e+00 0.0000000000000000e+00  7.3876143545598465e+00 2.7824576383731356e+00 0.0000000000000000e+00  7.3274633969476861e+00 2.8519020828175803e+00 0.0000000000000000e+00  7.2675583199810214e+00 2.9213465272620245e+00 0.0000000000000000e+00  7.2078991236598426e+00 2.9907909717064691e+00 0.0000000000000000e+00  7.1484858079841560e+00 3.0602354161509142e+00 0.0000000000000000e+00  7.0893183729539606e+00 3.1296798605953571e+00 0.0000000000000000e+00  7.0303968185692538e+00 3.1991243050398026e+00 0.0000000000000000e+00  6.9717211448300391e+00 3.2685687494842464e+00 0.0000000000000000e+00  6.9132913517363130e+00 3.3380131939286914e+00 0.0000000000000000e+00  6.8551074392880773e+00 3.4074576383731352e+00 0.0000000000000000e+00  6.7971694074853346e+00 3.4769020828175812e+00 0.0000000000000000e+00  6.7394772563280787e+00 3.5463465272620240e+00 0.0000000000000000e+00  6.6820309858163167e+00 3.6157909717064700e+00 0.0000000000000000e+00  6.6248305959500478e+00 3.6852354161509142e+00 0.0000000000000000e+00  6.5678760867292585e+00 3.7546798605953589e+00 0.0000000000000000e+00  6.5111674581539711e+00 3.8241243050398017e+00 0.0000000000000000e+00  6.4547047102241670e+00 3.8935687494842464e+00 0.0000000000000000e+00  6.3984878429398568e+00 3.9630131939286919e+00 0.0000000000000000e+00  6.3425168563010361e+00 4.0324576383731339e+00 0.0000000000000000e+00  6.2867917503077066e+00 4.1019020828175794e+00 0.0000000000000000e+00  6.2313125249598631e+00 4.1713465272620267e+00 0.0000000000000000e+00  6.1760791802575179e+00 4.2407909717064669e+00 0.0000000000000000e+00  6.1210917162006577e+00 4.3102354161509160e+00 0.0000000000000000e+00  6.0663501327892879e+00 4.3796798605953571e+00 0.0000000000000000e+00  6.0118544300234102e+00 4.4491243050398026e+00 0.0000000000000000e+00  5.9576046079030256e+00 4.5185687494842481e+00 0.0000000000000000e+00  5.9036006664281242e+00 4.5880131939286883e+00 0.0000000000000000e+00  5.8498426055987194e+00 4.6574576383731374e+00 0.0000000000000000e+00  5.7963304254148023e+00 4.7269020828175812e+00 0.0000000000000000e+00  5.7430641258763799e+00 4.7963465272620240e+00 0.0000000000000000e+00  5.6900437069834409e+00 4.8657909717064687e+00 0.0000000000000000e+00  5.6372691687359966e+00 4.9352354161509133e+00 0.0000000000000000e+00  5.5847405111340391e+00 5.0046798605953597e+00 0.0000000000000000e+00  5.5324577341775800e+00 5.0741243050398035e+00 0.0000000000000000e+00  5.4804208378666024e+00 5.1435687494842472e+00 0.0000000000000000e+00  5.4286298222011213e+00 5.2130131939286910e+00 0.0000000000000000e+00  5.3770846871811262e+00 5.2824576383731339e+00 0.0000000000000000e+00  5.3257854328066268e+00 5.3519020828175803e+00 0.0000000000000000e+00  5.2747320590776123e+00 5.4213465272620249e+00 0.0000000000000000e+00  5.2239245659940901e+00 5.4907909717064705e+00 0.0000000000000000e+00  5.1733629535560617e+00 5.5602354161509160e+00 0.0000000000000000e+00  5.1230472217635175e+00 5.6296798605953571e+00 0.0000000000000000e+00  5.0729773706164707e+00 5.6991243050398017e+00 0.0000000000000000e+00  5.0231534001149090e+00 5.7685687494842464e+00 0.0000000000000000e+00  4.9735753102588394e+00 5.8380131939286901e+00 0.0000000000000000e+00  4.9242431010482601e+00 5.9074576383731356e+00 0.0000000000000000e+00  4.8751567724831713e+00 5.9769020828175812e+00 0.0000000000000000e+00  4.8263163245635754e+00 6.0463465272620240e+00 0.0000000000000000e+00  4.7777217572894646e+00 6.1157909717064696e+00 0.0000000000000000e+00  4.7293730706608486e+00 6.1852354161509133e+00 0.0000000000000000e+00  4.6812702646777202e+00 6.2546798605953580e+00 0.0000000000000000e+00  4.6334133393400867e+00 6.3241243050398026e+00 0.0000000000000000e+00  4.5858022946479391e+00 6.3935687494842455e+00 0.0000000000000000e+00  4.5384371306012836e+00 6.4630131939286928e+00 0.0000000000000000e+00  4.4913178472001194e+00 6.5324576383731383e+00 0.0000000000000000e+00  4.4444444444444446e+00 6.6019020828175794e+00 0.0000000000000000e+00  4.3978169223342594e+00 6.6713465272620258e+00 0.0000000000000000e+00  4.3514352808695671e+00 6.7407909717064669e+00 0.0000000000000000e+00  4.3052995200503634e+00 6.8102354161509142e+00 0.0000000000000000e+00  4.2594096398766492e+00 6.8796798605953589e+00 0.0000000000000000e+00  4.2137656403484289e+00 6.9491243050398044e+00 0.0000000000000000e+00  4.1683675214656954e+00 7.0185687494842446e+00 0.0000000000000000e+00  4.1232152832284550e+00 7.0880131939286928e+00 0.0000000000000000e+00  4.0783089256367013e+00 7.1574576383731356e+00 0.0000000000000000e+00  4.0336484486904425e+00 7.2269020828175821e+00 0.0000000000000000e+00  3.9892338523896704e+00 7.2963465272620223e+00 0.0000000000000000e+00  3.9617999999999993e+00 7.3396343122977878e+00 0.0000000000000000e+00  3.9618000000000011e+00 7.3396343122977870e+00 0.0000000000000000e+00  3.9618000000000007e+00 7.3396343122977870e+00 0.0000000000000000e+00  3.9618000000000011e+00 7.3396343122977861e+00 0.0000000000000000e+00  3.9618000000000007e+00 7.3396343122977878e+00 0.0000000000000000e+00  3.9618000000000007e+00 7.3396343122977878e+00 0.0000000000000000e+00  3.9618000000000011e+00 7.3396343122977870e+00 0.0000000000000000e+00  3.9618000000000007e+00 7.3396343122977870e+00 0.0000000000000000e+00  3.9618000000000011e+00 7.3396343122977861e+00 0.0000000000000000e+00  3.9618000000000007e+00 7.3396343122977878e+00 0.0000000000000000e+00  3.9618000000000007e+00 7.3396343122977878e+00 0.0000000000000000e+00  3.9618000000000011e+00 7.3396343122977870e+00 0.0000000000000000e+00  3.9618000000000007e+00 7.3396343122977870e+00 0.0000000000000000e+00  3.9618000000000011e+00 7.3396343122977861e+00 0.0000000000000000e+00  3.9618000000000007e+00 7.3396343122977878e+00 0.0000000000000000e+00  3.9618000000000007e+00 7.3396343122977878e+00 0.0000000000000000e+00  3.9618000000000011e+00 7.3396343122977870e+00 0.0000000000000000e+00  3.9618000000000007e+00 7.3396343122977870e+00 0.0000000000000000e+00  3.9618000000000011e+00 7.3396343122977861e+00 0.0000000000000000e+00  3.9618000000000007e+00 7.3396343122977878e+00 0.0000000000000000e+00  3.9618000000000007e+00 7.3396343122977878e+00 0.0000000000000000e+00  3.9618000000000011e+00 7.3396343122977870e+00 0.0000000000000000e+00  3.9618000000000007e+00 7.3396343122977870e+00 0.0000000000000000e+00  3.9618000000000011e+00 7.3396343122977861e+00 0.0000000000000000e+00  3.9618000000000007e+00 7.3396343122977878e+00 0.0000000000000000e+00  3.9618000000000007e+00 7.3396343122977878e+00 0.0000000000000000e+00  3.9618000000000011e+00 7.3396343122977870e+00 0.0000000000000000e+00  3.9618000000000007e+00 7.3396343122977870e+00 0.0000000000000000e+00  3.9618000000000011e+00 7.3396343122977861e+00 0.0000000000000000e+00  3.9618000000000007e+00 7.3396343122977878e+00 0.0000000000000000e+00  3.9618000000000007e+00 7.3396343122977878e+00 0.0000000000000000e+00  3.9618000000000011e+00 7.3396343122977870e+00 0.0000000000000000e+00  3.9618000000000007e+00 7.3396343122977870e+00 0.0000000000000000e+00  3.9618000000000011e+00 7.3396343122977861e+00 0.0000000000000000e+00  3.9618000000000007e+00 7.3396343122977878e+00 0.0000000000000000e+00  3.9618000000000007e+00 7.3396343122977878e+00 0.0000000000000000e+00  3.9618000000000011e+00 7.3396343122977870e+00 0.0000000000000000e+00  3.9618000000000007e+00 7.3396343122977870e+00 0.0000000000000000e+00  3.9618000000000011e+00 7.3396343122977861e+00 0.0000000000000000e+00  3.9618000000000007e+00 7.3396343122977878e+00 0.0000000000000000e+00  3.9618000000000007e+00 7.3396343122977878e+00 0.0000000000000000e+00  3.9618000000000011e+00 7.3396343122977870e+00 0.0000000000000000e+00  3.9618000000000007e+00 7.3396343122977870e+00 0.0000000000000000e+00  3.9618000000000011e+00 7.3396343122977861e+00 0.0000000000000000e+00  3.9618000000000007e+00 7.3396343122977878e+00 0.0000000000000000e+00  3.9618000000000007e+00 7.3396343122977878e+00 0.0000000000000000e+00  3.9618000000000011e+00 7.3396343122977870e+00 0.0000000000000000e+00  3.9618000000000007e+00 7.3396343122977870e+00 0.0000000000000000e+00  3.9618000000000007e+00 7.3396343122977861e+00 0.0000000000000000e+00  3.9618000000000011e+00 7.3396343122977870e+00 0.0000000000000000e+00  3.9618000000000011e+00 7.3396343122977887e+00 0.0000000000000000e+00  3.9618000000000007e+00 7.3396343122977878e+00 0.0000000000000000e+00  3.9618000000000007e+00 7.3396343122977887e+00 0.0000000000000000e+00  3.9618000000000007e+00 7.3396343122977878e+00 0.0000000000000000e+00  3.9618000000000007e+00 7.3396343122977870e+00 0.0000000000000000e+00  3.9618000000000007e+00 7.3396343122977878e+00 0.0000000000000000e+00  3.9618000000000007e+00 7.3396343122977878e+00 0.0000000000000000e+00  3.9618000000000007e+00 7.3396343122977887e+00 0.0000000000000000e+00  3.9618000000000007e+00 7.3396343122977878e+00 0.0000000000000000e+00  3.9618000000000007e+00 7.3396343122977870e+00 0.0000000000000000e+00  3.9618000000000007e+00 7.3396343122977878e+00 0.0000000000000000e+00  3.9618000000000007e+00 7.3396343122977878e+00 0.0000000000000000e+00  3.9618000000000007e+00 7.3396343122977887e+00 0.0000000000000000e+00  3.9618000000000007e+00 7.3396343122977878e+00 0.0000000000000000e+00  3.9618000000000007e+00 7.3396343122977870e+00 0.0000000000000000e+00  3.9618000000000007e+00 7.3396343122977878e+00 0.0000000000000000e+00  3.9618000000000007e+00 7.3396343122977878e+00 0.0000000000000000e+00  3.9618000000000007e+00 7.3396343122977887e+00 0.0000000000000000e+00  3.9618000000000007e+00 7.3396343122977878e+00 0.0000000000000000e+00  3.9618000000000007e+00 7.3396343122977870e+00 0.0000000000000000e+00  3.9618000000000007e+00 7.3396343122977878e+00 0.0000000000000000e+00  3.9618000000000007e+00 7.3396343122977878e+00 0.0000000000000000e+00  3.9618000000000007e+00 7.3396343122977887e+00 0.0000000000000000e+00  3.9618000000000007e+00 7.3396343122977878e+00 0.0000000000000000e+00  3.9618000000000007e+00 7.3396343122977870e+00 0.0000000000000000e+00  3.9618000000000007e+00 7.3396343122977878e+00 0.0000000000000000e+00  3.9618000000000007e+00 7.3396343122977878e+00 0.0000000000000000e+00  3.9618000000000007e+00 7.3396343122977887e+00 0.0000000000000000e+00  3.9618000000000007e+00 7.3396343122977878e+00 0.0000000000000000e+00  3.9618000000000007e+00 7.3396343122977870e+00 0.0000000000000000e+00  3.9618000000000007e+00 7.3396343122977878e+00 0.0000000000000000e+00  3.9618000000000007e+00 7.3396343122977878e+00 0.0000000000000000e+00  3.9618000000000007e+00 7.3396343122977887e+00 0.0000000000000000e+00  3.9618000000000007e+00 7.3396343122977870e+00 0.0000000000000000e+00  1.0000000000000004e+00 7.2111238310305296e-16 0.0000000000000000e+00  1.0000000000000002e+00 -1.9322624630109720e-16 0.0000000000000000e+00  9.9999999999999989e-01 5.1792602101324218e-17 0.0000000000000000e+00  1.0000000000000004e+00 -1.3944162104202884e-17 0.0000000000000000e+00  1.0000000000000000e+00 3.9840463154864760e-18 0.0000000000000000e+00  1.0000000000000002e+00 -1.9920231577432368e-18 0.0000000000000000e+00  </DataArray> 
</PointData> 
</Piece>
</UnstructuredGrid>
</VTKFile>