<?xml version="1.0"?>
<VTKFile type="UnstructuredGrid"  version="0.1"  >
<UnstructuredGrid>
<Piece  NumberOfPoints="201" NumberOfCells="200">
<Points>
<DataArray  type="Float64"  NumberOfComponents="3"  format="ascii">-5 0 0  -4.95 0 0  -4.9 0 0  -4.85 0 0  -4.8 0 0  -4.75 0 0  -4.7 0 0  -4.65 0 0  -4.6 0 0  -4.55 0 0  -4.5 0 0  -4.45 0 0  -4.4 0 0  -4.35 0 0  -4.3 0 0  -4.25 0 0  -4.2 0 0  -4.15 0 0  -4.1 0 0  -4.05 0 0  -4 0 0  -3.95 0 0  -3.9 0 0  -3.85 0 0  -3.8 0 0  -3.75 0 0  -3.7 0 0  -3.65 0 0  -3.6 0 0  -3.55 0 0  -3.5 0 0  -3.45 0 0  -3.4 0 0  -3.35 0 0  -3.3 0 0  -3.25 0 0  -3.2 0 0  -3.15 0 0  -3.1 0 0  -3.05 0 0  -3 0 0  -2.95 0 0  -2.9 0 0  -2.85 0 0  -2.8 0 0  -2.75 0 0  -2.7 0 0  -2.65 0 0  -2.6 0 0  -2.55 0 0  -2.5 0 0  -2.45 0 0  -2.4 0 0  -2.35 0 0  -2.3 0 0  -2.25 0 0  -2.2 0 0  -2.15 0 0  -2.1 0 0  -2.05 0 0  -2 0 0  -1.95 0 0  -1.9 0 0  -1.85 0 0  -1.8 0 0  -1.75 0 0  -1.7 0 0  -1.65 0 0  -1.6 0 0  -1.55 0 0  -1.5 0 0  -1.45 0 0  -1.4 0 0  -1.35 0 0  -1.3 0 0  -1.25 0 0  -1.2 0 0  -1.15 0 0  -1.1 0 0  -1.05 0 0  -1 0 0  -0.9500000000000002 0 0  -0.9000000000000004 0 0  -0.8499999999999996 0 0  -0.7999999999999998 0 0  -0.75 0 0  -0.7000000000000002 0 0  -0.6500000000000004 0 0  -0.5999999999999996 0 0  -0.5499999999999998 0 0  -0.5 0 0  -0.4500000000000002 0 0  -0.4000000000000004 0 0  -0.3499999999999996 0 0  -0.2999999999999998 0 0  -0.25 0 0  -0.2000000000000002 0 0  -0.1500000000000004 0 0  -0.09999999999999964 0 0  -0.04999999999999982 0 0  0 0 0  0.04999999999999982 0 0  0.09999999999999964 0 0  0.1500000000000004 0 0  0.2000000000000002 0 0  0.25 0 0  0.2999999999999998 0 0  0.3499999999999996 0 0  0.4000000000000004 0 0  0.4500000000000002 0 0  0.5 0 0  0.5499999999999998 0 0  0.5999999999999996 0 0  0.6500000000000004 0 0  0.7000000000000002 0 0  0.75 0 0  0.7999999999999998 0 0  0.8499999999999996 0 0  0.9000000000000004 0 0  0.9500000000000002 0 0  1 0 0  1.05 0 0  1.1 0 0  1.15 0 0  1.2 0 0  1.25 0 0  1.3 0 0  1.35 0 0  1.4 0 0  1.45 0 0  1.5 0 0  1.55 0 0  1.6 0 0  1.65 0 0  1.7 0 0  1.75 0 0  1.8 0 0  1.85 0 0  1.9 0 0  1.95 0 0  2 0 0  2.05 0 0  2.1 0 0  2.15 0 0  2.2 0 0  2.25 0 0  2.3 0 0  2.35 0 0  2.4 0 0  2.45 0 0  2.5 0 0  2.55 0 0  2.6 0 0  2.65 0 0  2.7 0 0  2.75 0 0  2.8 0 0  2.85 0 0  2.9 0 0  2.95 0 0  3 0 0  3.050000000000001 0 0  3.1 0 0  3.15 0 0  3.199999999999999 0 0  3.25 0 0  3.300000000000001 0 0  3.35 0 0  3.4 0 0  3.449999999999999 0 0  3.5 0 0  3.550000000000001 0 0  3.6 0 0  3.65 0 0  3.699999999999999 0 0  3.75 0 0  3.800000000000001 0 0  3.85 0 0  3.9 0 0  3.949999999999999 0 0  4 0 0  4.050000000000001 0 0  4.1 0 0  4.15 0 0  4.199999999999999 0 0  4.25 0 0  4.300000000000001 0 0  4.35 0 0  4.4 0 0  4.449999999999999 0 0  4.5 0 0  4.550000000000001 0 0  4.6 0 0  4.65 0 0  4.699999999999999 0 0  4.75 0 0  4.800000000000001 0 0  4.85 0 0  4.9 0 0  4.949999999999999 0 0  5 0 0  </DataArray>
</Points>
<Cells>
<DataArray  type="UInt32"  Name="connectivity"  format="ascii">0 1  1 2  2 3  3 4  4 5  5 6  6 7  7 8  8 9  9 10  10 11  11 12  12 13  13 14  14 15  15 16  16 17  17 18  18 19  19 20  20 21  21 22  22 23  23 24  24 25  25 26  26 27  27 28  28 29  29 30  30 31  31 32  32 33  33 34  34 35  35 36  36 37  37 38  38 39  39 40  40 41  41 42  42 43  43 44  44 45  45 46  46 47  47 48  48 49  49 50  50 51  51 52  52 53  53 54  54 55  55 56  56 57  57 58  58 59  59 60  60 61  61 62  62 63  63 64  64 65  65 66  66 67  67 68  68 69  69 70  70 71  71 72  72 73  73 74  74 75  75 76  76 77  77 78  78 79  79 80  80 81  81 82  82 83  83 84  84 85  85 86  86 87  87 88  88 89  89 90  90 91  91 92  92 93  93 94  94 95  95 96  96 97  97 98  98 99  99 100  100 101  101 102  102 103  103 104  104 105  105 106  106 107  107 108  108 109  109 110  110 111  111 112  112 113  113 114  114 115  115 116  116 117  117 118  118 119  119 120  120 121  121 122  122 123  123 124  124 125  125 126  126 127  127 128  128 129  129 130  130 131  131 132  132 133  133 134  134 135  135 136  136 137  137 138  138 139  139 140  140 141  141 142  142 143  143 144  144 145  145 146  146 147  147 148  148 149  149 150  150 151  151 152  152 153  153 154  154 155  155 156  156 157  157 158  158 159  159 160  160 161  161 162  162 163  163 164  164 165  165 166  166 167  167 168  168 169  169 170  170 171  171 172  172 173  173 174  174 175  175 176  176 177  177 178  178 179  179 180  180 181  181 182  182 183  183 184  184 185  185 186  186 187  187 188  188 189  189 190  190 191  191 192  192 193  193 194  194 195  195 196  196 197  197 198  198 199  199 200  </DataArray>
<DataArray  type="UInt32"  Name="offsets"  format="ascii">2 4 6 8 10 12 14 16 18 20 22 24 26 28 30 32 34 36 38 40 42 44 46 48 50 52 54 56 58 60 62 64 66 68 70 72 74 76 78 80 82 84 86 88 90 92 94 96 98 100 102 104 106 108 110 112 114 116 118 120 122 124 126 128 130 132 134 136 138 140 142 144 146 148 150 152 154 156 158 160 162 164 166 168 170 172 174 176 178 180 182 184 186 188 190 192 194 196 198 200 202 204 206 208 210 212 214 216 218 220 222 224 226 228 230 232 234 236 238 240 242 244 246 248 250 252 254 256 258 260 262 264 266 268 270 272 274 276 278 280 282 284 286 288 290 292 294 296 298 300 302 304 306 308 310 312 314 316 318 320 322 324 326 328 330 332 334 336 338 340 342 344 346 348 350 352 354 356 358 360 362 364 366 368 370 372 374 376 378 380 382 384 386 388 390 392 394 396 398 400 </DataArray>
<DataArray  type="UInt8"  Name="types"  format="ascii">3 3 3 3 3 3 3 3 3 3 3 3 3 3 3 3 3 3 3 3 3 3 3 3 3 3 3 3 3 3 3 3 3 3 3 3 3 3 3 3 3 3 3 3 3 3 3 3 3 3 3 3 3 3 3 3 3 3 3 3 3 3 3 3 3 3 3 3 3 3 3 3 3 3 3 3 3 3 3 3 3 3 3 3 3 3 3 3 3 3 3 3 3 3 3 3 3 3 3 3 3 3 3 3 3 3 3 3 3 3 3 3 3 3 3 3 3 3 3 3 3 3 3 3 3 3 3 3 3 3 3 3 3 3 3 3 3 3 3 3 3 3 3 3 3 3 3 3 3 3 3 3 3 3 3 3 3 3 3 3 3 3 3 3 3 3 3 3 3 3 3 3 3 3 3 3 3 3 3 3 3 3 3 3 3 3 3 3 3 3 3 3 3 3 3 3 3 3 3 3 </DataArray>
</Cells>
<PointData  Vectors="f_5"> 
<DataArray  type="Float64"  Name="f_5"  NumberOfComponents="3" format="ascii">1.0000000000000002e+01 2.2169058102884982e-24 0.0000000000000000e+00  1.0000000000000002e+01 -4.4338116205769970e-24 0.0000000000000000e+00  1.0000000000000002e+01 1.5518340672019499e-23 0.0000000000000000e+00  1.0000000000000002e+01 -5.7639551067500549e-23 0.0000000000000000e+00  1.0000000000000002e+01 2.1503986359798455e-22 0.0000000000000000e+00  1.0000000000000004e+01 -8.0251990332443797e-22 0.0000000000000000e+00  1.0000000000000002e+01 2.9950397496997690e-21 0.0000000000000000e+00  1.0000000000000004e+01 -1.1177639095474642e-20 0.0000000000000000e+00  1.0000000000000002e+01 4.1715516632198476e-20 0.0000000000000000e+00  1.0000000000000002e+01 -1.5568442743332062e-19 0.0000000000000000e+00  1.0000000000000002e+01 5.8102219310108411e-19 0.0000000000000000e+00  1.0000000000000004e+01 -2.1684043449710166e-18 0.0000000000000000e+00  9.9897613481231993e+00 1.0141783192111131e-02 0.0000000000000000e+00  9.9143019233598508e+00 8.5048150233311290e-02 0.0000000000000000e+00  9.8391285781355666e+00 1.5995451727450907e-01 0.0000000000000000e+00  9.7642413124503253e+00 2.3486088431570692e-01 0.0000000000000000e+00  9.6896401263041430e+00 3.0976725135690591e-01 0.0000000000000000e+00  9.6153250196970177e+00 3.8467361839810371e-01 0.0000000000000000e+00  9.5412959926289354e+00 4.5957998543930384e-01 0.0000000000000000e+00  9.4675530450999155e+00 5.3448635248050158e-01 0.0000000000000000e+00  9.3940961771099438e+00 6.0939271952169938e-01 0.0000000000000000e+00  9.3209253886590293e+00 6.8429908656289862e-01 0.0000000000000000e+00  9.2480406797471630e+00 7.5920545360409752e-01 0.0000000000000000e+00  9.1754420503743539e+00 8.3411182064529521e-01 0.0000000000000000e+00  9.1031295005405983e+00 9.0901818768649412e-01 0.0000000000000000e+00  9.0311030302458892e+00 9.8392455472769258e-01 0.0000000000000000e+00  8.9593626394902355e+00 1.0588309217688905e+00 0.0000000000000000e+00  8.8879083282736389e+00 1.1337372888100903e+00 0.0000000000000000e+00  8.8167400965960905e+00 1.2086436558512876e+00 0.0000000000000000e+00  8.7458579444576010e+00 1.2835500228924865e+00 0.0000000000000000e+00  8.6752618718581633e+00 1.3584563899336850e+00 0.0000000000000000e+00  8.6049518787977721e+00 1.4333627569748835e+00 0.0000000000000000e+00  8.5349279652764434e+00 1.5082691240160819e+00 0.0000000000000000e+00  8.4651901312941664e+00 1.5831754910572797e+00 0.0000000000000000e+00  8.3957383768509377e+00 1.6580818580984802e+00 0.0000000000000000e+00  8.3265727019467644e+00 1.7329882251396775e+00 0.0000000000000000e+00  8.2576931065816428e+00 1.8078945921808751e+00 0.0000000000000000e+00  8.1890995907555730e+00 1.8828009592220747e+00 0.0000000000000000e+00  8.1207921544685604e+00 1.9577073262632727e+00 0.0000000000000000e+00  8.0527707977205960e+00 2.0326136933044721e+00 0.0000000000000000e+00  7.9850355205116950e+00 2.1075200603456703e+00 0.0000000000000000e+00  7.9175863228418333e+00 2.1824264273868681e+00 0.0000000000000000e+00  7.8504232047110367e+00 2.2573327944280672e+00 0.0000000000000000e+00  7.7835461661192875e+00 2.3322391614692655e+00 0.0000000000000000e+00  7.7169552070665937e+00 2.4071455285104641e+00 0.0000000000000000e+00  7.6506503275529489e+00 2.4820518955516628e+00 0.0000000000000000e+00  7.5846315275783605e+00 2.5569582625928606e+00 0.0000000000000000e+00  7.5188988071428202e+00 2.6318646296340589e+00 0.0000000000000000e+00  7.4534521662463407e+00 2.7067709966752593e+00 0.0000000000000000e+00  7.3882916048889085e+00 2.7816773637164567e+00 0.0000000000000000e+00  7.3234171230705361e+00 2.8565837307576558e+00 0.0000000000000000e+00  7.2588287207912092e+00 2.9314900977988527e+00 0.0000000000000000e+00  7.1945263980509404e+00 3.0063964648400523e+00 0.0000000000000000e+00  7.1305101548497261e+00 3.0813028318812510e+00 0.0000000000000000e+00  7.0667799911875617e+00 3.1562091989224501e+00 0.0000000000000000e+00  7.0033359070644501e+00 3.2311155659636470e+00 0.0000000000000000e+00  6.9401779024803867e+00 3.3060219330048453e+00 0.0000000000000000e+00  6.8773059774353866e+00 3.3809283000460435e+00 0.0000000000000000e+00  6.8147201319294313e+00 3.4558346670872435e+00 0.0000000000000000e+00  6.7524203659625348e+00 3.5307410341284440e+00 0.0000000000000000e+00  6.6904066795346919e+00 3.6056474011696400e+00 0.0000000000000000e+00  6.6286790726458991e+00 3.6805537682108374e+00 0.0000000000000000e+00  6.5672375452961571e+00 3.7554601352520374e+00 0.0000000000000000e+00  6.5060820974854749e+00 3.8303665022932361e+00 0.0000000000000000e+00  6.4452127292138419e+00 3.9052728693344347e+00 0.0000000000000000e+00  6.3846294404812616e+00 3.9801792363756334e+00 0.0000000000000000e+00  6.3243322312877348e+00 4.0550856034168303e+00 0.0000000000000000e+00  6.2643211016332589e+00 4.1299919704580281e+00 0.0000000000000000e+00  6.2045960515178402e+00 4.2048983374992313e+00 0.0000000000000000e+00  6.1451570809414733e+00 4.2798047045404264e+00 0.0000000000000000e+00  6.0860041899041590e+00 4.3547110715816260e+00 0.0000000000000000e+00  6.0271373784058966e+00 4.4296174386228220e+00 0.0000000000000000e+00  5.9685566464466921e+00 4.5045238056640233e+00 0.0000000000000000e+00  5.9102619940265360e+00 4.5794301727052202e+00 0.0000000000000000e+00  5.8522534211454333e+00 4.6543365397464207e+00 0.0000000000000000e+00  5.7945309278033879e+00 4.7292429067876167e+00 0.0000000000000000e+00  5.7370945140003897e+00 4.8041492738288154e+00 0.0000000000000000e+00  5.6799441797364487e+00 4.8790556408700150e+00 0.0000000000000000e+00  5.6230799250115595e+00 4.9539620079112145e+00 0.0000000000000000e+00  5.5665017498257248e+00 5.0288683749524106e+00 0.0000000000000000e+00  5.5102096541789418e+00 5.1037747419936119e+00 0.0000000000000000e+00  5.4542036380712116e+00 5.1786811090348079e+00 0.0000000000000000e+00  5.3984837015025375e+00 5.2535874760760084e+00 0.0000000000000000e+00  5.3430498444729091e+00 5.3284938431172071e+00 0.0000000000000000e+00  5.2879020669823440e+00 5.4034002101584040e+00 0.0000000000000000e+00  5.2330403690308218e+00 5.4783065771996045e+00 0.0000000000000000e+00  5.1784647506183603e+00 5.5532129442407996e+00 0.0000000000000000e+00  5.1241752117449515e+00 5.6281193112820009e+00 0.0000000000000000e+00  5.0701717524105909e+00 5.7030256783231987e+00 0.0000000000000000e+00  5.0164543726152893e+00 5.7779320453643965e+00 0.0000000000000000e+00  4.9630230723590367e+00 5.8528384124055970e+00 0.0000000000000000e+00  4.9098778516418369e+00 5.9277447794467921e+00 0.0000000000000000e+00  4.8570187104636959e+00 6.0026511464879926e+00 0.0000000000000000e+00  4.8044456488245988e+00 6.0775575135291904e+00 0.0000000000000000e+00  4.7521586667245614e+00 6.1524638805703900e+00 0.0000000000000000e+00  4.7001577641635759e+00 6.2273702476115895e+00 0.0000000000000000e+00  4.6484429411416421e+00 6.3022766146527847e+00 0.0000000000000000e+00  4.5970141976587655e+00 6.3771829816939869e+00 0.0000000000000000e+00  4.5458715337149371e+00 6.4520893487351838e+00 0.0000000000000000e+00  4.4950149493101650e+00 6.5269957157763825e+00 0.0000000000000000e+00  4.4444444444444446e+00 6.6019020828175794e+00 0.0000000000000000e+00  4.3941600191177752e+00 6.6768084498587772e+00 0.0000000000000000e+00  4.3441616733301656e+00 6.7517148168999785e+00 0.0000000000000000e+00  4.2944494070816015e+00 6.8266211839411755e+00 0.0000000000000000e+00  4.2450232203720955e+00 6.9015275509823741e+00 0.0000000000000000e+00  4.1958831132016403e+00 6.9764339180235764e+00 0.0000000000000000e+00  4.1470290855702414e+00 7.0513402850647671e+00 0.0000000000000000e+00  4.0984611374778916e+00 7.1262466521059720e+00 0.0000000000000000e+00  4.0501792689245955e+00 7.2011530191471680e+00 0.0000000000000000e+00  4.0021834799103546e+00 7.2760593861883684e+00 0.0000000000000000e+00  3.9618000000000007e+00 7.3396343122977878e+00 0.0000000000000000e+00  3.9618000000000007e+00 7.3396343122977878e+00 0.0000000000000000e+00  3.9618000000000011e+00 7.3396343122977870e+00 0.0000000000000000e+00  3.9618000000000007e+00 7.3396343122977870e+00 0.0000000000000000e+00  3.9618000000000011e+00 7.3396343122977861e+00 0.0000000000000000e+00  3.9618000000000007e+00 7.3396343122977878e+00 0.0000000000000000e+00  3.9618000000000007e+00 7.3396343122977878e+00 0.0000000000000000e+00  3.9618000000000011e+00 7.3396343122977870e+00 0.0000000000000000e+00  3.9618000000000007e+00 7.3396343122977870e+00 0.0000000000000000e+00  3.9618000000000011e+00 7.3396343122977861e+00 0.0000000000000000e+00  3.9618000000000007e+00 7.3396343122977878e+00 0.0000000000000000e+00  3.9618000000000007e+00 7.3396343122977878e+00 0.0000000000000000e+00  3.9618000000000011e+00 7.3396343122977870e+00 0.0000000000000000e+00  3.9618000000000007e+00 7.3396343122977870e+00 0.0000000000000000e+00  3.9618000000000011e+00 7.3396343122977861e+00 0.0000000000000000e+00  3.9618000000000007e+00 7.3396343122977878e+00 0.0000000000000000e+00  3.9618000000000007e+00 7.3396343122977878e+00 0.0000000000000000e+00  3.9618000000000011e+00 7.3396343122977870e+00 0.0000000000000000e+00  3.9618000000000007e+00 7.3396343122977870e+00 0.0000000000000000e+00  3.9618000000000011e+00 7.3396343122977861e+00 0.0000000000000000e+00  3.9618000000000007e+00 7.3396343122977878e+00 0.0000000000000000e+00  3.9618000000000007e+00 7.3396343122977878e+00 0.0000000000000000e+00  3.9618000000000011e+00 7.3396343122977870e+00 0.0000000000000000e+00  3.9618000000000007e+00 7.3396343122977870e+00 0.0000000000000000e+00  3.9618000000000011e+00 7.3396343122977861e+00 0.0000000000000000e+00  3.9618000000000007e+00 7.3396343122977878e+00 0.0000000000000000e+00  3.9618000000000007e+00 7.3396343122977878e+00 0.0000000000000000e+00  3.9618000000000011e+00 7.3396343122977870e+00 0.0000000000000000e+00  3.9618000000000007e+00 7.3396343122977870e+00 0.0000000000000000e+00  3.9618000000000011e+00 7.3396343122977861e+00 0.0000000000000000e+00  3.9618000000000007e+00 7.3396343122977878e+00 0.0000000000000000e+00  3.9618000000000007e+00 7.3396343122977878e+00 0.0000000000000000e+00  3.9618000000000011e+00 7.3396343122977870e+00 0.0000000000000000e+00  3.9618000000000007e+00 7.3396343122977870e+00 0.0000000000000000e+00  3.9618000000000011e+00 7.3396343122977861e+00 0.0000000000000000e+00  3.9618000000000007e+00 7.3396343122977878e+00 0.0000000000000000e+00  3.9618000000000007e+00 7.3396343122977878e+00 0.0000000000000000e+00  3.9618000000000011e+00 7.3396343122977870e+00 0.0000000000000000e+00  3.9618000000000007e+00 7.3396343122977870e+00 0.0000000000000000e+00  3.9618000000000011e+00 7.3396343122977861e+00 0.0000000000000000e+00  3.9618000000000007e+00 7.3396343122977878e+00 0.0000000000000000e+00  3.9618000000000007e+00 7.3396343122977878e+00 0.0000000000000000e+00  3.9618000000000011e+00 7.3396343122977870e+00 0.0000000000000000e+00  3.9618000000000007e+00 7.3396343122977870e+00 0.0000000000000000e+00  3.9618000000000011e+00 7.3396343122977861e+00 0.0000000000000000e+00  3.9618000000000007e+00 7.3396343122977878e+00 0.0000000000000000e+00  3.9618000000000007e+00 7.3396343122977878e+00 0.0000000000000000e+00  3.9618000000000011e+00 7.3396343122977870e+00 0.0000000000000000e+00  3.9618000000000007e+00 7.3396343122977870e+00 0.0000000000000000e+00  3.9618000000000007e+00 7.3396343122977861e+00 0.0000000000000000e+00  3.9618000000000011e+00 7.3396343122977870e+00 0.0000000000000000e+00  3.9618000000000011e+00 7.3396343122977887e+00 0.0000000000000000e+00  3.9618000000000007e+00 7.3396343122977878e+00 0.0000000000000000e+00  3.9618000000000007e+00 7.3396343122977887e+00 0.0000000000000000e+00  3.9618000000000007e+00 7.3396343122977878e+00 0.0000000000000000e+00  3.9618000000000007e+00 7.3396343122977870e+00 0.0000000000000000e+00  3.9618000000000007e+00 7.3396343122977878e+00 0.0000000000000000e+00  3.9618000000000007e+00 7.3396343122977878e+00 0.0000000000000000e+00  3.9618000000000007e+00 7.3396343122977887e+00 0.0000000000000000e+00  3.9618000000000007e+00 7.3396343122977878e+00 0.0000000000000000e+00  3.9618000000000007e+00 7.3396343122977870e+00 0.0000000000000000e+00  3.9618000000000007e+00 7.3396343122977878e+00 0.0000000000000000e+00  3.9618000000000007e+00 7.3396343122977878e+00 0.0000000000000000e+00  3.9618000000000007e+00 7.3396343122977887e+00 0.0000000000000000e+00  3.9618000000000007e+00 7.3396343122977878e+00 0.0000000000000000e+00  3.9618000000000007e+00 7.3396343122977870e+00 0.0000000000000000e+00  3.9618000000000007e+00 7.3396343122977878e+00 0.0000000000000000e+00  3.9618000000000007e+00 7.3396343122977878e+00 0.0000000000000000e+00  3.9618000000000007e+00 7.3396343122977887e+00 0.0000000000000000e+00  3.9618000000000007e+00 7.3396343122977878e+00 0.0000000000000000e+00  3.9618000000000007e+00 7.3396343122977870e+00 0.0000000000000000e+00  3.9618000000000007e+00 7.3396343122977878e+00 0.0000000000000000e+00  3.9618000000000007e+00 7.3396343122977878e+00 0.0000000000000000e+00  3.9618000000000007e+00 7.3396343122977887e+00 0.0000000000000000e+00  3.9618000000000007e+00 7.3396343122977878e+00 0.0000000000000000e+00  3.9618000000000007e+00 7.3396343122977870e+00 0.0000000000000000e+00  3.9618000000000011e+00 7.3396343122977887e+00 0.0000000000000000e+00  3.9618000000000002e+00 7.3396343122977870e+00 0.0000000000000000e+00  1.0000000000000007e+00 7.2111100739385247e-16 0.0000000000000000e+00  1.0000000000000000e+00 -1.9322111208441978e-16 0.0000000000000000e+00  1.0000000000000002e+00 5.1773440943838655e-17 0.0000000000000000e+00  1.0000000000000002e+00 -1.3872651690934947e-17 0.0000000000000000e+00  9.9999999999999989e-01 3.7171658199003045e-18 0.0000000000000000e+00  1.0000000000000004e+00 -9.9601158866650445e-19 0.0000000000000000e+00  1.0000000000000000e+00 2.6688053476565350e-19 0.0000000000000000e+00  1.0000000000000002e+00 -7.1510550396126288e-20 0.0000000000000000e+00  1.0000000000000002e+00 1.9161666818851807e-20 0.0000000000000000e+00  9.9999999999999989e-01 -5.1361168792797863e-21 0.0000000000000000e+00  1.0000000000000004e+00 1.3828006982676552e-21 0.0000000000000000e+00  1.0000000000000000e+00 -3.9508591379075245e-22 0.0000000000000000e+00  1.0000000000000002e+00 1.9754295689537613e-22 0.0000000000000000e+00  </DataArray> 
</PointData> 
</Piece>
</UnstructuredGrid>
</VTKFile>