<?xml version="1.0"?>
<VTKFile type="UnstructuredGrid"  version="0.1"  >
<UnstructuredGrid>
<Piece  NumberOfPoints="201" NumberOfCells="200">
<Points>
<DataArray  type="Float64"  NumberOfComponents="3"  format="ascii">-5 0 0  -4.95 0 0  -4.9 0 0  -4.85 0 0  -4.8 0 0  -4.75 0 0  -4.7 0 0  -4.65 0 0  -4.6 0 0  -4.55 0 0  -4.5 0 0  -4.45 0 0  -4.4 0 0  -4.35 0 0  -4.3 0 0  -4.25 0 0  -4.2 0 0  -4.15 0 0  -4.1 0 0  -4.05 0 0  -4 0 0  -3.95 0 0  -3.9 0 0  -3.85 0 0  -3.8 0 0  -3.75 0 0  -3.7 0 0  -3.65 0 0  -3.6 0 0  -3.55 0 0  -3.5 0 0  -3.45 0 0  -3.4 0 0  -3.35 0 0  -3.3 0 0  -3.25 0 0  -3.2 0 0  -3.15 0 0  -3.1 0 0  -3.05 0 0  -3 0 0  -2.95 0 0  -2.9 0 0  -2.85 0 0  -2.8 0 0  -2.75 0 0  -2.7 0 0  -2.65 0 0  -2.6 0 0  -2.55 0 0  -2.5 0 0  -2.45 0 0  -2.4 0 0  -2.35 0 0  -2.3 0 0  -2.25 0 0  -2.2 0 0  -2.15 0 0  -2.1 0 0  -2.05 0 0  -2 0 0  -1.95 0 0  -1.9 0 0  -1.85 0 0  -1.8 0 0  -1.75 0 0  -1.7 0 0  -1.65 0 0  -1.6 0 0  -1.55 0 0  -1.5 0 0  -1.45 0 0  -1.4 0 0  -1.35 0 0  -1.3 0 0  -1.25 0 0  -1.2 0 0  -1.15 0 0  -1.1 0 0  -1.05 0 0  -1 0 0  -0.9500000000000002 0 0  -0.9000000000000004 0 0  -0.8499999999999996 0 0  -0.7999999999999998 0 0  -0.75 0 0  -0.7000000000000002 0 0  -0.6500000000000004 0 0  -0.5999999999999996 0 0  -0.5499999999999998 0 0  -0.5 0 0  -0.4500000000000002 0 0  -0.4000000000000004 0 0  -0.3499999999999996 0 0  -0.2999999999999998 0 0  -0.25 0 0  -0.2000000000000002 0 0  -0.1500000000000004 0 0  -0.09999999999999964 0 0  -0.04999999999999982 0 0  0 0 0  0.04999999999999982 0 0  0.09999999999999964 0 0  0.1500000000000004 0 0  0.2000000000000002 0 0  0.25 0 0  0.2999999999999998 0 0  0.3499999999999996 0 0  0.4000000000000004 0 0  0.4500000000000002 0 0  0.5 0 0  0.5499999999999998 0 0  0.5999999999999996 0 0  0.6500000000000004 0 0  0.7000000000000002 0 0  0.75 0 0  0.7999999999999998 0 0  0.8499999999999996 0 0  0.9000000000000004 0 0  0.9500000000000002 0 0  1 0 0  1.05 0 0  1.1 0 0  1.15 0 0  1.2 0 0  1.25 0 0  1.3 0 0  1.35 0 0  1.4 0 0  1.45 0 0  1.5 0 0  1.55 0 0  1.6 0 0  1.65 0 0  1.7 0 0  1.75 0 0  1.8 0 0  1.85 0 0  1.9 0 0  1.95 0 0  2 0 0  2.05 0 0  2.1 0 0  2.15 0 0  2.2 0 0  2.25 0 0  2.3 0 0  2.35 0 0  2.4 0 0  2.45 0 0  2.5 0 0  2.55 0 0  2.6 0 0  2.65 0 0  2.7 0 0  2.75 0 0  2.8 0 0  2.85 0 0  2.9 0 0  2.95 0 0  3 0 0  3.050000000000001 0 0  3.1 0 0  3.15 0 0  3.199999999999999 0 0  3.25 0 0  3.300000000000001 0 0  3.35 0 0  3.4 0 0  3.449999999999999 0 0  3.5 0 0  3.550000000000001 0 0  3.6 0 0  3.65 0 0  3.699999999999999 0 0  3.75 0 0  3.800000000000001 0 0  3.85 0 0  3.9 0 0  3.949999999999999 0 0  4 0 0  4.050000000000001 0 0  4.1 0 0  4.15 0 0  4.199999999999999 0 0  4.25 0 0  4.300000000000001 0 0  4.35 0 0  4.4 0 0  4.449999999999999 0 0  4.5 0 0  4.550000000000001 0 0  4.6 0 0  4.65 0 0  4.699999999999999 0 0  4.75 0 0  4.800000000000001 0 0  4.85 0 0  4.9 0 0  4.949999999999999 0 0  5 0 0  </DataArray>
</Points>
<Cells>
<DataArray  type="UInt32"  Name="connectivity"  format="ascii">0 1  1 2  2 3  3 4  4 5  5 6  6 7  7 8  8 9  9 10  10 11  11 12  12 13  13 14  14 15  15 16  16 17  17 18  18 19  19 20  20 21  21 22  22 23  23 24  24 25  25 26  26 27  27 28  28 29  29 30  30 31  31 32  32 33  33 34  34 35  35 36  36 37  37 38  38 39  39 40  40 41  41 42  42 43  43 44  44 45  45 46  46 47  47 48  48 49  49 50  50 51  51 52  52 53  53 54  54 55  55 56  56 57  57 58  58 59  59 60  60 61  61 62  62 63  63 64  64 65  65 66  66 67  67 68  68 69  69 70  70 71  71 72  72 73  73 74  74 75  75 76  76 77  77 78  78 79  79 80  80 81  81 82  82 83  83 84  84 85  85 86  86 87  87 88  88 89  89 90  90 91  91 92  92 93  93 94  94 95  95 96  96 97  97 98  98 99  99 100  100 101  101 102  102 103  103 104  104 105  105 106  106 107  107 108  108 109  109 110  110 111  111 112  112 113  113 114  114 115  115 116  116 117  117 118  118 119  119 120  120 121  121 122  122 123  123 124  124 125  125 126  126 127  127 128  128 129  129 130  130 131  131 132  132 133  133 134  134 135  135 136  136 137  137 138  138 139  139 140  140 141  141 142  142 143  143 144  144 145  145 146  146 147  147 148  148 149  149 150  150 151  151 152  152 153  153 154  154 155  155 156  156 157  157 158  158 159  159 160  160 161  161 162  162 163  163 164  164 165  165 166  166 167  167 168  168 169  169 170  170 171  171 172  172 173  173 174  174 175  175 176  176 177  177 178  178 179  179 180  180 181  181 182  182 183  183 184  184 185  185 186  186 187  187 188  188 189  189 190  190 191  191 192  192 193  193 194  194 195  195 196  196 197  197 198  198 199  199 200  </DataArray>
<DataArray  type="UInt32"  Name="offsets"  format="ascii">2 4 6 8 10 12 14 16 18 20 22 24 26 28 30 32 34 36 38 40 42 44 46 48 50 52 54 56 58 60 62 64 66 68 70 72 74 76 78 80 82 84 86 88 90 92 94 96 98 100 102 104 106 108 110 112 114 116 118 120 122 124 126 128 130 132 134 136 138 140 142 144 146 148 150 152 154 156 158 160 162 164 166 168 170 172 174 176 178 180 182 184 186 188 190 192 194 196 198 200 202 204 206 208 210 212 214 216 218 220 222 224 226 228 230 232 234 236 238 240 242 244 246 248 250 252 254 256 258 260 262 264 266 268 270 272 274 276 278 280 282 284 286 288 290 292 294 296 298 300 302 304 306 308 310 312 314 316 318 320 322 324 326 328 330 332 334 336 338 340 342 344 346 348 350 352 354 356 358 360 362 364 366 368 370 372 374 376 378 380 382 384 386 388 390 392 394 396 398 400 </DataArray>
<DataArray  type="UInt8"  Name="types"  format="ascii">3 3 3 3 3 3 3 3 3 3 3 3 3 3 3 3 3 3 3 3 3 3 3 3 3 3 3 3 3 3 3 3 3 3 3 3 3 3 3 3 3 3 3 3 3 3 3 3 3 3 3 3 3 3 3 3 3 3 3 3 3 3 3 3 3 3 3 3 3 3 3 3 3 3 3 3 3 3 3 3 3 3 3 3 3 3 3 3 3 3 3 3 3 3 3 3 3 3 3 3 3 3 3 3 3 3 3 3 3 3 3 3 3 3 3 3 3 3 3 3 3 3 3 3 3 3 3 3 3 3 3 3 3 3 3 3 3 3 3 3 3 3 3 3 3 3 3 3 3 3 3 3 3 3 3 3 3 3 3 3 3 3 3 3 3 3 3 3 3 3 3 3 3 3 3 3 3 3 3 3 3 3 3 3 3 3 3 3 3 3 3 3 3 3 3 3 3 3 3 3 </DataArray>
</Cells>
<PointData  Vectors="f_5"> 
<DataArray  type="Float64"  Name="f_5"  NumberOfComponents="3" format="ascii">1.0000000000000002e+01 8.2736051195633785e-24 0.0000000000000000e+00  1.0000000000000002e+01 -1.6547210239126763e-23 0.0000000000000000e+00  1.0000000000000002e+01 5.7915235836943698e-23 0.0000000000000000e+00  1.0000000000000002e+01 -2.1511373310864632e-22 0.0000000000000000e+00  1.0000000000000002e+01 8.0253969659764857e-22 0.0000000000000000e+00  1.0000000000000004e+01 -2.9950450532819489e-21 0.0000000000000000e+00  1.0000000000000002e+01 1.1177640516530154e-20 0.0000000000000000e+00  1.0000000000000004e+01 -4.1715517012838687e-20 0.0000000000000000e+00  1.0000000000000002e+01 1.5568442753482334e-19 0.0000000000000000e+00  1.0000000000000002e+01 -5.8102219312645977e-19 0.0000000000000000e+00  1.0000000000000002e+01 2.1684043449710166e-18 0.0000000000000000e+00  9.9906013931661253e+00 9.3094902249871280e-03 0.0000000000000000e+00  9.9159756914410835e+00 8.3383564299060992e-02 0.0000000000000000e+00  9.8416297472504706e+00 1.5745763837313584e-01 0.0000000000000000e+00  9.7675635605942723e+00 2.3153171244720985e-01 0.0000000000000000e+00  9.6937771314725101e+00 3.0560578652128362e-01 0.0000000000000000e+00  9.6202704598851607e+00 3.7967986059535735e-01 0.0000000000000000e+00  9.5470435458322527e+00 4.5375393466943115e-01 0.0000000000000000e+00  9.4740963893137540e+00 5.2782800874350622e-01 0.0000000000000000e+00  9.4014289903296806e+00 6.0190208281757995e-01 0.0000000000000000e+00  9.3290413488800379e+00 6.7597615689165391e-01 0.0000000000000000e+00  9.2569334649648241e+00 7.5005023096572787e-01 0.0000000000000000e+00  9.1851053385840267e+00 8.2412430503980294e-01 0.0000000000000000e+00  9.1135569697376546e+00 8.9819837911387601e-01 0.0000000000000000e+00  9.0422883584257114e+00 9.7227245318795052e-01 0.0000000000000000e+00  8.9712995046481918e+00 1.0463465272620240e+00 0.0000000000000000e+00  8.9005904084050957e+00 1.1204206013360978e+00 0.0000000000000000e+00  8.8301610696964214e+00 1.1944946754101731e+00 0.0000000000000000e+00  8.7600114885221760e+00 1.2685687494842470e+00 0.0000000000000000e+00  8.6901416648823524e+00 1.3426428235583208e+00 0.0000000000000000e+00  8.6205515987769576e+00 1.4167168976323949e+00 0.0000000000000000e+00  8.5512412902059847e+00 1.4907909717064691e+00 0.0000000000000000e+00  8.4822107391694317e+00 1.5648650457805433e+00 0.0000000000000000e+00  8.4134599456673111e+00 1.6389391198546166e+00 0.0000000000000000e+00  8.3449889096996124e+00 1.7130131939286919e+00 0.0000000000000000e+00  8.2767976312663389e+00 1.7870872680027652e+00 0.0000000000000000e+00  8.2088861103674855e+00 1.8611613420768394e+00 0.0000000000000000e+00  8.1412543470030645e+00 1.9352354161509129e+00 0.0000000000000000e+00  8.0739023411730653e+00 2.0093094902249882e+00 0.0000000000000000e+00  8.0068300928774878e+00 2.0833835642990617e+00 0.0000000000000000e+00  7.9400376021163384e+00 2.1574576383731365e+00 0.0000000000000000e+00  7.8735248688896080e+00 2.2315317124472096e+00 0.0000000000000000e+00  7.8072918931973101e+00 2.3056057865212849e+00 0.0000000000000000e+00  7.7413386750394331e+00 2.3796798605953580e+00 0.0000000000000000e+00  7.6756652144159814e+00 2.4537539346694328e+00 0.0000000000000000e+00  7.6102715113269559e+00 2.5278280087435063e+00 0.0000000000000000e+00  7.5451575657723513e+00 2.6019020828175794e+00 0.0000000000000000e+00  7.4803233777521747e+00 2.6759761568916556e+00 0.0000000000000000e+00  7.4157689472664226e+00 2.7500502309657282e+00 0.0000000000000000e+00  7.3514942743150922e+00 2.8241243050398026e+00 0.0000000000000000e+00  7.2874993588981853e+00 2.8981983791138775e+00 0.0000000000000000e+00  7.2237842010157092e+00 2.9722724531879501e+00 0.0000000000000000e+00  7.1603488006676539e+00 3.0463465272620254e+00 0.0000000000000000e+00  7.0971931578540222e+00 3.1204206013360984e+00 0.0000000000000000e+00  7.0343172725748175e+00 3.1944946754101733e+00 0.0000000000000000e+00  6.9717211448300409e+00 3.2685687494842468e+00 0.0000000000000000e+00  6.9094047746196789e+00 3.3426428235583194e+00 0.0000000000000000e+00  6.8473681619437521e+00 3.4167168976323961e+00 0.0000000000000000e+00  6.7856113068022443e+00 3.4907909717064691e+00 0.0000000000000000e+00  6.7241342091951628e+00 3.5648650457805435e+00 0.0000000000000000e+00  6.6629368691225048e+00 3.6389391198546179e+00 0.0000000000000000e+00  6.6020192865842722e+00 3.7130131939286901e+00 0.0000000000000000e+00  6.5413814615804631e+00 3.7870872680027663e+00 0.0000000000000000e+00  6.4810233941110793e+00 3.8611613420768385e+00 0.0000000000000000e+00  6.4209450841761226e+00 3.9352354161509138e+00 0.0000000000000000e+00  6.3611465317755878e+00 4.0093094902249877e+00 0.0000000000000000e+00  6.3016277369094800e+00 4.0833835642990604e+00 0.0000000000000000e+00  6.2423886995777957e+00 4.1574576383731374e+00 0.0000000000000000e+00  6.1834294197805377e+00 4.2315317124472092e+00 0.0000000000000000e+00  6.1247498975176997e+00 4.3056057865212836e+00 0.0000000000000000e+00  6.0663501327892879e+00 4.3796798605953589e+00 0.0000000000000000e+00  6.0082301255953023e+00 4.4537539346694306e+00 0.0000000000000000e+00  5.9503898759357412e+00 4.5278280087435077e+00 0.0000000000000000e+00  5.8928293838106054e+00 4.6019020828175803e+00 0.0000000000000000e+00  5.8355486492198940e+00 4.6759761568916547e+00 0.0000000000000000e+00  5.7785476721636089e+00 4.7500502309657291e+00 0.0000000000000000e+00  5.7218264526417446e+00 4.8241243050398008e+00 0.0000000000000000e+00  5.6653849906543057e+00 4.8981983791138770e+00 0.0000000000000000e+00  5.6092232862012938e+00 4.9722724531879487e+00 0.0000000000000000e+00  5.5533413392827038e+00 5.0463465272620258e+00 0.0000000000000000e+00  5.4977391498985391e+00 5.1204206013360993e+00 0.0000000000000000e+00  5.4424167180488006e+00 5.1944946754101711e+00 0.0000000000000000e+00  5.3873740437334874e+00 5.2685687494842464e+00 0.0000000000000000e+00  5.3326111269525960e+00 5.3426428235583234e+00 0.0000000000000000e+00  5.2781279677061308e+00 5.4167168976323934e+00 0.0000000000000000e+00  5.2239245659940918e+00 5.4907909717064713e+00 0.0000000000000000e+00  5.1700009218164764e+00 5.5648650457805422e+00 0.0000000000000000e+00  5.1163570351732846e+00 5.6389391198546166e+00 0.0000000000000000e+00  5.0629929060645180e+00 5.7130131939286946e+00 0.0000000000000000e+00  5.0099085344901750e+00 5.7870872680027672e+00 0.0000000000000000e+00  4.9571039204502583e+00 5.8611613420768380e+00 0.0000000000000000e+00  4.9045790639447651e+00 5.9352354161509142e+00 0.0000000000000000e+00  4.8523339649736981e+00 6.0093094902249868e+00 0.0000000000000000e+00  4.8003686235370555e+00 6.0833835642990639e+00 0.0000000000000000e+00  4.7486830396348374e+00 6.1574576383731365e+00 0.0000000000000000e+00  4.6972772132670464e+00 6.2315317124472100e+00 0.0000000000000000e+00  4.6461511444336745e+00 6.3056057865212845e+00 0.0000000000000000e+00  4.5953048331347315e+00 6.3796798605953571e+00 0.0000000000000000e+00  4.5447382793702094e+00 6.4537539346694350e+00 0.0000000000000000e+00  4.4944514831401134e+00 6.5278280087435050e+00 0.0000000000000000e+00  4.4444444444444455e+00 6.6019020828175803e+00 0.0000000000000000e+00  4.3947171632831985e+00 6.6759761568916538e+00 0.0000000000000000e+00  4.3452696396563786e+00 6.7500502309657273e+00 0.0000000000000000e+00  4.2961018735639795e+00 6.8241243050398044e+00 0.0000000000000000e+00  4.2472138650060085e+00 6.8981983791138770e+00 0.0000000000000000e+00  4.1986056139824619e+00 6.9722724531879505e+00 0.0000000000000000e+00  4.1502771204933389e+00 7.0463465272620249e+00 0.0000000000000000e+00  4.1022283845386429e+00 7.1204206013361020e+00 0.0000000000000000e+00  4.0544594061183679e+00 7.1944946754101728e+00 0.0000000000000000e+00  4.0069701852325217e+00 7.2685687494842472e+00 0.0000000000000000e+00  3.9617999999999993e+00 7.3396343122977896e+00 0.0000000000000000e+00  3.9618000000000015e+00 7.3396343122977878e+00 0.0000000000000000e+00  3.9618000000000011e+00 7.3396343122977870e+00 0.0000000000000000e+00  3.9618000000000007e+00 7.3396343122977870e+00 0.0000000000000000e+00  3.9618000000000011e+00 7.3396343122977861e+00 0.0000000000000000e+00  3.9618000000000007e+00 7.3396343122977878e+00 0.0000000000000000e+00  3.9618000000000007e+00 7.3396343122977878e+00 0.0000000000000000e+00  3.9618000000000011e+00 7.3396343122977870e+00 0.0000000000000000e+00  3.9618000000000007e+00 7.3396343122977870e+00 0.0000000000000000e+00  3.9618000000000011e+00 7.3396343122977861e+00 0.0000000000000000e+00  3.9618000000000007e+00 7.3396343122977878e+00 0.0000000000000000e+00  3.9618000000000007e+00 7.3396343122977878e+00 0.0000000000000000e+00  3.9618000000000011e+00 7.3396343122977870e+00 0.0000000000000000e+00  3.9618000000000007e+00 7.3396343122977870e+00 0.0000000000000000e+00  3.9618000000000011e+00 7.3396343122977861e+00 0.0000000000000000e+00  3.9618000000000007e+00 7.3396343122977878e+00 0.0000000000000000e+00  3.9618000000000007e+00 7.3396343122977878e+00 0.0000000000000000e+00  3.9618000000000011e+00 7.3396343122977870e+00 0.0000000000000000e+00  3.9618000000000007e+00 7.3396343122977870e+00 0.0000000000000000e+00  3.9618000000000011e+00 7.3396343122977861e+00 0.0000000000000000e+00  3.9618000000000007e+00 7.3396343122977878e+00 0.0000000000000000e+00  3.9618000000000007e+00 7.3396343122977878e+00 0.0000000000000000e+00  3.9618000000000011e+00 7.3396343122977870e+00 0.0000000000000000e+00  3.9618000000000007e+00 7.3396343122977870e+00 0.0000000000000000e+00  3.9618000000000011e+00 7.3396343122977861e+00 0.0000000000000000e+00  3.9618000000000007e+00 7.3396343122977878e+00 0.0000000000000000e+00  3.9618000000000007e+00 7.3396343122977878e+00 0.0000000000000000e+00  3.9618000000000011e+00 7.3396343122977870e+00 0.0000000000000000e+00  3.9618000000000007e+00 7.3396343122977870e+00 0.0000000000000000e+00  3.9618000000000011e+00 7.3396343122977861e+00 0.0000000000000000e+00  3.9618000000000007e+00 7.3396343122977878e+00 0.0000000000000000e+00  3.9618000000000007e+00 7.3396343122977878e+00 0.0000000000000000e+00  3.9618000000000011e+00 7.3396343122977870e+00 0.0000000000000000e+00  3.9618000000000007e+00 7.3396343122977870e+00 0.0000000000000000e+00  3.9618000000000011e+00 7.3396343122977861e+00 0.0000000000000000e+00  3.9618000000000007e+00 7.3396343122977878e+00 0.0000000000000000e+00  3.9618000000000007e+00 7.3396343122977878e+00 0.0000000000000000e+00  3.9618000000000011e+00 7.3396343122977870e+00 0.0000000000000000e+00  3.9618000000000007e+00 7.3396343122977870e+00 0.0000000000000000e+00  3.9618000000000011e+00 7.3396343122977861e+00 0.0000000000000000e+00  3.9618000000000007e+00 7.3396343122977878e+00 0.0000000000000000e+00  3.9618000000000007e+00 7.3396343122977878e+00 0.0000000000000000e+00  3.9618000000000011e+00 7.3396343122977870e+00 0.0000000000000000e+00  3.9618000000000007e+00 7.3396343122977870e+00 0.0000000000000000e+00  3.9618000000000011e+00 7.3396343122977861e+00 0.0000000000000000e+00  3.9618000000000007e+00 7.3396343122977878e+00 0.0000000000000000e+00  3.9618000000000007e+00 7.3396343122977878e+00 0.0000000000000000e+00  3.9618000000000011e+00 7.3396343122977870e+00 0.0000000000000000e+00  3.9618000000000007e+00 7.3396343122977870e+00 0.0000000000000000e+00  3.9618000000000007e+00 7.3396343122977861e+00 0.0000000000000000e+00  3.9618000000000011e+00 7.3396343122977870e+00 0.0000000000000000e+00  3.9618000000000011e+00 7.3396343122977887e+00 0.0000000000000000e+00  3.9618000000000007e+00 7.3396343122977878e+00 0.0000000000000000e+00  3.9618000000000007e+00 7.3396343122977887e+00 0.0000000000000000e+00  3.9618000000000007e+00 7.3396343122977878e+00 0.0000000000000000e+00  3.9618000000000007e+00 7.3396343122977870e+00 0.0000000000000000e+00  3.9618000000000007e+00 7.3396343122977878e+00 0.0000000000000000e+00  3.9618000000000007e+00 7.3396343122977878e+00 0.0000000000000000e+00  3.9618000000000007e+00 7.3396343122977887e+00 0.0000000000000000e+00  3.9618000000000007e+00 7.3396343122977878e+00 0.0000000000000000e+00  3.9618000000000007e+00 7.3396343122977870e+00 0.0000000000000000e+00  3.9618000000000007e+00 7.3396343122977878e+00 0.0000000000000000e+00  3.9618000000000007e+00 7.3396343122977878e+00 0.0000000000000000e+00  3.9618000000000007e+00 7.3396343122977887e+00 0.0000000000000000e+00  3.9618000000000007e+00 7.3396343122977878e+00 0.0000000000000000e+00  3.9618000000000007e+00 7.3396343122977870e+00 0.0000000000000000e+00  3.9618000000000007e+00 7.3396343122977878e+00 0.0000000000000000e+00  3.9618000000000007e+00 7.3396343122977878e+00 0.0000000000000000e+00  3.9618000000000007e+00 7.3396343122977887e+00 0.0000000000000000e+00  3.9618000000000007e+00 7.3396343122977878e+00 0.0000000000000000e+00  3.9618000000000007e+00 7.3396343122977870e+00 0.0000000000000000e+00  3.9618000000000007e+00 7.3396343122977878e+00 0.0000000000000000e+00  3.9618000000000007e+00 7.3396343122977878e+00 0.0000000000000000e+00  3.9618000000000007e+00 7.3396343122977887e+00 0.0000000000000000e+00  3.9618000000000007e+00 7.3396343122977878e+00 0.0000000000000000e+00  3.9618000000000007e+00 7.3396343122977870e+00 0.0000000000000000e+00  3.9618000000000011e+00 7.3396343122977878e+00 0.0000000000000000e+00  3.9618000000000002e+00 7.3396343122977878e+00 0.0000000000000000e+00  3.9618000000000020e+00 7.3396343122977878e+00 0.0000000000000000e+00  9.9999999999999978e-01 2.4037033579800887e-16 0.0000000000000000e+00  1.0000000000000002e+00 -6.4407037361691876e-17 0.0000000000000000e+00  1.0000000000000002e+00 1.7257813648758779e-17 0.0000000000000000e+00  9.9999999999999989e-01 -4.6242172333421936e-18 0.0000000000000000e+00  1.0000000000000004e+00 1.2390552846102824e-18 0.0000000000000000e+00  1.0000000000000000e+00 -3.3200390509886230e-19 0.0000000000000000e+00  1.0000000000000002e+00 8.8960335785187435e-20 0.0000000000000000e+00  1.0000000000000002e+00 -2.3837438041887597e-20 0.0000000000000000e+00  9.9999999999999989e-01 6.3894163823615246e-21 0.0000000000000000e+00  1.0000000000000004e+00 -1.7202274875588978e-21 0.0000000000000000e+00  1.0000000000000000e+00 4.9149356787396311e-22 0.0000000000000000e+00  1.0000000000000002e+00 -2.4574678393698141e-22 0.0000000000000000e+00  </DataArray> 
</PointData> 
</Piece>
</UnstructuredGrid>
</VTKFile>