<?xml version="1.0"?>
<VTKFile type="UnstructuredGrid"  version="0.1"  >
<UnstructuredGrid>
<Piece  NumberOfPoints="201" NumberOfCells="200">
<Points>
<DataArray  type="Float64"  NumberOfComponents="3"  format="ascii">-5 0 0  -4.95 0 0  -4.9 0 0  -4.85 0 0  -4.8 0 0  -4.75 0 0  -4.7 0 0  -4.65 0 0  -4.6 0 0  -4.55 0 0  -4.5 0 0  -4.45 0 0  -4.4 0 0  -4.35 0 0  -4.3 0 0  -4.25 0 0  -4.2 0 0  -4.15 0 0  -4.1 0 0  -4.05 0 0  -4 0 0  -3.95 0 0  -3.9 0 0  -3.85 0 0  -3.8 0 0  -3.75 0 0  -3.7 0 0  -3.65 0 0  -3.6 0 0  -3.55 0 0  -3.5 0 0  -3.45 0 0  -3.4 0 0  -3.35 0 0  -3.3 0 0  -3.25 0 0  -3.2 0 0  -3.15 0 0  -3.1 0 0  -3.05 0 0  -3 0 0  -2.95 0 0  -2.9 0 0  -2.85 0 0  -2.8 0 0  -2.75 0 0  -2.7 0 0  -2.65 0 0  -2.6 0 0  -2.55 0 0  -2.5 0 0  -2.45 0 0  -2.4 0 0  -2.35 0 0  -2.3 0 0  -2.25 0 0  -2.2 0 0  -2.15 0 0  -2.1 0 0  -2.05 0 0  -2 0 0  -1.95 0 0  -1.9 0 0  -1.85 0 0  -1.8 0 0  -1.75 0 0  -1.7 0 0  -1.65 0 0  -1.6 0 0  -1.55 0 0  -1.5 0 0  -1.45 0 0  -1.4 0 0  -1.35 0 0  -1.3 0 0  -1.25 0 0  -1.2 0 0  -1.15 0 0  -1.1 0 0  -1.05 0 0  -1 0 0  -0.9500000000000002 0 0  -0.9000000000000004 0 0  -0.8499999999999996 0 0  -0.7999999999999998 0 0  -0.75 0 0  -0.7000000000000002 0 0  -0.6500000000000004 0 0  -0.5999999999999996 0 0  -0.5499999999999998 0 0  -0.5 0 0  -0.4500000000000002 0 0  -0.4000000000000004 0 0  -0.3499999999999996 0 0  -0.2999999999999998 0 0  -0.25 0 0  -0.2000000000000002 0 0  -0.1500000000000004 0 0  -0.09999999999999964 0 0  -0.04999999999999982 0 0  0 0 0  0.04999999999999982 0 0  0.09999999999999964 0 0  0.1500000000000004 0 0  0.2000000000000002 0 0  0.25 0 0  0.2999999999999998 0 0  0.3499999999999996 0 0  0.4000000000000004 0 0  0.4500000000000002 0 0  0.5 0 0  0.5499999999999998 0 0  0.5999999999999996 0 0  0.6500000000000004 0 0  0.7000000000000002 0 0  0.75 0 0  0.7999999999999998 0 0  0.8499999999999996 0 0  0.9000000000000004 0 0  0.9500000000000002 0 0  1 0 0  1.05 0 0  1.1 0 0  1.15 0 0  1.2 0 0  1.25 0 0  1.3 0 0  1.35 0 0  1.4 0 0  1.45 0 0  1.5 0 0  1.55 0 0  1.6 0 0  1.65 0 0  1.7 0 0  1.75 0 0  1.8 0 0  1.85 0 0  1.9 0 0  1.95 0 0  2 0 0  2.05 0 0  2.1 0 0  2.15 0 0  2.2 0 0  2.25 0 0  2.3 0 0  2.35 0 0  2.4 0 0  2.45 0 0  2.5 0 0  2.55 0 0  2.6 0 0  2.65 0 0  2.7 0 0  2.75 0 0  2.8 0 0  2.85 0 0  2.9 0 0  2.95 0 0  3 0 0  3.050000000000001 0 0  3.1 0 0  3.15 0 0  3.199999999999999 0 0  3.25 0 0  3.300000000000001 0 0  3.35 0 0  3.4 0 0  3.449999999999999 0 0  3.5 0 0  3.550000000000001 0 0  3.6 0 0  3.65 0 0  3.699999999999999 0 0  3.75 0 0  3.800000000000001 0 0  3.85 0 0  3.9 0 0  3.949999999999999 0 0  4 0 0  4.050000000000001 0 0  4.1 0 0  4.15 0 0  4.199999999999999 0 0  4.25 0 0  4.300000000000001 0 0  4.35 0 0  4.4 0 0  4.449999999999999 0 0  4.5 0 0  4.550000000000001 0 0  4.6 0 0  4.65 0 0  4.699999999999999 0 0  4.75 0 0  4.800000000000001 0 0  4.85 0 0  4.9 0 0  4.949999999999999 0 0  5 0 0  </DataArray>
</Points>
<Cells>
<DataArray  type="UInt32"  Name="connectivity"  format="ascii">0 1  1 2  2 3  3 4  4 5  5 6  6 7  7 8  8 9  9 10  10 11  11 12  12 13  13 14  14 15  15 16  16 17  17 18  18 19  19 20  20 21  21 22  22 23  23 24  24 25  25 26  26 27  27 28  28 29  29 30  30 31  31 32  32 33  33 34  34 35  35 36  36 37  37 38  38 39  39 40  40 41  41 42  42 43  43 44  44 45  45 46  46 47  47 48  48 49  49 50  50 51  51 52  52 53  53 54  54 55  55 56  56 57  57 58  58 59  59 60  60 61  61 62  62 63  63 64  64 65  65 66  66 67  67 68  68 69  69 70  70 71  71 72  72 73  73 74  74 75  75 76  76 77  77 78  78 79  79 80  80 81  81 82  82 83  83 84  84 85  85 86  86 87  87 88  88 89  89 90  90 91  91 92  92 93  93 94  94 95  95 96  96 97  97 98  98 99  99 100  100 101  101 102  102 103  103 104  104 105  105 106  106 107  107 108  108 109  109 110  110 111  111 112  112 113  113 114  114 115  115 116  116 117  117 118  118 119  119 120  120 121  121 122  122 123  123 124  124 125  125 126  126 127  127 128  128 129  129 130  130 131  131 132  132 133  133 134  134 135  135 136  136 137  137 138  138 139  139 140  140 141  141 142  142 143  143 144  144 145  145 146  146 147  147 148  148 149  149 150  150 151  151 152  152 153  153 154  154 155  155 156  156 157  157 158  158 159  159 160  160 161  161 162  162 163  163 164  164 165  165 166  166 167  167 168  168 169  169 170  170 171  171 172  172 173  173 174  174 175  175 176  176 177  177 178  178 179  179 180  180 181  181 182  182 183  183 184  184 185  185 186  186 187  187 188  188 189  189 190  190 191  191 192  192 193  193 194  194 195  195 196  196 197  197 198  198 199  199 200  </DataArray>
<DataArray  type="UInt32"  Name="offsets"  format="ascii">2 4 6 8 10 12 14 16 18 20 22 24 26 28 30 32 34 36 38 40 42 44 46 48 50 52 54 56 58 60 62 64 66 68 70 72 74 76 78 80 82 84 86 88 90 92 94 96 98 100 102 104 106 108 110 112 114 116 118 120 122 124 126 128 130 132 134 136 138 140 142 144 146 148 150 152 154 156 158 160 162 164 166 168 170 172 174 176 178 180 182 184 186 188 190 192 194 196 198 200 202 204 206 208 210 212 214 216 218 220 222 224 226 228 230 232 234 236 238 240 242 244 246 248 250 252 254 256 258 260 262 264 266 268 270 272 274 276 278 280 282 284 286 288 290 292 294 296 298 300 302 304 306 308 310 312 314 316 318 320 322 324 326 328 330 332 334 336 338 340 342 344 346 348 350 352 354 356 358 360 362 364 366 368 370 372 374 376 378 380 382 384 386 388 390 392 394 396 398 400 </DataArray>
<DataArray  type="UInt8"  Name="types"  format="ascii">3 3 3 3 3 3 3 3 3 3 3 3 3 3 3 3 3 3 3 3 3 3 3 3 3 3 3 3 3 3 3 3 3 3 3 3 3 3 3 3 3 3 3 3 3 3 3 3 3 3 3 3 3 3 3 3 3 3 3 3 3 3 3 3 3 3 3 3 3 3 3 3 3 3 3 3 3 3 3 3 3 3 3 3 3 3 3 3 3 3 3 3 3 3 3 3 3 3 3 3 3 3 3 3 3 3 3 3 3 3 3 3 3 3 3 3 3 3 3 3 3 3 3 3 3 3 3 3 3 3 3 3 3 3 3 3 3 3 3 3 3 3 3 3 3 3 3 3 3 3 3 3 3 3 3 3 3 3 3 3 3 3 3 3 3 3 3 3 3 3 3 3 3 3 3 3 3 3 3 3 3 3 3 3 3 3 3 3 3 3 3 3 3 3 3 3 3 3 3 3 </DataArray>
</Cells>
<PointData  Vectors="f_5"> 
<DataArray  type="Float64"  Name="f_5"  NumberOfComponents="3" format="ascii">1.0000000000000002e+01 0.0000000000000000e+00 0.0000000000000000e+00  1.0000000000000002e+01 0.0000000000000000e+00 0.0000000000000000e+00  1.0000000000000002e+01 0.0000000000000000e+00 0.0000000000000000e+00  1.0000000000000002e+01 0.0000000000000000e+00 0.0000000000000000e+00  1.0000000000000002e+01 0.0000000000000000e+00 0.0000000000000000e+00  1.0000000000000004e+01 0.0000000000000000e+00 0.0000000000000000e+00  1.0000000000000002e+01 0.0000000000000000e+00 0.0000000000000000e+00  1.0000000000000004e+01 0.0000000000000000e+00 0.0000000000000000e+00  1.0000000000000002e+01 0.0000000000000000e+00 0.0000000000000000e+00  1.0000000000000002e+01 0.0000000000000000e+00 0.0000000000000000e+00  1.0000000000000004e+01 0.0000000000000000e+00 0.0000000000000000e+00  1.0000000000000002e+01 0.0000000000000000e+00 0.0000000000000000e+00  9.9999999999999982e+00 0.0000000000000000e+00 0.0000000000000000e+00  1.0000000000000004e+01 0.0000000000000000e+00 0.0000000000000000e+00  9.9880234360252107e+00 1.1863768641334836e-02 0.0000000000000000e+00  9.9108394034309928e+00 8.8492121131756349e-02 0.0000000000000000e+00  9.8339547546429387e+00 1.6512047362217783e-01 0.0000000000000000e+00  9.7573694896610483e+00 2.4174882611259821e-01 0.0000000000000000e+00  9.6810836084853129e+00 3.1837717860302089e-01 0.0000000000000000e+00  9.6050971111157430e+00 3.9500553109344239e-01 0.0000000000000000e+00  9.5294099975523352e+00 4.7163388358386393e-01 0.0000000000000000e+00  9.4540222677950965e+00 5.4826223607428437e-01 0.0000000000000000e+00  9.3789339218440002e+00 6.2489058856470681e-01 0.0000000000000000e+00  9.3041449596990891e+00 7.0151894105512758e-01 0.0000000000000000e+00  9.2296553813603222e+00 7.7814729354554979e-01 0.0000000000000000e+00  9.1554651868277279e+00 8.5477564603597056e-01 0.0000000000000000e+00  9.0815743761012921e+00 9.3140399852639177e-01 0.0000000000000000e+00  9.0079829491810184e+00 1.0080323510168134e+00 0.0000000000000000e+00  8.9346909060669031e+00 1.0846607035072349e+00 0.0000000000000000e+00  8.8616982467589569e+00 1.1612890559976563e+00 0.0000000000000000e+00  8.7890049712571674e+00 1.2379174084880782e+00 0.0000000000000000e+00  8.7166110795615381e+00 1.3145457609784992e+00 0.0000000000000000e+00  8.6445165716720780e+00 1.3911741134689213e+00 0.0000000000000000e+00  8.5727214475887763e+00 1.4678024659593425e+00 0.0000000000000000e+00  8.5012257073116313e+00 1.5444308184497635e+00 0.0000000000000000e+00  8.4300293508406572e+00 1.6210591709401856e+00 0.0000000000000000e+00  8.3591323781758380e+00 1.6976875234306061e+00 0.0000000000000000e+00  8.2885347893171808e+00 1.7743158759210282e+00 0.0000000000000000e+00  8.2182365842646892e+00 1.8509442284114492e+00 0.0000000000000000e+00  8.1482377630183631e+00 1.9275725809018718e+00 0.0000000000000000e+00  8.0785383255781902e+00 2.0042009333922923e+00 0.0000000000000000e+00  8.0091382719441810e+00 2.0808292858827131e+00 0.0000000000000000e+00  7.9400376021163392e+00 2.1574576383731365e+00 0.0000000000000000e+00  7.8712363160946568e+00 2.2340859908635569e+00 0.0000000000000000e+00  7.8027344138791355e+00 2.3107143433539798e+00 0.0000000000000000e+00  7.7345318954697770e+00 2.3873426958444002e+00 0.0000000000000000e+00  7.6666287608665789e+00 2.4639710483348209e+00 0.0000000000000000e+00  7.5990250100695427e+00 2.5405994008252422e+00 0.0000000000000000e+00  7.5317206430786712e+00 2.6172277533156643e+00 0.0000000000000000e+00  7.4647156598939599e+00 2.6938561058060859e+00 0.0000000000000000e+00  7.3980100605154115e+00 2.7704844582965080e+00 0.0000000000000000e+00  7.3316038449430216e+00 2.8471128107869288e+00 0.0000000000000000e+00  7.2654970131768009e+00 2.9237411632773505e+00 0.0000000000000000e+00  7.1996895652167341e+00 3.0003695157677730e+00 0.0000000000000000e+00  7.1341815010628302e+00 3.0769978682581929e+00 0.0000000000000000e+00  7.0689728207150964e+00 3.1536262207486154e+00 0.0000000000000000e+00  7.0040635241735121e+00 3.2302545732390358e+00 0.0000000000000000e+00  6.9394536114381005e+00 3.3068829257294574e+00 0.0000000000000000e+00  6.8751430825088455e+00 3.3835112782198800e+00 0.0000000000000000e+00  6.8111319373857553e+00 3.4601396307102998e+00 0.0000000000000000e+00  6.7474201760688262e+00 3.5367679832007242e+00 0.0000000000000000e+00  6.6840077985580564e+00 3.6133963356911427e+00 0.0000000000000000e+00  6.6208948048534513e+00 3.6900246881815653e+00 0.0000000000000000e+00  6.5580811949550073e+00 3.7666530406719851e+00 0.0000000000000000e+00  6.4955669688627236e+00 3.8432813931624086e+00 0.0000000000000000e+00  6.4333521265766063e+00 3.9199097456528280e+00 0.0000000000000000e+00  6.3714366680966492e+00 3.9965380981432501e+00 0.0000000000000000e+00  6.3098205934228497e+00 4.0731664506336722e+00 0.0000000000000000e+00  6.2485039025552211e+00 4.1497948031240925e+00 0.0000000000000000e+00  6.1874865954937475e+00 4.2264231556145155e+00 0.0000000000000000e+00  6.1267686722384358e+00 4.3030515081049359e+00 0.0000000000000000e+00  6.0663501327892879e+00 4.3796798605953580e+00 0.0000000000000000e+00  6.0062309771463029e+00 4.4563082130857801e+00 0.0000000000000000e+00  5.9464112053094764e+00 4.5329365655762004e+00 0.0000000000000000e+00  5.8868908172788164e+00 4.6095649180666243e+00 0.0000000000000000e+00  5.8276698130543156e+00 4.6861932705570428e+00 0.0000000000000000e+00  5.7687481926359778e+00 4.7628216230474649e+00 0.0000000000000000e+00  5.7101259560238029e+00 4.8394499755378861e+00 0.0000000000000000e+00  5.6518031032177847e+00 4.9160783280283074e+00 0.0000000000000000e+00  5.5937796342179364e+00 4.9927066805187312e+00 0.0000000000000000e+00  5.5360555490242431e+00 5.0693350330091516e+00 0.0000000000000000e+00  5.4786308476367171e+00 5.1459633854995719e+00 0.0000000000000000e+00  5.4215055300553487e+00 5.2225917379899922e+00 0.0000000000000000e+00  5.3646795962801441e+00 5.2992200904804179e+00 0.0000000000000000e+00  5.3081530463110989e+00 5.3758484429708355e+00 0.0000000000000000e+00  5.2519258801482218e+00 5.4524767954612594e+00 0.0000000000000000e+00  5.1959980977915015e+00 5.5291051479516788e+00 0.0000000000000000e+00  5.1403696992409467e+00 5.6057335004421036e+00 0.0000000000000000e+00  5.0850406844965477e+00 5.6823618529325248e+00 0.0000000000000000e+00  5.0300110535583169e+00 5.7589902054229443e+00 0.0000000000000000e+00  4.9752808064262473e+00 5.8356185579133673e+00 0.0000000000000000e+00  4.9208499431003379e+00 5.9122469104037858e+00 0.0000000000000000e+00  4.8667184635805905e+00 5.9888752628942088e+00 0.0000000000000000e+00  4.8128863678670051e+00 6.0655036153846282e+00 0.0000000000000000e+00  4.7593536559595817e+00 6.1421319678750539e+00 0.0000000000000000e+00  4.7061203278583212e+00 6.2187603203654724e+00 0.0000000000000000e+00  4.6531863835632219e+00 6.2953886728558963e+00 0.0000000000000000e+00  4.6005518230742828e+00 6.3720170253463131e+00 0.0000000000000000e+00  4.5482166463915101e+00 6.4486453778367414e+00 0.0000000000000000e+00  4.4961808535148942e+00 6.5252737303271591e+00 0.0000000000000000e+00  4.4444444444444446e+00 6.6019020828175776e+00 0.0000000000000000e+00  4.3930074191801536e+00 6.6785304353080024e+00 0.0000000000000000e+00  4.3418697777220299e+00 6.7551587877984227e+00 0.0000000000000000e+00  4.2910315200700611e+00 6.8317871402888466e+00 0.0000000000000000e+00  4.2404926462242596e+00 6.9084154927792651e+00 0.0000000000000000e+00  4.1902531561846148e+00 6.9850438452696872e+00 0.0000000000000000e+00  4.1403130499511365e+00 7.0616721977601076e+00 0.0000000000000000e+00  4.0906723275238210e+00 7.1383005502505306e+00 0.0000000000000000e+00  4.0413309889026623e+00 7.2149289027409527e+00 0.0000000000000000e+00  3.9922890340876696e+00 7.2915572552313757e+00 0.0000000000000000e+00  3.9618000000000007e+00 7.3396343122977861e+00 0.0000000000000000e+00  3.9618000000000007e+00 7.3396343122977878e+00 0.0000000000000000e+00  3.9618000000000011e+00 7.3396343122977870e+00 0.0000000000000000e+00  3.9618000000000007e+00 7.3396343122977870e+00 0.0000000000000000e+00  3.9618000000000011e+00 7.3396343122977861e+00 0.0000000000000000e+00  3.9618000000000007e+00 7.3396343122977878e+00 0.0000000000000000e+00  3.9618000000000007e+00 7.3396343122977878e+00 0.0000000000000000e+00  3.9618000000000011e+00 7.3396343122977870e+00 0.0000000000000000e+00  3.9618000000000007e+00 7.3396343122977870e+00 0.0000000000000000e+00  3.9618000000000011e+00 7.3396343122977861e+00 0.0000000000000000e+00  3.9618000000000007e+00 7.3396343122977878e+00 0.0000000000000000e+00  3.9618000000000007e+00 7.3396343122977878e+00 0.0000000000000000e+00  3.9618000000000011e+00 7.3396343122977870e+00 0.0000000000000000e+00  3.9618000000000007e+00 7.3396343122977870e+00 0.0000000000000000e+00  3.9618000000000011e+00 7.3396343122977861e+00 0.0000000000000000e+00  3.9618000000000007e+00 7.3396343122977878e+00 0.0000000000000000e+00  3.9618000000000007e+00 7.3396343122977878e+00 0.0000000000000000e+00  3.9618000000000011e+00 7.3396343122977870e+00 0.0000000000000000e+00  3.9618000000000007e+00 7.3396343122977870e+00 0.0000000000000000e+00  3.9618000000000011e+00 7.3396343122977861e+00 0.0000000000000000e+00  3.9618000000000007e+00 7.3396343122977878e+00 0.0000000000000000e+00  3.9618000000000007e+00 7.3396343122977878e+00 0.0000000000000000e+00  3.9618000000000011e+00 7.3396343122977870e+00 0.0000000000000000e+00  3.9618000000000007e+00 7.3396343122977870e+00 0.0000000000000000e+00  3.9618000000000011e+00 7.3396343122977861e+00 0.0000000000000000e+00  3.9618000000000007e+00 7.3396343122977878e+00 0.0000000000000000e+00  3.9618000000000007e+00 7.3396343122977878e+00 0.0000000000000000e+00  3.9618000000000011e+00 7.3396343122977870e+00 0.0000000000000000e+00  3.9618000000000007e+00 7.3396343122977870e+00 0.0000000000000000e+00  3.9618000000000011e+00 7.3396343122977861e+00 0.0000000000000000e+00  3.9618000000000007e+00 7.3396343122977878e+00 0.0000000000000000e+00  3.9618000000000007e+00 7.3396343122977878e+00 0.0000000000000000e+00  3.9618000000000011e+00 7.3396343122977870e+00 0.0000000000000000e+00  3.9618000000000007e+00 7.3396343122977870e+00 0.0000000000000000e+00  3.9618000000000011e+00 7.3396343122977861e+00 0.0000000000000000e+00  3.9618000000000007e+00 7.3396343122977878e+00 0.0000000000000000e+00  3.9618000000000007e+00 7.3396343122977878e+00 0.0000000000000000e+00  3.9618000000000011e+00 7.3396343122977870e+00 0.0000000000000000e+00  3.9618000000000007e+00 7.3396343122977870e+00 0.0000000000000000e+00  3.9618000000000011e+00 7.3396343122977861e+00 0.0000000000000000e+00  3.9618000000000007e+00 7.3396343122977878e+00 0.0000000000000000e+00  3.9618000000000007e+00 7.3396343122977878e+00 0.0000000000000000e+00  3.9618000000000011e+00 7.3396343122977870e+00 0.0000000000000000e+00  3.9618000000000007e+00 7.3396343122977870e+00 0.0000000000000000e+00  3.9618000000000011e+00 7.3396343122977861e+00 0.0000000000000000e+00  3.9618000000000007e+00 7.3396343122977878e+00 0.0000000000000000e+00  3.9618000000000007e+00 7.3396343122977878e+00 0.0000000000000000e+00  3.9618000000000011e+00 7.3396343122977870e+00 0.0000000000000000e+00  3.9618000000000007e+00 7.3396343122977870e+00 0.0000000000000000e+00  3.9618000000000007e+00 7.3396343122977861e+00 0.0000000000000000e+00  3.9618000000000011e+00 7.3396343122977870e+00 0.0000000000000000e+00  3.9618000000000011e+00 7.3396343122977887e+00 0.0000000000000000e+00  3.9618000000000007e+00 7.3396343122977878e+00 0.0000000000000000e+00  3.9618000000000007e+00 7.3396343122977887e+00 0.0000000000000000e+00  3.9618000000000007e+00 7.3396343122977878e+00 0.0000000000000000e+00  3.9618000000000007e+00 7.3396343122977870e+00 0.0000000000000000e+00  3.9618000000000007e+00 7.3396343122977878e+00 0.0000000000000000e+00  3.9618000000000007e+00 7.3396343122977878e+00 0.0000000000000000e+00  3.9618000000000007e+00 7.3396343122977887e+00 0.0000000000000000e+00  3.9618000000000007e+00 7.3396343122977878e+00 0.0000000000000000e+00  3.9618000000000007e+00 7.3396343122977870e+00 0.0000000000000000e+00  3.9618000000000007e+00 7.3396343122977878e+00 0.0000000000000000e+00  3.9618000000000007e+00 7.3396343122977878e+00 0.0000000000000000e+00  3.9618000000000007e+00 7.3396343122977887e+00 0.0000000000000000e+00  3.9618000000000007e+00 7.3396343122977878e+00 0.0000000000000000e+00  3.9618000000000007e+00 7.3396343122977870e+00 0.0000000000000000e+00  3.9618000000000007e+00 7.3396343122977878e+00 0.0000000000000000e+00  3.9618000000000007e+00 7.3396343122977878e+00 0.0000000000000000e+00  3.9618000000000007e+00 7.3396343122977887e+00 0.0000000000000000e+00  3.9618000000000007e+00 7.3396343122977878e+00 0.0000000000000000e+00  3.9618000000000007e+00 7.3396343122977870e+00 0.0000000000000000e+00  3.9618000000000007e+00 7.3396343122977878e+00 0.0000000000000000e+00  3.9618000000000007e+00 7.3396343122977878e+00 0.0000000000000000e+00  3.9618000000000007e+00 7.3396343122977887e+00 0.0000000000000000e+00  3.9618000000000007e+00 7.3396343122977878e+00 0.0000000000000000e+00  3.9618000000000007e+00 7.3396343122977861e+00 0.0000000000000000e+00  1.0000000000000007e+00 9.6148134319178442e-16 0.0000000000000000e+00  9.9999999999999989e-01 -2.5762814944582610e-16 0.0000000000000000e+00  1.0000000000000004e+00 6.9031254591535927e-17 0.0000000000000000e+00  1.0000000000000000e+00 -1.8496868920313459e-17 0.0000000000000000e+00  1.0000000000000002e+00 4.9562210897190694e-18 0.0000000000000000e+00  1.0000000000000002e+00 -1.3280154385628305e-18 0.0000000000000000e+00  9.9999999999999989e-01 3.5584066453217318e-19 0.0000000000000000e+00  1.0000000000000004e+00 -9.5347219565884251e-20 0.0000000000000000e+00  1.0000000000000000e+00 2.5548213731358083e-20 0.0000000000000000e+00  1.0000000000000002e+00 -6.8456353595496897e-21 0.0000000000000000e+00  1.0000000000000002e+00 1.8343277068406903e-21 0.0000000000000000e+00  9.9999999999999989e-01 -4.9167546781296076e-22 0.0000000000000000e+00  1.0000000000000004e+00 1.3237416441118371e-22 0.0000000000000000e+00  1.0000000000000000e+00 -3.7821189831766180e-23 0.0000000000000000e+00  1.0000000000000002e+00 1.8910594915883081e-23 0.0000000000000000e+00  </DataArray> 
</PointData> 
</Piece>
</UnstructuredGrid>
</VTKFile>